       N       E                     dE             d eps       ncg     rms          ort
DAV:   1     0.826834515114E+04    0.82683E+04   -0.24636E+05  8424   0.238E+03
DAV:   2     0.919489026003E+03   -0.73489E+04   -0.68983E+04  8424   0.656E+02
DAV:   3    -0.674263595572E+03   -0.15938E+04   -0.14007E+04  8424   0.282E+02
DAV:   4    -0.830279944011E+03   -0.15602E+03   -0.15330E+03  8424   0.857E+01
DAV:   5    -0.832770835224E+03   -0.24909E+01   -0.24802E+01  8424   0.121E+01
SDA:   6    -0.236832158169E+03    0.59594E+03   -0.24802E+01  8424   0.616E+04 0.000E+00
CGA:   7    -0.282109645002E+03   -0.45277E+02   -0.44208E+03  8424   0.234E+05-0.252E+04
CGA:   8    -0.164140267566E+03    0.11797E+03   -0.68605E+03  8424   0.582E+04-0.612E+03
CGA:   9    -0.282964372884E+03   -0.11882E+03   -0.26927E+03  8424   0.202E+04-0.412E+03
CGA:  10    -0.307717685272E+03   -0.24753E+02   -0.15734E+03  8424   0.244E+04-0.781E+02
CGA:  11    -0.484796532781E+03   -0.17708E+03   -0.68400E+02  8424   0.130E+04 0.126E+04
CGA:  12    -0.475285430727E+03    0.95111E+01   -0.58801E+02  8424   0.106E+04-0.171E+03
CGA:  13    -0.535186887582E+03   -0.59901E+02   -0.33097E+02  8424   0.630E+03 0.360E+02
CGA:  14    -0.563317895324E+03   -0.28131E+02   -0.13906E+02  8424   0.225E+04 0.251E+04
CGA:  15    -0.500760320129E+03    0.62558E+02   -0.83794E+02  8424   0.132E+04-0.591E+03
CGA:  16    -0.556972908901E+03   -0.56213E+02   -0.37213E+02  8424   0.825E+03-0.461E+03
CGA:  17    -0.577272749879E+03   -0.20300E+02   -0.85416E+01  8424   0.714E+03 0.836E+03
CGA:  18    -0.619360250032E+03   -0.42088E+02   -0.11494E+02  8424   0.810E+03-0.194E+04
CGA:  19    -0.584254110216E+03    0.35106E+02   -0.37980E+02  8424   0.288E+04-0.590E+03
CGA:  20    -0.498043254205E+03    0.86211E+02   -0.10449E+03  8424   0.215E+04-0.117E+04
CGA:  21    -0.583016617354E+03   -0.84973E+02   -0.38547E+02  8424   0.553E+03-0.486E+03
CGA:  22    -0.593358543218E+03   -0.10342E+02   -0.48799E+01  8424   0.738E+03 0.701E+03
CGA:  23    -0.633714226958E+03   -0.40356E+02   -0.11283E+02  8424   0.119E+04-0.263E+04
CGA:  24    -0.597639887568E+03    0.36074E+02   -0.49825E+02  8424   0.192E+04-0.611E+03
CGA:  25    -0.510070477153E+03    0.87569E+02   -0.57718E+02  8424   0.523E+04-0.291E+04
CGA:  26    -0.567692421087E+03   -0.57622E+02   -0.20124E+03  8424   0.692E+03-0.776E+03
CGA:  27    -0.587930276971E+03   -0.20238E+02   -0.11054E+02  8424   0.502E+03 0.534E+03
CGA:  28    -0.635313098878E+03   -0.47383E+02   -0.68303E+01  8424   0.116E+04 0.265E+04
CGA:  29    -0.641698908209E+03   -0.63858E+01   -0.27104E+02  8424   0.795E+03-0.791E+03
CGA:  30    -0.638624936993E+03    0.30740E+01   -0.23540E+02  8424   0.120E+04-0.842E+03
CGA:  31    -0.647794070363E+03   -0.91691E+01   -0.25848E+02  8424   0.544E+03-0.760E+03
CGA:  32    -0.650708350258E+03   -0.29143E+01   -0.15038E+02  8424   0.136E+03-0.125E+03
CGA:  33    -0.652833160516E+03   -0.21248E+01   -0.12873E+01  8424   0.489E+02 0.640E+02
CGA:  34    -0.653860870188E+03   -0.10277E+01   -0.10263E+01  8424   0.269E+02-0.522E+01
CGA:  35    -0.654538944896E+03   -0.67807E+00   -0.61857E+00  8424   0.567E+02 0.558E+00
CGA:  36    -0.655680242701E+03   -0.11413E+01   -0.20480E+01  8424   0.890E+02 0.552E+00
CGA:  37    -0.657905028212E+03   -0.22248E+01   -0.31161E+01  8424   0.229E+02 0.171E+00
CGA:  38    -0.658564513597E+03   -0.65949E+00   -0.85497E+00  8424   0.102E+02-0.119E+01
CGA:  39    -0.659191231657E+03   -0.62672E+00   -0.53391E+00  8424   0.104E+02-0.503E+01
CGA:  40    -0.659773165867E+03   -0.58193E+00   -0.39773E+00  8424   0.256E+02 0.734E+01
CGA:  41    -0.660457614824E+03   -0.68445E+00   -0.70019E+00  8424   0.431E+01-0.771E+00
CGA:  42    -0.660878783888E+03   -0.42117E+00   -0.70476E+00  8424   0.244E+02-0.383E+01
CGA:  43    -0.661400985028E+03   -0.52220E+00   -0.84701E+00  8424   0.472E+01-0.275E+01
CGA:  44    -0.661615906482E+03   -0.21492E+00   -0.21967E+00  8424   0.179E+01-0.272E-01
CGA:  45    -0.661916500062E+03   -0.30059E+00   -0.28465E+00  8424   0.247E+01 0.188E+00
CGA:  46    -0.662263139324E+03   -0.34664E+00   -0.30342E+00  8424   0.105E+01 0.754E+00
CGA:  47    -0.662413965902E+03   -0.15083E+00   -0.14671E+00  8424   0.122E+01 0.872E-01
CGA:  48    -0.662551249455E+03   -0.13728E+00   -0.13663E+00  8424   0.105E+01-0.154E-01
CGA:  49    -0.662659595206E+03   -0.10835E+00   -0.10348E+00  8424   0.324E+00 0.124E+00
CGA:  50    -0.662705181958E+03   -0.45587E-01   -0.44479E-01  8424   0.283E+00 0.150E-01
CGA:  51    -0.662739006904E+03   -0.33825E-01   -0.34621E-01  8424   0.202E+00-0.225E-01
CGA:  52    -0.662781657799E+03   -0.42651E-01   -0.59435E-01  8424   0.278E+00-0.773E-01
CGA:  53    -0.662798296456E+03   -0.16639E-01   -0.16724E-01  8424   0.129E+00-0.184E-01
CGA:  54    -0.662816689451E+03   -0.18393E-01   -0.18940E-01  8424   0.929E-01-0.861E-02
CGA:  55    -0.662833517415E+03   -0.16828E-01   -0.17533E-01  8424   0.144E+00-0.671E-02
CGA:  56    -0.662846604260E+03   -0.13087E-01   -0.13065E-01  8424   0.562E-01-0.681E-02
CGA:  57    -0.662855738749E+03   -0.91345E-02   -0.88501E-02  8424   0.384E-01 0.444E-02
CGA:  58    -0.662862016681E+03   -0.62779E-02   -0.58588E-02  8424   0.471E-01 0.113E-01
CGA:  59    -0.662870632517E+03   -0.86158E-02   -0.82480E-02  8424   0.286E-01 0.132E-01
CGA:  60    -0.662876530489E+03   -0.58980E-02   -0.53778E-02  8424   0.179E-01 0.133E-01
CGA:  61    -0.662880651667E+03   -0.41212E-02   -0.37867E-02  8424   0.145E-01 0.941E-02
CGA:  62    -0.662882891972E+03   -0.22403E-02   -0.22607E-02  8424   0.243E-01-0.517E-03
CGA:  63    -0.662886406153E+03   -0.35142E-02   -0.34336E-02  8424   0.147E-01 0.248E-02
CGA:  64    -0.662890335488E+03   -0.39293E-02   -0.36220E-02  8424   0.138E-01 0.280E-02
CGA:  65    -0.662892183177E+03   -0.18477E-02   -0.18588E-02  8424   0.165E-01 0.140E-02
CGA:  66    -0.662895825499E+03   -0.36423E-02   -0.32705E-02  8424   0.991E-02 0.621E-02
CGA:  67    -0.662898254506E+03   -0.24290E-02   -0.22671E-02  8424   0.192E-01 0.371E-02
CGA:  68    -0.662902364546E+03   -0.41100E-02   -0.39945E-02  8424   0.178E-01 0.402E-02
CGA:  69    -0.662911133087E+03   -0.87685E-02   -0.70590E-02  8424   0.276E-01 0.809E-02
CGA:  70    -0.662918575567E+03   -0.74425E-02   -0.71622E-02  8424   0.690E-01 0.611E-02
CGA:  71    -0.662936864326E+03   -0.18289E-01   -0.17830E-01  8424   0.790E-01 0.142E-02
CGA:  72    -0.662947049679E+03   -0.10185E-01   -0.10090E-01  8424   0.109E+00-0.123E-01
CGA:  73    -0.662959586068E+03   -0.12536E-01   -0.12304E-01  8424   0.711E-01-0.342E-01
CGA:  74    -0.662964623352E+03   -0.50373E-02   -0.42746E-02  8424   0.637E-01-0.157E-01
CGA:  75    -0.662970781755E+03   -0.61584E-02   -0.57710E-02  8424   0.481E-01-0.200E-01
CGA:  76    -0.662974470882E+03   -0.36891E-02   -0.33479E-02  8424   0.515E-01-0.126E-01
CGA:  77    -0.662980329846E+03   -0.58590E-02   -0.63431E-02  8424   0.369E-01-0.179E-01
CGA:  78    -0.662982389141E+03   -0.20593E-02   -0.17772E-02  8424   0.238E-01-0.505E-02
CGA:  79    -0.662985592340E+03   -0.32032E-02   -0.33493E-02  8424   0.351E-01-0.591E-02
CGA:  80    -0.662988317609E+03   -0.27253E-02   -0.25085E-02  8424   0.281E-01-0.665E-02
CGA:  81    -0.662991378036E+03   -0.30604E-02   -0.30669E-02  8424   0.324E-01-0.630E-02
CGA:  82    -0.662993348718E+03   -0.19707E-02   -0.18372E-02  8424   0.160E-01-0.292E-02
CGA:  83    -0.662994649538E+03   -0.13008E-02   -0.12862E-02  8424   0.170E-01-0.624E-03
CGA:  84    -0.662996635981E+03   -0.19864E-02   -0.19761E-02  8424   0.141E-01-0.179E-02
CGA:  85    -0.662997802856E+03   -0.11669E-02   -0.10662E-02  8424   0.113E-01-0.251E-02
CGA:  86    -0.662999130267E+03   -0.13274E-02   -0.14578E-02  8424   0.135E-01-0.437E-02
CGA:  87    -0.662999670732E+03   -0.54046E-03   -0.42919E-03  8424   0.740E-02-0.146E-02
CGA:  88    -0.663000209358E+03   -0.53863E-03   -0.48341E-03  8424   0.864E-02-0.107E-02
CGA:  89    -0.663001117307E+03   -0.90795E-03   -0.91823E-03  8424   0.137E-01-0.319E-02
CGA:  90    -0.663001754811E+03   -0.63750E-03   -0.45202E-03  8424   0.103E-01-0.294E-02
CGA:  91    -0.663002522071E+03   -0.76726E-03   -0.62733E-03  8424   0.144E-01-0.374E-02
SDA:  92    -0.663003486499E+03   -0.96443E-03   -0.81146E-03  8424   0.188E-01-0.599E-02
CGA:  93    -0.663005009220E+03   -0.15227E-02   -0.15171E-02  8424   0.755E-02 0.410E-04
CGA:  94    -0.663006557724E+03   -0.15485E-02   -0.44948E-03  8424   0.346E-01-0.778E-02
CGA:  95    -0.663010809493E+03   -0.42518E-02   -0.43671E-02  8424   0.122E-01 0.136E-02
CGA:  96    -0.663012229795E+03   -0.14203E-02   -0.13630E-02  8424   0.480E-02-0.743E-03
CGA:  97    -0.663013536706E+03   -0.13069E-02   -0.17016E-02  8424   0.763E-02-0.219E-02
CGA:  98    -0.663014226926E+03   -0.69022E-03   -0.13396E-02  8424   0.287E-01-0.558E-02
CGA:  99    -0.663016284069E+03   -0.20571E-02   -0.21179E-02  8424   0.787E-02 0.119E-02
CGA: 100    -0.663018434208E+03   -0.21501E-02   -0.21903E-02  8424   0.318E-02-0.652E-03
CGA: 101    -0.663019204912E+03   -0.77070E-03   -0.12526E-02  8424   0.874E-02-0.219E-02
CGA: 102    -0.663020123668E+03   -0.91876E-03   -0.96245E-03  8424   0.386E-02 0.387E-03
CGA: 103    -0.663020813135E+03   -0.68947E-03   -0.65606E-03  8424   0.336E-02-0.664E-03
CGA: 104    -0.663020689706E+03    0.12343E-03   -0.23065E-02  8424   0.228E-01-0.396E-02
CGA: 105    -0.663023271327E+03   -0.25816E-02   -0.24999E-02  8424   0.154E-01-0.121E-02
CGA: 106    -0.663025818310E+03   -0.25470E-02   -0.25335E-02  8424   0.184E-02-0.199E-03
CGA: 107    -0.663026304294E+03   -0.48598E-03   -0.91960E-03  8424   0.834E-02-0.159E-02
CGA: 108    -0.663027413003E+03   -0.11087E-02   -0.11060E-02  8424   0.118E-02-0.588E-04
CGA: 109    -0.663028031766E+03   -0.61876E-03    0.14106E-02  8424   0.926E-03 0.822E-03
CGA: 110    -0.663028517954E+03   -0.48619E-03    0.12067E-02  8424   0.148E-02 0.446E-03
CGA: 111    -0.663029596508E+03   -0.10786E-02    0.10481E-01  8424   0.255E-02 0.121E-02
CGA: 112    -0.663029939513E+03   -0.34301E-03   -0.28131E-03  8424   0.207E-02-0.501E-03
CGA: 113    -0.663029770183E+03    0.16933E-03   -0.13337E-02  8424   0.285E-01-0.268E-02
CGA: 114    -0.663032627306E+03   -0.28571E-02   -0.27553E-02  8424   0.653E-02-0.109E-02
CGA: 115    -0.663033113987E+03   -0.48668E-03   -0.49624E-03  8424   0.848E-03 0.895E-04
CGA: 116    -0.663033591296E+03   -0.47731E-03    0.78990E-03  8424   0.104E-02 0.623E-03
CGA: 117    -0.663033661010E+03   -0.69713E-04   -0.51964E-03  8424   0.183E-01-0.178E-02
CGA: 118    -0.663034617470E+03   -0.95646E-03   -0.10185E-02  8424   0.110E-02 0.788E-03
CGA: 119    -0.663034966702E+03   -0.34923E-03   -0.39367E-03  8424   0.331E-02-0.468E-03
CGA: 120    -0.663035950989E+03   -0.98429E-03    0.99441E-02  8424   0.114E-01-0.279E-03
CGA: 121    -0.663042617483E+03   -0.66665E-02    0.48768E-02  8424   0.120E-01 0.733E-02
CGA: 122    -0.663043774006E+03   -0.11565E-02   -0.11457E-02  8424   0.341E-02 0.390E-04
CGA: 123    -0.663044253707E+03   -0.47970E-03   -0.38791E-03  8424   0.114E-02-0.717E-03
CGA: 124    -0.663044755604E+03   -0.50190E-03    0.61940E-03  8424   0.107E-02 0.560E-03
CGA: 125    -0.663045610770E+03   -0.85517E-03    0.15400E-02  8424   0.134E-02 0.719E-03
CGA: 126    -0.663045756033E+03   -0.14526E-03   -0.13785E-03  8424   0.106E-02-0.509E-04
CGA: 127    -0.663046370117E+03   -0.61408E-03    0.39023E-03  8424   0.102E-02 0.578E-03
CGA: 128    -0.663046474721E+03   -0.10460E-03   -0.53087E-03  8424   0.968E-02-0.147E-02
CGA: 129    -0.663047159778E+03   -0.68506E-03   -0.71203E-03  8424   0.198E-02 0.284E-03
CGA: 130    -0.663047549411E+03   -0.38963E-03   -0.34574E-03  8424   0.137E-02-0.653E-03
CGA: 131    -0.663048151752E+03   -0.60234E-03    0.26377E-03  8424   0.138E-02 0.705E-03
CGA: 132    -0.663048500476E+03   -0.34872E-03   -0.37408E-03  8424   0.246E-02-0.691E-03
CGA: 133    -0.663048728511E+03   -0.22803E-03   -0.22368E-03  8424   0.109E-02-0.196E-04
CGA: 134    -0.663047138004E+03    0.15905E-02   -0.95457E-03  8424   0.385E-01-0.389E-02
CGA: 135    -0.663050063550E+03   -0.29255E-02   -0.30126E-02  8424   0.778E-02 0.844E-03
CGA: 136    -0.663050906250E+03   -0.84270E-03   -0.78338E-03  8424   0.547E-03-0.426E-03
CGA: 137    -0.663051262620E+03   -0.35637E-03    0.15414E-03  8424   0.540E-03 0.418E-03
CGA: 138    -0.663051593442E+03   -0.33082E-03    0.26145E-03  8424   0.162E-02 0.635E-04
CGA: 139    -0.663052896267E+03   -0.13028E-02    0.46586E-03  8424   0.122E-02 0.134E-02
CGA: 140    -0.663053148083E+03   -0.25182E-03   -0.24190E-03  8424   0.102E-02-0.213E-03
CGA: 141    -0.663053674147E+03   -0.52606E-03    0.34952E-03  8424   0.226E-02 0.162E-03
CGA: 142    -0.663055309013E+03   -0.16349E-02    0.10892E-02  8424   0.149E-02 0.137E-02
CGA: 143    -0.663055605120E+03   -0.29611E-03   -0.26313E-03  8424   0.147E-02-0.510E-03
CGA: 144    -0.663055772033E+03   -0.16691E-03   -0.36864E-03  8424   0.110E-01-0.142E-02
CGA: 145    -0.663056630443E+03   -0.85841E-03   -0.77171E-03  8424   0.171E-02-0.798E-03
CGA: 146    -0.663056881407E+03   -0.25096E-03   -0.23094E-03  8424   0.798E-03-0.218E-03
CGA: 147    -0.663057329142E+03   -0.44774E-03    0.21225E-03  8424   0.731E-03 0.331E-03
CGA: 148    -0.663057970298E+03   -0.64116E-03    0.36301E-03  8424   0.111E-02 0.499E-03
CGA: 149    -0.663058191913E+03   -0.22162E-03   -0.16672E-03  8424   0.204E-02-0.677E-03
CGA: 150    -0.663058310940E+03   -0.11903E-03   -0.12697E-03  8424   0.381E-03 0.604E-04
CGA: 151    -0.663058614419E+03   -0.30348E-03    0.57027E-04  8424   0.449E-03 0.351E-03
CGA: 152    -0.663058877294E+03   -0.26287E-03    0.14923E-03  8424   0.131E-02-0.215E-04
CGA: 153    -0.663059861931E+03   -0.98464E-03    0.17419E-03  8424   0.160E-02 0.968E-03
CGA: 154    -0.663060018073E+03   -0.15614E-03   -0.15367E-03  8424   0.599E-03-0.138E-04
CGA: 155    -0.663060312359E+03   -0.29429E-03    0.40394E-03  8424   0.136E-02-0.887E-04
CGA: 156    -0.663061300837E+03   -0.98848E-03    0.12582E-03  8424   0.177E-02 0.111E-02
CGA: 157    -0.663061497879E+03   -0.19704E-03   -0.17706E-03  8424   0.707E-03-0.170E-03
CGA: 158    -0.663061811660E+03   -0.31378E-03    0.37026E-03  8424   0.158E-02-0.207E-03
CGA: 159    -0.663062766137E+03   -0.95448E-03    0.11102E-03  8424   0.189E-02 0.105E-02
CGA: 160    -0.663062917744E+03   -0.15161E-03   -0.15521E-03  8424   0.555E-03 0.378E-04
CGA: 161    -0.663063176274E+03   -0.25853E-03    0.43557E-03  8424   0.941E-03-0.627E-04
CGA: 162    -0.663063859031E+03   -0.68276E-03    0.82299E-04  8424   0.107E-02 0.732E-03
CGA: 163    -0.663064069587E+03   -0.21056E-03   -0.20477E-03  8424   0.151E-02-0.527E-03
CGA: 164    -0.663064465406E+03   -0.39582E-03    0.27325E-03  8424   0.305E-02-0.524E-03
CGA: 165    -0.663065704535E+03   -0.12391E-02    0.36766E-03  8424   0.312E-02 0.746E-03
CGA: 166    -0.663066417565E+03   -0.71303E-03   -0.10957E-02  8424   0.261E-01-0.481E-02
CGA: 167    -0.663068111417E+03   -0.16939E-02   -0.15942E-02  8424   0.148E-02-0.173E-02
CGA: 168    -0.663068320782E+03   -0.20936E-03   -0.18710E-03  8424   0.663E-03-0.350E-03
CGA: 169    -0.663068645795E+03   -0.32501E-03    0.76821E-04  8424   0.717E-03 0.140E-03
CGA: 170    -0.663069126423E+03   -0.48063E-03    0.20235E-03  8424   0.534E-03 0.303E-03
CGA: 171    -0.663069747457E+03   -0.62103E-03    0.67525E-04  8424   0.372E-03 0.602E-03
CGA: 172    -0.663069894680E+03   -0.14722E-03    0.23165E-02  8424   0.934E-03-0.813E-04
CGA: 173    -0.663070532355E+03   -0.63768E-03    0.57346E-04  8424   0.144E-02 0.369E-03
CGA: 174    -0.663071706432E+03   -0.11741E-02    0.39356E-03  8424   0.433E-02-0.116E-03
CGA: 175    -0.663074921573E+03   -0.32151E-02    0.36321E-03  8424   0.116E-01 0.195E-03
CGA: 176    -0.663082247994E+03   -0.73264E-02    0.21612E-02  8424   0.525E-01-0.109E-01
CGA: 177    -0.663085997337E+03   -0.37493E-02   -0.36900E-02  8424   0.664E-02-0.299E-02
CGA: 178    -0.663086558589E+03   -0.56125E-03   -0.55234E-03  8424   0.683E-03-0.697E-04
CGA: 179    -0.663086835448E+03   -0.27686E-03    0.54446E-03  8424   0.188E-03 0.314E-03
CGA: 180    -0.663087020018E+03   -0.18457E-03    0.30406E-04  8424   0.140E-03 0.149E-03
CGA: 181    -0.663087162930E+03   -0.14291E-03    0.71831E-05  8424   0.131E-03 0.984E-04
CGA: 182    -0.663087284184E+03   -0.12125E-03    0.79186E-05  8424   0.156E-03 0.871E-04
CGA: 183    -0.663087431303E+03   -0.14712E-03    0.91286E-05  8424   0.354E-03 0.892E-05
CGA: 184    -0.663087867624E+03   -0.43632E-03    0.15816E-04  8424   0.298E-03 0.327E-03
CGA: 185    -0.663087916549E+03   -0.48925E-04   -0.73632E-04  8424   0.166E-02-0.394E-03
CGA: 186    -0.663088103730E+03   -0.18718E-03   -0.13065E-03  8424   0.474E-03-0.542E-03
CGA: 187    -0.663088259682E+03   -0.15595E-03    0.84222E-04  8424   0.324E-03-0.278E-04
CGA: 188    -0.663088536093E+03   -0.27641E-03    0.18507E-04  8424   0.152E-03 0.168E-03
CGA: 189    -0.663088635261E+03   -0.99168E-04    0.17204E-04  8424   0.396E-03-0.108E-04
CGA: 190    -0.663089113921E+03   -0.47866E-03    0.12957E-04  8424   0.486E-03 0.362E-03
CGA: 191    -0.663089190344E+03   -0.76423E-04   -0.99365E-04  8424   0.336E-02-0.101E-02
CGA: 192    -0.663089343974E+03   -0.15363E-03   -0.17144E-03  8424   0.107E-03 0.159E-03
CGA: 193    -0.663089464896E+03   -0.12092E-03    0.47268E-05  8424   0.176E-03 0.822E-04
CGA: 194    -0.663089605605E+03   -0.14071E-03    0.12171E-04  8424   0.520E-03-0.691E-04
CGA: 195    -0.663090093116E+03   -0.48751E-03    0.82104E-05  8424   0.141E-02 0.232E-03
CGA: 196    -0.663091521950E+03   -0.14288E-02    0.18002E-03  8424   0.222E-02 0.106E-03
CGA: 197    -0.663094247060E+03   -0.27251E-02    0.93486E-04  8424   0.424E-03 0.204E-02
CGA: 198    -0.663094166560E+03    0.80501E-04   -0.13366E-03  8424   0.842E-02-0.154E-02
CGA: 199    -0.663094549294E+03   -0.38273E-03   -0.42035E-03  8424   0.116E-03 0.390E-03
CGA: 200    -0.663094655608E+03   -0.10631E-03    0.71409E-05  8424   0.238E-03 0.375E-04
   1 F= -.66309466E+03 E0= -.66308778E+03  d E =-.663095E+03  mag=    22.0000
       N       E                     dE             d eps       ncg     rms          ort
SDA:   1    -0.663099527718E+03   -0.49784E-02    0.00000E+00  8424   0.931E-02 0.000E+00
CGA:   2    -0.663100222551E+03   -0.69483E-03   -0.71992E-03  8424   0.142E-02 0.351E-03
CGA:   3    -0.663100447128E+03   -0.22458E-03   -0.20425E-03  8424   0.149E-02-0.628E-03
CGA:   4    -0.663100733150E+03   -0.28602E-03    0.45876E-02  8424   0.963E-03-0.107E-03
CGA:   5    -0.663094352365E+03    0.63808E-02   -0.34550E-02  8424   0.900E-01-0.790E-02
CGA:   6    -0.663101332189E+03   -0.69798E-02   -0.71204E-02  8424   0.124E-01-0.364E-02
CGA:   7    -0.663102154438E+03   -0.82225E-03   -0.84866E-03  8424   0.171E-02 0.387E-03
CGA:   8    -0.663102706898E+03   -0.55246E-03   -0.10642E-02  8424   0.558E-02-0.161E-02
CGA:   9    -0.663103302389E+03   -0.59549E-03   -0.54933E-03  8424   0.194E-02-0.275E-03
CGA:  10    -0.663103476212E+03   -0.17382E-03   -0.16925E-03  8424   0.386E-03-0.183E-04
CGA:  11    -0.663103755089E+03   -0.27888E-03    0.18496E-03  8424   0.479E-03-0.114E-03
CGA:  12    -0.663104223866E+03   -0.46878E-03    0.32721E-04  8424   0.350E-03 0.468E-06
CGA:  13    -0.663104783758E+03   -0.55989E-03    0.26981E-04  8424   0.511E-03 0.153E-03
CGA:  14    -0.663105870622E+03   -0.10869E-02    0.64080E-04  8424   0.805E-03 0.151E-03
CGA:  15    -0.663107422971E+03   -0.15523E-02    0.90031E-04  8424   0.387E-02-0.441E-03
CGA:  16    -0.663107754591E+03   -0.33162E-03   -0.27220E-03  8424   0.857E-03-0.341E-03
CGA:  17    -0.663107950927E+03   -0.19634E-03   -0.18752E-03  8424   0.880E-03-0.275E-03
CGA:  18    -0.663108274577E+03   -0.32365E-03    0.45087E-01  8424   0.182E-02-0.697E-03
CGA:  19    -0.663108393890E+03   -0.11931E-03   -0.12114E-03  8424   0.449E-03 0.204E-04
CGA:  20    -0.663108728089E+03   -0.33420E-03    0.14161E-03  8424   0.138E-03 0.561E-04
CGA:  21    -0.663108991511E+03   -0.26342E-03    0.89779E-05  8424   0.188E-03 0.592E-04
CGA:  22    -0.663109452657E+03   -0.46115E-03    0.15189E-04  8424   0.516E-03 0.971E-04
CGA:  23    -0.663109569150E+03   -0.11649E-03   -0.68122E-04  8424   0.886E-03-0.382E-03
CGA:  24    -0.663109620662E+03   -0.51511E-04   -0.51264E-04  8424   0.111E-03 0.255E-05
CGA:  25    -0.663109810045E+03   -0.18938E-03    0.54366E-05  8424   0.975E-04 0.960E-04
CGA:  26    -0.663109981201E+03   -0.17116E-03    0.45751E-05  8424   0.237E-03 0.405E-04
CGA:  27    -0.663110531266E+03   -0.55006E-03    0.17362E-04  8424   0.193E-03 0.232E-03
CGA:  28    -0.663110693470E+03   -0.16220E-03    0.32693E-04  8424   0.114E-02-0.231E-03
CGA:  29    -0.663110752757E+03   -0.59288E-04   -0.63585E-04  8424   0.104E-03 0.306E-04
CGA:  30    -0.663110916422E+03   -0.16366E-03    0.54683E-05  8424   0.140E-03 0.593E-04
CGA:  31    -0.663111088751E+03   -0.17233E-03    0.10108E-04  8424   0.332E-03-0.247E-04
CGA:  32    -0.663111569274E+03   -0.48052E-03    0.11665E-04  8424   0.756E-03 0.740E-04
CGA:  33    -0.663112984644E+03   -0.14154E-02    0.47824E-04  8424   0.520E-03 0.667E-03
CGA:  34    -0.663113093599E+03   -0.10896E-03   -0.58217E-04  8424   0.677E-03-0.420E-03
CGA:  35    -0.663113137259E+03   -0.43660E-04   -0.40470E-04  8424   0.976E-04-0.167E-04
CGA:  36    -0.663113309850E+03   -0.17259E-03    0.33540E-05  8424   0.840E-04 0.930E-04
CGA:  37    -0.663113463389E+03   -0.15354E-03    0.29284E-05  8424   0.115E-03 0.701E-04
CGA:  38    -0.663113571313E+03   -0.10792E-03    0.11220E-04  8424   0.465E-03-0.350E-04
CGA:  39    -0.663114255210E+03   -0.68390E-03    0.93543E-05  8424   0.150E-02 0.245E-03
CGA:  40    -0.663114409453E+03   -0.15424E-03   -0.10058E-03  8424   0.227E-03-0.370E-03
CGA:  41    -0.663114543213E+03   -0.13376E-03    0.21404E-04  8424   0.296E-03-0.391E-05
CGA:  42    -0.663114930013E+03   -0.38680E-03    0.14509E-04  8424   0.211E-03 0.129E-03
CGA:  43    -0.663115296224E+03   -0.36621E-03    0.17360E-04  8424   0.389E-03 0.975E-04
CGA:  44    -0.663116216055E+03   -0.91983E-03    0.21446E-04  8424   0.101E-03 0.470E-03
CGA:  45    -0.663116340868E+03   -0.12481E-03    0.56661E-05  8424   0.149E-03 0.449E-04
CGA:  46    -0.663116700787E+03   -0.35992E-03    0.77787E-05  8424   0.214E-03 0.149E-03
CGA:  47    -0.663113852591E+03    0.28482E-02   -0.15534E-02  8424   0.640E-01-0.272E-02
CGA:  48    -0.663117483010E+03   -0.36304E-02   -0.39616E-02  8424   0.418E-02-0.881E-02
CGA:  49    -0.663117730149E+03   -0.24714E-03   -0.27325E-03  8424   0.141E-03 0.140E-03
CGA:  50    -0.663117946469E+03   -0.21632E-03    0.23715E-04  8424   0.439E-03-0.558E-04
CGA:  51    -0.663118657732E+03   -0.71126E-03    0.17040E-04  8424   0.237E-02-0.328E-03
CGA:  52    -0.663119037929E+03   -0.38020E-03   -0.28422E-03  8424   0.133E-02-0.422E-03
CGA:  53    -0.663119175421E+03   -0.13749E-03   -0.97637E-04  8424   0.171E-03-0.151E-03
CGA:  54    -0.663119395817E+03   -0.22040E-03    0.21172E-04  8424   0.382E-03 0.115E-04
CGA:  55    -0.663120085316E+03   -0.68950E-03    0.43542E-04  8424   0.274E-02-0.344E-03
CGA:  56    -0.663120246450E+03   -0.16113E-03   -0.16261E-03  8424   0.302E-03 0.353E-04
CGA:  57    -0.663120524281E+03   -0.27783E-03    0.11354E-03  8424   0.492E-03-0.209E-03
CGA:  58    -0.663120620097E+03   -0.95816E-04   -0.82999E-04  8424   0.267E-03-0.865E-04
CGA:  59    -0.663120856247E+03   -0.23615E-03    0.47003E-04  8424   0.198E-02-0.347E-03
CGA:  60    -0.663120972365E+03   -0.11612E-03   -0.11545E-03  8424   0.206E-03 0.174E-04
CGA:  61    -0.663121236962E+03   -0.26460E-03    0.27196E-04  8424   0.211E-03-0.495E-04
CGA:  62    -0.663121646815E+03   -0.40985E-03    0.72609E-05  8424   0.228E-03 0.144E-03
CGA:  63    -0.663121825151E+03   -0.17834E-03    0.10796E-03  8424   0.159E-03-0.353E-04
CGA:  64    -0.663122170509E+03   -0.34536E-03    0.60093E-05  8424   0.160E-03 0.119E-03
CGA:  65    -0.663122373858E+03   -0.20335E-03    0.21224E-04  8424   0.272E-03-0.960E-05
CGA:  66    -0.663122843839E+03   -0.46998E-03    0.18235E-04  8424   0.159E-02-0.251E-03
CGA:  67    -0.663122936347E+03   -0.92507E-04   -0.10364E-03  8424   0.312E-03 0.576E-04
CGA:  68    -0.663123147687E+03   -0.21134E-03    0.32296E-03  8424   0.247E-03-0.130E-03
CGA:  69    -0.663123522141E+03   -0.37445E-03    0.58101E-05  8424   0.262E-03 0.124E-03
CGA:  70    -0.663123753374E+03   -0.23123E-03    0.69366E-04  8424   0.133E-03-0.168E-04
CGA:  71    -0.663124013664E+03   -0.26029E-03    0.66984E-05  8424   0.273E-03 0.619E-04
CGA:  72    -0.663124796503E+03   -0.78284E-03    0.23764E-04  8424   0.630E-03 0.136E-03
CGA:  73    -0.663126711024E+03   -0.19145E-02    0.53143E-04  8424   0.746E-03 0.401E-03
CGA:  74    -0.663126901090E+03   -0.19007E-03   -0.11912E-03  8424   0.151E-02-0.567E-03
CGA:  75    -0.663126975219E+03   -0.74129E-04   -0.81322E-04  8424   0.794E-04 0.452E-04
CGA:  76    -0.663127153571E+03   -0.17835E-03    0.35890E-05  8424   0.111E-03 0.646E-04
CGA:  77    -0.663127325118E+03   -0.17155E-03    0.79918E-05  8424   0.743E-03-0.934E-04
CGA:  78    -0.663127369919E+03   -0.44802E-04   -0.43117E-04  8424   0.782E-04-0.420E-05
CGA:  79    -0.663127555968E+03   -0.18605E-03    0.27639E-05  8424   0.747E-04 0.769E-04
CGA:  80    -0.663127730092E+03   -0.17412E-03    0.27405E-05  8424   0.145E-03 0.501E-04
CGA:  81    -0.663124672626E+03    0.30575E-02   -0.16707E-02  8424   0.762E-01-0.234E-02
CGA:  82    -0.663128530301E+03   -0.38577E-02   -0.51968E-02  8424   0.805E-02-0.242E-01
CGA:  83    -0.663128916690E+03   -0.38639E-03   -0.41245E-03  8424   0.708E-04 0.179E-03
CGA:  84    -0.663129161574E+03   -0.24488E-03    0.53517E-05  8424   0.360E-03 0.295E-04
CGA:  85    -0.663130879923E+03   -0.17183E-02    0.38012E-04  8424   0.104E-02 0.218E-03
CGA:  86    -0.663130938027E+03   -0.58105E-04   -0.57519E-04  8424   0.791E-04 0.914E-05
CGA:  87    -0.663131233708E+03   -0.29568E-03    0.47338E-05  8424   0.104E-03 0.519E-04
CGA:  88    -0.663131439914E+03   -0.20621E-03    0.15448E-04  8424   0.668E-03-0.653E-04
CGA:  89    -0.663131500897E+03   -0.60983E-04   -0.46197E-04  8424   0.144E-03-0.389E-04
CGA:  90    -0.663131825950E+03   -0.32505E-03    0.13258E-04  8424   0.565E-03-0.923E-04
CGA:  91    -0.663131882952E+03   -0.57003E-04   -0.53761E-04  8424   0.197E-03-0.762E-05
CGA:  92    -0.663132032322E+03   -0.14937E-03    0.40090E-02  8424   0.205E-02-0.411E-03
CGA:  93    -0.663132181072E+03   -0.14875E-03   -0.13923E-03  8424   0.325E-03-0.102E-04
CGA:  94    -0.663121252617E+03    0.10928E-01   -0.61552E-02  8424   0.138E+00-0.578E-02
CGA:  95    -0.663132122528E+03   -0.10870E-01   -0.11270E-01  8424   0.246E-01-0.480E-03
CGA:  96    -0.663134038344E+03   -0.19158E-02   -0.20399E-02  8424   0.101E-02-0.117E-02
CGA:  97    -0.663134123760E+03   -0.85416E-04   -0.11900E-03  8424   0.124E-03 0.740E-04
CGA:  98    -0.663134284798E+03   -0.16104E-03    0.12868E-02  8424   0.397E-02-0.427E-03
CGA:  99    -0.663134503880E+03   -0.21908E-03   -0.22216E-03  8424   0.275E-03 0.135E-03
CGA: 100    -0.663134606604E+03   -0.10272E-03   -0.18566E-03  8424   0.403E-02-0.886E-03
CGA: 101    -0.663135046839E+03   -0.44024E-03   -0.48153E-03  8424   0.180E-03 0.112E-03
CGA: 102    -0.663134819737E+03    0.22710E-03   -0.20125E-03  8424   0.645E-02-0.787E-03
CGA: 103    -0.663135446178E+03   -0.62644E-03   -0.57772E-03  8424   0.209E-02 0.119E-03
CGA: 104    -0.663135859028E+03   -0.41285E-03   -0.26042E-03  8424   0.311E-03-0.389E-03
CGA: 105    -0.663135984775E+03   -0.12575E-03   -0.61779E-04  8424   0.726E-03-0.229E-03
CGA: 106    -0.663136084044E+03   -0.99269E-04   -0.55964E-04  8424   0.196E-03-0.111E-03
CGA: 107    -0.663136101424E+03   -0.17379E-04   -0.11086E-03  8424   0.435E-02-0.526E-03
CGA: 108    -0.663136529885E+03   -0.42846E-03   -0.32075E-03  8424   0.768E-03-0.443E-03
CGA: 109    -0.663136667087E+03   -0.13720E-03   -0.80398E-04  8424   0.186E-03-0.157E-03
CGA: 110    -0.663136960842E+03   -0.29376E-03    0.28897E-04  8424   0.133E-02-0.194E-03
CGA: 111    -0.663137034309E+03   -0.73467E-04   -0.81689E-04  8424   0.170E-03 0.319E-04
CGA: 112    -0.663137207049E+03   -0.17274E-03    0.28220E-03  8424   0.933E-03-0.265E-03
CGA: 113    -0.663137347168E+03   -0.14012E-03   -0.11121E-03  8424   0.255E-03-0.830E-04
CGA: 114    -0.663137444281E+03   -0.97114E-04   -0.98498E-04  8424   0.550E-02-0.853E-03
CGA: 115    -0.663137699844E+03   -0.25556E-03   -0.29524E-03  8424   0.243E-03 0.206E-03
CGA: 116    -0.663137803626E+03   -0.10378E-03   -0.95005E-04  8424   0.835E-03-0.321E-03
CGA: 117    -0.663137989490E+03   -0.18586E-03   -0.12368E-03  8424   0.358E-03-0.252E-03
CGA: 118    -0.663138086807E+03   -0.97316E-04   -0.43933E-04  8424   0.733E-03-0.249E-03
CGA: 119    -0.663138194246E+03   -0.10744E-03   -0.57474E-04  8424   0.201E-03-0.181E-03
CGA: 120    -0.663138329856E+03   -0.13561E-03    0.12069E-03  8424   0.101E-02-0.197E-03
CGA: 121    -0.663138468637E+03   -0.13878E-03   -0.81019E-04  8424   0.260E-03-0.216E-03
CGA: 122    -0.663138435481E+03    0.33155E-04   -0.11072E-03  8424   0.535E-02-0.753E-03
CGA: 123    -0.663138865661E+03   -0.43018E-03   -0.36325E-03  8424   0.625E-03-0.469E-03
CGA: 124    -0.663138939187E+03   -0.73526E-04   -0.59628E-04  8424   0.878E-04-0.566E-04
CGA: 125    -0.663139122435E+03   -0.18325E-03    0.54215E-05  8424   0.244E-03-0.285E-05
CGA: 126    -0.663139724355E+03   -0.60192E-03    0.13825E-04  8424   0.929E-03-0.626E-04
CGA: 127    -0.663142682990E+03   -0.29586E-02    0.21089E-04  8424   0.108E-02 0.533E-03
CGA: 128    -0.663142956520E+03   -0.27353E-03   -0.18217E-03  8424   0.121E-02-0.562E-03
CGA: 129    -0.663143007041E+03   -0.50522E-04   -0.63588E-04  8424   0.581E-04 0.611E-04
CGA: 130    -0.663143115317E+03   -0.10828E-03    0.51095E-05  8424   0.200E-03-0.276E-04
CGA: 131    -0.663143636306E+03   -0.52099E-03    0.23470E-05  8424   0.119E-02-0.119E-03
CGA: 132    -0.663143799366E+03   -0.16306E-03   -0.12731E-03  8424   0.231E-03-0.172E-03
CGA: 133    -0.663141899904E+03    0.18995E-02   -0.21788E-03  8424   0.501E-01-0.264E-02
CGA: 134    -0.663144377945E+03   -0.24780E-02   -0.25425E-02  8424   0.873E-03 0.273E-02
CGA: 135    -0.663144443005E+03   -0.65059E-04   -0.86914E-04  8424   0.244E-03 0.981E-04
CGA: 136    -0.663144503286E+03   -0.60281E-04   -0.36195E-04  8424   0.244E-03-0.135E-03
CGA: 137    -0.663144545305E+03   -0.42019E-04   -0.24462E-04  8424   0.147E-03-0.855E-04
CGA: 138    -0.663144760613E+03   -0.21531E-03    0.49799E-05  8424   0.398E-03-0.839E-04
CGA: 139    -0.663144791144E+03   -0.30531E-04   -0.32540E-04  8424   0.827E-04 0.112E-04
CGA: 140    -0.663144891134E+03   -0.99990E-04    0.11322E-04  8424   0.509E-03-0.126E-03
CGA: 141    -0.663144943049E+03   -0.51915E-04   -0.39840E-04  8424   0.113E-03-0.576E-04
CGA: 142    -0.663145094451E+03   -0.15140E-03    0.78264E-05  8424   0.535E-03-0.144E-03
CGA: 143    -0.663145123642E+03   -0.29191E-04   -0.34656E-04  8424   0.766E-04 0.291E-04
CGA: 144    -0.663145213466E+03   -0.89824E-04    0.96061E-05  8424   0.254E-03-0.794E-04
CGA: 145    -0.663145282586E+03   -0.69119E-04   -0.55011E-04  8424   0.626E-03-0.300E-03
CGA: 146    -0.663145369174E+03   -0.86588E-04   -0.55368E-04  8424   0.209E-03-0.185E-03
CGA: 147    -0.663145401030E+03   -0.31855E-04   -0.42277E-04  8424   0.115E-02-0.298E-03
CGA: 148    -0.663145543081E+03   -0.14205E-03   -0.90679E-04  8424   0.268E-03-0.310E-03
CGA: 149    -0.663145592378E+03   -0.49297E-04   -0.46144E-04  8424   0.895E-03-0.311E-03
CGA: 150    -0.663145693793E+03   -0.10142E-03   -0.67618E-04  8424   0.183E-03-0.207E-03
CGA: 151    -0.663145718186E+03   -0.24393E-04   -0.42075E-04  8424   0.114E-02-0.283E-03
CGA: 152    -0.663145855045E+03   -0.13686E-03   -0.87796E-04  8424   0.252E-03-0.318E-03
CGA: 153    -0.663145879236E+03   -0.24191E-04   -0.56263E-04  8424   0.171E-02-0.415E-03
CGA: 154    -0.663146031662E+03   -0.15243E-03   -0.11441E-03  8424   0.194E-03-0.242E-03
CGA: 155    -0.663146066203E+03   -0.34541E-04   -0.26468E-04  8424   0.214E-03-0.118E-03
CGA: 156    -0.663145958461E+03    0.10774E-03   -0.87835E-04  8424   0.686E-02-0.105E-02
CGA: 157    -0.663146262112E+03   -0.30365E-03   -0.34796E-03  8424   0.172E-03 0.372E-03
CGA: 158    -0.663146302727E+03   -0.40614E-04   -0.36594E-04  8424   0.322E-03-0.178E-03
CGA: 159    -0.663146366388E+03   -0.63661E-04   -0.79982E-04  8424   0.190E-02-0.646E-03
CGA: 160    -0.663146451270E+03   -0.84882E-04   -0.10434E-03  8424   0.129E-03 0.132E-03
CGA: 161    -0.663144662380E+03    0.17889E-02   -0.98161E-03  8424   0.236E-01-0.169E-02
CGA: 162    -0.663147035423E+03   -0.23730E-02   -0.22790E-02  8424   0.699E-04-0.175E-03
CGA: 163    -0.663147128891E+03   -0.93468E-04    0.16844E-04  8424   0.177E-02-0.246E-03
CGA: 164    -0.663147198726E+03   -0.69836E-04   -0.87336E-04  8424   0.273E-04 0.736E-04
CGA: 165    -0.663147312375E+03   -0.11365E-03    0.11380E-05  8424   0.164E-03 0.230E-05
CGA: 166    -0.663148220571E+03   -0.90820E-03    0.53262E-05  8424   0.264E-03 0.113E-03
CGA: 167    -0.663148287106E+03   -0.66535E-04   -0.41845E-04  8424   0.186E-03-0.120E-03
CGA: 168    -0.663148235683E+03    0.51424E-04   -0.56466E-04  8424   0.491E-02-0.527E-03
CGA: 169    -0.663148593292E+03   -0.35761E-03   -0.28849E-03  8424   0.297E-03-0.425E-03
CGA: 170    -0.663148664335E+03   -0.71043E-04   -0.47696E-04  8424   0.265E-03-0.138E-03
CGA: 171    -0.663148836202E+03   -0.17187E-03    0.30662E-04  8424   0.159E-02-0.354E-03
CGA: 172    -0.663148901032E+03   -0.64830E-04   -0.88621E-04  8424   0.162E-03 0.103E-03
CGA: 173    -0.663148956538E+03   -0.55506E-04   -0.60851E-04  8424   0.400E-03-0.192E-03
CGA: 174    -0.663149087119E+03   -0.13058E-03   -0.10137E-03  8424   0.716E-03-0.405E-03
CGA: 175    -0.663149131781E+03   -0.44662E-04   -0.52729E-04  8424   0.133E-03 0.367E-04
CGA: 176    -0.663149168234E+03   -0.36453E-04   -0.47911E-04  8424   0.120E-02-0.354E-03
CGA: 177    -0.663149254833E+03   -0.86599E-04   -0.88464E-04  8424   0.208E-03-0.148E-05
CGA: 178    -0.663149308508E+03   -0.53675E-04   -0.67431E-04  8424   0.183E-02-0.550E-03
CGA: 179    -0.663149406833E+03   -0.98325E-04   -0.11766E-03  8424   0.241E-03 0.102E-03
CGA: 180    -0.663149467878E+03   -0.61045E-04   -0.39848E-04  8424   0.157E-03-0.160E-03
CGA: 181    -0.663149508675E+03   -0.40797E-04   -0.28757E-04  8424   0.252E-03-0.123E-03
CGA: 182    -0.663149570210E+03   -0.61535E-04   -0.28729E-04  8424   0.295E-03-0.202E-03
CGA: 183    -0.663149584528E+03   -0.14319E-04   -0.15690E-04  8424   0.218E-04 0.696E-05
CGA: 184    -0.663149666229E+03   -0.81700E-04    0.47554E-06  8424   0.287E-04 0.213E-04
CGA: 185    -0.663149749860E+03   -0.83631E-04    0.79726E-06  8424   0.148E-03-0.104E-04
CGA: 186    -0.663150209567E+03   -0.45971E-03    0.14510E-05  8424   0.720E-03 0.387E-04
CGA: 187    -0.663152554322E+03   -0.23448E-02    0.29394E-04  8424   0.161E-02 0.719E-04
CGA: 188    -0.663158529030E+03   -0.59747E-02    0.41162E-04  8424   0.150E-03 0.795E-03
CGA: 189    -0.663158984341E+03   -0.45531E-03    0.99154E-05  8424   0.155E-02-0.302E-03
CGA: 190    -0.663159110015E+03   -0.12567E-03   -0.90450E-04  8424   0.576E-04-0.200E-03
CGA: 191    -0.663159116063E+03   -0.60473E-05   -0.54704E-05  8424   0.291E-04-0.428E-05
   2 F= -.66315912E+03 E0= -.66315199E+03  d E =-.644605E-01  mag=    22.0000
       N       E                     dE             d eps       ncg     rms          ort
SDA:   1    -0.663161186093E+03   -0.20761E-02    0.00000E+00  8424   0.518E-02 0.000E+00
CGA:   2    -0.663161538441E+03   -0.35235E-03   -0.29579E-03  8424   0.343E-03-0.433E-03
CGA:   3    -0.663161589037E+03   -0.50596E-04   -0.46417E-04  8424   0.209E-03-0.494E-04
CGA:   4    -0.663160999400E+03    0.58964E-03   -0.17894E-03  8424   0.124E-01-0.999E-03
CGA:   5    -0.663161566517E+03   -0.56712E-03   -0.63671E-03  8424   0.780E-03 0.580E-03
CGA:   6    -0.663161708044E+03   -0.14153E-03   -0.14911E-03  8424   0.371E-03 0.103E-03
CGA:   7    -0.663161769138E+03   -0.61094E-04   -0.48360E-04  8424   0.299E-03-0.942E-04
CGA:   8    -0.663161795811E+03   -0.26673E-04   -0.25521E-04  8424   0.988E-04-0.892E-05
CGA:   9    -0.663161817592E+03   -0.21781E-04   -0.19495E-04  8424   0.285E-03-0.652E-04
CGA:  10    -0.663161853403E+03   -0.35811E-04   -0.21138E-04  8424   0.846E-04-0.923E-04
CGA:  11    -0.663161864535E+03   -0.11132E-04   -0.11165E-04  8424   0.401E-04 0.738E-06
CGA:  12    -0.663161911118E+03   -0.46582E-04    0.29902E-05  8424   0.104E-03-0.124E-04
CGA:  13    -0.663162013899E+03   -0.10278E-03    0.37519E-05  8424   0.100E-03 0.215E-04
CGA:  14    -0.663162099570E+03   -0.85671E-04    0.24329E-04  8424   0.324E-03-0.255E-04
CGA:  15    -0.663162416180E+03   -0.31661E-03    0.14513E-04  8424   0.116E-02-0.169E-03
CGA:  16    -0.663162567279E+03   -0.15110E-03   -0.13117E-03  8424   0.105E-03-0.177E-03
CGA:  17    -0.663162571580E+03   -0.43014E-05   -0.77936E-05  8424   0.506E-04 0.261E-04
CGA:  18    -0.663162560016E+03    0.11564E-04   -0.36441E-04  8424   0.743E-03-0.134E-03
CGA:  19    -0.663162637172E+03   -0.77156E-04   -0.71106E-04  8424   0.802E-04-0.437E-04
CGA:  20    -0.663162675740E+03   -0.38568E-04    0.64869E-04  8424   0.551E-03-0.146E-03
CGA:  21    -0.663162689000E+03   -0.13260E-04   -0.25505E-04  8424   0.258E-04 0.702E-04
CGA:  22    -0.663162695067E+03   -0.60665E-05   -0.53697E-05  8424   0.962E-04-0.217E-04
CGA:  23    -0.663162714690E+03   -0.19624E-04   -0.21411E-04  8424   0.879E-03-0.250E-03
CGA:  24    -0.663162738130E+03   -0.23439E-04   -0.40065E-04  8424   0.253E-04 0.102E-03
CGA:  25    -0.663162740522E+03   -0.23927E-05   -0.24563E-05  8424   0.239E-04 0.465E-06
   3 F= -.66316274E+03 E0= -.66315561E+03  d E =-.362446E-02  mag=    22.0000
       N       E                     dE             d eps       ncg     rms          ort
SDA:   1    -0.631314390816E+03    0.31848E+02    0.00000E+00  8424   0.958E+02 0.000E+00
CGA:   2    -0.651492037945E+03   -0.20178E+02   -0.20167E+02  8424   0.623E+02 0.124E+01
CGA:   3    -0.659280483930E+03   -0.77884E+01   -0.67554E+01  8424   0.172E+02 0.837E+01
CGA:   4    -0.662856555710E+03   -0.35761E+01   -0.34922E+01  8424   0.607E+01-0.157E+01
CGA:   5    -0.663799542064E+03   -0.94299E+00   -0.94656E+00  8424   0.152E+01 0.540E-01
CGA:   6    -0.663992808889E+03   -0.19327E+00   -0.19040E+00  8424   0.894E+00-0.521E-02
CGA:   7    -0.664071308686E+03   -0.78500E-01   -0.87907E-01  8424   0.251E+00-0.588E-01
CGA:   8    -0.664115681750E+03   -0.44373E-01   -0.44365E-01  8424   0.116E+00 0.214E-02
CGA:   9    -0.664132020013E+03   -0.16338E-01   -0.16836E-01  8424   0.721E-01 0.133E-02
CGA:  10    -0.664142405981E+03   -0.10386E-01   -0.10402E-01  8424   0.256E-01 0.249E-02
CGA:  11    -0.664148324267E+03   -0.59183E-02   -0.58587E-02  8424   0.119E-01 0.103E-02
CGA:  12    -0.664150135229E+03   -0.18110E-02   -0.18402E-02  8424   0.768E-02 0.110E-02
CGA:  13    -0.664151813811E+03   -0.16786E-02   -0.16704E-02  8424   0.268E-02 0.336E-03
CGA:  14    -0.664152517441E+03   -0.70363E-03   -0.67490E-03  8424   0.151E-02 0.507E-03
CGA:  15    -0.664152919514E+03   -0.40207E-03   -0.39617E-03  8424   0.146E-02 0.158E-03
CGA:  16    -0.664153102092E+03   -0.18258E-03   -0.22028E-03  8424   0.702E-03 0.732E-03
CGA:  17    -0.664153229589E+03   -0.12750E-03   -0.12854E-03  8424   0.369E-03 0.437E-03
CGA:  18    -0.664153312833E+03   -0.83244E-04   -0.76506E-04  8424   0.306E-03 0.308E-03
CGA:  19    -0.664153343512E+03   -0.30679E-04   -0.42928E-04  8424   0.282E-03 0.265E-03
CGA:  20    -0.664153402669E+03   -0.59157E-04   -0.55906E-04  8424   0.290E-03 0.233E-03
CGA:  21    -0.664153415964E+03   -0.13295E-04   -0.30780E-04  8424   0.250E-03 0.222E-03
CGA:  22    -0.664153465507E+03   -0.49543E-04   -0.47566E-04  8424   0.258E-03 0.214E-03
CGA:  23    -0.664153476602E+03   -0.11095E-04   -0.27049E-04  8424   0.228E-03 0.209E-03
CGA:  24    -0.664153517677E+03   -0.41075E-04   -0.40824E-04  8424   0.229E-03 0.205E-03
CGA:  25    -0.664153528967E+03   -0.11290E-04   -0.25035E-04  8424   0.213E-03 0.200E-03
CGA:  26    -0.664153563724E+03   -0.34758E-04   -0.35863E-04  8424   0.211E-03 0.197E-03
CGA:  27    -0.664153575204E+03   -0.11479E-04   -0.23533E-04  8424   0.200E-03 0.193E-03
CGA:  28    -0.664153604845E+03   -0.29642E-04   -0.31881E-04  8424   0.198E-03 0.190E-03
CGA:  29    -0.664153616671E+03   -0.11825E-04   -0.22414E-04  8424   0.191E-03 0.186E-03
CGA:  30    -0.664153642386E+03   -0.25716E-04   -0.28763E-04  8424   0.188E-03 0.183E-03
CGA:  31    -0.664153654600E+03   -0.12213E-04   -0.21549E-04  8424   0.183E-03 0.180E-03
CGA:  32    -0.664153677369E+03   -0.22769E-04   -0.26332E-04  8424   0.180E-03 0.178E-03
CGA:  33    -0.664153689770E+03   -0.12401E-04   -0.20750E-04  8424   0.176E-03 0.175E-03
CGA:  34    -0.664153710299E+03   -0.20529E-04   -0.24390E-04  8424   0.174E-03 0.172E-03
CGA:  35    -0.664153722638E+03   -0.12340E-04   -0.19946E-04  8424   0.171E-03 0.170E-03
CGA:  36    -0.664153741471E+03   -0.18833E-04   -0.22818E-04  8424   0.168E-03 0.168E-03
CGA:  37    -0.664153753546E+03   -0.12075E-04   -0.19126E-04  8424   0.166E-03 0.165E-03
CGA:  38    -0.664153771105E+03   -0.17559E-04   -0.21533E-04  8424   0.164E-03 0.163E-03
CGA:  39    -0.664153782761E+03   -0.11656E-04   -0.18296E-04  8424   0.162E-03 0.161E-03
CGA:  40    -0.664153799364E+03   -0.16603E-04   -0.20463E-04  8424   0.160E-03 0.159E-03
CGA:  41    -0.664153810507E+03   -0.11143E-04   -0.17473E-04  8424   0.158E-03 0.157E-03
CGA:  42    -0.664153826380E+03   -0.15873E-04   -0.19553E-04  8424   0.156E-03 0.156E-03
CGA:  43    -0.664153836988E+03   -0.10607E-04   -0.16681E-04  8424   0.154E-03 0.154E-03
CGA:  44    -0.664153852269E+03   -0.15281E-04   -0.18752E-04  8424   0.153E-03 0.152E-03
CGA:  45    -0.664153862385E+03   -0.10116E-04   -0.15949E-04  8424   0.151E-03 0.150E-03
CGA:  46    -0.664153877147E+03   -0.14763E-04   -0.18024E-04  8424   0.149E-03 0.149E-03
CGA:  47    -0.664153886855E+03   -0.97076E-05   -0.15293E-04  8424   0.148E-03 0.147E-03
CGA:  48    -0.664153901137E+03   -0.14282E-04   -0.17345E-04  8424   0.146E-03 0.146E-03
CGA:  49    -0.664153910527E+03   -0.93900E-05   -0.14711E-04  8424   0.145E-03 0.144E-03
CGA:  50    -0.664153924354E+03   -0.13827E-04   -0.16710E-04  8424   0.144E-03 0.143E-03
CGA:  51    -0.664153933506E+03   -0.91524E-05   -0.14198E-04  8424   0.142E-03 0.142E-03
CGA:  52    -0.664153946913E+03   -0.13407E-04   -0.16119E-04  8424   0.141E-03 0.140E-03
CGA:  53    -0.664153955885E+03   -0.89721E-05   -0.13739E-04  8424   0.140E-03 0.139E-03
CGA:  54    -0.664153968915E+03   -0.13029E-04   -0.15574E-04  8424   0.138E-03 0.138E-03
CGA:  55    -0.664153977742E+03   -0.88273E-05   -0.13322E-04  8424   0.137E-03 0.137E-03
CGA:  56    -0.664153990443E+03   -0.12702E-04   -0.15078E-04  8424   0.136E-03 0.136E-03
CGA:  57    -0.664153999148E+03   -0.87042E-05   -0.12939E-04  8424   0.135E-03 0.135E-03
CGA:  58    -0.664154011571E+03   -0.12424E-04   -0.14628E-04  8424   0.134E-03 0.133E-03
CGA:  59    -0.664154020171E+03   -0.85995E-05   -0.12586E-04  8424   0.133E-03 0.132E-03
CGA:  60    -0.664154032357E+03   -0.12186E-04   -0.14219E-04  8424   0.132E-03 0.131E-03
CGA:  61    -0.664154040867E+03   -0.85101E-05   -0.12260E-04  8424   0.131E-03 0.130E-03
CGA:  62    -0.664154052854E+03   -0.11987E-04   -0.13848E-04  8424   0.130E-03 0.129E-03
CGA:  63    -0.664154061290E+03   -0.84362E-05   -0.11961E-04  8424   0.129E-03 0.128E-03
CGA:  64    -0.664154073109E+03   -0.11819E-04   -0.13510E-04  8424   0.128E-03 0.127E-03
CGA:  65    -0.664154081489E+03   -0.83803E-05   -0.11686E-04  8424   0.127E-03 0.126E-03
CGA:  66    -0.664154093168E+03   -0.11679E-04   -0.13202E-04  8424   0.126E-03 0.125E-03
CGA:  67    -0.664154101508E+03   -0.83393E-05   -0.11436E-04  8424   0.125E-03 0.124E-03
CGA:  68    -0.664154113074E+03   -0.11567E-04   -0.12923E-04  8424   0.124E-03 0.124E-03
CGA:  69    -0.664154121387E+03   -0.83122E-05   -0.11207E-04  8424   0.123E-03 0.123E-03
CGA:  70    -0.664154132868E+03   -0.11481E-04   -0.12673E-04  8424   0.122E-03 0.122E-03
CGA:  71    -0.664154141165E+03   -0.82970E-05   -0.10998E-04  8424   0.121E-03 0.121E-03
CGA:  72    -0.664154152588E+03   -0.11424E-04   -0.12450E-04  8424   0.121E-03 0.120E-03
CGA:  73    -0.664154160878E+03   -0.82895E-05   -0.10806E-04  8424   0.120E-03 0.119E-03
CGA:  74    -0.664154172273E+03   -0.11395E-04   -0.12254E-04  8424   0.119E-03 0.118E-03
CGA:  75    -0.664154180565E+03   -0.82919E-05   -0.10633E-04  8424   0.118E-03 0.118E-03
CGA:  76    -0.664154191959E+03   -0.11394E-04   -0.12085E-04  8424   0.117E-03 0.117E-03
CGA:  77    -0.664154200261E+03   -0.83022E-05   -0.10474E-04  8424   0.116E-03 0.116E-03
CGA:  78    -0.664154211684E+03   -0.11423E-04   -0.11942E-04  8424   0.116E-03 0.115E-03
CGA:  79    -0.664154220001E+03   -0.83170E-05   -0.10330E-04  8424   0.115E-03 0.114E-03
CGA:  80    -0.664154231485E+03   -0.11484E-04   -0.11826E-04  8424   0.114E-03 0.114E-03
CGA:  81    -0.664154239826E+03   -0.83406E-05   -0.10202E-04  8424   0.113E-03 0.113E-03
CGA:  82    -0.664154251400E+03   -0.11575E-04   -0.11736E-04  8424   0.113E-03 0.112E-03
CGA:  83    -0.664154259768E+03   -0.83681E-05   -0.10086E-04  8424   0.112E-03 0.111E-03
CGA:  84    -0.664154271474E+03   -0.11705E-04   -0.11677E-04  8424   0.111E-03 0.111E-03
CGA:  85    -0.664154279873E+03   -0.83999E-05   -0.99828E-05  8424   0.110E-03 0.110E-03
CGA:  86    -0.664154291748E+03   -0.11875E-04   -0.11647E-04  8424   0.110E-03 0.109E-03
CGA:  87    -0.664154300180E+03   -0.84319E-05   -0.98899E-05  8424   0.109E-03 0.108E-03
CGA:  88    -0.664154312272E+03   -0.12092E-04   -0.11651E-04  8424   0.108E-03 0.108E-03
CGA:  89    -0.664154320735E+03   -0.84633E-05   -0.98068E-05  8424   0.107E-03 0.107E-03
CGA:  90    -0.664154333096E+03   -0.12360E-04   -0.11690E-04  8424   0.107E-03 0.106E-03
CGA:  91    -0.664154341585E+03   -0.84890E-05   -0.97309E-05  8424   0.106E-03 0.105E-03
CGA:  92    -0.664154354276E+03   -0.12691E-04   -0.11770E-04  8424   0.106E-03 0.105E-03
CGA:  93    -0.664154362782E+03   -0.85063E-05   -0.96610E-05  8424   0.105E-03 0.104E-03
CGA:  94    -0.664154375876E+03   -0.13094E-04   -0.11897E-04  8424   0.104E-03 0.103E-03
CGA:  95    -0.664154384385E+03   -0.85090E-05   -0.95943E-05  8424   0.103E-03 0.102E-03
CGA:  96    -0.664154397971E+03   -0.13585E-04   -0.12077E-04  8424   0.103E-03 0.102E-03
CGA:  97    -0.664154406456E+03   -0.84851E-05   -0.95250E-05  8424   0.102E-03 0.101E-03
CGA:  98    -0.664154420637E+03   -0.14181E-04   -0.12321E-04  8424   0.102E-03 0.100E-03
CGA:  99    -0.664154429063E+03   -0.84265E-05   -0.94497E-05  8424   0.101E-03 0.994E-04
CGA: 100    -0.664154443970E+03   -0.14907E-04   -0.12640E-04  8424   0.100E-03 0.986E-04
CGA: 101    -0.664154452288E+03   -0.83180E-05   -0.93618E-05  8424   0.992E-04 0.978E-04
CGA: 102    -0.664154468075E+03   -0.15787E-04   -0.13050E-04  8424   0.992E-04 0.970E-04
CGA: 103    -0.664154476217E+03   -0.81425E-05   -0.92544E-05  8424   0.979E-04 0.962E-04
CGA: 104    -0.664154493073E+03   -0.16856E-04   -0.13567E-04  8424   0.982E-04 0.953E-04
CGA: 105    -0.664154500959E+03   -0.78861E-05   -0.91218E-05  8424   0.966E-04 0.945E-04
CGA: 106    -0.664154519099E+03   -0.18140E-04   -0.14209E-04  8424   0.973E-04 0.936E-04
CGA: 107    -0.664154526639E+03   -0.75409E-05   -0.89624E-05  8424   0.952E-04 0.927E-04
CGA: 108    -0.664154546305E+03   -0.19666E-04   -0.14989E-04  8424   0.967E-04 0.917E-04
CGA: 109    -0.664154553411E+03   -0.71058E-05   -0.87778E-05  8424   0.939E-04 0.909E-04
CGA: 110    -0.664154574854E+03   -0.21443E-04   -0.15915E-04  8424   0.963E-04 0.898E-04
CGA: 111    -0.664154581467E+03   -0.66129E-05   -0.85856E-05  8424   0.925E-04 0.889E-04
CGA: 112    -0.664154604940E+03   -0.23473E-04   -0.16990E-04  8424   0.962E-04 0.877E-04
CGA: 113    -0.664154611033E+03   -0.60935E-05   -0.84035E-05  8424   0.910E-04 0.869E-04
CGA: 114    -0.664154636815E+03   -0.25782E-04   -0.18228E-04  8424   0.965E-04 0.856E-04
CGA: 115    -0.664154642383E+03   -0.55674E-05   -0.82439E-05  8424   0.895E-04 0.848E-04
CGA: 116    -0.664154670840E+03   -0.28457E-04   -0.19679E-04  8424   0.973E-04 0.834E-04
CGA: 117    -0.664154675879E+03   -0.50388E-05   -0.81140E-05  8424   0.879E-04 0.826E-04
CGA: 118    -0.664154707477E+03   -0.31599E-04   -0.21397E-04  8424   0.986E-04 0.812E-04
CGA: 119    -0.664154711988E+03   -0.45103E-05   -0.80221E-05  8424   0.861E-04 0.804E-04
CGA: 120    -0.664154747368E+03   -0.35380E-04   -0.23480E-04  8424   0.101E-03 0.788E-04
CGA: 121    -0.664154751360E+03   -0.39920E-05   -0.79834E-05  8424   0.843E-04 0.781E-04
CGA: 122    -0.664154791434E+03   -0.40074E-04   -0.26076E-04  8424   0.104E-03 0.763E-04
CGA: 123    -0.664154794922E+03   -0.34878E-05   -0.80156E-05  8424   0.822E-04 0.756E-04
CGA: 124    -0.664154841038E+03   -0.46116E-04   -0.29424E-04  8424   0.109E-03 0.738E-04
CGA: 125    -0.664154844054E+03   -0.30161E-05   -0.81504E-05  8424   0.800E-04 0.731E-04
CGA: 126    -0.664154898500E+03   -0.54446E-04   -0.34043E-04  8424   0.117E-03 0.710E-04
CGA: 127    -0.664154901075E+03   -0.25745E-05   -0.84431E-05  8424   0.775E-04 0.705E-04
CGA: 128    -0.664154967433E+03   -0.66358E-04   -0.40590E-04  8424   0.127E-03 0.682E-04
CGA: 129    -0.664154969683E+03   -0.22501E-05   -0.89523E-05  8424   0.747E-04 0.675E-04
CGA: 130    -0.664155059551E+03   -0.89868E-04   -0.53781E-04  8424   0.162E-03 0.637E-04
CGA: 131    -0.664155061723E+03   -0.21717E-05   -0.10595E-04  8424   0.708E-04 0.669E-04
CGA: 132    -0.664155070651E+03   -0.89282E-05   -0.12936E-04  8424   0.138E-03 0.699E-04
CGA: 133    -0.664155081475E+03   -0.10824E-04   -0.46882E-04  8424   0.139E-02-0.231E-03
CGA: 134    -0.664155134351E+03   -0.52876E-04   -0.77652E-04  8424   0.859E-04 0.222E-03
CGA: 135    -0.664155135654E+03   -0.13024E-05   -0.71622E-05  8424   0.777E-04 0.522E-04
CGA: 136    -0.664155165784E+03   -0.30131E-04    0.84141E-04  8424   0.984E-04 0.502E-04
CGA: 137    -0.664155169175E+03   -0.33911E-05   -0.85584E-05  8424   0.707E-04 0.563E-04
CGA: 138    -0.664155195705E+03   -0.26529E-04    0.81612E-04  8424   0.771E-04 0.602E-04
CGA: 139    -0.664155203698E+03   -0.79932E-05   -0.10259E-04  8424   0.777E-04 0.547E-04
CGA: 140    -0.664155233816E+03   -0.30118E-04    0.53587E-04  8424   0.967E-04 0.461E-04
CGA: 141    -0.664155237326E+03   -0.35102E-05   -0.82933E-05  8424   0.678E-04 0.554E-04
CGA: 142    -0.664155262507E+03   -0.25180E-04    0.53844E-04  8424   0.714E-04 0.600E-04
CGA: 143    -0.664155273652E+03   -0.11145E-04   -0.11510E-04  8424   0.789E-04 0.535E-04
CGA: 144    -0.664155304373E+03   -0.30721E-04    0.40862E-04  8424   0.988E-04 0.400E-04
CGA: 145    -0.664155307699E+03   -0.33266E-05   -0.80410E-05  8424   0.646E-04 0.548E-04
CGA: 146    -0.664155331421E+03   -0.23721E-04    0.42849E-04  8424   0.663E-04 0.598E-04
CGA: 147    -0.664155348856E+03   -0.17436E-04   -0.14515E-04  8424   0.838E-04 0.523E-04
CGA: 148    -0.664155381379E+03   -0.32522E-04    0.41295E-04  8424   0.112E-03 0.276E-04
CGA: 149    -0.664155673377E+03   -0.29200E-03   -0.17192E-02  8424   0.932E-04 0.127E-03
CGA: 150    -0.664155653637E+03    0.19739E-04   -0.55619E-04  8424   0.247E-02-0.256E-03
CGA: 151    -0.664155770985E+03   -0.11735E-03   -0.14865E-03  8424   0.813E-04 0.323E-03
CGA: 152    -0.664155772431E+03   -0.14464E-05   -0.76838E-05  8424   0.622E-04 0.290E-04
   4 F= -.66415577E+03 E0= -.66414995E+03  d E =-.993032E+00  mag=    22.0000
       N       E                     dE             d eps       ncg     rms          ort
SDA:   1    -0.662770973206E+03    0.13848E+01    0.00000E+00  8424   0.464E+01 0.000E+00
CGA:   2    -0.663625965040E+03   -0.85499E+00   -0.62702E+00  8424   0.161E+01 0.136E+01
CGA:   3    -0.664125959450E+03   -0.49999E+00   -0.49975E+00  8424   0.630E+00-0.172E-02
CGA:   4    -0.664244265078E+03   -0.11831E+00   -0.12265E+00  8424   0.180E+00-0.950E-02
CGA:   5    -0.664272618862E+03   -0.28354E-01   -0.28380E-01  8424   0.519E-01 0.420E-02
CGA:   6    -0.664281989316E+03   -0.93705E-02   -0.93683E-02  8424   0.147E-01-0.415E-03
CGA:   7    -0.664285487894E+03   -0.34986E-02   -0.34213E-02  8424   0.582E-02-0.340E-03
CGA:   8    -0.664286775842E+03   -0.12879E-02   -0.12964E-02  8424   0.218E-02 0.354E-04
CGA:   9    -0.664287265314E+03   -0.48947E-03   -0.49817E-03  8424   0.829E-03 0.399E-04
CGA:  10    -0.664287445628E+03   -0.18031E-03   -0.19326E-03  8424   0.450E-03 0.683E-04
CGA:  11    -0.664287623741E+03   -0.17811E-03   -0.17073E-03  8424   0.464E-03-0.119E-03
CGA:  12    -0.664287748456E+03   -0.12471E-03   -0.11463E-03  8424   0.568E-03-0.140E-03
CGA:  13    -0.664286503150E+03    0.12453E-02   -0.61685E-03  8424   0.943E-02-0.166E-02
CGA:  14    -0.664288203721E+03   -0.17006E-02   -0.17630E-02  8424   0.302E-02 0.417E-03
CGA:  15    -0.664288879989E+03   -0.67627E-03   -0.65878E-03  8424   0.106E-02-0.121E-03
CGA:  16    -0.664289182040E+03   -0.30205E-03   -0.29376E-03  8424   0.412E-03-0.445E-04
CGA:  17    -0.664289348470E+03   -0.16643E-03   -0.27955E-03  8424   0.170E-02-0.409E-03
CGA:  18    -0.664289528922E+03   -0.18045E-03   -0.18612E-03  8424   0.226E-03 0.182E-03
CGA:  19    -0.664289643507E+03   -0.11458E-03   -0.12717E-03  8424   0.426E-03-0.156E-03
CGA:  20    -0.664289719030E+03   -0.75523E-04   -0.75474E-04  8424   0.102E-03-0.185E-05
CGA:  21    -0.664289762370E+03   -0.43340E-04   -0.44201E-04  8424   0.220E-03-0.508E-04
CGA:  22    -0.664289951726E+03   -0.18936E-03    0.22212E-04  8424   0.454E-03-0.766E-04
CGA:  23    -0.664290428455E+03   -0.47673E-03    0.68028E-04  8424   0.902E-03-0.122E-05
CGA:  24    -0.664291218558E+03   -0.79010E-03    0.41559E-02  8424   0.154E-02-0.436E-03
CGA:  25    -0.664292407169E+03   -0.11886E-02    0.21527E-03  8424   0.283E-02-0.163E-02
CGA:  26    -0.664292905436E+03   -0.49827E-03   -0.48191E-03  8424   0.109E-02-0.102E-04
CGA:  27    -0.664293250009E+03   -0.34457E-03   -0.31533E-03  8424   0.613E-03-0.260E-03
CGA:  28    -0.664293332358E+03   -0.82349E-04   -0.97479E-04  8424   0.351E-03 0.788E-04
CGA:  29    -0.664293558905E+03   -0.22655E-03   -0.24052E-03  8424   0.515E-03-0.679E-04
CGA:  30    -0.664293723333E+03   -0.16443E-03   -0.17957E-03  8424   0.139E-02-0.520E-03
CGA:  31    -0.664293864481E+03   -0.14115E-03   -0.16233E-03  8424   0.204E-03 0.137E-03
CGA:  32    -0.664293950824E+03   -0.86343E-04   -0.85920E-04  8424   0.120E-03-0.632E-04
CGA:  33    -0.664294028170E+03   -0.77347E-04    0.79393E-04  8424   0.257E-03-0.747E-04
CGA:  34    -0.664294056486E+03   -0.28316E-04   -0.33819E-04  8424   0.480E-04 0.232E-04
CGA:  35    -0.664293493595E+03    0.56289E-03   -0.30439E-03  8424   0.292E-02-0.334E-03
CGA:  36    -0.664294117318E+03   -0.62372E-03   -0.57462E-03  8424   0.939E-03 0.616E-04
CGA:  37    -0.664294367858E+03   -0.25054E-03   -0.19727E-03  8424   0.131E-03-0.137E-03
CGA:  38    -0.664294368404E+03   -0.54669E-06   -0.13650E-04  8424   0.248E-04 0.267E-04
   5 F= -.66429437E+03 E0= -.66428925E+03  d E =-.138596E+00  mag=    22.0000
       N       E                     dE             d eps       ncg     rms          ort
SDA:   1    -0.659857592306E+03    0.44368E+01    0.00000E+00  8424   0.126E+02 0.000E+00
CGA:   2    -0.663049470128E+03   -0.31919E+01   -0.28349E+01  8424   0.436E+01 0.141E+01
CGA:   3    -0.664090863025E+03   -0.10414E+01   -0.10662E+01  8424   0.156E+01-0.410E-01
CGA:   4    -0.664353884865E+03   -0.26302E+00   -0.26458E+00  8424   0.343E+00 0.405E-02
CGA:   5    -0.664411496743E+03   -0.57612E-01   -0.58072E-01  8424   0.761E-01 0.112E-02
CGA:   6    -0.664426595312E+03   -0.15099E-01   -0.15031E-01  8424   0.205E-01-0.267E-03
CGA:   7    -0.664431413963E+03   -0.48187E-02   -0.48111E-02  8424   0.731E-02-0.286E-04
CGA:   8    -0.664433217855E+03   -0.18039E-02   -0.18290E-02  8424   0.249E-02 0.101E-03
CGA:   9    -0.664433854826E+03   -0.63697E-03   -0.67365E-03  8424   0.958E-03 0.172E-03
CGA:  10    -0.664434127226E+03   -0.27240E-03   -0.29795E-03  8424   0.422E-03 0.144E-03
CGA:  11    -0.664434319277E+03   -0.19205E-03   -0.18724E-03  8424   0.361E-03-0.683E-04
CGA:  12    -0.664434403078E+03   -0.83801E-04   -0.85809E-04  8424   0.244E-03 0.967E-05
CGA:  13    -0.664434489924E+03   -0.86846E-04   -0.88779E-04  8424   0.201E-03 0.184E-04
CGA:  14    -0.664434606190E+03   -0.11627E-03   -0.12321E-03  8424   0.374E-03-0.594E-04
CGA:  15    -0.664434690985E+03   -0.84795E-04   -0.79718E-04  8424   0.358E-03-0.465E-04
CGA:  16    -0.664434835275E+03   -0.14429E-03   -0.15082E-03  8424   0.539E-03-0.180E-03
CGA:  17    -0.664434996767E+03   -0.16149E-03   -0.14298E-03  8424   0.365E-03-0.105E-03
CGA:  18    -0.664435077028E+03   -0.80262E-04   -0.81447E-04  8424   0.151E-03 0.734E-05
CGA:  19    -0.664435126220E+03   -0.49192E-04   -0.51647E-04  8424   0.123E-03 0.264E-04
CGA:  20    -0.664434567374E+03    0.55885E-03   -0.26655E-03  8424   0.627E-02-0.588E-03
CGA:  21    -0.664435317417E+03   -0.75004E-03   -0.83924E-03  8424   0.470E-03 0.287E-03
CGA:  22    -0.664435442444E+03   -0.12503E-03   -0.13031E-03  8424   0.814E-04 0.250E-04
CGA:  23    -0.664435445726E+03   -0.32822E-05   -0.76222E-04  8424   0.105E-02-0.172E-03
CGA:  24    -0.664435536514E+03   -0.90788E-04   -0.12395E-03  8424   0.671E-04 0.904E-04
CGA:  25    -0.664435541407E+03   -0.48936E-05   -0.13127E-04  8424   0.354E-04 0.286E-04
CGA:  26    -0.664435449995E+03    0.91413E-04   -0.78409E-04  8424   0.892E-03-0.156E-03
CGA:  27    -0.664435643743E+03   -0.19375E-03   -0.18728E-03  8424   0.353E-03-0.219E-04
CGA:  28    -0.664435720910E+03   -0.77167E-04   -0.74518E-04  8424   0.434E-04-0.989E-05
CGA:  29    -0.664435693742E+03    0.27167E-04   -0.45183E-04  8424   0.959E-03-0.123E-03
CGA:  30    -0.664435796544E+03   -0.10280E-03   -0.11485E-03  8424   0.522E-04 0.312E-04
CGA:  31    -0.664435813436E+03   -0.16892E-04   -0.42002E-04  8424   0.400E-03-0.868E-04
CGA:  32    -0.664435868666E+03   -0.55230E-04   -0.56648E-04  8424   0.421E-04 0.376E-05
CGA:  33    -0.664435887114E+03   -0.18448E-04   -0.16998E-04  8424   0.669E-04-0.172E-04
CGA:  34    -0.664435929341E+03   -0.42227E-04    0.89691E-04  8424   0.128E-03-0.185E-04
CGA:  35    -0.664436109575E+03   -0.18023E-03    0.21774E-04  8424   0.193E-03 0.273E-04
CGA:  36    -0.664436416976E+03   -0.30740E-03    0.15408E-03  8424   0.479E-03-0.462E-04
CGA:  37    -0.664437071412E+03   -0.65444E-03    0.10145E-03  8424   0.930E-03-0.148E-03
CGA:  38    -0.664438568622E+03   -0.14972E-02    0.10870E-03  8424   0.247E-02-0.536E-03
CGA:  39    -0.664439020716E+03   -0.45209E-03   -0.41501E-03  8424   0.688E-03-0.121E-03
CGA:  40    -0.664439180318E+03   -0.15960E-03   -0.16379E-03  8424   0.686E-04 0.191E-04
CGA:  41    -0.664439189080E+03   -0.87620E-05   -0.13209E-04  8424   0.173E-04 0.166E-04
CGA:  42    -0.664439208981E+03   -0.19901E-04    0.94433E-04  8424   0.194E-04 0.218E-05
CGA:  43    -0.664439239489E+03   -0.30508E-04    0.83338E-05  8424   0.375E-04 0.333E-05
CGA:  44    -0.664439314422E+03   -0.74933E-04    0.10376E-04  8424   0.523E-04 0.211E-04
CGA:  45    -0.664439255962E+03    0.58460E-04   -0.71242E-04  8424   0.703E-03-0.141E-03
CGA:  46    -0.664439426128E+03   -0.17017E-03   -0.15520E-03  8424   0.787E-04-0.563E-04
CGA:  47    -0.664439440213E+03   -0.14086E-04   -0.16418E-04  8424   0.207E-04 0.938E-05
CGA:  48    -0.664439473037E+03   -0.32824E-04    0.99419E-05  8424   0.316E-04-0.590E-05
CGA:  49    -0.664439537499E+03   -0.64462E-04    0.24876E-05  8424   0.558E-04-0.110E-04
CGA:  50    -0.664439644142E+03   -0.10664E-03    0.38786E-05  8424   0.941E-04 0.412E-05
CGA:  51    -0.664439885925E+03   -0.24178E-03    0.14651E-04  8424   0.169E-03 0.251E-04
CGA:  52    -0.664440469689E+03   -0.58376E-03    0.25301E-04  8424   0.151E-03 0.370E-04
CGA:  53    -0.664440980502E+03   -0.51081E-03    0.21290E-04  8424   0.188E-03-0.256E-04
CGA:  54    -0.664441614524E+03   -0.63402E-03    0.10614E-04  8424   0.183E-03-0.190E-04
CGA:  55    -0.664442351953E+03   -0.73743E-03    0.98371E-05  8424   0.169E-03-0.446E-04
CGA:  56    -0.664443035412E+03   -0.68346E-03    0.61265E-05  8424   0.152E-03-0.106E-03
CGA:  57    -0.664443032811E+03    0.26013E-05   -0.18299E-04  8424   0.341E-04 0.612E-04
   6 F= -.66444303E+03 E0= -.66443815E+03  d E =-.148664E+00  mag=    22.0000
       N       E                     dE             d eps       ncg     rms          ort
SDA:   1    -0.662277982237E+03    0.21651E+01    0.00000E+00  8424   0.575E+01 0.000E+00
CGA:   2    -0.663918666894E+03   -0.16407E+01   -0.16352E+01  8424   0.241E+01-0.220E-02
CGA:   3    -0.664365015799E+03   -0.44635E+00   -0.44797E+00  8424   0.634E+00-0.322E-03
CGA:   4    -0.664475953027E+03   -0.11094E+00   -0.11176E+00  8424   0.148E+00 0.320E-02
CGA:   5    -0.664500311212E+03   -0.24358E-01   -0.24564E-01  8424   0.325E-01 0.856E-03
CGA:   6    -0.664507063560E+03   -0.67523E-02   -0.67190E-02  8424   0.888E-02-0.191E-03
CGA:   7    -0.664509109641E+03   -0.20461E-02   -0.20557E-02  8424   0.316E-02 0.657E-04
CGA:   8    -0.664509808581E+03   -0.69894E-03   -0.74155E-03  8424   0.105E-02 0.312E-03
CGA:   9    -0.664510045350E+03   -0.23677E-03   -0.26990E-03  8424   0.394E-03 0.256E-03
CGA:  10    -0.664510115986E+03   -0.70636E-04   -0.10183E-03  8424   0.180E-03 0.211E-03
CGA:  11    -0.664510148331E+03   -0.32344E-04   -0.41919E-04  8424   0.896E-04 0.827E-04
CGA:  12    -0.664510153664E+03   -0.53335E-05   -0.22408E-04  8424   0.676E-04 0.997E-04
   7 F= -.66451015E+03 E0= -.66450523E+03  d E =-.671209E-01  mag=    22.0000
       N       E                     dE             d eps       ncg     rms          ort
SDA:   1    -0.660649123940E+03    0.38610E+01    0.00000E+00  8424   0.998E+01 0.000E+00
CGA:   2    -0.663391903612E+03   -0.27428E+01   -0.27428E+01  8424   0.498E+01-0.603E-02
CGA:   3    -0.664296980665E+03   -0.90508E+00   -0.90524E+00  8424   0.115E+01 0.294E-03
CGA:   4    -0.664493615016E+03   -0.19663E+00   -0.19713E+00  8424   0.280E+00 0.323E-02
CGA:   5    -0.664540241319E+03   -0.46626E-01   -0.46826E-01  8424   0.624E-01 0.135E-02
CGA:   6    -0.664553283657E+03   -0.13042E-01   -0.13036E-01  8424   0.166E-01-0.827E-04
CGA:   7    -0.664557136652E+03   -0.38530E-02   -0.38557E-02  8424   0.577E-02 0.386E-04
CGA:   8    -0.664558553531E+03   -0.14169E-02   -0.14284E-02  8424   0.207E-02 0.254E-03
CGA:   9    -0.664559105988E+03   -0.55246E-03   -0.56198E-03  8424   0.778E-03 0.317E-03
CGA:  10    -0.664559311798E+03   -0.20581E-03   -0.21929E-03  8424   0.332E-03 0.305E-03
CGA:  11    -0.664559397358E+03   -0.85560E-04   -0.10018E-03  8424   0.164E-03 0.210E-03
CGA:  12    -0.664559429261E+03   -0.31903E-04   -0.37386E-04  8424   0.974E-04 0.101E-03
CGA:  13    -0.664559431890E+03   -0.26288E-05   -0.14404E-04  8424   0.841E-04 0.890E-04
CGA:  14    -0.664559433394E+03   -0.15034E-05   -0.12022E-04  8424   0.772E-04 0.805E-04
CGA:  15    -0.664559433138E+03    0.25542E-06   -0.10015E-04  8424   0.724E-04 0.747E-04
   8 F= -.66455943E+03 E0= -.66455454E+03  d E =-.492795E-01  mag=    22.0000
       N       E                     dE             d eps       ncg     rms          ort
SDA:   1    -0.662195005155E+03    0.23644E+01    0.00000E+00  8424   0.677E+01 0.000E+00
CGA:   2    -0.663716827262E+03   -0.15218E+01   -0.15221E+01  8424   0.327E+01 0.471E-02
CGA:   3    -0.664393436086E+03   -0.67661E+00   -0.67649E+00  8424   0.887E+00-0.200E-02
CGA:   4    -0.664538109164E+03   -0.14467E+00   -0.14460E+00  8424   0.206E+00-0.865E-03
CGA:   5    -0.664572843453E+03   -0.34734E-01   -0.34736E-01  8424   0.440E-01-0.429E-04
CGA:   6    -0.664581889467E+03   -0.90460E-02   -0.90497E-02  8424   0.114E-01 0.958E-04
CGA:   7    -0.664584345204E+03   -0.24557E-02   -0.24635E-02  8424   0.338E-02 0.319E-03
CGA:   8    -0.664585148362E+03   -0.80316E-03   -0.80498E-03  8424   0.109E-02 0.280E-03
CGA:   9    -0.664585469086E+03   -0.32072E-03   -0.31637E-03  8424   0.451E-03 0.141E-03
CGA:  10    -0.664585560827E+03   -0.91742E-04   -0.10110E-03  8424   0.209E-03 0.229E-03
CGA:  11    -0.664585590446E+03   -0.29619E-04   -0.37343E-04  8424   0.113E-03 0.132E-03
CGA:  12    -0.664585596614E+03   -0.61684E-05   -0.15804E-04  8424   0.937E-04 0.102E-03
CGA:  13    -0.664585597936E+03   -0.13215E-05   -0.11153E-04  8424   0.843E-04 0.887E-04
   9 F= -.66458560E+03 E0= -.66458086E+03  d E =-.261648E-01  mag=    22.0000
       N       E                     dE             d eps       ncg     rms          ort
SDA:   1    -0.664101295269E+03    0.48430E+00    0.00000E+00  8424   0.135E+01 0.000E+00
CGA:   2    -0.664438143526E+03   -0.33685E+00   -0.33676E+00  8424   0.651E+00 0.263E-02
CGA:   3    -0.664562463658E+03   -0.12432E+00   -0.12432E+00  8424   0.167E+00-0.158E-03
CGA:   4    -0.664590964131E+03   -0.28500E-01   -0.28434E-01  8424   0.420E-01-0.140E-02
CGA:   5    -0.664598042828E+03   -0.70787E-02   -0.70483E-02  8424   0.907E-02-0.663E-03
CGA:   6    -0.664599767543E+03   -0.17247E-02   -0.17284E-02  8424   0.216E-02 0.181E-03
CGA:   7    -0.664600210351E+03   -0.44281E-03   -0.44585E-03  8424   0.650E-03 0.293E-03
CGA:   8    -0.664600357585E+03   -0.14723E-03   -0.14927E-03  8424   0.234E-03 0.204E-03
CGA:   9    -0.664600397356E+03   -0.39771E-04   -0.48582E-04  8424   0.121E-03 0.165E-03
CGA:  10    -0.664600405913E+03   -0.85579E-05   -0.15769E-04  8424   0.796E-04 0.914E-04
  10 F= -.66460041E+03 E0= -.66459568E+03  d E =-.148080E-01  mag=    22.0000
       N       E                     dE             d eps       ncg     rms          ort
SDA:   1    -0.664166931649E+03    0.43347E+00    0.00000E+00  8424   0.118E+01 0.000E+00
CGA:   2    -0.664466705114E+03   -0.29977E+00   -0.29966E+00  8424   0.597E+00 0.198E-02
CGA:   3    -0.664578334544E+03   -0.11163E+00   -0.11163E+00  8424   0.139E+00-0.806E-04
CGA:   4    -0.664602196466E+03   -0.23862E-01   -0.23841E-01  8424   0.357E-01-0.695E-03
CGA:   5    -0.664608276406E+03   -0.60799E-02   -0.60654E-02  8424   0.777E-02-0.502E-03
CGA:   6    -0.664609774707E+03   -0.14983E-02   -0.14984E-02  8424   0.190E-02 0.353E-04
CGA:   7    -0.664610160927E+03   -0.38622E-03   -0.38546E-03  8424   0.583E-03 0.216E-03
CGA:   8    -0.664610301410E+03   -0.14048E-03   -0.13834E-03  8424   0.212E-03 0.150E-03
CGA:   9    -0.664610343130E+03   -0.41720E-04   -0.45596E-04  8424   0.105E-03 0.134E-03
CGA:  10    -0.664610356743E+03   -0.13613E-04   -0.16606E-04  8424   0.650E-04 0.737E-04
CGA:  11    -0.664610360840E+03   -0.40973E-05   -0.82354E-05  8424   0.554E-04 0.595E-04
  11 F= -.66461036E+03 E0= -.66460569E+03  d E =-.995493E-02  mag=    22.0000
       N       E                     dE             d eps       ncg     rms          ort
SDA:   1    -0.664332696603E+03    0.27766E+00    0.00000E+00  8424   0.729E+00 0.000E+00
CGA:   2    -0.664531787886E+03   -0.19909E+00   -0.19915E+00  8424   0.395E+00-0.766E-03
CGA:   3    -0.664602305673E+03   -0.70518E-01   -0.70524E-01  8424   0.822E-01 0.337E-03
CGA:   4    -0.664616003475E+03   -0.13698E-01   -0.13717E-01  8424   0.199E-01 0.749E-03
CGA:   5    -0.664619439772E+03   -0.34363E-02   -0.34395E-02  8424   0.455E-02 0.159E-03
CGA:   6    -0.664620377086E+03   -0.93731E-03   -0.93853E-03  8424   0.119E-02-0.814E-04
CGA:   7    -0.664620622529E+03   -0.24544E-03   -0.24369E-03  8424   0.386E-03 0.918E-04
CGA:   8    -0.664620713906E+03   -0.91377E-04   -0.89002E-04  8424   0.151E-03 0.104E-03
CGA:   9    -0.664620747953E+03   -0.34047E-04   -0.35001E-04  8424   0.819E-04 0.969E-04
CGA:  10    -0.664620767040E+03   -0.19087E-04   -0.17801E-04  8424   0.514E-04 0.502E-04
CGA:  11    -0.664620778260E+03   -0.11220E-04   -0.10633E-04  8424   0.429E-04 0.434E-04
CGA:  12    -0.664620785328E+03   -0.70687E-05   -0.76733E-05  8424   0.389E-04 0.400E-04
  12 F= -.66462079E+03 E0= -.66461626E+03  d E =-.104245E-01  mag=    22.0000
       N       E                     dE             d eps       ncg     rms          ort
SDA:   1    -0.662856617845E+03    0.17642E+01    0.00000E+00  8424   0.455E+01 0.000E+00
CGA:   2    -0.664083972081E+03   -0.12274E+01   -0.12278E+01  8424   0.247E+01-0.592E-02
CGA:   3    -0.664522142721E+03   -0.43817E+00   -0.43815E+00  8424   0.528E+00-0.136E-02
CGA:   4    -0.664610532756E+03   -0.88390E-01   -0.88480E-01  8424   0.127E+00 0.302E-02
CGA:   5    -0.664632094520E+03   -0.21562E-01   -0.21597E-01  8424   0.288E-01 0.136E-02
CGA:   6    -0.664637900634E+03   -0.58061E-02   -0.58055E-02  8424   0.737E-02 0.884E-04
CGA:   7    -0.664639496565E+03   -0.15959E-02   -0.15913E-02  8424   0.246E-02 0.209E-03
CGA:   8    -0.664640107274E+03   -0.61071E-03   -0.60124E-03  8424   0.951E-03 0.218E-03
CGA:   9    -0.664640324087E+03   -0.21681E-03   -0.21343E-03  8424   0.383E-03 0.348E-03
CGA:  10    -0.664640423743E+03   -0.99656E-04   -0.10082E-03  8424   0.218E-03 0.264E-03
CGA:  11    -0.664640472174E+03   -0.48431E-04   -0.46367E-04  8424   0.132E-03 0.128E-03
CGA:  12    -0.664640486343E+03   -0.14168E-04   -0.19644E-04  8424   0.109E-03 0.113E-03
CGA:  13    -0.664640499432E+03   -0.13089E-04   -0.17082E-04  8424   0.986E-04 0.103E-03
CGA:  14    -0.664640506490E+03   -0.70586E-05   -0.12956E-04  8424   0.923E-04 0.952E-04
CGA:  15    -0.664640512552E+03   -0.60618E-05   -0.11729E-04  8424   0.874E-04 0.898E-04
CGA:  16    -0.664640517076E+03   -0.45237E-05   -0.10375E-04  8424   0.837E-04 0.855E-04
  13 F= -.66464052E+03 E0= -.66463651E+03  d E =-.197317E-01  mag=    22.0000
       N       E                     dE             d eps       ncg     rms          ort
SDA:   1    -0.662464487597E+03    0.21760E+01    0.00000E+00  8424   0.643E+01 0.000E+00
CGA:   2    -0.663844556235E+03   -0.13801E+01   -0.13796E+01  8424   0.301E+01 0.101E-01
CGA:   3    -0.664466876789E+03   -0.62232E+00   -0.62250E+00  8424   0.865E+00-0.731E-02
CGA:   4    -0.664609106165E+03   -0.14223E+00   -0.14225E+00  8424   0.197E+00 0.106E-02
CGA:   5    -0.664642689607E+03   -0.33583E-01   -0.33596E-01  8424   0.426E-01 0.962E-03
CGA:   6    -0.664651160331E+03   -0.84707E-02   -0.84718E-02  8424   0.111E-01-0.737E-04
CGA:   7    -0.664653502652E+03   -0.23423E-02   -0.23313E-02  8424   0.354E-02 0.396E-03
CGA:   8    -0.664654407456E+03   -0.90480E-03   -0.90456E-03  8424   0.151E-02 0.105E-05
CGA:   9    -0.664654765306E+03   -0.35785E-03   -0.34579E-03  8424   0.657E-03 0.284E-03
CGA:  10    -0.664655005924E+03   -0.24062E-03   -0.22034E-03  8424   0.420E-03 0.215E-03
CGA:  11    -0.664655150418E+03   -0.14449E-03   -0.13155E-03  8424   0.276E-03 0.305E-03
CGA:  12    -0.664655227525E+03   -0.77107E-04   -0.69015E-04  8424   0.177E-03 0.148E-03
CGA:  13    -0.664655296691E+03   -0.69166E-04   -0.56582E-04  8424   0.222E-03 0.103E-03
CGA:  14    -0.664655314780E+03   -0.18089E-04   -0.27587E-04  8424   0.141E-03 0.118E-03
CGA:  15    -0.664655375613E+03   -0.60833E-04   -0.45935E-04  8424   0.158E-03 0.119E-03
CGA:  16    -0.664655389796E+03   -0.14183E-04   -0.21990E-04  8424   0.131E-03 0.115E-03
CGA:  17    -0.664655442900E+03   -0.53104E-04   -0.40903E-04  8424   0.146E-03 0.113E-03
CGA:  18    -0.664655455537E+03   -0.12636E-04   -0.20343E-04  8424   0.124E-03 0.110E-03
CGA:  19    -0.664655502796E+03   -0.47259E-04   -0.37110E-04  8424   0.136E-03 0.109E-03
CGA:  20    -0.664655514801E+03   -0.12005E-04   -0.19276E-04  8424   0.119E-03 0.107E-03
CGA:  21    -0.664655558088E+03   -0.43287E-04   -0.34542E-04  8424   0.130E-03 0.105E-03
CGA:  22    -0.664655569276E+03   -0.11188E-04   -0.18341E-04  8424   0.115E-03 0.103E-03
CGA:  23    -0.664655609440E+03   -0.40165E-04   -0.32478E-04  8424   0.124E-03 0.102E-03
CGA:  24    -0.664655620061E+03   -0.10621E-04   -0.17597E-04  8424   0.111E-03 0.100E-03
CGA:  25    -0.664655657931E+03   -0.37869E-04   -0.30917E-04  8424   0.120E-03 0.990E-04
CGA:  26    -0.664655668011E+03   -0.10080E-04   -0.16943E-04  8424   0.108E-03 0.977E-04
CGA:  27    -0.664655704110E+03   -0.36100E-04   -0.29675E-04  8424   0.117E-03 0.966E-04
CGA:  28    -0.664655713741E+03   -0.96309E-05   -0.16385E-04  8424   0.106E-03 0.955E-04
CGA:  29    -0.664655748483E+03   -0.34742E-04   -0.28685E-04  8424   0.114E-03 0.945E-04
CGA:  30    -0.664655757714E+03   -0.92310E-05   -0.15893E-04  8424   0.103E-03 0.935E-04
CGA:  31    -0.664655791374E+03   -0.33660E-04   -0.27868E-04  8424   0.112E-03 0.926E-04
CGA:  32    -0.664655800259E+03   -0.88849E-05   -0.15456E-04  8424   0.101E-03 0.917E-04
CGA:  33    -0.664655833023E+03   -0.32763E-04   -0.27166E-04  8424   0.109E-03 0.908E-04
CGA:  34    -0.664655841621E+03   -0.85982E-05   -0.15072E-04  8424   0.995E-04 0.900E-04
CGA:  35    -0.664655873638E+03   -0.32017E-04   -0.26560E-04  8424   0.107E-03 0.893E-04
CGA:  36    -0.664655881989E+03   -0.83503E-05   -0.14723E-04  8424   0.977E-04 0.885E-04
CGA:  37    -0.664655913372E+03   -0.31383E-04   -0.26027E-04  8424   0.106E-03 0.878E-04
CGA:  38    -0.664655921498E+03   -0.81259E-05   -0.14403E-04  8424   0.961E-04 0.871E-04
CGA:  39    -0.664655952335E+03   -0.30837E-04   -0.25554E-04  8424   0.104E-03 0.864E-04
CGA:  40    -0.664655960259E+03   -0.79242E-05   -0.14109E-04  8424   0.946E-04 0.857E-04
CGA:  41    -0.664655990630E+03   -0.30371E-04   -0.25133E-04  8424   0.102E-03 0.851E-04
CGA:  42    -0.664655998369E+03   -0.77390E-05   -0.13836E-04  8424   0.931E-04 0.845E-04
CGA:  43    -0.664656028344E+03   -0.29975E-04   -0.24760E-04  8424   0.101E-03 0.839E-04
CGA:  44    -0.664656035911E+03   -0.75666E-05   -0.13580E-04  8424   0.918E-04 0.833E-04
CGA:  45    -0.664656065552E+03   -0.29641E-04   -0.24429E-04  8424   0.994E-04 0.827E-04
CGA:  46    -0.664656072955E+03   -0.74034E-05   -0.13339E-04  8424   0.905E-04 0.821E-04
CGA:  47    -0.664656102313E+03   -0.29358E-04   -0.24133E-04  8424   0.981E-04 0.815E-04
CGA:  48    -0.664656109562E+03   -0.72492E-05   -0.13113E-04  8424   0.892E-04 0.810E-04
CGA:  49    -0.664656138681E+03   -0.29119E-04   -0.23868E-04  8424   0.968E-04 0.805E-04
CGA:  50    -0.664656145783E+03   -0.71019E-05   -0.12899E-04  8424   0.880E-04 0.799E-04
CGA:  51    -0.664656174699E+03   -0.28917E-04   -0.23631E-04  8424   0.957E-04 0.794E-04
CGA:  52    -0.664656181658E+03   -0.69583E-05   -0.12695E-04  8424   0.869E-04 0.789E-04
CGA:  53    -0.664656210410E+03   -0.28752E-04   -0.23422E-04  8424   0.946E-04 0.784E-04
CGA:  54    -0.664656217228E+03   -0.68187E-05   -0.12502E-04  8424   0.858E-04 0.779E-04
CGA:  55    -0.664656245848E+03   -0.28620E-04   -0.23236E-04  8424   0.935E-04 0.774E-04
CGA:  56    -0.664656252529E+03   -0.66815E-05   -0.12318E-04  8424   0.847E-04 0.769E-04
CGA:  57    -0.664656281045E+03   -0.28516E-04   -0.23072E-04  8424   0.926E-04 0.764E-04
CGA:  58    -0.664656287594E+03   -0.65489E-05   -0.12143E-04  8424   0.837E-04 0.759E-04
CGA:  59    -0.664656316029E+03   -0.28434E-04   -0.22926E-04  8424   0.916E-04 0.754E-04
CGA:  60    -0.664656322449E+03   -0.64197E-05   -0.11977E-04  8424   0.826E-04 0.750E-04
CGA:  61    -0.664656350825E+03   -0.28376E-04   -0.22797E-04  8424   0.907E-04 0.745E-04
CGA:  62    -0.664656357117E+03   -0.62918E-05   -0.11817E-04  8424   0.817E-04 0.740E-04
CGA:  63    -0.664656385456E+03   -0.28340E-04   -0.22686E-04  8424   0.899E-04 0.735E-04
CGA:  64    -0.664656391620E+03   -0.61636E-05   -0.11664E-04  8424   0.807E-04 0.731E-04
CGA:  65    -0.664656419949E+03   -0.28329E-04   -0.22594E-04  8424   0.891E-04 0.726E-04
CGA:  66    -0.664656425979E+03   -0.60307E-05   -0.11514E-04  8424   0.798E-04 0.722E-04
CGA:  67    -0.664656454328E+03   -0.28348E-04   -0.22523E-04  8424   0.884E-04 0.717E-04
CGA:  68    -0.664656460216E+03   -0.58886E-05   -0.11366E-04  8424   0.788E-04 0.713E-04
CGA:  69    -0.664656488610E+03   -0.28393E-04   -0.22470E-04  8424   0.876E-04 0.708E-04
CGA:  70    -0.664656494353E+03   -0.57431E-05   -0.11220E-04  8424   0.779E-04 0.704E-04
CGA:  71    -0.664656522810E+03   -0.28457E-04   -0.22430E-04  8424   0.870E-04 0.700E-04
CGA:  72    -0.664656528418E+03   -0.56079E-05   -0.11084E-04  8424   0.770E-04 0.696E-04
CGA:  73    -0.664656556945E+03   -0.28527E-04   -0.22398E-04  8424   0.863E-04 0.691E-04
CGA:  74    -0.664656562426E+03   -0.54809E-05   -0.10958E-04  8424   0.762E-04 0.687E-04
CGA:  75    -0.664656591037E+03   -0.28611E-04   -0.22379E-04  8424   0.857E-04 0.682E-04
CGA:  76    -0.664656596390E+03   -0.53533E-05   -0.10836E-04  8424   0.753E-04 0.678E-04
CGA:  77    -0.664656625107E+03   -0.28717E-04   -0.22376E-04  8424   0.851E-04 0.674E-04
CGA:  78    -0.664656630330E+03   -0.52227E-05   -0.10718E-04  8424   0.745E-04 0.670E-04
CGA:  79    -0.664656659171E+03   -0.28841E-04   -0.22386E-04  8424   0.846E-04 0.665E-04
CGA:  80    -0.664656664260E+03   -0.50895E-05   -0.10602E-04  8424   0.736E-04 0.661E-04
CGA:  81    -0.664656693244E+03   -0.28984E-04   -0.22409E-04  8424   0.841E-04 0.656E-04
CGA:  82    -0.664656698198E+03   -0.49539E-05   -0.10488E-04  8424   0.728E-04 0.653E-04
CGA:  83    -0.664656727342E+03   -0.29144E-04   -0.22445E-04  8424   0.836E-04 0.648E-04
CGA:  84    -0.664656732157E+03   -0.48147E-05   -0.10377E-04  8424   0.719E-04 0.644E-04
CGA:  85    -0.664656761479E+03   -0.29322E-04   -0.22493E-04  8424   0.832E-04 0.639E-04
CGA:  86    -0.664656766152E+03   -0.46731E-05   -0.10267E-04  8424   0.711E-04 0.636E-04
CGA:  87    -0.664656795664E+03   -0.29511E-04   -0.22549E-04  8424   0.827E-04 0.631E-04
CGA:  88    -0.664656800194E+03   -0.45299E-05   -0.10160E-04  8424   0.703E-04 0.627E-04
CGA:  89    -0.664656829906E+03   -0.29712E-04   -0.22613E-04  8424   0.823E-04 0.622E-04
CGA:  90    -0.664656834290E+03   -0.43837E-05   -0.10053E-04  8424   0.694E-04 0.619E-04
CGA:  91    -0.664656864209E+03   -0.29919E-04   -0.22683E-04  8424   0.819E-04 0.613E-04
CGA:  92    -0.664656868446E+03   -0.42376E-05   -0.99475E-05  8424   0.686E-04 0.610E-04
CGA:  93    -0.664656898583E+03   -0.30136E-04   -0.22760E-04  8424   0.815E-04 0.605E-04
CGA:  94    -0.664656902669E+03   -0.40867E-05   -0.98427E-05  8424   0.677E-04 0.601E-04
CGA:  95    -0.664656933021E+03   -0.30352E-04   -0.22837E-04  8424   0.811E-04 0.596E-04
CGA:  96    -0.664656936959E+03   -0.39378E-05   -0.97391E-05  8424   0.668E-04 0.592E-04
CGA:  97    -0.664656967537E+03   -0.30578E-04   -0.22922E-04  8424   0.807E-04 0.587E-04
CGA:  98    -0.664656971321E+03   -0.37837E-05   -0.96350E-05  8424   0.659E-04 0.583E-04
CGA:  99    -0.664657002114E+03   -0.30793E-04   -0.23001E-04  8424   0.803E-04 0.578E-04
CGA: 100    -0.664657005748E+03   -0.36330E-05   -0.95317E-05  8424   0.650E-04 0.575E-04
CGA: 101    -0.664657036761E+03   -0.31013E-04   -0.23083E-04  8424   0.799E-04 0.569E-04
CGA: 102    -0.664657040239E+03   -0.34776E-05   -0.94278E-05  8424   0.641E-04 0.565E-04
CGA: 103    -0.664657071456E+03   -0.31217E-04   -0.23156E-04  8424   0.795E-04 0.560E-04
CGA: 104    -0.664657074783E+03   -0.33272E-05   -0.93246E-05  8424   0.632E-04 0.556E-04
CGA: 105    -0.664657106220E+03   -0.31437E-04   -0.23241E-04  8424   0.791E-04 0.551E-04
CGA: 106    -0.664657109388E+03   -0.31680E-05   -0.92201E-05  8424   0.622E-04 0.547E-04
CGA: 107    -0.664657141013E+03   -0.31624E-04   -0.23304E-04  8424   0.786E-04 0.542E-04
CGA: 108    -0.664657144034E+03   -0.30216E-05   -0.91167E-05  8424   0.613E-04 0.538E-04
CGA: 109    -0.664657175888E+03   -0.31853E-04   -0.23396E-04  8424   0.783E-04 0.532E-04
CGA: 110    -0.664657178744E+03   -0.28563E-05   -0.90125E-05  8424   0.603E-04 0.528E-04
CGA: 111    -0.664657210748E+03   -0.32004E-04   -0.23435E-04  8424   0.777E-04 0.523E-04
CGA: 112    -0.664657213470E+03   -0.27216E-05   -0.89092E-05  8424   0.593E-04 0.519E-04
[...]
CGA:  51    -0.664873982211E+03   -0.15267E-04   -0.19434E-04  8424   0.128E-03 0.128E-03
CGA:  52    -0.664874000033E+03   -0.17822E-04   -0.20498E-04  8424   0.127E-03 0.127E-03
CGA:  53    -0.664874014596E+03   -0.14563E-04   -0.18684E-04  8424   0.126E-03 0.126E-03
CGA:  54    -0.664874031518E+03   -0.16922E-04   -0.19658E-04  8424   0.124E-03 0.124E-03
CGA:  55    -0.664874045418E+03   -0.13900E-04   -0.17968E-04  8424   0.123E-03 0.123E-03
CGA:  56    -0.664874061484E+03   -0.16066E-04   -0.18853E-04  8424   0.122E-03 0.122E-03
CGA:  57    -0.664874074758E+03   -0.13274E-04   -0.17284E-04  8424   0.121E-03 0.121E-03
CGA:  58    -0.664874090015E+03   -0.15256E-04   -0.18084E-04  8424   0.120E-03 0.120E-03
CGA:  59    -0.664874102694E+03   -0.12679E-04   -0.16628E-04  8424   0.119E-03 0.119E-03
CGA:  60    -0.664874117184E+03   -0.14490E-04   -0.17349E-04  8424   0.118E-03 0.118E-03
CGA:  61    -0.664874129296E+03   -0.12112E-04   -0.15998E-04  8424   0.117E-03 0.117E-03
CGA:  62    -0.664874143063E+03   -0.13767E-04   -0.16648E-04  8424   0.116E-03 0.116E-03
CGA:  63    -0.664874154632E+03   -0.11568E-04   -0.15391E-04  8424   0.115E-03 0.115E-03
CGA:  64    -0.664874167716E+03   -0.13085E-04   -0.15978E-04  8424   0.114E-03 0.114E-03
CGA:  65    -0.664874178764E+03   -0.11047E-04   -0.14806E-04  8424   0.113E-03 0.113E-03
CGA:  66    -0.664874191202E+03   -0.12439E-04   -0.15337E-04  8424   0.112E-03 0.112E-03
CGA:  67    -0.664874201746E+03   -0.10544E-04   -0.14240E-04  8424   0.111E-03 0.111E-03
CGA:  68    -0.664874213575E+03   -0.11829E-04   -0.14723E-04  8424   0.110E-03 0.111E-03
CGA:  69    -0.664874223633E+03   -0.10058E-04   -0.13693E-04  8424   0.110E-03 0.110E-03
CGA:  70    -0.664874234883E+03   -0.11251E-04   -0.14135E-04  8424   0.109E-03 0.109E-03
CGA:  71    -0.664874244474E+03   -0.95902E-05   -0.13165E-04  8424   0.108E-03 0.108E-03
CGA:  72    -0.664874255174E+03   -0.10701E-04   -0.13570E-04  8424   0.107E-03 0.107E-03
CGA:  73    -0.664874264315E+03   -0.91409E-05   -0.12654E-04  8424   0.106E-03 0.106E-03
CGA:  74    -0.664874274491E+03   -0.10176E-04   -0.13027E-04  8424   0.106E-03 0.106E-03
CGA:  75    -0.664874283202E+03   -0.87106E-05   -0.12162E-04  8424   0.105E-03 0.105E-03
CGA:  76    -0.664874292879E+03   -0.96766E-05   -0.12504E-04  8424   0.104E-03 0.104E-03
CGA:  77    -0.664874301177E+03   -0.82980E-05   -0.11687E-04  8424   0.103E-03 0.103E-03
CGA:  78    -0.664874310377E+03   -0.92000E-05   -0.12002E-04  8424   0.103E-03 0.103E-03
CGA:  79    -0.664874318279E+03   -0.79028E-05   -0.11230E-04  8424   0.102E-03 0.102E-03
CGA:  80    -0.664874327026E+03   -0.87464E-05   -0.11520E-04  8424   0.101E-03 0.101E-03
CGA:  81    -0.664874334551E+03   -0.75246E-05   -0.10789E-04  8424   0.100E-03 0.101E-03
CGA:  82    -0.664874342866E+03   -0.83154E-05   -0.11057E-04  8424   0.997E-04 0.999E-04
CGA:  83    -0.664874350028E+03   -0.71623E-05   -0.10364E-04  8424   0.991E-04 0.993E-04
CGA:  84    -0.664874357934E+03   -0.79061E-05   -0.10612E-04  8424   0.984E-04 0.986E-04
  33 F= -.66487436E+03 E0= -.66487436E+03  d E =0.137048E+00  mag=    22.0000
       N       E                     dE             d eps       ncg     rms          ort
SDA:   1    -0.629897618599E+03    0.34977E+02    0.00000E+00  8424   0.109E+03 0.000E+00
CGA:   2    -0.651902101159E+03   -0.22004E+02   -0.21877E+02  8424   0.455E+02 0.159E+01
CGA:   3    -0.661649732023E+03   -0.97476E+01   -0.97578E+01  8424   0.131E+02-0.133E+00
CGA:   4    -0.663871917861E+03   -0.22222E+01   -0.22217E+01  8424   0.342E+01 0.674E-02
CGA:   5    -0.664445152700E+03   -0.57323E+00   -0.57287E+00  8424   0.733E+00 0.103E-01
CGA:   6    -0.664593517351E+03   -0.14836E+00   -0.14818E+00  8424   0.184E+00 0.292E-02
CGA:   7    -0.664635566802E+03   -0.42049E-01   -0.41897E-01  8424   0.634E-01 0.181E-02
CGA:   8    -0.664651675844E+03   -0.16109E-01   -0.16000E-01  8424   0.220E-01 0.107E-02
CGA:   9    -0.664658103206E+03   -0.64274E-02   -0.64576E-02  8424   0.878E-02-0.231E-03
CGA:  10    -0.664660930077E+03   -0.28269E-02   -0.28889E-02  8424   0.408E-02-0.366E-03
CGA:  11    -0.664662162728E+03   -0.12327E-02   -0.13005E-02  8424   0.176E-02-0.420E-03
CGA:  12    -0.664662700498E+03   -0.53777E-03   -0.78282E-03  8424   0.195E-02-0.777E-03
CGA:  13    -0.664659617464E+03    0.30830E-02   -0.16679E-02  8424   0.221E-01-0.425E-02
CGA:  14    -0.664663149842E+03   -0.35324E-02   -0.35754E-02  8424   0.429E-02 0.186E-03
CGA:  15    -0.664664502710E+03   -0.13529E-02   -0.13465E-02  8424   0.132E-02-0.202E-03
CGA:  16    -0.664664997229E+03   -0.49452E-03   -0.51507E-03  8424   0.933E-03-0.308E-03
CGA:  17    -0.664665280058E+03   -0.28283E-03   -0.30971E-03  8424   0.967E-03-0.309E-03
CGA:  18    -0.664665176917E+03    0.10314E-03   -0.50022E-03  8424   0.482E-02-0.143E-02
CGA:  19    -0.664665852665E+03   -0.67575E-03   -0.70255E-03  8424   0.761E-03 0.131E-03
CGA:  20    -0.664666192312E+03   -0.33965E-03   -0.37907E-03  8424   0.761E-03-0.314E-03
CGA:  21    -0.664665950517E+03    0.24180E-03   -0.48450E-03  8424   0.345E-02-0.102E-02
CGA:  22    -0.664666557359E+03   -0.60684E-03   -0.61267E-03  8424   0.104E-02 0.211E-04
CGA:  23    -0.664666944403E+03   -0.38704E-03   -0.38449E-03  8424   0.412E-03-0.116E-03
CGA:  24    -0.664667092165E+03   -0.14776E-03   -0.15604E-03  8424   0.493E-03-0.222E-03
CGA:  25    -0.664667193902E+03   -0.10174E-03   -0.94384E-04  8424   0.140E-03-0.367E-04
CGA:  26    -0.664667313523E+03   -0.11962E-03    0.11595E-03  8424   0.121E-03-0.130E-04
CGA:  27    -0.664667466273E+03   -0.15275E-03    0.24985E-04  8424   0.845E-04 0.641E-05
CGA:  28    -0.664667642814E+03   -0.17654E-03    0.10571E-04  8424   0.659E-04 0.627E-04
CGA:  29    -0.664667719089E+03   -0.76275E-04    0.24115E-04  8424   0.614E-04 0.585E-05
CGA:  30    -0.664667832811E+03   -0.11372E-03    0.10334E-04  8424   0.442E-04 0.300E-04
CGA:  31    -0.664667979547E+03   -0.14674E-03    0.64973E-05  8424   0.450E-04 0.399E-04
CGA:  32    -0.664668046905E+03   -0.67358E-04    0.89063E-05  8424   0.388E-04 0.113E-04
CGA:  33    -0.664668155396E+03   -0.10849E-03    0.47694E-05  8424   0.297E-04 0.306E-04
CGA:  34    -0.664668213122E+03   -0.57726E-04    0.36312E-05  8424   0.249E-04 0.143E-04
CGA:  35    -0.664668312641E+03   -0.99519E-04    0.27814E-05  8424   0.250E-04 0.314E-04
CGA:  36    -0.664668366270E+03   -0.53629E-04    0.26100E-05  8424   0.213E-04 0.139E-04
CGA:  37    -0.664668418817E+03   -0.52547E-04    0.18144E-05  8424   0.247E-04 0.126E-04
CGA:  38    -0.664668465131E+03   -0.46314E-04    0.32140E-05  8424   0.439E-04 0.274E-05
CGA:  39    -0.664668607508E+03   -0.14238E-03    0.32842E-05  8424   0.319E-04 0.447E-04
CGA:  40    -0.664668652583E+03   -0.45075E-04    0.70744E-05  8424   0.704E-04-0.138E-04
CGA:  41    -0.664668792735E+03   -0.14015E-03    0.21031E-05  8424   0.134E-03 0.231E-04
CGA:  42    -0.664669104045E+03   -0.31131E-03    0.26055E-04  8424   0.269E-03-0.290E-04
CGA:  43    -0.664669782604E+03   -0.67856E-03    0.12472E-04  8424   0.350E-03 0.757E-04
CGA:  44    -0.664670578335E+03   -0.79573E-03    0.64333E-04  8424   0.120E-02-0.445E-03
CGA:  45    -0.664670722674E+03   -0.14434E-03   -0.14706E-03  8424   0.153E-04 0.141E-04
CGA:  46    -0.664670735688E+03   -0.13014E-04    0.20288E-04  8424   0.102E-04-0.834E-05
CGA:  47    -0.664670589929E+03    0.14576E-03   -0.79093E-04  8424   0.888E-03-0.850E-04
CGA:  48    -0.664670803546E+03   -0.21362E-03   -0.19098E-03  8424   0.572E-04-0.497E-04
CGA:  49    -0.664670812329E+03   -0.87834E-05   -0.92707E-05  8424   0.229E-05 0.102E-05
  34 F= -.66467081E+03 E0= -.66467081E+03  d E =0.203546E+00  mag=    22.0000
       N       E                     dE             d eps       ncg     rms          ort
SDA:   1    -0.659117180295E+03    0.55536E+01    0.00000E+00  8424   0.182E+02 0.000E+00
CGA:   2    -0.662801517511E+03   -0.36843E+01   -0.37025E+01  8424   0.759E+01-0.218E-01
CGA:   3    -0.664371856440E+03   -0.15703E+01   -0.15676E+01  8424   0.226E+01 0.219E-01
CGA:   4    -0.664760688668E+03   -0.38883E+00   -0.38930E+00  8424   0.593E+00 0.266E-02
CGA:   5    -0.664860756070E+03   -0.10007E+00   -0.10038E+00  8424   0.122E+00 0.437E-03
CGA:   6    -0.664885126600E+03   -0.24371E-01   -0.24309E-01  8424   0.285E-01-0.193E-03
CGA:   7    -0.664891484136E+03   -0.63575E-02   -0.63775E-02  8424   0.929E-02 0.618E-04
CGA:   8    -0.664893715099E+03   -0.22310E-02   -0.22560E-02  8424   0.294E-02 0.912E-04
CGA:   9    -0.664894542583E+03   -0.82748E-03   -0.82555E-03  8424   0.112E-02-0.101E-04
CGA:  10    -0.664894894816E+03   -0.35223E-03   -0.35900E-03  8424   0.532E-03 0.400E-04
CGA:  11    -0.664895096982E+03   -0.20217E-03   -0.20032E-03  8424   0.294E-03-0.175E-04
CGA:  12    -0.664895193876E+03   -0.96894E-04   -0.10230E-03  8424   0.186E-03 0.462E-04
CGA:  13    -0.664895290438E+03   -0.96562E-04   -0.97228E-04  8424   0.186E-03 0.418E-04
CGA:  14    -0.664895376906E+03   -0.86467E-04   -0.92468E-04  8424   0.152E-03 0.951E-04
CGA:  15    -0.664895428219E+03   -0.51313E-04   -0.53671E-04  8424   0.816E-04 0.209E-04
CGA:  16    -0.664895439193E+03   -0.10974E-04   -0.21748E-04  8424   0.542E-04 0.479E-04
CGA:  17    -0.664895451943E+03   -0.12750E-04   -0.16658E-04  8424   0.459E-04 0.278E-04
CGA:  18    -0.664895455344E+03   -0.34008E-05   -0.94917E-05  8424   0.398E-04 0.260E-04
CGA:  19    -0.664895465375E+03   -0.10031E-04   -0.12511E-04  8424   0.517E-04 0.216E-04
CGA:  20    -0.664895468241E+03   -0.28663E-05   -0.85998E-05  8424   0.360E-04 0.223E-04
CGA:  21    -0.664895477578E+03   -0.93370E-05   -0.15004E-04  8424   0.508E-04 0.476E-04
CGA:  22    -0.664895487478E+03   -0.99001E-05   -0.11345E-04  8424   0.514E-04 0.788E-05
CGA:  23    -0.664895505081E+03   -0.17602E-04   -0.20479E-04  8424   0.468E-04 0.573E-04
CGA:  24    -0.664895507770E+03   -0.26895E-05   -0.72333E-05  8424   0.304E-04 0.190E-04
CGA:  25    -0.664895516725E+03   -0.89551E-05   -0.12458E-04  8424   0.466E-04 0.391E-04
CGA:  26    -0.664895526688E+03   -0.99627E-05   -0.10426E-04  8424   0.504E-04 0.293E-05
CGA:  27    -0.664895546259E+03   -0.19571E-04   -0.19644E-04  8424   0.459E-04 0.516E-04
CGA:  28    -0.664895548700E+03   -0.24407E-05   -0.63808E-05  8424   0.255E-04 0.171E-04
  35 F= -.66489555E+03 E0= -.66489555E+03  d E =-.224736E+00  mag=    22.0000
       N       E                     dE             d eps       ncg     rms          ort
SDA:   1    -0.663116342821E+03    0.17792E+01    0.00000E+00  8424   0.537E+01 0.000E+00
CGA:   2    -0.664273832051E+03   -0.11575E+01   -0.11581E+01  8424   0.245E+01-0.639E-03
CGA:   3    -0.664770911247E+03   -0.49708E+00   -0.49695E+00  8424   0.683E+00-0.304E-03
CGA:   4    -0.664885846388E+03   -0.11494E+00   -0.11509E+00  8424   0.172E+00 0.888E-03
CGA:   5    -0.664914657707E+03   -0.28811E-01   -0.28920E-01  8424   0.361E-01 0.613E-03
CGA:   6    -0.664921857382E+03   -0.71997E-02   -0.72125E-02  8424   0.872E-02 0.952E-04
CGA:   7    -0.664923781826E+03   -0.19244E-02   -0.19352E-02  8424   0.284E-02 0.112E-03
CGA:   8    -0.664924447423E+03   -0.66560E-03   -0.67873E-03  8424   0.921E-03 0.174E-03
CGA:   9    -0.664924680901E+03   -0.23348E-03   -0.24365E-03  8424   0.352E-03 0.175E-03
CGA:  10    -0.664924758005E+03   -0.77104E-04   -0.92589E-04  8424   0.182E-03 0.185E-03
CGA:  11    -0.664924785728E+03   -0.27723E-04   -0.37671E-04  8424   0.100E-03 0.106E-03
CGA:  12    -0.664924792405E+03   -0.66767E-05   -0.17497E-04  8424   0.843E-04 0.891E-04
CGA:  13    -0.664924793648E+03   -0.12438E-05   -0.12591E-04  8424   0.779E-04 0.808E-04
CGA:  14    -0.664924793449E+03    0.19974E-06   -0.10751E-04  8424   0.737E-04 0.757E-04
  36 F= -.66492479E+03 E0= -.66492479E+03  d E =-.292447E-01  mag=    22.0000
       N       E                     dE             d eps       ncg     rms          ort
SDA:   1    -0.663378750647E+03    0.15460E+01    0.00000E+00  8424   0.418E+01 0.000E+00
CGA:   2    -0.664391343427E+03   -0.10126E+01   -0.10126E+01  8424   0.217E+01-0.647E-03
CGA:   3    -0.664811179040E+03   -0.41984E+00   -0.41978E+00  8424   0.522E+00-0.876E-03
CGA:   4    -0.664895935665E+03   -0.84757E-01   -0.84861E-01  8424   0.126E+00 0.101E-02
CGA:   5    -0.664917149904E+03   -0.21214E-01   -0.21286E-01  8424   0.269E-01 0.767E-03
CGA:   6    -0.664922606581E+03   -0.54567E-02   -0.54682E-02  8424   0.692E-02 0.219E-03
CGA:   7    -0.664924101134E+03   -0.14946E-02   -0.15008E-02  8424   0.216E-02 0.173E-03
CGA:   8    -0.664924613187E+03   -0.51205E-03   -0.51578E-03  8424   0.738E-03 0.234E-03
CGA:   9    -0.664924794395E+03   -0.18121E-03   -0.18636E-03  8424   0.312E-03 0.252E-03
CGA:  10    -0.664924850111E+03   -0.55717E-04   -0.73298E-04  8424   0.188E-03 0.243E-03
CGA:  11    -0.664924867962E+03   -0.17851E-04   -0.29790E-04  8424   0.124E-03 0.140E-03
CGA:  12    -0.664924873171E+03   -0.52093E-05   -0.17079E-04  8424   0.110E-03 0.116E-03
CGA:  13    -0.664924874343E+03   -0.11716E-05   -0.13194E-04  8424   0.102E-03 0.105E-03
CGA:  14    -0.664924873931E+03    0.41133E-06   -0.11288E-04  8424   0.967E-04 0.992E-04
  37 F= -.66492487E+03 E0= -.66492487E+03  d E =-.804827E-04  mag=    22.0000
       N       E                     dE             d eps       ncg     rms          ort
SDA:   1    -0.642646430763E+03    0.22278E+02    0.00000E+00  8424   0.566E+02 0.000E+00
CGA:   2    -0.657678197297E+03   -0.15032E+02   -0.15029E+02  8424   0.307E+02 0.254E-01
CGA:   3    -0.663382375935E+03   -0.57042E+01   -0.57038E+01  8424   0.684E+01-0.436E-02
CGA:   4    -0.664473066446E+03   -0.10907E+01   -0.10913E+01  8424   0.161E+01 0.723E-02
CGA:   5    -0.664749255833E+03   -0.27619E+00   -0.27638E+00  8424   0.360E+00 0.381E-02
CGA:   6    -0.664824011255E+03   -0.74755E-01   -0.74755E-01  8424   0.952E-01-0.709E-04
CGA:   7    -0.664844862455E+03   -0.20851E-01   -0.20854E-01  8424   0.301E-01-0.461E-03
CGA:   8    -0.664852476949E+03   -0.76145E-02   -0.76160E-02  8424   0.110E-01-0.401E-04
CGA:   9    -0.664855593119E+03   -0.31162E-02   -0.31050E-02  8424   0.423E-02 0.159E-03
CGA:  10    -0.664856866431E+03   -0.12733E-02   -0.12387E-02  8424   0.163E-02 0.489E-03
CGA:  11    -0.664857369205E+03   -0.50277E-03   -0.48664E-03  8424   0.576E-03 0.347E-03
CGA:  12    -0.664857520021E+03   -0.15082E-03   -0.15263E-03  8424   0.287E-03 0.332E-03
CGA:  13    -0.664857548547E+03   -0.28525E-04   -0.43944E-04  8424   0.193E-03 0.218E-03
CGA:  14    -0.664857559867E+03   -0.11320E-04   -0.26332E-04  8424   0.169E-03 0.179E-03
CGA:  15    -0.664857564148E+03   -0.42819E-05   -0.20085E-04  8424   0.157E-03 0.162E-03
CGA:  16    -0.664857565507E+03   -0.13584E-05   -0.17048E-04  8424   0.149E-03 0.153E-03
CGA:  17    -0.664857565163E+03    0.34399E-06   -0.15049E-04  8424   0.144E-03 0.146E-03
CGA:  18    -0.664857563717E+03    0.14456E-05   -0.13572E-04  8424   0.139E-03 0.141E-03
CGA:  19    -0.664857561511E+03    0.22058E-05   -0.12402E-04  8424   0.136E-03 0.137E-03
CGA:  20    -0.664857558762E+03    0.27499E-05   -0.11431E-04  8424   0.132E-03 0.134E-03
CGA:  21    -0.664857555614E+03    0.31472E-05   -0.10602E-04  8424   0.130E-03 0.131E-03
  38 F= -.66485756E+03 E0= -.66485756E+03  d E =0.673183E-01  mag=    22.0000
       N       E                     dE             d eps       ncg     rms          ort
SDA:   1    -0.630312641662E+03    0.34545E+02    0.00000E+00  8424   0.107E+03 0.000E+00
CGA:   2    -0.652054326258E+03   -0.21742E+02   -0.21708E+02  8424   0.456E+02 0.780E+00
CGA:   3    -0.661717799235E+03   -0.96635E+01   -0.96676E+01  8424   0.132E+02-0.928E-01
CGA:   4    -0.663955620692E+03   -0.22378E+01   -0.22379E+01  8424   0.336E+01 0.493E-02
CGA:   5    -0.664519752226E+03   -0.56413E+00   -0.56423E+00  8424   0.724E+00 0.734E-02
CGA:   6    -0.664665142602E+03   -0.14539E+00   -0.14537E+00  8424   0.177E+00 0.503E-03
CGA:   7    -0.664704910413E+03   -0.39768E-01   -0.39707E-01  8424   0.588E-01 0.130E-02
CGA:   8    -0.664719667068E+03   -0.14757E-01   -0.14711E-01  8424   0.200E-01 0.653E-03
CGA:   9    -0.664725518457E+03   -0.58514E-02   -0.59571E-02  8424   0.831E-02-0.959E-03
CGA:  10    -0.664728052213E+03   -0.25338E-02   -0.25920E-02  8424   0.386E-02-0.427E-03
CGA:  11    -0.664729284804E+03   -0.12326E-02   -0.15023E-02  8424   0.260E-02-0.126E-02
CGA:  12    -0.664729816394E+03   -0.53159E-03   -0.84793E-03  8424   0.264E-02-0.115E-02
CGA:  13    -0.664730472159E+03   -0.65577E-03    0.21138E-01  8424   0.156E-02 0.425E-03
CGA:  14    -0.664725486306E+03    0.49859E-02   -0.27159E-02  8424   0.356E-01-0.624E-02
CGA:  15    -0.664732188095E+03   -0.67018E-02   -0.68353E-02  8424   0.435E-02 0.643E-03
CGA:  16    -0.664733354996E+03   -0.11669E-02   -0.11282E-02  8424   0.112E-02-0.285E-03
CGA:  17    -0.664733629559E+03   -0.27456E-03   -0.28167E-03  8424   0.321E-03 0.602E-04
CGA:  18    -0.664733510927E+03    0.11863E-03   -0.50010E-03  8424   0.379E-02-0.567E-03
CGA:  19    -0.664734244473E+03   -0.73355E-03   -0.70997E-03  8424   0.813E-03-0.942E-04
CGA:  20    -0.664734470669E+03   -0.22620E-03   -0.21645E-03  8424   0.235E-03-0.660E-04
CGA:  21    -0.664734669802E+03   -0.19913E-03    0.39514E-03  8424   0.205E-03 0.299E-04
CGA:  22    -0.664734923701E+03   -0.25390E-03    0.14797E-03  8424   0.172E-03 0.611E-04
CGA:  23    -0.664735220361E+03   -0.29666E-03    0.77146E-04  8424   0.137E-03 0.155E-03
CGA:  24    -0.664735365082E+03   -0.14472E-03    0.10370E-03  8424   0.180E-03 0.787E-05
CGA:  25    -0.664735529257E+03   -0.16418E-03    0.95500E-03  8424   0.168E-03 0.336E-04
CGA:  26    -0.664735803862E+03   -0.27460E-03    0.62034E-04  8424   0.143E-03 0.125E-03
CGA:  27    -0.664735963076E+03   -0.15921E-03    0.86617E-04  8424   0.175E-03-0.133E-04
CGA:  28    -0.664736107274E+03   -0.14420E-03    0.35275E-03  8424   0.115E-03 0.343E-04
CGA:  29    -0.664736276137E+03   -0.16886E-03    0.59935E-04  8424   0.155E-03 0.507E-04
CGA:  30    -0.664736636076E+03   -0.35994E-03    0.48972E-04  8424   0.107E-03 0.133E-03
CGA:  31    -0.664736681472E+03   -0.45396E-04   -0.45459E-04  8424   0.104E-03-0.776E-05
CGA:  32    -0.664736828013E+03   -0.14654E-03    0.23976E-04  8424   0.887E-04 0.260E-04
CGA:  33    -0.664736975211E+03   -0.14720E-03    0.38333E-04  8424   0.770E-04 0.515E-04
CGA:  34    -0.664737010603E+03   -0.35392E-04   -0.56192E-04  8424   0.285E-03-0.666E-04
CGA:  35    -0.664737122504E+03   -0.11190E-03   -0.94270E-04  8424   0.217E-03-0.177E-03
CGA:  36    -0.664737142937E+03   -0.20434E-04   -0.31966E-04  8424   0.320E-04 0.414E-04
CGA:  37    -0.664737177989E+03   -0.35052E-04    0.67365E-04  8424   0.605E-04 0.648E-05
CGA:  38    -0.664737326455E+03   -0.14847E-03    0.10137E-04  8424   0.106E-03 0.535E-04
CGA:  39    -0.664737330570E+03   -0.41143E-05   -0.85412E-04  8424   0.655E-03-0.208E-03
CGA:  40    -0.664737441957E+03   -0.11139E-03   -0.12604E-03  8424   0.491E-04 0.618E-04
CGA:  41    -0.664737493887E+03   -0.51930E-04    0.74657E-04  8424   0.813E-04-0.243E-04
CGA:  42    -0.664737591564E+03   -0.97677E-04    0.46907E-05  8424   0.159E-03 0.172E-04
CGA:  43    -0.664737835165E+03   -0.24360E-03    0.79098E-04  8424   0.158E-03 0.598E-04
CGA:  44    -0.664738101674E+03   -0.26651E-03    0.98403E-04  8424   0.165E-03-0.259E-05
CGA:  45    -0.664738419921E+03   -0.31825E-03    0.25488E-04  8424   0.800E-04 0.102E-03
CGA:  46    -0.664738445589E+03   -0.25669E-04   -0.23809E-04  8424   0.331E-04-0.153E-04
CGA:  47    -0.664738471112E+03   -0.25522E-04    0.35892E-04  8424   0.432E-04-0.126E-04
CGA:  48    -0.664738504958E+03   -0.33846E-04    0.10355E-04  8424   0.293E-04 0.195E-04
CGA:  49    -0.664738523837E+03   -0.18879E-04   -0.26918E-04  8424   0.193E-03-0.376E-04
CGA:  50    -0.664738566103E+03   -0.42266E-04   -0.33501E-04  8424   0.227E-04-0.351E-04
CGA:  51    -0.664738571288E+03   -0.51846E-05   -0.54532E-05  8424   0.841E-05 0.223E-05
