       N       E                     dE             d eps       ncg     rms          ort
DAV:   1     0.826778921474E+04    0.82678E+04   -0.24656E+05  8424   0.238E+03
DAV:   2     0.920472535290E+03   -0.73473E+04   -0.68956E+04  8424   0.656E+02
DAV:   3    -0.674383124238E+03   -0.15949E+04   -0.14022E+04  8424   0.282E+02
DAV:   4    -0.830243869903E+03   -0.15586E+03   -0.15317E+03  8424   0.858E+01
DAV:   5    -0.832741333429E+03   -0.24975E+01   -0.24865E+01  8424   0.122E+01
SDA:   6    -0.259707345778E+03    0.57303E+03   -0.24865E+01  8424   0.403E+04 0.000E+00
CGA:   7    -0.601152153661E+03   -0.34144E+03   -0.42080E+03  8424   0.431E+03 0.153E+03
CGA:   8    -0.629657122548E+03   -0.28505E+02   -0.20207E+02  8424   0.279E+03 0.277E+03
CGA:   9    -0.635149605578E+03   -0.54925E+01   -0.25160E+02  8424   0.357E+03-0.355E+02
CGA:  10    -0.641653027615E+03   -0.65034E+01   -0.13717E+02  8424   0.675E+03-0.164E+03
CGA:  11    -0.652801350964E+03   -0.11148E+02   -0.13543E+02  8424   0.198E+03-0.140E+03
CGA:  12    -0.653899854820E+03   -0.10985E+01   -0.99361E+01  8424   0.384E+03-0.968E+02
CGA:  13    -0.648007654329E+03    0.58922E+01   -0.99261E+01  8424   0.198E+03-0.817E+02
CGA:  14    -0.643182535800E+03    0.48251E+01   -0.89122E+01  8424   0.197E+03-0.417E+02
CGA:  15    -0.660529567551E+03   -0.17347E+02   -0.56683E+01  8424   0.124E+03-0.238E+03
CGA:  16    -0.653547737959E+03    0.69818E+01   -0.65339E+01  8424   0.390E+03-0.847E+02
CGA:  17    -0.651624973876E+03    0.19228E+01   -0.22757E+02  8424   0.163E+03-0.937E+02
CGA:  18    -0.657521028038E+03   -0.58961E+01   -0.70913E+01  8424   0.169E+03-0.174E+03
CGA:  19    -0.655262904736E+03    0.22581E+01   -0.73236E+01  8424   0.148E+03-0.122E+03
CGA:  20    -0.656310313984E+03   -0.10474E+01   -0.62924E+01  8424   0.119E+03-0.116E+03
CGA:  21    -0.657729141113E+03   -0.14188E+01   -0.42079E+01  8424   0.173E+03-0.177E+03
CGA:  22    -0.655972229220E+03    0.17569E+01   -0.71389E+01  8424   0.119E+03-0.102E+03
CGA:  23    -0.659841420180E+03   -0.38692E+01   -0.40366E+01  8424   0.310E+03-0.372E+03
CGA:  24    -0.655732254703E+03    0.41092E+01   -0.13953E+02  8424   0.123E+03-0.927E+02
CGA:  25    -0.665850786301E+03   -0.10119E+02   -0.32786E+01  8424   0.151E+03-0.307E+03
CGA:  26    -0.661593527828E+03    0.42573E+01   -0.56783E+01  8424   0.269E+03-0.135E+03
CGA:  27    -0.657475220505E+03    0.41183E+01   -0.10920E+02  8424   0.108E+03-0.734E+02
CGA:  28    -0.662018285623E+03   -0.45431E+01   -0.25531E+01  8424   0.245E+03-0.305E+03
CGA:  29    -0.657283337274E+03    0.47349E+01   -0.90266E+01  8424   0.112E+03-0.733E+02
CGA:  30    -0.661096294349E+03   -0.38130E+01   -0.25362E+01  8424   0.218E+03-0.227E+03
CGA:  31    -0.657035774650E+03    0.40605E+01   -0.72114E+01  8424   0.122E+03-0.865E+02
CGA:  32    -0.662483034484E+03   -0.54473E+01   -0.25507E+01  8424   0.267E+03-0.243E+03
CGA:  33    -0.657810499851E+03    0.46725E+01   -0.87059E+01  8424   0.280E+03-0.193E+03
CGA:  34    -0.658313864910E+03   -0.50337E+00   -0.94311E+01  8424   0.109E+03-0.110E+03
CGA:  35    -0.667648078390E+03   -0.93342E+01   -0.18726E+01  8424   0.146E+02 0.715E+02
CGA:  36    -0.667819581028E+03   -0.17150E+00   -0.16619E+00  8424   0.187E+01 0.142E+00
CGA:  37    -0.667925419548E+03   -0.10584E+00   -0.10352E+00  8424   0.183E+01-0.116E-01
CGA:  38    -0.667993944083E+03   -0.68525E-01   -0.73122E-01  8424   0.615E+01-0.830E-01
CGA:  39    -0.668253460570E+03   -0.25952E+00   -0.14691E+00  8424   0.801E+01 0.335E+01
CGA:  40    -0.668420540573E+03   -0.16708E+00   -0.25843E+00  8424   0.647E+01-0.123E+01
CGA:  41    -0.668629881514E+03   -0.20934E+00   -0.24827E+00  8424   0.145E+01-0.694E-02
CGA:  42    -0.668738607212E+03   -0.10873E+00   -0.10604E+00  8424   0.353E+00 0.204E+00
CGA:  43    -0.668807100359E+03   -0.68493E-01   -0.64369E-01  8424   0.295E+00 0.418E-01
CGA:  44    -0.668925476737E+03   -0.11838E+00   -0.10973E+00  8424   0.123E+00 0.474E-01
CGA:  45    -0.668961438484E+03   -0.35962E-01   -0.43937E-01  8424   0.206E+00-0.322E-01
CGA:  46    -0.668992318486E+03   -0.30880E-01   -0.51941E-01  8424   0.185E+00-0.863E-01
CGA:  47    -0.669009659506E+03   -0.17341E-01   -0.22842E-01  8424   0.133E+00-0.520E-01
CGA:  48    -0.669020536630E+03   -0.10877E-01   -0.38956E-01  8424   0.354E+00-0.944E-01
CGA:  49    -0.669067313705E+03   -0.46777E-01   -0.46800E-01  8424   0.112E+00-0.669E-02
CGA:  50    -0.669090507801E+03   -0.23194E-01   -0.23213E-01  8424   0.992E-01-0.228E-03
CGA:  51    -0.669132230425E+03   -0.41723E-01   -0.50459E-01  8424   0.179E+00-0.228E-01
CGA:  52    -0.669163361677E+03   -0.31131E-01   -0.33582E-01  8424   0.735E-01-0.267E-01
CGA:  53    -0.669159730028E+03    0.36316E-02   -0.10956E-01  8424   0.522E+00-0.764E-01
CGA:  54    -0.669247030816E+03   -0.87301E-01   -0.86940E-01  8424   0.113E+00-0.527E-02
CGA:  55    -0.669287999165E+03   -0.40968E-01   -0.42208E-01  8424   0.953E-01-0.122E-01
CGA:  56    -0.669328736221E+03   -0.40737E-01   -0.51100E-01  8424   0.147E+00-0.314E-01
CGA:  57    -0.669354901822E+03   -0.26166E-01   -0.25672E-01  8424   0.516E-01-0.169E-01
CGA:  58    -0.669371057877E+03   -0.16156E-01   -0.17303E-01  8424   0.531E-01-0.138E-01
CGA:  59    -0.669385716763E+03   -0.14659E-01   -0.24261E-01  8424   0.112E+00-0.296E-01
CGA:  60    -0.669409178476E+03   -0.23462E-01   -0.23522E-01  8424   0.391E-01 0.718E-03
CGA:  61    -0.669419761955E+03   -0.10583E-01   -0.10613E-01  8424   0.957E-02 0.712E-03
CGA:  62    -0.669425610726E+03   -0.58488E-02   -0.58213E-02  8424   0.111E-01 0.557E-04
CGA:  63    -0.669430732650E+03   -0.51219E-02   -0.49817E-02  8424   0.119E-01 0.113E-02
CGA:  64    -0.669436635884E+03   -0.59032E-02   -0.60376E-02  8424   0.127E-01-0.118E-02
CGA:  65    -0.669443037286E+03   -0.64014E-02   -0.63868E-02  8424   0.183E-01-0.208E-03
CGA:  66    -0.669450037662E+03   -0.70004E-02   -0.24134E-01  8424   0.138E+00-0.201E-01
CGA:  67    -0.669472710018E+03   -0.22672E-01   -0.23073E-01  8424   0.210E-01 0.236E-02
CGA:  68    -0.669480807904E+03   -0.80979E-02   -0.80843E-02  8424   0.129E-01-0.212E-02
CGA:  69    -0.669485437968E+03   -0.46301E-02   -0.46412E-02  8424   0.882E-02-0.794E-03
CGA:  70    -0.669488758240E+03   -0.33203E-02   -0.33475E-02  8424   0.706E-02-0.154E-02
CGA:  71    -0.669491969170E+03   -0.32109E-02   -0.34508E-02  8424   0.568E-02-0.131E-02
CGA:  72    -0.669494253089E+03   -0.22839E-02   -0.26156E-02  8424   0.944E-02-0.212E-02
CGA:  73    -0.669496646170E+03   -0.23931E-02   -0.23886E-02  8424   0.954E-02-0.230E-02
CGA:  74    -0.669495613343E+03    0.10328E-02   -0.10839E-01  8424   0.583E-01-0.124E-01
CGA:  75    -0.669510232966E+03   -0.14620E-01   -0.14534E-01  8424   0.125E-01-0.475E-03
CGA:  76    -0.669513677865E+03   -0.34449E-02   -0.34817E-02  8424   0.494E-02 0.214E-03
CGA:  77    -0.669516848990E+03   -0.31711E-02   -0.33531E-02  8424   0.592E-02-0.826E-03
CGA:  78    -0.669518975413E+03   -0.21264E-02   -0.20944E-02  8424   0.633E-02-0.117E-02
CGA:  79    -0.669521462121E+03   -0.24867E-02   -0.28375E-02  8424   0.848E-02-0.336E-02
CGA:  80    -0.669523407407E+03   -0.19453E-02   -0.18978E-02  8424   0.277E-02-0.190E-03
CGA:  81    -0.669524247620E+03   -0.84021E-03   -0.23750E-02  8424   0.168E-01-0.355E-02
CGA:  82    -0.669526688138E+03   -0.24405E-02   -0.25101E-02  8424   0.162E-02 0.326E-03
CGA:  83    -0.669527461275E+03   -0.77314E-03   -0.91640E-03  8424   0.334E-02-0.140E-02
CGA:  84    -0.669528228103E+03   -0.76683E-03   -0.73683E-03  8424   0.721E-03-0.127E-03
CGA:  85    -0.669528916921E+03   -0.68882E-03    0.13031E-02  8424   0.155E-02-0.279E-03
CGA:  86    -0.669530781884E+03   -0.18650E-02    0.17325E-03  8424   0.220E-02 0.555E-03
CGA:  87    -0.669533524347E+03   -0.27425E-02    0.20753E-01  8424   0.659E-02-0.104E-02
CGA:  88    -0.669540602988E+03   -0.70786E-02    0.60397E-03  8424   0.251E-01-0.362E-02
CGA:  89    -0.669544903876E+03   -0.43009E-02   -0.41077E-02  8424   0.268E-02-0.804E-03
CGA:  90    -0.669545457457E+03   -0.55358E-03   -0.56194E-03  8424   0.590E-03 0.448E-04
CGA:  91    -0.669546069805E+03   -0.61235E-03    0.57820E-03  8424   0.421E-03 0.411E-03
CGA:  92    -0.669546526923E+03   -0.45712E-03    0.29962E-03  8424   0.421E-03 0.189E-03
CGA:  93    -0.669547334245E+03   -0.80732E-03    0.22083E-03  8424   0.389E-03 0.392E-03
CGA:  94    -0.669547806092E+03   -0.47185E-03    0.18213E-03  8424   0.584E-03 0.940E-05
CGA:  95    -0.669548814617E+03   -0.10085E-02    0.12438E-03  8424   0.622E-03 0.287E-03
CGA:  96    -0.669550507093E+03   -0.16925E-02    0.16572E-03  8424   0.465E-03 0.660E-03
CGA:  97    -0.669550951786E+03   -0.44469E-03    0.70220E-03  8424   0.144E-02-0.350E-03
CGA:  98    -0.669551208152E+03   -0.25637E-03   -0.22193E-03  8424   0.278E-03-0.126E-03
CGA:  99    -0.669551791478E+03   -0.58333E-03    0.28141E-04  8424   0.202E-03 0.218E-03
CGA: 100    -0.669552241993E+03   -0.45051E-03    0.23596E-04  8424   0.231E-03 0.166E-03
CGA: 101    -0.669552718602E+03   -0.47661E-03    0.30568E-04  8424   0.381E-03 0.995E-04
CGA: 102    -0.669553961788E+03   -0.12432E-02    0.61125E-04  8424   0.213E-03 0.498E-03
CGA: 103    -0.669554423333E+03   -0.46154E-03    0.26050E-04  8424   0.238E-03 0.154E-03
CGA: 104    -0.669554876521E+03   -0.45319E-03    0.35914E-04  8424   0.348E-03 0.102E-03
CGA: 105    -0.669556046417E+03   -0.11699E-02    0.53213E-04  8424   0.259E-03 0.445E-03
CGA: 106    -0.669556506637E+03   -0.46022E-03    0.44432E-04  8424   0.268E-03 0.113E-03
CGA: 107    -0.669557483983E+03   -0.97735E-03    0.36563E-04  8424   0.273E-03 0.370E-03
CGA: 108    -0.669557945864E+03   -0.46188E-03    0.51146E-04  8424   0.257E-03 0.117E-03
CGA: 109    -0.669558890514E+03   -0.94465E-03    0.34589E-04  8424   0.288E-03 0.338E-03
CGA: 110    -0.669559352679E+03   -0.46216E-03    0.59657E-04  8424   0.271E-03 0.113E-03
CGA: 111    -0.669560315811E+03   -0.96313E-03    0.35912E-04  8424   0.315E-03 0.315E-03
CGA: 112    -0.669560767971E+03   -0.45216E-03    0.83465E-04  8424   0.311E-03 0.923E-04
CGA: 113    -0.669561767984E+03   -0.10000E-02    0.39742E-04  8424   0.364E-03 0.292E-03
CGA: 114    -0.669562225242E+03   -0.45726E-03    0.13555E-03  8424   0.361E-03 0.567E-04
CGA: 115    -0.669563242109E+03   -0.10169E-02    0.42342E-04  8424   0.433E-03 0.257E-03
CGA: 116    -0.669563697478E+03   -0.45537E-03    0.29747E-03  8424   0.423E-03 0.104E-04
CGA: 117    -0.669564714533E+03   -0.10171E-02    0.46385E-04  8424   0.522E-03 0.208E-03
CGA: 118    -0.669566531491E+03   -0.18170E-02    0.84686E-04  8424   0.357E-03 0.666E-03
CGA: 119    -0.669566917481E+03   -0.38599E-03    0.21773E-03  8424   0.649E-03-0.357E-04
CGA: 120    -0.669568360411E+03   -0.14429E-02    0.58183E-04  8424   0.638E-03 0.387E-03
CGA: 121    -0.669569011939E+03   -0.65153E-03    0.50504E-03  8424   0.939E-03-0.231E-03
CGA: 122    -0.669570056585E+03   -0.10446E-02    0.10635E-03  8424   0.116E-02-0.844E-04
CGA: 123    -0.669572150353E+03   -0.20938E-02    0.14864E-03  8424   0.167E-02 0.559E-03
CGA: 124    -0.669576106336E+03   -0.39560E-02    0.51902E-03  8424   0.145E-02 0.230E-03
CGA: 125    -0.669579981723E+03   -0.38754E-02    0.17752E-03  8424   0.916E-03 0.113E-02
CGA: 126    -0.669580771330E+03   -0.78961E-03    0.30681E-02  8424   0.273E-03 0.104E-04
CGA: 127    -0.669581467082E+03   -0.69575E-03    0.26655E-04  8424   0.311E-03 0.215E-03
CGA: 128    -0.669582087428E+03   -0.62035E-03    0.43476E-04  8424   0.400E-03 0.914E-04
CGA: 129    -0.669583339295E+03   -0.12519E-02    0.53147E-04  8424   0.366E-03 0.331E-03
CGA: 130    -0.669583969848E+03   -0.63055E-03    0.66210E-04  8424   0.278E-03 0.126E-03
CGA: 131    -0.669584926730E+03   -0.95688E-03    0.35277E-04  8424   0.382E-03 0.245E-03
CGA: 132    -0.669585566681E+03   -0.63995E-03    0.73279E-04  8424   0.535E-03 0.197E-04
CGA: 133    -0.669586871240E+03   -0.13046E-02    0.61668E-04  8424   0.554E-03 0.240E-03
CGA: 134    -0.669588971489E+03   -0.21002E-02    0.73262E-04  8424   0.501E-03 0.701E-03
CGA: 135    -0.669589578623E+03   -0.60713E-03    0.20624E-03  8424   0.126E-02-0.289E-03
CGA: 136    -0.669589852284E+03   -0.27366E-03   -0.21791E-03  8424   0.387E-03-0.236E-03
CGA: 137    -0.669590658271E+03   -0.80599E-03    0.27648E-04  8424   0.206E-03 0.255E-03
CGA: 138    -0.669591238701E+03   -0.58043E-03    0.15763E-04  8424   0.212E-03 0.187E-03
CGA: 139    -0.669591818509E+03   -0.57981E-03    0.17036E-04  8424   0.254E-03 0.168E-03
CGA: 140    -0.669592383351E+03   -0.56484E-03    0.27472E-04  8424   0.442E-03 0.791E-04
CGA: 141    -0.669594007949E+03   -0.16246E-02    0.44884E-04  8424   0.263E-03 0.548E-03
CGA: 142    -0.669594594863E+03   -0.58691E-03    0.28406E-04  8424   0.436E-03 0.678E-04
CGA: 143    -0.669596181256E+03   -0.15864E-02    0.40439E-04  8424   0.303E-03 0.515E-03
CGA: 144    -0.669596710290E+03   -0.52903E-03    0.49267E-04  8424   0.444E-03 0.311E-04
CGA: 145    -0.669598174716E+03   -0.14644E-02    0.34628E-04  8424   0.408E-03 0.433E-03
CGA: 146    -0.669598809708E+03   -0.63499E-03    0.82991E-04  8424   0.437E-03-0.312E-04
CGA: 147    -0.669599997088E+03   -0.11874E-02    0.29113E-04  8424   0.440E-03 0.328E-03
CGA: 148    -0.669600607320E+03   -0.61023E-03    0.11461E-03  8424   0.322E-03 0.146E-04
CGA: 149    -0.669601631487E+03   -0.10242E-02    0.22617E-04  8424   0.308E-03 0.288E-03
CGA: 150    -0.669602246280E+03   -0.61479E-03    0.39678E-04  8424   0.214E-03 0.131E-03
CGA: 151    -0.669603235469E+03   -0.98919E-03    0.19268E-04  8424   0.243E-03 0.276E-03
CGA: 152    -0.669603840085E+03   -0.60462E-03    0.22355E-04  8424   0.188E-03 0.161E-03
CGA: 153    -0.669604428172E+03   -0.58809E-03    0.12461E-04  8424   0.182E-03 0.171E-03
CGA: 154    -0.669605014835E+03   -0.58666E-03    0.11615E-04  8424   0.180E-03 0.172E-03
CGA: 155    -0.669605600808E+03   -0.58597E-03    0.11349E-04  8424   0.180E-03 0.171E-03
CGA: 156    -0.669606187983E+03   -0.58718E-03    0.11368E-04  8424   0.186E-03 0.167E-03
CGA: 157    -0.669606767211E+03   -0.57923E-03    0.12452E-04  8424   0.212E-03 0.152E-03
CGA: 158    -0.669607346195E+03   -0.57898E-03    0.17008E-04  8424   0.324E-03 0.960E-04
CGA: 159    -0.669608842298E+03   -0.14961E-02    0.30575E-04  8424   0.188E-03 0.435E-03
CGA: 160    -0.669609425527E+03   -0.58323E-03    0.12674E-04  8424   0.215E-03 0.137E-03
CGA: 161    -0.669609979072E+03   -0.55354E-03    0.18661E-04  8424   0.313E-03 0.841E-04
CGA: 162    -0.669611421677E+03   -0.14426E-02    0.26797E-04  8424   0.216E-03 0.401E-03
CGA: 163    -0.669612007851E+03   -0.58617E-03    0.17444E-04  8424   0.238E-03 0.965E-04
CGA: 164    -0.669613211306E+03   -0.12035E-02    0.19850E-04  8424   0.219E-03 0.332E-03
CGA: 165    -0.669613781539E+03   -0.57023E-03    0.18806E-04  8424   0.209E-03 0.981E-04
CGA: 166    -0.669614892855E+03   -0.11113E-02    0.16408E-04  8424   0.214E-03 0.299E-03
CGA: 167    -0.669615461080E+03   -0.56823E-03    0.17869E-04  8424   0.190E-03 0.103E-03
CGA: 168    -0.669616521492E+03   -0.10604E-02    0.14755E-04  8424   0.205E-03 0.277E-03
CGA: 169    -0.669617084506E+03   -0.56301E-03    0.16369E-04  8424   0.174E-03 0.109E-03
CGA: 170    -0.669617643380E+03   -0.55887E-03    0.11225E-04  8424   0.158E-03 0.128E-03
CGA: 171    -0.669618196385E+03   -0.55300E-03    0.91050E-05  8424   0.151E-03 0.136E-03
CGA: 172    -0.669618750726E+03   -0.55434E-03    0.81271E-05  8424   0.147E-03 0.139E-03
CGA: 173    -0.669619298426E+03   -0.54770E-03    0.78058E-05  8424   0.145E-03 0.139E-03
CGA: 174    -0.669619853441E+03   -0.55502E-03    0.74528E-05  8424   0.145E-03 0.138E-03
CGA: 175    -0.669620391853E+03   -0.53841E-03    0.76867E-05  8424   0.147E-03 0.135E-03
CGA: 176    -0.669620954123E+03   -0.56227E-03    0.75765E-05  8424   0.161E-03 0.127E-03
CGA: 177    -0.669621458995E+03   -0.50487E-03    0.10665E-04  8424   0.219E-03 0.961E-04
CGA: 178    -0.669622034238E+03   -0.57524E-03    0.18612E-04  8424   0.475E-03-0.274E-04
CGA: 179    -0.669623753432E+03   -0.17192E-02    0.19326E-04  8424   0.595E-03 0.399E-03
CGA: 180    -0.669623987280E+03   -0.23385E-03   -0.19466E-03  8424   0.128E-02-0.584E-03
CGA: 181    -0.669624466098E+03   -0.47882E-03   -0.33009E-03  8424   0.151E-02-0.111E-02
CGA: 182    -0.669624725523E+03   -0.25943E-03   -0.22016E-03  8424   0.195E-03-0.162E-03
CGA: 183    -0.669625316347E+03   -0.59082E-03    0.91035E-05  8424   0.139E-03 0.135E-03
CGA: 184    -0.669625800231E+03   -0.48388E-03    0.70755E-05  8424   0.174E-03 0.106E-03
CGA: 185    -0.669626302143E+03   -0.50191E-03    0.11228E-04  8424   0.349E-03 0.263E-04
CGA: 186    -0.669627806339E+03   -0.15042E-02    0.18574E-04  8424   0.239E-03 0.383E-03
CGA: 187    -0.669628218765E+03   -0.41243E-03    0.33668E-04  8424   0.595E-03-0.107E-03
CGA: 188    -0.669629802643E+03   -0.15839E-02    0.11078E-04  8424   0.141E-02 0.198E-03
CGA: 189    -0.669634403813E+03   -0.46012E-02    0.15164E-03  8424   0.203E-02 0.154E-03
CGA: 190    -0.669641593366E+03   -0.71896E-02    0.12799E-03  8424   0.128E-02 0.925E-03
CGA: 191    -0.669646683988E+03   -0.50906E-02    0.13021E-03  8424   0.141E-02 0.140E-03
CGA: 192    -0.669652710665E+03   -0.60267E-02    0.69841E-04  8424   0.195E-02 0.264E-03
CGA: 193    -0.669661667195E+03   -0.89565E-02    0.10339E-03  8424   0.116E-02 0.588E-03
CGA: 194    -0.669667144855E+03   -0.54777E-02    0.72126E-04  8424   0.234E-02-0.437E-03
CGA: 195    -0.669678607495E+03   -0.11463E-01    0.28329E-04  8424   0.437E-02-0.324E-03
CGA: 196    -0.669700599563E+03   -0.21992E-01    0.10239E-03  8424   0.103E-01-0.485E-02
CGA: 197    -0.669701768274E+03   -0.11687E-02   -0.12796E-02  8424   0.341E-03 0.479E-03
CGA: 198    -0.669701775016E+03   -0.67421E-05   -0.49076E-04  8424   0.158E-03 0.190E-03
CGA: 199    -0.669701753475E+03    0.21541E-04   -0.14555E-04  8424   0.130E-03 0.140E-03
CGA: 200    -0.669701730748E+03    0.22727E-04   -0.98385E-05  8424   0.120E-03 0.125E-03
   1 F= -.66970173E+03 E0= -.66970173E+03  d E =-.669702E+03  mag=     2.0000
       N       E                     dE             d eps       ncg     rms          ort
SDA:   1    -0.669704174293E+03   -0.24208E-02    0.00000E+00  8424   0.316E-02 0.000E+00
CGA:   2    -0.669704726192E+03   -0.55190E-03   -0.59059E-03  8424   0.123E-02 0.312E-03
CGA:   3    -0.669704903641E+03   -0.17745E-03   -0.23222E-03  8424   0.408E-03 0.413E-03
CGA:   4    -0.669704912612E+03   -0.89713E-05   -0.63526E-04  8424   0.185E-03 0.300E-03
CGA:   5    -0.669704898706E+03    0.13907E-04   -0.16670E-04  8424   0.138E-03 0.154E-03
CGA:   6    -0.669704882377E+03    0.16329E-04   -0.10210E-04  8424   0.124E-03 0.130E-03
CGA:   7    -0.669704866396E+03    0.15980E-04   -0.81633E-05  8424   0.116E-03 0.119E-03
CGA:   8    -0.669704851062E+03    0.15334E-04   -0.70133E-05  8424   0.111E-03 0.113E-03
CGA:   9    -0.669704836416E+03    0.14647E-04   -0.62373E-05  8424   0.107E-03 0.109E-03
CGA:  10    -0.669704822442E+03    0.13973E-04   -0.56596E-05  8424   0.104E-03 0.105E-03
CGA:  11    -0.669704809113E+03    0.13330E-04   -0.52023E-05  8424   0.102E-03 0.103E-03
CGA:  12    -0.669704796394E+03    0.12719E-04   -0.48250E-05  8424   0.100E-03 0.101E-03
CGA:  13    -0.669704784254E+03    0.12140E-04   -0.45045E-05  8424   0.989E-04 0.995E-04
CGA:  14    -0.669704772662E+03    0.11593E-04   -0.42261E-05  8424   0.977E-04 0.982E-04
CGA:  15    -0.669704761588E+03    0.11074E-04   -0.39803E-05  8424   0.967E-04 0.971E-04
CGA:  16    -0.669704751006E+03    0.10582E-04   -0.37602E-05  8424   0.959E-04 0.962E-04
CGA:  17    -0.669704740889E+03    0.10116E-04   -0.35611E-05  8424   0.951E-04 0.954E-04
CGA:  18    -0.669704731216E+03    0.96736E-05   -0.33795E-05  8424   0.945E-04 0.947E-04
   2 F= -.66970473E+03 E0= -.66970473E+03  d E =-.300047E-02  mag=     2.0000
       N       E                     dE             d eps       ncg     rms          ort
SDA:   1    -0.669687319567E+03    0.17421E-01    0.00000E+00  8424   0.118E+00 0.000E+00
CGA:   2    -0.669712286082E+03   -0.24967E-01   -0.24933E-01  8424   0.517E-01 0.631E-03
CGA:   3    -0.669723005728E+03   -0.10720E-01   -0.10676E-01  8424   0.153E-01 0.992E-03
CGA:   4    -0.669725477886E+03   -0.24722E-02   -0.24757E-02  8424   0.362E-02 0.612E-03
CGA:   5    -0.669726074317E+03   -0.59643E-03   -0.59892E-03  8424   0.758E-03 0.477E-03
CGA:   6    -0.669726174975E+03   -0.10066E-03   -0.11301E-03  8424   0.272E-03 0.385E-03
CGA:   7    -0.669726184376E+03   -0.94018E-05   -0.24505E-04  8424   0.178E-03 0.209E-03
CGA:   8    -0.669726182393E+03    0.19832E-05   -0.12454E-04  8424   0.151E-03 0.163E-03
   3 F= -.66972618E+03 E0= -.66972618E+03  d E =-.214512E-01  mag=     2.0000
       N       E                     dE             d eps       ncg     rms          ort
SDA:   1    -0.669686181711E+03    0.40003E-01    0.00000E+00  8424   0.205E+00 0.000E+00
CGA:   2    -0.669728412703E+03   -0.42231E-01   -0.42195E-01  8424   0.867E-01 0.603E-03
CGA:   3    -0.669746684935E+03   -0.18272E-01   -0.18217E-01  8424   0.275E-01 0.946E-03
CGA:   4    -0.669751166720E+03   -0.44818E-02   -0.44782E-02  8424   0.658E-02 0.588E-03
CGA:   5    -0.669752283704E+03   -0.11170E-02   -0.11128E-02  8424   0.134E-02 0.417E-03
CGA:   6    -0.669752516734E+03   -0.23303E-03   -0.23089E-03  8424   0.357E-03 0.383E-03
CGA:   7    -0.669752554011E+03   -0.37277E-04   -0.50251E-04  8424   0.194E-03 0.277E-03
CGA:   8    -0.669752559995E+03   -0.59838E-05   -0.16868E-04  8424   0.145E-03 0.163E-03
CGA:   9    -0.669752559726E+03    0.26854E-06   -0.10419E-04  8424   0.128E-03 0.135E-03
   4 F= -.66975256E+03 E0= -.66975256E+03  d E =-.263773E-01  mag=     2.0000
       N       E                     dE             d eps       ncg     rms          ort
SDA:   1    -0.664996856748E+03    0.47557E+01    0.00000E+00  8424   0.150E+02 0.000E+00
CGA:   2    -0.668034315323E+03   -0.30375E+01   -0.30336E+01  8424   0.624E+01 0.541E-01
CGA:   3    -0.669365025272E+03   -0.13307E+01   -0.13312E+01  8424   0.200E+01-0.740E-02
CGA:   4    -0.669691004367E+03   -0.32598E+00   -0.32594E+00  8424   0.485E+00 0.208E-02
CGA:   5    -0.669773366345E+03   -0.82362E-01   -0.82323E-01  8424   0.986E-01 0.181E-02
CGA:   6    -0.669793202689E+03   -0.19836E-01   -0.19836E-01  8424   0.231E-01-0.739E-05
CGA:   7    -0.669798167329E+03   -0.49646E-02   -0.49026E-02  8424   0.647E-02 0.105E-02
CGA:   8    -0.669799738935E+03   -0.15716E-02   -0.15208E-02  8424   0.179E-02 0.736E-03
CGA:   9    -0.669800202241E+03   -0.46331E-03   -0.43334E-03  8424   0.613E-03 0.520E-03
CGA:  10    -0.669800331133E+03   -0.12889E-03   -0.12870E-03  8424   0.326E-03 0.438E-03
CGA:  11    -0.669800375496E+03   -0.44363E-04   -0.48030E-04  8424   0.210E-03 0.243E-03
CGA:  12    -0.669800393415E+03   -0.17919E-04   -0.25587E-04  8424   0.179E-03 0.192E-03
CGA:  13    -0.669800403809E+03   -0.10394E-04   -0.19214E-04  8424   0.161E-03 0.169E-03
CGA:  14    -0.669800410737E+03   -0.69282E-05   -0.15944E-04  8424   0.149E-03 0.155E-03
CGA:  15    -0.669800415636E+03   -0.48994E-05   -0.13832E-04  8424   0.141E-03 0.145E-03
CGA:  16    -0.669800419222E+03   -0.35852E-05   -0.12320E-04  8424   0.134E-03 0.137E-03
CGA:  17    -0.669800421903E+03   -0.26812E-05   -0.11166E-04  8424   0.129E-03 0.131E-03
CGA:  18    -0.669800423939E+03   -0.20363E-05   -0.10250E-04  8424   0.124E-03 0.126E-03
   5 F= -.66980042E+03 E0= -.66980042E+03  d E =-.478642E-01  mag=     2.0000
       N       E                     dE             d eps       ncg     rms          ort
SDA:   1    -0.669378910572E+03    0.42151E+00    0.00000E+00  8424   0.140E+01 0.000E+00
CGA:   2    -0.669656095229E+03   -0.27718E+00   -0.27700E+00  8424   0.563E+00 0.277E-02
CGA:   3    -0.669777901114E+03   -0.12181E+00   -0.12187E+00  8424   0.190E+00-0.973E-03
CGA:   4    -0.669808797806E+03   -0.30897E-01   -0.30892E-01  8424   0.465E-01 0.227E-03
CGA:   5    -0.669816752994E+03   -0.79552E-02   -0.79447E-02  8424   0.937E-02 0.414E-03
CGA:   6    -0.669818658344E+03   -0.19053E-02   -0.19075E-02  8424   0.229E-02-0.420E-04
CGA:   7    -0.669819142937E+03   -0.48459E-03   -0.47348E-03  8424   0.685E-03 0.191E-03
CGA:   8    -0.669819308268E+03   -0.16533E-03   -0.15429E-03  8424   0.240E-03 0.198E-03
CGA:   9    -0.669819383589E+03   -0.75321E-04   -0.67268E-04  8424   0.147E-03 0.127E-03
CGA:  10    -0.669819416846E+03   -0.33257E-04   -0.29423E-04  8424   0.971E-04 0.898E-04
CGA:  11    -0.669819442216E+03   -0.25370E-04   -0.20783E-04  8424   0.869E-04 0.851E-04
CGA:  12    -0.669819465834E+03   -0.23619E-04   -0.19007E-04  8424   0.825E-04 0.823E-04
CGA:  13    -0.669819489198E+03   -0.23364E-04   -0.18572E-04  8424   0.800E-04 0.802E-04
CGA:  14    -0.669819516767E+03   -0.27569E-04   -0.20584E-04  8424   0.785E-04 0.784E-04
CGA:  15    -0.669819541068E+03   -0.24301E-04   -0.18984E-04  8424   0.776E-04 0.768E-04
CGA:  16    -0.669819586635E+03   -0.45567E-04   -0.29867E-04  8424   0.807E-04 0.741E-04
CGA:  17    -0.669819600358E+03   -0.13723E-04   -0.14377E-04  8424   0.776E-04 0.714E-04
CGA:  18    -0.669819752243E+03   -0.15189E-03   -0.12235E-03  8424   0.382E-03 0.440E-04
CGA:  19    -0.669819759830E+03   -0.75863E-05   -0.35041E-04  8424   0.770E-04 0.110E-03
CGA:  20    -0.669819764545E+03   -0.47152E-05   -0.14599E-04  8424   0.103E-03 0.539E-04
CGA:  21    -0.669819838514E+03   -0.73970E-04    0.13137E-03  8424   0.185E-03 0.108E-04
CGA:  22    -0.669820661704E+03   -0.82319E-03    0.42328E-02  8424   0.205E-03 0.174E-03
CGA:  23    -0.669820749500E+03   -0.87796E-04   -0.53340E-04  8424   0.254E-03-0.108E-03
CGA:  24    -0.669820782227E+03   -0.32727E-04   -0.38710E-04  8424   0.730E-04 0.140E-04
CGA:  25    -0.669820927669E+03   -0.14544E-03    0.28712E-04  8424   0.100E-03 0.707E-04
CGA:  26    -0.669821059109E+03   -0.13144E-03    0.13267E-03  8424   0.494E-03-0.769E-04
CGA:  27    -0.669821102703E+03   -0.43595E-04   -0.65331E-04  8424   0.596E-04 0.524E-04
CGA:  28    -0.669821214656E+03   -0.11195E-03    0.27980E-04  8424   0.139E-03 0.432E-04
CGA:  29    -0.669819730555E+03    0.14841E-02   -0.29457E-03  8424   0.166E-01-0.112E-02
CGA:  30    -0.669821791010E+03   -0.20605E-02   -0.22600E-02  8424   0.161E-03 0.473E-03
CGA:  31    -0.669821867991E+03   -0.76982E-04   -0.67646E-04  8424   0.170E-03-0.554E-04
CGA:  32    -0.669822210639E+03   -0.34265E-03    0.18883E-04  8424   0.287E-03 0.552E-04
CGA:  33    -0.669822926873E+03   -0.71623E-03    0.16815E-03  8424   0.206E-03 0.122E-03
CGA:  34    -0.669823555534E+03   -0.62866E-03    0.96607E-04  8424   0.212E-03 0.135E-03
CGA:  35    -0.669823844427E+03   -0.28889E-03    0.32286E-03  8424   0.707E-03-0.264E-03
CGA:  36    -0.669823870540E+03   -0.26113E-04   -0.99903E-04  8424   0.789E-04 0.171E-03
CGA:  37    -0.669823911089E+03   -0.40549E-04   -0.36129E-04  8424   0.147E-03-0.252E-04
CGA:  38    -0.669824298554E+03   -0.38746E-03    0.10505E-04  8424   0.586E-03-0.272E-04
CGA:  39    -0.669826382586E+03   -0.20840E-02    0.42647E-04  8424   0.186E-02-0.756E-04
CGA:  40    -0.669834237104E+03   -0.78545E-02    0.12607E-03  8424   0.469E-02-0.468E-03
CGA:  41    -0.669857835849E+03   -0.23599E-01    0.18267E-03  8424   0.708E-02-0.993E-02
CGA:  42    -0.669859438567E+03   -0.16027E-02   -0.16790E-02  8424   0.659E-03 0.239E-03
CGA:  43    -0.669859462987E+03   -0.24420E-04   -0.15824E-03  8424   0.430E-03 0.451E-03
CGA:  44    -0.669859463872E+03   -0.88462E-06   -0.10040E-03  8424   0.336E-03 0.356E-03
CGA:  45    -0.669859437276E+03    0.26596E-04   -0.67924E-04  8424   0.306E-03 0.318E-03
CGA:  46    -0.669859408219E+03    0.29057E-04   -0.57754E-04  8424   0.285E-03 0.293E-03
CGA:  47    -0.669859376671E+03    0.31548E-04   -0.49830E-04  8424   0.270E-03 0.276E-03
CGA:  48    -0.669859344934E+03    0.31737E-04   -0.44495E-04  8424   0.258E-03 0.263E-03
CGA:  49    -0.669859313460E+03    0.31474E-04   -0.40330E-04  8424   0.249E-03 0.252E-03
CGA:  50    -0.669859282674E+03    0.30786E-04   -0.37040E-04  8424   0.241E-03 0.244E-03
CGA:  51    -0.669859252775E+03    0.29899E-04   -0.34334E-04  8424   0.235E-03 0.238E-03
CGA:  52    -0.669859223874E+03    0.28900E-04   -0.32048E-04  8424   0.230E-03 0.232E-03
CGA:  53    -0.669859196025E+03    0.27850E-04   -0.30074E-04  8424   0.225E-03 0.227E-03
CGA:  54    -0.669859169244E+03    0.26781E-04   -0.28340E-04  8424   0.221E-03 0.223E-03
CGA:  55    -0.669859143526E+03    0.25717E-04   -0.26792E-04  8424   0.218E-03 0.219E-03
CGA:  56    -0.669859118854E+03    0.24672E-04   -0.25396E-04  8424   0.214E-03 0.216E-03
CGA:  57    -0.669859095202E+03    0.23653E-04   -0.24124E-04  8424   0.211E-03 0.213E-03
CGA:  58    -0.669859072537E+03    0.22665E-04   -0.22957E-04  8424   0.209E-03 0.210E-03
CGA:  59    -0.669859050825E+03    0.21712E-04   -0.21879E-04  8424   0.206E-03 0.207E-03
CGA:  60    -0.669859030030E+03    0.20795E-04   -0.20878E-04  8424   0.204E-03 0.205E-03
CGA:  61    -0.669859010116E+03    0.19914E-04   -0.19946E-04  8424   0.202E-03 0.203E-03
CGA:  62    -0.669858991047E+03    0.19069E-04   -0.19073E-04  8424   0.200E-03 0.201E-03
CGA:  63    -0.669858972787E+03    0.18261E-04   -0.18253E-04  8424   0.198E-03 0.199E-03
CGA:  64    -0.669858955300E+03    0.17487E-04   -0.17482E-04  8424   0.196E-03 0.197E-03
CGA:  65    -0.669858938552E+03    0.16748E-04   -0.16755E-04  8424   0.195E-03 0.195E-03
CGA:  66    -0.669858922510E+03    0.16042E-04   -0.16067E-04  8424   0.193E-03 0.194E-03
CGA:  67    -0.669858907142E+03    0.15368E-04   -0.15416E-04  8424   0.191E-03 0.192E-03
CGA:  68    -0.669858892417E+03    0.14725E-04   -0.14799E-04  8424   0.190E-03 0.191E-03
CGA:  69    -0.669858878305E+03    0.14111E-04   -0.14212E-04  8424   0.189E-03 0.189E-03
CGA:  70    -0.669858864779E+03    0.13527E-04   -0.13654E-04  8424   0.187E-03 0.188E-03
CGA:  71    -0.669858851810E+03    0.12969E-04   -0.13122E-04  8424   0.186E-03 0.187E-03
CGA:  72    -0.669858839372E+03    0.12438E-04   -0.12615E-04  8424   0.185E-03 0.186E-03
CGA:  73    -0.669858827439E+03    0.11933E-04   -0.12131E-04  8424   0.184E-03 0.185E-03
CGA:  74    -0.669858815986E+03    0.11452E-04   -0.11669E-04  8424   0.183E-03 0.184E-03
CGA:  75    -0.669858804992E+03    0.10995E-04   -0.11226E-04  8424   0.182E-03 0.183E-03
CGA:  76    -0.669858794432E+03    0.10559E-04   -0.10802E-04  8424   0.181E-03 0.182E-03
CGA:  77    -0.669858784288E+03    0.10144E-04   -0.10396E-04  8424   0.180E-03 0.181E-03
CGA:  78    -0.669858774539E+03    0.97486E-05   -0.10007E-04  8424   0.179E-03 0.180E-03
   6 F= -.66985877E+03 E0= -.66985877E+03  d E =-.583506E-01  mag=     2.0000
       N       E                     dE             d eps       ncg     rms          ort
SDA:   1    -0.669709352647E+03    0.14943E+00    0.00000E+00  8424   0.433E+00 0.000E+00
CGA:   2    -0.669799006368E+03   -0.89654E-01   -0.89582E-01  8424   0.185E+00 0.131E-02
CGA:   3    -0.669838379225E+03   -0.39373E-01   -0.39341E-01  8424   0.584E-01 0.540E-03
CGA:   4    -0.669847773704E+03   -0.93945E-02   -0.93941E-02  8424   0.140E-01 0.783E-03
CGA:   5    -0.669850168811E+03   -0.23951E-02   -0.23897E-02  8424   0.288E-02 0.630E-03
CGA:   6    -0.669850741072E+03   -0.57226E-03   -0.56215E-03  8424   0.752E-03 0.381E-03
CGA:   7    -0.669850860123E+03   -0.11905E-03   -0.12495E-03  8424   0.319E-03 0.397E-03
CGA:   8    -0.669850882867E+03   -0.22744E-04   -0.35141E-04  8424   0.212E-03 0.245E-03
CGA:   9    -0.669850890431E+03   -0.75639E-05   -0.20042E-04  8424   0.183E-03 0.195E-03
CGA:  10    -0.669850893376E+03   -0.29446E-05   -0.15345E-04  8424   0.167E-03 0.174E-03
CGA:  11    -0.669850894217E+03   -0.84118E-06   -0.12900E-04  8424   0.158E-03 0.162E-03
CGA:  12    -0.669850893894E+03    0.32317E-06   -0.11331E-04  8424   0.150E-03 0.153E-03
CGA:  13    -0.669850892860E+03    0.10339E-05   -0.10206E-04  8424   0.145E-03 0.147E-03
   7 F= -.66985089E+03 E0= -.66985089E+03  d E =0.788168E-02  mag=     2.0000
       N       E                     dE             d eps       ncg     rms          ort
SDA:   1    -0.668844687281E+03    0.10062E+01    0.00000E+00  8424   0.252E+01 0.000E+00
CGA:   2    -0.669482358679E+03   -0.63767E+00   -0.63751E+00  8424   0.125E+01 0.110E-02
CGA:   3    -0.669723814459E+03   -0.24146E+00   -0.24145E+00  8424   0.311E+00 0.885E-04
CGA:   4    -0.669773931280E+03   -0.50117E-01   -0.50099E-01  8424   0.758E-01 0.103E-02
CGA:   5    -0.669787049635E+03   -0.13118E-01   -0.13104E-01  8424   0.162E-01 0.515E-03
CGA:   6    -0.669790384176E+03   -0.33345E-02   -0.33405E-02  8424   0.428E-02-0.106E-03
CGA:   7    -0.669791300744E+03   -0.91657E-03   -0.90113E-03  8424   0.125E-02 0.247E-03
CGA:   8    -0.669791605964E+03   -0.30522E-03   -0.28701E-03  8424   0.426E-03 0.284E-03
CGA:   9    -0.669791745235E+03   -0.13927E-03   -0.12509E-03  8424   0.229E-03 0.168E-03
CGA:  10    -0.669791814423E+03   -0.69188E-04   -0.62622E-04  8424   0.155E-03 0.183E-03
CGA:  11    -0.669791845063E+03   -0.30640E-04   -0.28344E-04  8424   0.103E-03 0.112E-03
CGA:  12    -0.669791875080E+03   -0.30017E-04   -0.23644E-04  8424   0.909E-04 0.945E-04
CGA:  13    -0.669791892345E+03   -0.17265E-04   -0.16208E-04  8424   0.868E-04 0.885E-04
CGA:  14    -0.669791914169E+03   -0.21824E-04   -0.18185E-04  8424   0.837E-04 0.851E-04
CGA:  15    -0.669791932435E+03   -0.18266E-04   -0.16218E-04  8424   0.816E-04 0.826E-04
CGA:  16    -0.669791953435E+03   -0.21000E-04   -0.17456E-04  8424   0.797E-04 0.806E-04
CGA:  17    -0.669791972559E+03   -0.19124E-04   -0.16437E-04  8424   0.781E-04 0.788E-04
CGA:  18    -0.669791995078E+03   -0.22519E-04   -0.18067E-04  8424   0.766E-04 0.773E-04
CGA:  19    -0.669792014820E+03   -0.19742E-04   -0.16655E-04  8424   0.754E-04 0.759E-04
CGA:  20    -0.669792042697E+03   -0.27877E-04   -0.20690E-04  8424   0.741E-04 0.744E-04
CGA:  21    -0.669792058500E+03   -0.15803E-04   -0.14721E-04  8424   0.736E-04 0.729E-04
CGA:  22    -0.669792121458E+03   -0.62958E-04   -0.39177E-04  8424   0.985E-04 0.669E-04
CGA:  23    -0.669792119919E+03    0.15387E-05   -0.74428E-05  8424   0.701E-04 0.708E-04
CGA:  24    -0.669792145629E+03   -0.25710E-04   -0.19712E-04  8424   0.692E-04 0.695E-04
CGA:  25    -0.669792239445E+03   -0.93816E-04   -0.54295E-04  8424   0.856E-04 0.653E-04
CGA:  26    -0.669792234171E+03    0.52742E-05   -0.57564E-05  8424   0.661E-04 0.679E-04
CGA:  27    -0.669792260870E+03   -0.26699E-04   -0.20696E-04  8424   0.673E-04 0.643E-04
CGA:  28    -0.669792297444E+03   -0.36573E-04    0.37383E-04  8424   0.725E-04 0.595E-04
CGA:  29    -0.669792297169E+03    0.27513E-06   -0.73846E-05  8424   0.643E-04 0.616E-04
CGA:  30    -0.669792328962E+03   -0.31794E-04    0.55568E-04  8424   0.652E-04 0.620E-04
CGA:  31    -0.669792334356E+03   -0.53937E-05   -0.97024E-05  8424   0.644E-04 0.606E-04
CGA:  32    -0.669792371886E+03   -0.37530E-04    0.19859E-04  8424   0.675E-04 0.588E-04
CGA:  33    -0.669792372029E+03   -0.14332E-06   -0.69557E-05  8424   0.620E-04 0.601E-04
CGA:  34    -0.669792401883E+03   -0.29854E-04    0.44697E-04  8424   0.622E-04 0.604E-04
CGA:  35    -0.669792413370E+03   -0.11487E-04   -0.12262E-04  8424   0.631E-04 0.587E-04
CGA:  36    -0.669792452594E+03   -0.39224E-04    0.13740E-04  8424   0.666E-04 0.555E-04
CGA:  37    -0.669792452904E+03   -0.30977E-06   -0.66911E-05  8424   0.597E-04 0.582E-04
CGA:  38    -0.669792481077E+03   -0.28173E-04    0.39436E-04  8424   0.597E-04 0.587E-04
CGA:  39    -0.669792502835E+03   -0.21758E-04   -0.17067E-04  8424   0.632E-04 0.565E-04
CGA:  40    -0.669792546611E+03   -0.43776E-04    0.99193E-05  8424   0.696E-04 0.500E-04
CGA:  41    -0.669792545331E+03    0.12799E-05   -0.58649E-05  8424   0.574E-04 0.574E-04
CGA:  42    -0.669792569172E+03   -0.23841E-04    0.20960E-03  8424   0.569E-04 0.571E-04
CGA:  43    -0.669792593213E+03   -0.24041E-04    0.12742E-03  8424   0.565E-04 0.566E-04
CGA:  44    -0.669792617593E+03   -0.24380E-04    0.83682E-04  8424   0.562E-04 0.560E-04
CGA:  45    -0.669792641644E+03   -0.24050E-04    0.96510E-04  8424   0.567E-04 0.551E-04
CGA:  46    -0.669792666907E+03   -0.25263E-04    0.56037E-04  8424   0.604E-04 0.526E-04
CGA:  47    -0.669792713399E+03   -0.46492E-04   -0.58524E-04  8424   0.974E-03-0.179E-04
CGA:  48    -0.669793077665E+03   -0.36427E-03    0.77101E-03  8424   0.316E-02 0.392E-03
CGA:  49    -0.669795236381E+03   -0.21587E-02    0.47168E-01  8424   0.192E-02 0.466E-03
CGA:  50    -0.669796732609E+03   -0.14962E-02    0.64823E-03  8424   0.128E-02-0.148E-03
CGA:  51    -0.669797946984E+03   -0.12144E-02    0.12614E-03  8424   0.556E-03-0.873E-04
CGA:  52    -0.669798475948E+03   -0.52896E-03    0.55624E-04  8424   0.494E-03-0.163E-03
CGA:  53    -0.669799074268E+03   -0.59832E-03    0.16414E-04  8424   0.610E-04 0.108E-03
CGA:  54    -0.669799189559E+03   -0.11529E-03    0.40208E-05  8424   0.725E-04 0.294E-04
CGA:  55    -0.669799370730E+03   -0.18117E-03    0.51590E-05  8424   0.451E-04 0.914E-04
CGA:  56    -0.669799415701E+03   -0.44970E-04    0.50352E-05  8424   0.422E-04 0.267E-04
CGA:  57    -0.669799456803E+03   -0.41102E-04    0.49477E-05  8424   0.535E-04 0.198E-04
CGA:  58    -0.669799560237E+03   -0.10343E-03    0.54303E-05  8424   0.395E-04 0.739E-04
CGA:  59    -0.669799606295E+03   -0.46058E-04    0.33239E-05  8424   0.402E-04 0.247E-04
CGA:  60    -0.669799647632E+03   -0.41336E-04    0.42428E-05  8424   0.479E-04 0.197E-04
CGA:  61    -0.669799747493E+03   -0.99861E-04    0.45005E-05  8424   0.378E-04 0.685E-04
CGA:  62    -0.669799794116E+03   -0.46623E-04    0.29019E-05  8424   0.395E-04 0.232E-04
CGA:  63    -0.669799835473E+03   -0.41357E-04    0.40484E-05  8424   0.467E-04 0.180E-04
CGA:  64    -0.669799935112E+03   -0.99639E-04    0.39899E-05  8424   0.380E-04 0.664E-04
CGA:  65    -0.669799982127E+03   -0.47015E-04    0.29104E-05  8424   0.422E-04 0.195E-04
CGA:  66    -0.669800023002E+03   -0.40876E-04    0.50058E-05  8424   0.512E-04 0.126E-04
CGA:  67    -0.669800124415E+03   -0.10141E-03    0.36754E-05  8424   0.438E-04 0.655E-04
CGA:  68    -0.669800172084E+03   -0.47669E-04    0.41568E-05  8424   0.524E-04 0.101E-04
CGA:  69    -0.669800271921E+03   -0.99836E-04    0.34856E-05  8424   0.461E-04 0.633E-04
CGA:  70    -0.669800313143E+03   -0.41222E-04    0.64525E-05  8424   0.563E-04 0.589E-05
CGA:  71    -0.669800415235E+03   -0.10209E-03    0.32520E-05  8424   0.515E-04 0.619E-04
CGA:  72    -0.669800463088E+03   -0.47853E-04    0.66352E-05  8424   0.610E-04 0.395E-07
CGA:  73    -0.669800562215E+03   -0.99126E-04    0.30901E-05  8424   0.582E-04 0.582E-04
CGA:  74    -0.669800604568E+03   -0.42353E-04    0.13669E-04  8424   0.654E-04-0.613E-05
CGA:  75    -0.669800702190E+03   -0.97623E-04    0.28508E-05  8424   0.631E-04 0.534E-04
CGA:  76    -0.669800750948E+03   -0.48758E-04    0.12467E-04  8424   0.614E-04-0.656E-05
CGA:  77    -0.669800840105E+03   -0.89156E-04    0.27919E-05  8424   0.560E-04 0.473E-04
CGA:  78    -0.669800887391E+03   -0.47287E-04    0.89011E-05  8424   0.444E-04 0.550E-05
CGA:  79    -0.669800969949E+03   -0.82557E-04    0.23236E-05  8424   0.420E-04 0.417E-04
CGA:  80    -0.669801017850E+03   -0.47901E-04    0.36828E-05  8424   0.298E-04 0.189E-04
CGA:  81    -0.669801095178E+03   -0.77328E-04    0.19124E-05  8424   0.341E-04 0.393E-04
CGA:  82    -0.669801143111E+03   -0.47933E-04    0.21334E-05  8424   0.262E-04 0.229E-04
CGA:  83    -0.669801188862E+03   -0.45751E-04    0.11935E-05  8424   0.254E-04 0.245E-04
CGA:  84    -0.669801234994E+03   -0.46132E-04    0.11036E-05  8424   0.252E-04 0.245E-04
CGA:  85    -0.669801281087E+03   -0.46093E-04    0.10817E-05  8424   0.251E-04 0.244E-04
CGA:  86    -0.669801326914E+03   -0.45827E-04    0.10801E-05  8424   0.251E-04 0.242E-04
CGA:  87    -0.669801373453E+03   -0.46540E-04    0.10580E-05  8424   0.253E-04 0.238E-04
CGA:  88    -0.669801418676E+03   -0.45223E-04    0.11171E-05  8424   0.257E-04 0.233E-04
CGA:  89    -0.669801465933E+03   -0.47257E-04    0.10962E-05  8424   0.267E-04 0.223E-04
CGA:  90    -0.669801509924E+03   -0.43991E-04    0.13190E-05  8424   0.285E-04 0.207E-04
CGA:  91    -0.669801558402E+03   -0.48479E-04    0.13544E-05  8424   0.321E-04 0.178E-04
CGA:  92    -0.669801599917E+03   -0.41515E-04    0.22783E-05  8424   0.387E-04 0.127E-04
CGA:  93    -0.669801703195E+03   -0.10328E-03    0.21790E-05  8424   0.317E-04 0.532E-04
CGA:  94    -0.669801752330E+03   -0.49134E-04    0.17205E-05  8424   0.380E-04 0.123E-04
CGA:  95    -0.669801853654E+03   -0.10132E-03    0.21093E-05  8424   0.315E-04 0.519E-04
CGA:  96    -0.669801895402E+03   -0.41748E-04    0.21542E-05  8424   0.380E-04 0.115E-04
CGA:  97    -0.669801998300E+03   -0.10290E-03    0.19875E-05  8424   0.315E-04 0.510E-04
CGA:  98    -0.669802046953E+03   -0.48653E-04    0.17184E-05  8424   0.378E-04 0.106E-04
CGA:  99    -0.669802148030E+03   -0.10108E-03    0.19210E-05  8424   0.319E-04 0.497E-04
CGA: 100    -0.669802189924E+03   -0.41894E-04    0.22245E-05  8424   0.386E-04 0.907E-05
CGA: 101    -0.669802292233E+03   -0.10231E-03    0.18054E-05  8424   0.331E-04 0.486E-04
CGA: 102    -0.669802340197E+03   -0.47964E-04    0.19798E-05  8424   0.397E-04 0.702E-05
CGA: 103    -0.669802440412E+03   -0.10021E-03    0.17331E-05  8424   0.352E-04 0.470E-04
CGA: 104    -0.669802482542E+03   -0.42131E-04    0.28502E-05  8424   0.418E-04 0.400E-05
CGA: 105    -0.669802582885E+03   -0.10034E-03    0.16067E-05  8424   0.387E-04 0.451E-04
CGA: 106    -0.669802629911E+03   -0.47026E-04    0.30371E-05  8424   0.440E-04 0.360E-06
CGA: 107    -0.669802726027E+03   -0.96116E-04    0.15246E-05  8424   0.420E-04 0.423E-04
CGA: 108    -0.669802769575E+03   -0.43548E-04    0.43629E-05  8424   0.445E-04-0.230E-05
CGA: 109    -0.669802863177E+03   -0.93603E-04    0.13944E-05  8424   0.424E-04 0.390E-04
CGA: 110    -0.669802908827E+03   -0.45650E-04    0.41017E-05  8424   0.399E-04-0.693E-06
CGA: 111    -0.669802994983E+03   -0.86157E-04    0.13265E-05  8424   0.370E-04 0.356E-04
CGA: 112    -0.669803041751E+03   -0.46767E-04    0.27342E-05  8424   0.310E-04 0.597E-05
CGA: 113    -0.669803123948E+03   -0.82197E-04    0.11527E-05  8424   0.298E-04 0.326E-04
CGA: 114    -0.669803167650E+03   -0.43702E-04    0.17521E-05  8424   0.236E-04 0.125E-04
CGA: 115    -0.669803246190E+03   -0.78540E-04    0.10386E-05  8424   0.251E-04 0.309E-04
CGA: 116    -0.669803293149E+03   -0.46959E-04    0.10465E-05  8424   0.203E-04 0.154E-04
CGA: 117    -0.669803336024E+03   -0.42875E-04    0.72257E-06  8424   0.194E-04 0.166E-04
CGA: 118    -0.669803380482E+03   -0.44457E-04    0.61943E-06  8424   0.189E-04 0.169E-04
CGA: 119    -0.669803424352E+03   -0.43870E-04    0.59302E-06  8424   0.186E-04 0.171E-04
CGA: 120    -0.669803467757E+03   -0.43406E-04    0.57857E-06  8424   0.184E-04 0.171E-04
CGA: 121    -0.669803512141E+03   -0.44383E-04    0.54960E-06  8424   0.183E-04 0.169E-04
CGA: 122    -0.669803554747E+03   -0.42606E-04    0.57172E-06  8424   0.183E-04 0.167E-04
CGA: 123    -0.669803599576E+03   -0.44829E-04    0.53642E-06  8424   0.184E-04 0.164E-04
CGA: 124    -0.669803641244E+03   -0.41668E-04    0.59696E-06  8424   0.187E-04 0.159E-04
CGA: 125    -0.669803686710E+03   -0.45466E-04    0.55497E-06  8424   0.193E-04 0.152E-04
CGA: 126    -0.669803727049E+03   -0.40339E-04    0.69256E-06  8424   0.203E-04 0.142E-04
CGA: 127    -0.669803773513E+03   -0.46465E-04    0.65091E-06  8424   0.221E-04 0.126E-04
CGA: 128    -0.669803811807E+03   -0.38294E-04    0.10199E-05  8424   0.251E-04 0.998E-05
CGA: 129    -0.669803904700E+03   -0.92892E-04    0.10189E-05  8424   0.214E-04 0.359E-04
CGA: 130    -0.669803951439E+03   -0.46740E-04    0.72577E-06  8424   0.242E-04 0.997E-05
CGA: 131    -0.669804042137E+03   -0.90698E-04    0.98462E-06  8424   0.206E-04 0.349E-04
CGA: 132    -0.669804079997E+03   -0.37860E-04    0.87645E-06  8424   0.233E-04 0.996E-05
CGA: 133    -0.669804171262E+03   -0.91264E-04    0.92596E-06  8424   0.197E-04 0.340E-04
CGA: 134    -0.669804216915E+03   -0.45654E-04    0.62258E-06  8424   0.220E-04 0.102E-04
CGA: 135    -0.669804253305E+03   -0.36390E-04    0.10836E-05  8424   0.259E-04 0.695E-05
CGA: 136    -0.669804345255E+03   -0.91950E-04    0.88658E-06  8424   0.224E-04 0.336E-04
CGA: 137    -0.669804391574E+03   -0.46319E-04    0.81614E-06  8424   0.263E-04 0.577E-05
CGA: 138    -0.669804481441E+03   -0.89867E-04    0.85214E-06  8424   0.232E-04 0.326E-04
CGA: 139    -0.669804516482E+03   -0.35041E-04    0.13057E-05  8424   0.277E-04 0.383E-05
CGA: 140    -0.669804607311E+03   -0.90829E-04    0.80140E-06  8424   0.253E-04 0.319E-04
CGA: 141    -0.669804653464E+03   -0.46153E-04    0.10906E-05  8424   0.303E-04 0.754E-06
CGA: 142    -0.669804742401E+03   -0.88937E-04    0.76043E-06  8424   0.292E-04 0.307E-04
CGA: 143    -0.669804775300E+03   -0.32899E-04    0.26100E-05  8424   0.352E-04-0.441E-05
CGA: 144    -0.669804864297E+03   -0.88998E-04    0.69333E-06  8424   0.367E-04 0.293E-04
CGA: 145    -0.669804910996E+03   -0.46699E-04    0.26807E-05  8424   0.437E-04-0.131E-04
CGA: 146    -0.669804997084E+03   -0.86088E-04    0.62881E-06  8424   0.487E-04 0.272E-04
CGA: 147    -0.669805027032E+03   -0.29947E-04    0.20992E-04  8424   0.563E-04-0.261E-04
CGA: 148    -0.669805075880E+03   -0.48848E-04    0.84244E-05  8424   0.664E-04-0.352E-04
CGA: 149    -0.669805057463E+03    0.18417E-04   -0.35344E-04  8424   0.739E-03-0.184E-03
CGA: 150    -0.669805186941E+03   -0.12948E-03   -0.10808E-03  8424   0.744E-04-0.197E-03
CGA: 151    -0.669805225189E+03   -0.38248E-04    0.16875E-04  8424   0.273E-04-0.575E-05
CGA: 152    -0.669805287771E+03   -0.62582E-04    0.79214E-06  8424   0.136E-04 0.156E-04
CGA: 153    -0.669805326266E+03   -0.38494E-04    0.36180E-06  8424   0.141E-04 0.106E-04
CGA: 154    -0.669805367263E+03   -0.40998E-04    0.36197E-06  8424   0.148E-04 0.981E-05
CGA: 155    -0.669805405420E+03   -0.38157E-04    0.44537E-06  8424   0.161E-04 0.861E-05
CGA: 156    -0.669805445908E+03   -0.40488E-04    0.49622E-06  8424   0.181E-04 0.681E-05
CGA: 157    -0.669805530233E+03   -0.84325E-04    0.57893E-06  8424   0.157E-04 0.254E-04
CGA: 158    -0.669805567402E+03   -0.37169E-04    0.52219E-06  8424   0.174E-04 0.667E-05
CGA: 159    -0.669805649614E+03   -0.82212E-04    0.54963E-06  8424   0.153E-04 0.244E-04
CGA: 160    -0.669805690114E+03   -0.40500E-04    0.44382E-06  8424   0.166E-04 0.660E-05
CGA: 161    -0.669805770877E+03   -0.80763E-04    0.50954E-06  8424   0.149E-04 0.234E-04
CGA: 162    -0.669805806225E+03   -0.35348E-04    0.49844E-06  8424   0.157E-04 0.658E-05
CGA: 163    -0.669805883922E+03   -0.77697E-04    0.47892E-06  8424   0.146E-04 0.223E-04
CGA: 164    -0.669805924708E+03   -0.40786E-04    0.39513E-06  8424   0.146E-04 0.669E-05
CGA: 165    -0.669806000526E+03   -0.75818E-04    0.43545E-06  8424   0.142E-04 0.210E-04
CGA: 166    -0.669806034098E+03   -0.33572E-04    0.47129E-06  8424   0.136E-04 0.685E-05
CGA: 167    -0.669806106227E+03   -0.72129E-04    0.40955E-06  8424   0.137E-04 0.199E-04
CGA: 168    -0.669806147126E+03   -0.40899E-04    0.34320E-06  8424   0.126E-04 0.710E-05
CGA: 169    -0.669806180845E+03   -0.33719E-04    0.35979E-06  8424   0.119E-04 0.778E-05
CGA: 170    -0.669806219262E+03   -0.38417E-04    0.26972E-06  8424   0.113E-04 0.822E-05
CGA: 171    -0.669806254349E+03   -0.35087E-04    0.27260E-06  8424   0.110E-04 0.846E-05
CGA: 172    -0.669806291245E+03   -0.36895E-04    0.24082E-06  8424   0.108E-04 0.855E-05
CGA: 173    -0.669806326904E+03   -0.35659E-04    0.24099E-06  8424   0.107E-04 0.852E-05
CGA: 174    -0.669806362942E+03   -0.36037E-04    0.23434E-06  8424   0.108E-04 0.839E-05
CGA: 175    -0.669806398743E+03   -0.35801E-04    0.23745E-06  8424   0.109E-04 0.814E-05
CGA: 176    -0.669806434182E+03   -0.35439E-04    0.24815E-06  8424   0.113E-04 0.774E-05
CGA: 177    -0.669806469931E+03   -0.35749E-04    0.26201E-06  8424   0.119E-04 0.713E-05
CGA: 178    -0.669806504808E+03   -0.34877E-04    0.30238E-06  8424   0.129E-04 0.620E-05
CGA: 179    -0.669806540384E+03   -0.35576E-04    0.35395E-06  8424   0.146E-04 0.472E-05
CGA: 180    -0.669806615720E+03   -0.75336E-04    0.37898E-06  8424   0.127E-04 0.197E-04
CGA: 181    -0.669806649745E+03   -0.34025E-04    0.36488E-06  8424   0.147E-04 0.429E-05
CGA: 182    -0.669806724918E+03   -0.75173E-04    0.36685E-06  8424   0.127E-04 0.193E-04
CGA: 183    -0.669806759574E+03   -0.34656E-04    0.35527E-06  8424   0.151E-04 0.362E-05
CGA: 184    -0.669806834790E+03   -0.75216E-04    0.35863E-06  8424   0.131E-04 0.191E-04
CGA: 185    -0.669806867847E+03   -0.33057E-04    0.40017E-06  8424   0.158E-04 0.267E-05
CGA: 186    -0.669806943077E+03   -0.75231E-04    0.34295E-06  8424   0.140E-04 0.187E-04
CGA: 187    -0.669806976614E+03   -0.33536E-04    0.45845E-06  8424   0.175E-04 0.931E-06
CGA: 188    -0.669807051700E+03   -0.75087E-04    0.33017E-06  8424   0.164E-04 0.184E-04
CGA: 189    -0.669807083800E+03   -0.32099E-04    0.70541E-06  8424   0.212E-04-0.251E-05
CGA: 190    -0.669807159414E+03   -0.75615E-04    0.30095E-06  8424   0.225E-04 0.176E-04
CGA: 191    -0.669807191289E+03   -0.31874E-04    0.15229E-05  8424   0.301E-04-0.103E-04
CGA: 192    -0.669807265591E+03   -0.74302E-04    0.25137E-06  8424   0.386E-04 0.154E-04
CGA: 193    -0.669807296350E+03   -0.30759E-04    0.80926E-05  8424   0.520E-04-0.294E-04
CGA: 194    -0.669807326800E+03   -0.30450E-04    0.37751E-04  8424   0.729E-04-0.464E-04
CGA: 195    -0.669807320064E+03    0.67355E-05   -0.33356E-04  8424   0.623E-03-0.193E-03
CGA: 196    -0.669807407317E+03   -0.87253E-04   -0.78287E-04  8424   0.169E-04-0.668E-04
CGA: 197    -0.669807439298E+03   -0.31981E-04    0.60273E-06  8424   0.139E-04 0.122E-05
CGA: 198    -0.669807498744E+03   -0.59446E-04    0.27379E-06  8424   0.881E-05 0.139E-04
CGA: 199    -0.669807531249E+03   -0.32505E-04    0.17742E-06  8424   0.100E-04 0.490E-05
CGA: 200    -0.669807561117E+03   -0.29869E-04    0.25844E-06  8424   0.122E-04 0.314E-05
   8 F= -.66980756E+03 E0= -.66980756E+03  d E =0.433317E-01  mag=     2.0000
       N       E                     dE             d eps       ncg     rms          ort
SDA:   1    -0.669272272753E+03    0.53526E+00    0.00000E+00  8424   0.136E+01 0.000E+00
CGA:   2    -0.669592650332E+03   -0.32038E+00   -0.32039E+00  8424   0.654E+00 0.601E-03
CGA:   3    -0.669724587029E+03   -0.13194E+00   -0.13195E+00  8424   0.184E+00 0.128E-03
CGA:   4    -0.669754334784E+03   -0.29748E-01   -0.29765E-01  8424   0.414E-01 0.176E-03
CGA:   5    -0.669761408283E+03   -0.70735E-02   -0.70671E-02  8424   0.883E-02-0.895E-04
CGA:   6    -0.669763301651E+03   -0.18934E-02   -0.18839E-02  8424   0.235E-02-0.340E-03
CGA:   7    -0.669763842432E+03   -0.54078E-03   -0.54049E-03  8424   0.775E-03-0.207E-03
CGA:   8    -0.669764052574E+03   -0.21014E-03   -0.25038E-03  8424   0.595E-03-0.353E-03
CGA:   9    -0.669761578168E+03    0.24744E-02   -0.13363E-02  8424   0.151E-01-0.225E-02
CGA:  10    -0.669764031004E+03   -0.24528E-02   -0.24462E-02  8424   0.190E-02-0.260E-04
CGA:  11    -0.669764718214E+03   -0.68721E-03   -0.67120E-03  8424   0.668E-03-0.202E-03
CGA:  12    -0.669764974589E+03   -0.25638E-03   -0.25598E-03  8424   0.505E-03-0.233E-03
CGA:  13    -0.669765101598E+03   -0.12701E-03   -0.17889E-03  8424   0.103E-02-0.455E-03
CGA:  14    -0.669765285156E+03   -0.18356E-03   -0.16119E-03  8424   0.202E-03-0.806E-04
CGA:  15    -0.669765250169E+03    0.34987E-04   -0.17811E-03  8424   0.163E-02-0.400E-03
CGA:  16    -0.669765535426E+03   -0.28526E-03   -0.25144E-03  8424   0.273E-03-0.116E-03
CGA:  17    -0.669765625974E+03   -0.90548E-04   -0.78835E-04  8424   0.108E-03-0.950E-04
CGA:  18    -0.669765745099E+03   -0.11913E-03    0.15519E-04  8424   0.150E-03-0.596E-04
CGA:  19    -0.669765777344E+03   -0.32245E-04   -0.24526E-04  8424   0.416E-04-0.291E-04
CGA:  20    -0.669765877099E+03   -0.99755E-04    0.26815E-05  8424   0.282E-04-0.761E-05
CGA:  21    -0.669766000101E+03   -0.12300E-03    0.88039E-06  8424   0.373E-04-0.687E-06
CGA:  22    -0.669766250014E+03   -0.24991E-03    0.10369E-05  8424   0.174E-04 0.212E-04
CGA:  23    -0.669766308063E+03   -0.58049E-04    0.11884E-05  8424   0.348E-04-0.533E-05
CGA:  24    -0.669766500905E+03   -0.19284E-03    0.57914E-06  8424   0.472E-04-0.351E-05
CGA:  25    -0.669766827812E+03   -0.32691E-03    0.10602E-05  8424   0.823E-04 0.211E-06
CGA:  26    -0.669767439754E+03   -0.61194E-03    0.21588E-05  8424   0.145E-03 0.703E-06
CGA:  27    -0.669768626434E+03   -0.11867E-02    0.34483E-05  8424   0.127E-03 0.422E-04
CGA:  28    -0.669769720172E+03   -0.10937E-02    0.48276E-05  8424   0.256E-03-0.591E-04
CGA:  29    -0.669771856820E+03   -0.21366E-02    0.15967E-05  8424   0.491E-03-0.247E-03
CGA:  30    -0.669771978967E+03   -0.12215E-03   -0.12235E-03  8424   0.609E-04 0.913E-06
CGA:  31    -0.669771990237E+03   -0.11270E-04   -0.13161E-04  8424   0.137E-04 0.992E-05
CGA:  32    -0.669771989576E+03    0.66114E-06   -0.19633E-05  8424   0.616E-05 0.959E-05
   9 F= -.66977199E+03 E0= -.66977199E+03  d E =0.355715E-01  mag=     2.0000
       N       E                     dE             d eps       ncg     rms          ort
SDA:   1    -0.660461334697E+03    0.93107E+01    0.00000E+00  8424   0.274E+02 0.000E+00
CGA:   2    -0.666193340897E+03   -0.57320E+01   -0.57569E+01  8424   0.119E+02-0.154E-01
CGA:   3    -0.668681309815E+03   -0.24880E+01   -0.24836E+01  8424   0.363E+01 0.870E-02
CGA:   4    -0.669279029929E+03   -0.59772E+00   -0.59792E+00  8424   0.866E+00 0.147E-02
CGA:   5    -0.669425760392E+03   -0.14673E+00   -0.14698E+00  8424   0.176E+00 0.769E-03
CGA:   6    -0.669461387948E+03   -0.35628E-01   -0.35557E-01  8424   0.417E-01-0.516E-03
CGA:   7    -0.669470766042E+03   -0.93781E-02   -0.93757E-02  8424   0.125E-01-0.300E-04
CGA:   8    -0.669473950449E+03   -0.31844E-02   -0.31601E-02  8424   0.397E-02-0.342E-03
CGA:   9    -0.669475178078E+03   -0.12276E-02   -0.12259E-02  8424   0.185E-02-0.699E-03
CGA:  10    -0.669475744281E+03   -0.56620E-03   -0.64793E-03  8424   0.154E-02-0.780E-03
CGA:  11    -0.669472095062E+03    0.36492E-02   -0.12350E-02  8424   0.233E-01-0.463E-02
CGA:  12    -0.669476050579E+03   -0.39555E-02   -0.40294E-02  8424   0.351E-02 0.349E-03
CGA:  13    -0.669477385076E+03   -0.13345E-02   -0.13424E-02  8424   0.244E-02-0.874E-03
CGA:  14    -0.669477946195E+03   -0.56112E-03   -0.53108E-03  8424   0.112E-02-0.381E-03
CGA:  15    -0.669477977641E+03   -0.31446E-04   -0.81117E-03  8424   0.377E-02-0.158E-02
CGA:  16    -0.669478892533E+03   -0.91489E-03   -0.84954E-03  8424   0.115E-02-0.401E-03
CGA:  17    -0.669479114262E+03   -0.22173E-03   -0.19906E-03  8424   0.230E-03-0.120E-03
CGA:  18    -0.669479385421E+03   -0.27116E-03    0.49858E-04  8424   0.916E-04 0.376E-04
CGA:  19    -0.669479606924E+03   -0.22150E-03    0.11023E-04  8424   0.746E-04 0.185E-04
CGA:  20    -0.669479938948E+03   -0.33202E-03    0.41804E-05  8424   0.698E-04 0.112E-04
CGA:  21    -0.669480374725E+03   -0.43578E-03    0.23649E-05  8424   0.444E-04 0.421E-04
CGA:  22    -0.669480502843E+03   -0.12812E-03    0.28679E-05  8424   0.357E-04 0.182E-04
CGA:  23    -0.669480757792E+03   -0.25495E-03    0.16050E-05  8424   0.320E-04 0.279E-04
CGA:  24    -0.669480862788E+03   -0.10500E-03    0.17400E-05  8424   0.476E-04 0.412E-05
CGA:  25    -0.669481184635E+03   -0.32185E-03    0.14163E-05  8424   0.375E-04 0.278E-04
CGA:  26    -0.669481310942E+03   -0.12631E-03    0.19665E-05  8424   0.214E-04 0.107E-04
CGA:  27    -0.669481494213E+03   -0.18327E-03    0.64322E-06  8424   0.264E-04 0.194E-04
CGA:  28    -0.669481610257E+03   -0.11604E-03    0.99480E-06  8424   0.325E-04 0.669E-05
CGA:  29    -0.669481867781E+03   -0.25752E-03    0.10083E-05  8424   0.299E-04 0.217E-04
CGA:  30    -0.669481967954E+03   -0.10017E-03    0.15822E-05  8424   0.271E-04 0.653E-05
CGA:  31    -0.669482185076E+03   -0.21712E-03    0.78056E-06  8424   0.361E-04 0.118E-04
CGA:  32    -0.669482567124E+03   -0.38205E-03    0.10798E-05  8424   0.269E-04 0.465E-04
CGA:  33    -0.669482655225E+03   -0.88101E-04    0.14652E-05  8424   0.287E-04 0.462E-05
CGA:  34    -0.669482871014E+03   -0.21579E-03    0.81900E-06  8424   0.353E-04 0.610E-05
CGA:  35    -0.669483216535E+03   -0.34552E-03    0.80739E-06  8424   0.295E-04 0.386E-04
CGA:  36    -0.669483294674E+03   -0.78138E-04    0.21359E-05  8424   0.247E-04 0.351E-05
CGA:  37    -0.669483476841E+03   -0.18217E-03    0.65297E-06  8424   0.414E-04-0.205E-05
CGA:  38    -0.669483835725E+03   -0.35888E-03    0.60089E-06  8424   0.462E-04 0.305E-04
CGA:  39    -0.669483883552E+03   -0.47826E-04    0.21900E-04  8424   0.643E-04-0.162E-04
CGA:  40    -0.669484090807E+03   -0.20726E-03    0.13625E-05  8424   0.792E-04-0.408E-04
CGA:  41    -0.669484162297E+03   -0.71490E-04    0.68595E-04  8424   0.783E-04-0.265E-04
CGA:  42    -0.669484321651E+03   -0.15935E-03    0.31088E-05  8424   0.159E-03-0.826E-04
CGA:  43    -0.669484353700E+03   -0.32049E-04   -0.28404E-04  8424   0.619E-04-0.189E-04
CGA:  44    -0.669484470149E+03   -0.11645E-03    0.50589E-05  8424   0.382E-04-0.280E-04
CGA:  45    -0.669484593450E+03   -0.12330E-03    0.52916E-06  8424   0.309E-04 0.845E-05
CGA:  46    -0.669484777873E+03   -0.18442E-03    0.11867E-05  8424   0.120E-04 0.117E-04
CGA:  47    -0.669484906783E+03   -0.12891E-03    0.30718E-06  8424   0.141E-04 0.942E-05
CGA:  48    -0.669484977366E+03   -0.70583E-04    0.43258E-06  8424   0.389E-04-0.705E-05
CGA:  49    -0.669485206473E+03   -0.22911E-03    0.23165E-06  8424   0.893E-04-0.314E-05
CGA:  50    -0.669485746633E+03   -0.54016E-03    0.18356E-05  8424   0.334E-03-0.863E-04
CGA:  51    -0.669485837703E+03   -0.91070E-04   -0.64218E-04  8424   0.201E-03-0.159E-03
CGA:  52    -0.669485651797E+03    0.18591E-03   -0.10849E-03  8424   0.198E-02-0.435E-03
CGA:  53    -0.669486023476E+03   -0.37168E-03   -0.31966E-03  8424   0.589E-03-0.233E-03
CGA:  54    -0.669486124856E+03   -0.10138E-03   -0.99209E-04  8424   0.906E-05-0.117E-04
CGA:  55    -0.669486171133E+03   -0.46278E-04    0.26667E-06  8424   0.813E-05 0.101E-05
CGA:  56    -0.669486262644E+03   -0.91511E-04    0.12917E-06  8424   0.154E-04 0.144E-05
CGA:  57    -0.669486473787E+03   -0.21114E-03    0.22346E-06  8424   0.122E-04 0.155E-04
CGA:  58    -0.669486510809E+03   -0.37022E-04    0.71198E-06  8424   0.227E-04-0.620E-05
CGA:  59    -0.669486552853E+03   -0.42044E-04    0.27284E-05  8424   0.118E-03-0.435E-04
CGA:  60    -0.669486568016E+03   -0.15162E-04   -0.13468E-04  8424   0.412E-05-0.663E-05
CGA:  61    -0.669486611825E+03   -0.43809E-04    0.46149E-07  8424   0.449E-05 0.236E-05
CGA:  62    -0.669486640825E+03   -0.29000E-04    0.97882E-07  8424   0.111E-04-0.373E-06
CGA:  63    -0.669486771815E+03   -0.13099E-03    0.10438E-06  8424   0.127E-04 0.929E-05
CGA:  64    -0.669486825622E+03   -0.53807E-04    0.45265E-06  8424   0.528E-04-0.189E-04
CGA:  65    -0.669486826433E+03   -0.81101E-06   -0.43783E-05  8424   0.503E-05 0.132E-04
  10 F= -.66948683E+03 E0= -.66948683E+03  d E =0.285163E+00  mag=     2.0000
       N       E                     dE             d eps       ncg     rms          ort
SDA:   1    -0.666296889660E+03    0.31899E+01    0.00000E+00  8424   0.108E+02 0.000E+00
CGA:   2    -0.668428979406E+03   -0.21321E+01   -0.21365E+01  8424   0.433E+01 0.259E-02
CGA:   3    -0.669349084784E+03   -0.92011E+00   -0.91933E+00  8424   0.142E+01-0.182E-02
CGA:   4    -0.669582535225E+03   -0.23345E+00   -0.23360E+00  8424   0.352E+00 0.249E-03
CGA:   5    -0.669643276142E+03   -0.60741E-01   -0.60865E-01  8424   0.724E-01 0.650E-03
CGA:   6    -0.669657713054E+03   -0.14437E-01   -0.14390E-01  8424   0.166E-01-0.415E-03
CGA:   7    -0.669661271667E+03   -0.35586E-02   -0.35906E-02  8424   0.477E-02 0.357E-03
CGA:   8    -0.669662370402E+03   -0.10987E-02   -0.11243E-02  8424   0.128E-02 0.357E-03
CGA:   9    -0.669662707919E+03   -0.33752E-03   -0.34434E-03  8424   0.413E-03 0.142E-03
CGA:  10    -0.669662767062E+03   -0.59143E-04   -0.82998E-04  8424   0.168E-03 0.207E-03
CGA:  11    -0.669662777807E+03   -0.10745E-04   -0.25878E-04  8424   0.890E-04 0.111E-03
CGA:  12    -0.669662774473E+03    0.33333E-05   -0.10078E-04  8424   0.708E-04 0.787E-04
  11 F= -.66966277E+03 E0= -.66966277E+03  d E =-.175948E+00  mag=     2.0000
       N       E                     dE             d eps       ncg     rms          ort
SDA:   1    -0.669518747146E+03    0.14403E+00    0.00000E+00  8424   0.497E+00 0.000E+00
CGA:   2    -0.669616652605E+03   -0.97905E-01   -0.97937E-01  8424   0.197E+00 0.323E-03
CGA:   3    -0.669658692116E+03   -0.42040E-01   -0.42043E-01  8424   0.672E-01 0.402E-04
CGA:   4    -0.669669771795E+03   -0.11080E-01   -0.11100E-01  8424   0.166E-01 0.210E-03
CGA:   5    -0.669672578031E+03   -0.28062E-02   -0.28277E-02  8424   0.324E-02 0.250E-03
CGA:   6    -0.669673195536E+03   -0.61750E-03   -0.62748E-03  8424   0.727E-03 0.166E-03
CGA:   7    -0.669673318383E+03   -0.12285E-03   -0.13579E-03  8424   0.200E-03 0.185E-03
CGA:   8    -0.669673331053E+03   -0.12670E-04   -0.30388E-04  8424   0.922E-04 0.143E-03
CGA:   9    -0.669673327793E+03    0.32602E-05   -0.79342E-05  8424   0.623E-04 0.736E-04
  12 F= -.66967333E+03 E0= -.66967333E+03  d E =-.105533E-01  mag=     2.0000
       N       E                     dE             d eps       ncg     rms          ort
SDA:   1    -0.669578180813E+03    0.95150E-01    0.00000E+00  8424   0.303E+00 0.000E+00
CGA:   2    -0.669645127575E+03   -0.66947E-01   -0.66947E-01  8424   0.137E+00 0.301E-04
CGA:   3    -0.669672673208E+03   -0.27546E-01   -0.27550E-01  8424   0.396E-01 0.181E-03
CGA:   4    -0.669679157941E+03   -0.64847E-02   -0.64969E-02  8424   0.964E-02 0.208E-03
CGA:   5    -0.669680776268E+03   -0.16183E-02   -0.16317E-02  8424   0.189E-02 0.266E-03
CGA:   6    -0.669681118504E+03   -0.34224E-03   -0.35055E-03  8424   0.414E-03 0.235E-03
CGA:   7    -0.669681182612E+03   -0.64108E-04   -0.73447E-04  8424   0.132E-03 0.166E-03
CGA:   8    -0.669681188293E+03   -0.56806E-05   -0.18639E-04  8424   0.720E-04 0.117E-03
  13 F= -.66968119E+03 E0= -.66968119E+03  d E =-.786050E-02  mag=     2.0000
       N       E                     dE             d eps       ncg     rms          ort
SDA:   1    -0.669497908520E+03    0.18327E+00    0.00000E+00  8424   0.525E+00 0.000E+00
CGA:   2    -0.669639696482E+03   -0.14179E+00   -0.14184E+00  8424   0.255E+00-0.742E-03
CGA:   3    -0.669686011264E+03   -0.46315E-01   -0.46325E-01  8424   0.606E-01 0.445E-03
CGA:   4    -0.669696141107E+03   -0.10130E-01   -0.10137E-01  8424   0.151E-01 0.208E-03
CGA:   5    -0.669698682292E+03   -0.25412E-02   -0.25492E-02  8424   0.304E-02 0.256E-03
CGA:   6    -0.669699268199E+03   -0.58591E-03   -0.58788E-03  8424   0.699E-03 0.240E-03
CGA:   7    -0.669699420030E+03   -0.15183E-03   -0.15141E-03  8424   0.215E-03 0.134E-03
CGA:   8    -0.669699452618E+03   -0.32588E-04   -0.38541E-04  8424   0.930E-04 0.126E-03
CGA:   9    -0.669699456675E+03   -0.40568E-05   -0.10140E-04  8424   0.592E-04 0.703E-04
  14 F= -.66969946E+03 E0= -.66969946E+03  d E =-.182684E-01  mag=     2.0000
       N       E                     dE             d eps       ncg     rms          ort
SDA:   1    -0.659770069904E+03    0.99294E+01    0.00000E+00  8424   0.321E+02 0.000E+00
CGA:   2    -0.665946482409E+03   -0.61764E+01   -0.61746E+01  8424   0.123E+02 0.160E+00
CGA:   3    -0.668616845102E+03   -0.26704E+01   -0.26714E+01  8424   0.416E+01-0.283E-01
CGA:   4    -0.669311050972E+03   -0.69421E+00   -0.69427E+00  8424   0.105E+01 0.738E-03
CGA:   5    -0.669488812628E+03   -0.17776E+00   -0.17781E+00  8424   0.208E+00 0.204E-02
CGA:   6    -0.669530532890E+03   -0.41720E-01   -0.41742E-01  8424   0.486E-01-0.152E-02
CGA:   7    -0.669541300789E+03   -0.10768E-01   -0.10764E-01  8424   0.143E-01 0.893E-04
CGA:   8    -0.669544893844E+03   -0.35931E-02   -0.36240E-02  8424   0.430E-02-0.484E-03
CGA:   9    -0.669546120503E+03   -0.12267E-02   -0.14723E-02  8424   0.278E-02-0.151E-02
CGA:  10    -0.669546532475E+03   -0.41197E-03   -0.81779E-03  8424   0.289E-02-0.161E-02
CGA:  11    -0.669547241311E+03   -0.70884E-03   -0.76216E-03  8424   0.150E-02-0.104E-02
CGA:  12    -0.669547502035E+03   -0.26072E-03   -0.35162E-03  8424   0.896E-03-0.599E-03
CGA:  13    -0.669547875188E+03   -0.37315E-03    0.10706E-03  8424   0.329E-03 0.541E-04
CGA:  14    -0.669548155968E+03   -0.28078E-03    0.47956E-04  8424   0.125E-03 0.767E-04
CGA:  15    -0.669548319245E+03   -0.16328E-03    0.12330E-04  8424   0.702E-04 0.179E-04
CGA:  16    -0.669548522557E+03   -0.20331E-03    0.19071E-05  8424   0.539E-04 0.463E-04
CGA:  17    -0.669548644220E+03   -0.12166E-03    0.14767E-05  8424   0.346E-04 0.263E-04
CGA:  18    -0.669548804331E+03   -0.16011E-03    0.95524E-06  8424   0.294E-04 0.381E-04
CGA:  19    -0.669548898066E+03   -0.93735E-04    0.53272E-06  8424   0.255E-04 0.244E-04
CGA:  20    -0.669549000991E+03   -0.10292E-03    0.35193E-06  8424   0.246E-04 0.237E-04
CGA:  21    -0.669549092859E+03   -0.91868E-04    0.37190E-06  8424   0.240E-04 0.231E-04
CGA:  22    -0.669549193514E+03   -0.10066E-03    0.31799E-06  8424   0.235E-04 0.226E-04
CGA:  23    -0.669549283523E+03   -0.90009E-04    0.34428E-06  8424   0.231E-04 0.220E-04
CGA:  24    -0.669549382892E+03   -0.99369E-04    0.29637E-06  8424   0.227E-04 0.214E-04
CGA:  25    -0.669549470375E+03   -0.87483E-04    0.33105E-06  8424   0.225E-04 0.208E-04
CGA:  26    -0.669549569120E+03   -0.98745E-04    0.28212E-06  8424   0.223E-04 0.201E-04
CGA:  27    -0.669549653612E+03   -0.84491E-04    0.33085E-06  8424   0.223E-04 0.194E-04
CGA:  28    -0.669549752221E+03   -0.98609E-04    0.27689E-06  8424   0.223E-04 0.186E-04
CGA:  29    -0.669549833406E+03   -0.81185E-04    0.34706E-06  8424   0.226E-04 0.177E-04
CGA:  30    -0.669549932217E+03   -0.98812E-04    0.28434E-06  8424   0.230E-04 0.166E-04
CGA:  31    -0.669550009891E+03   -0.77673E-04    0.38779E-06  8424   0.236E-04 0.154E-04
CGA:  32    -0.669550109120E+03   -0.99230E-04    0.31102E-06  8424   0.245E-04 0.139E-04
CGA:  33    -0.669550183152E+03   -0.74032E-04    0.47011E-06  8424   0.257E-04 0.122E-04
CGA:  34    -0.669550361135E+03   -0.17798E-03    0.45660E-06  8424   0.231E-04 0.377E-04
CGA:  35    -0.669550458395E+03   -0.97260E-04    0.30266E-06  8424   0.239E-04 0.119E-04
CGA:  36    -0.669550528480E+03   -0.70085E-04    0.47775E-06  8424   0.252E-04 0.102E-04
CGA:  37    -0.669550700337E+03   -0.17186E-03    0.40911E-06  8424   0.229E-04 0.352E-04
CGA:  38    -0.669550795865E+03   -0.95528E-04    0.30332E-06  8424   0.237E-04 0.974E-05
CGA:  39    -0.669550961602E+03   -0.16574E-03    0.37634E-06  8424   0.218E-04 0.332E-04
CGA:  40    -0.669551026984E+03   -0.65381E-04    0.42146E-06  8424   0.227E-04 0.918E-05
CGA:  41    -0.669551189296E+03   -0.16231E-03    0.34784E-06  8424   0.208E-04 0.317E-04
CGA:  42    -0.669551280997E+03   -0.91700E-04    0.26033E-06  8424   0.215E-04 0.874E-05
CGA:  43    -0.669551437867E+03   -0.15687E-03    0.32219E-06  8424   0.199E-04 0.300E-04
CGA:  44    -0.669551499012E+03   -0.61146E-04    0.37407E-06  8424   0.205E-04 0.827E-05
CGA:  45    -0.669551652411E+03   -0.15340E-03    0.29813E-06  8424   0.190E-04 0.286E-04
CGA:  46    -0.669551740337E+03   -0.87926E-04    0.22545E-06  8424   0.195E-04 0.788E-05
CGA:  47    -0.669551888751E+03   -0.14841E-03    0.27712E-06  8424   0.182E-04 0.271E-04
CGA:  48    -0.669551946054E+03   -0.57303E-04    0.33267E-06  8424   0.186E-04 0.748E-05
CGA:  49    -0.669552091022E+03   -0.14497E-03    0.25666E-06  8424   0.174E-04 0.258E-04
CGA:  50    -0.669552175220E+03   -0.84198E-04    0.19602E-06  8424   0.177E-04 0.715E-05
CGA:  51    -0.669552315522E+03   -0.14030E-03    0.23893E-06  8424   0.166E-04 0.245E-04
CGA:  52    -0.669552369387E+03   -0.53864E-04    0.29448E-06  8424   0.168E-04 0.683E-05
CGA:  53    -0.669552506259E+03   -0.13687E-03    0.22137E-06  8424   0.159E-04 0.233E-04
CGA:  54    -0.669552586696E+03   -0.80438E-04    0.17007E-06  8424   0.159E-04 0.659E-05
CGA:  55    -0.669552719070E+03   -0.13237E-03    0.20608E-06  8424   0.151E-04 0.221E-04
CGA:  56    -0.669552770012E+03   -0.50942E-04    0.25617E-06  8424   0.151E-04 0.640E-05
CGA:  57    -0.669552898915E+03   -0.12890E-03    0.19073E-06  8424   0.144E-04 0.210E-04
CGA:  58    -0.669552975387E+03   -0.76473E-04    0.14596E-06  8424   0.141E-04 0.630E-05
CGA:  59    -0.669553099785E+03   -0.12440E-03    0.17730E-06  8424   0.136E-04 0.199E-04
CGA:  60    -0.669553148527E+03   -0.48742E-04    0.21466E-06  8424   0.132E-04 0.625E-05
CGA:  61    -0.669553269376E+03   -0.12085E-03    0.16364E-06  8424   0.128E-04 0.188E-04
CGA:  62    -0.669553341453E+03   -0.72078E-04    0.12269E-06  8424   0.122E-04 0.630E-05
CGA:  63    -0.669553457765E+03   -0.11631E-03    0.15181E-06  8424   0.120E-04 0.177E-04
CGA:  64    -0.669553505201E+03   -0.47436E-04    0.17046E-06  8424   0.113E-04 0.638E-05
CGA:  65    -0.669553573790E+03   -0.68589E-04    0.98669E-07  8424   0.109E-04 0.653E-05
CGA:  66    -0.669553621116E+03   -0.47326E-04    0.13978E-06  8424   0.107E-04 0.654E-05
CGA:  67    -0.669553687984E+03   -0.66867E-04    0.91416E-07  8424   0.105E-04 0.649E-05
CGA:  68    -0.669553734948E+03   -0.46964E-04    0.12931E-06  8424   0.103E-04 0.643E-05
CGA:  69    -0.669553800366E+03   -0.65417E-04    0.86946E-07  8424   0.102E-04 0.634E-05
CGA:  70    -0.669553846774E+03   -0.46409E-04    0.12274E-06  8424   0.101E-04 0.623E-05
CGA:  71    -0.669553910955E+03   -0.64181E-04    0.84015E-07  8424   0.996E-05 0.609E-05
CGA:  72    -0.669553956635E+03   -0.45680E-04    0.11930E-06  8424   0.989E-05 0.594E-05
CGA:  73    -0.669554019777E+03   -0.63142E-04    0.82556E-07  8424   0.985E-05 0.576E-05
CGA:  74    -0.669554064569E+03   -0.44792E-04    0.11894E-06  8424   0.983E-05 0.556E-05
CGA:  75    -0.669554126854E+03   -0.62285E-04    0.82721E-07  8424   0.985E-05 0.533E-05
CGA:  76    -0.669554170609E+03   -0.43756E-04    0.12206E-06  8424   0.990E-05 0.508E-05
CGA:  77    -0.669554232207E+03   -0.61598E-04    0.84887E-07  8424   0.999E-05 0.479E-05
CGA:  78    -0.669554337038E+03   -0.10483E-03    0.11076E-06  8424   0.944E-05 0.146E-04
CGA:  79    -0.669554378920E+03   -0.41881E-04    0.11731E-06  8424   0.952E-05 0.460E-05
CGA:  80    -0.669554481241E+03   -0.10232E-03    0.10353E-06  8424   0.900E-05 0.139E-04
CGA:  81    -0.669554540137E+03   -0.58895E-04    0.73125E-07  8424   0.911E-05 0.441E-05
CGA:  82    -0.669554639814E+03   -0.99677E-04    0.97430E-07  8424   0.859E-05 0.134E-04
CGA:  83    -0.669554679284E+03   -0.39470E-04    0.10245E-06  8424   0.868E-05 0.424E-05
CGA:  84    -0.669554776674E+03   -0.97390E-04    0.90919E-07  8424   0.818E-05 0.128E-04
CGA:  85    -0.669554832904E+03   -0.56230E-04    0.63127E-07  8424   0.828E-05 0.408E-05
CGA:  86    -0.669554927513E+03   -0.94609E-04    0.85485E-07  8424   0.781E-05 0.122E-04
CGA:  87    -0.669554964768E+03   -0.37255E-04    0.89409E-07  8424   0.788E-05 0.392E-05
CGA:  88    -0.669555019564E+03   -0.54796E-04    0.60022E-07  8424   0.798E-05 0.366E-05
CGA:  89    -0.669555111088E+03   -0.91525E-04    0.78467E-07  8424   0.754E-05 0.115E-04
CGA:  90    -0.669555146610E+03   -0.35521E-04    0.87609E-07  8424   0.759E-05 0.353E-05
CGA:  91    -0.669555235796E+03   -0.89187E-04    0.72973E-07  8424   0.720E-05 0.110E-04
CGA:  92    -0.669555288153E+03   -0.52357E-04    0.52232E-07  8424   0.726E-05 0.338E-05
CGA:  93    -0.669555374911E+03   -0.86758E-04    0.68714E-07  8424   0.688E-05 0.105E-04
CGA:  94    -0.669555408407E+03   -0.33495E-04    0.77140E-07  8424   0.691E-05 0.326E-05
CGA:  95    -0.669555493031E+03   -0.84624E-04    0.64035E-07  8424   0.657E-05 0.100E-04
CGA:  96    -0.669555543014E+03   -0.49983E-04    0.45521E-07  8424   0.659E-05 0.313E-05
CGA:  97    -0.669555625223E+03   -0.82209E-04    0.60184E-07  8424   0.629E-05 0.958E-05
CGA:  98    -0.669555656845E+03   -0.31622E-04    0.67925E-07  8424   0.628E-05 0.301E-05
CGA:  99    -0.669555737043E+03   -0.80198E-04    0.56167E-07  8424   0.601E-05 0.915E-05
CGA: 100    -0.669555784731E+03   -0.47688E-04    0.39723E-07  8424   0.598E-05 0.290E-05
CGA: 101    -0.669555862622E+03   -0.77891E-04    0.52728E-07  8424   0.574E-05 0.874E-05
CGA: 102    -0.669555892511E+03   -0.29890E-04    0.59793E-07  8424   0.570E-05 0.279E-05
CGA: 103    -0.669555968462E+03   -0.75951E-04    0.49280E-07  8424   0.549E-05 0.835E-05
CGA: 104    -0.669556013934E+03   -0.45471E-04    0.34710E-07  8424   0.543E-05 0.269E-05
CGA: 105    -0.669556087729E+03   -0.73795E-04    0.46217E-07  8424   0.525E-05 0.797E-05
CGA: 106    -0.669556116016E+03   -0.28288E-04    0.52609E-07  8424   0.517E-05 0.259E-05
CGA: 107    -0.669556187909E+03   -0.71893E-04    0.43257E-07  8424   0.502E-05 0.762E-05
CGA: 108    -0.669556231239E+03   -0.43330E-04    0.30370E-07  8424   0.492E-05 0.250E-05
CGA: 109    -0.669556301140E+03   -0.69901E-04    0.40526E-07  8424   0.480E-05 0.727E-05
CGA: 110    -0.669556327952E+03   -0.26812E-04    0.46241E-07  8424   0.469E-05 0.242E-05
CGA: 111    -0.669556369762E+03   -0.41810E-04    0.27454E-07  8424   0.459E-05 0.241E-05
CGA: 112    -0.669556396390E+03   -0.26628E-04    0.42521E-07  8424   0.450E-05 0.241E-05
CGA: 113    -0.669556437210E+03   -0.40820E-04    0.25797E-07  8424   0.441E-05 0.241E-05
CGA: 114    -0.669556463688E+03   -0.26478E-04    0.39232E-07  8424   0.432E-05 0.240E-05
CGA: 115    -0.669556503551E+03   -0.39863E-04    0.24383E-07  8424   0.425E-05 0.238E-05
CGA: 116    -0.669556529838E+03   -0.26287E-04    0.36601E-07  8424   0.418E-05 0.236E-05
CGA: 117    -0.669556568825E+03   -0.38986E-04    0.23283E-07  8424   0.412E-05 0.233E-05
CGA: 118    -0.669556594844E+03   -0.26019E-04    0.34752E-07  8424   0.407E-05 0.229E-05
CGA: 119    -0.669556633060E+03   -0.38216E-04    0.22535E-07  8424   0.403E-05 0.225E-05
CGA: 120    -0.669556658718E+03   -0.25658E-04    0.33720E-07  8424   0.400E-05 0.219E-05
CGA: 121    -0.669556696277E+03   -0.37559E-04    0.22166E-07  8424   0.398E-05 0.213E-05
CGA: 122    -0.669556721476E+03   -0.25199E-04    0.33553E-07  8424   0.398E-05 0.205E-05
CGA: 123    -0.669556758494E+03   -0.37018E-04    0.22227E-07  8424   0.398E-05 0.197E-05
CGA: 124    -0.669556820244E+03   -0.61750E-04    0.29732E-07  8424   0.380E-05 0.587E-05
CGA: 125    -0.669556844427E+03   -0.24183E-04    0.31840E-07  8424   0.381E-05 0.190E-05
CGA: 126    -0.669556904676E+03   -0.60249E-04    0.27955E-07  8424   0.363E-05 0.562E-05
CGA: 127    -0.669556940077E+03   -0.35401E-04    0.19329E-07  8424   0.365E-05 0.182E-05
CGA: 128    -0.669556963215E+03   -0.23138E-04    0.30675E-07  8424   0.368E-05 0.172E-05
CGA: 129    -0.669557021706E+03   -0.58491E-04    0.25889E-07  8424   0.349E-05 0.533E-05
CGA: 130    -0.669557056182E+03   -0.34476E-04    0.18376E-07  8424   0.351E-05 0.166E-05
CGA: 131    -0.669557112950E+03   -0.56768E-04    0.24369E-07  8424   0.334E-05 0.510E-05
CGA: 132    -0.669557134728E+03   -0.21778E-04    0.27244E-07  8424   0.337E-05 0.159E-05
CGA: 133    -0.669557190319E+03   -0.55591E-04    0.22920E-07  8424   0.320E-05 0.490E-05
CGA: 134    -0.669557223275E+03   -0.32956E-04    0.16064E-07  8424   0.321E-05 0.153E-05
CGA: 135    -0.669557277215E+03   -0.53940E-04    0.21594E-07  8424   0.306E-05 0.468E-05
CGA: 136    -0.669557297741E+03   -0.20526E-04    0.24186E-07  8424   0.307E-05 0.147E-05
CGA: 137    -0.669557350506E+03   -0.52765E-04    0.20267E-07  8424   0.293E-05 0.449E-05
CGA: 138    -0.669557381991E+03   -0.31485E-04    0.14071E-07  8424   0.293E-05 0.142E-05
CGA: 139    -0.669557433188E+03   -0.51197E-04    0.19100E-07  8424   0.280E-05 0.430E-05
CGA: 140    -0.669557452554E+03   -0.19366E-04    0.21465E-07  8424   0.280E-05 0.137E-05
CGA: 141    -0.669557502591E+03   -0.50037E-04    0.17917E-07  8424   0.268E-05 0.411E-05
CGA: 142    -0.669557532655E+03   -0.30064E-04    0.12347E-07  8424   0.267E-05 0.132E-05
CGA: 143    -0.669557581222E+03   -0.48567E-04    0.16882E-07  8424   0.257E-05 0.394E-05
CGA: 144    -0.669557599513E+03   -0.18291E-04    0.19050E-07  8424   0.256E-05 0.127E-05
CGA: 145    -0.669557646936E+03   -0.47423E-04    0.15843E-07  8424   0.246E-05 0.377E-05
CGA: 146    -0.669557675631E+03   -0.28695E-04    0.10852E-07  8424   0.244E-05 0.123E-05
CGA: 147    -0.669557693226E+03   -0.17595E-04    0.17844E-07  8424   0.242E-05 0.120E-05
CGA: 148    -0.669557738982E+03   -0.45756E-04    0.14612E-07  8424   0.234E-05 0.356E-05
CGA: 149    -0.669557766824E+03   -0.27842E-04    0.10103E-07  8424   0.230E-05 0.116E-05
CGA: 150    -0.669557811250E+03   -0.44426E-04    0.13713E-07  8424   0.224E-05 0.340E-05
CGA: 151    -0.669557827879E+03   -0.16628E-04    0.15866E-07  8424   0.221E-05 0.111E-05
CGA: 152    -0.669557871247E+03   -0.43369E-04    0.12938E-07  8424   0.214E-05 0.326E-05
CGA: 153    -0.669557897819E+03   -0.26572E-04    0.88943E-08  8424   0.210E-05 0.108E-05
CGA: 154    -0.669557913923E+03   -0.16104E-04    0.14467E-07  8424   0.207E-05 0.107E-05
CGA: 155    -0.669557939917E+03   -0.25994E-04    0.84536E-08  8424   0.203E-05 0.107E-05
CGA: 156    -0.669557955906E+03   -0.15989E-04    0.13543E-07  8424   0.200E-05 0.106E-05
CGA: 157    -0.669557981321E+03   -0.25415E-04    0.80604E-08  8424   0.197E-05 0.105E-05
CGA: 158    -0.669557997185E+03   -0.15864E-04    0.12765E-07  8424   0.194E-05 0.104E-05
CGA: 159    -0.669558022060E+03   -0.24874E-04    0.77477E-08  8424   0.191E-05 0.102E-05
CGA: 160    -0.669558037760E+03   -0.15700E-04    0.12206E-07  8424   0.189E-05 0.101E-05
CGA: 161    -0.669558062154E+03   -0.24394E-04    0.75346E-08  8424   0.188E-05 0.985E-06
CGA: 162    -0.669558077636E+03   -0.15482E-04    0.11901E-07  8424   0.186E-05 0.960E-06
CGA: 163    -0.669558101617E+03   -0.23982E-04    0.74359E-08  8424   0.186E-05 0.931E-06
CGA: 164    -0.669558140717E+03   -0.39100E-04    0.10143E-07  8424   0.178E-05 0.275E-05
CGA: 165    -0.669558155608E+03   -0.14891E-04    0.11199E-07  8424   0.178E-05 0.897E-06
CGA: 166    -0.669558178910E+03   -0.23301E-04    0.69633E-08  8424   0.178E-05 0.863E-06
CGA: 167    -0.669558216790E+03   -0.37881E-04    0.94255E-08  8424   0.171E-05 0.261E-05
CGA: 168    -0.669558231084E+03   -0.14294E-04    0.10649E-07  8424   0.170E-05 0.834E-06
CGA: 169    -0.669558267973E+03   -0.36888E-04    0.88654E-08  8424   0.163E-05 0.249E-05
CGA: 170    -0.669558290269E+03   -0.22297E-04    0.61131E-08  8424   0.163E-05 0.801E-06
CGA: 171    -0.669558326304E+03   -0.36035E-04    0.84128E-08  8424   0.156E-05 0.240E-05
CGA: 172    -0.669558339779E+03   -0.13475E-04    0.94788E-08  8424   0.156E-05 0.773E-06
CGA: 173    -0.669558374929E+03   -0.35150E-04    0.79125E-08  8424   0.150E-05 0.230E-05
CGA: 174    -0.669558396241E+03   -0.21312E-04    0.53777E-08  8424   0.150E-05 0.745E-06
CGA: 175    -0.669558430473E+03   -0.34232E-04    0.74930E-08  8424   0.143E-05 0.221E-05
CGA: 176    -0.669558443190E+03   -0.12717E-04    0.84422E-08  8424   0.143E-05 0.719E-06
CGA: 177    -0.669558463911E+03   -0.20722E-04    0.50524E-08  8424   0.143E-05 0.692E-06
CGA: 178    -0.669558497013E+03   -0.33102E-04    0.69351E-08  8424   0.137E-05 0.209E-05
CGA: 179    -0.669558509198E+03   -0.12184E-04    0.80756E-08  8424   0.136E-05 0.670E-06
CGA: 180    -0.669558541423E+03   -0.32225E-04    0.65110E-08  8424   0.132E-05 0.200E-05
CGA: 181    -0.669558561235E+03   -0.19812E-04    0.44569E-08  8424   0.131E-05 0.644E-06
CGA: 182    -0.669558592664E+03   -0.31429E-04    0.61679E-08  8424   0.126E-05 0.192E-05
CGA: 183    -0.669558604164E+03   -0.11500E-04    0.72084E-08  8424   0.125E-05 0.623E-06
[...]
CGA:   2    -0.669813651336E+03   -0.42097E-01   -0.42091E-01  8424   0.866E-01-0.138E-03
CGA:   3    -0.669831191231E+03   -0.17540E-01   -0.17540E-01  8424   0.258E-01-0.409E-05
CGA:   4    -0.669835468802E+03   -0.42776E-02   -0.42702E-02  8424   0.635E-02-0.824E-04
CGA:   5    -0.669836589335E+03   -0.11205E-02   -0.11105E-02  8424   0.135E-02-0.128E-03
CGA:   6    -0.669836882168E+03   -0.29283E-03   -0.28851E-03  8424   0.371E-03-0.133E-03
CGA:   7    -0.669836976533E+03   -0.94366E-04   -0.10667E-03  8424   0.288E-03-0.175E-03
CGA:   8    -0.669835490031E+03    0.14865E-02   -0.80715E-03  8424   0.956E-02-0.125E-02
CGA:   9    -0.669836925874E+03   -0.14358E-02   -0.14190E-02  8424   0.118E-02-0.552E-04
CGA:  10    -0.669837317153E+03   -0.39128E-03   -0.37986E-03  8424   0.325E-03-0.960E-04
CGA:  11    -0.669837436747E+03   -0.11959E-03   -0.11354E-03  8424   0.196E-03-0.104E-03
CGA:  12    -0.669837490612E+03   -0.53865E-04   -0.73895E-04  8424   0.363E-03-0.170E-03
CGA:  13    -0.669837574206E+03   -0.83594E-04   -0.67554E-04  8424   0.104E-03-0.630E-04
CGA:  14    -0.669837609022E+03   -0.34815E-04   -0.30628E-04  8424   0.962E-04-0.586E-04
CGA:  15    -0.669837649255E+03   -0.40233E-04   -0.25588E-04  8424   0.134E-03-0.920E-04
CGA:  16    -0.669837660767E+03   -0.11512E-04   -0.13944E-04  8424   0.324E-05 0.786E-05
CGA:  17    -0.669837692420E+03   -0.31653E-04    0.65706E-07  8424   0.640E-05 0.332E-06
CGA:  18    -0.669837792565E+03   -0.10015E-03    0.84760E-07  8424   0.877E-05 0.214E-05
CGA:  19    -0.669837958782E+03   -0.16622E-03    0.14072E-06  8424   0.682E-05 0.688E-05
CGA:  20    -0.669837982230E+03   -0.23449E-04    0.41653E-06  8424   0.226E-04-0.609E-05
CGA:  21    -0.669838008147E+03   -0.25916E-04    0.10567E-04  8424   0.148E-03-0.529E-04
CGA:  22    -0.669838022582E+03   -0.14435E-04   -0.15692E-04  8424   0.181E-05 0.437E-05
CGA:  23    -0.669838049457E+03   -0.26875E-04    0.20345E-07  8424   0.291E-05 0.799E-06
CGA:  24    -0.669838118131E+03   -0.68674E-04    0.40325E-07  8424   0.230E-05 0.333E-05
CGA:  25    -0.669838140427E+03   -0.22296E-04    0.38430E-07  8424   0.372E-05-0.194E-06
CGA:  26    -0.669838206444E+03   -0.66016E-04    0.27296E-07  8424   0.426E-05 0.258E-05
CGA:  27    -0.669838229262E+03   -0.22818E-04    0.13886E-06  8424   0.446E-05-0.201E-05
CGA:  28    -0.669838275652E+03   -0.46390E-04    0.18593E-07  8424   0.459E-05 0.195E-05
CGA:  29    -0.669838346892E+03   -0.71240E-04    0.98409E-07  8424   0.371E-05 0.742E-06
CGA:  30    -0.669838426314E+03   -0.79422E-04    0.36436E-07  8424   0.274E-05 0.326E-05
CGA:  31    -0.669838445472E+03   -0.19159E-04    0.66023E-07  8424   0.158E-05-0.203E-06
CGA:  32    -0.669838476745E+03   -0.31273E-04    0.10678E-07  8424   0.142E-05 0.134E-05
CGA:  33    -0.669838496166E+03   -0.19421E-04    0.16453E-07  8424   0.945E-06 0.601E-06
CGA:  34    -0.669838527589E+03   -0.31423E-04    0.89031E-08  8424   0.110E-05 0.124E-05
CGA:  35    -0.669838545747E+03   -0.18158E-04    0.10393E-07  8424   0.814E-06 0.681E-06
CGA:  36    -0.669838563644E+03   -0.17897E-04    0.57426E-08  8424   0.764E-06 0.744E-06
CGA:  37    -0.669838581487E+03   -0.17844E-04    0.50585E-08  8424   0.743E-06 0.737E-06
CGA:  38    -0.669838598703E+03   -0.17216E-04    0.49615E-08  8424   0.733E-06 0.717E-06
CGA:  39    -0.669838616351E+03   -0.17648E-04    0.47006E-08  8424   0.744E-06 0.685E-06
CGA:  40    -0.669838632587E+03   -0.16236E-04    0.52863E-08  8424   0.832E-06 0.615E-06
CGA:  41    -0.669838650608E+03   -0.18021E-04    0.59580E-08  8424   0.123E-05 0.393E-06
CGA:  42    -0.669838691417E+03   -0.40809E-04    0.12426E-07  8424   0.662E-06 0.165E-05
CGA:  43    -0.669838706427E+03   -0.15010E-04    0.45150E-08  8424   0.751E-06 0.553E-06
CGA:  44    -0.669838723448E+03   -0.17021E-04    0.51276E-08  8424   0.124E-05 0.310E-06
CGA:  45    -0.669838764086E+03   -0.40638E-04    0.11689E-07  8424   0.602E-06 0.157E-05
CGA:  46    -0.669838777805E+03   -0.13720E-04    0.40862E-08  8424   0.697E-06 0.472E-06
CGA:  47    -0.669838794179E+03   -0.16373E-04    0.45904E-08  8424   0.119E-05 0.226E-06
CGA:  48    -0.669838832530E+03   -0.38351E-04    0.10063E-07  8424   0.668E-06 0.141E-05
CGA:  49    -0.669838844710E+03   -0.12181E-04    0.57217E-08  8424   0.853E-06 0.241E-06
CGA:  50    -0.669838876571E+03   -0.31860E-04    0.65046E-08  8424   0.701E-06 0.106E-05
CGA:  51    -0.669838889304E+03   -0.12734E-04    0.60171E-08  8424   0.747E-06 0.178E-06
CGA:  52    -0.669838916071E+03   -0.26767E-04    0.50363E-08  8424   0.706E-06 0.884E-06
CGA:  53    -0.669838928105E+03   -0.12033E-04    0.64912E-08  8424   0.647E-06 0.160E-06
CGA:  54    -0.669838951754E+03   -0.23649E-04    0.40932E-08  8424   0.647E-06 0.750E-06
CGA:  55    -0.669838963222E+03   -0.11468E-04    0.57142E-08  8424   0.528E-06 0.200E-06
CGA:  56    -0.669838984513E+03   -0.21290E-04    0.34391E-08  8424   0.556E-06 0.653E-06
CGA:  57    -0.669838995584E+03   -0.11071E-04    0.43414E-08  8424   0.434E-06 0.246E-06
CGA:  58    -0.669839015469E+03   -0.19885E-04    0.30178E-08  8424   0.480E-06 0.590E-06
CGA:  59    -0.669839026017E+03   -0.10548E-04    0.33856E-08  8424   0.375E-06 0.266E-06
CGA:  60    -0.669839036742E+03   -0.10725E-04    0.20110E-08  8424   0.344E-06 0.303E-06
CGA:  61    -0.669839046802E+03   -0.10061E-04    0.18049E-08  8424   0.337E-06 0.305E-06
CGA:  62    -0.669839057500E+03   -0.10698E-04    0.16250E-08  8424   0.350E-06 0.289E-06
CGA:  63    -0.669839066808E+03   -0.93081E-05    0.20257E-08  8424   0.413E-06 0.244E-06
  37 F= -.66983907E+03 E0= -.66983907E+03  d E =-.128857E-01  mag=     2.0000
       N       E                     dE             d eps       ncg     rms          ort
SDA:   1    -0.669058153365E+03    0.78090E+00    0.00000E+00  8424   0.230E+01 0.000E+00
CGA:   2    -0.669589128267E+03   -0.53097E+00   -0.53103E+00  8424   0.107E+01-0.347E-03
CGA:   3    -0.669799321569E+03   -0.21019E+00   -0.21025E+00  8424   0.297E+00 0.387E-03
CGA:   4    -0.669848433796E+03   -0.49112E-01   -0.49107E-01  8424   0.728E-01-0.101E-03
CGA:   5    -0.669860950064E+03   -0.12516E-01   -0.12497E-01  8424   0.151E-01-0.125E-03
CGA:   6    -0.669863986132E+03   -0.30361E-02   -0.30381E-02  8424   0.363E-02 0.116E-04
CGA:   7    -0.669864799976E+03   -0.81384E-03   -0.81360E-03  8424   0.111E-02-0.255E-05
CGA:   8    -0.669865071706E+03   -0.27173E-03   -0.27425E-03  8424   0.347E-03 0.279E-04
CGA:   9    -0.669865174110E+03   -0.10240E-03   -0.10261E-03  8424   0.139E-03 0.438E-05
CGA:  10    -0.669865232972E+03   -0.58862E-04   -0.64554E-04  8424   0.136E-03-0.452E-04
CGA:  11    -0.669865265520E+03   -0.32548E-04   -0.33302E-04  8424   0.908E-04-0.303E-04
CGA:  12    -0.669865293023E+03   -0.27503E-04   -0.45710E-04  8424   0.178E-03-0.609E-04
CGA:  13    -0.669865340918E+03   -0.47894E-04   -0.47613E-04  8424   0.552E-04-0.338E-05
CGA:  14    -0.669865364385E+03   -0.23467E-04   -0.24679E-04  8424   0.754E-04-0.117E-04
CGA:  15    -0.669865385953E+03   -0.21568E-04   -0.21764E-04  8424   0.570E-04-0.182E-04
CGA:  16    -0.669865417513E+03   -0.31560E-04    0.26680E-03  8424   0.330E-04-0.113E-06
CGA:  17    -0.669865434272E+03   -0.16759E-04   -0.26040E-04  8424   0.141E-03-0.232E-04
CGA:  18    -0.669865480431E+03   -0.46159E-04   -0.37897E-04  8424   0.118E-03-0.771E-04
CGA:  19    -0.669865484936E+03   -0.45050E-05   -0.12533E-04  8424   0.148E-04 0.303E-04
  38 F= -.66986548E+03 E0= -.66986548E+03  d E =-.264181E-01  mag=     2.0000
       N       E                     dE             d eps       ncg     rms          ort
SDA:   1    -0.669742267304E+03    0.12321E+00    0.00000E+00  8424   0.401E+00 0.000E+00
CGA:   2    -0.669832473463E+03   -0.90206E-01   -0.90194E-01  8424   0.183E+00-0.212E-03
CGA:   3    -0.669869220444E+03   -0.36747E-01   -0.36729E-01  8424   0.531E-01-0.144E-03
CGA:   4    -0.669878069916E+03   -0.88495E-02   -0.88214E-02  8424   0.129E-01-0.177E-03
CGA:   5    -0.669880275400E+03   -0.22055E-02   -0.21959E-02  8424   0.267E-02-0.655E-04
CGA:   6    -0.669880810752E+03   -0.53535E-03   -0.53584E-03  8424   0.639E-03 0.371E-05
CGA:   7    -0.669880974981E+03   -0.16423E-03   -0.16012E-03  8424   0.239E-03-0.670E-04
CGA:   8    -0.669881044387E+03   -0.69405E-04   -0.71935E-04  8424   0.153E-03-0.896E-04
CGA:   9    -0.669879932110E+03    0.11123E-02   -0.60369E-03  8424   0.670E-02-0.764E-03
CGA:  10    -0.669881014919E+03   -0.10828E-02   -0.10846E-02  8424   0.746E-03 0.294E-05
CGA:  11    -0.669881259052E+03   -0.24413E-03   -0.23559E-03  8424   0.233E-03-0.374E-04
CGA:  12    -0.669881337799E+03   -0.78746E-04   -0.75961E-04  8424   0.127E-03-0.147E-04
CGA:  13    -0.669881400445E+03   -0.62646E-04   -0.61320E-04  8424   0.329E-03-0.130E-03
CGA:  14    -0.669881425996E+03   -0.25551E-04   -0.38497E-04  8424   0.283E-04 0.322E-04
CGA:  15    -0.669881328629E+03    0.97367E-04   -0.49476E-04  8424   0.722E-03-0.135E-03
CGA:  16    -0.669881513581E+03   -0.18495E-03   -0.17205E-03  8424   0.111E-03-0.408E-04
CGA:  17    -0.669881531065E+03   -0.17484E-04   -0.17811E-04  8424   0.219E-04 0.930E-06
CGA:  18    -0.669881565856E+03   -0.34790E-04    0.11517E-04  8424   0.317E-04-0.171E-04
CGA:  19    -0.669881571373E+03   -0.55177E-05   -0.59793E-05  8424   0.627E-05 0.136E-05
  39 F= -.66988157E+03 E0= -.66988157E+03  d E =-.160864E-01  mag=     2.0000
       N       E                     dE             d eps       ncg     rms          ort
SDA:   1    -0.665834350896E+03    0.40472E+01    0.00000E+00  8424   0.111E+02 0.000E+00
CGA:   2    -0.668479120830E+03   -0.26448E+01   -0.26491E+01  8424   0.531E+01-0.630E-02
CGA:   3    -0.669521282557E+03   -0.10422E+01   -0.10420E+01  8424   0.141E+01 0.698E-02
CGA:   4    -0.669754790498E+03   -0.23351E+00   -0.23342E+00  8424   0.337E+00-0.375E-03
CGA:   5    -0.669812775004E+03   -0.57985E-01   -0.57943E-01  8424   0.712E-01-0.286E-03
CGA:   6    -0.669827102622E+03   -0.14328E-01   -0.14404E-01  8424   0.177E-01 0.308E-03
CGA:   7    -0.669831132512E+03   -0.40299E-02   -0.40401E-02  8424   0.541E-02 0.479E-04
CGA:   8    -0.669832445203E+03   -0.13127E-02   -0.13417E-02  8424   0.175E-02 0.163E-03
CGA:   9    -0.669832943861E+03   -0.49866E-03   -0.51082E-03  8424   0.682E-03 0.906E-04
CGA:  10    -0.669833160923E+03   -0.21706E-03   -0.22442E-03  8424   0.324E-03 0.743E-04
CGA:  11    -0.669833243084E+03   -0.82161E-04   -0.96551E-04  8424   0.141E-03 0.104E-03
CGA:  12    -0.669833278543E+03   -0.35459E-04   -0.47956E-04  8424   0.889E-04 0.874E-04
CGA:  13    -0.669833300489E+03   -0.21946E-04   -0.26326E-04  8424   0.598E-04 0.456E-04
CGA:  14    -0.669833307660E+03   -0.71706E-05   -0.14035E-04  8424   0.493E-04 0.449E-04
CGA:  15    -0.669833314427E+03   -0.67679E-05   -0.12347E-04  8424   0.454E-04 0.431E-04
CGA:  16    -0.669833320451E+03   -0.60237E-05   -0.11183E-04  8424   0.427E-04 0.406E-04
  40 F= -.66983332E+03 E0= -.66983332E+03  d E =0.482509E-01  mag=     2.0000
       N       E                     dE             d eps       ncg     rms          ort
SDA:   1    -0.669371189497E+03    0.46212E+00    0.00000E+00  8424   0.146E+01 0.000E+00
CGA:   2    -0.669684857765E+03   -0.31367E+00   -0.31386E+00  8424   0.641E+00 0.844E-03
CGA:   3    -0.669816250863E+03   -0.13139E+00   -0.13128E+00  8424   0.191E+00-0.775E-03
CGA:   4    -0.669847932963E+03   -0.31682E-01   -0.31675E-01  8424   0.464E-01-0.762E-04
CGA:   5    -0.669855852384E+03   -0.79194E-02   -0.79279E-02  8424   0.951E-02 0.413E-04
CGA:   6    -0.669857794279E+03   -0.19419E-02   -0.19308E-02  8424   0.227E-02-0.917E-04
CGA:   7    -0.669858305357E+03   -0.51108E-03   -0.50908E-03  8424   0.716E-03-0.219E-04
CGA:   8    -0.669858519796E+03   -0.21444E-03   -0.21255E-03  8424   0.330E-03-0.120E-03
CGA:   9    -0.669858619454E+03   -0.99659E-04   -0.11461E-03  8424   0.317E-03-0.148E-03
CGA:  10    -0.669858732129E+03   -0.11268E-03    0.65763E-02  8424   0.187E-03-0.297E-04
CGA:  11    -0.669858844584E+03   -0.11245E-03    0.72340E-03  8424   0.118E-03 0.319E-05
CGA:  12    -0.669858952581E+03   -0.10800E-03    0.47603E-04  8424   0.855E-04 0.207E-04
CGA:  13    -0.669859072554E+03   -0.11997E-03    0.18566E-04  8424   0.638E-04 0.420E-04
CGA:  14    -0.669859193630E+03   -0.12108E-03    0.15397E-04  8424   0.460E-04 0.397E-04
CGA:  15    -0.669859233277E+03   -0.39647E-04    0.21175E-04  8424   0.228E-04 0.108E-04
CGA:  16    -0.669859278445E+03   -0.45168E-04    0.30099E-05  8424   0.191E-04 0.187E-04
CGA:  17    -0.669859311340E+03   -0.32895E-04    0.17951E-05  8424   0.162E-04 0.118E-04
CGA:  18    -0.669859335952E+03   -0.24612E-04    0.18774E-05  8424   0.206E-04 0.922E-05
CGA:  19    -0.669859369727E+03   -0.33776E-04    0.20969E-05  8424   0.380E-04-0.424E-06
CGA:  20    -0.669859449414E+03   -0.79686E-04    0.25329E-05  8424   0.360E-04 0.354E-04
CGA:  21    -0.669859460114E+03   -0.10700E-04   -0.95881E-05  8424   0.576E-04-0.208E-04
CGA:  22    -0.669859374743E+03    0.85371E-04   -0.45791E-04  8424   0.182E-02-0.275E-03
CGA:  23    -0.669859541966E+03   -0.16722E-03   -0.18831E-03  8424   0.168E-04 0.911E-04
CGA:  24    -0.669859566849E+03   -0.24883E-04    0.25519E-05  8424   0.384E-04-0.333E-05
CGA:  25    -0.669859648962E+03   -0.82113E-04    0.16635E-05  8424   0.733E-04 0.251E-04
CGA:  26    -0.669859662815E+03   -0.13853E-04   -0.12031E-04  8424   0.173E-04-0.111E-04
CGA:  27    -0.669859691761E+03   -0.28945E-04    0.11392E-05  8424   0.111E-04 0.115E-04
CGA:  28    -0.669859717862E+03   -0.26101E-04    0.67606E-06  8424   0.128E-04 0.706E-05
CGA:  29    -0.669859730954E+03   -0.13092E-04    0.34187E-05  8424   0.177E-04 0.373E-05
CGA:  30    -0.669859787508E+03   -0.56554E-04    0.12857E-05  8424   0.130E-04 0.214E-04
CGA:  31    -0.669859812324E+03   -0.24816E-04    0.10609E-05  8424   0.161E-04 0.267E-05
CGA:  32    -0.669859854109E+03   -0.41785E-04    0.13193E-05  8424   0.138E-04 0.181E-04
CGA:  33    -0.669859873095E+03   -0.18986E-04    0.19473E-05  8424   0.146E-04 0.164E-05
CGA:  34    -0.669859915641E+03   -0.42546E-04    0.86337E-06  8424   0.136E-04 0.151E-04
CGA:  35    -0.669859930964E+03   -0.15324E-04    0.28594E-05  8424   0.121E-04 0.216E-05
CGA:  36    -0.669859963446E+03   -0.32481E-04    0.86209E-06  8424   0.114E-04 0.127E-04
CGA:  37    -0.669859985902E+03   -0.22456E-04    0.89106E-06  8424   0.903E-05 0.398E-05
CGA:  38    -0.669860016877E+03   -0.30975E-04    0.66047E-06  8424   0.925E-05 0.111E-04
CGA:  39    -0.669860029559E+03   -0.12682E-04    0.13079E-05  8424   0.722E-05 0.508E-05
CGA:  40    -0.669860048549E+03   -0.18990E-04    0.37366E-06  8424   0.675E-05 0.557E-05
CGA:  41    -0.669860062374E+03   -0.13825E-04    0.49442E-06  8424   0.652E-05 0.560E-05
CGA:  42    -0.669860079195E+03   -0.16821E-04    0.34674E-06  8424   0.637E-05 0.552E-05
CGA:  43    -0.669860093637E+03   -0.14442E-04    0.40387E-06  8424   0.626E-05 0.539E-05
CGA:  44    -0.669860108807E+03   -0.15170E-04    0.36221E-06  8424   0.618E-05 0.522E-05
CGA:  45    -0.669860123784E+03   -0.14977E-04    0.35770E-06  8424   0.613E-05 0.504E-05
CGA:  46    -0.669860137144E+03   -0.13359E-04    0.41085E-06  8424   0.610E-05 0.483E-05
CGA:  47    -0.669860152999E+03   -0.15856E-04    0.32165E-06  8424   0.610E-05 0.460E-05
CGA:  48    -0.669860164095E+03   -0.11095E-04    0.53524E-06  8424   0.613E-05 0.435E-05
CGA:  49    -0.669860181374E+03   -0.17279E-04    0.29057E-06  8424   0.619E-05 0.407E-05
CGA:  50    -0.669860189650E+03   -0.82768E-05    0.91876E-06  8424   0.629E-05 0.377E-05
  41 F= -.66986019E+03 E0= -.66986019E+03  d E =-.268692E-01  mag=     2.0000
       N       E                     dE             d eps       ncg     rms          ort
SDA:   1    -0.669643052410E+03    0.21713E+00    0.00000E+00  8424   0.607E+00 0.000E+00
CGA:   2    -0.669786986132E+03   -0.14393E+00   -0.14397E+00  8424   0.287E+00 0.310E-03
CGA:   3    -0.669842488604E+03   -0.55502E-01   -0.55470E-01  8424   0.753E-01-0.277E-03
CGA:   4    -0.669854983438E+03   -0.12495E-01   -0.12476E-01  8424   0.186E-01-0.138E-03
CGA:   5    -0.669858193198E+03   -0.32098E-02   -0.32010E-02  8424   0.388E-02-0.709E-04
CGA:   6    -0.669858980761E+03   -0.78756E-03   -0.78204E-03  8424   0.920E-03-0.592E-04
CGA:   7    -0.669859191970E+03   -0.21121E-03   -0.20955E-03  8424   0.305E-03-0.275E-04
CGA:   8    -0.669859281340E+03   -0.89371E-04   -0.90280E-04  8424   0.147E-03-0.576E-04
CGA:   9    -0.669859318295E+03   -0.36955E-04   -0.61167E-04  8424   0.237E-03-0.109E-03
CGA:  10    -0.669859369232E+03   -0.50937E-04   -0.48304E-04  8424   0.544E-04-0.273E-04
CGA:  11    -0.669859040630E+03    0.32860E-03   -0.17699E-03  8424   0.214E-02-0.259E-03
CGA:  12    -0.669859439139E+03   -0.39851E-03   -0.38506E-03  8424   0.222E-03-0.377E-04
CGA:  13    -0.669859511115E+03   -0.71976E-04   -0.69662E-04  8424   0.403E-04-0.116E-04
CGA:  14    -0.669859491714E+03    0.19402E-04   -0.36154E-04  8424   0.780E-03-0.128E-03
CGA:  15    -0.669859567591E+03   -0.75877E-04   -0.90407E-04  8424   0.335E-04 0.350E-04
CGA:  16    -0.669859585473E+03   -0.17882E-04   -0.17756E-04  8424   0.478E-04-0.210E-04
CGA:  17    -0.669859611205E+03   -0.25732E-04   -0.22025E-04  8424   0.164E-03-0.715E-04
CGA:  18    -0.669859619948E+03   -0.87433E-05   -0.18825E-04  8424   0.116E-04 0.255E-04
  42 F= -.66985962E+03 E0= -.66985962E+03  d E =0.569702E-03  mag=     2.0000
       N       E                     dE             d eps       ncg     rms          ort
SDA:   1    -0.664682544670E+03    0.51771E+01    0.00000E+00  8424   0.160E+02 0.000E+00
CGA:   2    -0.667891662534E+03   -0.32091E+01   -0.32294E+01  8424   0.670E+01-0.350E-01
CGA:   3    -0.669311683333E+03   -0.14200E+01   -0.14169E+01  8424   0.212E+01 0.116E-01
CGA:   4    -0.669664024813E+03   -0.35234E+00   -0.35245E+00  8424   0.515E+00 0.154E-02
CGA:   5    -0.669751111459E+03   -0.87087E-01   -0.87447E-01  8424   0.105E+00 0.872E-03
CGA:   6    -0.669772105956E+03   -0.20994E-01   -0.21045E-01  8424   0.239E-01 0.215E-03
CGA:   7    -0.669777227733E+03   -0.51218E-02   -0.52170E-02  8424   0.692E-02 0.448E-03
CGA:   8    -0.669778794629E+03   -0.15669E-02   -0.16520E-02  8424   0.194E-02 0.462E-03
CGA:   9    -0.669779236126E+03   -0.44150E-03   -0.49530E-03  8424   0.617E-03 0.317E-03
CGA:  10    -0.669779290151E+03   -0.54025E-04   -0.13095E-03  8424   0.281E-03 0.353E-03
CGA:  11    -0.669779285333E+03    0.48182E-05   -0.42165E-04  8424   0.161E-03 0.196E-03
CGA:  12    -0.669779265628E+03    0.19705E-04   -0.18272E-04  8424   0.131E-03 0.144E-03
CGA:  13    -0.669779244692E+03    0.20936E-04   -0.12189E-04  8424   0.115E-03 0.122E-03
CGA:  14    -0.669779224484E+03    0.20208E-04   -0.93047E-05  8424   0.105E-03 0.109E-03
CGA:  15    -0.669779205334E+03    0.19150E-04   -0.75328E-05  8424   0.970E-04 0.101E-03
CGA:  16    -0.669779187288E+03    0.18046E-04   -0.63164E-05  8424   0.913E-04 0.941E-04
CGA:  17    -0.669779170309E+03    0.16979E-04   -0.54222E-05  8424   0.868E-04 0.890E-04
CGA:  18    -0.669779154336E+03    0.15974E-04   -0.47335E-05  8424   0.831E-04 0.849E-04
CGA:  19    -0.669779139300E+03    0.15036E-04   -0.41849E-05  8424   0.800E-04 0.815E-04
CGA:  20    -0.669779125134E+03    0.14165E-04   -0.37367E-05  8424   0.773E-04 0.786E-04
CGA:  21    -0.669779111777E+03    0.13357E-04   -0.33632E-05  8424   0.750E-04 0.761E-04
CGA:  22    -0.669779099171E+03    0.12606E-04   -0.30472E-05  8424   0.731E-04 0.740E-04
CGA:  23    -0.669779087263E+03    0.11909E-04   -0.27766E-05  8424   0.713E-04 0.721E-04
CGA:  24    -0.669779076004E+03    0.11259E-04   -0.25420E-05  8424   0.698E-04 0.705E-04
CGA:  25    -0.669779065352E+03    0.10653E-04   -0.23365E-05  8424   0.684E-04 0.691E-04
CGA:  26    -0.669779055265E+03    0.10086E-04   -0.21553E-05  8424   0.672E-04 0.678E-04
CGA:  27    -0.669779045709E+03    0.95567E-05   -0.19944E-05  8424   0.661E-04 0.666E-04
