       N       E                     dE             d eps       ncg     rms          ort
DAV:   1     0.826481433281E+04    0.82648E+04   -0.24661E+05  8424   0.238E+03
DAV:   2     0.919069521468E+03   -0.73457E+04   -0.68943E+04  8424   0.656E+02
DAV:   3    -0.674696679681E+03   -0.15938E+04   -0.14014E+04  8424   0.282E+02
DAV:   4    -0.830383552498E+03   -0.15569E+03   -0.15298E+03  8424   0.857E+01
DAV:   5    -0.832880580656E+03   -0.24970E+01   -0.24859E+01  8424   0.122E+01
SDA:   6    -0.258779044393E+03    0.57410E+03   -0.24859E+01  8424   0.410E+04 0.000E+00
CGA:   7    -0.599111674938E+03   -0.34033E+03   -0.42054E+03  8424   0.487E+03 0.181E+03
CGA:   8    -0.631025460067E+03   -0.31914E+02   -0.24500E+02  8424   0.243E+03 0.240E+03
CGA:   9    -0.632734315618E+03   -0.17089E+01   -0.25808E+02  8424   0.409E+03-0.860E+02
CGA:  10    -0.648606635043E+03   -0.15872E+02   -0.55977E+01  8424   0.197E+03 0.127E+03
CGA:  11    -0.651879191259E+03   -0.32726E+01   -0.17184E+02  8424   0.180E+03-0.261E+02
CGA:  12    -0.647414007394E+03    0.44652E+01   -0.89715E+01  8424   0.154E+03-0.612E+02
CGA:  13    -0.653891412217E+03   -0.64774E+01   -0.52878E+01  8424   0.127E+03-0.479E+01
CGA:  14    -0.653219811294E+03    0.67160E+00   -0.78136E+01  8424   0.360E+03-0.334E+02
CGA:  15    -0.655917717205E+03   -0.26979E+01   -0.73800E+01  8424   0.135E+03-0.216E+03
CGA:  16    -0.656484411759E+03   -0.56669E+00   -0.73318E+01  8424   0.147E+03-0.467E+02
CGA:  17    -0.663620934044E+03   -0.71365E+01   -0.50388E+01  8424   0.781E+02-0.879E+02
CGA:  18    -0.663248445423E+03    0.37249E+00   -0.39443E+01  8424   0.110E+03-0.460E+02
CGA:  19    -0.663048655585E+03    0.19979E+00   -0.43757E+01  8424   0.143E+03-0.121E+03
CGA:  20    -0.661119331247E+03    0.19293E+01   -0.73403E+01  8424   0.115E+03-0.733E+02
CGA:  21    -0.663151866373E+03   -0.20325E+01   -0.50807E+01  8424   0.123E+03-0.136E+03
CGA:  22    -0.663109314872E+03    0.42552E-01   -0.57479E+01  8424   0.114E+03-0.103E+03
CGA:  23    -0.664376388718E+03   -0.12671E+01   -0.48686E+01  8424   0.106E+03-0.116E+03
CGA:  24    -0.664934599476E+03   -0.55821E+00   -0.45946E+01  8424   0.991E+02-0.101E+03
CGA:  25    -0.666007631522E+03   -0.10730E+01   -0.39160E+01  8424   0.586E+02-0.719E+02
CGA:  26    -0.667063115910E+03   -0.10555E+01   -0.20550E+01  8424   0.398E+02-0.565E+02
CGA:  27    -0.667627714929E+03   -0.56460E+00   -0.12031E+01  8424   0.153E+02-0.216E+02
CGA:  28    -0.667948619627E+03   -0.32090E+00   -0.36404E+00  8424   0.236E+01-0.343E+01
CGA:  29    -0.668107370301E+03   -0.15875E+00   -0.15766E+00  8424   0.335E+01-0.500E-01
CGA:  30    -0.668422282385E+03   -0.31491E+00   -0.31405E+00  8424   0.261E+01 0.440E+00
CGA:  31    -0.668551161742E+03   -0.12888E+00   -0.15148E+00  8424   0.128E+01-0.112E+00
CGA:  32    -0.668645321383E+03   -0.94160E-01   -0.95511E-01  8424   0.701E+00 0.370E-01
CGA:  33    -0.668729301929E+03   -0.83981E-01   -0.79876E-01  8424   0.477E+00 0.135E+00
CGA:  34    -0.668784790132E+03   -0.55488E-01   -0.55623E-01  8424   0.501E+00-0.973E-02
CGA:  35    -0.668855917493E+03   -0.71127E-01   -0.79397E-01  8424   0.492E+00-0.170E+00
CGA:  36    -0.668882881031E+03   -0.26964E-01   -0.27739E-01  8424   0.276E+00 0.191E-01
CGA:  37    -0.668919863667E+03   -0.36983E-01   -0.34889E-01  8424   0.140E+00 0.479E-01
CGA:  38    -0.668955880833E+03   -0.36017E-01   -0.50180E-01  8424   0.546E+00-0.733E-01
CGA:  39    -0.668995384622E+03   -0.39504E-01   -0.40738E-01  8424   0.947E-01-0.255E-01
CGA:  40    -0.669048767590E+03   -0.53383E-01   -0.15244E-03  8424   0.459E+00-0.303E-01
CGA:  41    -0.669122044816E+03   -0.73277E-01   -0.74611E-01  8424   0.435E+00-0.520E-01
CGA:  42    -0.669191182457E+03   -0.69138E-01   -0.68893E-01  8424   0.300E+00-0.547E-01
CGA:  43    -0.669201284551E+03   -0.10102E-01   -0.15490E+00  8424   0.144E+01-0.400E+00
CGA:  44    -0.669368040574E+03   -0.16676E+00   -0.17173E+00  8424   0.189E+00-0.285E-01
CGA:  45    -0.669424934996E+03   -0.56894E-01   -0.57408E-01  8424   0.128E+00-0.444E-02
CGA:  46    -0.669468350488E+03   -0.43415E-01   -0.43867E-01  8424   0.489E-01-0.348E-02
CGA:  47    -0.669482842833E+03   -0.14492E-01   -0.14582E-01  8424   0.242E-01-0.929E-03
CGA:  48    -0.669489885471E+03   -0.70426E-02   -0.76737E-02  8424   0.220E-01-0.648E-02
CGA:  49    -0.669493347386E+03   -0.34619E-02   -0.10575E-01  8424   0.549E-01-0.170E-01
CGA:  50    -0.669502560884E+03   -0.92135E-02   -0.90900E-02  8424   0.156E-01-0.169E-02
CGA:  51    -0.669508000490E+03   -0.54396E-02   -0.62885E-02  8424   0.135E-01-0.501E-02
CGA:  52    -0.669509104970E+03   -0.11045E-02   -0.60198E-02  8424   0.394E-01-0.122E-01
CGA:  53    -0.669515530806E+03   -0.64258E-02   -0.64805E-02  8424   0.946E-02 0.615E-03
CGA:  54    -0.669518817813E+03   -0.32870E-02   -0.33987E-02  8424   0.505E-02-0.135E-02
CGA:  55    -0.669520282734E+03   -0.14649E-02   -0.17292E-02  8424   0.559E-02-0.214E-02
CGA:  56    -0.669522711189E+03   -0.24285E-02    0.13340E-02  8424   0.452E-02 0.216E-02
CGA:  57    -0.669502430336E+03    0.20281E-01   -0.11236E-01  8424   0.199E+00-0.215E-01
CGA:  58    -0.669536320317E+03   -0.33890E-01   -0.33293E-01  8424   0.144E-01 0.326E-02
CGA:  59    -0.669539720415E+03   -0.34001E-02   -0.32963E-02  8424   0.534E-02-0.405E-03
CGA:  60    -0.669541626647E+03   -0.19062E-02   -0.18789E-02  8424   0.119E-02-0.235E-03
CGA:  61    -0.669542822047E+03   -0.11954E-02    0.26808E-02  8424   0.120E-02 0.481E-03
CGA:  62    -0.669544613253E+03   -0.17912E-02    0.33805E-02  8424   0.942E-03 0.855E-03
CGA:  63    -0.669532870224E+03    0.11743E-01   -0.63300E-02  8424   0.113E+00-0.582E-02
CGA:  64    -0.669548938768E+03   -0.16069E-01   -0.16253E-01  8424   0.594E-02 0.400E-02
CGA:  65    -0.669550652205E+03   -0.17134E-02   -0.15745E-02  8424   0.168E-02-0.253E-03
CGA:  66    -0.669551765540E+03   -0.11133E-02   -0.93930E-03  8424   0.323E-02-0.813E-03
CGA:  67    -0.669476872742E+03    0.74893E-01   -0.40748E-01  8424   0.310E+00-0.202E-01
CGA:  68    -0.669555580333E+03   -0.78708E-01   -0.77388E-01  8424   0.836E-01 0.447E-02
CGA:  69    -0.669584695715E+03   -0.29115E-01   -0.28245E-01  8424   0.154E-01-0.925E-03
CGA:  70    -0.669589083899E+03   -0.43882E-02   -0.42047E-02  8424   0.360E-02-0.113E-04
CGA:  71    -0.669591188401E+03   -0.21045E-02   -0.15542E-02  8424   0.347E-02-0.670E-03
CGA:  72    -0.669592603766E+03   -0.14154E-02   -0.92878E-03  8424   0.165E-02-0.532E-03
CGA:  73    -0.669590251759E+03    0.23520E-02   -0.34458E-02  8424   0.404E-01-0.468E-02
CGA:  74    -0.669601252507E+03   -0.11001E-01   -0.10567E-01  8424   0.393E-02-0.411E-03
CGA:  75    -0.669603051023E+03   -0.17985E-02   -0.15309E-02  8424   0.260E-02-0.331E-03
CGA:  76    -0.669605450183E+03   -0.23992E-02   -0.17772E-02  8424   0.441E-02-0.149E-02
CGA:  77    -0.669606609714E+03   -0.11595E-02   -0.96003E-03  8424   0.119E-02-0.219E-03
CGA:  78    -0.669607828887E+03   -0.12192E-02   -0.13158E-02  8424   0.776E-02-0.158E-02
CGA:  79    -0.669609658808E+03   -0.18299E-02   -0.15298E-02  8424   0.188E-02-0.451E-03
CGA:  80    -0.669610715378E+03   -0.10566E-02   -0.75205E-03  8424   0.123E-02-0.488E-03
CGA:  81    -0.669612981403E+03   -0.22660E-02    0.21060E-02  8424   0.725E-02-0.112E-02
CGA:  82    -0.669614291139E+03   -0.13097E-02   -0.12810E-02  8424   0.129E-02 0.479E-04
CGA:  83    -0.669615556133E+03   -0.12650E-02   -0.97160E-03  8424   0.392E-02-0.126E-02
CGA:  84    -0.669616407063E+03   -0.85093E-03   -0.76879E-03  8424   0.865E-03-0.570E-04
CGA:  85    -0.669616473517E+03   -0.66454E-04   -0.11906E-02  8424   0.174E-01-0.244E-02
CGA:  86    -0.669619238406E+03   -0.27649E-02   -0.27701E-02  8424   0.210E-02 0.315E-03
CGA:  87    -0.669620474453E+03   -0.12360E-02   -0.85602E-03  8424   0.132E-02-0.749E-03
CGA:  88    -0.669565419593E+03    0.55055E-01   -0.29593E-01  8424   0.313E+00-0.126E-01
CGA:  89    -0.669624240461E+03   -0.58821E-01   -0.69096E-01  8424   0.659E-01-0.482E-01
CGA:  90    -0.669635730795E+03   -0.11490E-01   -0.11405E-01  8424   0.103E-01 0.227E-02
CGA:  91    -0.669638679811E+03   -0.29490E-02   -0.27185E-02  8424   0.135E-02-0.274E-03
CGA:  92    -0.669639415465E+03   -0.73565E-03   -0.35555E-03  8424   0.971E-03-0.358E-03
CGA:  93    -0.669640608326E+03   -0.11929E-02   -0.76388E-03  8424   0.660E-02-0.148E-02
CGA:  94    -0.669642302204E+03   -0.16939E-02   -0.14109E-02  8424   0.136E-02-0.363E-03
CGA:  95    -0.669642934339E+03   -0.63213E-03   -0.42988E-03  8424   0.875E-03-0.211E-03
CGA:  96    -0.669643337934E+03   -0.40360E-03   -0.11489E-02  8424   0.141E-01-0.244E-02
CGA:  97    -0.669646062540E+03   -0.27246E-02   -0.26679E-02  8424   0.266E-02 0.483E-03
CGA:  98    -0.669647497067E+03   -0.14345E-02   -0.10073E-02  8424   0.146E-02-0.517E-03
CGA:  99    -0.669648353148E+03   -0.85608E-03   -0.44986E-03  8424   0.621E-03-0.520E-03
CGA: 100    -0.669650785361E+03   -0.24322E-02    0.13184E-03  8424   0.161E-02-0.201E-04
CGA: 101    -0.669654382989E+03   -0.35976E-02    0.37927E-01  8424   0.265E-01-0.359E-02
CGA: 102    -0.669658571402E+03   -0.41884E-02   -0.38550E-02  8424   0.180E-02-0.149E-02
CGA: 103    -0.669659357915E+03   -0.78651E-03   -0.60441E-03  8424   0.658E-03-0.253E-03
CGA: 104    -0.669660084393E+03   -0.72648E-03   -0.38867E-03  8424   0.337E-02-0.963E-03
CGA: 105    -0.669660569748E+03   -0.48535E-03   -0.49959E-03  8424   0.398E-03 0.424E-04
CGA: 106    -0.669629145236E+03    0.31425E-01   -0.17405E-01  8424   0.155E+00-0.632E-02
CGA: 107    -0.669659649955E+03   -0.30505E-01   -0.28450E-01  8424   0.261E-01 0.128E-01
CGA: 108    -0.669667502383E+03   -0.78524E-02   -0.73387E-02  8424   0.536E-02-0.519E-03
CGA: 109    -0.669668784848E+03   -0.12825E-02   -0.11450E-02  8424   0.253E-03-0.540E-04
CGA: 110    -0.669627906530E+03    0.40878E-01   -0.22538E-01  8424   0.186E+00-0.509E-02
CGA: 111    -0.669668759463E+03   -0.40853E-01   -0.40265E-01  8424   0.327E-01 0.507E-02
CGA: 112    -0.669677843391E+03   -0.90839E-02   -0.86854E-02  8424   0.467E-02-0.740E-03
CGA: 113    -0.669678823624E+03   -0.98023E-03   -0.99067E-03  8424   0.883E-03-0.365E-05
CGA: 114    -0.669679341032E+03   -0.51741E-03   -0.30330E-03  8424   0.367E-03-0.105E-03
CGA: 115    -0.669679701336E+03   -0.36030E-03   -0.12140E-03  8424   0.271E-03-0.125E-03
CGA: 116    -0.669682406956E+03   -0.27056E-02    0.86990E-04  8424   0.247E-02-0.229E-03
CGA: 117    -0.669683030027E+03   -0.62307E-03   -0.53362E-03  8424   0.683E-03-0.218E-04
CGA: 118    -0.669683572952E+03   -0.54292E-03   -0.28320E-03  8424   0.348E-03-0.149E-03
CGA: 119    -0.669684032754E+03   -0.45980E-03   -0.15490E-03  8424   0.762E-03-0.203E-03
CGA: 120    -0.669684332792E+03   -0.30004E-03   -0.14086E-03  8424   0.215E-03-0.924E-04
CGA: 121    -0.669684547536E+03   -0.21474E-03   -0.41856E-03  8424   0.688E-02-0.684E-03
CGA: 122    -0.669685933185E+03   -0.13856E-02   -0.11600E-02  8424   0.138E-02-0.284E-03
CGA: 123    -0.669686419583E+03   -0.48640E-03   -0.38752E-03  8424   0.259E-03-0.629E-04
CGA: 124    -0.669686839986E+03   -0.42040E-03   -0.15011E-03  8424   0.708E-03-0.236E-03
CGA: 125    -0.669687047759E+03   -0.20777E-03   -0.14260E-03  8424   0.123E-03-0.300E-04
CGA: 126    -0.669687917873E+03   -0.87011E-03    0.75185E-04  8424   0.276E-02-0.237E-03
CGA: 127    -0.669688258334E+03   -0.34046E-03   -0.36801E-03  8424   0.279E-03 0.575E-04
CGA: 128    -0.669688722400E+03   -0.46407E-03   -0.23669E-03  8424   0.790E-03-0.317E-03
CGA: 129    -0.669689022113E+03   -0.29971E-03   -0.22539E-03  8424   0.237E-03-0.604E-04
CGA: 130    -0.669689491647E+03   -0.46953E-03   -0.22182E-03  8424   0.339E-02-0.562E-03
CGA: 131    -0.669689874001E+03   -0.38235E-03   -0.45313E-03  8424   0.332E-03 0.979E-04
CGA: 132    -0.669690274876E+03   -0.40088E-03   -0.21894E-03  8424   0.460E-03-0.251E-03
CGA: 133    -0.669690609844E+03   -0.33497E-03   -0.18083E-03  8424   0.334E-03-0.165E-03
CGA: 134    -0.669690521072E+03    0.88771E-04   -0.36846E-03  8424   0.104E-01-0.108E-02
CGA: 135    -0.669692224496E+03   -0.17034E-02   -0.15986E-02  8424   0.114E-02 0.206E-04
CGA: 136    -0.669692795405E+03   -0.57091E-03   -0.38322E-03  8424   0.353E-03-0.207E-03
CGA: 137    -0.669692927853E+03   -0.13245E-03   -0.73571E-04  8424   0.204E-03-0.625E-04
CGA: 138    -0.669694116082E+03   -0.11882E-02    0.47515E-04  8424   0.879E-03-0.619E-04
CGA: 139    -0.669699777454E+03   -0.56614E-02    0.11849E-03  8424   0.354E-02-0.181E-03
CGA: 140    -0.669731202850E+03   -0.31425E-01    0.42638E-03  8424   0.893E-02 0.508E-03
CGA: 141    -0.669820704186E+03   -0.89501E-01    0.21184E-02  8424   0.850E-01-0.341E-01
CGA: 142    -0.669833193387E+03   -0.12489E-01   -0.14158E-01  8424   0.876E-02 0.961E-03
CGA: 143    -0.669833948745E+03   -0.75536E-03   -0.21429E-02  8424   0.356E-02 0.128E-02
CGA: 144    -0.669827511901E+03    0.64368E-02   -0.72537E-03  8424   0.271E-01 0.364E-02
CGA: 145    -0.669682927245E+03    0.14458E+00   -0.37618E-02  8424   0.723E+00 0.414E-01
CGA: 146    -0.668653024336E+03    0.10299E+01   -0.18738E+00  8424   0.613E+01 0.531E+00
CGA: 147    -0.667747625589E+03    0.90540E+00   -0.23896E+01  8424   0.620E+01 0.117E+01
CGA: 148    -0.665071213574E+03    0.26764E+01   -0.21282E+01  8424   0.110E+02 0.246E+01
CGA: 149    -0.664126534800E+03    0.94468E+00   -0.43628E+01  8424   0.116E+02 0.495E+01
CGA: 150    -0.663273544601E+03    0.85299E+00   -0.44660E+01  8424   0.123E+02 0.615E+01
CGA: 151    -0.665318430164E+03   -0.20449E+01   -0.52430E+01  8424   0.719E+01 0.502E+01
CGA: 152    -0.668267607331E+03   -0.29492E+01   -0.46281E+01  8424   0.188E+01 0.166E+01
CGA: 153    -0.669138295253E+03   -0.87069E+00   -0.10937E+01  8424   0.778E+00 0.388E+00
CGA: 154    -0.669300156914E+03   -0.16186E+00   -0.27184E+00  8424   0.684E+00 0.238E+00
CGA: 155    -0.669336444172E+03   -0.36287E-01   -0.25449E+00  8424   0.491E+00 0.325E+00
CGA: 156    -0.669390531525E+03   -0.54087E-01   -0.15816E+00  8424   0.613E+00 0.213E+00
CGA: 157    -0.669109237202E+03    0.28129E+00   -0.14646E+00  8424   0.811E+00 0.585E+00
CGA: 158    -0.669415369424E+03   -0.30613E+00   -0.29127E+00  8424   0.891E+00-0.309E-02
CGA: 159    -0.669726754119E+03   -0.31138E+00   -0.30747E+00  8424   0.176E+00-0.146E-01
CGA: 160    -0.669765163971E+03   -0.38410E-01   -0.41214E-01  8424   0.750E-01-0.253E-02
CGA: 161    -0.669791118142E+03   -0.25954E-01   -0.27679E-01  8424   0.304E-01 0.104E-02
CGA: 162    -0.669799278325E+03   -0.81602E-02   -0.85704E-02  8424   0.182E-01-0.432E-04
CGA: 163    -0.669805231175E+03   -0.59528E-02   -0.62695E-02  8424   0.608E-02 0.228E-02
CGA: 164    -0.669806719366E+03   -0.14882E-02   -0.18103E-02  8424   0.418E-02 0.946E-03
CGA: 165    -0.669807269794E+03   -0.55043E-03   -0.12480E-02  8424   0.167E-02 0.181E-02
CGA: 166    -0.669807262979E+03    0.68151E-05   -0.45705E-03  8424   0.105E-02 0.153E-02
CGA: 167    -0.669807369529E+03   -0.10655E-03   -0.28509E-03  8424   0.717E-03 0.668E-03
CGA: 168    -0.669807269179E+03    0.10035E-03   -0.11101E-03  8424   0.575E-03 0.584E-03
CGA: 169    -0.669807199525E+03    0.69654E-04   -0.10399E-03  8424   0.513E-03 0.548E-03
CGA: 170    -0.669807110791E+03    0.88734E-04   -0.76775E-04  8424   0.471E-03 0.498E-03
CGA: 171    -0.669807025642E+03    0.85148E-04   -0.65273E-04  8424   0.437E-03 0.461E-03
CGA: 172    -0.669806941043E+03    0.84600E-04   -0.54423E-04  8424   0.410E-03 0.429E-03
CGA: 173    -0.669806859196E+03    0.81847E-04   -0.46495E-04  8424   0.386E-03 0.402E-03
CGA: 174    -0.669806780519E+03    0.78677E-04   -0.40095E-04  8424   0.366E-03 0.380E-03
CGA: 175    -0.669806705299E+03    0.75220E-04   -0.34919E-04  8424   0.349E-03 0.361E-03
CGA: 176    -0.669806633633E+03    0.71666E-04   -0.30669E-04  8424   0.334E-03 0.344E-03
CGA: 177    -0.669806565503E+03    0.68130E-04   -0.27147E-04  8424   0.320E-03 0.329E-03
CGA: 178    -0.669806500824E+03    0.64679E-04   -0.24196E-04  8424   0.309E-03 0.317E-03
CGA: 179    -0.669806439420E+03    0.61404E-04   -0.21711E-04  8424   0.298E-03 0.306E-03
CGA: 180    -0.669806381159E+03    0.58260E-04   -0.19594E-04  8424   0.290E-03 0.296E-03
CGA: 181    -0.669806325889E+03    0.55270E-04   -0.17786E-04  8424   0.282E-03 0.287E-03
CGA: 182    -0.669806273448E+03    0.52441E-04   -0.16232E-04  8424   0.275E-03 0.280E-03
CGA: 183    -0.669806223678E+03    0.49771E-04   -0.14886E-04  8424   0.269E-03 0.273E-03
CGA: 184    -0.669806176425E+03    0.47253E-04   -0.13710E-04  8424   0.263E-03 0.267E-03
CGA: 185    -0.669806131544E+03    0.44881E-04   -0.12676E-04  8424   0.259E-03 0.262E-03
CGA: 186    -0.669806088882E+03    0.42662E-04   -0.11760E-04  8424   0.254E-03 0.258E-03
CGA: 187    -0.669806048315E+03    0.40568E-04   -0.10939E-04  8424   0.251E-03 0.253E-03
CGA: 188    -0.669806009727E+03    0.38588E-04   -0.10198E-04  8424   0.247E-03 0.250E-03
CGA: 189    -0.669805973010E+03    0.36717E-04   -0.95277E-05  8424   0.244E-03 0.246E-03
CGA: 190    -0.669805938056E+03    0.34954E-04   -0.89251E-05  8424   0.241E-03 0.243E-03
CGA: 191    -0.669805904758E+03    0.33298E-04   -0.83867E-05  8424   0.239E-03 0.241E-03
CGA: 192    -0.669805873025E+03    0.31733E-04   -0.78950E-05  8424   0.237E-03 0.238E-03
CGA: 193    -0.669805842772E+03    0.30252E-04   -0.74409E-05  8424   0.235E-03 0.236E-03
CGA: 194    -0.669805813924E+03    0.28848E-04   -0.70206E-05  8424   0.233E-03 0.234E-03
CGA: 195    -0.669805786408E+03    0.27516E-04   -0.66300E-05  8424   0.231E-03 0.233E-03
CGA: 196    -0.669805760156E+03    0.26251E-04   -0.62657E-05  8424   0.230E-03 0.231E-03
CGA: 197    -0.669805735108E+03    0.25049E-04   -0.59251E-05  8424   0.228E-03 0.229E-03
CGA: 198    -0.669805711203E+03    0.23905E-04   -0.56062E-05  8424   0.227E-03 0.228E-03
CGA: 199    -0.669805688386E+03    0.22817E-04   -0.53072E-05  8424   0.226E-03 0.226E-03
CGA: 200    -0.669805666605E+03    0.21781E-04   -0.50266E-05  8424   0.224E-03 0.225E-03
   1 F= -.66980567E+03 E0= -.66980567E+03  d E =-.669806E+03  mag=     2.0000
       N       E                     dE             d eps       ncg     rms          ort
SDA:   1    -0.669804807082E+03    0.88130E-03    0.00000E+00  8424   0.576E-03 0.000E+00
CGA:   2    -0.669804794045E+03    0.13037E-04   -0.27017E-04  8424   0.416E-03 0.482E-03
CGA:   3    -0.669804774719E+03    0.19327E-04   -0.15060E-04  8424   0.356E-03 0.384E-03
CGA:   4    -0.669804755090E+03    0.19629E-04   -0.10957E-04  8424   0.322E-03 0.338E-03
CGA:   5    -0.669804736109E+03    0.18981E-04   -0.87574E-05  8424   0.299E-03 0.310E-03
CGA:   6    -0.669804717998E+03    0.18111E-04   -0.73449E-05  8424   0.282E-03 0.290E-03
CGA:   7    -0.669804700795E+03    0.17203E-04   -0.63428E-05  8424   0.270E-03 0.275E-03
CGA:   8    -0.669804684478E+03    0.16317E-04   -0.55854E-05  8424   0.260E-03 0.264E-03
CGA:   9    -0.669804669005E+03    0.15473E-04   -0.49876E-05  8424   0.251E-03 0.255E-03
CGA:  10    -0.669804654330E+03    0.14675E-04   -0.45005E-05  8424   0.244E-03 0.247E-03
CGA:  11    -0.669804640405E+03    0.13925E-04   -0.40942E-05  8424   0.238E-03 0.241E-03
CGA:  12    -0.669804627186E+03    0.13219E-04   -0.37486E-05  8424   0.233E-03 0.235E-03
CGA:  13    -0.669804614630E+03    0.12556E-04   -0.34504E-05  8424   0.229E-03 0.230E-03
CGA:  14    -0.669804602698E+03    0.11932E-04   -0.31898E-05  8424   0.225E-03 0.226E-03
CGA:  15    -0.669804591353E+03    0.11345E-04   -0.29597E-05  8424   0.221E-03 0.223E-03
CGA:  16    -0.669804580562E+03    0.10792E-04   -0.27548E-05  8424   0.218E-03 0.219E-03
CGA:  17    -0.669804570292E+03    0.10269E-04   -0.25710E-05  8424   0.215E-03 0.216E-03
CGA:  18    -0.669804560516E+03    0.97766E-05   -0.24051E-05  8424   0.213E-03 0.214E-03
   2 F= -.66980456E+03 E0= -.66980456E+03  d E =0.110609E-02  mag=     2.0000
       N       E                     dE             d eps       ncg     rms          ort
SDA:   1    -0.669803730010E+03    0.84028E-03    0.00000E+00  8424   0.728E-02 0.000E+00
CGA:   2    -0.669804948406E+03   -0.12184E-02   -0.10103E-02  8424   0.244E-02 0.273E-02
CGA:   3    -0.669805315497E+03   -0.36709E-03   -0.30938E-03  8424   0.137E-02 0.224E-02
CGA:   4    -0.669805402875E+03   -0.87378E-04   -0.89955E-04  8424   0.100E-02 0.115E-02
CGA:   5    -0.669805440704E+03   -0.37828E-04   -0.52072E-04  8424   0.836E-03 0.909E-03
CGA:   6    -0.669805459827E+03   -0.19124E-04   -0.36785E-04  8424   0.728E-03 0.775E-03
CGA:   7    -0.669805469099E+03   -0.92717E-05   -0.27947E-04  8424   0.651E-03 0.685E-03
CGA:   8    -0.669805472558E+03   -0.34585E-05   -0.22147E-04  8424   0.592E-03 0.618E-03
CGA:   9    -0.669805472387E+03    0.17095E-06   -0.18067E-04  8424   0.545E-03 0.566E-03
CGA:  10    -0.669805469881E+03    0.25057E-05   -0.15060E-04  8424   0.507E-03 0.524E-03
CGA:  11    -0.669805465854E+03    0.40268E-05   -0.12769E-04  8424   0.476E-03 0.490E-03
CGA:  12    -0.669805460838E+03    0.50160E-05   -0.10976E-04  8424   0.449E-03 0.461E-03
   3 F= -.66980546E+03 E0= -.66980546E+03  d E =-.900323E-03  mag=     2.0000
       N       E                     dE             d eps       ncg     rms          ort
SDA:   1    -0.669791901469E+03    0.13564E-01    0.00000E+00  8424   0.976E-01 0.000E+00
CGA:   2    -0.669812851835E+03   -0.20950E-01   -0.20295E-01  8424   0.380E-01 0.422E-02
CGA:   3    -0.669820997237E+03   -0.81454E-02   -0.76405E-02  8424   0.113E-01 0.384E-02
CGA:   4    -0.669822994599E+03   -0.19974E-02   -0.17658E-02  8424   0.269E-02 0.313E-02
CGA:   5    -0.669823378425E+03   -0.38383E-03   -0.33537E-03  8424   0.104E-02 0.192E-02
CGA:   6    -0.669823433710E+03   -0.55285E-04   -0.64850E-04  8424   0.718E-03 0.849E-03
CGA:   7    -0.669823451335E+03   -0.17625E-04   -0.34140E-04  8424   0.595E-03 0.650E-03
CGA:   8    -0.669823457603E+03   -0.62680E-05   -0.23818E-04  8424   0.523E-03 0.555E-03
CGA:   9    -0.669823458577E+03   -0.97383E-06   -0.18310E-04  8424   0.473E-03 0.495E-03
CGA:  10    -0.669823456679E+03    0.18972E-05   -0.14838E-04  8424   0.437E-03 0.452E-03
CGA:  11    -0.669823453102E+03    0.35775E-05   -0.12430E-04  8424   0.409E-03 0.421E-03
CGA:  12    -0.669823448508E+03    0.45942E-05   -0.10656E-04  8424   0.387E-03 0.396E-03
   4 F= -.66982345E+03 E0= -.66982345E+03  d E =-.179877E-01  mag=     2.0000
       N       E                     dE             d eps       ncg     rms          ort
SDA:   1    -0.669818000800E+03    0.54523E-02    0.00000E+00  8424   0.128E-01 0.000E+00
CGA:   2    -0.669820192174E+03   -0.21914E-02   -0.19996E-02  8424   0.352E-02 0.200E-02
CGA:   3    -0.669820781877E+03   -0.58970E-03   -0.47864E-03  8424   0.141E-02 0.214E-02
CGA:   4    -0.669820907448E+03   -0.12557E-03   -0.11282E-03  8424   0.879E-03 0.107E-02
CGA:   5    -0.669820954376E+03   -0.46928E-04   -0.53235E-04  8424   0.700E-03 0.778E-03
CGA:   6    -0.669820977891E+03   -0.23515E-04   -0.35138E-04  8424   0.596E-03 0.642E-03
CGA:   7    -0.669820990107E+03   -0.12215E-04   -0.25698E-04  8424   0.525E-03 0.556E-03
CGA:   8    -0.669820995966E+03   -0.58598E-05   -0.19867E-04  8424   0.472E-03 0.495E-03
CGA:   9    -0.669820997967E+03   -0.20002E-05   -0.15929E-04  8424   0.432E-03 0.449E-03
CGA:  10    -0.669820997518E+03    0.44893E-06   -0.13112E-04  8424   0.399E-03 0.413E-03
CGA:  11    -0.669820995476E+03    0.20417E-05   -0.11012E-04  8424   0.373E-03 0.384E-03
   5 F= -.66982100E+03 E0= -.66982100E+03  d E =0.245303E-02  mag=     2.0000
       N       E                     dE             d eps       ncg     rms          ort
SDA:   1    -0.669771110338E+03    0.49887E-01    0.00000E+00  8424   0.178E+00 0.000E+00
CGA:   2    -0.669803895718E+03   -0.32785E-01   -0.32319E-01  8424   0.616E-01 0.376E-02
CGA:   3    -0.669817753279E+03   -0.13858E-01   -0.13347E-01  8424   0.223E-01 0.343E-02
CGA:   4    -0.669821701233E+03   -0.39480E-02   -0.37152E-02  8424   0.527E-02 0.270E-02
CGA:   5    -0.669822577631E+03   -0.87640E-03   -0.77359E-03  8424   0.116E-02 0.187E-02
CGA:   6    -0.669822705647E+03   -0.12802E-03   -0.12618E-03  8424   0.593E-03 0.997E-03
CGA:   7    -0.669822725349E+03   -0.19702E-04   -0.32200E-04  8424   0.447E-03 0.509E-03
CGA:   8    -0.669822730277E+03   -0.49272E-05   -0.19164E-04  8424   0.380E-03 0.410E-03
CGA:   9    -0.669822730105E+03    0.17191E-06   -0.13876E-04  8424   0.339E-03 0.357E-03
CGA:  10    -0.669822727550E+03    0.25546E-05   -0.10902E-04  8424   0.310E-03 0.322E-03
   6 F= -.66982273E+03 E0= -.66982273E+03  d E =-.173207E-02  mag=     2.0000
       N       E                     dE             d eps       ncg     rms          ort
SDA:   1    -0.669786565863E+03    0.36164E-01    0.00000E+00  8424   0.121E+00 0.000E+00
CGA:   2    -0.669816237031E+03   -0.29671E-01   -0.29494E-01  8424   0.556E-01 0.100E-02
CGA:   3    -0.669827114514E+03   -0.10877E-01   -0.10565E-01  8424   0.145E-01 0.283E-02
CGA:   4    -0.669829562960E+03   -0.24484E-02   -0.23311E-02  8424   0.324E-02 0.169E-02
CGA:   5    -0.669830072779E+03   -0.50982E-03   -0.46020E-03  8424   0.777E-03 0.124E-02
CGA:   6    -0.669830140718E+03   -0.67939E-04   -0.79246E-04  8424   0.436E-03 0.725E-03
CGA:   7    -0.669830149120E+03   -0.84024E-05   -0.22544E-04  8424   0.340E-03 0.383E-03
CGA:   8    -0.669830149530E+03   -0.41004E-06   -0.14384E-04  8424   0.292E-03 0.315E-03
CGA:   9    -0.669830146976E+03    0.25539E-05   -0.10690E-04  8424   0.262E-03 0.276E-03
   7 F= -.66983015E+03 E0= -.66983015E+03  d E =-.741943E-02  mag=     2.0000
       N       E                     dE             d eps       ncg     rms          ort
SDA:   1    -0.668094903443E+03    0.17352E+01    0.00000E+00  8424   0.544E+01 0.000E+00
CGA:   2    -0.669147253812E+03   -0.10524E+01   -0.10490E+01  8424   0.214E+01 0.293E-01
CGA:   3    -0.669624815436E+03   -0.47756E+00   -0.47821E+00  8424   0.803E+00-0.570E-02
CGA:   4    -0.669755591274E+03   -0.13078E+00   -0.13062E+00  8424   0.187E+00 0.209E-02
CGA:   5    -0.669786440498E+03   -0.30849E-01   -0.30698E-01  8424   0.361E-01 0.218E-02
CGA:   6    -0.669793750671E+03   -0.73102E-02   -0.72966E-02  8424   0.871E-02 0.124E-03
CGA:   7    -0.669795503335E+03   -0.17527E-02   -0.16406E-02  8424   0.222E-02 0.134E-02
CGA:   8    -0.669796020728E+03   -0.51739E-03   -0.46072E-03  8424   0.667E-03 0.789E-03
CGA:   9    -0.669796162036E+03   -0.14131E-03   -0.12743E-03  8424   0.323E-03 0.478E-03
CGA:  10    -0.669796190719E+03   -0.28683E-04   -0.32219E-04  8424   0.229E-03 0.263E-03
CGA:  11    -0.669796203426E+03   -0.12707E-04   -0.19026E-04  8424   0.199E-03 0.212E-03
CGA:  12    -0.669796210833E+03   -0.74071E-05   -0.14594E-04  8424   0.182E-03 0.189E-03
CGA:  13    -0.669796215560E+03   -0.47269E-05   -0.12167E-04  8424   0.170E-03 0.175E-03
CGA:  14    -0.669796218652E+03   -0.30920E-05   -0.10552E-04  8424   0.161E-03 0.165E-03
   8 F= -.66979622E+03 E0= -.66979622E+03  d E =0.339283E-01  mag=     2.0000
       N       E                     dE             d eps       ncg     rms          ort
SDA:   1    -0.666280076945E+03    0.35161E+01    0.00000E+00  8424   0.102E+02 0.000E+00
CGA:   2    -0.668578815024E+03   -0.22987E+01   -0.22952E+01  8424   0.463E+01 0.288E-01
CGA:   3    -0.669507314940E+03   -0.92850E+00   -0.92909E+00  8424   0.136E+01-0.716E-02
CGA:   4    -0.669731709503E+03   -0.22439E+00   -0.22424E+00  8424   0.339E+00 0.256E-02
CGA:   5    -0.669789331671E+03   -0.57622E-01   -0.57544E-01  8424   0.678E-01 0.140E-02
CGA:   6    -0.669802787401E+03   -0.13456E-01   -0.13495E-01  8424   0.164E-01-0.506E-03
CGA:   7    -0.669806332329E+03   -0.35449E-02   -0.34456E-02  8424   0.475E-02 0.111E-02
CGA:   8    -0.669807535043E+03   -0.12027E-02   -0.11261E-02  8424   0.144E-02 0.804E-03
CGA:   9    -0.669807919294E+03   -0.38425E-03   -0.34218E-03  8424   0.547E-03 0.584E-03
CGA:  10    -0.669808033987E+03   -0.11469E-03   -0.11065E-03  8424   0.324E-03 0.474E-03
CGA:  11    -0.669808072982E+03   -0.38994E-04   -0.41237E-04  8424   0.228E-03 0.261E-03
CGA:  12    -0.669808091258E+03   -0.18276E-04   -0.24316E-04  8424   0.197E-03 0.211E-03
CGA:  13    -0.669808102332E+03   -0.11074E-04   -0.18537E-04  8424   0.179E-03 0.187E-03
CGA:  14    -0.669808109733E+03   -0.74004E-05   -0.15378E-04  8424   0.167E-03 0.173E-03
CGA:  15    -0.669808114899E+03   -0.51669E-05   -0.13302E-04  8424   0.158E-03 0.162E-03
CGA:  16    -0.669808118572E+03   -0.36728E-05   -0.11797E-04  8424   0.151E-03 0.154E-03
CGA:  17    -0.669808121184E+03   -0.26115E-05   -0.10638E-04  8424   0.146E-03 0.148E-03
   9 F= -.66980812E+03 E0= -.66980812E+03  d E =-.119025E-01  mag=     2.0000
       N       E                     dE             d eps       ncg     rms          ort
SDA:   1    -0.668490281827E+03    0.13178E+01    0.00000E+00  8424   0.413E+01 0.000E+00
CGA:   2    -0.669329721128E+03   -0.83944E+00   -0.83859E+00  8424   0.177E+01 0.930E-02
CGA:   3    -0.669716216975E+03   -0.38650E+00   -0.38664E+00  8424   0.600E+00-0.200E-02
CGA:   4    -0.669812618693E+03   -0.96402E-01   -0.96385E-01  8424   0.138E+00 0.390E-03
CGA:   5    -0.669835552567E+03   -0.22934E-01   -0.22895E-01  8424   0.263E-01 0.104E-02
CGA:   6    -0.669840913371E+03   -0.53608E-02   -0.53399E-02  8424   0.630E-02 0.293E-03
CGA:   7    -0.669842250951E+03   -0.13376E-02   -0.12976E-02  8424   0.170E-02 0.578E-03
CGA:   8    -0.669842634229E+03   -0.38328E-03   -0.35607E-03  8424   0.504E-03 0.509E-03
CGA:   9    -0.669842735689E+03   -0.10146E-03   -0.98307E-04  8424   0.244E-03 0.342E-03
CGA:  10    -0.669842759517E+03   -0.23828E-04   -0.28513E-04  8424   0.167E-03 0.192E-03
CGA:  11    -0.669842768059E+03   -0.85421E-05   -0.15719E-04  8424   0.146E-03 0.155E-03
CGA:  12    -0.669842772694E+03   -0.46350E-05   -0.12183E-04  8424   0.133E-03 0.139E-03
CGA:  13    -0.669842775380E+03   -0.26858E-05   -0.10221E-04  8424   0.125E-03 0.128E-03
  10 F= -.66984278E+03 E0= -.66984278E+03  d E =-.346542E-01  mag=     2.0000
       N       E                     dE             d eps       ncg     rms          ort
SDA:   1    -0.669279113577E+03    0.56366E+00    0.00000E+00  8424   0.165E+01 0.000E+00
CGA:   2    -0.669662077960E+03   -0.38296E+00   -0.38281E+00  8424   0.754E+00 0.134E-02
CGA:   3    -0.669810011299E+03   -0.14793E+00   -0.14796E+00  8424   0.214E+00-0.585E-03
CGA:   4    -0.669845516605E+03   -0.35505E-01   -0.35492E-01  8424   0.542E-01 0.419E-03
CGA:   5    -0.669854645176E+03   -0.91286E-02   -0.91093E-02  8424   0.104E-01 0.658E-03
CGA:   6    -0.669856710739E+03   -0.20656E-02   -0.20432E-02  8424   0.243E-02 0.419E-03
CGA:   7    -0.669857249439E+03   -0.53870E-03   -0.51536E-03  8424   0.746E-03 0.383E-03
CGA:   8    -0.669857417764E+03   -0.16833E-03   -0.15668E-03  8424   0.282E-03 0.328E-03
CGA:   9    -0.669857469146E+03   -0.51382E-04   -0.54584E-04  8424   0.162E-03 0.242E-03
CGA:  10    -0.669857483909E+03   -0.14763E-04   -0.18884E-04  8424   0.119E-03 0.133E-03
CGA:  11    -0.669857489673E+03   -0.57641E-05   -0.11361E-04  8424   0.106E-03 0.112E-03
  11 F= -.66985749E+03 E0= -.66985749E+03  d E =-.147143E-01  mag=     2.0000
       N       E                     dE             d eps       ncg     rms          ort
SDA:   1    -0.669732297779E+03    0.12519E+00    0.00000E+00  8424   0.367E+00 0.000E+00
CGA:   2    -0.669818411332E+03   -0.86114E-01   -0.86051E-01  8424   0.163E+00 0.613E-03
CGA:   3    -0.669849666593E+03   -0.31255E-01   -0.31248E-01  8424   0.453E-01 0.133E-03
CGA:   4    -0.669857236511E+03   -0.75699E-02   -0.75633E-02  8424   0.119E-01 0.330E-03
CGA:   5    -0.669859258471E+03   -0.20220E-02   -0.20160E-02  8424   0.235E-02 0.297E-03
CGA:   6    -0.669859710972E+03   -0.45250E-03   -0.44404E-03  8424   0.565E-03 0.238E-03
CGA:   7    -0.669859823714E+03   -0.11274E-03   -0.10792E-03  8424   0.213E-03 0.214E-03
CGA:   8    -0.669859863985E+03   -0.40271E-04   -0.41874E-04  8424   0.125E-03 0.167E-03
CGA:   9    -0.669859880488E+03   -0.16504E-04   -0.17583E-04  8424   0.872E-04 0.948E-04
CGA:  10    -0.669859887497E+03   -0.70085E-05   -0.10004E-04  8424   0.790E-04 0.821E-04
  12 F= -.66985989E+03 E0= -.66985989E+03  d E =-.239782E-02  mag=     2.0000
       N       E                     dE             d eps       ncg     rms          ort
SDA:   1    -0.668909700806E+03    0.95018E+00    0.00000E+00  8424   0.251E+01 0.000E+00
CGA:   2    -0.669550415975E+03   -0.64072E+00   -0.64065E+00  8424   0.121E+01 0.440E-03
CGA:   3    -0.669780618362E+03   -0.23020E+00   -0.23016E+00  8424   0.302E+00 0.108E-02
CGA:   4    -0.669830368957E+03   -0.49751E-01   -0.49750E-01  8424   0.753E-01 0.164E-04
CGA:   5    -0.669843293330E+03   -0.12924E-01   -0.12924E-01  8424   0.156E-01-0.970E-05
CGA:   6    -0.669846434862E+03   -0.31415E-02   -0.31324E-02  8424   0.380E-02 0.200E-03
CGA:   7    -0.669847334293E+03   -0.89943E-03   -0.89920E-03  8424   0.129E-02 0.159E-05
CGA:   8    -0.669847701029E+03   -0.36674E-03   -0.38316E-03  8424   0.638E-03-0.123E-03
CGA:   9    -0.669847894171E+03   -0.19314E-03   -0.22218E-03  8424   0.492E-03-0.137E-03
CGA:  10    -0.669847549344E+03    0.34483E-03   -0.21534E-03  8424   0.366E-02-0.829E-03
CGA:  11    -0.669848238448E+03   -0.68910E-03   -0.69935E-03  8424   0.646E-03 0.742E-04
CGA:  12    -0.669848520917E+03   -0.28247E-03   -0.31511E-03  8424   0.577E-03-0.208E-03
CGA:  13    -0.669848669099E+03   -0.14818E-03   -0.15347E-03  8424   0.468E-03-0.863E-04
CGA:  14    -0.669848805149E+03   -0.13605E-03   -0.23773E-03  8424   0.110E-02-0.393E-03
CGA:  15    -0.669849012800E+03   -0.20765E-03   -0.20087E-03  8424   0.322E-03-0.418E-04
CGA:  16    -0.669849135572E+03   -0.12277E-03   -0.14153E-03  8424   0.481E-03-0.157E-03
CGA:  17    -0.669849308676E+03   -0.17310E-03    0.14887E-02  8424   0.354E-03-0.258E-04
CGA:  18    -0.669846500760E+03    0.28079E-02   -0.15126E-02  8424   0.180E-01-0.193E-02
CGA:  19    -0.669849730638E+03   -0.32299E-02   -0.31919E-02  8424   0.363E-02-0.837E-04
CGA:  20    -0.669850491801E+03   -0.76116E-03   -0.74109E-03  8424   0.518E-03-0.504E-04
CGA:  21    -0.669850809010E+03   -0.31721E-03   -0.32252E-03  8424   0.604E-03-0.110E-03
CGA:  22    -0.669851014235E+03   -0.20523E-03   -0.14940E-03  8424   0.442E-03-0.208E-03
CGA:  23    -0.669851177144E+03   -0.16291E-03   -0.13895E-03  8424   0.371E-03-0.263E-03
CGA:  24    -0.669851304548E+03   -0.12740E-03   -0.10942E-03  8424   0.311E-03-0.664E-04
CGA:  25    -0.669851442011E+03   -0.13746E-03   -0.12768E-03  8424   0.535E-03-0.184E-03
CGA:  26    -0.669851569903E+03   -0.12789E-03   -0.10207E-03  8424   0.150E-03-0.720E-04
CGA:  27    -0.669851634844E+03   -0.64941E-04   -0.50710E-04  8424   0.217E-03-0.101E-03
CGA:  28    -0.669851698749E+03   -0.63905E-04   -0.44472E-04  8424   0.103E-03-0.608E-04
CGA:  29    -0.669851792441E+03   -0.93692E-04    0.76616E-04  8424   0.189E-03-0.486E-04
CGA:  30    -0.669852123088E+03   -0.33065E-03    0.11198E-04  8424   0.123E-03 0.663E-04
CGA:  31    -0.669852413505E+03   -0.29042E-03    0.58697E-04  8424   0.230E-03-0.360E-04
CGA:  32    -0.669852869995E+03   -0.45649E-03    0.23476E-04  8424   0.771E-03-0.197E-03
CGA:  33    -0.669853077713E+03   -0.20772E-03   -0.18496E-03  8424   0.251E-03-0.846E-04
CGA:  34    -0.669853134129E+03   -0.56417E-04   -0.43004E-04  8424   0.365E-04-0.442E-04
CGA:  35    -0.669853219292E+03   -0.85163E-04    0.37204E-05  8424   0.226E-04 0.879E-05
CGA:  36    -0.669853328913E+03   -0.10962E-03    0.22111E-05  8424   0.249E-04 0.175E-04
CGA:  37    -0.669853397602E+03   -0.68688E-04    0.31980E-05  8424   0.929E-04-0.152E-04
CGA:  38    -0.669853415262E+03   -0.17660E-04   -0.13962E-04  8424   0.204E-04-0.112E-04
CGA:  39    -0.669853492571E+03   -0.77309E-04    0.11423E-05  8424   0.143E-04 0.125E-04
CGA:  40    -0.669853549704E+03   -0.57133E-04    0.10126E-05  8424   0.223E-04 0.699E-05
CGA:  41    -0.669853707803E+03   -0.15810E-03    0.18681E-05  8424   0.256E-04 0.223E-04
CGA:  42    -0.669853743084E+03   -0.35281E-04    0.12386E-04  8424   0.988E-04-0.218E-04
CGA:  43    -0.669853792018E+03   -0.48933E-04   -0.27873E-04  8424   0.201E-03-0.116E-03
CGA:  44    -0.669853811962E+03   -0.19945E-04   -0.22540E-04  8424   0.103E-04 0.772E-05
CGA:  45    -0.669853865280E+03   -0.53318E-04    0.50338E-06  8424   0.154E-04 0.908E-05
CGA:  46    -0.669853921525E+03   -0.56245E-04    0.10654E-05  8424   0.559E-04-0.601E-05
CGA:  47    -0.669854154985E+03   -0.23346E-03    0.10960E-05  8424   0.183E-03 0.191E-04
CGA:  48    -0.669854959808E+03   -0.80482E-03    0.19613E-04  8424   0.372E-03-0.327E-04
CGA:  49    -0.669856809758E+03   -0.18500E-02    0.11322E-04  8424   0.105E-03 0.698E-04
CGA:  50    -0.669857289339E+03   -0.47958E-03    0.80035E-05  8424   0.666E-03-0.239E-03
CGA:  51    -0.669857353209E+03   -0.63870E-04   -0.74177E-04  8424   0.755E-05 0.319E-04
CGA:  52    -0.669857355255E+03   -0.20452E-05   -0.16161E-05  8424   0.172E-05-0.198E-05
  13 F= -.66985736E+03 E0= -.66985736E+03  d E =0.253224E-02  mag=     2.0000
       N       E                     dE             d eps       ncg     rms          ort
SDA:   1    -0.669461829746E+03    0.39552E+00    0.00000E+00  8424   0.125E+01 0.000E+00
CGA:   2    -0.669719068377E+03   -0.25724E+00   -0.25737E+00  8424   0.524E+00 0.190E-03
CGA:   3    -0.669830771168E+03   -0.11170E+00   -0.11168E+00  8424   0.175E+00-0.110E-03
CGA:   4    -0.669859071087E+03   -0.28300E-01   -0.28282E-01  8424   0.420E-01-0.121E-03
CGA:   5    -0.669866208506E+03   -0.71374E-02   -0.71372E-02  8424   0.844E-02-0.882E-05
CGA:   6    -0.669867857188E+03   -0.16487E-02   -0.16571E-02  8424   0.195E-02 0.467E-04
CGA:   7    -0.669868272873E+03   -0.41569E-03   -0.42334E-03  8424   0.562E-03 0.519E-04
CGA:   8    -0.669868399107E+03   -0.12623E-03   -0.13153E-03  8424   0.152E-03 0.414E-04
CGA:   9    -0.669868424062E+03   -0.24956E-04   -0.32278E-04  8424   0.454E-04 0.484E-04
CGA:  10    -0.669868425013E+03   -0.95103E-06   -0.81566E-05  8424   0.232E-04 0.350E-04
  14 F= -.66986843E+03 E0= -.66986843E+03  d E =-.110698E-01  mag=     2.0000
       N       E                     dE             d eps       ncg     rms          ort
SDA:   1    -0.669694133762E+03    0.17429E+00    0.00000E+00  8424   0.516E+00 0.000E+00
CGA:   2    -0.669810000173E+03   -0.11587E+00   -0.11589E+00  8424   0.241E+00 0.135E-03
CGA:   3    -0.669859030437E+03   -0.49030E-01   -0.49026E-01  8424   0.696E-01-0.815E-04
CGA:   4    -0.669870356052E+03   -0.11326E-01   -0.11317E-01  8424   0.167E-01-0.714E-04
CGA:   5    -0.669873190523E+03   -0.28345E-02   -0.28374E-02  8424   0.330E-02 0.193E-04
CGA:   6    -0.669873841859E+03   -0.65134E-03   -0.65665E-03  8424   0.782E-03 0.543E-04
CGA:   7    -0.669874006831E+03   -0.16497E-03   -0.16930E-03  8424   0.224E-03 0.553E-04
CGA:   8    -0.669874048416E+03   -0.41585E-04   -0.47136E-04  8424   0.663E-04 0.613E-04
CGA:   9    -0.669874055050E+03   -0.66334E-05   -0.12609E-04  8424   0.316E-04 0.447E-04
  15 F= -.66987406E+03 E0= -.66987406E+03  d E =-.563004E-02  mag=     2.0000
       N       E                     dE             d eps       ncg     rms          ort
SDA:   1    -0.669441698792E+03    0.43235E+00    0.00000E+00  8424   0.118E+01 0.000E+00
CGA:   2    -0.669724249704E+03   -0.28255E+00   -0.28257E+00  8424   0.573E+00 0.417E-03
CGA:   3    -0.669835527617E+03   -0.11128E+00   -0.11127E+00  8424   0.152E+00-0.176E-03
CGA:   4    -0.669860277649E+03   -0.24750E-01   -0.24752E-01  8424   0.376E-01-0.108E-04
CGA:   5    -0.669866729958E+03   -0.64523E-02   -0.64547E-02  8424   0.775E-02 0.209E-04
CGA:   6    -0.669868258507E+03   -0.15285E-02   -0.15301E-02  8424   0.185E-02 0.258E-04
CGA:   7    -0.669868665180E+03   -0.40667E-03   -0.40835E-03  8424   0.571E-03 0.551E-04
CGA:   8    -0.669868807094E+03   -0.14191E-03   -0.14221E-03  8424   0.191E-03 0.401E-04
CGA:   9    -0.669868859462E+03   -0.52368E-04   -0.52142E-04  8424   0.771E-04 0.381E-04
CGA:  10    -0.669868885312E+03   -0.25850E-04   -0.25149E-04  8424   0.429E-04 0.306E-04
CGA:  11    -0.669868899101E+03   -0.13789E-04   -0.14197E-04  8424   0.261E-04 0.303E-04
CGA:  12    -0.669868904311E+03   -0.52100E-05   -0.57232E-05  8424   0.162E-04 0.168E-04
  16 F= -.66986890E+03 E0= -.66986890E+03  d E =0.515074E-02  mag=     2.0000
       N       E                     dE             d eps       ncg     rms          ort
SDA:   1    -0.669709595474E+03    0.15930E+00    0.00000E+00  8424   0.498E+00 0.000E+00
CGA:   2    -0.669811846599E+03   -0.10225E+00   -0.10227E+00  8424   0.206E+00 0.256E-03
CGA:   3    -0.669854997933E+03   -0.43151E-01   -0.43146E-01  8424   0.684E-01-0.172E-03
CGA:   4    -0.669866142130E+03   -0.11144E-01   -0.11142E-01  8424   0.168E-01-0.422E-04
CGA:   5    -0.669869012442E+03   -0.28703E-02   -0.28711E-02  8424   0.355E-02 0.920E-05
CGA:   6    -0.669869700393E+03   -0.68795E-03   -0.68877E-03  8424   0.818E-03 0.179E-04
CGA:   7    -0.669869881418E+03   -0.18103E-03   -0.18134E-03  8424   0.259E-03 0.210E-04
CGA:   8    -0.669869954495E+03   -0.73076E-04   -0.74347E-04  8424   0.115E-03-0.284E-04
CGA:   9    -0.669869987177E+03   -0.32682E-04   -0.34121E-04  8424   0.688E-04-0.153E-04
CGA:  10    -0.669870005335E+03   -0.18159E-04   -0.43406E-04  8424   0.199E-03-0.533E-04
CGA:  11    -0.669870049476E+03   -0.44141E-04   -0.43304E-04  8424   0.510E-04-0.172E-04
CGA:  12    -0.669870017928E+03    0.31548E-04   -0.54134E-04  8424   0.484E-03-0.962E-04
CGA:  13    -0.669870110083E+03   -0.92155E-04   -0.90938E-04  8424   0.665E-04-0.102E-04
CGA:  14    -0.669870133899E+03   -0.23816E-04   -0.26046E-04  8424   0.529E-04-0.231E-04
CGA:  15    -0.669870155119E+03   -0.21220E-04    0.30174E-01  8424   0.414E-04-0.662E-05
CGA:  16    -0.669870189247E+03   -0.34129E-04    0.10458E-04  8424   0.258E-04 0.216E-04
CGA:  17    -0.669870198830E+03   -0.95830E-05   -0.13460E-04  8424   0.843E-04-0.182E-04
CGA:  18    -0.669870220055E+03   -0.21225E-04   -0.17081E-04  8424   0.354E-04-0.359E-04
CGA:  19    -0.669870235836E+03   -0.15780E-04    0.13033E-04  8424   0.105E-04 0.119E-04
CGA:  20    -0.669870252007E+03   -0.16171E-04    0.25811E-05  8424   0.155E-04 0.619E-05
CGA:  21    -0.669870264282E+03   -0.12276E-04    0.89925E-05  8424   0.225E-04-0.337E-05
CGA:  22    -0.669870290586E+03   -0.26304E-04    0.19670E-05  8424   0.260E-04 0.169E-04
CGA:  23    -0.669870298823E+03   -0.82364E-05   -0.88829E-05  8424   0.519E-04-0.220E-04
CGA:  24    -0.669870313028E+03   -0.14206E-04   -0.12123E-04  8424   0.313E-04-0.261E-04
CGA:  25    -0.669870319192E+03   -0.61638E-05   -0.58442E-05  8424   0.106E-04-0.264E-05
  17 F= -.66987032E+03 E0= -.66987032E+03  d E =-.141488E-02  mag=     2.0000
       N       E                     dE             d eps       ncg     rms          ort
SDA:   1    -0.669793085764E+03    0.77227E-01    0.00000E+00  8424   0.223E+00 0.000E+00
CGA:   2    -0.669845158425E+03   -0.52073E-01   -0.52084E-01  8424   0.108E+00 0.129E-03
CGA:   3    -0.669866557931E+03   -0.21400E-01   -0.21396E-01  8424   0.298E-01-0.488E-04
CGA:   4    -0.669871361530E+03   -0.48036E-02   -0.48007E-02  8424   0.702E-02-0.259E-04
CGA:   5    -0.669872556289E+03   -0.11948E-02   -0.11958E-02  8424   0.145E-02 0.775E-05
CGA:   6    -0.669872842864E+03   -0.28657E-03   -0.28817E-03  8424   0.343E-03 0.187E-04
CGA:   7    -0.669872919183E+03   -0.76319E-04   -0.77024E-04  8424   0.107E-03 0.123E-04
CGA:   8    -0.669872950028E+03   -0.30845E-04   -0.30856E-04  8424   0.470E-04-0.485E-05
CGA:   9    -0.669872966087E+03   -0.16059E-04   -0.16756E-04  8424   0.355E-04-0.741E-05
CGA:  10    -0.669872979182E+03   -0.13095E-04   -0.18860E-04  8424   0.649E-04-0.173E-04
CGA:  11    -0.669872959360E+03    0.19822E-04   -0.32203E-04  8424   0.272E-03-0.842E-04
CGA:  12    -0.669873033100E+03   -0.73741E-04   -0.73246E-04  8424   0.102E-03-0.799E-05
CGA:  13    -0.669873073004E+03   -0.39904E-04   -0.41297E-04  8424   0.650E-04-0.160E-04
CGA:  14    -0.669873094747E+03   -0.21743E-04   -0.24994E-04  8424   0.813E-04-0.266E-04
CGA:  15    -0.669873110666E+03   -0.15919E-04   -0.15309E-04  8424   0.430E-04-0.312E-04
CGA:  16    -0.669873134265E+03   -0.23599E-04    0.13956E-04  8424   0.256E-04 0.196E-05
CGA:  17    -0.669872983740E+03    0.15052E-03   -0.81377E-04  8424   0.146E-02-0.120E-03
CGA:  18    -0.669873219940E+03   -0.23620E-03   -0.21603E-03  8424   0.177E-03-0.433E-04
CGA:  19    -0.669873260663E+03   -0.40723E-04   -0.44330E-04  8424   0.202E-04 0.107E-04
CGA:  20    -0.669872835657E+03    0.42501E-03   -0.22987E-03  8424   0.203E-02-0.164E-03
CGA:  21    -0.669873136603E+03   -0.30095E-03   -0.37793E-03  8424   0.498E-03 0.900E-04
CGA:  22    -0.669873327845E+03   -0.19124E-03   -0.15149E-03  8424   0.159E-03-0.556E-04
CGA:  23    -0.669873352538E+03   -0.24693E-04   -0.31194E-04  8424   0.317E-04 0.865E-05
CGA:  24    -0.669873364913E+03   -0.12375E-04   -0.10045E-04  8424   0.130E-04-0.374E-05
CGA:  25    -0.669872556889E+03    0.80802E-03   -0.44478E-03  8424   0.592E-02-0.180E-03
CGA:  26    -0.669873346871E+03   -0.78998E-03   -0.82577E-03  8424   0.495E-03 0.216E-05
CGA:  27    -0.669873469354E+03   -0.12248E-03   -0.15736E-03  8424   0.187E-03 0.222E-04
CGA:  28    -0.669873353364E+03    0.11599E-03   -0.48684E-04  8424   0.711E-03 0.428E-04
CGA:  29    -0.669807901044E+03    0.65452E-01   -0.20380E-04  8424   0.253E+00 0.549E-02
CGA:  30    -0.665882742006E+03    0.39252E+01   -0.27133E-01  8424   0.145E+02 0.475E+00
CGA:  31    -0.647717551661E+03    0.18165E+02   -0.53355E+01  8424   0.422E+02 0.534E+01
CGA:  32    -0.630813047287E+03    0.16905E+02   -0.24425E+02  8424   0.894E+02 0.850E+01
CGA:  33    -0.557630581882E+03    0.73182E+02   -0.46553E+02  8424   0.104E+03 0.550E+01
CGA:  34    -0.547111788801E+03    0.10519E+02   -0.55079E+02  8424   0.174E+03 0.139E+02
CGA:  35    -0.497135523347E+03    0.49976E+02   -0.94507E+02  8424   0.271E+03-0.172E+02
CGA:  36    -0.454899029985E+03    0.42236E+02   -0.11593E+03  8424   0.226E+03-0.937E+01
CGA:  37    -0.436306531987E+03    0.18592E+02   -0.10072E+03  8424   0.339E+03 0.113E+02
CGA:  38    -0.373629547605E+03    0.62677E+02   -0.13350E+03  8424   0.391E+03-0.394E+02
CGA:  39    -0.323774055116E+03    0.49855E+02   -0.85345E+02  8424   0.497E+03-0.486E+02
CGA:  40    -0.222052670577E+03    0.10172E+03   -0.12164E+03  8424   0.123E+04-0.288E+03
CGA:  41    -0.293667162954E+03   -0.71614E+02   -0.17679E+03  8424   0.111E+04-0.217E+03
CGA:  42    -0.239197799998E+03    0.54469E+02   -0.18226E+03  8424   0.839E+03 0.965E+02
CGA:  43    -0.240034078393E+03   -0.83628E+00   -0.21932E+03  8424   0.109E+04 0.154E+03
CGA:  44    -0.221090425300E+03    0.18944E+02   -0.48917E+03  8424   0.861E+03 0.487E+02
CGA:  45    -0.192169153290E+03    0.28921E+02   -0.18250E+03  8424   0.151E+04-0.679E+02
CGA:  46     0.197807879452E+02    0.21195E+03   -0.34851E+03  8424   0.131E+04-0.309E+02
CGA:  47    -0.995835598506E+02   -0.11936E+03   -0.39294E+03  8424   0.102E+04 0.175E+03
CGA:  48    -0.856057382806E+02    0.13978E+02   -0.23090E+03  8424   0.944E+03 0.237E+03
CGA:  49    -0.293717697640E+02    0.56234E+02   -0.25211E+03  8424   0.118E+04 0.366E+03
CGA:  50     0.137683174355E+03    0.16705E+03   -0.39497E+03  8424   0.135E+04 0.271E+03
CGA:  51     0.278641521356E+03    0.14096E+03   -0.41989E+03  8424   0.183E+04 0.245E+03
CGA:  52     0.606582951899E+03    0.32794E+03   -0.47859E+03  8424   0.211E+04 0.100E+03
CGA:  53     0.781025368130E+03    0.17444E+03   -0.49435E+03  8424   0.215E+04 0.502E+03
CGA:  54     0.913925630550E+03    0.13290E+03   -0.54206E+03  8424   0.239E+04 0.784E+03
CGA:  55     0.106902766490E+04    0.15510E+03   -0.73359E+03  8424   0.276E+04 0.853E+03
CGA:  56     0.152315316506E+04    0.45413E+03   -0.72885E+03  8424   0.539E+04 0.434E+03
CGA:  57     0.245177368507E+04    0.92862E+03   -0.13105E+04  8424   0.431E+04 0.378E+03
CGA:  58     0.230713908370E+04   -0.14463E+03   -0.10540E+04  8424   0.533E+04 0.117E+04
CGA:  59     0.282441192231E+04    0.51727E+03   -0.14297E+04  8424   0.351E+04 0.141E+04
CGA:  60     0.207939103382E+04   -0.74502E+03   -0.10043E+04  8424   0.300E+04 0.191E+04
CGA:  61     0.443195852980E+03   -0.16362E+04   -0.16118E+04  8424   0.119E+04 0.263E+03
CGA:  62     0.788488031055E+02   -0.36435E+03   -0.32019E+03  8424   0.687E+03 0.274E+03
CGA:  63    -0.191537132377E+03   -0.27039E+03   -0.25458E+03  8424   0.548E+03 0.932E+02
CGA:  64    -0.285668235552E+03   -0.94131E+02   -0.91318E+02  8424   0.331E+03 0.159E+03
CGA:  65    -0.355534714817E+03   -0.69866E+02   -0.97205E+02  8424   0.488E+03-0.343E+02
CGA:  66    -0.411544986782E+03   -0.56010E+02   -0.43228E+02  8424   0.220E+03 0.245E+03
CGA:  67    -0.435329132904E+03   -0.23784E+02   -0.16652E+02  8424   0.892E+02 0.855E+02
CGA:  68    -0.466539162845E+03   -0.31210E+02   -0.31618E+02  8424   0.218E+03 0.298E+01
CGA:  69    -0.494079634868E+03   -0.27540E+02   -0.23378E+02  8424   0.181E+03 0.438E+02
CGA:  70    -0.509441005849E+03   -0.15361E+02   -0.21740E+02  8424   0.198E+03-0.335E+02
CGA:  71    -0.521323266366E+03   -0.11882E+02   -0.13914E+02  8424   0.154E+03-0.160E+02
CGA:  72    -0.533201798711E+03   -0.11879E+02   -0.14703E+02  8424   0.176E+03-0.146E+02
CGA:  73    -0.546450561291E+03   -0.13249E+02   -0.12675E+02  8424   0.111E+03 0.848E+01
CGA:  74    -0.556908931548E+03   -0.10458E+02   -0.12628E+02  8424   0.171E+03-0.453E+01
CGA:  75    -0.563676945244E+03   -0.67680E+01   -0.12484E+02  8424   0.131E+03-0.183E+02
CGA:  76    -0.570110516884E+03   -0.64336E+01   -0.74240E+01  8424   0.762E+02-0.396E+01
CGA:  77    -0.576168292918E+03   -0.60578E+01   -0.60367E+01  8424   0.658E+02 0.397E+01
CGA:  78    -0.581727630110E+03   -0.55593E+01   -0.58698E+01  8424   0.920E+02 0.418E+00
CGA:  79    -0.588774700005E+03   -0.70471E+01   -0.97304E+01  8424   0.116E+03-0.102E+02
CGA:  80    -0.594431409976E+03   -0.56567E+01   -0.53850E+01  8424   0.515E+02 0.866E+01
CGA:  81    -0.597284114621E+03   -0.28527E+01   -0.37995E+01  8424   0.577E+02-0.609E+01
CGA:  82    -0.604054697080E+03   -0.67706E+01   -0.56760E+01  8424   0.860E+02 0.585E+01
CGA:  83    -0.605204462917E+03   -0.11498E+01   -0.55185E+01  8424   0.119E+03-0.499E+02
CGA:  84    -0.612218414045E+03   -0.70140E+01   -0.63932E+01  8424   0.527E+02-0.752E+01
CGA:  85    -0.621689284597E+03   -0.94709E+01   -0.91394E+01  8424   0.107E+03-0.176E+01
CGA:  86    -0.629202196513E+03   -0.75129E+01   -0.10542E+02  8424   0.114E+03-0.747E+01
CGA:  87    -0.634568671472E+03   -0.53665E+01   -0.62135E+01  8424   0.936E+02-0.214E+02
CGA:  88    -0.638345564973E+03   -0.37769E+01   -0.56627E+01  8424   0.761E+02-0.142E+02
CGA:  89    -0.640892267152E+03   -0.25467E+01   -0.33900E+01  8424   0.406E+02-0.171E+02
CGA:  90    -0.644381344881E+03   -0.34891E+01   -0.41928E+01  8424   0.860E+02-0.982E-01
CGA:  91    -0.649367641874E+03   -0.49863E+01   -0.52871E+01  8424   0.723E+02-0.344E+02
CGA:  92    -0.651523995405E+03   -0.21564E+01   -0.25175E+01  8424   0.536E+02-0.281E+01
CGA:  93    -0.654124013604E+03   -0.26000E+01   -0.34829E+01  8424   0.478E+02-0.106E+02
CGA:  94    -0.656527734969E+03   -0.24037E+01   -0.29278E+01  8424   0.244E+02-0.679E+01
CGA:  95    -0.659402085133E+03   -0.28744E+01   -0.28883E+01  8424   0.149E+02 0.325E-01
CGA:  96    -0.662069742770E+03   -0.26677E+01   -0.26601E+01  8424   0.921E+01 0.351E+00
CGA:  97    -0.663801318590E+03   -0.17316E+01   -0.17175E+01  8424   0.711E+01 0.493E+00
CGA:  98    -0.665614212966E+03   -0.18129E+01   -0.17724E+01  8424   0.582E+01 0.341E+00
CGA:  99    -0.666734417650E+03   -0.11202E+01   -0.11144E+01  8424   0.330E+01 0.245E+00
CGA: 100    -0.667466961941E+03   -0.73254E+00   -0.73165E+00  8424   0.217E+01 0.243E-01
CGA: 101    -0.667834361358E+03   -0.36740E+00   -0.36733E+00  8424   0.111E+01-0.292E-03
CGA: 102    -0.668076039413E+03   -0.24168E+00   -0.24321E+00  8424   0.958E+00-0.263E-01
CGA: 103    -0.668251070368E+03   -0.17503E+00   -0.17578E+00  8424   0.744E+00-0.358E-01
CGA: 104    -0.668398639916E+03   -0.14757E+00   -0.14773E+00  8424   0.606E+00-0.250E-02
CGA: 105    -0.668494245810E+03   -0.95606E-01   -0.95437E-01  8424   0.436E+00-0.180E-02
CGA: 106    -0.668573222147E+03   -0.78976E-01   -0.79057E-01  8424   0.312E+00-0.104E-01
CGA: 107    -0.668619326647E+03   -0.46104E-01   -0.45600E-01  8424   0.222E+00-0.132E-01
CGA: 108    -0.668657595676E+03   -0.38269E-01   -0.38230E-01  8424   0.203E+00-0.202E-03
CGA: 109    -0.668696877012E+03   -0.39281E-01   -0.41781E-01  8424   0.263E+00-0.485E-01
CGA: 110    -0.668725858299E+03   -0.28981E-01   -0.26383E-01  8424   0.224E+00-0.154E-01
CGA: 111    -0.668748252848E+03   -0.22395E-01   -0.22245E-01  8424   0.184E+00-0.102E-01
CGA: 112    -0.668772464531E+03   -0.24212E-01   -0.23067E-01  8424   0.207E+00-0.232E-01
CGA: 113    -0.668794141095E+03   -0.21677E-01   -0.21757E-01  8424   0.165E+00-0.135E-01
SDA: 114    -0.668818134938E+03   -0.23994E-01   -0.23731E-01  8424   0.203E+00-0.193E-01
CGA: 115    -0.668861907831E+03   -0.43773E-01   -0.44233E-01  8424   0.246E+00-0.940E-02
CGA: 116    -0.668925872662E+03   -0.63965E-01   -0.67066E-01  8424   0.200E+00-0.232E-01
CGA: 117    -0.668977237188E+03   -0.51365E-01   -0.54655E-01  8424   0.176E+00-0.332E-01
CGA: 118    -0.669015116607E+03   -0.37879E-01   -0.44832E-01  8424   0.184E+00-0.508E-01
CGA: 119    -0.669042605433E+03   -0.27489E-01   -0.27615E-01  8424   0.155E+00-0.156E-01
CGA: 120    -0.669094263111E+03   -0.51658E-01   -0.10301E+00  8424   0.695E+00-0.103E+00
CGA: 121    -0.669217142739E+03   -0.12288E+00   -0.12273E+00  8424   0.219E+00-0.121E-01
CGA: 122    -0.669295733363E+03   -0.78591E-01   -0.84265E-01  8424   0.278E+00-0.314E-01
CGA: 123    -0.669358896969E+03   -0.63164E-01   -0.63956E-01  8424   0.189E+00-0.257E-01
CGA: 124    -0.669421950637E+03   -0.63054E-01   -0.88777E-01  8424   0.299E+00-0.873E-01
CGA: 125    -0.669466161201E+03   -0.44211E-01   -0.51730E-01  8424   0.176E+00-0.870E-01
CGA: 126    -0.669497664860E+03   -0.31504E-01   -0.32018E-01  8424   0.140E+00-0.405E-01
CGA: 127    -0.669532663814E+03   -0.34999E-01   -0.47087E-01  8424   0.176E+00-0.609E-01
CGA: 128    -0.669561307631E+03   -0.28644E-01   -0.31683E-01  8424   0.128E+00-0.461E-01
CGA: 129    -0.669581952106E+03   -0.20644E-01   -0.19825E-01  8424   0.642E-01-0.184E-01
CGA: 130    -0.669597451213E+03   -0.15499E-01   -0.15638E-01  8424   0.493E-01-0.479E-02
CGA: 131    -0.669609079857E+03   -0.11629E-01   -0.11631E-01  8424   0.382E-01 0.262E-02
CGA: 132    -0.669620775584E+03   -0.11696E-01   -0.11513E-01  8424   0.287E-01 0.571E-02
CGA: 133    -0.669629531881E+03   -0.87563E-02   -0.87138E-02  8424   0.203E-01 0.622E-02
CGA: 134    -0.669635461420E+03   -0.59295E-02   -0.60253E-02  8424   0.945E-02 0.679E-02
CGA: 135    -0.669638058283E+03   -0.25969E-02   -0.27329E-02  8424   0.476E-02 0.339E-02
CGA: 136    -0.669639975449E+03   -0.19172E-02   -0.18701E-02  8424   0.350E-02 0.132E-02
CGA: 137    -0.669641691659E+03   -0.17162E-02   -0.16398E-02  8424   0.371E-02 0.623E-03
CGA: 138    -0.669643436045E+03   -0.17444E-02   -0.17686E-02  8424   0.462E-02-0.313E-03
CGA: 139    -0.669628117288E+03    0.15319E-01   -0.82964E-02  8424   0.768E-01-0.172E-01
CGA: 140    -0.669648127680E+03   -0.20010E-01   -0.19890E-01  8424   0.241E-01-0.365E-03
CGA: 141    -0.669658184356E+03   -0.10057E-01   -0.97863E-02  8424   0.141E-01-0.382E-02
CGA: 142    -0.669664890331E+03   -0.67060E-02   -0.77617E-02  8424   0.219E-01-0.590E-02
CGA: 143    -0.669669719591E+03   -0.48293E-02   -0.35793E-02  8424   0.910E-02-0.639E-02
CGA: 144    -0.669672031060E+03   -0.23115E-02   -0.46990E-02  8424   0.278E-01-0.949E-02
CGA: 145    -0.669678117131E+03   -0.60861E-02   -0.60188E-02  8424   0.471E-02-0.246E-03
CGA: 146    -0.669680661276E+03   -0.25441E-02   -0.28399E-02  8424   0.990E-02-0.220E-02
CGA: 147    -0.669682887970E+03   -0.22267E-02   -0.18767E-02  8424   0.642E-02-0.276E-02
CGA: 148    -0.669684545581E+03   -0.16576E-02   -0.12388E-02  8424   0.487E-02-0.205E-02
CGA: 149    -0.669685096762E+03   -0.55118E-03   -0.25134E-02  8424   0.203E-01-0.679E-02
CGA: 150    -0.669689496326E+03   -0.43996E-02   -0.44755E-02  8424   0.568E-02 0.387E-03
CGA: 151    -0.669691568320E+03   -0.20720E-02   -0.19085E-02  8424   0.322E-02-0.122E-02
CGA: 152    -0.669692632179E+03   -0.10639E-02   -0.24398E-02  8424   0.102E-01-0.273E-02
CGA: 153    -0.669695147253E+03   -0.25151E-02   -0.21741E-02  8424   0.334E-02-0.133E-02
CGA: 154    -0.669696257633E+03   -0.11104E-02   -0.10139E-02  8424   0.162E-02-0.797E-03
CGA: 155    -0.669697820306E+03   -0.15627E-02    0.78375E-03  8424   0.118E-02 0.204E-04
CGA: 156    -0.669699789772E+03   -0.19695E-02    0.35385E-03  8424   0.764E-03 0.583E-03
CGA: 157    -0.669701872856E+03   -0.20831E-02    0.27557E-03  8424   0.803E-03 0.421E-03
CGA: 158    -0.669699640978E+03    0.22319E-02   -0.12704E-02  8424   0.329E-01-0.315E-02
CGA: 159    -0.669704817375E+03   -0.51764E-02   -0.48415E-02  8424   0.184E-02-0.139E-02
CGA: 160    -0.669705500782E+03   -0.68341E-03   -0.60325E-03  8424   0.111E-02-0.506E-03
CGA: 161    -0.669707021406E+03   -0.15206E-02    0.21819E-03  8424   0.106E-02 0.143E-03
CGA: 162    -0.669709231730E+03   -0.22103E-02    0.34204E-03  8424   0.972E-03 0.440E-03
CGA: 163    -0.669712373751E+03   -0.31420E-02    0.25811E-03  8424   0.587E-03 0.893E-03
CGA: 164    -0.669713153649E+03   -0.77990E-03    0.42006E-03  8424   0.956E-03-0.592E-04
CGA: 165    -0.669715345102E+03   -0.21915E-02    0.13405E-03  8424   0.137E-02 0.364E-03
CGA: 166    -0.669719643156E+03   -0.42981E-02    0.35729E-03  8424   0.105E-02 0.114E-02
CGA: 167    -0.669720139718E+03   -0.49656E-03   -0.60804E-03  8424   0.462E-02-0.130E-02
CGA: 168    -0.669721143215E+03   -0.10035E-02   -0.81211E-03  8424   0.627E-03-0.609E-03
CGA: 169    -0.669721914706E+03   -0.77149E-03    0.27877E-03  8424   0.109E-02-0.368E-04
CGA: 170    -0.669724588377E+03   -0.26737E-02    0.14421E-03  8424   0.527E-03 0.759E-03
CGA: 171    -0.669725356607E+03   -0.76823E-03    0.24762E-03  8424   0.984E-03-0.859E-04
CGA: 172    -0.669727625134E+03   -0.22685E-02    0.10674E-03  8424   0.121E-02 0.422E-03
CGA: 173    -0.669731508785E+03   -0.38837E-02    0.30975E-03  8424   0.203E-02 0.599E-03
CGA: 174    -0.669738845797E+03   -0.73370E-02    0.48652E-03  8424   0.195E-02 0.114E-02
CGA: 175    -0.669739619646E+03   -0.77385E-03   -0.67622E-03  8424   0.128E-02-0.727E-03
CGA: 176    -0.669740870142E+03   -0.12505E-02    0.29427E-03  8424   0.196E-02-0.449E-03
CGA: 177    -0.669743597553E+03   -0.27274E-02    0.23863E-03  8424   0.177E-02 0.301E-03
CGA: 178    -0.669747044313E+03   -0.34468E-02    0.62908E-03  8424   0.177E-02 0.121E-03
CGA: 179    -0.669750981472E+03   -0.39372E-02    0.37475E-03  8424   0.382E-02-0.513E-03
CGA: 180    -0.669760521359E+03   -0.95399E-02    0.23864E-03  8424   0.587E-02 0.119E-02
CGA: 181    -0.669775756317E+03   -0.15235E-01    0.16907E-02  8424   0.173E-01-0.370E-02
CGA: 182    -0.669778558647E+03   -0.28023E-02   -0.25206E-02  8424   0.748E-03-0.102E-02
CGA: 183    -0.669778381248E+03    0.17740E-03   -0.67885E-03  8424   0.874E-02-0.170E-02
CGA: 184    -0.669780053430E+03   -0.16722E-02   -0.14203E-02  8424   0.862E-03-0.836E-03
CGA: 185    -0.669780416293E+03   -0.36286E-03   -0.39656E-03  8424   0.204E-02-0.825E-03
CGA: 186    -0.669781040772E+03   -0.62448E-03   -0.43255E-03  8424   0.774E-03-0.751E-03
CGA: 187    -0.669781675165E+03   -0.63439E-03    0.26834E-03  8424   0.752E-03-0.211E-03
CGA: 188    -0.669783085605E+03   -0.14104E-02    0.68613E-04  8424   0.331E-03 0.167E-03
CGA: 189    -0.669784200232E+03   -0.11146E-02    0.45840E-04  8424   0.198E-03 0.150E-03
CGA: 190    -0.669785437423E+03   -0.12372E-02    0.17760E-04  8424   0.179E-03 0.245E-03
CGA: 191    -0.669785917732E+03   -0.48031E-03    0.21059E-04  8424   0.296E-03 0.341E-04
CGA: 192    -0.669787359345E+03   -0.14416E-02    0.23231E-04  8424   0.294E-03 0.202E-03
CGA: 193    -0.669787874166E+03   -0.51482E-03    0.73690E-04  8424   0.301E-03-0.213E-04
CGA: 194    -0.669788928861E+03   -0.10547E-02    0.20418E-04  8424   0.507E-03 0.374E-04
CGA: 195    -0.669791273646E+03   -0.23448E-02    0.37120E-04  8424   0.379E-03 0.470E-03
CGA: 196    -0.669791743101E+03   -0.46945E-03    0.24430E-03  8424   0.599E-03-0.174E-03
CGA: 197    -0.669792964093E+03   -0.12210E-02    0.23786E-04  8424   0.920E-03-0.118E-03
CGA: 198    -0.669795456611E+03   -0.24925E-02    0.62710E-04  8424   0.136E-02 0.146E-03
CGA: 199    -0.669799718915E+03   -0.42623E-02    0.18288E-03  8424   0.177E-02 0.207E-03
CGA: 200    -0.669805964419E+03   -0.62455E-02    0.19948E-03  8424   0.170E-02-0.183E-03
  18 F= -.66980596E+03 E0= -.66980596E+03  d E =0.643548E-01  mag=     2.0000
       N       E                     dE             d eps       ncg     rms          ort
SDA:   1    -0.668593261668E+03    0.12065E+01    0.00000E+00  8424   0.340E+01 0.000E+00
CGA:   2    -0.669397143374E+03   -0.80388E+00   -0.80393E+00  8424   0.159E+01-0.856E-03
CGA:   3    -0.669706618710E+03   -0.30948E+00   -0.30946E+00  8424   0.437E+00-0.412E-03
CGA:   4    -0.669778156068E+03   -0.71537E-01   -0.71479E-01  8424   0.108E+00-0.248E-03
CGA:   5    -0.669796604688E+03   -0.18449E-01   -0.18423E-01  8424   0.219E-01-0.120E-03
CGA:   6    -0.669801045651E+03   -0.44410E-02   -0.44038E-02  8424   0.527E-02-0.186E-03
CGA:   7    -0.669802409737E+03   -0.13641E-02   -0.13014E-02  8424   0.199E-02-0.425E-03
CGA:   8    -0.669803055292E+03   -0.64555E-03   -0.60556E-03  8424   0.134E-02-0.687E-03
CGA:   9    -0.669800646204E+03    0.24091E-02   -0.11491E-02  8424   0.211E-01-0.385E-02
CGA:  10    -0.669804170212E+03   -0.35240E-02   -0.35005E-02  8424   0.276E-02-0.978E-04
CGA:  11    -0.669805207291E+03   -0.10371E-02   -0.10083E-02  8424   0.126E-02-0.551E-03
CGA:  12    -0.669805608428E+03   -0.40114E-03   -0.65961E-03  8424   0.321E-02-0.110E-02
CGA:  13    -0.669806277428E+03   -0.66900E-03   -0.56576E-03  8424   0.719E-03-0.411E-03
CGA:  14    -0.669806534747E+03   -0.25732E-03   -0.24857E-03  8424   0.101E-02-0.437E-03
CGA:  15    -0.669806812124E+03   -0.27738E-03   -0.18927E-03  8424   0.432E-03-0.388E-03
CGA:  16    -0.669807130788E+03   -0.31866E-03    0.11069E-03  8424   0.354E-03-0.101E-03
CGA:  17    -0.669807756313E+03   -0.62552E-03    0.29602E-04  8424   0.144E-03 0.106E-03
CGA:  18    -0.669808233683E+03   -0.47737E-03    0.17469E-04  8424   0.152E-03 0.673E-04
CGA:  19    -0.669809027065E+03   -0.79338E-03    0.13278E-04  8424   0.165E-03 0.144E-03
CGA:  20    -0.669809224705E+03   -0.19764E-03    0.69163E-04  8424   0.366E-03-0.656E-04
CGA:  21    -0.669809944038E+03   -0.71933E-03    0.14681E-04  8424   0.569E-03-0.854E-04
CGA:  22    -0.669811405454E+03   -0.14614E-02    0.27980E-04  8424   0.162E-02-0.437E-04
CGA:  23    -0.669816225958E+03   -0.48205E-02    0.10144E-03  8424   0.159E-02 0.737E-03
CGA:  24    -0.669820900091E+03   -0.46741E-02    0.30954E-03  8424   0.502E-02-0.104E-02
CGA:  25    -0.669821699687E+03   -0.79960E-03   -0.67706E-03  8424   0.393E-03-0.470E-03
CGA:  26    -0.669821816986E+03   -0.11730E-03   -0.22195E-03  8424   0.158E-02-0.451E-03
CGA:  27    -0.669822159490E+03   -0.34250E-03   -0.25387E-03  8424   0.331E-03-0.369E-03
CGA:  28    -0.669822358223E+03   -0.19873E-03    0.10006E-01  8424   0.317E-03-0.103E-03
CGA:  29    -0.669822825877E+03   -0.46765E-03    0.24405E-04  8424   0.218E-03 0.186E-04
CGA:  30    -0.669823331610E+03   -0.50573E-03    0.24881E-04  8424   0.854E-04 0.135E-03
CGA:  31    -0.669823551502E+03   -0.21989E-03    0.72508E-05  8424   0.163E-03 0.140E-04
CGA:  32    -0.669824111489E+03   -0.55999E-03    0.13288E-04  8424   0.113E-03 0.125E-03
CGA:  33    -0.669824317015E+03   -0.20553E-03    0.16709E-04  8424   0.892E-04 0.301E-04
CGA:  34    -0.669824679487E+03   -0.36247E-03    0.70662E-05  8424   0.875E-04 0.784E-04
CGA:  35    -0.669824866925E+03   -0.18744E-03    0.97839E-05  8424   0.850E-04 0.419E-04
CGA:  36    -0.669825278103E+03   -0.41118E-03    0.76800E-05  8424   0.109E-03 0.753E-04
CGA:  37    -0.669825434032E+03   -0.15593E-03    0.25704E-04  8424   0.217E-03-0.127E-04
CGA:  38    -0.669826021923E+03   -0.58789E-03    0.12770E-04  8424   0.214E-03 0.745E-04
CGA:  39    -0.669826855541E+03   -0.83362E-03    0.20639E-04  8424   0.456E-03 0.112E-03
CGA:  40    -0.669826931416E+03   -0.75876E-04   -0.69687E-04  8424   0.126E-03-0.259E-04
CGA:  41    -0.669827202518E+03   -0.27110E-03    0.11099E-04  8424   0.660E-04 0.544E-04
CGA:  42    -0.669827538928E+03   -0.33641E-03    0.48275E-05  8424   0.924E-04 0.793E-04
CGA:  43    -0.669827682572E+03   -0.14364E-03    0.16586E-04  8424   0.194E-03-0.146E-05
CGA:  44    -0.669828289013E+03   -0.60644E-03    0.11335E-04  8424   0.160E-03 0.125E-03
CGA:  45    -0.669828546517E+03   -0.25750E-03    0.26854E-04  8424   0.291E-03-0.506E-04
CGA:  46    -0.669829006305E+03   -0.45979E-03    0.18278E-04  8424   0.334E-03-0.462E-04
CGA:  47    -0.669829733729E+03   -0.72742E-03    0.21981E-04  8424   0.673E-03 0.865E-04
CGA:  48    -0.669831777760E+03   -0.20440E-02    0.73249E-04  8424   0.347E-03 0.359E-03
CGA:  49    -0.669831754855E+03    0.22905E-04   -0.24956E-03  8424   0.292E-02-0.803E-03
CGA:  50    -0.669832247825E+03   -0.49297E-03   -0.46338E-03  8424   0.292E-03-0.128E-03
CGA:  51    -0.669832063623E+03    0.18420E-03   -0.23599E-03  8424   0.472E-02-0.912E-03
CGA:  52    -0.669832795166E+03   -0.73154E-03   -0.66457E-03  8424   0.383E-03-0.263E-03
CGA:  53    -0.669832932708E+03   -0.13754E-03   -0.12859E-03  8424   0.412E-03-0.241E-03
CGA:  54    -0.669832995543E+03   -0.62835E-04   -0.22916E-03  8424   0.361E-02-0.101E-02
CGA:  55    -0.669833356720E+03   -0.36118E-03   -0.41720E-03  8424   0.129E-03 0.208E-03
CGA:  56    -0.669833531383E+03   -0.17466E-03    0.39427E-04  8424   0.155E-03-0.370E-04
CGA:  57    -0.669833968045E+03   -0.43666E-03    0.51607E-05  8424   0.267E-03 0.512E-04
CGA:  58    -0.669834975141E+03   -0.10071E-02    0.25575E-04  8424   0.132E-03 0.222E-03
CGA:  59    -0.669835106362E+03   -0.13122E-03    0.86818E-04  8424   0.225E-03-0.481E-04
CGA:  60    -0.669835610223E+03   -0.50386E-03    0.77317E-05  8424   0.302E-03 0.294E-04
CGA:  61    -0.669836582277E+03   -0.97205E-03    0.24449E-04  8424   0.529E-03 0.786E-04
CGA:  62    -0.669838346303E+03   -0.17640E-02    0.52756E-04  8424   0.494E-03 0.169E-03
CGA:  63    -0.669840218186E+03   -0.18719E-02    0.46200E-04  8424   0.467E-03 0.297E-03
CGA:  64    -0.669839969716E+03    0.24847E-03   -0.35240E-03  8424   0.800E-02-0.163E-02
CGA:  65    -0.669840760944E+03   -0.79123E-03   -0.93476E-03  8424   0.162E-03 0.544E-03
CGA:  66    -0.669840759222E+03    0.17226E-05   -0.13624E-03  8424   0.151E-02-0.350E-03
CGA:  67    -0.669841266526E+03   -0.50730E-03   -0.36081E-03  8424   0.856E-03-0.860E-03
CGA:  68    -0.669841326255E+03   -0.59730E-04   -0.96532E-04  8424   0.588E-04 0.129E-03
CGA:  69    -0.669841437780E+03   -0.11152E-03    0.11516E-04  8424   0.180E-03-0.144E-04
CGA:  70    -0.669842080498E+03   -0.64272E-03    0.51118E-05  8424   0.633E-03 0.259E-04
CGA:  71    -0.669845010636E+03   -0.29301E-02    0.33088E-04  8424   0.106E-02 0.146E-03
CGA:  72    -0.669850558119E+03   -0.55475E-02    0.56454E-04  8424   0.170E-02 0.477E-03
CGA:  73    -0.669859937568E+03   -0.93794E-02    0.12176E-03  8424   0.151E-02 0.500E-04
CGA:  74    -0.669868361927E+03   -0.84244E-02    0.50068E-04  8424   0.296E-02-0.183E-02
CGA:  75    -0.669868871237E+03   -0.50931E-03   -0.47155E-03  8424   0.325E-03-0.163E-03
CGA:  76    -0.669868937639E+03   -0.66402E-04   -0.69583E-04  8424   0.463E-04 0.213E-04
CGA:  77    -0.669868926682E+03    0.10957E-04   -0.21294E-05  8424   0.313E-04 0.403E-04
CGA:  78    -0.669868919116E+03    0.75660E-05   -0.10466E-05  8424   0.240E-04 0.271E-04
  19 F= -.66986892E+03 E0= -.66986892E+03  d E =-.629547E-01  mag=     2.0000
       N       E                     dE             d eps       ncg     rms          ort
SDA:   1    -0.669386880532E+03    0.48205E+00    0.00000E+00  8424   0.153E+01 0.000E+00
CGA:   2    -0.669691704885E+03   -0.30482E+00   -0.30501E+00  8424   0.606E+00 0.798E-03
CGA:   3    -0.669821127164E+03   -0.12942E+00   -0.12941E+00  8424   0.211E+00-0.120E-03
CGA:   4    -0.669855557502E+03   -0.34430E-01   -0.34486E-01  8424   0.512E-01 0.337E-03
CGA:   5    -0.669864309031E+03   -0.87515E-02   -0.87841E-02  8424   0.109E-01 0.239E-03
CGA:   6    -0.669866448146E+03   -0.21391E-02   -0.21430E-02  8424   0.242E-02 0.372E-04
CGA:   7    -0.669866945703E+03   -0.49756E-03   -0.50980E-03  8424   0.685E-03 0.152E-03
CGA:   8    -0.669867087787E+03   -0.14208E-03   -0.15145E-03  8424   0.183E-03 0.119E-03
CGA:   9    -0.669867113763E+03   -0.25976E-04   -0.36363E-04  8424   0.658E-04 0.920E-04
CGA:  10    -0.669867113709E+03    0.53889E-07   -0.76593E-05  8424   0.396E-04 0.481E-04
  20 F= -.66986711E+03 E0= -.66986711E+03  d E =0.180541E-02  mag=     2.0000
       N       E                     dE             d eps       ncg     rms          ort
SDA:   1    -0.669110382239E+03    0.75673E+00    0.00000E+00  8424   0.213E+01 0.000E+00
CGA:   2    -0.669601784808E+03   -0.49140E+00   -0.49143E+00  8424   0.958E+00 0.601E-03
CGA:   3    -0.669791168959E+03   -0.18938E+00   -0.18939E+00  8424   0.275E+00-0.367E-04
CGA:   4    -0.669836925458E+03   -0.45756E-01   -0.45775E-01  8424   0.696E-01 0.163E-03
CGA:   5    -0.669848764325E+03   -0.11839E-01   -0.11847E-01  8424   0.139E-01 0.859E-04
CGA:   6    -0.669851555283E+03   -0.27910E-02   -0.27911E-02  8424   0.333E-02 0.133E-05
CGA:   7    -0.669852304026E+03   -0.74874E-03   -0.75027E-03  8424   0.104E-02 0.779E-04
CGA:   8    -0.669852556745E+03   -0.25272E-03   -0.25300E-03  8424   0.325E-03 0.587E-04
CGA:   9    -0.669852647534E+03   -0.90789E-04   -0.89915E-04  8424   0.121E-03 0.459E-04
CGA:  10    -0.669852683813E+03   -0.36279E-04   -0.35655E-04  8424   0.581E-04 0.439E-04
CGA:  11    -0.669852701294E+03   -0.17481E-04   -0.18118E-04  8424   0.327E-04 0.386E-04
CGA:  12    -0.669852707848E+03   -0.65532E-05   -0.71130E-05  8424   0.201E-04 0.210E-04
  21 F= -.66985271E+03 E0= -.66985271E+03  d E =0.144059E-01  mag=     2.0000
       N       E                     dE             d eps       ncg     rms          ort
SDA:   1    -0.658113570696E+03    0.11739E+02    0.00000E+00  8424   0.394E+02 0.000E+00
CGA:   2    -0.665317627681E+03   -0.72041E+01   -0.72250E+01  8424   0.148E+02 0.123E+00
CGA:   3    -0.668509893259E+03   -0.31923E+01   -0.31906E+01  8424   0.488E+01-0.349E-01
CGA:   4    -0.669343054322E+03   -0.83316E+00   -0.83410E+00  8424   0.123E+01 0.498E-02
CGA:   5    -0.669547128955E+03   -0.20407E+00   -0.20449E+00  8424   0.278E+00 0.401E-02
CGA:   6    -0.669601062354E+03   -0.53933E-01   -0.53890E-01  8424   0.615E-01-0.111E-02
CGA:   7    -0.669614545648E+03   -0.13483E-01   -0.13492E-01  8424   0.187E-01 0.113E-02
CGA:   8    -0.669618947992E+03   -0.44023E-02   -0.43994E-02  8424   0.533E-02 0.758E-03
CGA:   9    -0.669620496105E+03   -0.15481E-02   -0.15512E-02  8424   0.191E-02-0.599E-04
CGA:  10    -0.669621008993E+03   -0.51289E-03   -0.50612E-03  8424   0.777E-03 0.183E-03
CGA:  11    -0.669621287284E+03   -0.27829E-03   -0.28239E-03  8424   0.403E-03-0.422E-04
CGA:  12    -0.669621371182E+03   -0.83898E-04   -0.84966E-04  8424   0.166E-03 0.742E-04
CGA:  13    -0.669621442437E+03   -0.71255E-04   -0.70541E-04  8424   0.125E-03 0.435E-05
CGA:  14    -0.669621495022E+03   -0.52586E-04   -0.11123E-03  8424   0.486E-03-0.100E-03
CGA:  15    -0.669621604379E+03   -0.10936E-03   -0.10947E-03  8424   0.167E-03 0.228E-05
CGA:  16    -0.669621500330E+03    0.10405E-03   -0.15350E-03  8424   0.192E-02-0.403E-03
CGA:  17    -0.669621714855E+03   -0.21453E-03   -0.23860E-03  8424   0.207E-03 0.137E-03
CGA:  18    -0.669621800065E+03   -0.85210E-04   -0.11955E-03  8424   0.196E-03-0.141E-03
CGA:  19    -0.669621859591E+03   -0.59526E-04   -0.59447E-04  8424   0.785E-04-0.273E-04
CGA:  20    -0.669621908104E+03   -0.48513E-04    0.60335E-04  8424   0.822E-04-0.227E-04
CGA:  21    -0.669621987342E+03   -0.79238E-04    0.73650E-05  8424   0.577E-04 0.394E-04
CGA:  22    -0.669622049064E+03   -0.61723E-04    0.72701E-04  8424   0.799E-04 0.134E-04
CGA:  23    -0.669622171248E+03   -0.12218E-03    0.14741E-04  8424   0.774E-04 0.545E-04
CGA:  24    -0.669622236975E+03   -0.65727E-04    0.30732E-04  8424   0.714E-04-0.293E-04
CGA:  25    -0.669622276544E+03   -0.39570E-04    0.14909E-04  8424   0.459E-04 0.109E-04
CGA:  26    -0.669622309087E+03   -0.32543E-04    0.24832E-02  8424   0.631E-04 0.888E-05
CGA:  27    -0.669622416392E+03   -0.10730E-03    0.87180E-05  8424   0.508E-04 0.452E-04
CGA:  28    -0.669622470533E+03   -0.54141E-04    0.10508E-04  8424   0.453E-04-0.197E-04
CGA:  29    -0.669622510068E+03   -0.39536E-04    0.31888E-05  8424   0.366E-04 0.201E-04
CGA:  30    -0.669622547010E+03   -0.36941E-04    0.57723E-04  8424   0.390E-04 0.777E-05
CGA:  31    -0.669622635212E+03   -0.88203E-04    0.35422E-05  8424   0.402E-04 0.358E-04
CGA:  32    -0.669622677600E+03   -0.42387E-04    0.85482E-05  8424   0.262E-04-0.963E-05
CGA:  33    -0.669622708843E+03   -0.31243E-04    0.19636E-05  8424   0.204E-04 0.165E-04
CGA:  34    -0.669622724118E+03   -0.15275E-04    0.13945E-04  8424   0.131E-04 0.481E-05
CGA:  35    -0.669622758440E+03   -0.34323E-04    0.10065E-05  8424   0.142E-04 0.151E-04
CGA:  36    -0.669622782821E+03   -0.24381E-04    0.12109E-05  8424   0.104E-04 0.769E-05
CGA:  37    -0.669622800831E+03   -0.18010E-04    0.87445E-06  8424   0.964E-05 0.890E-05
CGA:  38    -0.669622822294E+03   -0.21463E-04    0.56099E-06  8424   0.936E-05 0.902E-05
CGA:  39    -0.669622840325E+03   -0.18031E-04    0.66849E-06  8424   0.918E-05 0.894E-05
CGA:  40    -0.669622861405E+03   -0.21080E-04    0.51196E-06  8424   0.904E-05 0.880E-05
CGA:  41    -0.669622878636E+03   -0.17232E-04    0.65715E-06  8424   0.895E-05 0.862E-05
CGA:  42    -0.669622900194E+03   -0.21558E-04    0.46775E-06  8424   0.891E-05 0.840E-05
CGA:  43    -0.669622915535E+03   -0.15341E-04    0.75535E-06  8424   0.899E-05 0.810E-05
CGA:  44    -0.669622938953E+03   -0.23418E-04    0.42398E-06  8424   0.928E-05 0.765E-05
CGA:  45    -0.669622950413E+03   -0.11460E-04    0.14031E-05  8424   0.100E-04 0.690E-05
CGA:  46    -0.669622978157E+03   -0.27744E-04    0.43428E-06  8424   0.115E-04 0.556E-05
CGA:  47    -0.669622982009E+03   -0.38516E-05   -0.37956E-05  8424   0.166E-04 0.241E-05
  22 F= -.66962298E+03 E0= -.66962298E+03  d E =0.229726E+00  mag=     2.0000
       N       E                     dE             d eps       ncg     rms          ort
SDA:   1    -0.664106080947E+03    0.55169E+01    0.00000E+00  8424   0.190E+02 0.000E+00
CGA:   2    -0.667732793296E+03   -0.36267E+01   -0.36443E+01  8424   0.739E+01 0.963E-02
CGA:   3    -0.669290501064E+03   -0.15577E+01   -0.15548E+01  8424   0.242E+01-0.466E-02
CGA:   4    -0.669697309724E+03   -0.40681E+00   -0.40749E+00  8424   0.619E+00 0.120E-02
CGA:   5    -0.669802971884E+03   -0.10566E+00   -0.10596E+00  8424   0.141E+00 0.160E-02
CGA:   6    -0.669829841782E+03   -0.26870E-01   -0.26818E-01  8424   0.307E-01-0.483E-03
CGA:   7    -0.669836562648E+03   -0.67209E-02   -0.67534E-02  8424   0.926E-02 0.544E-03
CGA:   8    -0.669838814413E+03   -0.22518E-02   -0.22561E-02  8424   0.276E-02 0.114E-03
CGA:   9    -0.669839580130E+03   -0.76572E-03   -0.76566E-03  8424   0.943E-03-0.394E-04
CGA:  10    -0.669839830313E+03   -0.25018E-03   -0.25069E-03  8424   0.367E-03 0.939E-04
CGA:  11    -0.669839975252E+03   -0.14494E-03   -0.15151E-03  8424   0.247E-03-0.660E-04
CGA:  12    -0.669840006872E+03   -0.31620E-04   -0.37229E-04  8424   0.107E-03 0.582E-04
CGA:  13    -0.669840032961E+03   -0.26089E-04   -0.28376E-04  8424   0.645E-04 0.370E-04
CGA:  14    -0.669840064347E+03   -0.31386E-04   -0.31761E-04  8424   0.951E-04-0.480E-05
CGA:  15    -0.669840073632E+03   -0.92848E-05   -0.14453E-04  8424   0.934E-04 0.447E-04
CGA:  16    -0.669840084744E+03   -0.11112E-04   -0.20304E-04  8424   0.712E-04 0.730E-04
CGA:  17    -0.669840114358E+03   -0.29615E-04   -0.36996E-04  8424   0.129E-03-0.292E-04
CGA:  18    -0.669840114345E+03    0.13486E-07   -0.67687E-05  8424   0.811E-04 0.358E-04
  23 F= -.66984011E+03 E0= -.66984011E+03  d E =-.217132E+00  mag=     2.0000
       N       E                     dE             d eps       ncg     rms          ort
SDA:   1    -0.669541275547E+03    0.29884E+00    0.00000E+00  8424   0.900E+00 0.000E+00
CGA:   2    -0.669726557761E+03   -0.18528E+00   -0.18534E+00  8424   0.371E+00 0.835E-03
CGA:   3    -0.669804169351E+03   -0.77612E-01   -0.77603E-01  8424   0.122E+00-0.193E-03
CGA:   4    -0.669824074961E+03   -0.19906E-01   -0.19941E-01  8424   0.302E-01 0.371E-03
CGA:   5    -0.669829204781E+03   -0.51298E-02   -0.51550E-02  8424   0.629E-02 0.313E-03
CGA:   6    -0.669830429637E+03   -0.12249E-02   -0.12286E-02  8424   0.143E-02 0.720E-04
CGA:   7    -0.669830723991E+03   -0.29435E-03   -0.29912E-03  8424   0.408E-03 0.133E-03
CGA:   8    -0.669830810917E+03   -0.86926E-04   -0.90646E-04  8424   0.121E-03 0.987E-04
CGA:   9    -0.669830828216E+03   -0.17299E-04   -0.23550E-04  8424   0.538E-04 0.758E-04
CGA:  10    -0.669830828276E+03   -0.59677E-07   -0.56038E-05  8424   0.364E-04 0.424E-04
  24 F= -.66983083E+03 E0= -.66983083E+03  d E =0.928607E-02  mag=     2.0000
       N       E                     dE             d eps       ncg     rms          ort
SDA:   1    -0.669598009507E+03    0.23282E+00    0.00000E+00  8424   0.610E+00 0.000E+00
CGA:   2    -0.669736053540E+03   -0.13804E+00   -0.13804E+00  8424   0.282E+00 0.812E-03
CGA:   3    -0.669793946418E+03   -0.57893E-01   -0.57895E-01  8424   0.829E-01 0.659E-04
CGA:   4    -0.669807232521E+03   -0.13286E-01   -0.13315E-01  8424   0.192E-01 0.478E-03
CGA:   5    -0.669810462336E+03   -0.32298E-02   -0.32493E-02  8424   0.381E-02 0.390E-03
CGA:   6    -0.669811230078E+03   -0.76774E-03   -0.77024E-03  8424   0.940E-03 0.150E-03
CGA:   7    -0.669811406270E+03   -0.17619E-03   -0.18168E-03  8424   0.256E-03 0.195E-03
CGA:   8    -0.669811440214E+03   -0.33944E-04   -0.44365E-04  8424   0.105E-03 0.151E-03
CGA:   9    -0.669811443845E+03   -0.36315E-05   -0.11492E-04  8424   0.656E-04 0.783E-04
  25 F= -.66981144E+03 E0= -.66981144E+03  d E =0.193844E-01  mag=     2.0000
       N       E                     dE             d eps       ncg     rms          ort
SDA:   1    -0.667722488424E+03    0.20890E+01    0.00000E+00  8424   0.506E+01 0.000E+00
CGA:   2    -0.669096159484E+03   -0.13737E+01   -0.13736E+01  8424   0.259E+01-0.391E-03
CGA:   3    -0.669581799221E+03   -0.48564E+00   -0.48564E+00  8424   0.612E+00-0.132E-03
CGA:   4    -0.669680123561E+03   -0.98324E-01   -0.98371E-01  8424   0.143E+00 0.114E-02
CGA:   5    -0.669704546481E+03   -0.24423E-01   -0.24451E-01  8424   0.299E-01 0.969E-03
CGA:   6    -0.669710779267E+03   -0.62328E-02   -0.62289E-02  8424   0.771E-02 0.408E-03
CGA:   7    -0.669712442034E+03   -0.16628E-02   -0.16566E-02  8424   0.217E-02 0.435E-03
CGA:   8    -0.669712939160E+03   -0.49713E-03   -0.48991E-03  8424   0.679E-03 0.470E-03
CGA:   9    -0.669713075813E+03   -0.13665E-03   -0.14550E-03  8424   0.295E-03 0.379E-03
CGA:  10    -0.669713098680E+03   -0.22867E-04   -0.37838E-04  8424   0.180E-03 0.214E-03
CGA:  11    -0.669713100384E+03   -0.17037E-05   -0.17598E-04  8424   0.151E-03 0.164E-03
CGA:  12    -0.669713097775E+03    0.26090E-05   -0.12508E-04  8424   0.134E-03 0.141E-03
  26 F= -.66971310E+03 E0= -.66971310E+03  d E =0.983461E-01  mag=     2.0000
[...]
CGA:  11    -0.669636586680E+03   -0.11912E-04   -0.22967E-04  8424   0.149E-03 0.174E-03
CGA:  12    -0.669636587911E+03   -0.12310E-05   -0.12417E-04  8424   0.124E-03 0.135E-03
  32 F= -.66963659E+03 E0= -.66963659E+03  d E =-.643784E-01  mag=     2.0000
       N       E                     dE             d eps       ncg     rms          ort
SDA:   1    -0.669459271422E+03    0.17732E+00    0.00000E+00  8424   0.607E+00 0.000E+00
CGA:   2    -0.669582390241E+03   -0.12312E+00   -0.12307E+00  8424   0.248E+00 0.960E-03
CGA:   3    -0.669634785199E+03   -0.52395E-01   -0.52406E-01  8424   0.813E-01-0.267E-03
CGA:   4    -0.669648118662E+03   -0.13333E-01   -0.13333E-01  8424   0.201E-01 0.288E-03
CGA:   5    -0.669651515115E+03   -0.33965E-02   -0.33936E-02  8424   0.384E-02 0.454E-03
CGA:   6    -0.669652247085E+03   -0.73197E-03   -0.72444E-03  8424   0.828E-03 0.346E-03
CGA:   7    -0.669652382317E+03   -0.13523E-03   -0.13858E-03  8424   0.254E-03 0.326E-03
CGA:   8    -0.669652402258E+03   -0.19941E-04   -0.34548E-04  8424   0.133E-03 0.222E-03
CGA:   9    -0.669652401753E+03    0.50540E-06   -0.94939E-05  8424   0.981E-04 0.112E-03
  33 F= -.66965240E+03 E0= -.66965240E+03  d E =-.158138E-01  mag=     2.0000
       N       E                     dE             d eps       ncg     rms          ort
SDA:   1    -0.669537407387E+03    0.11499E+00    0.00000E+00  8424   0.381E+00 0.000E+00
CGA:   2    -0.669620366808E+03   -0.82959E-01   -0.82925E-01  8424   0.168E+00 0.456E-03
CGA:   3    -0.669654816312E+03   -0.34450E-01   -0.34443E-01  8424   0.501E-01 0.990E-04
CGA:   4    -0.669663040751E+03   -0.82244E-02   -0.82226E-02  8424   0.122E-01 0.244E-03
CGA:   5    -0.669665096645E+03   -0.20559E-02   -0.20521E-02  8424   0.236E-02 0.356E-03
CGA:   6    -0.669665534513E+03   -0.43787E-03   -0.43116E-03  8424   0.504E-03 0.331E-03
CGA:   7    -0.669665609202E+03   -0.74689E-04   -0.79665E-04  8424   0.176E-03 0.252E-03
CGA:   8    -0.669665619237E+03   -0.10036E-04   -0.22571E-04  8424   0.993E-04 0.174E-03
CGA:   9    -0.669665617357E+03    0.18803E-05   -0.61289E-05  8424   0.780E-04 0.870E-04
  34 F= -.66966562E+03 E0= -.66966562E+03  d E =-.132156E-01  mag=     2.0000
       N       E                     dE             d eps       ncg     rms          ort
SDA:   1    -0.669277766551E+03    0.38785E+00    0.00000E+00  8424   0.113E+01 0.000E+00
CGA:   2    -0.669575830495E+03   -0.29806E+00   -0.29827E+00  8424   0.551E+00-0.169E-02
CGA:   3    -0.669680627054E+03   -0.10480E+00   -0.10474E+00  8424   0.134E+00 0.123E-02
CGA:   4    -0.669702679392E+03   -0.22052E-01   -0.22053E-01  8424   0.324E-01-0.771E-04
CGA:   5    -0.669708239875E+03   -0.55605E-02   -0.55578E-02  8424   0.658E-02 0.137E-03
CGA:   6    -0.669709530048E+03   -0.12902E-02   -0.12718E-02  8424   0.155E-02 0.470E-03
CGA:   7    -0.669709874328E+03   -0.34428E-03   -0.33314E-03  8424   0.436E-03 0.249E-03
CGA:   8    -0.669709960261E+03   -0.85933E-04   -0.84141E-04  8424   0.161E-03 0.212E-03
CGA:   9    -0.669709974608E+03   -0.14347E-04   -0.23714E-04  8424   0.919E-04 0.158E-03
CGA:  10    -0.669709974705E+03   -0.97167E-07   -0.66923E-05  8424   0.716E-04 0.799E-04
  35 F= -.66970997E+03 E0= -.66970997E+03  d E =-.443573E-01  mag=     2.0000
       N       E                     dE             d eps       ncg     rms          ort
SDA:   1    -0.664656604772E+03    0.50534E+01    0.00000E+00  8424   0.166E+02 0.000E+00
CGA:   2    -0.667800150308E+03   -0.31435E+01   -0.31399E+01  8424   0.623E+01 0.666E-01
CGA:   3    -0.669172889243E+03   -0.13727E+01   -0.13733E+01  8424   0.221E+01-0.887E-02
CGA:   4    -0.669539349025E+03   -0.36646E+00   -0.36644E+00  8424   0.551E+00 0.540E-03
CGA:   5    -0.669633696871E+03   -0.94348E-01   -0.94327E-01  8424   0.109E+00 0.985E-03
CGA:   6    -0.669655475728E+03   -0.21779E-01   -0.21828E-01  8424   0.253E-01-0.110E-02
CGA:   7    -0.669661009844E+03   -0.55341E-02   -0.55336E-02  8424   0.738E-02 0.669E-05
CGA:   8    -0.669662897757E+03   -0.18879E-02   -0.19452E-02  8424   0.234E-02-0.551E-03
CGA:   9    -0.669663480018E+03   -0.58226E-03   -0.81838E-03  8424   0.190E-02-0.111E-02
CGA:  10    -0.669662349846E+03    0.11302E-02   -0.85302E-03  8424   0.903E-02-0.294E-02
CGA:  11    -0.669664039771E+03   -0.16899E-02   -0.16778E-02  8424   0.171E-02-0.520E-03
CGA:  12    -0.669664570481E+03   -0.53071E-03   -0.61031E-03  8424   0.105E-02-0.469E-03
CGA:  13    -0.669660553253E+03    0.40172E-02   -0.21636E-02  8424   0.357E-01-0.424E-02
CGA:  14    -0.669664886687E+03   -0.43334E-02   -0.43709E-02  8424   0.198E-02 0.409E-04
CGA:  15    -0.669665534243E+03   -0.64756E-03   -0.64449E-03  8424   0.837E-03-0.548E-04
CGA:  16    -0.669665757576E+03   -0.22333E-03   -0.50300E-03  8424   0.353E-02-0.117E-02
CGA:  17    -0.669666076715E+03   -0.31914E-03   -0.40939E-03  8424   0.270E-03 0.334E-03
CGA:  18    -0.669666155065E+03   -0.78350E-04   -0.21821E-03  8424   0.116E-02-0.387E-03
CGA:  19    -0.669666487977E+03   -0.33291E-03   -0.25292E-03  8424   0.435E-03-0.455E-03
CGA:  20    -0.669666578975E+03   -0.90998E-04   -0.84714E-04  8424   0.149E-03-0.977E-04
CGA:  21    -0.669666785780E+03   -0.20680E-03    0.16584E-04  8424   0.979E-04-0.438E-04
CGA:  22    -0.669666983082E+03   -0.19730E-03    0.48571E-05  8424   0.724E-04 0.535E-05
CGA:  23    -0.669667251347E+03   -0.26827E-03    0.40764E-05  8424   0.801E-04-0.531E-05
CGA:  24    -0.669667645571E+03   -0.39422E-03    0.23947E-05  8424   0.434E-04 0.333E-04
CGA:  25    -0.669667950636E+03   -0.30506E-03    0.21482E-05  8424   0.395E-04 0.253E-04
CGA:  26    -0.669668051560E+03   -0.10092E-03    0.32266E-05  8424   0.840E-04-0.289E-04
CGA:  27    -0.669668083742E+03   -0.32182E-04   -0.32146E-04  8424   0.300E-03-0.129E-03
CGA:  28    -0.669668189178E+03   -0.10544E-03   -0.68201E-04  8424   0.240E-03-0.240E-03
CGA:  29    -0.669668220727E+03   -0.31549E-04   -0.29954E-04  8424   0.125E-04-0.615E-05
CGA:  30    -0.669668312250E+03   -0.91523E-04    0.23566E-06  8424   0.127E-04 0.969E-05
CGA:  31    -0.669668387680E+03   -0.75430E-04    0.31841E-06  8424   0.184E-04 0.575E-05
CGA:  32    -0.669668593079E+03   -0.20540E-03    0.50335E-06  8424   0.110E-04 0.244E-04
CGA:  33    -0.669668670124E+03   -0.77045E-04    0.23130E-06  8424   0.129E-04 0.702E-05
CGA:  34    -0.669668747804E+03   -0.77679E-04    0.32214E-06  8424   0.187E-04 0.324E-05
CGA:  35    -0.669668936865E+03   -0.18906E-03    0.41567E-06  8424   0.138E-04 0.219E-04
CGA:  36    -0.669669007403E+03   -0.70538E-04    0.41237E-06  8424   0.180E-04 0.148E-05
CGA:  37    -0.669669176605E+03   -0.16920E-03    0.33860E-06  8424   0.161E-04 0.180E-04
CGA:  38    -0.669669252000E+03   -0.75395E-04    0.53255E-06  8424   0.162E-04-0.651E-07
CGA:  39    -0.669669391987E+03   -0.13999E-03    0.26719E-06  8424   0.157E-04 0.135E-04
CGA:  40    -0.669669457305E+03   -0.65318E-04    0.59755E-06  8424   0.105E-04 0.228E-05
CGA:  41    -0.669669571656E+03   -0.11435E-03    0.18098E-06  8424   0.111E-04 0.110E-04
CGA:  42    -0.669669638432E+03   -0.66776E-04    0.27411E-06  8424   0.755E-05 0.513E-05
CGA:  43    -0.669669747116E+03   -0.10868E-03    0.15945E-06  8424   0.899E-05 0.103E-04
CGA:  44    -0.669669811080E+03   -0.63963E-04    0.18462E-06  8424   0.668E-05 0.566E-05
CGA:  45    -0.669669873573E+03   -0.62493E-04    0.10154E-06  8424   0.630E-05 0.622E-05
CGA:  46    -0.669669935407E+03   -0.61834E-04    0.91108E-07  8424   0.614E-05 0.617E-05
CGA:  47    -0.669669996510E+03   -0.61103E-04    0.87548E-07  8424   0.602E-05 0.606E-05
CGA:  48    -0.669670057076E+03   -0.60566E-04    0.84589E-07  8424   0.590E-05 0.594E-05
CGA:  49    -0.669670116746E+03   -0.59670E-04    0.82409E-07  8424   0.578E-05 0.582E-05
CGA:  50    -0.669670176122E+03   -0.59376E-04    0.79518E-07  8424   0.568E-05 0.570E-05
CGA:  51    -0.669670234082E+03   -0.57960E-04    0.78587E-07  8424   0.561E-05 0.556E-05
CGA:  52    -0.669670292794E+03   -0.58712E-04    0.75683E-07  8424   0.572E-05 0.534E-05
CGA:  53    -0.669670347643E+03   -0.54849E-04    0.84697E-07  8424   0.662E-05 0.476E-05
CGA:  54    -0.669670407880E+03   -0.60237E-04    0.10385E-06  8424   0.113E-04 0.245E-05
CGA:  55    -0.669670558636E+03   -0.15076E-03    0.22629E-06  8424   0.556E-05 0.142E-04
CGA:  56    -0.669670608418E+03   -0.49783E-04    0.88735E-07  8424   0.769E-05 0.353E-05
CGA:  57    -0.669670668003E+03   -0.59585E-04    0.14380E-06  8424   0.187E-04-0.155E-05
CGA:  58    -0.669670850541E+03   -0.18254E-03    0.17100E-06  8424   0.286E-04 0.137E-04
CGA:  59    -0.669670807936E+03    0.42605E-04   -0.23343E-04  8424   0.941E-03-0.145E-03
CGA:  60    -0.669670979992E+03   -0.17206E-03   -0.12619E-03  8424   0.450E-04-0.183E-03
CGA:  61    -0.669670038323E+03    0.94167E-03   -0.51718E-03  8424   0.107E-01-0.508E-03
CGA:  62    -0.669671322561E+03   -0.12842E-02   -0.11836E-02  8424   0.382E-04-0.181E-03
CGA:  63    -0.669668393477E+03    0.29291E-02   -0.16271E-02  8424   0.253E-01-0.865E-03
CGA:  64    -0.669671485939E+03   -0.30925E-02   -0.31668E-02  8424   0.182E-02 0.407E-04
CGA:  65    -0.669671860094E+03   -0.37415E-03   -0.35887E-03  8424   0.653E-04-0.158E-04
CGA:  66    -0.669671926284E+03   -0.66189E-04   -0.22793E-04  8424   0.880E-04-0.591E-04
CGA:  67    -0.669671931880E+03   -0.55962E-05   -0.11329E-04  8424   0.621E-05 0.623E-05
  36 F= -.66967193E+03 E0= -.66967193E+03  d E =0.380428E-01  mag=     2.0000
       N       E                     dE             d eps       ncg     rms          ort
SDA:   1    -0.668382961348E+03    0.12890E+01    0.00000E+00  8424   0.446E+01 0.000E+00
CGA:   2    -0.669272680693E+03   -0.88972E+00   -0.89166E+00  8424   0.174E+01 0.105E-01
CGA:   3    -0.669644617551E+03   -0.37194E+00   -0.37129E+00  8424   0.581E+00 0.459E-02
CGA:   4    -0.669741664526E+03   -0.97047E-01   -0.97132E-01  8424   0.147E+00 0.588E-03
CGA:   5    -0.669767036331E+03   -0.25372E-01   -0.25470E-01  8424   0.296E-01 0.987E-04
CGA:   6    -0.669772899009E+03   -0.58627E-02   -0.58497E-02  8424   0.657E-02-0.170E-04
CGA:   7    -0.669774294545E+03   -0.13955E-02   -0.14591E-02  8424   0.196E-02 0.105E-03
CGA:   8    -0.669774709551E+03   -0.41501E-03   -0.46724E-03  8424   0.529E-03 0.936E-04
CGA:   9    -0.669774809633E+03   -0.10008E-03   -0.13507E-03  8424   0.161E-03 0.672E-04
CGA:  10    -0.669774806675E+03    0.29575E-05   -0.36913E-04  8424   0.659E-04 0.746E-04
CGA:  11    -0.669774788406E+03    0.18269E-04   -0.14303E-04  8424   0.364E-04 0.578E-04
CGA:  12    -0.669774776821E+03    0.11585E-04   -0.45828E-05  8424   0.253E-04 0.290E-04
CGA:  13    -0.669774765843E+03    0.10978E-04   -0.23014E-05  8424   0.221E-04 0.235E-04
CGA:  14    -0.669774756026E+03    0.98176E-05   -0.17440E-05  8424   0.202E-04 0.211E-04
  37 F= -.66977476E+03 E0= -.66977476E+03  d E =-.102824E+00  mag=     2.0000
       N       E                     dE             d eps       ncg     rms          ort
SDA:   1    -0.669395110381E+03    0.37966E+00    0.00000E+00  8424   0.128E+01 0.000E+00
CGA:   2    -0.669650688980E+03   -0.25558E+00   -0.25588E+00  8424   0.509E+00 0.164E-03
CGA:   3    -0.669758734164E+03   -0.10805E+00   -0.10797E+00  8424   0.169E+00-0.113E-03
CGA:   4    -0.669786858586E+03   -0.28124E-01   -0.28155E-01  8424   0.425E-01 0.489E-04
CGA:   5    -0.669794099577E+03   -0.72410E-02   -0.72954E-02  8424   0.836E-02 0.146E-03
CGA:   6    -0.669795717876E+03   -0.16183E-02   -0.16500E-02  8424   0.187E-02 0.103E-03
CGA:   7    -0.669796075134E+03   -0.35726E-03   -0.40015E-03  8424   0.535E-03 0.156E-03
CGA:   8    -0.669796150364E+03   -0.75231E-04   -0.11500E-03  8424   0.152E-03 0.145E-03
CGA:   9    -0.669796146909E+03    0.34550E-05   -0.28548E-04  8424   0.716E-04 0.103E-03
  38 F= -.66979615E+03 E0= -.66979615E+03  d E =-.213909E-01  mag=     2.0000
       N       E                     dE             d eps       ncg     rms          ort
SDA:   1    -0.669770717633E+03    0.25433E-01    0.00000E+00  8424   0.100E+00 0.000E+00
CGA:   2    -0.669791706792E+03   -0.20989E-01   -0.21000E-01  8424   0.421E-01 0.383E-04
CGA:   3    -0.669800493552E+03   -0.87868E-02   -0.88072E-02  8424   0.133E-01 0.906E-04
CGA:   4    -0.669802649955E+03   -0.21564E-02   -0.21802E-02  8424   0.326E-02 0.965E-04
CGA:   5    -0.669803168554E+03   -0.51860E-03   -0.54904E-03  8424   0.632E-03 0.134E-03
CGA:   6    -0.669803245625E+03   -0.77071E-04   -0.10873E-03  8424   0.152E-03 0.146E-03
CGA:   7    -0.669803242778E+03    0.28472E-05   -0.22466E-04  8424   0.697E-04 0.101E-03
  39 F= -.66980324E+03 E0= -.66980324E+03  d E =-.709587E-02  mag=     2.0000
       N       E                     dE             d eps       ncg     rms          ort
SDA:   1    -0.668789334550E+03    0.10139E+01    0.00000E+00  8424   0.286E+01 0.000E+00
CGA:   2    -0.669510005699E+03   -0.72067E+00   -0.72061E+00  8424   0.133E+01-0.917E-03
CGA:   3    -0.669770366274E+03   -0.26036E+00   -0.26043E+00  8424   0.337E+00 0.277E-03
CGA:   4    -0.669825574044E+03   -0.55208E-01   -0.55173E-01  8424   0.831E-01-0.343E-03
CGA:   5    -0.669839801591E+03   -0.14228E-01   -0.14243E-01  8424   0.170E-01 0.701E-04
CGA:   6    -0.669843194364E+03   -0.33928E-02   -0.34470E-02  8424   0.434E-02 0.470E-03
CGA:   7    -0.669844144122E+03   -0.94976E-03   -0.96733E-03  8424   0.130E-02 0.186E-03
CGA:   8    -0.669844452681E+03   -0.30856E-03   -0.32186E-03  8424   0.429E-03 0.195E-03
CGA:   9    -0.669844515511E+03   -0.62829E-04   -0.89042E-04  8424   0.173E-03 0.214E-03
CGA:  10    -0.669844523295E+03   -0.77845E-05   -0.34372E-04  8424   0.103E-03 0.162E-03
CGA:  11    -0.669844520917E+03    0.23781E-05   -0.12116E-04  8424   0.749E-04 0.848E-04
  40 F= -.66984452E+03 E0= -.66984452E+03  d E =-.412781E-01  mag=     2.0000
       N       E                     dE             d eps       ncg     rms          ort
SDA:   1    -0.669362678715E+03    0.48184E+00    0.00000E+00  8424   0.161E+01 0.000E+00
CGA:   2    -0.669675892715E+03   -0.31321E+00   -0.31335E+00  8424   0.624E+00 0.118E-02
CGA:   3    -0.669814927561E+03   -0.13903E+00   -0.13907E+00  8424   0.221E+00 0.654E-03
CGA:   4    -0.669850740720E+03   -0.35813E-01   -0.35825E-01  8424   0.521E-01 0.651E-04
CGA:   5    -0.669859706387E+03   -0.89657E-02   -0.89651E-02  8424   0.103E-01-0.200E-04
CGA:   6    -0.669861738104E+03   -0.20317E-02   -0.20418E-02  8424   0.253E-02 0.174E-03
CGA:   7    -0.669862256509E+03   -0.51841E-03   -0.52890E-03  8424   0.660E-03 0.224E-03
CGA:   8    -0.669862392337E+03   -0.13583E-03   -0.14461E-03  8424   0.192E-03 0.181E-03
CGA:   9    -0.669862412157E+03   -0.19821E-04   -0.34280E-04  8424   0.905E-04 0.135E-03
CGA:  10    -0.669862412335E+03   -0.17805E-06   -0.98307E-05  8424   0.625E-04 0.723E-04
  41 F= -.66986241E+03 E0= -.66986241E+03  d E =-.178914E-01  mag=     2.0000
       N       E                     dE             d eps       ncg     rms          ort
SDA:   1    -0.669396471322E+03    0.46594E+00    0.00000E+00  8424   0.144E+01 0.000E+00
CGA:   2    -0.669702946409E+03   -0.30648E+00   -0.30649E+00  8424   0.624E+00 0.892E-03
CGA:   3    -0.669834661058E+03   -0.13171E+00   -0.13173E+00  8424   0.193E+00 0.112E-02
CGA:   4    -0.669866118902E+03   -0.31458E-01   -0.31448E-01  8424   0.455E-01-0.204E-03
CGA:   5    -0.669873985769E+03   -0.78669E-02   -0.78506E-02  8424   0.948E-02-0.335E-03
CGA:   6    -0.669875902627E+03   -0.19169E-02   -0.19166E-02  8424   0.240E-02-0.169E-04
CGA:   7    -0.669876435860E+03   -0.53323E-03   -0.53325E-03  8424   0.704E-03-0.538E-05
CGA:   8    -0.669876620366E+03   -0.18451E-03   -0.18486E-03  8424   0.248E-03-0.866E-05
CGA:   9    -0.669876694923E+03   -0.74557E-04   -0.75312E-04  8424   0.123E-03-0.941E-05
CGA:  10    -0.669876458573E+03    0.23635E-03   -0.13305E-03  8424   0.199E-02-0.340E-03
CGA:  11    -0.669876801236E+03   -0.34266E-03   -0.35463E-03  8424   0.271E-03 0.507E-04
CGA:  12    -0.669876912175E+03   -0.11094E-03   -0.11082E-03  8424   0.152E-03-0.636E-04
CGA:  13    -0.669876963492E+03   -0.51317E-04   -0.53311E-04  8424   0.136E-03-0.353E-04
CGA:  14    -0.669875693593E+03    0.12699E-02   -0.68559E-03  8424   0.831E-02-0.720E-03
CGA:  15    -0.669876892301E+03   -0.11987E-02   -0.12766E-02  8424   0.112E-02 0.156E-03
CGA:  16    -0.669877286360E+03   -0.39406E-03   -0.36435E-03  8424   0.373E-03-0.770E-04
CGA:  17    -0.669877371824E+03   -0.85464E-04   -0.10061E-03  8424   0.199E-03 0.380E-04
CGA:  18    -0.669877510511E+03   -0.13869E-03   -0.12521E-03  8424   0.287E-03-0.140E-03
CGA:  19    -0.669877526949E+03   -0.16437E-04   -0.42751E-04  8424   0.415E-04 0.512E-04
CGA:  20    -0.669877557041E+03   -0.30092E-04   -0.26234E-04  8424   0.774E-04-0.382E-04
CGA:  21    -0.669877586426E+03   -0.29386E-04   -0.24499E-04  8424   0.284E-04-0.156E-04
CGA:  22    -0.669877627848E+03   -0.41422E-04    0.14647E-04  8424   0.113E-03-0.234E-04
CGA:  23    -0.669877640911E+03   -0.13063E-04   -0.16734E-04  8424   0.136E-04 0.784E-05
CGA:  24    -0.669877676299E+03   -0.35387E-04    0.41254E-05  8424   0.235E-04-0.147E-05
CGA:  25    -0.669877744300E+03   -0.68001E-04    0.35754E-05  8424   0.592E-04 0.298E-05
CGA:  26    -0.669878005041E+03   -0.26074E-03    0.86500E-05  8424   0.434E-04 0.469E-04
CGA:  27    -0.669877954803E+03    0.50238E-04   -0.51342E-04  8424   0.112E-02-0.173E-03
CGA:  28    -0.669878064380E+03   -0.10958E-03   -0.15116E-03  8424   0.428E-04 0.868E-04
CGA:  29    -0.669878088435E+03   -0.24055E-04   -0.33814E-04  8424   0.216E-03-0.726E-04
CGA:  30    -0.669878117000E+03   -0.28564E-04   -0.35008E-04  8424   0.159E-04 0.145E-04
CGA:  31    -0.669878145360E+03   -0.28361E-04    0.11335E-04  8424   0.194E-04-0.725E-05
CGA:  32    -0.669878201740E+03   -0.56379E-04    0.85496E-06  8424   0.383E-04-0.489E-05
CGA:  33    -0.669878339733E+03   -0.13799E-03    0.26737E-05  8424   0.531E-04 0.903E-05
CGA:  34    -0.669878540138E+03   -0.20041E-03    0.11818E-04  8424   0.464E-04 0.345E-05
CGA:  35    -0.669878772399E+03   -0.23226E-03    0.47432E-05  8424   0.715E-04-0.675E-05
CGA:  36    -0.669879128544E+03   -0.35615E-03    0.44472E-05  8424   0.952E-04-0.142E-04
CGA:  37    -0.669879571785E+03   -0.44324E-03    0.55852E-05  8424   0.104E-03-0.946E-05
CGA:  38    -0.669880204757E+03   -0.63297E-03    0.56941E-05  8424   0.196E-03-0.921E-04
CGA:  39    -0.669880203748E+03    0.10082E-05   -0.26822E-04  8424   0.284E-04 0.623E-04
  42 F= -.66988020E+03 E0= -.66988020E+03  d E =-.177914E-01  mag=     2.0000
       N       E                     dE             d eps       ncg     rms          ort
SDA:   1    -0.663592073864E+03    0.62881E+01    0.00000E+00  8424   0.200E+02 0.000E+00
CGA:   2    -0.667468148434E+03   -0.38761E+01   -0.39048E+01  8424   0.786E+01-0.458E-01
CGA:   3    -0.669182792588E+03   -0.17146E+01   -0.17099E+01  8424   0.263E+01 0.172E-01
CGA:   4    -0.669615338423E+03   -0.43255E+00   -0.43286E+00  8424   0.639E+00 0.302E-02
CGA:   5    -0.669723743477E+03   -0.10841E+00   -0.10886E+00  8424   0.128E+00 0.846E-03
CGA:   6    -0.669749664967E+03   -0.25921E-01   -0.25820E-01  8424   0.307E-01-0.348E-03
CGA:   7    -0.669756305752E+03   -0.66408E-02   -0.67036E-02  8424   0.873E-02 0.257E-03
CGA:   8    -0.669758408624E+03   -0.21029E-02   -0.21319E-02  8424   0.248E-02 0.140E-03
CGA:   9    -0.669759133112E+03   -0.72449E-03   -0.70572E-03  8424   0.925E-03-0.120E-03
CGA:  10    -0.669759341527E+03   -0.20842E-03   -0.22929E-03  8424   0.336E-03 0.123E-03
CGA:  11    -0.669759462539E+03   -0.12101E-03   -0.12394E-03  8424   0.158E-03 0.296E-04
CGA:  12    -0.669759506190E+03   -0.43651E-04   -0.49611E-04  8424   0.823E-04 0.459E-04
CGA:  13    -0.669759514522E+03   -0.83322E-05   -0.21853E-04  8424   0.552E-04 0.653E-04
CGA:  14    -0.669759523963E+03   -0.94413E-05   -0.14378E-04  8424   0.358E-04 0.352E-04
