       N       E                     dE             d eps       ncg     rms          ort
DAV:   1     0.826893397733E+04    0.82689E+04   -0.24660E+05  8424   0.238E+03
DAV:   2     0.918151860884E+03   -0.73508E+04   -0.68992E+04  8424   0.657E+02
DAV:   3    -0.675363044661E+03   -0.15935E+04   -0.14013E+04  8424   0.282E+02
DAV:   4    -0.830667503952E+03   -0.15530E+03   -0.15262E+03  8424   0.856E+01
DAV:   5    -0.833163843101E+03   -0.24963E+01   -0.24850E+01  8424   0.122E+01
SDA:   6    -0.250324736402E+03    0.58284E+03   -0.24850E+01  8424   0.453E+04 0.000E+00
CGA:   7    -0.496192701065E+03   -0.24587E+03   -0.42392E+03  8424   0.168E+04 0.129E+03
CGA:   8    -0.619439322699E+03   -0.12325E+03   -0.51627E+02  8424   0.228E+03-0.163E+03
CGA:   9    -0.638364952783E+03   -0.18926E+02   -0.86091E+01  8424   0.105E+03 0.748E+02
CGA:  10    -0.650851677232E+03   -0.12487E+02   -0.13303E+02  8424   0.111E+03 0.114E+02
CGA:  11    -0.654114329582E+03   -0.32627E+01   -0.54098E+01  8424   0.477E+02-0.176E+02
CGA:  12    -0.658983850351E+03   -0.48695E+01   -0.13486E+01  8424   0.429E+02 0.343E+02
CGA:  13    -0.660240712250E+03   -0.12569E+01   -0.35995E+01  8424   0.962E+02-0.807E+01
CGA:  14    -0.662662435953E+03   -0.24217E+01   -0.36541E+01  8424   0.119E+03-0.556E+02
CGA:  15    -0.663940447596E+03   -0.12780E+01   -0.64226E+01  8424   0.104E+03-0.439E+02
CGA:  16    -0.664700560377E+03   -0.76011E+00   -0.39013E+01  8424   0.120E+03-0.202E+02
CGA:  17    -0.661428869825E+03    0.32717E+01   -0.52648E+01  8424   0.230E+03-0.722E+02
CGA:  18    -0.660845982895E+03    0.58289E+00   -0.12303E+02  8424   0.384E+03-0.124E+03
CGA:  19    -0.661323406330E+03   -0.47742E+00   -0.24109E+02  8424   0.814E+02-0.433E+02
CGA:  20    -0.666704212636E+03   -0.53808E+01   -0.25461E+01  8424   0.309E+02 0.387E+02
CGA:  21    -0.667223973037E+03   -0.51976E+00   -0.10953E+01  8424   0.363E+02-0.361E+02
CGA:  22    -0.667799855739E+03   -0.57588E+00   -0.14749E+01  8424   0.109E+02-0.125E+02
CGA:  23    -0.668193146657E+03   -0.39329E+00   -0.48400E+00  8424   0.179E+01-0.289E+00
CGA:  24    -0.668350715266E+03   -0.15757E+00   -0.16291E+00  8424   0.130E+01 0.811E-01
CGA:  25    -0.668619396630E+03   -0.26868E+00   -0.24918E+00  8424   0.843E+00 0.210E+00
CGA:  26    -0.668708769374E+03   -0.89373E-01   -0.91677E-01  8424   0.376E+00 0.162E-01
CGA:  27    -0.668753145331E+03   -0.44376E-01   -0.44376E-01  8424   0.250E+00 0.105E-01
CGA:  28    -0.668798709245E+03   -0.45564E-01   -0.43299E-01  8424   0.155E+00 0.282E-01
CGA:  29    -0.668820720680E+03   -0.22011E-01   -0.22122E-01  8424   0.138E+00-0.623E-02
CGA:  30    -0.668867508608E+03   -0.46788E-01   -0.59482E-01  8424   0.291E+00-0.398E-01
CGA:  31    -0.668895644330E+03   -0.28136E-01   -0.28143E-01  8424   0.188E+00-0.266E-01
CGA:  32    -0.668927799406E+03   -0.32155E-01   -0.32849E-01  8424   0.170E+00-0.218E-01
CGA:  33    -0.668676453008E+03    0.25135E+00   -0.10306E+00  8424   0.321E+01-0.649E+00
CGA:  34    -0.669004690125E+03   -0.32824E+00   -0.35114E+00  8424   0.365E+00-0.149E+00
CGA:  35    -0.669052560750E+03   -0.47871E-01   -0.47281E-01  8424   0.192E+00 0.680E-02
CGA:  36    -0.669119122464E+03   -0.66562E-01   -0.66308E-01  8424   0.115E+00 0.125E-02
CGA:  37    -0.669150010691E+03   -0.30888E-01   -0.31035E-01  8424   0.763E-01-0.785E-02
CGA:  38    -0.669163968915E+03   -0.13958E-01   -0.13752E-01  8424   0.614E-01-0.273E-02
CGA:  39    -0.669181400524E+03   -0.17432E-01   -0.18102E-01  8424   0.666E-01-0.115E-01
CGA:  40    -0.669199319872E+03   -0.17919E-01   -0.31007E-01  8424   0.173E+00-0.416E-01
CGA:  41    -0.669227281987E+03   -0.27962E-01   -0.27728E-01  8424   0.604E-01-0.195E-02
CGA:  42    -0.669255763620E+03   -0.28482E-01   -0.35740E-01  8424   0.111E+00-0.212E-01
CGA:  43    -0.669277895381E+03   -0.22132E-01   -0.22827E-01  8424   0.101E+00-0.198E-01
CGA:  44    -0.669305735270E+03   -0.27840E-01   -0.34442E-01  8424   0.169E+00-0.452E-01
CGA:  45    -0.669326462851E+03   -0.20728E-01   -0.17710E-01  8424   0.112E+00-0.310E-01
CGA:  46    -0.669343741982E+03   -0.17279E-01   -0.15283E-01  8424   0.725E-01-0.222E-01
CGA:  47    -0.669362316209E+03   -0.18574E-01   -0.21070E-01  8424   0.102E+00-0.276E-01
CGA:  48    -0.669377371511E+03   -0.15055E-01   -0.13626E-01  8424   0.933E-01-0.213E-01
CGA:  49    -0.669393311242E+03   -0.15940E-01   -0.14590E-01  8424   0.550E-01-0.179E-01
CGA:  50    -0.669402530090E+03   -0.92188E-02   -0.85510E-02  8424   0.421E-01-0.906E-02
CGA:  51    -0.669411314356E+03   -0.87843E-02   -0.87045E-02  8424   0.364E-01-0.449E-02
CGA:  52    -0.669417410511E+03   -0.60962E-02   -0.60494E-02  8424   0.261E-01-0.670E-03
CGA:  53    -0.669424222360E+03   -0.68118E-02   -0.68113E-02  8424   0.259E-01-0.149E-03
CGA:  54    -0.669429544446E+03   -0.53221E-02   -0.53486E-02  8424   0.187E-01 0.150E-03
CGA:  55    -0.669434129648E+03   -0.45852E-02   -0.46247E-02  8424   0.159E-01 0.281E-02
CGA:  56    -0.669437050338E+03   -0.29207E-02   -0.31630E-02  8424   0.643E-02 0.281E-02
CGA:  57    -0.669438907542E+03   -0.18572E-02   -0.18632E-02  8424   0.562E-02 0.681E-03
CGA:  58    -0.669440895257E+03   -0.19877E-02   -0.20801E-02  8424   0.729E-02-0.125E-02
CGA:  59    -0.669442686685E+03   -0.17914E-02   -0.19824E-02  8424   0.941E-02-0.233E-02
CGA:  60    -0.669444402324E+03   -0.17156E-02   -0.17658E-02  8424   0.113E-01-0.429E-02
CGA:  61    -0.669380638261E+03    0.63764E-01   -0.34674E-01  8424   0.219E+00-0.553E-01
CGA:  62    -0.669436280397E+03   -0.55642E-01   -0.56086E-01  8424   0.706E-01 0.301E-02
CGA:  63    -0.669456562273E+03   -0.20282E-01   -0.20003E-01  8424   0.286E-01-0.127E-02
CGA:  64    -0.669472188845E+03   -0.15627E-01   -0.15924E-01  8424   0.267E-01-0.275E-02
CGA:  65    -0.669479978529E+03   -0.77897E-02   -0.75035E-02  8424   0.104E-01-0.174E-02
CGA:  66    -0.669484270592E+03   -0.42921E-02   -0.41993E-02  8424   0.853E-02-0.404E-02
CGA:  67    -0.669486627643E+03   -0.23571E-02   -0.30619E-02  8424   0.152E-01-0.541E-02
CGA:  68    -0.669489626597E+03   -0.29990E-02   -0.27304E-02  8424   0.404E-02-0.106E-02
CGA:  69    -0.669491316529E+03   -0.16899E-02   -0.16918E-02  8424   0.260E-02-0.103E-02
CGA:  70    -0.669493128400E+03   -0.18119E-02    0.96099E-02  8424   0.271E-02-0.804E-03
CGA:  71    -0.669495050373E+03   -0.19220E-02    0.29260E-02  8424   0.204E-02-0.839E-03
CGA:  72    -0.669497052698E+03   -0.20023E-02    0.54642E-03  8424   0.168E-02-0.609E-03
CGA:  73    -0.669498996791E+03   -0.19441E-02    0.31815E-03  8424   0.212E-02-0.526E-03
CGA:  74    -0.669502075011E+03   -0.30782E-02    0.24048E-03  8424   0.132E-02 0.296E-03
CGA:  75    -0.669504464093E+03   -0.23891E-02    0.43619E-03  8424   0.871E-03 0.317E-03
CGA:  76    -0.669506522654E+03   -0.20586E-02    0.21585E-03  8424   0.856E-03 0.419E-04
CGA:  77    -0.669508584980E+03   -0.20623E-02    0.12884E-03  8424   0.793E-03 0.826E-04
CGA:  78    -0.669510865738E+03   -0.22808E-02    0.10135E-03  8424   0.997E-03 0.119E-03
CGA:  79    -0.669514621315E+03   -0.37556E-02    0.96956E-04  8424   0.805E-03 0.286E-03
CGA:  80    -0.669518104757E+03   -0.34834E-02    0.84640E-04  8424   0.706E-03 0.312E-03
CGA:  81    -0.669521731494E+03   -0.36267E-02    0.70308E-04  8424   0.806E-03 0.339E-03
CGA:  82    -0.669526495160E+03   -0.47637E-02    0.77720E-04  8424   0.802E-03 0.233E-03
CGA:  83    -0.669531579024E+03   -0.50839E-02    0.51775E-04  8424   0.534E-03 0.354E-03
CGA:  84    -0.669535281895E+03   -0.37029E-02    0.39531E-04  8424   0.606E-03 0.116E-03
CGA:  85    -0.669539687859E+03   -0.44060E-02    0.29303E-04  8424   0.551E-03 0.771E-04
CGA:  86    -0.669543976655E+03   -0.42888E-02    0.20789E-04  8424   0.542E-03 0.142E-03
CGA:  87    -0.669548223559E+03   -0.42469E-02    0.25807E-04  8424   0.491E-03 0.120E-03
CGA:  88    -0.669552121111E+03   -0.38976E-02    0.21502E-04  8424   0.488E-03 0.584E-04
CGA:  89    -0.669556202091E+03   -0.40810E-02    0.16719E-04  8424   0.589E-03 0.912E-05
CGA:  90    -0.669561016933E+03   -0.48148E-02    0.16968E-04  8424   0.482E-03 0.944E-04
CGA:  91    -0.669565082420E+03   -0.40655E-02    0.17669E-04  8424   0.530E-03 0.109E-03
CGA:  92    -0.669569807376E+03   -0.47250E-02    0.20520E-04  8424   0.692E-03-0.908E-04
CGA:  93    -0.669575812270E+03   -0.60049E-02    0.12059E-04  8424   0.823E-03-0.114E-04
CGA:  94    -0.669583168507E+03   -0.73562E-02    0.19878E-04  8424   0.107E-02 0.276E-04
CGA:  95    -0.669593273615E+03   -0.10105E-01    0.26778E-04  8424   0.147E-02-0.575E-03
CGA:  96    -0.669593375177E+03   -0.10156E-03   -0.24244E-03  8424   0.480E-03 0.497E-03
CGA:  97    -0.669593353210E+03    0.21966E-04   -0.97649E-04  8424   0.341E-03 0.422E-03
CGA:  98    -0.669593330827E+03    0.22384E-04   -0.49076E-04  8424   0.249E-03 0.258E-03
CGA:  99    -0.669593284830E+03    0.45997E-04   -0.25995E-04  8424   0.231E-03 0.238E-03
CGA: 100    -0.669593241199E+03    0.43631E-04   -0.22259E-04  8424   0.218E-03 0.223E-03
CGA: 101    -0.669593199460E+03    0.41739E-04   -0.19352E-04  8424   0.208E-03 0.212E-03
CGA: 102    -0.669593159591E+03    0.39869E-04   -0.17105E-04  8424   0.200E-03 0.203E-03
CGA: 103    -0.669593121562E+03    0.38029E-04   -0.15317E-04  8424   0.193E-03 0.196E-03
CGA: 104    -0.669593085316E+03    0.36246E-04   -0.13854E-04  8424   0.188E-03 0.190E-03
CGA: 105    -0.669593050779E+03    0.34537E-04   -0.12631E-04  8424   0.183E-03 0.185E-03
CGA: 106    -0.669593017873E+03    0.32906E-04   -0.11592E-04  8424   0.179E-03 0.181E-03
CGA: 107    -0.669592986518E+03    0.31356E-04   -0.10697E-04  8424   0.176E-03 0.177E-03
CGA: 108    -0.669592956634E+03    0.29884E-04   -0.99155E-05  8424   0.173E-03 0.174E-03
CGA: 109    -0.669592928148E+03    0.28487E-04   -0.92271E-05  8424   0.170E-03 0.171E-03
CGA: 110    -0.669592900986E+03    0.27162E-04   -0.86151E-05  8424   0.168E-03 0.169E-03
CGA: 111    -0.669592875081E+03    0.25905E-04   -0.80670E-05  8424   0.166E-03 0.167E-03
CGA: 112    -0.669592850369E+03    0.24712E-04   -0.75727E-05  8424   0.164E-03 0.165E-03
CGA: 113    -0.669592826789E+03    0.23580E-04   -0.71242E-05  8424   0.162E-03 0.163E-03
CGA: 114    -0.669592804284E+03    0.22505E-04   -0.67152E-05  8424   0.161E-03 0.161E-03
CGA: 115    -0.669592782801E+03    0.21483E-04   -0.63403E-05  8424   0.159E-03 0.160E-03
CGA: 116    -0.669592762288E+03    0.20513E-04   -0.59952E-05  8424   0.158E-03 0.159E-03
CGA: 117    -0.669592742699E+03    0.19590E-04   -0.56764E-05  8424   0.157E-03 0.157E-03
CGA: 118    -0.669592723987E+03    0.18712E-04   -0.53807E-05  8424   0.156E-03 0.156E-03
CGA: 119    -0.669592706109E+03    0.17877E-04   -0.51058E-05  8424   0.155E-03 0.155E-03
CGA: 120    -0.669592689027E+03    0.17083E-04   -0.48493E-05  8424   0.154E-03 0.154E-03
CGA: 121    -0.669592672700E+03    0.16327E-04   -0.46095E-05  8424   0.153E-03 0.154E-03
CGA: 122    -0.669592657093E+03    0.15607E-04   -0.43848E-05  8424   0.153E-03 0.153E-03
CGA: 123    -0.669592642171E+03    0.14922E-04   -0.41739E-05  8424   0.152E-03 0.152E-03
CGA: 124    -0.669592627902E+03    0.14269E-04   -0.39755E-05  8424   0.151E-03 0.152E-03
CGA: 125    -0.669592614255E+03    0.13648E-04   -0.37888E-05  8424   0.151E-03 0.151E-03
CGA: 126    -0.669592601198E+03    0.13056E-04   -0.36129E-05  8424   0.150E-03 0.150E-03
CGA: 127    -0.669592588705E+03    0.12494E-04   -0.34469E-05  8424   0.150E-03 0.150E-03
CGA: 128    -0.669592576747E+03    0.11958E-04   -0.32899E-05  8424   0.149E-03 0.150E-03
CGA: 129    -0.669592565300E+03    0.11447E-04   -0.31411E-05  8424   0.149E-03 0.149E-03
CGA: 130    -0.669592554340E+03    0.10960E-04   -0.30001E-05  8424   0.149E-03 0.149E-03
CGA: 131    -0.669592543844E+03    0.10496E-04   -0.28660E-05  8424   0.148E-03 0.149E-03
CGA: 132    -0.669592533791E+03    0.10053E-04   -0.27383E-05  8424   0.148E-03 0.148E-03
CGA: 133    -0.669592524162E+03    0.96296E-05   -0.26165E-05  8424   0.148E-03 0.148E-03
   1 F= -.66959252E+03 E0= -.66959252E+03  d E =-.669593E+03  mag=     2.0000
       N       E                     dE             d eps       ncg     rms          ort
SDA:   1    -0.669595163256E+03   -0.26295E-02    0.00000E+00  8424   0.286E-02 0.000E+00
CGA:   2    -0.669595599437E+03   -0.43618E-03   -0.38409E-03  8424   0.103E-02 0.124E-02
CGA:   3    -0.669595724976E+03   -0.12554E-03   -0.13082E-03  8424   0.605E-03 0.994E-03
CGA:   4    -0.669595750348E+03   -0.25372E-04   -0.39928E-04  8424   0.460E-03 0.518E-03
CGA:   5    -0.669595757359E+03   -0.70108E-05   -0.24046E-04  8424   0.393E-03 0.422E-03
CGA:   6    -0.669595757956E+03   -0.59667E-06   -0.17540E-04  8424   0.349E-03 0.368E-03
CGA:   7    -0.669595755376E+03    0.25803E-05   -0.13700E-04  8424   0.318E-03 0.331E-03
CGA:   8    -0.669595751058E+03    0.43174E-05   -0.11136E-04  8424   0.293E-03 0.304E-03
   2 F= -.66959575E+03 E0= -.66959575E+03  d E =-.322690E-02  mag=     2.0000
       N       E                     dE             d eps       ncg     rms          ort
SDA:   1    -0.669502602191E+03    0.93153E-01    0.00000E+00  8424   0.405E+00 0.000E+00
CGA:   2    -0.669594440161E+03   -0.91838E-01   -0.91097E-01  8424   0.175E+00 0.510E-02
CGA:   3    -0.669630346513E+03   -0.35906E-01   -0.35920E-01  8424   0.523E-01-0.151E-03
CGA:   4    -0.669638899688E+03   -0.85532E-02   -0.84298E-02  8424   0.124E-01 0.182E-02
CGA:   5    -0.669640987191E+03   -0.20875E-02   -0.19938E-02  8424   0.242E-02 0.161E-02
CGA:   6    -0.669641399892E+03   -0.41270E-03   -0.37411E-03  8424   0.716E-03 0.105E-02
CGA:   7    -0.669641463897E+03   -0.64005E-04   -0.80284E-04  8424   0.414E-03 0.690E-03
CGA:   8    -0.669641470054E+03   -0.61573E-05   -0.22930E-04  8424   0.336E-03 0.370E-03
CGA:   9    -0.669641469708E+03    0.34591E-06   -0.15803E-04  8424   0.296E-03 0.314E-03
CGA:  10    -0.669641466654E+03    0.30542E-05   -0.12248E-04  8424   0.269E-03 0.281E-03
CGA:  11    -0.669641462247E+03    0.44069E-05   -0.10044E-04  8424   0.250E-03 0.259E-03
   3 F= -.66964146E+03 E0= -.66964146E+03  d E =-.457112E-01  mag=     2.0000
       N       E                     dE             d eps       ncg     rms          ort
SDA:   1    -0.659700159564E+03    0.99413E+01    0.00000E+00  8424   0.283E+02 0.000E+00
CGA:   2    -0.666526123624E+03   -0.68260E+01   -0.68134E+01  8424   0.124E+02 0.959E-01
CGA:   3    -0.668959627417E+03   -0.24335E+01   -0.24374E+01  8424   0.351E+01-0.427E-01
CGA:   4    -0.669553378070E+03   -0.59375E+00   -0.59369E+00  8424   0.899E+00 0.501E-03
CGA:   5    -0.669706397694E+03   -0.15302E+00   -0.15264E+00  8424   0.190E+00 0.562E-02
CGA:   6    -0.669744581129E+03   -0.38183E-01   -0.37988E-01  8424   0.454E-01 0.213E-02
CGA:   7    -0.669755332691E+03   -0.10752E-01   -0.10458E-01  8424   0.155E-01 0.252E-02
CGA:   8    -0.669759386925E+03   -0.40542E-02   -0.37774E-02  8424   0.507E-02 0.244E-02
CGA:   9    -0.669760865288E+03   -0.14784E-02   -0.13024E-02  8424   0.191E-02 0.177E-02
CGA:  10    -0.669761341124E+03   -0.47584E-03   -0.42357E-03  8424   0.973E-03 0.142E-02
CGA:  11    -0.669761479322E+03   -0.13820E-03   -0.13309E-03  8424   0.606E-03 0.726E-03
CGA:  12    -0.669761540507E+03   -0.61185E-04   -0.69572E-04  8424   0.495E-03 0.546E-03
CGA:  13    -0.669761576714E+03   -0.36207E-04   -0.49660E-04  8424   0.432E-03 0.462E-03
CGA:  14    -0.669761600781E+03   -0.24067E-04   -0.39272E-04  8424   0.389E-03 0.410E-03
CGA:  15    -0.669761617559E+03   -0.16778E-04   -0.32589E-04  8424   0.358E-03 0.373E-03
CGA:  16    -0.669761629530E+03   -0.11971E-04   -0.27858E-04  8424   0.333E-03 0.345E-03
CGA:  17    -0.669761638150E+03   -0.86199E-05   -0.24308E-04  8424   0.313E-03 0.323E-03
CGA:  18    -0.669761644344E+03   -0.61945E-05   -0.21537E-04  8424   0.296E-03 0.304E-03
CGA:  19    -0.669761648736E+03   -0.43917E-05   -0.19308E-04  8424   0.282E-03 0.289E-03
CGA:  20    -0.669761651762E+03   -0.30256E-05   -0.17475E-04  8424   0.271E-03 0.276E-03
CGA:  21    -0.669761653738E+03   -0.19758E-05   -0.15940E-04  8424   0.260E-03 0.265E-03
CGA:  22    -0.669761654898E+03   -0.11603E-05   -0.14635E-04  8424   0.251E-03 0.256E-03
CGA:  23    -0.669761655419E+03   -0.52098E-06   -0.13511E-04  8424   0.243E-03 0.247E-03
CGA:  24    -0.669761655436E+03   -0.16727E-07   -0.12533E-04  8424   0.236E-03 0.240E-03
CGA:  25    -0.669761655054E+03    0.38165E-06   -0.11675E-04  8424   0.230E-03 0.233E-03
CGA:  26    -0.669761654358E+03    0.69641E-06   -0.10917E-04  8424   0.225E-03 0.227E-03
CGA:  27    -0.669761653412E+03    0.94552E-06   -0.10241E-04  8424   0.220E-03 0.222E-03
   4 F= -.66976165E+03 E0= -.66976165E+03  d E =-.120191E+00  mag=     2.0000
       N       E                     dE             d eps       ncg     rms          ort
SDA:   1    -0.669292628335E+03    0.46903E+00    0.00000E+00  8424   0.162E+01 0.000E+00
CGA:   2    -0.669615112959E+03   -0.32248E+00   -0.32205E+00  8424   0.642E+00 0.384E-02
CGA:   3    -0.669752602548E+03   -0.13749E+00   -0.13735E+00  8424   0.213E+00 0.102E-02
CGA:   4    -0.669787727238E+03   -0.35125E-01   -0.35089E-01  8424   0.528E-01 0.524E-03
CGA:   5    -0.669796827589E+03   -0.91004E-02   -0.90515E-02  8424   0.110E-01 0.736E-03
CGA:   6    -0.669799006366E+03   -0.21788E-02   -0.21281E-02  8424   0.238E-02 0.615E-03
CGA:   7    -0.669799499996E+03   -0.49363E-03   -0.45147E-03  8424   0.711E-03 0.627E-03
CGA:   8    -0.669799629241E+03   -0.12925E-03   -0.12035E-03  8424   0.343E-03 0.497E-03
CGA:   9    -0.669799664734E+03   -0.35493E-04   -0.37483E-04  8424   0.229E-03 0.265E-03
CGA:  10    -0.669799678920E+03   -0.14186E-04   -0.20174E-04  8424   0.197E-03 0.210E-03
CGA:  11    -0.669799687382E+03   -0.84622E-05   -0.15358E-04  8424   0.178E-03 0.186E-03
CGA:  12    -0.669799693045E+03   -0.56633E-05   -0.12794E-04  8424   0.166E-03 0.171E-03
CGA:  13    -0.669799697044E+03   -0.39984E-05   -0.11128E-04  8424   0.157E-03 0.161E-03
   5 F= -.66979970E+03 E0= -.66979970E+03  d E =-.380436E-01  mag=     2.0000
       N       E                     dE             d eps       ncg     rms          ort
SDA:   1    -0.668942668955E+03    0.85702E+00    0.00000E+00  8424   0.256E+01 0.000E+00
CGA:   2    -0.669506271732E+03   -0.56360E+00   -0.56297E+00  8424   0.111E+01 0.532E-02
CGA:   3    -0.669731977567E+03   -0.22571E+00   -0.22593E+00  8424   0.328E+00-0.271E-02
CGA:   4    -0.669786262931E+03   -0.54285E-01   -0.54309E-01  8424   0.821E-01-0.546E-03
CGA:   5    -0.669800248875E+03   -0.13986E-01   -0.13950E-01  8424   0.170E-01 0.701E-03
CGA:   6    -0.669803644712E+03   -0.33958E-02   -0.33574E-02  8424   0.383E-02 0.516E-03
CGA:   7    -0.669804494194E+03   -0.84948E-03   -0.80546E-03  8424   0.117E-02 0.559E-03
CGA:   8    -0.669804767129E+03   -0.27294E-03   -0.24603E-03  8424   0.436E-03 0.491E-03
CGA:   9    -0.669804857265E+03   -0.90135E-04   -0.87087E-04  8424   0.253E-03 0.363E-03
CGA:  10    -0.669804885496E+03   -0.28231E-04   -0.30614E-04  8424   0.183E-03 0.204E-03
CGA:  11    -0.669804898533E+03   -0.13036E-04   -0.18418E-04  8424   0.163E-03 0.171E-03
CGA:  12    -0.669804907844E+03   -0.93116E-05   -0.15176E-04  8424   0.151E-03 0.156E-03
CGA:  13    -0.669804915160E+03   -0.73160E-05   -0.13292E-04  8424   0.143E-03 0.146E-03
CGA:  14    -0.669804921223E+03   -0.60622E-05   -0.12000E-04  8424   0.136E-03 0.139E-03
CGA:  15    -0.669804926426E+03   -0.52037E-05   -0.11031E-04  8424   0.131E-03 0.133E-03
CGA:  16    -0.669804931012E+03   -0.45859E-05   -0.10265E-04  8424   0.127E-03 0.129E-03
   6 F= -.66980493E+03 E0= -.66980493E+03  d E =-.523397E-02  mag=     2.0000
       N       E                     dE             d eps       ncg     rms          ort
SDA:   1    -0.668841559108E+03    0.96337E+00    0.00000E+00  8424   0.243E+01 0.000E+00
CGA:   2    -0.669546496560E+03   -0.70494E+00   -0.70474E+00  8424   0.104E+01 0.123E-02
CGA:   3    -0.669737878863E+03   -0.19138E+00   -0.19159E+00  8424   0.273E+00-0.367E-02
CGA:   4    -0.669784117519E+03   -0.46239E-01   -0.46255E-01  8424   0.670E-01-0.424E-03
CGA:   5    -0.669795368713E+03   -0.11251E-01   -0.11227E-01  8424   0.145E-01 0.655E-03
CGA:   6    -0.669798327318E+03   -0.29586E-02   -0.29324E-02  8424   0.360E-02 0.385E-03
CGA:   7    -0.669799190086E+03   -0.86277E-03   -0.82168E-03  8424   0.127E-02 0.479E-03
CGA:   8    -0.669799530594E+03   -0.34051E-03   -0.30887E-03  8424   0.521E-03 0.429E-03
CGA:   9    -0.669799678430E+03   -0.14784E-03   -0.13168E-03  8424   0.305E-03 0.361E-03
CGA:  10    -0.669799733910E+03   -0.55480E-04   -0.51119E-04  8424   0.192E-03 0.209E-03
CGA:  11    -0.669799767485E+03   -0.33575E-04   -0.31085E-04  8424   0.166E-03 0.176E-03
CGA:  12    -0.669799794676E+03   -0.27191E-04   -0.25946E-04  8424   0.152E-03 0.158E-03
CGA:  13    -0.669799820145E+03   -0.25469E-04   -0.24074E-04  8424   0.142E-03 0.147E-03
CGA:  14    -0.669799844786E+03   -0.24641E-04   -0.22961E-04  8424   0.135E-03 0.138E-03
CGA:  15    -0.669799869618E+03   -0.24832E-04   -0.22541E-04  8424   0.129E-03 0.131E-03
CGA:  16    -0.669799895330E+03   -0.25711E-04   -0.22589E-04  8424   0.124E-03 0.126E-03
CGA:  17    -0.669799922683E+03   -0.27353E-04   -0.23113E-04  8424   0.120E-03 0.121E-03
CGA:  18    -0.669799952597E+03   -0.29914E-04   -0.24177E-04  8424   0.116E-03 0.118E-03
CGA:  19    -0.669799986284E+03   -0.33687E-04   -0.25922E-04  8424   0.113E-03 0.114E-03
CGA:  20    -0.669800025791E+03   -0.39507E-04   -0.28763E-04  8424   0.110E-03 0.111E-03
CGA:  21    -0.669800074294E+03   -0.48503E-04   -0.33275E-04  8424   0.107E-03 0.108E-03
CGA:  22    -0.669800141431E+03   -0.67137E-04   -0.42702E-04  8424   0.104E-03 0.105E-03
CGA:  23    -0.669800233013E+03   -0.91581E-04   -0.55246E-04  8424   0.103E-03 0.102E-03
CGA:  24    -0.669800277695E+03   -0.44682E-04    0.12961E-03  8424   0.110E-03 0.949E-04
CGA:  25    -0.669800299298E+03   -0.21604E-04   -0.21787E-04  8424   0.133E-03 0.802E-04
CGA:  26    -0.669800363340E+03   -0.64042E-04    0.65847E-04  8424   0.203E-03 0.376E-04
CGA:  27    -0.669800962586E+03   -0.59925E-03   -0.20575E-02  8424   0.576E-03 0.196E-03
CGA:  28    -0.669801085408E+03   -0.12282E-03   -0.75218E-04  8424   0.283E-03-0.204E-03
CGA:  29    -0.669801024755E+03    0.60653E-04   -0.27964E-03  8424   0.669E-02-0.304E-03
CGA:  30    -0.669801762355E+03   -0.73760E-03   -0.62756E-03  8424   0.338E-03-0.347E-03
CGA:  31    -0.669801823961E+03   -0.61606E-04   -0.56917E-04  8424   0.162E-03-0.223E-04
CGA:  32    -0.669802021961E+03   -0.19800E-03    0.41392E-04  8424   0.147E-03 0.109E-03
CGA:  33    -0.669802138569E+03   -0.11661E-03    0.10201E-02  8424   0.308E-03-0.107E-04
CGA:  34    -0.669802461907E+03   -0.32334E-03    0.11714E-03  8424   0.583E-03 0.714E-04
CGA:  35    -0.669803447063E+03   -0.98516E-03    0.17682E-03  8424   0.363E-03 0.577E-03
CGA:  36    -0.669803584078E+03   -0.13702E-03   -0.12218E-03  8424   0.100E-02-0.308E-03
CGA:  37    -0.669803688236E+03   -0.10416E-03   -0.10452E-03  8424   0.995E-04 0.757E-06
CGA:  38    -0.669803848055E+03   -0.15982E-03    0.15641E-04  8424   0.969E-04 0.863E-04
CGA:  39    -0.669804008876E+03   -0.16082E-03    0.14320E-04  8424   0.143E-03 0.585E-04
CGA:  40    -0.669804026117E+03   -0.17241E-04   -0.99730E-04  8424   0.202E-02-0.252E-03
CGA:  41    -0.669804343944E+03   -0.31783E-03   -0.24495E-03  8424   0.164E-03-0.277E-03
CGA:  42    -0.669804484591E+03   -0.14065E-03    0.78821E-04  8424   0.212E-03 0.225E-04
CGA:  43    -0.669804879945E+03   -0.39535E-03    0.37463E-04  8424   0.106E-03 0.184E-03
CGA:  44    -0.669805041169E+03   -0.16122E-03    0.18795E-04  8424   0.181E-03 0.387E-04
CGA:  45    -0.669805469870E+03   -0.42870E-03    0.34601E-04  8424   0.146E-03 0.188E-03
CGA:  46    -0.669805637316E+03   -0.16745E-03    0.50600E-04  8424   0.161E-03 0.226E-04
CGA:  47    -0.669805964457E+03   -0.32714E-03    0.25443E-04  8424   0.234E-03 0.100E-03
CGA:  48    -0.669802547155E+03    0.34173E-02   -0.18551E-02  8424   0.334E-01-0.196E-02
CGA:  49    -0.669806596241E+03   -0.40491E-02   -0.40577E-02  8424   0.262E-02-0.213E-04
CGA:  50    -0.669807243160E+03   -0.64692E-03   -0.60234E-03  8424   0.199E-03-0.942E-04
CGA:  51    -0.669807495353E+03   -0.25219E-03    0.13573E-02  8424   0.568E-03-0.907E-04
CGA:  52    -0.669807953124E+03   -0.45777E-03    0.54971E-03  8424   0.346E-02-0.813E-03
CGA:  53    -0.669808727484E+03   -0.77436E-03   -0.91943E-03  8424   0.103E-02-0.344E-03
CGA:  54    -0.669808791087E+03   -0.63603E-04   -0.16108E-03  8424   0.123E-02 0.339E-03
CGA:  55    -0.669807781571E+03    0.10095E-02   -0.24224E-03  8424   0.639E-02 0.370E-03
CGA:  56    -0.669778091685E+03    0.29690E-01   -0.24859E-03  8424   0.943E-01 0.456E-01
CGA:  57    -0.669792318716E+03   -0.14227E-01   -0.25599E-01  8424   0.525E-01 0.150E-01
CGA:  58    -0.669789243363E+03    0.30754E-02   -0.11487E-01  8424   0.509E-01 0.396E-01
CGA:  59    -0.669805600844E+03   -0.16357E-01   -0.19316E-01  8424   0.930E-02 0.292E-02
CGA:  60    -0.669808286933E+03   -0.26861E-02   -0.32981E-02  8424   0.414E-02 0.110E-02
CGA:  61    -0.669809434052E+03   -0.11471E-02   -0.11931E-02  8424   0.246E-02-0.625E-03
CGA:  62    -0.669810119497E+03   -0.68544E-03   -0.64125E-03  8424   0.924E-03-0.360E-03
CGA:  63    -0.669810473529E+03   -0.35403E-03   -0.45035E-03  8424   0.458E-02-0.991E-03
CGA:  64    -0.669810928828E+03   -0.45530E-03   -0.47884E-03  8424   0.230E-03 0.817E-04
CGA:  65    -0.669811294336E+03   -0.36551E-03    0.78152E-04  8424   0.194E-03 0.191E-03
CGA:  66    -0.669811567271E+03   -0.27293E-03    0.85136E-04  8424   0.695E-03-0.393E-04
CGA:  67    -0.669812580818E+03   -0.10135E-02    0.12954E-03  8424   0.103E-02-0.117E-03
CGA:  68    -0.669813112885E+03   -0.53207E-03   -0.21128E-03  8424   0.163E-02-0.147E-02
CGA:  69    -0.669813458174E+03   -0.34529E-03   -0.26844E-03  8424   0.793E-03-0.269E-03
CGA:  70    -0.669814091921E+03   -0.63375E-03    0.14653E-02  8424   0.177E-03 0.255E-03
CGA:  71    -0.669814423859E+03   -0.33194E-03    0.80437E-04  8424   0.241E-03 0.714E-04
CGA:  72    -0.669815056444E+03   -0.63258E-03    0.64353E-04  8424   0.458E-03-0.740E-04
CGA:  73    -0.669816120374E+03   -0.10639E-02    0.24295E-04  8424   0.571E-03-0.380E-03
CGA:  74    -0.669815171519E+03    0.94886E-03   -0.10352E-02  8424   0.116E-01-0.145E-02
CGA:  75    -0.669817330914E+03   -0.21594E-02   -0.20155E-02  8424   0.112E-02-0.464E-03
CGA:  76    -0.669817638464E+03   -0.30755E-03   -0.29825E-03  8424   0.394E-03-0.621E-04
CGA:  77    -0.669818007228E+03   -0.36876E-03    0.24461E-02  8424   0.795E-03-0.266E-03
CGA:  78    -0.669818154195E+03   -0.14697E-03   -0.14064E-03  8424   0.184E-03-0.283E-04
CGA:  79    -0.669818470786E+03   -0.31659E-03    0.43821E-04  8424   0.197E-03-0.140E-04
CGA:  80    -0.669818985518E+03   -0.51473E-03    0.20541E-04  8424   0.251E-03 0.352E-04
CGA:  81    -0.669819921361E+03   -0.93584E-03    0.28193E-04  8424   0.206E-03 0.205E-03
CGA:  82    -0.669820180209E+03   -0.25885E-03    0.13151E-03  8424   0.471E-03-0.124E-03
CGA:  83    -0.669820295287E+03   -0.11508E-03   -0.94431E-04  8424   0.155E-03-0.850E-04
CGA:  84    -0.669820613857E+03   -0.31857E-03    0.15938E-04  8424   0.144E-03 0.364E-04
CGA:  85    -0.669821143790E+03   -0.52993E-03    0.17262E-04  8424   0.126E-03 0.882E-04
CGA:  86    -0.669821296290E+03   -0.15250E-03    0.80937E-04  8424   0.342E-03-0.670E-04
CGA:  87    -0.669821447138E+03   -0.15085E-03   -0.15728E-03  8424   0.191E-02-0.648E-03
CGA:  88    -0.669821660938E+03   -0.21380E-03   -0.23493E-03  8424   0.721E-04 0.659E-04
CGA:  89    -0.669821854643E+03   -0.19371E-03    0.81125E-05  8424   0.125E-03 0.207E-04
CGA:  90    -0.669822479493E+03   -0.62485E-03    0.10104E-04  8424   0.117E-03 0.142E-03
CGA:  91    -0.669822682926E+03   -0.20343E-03    0.25411E-04  8424   0.193E-03-0.367E-04
CGA:  92    -0.669823227037E+03   -0.54411E-03    0.77398E-05  8424   0.294E-03 0.836E-04
CGA:  93    -0.669824327796E+03   -0.11008E-02    0.45123E-04  8424   0.238E-03 0.146E-03
CGA:  94    -0.669825403591E+03   -0.10758E-02    0.30990E-04  8424   0.446E-03 0.986E-04
CGA:  95    -0.669827768641E+03   -0.23650E-02    0.41144E-04  8424   0.312E-03 0.431E-03
CGA:  96    -0.669827895405E+03   -0.12676E-03   -0.10419E-03  8424   0.425E-03-0.228E-03
CGA:  97    -0.669828035040E+03   -0.13963E-03   -0.95655E-04  8424   0.246E-03-0.216E-03
CGA:  98    -0.669828142405E+03   -0.10736E-03   -0.84179E-04  8424   0.679E-03-0.305E-03
CGA:  99    -0.669828274891E+03   -0.13249E-03   -0.10226E-03  8424   0.861E-04-0.114E-03
CGA: 100    -0.669828491714E+03   -0.21682E-03    0.51994E-05  8424   0.689E-04 0.346E-04
CGA: 101    -0.669828825535E+03   -0.33382E-03    0.58679E-05  8424   0.556E-04 0.765E-04
CGA: 102    -0.669829020980E+03   -0.19544E-03    0.32962E-05  8424   0.118E-03 0.153E-04
CGA: 103    -0.669829586689E+03   -0.56571E-03    0.81234E-05  8424   0.554E-04 0.139E-03
CGA: 104    -0.669829721710E+03   -0.13502E-03    0.54559E-05  8424   0.113E-03 0.140E-04
CGA: 105    -0.669830278251E+03   -0.55654E-03    0.72551E-05  8424   0.629E-04 0.131E-03
CGA: 106    -0.669830497778E+03   -0.21953E-03    0.37760E-05  8424   0.127E-03-0.873E-08
CGA: 107    -0.669831025074E+03   -0.52730E-03    0.61280E-05  8424   0.127E-03 0.121E-03
CGA: 108    -0.669831076009E+03   -0.50936E-04   -0.52373E-04  8424   0.343E-03-0.119E-03
CGA: 109    -0.669820601349E+03    0.10475E-01   -0.57803E-02  8424   0.889E-01-0.518E-02
CGA: 110    -0.669832306871E+03   -0.11706E-01   -0.12483E-01  8424   0.469E-03 0.237E-02
CGA: 111    -0.669832442439E+03   -0.13557E-03   -0.10577E-03  8424   0.106E-03-0.733E-04
CGA: 112    -0.669832795023E+03   -0.35258E-03    0.16089E-04  8424   0.336E-03-0.330E-04
CGA: 113    -0.669833922653E+03   -0.11276E-02    0.30427E-04  8424   0.963E-03-0.242E-03
CGA: 114    -0.669834140199E+03   -0.21755E-03   -0.28244E-03  8424   0.387E-03 0.176E-05
CGA: 115    -0.669834387822E+03   -0.24762E-03   -0.26371E-03  8424   0.748E-03-0.257E-03
CGA: 116    -0.669834638175E+03   -0.25035E-03   -0.25680E-03  8424   0.332E-03 0.641E-06
CGA: 117    -0.669835134793E+03   -0.49662E-03    0.67891E-03  8424   0.688E-03-0.247E-03
CGA: 118    -0.669835247863E+03   -0.11307E-03   -0.13260E-03  8424   0.125E-03 0.434E-04
CGA: 119    -0.669835565110E+03   -0.31725E-03    0.44952E-04  8424   0.101E-03-0.753E-05
CGA: 120    -0.669836091980E+03   -0.52687E-03    0.86121E-05  8424   0.182E-03 0.966E-05
CGA: 121    -0.669837065521E+03   -0.97354E-03    0.21104E-04  8424   0.258E-03-0.291E-04
CGA: 122    -0.669838724174E+03   -0.16587E-02    0.13139E-04  8424   0.347E-03-0.202E-04
CGA: 123    -0.669841356330E+03   -0.26322E-02    0.17737E-04  8424   0.780E-03-0.152E-03
CGA: 124    -0.669847349848E+03   -0.59935E-02    0.13734E-04  8424   0.163E-02-0.461E-03
CGA: 125    -0.669848031720E+03   -0.68187E-03   -0.70004E-03  8424   0.548E-03 0.939E-04
CGA: 126    -0.669848377924E+03   -0.34620E-03   -0.32571E-03  8424   0.143E-02-0.403E-03
CGA: 127    -0.669848486569E+03   -0.10865E-03   -0.18660E-03  8424   0.900E-04 0.164E-03
CGA: 128    -0.669848502618E+03   -0.16048E-04   -0.24147E-04  8424   0.511E-04 0.234E-04
CGA: 129    -0.669848619355E+03   -0.11674E-03    0.31017E-04  8424   0.125E-03-0.583E-04
CGA: 130    -0.669848641098E+03   -0.21743E-04   -0.24386E-04  8424   0.335E-04 0.709E-05
CGA: 131    -0.669848707530E+03   -0.66432E-04    0.13774E-04  8424   0.551E-04-0.311E-04
CGA: 132    -0.669848736177E+03   -0.28647E-04   -0.21295E-04  8424   0.106E-03-0.449E-04
CGA: 133    -0.669848767632E+03   -0.31455E-04   -0.18171E-04  8424   0.230E-04-0.358E-04
CGA: 134    -0.669848820971E+03   -0.53340E-04    0.16976E-05  8424   0.323E-04-0.535E-05
CGA: 135    -0.669848952266E+03   -0.13129E-03    0.16029E-05  8424   0.308E-04 0.161E-05
CGA: 136    -0.669849107005E+03   -0.15474E-03    0.23787E-05  8424   0.816E-04-0.104E-04
CGA: 137    -0.669849596451E+03   -0.48945E-03    0.18528E-05  8424   0.357E-04 0.404E-04
CGA: 138    -0.669849834929E+03   -0.23848E-03    0.42779E-05  8424   0.304E-03-0.664E-04
CGA: 139    -0.669849867522E+03   -0.32593E-04   -0.34590E-04  8424   0.718E-05 0.508E-05
CGA: 140    -0.669849897117E+03   -0.29595E-04    0.60621E-06  8424   0.982E-05-0.774E-06
CGA: 141    -0.669849977582E+03   -0.80465E-04    0.27118E-06  8424   0.142E-04 0.612E-05
CGA: 142    -0.669850002451E+03   -0.24869E-04    0.47750E-05  8424   0.364E-04-0.124E-04
CGA: 143    -0.669850014042E+03   -0.11591E-04   -0.21760E-04  8424   0.423E-03-0.107E-03
CGA: 144    -0.669850055520E+03   -0.41478E-04   -0.48828E-04  8424   0.823E-05 0.191E-04
CGA: 145    -0.669850079703E+03   -0.24183E-04    0.11195E-05  8424   0.172E-04-0.420E-05
CGA: 146    -0.669850119484E+03   -0.39781E-04    0.30924E-05  8424   0.760E-04-0.259E-04
CGA: 147    -0.669850124685E+03   -0.52014E-05   -0.90562E-05  8424   0.552E-05 0.105E-04
   7 F= -.66985012E+03 E0= -.66985012E+03  d E =-.451937E-01  mag=     2.0000
       N       E                     dE             d eps       ncg     rms          ort
SDA:   1    -0.655306109321E+03    0.14544E+02    0.00000E+00  8424   0.464E+02 0.000E+00
CGA:   2    -0.664354459148E+03   -0.90483E+01   -0.92038E+01  8424   0.184E+02-0.270E+00
CGA:   3    -0.668278293873E+03   -0.39238E+01   -0.39038E+01  8424   0.567E+01 0.104E+00
CGA:   4    -0.669233604341E+03   -0.95531E+00   -0.95671E+00  8424   0.142E+01 0.916E-02
CGA:   5    -0.669474227381E+03   -0.24062E+00   -0.24134E+00  8424   0.304E+00-0.434E-03
CGA:   6    -0.669535494018E+03   -0.61267E-01   -0.61082E-01  8424   0.686E-01-0.687E-03
CGA:   7    -0.669550824033E+03   -0.15330E-01   -0.15374E-01  8424   0.208E-01 0.223E-03
CGA:   8    -0.669555891410E+03   -0.50674E-02   -0.50655E-02  8424   0.628E-02-0.141E-04
CGA:   9    -0.669557720522E+03   -0.18291E-02   -0.17871E-02  8424   0.231E-02-0.402E-03
CGA:  10    -0.669558494508E+03   -0.77399E-03   -0.76013E-03  8424   0.130E-02-0.414E-03
CGA:  11    -0.669558923164E+03   -0.42866E-03   -0.46187E-03  8424   0.117E-02-0.676E-03
CGA:  12    -0.669559162461E+03   -0.23930E-03   -0.22936E-03  8424   0.315E-03-0.532E-04
CGA:  13    -0.669555413135E+03    0.37493E-02   -0.20281E-02  8424   0.263E-01-0.218E-02
CGA:  14    -0.669559181005E+03   -0.37679E-02   -0.38080E-02  8424   0.339E-02 0.109E-03
CGA:  15    -0.669560238146E+03   -0.10571E-02   -0.10117E-02  8424   0.433E-03-0.126E-03
CGA:  16    -0.669560458603E+03   -0.22046E-03   -0.16929E-03  8424   0.633E-03-0.219E-03
CGA:  17    -0.669560505224E+03   -0.46621E-04   -0.73015E-04  8424   0.613E-04 0.525E-04
CGA:  18    -0.669560635311E+03   -0.13009E-03    0.32015E-04  8424   0.137E-03-0.431E-05
CGA:  19    -0.669561041288E+03   -0.40598E-03    0.23221E-04  8424   0.576E-03-0.124E-03
CGA:  20    -0.669561110415E+03   -0.69127E-04   -0.89462E-04  8424   0.156E-03 0.460E-04
CGA:  21    -0.669556741350E+03    0.43691E-02   -0.23779E-02  8424   0.183E-01-0.159E-02
CGA:  22    -0.669560553310E+03   -0.38120E-02   -0.40022E-02  8424   0.694E-02 0.339E-03
CGA:  23    -0.669562091916E+03   -0.15386E-02   -0.14133E-02  8424   0.618E-03-0.178E-03
CGA:  24    -0.669562315645E+03   -0.22373E-03   -0.20332E-03  8424   0.150E-03-0.321E-04
CGA:  25    -0.669562441258E+03   -0.12561E-03   -0.66931E-04  8424   0.426E-03-0.124E-03
CGA:  26    -0.669562485430E+03   -0.44172E-04   -0.52738E-04  8424   0.426E-04 0.121E-04
CGA:  27    -0.669562665994E+03   -0.18056E-03    0.14393E-04  8424   0.115E-03-0.100E-04
CGA:  28    -0.669563144043E+03   -0.47805E-03    0.18503E-04  8424   0.629E-03-0.871E-04
CGA:  29    -0.669563315729E+03   -0.17169E-03   -0.13832E-03  8424   0.223E-03-0.507E-04
CGA:  30    -0.669563465863E+03   -0.15013E-03   -0.10940E-03  8424   0.217E-03-0.130E-03
CGA:  31    -0.669563510499E+03   -0.44636E-04   -0.44432E-04  8424   0.794E-04-0.267E-06
CGA:  32    -0.669563682509E+03   -0.17201E-03    0.89606E-04  8424   0.336E-03-0.988E-04
CGA:  33    -0.669563725801E+03   -0.43292E-04   -0.58121E-04  8424   0.987E-04 0.241E-04
CGA:  34    -0.669562924893E+03    0.80091E-03   -0.25216E-03  8424   0.529E-02-0.656E-03
CGA:  35    -0.669563909405E+03   -0.98451E-03   -0.10673E-02  8424   0.171E-02 0.150E-03
CGA:  36    -0.669564381246E+03   -0.47184E-03   -0.39627E-03  8424   0.862E-04-0.129E-03
CGA:  37    -0.669564444337E+03   -0.63092E-04   -0.57006E-04  8424   0.367E-03-0.843E-04
CGA:  38    -0.669564559370E+03   -0.11503E-03   -0.63163E-04  8424   0.103E-03-0.856E-04
CGA:  39    -0.669564618075E+03   -0.58705E-04   -0.61752E-04  8424   0.538E-03-0.114E-03
CGA:  40    -0.669564762008E+03   -0.14393E-03   -0.89183E-04  8424   0.123E-03-0.941E-04
CGA:  41    -0.669564813351E+03   -0.51343E-04   -0.36320E-04  8424   0.957E-04-0.412E-04
CGA:  42    -0.669565071140E+03   -0.25779E-03    0.12112E-04  8424   0.178E-03-0.200E-05
CGA:  43    -0.669565554427E+03   -0.48329E-03    0.64422E-04  8424   0.620E-03-0.493E-04
CGA:  44    -0.669567795631E+03   -0.22412E-02    0.62616E-04  8424   0.107E-02 0.495E-04
CGA:  45    -0.669572718197E+03   -0.49226E-02    0.20088E-03  8424   0.973E-03 0.257E-03
CGA:  46    -0.669577451265E+03   -0.47331E-02    0.24095E-03  8424   0.466E-02-0.720E-03
CGA:  47    -0.669578230481E+03   -0.77922E-03   -0.67349E-03  8424   0.336E-03-0.206E-03
CGA:  48    -0.669578291111E+03   -0.60630E-04   -0.66218E-04  8424   0.676E-04 0.120E-04
CGA:  49    -0.669578428307E+03   -0.13720E-03    0.46343E-04  8424   0.128E-03-0.163E-04
CGA:  50    -0.669578774442E+03   -0.34613E-03    0.18620E-04  8424   0.203E-03 0.614E-04
CGA:  51    -0.669579576628E+03   -0.80219E-03    0.94976E-04  8424   0.215E-03 0.116E-03
CGA:  52    -0.669579686705E+03   -0.11008E-03   -0.79725E-04  8424   0.177E-03-0.108E-03
CGA:  53    -0.669579763731E+03   -0.77026E-04   -0.57115E-04  8424   0.101E-03-0.631E-04
CGA:  54    -0.669580021025E+03   -0.25729E-03    0.93332E-05  8424   0.835E-04 0.430E-04
CGA:  55    -0.669580259318E+03   -0.23829E-03    0.61789E-04  8424   0.340E-03-0.470E-04
CGA:  56    -0.669580427026E+03   -0.16771E-03   -0.97339E-04  8424   0.270E-03-0.209E-03
CGA:  57    -0.669580448050E+03   -0.21024E-04   -0.36083E-04  8424   0.342E-04 0.321E-04
CGA:  58    -0.669580575668E+03   -0.12762E-03    0.60213E-05  8424   0.100E-03 0.137E-04
CGA:  59    -0.669581201375E+03   -0.62571E-03    0.14653E-04  8424   0.156E-03 0.974E-04
CGA:  60    -0.669581258122E+03   -0.56747E-04   -0.44185E-04  8424   0.870E-04-0.419E-04
CGA:  61    -0.669581507791E+03   -0.24967E-03    0.74111E-05  8424   0.159E-03 0.768E-05
CGA:  62    -0.669582047715E+03   -0.53992E-03    0.28517E-04  8424   0.933E-04 0.630E-04
CGA:  63    -0.669582527699E+03   -0.47998E-03    0.16563E-04  8424   0.594E-04 0.746E-04
CGA:  64    -0.669582693954E+03   -0.16626E-03    0.11612E-04  8424   0.144E-03-0.239E-04
CGA:  65    -0.669583133167E+03   -0.43921E-03    0.70153E-05  8424   0.319E-03 0.273E-04
CGA:  66    -0.669584345102E+03   -0.12119E-02    0.59633E-04  8424   0.427E-03 0.162E-04
CGA:  67    -0.669586332471E+03   -0.19874E-02    0.44313E-04  8424   0.129E-02-0.101E-03
CGA:  68    -0.669593007383E+03   -0.66749E-02    0.56413E-04  8424   0.237E-02 0.190E-03
CGA:  69    -0.669604544043E+03   -0.11537E-01    0.28505E-03  8424   0.149E-01-0.687E-02
CGA:  70    -0.669606916368E+03   -0.23723E-02   -0.21463E-02  8424   0.500E-03-0.681E-03
CGA:  71    -0.669606930944E+03   -0.14576E-04   -0.89604E-04  8424   0.176E-03 0.208E-03
CGA:  72    -0.669606906772E+03    0.24172E-04   -0.39496E-04  8424   0.135E-03 0.171E-03
CGA:  73    -0.669606900878E+03    0.58941E-05   -0.24297E-04  8424   0.872E-04 0.909E-04
   8 F= -.66960690E+03 E0= -.66960690E+03  d E =0.243224E+00  mag=     2.0000
       N       E                     dE             d eps       ncg     rms          ort
SDA:   1    -0.664311350350E+03    0.52956E+01    0.00000E+00  8424   0.181E+02 0.000E+00
CGA:   2    -0.667861586404E+03   -0.35502E+01   -0.35688E+01  8424   0.704E+01-0.237E-01
CGA:   3    -0.669368988644E+03   -0.15074E+01   -0.15048E+01  8424   0.233E+01 0.944E-02
CGA:   4    -0.669758807795E+03   -0.38982E+00   -0.39020E+00  8424   0.587E+00 0.336E-03
CGA:   5    -0.669859728862E+03   -0.10092E+00   -0.10119E+00  8424   0.124E+00 0.527E-03
CGA:   6    -0.669884361733E+03   -0.24633E-01   -0.24586E-01  8424   0.269E-01-0.190E-03
CGA:   7    -0.669890200887E+03   -0.58392E-02   -0.59366E-02  8424   0.798E-02 0.509E-03
CGA:   8    -0.669892014573E+03   -0.18137E-02   -0.18861E-02  8424   0.219E-02 0.427E-03
CGA:   9    -0.669892528638E+03   -0.51406E-03   -0.55943E-03  8424   0.654E-03 0.300E-03
CGA:  10    -0.669892605061E+03   -0.76423E-04   -0.14063E-03  8424   0.271E-03 0.327E-03
CGA:  11    -0.669892610069E+03   -0.50080E-05   -0.43483E-04  8424   0.146E-03 0.179E-03
CGA:  12    -0.669892594365E+03    0.15703E-04   -0.16725E-04  8424   0.118E-03 0.130E-03
CGA:  13    -0.669892577233E+03    0.17132E-04   -0.11091E-04  8424   0.103E-03 0.109E-03
CGA:  14    -0.669892560475E+03    0.16759E-04   -0.83586E-05  8424   0.928E-04 0.973E-04
CGA:  15    -0.669892544510E+03    0.15965E-04   -0.67065E-05  8424   0.859E-04 0.891E-04
CGA:  16    -0.669892529430E+03    0.15080E-04   -0.55873E-05  8424   0.806E-04 0.830E-04
CGA:  17    -0.669892515227E+03    0.14203E-04   -0.47740E-05  8424   0.764E-04 0.783E-04
CGA:  18    -0.669892501858E+03    0.13369E-04   -0.41536E-05  8424   0.730E-04 0.746E-04
CGA:  19    -0.669892489270E+03    0.12587E-04   -0.36634E-05  8424   0.701E-04 0.715E-04
CGA:  20    -0.669892477411E+03    0.11859E-04   -0.32657E-05  8424   0.677E-04 0.688E-04
CGA:  21    -0.669892466228E+03    0.11183E-04   -0.29361E-05  8424   0.657E-04 0.666E-04
CGA:  22    -0.669892455674E+03    0.10554E-04   -0.26586E-05  8424   0.639E-04 0.647E-04
CGA:  23    -0.669892445704E+03    0.99702E-05   -0.24218E-05  8424   0.623E-04 0.631E-04
   9 F= -.66989245E+03 E0= -.66989245E+03  d E =-.285545E+00  mag=     2.0000
       N       E                     dE             d eps       ncg     rms          ort
SDA:   1    -0.669438054258E+03    0.45440E+00    0.00000E+00  8424   0.151E+01 0.000E+00
CGA:   2    -0.669735655138E+03   -0.29760E+00   -0.29764E+00  8424   0.594E+00 0.162E-02
CGA:   3    -0.669863824038E+03   -0.12817E+00   -0.12817E+00  8424   0.201E+00 0.135E-03
CGA:   4    -0.669896890836E+03   -0.33067E-01   -0.33089E-01  8424   0.489E-01 0.404E-03
CGA:   5    -0.669905246111E+03   -0.83553E-02   -0.83789E-02  8424   0.102E-01 0.572E-03
CGA:   6    -0.669907220297E+03   -0.19742E-02   -0.19813E-02  8424   0.217E-02 0.412E-03
CGA:   7    -0.669907621512E+03   -0.40122E-03   -0.41293E-03  8424   0.577E-03 0.455E-03
CGA:   8    -0.669907689992E+03   -0.68479E-04   -0.94338E-04  8424   0.233E-03 0.357E-03
CGA:   9    -0.669907692460E+03   -0.24686E-05   -0.22045E-04  8424   0.148E-03 0.179E-03
CGA:  10    -0.669907685072E+03    0.73889E-05   -0.10026E-04  8424   0.122E-03 0.133E-03
  10 F= -.66990769E+03 E0= -.66990769E+03  d E =-.152394E-01  mag=     2.0000
       N       E                     dE             d eps       ncg     rms          ort
SDA:   1    -0.669641618444E+03    0.26607E+00    0.00000E+00  8424   0.821E+00 0.000E+00
CGA:   2    -0.669807405202E+03   -0.16579E+00   -0.16576E+00  8424   0.337E+00 0.136E-02
CGA:   3    -0.669880017187E+03   -0.72612E-01   -0.72600E-01  8424   0.110E+00 0.358E-03
CGA:   4    -0.669898049523E+03   -0.18032E-01   -0.18046E-01  8424   0.264E-01 0.552E-03
CGA:   5    -0.669902505769E+03   -0.44562E-02   -0.44685E-02  8424   0.538E-02 0.678E-03
CGA:   6    -0.669903526825E+03   -0.10211E-02   -0.10212E-02  8424   0.114E-02 0.510E-03
CGA:   7    -0.669903706695E+03   -0.17987E-03   -0.19277E-03  8424   0.338E-03 0.427E-03
CGA:   8    -0.669903726481E+03   -0.19786E-04   -0.45407E-04  8424   0.182E-03 0.297E-03
CGA:   9    -0.669903722212E+03    0.42693E-05   -0.12716E-04  8424   0.136E-03 0.155E-03
  11 F= -.66990372E+03 E0= -.66990372E+03  d E =0.396286E-02  mag=     2.0000
       N       E                     dE             d eps       ncg     rms          ort
SDA:   1    -0.666743365378E+03    0.31604E+01    0.00000E+00  8424   0.842E+01 0.000E+00
CGA:   2    -0.668790015827E+03   -0.20467E+01   -0.20459E+01  8424   0.426E+01 0.811E-02
CGA:   3    -0.669629326187E+03   -0.83931E+00   -0.83941E+00  8424   0.109E+01-0.388E-02
CGA:   4    -0.669802916064E+03   -0.17359E+00   -0.17360E+00  8424   0.248E+00 0.824E-03
CGA:   5    -0.669845330581E+03   -0.42415E-01   -0.42417E-01  8424   0.528E-01 0.146E-02
CGA:   6    -0.669856134128E+03   -0.10804E-01   -0.10792E-01  8424   0.122E-01 0.360E-03
CGA:   7    -0.669858800687E+03   -0.26666E-02   -0.26485E-02  8424   0.346E-02 0.425E-03
CGA:   8    -0.669859627809E+03   -0.82712E-03   -0.80544E-03  8424   0.100E-02 0.443E-03
CGA:   9    -0.669859869577E+03   -0.24177E-03   -0.23185E-03  8424   0.356E-03 0.376E-03
CGA:  10    -0.669859919536E+03   -0.49959E-04   -0.64704E-04  8424   0.202E-03 0.309E-03
CGA:  11    -0.669859927276E+03   -0.77397E-05   -0.20559E-04  8424   0.147E-03 0.169E-03
CGA:  12    -0.669859927636E+03   -0.36037E-06   -0.12400E-04  8424   0.125E-03 0.135E-03
  12 F= -.66985993E+03 E0= -.66985993E+03  d E =0.437946E-01  mag=     2.0000
       N       E                     dE             d eps       ncg     rms          ort
SDA:   1    -0.648820289016E+03    0.21040E+02    0.00000E+00  8424   0.710E+02 0.000E+00
CGA:   2    -0.661810901127E+03   -0.12991E+02   -0.12964E+02  8424   0.256E+02 0.910E+00
CGA:   3    -0.667602800939E+03   -0.57919E+01   -0.58013E+01  8424   0.853E+01-0.140E+00
CGA:   4    -0.669026526674E+03   -0.14237E+01   -0.14237E+01  8424   0.214E+01 0.762E-02
CGA:   5    -0.669386435024E+03   -0.35991E+00   -0.35991E+00  8424   0.459E+00 0.619E-02
CGA:   6    -0.669480380607E+03   -0.93946E-01   -0.94013E-01  8424   0.105E+00-0.193E-02
CGA:   7    -0.669503519487E+03   -0.23139E-01   -0.23073E-01  8424   0.312E-01 0.128E-02
CGA:   8    -0.669511160884E+03   -0.76414E-02   -0.75952E-02  8424   0.913E-02 0.677E-03
CGA:   9    -0.669513771066E+03   -0.26102E-02   -0.26807E-02  8424   0.349E-02-0.634E-03
CGA:  10    -0.669514738153E+03   -0.96709E-03   -0.98747E-03  8424   0.154E-02-0.167E-03
CGA:  11    -0.669515193240E+03   -0.45509E-03   -0.63510E-03  8424   0.129E-02-0.734E-03
CGA:  12    -0.669515347267E+03   -0.15403E-03   -0.16024E-03  8424   0.586E-03-0.166E-03
CGA:  13    -0.669515443385E+03   -0.96118E-04   -0.26445E-03  8424   0.109E-02-0.534E-03
CGA:  14    -0.669515724563E+03   -0.28118E-03   -0.29956E-03  8424   0.378E-03-0.314E-03
CGA:  15    -0.669515801365E+03   -0.76801E-04   -0.76640E-04  8424   0.152E-03 0.217E-05
CGA:  16    -0.669515888627E+03   -0.87263E-04    0.63008E-04  8424   0.466E-04 0.414E-04
CGA:  17    -0.669515937295E+03   -0.48668E-04    0.79406E-05  8424   0.293E-04 0.310E-04
CGA:  18    -0.669515953991E+03   -0.16696E-04    0.12034E-04  8424   0.205E-04 0.149E-04
CGA:  19    -0.669515984493E+03   -0.30502E-04    0.98845E-06  8424   0.177E-04 0.146E-04
CGA:  20    -0.669516001779E+03   -0.17286E-04    0.16658E-05  8424   0.160E-04 0.142E-04
CGA:  21    -0.669516027610E+03   -0.25831E-04    0.68680E-06  8424   0.148E-04 0.138E-04
CGA:  22    -0.669516045296E+03   -0.17685E-04    0.98699E-06  8424   0.139E-04 0.133E-04
CGA:  23    -0.669516068499E+03   -0.23204E-04    0.57128E-06  8424   0.132E-04 0.128E-04
CGA:  24    -0.669516085872E+03   -0.17373E-04    0.76482E-06  8424   0.127E-04 0.123E-04
CGA:  25    -0.669516107568E+03   -0.21696E-04    0.50377E-06  8424   0.123E-04 0.119E-04
CGA:  26    -0.669516124152E+03   -0.16584E-04    0.67688E-06  8424   0.119E-04 0.115E-04
CGA:  27    -0.669516145107E+03   -0.20954E-04    0.45367E-06  8424   0.116E-04 0.112E-04
CGA:  28    -0.669516160493E+03   -0.15386E-04    0.66230E-06  8424   0.114E-04 0.108E-04
CGA:  29    -0.669516181331E+03   -0.20838E-04    0.41333E-06  8424   0.112E-04 0.104E-04
CGA:  30    -0.669516195130E+03   -0.13799E-04    0.72189E-06  8424   0.112E-04 0.100E-04
CGA:  31    -0.669516216365E+03   -0.21235E-04    0.38524E-06  8424   0.112E-04 0.954E-05
CGA:  32    -0.669516228240E+03   -0.11875E-04    0.91268E-06  8424   0.113E-04 0.900E-05
CGA:  33    -0.669516250310E+03   -0.22070E-04    0.37773E-06  8424   0.116E-04 0.837E-05
CGA:  34    -0.669516259926E+03   -0.96156E-05    0.15204E-05  8424   0.121E-04 0.758E-05
  13 F= -.66951626E+03 E0= -.66951626E+03  d E =0.343668E+00  mag=     2.0000
       N       E                     dE             d eps       ncg     rms          ort
SDA:   1    -0.666347864705E+03    0.31684E+01    0.00000E+00  8424   0.112E+02 0.000E+00
CGA:   2    -0.668558923499E+03   -0.22111E+01   -0.22120E+01  8424   0.438E+01 0.183E-01
CGA:   3    -0.669500000147E+03   -0.94108E+00   -0.94103E+00  8424   0.146E+01-0.516E-02
CGA:   4    -0.669741898798E+03   -0.24190E+00   -0.24194E+00  8424   0.364E+00 0.755E-04
CGA:   5    -0.669804762946E+03   -0.62864E-01   -0.62905E-01  8424   0.771E-01 0.740E-03
CGA:   6    -0.669820117477E+03   -0.15355E-01   -0.15347E-01  8424   0.168E-01-0.415E-03
CGA:   7    -0.669823746775E+03   -0.36293E-02   -0.36288E-02  8424   0.484E-02 0.486E-03
CGA:   8    -0.669824891490E+03   -0.11447E-02   -0.11401E-02  8424   0.129E-02 0.359E-03
CGA:   9    -0.669825226152E+03   -0.33466E-03   -0.33042E-03  8424   0.379E-03 0.196E-03
CGA:  10    -0.669825283359E+03   -0.57206E-04   -0.70048E-04  8424   0.163E-03 0.224E-03
CGA:  11    -0.669825295062E+03   -0.11703E-04   -0.21487E-04  8424   0.945E-04 0.117E-03
CGA:  12    -0.669825295161E+03   -0.99382E-07   -0.93843E-05  8424   0.746E-04 0.833E-04
  14 F= -.66982530E+03 E0= -.66982530E+03  d E =-.309035E+00  mag=     2.0000
       N       E                     dE             d eps       ncg     rms          ort
SDA:   1    -0.667384439636E+03    0.24409E+01    0.00000E+00  8424   0.810E+01 0.000E+00
CGA:   2    -0.668983702880E+03   -0.15993E+01   -0.15993E+01  8424   0.317E+01 0.150E-01
CGA:   3    -0.669667298480E+03   -0.68360E+00   -0.68366E+00  8424   0.105E+01-0.364E-02
CGA:   4    -0.669841143438E+03   -0.17384E+00   -0.17386E+00  8424   0.260E+00 0.157E-03
CGA:   5    -0.669885879075E+03   -0.44736E-01   -0.44764E-01  8424   0.548E-01 0.102E-02
CGA:   6    -0.669896779292E+03   -0.10900E-01   -0.10900E-01  8424   0.119E-01 0.157E-03
CGA:   7    -0.669899326861E+03   -0.25476E-02   -0.25378E-02  8424   0.334E-02 0.623E-03
CGA:   8    -0.669900085556E+03   -0.75870E-03   -0.74994E-03  8424   0.875E-03 0.549E-03
CGA:   9    -0.669900274131E+03   -0.18858E-03   -0.19212E-03  8424   0.292E-03 0.360E-03
CGA:  10    -0.669900298620E+03   -0.24489E-04   -0.47028E-04  8424   0.166E-03 0.269E-03
CGA:  11    -0.669900296166E+03    0.24544E-05   -0.13637E-04  8424   0.128E-03 0.144E-03
  15 F= -.66990030E+03 E0= -.66990030E+03  d E =-.750010E-01  mag=     2.0000
       N       E                     dE             d eps       ncg     rms          ort
SDA:   1    -0.669876760332E+03    0.23538E-01    0.00000E+00  8424   0.845E-01 0.000E+00
CGA:   2    -0.669893691374E+03   -0.16931E-01   -0.16924E-01  8424   0.340E-01 0.389E-03
CGA:   3    -0.669900915788E+03   -0.72244E-02   -0.72120E-02  8424   0.112E-01 0.436E-03
CGA:   4    -0.669902732211E+03   -0.18164E-02   -0.18277E-02  8424   0.266E-02 0.481E-03
CGA:   5    -0.669903141011E+03   -0.40880E-03   -0.42154E-03  8424   0.499E-03 0.410E-03
CGA:   6    -0.669903197195E+03   -0.56184E-04   -0.71088E-04  8424   0.163E-03 0.256E-03
CGA:   7    -0.669903197723E+03   -0.52855E-06   -0.12901E-04  8424   0.101E-03 0.124E-03
  16 F= -.66990320E+03 E0= -.66990320E+03  d E =-.290156E-02  mag=     2.0000
       N       E                     dE             d eps       ncg     rms          ort
SDA:   1    -0.669501572390E+03    0.40162E+00    0.00000E+00  8424   0.117E+01 0.000E+00
CGA:   2    -0.669766299555E+03   -0.26473E+00   -0.26465E+00  8424   0.515E+00 0.103E-02
CGA:   3    -0.669869098404E+03   -0.10280E+00   -0.10281E+00  8424   0.146E+00-0.504E-03
CGA:   4    -0.669893362315E+03   -0.24264E-01   -0.24271E-01  8424   0.368E-01 0.108E-02
CGA:   5    -0.669899586301E+03   -0.62240E-02   -0.62280E-02  8424   0.713E-02 0.107E-02
CGA:   6    -0.669900982701E+03   -0.13964E-02   -0.13875E-02  8424   0.157E-02 0.511E-03
CGA:   7    -0.669901280581E+03   -0.29788E-03   -0.29631E-03  8424   0.454E-03 0.442E-03
CGA:   8    -0.669901338423E+03   -0.57842E-04   -0.73099E-04  8424   0.209E-03 0.324E-03
CGA:   9    -0.669901344176E+03   -0.57525E-05   -0.18890E-04  8424   0.138E-03 0.164E-03
  17 F= -.66990134E+03 E0= -.66990134E+03  d E =0.185355E-02  mag=     2.0000
       N       E                     dE             d eps       ncg     rms          ort
SDA:   1    -0.669710816751E+03    0.19052E+00    0.00000E+00  8424   0.585E+00 0.000E+00
CGA:   2    -0.669830088756E+03   -0.11927E+00   -0.11923E+00  8424   0.235E+00 0.775E-03
CGA:   3    -0.669881861232E+03   -0.51772E-01   -0.51791E-01  8424   0.794E-01-0.359E-03
CGA:   4    -0.669894661469E+03   -0.12800E-01   -0.12805E-01  8424   0.183E-01 0.988E-03
CGA:   5    -0.669897639368E+03   -0.29779E-02   -0.29835E-02  8424   0.336E-02 0.101E-02
CGA:   6    -0.669898279200E+03   -0.63983E-03   -0.63299E-03  8424   0.792E-03 0.543E-03
CGA:   7    -0.669898397564E+03   -0.11836E-03   -0.12864E-03  8424   0.264E-03 0.387E-03
CGA:   8    -0.669898410213E+03   -0.12648E-04   -0.33498E-04  8424   0.150E-03 0.261E-03
CGA:   9    -0.669898406316E+03    0.38962E-05   -0.92367E-05  8424   0.118E-03 0.132E-03
  18 F= -.66989841E+03 E0= -.66989841E+03  d E =0.293786E-02  mag=     2.0000
       N       E                     dE             d eps       ncg     rms          ort
SDA:   1    -0.652883106263E+03    0.17015E+02    0.00000E+00  8424   0.544E+02 0.000E+00
CGA:   2    -0.663388434802E+03   -0.10505E+02   -0.10480E+02  8424   0.210E+02 0.444E+00
CGA:   3    -0.667958450457E+03   -0.45700E+01   -0.45754E+01  8424   0.698E+01-0.778E-01
CGA:   4    -0.669125398301E+03   -0.11669E+01   -0.11668E+01  8424   0.176E+01 0.376E-02
CGA:   5    -0.669421418829E+03   -0.29602E+00   -0.29596E+00  8424   0.357E+00 0.423E-02
CGA:   6    -0.669493217380E+03   -0.71799E-01   -0.71948E-01  8424   0.833E-01-0.343E-02
CGA:   7    -0.669511566519E+03   -0.18349E-01   -0.18321E-01  8424   0.247E-01 0.450E-03
CGA:   8    -0.669517665207E+03   -0.60987E-02   -0.61268E-02  8424   0.743E-02-0.335E-03
CGA:   9    -0.669519781066E+03   -0.21159E-02   -0.25197E-02  8424   0.446E-02-0.228E-02
CGA:  10    -0.669520593429E+03   -0.81236E-03   -0.12707E-02  8424   0.367E-02-0.195E-02
CGA:  11    -0.669521380727E+03   -0.78730E-03    0.13099E-01  8424   0.147E-02 0.297E-03
CGA:  12    -0.669515857326E+03    0.55234E-02   -0.29771E-02  8424   0.376E-01-0.749E-02
CGA:  13    -0.669522479245E+03   -0.66219E-02   -0.67356E-02  8424   0.391E-02 0.672E-03
CGA:  14    -0.669523777255E+03   -0.12980E-02   -0.12804E-02  8424   0.231E-02-0.144E-02
CGA:  15    -0.669524075532E+03   -0.29828E-03   -0.27884E-03  8424   0.643E-03-0.138E-03
CGA:  16    -0.669524223249E+03   -0.14772E-03   -0.36660E-03  8424   0.244E-02-0.784E-03
CGA:  17    -0.669524907379E+03   -0.68413E-03   -0.53352E-03  8424   0.122E-02-0.124E-02
CGA:  18    -0.669524995146E+03   -0.87767E-04   -0.12863E-03  8424   0.631E-04 0.179E-03
CGA:  19    -0.669525122866E+03   -0.12772E-03    0.67190E-05  8424   0.155E-03-0.243E-04
CGA:  20    -0.669525705181E+03   -0.58231E-03    0.18197E-05  8424   0.399E-03-0.301E-04
CGA:  21    -0.669527484019E+03   -0.17788E-02    0.68610E-05  8424   0.800E-03-0.432E-03
CGA:  22    -0.669527687814E+03   -0.20379E-03   -0.20354E-03  8424   0.383E-03-0.377E-05
CGA:  23    -0.669528039405E+03   -0.35159E-03    0.13719E-03  8424   0.193E-03-0.173E-03
CGA:  24    -0.669528267758E+03   -0.22835E-03    0.70678E-05  8424   0.102E-03-0.157E-04
CGA:  25    -0.669528568715E+03   -0.30096E-03    0.36718E-05  8424   0.442E-04 0.362E-04
CGA:  26    -0.669528857933E+03   -0.28922E-03    0.14623E-05  8424   0.312E-04 0.311E-04
CGA:  27    -0.669528966412E+03   -0.10848E-03    0.11211E-05  8424   0.333E-04 0.980E-05
CGA:  28    -0.669529271014E+03   -0.30460E-03    0.70354E-06  8424   0.231E-04 0.270E-04
CGA:  29    -0.669529404762E+03   -0.13375E-03    0.45794E-06  8424   0.168E-04 0.155E-04
CGA:  30    -0.669529537797E+03   -0.13303E-03    0.23582E-06  8424   0.175E-04 0.145E-04
CGA:  31    -0.669529662243E+03   -0.12445E-03    0.27673E-06  8424   0.214E-04 0.118E-04
CGA:  32    -0.669529797895E+03   -0.13565E-03    0.38314E-06  8424   0.347E-04 0.388E-05
CGA:  33    -0.669530129279E+03   -0.33138E-03    0.56005E-06  8424   0.251E-04 0.390E-04
CGA:  34    -0.669530240100E+03   -0.11082E-03    0.67491E-06  8424   0.452E-04-0.488E-05
CGA:  35    -0.669530582403E+03   -0.34230E-03    0.42277E-06  8424   0.568E-04 0.337E-04
CGA:  36    -0.669530705021E+03   -0.12262E-03    0.37997E-05  8424   0.122E-03-0.562E-04
CGA:  37    -0.669530344697E+03    0.36032E-03   -0.11768E-03  8424   0.515E-02-0.738E-03
CGA:  38    -0.669531116897E+03   -0.77220E-03   -0.68426E-03  8424   0.651E-04-0.408E-03
CGA:  39    -0.669531176342E+03   -0.59445E-04    0.22451E-04  8424   0.157E-03-0.670E-04
CGA:  40    -0.669531335027E+03   -0.15868E-03    0.55576E-04  8424   0.603E-03-0.280E-03
CGA:  41    -0.669531381582E+03   -0.46555E-04   -0.61348E-04  8424   0.158E-04 0.626E-04
CGA:  42    -0.669531468965E+03   -0.87383E-04    0.43514E-06  8424   0.484E-04-0.610E-05
CGA:  43    -0.669531887188E+03   -0.41822E-03    0.23989E-06  8424   0.189E-03 0.850E-05
CGA:  44    -0.669533804554E+03   -0.19174E-02    0.29962E-05  8424   0.535E-04 0.125E-03
CGA:  45    -0.669533913216E+03   -0.10866E-03    0.42070E-05  8424   0.703E-04-0.438E-04
CGA:  46    -0.669533921470E+03   -0.82542E-05   -0.34775E-04  8424   0.451E-03-0.160E-03
CGA:  47    -0.669534074094E+03   -0.15262E-03   -0.12068E-03  8424   0.524E-03-0.460E-03
CGA:  48    -0.669534121108E+03   -0.47014E-04   -0.58953E-04  8424   0.119E-04 0.541E-04
CGA:  49    -0.669534177488E+03   -0.56380E-04    0.37350E-06  8424   0.253E-04-0.721E-05
CGA:  50    -0.669534278238E+03   -0.10075E-03    0.78720E-06  8424   0.485E-04-0.235E-04
CGA:  51    -0.669534284508E+03   -0.62701E-05   -0.22830E-04  8424   0.327E-03-0.112E-03
CGA:  52    -0.669534367681E+03   -0.83173E-04   -0.12980E-03  8424   0.157E-02-0.698E-03
CGA:  53    -0.669534495046E+03   -0.12737E-03   -0.16946E-03  8424   0.278E-04 0.187E-03
CGA:  54    -0.669534516826E+03   -0.21780E-04    0.58031E-04  8424   0.928E-04-0.458E-04
CGA:  55    -0.669534637894E+03   -0.12107E-03    0.14538E-04  8424   0.239E-03-0.138E-03
CGA:  56    -0.669534652257E+03   -0.14363E-04   -0.24112E-04  8424   0.115E-04 0.441E-04
CGA:  57    -0.669534692352E+03   -0.40095E-04    0.56537E-06  8424   0.397E-04-0.148E-04
CGA:  58    -0.669534794440E+03   -0.10209E-03    0.19739E-05  8424   0.932E-04-0.510E-04
CGA:  59    -0.669534803834E+03   -0.93939E-05   -0.10775E-04  8424   0.458E-05 0.706E-05
  19 F= -.66953480E+03 E0= -.66953480E+03  d E =0.363602E+00  mag=     2.0000
       N       E                     dE             d eps       ncg     rms          ort
SDA:   1    -0.664900382861E+03    0.46344E+01    0.00000E+00  8424   0.159E+02 0.000E+00
CGA:   2    -0.668057719795E+03   -0.31573E+01   -0.31625E+01  8424   0.629E+01 0.104E-01
CGA:   3    -0.669391294439E+03   -0.13336E+01   -0.13328E+01  8424   0.207E+01-0.302E-02
CGA:   4    -0.669736246472E+03   -0.34495E+00   -0.34517E+00  8424   0.525E+00 0.659E-03
CGA:   5    -0.669826220230E+03   -0.89974E-01   -0.90108E-01  8424   0.107E+00 0.929E-03
CGA:   6    -0.669847344464E+03   -0.21124E-01   -0.21084E-01  8424   0.241E-01-0.487E-03
CGA:   7    -0.669852582737E+03   -0.52383E-02   -0.52704E-02  8424   0.704E-02 0.568E-03
CGA:   8    -0.669854229784E+03   -0.16470E-02   -0.16653E-02  8424   0.194E-02 0.435E-03
CGA:   9    -0.669854721491E+03   -0.49171E-03   -0.49906E-03  8424   0.595E-03 0.261E-03
CGA:  10    -0.669854820787E+03   -0.99296E-04   -0.12508E-03  8424   0.247E-03 0.306E-03
CGA:  11    -0.669854843095E+03   -0.22308E-04   -0.39306E-04  8424   0.129E-03 0.160E-03
CGA:  12    -0.669854840105E+03    0.29895E-05   -0.14168E-04  8424   0.103E-03 0.114E-03
  20 F= -.66985484E+03 E0= -.66985484E+03  d E =-.320036E+00  mag=     2.0000
       N       E                     dE             d eps       ncg     rms          ort
SDA:   1    -0.668657973806E+03    0.11969E+01    0.00000E+00  8424   0.399E+01 0.000E+00
CGA:   2    -0.669450389269E+03   -0.79242E+00   -0.79275E+00  8424   0.159E+01 0.452E-02
CGA:   3    -0.669789091322E+03   -0.33870E+00   -0.33868E+00  8424   0.529E+00-0.541E-03
CGA:   4    -0.669876869294E+03   -0.87778E-01   -0.87838E-01  8424   0.131E+00 0.692E-03
CGA:   5    -0.669899165555E+03   -0.22296E-01   -0.22355E-01  8424   0.262E-01 0.857E-03
CGA:   6    -0.669904323929E+03   -0.51584E-02   -0.51734E-02  8424   0.591E-02 0.395E-03
CGA:   7    -0.669905516510E+03   -0.11926E-02   -0.12115E-02  8424   0.159E-02 0.634E-03
CGA:   8    -0.669905812455E+03   -0.29594E-03   -0.32151E-03  8424   0.458E-03 0.538E-03
CGA:   9    -0.669905851898E+03   -0.39444E-04   -0.75974E-04  8424   0.220E-03 0.352E-03
CGA:  10    -0.669905845533E+03    0.63648E-05   -0.18749E-04  8424   0.158E-03 0.183E-03
CGA:  11    -0.669905834067E+03    0.11466E-04   -0.10384E-04  8424   0.135E-03 0.145E-03
CGA:  12    -0.669905822103E+03    0.11964E-04   -0.75225E-05  8424   0.122E-03 0.128E-03
CGA:  13    -0.669905810403E+03    0.11700E-04   -0.59529E-05  8424   0.112E-03 0.116E-03
CGA:  14    -0.669905799181E+03    0.11222E-04   -0.49295E-05  8424   0.105E-03 0.108E-03
CGA:  15    -0.669905788499E+03    0.10682E-04   -0.41963E-05  8424   0.999E-04 0.102E-03
CGA:  16    -0.669905778365E+03    0.10134E-04   -0.36382E-05  8424   0.954E-04 0.971E-04
CGA:  17    -0.669905768767E+03    0.95979E-05   -0.31953E-05  8424   0.915E-04 0.929E-04
  21 F= -.66990577E+03 E0= -.66990577E+03  d E =-.509287E-01  mag=     2.0000
       N       E                     dE             d eps       ncg     rms          ort
SDA:   1    -0.669806654568E+03    0.99124E-01    0.00000E+00  8424   0.330E+00 0.000E+00
CGA:   2    -0.669873663554E+03   -0.67009E-01   -0.66957E-01  8424   0.136E+00 0.109E-02
CGA:   3    -0.669902440302E+03   -0.28777E-01   -0.28748E-01  8424   0.443E-01 0.540E-03
CGA:   4    -0.669909688832E+03   -0.72485E-02   -0.72481E-02  8424   0.106E-01 0.800E-03
CGA:   5    -0.669911400098E+03   -0.17113E-02   -0.17140E-02  8424   0.202E-02 0.853E-03
CGA:   6    -0.669911716586E+03   -0.31649E-03   -0.32518E-03  8424   0.485E-03 0.650E-03
CGA:   7    -0.669911748669E+03   -0.32083E-04   -0.58959E-04  8424   0.232E-03 0.386E-03
CGA:   8    -0.669911744446E+03    0.42237E-05   -0.14508E-04  8424   0.170E-03 0.196E-03
  22 F= -.66991174E+03 E0= -.66991174E+03  d E =-.597568E-02  mag=     2.0000
       N       E                     dE             d eps       ncg     rms          ort
SDA:   1    -0.669308324512E+03    0.60342E+00    0.00000E+00  8424   0.179E+01 0.000E+00
CGA:   2    -0.669697531775E+03   -0.38921E+00   -0.38890E+00  8424   0.779E+00 0.389E-02
CGA:   3    -0.669856723855E+03   -0.15919E+00   -0.15926E+00  8424   0.233E+00-0.137E-02
CGA:   4    -0.669895006154E+03   -0.38282E-01   -0.38271E-01  8424   0.568E-01 0.107E-02
CGA:   5    -0.669904531318E+03   -0.95252E-02   -0.95047E-02  8424   0.114E-01 0.173E-02
CGA:   6    -0.669906710923E+03   -0.21796E-02   -0.21461E-02  8424   0.242E-02 0.120E-02
CGA:   7    -0.669907149443E+03   -0.43852E-03   -0.43397E-03  8424   0.710E-03 0.835E-03
CGA:   8    -0.669907230834E+03   -0.81391E-04   -0.10680E-03  8424   0.353E-03 0.562E-03
CGA:   9    -0.669907237493E+03   -0.66583E-05   -0.28185E-04  8424   0.246E-03 0.288E-03
CGA:  10    -0.669907231595E+03    0.58981E-05   -0.14601E-04  8424   0.207E-03 0.223E-03
CGA:  11    -0.669907223001E+03    0.85931E-05   -0.10156E-04  8424   0.183E-03 0.193E-03
  23 F= -.66990722E+03 E0= -.66990722E+03  d E =0.452144E-02  mag=     2.0000
       N       E                     dE             d eps       ncg     rms          ort
SDA:   1    -0.669751578479E+03    0.15565E+00    0.00000E+00  8424   0.428E+00 0.000E+00
CGA:   2    -0.669854567724E+03   -0.10299E+00   -0.10288E+00  8424   0.196E+00 0.974E-03
CGA:   3    -0.669892909714E+03   -0.38342E-01   -0.38336E-01  8424   0.533E-01 0.967E-04
CGA:   4    -0.669901603931E+03   -0.86942E-02   -0.86734E-02  8424   0.127E-01 0.113E-02
CGA:   5    -0.669903646123E+03   -0.20422E-02   -0.20283E-02  8424   0.233E-02 0.130E-02
CGA:   6    -0.669904010958E+03   -0.36484E-03   -0.36737E-03  8424   0.608E-03 0.876E-03
CGA:   7    -0.669904058930E+03   -0.47972E-04   -0.75804E-04  8424   0.298E-03 0.505E-03
CGA:   8    -0.669904058095E+03    0.83562E-06   -0.19114E-04  8424   0.221E-03 0.253E-03
CGA:   9    -0.669904050960E+03    0.71353E-05   -0.10895E-04  8424   0.185E-03 0.201E-03
  24 F= -.66990405E+03 E0= -.66990405E+03  d E =0.317204E-02  mag=     2.0000
       N       E                     dE             d eps       ncg     rms          ort
SDA:   1    -0.644438613514E+03    0.25465E+02    0.00000E+00  8424   0.814E+02 0.000E+00
CGA:   2    -0.660207335076E+03   -0.15769E+02   -0.15675E+02  8424   0.317E+02 0.126E+01
CGA:   3    -0.667167160431E+03   -0.69598E+01   -0.69759E+01  8424   0.102E+02-0.191E+00
CGA:   4    -0.668863248290E+03   -0.16961E+01   -0.16955E+01  8424   0.254E+01 0.102E-01
CGA:   5    -0.669286680238E+03   -0.42343E+00   -0.42318E+00  8424   0.530E+00 0.691E-02
CGA:   6    -0.669394903575E+03   -0.10822E+00   -0.10844E+00  8424   0.126E+00-0.343E-02
CGA:   7    -0.669422693143E+03   -0.27790E-01   -0.27711E-01  8424   0.377E-01 0.994E-03
CGA:   8    -0.669431900340E+03   -0.92072E-02   -0.91023E-02  8424   0.110E-01 0.113E-02
CGA:   9    -0.669435172707E+03   -0.32724E-02   -0.35125E-02  8424   0.507E-02-0.153E-02
CGA:  10    -0.669436482469E+03   -0.13098E-02   -0.14073E-02  8424   0.252E-02-0.602E-03
CGA:  11    -0.669432838747E+03    0.36437E-02   -0.20176E-02  8424   0.249E-01-0.648E-02
CGA:  12    -0.669436930752E+03   -0.40920E-02   -0.42110E-02  8424   0.390E-02 0.857E-03
CGA:  13    -0.669438150029E+03   -0.12193E-02   -0.12227E-02  8424   0.172E-02-0.847E-03
CGA:  14    -0.669438595387E+03   -0.44536E-03   -0.45761E-03  8424   0.989E-03-0.305E-03
CGA:  15    -0.669439091744E+03   -0.49636E-03    0.10372E-01  8424   0.319E-03 0.478E-04
CGA:  16    -0.669439369129E+03   -0.27738E-03    0.13366E-03  8424   0.126E-03 0.612E-04
CGA:  17    -0.669439577933E+03   -0.20880E-03    0.17293E-04  8424   0.765E-04 0.597E-04
CGA:  18    -0.669439816032E+03   -0.23810E-03    0.68016E-05  8424   0.732E-04 0.689E-04
CGA:  19    -0.669439938376E+03   -0.12234E-03    0.62242E-05  8424   0.518E-04 0.433E-04
CGA:  20    -0.669440053218E+03   -0.11484E-03    0.29129E-05  8424   0.560E-04 0.352E-04
CGA:  21    -0.669440162033E+03   -0.10881E-03    0.37970E-05  8424   0.762E-04 0.207E-04
CGA:  22    -0.669440428312E+03   -0.26628E-03    0.48592E-05  8424   0.503E-04 0.974E-04
CGA:  23    -0.669440539716E+03   -0.11140E-03    0.28382E-05  8424   0.656E-04 0.214E-04
CGA:  24    -0.669440791219E+03   -0.25150E-03    0.40603E-05  8424   0.451E-04 0.875E-04
CGA:  25    -0.669440890757E+03   -0.99538E-04    0.25510E-05  8424   0.530E-04 0.242E-04
CGA:  26    -0.669441001094E+03   -0.11034E-03    0.32549E-05  8424   0.769E-04 0.859E-05
CGA:  27    -0.669441257605E+03   -0.25651E-03    0.35843E-05  8424   0.612E-04 0.850E-04
CGA:  28    -0.669441344450E+03   -0.86845E-04    0.68071E-05  8424   0.911E-04-0.670E-05
CGA:  29    -0.669441594832E+03   -0.25038E-03    0.29702E-05  8424   0.946E-04 0.739E-04
CGA:  30    -0.669441703392E+03   -0.10856E-03    0.15810E-04  8424   0.133E-03-0.474E-04
CGA:  31    -0.669441630393E+03    0.73000E-04   -0.91597E-04  8424   0.209E-02-0.426E-03
CGA:  32    -0.669441973528E+03   -0.34314E-03   -0.29488E-03  8424   0.912E-04-0.269E-03
CGA:  33    -0.669442060741E+03   -0.87213E-04    0.16297E-04  8424   0.971E-04-0.228E-04
CGA:  34    -0.669442274043E+03   -0.21330E-03    0.30676E-05  8424   0.466E-04 0.644E-04
CGA:  35    -0.669442379726E+03   -0.10568E-03    0.27508E-05  8424   0.662E-04-0.373E-06
CGA:  36    -0.669442605771E+03   -0.22604E-03    0.22635E-05  8424   0.620E-04 0.597E-04
CGA:  37    -0.669442680411E+03   -0.74640E-04    0.10392E-04  8424   0.786E-04-0.178E-04
CGA:  38    -0.669442887730E+03   -0.20732E-03    0.17687E-05  8424   0.856E-04 0.440E-04
CGA:  39    -0.669442992480E+03   -0.10475E-03    0.13875E-04  8424   0.730E-04-0.298E-04
CGA:  40    -0.669443147793E+03   -0.15531E-03    0.17517E-05  8424   0.657E-04 0.341E-04
CGA:  41    -0.669443376881E+03   -0.22909E-03    0.53438E-05  8424   0.483E-04 0.365E-04
CGA:  42    -0.669443475474E+03   -0.98592E-04    0.33165E-05  8424   0.579E-04-0.987E-05
CGA:  43    -0.669443656873E+03   -0.18140E-03    0.13526E-05  8424   0.570E-04 0.409E-04
CGA:  44    -0.669443720413E+03   -0.63539E-04    0.11310E-04  8424   0.645E-04-0.197E-04
CGA:  45    -0.669443892566E+03   -0.17215E-03    0.11901E-05  8424   0.643E-04 0.336E-04
CGA:  46    -0.669443987738E+03   -0.95172E-04    0.72994E-05  8424   0.559E-04-0.208E-04
CGA:  47    -0.669444128187E+03   -0.14045E-03    0.11943E-05  8424   0.482E-04 0.272E-04
CGA:  48    -0.669444322143E+03   -0.19396E-03    0.33438E-05  8424   0.426E-04 0.261E-04
CGA:  49    -0.669444409437E+03   -0.87295E-04    0.28990E-05  8424   0.547E-04-0.151E-04
CGA:  50    -0.669444575597E+03   -0.16616E-03    0.84290E-06  8424   0.617E-04 0.331E-04
CGA:  51    -0.669444623712E+03   -0.48115E-04    0.38522E-04  8424   0.919E-04-0.435E-04
CGA:  52    -0.669444713365E+03   -0.89653E-04    0.25351E-04  8424   0.158E-03-0.892E-04
CGA:  53    -0.669444746766E+03   -0.33401E-04   -0.28173E-04  8424   0.350E-04-0.392E-04
CGA:  54    -0.669444839498E+03   -0.92733E-04    0.84166E-06  8424   0.142E-04 0.171E-04
CGA:  55    -0.669444941224E+03   -0.10173E-03    0.47006E-06  8424   0.168E-04 0.194E-04
CGA:  56    -0.669445001409E+03   -0.60185E-04    0.52848E-06  8424   0.205E-04 0.859E-05
CGA:  57    -0.669445073907E+03   -0.72498E-04    0.65243E-06  8424   0.296E-04 0.226E-05
CGA:  58    -0.669445231717E+03   -0.15781E-03    0.72918E-06  8424   0.248E-04 0.318E-04
CGA:  59    -0.669445282377E+03   -0.50660E-04    0.16198E-05  8424   0.414E-04-0.685E-05
CGA:  60    -0.669445447114E+03   -0.16474E-03    0.57114E-06  8424   0.544E-04 0.284E-04
CGA:  61    -0.669445517877E+03   -0.70763E-04    0.73391E-05  8424   0.112E-03-0.544E-04
CGA:  62    -0.669445544803E+03   -0.26926E-04   -0.21361E-04  8424   0.462E-04-0.484E-04
CGA:  63    -0.669445637914E+03   -0.93110E-04    0.80233E-06  8424   0.131E-04 0.176E-04
CGA:  64    -0.669445720062E+03   -0.82148E-04    0.40853E-06  8424   0.211E-04 0.837E-05
CGA:  65    -0.669445767836E+03   -0.47774E-04    0.11403E-05  8424   0.324E-04-0.522E-05
CGA:  66    -0.669445909630E+03   -0.14179E-03    0.41992E-06  8424   0.396E-04 0.233E-04
CGA:  67    -0.669445970170E+03   -0.60540E-04    0.38069E-05  8424   0.686E-04-0.324E-04
CGA:  68    -0.669445964957E+03    0.52130E-05   -0.36037E-04  8424   0.631E-03-0.183E-03
CGA:  69    -0.669446095668E+03   -0.13071E-03   -0.10288E-03  8424   0.730E-04-0.189E-03
CGA:  70    -0.669446141281E+03   -0.45613E-04    0.16596E-04  8424   0.333E-04-0.152E-04
CGA:  71    -0.669446236191E+03   -0.94910E-04    0.80760E-06  8424   0.124E-04 0.815E-05
CGA:  72    -0.669446310107E+03   -0.73916E-04    0.33841E-06  8424   0.929E-05 0.121E-04
CGA:  73    -0.669446366044E+03   -0.55937E-04    0.15768E-06  8424   0.102E-04 0.653E-05
CGA:  74    -0.669446407839E+03   -0.41795E-04    0.27131E-06  8424   0.123E-04 0.477E-05
CGA:  75    -0.669446517984E+03   -0.11014E-03    0.29946E-06  8424   0.937E-05 0.173E-04
CGA:  76    -0.669446573673E+03   -0.55689E-04    0.16156E-06  8424   0.105E-04 0.490E-05
CGA:  77    -0.669446611020E+03   -0.37347E-04    0.32899E-06  8424   0.124E-04 0.311E-05
CGA:  78    -0.669446713939E+03   -0.10292E-03    0.25320E-06  8424   0.105E-04 0.155E-04
CGA:  79    -0.669446770554E+03   -0.56615E-04    0.20018E-06  8424   0.118E-04 0.239E-05
CGA:  80    -0.669446867340E+03   -0.96786E-04    0.21877E-06  8424   0.105E-04 0.141E-04
CGA:  81    -0.669446898544E+03   -0.31204E-04    0.41185E-06  8424   0.113E-04 0.166E-05
CGA:  82    -0.669446988573E+03   -0.90029E-04    0.19040E-06  8424   0.105E-04 0.127E-04
CGA:  83    -0.669447044803E+03   -0.56230E-04    0.20492E-06  8424   0.106E-04 0.116E-05
CGA:  84    -0.669447129946E+03   -0.85143E-04    0.16247E-06  8424   0.101E-04 0.114E-04
CGA:  85    -0.669447156388E+03   -0.26442E-04    0.46468E-06  8424   0.956E-05 0.113E-05
CGA:  86    -0.669447234453E+03   -0.78065E-04    0.14507E-06  8424   0.928E-05 0.103E-04
CGA:  87    -0.669447288349E+03   -0.53896E-04    0.16430E-06  8424   0.833E-05 0.150E-05
CGA:  88    -0.669447363681E+03   -0.75332E-04    0.12408E-06  8424   0.823E-05 0.942E-05
CGA:  89    -0.669447388294E+03   -0.24612E-04    0.31732E-06  8424   0.719E-05 0.198E-05
CGA:  90    -0.669447457991E+03   -0.69697E-04    0.11391E-06  8424   0.726E-05 0.868E-05
CGA:  91    -0.669447507654E+03   -0.49663E-04    0.10708E-06  8424   0.628E-05 0.234E-05
CGA:  92    -0.669447576957E+03   -0.69303E-04    0.98631E-07  8424   0.646E-05 0.807E-05
CGA:  93    -0.669447600655E+03   -0.23698E-04    0.19441E-06  8424   0.561E-05 0.252E-05
CGA:  94    -0.669447665284E+03   -0.64629E-04    0.93414E-07  8424   0.584E-05 0.758E-05
CGA:  95    -0.669447711144E+03   -0.45860E-04    0.74245E-07  8424   0.511E-05 0.257E-05
CGA:  96    -0.669447776303E+03   -0.65159E-04    0.81873E-07  8424   0.534E-05 0.714E-05
CGA:  97    -0.669447798654E+03   -0.22352E-04    0.13741E-06  8424   0.472E-05 0.253E-05
CGA:  98    -0.669447859601E+03   -0.60946E-04    0.78228E-07  8424   0.492E-05 0.675E-05
CGA:  99    -0.669447902445E+03   -0.42844E-04    0.55942E-07  8424   0.438E-05 0.245E-05
CGA: 100    -0.669447963753E+03   -0.61308E-04    0.69004E-07  8424   0.456E-05 0.637E-05
CGA: 101    -0.669447984497E+03   -0.20743E-04    0.10637E-06  8424   0.409E-05 0.234E-05
CGA: 102    -0.669448023620E+03   -0.39123E-04    0.41986E-07  8424   0.380E-05 0.256E-05
CGA: 103    -0.669448047120E+03   -0.23500E-04    0.62627E-07  8424   0.359E-05 0.267E-05
CGA: 104    -0.669448082856E+03   -0.35736E-04    0.35346E-07  8424   0.343E-05 0.272E-05
CGA: 105    -0.669448107657E+03   -0.24801E-04    0.47735E-07  8424   0.331E-05 0.272E-05
CGA: 106    -0.669448141221E+03   -0.33564E-04    0.31949E-07  8424   0.321E-05 0.271E-05
CGA: 107    -0.669448166427E+03   -0.25206E-04    0.40777E-07  8424   0.313E-05 0.267E-05
CGA: 108    -0.669448198527E+03   -0.32100E-04    0.29802E-07  8424   0.306E-05 0.262E-05
CGA: 109    -0.669448223618E+03   -0.25092E-04    0.37021E-07  8424   0.300E-05 0.257E-05
CGA: 110    -0.669448254647E+03   -0.31028E-04    0.28314E-07  8424   0.295E-05 0.250E-05
CGA: 111    -0.669448279347E+03   -0.24700E-04    0.34898E-07  8424   0.291E-05 0.243E-05
CGA: 112    -0.669448309508E+03   -0.30161E-04    0.27385E-07  8424   0.288E-05 0.235E-05
CGA: 113    -0.669448333688E+03   -0.24180E-04    0.33948E-07  8424   0.286E-05 0.227E-05
CGA: 114    -0.669448363093E+03   -0.29405E-04    0.27216E-07  8424   0.286E-05 0.216E-05
CGA: 115    -0.669448386687E+03   -0.23593E-04    0.34517E-07  8424   0.290E-05 0.204E-05
CGA: 116    -0.669448415435E+03   -0.28749E-04    0.28590E-07  8424   0.298E-05 0.188E-05
CGA: 117    -0.669448438345E+03   -0.22909E-04    0.38602E-07  8424   0.314E-05 0.167E-05
CGA: 118    -0.669448466604E+03   -0.28259E-04    0.34380E-07  8424   0.345E-05 0.134E-05
CGA: 119    -0.669448519808E+03   -0.53204E-04    0.44405E-07  8424   0.293E-05 0.478E-05
CGA: 120    -0.669448541018E+03   -0.21210E-04    0.40587E-07  8424   0.320E-05 0.127E-05
CGA: 121    -0.669448591928E+03   -0.50910E-04    0.40202E-07  8424   0.274E-05 0.445E-05
CGA: 122    -0.669448618996E+03   -0.27068E-04    0.27187E-07  8424   0.292E-05 0.121E-05
CGA: 123    -0.669448667520E+03   -0.48524E-04    0.35557E-07  8424   0.257E-05 0.410E-05
CGA: 124    -0.669448686325E+03   -0.18805E-04    0.35297E-07  8424   0.267E-05 0.115E-05
CGA: 125    -0.669448732148E+03   -0.45823E-04    0.31628E-07  8424   0.242E-05 0.377E-05
CGA: 126    -0.669448758051E+03   -0.25903E-04    0.22104E-07  8424   0.243E-05 0.110E-05
CGA: 127    -0.669448801705E+03   -0.43655E-04    0.27666E-07  8424   0.228E-05 0.345E-05
CGA: 128    -0.669448818430E+03   -0.16725E-04    0.31208E-07  8424   0.222E-05 0.105E-05
CGA: 129    -0.669448859326E+03   -0.40896E-04    0.24923E-07  8424   0.215E-05 0.317E-05
CGA: 130    -0.669448884032E+03   -0.24706E-04    0.18117E-07  8424   0.203E-05 0.101E-05
CGA: 131    -0.669448923628E+03   -0.39595E-04    0.21749E-07  8424   0.202E-05 0.292E-05
CGA: 132    -0.669448938586E+03   -0.14958E-04    0.27195E-07  8424   0.187E-05 0.967E-06
CGA: 133    -0.669448975443E+03   -0.36857E-04    0.20074E-07  8424   0.189E-05 0.271E-05
CGA: 134    -0.669448998939E+03   -0.23496E-04    0.14689E-07  8424   0.173E-05 0.928E-06
CGA: 135    -0.669449035309E+03   -0.36370E-04    0.17534E-07  8424   0.177E-05 0.252E-05
CGA: 136    -0.669449048755E+03   -0.13446E-04    0.23260E-07  8424   0.160E-05 0.887E-06
CGA: 137    -0.669449070362E+03   -0.21607E-04    0.11485E-07  8424   0.148E-05 0.975E-06
CGA: 138    -0.669449085296E+03   -0.14935E-04    0.14437E-07  8424   0.140E-05 0.103E-05
CGA: 139    -0.669449104966E+03   -0.19669E-04    0.95207E-08  8424   0.133E-05 0.105E-05
CGA: 140    -0.669449120664E+03   -0.15698E-04    0.10919E-07  8424   0.128E-05 0.106E-05
CGA: 141    -0.669449139061E+03   -0.18397E-04    0.85461E-08  8424   0.124E-05 0.106E-05
CGA: 142    -0.669449155031E+03   -0.15970E-04    0.93035E-08  8424   0.121E-05 0.105E-05
CGA: 143    -0.669449172541E+03   -0.17510E-04    0.80230E-08  8424   0.118E-05 0.103E-05
CGA: 144    -0.669449188524E+03   -0.15983E-04    0.84611E-08  8424   0.117E-05 0.101E-05
CGA: 145    -0.669449205305E+03   -0.16781E-04    0.77733E-08  8424   0.115E-05 0.980E-06
CGA: 146    -0.669449221211E+03   -0.15906E-04    0.80193E-08  8424   0.114E-05 0.948E-06
CGA: 147    -0.669449237291E+03   -0.16080E-04    0.78167E-08  8424   0.114E-05 0.909E-06
CGA: 148    -0.669449253133E+03   -0.15842E-04    0.79362E-08  8424   0.115E-05 0.862E-06
CGA: 149    -0.669449268476E+03   -0.15343E-04    0.83649E-08  8424   0.118E-05 0.803E-06
CGA: 150    -0.669449284320E+03   -0.15845E-04    0.84777E-08  8424   0.123E-05 0.724E-06
CGA: 151    -0.669449298857E+03   -0.14537E-04    0.10158E-07  8424   0.133E-05 0.613E-06
CGA: 152    -0.669449330542E+03   -0.31685E-04    0.11975E-07  8424   0.114E-05 0.194E-05
CGA: 153    -0.669449345730E+03   -0.15187E-04    0.82572E-08  8424   0.122E-05 0.595E-06
CGA: 154    -0.669449359349E+03   -0.13619E-04    0.10648E-07  8424   0.135E-05 0.456E-06
CGA: 155    -0.669449389933E+03   -0.30584E-04    0.10780E-07  8424   0.116E-05 0.181E-05
CGA: 156    -0.669449404545E+03   -0.14612E-04    0.89513E-08  8424   0.128E-05 0.411E-06
CGA: 157    -0.669449433350E+03   -0.28805E-04    0.98992E-08  8424   0.112E-05 0.168E-05
CGA: 158    -0.669449446259E+03   -0.12908E-04    0.93841E-08  8424   0.120E-05 0.370E-06
CGA: 159    -0.669449474137E+03   -0.27878E-04    0.86551E-08  8424   0.108E-05 0.155E-05
CGA: 160    -0.669449487216E+03   -0.13079E-04    0.85708E-08  8424   0.112E-05 0.332E-06
CGA: 161    -0.669449513051E+03   -0.25835E-04    0.78826E-08  8424   0.103E-05 0.143E-05
CGA: 162    -0.669449525583E+03   -0.12532E-04    0.82758E-08  8424   0.103E-05 0.307E-06
CGA: 163    -0.669449550513E+03   -0.24930E-04    0.68155E-08  8424   0.983E-06 0.131E-05
[...]
CGA:  92    -0.669696475229E+03   -0.55053E-04    0.71364E-07  8424   0.460E-05 0.543E-05
CGA:  93    -0.669696504538E+03   -0.29309E-04    0.78500E-07  8424   0.363E-05 0.263E-05
CGA:  94    -0.669696534993E+03   -0.30456E-04    0.45981E-07  8424   0.348E-05 0.278E-05
CGA:  95    -0.669696564089E+03   -0.29096E-04    0.44116E-07  8424   0.339E-05 0.279E-05
CGA:  96    -0.669696593220E+03   -0.29130E-04    0.41737E-07  8424   0.332E-05 0.276E-05
CGA:  97    -0.669696622357E+03   -0.29137E-04    0.40086E-07  8424   0.327E-05 0.271E-05
CGA:  98    -0.669696650279E+03   -0.27922E-04    0.40694E-07  8424   0.324E-05 0.265E-05
CGA:  99    -0.669696679400E+03   -0.29121E-04    0.37993E-07  8424   0.321E-05 0.258E-05
CGA: 100    -0.669696706089E+03   -0.26689E-04    0.41042E-07  8424   0.319E-05 0.249E-05
CGA: 101    -0.669696735222E+03   -0.29133E-04    0.36938E-07  8424   0.319E-05 0.241E-05
CGA: 102    -0.669696760623E+03   -0.25401E-04    0.42603E-07  8424   0.319E-05 0.231E-05
CGA: 103    -0.669696789797E+03   -0.29175E-04    0.36683E-07  8424   0.319E-05 0.221E-05
CGA: 104    -0.669696813923E+03   -0.24126E-04    0.45281E-07  8424   0.321E-05 0.210E-05
CGA: 105    -0.669696843096E+03   -0.29173E-04    0.37264E-07  8424   0.324E-05 0.198E-05
CGA: 106    -0.669696866082E+03   -0.22985E-04    0.49121E-07  8424   0.328E-05 0.185E-05
CGA: 107    -0.669696895083E+03   -0.29002E-04    0.39240E-07  8424   0.335E-05 0.171E-05
CGA: 108    -0.669696917214E+03   -0.22131E-04    0.55050E-07  8424   0.347E-05 0.153E-05
CGA: 109    -0.669696968682E+03   -0.51468E-04    0.51857E-07  8424   0.318E-05 0.494E-05
CGA: 110    -0.669696997082E+03   -0.28401E-04    0.37509E-07  8424   0.325E-05 0.146E-05
CGA: 111    -0.669697046604E+03   -0.49522E-04    0.47531E-07  8424   0.302E-05 0.465E-05
CGA: 112    -0.669697066436E+03   -0.19832E-04    0.49787E-07  8424   0.305E-05 0.139E-05
CGA: 113    -0.669697114176E+03   -0.47740E-04    0.43295E-07  8424   0.287E-05 0.437E-05
CGA: 114    -0.669697140988E+03   -0.26812E-04    0.32268E-07  8424   0.286E-05 0.132E-05
CGA: 115    -0.669697186410E+03   -0.45422E-04    0.40044E-07  8424   0.272E-05 0.410E-05
CGA: 116    -0.669697204914E+03   -0.18504E-04    0.43430E-07  8424   0.269E-05 0.125E-05
CGA: 117    -0.669697248947E+03   -0.44034E-04    0.36436E-07  8424   0.259E-05 0.385E-05
CGA: 118    -0.669697273797E+03   -0.24849E-04    0.28363E-07  8424   0.253E-05 0.119E-05
CGA: 119    -0.669697315707E+03   -0.41910E-04    0.33906E-07  8424   0.246E-05 0.363E-05
CGA: 120    -0.669697333275E+03   -0.17569E-04    0.37062E-07  8424   0.239E-05 0.113E-05
CGA: 121    -0.669697374065E+03   -0.40789E-04    0.30969E-07  8424   0.233E-05 0.342E-05
CGA: 122    -0.669697396922E+03   -0.22857E-04    0.25007E-07  8424   0.225E-05 0.108E-05
CGA: 123    -0.669697435796E+03   -0.38875E-04    0.29006E-07  8424   0.221E-05 0.324E-05
CGA: 124    -0.669697452629E+03   -0.16833E-04    0.31151E-07  8424   0.213E-05 0.103E-05
CGA: 125    -0.669697490625E+03   -0.37996E-04    0.26554E-07  8424   0.210E-05 0.306E-05
CGA: 126    -0.669697511540E+03   -0.20915E-04    0.22052E-07  8424   0.201E-05 0.983E-06
CGA: 127    -0.669697547731E+03   -0.36191E-04    0.25026E-07  8424   0.199E-05 0.290E-05
CGA: 128    -0.669697563965E+03   -0.16234E-04    0.25866E-07  8424   0.191E-05 0.938E-06
CGA: 129    -0.669697599484E+03   -0.35519E-04    0.22899E-07  8424   0.188E-05 0.275E-05
CGA: 130    -0.669697618513E+03   -0.19029E-04    0.19455E-07  8424   0.180E-05 0.898E-06
CGA: 131    -0.669697652265E+03   -0.33753E-04    0.21697E-07  8424   0.178E-05 0.261E-05
CGA: 132    -0.669697668013E+03   -0.15747E-04    0.21222E-07  8424   0.170E-05 0.861E-06
CGA: 133    -0.669697701259E+03   -0.33246E-04    0.19808E-07  8424   0.168E-05 0.247E-05
CGA: 134    -0.669697718456E+03   -0.17198E-04    0.17166E-07  8424   0.161E-05 0.827E-06
CGA: 135    -0.669697749954E+03   -0.31498E-04    0.18849E-07  8424   0.158E-05 0.235E-05
CGA: 136    -0.669697765309E+03   -0.15355E-04    0.17183E-07  8424   0.152E-05 0.797E-06
CGA: 137    -0.669697781750E+03   -0.16441E-04    0.14562E-07  8424   0.147E-05 0.807E-06
CGA: 138    -0.669697796133E+03   -0.14383E-04    0.15796E-07  8424   0.144E-05 0.807E-06
CGA: 139    -0.669697812797E+03   -0.16663E-04    0.12840E-07  8424   0.141E-05 0.802E-06
CGA: 140    -0.669697826319E+03   -0.13522E-04    0.15347E-07  8424   0.138E-05 0.791E-06
CGA: 141    -0.669697843135E+03   -0.16816E-04    0.11741E-07  8424   0.136E-05 0.776E-06
CGA: 142    -0.669697855856E+03   -0.12721E-04    0.15324E-07  8424   0.134E-05 0.757E-06
CGA: 143    -0.669697872797E+03   -0.16941E-04    0.11037E-07  8424   0.133E-05 0.735E-06
CGA: 144    -0.669697884742E+03   -0.11945E-04    0.15711E-07  8424   0.132E-05 0.709E-06
CGA: 145    -0.669697901802E+03   -0.17060E-04    0.10625E-07  8424   0.132E-05 0.680E-06
CGA: 146    -0.669697912980E+03   -0.11178E-04    0.16551E-07  8424   0.132E-05 0.648E-06
CGA: 147    -0.669697941352E+03   -0.28372E-04    0.14016E-07  8424   0.125E-05 0.193E-05
CGA: 148    -0.669697957795E+03   -0.16443E-04    0.98551E-08  8424   0.125E-05 0.613E-06
CGA: 149    -0.669697984778E+03   -0.26983E-04    0.13296E-07  8424   0.119E-05 0.184E-05
CGA: 150    -0.669697995448E+03   -0.10671E-04    0.14014E-07  8424   0.119E-05 0.582E-06
CGA: 151    -0.669698021973E+03   -0.26525E-04    0.12120E-07  8424   0.113E-05 0.174E-05
CGA: 152    -0.669698037040E+03   -0.15068E-04    0.87370E-08  8424   0.113E-05 0.552E-06
CGA: 153    -0.669698062160E+03   -0.25120E-04    0.11492E-07  8424   0.107E-05 0.165E-05
CGA: 154    -0.669698072441E+03   -0.10281E-04    0.11785E-07  8424   0.107E-05 0.524E-06
CGA: 155    -0.669698097157E+03   -0.24716E-04    0.10457E-07  8424   0.102E-05 0.156E-05
CGA: 156    -0.669698110876E+03   -0.13719E-04    0.78166E-08  8424   0.101E-05 0.497E-06
CGA: 157    -0.669698134244E+03   -0.23368E-04    0.99187E-08  8424   0.970E-06 0.148E-05
CGA: 158    -0.669698144216E+03   -0.99713E-05    0.98627E-08  8424   0.958E-06 0.472E-06
  31 F= -.66969814E+03 E0= -.66969814E+03  d E =0.197161E+00  mag=     2.0000
       N       E                     dE             d eps       ncg     rms          ort
SDA:   1    -0.665420431318E+03    0.42777E+01    0.00000E+00  8424   0.146E+02 0.000E+00
CGA:   2    -0.668279759246E+03   -0.28593E+01   -0.28688E+01  8424   0.560E+01 0.490E-02
CGA:   3    -0.669470353233E+03   -0.11906E+01   -0.11893E+01  8424   0.183E+01-0.314E-02
CGA:   4    -0.669782235030E+03   -0.31188E+00   -0.31195E+00  8424   0.475E+00-0.342E-03
CGA:   5    -0.669862677011E+03   -0.80442E-01   -0.80584E-01  8424   0.957E-01 0.782E-03
CGA:   6    -0.669881783697E+03   -0.19107E-01   -0.19081E-01  8424   0.213E-01-0.273E-03
CGA:   7    -0.669886528906E+03   -0.47452E-02   -0.47536E-02  8424   0.639E-02 0.133E-03
CGA:   8    -0.669888119933E+03   -0.15910E-02   -0.15903E-02  8424   0.188E-02-0.232E-04
CGA:   9    -0.669888668331E+03   -0.54840E-03   -0.55094E-03  8424   0.736E-03-0.184E-03
CGA:  10    -0.669888838591E+03   -0.17026E-03   -0.17212E-03  8424   0.262E-03 0.833E-04
CGA:  11    -0.669888950237E+03   -0.11165E-03   -0.12234E-03  8424   0.199E-03-0.774E-04
CGA:  12    -0.669889000694E+03   -0.50457E-04   -0.54578E-04  8424   0.158E-03-0.421E-04
CGA:  13    -0.669889076681E+03   -0.75987E-04    0.43729E-03  8424   0.100E-03 0.257E-04
CGA:  14    -0.669889156072E+03   -0.79391E-04    0.10313E-03  8424   0.708E-04 0.372E-04
CGA:  15    -0.669889224759E+03   -0.68687E-04    0.66977E-04  8424   0.534E-04 0.431E-04
CGA:  16    -0.669889259115E+03   -0.34357E-04    0.76586E-04  8424   0.261E-04 0.181E-04
CGA:  17    -0.669889286944E+03   -0.27829E-04    0.14104E-04  8424   0.223E-04 0.194E-04
CGA:  18    -0.669889313285E+03   -0.26341E-04    0.32064E-05  8424   0.194E-04 0.118E-04
CGA:  19    -0.669889325388E+03   -0.12103E-04    0.43189E-04  8424   0.250E-04 0.717E-05
CGA:  20    -0.669889372457E+03   -0.47069E-04    0.36897E-05  8424   0.165E-04 0.312E-04
CGA:  21    -0.669889395508E+03   -0.23051E-04    0.17212E-05  8424   0.205E-04 0.737E-05
CGA:  22    -0.669889434598E+03   -0.39090E-04    0.34633E-05  8424   0.143E-04 0.274E-04
CGA:  23    -0.669889448360E+03   -0.13762E-04    0.32634E-05  8424   0.158E-04 0.871E-05
CGA:  24    -0.669889470189E+03   -0.21830E-04    0.16972E-05  8424   0.221E-04 0.455E-05
CGA:  25    -0.669889510025E+03   -0.39836E-04    0.29972E-05  8424   0.157E-04 0.271E-04
CGA:  26    -0.669889519855E+03   -0.98296E-05    0.31607E-04  8424   0.224E-04 0.292E-05
  32 F= -.66988952E+03 E0= -.66988952E+03  d E =-.191376E+00  mag=     2.0000
       N       E                     dE             d eps       ncg     rms          ort
SDA:   1    -0.669524507598E+03    0.36500E+00    0.00000E+00  8424   0.115E+01 0.000E+00
CGA:   2    -0.669773322944E+03   -0.24882E+00   -0.24895E+00  8424   0.477E+00 0.871E-03
CGA:   3    -0.669870345104E+03   -0.97022E-01   -0.96930E-01  8424   0.145E+00-0.954E-03
CGA:   4    -0.669894840809E+03   -0.24496E-01   -0.24488E-01  8424   0.369E-01-0.782E-04
CGA:   5    -0.669900985352E+03   -0.61445E-02   -0.61802E-02  8424   0.726E-02 0.313E-03
CGA:   6    -0.669902414373E+03   -0.14290E-02   -0.14417E-02  8424   0.163E-02 0.166E-03
CGA:   7    -0.669902772613E+03   -0.35824E-03   -0.36345E-03  8424   0.491E-03 0.101E-03
CGA:   8    -0.669902891703E+03   -0.11909E-03   -0.12129E-03  8424   0.149E-03 0.648E-04
CGA:   9    -0.669902915296E+03   -0.23593E-04   -0.29871E-04  8424   0.564E-04 0.714E-04
CGA:  10    -0.669902914340E+03    0.95614E-06   -0.83776E-05  8424   0.354E-04 0.583E-04
  33 F= -.66990291E+03 E0= -.66990291E+03  d E =-.133945E-01  mag=     2.0000
       N       E                     dE             d eps       ncg     rms          ort
SDA:   1    -0.669397981172E+03    0.50493E+00    0.00000E+00  8424   0.138E+01 0.000E+00
CGA:   2    -0.669756219278E+03   -0.35824E+00   -0.35822E+00  8424   0.610E+00 0.514E-03
CGA:   3    -0.669870164945E+03   -0.11395E+00   -0.11385E+00  8424   0.163E+00-0.154E-02
CGA:   4    -0.669898109976E+03   -0.27945E-01   -0.27956E-01  8424   0.404E-01 0.147E-03
CGA:   5    -0.669904747565E+03   -0.66376E-02   -0.66902E-02  8424   0.799E-02 0.718E-03
CGA:   6    -0.669906294551E+03   -0.15470E-02   -0.15670E-02  8424   0.180E-02 0.478E-03
CGA:   7    -0.669906680131E+03   -0.38558E-03   -0.39322E-03  8424   0.552E-03 0.290E-03
CGA:   8    -0.669906785702E+03   -0.10557E-03   -0.11687E-03  8424   0.191E-03 0.232E-03
CGA:   9    -0.669906795358E+03   -0.96554E-05   -0.30051E-04  8424   0.104E-03 0.173E-03
  34 F= -.66990680E+03 E0= -.66990680E+03  d E =-.388102E-02  mag=     2.0000
       N       E                     dE             d eps       ncg     rms          ort
SDA:   1    -0.669571263109E+03    0.33552E+00    0.00000E+00  8424   0.848E+00 0.000E+00
CGA:   2    -0.669813284758E+03   -0.24202E+00   -0.24201E+00  8424   0.387E+00-0.209E-05
CGA:   3    -0.669883549788E+03   -0.70265E-01   -0.70220E-01  8424   0.970E-01-0.124E-02
CGA:   4    -0.669899863270E+03   -0.16313E-01   -0.16327E-01  8424   0.235E-01 0.281E-03
CGA:   5    -0.669903663480E+03   -0.38002E-02   -0.38404E-02  8424   0.455E-02 0.781E-03
CGA:   6    -0.669904516301E+03   -0.85282E-03   -0.86898E-03  8424   0.103E-02 0.601E-03
CGA:   7    -0.669904706873E+03   -0.19057E-03   -0.20340E-03  8424   0.333E-03 0.353E-03
CGA:   8    -0.669904742647E+03   -0.35774E-04   -0.56391E-04  8424   0.162E-03 0.250E-03
CGA:   9    -0.669904741017E+03    0.16300E-05   -0.13959E-04  8424   0.113E-03 0.131E-03
  35 F= -.66990474E+03 E0= -.66990474E+03  d E =0.205434E-02  mag=     2.0000
       N       E                     dE             d eps       ncg     rms          ort
SDA:   1    -0.668168563920E+03    0.17362E+01    0.00000E+00  8424   0.424E+01 0.000E+00
CGA:   2    -0.669400127833E+03   -0.12316E+01   -0.12318E+01  8424   0.219E+01-0.258E-02
CGA:   3    -0.669791002374E+03   -0.39087E+00   -0.39087E+00  8424   0.474E+00-0.641E-03
CGA:   4    -0.669868204992E+03   -0.77203E-01   -0.77206E-01  8424   0.114E+00 0.805E-04
CGA:   5    -0.669887711777E+03   -0.19507E-01   -0.19531E-01  8424   0.237E-01 0.102E-02
CGA:   6    -0.669892445897E+03   -0.47341E-02   -0.47282E-02  8424   0.547E-02 0.115E-02
CGA:   7    -0.669893670436E+03   -0.12245E-02   -0.12153E-02  8424   0.161E-02 0.500E-03
CGA:   8    -0.669894010556E+03   -0.34012E-03   -0.34046E-03  8424   0.531E-03 0.532E-03
CGA:   9    -0.669894075901E+03   -0.65344E-04   -0.92097E-04  8424   0.278E-03 0.418E-03
CGA:  10    -0.669894083559E+03   -0.76584E-05   -0.28026E-04  8424   0.194E-03 0.226E-03
CGA:  11    -0.669894079581E+03    0.39777E-05   -0.15251E-04  8424   0.165E-03 0.178E-03
CGA:  12    -0.669894072978E+03    0.66036E-05   -0.11100E-04  8424   0.147E-03 0.155E-03
  36 F= -.66989407E+03 E0= -.66989407E+03  d E =0.106680E-01  mag=     2.0000
       N       E                     dE             d eps       ncg     rms          ort
SDA:   1    -0.659336117033E+03    0.10558E+02    0.00000E+00  8424   0.295E+02 0.000E+00
CGA:   2    -0.666354420913E+03   -0.70183E+01   -0.70156E+01  8424   0.134E+02 0.313E-01
CGA:   3    -0.668974083762E+03   -0.26197E+01   -0.26196E+01  8424   0.374E+01 0.385E-02
CGA:   4    -0.669610984188E+03   -0.63690E+00   -0.63692E+00  8424   0.923E+00 0.143E-02
CGA:   5    -0.669765175489E+03   -0.15419E+00   -0.15418E+00  8424   0.182E+00-0.164E-02
CGA:   6    -0.669802131320E+03   -0.36956E-01   -0.36971E-01  8424   0.440E-01-0.523E-03
CGA:   7    -0.669812087539E+03   -0.99562E-02   -0.99294E-02  8424   0.138E-01 0.516E-03
CGA:   8    -0.669815457148E+03   -0.33696E-02   -0.33024E-02  8424   0.406E-02 0.114E-02
CGA:   9    -0.669816690124E+03   -0.12330E-02   -0.12111E-02  8424   0.147E-02 0.228E-03
CGA:  10    -0.669817205694E+03   -0.51557E-03   -0.51393E-03  8424   0.695E-03 0.972E-05
CGA:  11    -0.669817404774E+03   -0.19908E-03   -0.19221E-03  8424   0.232E-03 0.821E-04
CGA:  12    -0.669817453659E+03   -0.48886E-04   -0.49596E-04  8424   0.106E-03 0.127E-03
CGA:  13    -0.669817462024E+03   -0.83645E-05   -0.13829E-04  8424   0.701E-04 0.825E-04
  37 F= -.66981746E+03 E0= -.66981746E+03  d E =0.766110E-01  mag=     2.0000
       N       E                     dE             d eps       ncg     rms          ort
SDA:   1    -0.667527619313E+03    0.22898E+01    0.00000E+00  8424   0.687E+01 0.000E+00
CGA:   2    -0.669097059560E+03   -0.15694E+01   -0.15690E+01  8424   0.305E+01 0.859E-02
CGA:   3    -0.669700059694E+03   -0.60300E+00   -0.60305E+00  8424   0.856E+00-0.749E-02
CGA:   4    -0.669843433876E+03   -0.14337E+00   -0.14337E+00  8424   0.217E+00-0.312E-03
CGA:   5    -0.669880454303E+03   -0.37020E-01   -0.37043E-01  8424   0.442E-01 0.115E-02
CGA:   6    -0.669889317594E+03   -0.88633E-02   -0.88625E-02  8424   0.101E-01 0.710E-04
CGA:   7    -0.669891593809E+03   -0.22762E-02   -0.22680E-02  8424   0.316E-02 0.234E-03
CGA:   8    -0.669892431396E+03   -0.83759E-03   -0.83941E-03  8424   0.108E-02-0.278E-04
CGA:   9    -0.669892712509E+03   -0.28111E-03   -0.27523E-03  8424   0.366E-03 0.927E-04
CGA:  10    -0.669892791138E+03   -0.78629E-04   -0.78640E-04  8424   0.156E-03 0.179E-03
CGA:  11    -0.669892820949E+03   -0.29811E-04   -0.35695E-04  8424   0.842E-04 0.134E-03
CGA:  12    -0.669892833748E+03   -0.12798E-04   -0.14389E-04  8424   0.568E-04 0.637E-04
CGA:  13    -0.669892836986E+03   -0.32386E-05   -0.70314E-05  8424   0.506E-04 0.534E-04
  38 F= -.66989284E+03 E0= -.66989284E+03  d E =-.753750E-01  mag=     2.0000
       N       E                     dE             d eps       ncg     rms          ort
SDA:   1    -0.669799867372E+03    0.92966E-01    0.00000E+00  8424   0.265E+00 0.000E+00
CGA:   2    -0.669871264336E+03   -0.71397E-01   -0.71361E-01  8424   0.113E+00 0.412E-03
CGA:   3    -0.669892667527E+03   -0.21403E-01   -0.21399E-01  8424   0.314E-01-0.133E-02
CGA:   4    -0.669897945083E+03   -0.52776E-02   -0.52801E-02  8424   0.757E-02 0.116E-03
CGA:   5    -0.669899145850E+03   -0.12008E-02   -0.12132E-02  8424   0.146E-02 0.405E-03
CGA:   6    -0.669899430840E+03   -0.28499E-03   -0.28567E-03  8424   0.356E-03 0.205E-03
CGA:   7    -0.669899501499E+03   -0.70660E-04   -0.72119E-04  8424   0.138E-03 0.136E-03
CGA:   8    -0.669899525891E+03   -0.24391E-04   -0.28413E-04  8424   0.773E-04 0.103E-03
CGA:   9    -0.669899531918E+03   -0.60270E-05   -0.96629E-05  8424   0.529E-04 0.593E-04
  39 F= -.66989953E+03 E0= -.66989953E+03  d E =-.669493E-02  mag=     2.0000
       N       E                     dE             d eps       ncg     rms          ort
SDA:   1    -0.668345944249E+03    0.15536E+01    0.00000E+00  8424   0.400E+01 0.000E+00
CGA:   2    -0.669483870039E+03   -0.11379E+01   -0.11379E+01  8424   0.171E+01-0.150E-04
CGA:   3    -0.669801170192E+03   -0.31730E+00   -0.31731E+00  8424   0.455E+00-0.512E-02
CGA:   4    -0.669878515913E+03   -0.77346E-01   -0.77351E-01  8424   0.109E+00 0.406E-03
CGA:   5    -0.669896591436E+03   -0.18076E-01   -0.18103E-01  8424   0.219E-01 0.158E-02
CGA:   6    -0.669901039090E+03   -0.44477E-02   -0.44333E-02  8424   0.521E-02 0.828E-03
CGA:   7    -0.669902270069E+03   -0.12310E-02   -0.12132E-02  8424   0.169E-02 0.431E-03
CGA:   8    -0.669902695317E+03   -0.42525E-03   -0.41215E-03  8424   0.550E-03 0.321E-03
CGA:   9    -0.669902783323E+03   -0.88006E-04   -0.99985E-04  8424   0.248E-03 0.348E-03
CGA:  10    -0.669902791594E+03   -0.82708E-05   -0.24926E-04  8424   0.165E-03 0.196E-03
CGA:  11    -0.669902789643E+03    0.19510E-05   -0.13131E-04  8424   0.136E-03 0.149E-03
  40 F= -.66990279E+03 E0= -.66990279E+03  d E =-.325773E-02  mag=     2.0000
       N       E                     dE             d eps       ncg     rms          ort
SDA:   1    -0.669705411546E+03    0.19738E+00    0.00000E+00  8424   0.527E+00 0.000E+00
CGA:   2    -0.669836568435E+03   -0.13116E+00   -0.13110E+00  8424   0.278E+00 0.601E-03
CGA:   3    -0.669890865384E+03   -0.54297E-01   -0.54294E-01  8424   0.689E-01 0.127E-03
CGA:   4    -0.669901630743E+03   -0.10765E-01   -0.10772E-01  8424   0.152E-01 0.310E-03
CGA:   5    -0.669904194311E+03   -0.25636E-02   -0.25667E-02  8424   0.310E-02 0.459E-03
CGA:   6    -0.669904777477E+03   -0.58317E-03   -0.57981E-03  8424   0.692E-03 0.455E-03
CGA:   7    -0.669904881605E+03   -0.10413E-03   -0.11417E-03  8424   0.234E-03 0.326E-03
CGA:   8    -0.669904894459E+03   -0.12855E-04   -0.31265E-04  8424   0.133E-03 0.224E-03
CGA:   9    -0.669904891592E+03    0.28667E-05   -0.89792E-05  8424   0.105E-03 0.116E-03
  41 F= -.66990489E+03 E0= -.66990489E+03  d E =-.210195E-02  mag=     2.0000
       N       E                     dE             d eps       ncg     rms          ort
SDA:   1    -0.660104407431E+03    0.98005E+01    0.00000E+00  8424   0.257E+02 0.000E+00
CGA:   2    -0.666849109056E+03   -0.67447E+01   -0.67456E+01  8424   0.123E+02-0.775E-02
CGA:   3    -0.669148784962E+03   -0.22997E+01   -0.22992E+01  8424   0.311E+01 0.164E-01
CGA:   4    -0.669669751792E+03   -0.52097E+00   -0.52096E+00  8424   0.752E+00 0.124E-02
CGA:   5    -0.669796353089E+03   -0.12660E+00   -0.12661E+00  8424   0.154E+00-0.165E-02
CGA:   6    -0.669827534982E+03   -0.31182E-01   -0.31168E-01  8424   0.373E-01 0.330E-03
CGA:   7    -0.669836040726E+03   -0.85057E-02   -0.84750E-02  8424   0.117E-01 0.508E-03
CGA:   8    -0.669838860205E+03   -0.28195E-02   -0.27504E-02  8424   0.356E-02 0.111E-02
CGA:   9    -0.669839947674E+03   -0.10875E-02   -0.10472E-02  8424   0.131E-02 0.421E-03
CGA:  10    -0.669840420049E+03   -0.47238E-03   -0.45245E-03  8424   0.572E-03 0.151E-03
CGA:  11    -0.669840559274E+03   -0.13922E-03   -0.13344E-03  8424   0.192E-03 0.232E-03
CGA:  12    -0.669840589876E+03   -0.30602E-04   -0.38000E-04  8424   0.103E-03 0.163E-03
CGA:  13    -0.669840593013E+03   -0.31374E-05   -0.10353E-04  8424   0.766E-04 0.874E-04
