       N       E                     dE             d eps       ncg     rms          ort
DAV:   1     0.571145453170E+04    0.57115E+04   -0.22971E+05  4144   0.175E+03
DAV:   2     0.867866607477E+02   -0.56247E+04   -0.51119E+04  4144   0.502E+02
DAV:   3    -0.749062691996E+03   -0.83585E+03   -0.78627E+03  4144   0.204E+02
DAV:   4    -0.792027330980E+03   -0.42965E+02   -0.42471E+02  4144   0.472E+01
DAV:   5    -0.792546367384E+03   -0.51904E+00   -0.51798E+00  4144   0.566E+00
SDA:   6    -0.274635427071E+03    0.51791E+03   -0.51798E+00  4144   0.186E+04 0.000E+00
CGA:   7    -0.541675723196E+03   -0.26704E+03   -0.26288E+03  4144   0.207E+03 0.135E+02
CGA:   8    -0.581561444724E+03   -0.39886E+02   -0.39867E+02  4144   0.593E+02-0.963E+00
CGA:   9    -0.596316669742E+03   -0.14755E+02   -0.14728E+02  4144   0.291E+02 0.436E+00
CGA:  10    -0.602992446663E+03   -0.66758E+01   -0.66797E+01  4144   0.777E+01-0.179E+00
CGA:  11    -0.604791609412E+03   -0.17992E+01   -0.18072E+01  4144   0.204E+01-0.249E+00
CGA:  12    -0.605289523427E+03   -0.49791E+00   -0.50556E+00  4144   0.639E+00-0.143E+00
CGA:  13    -0.605472697851E+03   -0.18317E+00   -0.19156E+00  4144   0.275E+00-0.728E-01
CGA:  14    -0.605559716368E+03   -0.87019E-01   -0.10470E+00  4144   0.210E+00-0.823E-01
CGA:  15    -0.605574323268E+03   -0.14607E-01   -0.10337E+00  4144   0.394E+00-0.187E+00
CGA:  16    -0.605668924941E+03   -0.94602E-01   -0.94677E-01  4144   0.733E-01 0.133E-01
CGA:  17    -0.605693368817E+03   -0.24444E-01   -0.24788E-01  4144   0.202E-01-0.423E-02
CGA:  18    -0.605698836017E+03   -0.54672E-02   -0.53473E-02  4144   0.479E-02 0.387E-02
CGA:  19    -0.605700911986E+03   -0.20760E-02   -0.19699E-02  4144   0.198E-02 0.114E-02
CGA:  20    -0.605702221715E+03   -0.13097E-02   -0.15086E-02  4144   0.224E-02-0.544E-03
CGA:  21    -0.605702724568E+03   -0.50285E-03   -0.51346E-03  4144   0.130E-02-0.249E-03
CGA:  22    -0.605703702959E+03   -0.97839E-03    0.29643E-03  4144   0.657E-03 0.850E-04
CGA:  23    -0.605704846548E+03   -0.11436E-02    0.49334E-04  4144   0.395E-03 0.406E-04
CGA:  24    -0.605705821578E+03   -0.97503E-03    0.18039E-04  4144   0.217E-03 0.929E-04
CGA:  25    -0.605706549778E+03   -0.72820E-03    0.94265E-05  4144   0.137E-03 0.496E-04
CGA:  26    -0.605707209245E+03   -0.65947E-03    0.37945E-05  4144   0.472E-04 0.314E-04
CGA:  27    -0.605707484979E+03   -0.27573E-03    0.10563E-05  4144   0.223E-04 0.235E-05
CGA:  28    -0.605707547726E+03   -0.62748E-04    0.83577E-06  4144   0.847E-05 0.174E-05
CGA:  29    -0.605707546008E+03    0.17181E-05   -0.29514E-06  4144   0.754E-05 0.825E-05
   1 F= -.60570755E+03 E0= -.60570755E+03  d E =-.605708E+03  mag=    55.0000
       N       E                     dE             d eps       ncg     rms          ort
SDA:   1    -0.605705605433E+03    0.19423E-02    0.00000E+00  4144   0.550E-02 0.000E+00
CGA:   2    -0.605706796428E+03   -0.11910E-02   -0.11940E-02  4144   0.227E-02 0.848E-04
CGA:   3    -0.605707328582E+03   -0.53215E-03   -0.53300E-03  4144   0.645E-03 0.438E-04
CGA:   4    -0.605707449610E+03   -0.12103E-03   -0.12178E-03  4144   0.127E-03 0.116E-04
CGA:   5    -0.605707467116E+03   -0.17507E-04   -0.20288E-04  4144   0.263E-04 0.314E-04
CGA:   6    -0.605707468854E+03   -0.17378E-05   -0.38390E-05  4144   0.101E-04 0.169E-04
   2 F= -.60570747E+03 E0= -.60570747E+03  d E =0.771540E-04  mag=    55.0000
       N       E                     dE             d eps       ncg     rms          ort
SDA:   1    -0.605707185215E+03    0.28190E-03    0.00000E+00  4144   0.771E-03 0.000E+00
CGA:   2    -0.605707359877E+03   -0.17466E-03   -0.17470E-03  4144   0.303E-03 0.278E-04
CGA:   3    -0.605707423711E+03   -0.63834E-04   -0.64500E-04  4144   0.700E-04 0.298E-04
CGA:   4    -0.605707434766E+03   -0.11055E-04   -0.12273E-04  4144   0.133E-04 0.182E-04
CGA:   5    -0.605707435722E+03   -0.95595E-06   -0.19154E-05  4144   0.479E-05 0.880E-05
   3 F= -.60570744E+03 E0= -.60570744E+03  d E =0.331321E-04  mag=    55.0000
       N       E                     dE             d eps       ncg     rms          ort
SDA:   1    -0.605707415515E+03    0.19251E-04    0.00000E+00  4144   0.192E-04 0.000E+00
CGA:   2    -0.605707418563E+03   -0.30486E-05   -0.31899E-05  4144   0.529E-05 0.318E-05
CGA:   3    -0.605707419016E+03   -0.45217E-06   -0.73722E-06  4144   0.194E-05 0.321E-05
CGA:   4    -0.605707418917E+03    0.98898E-07   -0.12233E-06  4144   0.131E-05 0.157E-05
   4 F= -.60570742E+03 E0= -.60570742E+03  d E =0.168054E-04  mag=    55.0000
       N       E                     dE             d eps       ncg     rms          ort
SDA:   1    -0.605707397942E+03    0.21073E-04    0.00000E+00  4144   0.419E-04 0.000E+00
CGA:   2    -0.605707411286E+03   -0.13344E-04   -0.14528E-04  4144   0.266E-04-0.753E-05
CGA:   3    -0.605707413045E+03   -0.17589E-05   -0.24196E-05  4144   0.714E-05 0.764E-05
CGA:   4    -0.605707413102E+03   -0.57065E-07   -0.63170E-06  4144   0.250E-05 0.462E-05
   5 F= -.60570741E+03 E0= -.60570741E+03  d E =0.581425E-05  mag=    55.0000
       N       E                     dE             d eps       ncg     rms          ort
SDA:   1    -0.600908539752E+03    0.47989E+01    0.00000E+00  4144   0.130E+02 0.000E+00
CGA:   2    -0.604249943959E+03   -0.33414E+01   -0.33400E+01  4144   0.511E+01 0.113E-01
CGA:   3    -0.605307535363E+03   -0.10576E+01   -0.10576E+01  4144   0.132E+01-0.234E-02
CGA:   4    -0.605569123030E+03   -0.26159E+00   -0.26155E+00  4144   0.260E+00 0.232E-02
CGA:   5    -0.605621201155E+03   -0.52078E-01   -0.52084E-01  4144   0.579E-01-0.493E-03
CGA:   6    -0.605634881890E+03   -0.13681E-01   -0.13753E-01  4144   0.184E-01-0.143E-02
CGA:   7    -0.605639574266E+03   -0.46924E-02   -0.46822E-02  4144   0.533E-02 0.139E-03
CGA:   8    -0.605640985949E+03   -0.14117E-02   -0.13574E-02  4144   0.168E-02 0.906E-03
CGA:   9    -0.605641514855E+03   -0.52891E-03   -0.49776E-03  4144   0.592E-03 0.540E-03
CGA:  10    -0.605641753128E+03   -0.23827E-03   -0.21904E-03  4144   0.277E-03 0.237E-03
CGA:  11    -0.605641868856E+03   -0.11573E-03   -0.10563E-03  4144   0.134E-03 0.145E-03
CGA:  12    -0.605641902712E+03   -0.33857E-04   -0.31620E-04  4144   0.655E-04 0.741E-04
CGA:  13    -0.605641915460E+03   -0.12748E-04   -0.13162E-04  4144   0.516E-04 0.568E-04
CGA:  14    -0.605641922975E+03   -0.75151E-05   -0.90563E-05  4144   0.443E-04 0.476E-04
   6 F= -.60564192E+03 E0= -.60564192E+03  d E =0.654901E-01  mag=    55.0000
       N       E                     dE             d eps       ncg     rms          ort
SDA:   1    -0.601512828405E+03    0.41291E+01    0.00000E+00  4144   0.117E+02 0.000E+00
CGA:   2    -0.604447216781E+03   -0.29344E+01   -0.29337E+01  4144   0.454E+01 0.103E-01
CGA:   3    -0.605403712725E+03   -0.95650E+00   -0.95650E+00  4144   0.120E+01-0.350E-02
CGA:   4    -0.605640783782E+03   -0.23707E+00   -0.23705E+00  4144   0.238E+00-0.270E-02
CGA:   5    -0.605688048736E+03   -0.47265E-01   -0.47272E-01  4144   0.518E-01 0.882E-03
CGA:   6    -0.605699900318E+03   -0.11852E-01   -0.11836E-01  4144   0.153E-01 0.676E-03
CGA:   7    -0.605704222265E+03   -0.43219E-02   -0.43656E-02  4144   0.500E-02-0.587E-03
CGA:   8    -0.605705821483E+03   -0.15992E-02   -0.18953E-02  4144   0.346E-02-0.161E-02
CGA:   9    -0.605706508541E+03   -0.68706E-03   -0.89711E-03  4144   0.195E-02-0.129E-02
CGA:  10    -0.605706885815E+03   -0.37727E-03   -0.40680E-03  4144   0.779E-03-0.284E-03
CGA:  11    -0.605707104752E+03   -0.21894E-03   -0.21808E-03  4144   0.377E-03 0.838E-05
CGA:  12    -0.605707259201E+03   -0.15445E-03   -0.16733E-03  4144   0.251E-03-0.645E-04
CGA:  13    -0.605707335333E+03   -0.76132E-04   -0.80270E-04  4144   0.117E-03-0.302E-04
CGA:  14    -0.605707364722E+03   -0.29388E-04   -0.28972E-04  4144   0.432E-04 0.149E-04
CGA:  15    -0.605707374281E+03   -0.95593E-05   -0.10288E-04  4144   0.166E-04 0.163E-04
   7 F= -.60570737E+03 E0= -.60570737E+03  d E =-.654513E-01  mag=    55.0000
       N       E                     dE             d eps       ncg     rms          ort
SDA:   1    -0.605666001971E+03    0.41363E-01    0.00000E+00  4144   0.105E+00 0.000E+00
CGA:   2    -0.605694728641E+03   -0.28727E-01   -0.28722E-01  4144   0.470E-01 0.156E-03
CGA:   3    -0.605704196530E+03   -0.94679E-02   -0.94538E-02  4144   0.104E-01-0.300E-03
CGA:   4    -0.605706215381E+03   -0.20189E-02   -0.20114E-02  4144   0.215E-02-0.143E-03
CGA:   5    -0.605706606199E+03   -0.39082E-03   -0.39690E-03  4144   0.428E-03 0.105E-03
CGA:   6    -0.605706688497E+03   -0.82298E-04   -0.86564E-04  4144   0.108E-03 0.863E-04
CGA:   7    -0.605706723971E+03   -0.35474E-04   -0.35232E-04  4144   0.415E-04 0.731E-05
CGA:   8    -0.605706747810E+03   -0.23839E-04    0.45887E-04  4144   0.152E-04 0.710E-05
CGA:   9    -0.605706763538E+03   -0.15728E-04    0.25872E-05  4144   0.542E-05 0.447E-05
CGA:  10    -0.605706769736E+03   -0.61986E-05    0.10148E-05  4144   0.216E-05 0.202E-05
   8 F= -.60570677E+03 E0= -.60570677E+03  d E =0.604544E-03  mag=    55.0000
       N       E                     dE             d eps       ncg     rms          ort
SDA:   1    -0.605693543222E+03    0.13220E-01    0.00000E+00  4144   0.373E-01 0.000E+00
CGA:   2    -0.605702907533E+03   -0.93643E-02   -0.93643E-02  4144   0.170E-01-0.100E-04
CGA:   3    -0.605706465284E+03   -0.35578E-02   -0.35626E-02  4144   0.392E-02 0.146E-03
CGA:   4    -0.605707200167E+03   -0.73488E-03   -0.73850E-03  4144   0.783E-03 0.666E-04
CGA:   5    -0.605707378649E+03   -0.17848E-03   -0.17754E-03  4144   0.210E-03-0.654E-04
CGA:   6    -0.605707431157E+03   -0.52508E-04   -0.57077E-04  4144   0.120E-03-0.760E-04
CGA:   7    -0.605707446447E+03   -0.15290E-04   -0.15329E-04  4144   0.323E-04 0.974E-06
CGA:   8    -0.605707447354E+03   -0.90710E-06   -0.32744E-05  4144   0.144E-04 0.173E-04
   9 F= -.60570745E+03 E0= -.60570745E+03  d E =-.677617E-03  mag=    55.0000
