       N       E                     dE             d eps       ncg     rms          rms(c)
DAV:   1     0.114450632226E+05    0.11445E+05   -0.42220E+05105240   0.155E+03
DAV:   2     0.721026564024E+03   -0.10724E+05   -0.97454E+04102520   0.466E+02
DAV:   3    -0.845917232321E+03   -0.15669E+04   -0.14828E+04109730   0.188E+02
DAV:   4    -0.928004310545E+03   -0.82087E+02   -0.80990E+02117780   0.438E+01
DAV:   5    -0.929056919259E+03   -0.10526E+01   -0.10497E+01112650   0.546E+00    0.139E+02
DAV:   6    -0.754903663427E+03    0.17415E+03   -0.87786E+02126660   0.728E+01    0.110E+02
DAV:   7    -0.780985941582E+03   -0.26082E+02   -0.26692E+02114830   0.477E+01    0.734E+01
DAV:   8    -0.795517939014E+03   -0.14532E+02   -0.41791E+01120910   0.185E+01    0.866E+01
DAV:   9    -0.773531035567E+03    0.21987E+02   -0.42990E+01112530   0.197E+01    0.470E+01
DAV:  10    -0.781499991201E+03   -0.79690E+01   -0.27187E+01120920   0.129E+01    0.351E+01
DAV:  11    -0.784124580393E+03   -0.26246E+01   -0.48712E+00113750   0.664E+00    0.185E+01
DAV:  12    -0.784994716643E+03   -0.87014E+00   -0.41638E+00118290   0.398E+00    0.182E+01
DAV:  13    -0.784950584938E+03    0.44132E-01   -0.72277E-01110020   0.243E+00    0.140E+01
DAV:  14    -0.784816743842E+03    0.13384E+00   -0.34187E-01113980   0.122E+00    0.113E+01
DAV:  15    -0.784710527019E+03    0.10622E+00   -0.13926E-01126120   0.980E-01    0.103E+01
DAV:  16    -0.784459429399E+03    0.25110E+00   -0.13484E-01122380   0.141E+00    0.735E+00
DAV:  17    -0.784324911639E+03    0.13452E+00   -0.63458E-02126990   0.762E-01    0.583E+00
DAV:  18    -0.784247667488E+03    0.77244E-01   -0.26406E-02136130   0.586E-01    0.485E+00
DAV:  19    -0.784167916918E+03    0.79751E-01   -0.16612E-02142060   0.848E-01    0.323E+00
DAV:  20    -0.784149791490E+03    0.18125E-01   -0.38512E-02124140   0.865E-01    0.796E+00
DAV:  21    -0.784149682304E+03    0.10919E-03   -0.46668E-02107130   0.309E-01    0.804E+00
DAV:  22    -0.784143637165E+03    0.60451E-02   -0.36946E-04113270   0.411E-02    0.743E+00
DAV:  23    -0.784176672560E+03   -0.33035E-01   -0.24552E-03121520   0.162E-01    0.123E+01
DAV:  24    -0.784158453517E+03    0.18219E-01   -0.18362E-03112970   0.127E-01    0.111E+01
DAV:  25    -0.784163139248E+03   -0.46857E-02   -0.36107E-03123860   0.109E-01    0.111E+01
DAV:  26    -0.784161745047E+03    0.13942E-02   -0.12360E-03139480   0.104E-01    0.102E+01
DAV:  27    -0.784178700164E+03   -0.16955E-01   -0.27278E-03130390   0.111E-01    0.111E+01
DAV:  28    -0.784179977541E+03   -0.12774E-02   -0.69119E-04126220   0.566E-02    0.110E+01
DAV:  29    -0.784165414457E+03    0.14563E-01   -0.49034E-04126420   0.975E-02    0.102E+01
DAV:  30    -0.784148633593E+03    0.16781E-01   -0.36794E-03139310   0.317E-01    0.107E+01
DAV:  31    -0.784121876815E+03    0.26757E-01   -0.79968E-03139240   0.303E-01    0.959E+00
DAV:  32    -0.784099962708E+03    0.21914E-01   -0.78855E-03130300   0.455E-01    0.951E+00
DAV:  33    -0.784067008911E+03    0.32954E-01   -0.15234E-02139420   0.440E-01    0.662E+00
DAV:  34    -0.784063761183E+03    0.32477E-02   -0.20715E-02126090   0.267E-01    0.496E+00
DAV:  35    -0.784067340517E+03   -0.35793E-02   -0.49776E-03113250   0.177E-01    0.362E+00
DAV:  36    -0.784054724010E+03    0.12617E-01   -0.95425E-03125770   0.395E-01    0.405E+00
DAV:  37    -0.784041732128E+03    0.12992E-01   -0.32007E-02141080   0.458E-01    0.518E+00
DAV:  38    -0.784054020775E+03   -0.12289E-01   -0.93866E-03109490   0.181E-01    0.492E+00
DAV:  39    -0.784064566923E+03   -0.10546E-01   -0.12620E-03112350   0.123E-01    0.537E+00
DAV:  40    -0.784057689649E+03    0.68773E-02   -0.36310E-04106500   0.469E-02    0.525E+00
DAV:  41    -0.784032848966E+03    0.24841E-01   -0.72610E-03127590   0.145E-01    0.553E+00
DAV:  42    -0.784033142051E+03   -0.29308E-03   -0.42399E-04100190   0.285E-02    0.554E+00
DAV:  43    -0.784032508621E+03    0.63343E-03   -0.30394E-05 82470   0.967E-03    0.555E+00
DAV:  44    -0.784037898060E+03   -0.53894E-02   -0.26944E-04127860   0.502E-02    0.567E+00
DAV:  45    -0.784032877457E+03    0.50206E-02   -0.28474E-04111440   0.430E-02    0.560E+00
DAV:  46    -0.784021867923E+03    0.11010E-01   -0.24454E-03129820   0.980E-02    0.554E+00
DAV:  47    -0.784002984714E+03    0.18883E-01   -0.24369E-03120600   0.158E-01    0.529E+00
DAV:  48    -0.783950085578E+03    0.52899E-01   -0.13899E-02134920   0.297E-01    0.513E+00
DAV:  49    -0.783883658677E+03    0.66427E-01   -0.66012E-02130820   0.300E-01    0.578E+00
DAV:  50    -0.783897371816E+03   -0.13713E-01   -0.59770E-03105080   0.130E-01    0.568E+00
DAV:  51    -0.783914850734E+03   -0.17479E-01   -0.15249E-03125440   0.122E-01    0.583E+00
DAV:  52    -0.783928550676E+03   -0.13700E-01   -0.44051E-03124430   0.192E-01    0.635E+00
DAV:  53    -0.783950900509E+03   -0.22350E-01   -0.48317E-03132270   0.139E-01    0.643E+00
DAV:  54    -0.783948364770E+03    0.25357E-02   -0.10636E-03104250   0.492E-02    0.648E+00
DAV:  55    -0.783951754155E+03   -0.33894E-02   -0.71584E-05101190   0.246E-02    0.651E+00
DAV:  56    -0.783934941572E+03    0.16813E-01   -0.18997E-03128010   0.121E-01    0.643E+00
DAV:  57    -0.783937410228E+03   -0.24687E-02   -0.24372E-04103210   0.269E-02    0.643E+00
DAV:  58    -0.783929705438E+03    0.77048E-02   -0.94717E-04122200   0.494E-02    0.646E+00
DAV:  59    -0.783930147920E+03   -0.44248E-03   -0.28215E-04115000   0.406E-02    0.658E+00
DAV:  60    -0.783928343926E+03    0.18040E-02   -0.12704E-04 99440   0.205E-02    0.655E+00
DAV:  61    -0.783913686738E+03    0.14657E-01   -0.60514E-03126740   0.849E-02    0.691E+00
DAV:  62    -0.783913089519E+03    0.59722E-03   -0.17853E-04 99620   0.210E-02    0.690E+00
DAV:  63    -0.783913136392E+03   -0.46874E-04   -0.67819E-06 67580   0.460E-03    0.689E+00
DAV:  64    -0.783907254321E+03    0.58821E-02   -0.63377E-03129590   0.707E-02    0.728E+00
DAV:  65    -0.783914311747E+03   -0.70574E-02   -0.67758E-04119940   0.426E-02    0.719E+00
DAV:  66    -0.783963854877E+03   -0.49543E-01   -0.16834E-02131550   0.362E-01    0.838E+00
DAV:  67    -0.783961470550E+03    0.23843E-02   -0.57140E-03106230   0.924E-02    0.809E+00
DAV:  68    -0.783961440321E+03    0.30229E-04   -0.97658E-05104920   0.153E-02    0.810E+00
DAV:  69    -0.783965862681E+03   -0.44224E-02   -0.21154E-04 88780   0.253E-02    0.808E+00
DAV:  70    -0.783969808544E+03   -0.39459E-02   -0.18207E-04108660   0.244E-02    0.812E+00
DAV:  71    -0.784009906589E+03   -0.40098E-01   -0.80837E-03135140   0.201E-01    0.792E+00
DAV:  72    -0.784033366292E+03   -0.23460E-01   -0.61485E-03129110   0.156E-01    0.800E+00
DAV:  73    -0.784029352818E+03    0.40135E-02   -0.24073E-03104040   0.639E-02    0.814E+00
DAV:  74    -0.784025716300E+03    0.36365E-02   -0.85580E-05106330   0.211E-02    0.813E+00
DAV:  75    -0.784021014929E+03    0.47014E-02   -0.33760E-03121420   0.959E-02    0.805E+00
DAV:  76    -0.784243159198E+03   -0.22214E+00   -0.15075E+00127670   0.253E+00    0.156E+01
DAV:  77    -0.784350458188E+03   -0.10730E+00   -0.12070E-01116480   0.164E+00    0.191E+01
DAV:  78    -0.783884492222E+03    0.46597E+00   -0.10293E-01129370   0.115E+00    0.459E+00
DAV:  79    -0.783829634887E+03    0.54857E-01   -0.17472E-01124950   0.529E-01    0.533E+00
DAV:  80    -0.783819481356E+03    0.10154E-01   -0.16317E-02111000   0.171E-01    0.540E+00
DAV:  81    -0.783838668954E+03   -0.19188E-01   -0.25590E-03107630   0.133E-01    0.545E+00
DAV:  82    -0.783833263650E+03    0.54053E-02   -0.32788E-04110570   0.374E-02    0.549E+00
DAV:  83    -0.783820148042E+03    0.13116E-01   -0.95645E-04131520   0.591E-02    0.553E+00
DAV:  84    -0.783795768772E+03    0.24379E-01   -0.43738E-03134610   0.114E-01    0.562E+00
DAV:  85    -0.783795261830E+03    0.50694E-03   -0.56841E-04103310   0.327E-02    0.561E+00
DAV:  86    -0.783945178424E+03   -0.14992E+00   -0.15294E-01138460   0.857E-01    0.562E+00
DAV:  87    -0.783959775508E+03   -0.14597E-01   -0.24738E-02108800   0.198E-01    0.548E+00
DAV:  88    -0.783959484013E+03    0.29150E-03   -0.57684E-04109790   0.383E-02    0.540E+00
DAV:  89    -0.783960448371E+03   -0.96436E-03   -0.77652E-04126570   0.395E-02    0.530E+00
DAV:  90    -0.783966509066E+03   -0.60607E-02   -0.42661E-04111990   0.329E-02    0.527E+00
DAV:  91    -0.783979329047E+03   -0.12820E-01   -0.14466E-03130300   0.662E-02    0.523E+00
DAV:  92    -0.783968170457E+03    0.11159E-01   -0.11501E-03109880   0.565E-02    0.532E+00
DAV:  93    -0.783969167141E+03   -0.99668E-03   -0.19513E-05 76830   0.737E-03    0.531E+00
DAV:  94    -0.783970329246E+03   -0.11621E-02   -0.11473E-05 58960   0.626E-03    0.530E+00
DAV:  95    -0.783981696135E+03   -0.11367E-01   -0.10622E-03110300   0.509E-02    0.520E+00
DAV:  96    -0.784001316860E+03   -0.19621E-01   -0.32420E-03127540   0.940E-02    0.503E+00
DAV:  97    -0.784032681663E+03   -0.31365E-01   -0.61176E-03128070   0.144E-01    0.478E+00
DAV:  98    -0.784118265311E+03   -0.85584E-01   -0.23402E-02130740   0.321E-01    0.127E+01
DAV:  99    -0.784116068235E+03    0.21971E-02   -0.68566E-03101900   0.138E-01    0.143E+01
DAV: 100    -0.784072850915E+03    0.43217E-01   -0.10611E-03102690   0.858E-02    0.975E+00
DAV: 101    -0.784082408432E+03   -0.95575E-02   -0.14547E-03125380   0.104E-01    0.995E+00
DAV: 102    -0.784100670762E+03   -0.18262E-01   -0.10611E-03130620   0.763E-02    0.122E+01
DAV: 103    -0.784068427757E+03    0.32243E-01   -0.64459E-04112260   0.761E-02    0.809E+00
DAV: 104    -0.784087765730E+03   -0.19338E-01   -0.53960E-04103580   0.621E-02    0.974E+00
DAV: 105    -0.784082960744E+03    0.48050E-02   -0.82179E-05 98660   0.182E-02    0.931E+00
DAV: 106    -0.784075855563E+03    0.71052E-02   -0.19775E-04119720   0.383E-02    0.795E+00
DAV: 107    -0.784133072282E+03   -0.57217E-01   -0.14941E-03115440   0.113E-01    0.150E+01
DAV: 108    -0.784059675230E+03    0.73397E-01   -0.34334E-03107130   0.179E-01    0.792E+00
DAV: 109    -0.784091645082E+03   -0.31970E-01   -0.24776E-03103270   0.174E-01    0.101E+01
DAV: 110    -0.784169375793E+03   -0.77731E-01   -0.25078E-03122030   0.136E-01    0.176E+01
DAV: 111    -0.784181472298E+03   -0.12097E-01   -0.27642E-03109720   0.126E-01    0.183E+01
DAV: 112    -0.784125734950E+03    0.55737E-01   -0.94571E-04119960   0.107E-01    0.165E+01
DAV: 113    -0.784107393552E+03    0.18341E-01   -0.46963E-04112330   0.426E-02    0.149E+01
DAV: 114    -0.784150227881E+03   -0.42834E-01   -0.34022E-04108020   0.642E-02    0.174E+01
DAV: 115    -0.784086987242E+03    0.63241E-01   -0.76280E-04108890   0.924E-02    0.131E+01
DAV: 116    -0.784055347298E+03    0.31640E-01   -0.18343E-03114550   0.157E-01    0.643E+00
DAV: 117    -0.784062002545E+03   -0.66552E-02   -0.30702E-03104030   0.112E-01    0.446E+00
DAV: 118    -0.784048894957E+03    0.13108E-01   -0.33048E-03124380   0.143E-01    0.366E+00
DAV: 119    -0.784029935574E+03    0.18959E-01   -0.72552E-03137820   0.179E-01    0.417E+00
DAV: 120    -0.784007988603E+03    0.21947E-01   -0.76612E-03140610   0.141E-01    0.457E+00
DAV: 121    -0.784001028360E+03    0.69602E-02   -0.17287E-03108260   0.474E-02    0.468E+00
DAV: 122    -0.783993459150E+03    0.75692E-02   -0.66912E-04109720   0.358E-02    0.477E+00
DAV: 123    -0.783990065590E+03    0.33936E-02   -0.20766E-04 97400   0.174E-02    0.480E+00
DAV: 124    -0.783986856063E+03    0.32095E-02   -0.10367E-04 78820   0.136E-02    0.483E+00
DAV: 125    -0.783983821853E+03    0.30342E-02   -0.88014E-05 80860   0.127E-02    0.485E+00
DAV: 126    -0.784024684400E+03   -0.40863E-01   -0.15279E-02122660   0.209E-01    0.444E+00
DAV: 127    -0.784010562378E+03    0.14122E-01   -0.16856E-03112490   0.838E-02    0.457E+00
DAV: 128    -0.784011437332E+03   -0.87495E-03   -0.79989E-05105000   0.248E-02    0.462E+00
DAV: 129    -0.784007959076E+03    0.34783E-02   -0.25956E-04104700   0.340E-02    0.472E+00
DAV: 130    -0.783994138586E+03    0.13820E-01   -0.17918E-03122540   0.677E-02    0.485E+00
DAV: 131    -0.783984045280E+03    0.10093E-01   -0.10587E-03127190   0.472E-02    0.494E+00
DAV: 132    -0.783980345833E+03    0.36994E-02   -0.20442E-04104240   0.200E-02    0.495E+00
DAV: 133    -0.783980161505E+03    0.18433E-03   -0.21131E-05 79410   0.575E-03    0.496E+00
DAV: 134    -0.783979951856E+03    0.20965E-03   -0.70806E-07 53850   0.142E-03    0.496E+00
DAV: 135    -0.783981500658E+03   -0.15488E-02   -0.13944E-05 58440   0.804E-03    0.496E+00
DAV: 136    -0.783979771438E+03    0.17292E-02   -0.13414E-05 70690   0.128E-02    0.494E+00
DAV: 137    -0.783977272005E+03    0.24994E-02   -0.68767E-05 66960   0.124E-02    0.496E+00
DAV: 138    -0.783976418205E+03    0.85380E-03   -0.12701E-05 62380   0.493E-03    0.496E+00
DAV: 139    -0.783976177202E+03    0.24100E-03   -0.24701E-06 55270   0.202E-03    0.497E+00
DAV: 140    -0.783974106156E+03    0.20710E-02   -0.36040E-05 69290   0.103E-02    0.497E+00
DAV: 141    -0.783979197938E+03   -0.50918E-02   -0.10313E-04 96530   0.386E-02    0.502E+00
DAV: 142    -0.783982215816E+03   -0.30179E-02   -0.15972E-04101780   0.189E-02    0.497E+00
DAV: 143    -0.783987327151E+03   -0.51113E-02   -0.29433E-04 93320   0.242E-02    0.493E+00
DAV: 144    -0.784009132238E+03   -0.21805E-01   -0.38185E-03129210   0.104E-01    0.480E+00
DAV: 145    -0.784020096877E+03   -0.10965E-01   -0.13892E-03132510   0.560E-02    0.473E+00
DAV: 146    -0.784042834573E+03   -0.22738E-01   -0.37999E-03123020   0.115E-01    0.460E+00
DAV: 147    -0.784044329865E+03   -0.14953E-02   -0.64272E-04103480   0.392E-02    0.453E+00
DAV: 148    -0.784044667119E+03   -0.33725E-03   -0.49206E-05 98230   0.105E-02    0.450E+00
DAV: 149    -0.784045157585E+03   -0.49047E-03   -0.60126E-06 58450   0.404E-03    0.450E+00
DAV: 150    -0.784048145326E+03   -0.29877E-02   -0.87563E-05 74150   0.179E-02    0.445E+00
DAV: 151    -0.784089304827E+03   -0.41160E-01   -0.76206E-03128080   0.193E-01    0.825E+00
DAV: 152    -0.784395794300E+03   -0.30649E+00   -0.30871E-02129700   0.451E-01    0.190E+01
DAV: 153    -0.784327039868E+03    0.68754E-01   -0.11036E-02102730   0.196E-01    0.188E+01
DAV: 154    -0.784232766106E+03    0.94274E-01   -0.18240E-03131480   0.169E-01    0.186E+01
DAV: 155    -0.784462538303E+03   -0.22977E+00   -0.81675E-03125700   0.358E-01    0.187E+01
DAV: 156    -0.783700150526E+03    0.76239E+00   -0.15557E+00128760   0.190E+00    0.751E+00
DAV: 157    -0.783657047401E+03    0.43103E-01   -0.39206E-01126520   0.770E-01    0.948E+00
DAV: 158    -0.783826427690E+03   -0.16938E+00   -0.50923E-01114660   0.100E+00    0.517E+00
DAV: 159    -0.783843231519E+03   -0.16804E-01   -0.25785E-02119150   0.263E-01    0.603E+00
DAV: 160    -0.783866235688E+03   -0.23004E-01   -0.26540E-02110940   0.175E-01    0.535E+00
DAV: 161    -0.783945647874E+03   -0.79412E-01   -0.12208E-01134340   0.388E-01    0.433E+00
DAV: 162    -0.783958597019E+03   -0.12949E-01   -0.45330E-03108760   0.137E-01    0.445E+00
DAV: 163    -0.783987151726E+03   -0.28555E-01   -0.47172E-03132860   0.171E-01    0.451E+00
DAV: 164    -0.784014187359E+03   -0.27036E-01   -0.58402E-03132900   0.149E-01    0.451E+00
DAV: 165    -0.784023709076E+03   -0.95217E-02   -0.16132E-03121160   0.579E-02    0.451E+00
DAV: 166    -0.784027214289E+03   -0.35052E-02   -0.30032E-04101010   0.241E-02    0.444E+00
DAV: 167    -0.784032638694E+03   -0.54244E-02   -0.21896E-04100250   0.253E-02    0.441E+00
DAV: 168    -0.784043917792E+03   -0.11279E-01   -0.10123E-03122860   0.562E-02    0.431E+00
DAV: 169    -0.784064173033E+03   -0.20255E-01   -0.26669E-03127060   0.107E-01    0.440E+00
DAV: 170    -0.784094922761E+03   -0.30750E-01   -0.29503E-03132660   0.115E-01    0.899E+00
DAV: 171    -0.784347779212E+03   -0.25286E+00   -0.19774E-02125480   0.370E-01    0.189E+01
DAV: 172    -0.784016534629E+03    0.33124E+00   -0.26583E-02116880   0.587E-01    0.402E+00
DAV: 173    -0.784071564554E+03   -0.55030E-01   -0.54033E-03100880   0.169E-01    0.576E+00
DAV: 174    -0.784228423402E+03   -0.15686E+00   -0.93892E-03128250   0.280E-01    0.189E+01
DAV: 175    -0.784084597321E+03    0.14383E+00   -0.78827E-03105590   0.236E-01    0.125E+01
DAV: 176    -0.784050914075E+03    0.33683E-01   -0.18048E-03118420   0.179E-01    0.566E+00
DAV: 177    -0.784103612809E+03   -0.52699E-01   -0.42583E-03102440   0.156E-01    0.112E+01
DAV: 178    -0.784246019354E+03   -0.14241E+00   -0.61231E-03125230   0.214E-01    0.187E+01
DAV: 179    -0.784069684559E+03    0.17633E+00   -0.65410E-03108800   0.264E-01    0.108E+01
DAV: 180    -0.784305437929E+03   -0.23575E+00   -0.11175E-02115230   0.321E-01    0.185E+01
DAV: 181    -0.784283843689E+03    0.21594E-01   -0.27588E-03103430   0.962E-02    0.182E+01
DAV: 182    -0.784262793061E+03    0.21051E-01   -0.34612E-04113840   0.462E-02    0.181E+01
DAV: 183    -0.784304241589E+03   -0.41449E-01   -0.31746E-04113910   0.608E-02    0.181E+01
DAV: 184    -0.784250786310E+03    0.53455E-01   -0.38493E-04120360   0.882E-02    0.183E+01
DAV: 185    -0.784206481141E+03    0.44305E-01   -0.41967E-04121080   0.580E-02    0.183E+01
DAV: 186    -0.784167849568E+03    0.38632E-01   -0.35680E-04123790   0.496E-02    0.181E+01
DAV: 187    -0.784275707177E+03   -0.10786E+00   -0.15638E-03120910   0.139E-01    0.183E+01
DAV: 188    -0.784248201775E+03    0.27505E-01   -0.20092E-04115600   0.465E-02    0.184E+01
DAV: 189    -0.784221704057E+03    0.26498E-01   -0.96883E-05 93430   0.330E-02    0.184E+01
DAV: 190    -0.784232918752E+03   -0.11215E-01   -0.33964E-05 79160   0.180E-02    0.184E+01
DAV: 191    -0.784021727112E+03    0.21119E+00   -0.11068E-02128750   0.368E-01    0.515E+00
DAV: 192    -0.784024520069E+03   -0.27930E-02   -0.19453E-02119490   0.268E-01    0.456E+00
DAV: 193    -0.784060314766E+03   -0.35795E-01   -0.67796E-03108250   0.182E-01    0.451E+00
DAV: 194    -0.784072135984E+03   -0.11821E-01   -0.72279E-04119810   0.897E-02    0.551E+00
DAV: 195    -0.784066794463E+03    0.53415E-02   -0.60673E-04109980   0.488E-02    0.511E+00
DAV: 196    -0.784119163352E+03   -0.52369E-01   -0.42178E-03123810   0.153E-01    0.127E+01
DAV: 197    -0.784176067390E+03   -0.56904E-01   -0.34943E-03114480   0.145E-01    0.187E+01
DAV: 198    -0.784056002734E+03    0.12006E+00   -0.59386E-03107420   0.207E-01    0.889E+00
DAV: 199    -0.784174886909E+03   -0.11888E+00   -0.48350E-03102790   0.185E-01    0.185E+01
DAV: 200    -0.784109386067E+03    0.65501E-01   -0.24610E-03102140   0.121E-01
   1 F= -.78410939E+03 E0= -.78409248E+03  d E =-.784109E+03  mag=   120.8300
       N       E                     dE             d eps       ncg     rms          rms(c)
DAV:   1    -0.783859433056E+03    0.31545E+00   -0.11224E+00133950   0.125E+00    0.695E+00
DAV:   2    -0.784257876011E+03   -0.39844E+00   -0.24995E+00120300   0.407E+00    0.728E+00
DAV:   3    -0.784041685842E+03    0.21619E+00   -0.56707E-01114350   0.284E+00    0.385E+00
DAV:   4    -0.784090362000E+03   -0.48676E-01   -0.11808E-01127240   0.104E+00    0.453E+00
DAV:   5    -0.784331858062E+03   -0.24150E+00   -0.64238E-02128240   0.705E-01    0.149E+01
DAV:   6    -0.783823555938E+03    0.50830E+00   -0.14637E-01132470   0.173E+00    0.569E+00
DAV:   7    -0.783831604161E+03   -0.80482E-02   -0.16484E+00141200   0.105E+00    0.119E+01
DAV:   8    -0.783847311641E+03   -0.15707E-01   -0.45786E-02106180   0.321E-01    0.120E+01
DAV:   9    -0.783838939592E+03    0.83720E-02   -0.18594E-03113540   0.781E-02    0.116E+01
DAV:  10    -0.783838984251E+03   -0.44659E-04   -0.29878E-04107690   0.236E-02    0.116E+01
DAV:  11    -0.783833404274E+03    0.55800E-02   -0.37350E-03143500   0.676E-02    0.111E+01
DAV:  12    -0.783834161953E+03   -0.75768E-03   -0.26350E-04 99680   0.218E-02    0.111E+01
DAV:  13    -0.783842952020E+03   -0.87901E-02   -0.27919E-03122010   0.110E-01    0.114E+01
DAV:  14    -0.783840617573E+03    0.23344E-02   -0.13092E-03106010   0.431E-02    0.113E+01
DAV:  15    -0.783843408945E+03   -0.27914E-02   -0.52808E-04104120   0.281E-02    0.112E+01
DAV:  16    -0.783845925663E+03   -0.25167E-02   -0.15008E-04 88800   0.147E-02    0.112E+01
DAV:  17    -0.783850685103E+03   -0.47594E-02   -0.18613E-03115260   0.487E-02    0.109E+01
DAV:  18    -0.783851831741E+03   -0.11466E-02   -0.10415E-03123870   0.335E-02    0.106E+01
DAV:  19    -0.783852186396E+03   -0.35466E-03   -0.10288E-04101760   0.158E-02    0.106E+01
DAV:  20    -0.783852512916E+03   -0.32652E-03   -0.15432E-05 70010   0.854E-03    0.107E+01
DAV:  21    -0.783849903787E+03    0.26091E-02   -0.28119E-04 76120   0.224E-02    0.107E+01
DAV:  22    -0.783853566833E+03   -0.36630E-02   -0.10919E-03109300   0.481E-02    0.105E+01
DAV:  23    -0.783864590127E+03   -0.11023E-01   -0.15874E-02115100   0.201E-01    0.100E+01
DAV:  24    -0.783879486755E+03   -0.14897E-01   -0.16260E-02116190   0.182E-01    0.934E+00
DAV:  25    -0.783887128352E+03   -0.76416E-02   -0.24274E-03116470   0.677E-02    0.936E+00
DAV:  26    -0.783882966414E+03    0.41619E-02   -0.58352E-04110630   0.401E-02    0.946E+00
DAV:  27    -0.783886541145E+03   -0.35747E-02   -0.39346E-04112910   0.356E-02    0.941E+00
DAV:  28    -0.784010292774E+03   -0.12375E+00   -0.15990E-01116170   0.624E-01    0.903E+00
DAV:  29    -0.784232016332E+03   -0.22172E+00   -0.17724E-01115810   0.600E-01    0.959E+00
DAV:  30    -0.784368122616E+03   -0.13611E+00   -0.35952E-02118580   0.271E-01    0.102E+01
DAV:  31    -0.784426430034E+03   -0.58307E-01   -0.55639E-03122880   0.114E-01    0.104E+01
DAV:  32    -0.784476931423E+03   -0.50501E-01   -0.20568E-03132890   0.149E-01    0.108E+01
DAV:  33    -0.784501943785E+03   -0.25012E-01   -0.17703E-02122270   0.254E-01    0.112E+01
DAV:  34    -0.784525514118E+03   -0.23570E-01   -0.11795E-02120660   0.234E-01    0.111E+01
DAV:  35    -0.784540518517E+03   -0.15004E-01   -0.32119E-03120850   0.981E-02    0.112E+01
DAV:  36    -0.784548919052E+03   -0.84005E-02   -0.15982E-03113410   0.128E-01    0.111E+01
DAV:  37    -0.784511796495E+03    0.37123E-01   -0.19882E-03117440   0.714E-02    0.109E+01
DAV:  38    -0.784542166282E+03   -0.30370E-01   -0.93476E-04111900   0.554E-02    0.111E+01
DAV:  39    -0.784630981633E+03   -0.88815E-01   -0.93165E-03121870   0.156E-01    0.114E+01
DAV:  40    -0.784663822594E+03   -0.32841E-01   -0.16446E-03126360   0.150E-01    0.115E+01
DAV:  41    -0.784657922468E+03    0.59001E-02   -0.92562E-04106260   0.469E-02    0.115E+01
DAV:  42    -0.784682007570E+03   -0.24085E-01   -0.65803E-04114870   0.398E-02    0.116E+01
DAV:  43    -0.784676673940E+03    0.53336E-02   -0.51098E-05 96180   0.151E-02    0.116E+01
DAV:  44    -0.784715619999E+03   -0.38946E-01   -0.11881E-03133000   0.161E-01    0.118E+01
DAV:  45    -0.784787860964E+03   -0.72241E-01   -0.85196E-03139830   0.257E-01    0.119E+01
DAV:  46    -0.784872596077E+03   -0.84735E-01   -0.66769E-02130690   0.606E-01    0.118E+01
DAV:  47    -0.793493260272E+03   -0.86207E+01   -0.13922E+01116650   0.566E+00    0.416E+01
DAV:  48    -0.793483850280E+03    0.94100E-02   -0.81810E-01108470   0.148E+00    0.419E+01
DAV:  49    -0.793470394178E+03    0.13456E-01   -0.63023E-03119010   0.133E-01    0.420E+01
DAV:  50    -0.793502172022E+03   -0.31778E-01   -0.30382E-04109740   0.439E-02    0.420E+01
DAV:  51    -0.793510158921E+03   -0.79869E-02   -0.84433E-05106040   0.133E-02    0.420E+01
DAV:  52    -0.792042258758E+03    0.14679E+01   -0.10660E+01122730   0.776E+00    0.646E+01
DAV:  53    -0.792125923326E+03   -0.83665E-01   -0.16447E+00110850   0.190E+00    0.639E+01
DAV:  54    -0.792202074716E+03   -0.76151E-01   -0.55330E-02137640   0.418E-01    0.649E+01
DAV:  55    -0.792160894619E+03    0.41180E-01   -0.16433E-02136780   0.221E-01    0.655E+01
DAV:  56    -0.792160754554E+03    0.14007E-03   -0.10415E-02133280   0.207E-01    0.658E+01
DAV:  57    -0.792136468268E+03    0.24286E-01   -0.12166E-01134420   0.764E-01    0.640E+01
DAV:  58    -0.791998397297E+03    0.13807E+00   -0.74557E-02130960   0.482E-01    0.628E+01
DAV:  59    -0.791990093963E+03    0.83033E-02   -0.86588E-03107860   0.121E-01    0.628E+01
DAV:  60    -0.792071084669E+03   -0.80991E-01   -0.23342E-02130060   0.421E-01    0.640E+01
DAV:  61    -0.792157347775E+03   -0.86263E-01   -0.67474E-03114090   0.127E-01    0.642E+01
DAV:  62    -0.784629326482E+03    0.75280E+01   -0.29272E+00141280   0.724E+00    0.245E+01
DAV:  63    -0.784316248978E+03    0.31308E+00   -0.25355E+00112690   0.201E+00    0.125E+01
DAV:  64    -0.783927756871E+03    0.38849E+00   -0.93230E-01123380   0.160E+00    0.570E+00
DAV:  65    -0.783884038514E+03    0.43718E-01   -0.11654E-01113880   0.618E-01    0.480E+00
DAV:  66    -0.783909806428E+03   -0.25768E-01   -0.23799E-02111040   0.361E-01    0.494E+00
DAV:  67    -0.783785205838E+03    0.12460E+00   -0.47428E-02148200   0.773E-01    0.446E+00
DAV:  68    -0.783820355558E+03   -0.35150E-01   -0.38676E-02116060   0.403E-01    0.509E+00
DAV:  69    -0.783821446282E+03   -0.10907E-02   -0.29924E-03109010   0.854E-02    0.508E+00
DAV:  70    -0.783822193254E+03   -0.74697E-03   -0.85683E-05 97850   0.150E-02    0.506E+00
DAV:  71    -0.783822009335E+03    0.18392E-03   -0.40432E-04121730   0.442E-02    0.499E+00
DAV:  72    -0.783812852814E+03    0.91565E-02   -0.42244E-03142140   0.141E-01    0.479E+00
DAV:  73    -0.783817157200E+03   -0.43044E-02   -0.76499E-03130500   0.156E-01    0.461E+00
DAV:  74    -0.783857687949E+03   -0.40531E-01   -0.33215E-02136200   0.347E-01    0.443E+00
DAV:  75    -0.783913263386E+03   -0.55575E-01   -0.39004E-02141780   0.378E-01    0.450E+00
DAV:  76    -0.783936296914E+03   -0.23034E-01   -0.13630E-02141620   0.189E-01    0.463E+00
DAV:  77    -0.783946652692E+03   -0.10356E-01   -0.16518E-03111660   0.929E-02    0.473E+00
DAV:  78    -0.783960495274E+03   -0.13843E-01   -0.50252E-03133480   0.122E-01    0.476E+00
DAV:  79    -0.783968053927E+03   -0.75587E-02   -0.10989E-03131860   0.594E-02    0.481E+00
DAV:  80    -0.783972065265E+03   -0.40113E-02   -0.53302E-04124070   0.447E-02    0.484E+00
DAV:  81    -0.783969449961E+03    0.26153E-02   -0.61579E-04119040   0.415E-02    0.485E+00
DAV:  82    -0.783889745474E+03    0.79704E-01   -0.32654E-02141080   0.464E-01    0.466E+00
DAV:  83    -0.783872091947E+03    0.17654E-01   -0.19108E-02117000   0.211E-01    0.463E+00
DAV:  84    -0.783846335613E+03    0.25756E-01   -0.27309E-03130190   0.138E-01    0.463E+00
DAV:  85    -0.783826904333E+03    0.19431E-01   -0.34843E-03131210   0.105E-01    0.466E+00
DAV:  86    -0.783794872075E+03    0.32032E-01   -0.10442E-02141310   0.166E-01    0.476E+00
DAV:  87    -0.783730898909E+03    0.63973E-01   -0.39016E-02136500   0.346E-01    0.508E+00
DAV:  88    -0.783722292184E+03    0.86067E-02   -0.76615E-03113550   0.120E-01    0.515E+00
DAV:  89    -0.783725228216E+03   -0.29360E-02   -0.23443E-03111100   0.907E-02    0.509E+00
DAV:  90    -0.783734012148E+03   -0.87839E-02   -0.25427E-03136730   0.976E-02    0.509E+00
DAV:  91    -0.783734282734E+03   -0.27059E-03   -0.44512E-04118840   0.364E-02    0.513E+00
DAV:  92    -0.783719905071E+03    0.14378E-01   -0.17182E-02135210   0.396E-01    0.486E+00
DAV:  93    -0.783724439447E+03   -0.45344E-02   -0.53813E-03119680   0.157E-01    0.469E+00
DAV:  94    -0.783704155047E+03    0.20284E-01   -0.10938E-02132460   0.209E-01    0.471E+00
DAV:  95    -0.783708454923E+03   -0.42999E-02   -0.12408E-03108330   0.810E-02    0.471E+00
DAV:  96    -0.783722540461E+03   -0.14086E-01   -0.52394E-03137600   0.182E-01    0.473E+00
DAV:  97    -0.783734530833E+03   -0.11990E-01   -0.53341E-02135870   0.665E-01    0.591E+00
DAV:  98    -0.783740495539E+03   -0.59647E-02   -0.33504E-02129510   0.329E-01    0.601E+00
DAV:  99    -0.783739830890E+03    0.66465E-03   -0.13389E-02134810   0.176E-01    0.620E+00
DAV: 100    -0.783740286930E+03   -0.45604E-03   -0.59211E-03106560   0.126E-01    0.600E+00
DAV: 101    -0.783748518244E+03   -0.82313E-02   -0.31158E-02132740   0.233E-01    0.555E+00
DAV: 102    -0.783754023055E+03   -0.55048E-02   -0.82621E-02135130   0.418E-01    0.509E+00
DAV: 103    -0.783761891281E+03   -0.78682E-02   -0.13589E-02129200   0.186E-01    0.533E+00
DAV: 104    -0.783779453365E+03   -0.17562E-01   -0.26986E-03130160   0.160E-01    0.551E+00
DAV: 105    -0.783789749180E+03   -0.10296E-01   -0.18330E-03135620   0.109E-01    0.567E+00
DAV: 106    -0.783790461383E+03   -0.71220E-03   -0.53081E-04104930   0.318E-02    0.567E+00
DAV: 107    -0.783578673463E+03    0.21179E+00   -0.23553E+00129290   0.421E+00    0.629E+00
DAV: 108    -0.783741263609E+03   -0.16259E+00   -0.24414E-01109580   0.101E+00    0.567E+00
DAV: 109    -0.783919679857E+03   -0.17842E+00   -0.37694E-01128090   0.975E-01    0.640E+00
DAV: 110    -0.783801411697E+03    0.11827E+00   -0.18159E-01140360   0.135E+00    0.784E+00
DAV: 111    -0.783858152542E+03   -0.56741E-01   -0.64379E-02111710   0.621E-01    0.842E+00
DAV: 112    -0.783974810461E+03   -0.11666E+00   -0.15428E-01127540   0.139E+00    0.555E+00
DAV: 113    -0.783969094625E+03    0.57158E-02   -0.58298E-02131920   0.858E-01    0.424E+00
DAV: 114    -0.783957030458E+03    0.12064E-01   -0.29642E-02110650   0.320E-01    0.436E+00
DAV: 115    -0.783909315355E+03    0.47715E-01   -0.11663E-02131090   0.264E-01    0.483E+00
DAV: 116    -0.783912215418E+03   -0.29001E-02   -0.17283E-03107760   0.670E-02    0.482E+00
DAV: 117    -0.783917606631E+03   -0.53912E-02   -0.34127E-03136030   0.219E-01    0.523E+00
DAV: 118    -0.783928349877E+03   -0.10743E-01   -0.35335E-03126940   0.131E-01    0.525E+00
DAV: 119    -0.783925877646E+03    0.24722E-02   -0.12676E-03135530   0.183E-01    0.556E+00
DAV: 120    -0.783920872075E+03    0.50056E-02   -0.20355E-03127940   0.104E-01    0.574E+00
DAV: 121    -0.783920401346E+03    0.47073E-03   -0.65355E-04127040   0.643E-02    0.585E+00
DAV: 122    -0.783910345054E+03    0.10056E-01   -0.35117E-03138010   0.226E-01    0.624E+00
DAV: 123    -0.783915050698E+03   -0.47056E-02   -0.38853E-02140800   0.946E-01    0.798E+00
DAV: 124    -0.783911164122E+03    0.38866E-02   -0.30845E-02125940   0.316E-01    0.853E+00
DAV: 125    -0.783911363017E+03   -0.19890E-03   -0.30950E-03108160   0.920E-02    0.854E+00
DAV: 126    -0.783910419199E+03    0.94382E-03   -0.15799E-04114260   0.525E-02    0.864E+00
DAV: 127    -0.783907402435E+03    0.30168E-02   -0.36674E-03135830   0.309E-01    0.929E+00
DAV: 128    -0.783925908995E+03   -0.18507E-01   -0.30910E-03125560   0.238E-01    0.883E+00
DAV: 129    -0.783957432863E+03   -0.31524E-01   -0.39187E-02138060   0.774E-01    0.753E+00
DAV: 130    -0.783984890289E+03   -0.27457E-01   -0.41811E-02132110   0.661E-01    0.643E+00
DAV: 131    -0.784023930977E+03   -0.39041E-01   -0.21939E-02133810   0.420E-01    0.582E+00
DAV: 132    -0.784008577157E+03    0.15354E-01   -0.21705E-02137210   0.688E-01    0.471E+00
DAV: 133    -0.784028423841E+03   -0.19847E-01   -0.12449E-02112800   0.197E-01    0.441E+00
DAV: 134    -0.784073101371E+03   -0.44678E-01   -0.11455E-02135860   0.402E-01    0.370E+00
DAV: 135    -0.784099474822E+03   -0.26373E-01   -0.10373E-02133030   0.330E-01    0.324E+00
DAV: 136    -0.784114475930E+03   -0.15001E-01   -0.57562E-03123900   0.249E-01    0.325E+00
DAV: 137    -0.784161970993E+03   -0.47495E-01   -0.74522E-03132800   0.399E-01    0.126E+01
DAV: 138    -0.784171128160E+03   -0.91572E-02   -0.10586E-02107230   0.223E-01    0.144E+01
DAV: 139    -0.784190424468E+03   -0.19296E-01   -0.13344E-03109670   0.925E-02    0.154E+01
DAV: 140    -0.784155541762E+03    0.34883E-01   -0.48352E-04110280   0.794E-02    0.139E+01
DAV: 141    -0.784171725721E+03   -0.16184E-01   -0.47725E-04115810   0.494E-02    0.146E+01
DAV: 142    -0.784299382693E+03   -0.12766E+00   -0.49064E-03134210   0.325E-01    0.160E+01
DAV: 143    -0.784258163878E+03    0.41219E-01   -0.23709E-03109190   0.104E-01    0.160E+01
DAV: 144    -0.784230668418E+03    0.27495E-01   -0.15851E-04117680   0.402E-02    0.160E+01
DAV: 145    -0.784240252391E+03   -0.95840E-02   -0.99082E-05 99310   0.262E-02    0.160E+01
DAV: 146    -0.784255566598E+03   -0.15314E-01   -0.18548E-04122240   0.366E-02    0.161E+01
DAV: 147    -0.784221321578E+03    0.34245E-01   -0.51583E-02127890   0.491E-01    0.162E+01
DAV: 148    -0.784221867426E+03   -0.54585E-03   -0.10151E-02108990   0.142E-01    0.162E+01
DAV: 149    -0.784287933449E+03   -0.66066E-01   -0.83455E-04126210   0.105E-01    0.162E+01
DAV: 150    -0.784309475143E+03   -0.21542E-01   -0.15951E-03125470   0.751E-02    0.161E+01
DAV: 151    -0.784345092346E+03   -0.35617E-01   -0.23255E-03122080   0.950E-02    0.160E+01
DAV: 152    -0.784320985412E+03    0.24107E-01   -0.16804E-02131550   0.290E-01    0.155E+01
DAV: 153    -0.784333447403E+03   -0.12462E-01   -0.11637E-02119650   0.165E-01    0.154E+01
DAV: 154    -0.784331820767E+03    0.16266E-02   -0.21283E-03124310   0.939E-02    0.153E+01
DAV: 155    -0.784341342926E+03   -0.95222E-02   -0.42823E-03133530   0.145E-01    0.150E+01
DAV: 156    -0.784367311082E+03   -0.25968E-01   -0.10102E-02137410   0.242E-01    0.146E+01
DAV: 157    -0.784187201410E+03    0.18011E+00   -0.13081E-02132570   0.442E-01    0.120E+01
DAV: 158    -0.784281014940E+03   -0.93814E-01   -0.31519E-02130050   0.431E-01    0.131E+01
DAV: 159    -0.784299039703E+03   -0.18025E-01   -0.11140E-02123520   0.168E-01    0.129E+01
DAV: 160    -0.784338993295E+03   -0.39954E-01   -0.62777E-03135120   0.210E-01    0.127E+01
DAV: 161    -0.784427769264E+03   -0.88776E-01   -0.49909E-02138310   0.552E-01    0.121E+01
DAV: 162    -0.784558531993E+03   -0.13076E+00   -0.10240E-01139630   0.712E-01    0.118E+01
DAV: 163    -0.784691846157E+03   -0.13331E+00   -0.75086E-02135530   0.579E-01    0.123E+01
DAV: 164    -0.784689705303E+03    0.21409E-02   -0.11204E-02108120   0.175E-01    0.124E+01
DAV: 165    -0.784689858438E+03   -0.15314E-03   -0.69685E-05114810   0.133E-02    0.124E+01
DAV: 166    -0.784692987674E+03   -0.31292E-02   -0.20896E-05 81070   0.871E-03    0.124E+01
DAV: 167    -0.784722998726E+03   -0.30011E-01   -0.14140E-03126750   0.137E-01    0.122E+01
DAV: 168    -0.784591262699E+03    0.13174E+00   -0.47286E-02139130   0.648E-01    0.124E+01
DAV: 169    -0.784508068269E+03    0.83194E-01   -0.83032E-02133490   0.567E-01    0.126E+01
DAV: 170    -0.784492785848E+03    0.15282E-01   -0.12834E-02132930   0.215E-01    0.127E+01
DAV: 171    -0.784465060130E+03    0.27726E-01   -0.88449E-03134340   0.253E-01    0.130E+01
DAV: 172    -0.784450802675E+03    0.14257E-01   -0.12442E-02122700   0.220E-01    0.130E+01
DAV: 173    -0.784440880879E+03    0.99218E-02   -0.27223E-03111620   0.901E-02    0.130E+01
DAV: 174    -0.784429748972E+03    0.11132E-01   -0.26861E-03115030   0.106E-01    0.130E+01
DAV: 175    -0.784432341524E+03   -0.25926E-02   -0.30030E-04113850   0.468E-02    0.129E+01
DAV: 176    -0.784436691054E+03   -0.43495E-02   -0.30557E-04126080   0.433E-02    0.129E+01
DAV: 177    -0.784463704355E+03   -0.27013E-01   -0.16452E-02135490   0.354E-01    0.123E+01
DAV: 178    -0.784463908719E+03   -0.20436E-03   -0.49404E-03108230   0.127E-01    0.125E+01
DAV: 179    -0.784473600962E+03   -0.96922E-02   -0.49675E-04129580   0.623E-02    0.124E+01
DAV: 180    -0.784480942401E+03   -0.73414E-02   -0.55167E-04121690   0.405E-02    0.124E+01
DAV: 181    -0.784476476525E+03    0.44659E-02   -0.31624E-04129870   0.559E-02    0.125E+01
DAV: 182    -0.785000774509E+03   -0.52430E+00   -0.92406E-01139240   0.274E+00    0.139E+01
DAV: 183    -0.785071088131E+03   -0.70314E-01   -0.35074E-01110030   0.813E-01    0.152E+01
DAV: 184    -0.785065270997E+03    0.58171E-02   -0.59767E-03120220   0.160E-01    0.158E+01
DAV: 185    -0.785079059803E+03   -0.13789E-01   -0.64140E-03130320   0.252E-01    0.170E+01
DAV: 186    -0.785090624397E+03   -0.11565E-01   -0.68788E-03116720   0.163E-01    0.178E+01
DAV: 187    -0.785129198542E+03   -0.38574E-01   -0.37841E-03119460   0.114E-01    0.184E+01
DAV: 188    -0.785133450586E+03   -0.42520E-02   -0.75098E-04111370   0.610E-02    0.187E+01
DAV: 189    -0.785139120064E+03   -0.56695E-02   -0.98366E-05106280   0.156E-02    0.187E+01
DAV: 190    -0.785139788839E+03   -0.66878E-03   -0.53869E-06 61480   0.374E-03    0.187E+01
DAV: 191    -0.785141082647E+03   -0.12938E-02   -0.28993E-06 56520   0.348E-03    0.188E+01
DAV: 192    -0.784405536342E+03    0.73555E+00   -0.21901E+00114110   0.245E+00    0.883E+00
DAV: 193    -0.784401468307E+03    0.40680E-02   -0.25355E-01111830   0.900E-01    0.506E+00
DAV: 194    -0.784397583614E+03    0.38847E-02   -0.13266E-02125260   0.300E-01    0.361E+00
DAV: 195    -0.784399359218E+03   -0.17756E-02   -0.94538E-03131630   0.529E-01    0.192E+00
DAV: 196    -0.784398210319E+03    0.11489E-02   -0.17466E-02129220   0.521E-01    0.504E-01
DAV: 197    -0.784398251378E+03   -0.41059E-04   -0.78924E-03112250   0.177E-01    0.633E-01
DAV: 198    -0.784399152115E+03   -0.90074E-03   -0.52859E-03116480   0.143E-01    0.159E+00
DAV: 199    -0.784400686243E+03   -0.15341E-02   -0.13686E-03124790   0.909E-02    0.209E+00
DAV: 200    -0.784400340988E+03    0.34525E-03   -0.45183E-04108450   0.541E-02
   2 F= -.78440034E+03 E0= -.78438802E+03  d E =-.290955E+00  mag=   117.9997
       N       E                     dE             d eps       ncg     rms          rms(c)
DAV:   1    -0.784469812720E+03   -0.69126E-01   -0.16662E+00122870   0.376E+00    0.179E+00
DAV:   2    -0.784487301132E+03   -0.17488E-01   -0.19176E-01115030   0.843E-01    0.146E+00
DAV:   3    -0.784487966238E+03   -0.66511E-03   -0.16043E-02113270   0.374E-01    0.889E-01
DAV:   4    -0.784487737967E+03    0.22827E-03   -0.39091E-03119480   0.188E-01    0.675E-01
DAV:   5    -0.784487651962E+03    0.86005E-04   -0.11763E-03118700   0.134E-01    0.302E-01
DAV:   6    -0.784487661085E+03   -0.91228E-05   -0.58925E-04123220   0.711E-02    0.125E-01
DAV:   7    -0.784487671615E+03   -0.10530E-04   -0.20150E-04111490   0.373E-02    0.703E-02
DAV:   8    -0.784487666174E+03    0.54410E-05   -0.62534E-05107310   0.213E-02
   3 F= -.78448767E+03 E0= -.78447527E+03  d E =-.873252E-01  mag=   118.0000
       N       E                     dE             d eps       ncg     rms          rms(c)
DAV:   1    -0.780765137005E+03    0.37225E+01   -0.37918E+02122240   0.546E+01    0.996E+00
DAV:   2    -0.784962802936E+03   -0.41977E+01   -0.40525E+01115370   0.102E+01    0.729E+00
DAV:   3    -0.785085415480E+03   -0.12261E+00   -0.12563E+00113480   0.238E+00    0.398E+00
DAV:   4    -0.785067392842E+03    0.18023E-01   -0.10092E-01118950   0.710E-01    0.237E+00
DAV:   5    -0.785046097707E+03    0.21295E-01   -0.36836E-02122910   0.471E-01    0.166E+00
DAV:   6    -0.785039780373E+03    0.63173E-02   -0.29659E-02120530   0.490E-01    0.133E+00
DAV:   7    -0.785040570013E+03   -0.78964E-03   -0.17928E-02119750   0.342E-01    0.806E-01
DAV:   8    -0.785040664881E+03   -0.94869E-04   -0.32276E-03113290   0.161E-01    0.162E-01
DAV:   9    -0.785040624941E+03    0.39940E-04   -0.62653E-04115480   0.627E-02    0.158E-01
DAV:  10    -0.785040603633E+03    0.21309E-04   -0.23297E-04114610   0.399E-02    0.684E-02
DAV:  11    -0.785040608079E+03   -0.44464E-05   -0.76083E-05105970   0.211E-02
   4 F= -.78504061E+03 E0= -.78502774E+03  d E =-.552942E+00  mag=   118.0000
       N       E                     dE             d eps       ncg     rms          rms(c)
DAV:   1    -0.784270647734E+03    0.76996E+00   -0.33096E+01140520   0.254E+01    0.500E+00
DAV:   2    -0.785185644023E+03   -0.91500E+00   -0.83063E+00111750   0.438E+00    0.287E+00
DAV:   3    -0.785230698461E+03   -0.45054E-01   -0.29659E-01112340   0.115E+00    0.150E+00
DAV:   4    -0.785229695155E+03    0.10033E-02   -0.21163E-02119750   0.309E-01    0.818E-01
DAV:   5    -0.785227354680E+03    0.23405E-02   -0.37187E-03122360   0.179E-01    0.547E-01
DAV:   6    -0.785226639290E+03    0.71539E-03   -0.26921E-03128080   0.185E-01    0.247E-01
DAV:   7    -0.785226810143E+03   -0.17085E-03   -0.14998E-03117240   0.896E-02    0.199E-01
DAV:   8    -0.785226819530E+03   -0.93870E-05   -0.27221E-04112040   0.475E-02    0.770E-02
DAV:   9    -0.785226821926E+03   -0.23966E-05   -0.39470E-05104140   0.196E-02
   5 F= -.78522682E+03 E0= -.78521502E+03  d E =-.186214E+00  mag=   118.0000
       N       E                     dE             d eps       ncg     rms          rms(c)
DAV:   1    -0.785046306660E+03    0.18051E+00   -0.15992E+01123710   0.132E+01    0.247E+00
DAV:   2    -0.785284967767E+03   -0.23866E+00   -0.21811E+00111440   0.239E+00    0.141E+00
DAV:   3    -0.785294518194E+03   -0.95504E-02   -0.70442E-02111680   0.582E-01    0.793E-01
DAV:   4    -0.785294021599E+03    0.49659E-03   -0.54761E-03119210   0.162E-01    0.441E-01
DAV:   5    -0.785293187943E+03    0.83366E-03   -0.14908E-03123550   0.122E-01    0.258E-01
DAV:   6    -0.785293173793E+03    0.14150E-04   -0.10375E-03123510   0.880E-02    0.165E-01
DAV:   7    -0.785293215891E+03   -0.42098E-04   -0.40618E-04114430   0.555E-02    0.112E-01
DAV:   8    -0.785293220210E+03   -0.43194E-05   -0.63173E-05106180   0.250E-02
   6 F= -.78529322E+03 E0= -.78528304E+03  d E =-.663983E-01  mag=   118.0000
       N       E                     dE             d eps       ncg     rms          rms(c)
DAV:   1    -0.784939180567E+03    0.35404E+00   -0.79827E+01114080   0.191E+01    0.348E+00
DAV:   2    -0.785408857898E+03   -0.46968E+00   -0.44985E+00113060   0.364E+00    0.259E+00
DAV:   3    -0.785421522075E+03   -0.12664E-01   -0.15923E-01113300   0.102E+00    0.150E+00
DAV:   4    -0.785418100334E+03    0.34217E-02   -0.14407E-02117090   0.286E-01    0.673E-01
DAV:   5    -0.785415175298E+03    0.29250E-02   -0.63548E-03121810   0.196E-01    0.352E-01
DAV:   6    -0.785415308124E+03   -0.13283E-03   -0.34339E-03121450   0.121E-01    0.176E-01
DAV:   7    -0.785415405315E+03   -0.97191E-04   -0.64102E-04113090   0.599E-02    0.107E-01
DAV:   8    -0.785415409034E+03   -0.37189E-05   -0.78630E-05108610   0.252E-02
   7 F= -.78541541E+03 E0= -.78540959E+03  d E =-.122189E+00  mag=   118.0000
       N       E                     dE             d eps       ncg     rms          rms(c)
DAV:   1    -0.785076006926E+03    0.33940E+00   -0.79533E+01111780   0.181E+01    0.356E+00
DAV:   2    -0.785501819023E+03   -0.42581E+00   -0.41736E+00113980   0.354E+00    0.276E+00
DAV:   3    -0.785516292355E+03   -0.14473E-01   -0.16141E-01111720   0.103E+00    0.147E+00
DAV:   4    -0.785512312538E+03    0.39798E-02   -0.13789E-02117990   0.275E-01    0.677E-01
DAV:   5    -0.785509534898E+03    0.27776E-02   -0.72005E-03118910   0.210E-01    0.352E-01
DAV:   6    -0.785509790429E+03   -0.25553E-03   -0.36869E-03116740   0.121E-01    0.235E-01
DAV:   7    -0.785509858377E+03   -0.67948E-04   -0.70386E-04111000   0.649E-02    0.899E-02
DAV:   8    -0.785509867364E+03   -0.89870E-05   -0.81466E-05110030   0.224E-02
   8 F= -.78550987E+03 E0= -.78550835E+03  d E =-.944583E-01  mag=   118.0000
       N       E                     dE             d eps       ncg     rms          rms(c)
DAV:   1    -0.784230602543E+03    0.12793E+01   -0.22469E+02112680   0.315E+01    0.563E+00
DAV:   2    -0.785582097132E+03   -0.13515E+01   -0.12863E+01111570   0.606E+00    0.369E+00
DAV:   3    -0.785611451045E+03   -0.29354E-01   -0.35707E-01110690   0.127E+00    0.207E+00
DAV:   4    -0.785600925002E+03    0.10526E-01   -0.31705E-02124450   0.406E-01    0.130E+00
DAV:   5    -0.785593926171E+03    0.69988E-02   -0.19479E-02116120   0.369E-01    0.575E-01
DAV:   6    -0.785595116047E+03   -0.11899E-02   -0.11218E-02117880   0.250E-01    0.425E-01
DAV:   7    -0.785595216799E+03   -0.10075E-03   -0.23209E-03110010   0.111E-01    0.159E-01
DAV:   8    -0.785595176936E+03    0.39862E-04   -0.16288E-04116900   0.346E-02    0.100E-01
DAV:   9    -0.785595169463E+03    0.74730E-05   -0.17900E-04112390   0.318E-02    0.532E-02
DAV:  10    -0.785595172008E+03   -0.25450E-05   -0.44919E-05109350   0.168E-02
   9 F= -.78559517E+03 E0= -.78559517E+03  d E =-.853046E-01  mag=   118.0000
       N       E                     dE             d eps       ncg     rms          rms(c)
DAV:   1    -0.785403043291E+03    0.19213E+00   -0.37961E+01115050   0.141E+01    0.220E+00
DAV:   2    -0.785660721685E+03   -0.25768E+00   -0.24296E+00112050   0.259E+00    0.140E+00
DAV:   3    -0.785665499069E+03   -0.47774E-02   -0.63874E-02109160   0.620E-01    0.887E-01
DAV:   4    -0.785664089455E+03    0.14096E-02   -0.61227E-03121490   0.198E-01    0.529E-01
DAV:   5    -0.785662556563E+03    0.15329E-02   -0.41990E-03119470   0.166E-01    0.288E-01
DAV:   6    -0.785662756152E+03   -0.19959E-03   -0.21258E-03121590   0.943E-02    0.119E-01
DAV:   7    -0.785662801262E+03   -0.45110E-04   -0.43970E-04109020   0.495E-02    0.660E-02
DAV:   8    -0.785662801462E+03   -0.20050E-06   -0.33342E-05104310   0.178E-02
  10 F= -.78566280E+03 E0= -.78566280E+03  d E =-.676295E-01  mag=   118.0000
       N       E                     dE             d eps       ncg     rms          rms(c)
DAV:   1    -0.785451719809E+03    0.21108E+00   -0.26349E+01117940   0.133E+01    0.214E+00
DAV:   2    -0.785685360728E+03   -0.23364E+00   -0.22058E+00111080   0.244E+00    0.127E+00
DAV:   3    -0.785691076038E+03   -0.57153E-02   -0.57260E-02109410   0.548E-01    0.714E-01
DAV:   4    -0.785689965602E+03    0.11104E-02   -0.46428E-03122840   0.153E-01    0.416E-01
DAV:   5    -0.785688593932E+03    0.13717E-02   -0.19704E-03121520   0.133E-01    0.221E-01
DAV:   6    -0.785688615758E+03   -0.21826E-04   -0.15132E-03123550   0.790E-02    0.982E-02
DAV:   7    -0.785688652541E+03   -0.36783E-04   -0.25289E-04109480   0.324E-02    0.445E-02
DAV:   8    -0.785688655218E+03   -0.26771E-05   -0.10840E-05 73450   0.107E-02
  11 F= -.78568866E+03 E0= -.78568866E+03  d E =-.258538E-01  mag=   118.0000
       N       E                     dE             d eps       ncg     rms          rms(c)
DAV:   1    -0.785539466450E+03    0.14919E+00   -0.17328E+01115960   0.107E+01    0.176E+00
DAV:   2    -0.785700278772E+03   -0.16081E+00   -0.15092E+00112820   0.199E+00    0.107E+00
DAV:   3    -0.785704045738E+03   -0.37670E-02   -0.40656E-02108100   0.469E-01    0.630E-01
DAV:   4    -0.785703343071E+03    0.70267E-03   -0.32530E-03121000   0.134E-01    0.353E-01
DAV:   5    -0.785702490310E+03    0.85276E-03   -0.15468E-03120240   0.109E-01    0.189E-01
DAV:   6    -0.785702528747E+03   -0.38437E-04   -0.10587E-03124380   0.703E-02    0.763E-02
DAV:   7    -0.785702556197E+03   -0.27450E-04   -0.22915E-04109610   0.350E-02    0.376E-02
DAV:   8    -0.785702560557E+03   -0.43598E-05   -0.12632E-05 77030   0.978E-03
  12 F= -.78570256E+03 E0= -.78570256E+03  d E =-.139053E-01  mag=   118.0000
       N       E                     dE             d eps       ncg     rms          rms(c)
DAV:   1    -0.785075730740E+03    0.62683E+00   -0.38517E+01125660   0.199E+01    0.360E+00
DAV:   2    -0.785680924976E+03   -0.60519E+00   -0.55837E+00109100   0.360E+00    0.209E+00
DAV:   3    -0.785700412437E+03   -0.19487E-01   -0.15812E-01108590   0.784E-01    0.103E+00
DAV:   4    -0.785698803274E+03    0.16092E-02   -0.11291E-02123540   0.204E-01    0.668E-01
DAV:   5    -0.785696507029E+03    0.22962E-02   -0.22879E-03122010   0.163E-01    0.398E-01
DAV:   6    -0.785696195215E+03    0.31181E-03   -0.24213E-03127180   0.132E-01    0.152E-01
DAV:   7    -0.785696320084E+03   -0.12487E-03   -0.87562E-04112360   0.577E-02    0.727E-02
DAV:   8    -0.785696329641E+03   -0.95570E-05   -0.38258E-05104800   0.178E-02
  13 F= -.78569633E+03 E0= -.78569633E+03  d E =0.623092E-02  mag=   118.0000
       N       E                     dE             d eps       ncg     rms          rms(c)
DAV:   1    -0.784699212993E+03    0.99711E+00   -0.49865E+01133900   0.251E+01    0.463E+00
DAV:   2    -0.785652241276E+03   -0.95303E+00   -0.87228E+00109580   0.441E+00    0.270E+00
DAV:   3    -0.785687393061E+03   -0.35152E-01   -0.26021E-01110490   0.100E+00    0.128E+00
DAV:   4    -0.785685069029E+03    0.23240E-02   -0.17468E-02123150   0.271E-01    0.839E-01
DAV:   5    -0.785681664777E+03    0.34043E-02   -0.31931E-03125770   0.199E-01    0.521E-01
DAV:   6    -0.785680735738E+03    0.92904E-03   -0.37601E-03127730   0.195E-01    0.164E-01
DAV:   7    -0.785680927180E+03   -0.19144E-03   -0.16772E-03111030   0.789E-02    0.702E-02
DAV:   8    -0.785680929622E+03   -0.24417E-05   -0.52185E-05113920   0.168E-02
  14 F= -.78568093E+03 E0= -.78568093E+03  d E =0.154000E-01  mag=   118.0000
       N       E                     dE             d eps       ncg     rms          rms(c)
DAV:   1    -0.785013934613E+03    0.66699E+00   -0.84792E+01111950   0.213E+01    0.345E+00
DAV:   2    -0.785611995680E+03   -0.59806E+00   -0.57386E+00111260   0.402E+00    0.213E+00
DAV:   3    -0.785619934857E+03   -0.79392E-02   -0.14486E-01113370   0.883E-01    0.128E+00
DAV:   4    -0.785616473223E+03    0.34616E-02   -0.13121E-02120710   0.242E-01    0.731E-01
DAV:   5    -0.785612331180E+03    0.41420E-02   -0.64132E-03122020   0.253E-01    0.406E-01
DAV:   6    -0.785612456005E+03   -0.12483E-03   -0.49901E-03120240   0.147E-01    0.236E-01
DAV:   7    -0.785612554717E+03   -0.98712E-04   -0.85840E-04110600   0.678E-02    0.989E-02
DAV:   8    -0.785612545580E+03    0.91367E-05   -0.68709E-05111090   0.282E-02
  15 F= -.78561255E+03 E0= -.78561255E+03  d E =0.683840E-01  mag=   118.0000
       N       E                     dE             d eps       ncg     rms          rms(c)
DAV:   1    -0.784542535211E+03    0.10700E+01   -0.54466E+01135310   0.270E+01    0.482E+00
DAV:   2    -0.785588617064E+03   -0.10461E+01   -0.95282E+00109890   0.471E+00    0.276E+00
DAV:   3    -0.785626790127E+03   -0.38173E-01   -0.27140E-01110950   0.983E-01    0.120E+00
DAV:   4    -0.785624129188E+03    0.26609E-02   -0.16646E-02123680   0.229E-01    0.797E-01
DAV:   5    -0.785620328049E+03    0.38011E-02   -0.32496E-03133250   0.214E-01    0.439E-01
DAV:   6    -0.785619858568E+03    0.46948E-03   -0.37632E-03127180   0.171E-01    0.166E-01
DAV:   7    -0.785619992009E+03   -0.13344E-03   -0.12442E-03110260   0.774E-02    0.873E-02
DAV:   8    -0.785619995691E+03   -0.36818E-05   -0.60505E-05111050   0.205E-02
  16 F= -.78562000E+03 E0= -.78562000E+03  d E =-.745011E-02  mag=   118.0000
       N       E                     dE             d eps       ncg     rms          rms(c)
DAV:   1    -0.784209002883E+03    0.14110E+01   -0.91250E+01131380   0.311E+01    0.550E+00
DAV:   2    -0.785615353425E+03   -0.14064E+01   -0.12882E+01111200   0.550E+00    0.357E+00
DAV:   3    -0.785662120665E+03   -0.46767E-01   -0.37057E-01112520   0.113E+00    0.147E+00
DAV:   4    -0.785657672537E+03    0.44481E-02   -0.22968E-02126500   0.285E-01    0.931E-01
DAV:   5    -0.785652001564E+03    0.56710E-02   -0.55576E-03132440   0.256E-01    0.488E-01
DAV:   6    -0.785651420063E+03    0.58150E-03   -0.56362E-03121470   0.189E-01    0.168E-01
DAV:   7    -0.785651598025E+03   -0.17796E-03   -0.16839E-03110470   0.892E-02    0.897E-02
DAV:   8    -0.785651597033E+03    0.99187E-06   -0.80427E-05113530   0.240E-02
  17 F= -.78565160E+03 E0= -.78565160E+03  d E =-.316013E-01  mag=   118.0000
       N       E                     dE             d eps       ncg     rms          rms(c)
DAV:   1    -0.785407734639E+03    0.24386E+00   -0.31277E+01117460   0.148E+01    0.228E+00
DAV:   2    -0.785686419823E+03   -0.27869E+00   -0.26271E+00111440   0.270E+00    0.131E+00
DAV:   3    -0.785692462366E+03   -0.60425E-02   -0.66585E-02110660   0.537E-01    0.691E-01
DAV:   4    -0.785690900408E+03    0.15620E-02   -0.51131E-03123660   0.150E-01    0.441E-01
DAV:   5    -0.785689226661E+03    0.16737E-02   -0.23159E-03124790   0.151E-01    0.231E-01
DAV:   6    -0.785689229255E+03   -0.25936E-05   -0.18345E-03120220   0.923E-02    0.122E-01
DAV:   7    -0.785689271233E+03   -0.41978E-04   -0.36479E-04111440   0.434E-02    0.560E-02
DAV:   8    -0.785689272462E+03   -0.12296E-05   -0.19356E-05 82890   0.142E-02
  18 F= -.78568927E+03 E0= -.78568927E+03  d E =-.376754E-01  mag=   118.0000
       N       E                     dE             d eps       ncg     rms          rms(c)
DAV:   1    -0.785279831055E+03    0.40944E+00   -0.20370E+01135140   0.167E+01    0.297E+00
DAV:   2    -0.785685128877E+03   -0.40530E+00   -0.37074E+00109990   0.290E+00    0.156E+00
DAV:   3    -0.785699396499E+03   -0.14268E-01   -0.10257E-01111360   0.589E-01    0.688E-01
DAV:   4    -0.785698410669E+03    0.98583E-03   -0.64718E-03123510   0.140E-01    0.492E-01
DAV:   5    -0.785696982741E+03    0.14279E-02   -0.12098E-03133840   0.140E-01    0.274E-01
DAV:   6    -0.785696818616E+03    0.16412E-03   -0.14230E-03128710   0.107E-01    0.105E-01
DAV:   7    -0.785696869345E+03   -0.50729E-04   -0.47001E-04110580   0.478E-02    0.481E-02
DAV:   8    -0.785696870342E+03   -0.99612E-06   -0.21020E-05 91860   0.124E-02
  19 F= -.78569687E+03 E0= -.78569687E+03  d E =-.759788E-02  mag=   118.0000
       N       E                     dE             d eps       ncg     rms          rms(c)
DAV:   1    -0.785583890447E+03    0.11298E+00   -0.15463E+01110060   0.806E+00    0.128E+00
DAV:   2    -0.785670349074E+03   -0.86459E-01   -0.84377E-01112840   0.152E+00    0.769E-01
DAV:   3    -0.785671043491E+03   -0.69442E-03   -0.18374E-02113150   0.300E-01    0.461E-01
DAV:   4    -0.785670397041E+03    0.64645E-03   -0.17687E-03121140   0.890E-02    0.283E-01
DAV:   5    -0.785669710615E+03    0.68643E-03   -0.11551E-03121680   0.100E-01    0.158E-01
DAV:   6    -0.785669748086E+03   -0.37471E-04   -0.80548E-04119780   0.540E-02    0.847E-02
DAV:   7    -0.785669762065E+03   -0.13979E-04   -0.11531E-04107890   0.239E-02    0.377E-02
DAV:   8    -0.785669760120E+03    0.19449E-05   -0.97950E-06 68030   0.116E-02
  20 F= -.78566976E+03 E0= -.78566976E+03  d E =0.271102E-01  mag=   118.0000
       N       E                     dE             d eps       ncg     rms          rms(c)
DAV:   1    -0.785643685226E+03    0.26077E-01   -0.32106E+00118950   0.514E+00    0.885E-01
DAV:   2    -0.785681619787E+03   -0.37935E-01   -0.35413E-01111260   0.944E-01    0.501E-01
DAV:   3    -0.785682647243E+03   -0.10275E-02   -0.98303E-03112800   0.208E-01    0.270E-01
DAV:   4    -0.785682512196E+03    0.13505E-03   -0.72405E-04121500   0.560E-02    0.168E-01
DAV:   5    -0.785682319999E+03    0.19220E-03   -0.22879E-04123070   0.491E-02    0.101E-01
DAV:   6    -0.785682297030E+03    0.22969E-04   -0.21641E-04124750   0.369E-02    0.411E-02
DAV:   7    -0.785682304770E+03   -0.77401E-05   -0.65011E-05106370   0.164E-02
  21 F= -.78568230E+03 E0= -.78568230E+03  d E =-.125446E-01  mag=   118.0000
       N       E                     dE             d eps       ncg     rms          rms(c)
DAV:   1    -0.785675232376E+03    0.70647E-02   -0.44235E+00108320   0.384E+00    0.600E-01
DAV:   2    -0.785694562592E+03   -0.19330E-01   -0.19131E-01112410   0.718E-01    0.385E-01
DAV:   3    -0.785694610062E+03   -0.47470E-04   -0.41365E-03111060   0.158E-01    0.255E-01
DAV:   4    -0.785694436852E+03    0.17321E-03   -0.43323E-04120590   0.481E-02    0.145E-01
DAV:   5    -0.785694275514E+03    0.16134E-03   -0.35035E-04118440   0.490E-02    0.843E-02
DAV:   6    -0.785694293880E+03   -0.18365E-04   -0.22301E-04113480   0.257E-02    0.402E-02
DAV:   7    -0.785694296743E+03   -0.28635E-05   -0.23893E-05 85840   0.107E-02
  22 F= -.78569430E+03 E0= -.78569430E+03  d E =-.119920E-01  mag=   118.0000
       N       E                     dE             d eps       ncg     rms          rms(c)
DAV:   1    -0.785680294213E+03    0.14000E-01   -0.80125E-01127200   0.281E+00    0.467E-01
DAV:   2    -0.785691134856E+03   -0.10841E-01   -0.10045E-01111200   0.503E-01    0.252E-01
DAV:   3    -0.785691450958E+03   -0.31610E-03   -0.27538E-03111730   0.106E-01    0.134E-01
DAV:   4    -0.785691417439E+03    0.33520E-04   -0.19458E-04120900   0.279E-02    0.857E-02
DAV:   5    -0.785691365242E+03    0.52196E-04   -0.49898E-05103760   0.259E-02    0.507E-02
DAV:   6    -0.785691358386E+03    0.68562E-05   -0.59032E-05117100   0.204E-02
  23 F= -.78569136E+03 E0= -.78569136E+03  d E =0.293836E-02  mag=   118.0000
       N       E                     dE             d eps       ncg     rms          rms(c)
DAV:   1    -0.785624104965E+03    0.67260E-01   -0.54729E+00119120   0.645E+00    0.101E+00
DAV:   2    -0.785675887792E+03   -0.51783E-01   -0.48552E-01111120   0.117E+00    0.556E-01
DAV:   3    -0.785677063091E+03   -0.11753E-02   -0.12136E-02112230   0.235E-01    0.302E-01
DAV:   4    -0.785676842058E+03    0.22103E-03   -0.95777E-04122370   0.655E-02    0.192E-01
DAV:   5    -0.785676556601E+03    0.28546E-03   -0.35448E-04123720   0.662E-02    0.107E-01
DAV:   6    -0.785676553279E+03    0.33214E-05   -0.33121E-04122240   0.411E-02    0.510E-02
DAV:   7    -0.785676561684E+03   -0.84044E-05   -0.69942E-05108990   0.176E-02
  24 F= -.78567656E+03 E0= -.78567656E+03  d E =0.147967E-01  mag=   118.0000
       N       E                     dE             d eps       ncg     rms          rms(c)
DAV:   1    -0.785668065809E+03    0.84875E-02   -0.12126E+00118840   0.324E+00    0.543E-01
DAV:   2    -0.785682099175E+03   -0.14033E-01   -0.13102E-01112590   0.593E-01    0.318E-01
DAV:   3    -0.785682485637E+03   -0.38646E-03   -0.38322E-03112460   0.137E-01    0.177E-01
DAV:   4    -0.785682429767E+03    0.55870E-04   -0.27641E-04119650   0.373E-02    0.999E-02
DAV:   5    -0.785682355678E+03    0.74089E-04   -0.11182E-04117420   0.325E-02    0.576E-02
DAV:   6    -0.785682352066E+03    0.36119E-05   -0.82543E-05117680   0.221E-02
  25 F= -.78568235E+03 E0= -.78568235E+03  d E =-.579038E-02  mag=   118.0000
       N       E                     dE             d eps       ncg     rms          rms(c)
DAV:   1    -0.785683461399E+03   -0.11057E-02   -0.36552E-01112320   0.142E+00    0.229E-01
DAV:   2    -0.785686122522E+03   -0.26611E-02   -0.25702E-02111100   0.270E-01    0.135E-01
DAV:   3    -0.785686173532E+03   -0.51010E-04   -0.66156E-04112450   0.568E-02    0.805E-02
DAV:   4    -0.785686156923E+03    0.16609E-04   -0.50488E-05114030   0.163E-02    0.489E-02
DAV:   5    -0.785686138167E+03    0.18756E-04   -0.30825E-05 94030   0.168E-02    0.270E-02
DAV:   6    -0.785686138458E+03   -0.29099E-06   -0.22329E-05 94320   0.103E-02
  26 F= -.78568614E+03 E0= -.78568614E+03  d E =-.378639E-02  mag=   118.0000
