       N       E                     dE             d eps       ncg     rms          ort
DAV:   1     0.112538051032E+05    0.11254E+05   -0.46614E+05  8540   0.170E+03
DAV:   2     0.299111952496E+02   -0.11224E+05   -0.10208E+05  8540   0.487E+02
DAV:   3    -0.160814689596E+04   -0.16381E+04   -0.15525E+04  8540   0.198E+02
DAV:   4    -0.169254097737E+04   -0.84394E+02   -0.83166E+02  8540   0.457E+01
DAV:   5    -0.169362167647E+04   -0.10807E+01   -0.10773E+01  8540   0.560E+00
SDA:   6    -0.804369507236E+03    0.88925E+03   -0.10773E+01  8540   0.299E+04 0.000E+00
CGA:   7    -0.122899879439E+04   -0.42463E+03   -0.42302E+03  8540   0.308E+03 0.409E+02
CGA:   8    -0.128732347331E+04   -0.58325E+02   -0.58390E+02  8540   0.743E+02 0.434E+01
CGA:   9    -0.131155577859E+04   -0.24232E+02   -0.24438E+02  8540   0.442E+02-0.212E+01
CGA:  10    -0.132020932406E+04   -0.86535E+01   -0.86603E+01  8540   0.109E+02 0.224E+01
CGA:  11    -0.132296541146E+04   -0.27561E+01   -0.27808E+01  8540   0.302E+01-0.622E+00
CGA:  12    -0.132365653199E+04   -0.69112E+00   -0.70002E+00  8540   0.904E+00-0.221E+00
CGA:  13    -0.132388335022E+04   -0.22682E+00   -0.22633E+00  8540   0.310E+00 0.707E-02
CGA:  14    -0.132397472006E+04   -0.91370E-01   -0.91245E-01  8540   0.120E+00 0.864E-03
CGA:  15    -0.132401635572E+04   -0.41636E-01   -0.59175E-01  8540   0.110E+00-0.638E-01
CGA:  16    -0.132404413545E+04   -0.27780E-01   -0.27911E-01  8540   0.243E-01-0.476E-02
CGA:  17    -0.132395936813E+04    0.84767E-01   -0.46152E-01  8540   0.648E+00-0.980E-01
CGA:  18    -0.132405442757E+04   -0.95059E-01   -0.96252E-01  8540   0.565E-01 0.381E-01
CGA:  19    -0.132406945229E+04   -0.15025E-01   -0.16253E-01  8540   0.928E-02 0.921E-02
CGA:  20    -0.132407232289E+04   -0.28706E-02   -0.28090E-02  8540   0.288E-02-0.451E-03
CGA:  21    -0.132407243051E+04   -0.10761E-03   -0.38389E-03  8540   0.790E-03 0.110E-02
CGA:  22    -0.132407234806E+04    0.82442E-04   -0.95002E-04  8540   0.347E-03 0.608E-03
CGA:  23    -0.132407234824E+04   -0.17745E-06   -0.50721E-04  8540   0.169E-03 0.232E-03
CGA:  24    -0.132407247043E+04   -0.12219E-03   -0.13736E-03  8540   0.887E-04-0.333E-04
CGA:  25    -0.132407270893E+04   -0.23850E-03    0.38892E-05  8540   0.344E-04 0.147E-04
CGA:  26    -0.132407274037E+04   -0.31445E-04    0.17551E-03  8540   0.118E-04 0.469E-05
CGA:  27    -0.132407281700E+04   -0.76623E-04    0.37952E-06  8540   0.602E-05 0.470E-05
CGA:  28    -0.132407288758E+04   -0.70582E-04    0.15670E-06  8540   0.253E-05 0.160E-05
CGA:  29    -0.132407290741E+04   -0.19829E-04    0.83568E-07  8540   0.111E-05 0.516E-06
CGA:  30    -0.132407292826E+04   -0.20853E-04    0.12796E-07  8540   0.472E-06 0.318E-06
CGA:  31    -0.132407295526E+04   -0.26995E-04    0.19662E-08  8540   0.156E-06 0.746E-07
CGA:  32    -0.132407296017E+04   -0.49140E-05    0.96087E-09  8540   0.663E-07-0.141E-08
   1 F= -.13240730E+04 E0= -.13240730E+04  d E =-.132407E+04  mag=   126.0000
       N       E                     dE             d eps       ncg     rms          ort
SDA:   1    -0.132407266084E+04    0.29442E-03    0.00000E+00  8540   0.286E-02 0.000E+00
CGA:   2    -0.132407343523E+04   -0.77440E-03   -0.76625E-03  8540   0.138E-02-0.759E-04
CGA:   3    -0.132407368915E+04   -0.25392E-03   -0.26274E-03  8540   0.241E-03 0.498E-04
CGA:   4    -0.132407373705E+04   -0.47895E-04   -0.50214E-04  8540   0.428E-04 0.143E-04
CGA:   5    -0.132407375248E+04   -0.15434E-04   -0.14943E-04  8540   0.276E-04-0.203E-04
CGA:   6    -0.132407375499E+04   -0.25087E-05   -0.78922E-05  8540   0.529E-04-0.283E-04
   2 F= -.13240738E+04 E0= -.13240738E+04  d E =-.794820E-03  mag=   126.0000
       N       E                     dE             d eps       ncg     rms          ort
SDA:   1    -0.132405584627E+04    0.17906E-01    0.00000E+00  8540   0.550E-01 0.000E+00
CGA:   2    -0.132407031566E+04   -0.14469E-01   -0.14450E-01  8540   0.253E-01-0.234E-03
CGA:   3    -0.132407542125E+04   -0.51056E-02   -0.51383E-02  8540   0.474E-02 0.217E-03
CGA:   4    -0.132407640899E+04   -0.98774E-03   -0.99381E-03  8540   0.875E-03 0.445E-04
CGA:   5    -0.132407662048E+04   -0.21149E-03   -0.20595E-03  8540   0.222E-03-0.554E-04
CGA:   6    -0.132407668825E+04   -0.67772E-04   -0.67427E-04  8540   0.112E-03-0.729E-04
CGA:   7    -0.132407670517E+04   -0.16919E-04   -0.16915E-04  8540   0.308E-04-0.494E-07
CGA:   8    -0.132407670576E+04   -0.59262E-06   -0.37809E-05  8540   0.130E-04 0.159E-04
   3 F= -.13240767E+04 E0= -.13240767E+04  d E =-.295077E-02  mag=   126.0000
       N       E                     dE             d eps       ncg     rms          ort
SDA:   1    -0.132259661698E+04    0.14801E+01    0.00000E+00  8540   0.371E+01 0.000E+00
CGA:   2    -0.132367868308E+04   -0.10821E+01   -0.10820E+01  8540   0.166E+01-0.469E-02
CGA:   3    -0.132399860338E+04   -0.31992E+00   -0.32042E+00  8540   0.301E+00 0.346E-02
CGA:   4    -0.132406169588E+04   -0.63093E-01   -0.63205E-01  8540   0.532E-01 0.114E-02
CGA:   5    -0.132407364192E+04   -0.11946E-01   -0.11912E-01  8540   0.121E-01-0.502E-03
CGA:   6    -0.132407679807E+04   -0.31561E-02   -0.31432E-02  8540   0.344E-02-0.456E-03
CGA:   7    -0.132407767861E+04   -0.88054E-03   -0.88381E-03  8540   0.100E-02 0.151E-03
CGA:   8    -0.132407791756E+04   -0.23895E-03   -0.25200E-03  8540   0.290E-03 0.284E-03
CGA:   9    -0.132407801394E+04   -0.96383E-04   -0.98420E-04  8540   0.109E-03 0.987E-04
CGA:  10    -0.132407806101E+04   -0.47065E-04   -0.46286E-04  8540   0.428E-04 0.238E-04
CGA:  11    -0.132407807169E+04   -0.10684E-04   -0.11887E-04  8540   0.155E-04 0.207E-04
CGA:  12    -0.132407807374E+04   -0.20466E-05   -0.36216E-05  8540   0.713E-05 0.126E-04
   4 F= -.13240781E+04 E0= -.13240781E+04  d E =-.136798E-02  mag=   126.0000
       N       E                     dE             d eps       ncg     rms          ort
SDA:   1    -0.132389468664E+04    0.18339E+00    0.00000E+00  8540   0.491E+00 0.000E+00
CGA:   2    -0.132402721538E+04   -0.13253E+00   -0.13253E+00  8540   0.217E+00 0.129E-02
CGA:   3    -0.132407187663E+04   -0.44661E-01   -0.44574E-01  8540   0.436E-01-0.139E-02
CGA:   4    -0.132408099577E+04   -0.91191E-02   -0.90965E-02  8540   0.772E-02-0.414E-03
CGA:   5    -0.132408259133E+04   -0.15956E-02   -0.16095E-02  8540   0.160E-02 0.263E-03
CGA:   6    -0.132408294583E+04   -0.35449E-03   -0.36404E-03  8540   0.377E-03 0.239E-03
CGA:   7    -0.132408307227E+04   -0.12644E-03   -0.12584E-03  8540   0.135E-03 0.187E-04
CGA:   8    -0.132408247302E+04    0.59925E-03   -0.32379E-03  8540   0.313E-02-0.599E-03
CGA:   9    -0.132408301391E+04   -0.54089E-03   -0.59699E-03  8540   0.369E-03 0.197E-03
CGA:  10    -0.132408313225E+04   -0.11834E-03   -0.12482E-03  8540   0.116E-03 0.457E-04
CGA:  11    -0.132408315890E+04   -0.26656E-04   -0.33797E-04  8540   0.385E-04 0.367E-04
CGA:  12    -0.132408320403E+04   -0.45126E-04    0.30952E-02  8540   0.249E-04-0.103E-04
CGA:  13    -0.132408320284E+04    0.11912E-05   -0.21007E-05  8540   0.138E-04 0.100E-04
   5 F= -.13240832E+04 E0= -.13240832E+04  d E =-.512910E-02  mag=   126.0000
       N       E                     dE             d eps       ncg     rms          ort
SDA:   1    -0.132406943761E+04    0.13766E-01    0.00000E+00  8540   0.376E-01 0.000E+00
CGA:   2    -0.132407941284E+04   -0.99752E-02   -0.10002E-01  8540   0.167E-01 0.179E-03
CGA:   3    -0.132408292709E+04   -0.35143E-02   -0.34811E-02  8540   0.337E-02-0.174E-03
CGA:   4    -0.132408366443E+04   -0.73734E-03   -0.71965E-03  8540   0.609E-03-0.101E-03
CGA:   5    -0.132408376999E+04   -0.10556E-03   -0.11549E-03  8540   0.115E-03 0.526E-04
CGA:   6    -0.132408378270E+04   -0.12705E-04   -0.21431E-04  8540   0.310E-04 0.432E-04
CGA:   7    -0.132408378721E+04   -0.45167E-05   -0.74555E-05  8540   0.118E-04 0.155E-04
   6 F= -.13240838E+04 E0= -.13240838E+04  d E =-.584377E-03  mag=   126.0000
       N       E                     dE             d eps       ncg     rms          ort
SDA:   1    -0.132401751015E+04    0.66273E-01    0.00000E+00  8540   0.163E+00 0.000E+00
CGA:   2    -0.132406700691E+04   -0.49497E-01   -0.49503E-01  8540   0.744E-01 0.832E-04
CGA:   3    -0.132408087612E+04   -0.13869E-01   -0.13843E-01  8540   0.127E-01-0.169E-03
CGA:   4    -0.132408358640E+04   -0.27103E-02   -0.26967E-02  8540   0.235E-02-0.105E-03
CGA:   5    -0.132408407255E+04   -0.48615E-03   -0.49442E-03  8540   0.485E-03 0.656E-04
CGA:   6    -0.132408417836E+04   -0.10581E-03   -0.11216E-03  8540   0.113E-03 0.599E-04
CGA:   7    -0.132408421445E+04   -0.36091E-04   -0.36409E-04  8540   0.402E-04 0.802E-05
CGA:   8    -0.132408423203E+04   -0.17578E-04   -0.18890E-04  8540   0.278E-04-0.114E-04
CGA:   9    -0.132408423525E+04   -0.32253E-05   -0.38883E-05  8540   0.104E-04 0.494E-05
   7 F= -.13240842E+04 E0= -.13240842E+04  d E =-.448039E-03  mag=   126.0000
       N       E                     dE             d eps       ncg     rms          ort
SDA:   1    -0.132402115607E+04    0.63076E-01    0.00000E+00  8540   0.160E+00 0.000E+00
CGA:   2    -0.132406542313E+04   -0.44267E-01   -0.44260E-01  8540   0.792E-01-0.263E-03
CGA:   3    -0.132408088131E+04   -0.15458E-01   -0.15494E-01  8540   0.135E-01 0.285E-03
CGA:   4    -0.132408368265E+04   -0.28013E-02   -0.28020E-02  8540   0.247E-02 0.405E-05
CGA:   5    -0.132408424142E+04   -0.55877E-03   -0.55702E-03  8540   0.567E-03-0.240E-04
CGA:   6    -0.132408437907E+04   -0.13765E-03   -0.13795E-03  8540   0.139E-03 0.582E-05
CGA:   7    -0.132408441685E+04   -0.37781E-04   -0.37986E-04  8540   0.415E-04 0.861E-05
CGA:   8    -0.132408442387E+04   -0.70185E-05   -0.87366E-05  8540   0.136E-04 0.182E-04
   8 F= -.13240844E+04 E0= -.13240844E+04  d E =-.188617E-03  mag=   126.0000
       N       E                     dE             d eps       ncg     rms          ort
SDA:   1    -0.132373467488E+04    0.34974E+00    0.00000E+00  8540   0.897E+00 0.000E+00
CGA:   2    -0.132397610415E+04   -0.24143E+00   -0.24143E+00  8540   0.437E+00-0.169E-03
CGA:   3    -0.132406346317E+04   -0.87359E-01   -0.87455E-01  8540   0.776E-01 0.111E-02
CGA:   4    -0.132407947964E+04   -0.16016E-01   -0.16033E-01  8540   0.137E-01 0.213E-03
CGA:   5    -0.132408256227E+04   -0.30826E-02   -0.30811E-02  8540   0.313E-02-0.354E-04
CGA:   6    -0.132408334458E+04   -0.78230E-03   -0.78259E-03  8540   0.756E-03 0.131E-04
CGA:   7    -0.132408355104E+04   -0.20646E-03   -0.20640E-03  8540   0.224E-03 0.388E-04
CGA:   8    -0.132408360533E+04   -0.54288E-04   -0.56351E-04  8540   0.647E-04 0.658E-04
CGA:   9    -0.132408362468E+04   -0.19351E-04   -0.20157E-04  8540   0.248E-04 0.287E-04
CGA:  10    -0.132408363203E+04   -0.73517E-05   -0.80136E-05  8540   0.103E-04 0.152E-04
   9 F= -.13240836E+04 E0= -.13240836E+04  d E =0.791841E-03  mag=   126.0000
       N       E                     dE             d eps       ncg     rms          ort
SDA:   1    -0.132404884633E+04    0.34778E-01    0.00000E+00  8540   0.957E-01 0.000E+00
CGA:   2    -0.132407195237E+04   -0.23106E-01   -0.23110E-01  8540   0.459E-01 0.181E-03
CGA:   3    -0.132408193804E+04   -0.99857E-02   -0.99784E-02  8540   0.907E-02-0.181E-03
CGA:   4    -0.132408379028E+04   -0.18522E-02   -0.18483E-02  8540   0.166E-02-0.740E-04
CGA:   5    -0.132408414221E+04   -0.35193E-03   -0.35386E-03  8540   0.354E-03 0.465E-04
CGA:   6    -0.132408422649E+04   -0.84278E-04   -0.84800E-04  8540   0.835E-04 0.253E-04
CGA:   7    -0.132408425027E+04   -0.23784E-04   -0.23682E-04  8540   0.242E-04 0.826E-05
CGA:   8    -0.132408426033E+04   -0.10057E-04   -0.11651E-04  8540   0.174E-04-0.866E-05
CGA:   9    -0.132408426354E+04   -0.32082E-05   -0.32641E-05  8540   0.688E-05-0.188E-05
  10 F= -.13240843E+04 E0= -.13240843E+04  d E =-.631505E-03  mag=   126.0000
       N       E                     dE             d eps       ncg     rms          ort
SDA:   1    -0.132405548348E+04    0.28777E-01    0.00000E+00  8540   0.723E-01 0.000E+00
CGA:   2    -0.132407638795E+04   -0.20904E-01   -0.20902E-01  8540   0.346E-01 0.452E-04
CGA:   3    -0.132408302664E+04   -0.66387E-02   -0.66169E-02  8540   0.599E-02-0.322E-03
CGA:   4    -0.132408426754E+04   -0.12409E-02   -0.12396E-02  8540   0.106E-02-0.289E-04
CGA:   5    -0.132408450203E+04   -0.23448E-03   -0.23442E-03  8540   0.235E-03-0.224E-05
CGA:   6    -0.132408456648E+04   -0.64456E-04   -0.65130E-04  8540   0.723E-04-0.258E-04
CGA:   7    -0.132408458637E+04   -0.19889E-04   -0.20728E-04  8540   0.292E-04-0.122E-04
CGA:   8    -0.132408459913E+04   -0.12758E-04    0.13389E-03  8540   0.756E-05 0.261E-05
CGA:   9    -0.132408460342E+04   -0.42932E-05    0.67255E-04  8540   0.221E-05 0.157E-05
  11 F= -.13240846E+04 E0= -.13240846E+04  d E =-.339889E-03  mag=   126.0000
       N       E                     dE             d eps       ncg     rms          ort
SDA:   1    -0.132407069892E+04    0.13900E-01    0.00000E+00  8540   0.395E-01 0.000E+00
CGA:   2    -0.132407947127E+04   -0.87724E-02   -0.87759E-02  8540   0.179E-01 0.802E-04
CGA:   3    -0.132408369573E+04   -0.42245E-02   -0.42249E-02  8540   0.403E-02 0.131E-04
CGA:   4    -0.132408451846E+04   -0.82273E-03   -0.82065E-03  8540   0.700E-03-0.422E-04
CGA:   5    -0.132408467740E+04   -0.15894E-03   -0.15826E-03  8540   0.171E-03-0.301E-04
CGA:   6    -0.132408472069E+04   -0.43290E-04   -0.43553E-04  8540   0.469E-04-0.168E-04
CGA:   7    -0.132408473167E+04   -0.10985E-04   -0.10992E-04  8540   0.121E-04-0.790E-06
CGA:   8    -0.132408473404E+04   -0.23707E-05   -0.25098E-05  8540   0.301E-05 0.338E-05
  12 F= -.13240847E+04 E0= -.13240847E+04  d E =-.130617E-03  mag=   126.0000
       N       E                     dE             d eps       ncg     rms          ort
SDA:   1    -0.132400513424E+04    0.79597E-01    0.00000E+00  8540   0.223E+00 0.000E+00
CGA:   2    -0.132405497468E+04   -0.49840E-01   -0.49852E-01  8540   0.102E+00 0.354E-03
CGA:   3    -0.132407895544E+04   -0.23981E-01   -0.23984E-01  8540   0.226E-01 0.183E-03
CGA:   4    -0.132408350161E+04   -0.45462E-02   -0.45448E-02  8540   0.377E-02-0.333E-04
CGA:   5    -0.132408434836E+04   -0.84675E-03   -0.84613E-03  8540   0.886E-03-0.332E-04
CGA:   6    -0.132408457206E+04   -0.22370E-03   -0.22395E-03  8540   0.214E-03-0.222E-04
CGA:   7    -0.132408462820E+04   -0.56140E-04   -0.56121E-04  8540   0.596E-04 0.715E-06
CGA:   8    -0.132408464339E+04   -0.15195E-04   -0.15116E-04  8540   0.156E-04 0.103E-04
CGA:   9    -0.132408464883E+04   -0.54323E-05   -0.52704E-05  8540   0.563E-05 0.376E-05
  13 F= -.13240846E+04 E0= -.13240846E+04  d E =0.852150E-04  mag=   126.0000
       N       E                     dE             d eps       ncg     rms          ort
SDA:   1    -0.132393257744E+04    0.15207E+00    0.00000E+00  8540   0.407E+00 0.000E+00
CGA:   2    -0.132403083841E+04   -0.98261E-01   -0.98264E-01  8540   0.199E+00 0.900E-04
CGA:   3    -0.132407436308E+04   -0.43525E-01   -0.43532E-01  8540   0.390E-01 0.143E-03
CGA:   4    -0.132408225431E+04   -0.78912E-02   -0.78923E-02  8540   0.670E-02 0.171E-04
CGA:   5    -0.132408375971E+04   -0.15054E-02   -0.15056E-02  8540   0.154E-02 0.767E-05
CGA:   6    -0.132408414004E+04   -0.38033E-03   -0.38034E-03  8540   0.376E-03-0.605E-05
CGA:   7    -0.132408424659E+04   -0.10655E-03   -0.10679E-03  8540   0.112E-03-0.624E-05
CGA:   8    -0.132408427725E+04   -0.30659E-04   -0.30343E-04  8540   0.318E-04 0.111E-04
CGA:   9    -0.132408428915E+04   -0.11891E-04   -0.11687E-04  8540   0.113E-04 0.239E-05
CGA:  10    -0.132408429282E+04   -0.36766E-05   -0.35812E-05  8540   0.342E-05 0.226E-05
  14 F= -.13240843E+04 E0= -.13240843E+04  d E =0.356004E-03  mag=   126.0000
       N       E                     dE             d eps       ncg     rms          ort
SDA:   1    -0.132403805910E+04    0.46230E-01    0.00000E+00  8540   0.136E+00 0.000E+00
CGA:   2    -0.132406712145E+04   -0.29062E-01   -0.29072E-01  8540   0.597E-01 0.150E-03
CGA:   3    -0.132408143802E+04   -0.14317E-01   -0.14316E-01  8540   0.142E-01-0.643E-04
CGA:   4    -0.132408428813E+04   -0.28501E-02   -0.28533E-02  8540   0.237E-02 0.538E-04
CGA:   5    -0.132408480607E+04   -0.51794E-03   -0.51948E-03  8540   0.527E-03 0.418E-04
CGA:   6    -0.132408494186E+04   -0.13579E-03   -0.13580E-03  8540   0.130E-03-0.498E-05
CGA:   7    -0.132408497643E+04   -0.34570E-04   -0.34549E-04  8540   0.357E-04 0.136E-05
CGA:   8    -0.132408498922E+04   -0.12791E-04   -0.15183E-04  8540   0.246E-04-0.143E-04
CGA:   9    -0.132408499246E+04   -0.32352E-05   -0.32883E-05  8540   0.943E-05 0.135E-05
  15 F= -.13240850E+04 E0= -.13240850E+04  d E =-.699637E-03  mag=   126.0000
       N       E                     dE             d eps       ncg     rms          ort
SDA:   1    -0.132407839197E+04    0.65973E-02    0.00000E+00  8540   0.198E-01 0.000E+00
CGA:   2    -0.132408254904E+04   -0.41571E-02   -0.41585E-02  8540   0.827E-02 0.214E-04
CGA:   3    -0.132408457336E+04   -0.20243E-02   -0.20240E-02  8540   0.206E-02-0.461E-04
CGA:   4    -0.132408499558E+04   -0.42222E-03   -0.42210E-03  8540   0.357E-03-0.304E-05
CGA:   5    -0.132408506846E+04   -0.72875E-04   -0.73740E-04  8540   0.744E-04 0.196E-04
CGA:   6    -0.132408508677E+04   -0.18315E-04   -0.18404E-04  8540   0.179E-04 0.641E-05
CGA:   7    -0.132408509238E+04   -0.56087E-05   -0.55996E-05  8540   0.564E-05 0.226E-06
  16 F= -.13240851E+04 E0= -.13240851E+04  d E =-.999208E-04  mag=   126.0000
