       N       E                     dE             d eps       ncg     rms          ort
DAV:   1     0.282369309108E+04    0.28237E+04   -0.29301E+05  2880   0.140E+03
DAV:   2    -0.972079435907E+03   -0.37958E+04   -0.36648E+04  2880   0.313E+02
DAV:   3    -0.122918279282E+04   -0.25710E+03   -0.25502E+03  2880   0.849E+01
DAV:   4    -0.123218607121E+04   -0.30033E+01   -0.29928E+01  2880   0.975E+00
DAV:   5    -0.123223458887E+04   -0.48518E-01   -0.48414E-01  2880   0.114E+00
SDA:   6    -0.876853110634E+03    0.35538E+03   -0.48414E-01  2880   0.615E+03 0.000E+00
CGA:   7    -0.984557642545E+03   -0.10770E+03   -0.10826E+03  2880   0.773E+02 0.113E+02
CGA:   8    -0.995436654041E+03   -0.10879E+02   -0.11734E+02  2880   0.267E+02 0.455E+01
CGA:   9    -0.100136961651E+04   -0.59330E+01   -0.58587E+01  2880   0.158E+02 0.397E+01
CGA:  10    -0.100145327852E+04   -0.83662E-01   -0.14351E+01  2880   0.465E+02-0.117E+02
CGA:  11    -0.100311709013E+04   -0.16638E+01   -0.48923E+01  2880   0.101E+02 0.115E+01
CGA:  12    -0.100337880567E+04   -0.26172E+00   -0.11278E+01  2880   0.127E+02-0.140E+01
CGA:  13    -0.100298858088E+04    0.39022E+00   -0.64999E+00  2880   0.328E+02-0.276E+02
CGA:  14    -0.100421322761E+04   -0.12246E+01   -0.28572E+01  2880   0.959E+01-0.752E+01
CGA:  15    -0.100440650517E+04   -0.19328E+00   -0.67211E+00  2880   0.974E+01-0.353E+01
CGA:  16    -0.100473803655E+04   -0.33153E+00   -0.24970E+00  2880   0.914E+01-0.109E+02
CGA:  17    -0.100485990381E+04   -0.12187E+00   -0.53778E+00  2880   0.665E+01-0.681E+01
CGA:  18    -0.100507607953E+04   -0.21618E+00   -0.31290E+00  2880   0.288E+01-0.440E+01
CGA:  19    -0.100515448548E+04   -0.78406E-01   -0.12967E+00  2880   0.126E+01-0.116E+01
CGA:  20    -0.100529322780E+04   -0.13874E+00   -0.14496E+00  2880   0.210E+01-0.956E-01
CGA:  21    -0.100545048032E+04   -0.15725E+00   -0.19949E+00  2880   0.784E+00 0.874E-01
CGA:  22    -0.100550355972E+04   -0.53079E-01   -0.44182E-01  2880   0.153E+00 0.112E+00
CGA:  23    -0.100552174033E+04   -0.18181E-01   -0.18530E-01  2880   0.189E+00-0.207E-03
CGA:  24    -0.100557836059E+04   -0.56620E-01   -0.55126E-01  2880   0.353E-01 0.926E-02
CGA:  25    -0.100558178927E+04   -0.34287E-02   -0.33840E-02  2880   0.163E-01-0.754E-04
CGA:  26    -0.100558381864E+04   -0.20294E-02   -0.20193E-02  2880   0.119E-01-0.113E-02
CGA:  27    -0.100558450105E+04   -0.68241E-03   -0.70563E-03  2880   0.571E-02 0.229E-03
CGA:  28    -0.100558603010E+04   -0.15290E-02   -0.14215E-02  2880   0.648E-02 0.107E-02
CGA:  29    -0.100558669326E+04   -0.66316E-03   -0.67919E-03  2880   0.364E-02-0.196E-03
CGA:  30    -0.100558694754E+04   -0.25428E-03   -0.26663E-03  2880   0.218E-02 0.161E-03
CGA:  31    -0.100558735741E+04   -0.40987E-03   -0.42483E-03  2880   0.236E-02-0.299E-03
CGA:  32    -0.100558761794E+04   -0.26053E-03   -0.25016E-03  2880   0.166E-02-0.638E-03
CGA:  33    -0.100558766059E+04   -0.42658E-04   -0.53110E-04  2880   0.484E-03 0.108E-03
CGA:  34    -0.100558766761E+04   -0.70160E-05   -0.24082E-04  2880   0.330E-03 0.201E-03
CGA:  35    -0.100558767524E+04   -0.76304E-05   -0.22876E-04  2880   0.192E-03 0.191E-03
CGA:  36    -0.100558769516E+04   -0.19924E-04   -0.19975E-04  2880   0.221E-03 0.777E-06
CGA:  37    -0.100558769949E+04   -0.43231E-05   -0.13843E-04  2880   0.138E-03 0.151E-03
   1 F= -.10055877E+04 E0= -.10055739E+04  d E =-.100559E+04  mag=     1.0000
       N       E                     dE             d eps       ncg     rms          ort
SDA:   1    -0.100558735773E+04    0.33744E-03    0.00000E+00  2880   0.594E-02 0.000E+00
CGA:   2    -0.100558756501E+04   -0.20728E-03   -0.22629E-03  2880   0.717E-03 0.180E-03
CGA:   3    -0.100558767849E+04   -0.11348E-03   -0.11832E-03  2880   0.127E-02-0.110E-03
CGA:   4    -0.100558775473E+04   -0.76236E-04   -0.85532E-04  2880   0.364E-03 0.250E-03
CGA:   5    -0.100558776096E+04   -0.62309E-05   -0.15687E-04  2880   0.835E-04 0.123E-03
   2 F= -.10055878E+04 E0= -.10055739E+04  d E =-.614742E-04  mag=     0.9997
       N       E                     dE             d eps       ncg     rms          ort
SDA:   1    -0.100558690802E+04    0.84671E-03    0.00000E+00  2880   0.156E-01 0.000E+00
CGA:   2    -0.100558742464E+04   -0.51662E-03   -0.55113E-03  2880   0.116E-02 0.104E-02
CGA:   3    -0.100558753149E+04   -0.10685E-03   -0.10831E-03  2880   0.934E-03 0.886E-04
CGA:   4    -0.100558768139E+04   -0.14990E-03   -0.19409E-03  2880   0.185E-02-0.495E-03
CGA:   5    -0.100558772529E+04   -0.43891E-04   -0.61865E-04  2880   0.193E-03 0.218E-03
CGA:   6    -0.100558773327E+04   -0.79843E-05   -0.12755E-04  2880   0.116E-03 0.106E-03
CGA:   7    -0.100558774492E+04   -0.11649E-04   -0.11567E-04  2880   0.205E-03-0.425E-04
CGA:   8    -0.100558774870E+04   -0.37817E-05   -0.65231E-05  2880   0.130E-03 0.533E-04
   3 F= -.10055877E+04 E0= -.10055738E+04  d E =0.122616E-04  mag=     0.9997
       N       E                     dE             d eps       ncg     rms          ort
SDA:   1    -0.100558156921E+04    0.61757E-02    0.00000E+00  2880   0.798E-01 0.000E+00
CGA:   2    -0.100558447403E+04   -0.29048E-02   -0.30170E-02  2880   0.867E-02 0.495E-03
CGA:   3    -0.100558580082E+04   -0.13268E-02   -0.13780E-02  2880   0.136E-01-0.843E-03
CGA:   4    -0.100558717585E+04   -0.13750E-02   -0.13672E-02  2880   0.144E-02 0.554E-03
CGA:   5    -0.100558726269E+04   -0.86840E-04   -0.96628E-04  2880   0.893E-03 0.314E-03
CGA:   6    -0.100558743757E+04   -0.17488E-03   -0.17779E-03  2880   0.627E-03-0.437E-04
CGA:   7    -0.100558747350E+04   -0.35935E-04   -0.34107E-04  2880   0.117E-03-0.467E-04
CGA:   8    -0.100558749664E+04   -0.23140E-04    0.50480E-04  2880   0.824E-04 0.516E-04
CGA:   9    -0.100558750937E+04   -0.12724E-04   -0.12543E-04  2880   0.273E-04 0.197E-04
CGA:  10    -0.100558751042E+04   -0.10538E-05   -0.18890E-05  2880   0.134E-04 0.202E-04
   4 F= -.10055875E+04 E0= -.10055736E+04  d E =0.238281E-03  mag=     0.9996
       N       E                     dE             d eps       ncg     rms          ort
SDA:   1    -0.100549563866E+04    0.91871E-01    0.00000E+00  2880   0.116E+01 0.000E+00
CGA:   2    -0.100553498221E+04   -0.39344E-01   -0.55947E-01  2880   0.279E+00-0.219E+00
CGA:   3    -0.100555688343E+04   -0.21901E-01   -0.21994E-01  2880   0.187E+00 0.432E-02
CGA:   4    -0.100557735303E+04   -0.20470E-01   -0.20466E-01  2880   0.717E-01 0.856E-03
CGA:   5    -0.100558401960E+04   -0.66666E-02   -0.66647E-02  2880   0.298E-01 0.450E-04
CGA:   6    -0.100558654588E+04   -0.25263E-02   -0.24985E-02  2880   0.179E-01-0.140E-02
CGA:   7    -0.100558819813E+04   -0.16523E-02   -0.16564E-02  2880   0.431E-02 0.787E-03
CGA:   8    -0.100558869502E+04   -0.49689E-03   -0.50108E-03  2880   0.382E-02-0.696E-03
CGA:   9    -0.100558896223E+04   -0.26721E-03   -0.27326E-03  2880   0.131E-02 0.291E-03
CGA:  10    -0.100558906263E+04   -0.10039E-03   -0.10104E-03  2880   0.332E-03 0.645E-05
CGA:  11    -0.100558909342E+04   -0.30791E-04   -0.16088E-03  2880   0.242E-02-0.344E-03
CGA:  12    -0.100558919490E+04   -0.10149E-03   -0.11221E-03  2880   0.917E-04 0.119E-03
CGA:  13    -0.100558919412E+04    0.77956E-06   -0.33591E-05  2880   0.442E-04 0.500E-04
   5 F= -.10055892E+04 E0= -.10055751E+04  d E =-.168371E-02  mag=     0.9996
       N       E                     dE             d eps       ncg     rms          ort
SDA:   1    -0.100537371947E+04    0.21548E+00    0.00000E+00  2880   0.704E+00 0.000E+00
CGA:   2    -0.100544682628E+04   -0.73107E-01   -0.72917E-01  2880   0.795E+00-0.108E-01
CGA:   3    -0.100554790701E+04   -0.10108E+00   -0.10100E+00  2880   0.354E+00 0.201E-02
CGA:   4    -0.100556715810E+04   -0.19251E-01   -0.16354E-01  2880   0.567E-01 0.479E-01
CGA:   5    -0.100557828262E+04   -0.11125E-01   -0.11172E-01  2880   0.840E-01-0.832E-03
CGA:   6    -0.100558255562E+04   -0.42730E-02   -0.43475E-02  2880   0.218E-01-0.354E-02
CGA:   7    -0.100558409951E+04   -0.15439E-02   -0.15777E-02  2880   0.136E-01 0.943E-03
CGA:   8    -0.100558527487E+04   -0.11754E-02   -0.12104E-02  2880   0.430E-02 0.180E-02
CGA:   9    -0.100558558810E+04   -0.31323E-03   -0.31824E-03  2880   0.314E-02 0.542E-04
CGA:  10    -0.100558609329E+04   -0.50519E-03   -0.50999E-03  2880   0.172E-02-0.862E-04
CGA:  11    -0.100558621583E+04   -0.12254E-03   -0.11224E-03  2880   0.681E-03-0.258E-03
CGA:  12    -0.100558576330E+04    0.45253E-03   -0.26115E-03  2880   0.162E-01-0.146E-02
CGA:  13    -0.100558625358E+04   -0.49028E-03   -0.55003E-03  2880   0.958E-03 0.833E-03
CGA:  14    -0.100558632561E+04   -0.72028E-04   -0.95580E-04  2880   0.676E-03 0.258E-03
CGA:  15    -0.100558639631E+04   -0.70700E-04   -0.79734E-04  2880   0.400E-03 0.983E-04
CGA:  16    -0.100558641330E+04   -0.16995E-04   -0.26380E-04  2880   0.130E-03 0.755E-04
CGA:  17    -0.100558644769E+04   -0.34385E-04   -0.41633E-04  2880   0.265E-03-0.727E-04
CGA:  18    -0.100558646912E+04   -0.21436E-04   -0.15450E-04  2880   0.118E-03-0.562E-04
CGA:  19    -0.100558647023E+04   -0.11088E-05   -0.53766E-05  2880   0.379E-04 0.380E-04
   6 F= -.10055865E+04 E0= -.10055725E+04  d E =0.272389E-02  mag=     0.9998
       N       E                     dE             d eps       ncg     rms          ort
SDA:   1    -0.100554197626E+04    0.44493E-01    0.00000E+00  2880   0.299E+00 0.000E+00
CGA:   2    -0.100555704210E+04   -0.15066E-01   -0.14663E-01  2880   0.115E+00 0.183E-02
CGA:   3    -0.100557960218E+04   -0.22560E-01   -0.22711E-01  2880   0.142E+00-0.240E-02
CGA:   4    -0.100558859684E+04   -0.89947E-02   -0.96278E-02  2880   0.163E-01-0.755E-02
CGA:   5    -0.100559160779E+04   -0.30109E-02   -0.29701E-02  2880   0.741E-02 0.103E-02
CGA:   6    -0.100559220445E+04   -0.59666E-03   -0.55639E-03  2880   0.530E-02-0.556E-03
CGA:   7    -0.100559279509E+04   -0.59064E-03   -0.58334E-03  2880   0.131E-02-0.266E-03
CGA:   8    -0.100559291968E+04   -0.12459E-03   -0.12792E-03  2880   0.889E-03 0.648E-04
CGA:   9    -0.100559301770E+04   -0.98010E-04   -0.10372E-03  2880   0.274E-03 0.169E-03
CGA:  10    -0.100559305766E+04   -0.39966E-04   -0.35975E-04  2880   0.577E-03-0.126E-03
CGA:  11    -0.100559308282E+04   -0.25159E-04   -0.24512E-04  2880   0.612E-03-0.103E-04
CGA:  12    -0.100559309295E+04   -0.10133E-04   -0.17648E-04  2880   0.133E-03 0.722E-04
CGA:  13    -0.100559309544E+04   -0.24864E-05   -0.55883E-05  2880   0.957E-04 0.331E-04
CGA:  14    -0.100559310652E+04   -0.11080E-04   -0.10618E-04  2880   0.170E-03-0.121E-04
CGA:  15    -0.100559312236E+04   -0.15839E-04   -0.11226E-04  2880   0.200E-03-0.917E-04
CGA:  16    -0.100559312840E+04   -0.60418E-05   -0.84345E-05  2880   0.279E-04 0.280E-04
   7 F= -.10055931E+04 E0= -.10055791E+04  d E =-.665817E-02  mag=     0.9997
       N       E                     dE             d eps       ncg     rms          ort
SDA:   1    -0.100554299306E+04    0.50129E-01    0.00000E+00  2880   0.433E+00 0.000E+00
CGA:   2    -0.100556097004E+04   -0.17977E-01   -0.17089E-01  2880   0.844E-01 0.109E-01
CGA:   3    -0.100558295803E+04   -0.21988E-01   -0.22030E-01  2880   0.110E+00-0.469E-03
CGA:   4    -0.100558982514E+04   -0.68671E-02   -0.68621E-02  2880   0.132E-01-0.104E-02
CGA:   5    -0.100559153511E+04   -0.17100E-02   -0.17141E-02  2880   0.206E-01-0.396E-03
CGA:   6    -0.100559286784E+04   -0.13327E-02   -0.13682E-02  2880   0.190E-02 0.809E-03
CGA:   7    -0.100559318225E+04   -0.31441E-03   -0.33240E-03  2880   0.302E-02-0.340E-03
CGA:   8    -0.100559338274E+04   -0.20049E-03   -0.17078E-03  2880   0.124E-02-0.626E-03
CGA:   9    -0.100559345483E+04   -0.72095E-04   -0.74245E-04  2880   0.716E-03 0.497E-04
CGA:  10    -0.100559348185E+04   -0.27018E-04   -0.42443E-04  2880   0.291E-03 0.278E-03
CGA:  11    -0.100559349091E+04   -0.90605E-05   -0.17717E-04  2880   0.989E-04 0.127E-03
CGA:  12    -0.100559349947E+04   -0.85536E-05   -0.10765E-04  2880   0.126E-03 0.693E-04
CGA:  13    -0.100559351205E+04   -0.12579E-04   -0.12349E-04  2880   0.172E-03-0.311E-04
CGA:  14    -0.100559353971E+04   -0.27668E-04    0.50414E-03  2880   0.120E-03 0.119E-04
CGA:  15    -0.100559354393E+04   -0.42200E-05   -0.63125E-05  2880   0.377E-04 0.364E-04
   8 F= -.10055935E+04 E0= -.10055795E+04  d E =-.415534E-03  mag=     0.9997
       N       E                     dE             d eps       ncg     rms          ort
SDA:   1    -0.100557272941E+04    0.20810E-01    0.00000E+00  2880   0.709E-01 0.000E+00
CGA:   2    -0.100558197143E+04   -0.92420E-02   -0.92573E-02  2880   0.916E-01-0.895E-03
CGA:   3    -0.100559330140E+04   -0.11330E-01   -0.11302E-01  2880   0.217E-01 0.767E-03
CGA:   4    -0.100559429408E+04   -0.99268E-03   -0.10209E-02  2880   0.694E-02 0.989E-03
CGA:   5    -0.100559591648E+04   -0.16224E-02   -0.17018E-02  2880   0.120E-02-0.584E-03
CGA:   6    -0.100559608282E+04   -0.16634E-03   -0.16024E-03  2880   0.125E-02 0.151E-03
CGA:   7    -0.100559614218E+04   -0.59364E-04   -0.72968E-04  2880   0.204E-03 0.234E-03
CGA:   8    -0.100559602694E+04    0.11524E-03   -0.74964E-04  2880   0.187E-02-0.509E-03
CGA:   9    -0.100559611826E+04   -0.91320E-04   -0.12212E-03  2880   0.809E-03 0.274E-03
CGA:  10    -0.100559619226E+04   -0.74003E-04   -0.81597E-04  2880   0.278E-03 0.822E-04
CGA:  11    -0.100559621254E+04   -0.20275E-04   -0.21482E-04  2880   0.915E-04 0.943E-05
CGA:  12    -0.100559572073E+04    0.49180E-03   -0.26812E-03  2880   0.592E-02-0.620E-03
CGA:  13    -0.100559595647E+04   -0.23574E-03   -0.29818E-03  2880   0.208E-02-0.537E-04
CGA:  14    -0.100559614405E+04   -0.18757E-03   -0.20911E-03  2880   0.497E-03 0.177E-03
CGA:  15    -0.100559617546E+04   -0.31412E-04   -0.44026E-04  2880   0.209E-03 0.598E-04
CGA:  16    -0.100559623516E+04   -0.59699E-04   -0.55889E-04  2880   0.129E-03-0.850E-04
CGA:  17    -0.100559624120E+04   -0.60391E-05   -0.29757E-05  2880   0.419E-04-0.132E-04
   9 F= -.10055962E+04 E0= -.10055822E+04  d E =-.269726E-02  mag=     0.9998
       N       E                     dE             d eps       ncg     rms          ort
SDA:   1    -0.100554069129E+04    0.55544E-01    0.00000E+00  2880   0.217E+00 0.000E+00
CGA:   2    -0.100555610195E+04   -0.15411E-01   -0.17527E-01  2880   0.278E+00-0.249E-01
CGA:   3    -0.100559063082E+04   -0.34529E-01   -0.34757E-01  2880   0.560E-01 0.218E-03
CGA:   4    -0.100559392190E+04   -0.32911E-02   -0.29128E-02  2880   0.170E-01 0.813E-02
CGA:   5    -0.100559650699E+04   -0.25851E-02   -0.25497E-02  2880   0.257E-01-0.339E-03
CGA:   6    -0.100559812626E+04   -0.16193E-02   -0.15867E-02  2880   0.315E-02 0.129E-03
CGA:   7    -0.100559830746E+04   -0.18120E-03   -0.19641E-03  2880   0.239E-02 0.767E-04
CGA:   8    -0.100559856037E+04   -0.25290E-03   -0.26913E-03  2880   0.157E-02 0.170E-03
CGA:   9    -0.100559864024E+04   -0.79874E-04   -0.95550E-04  2880   0.424E-03 0.997E-04
CGA:  10    -0.100559870063E+04   -0.60385E-04   -0.55877E-04  2880   0.645E-03-0.591E-04
CGA:  11    -0.100559876623E+04   -0.65606E-04   -0.40973E-04  2880   0.189E-03-0.209E-03
CGA:  12    -0.100559878261E+04   -0.16375E-04   -0.17005E-04  2880   0.228E-03 0.106E-04
CGA:  13    -0.100559878399E+04   -0.13790E-05   -0.12611E-04  2880   0.544E-04 0.842E-04
  10 F= -.10055988E+04 E0= -.10055847E+04  d E =-.254279E-02  mag=     0.9998
       N       E                     dE             d eps       ncg     rms          ort
SDA:   1    -0.100533496860E+04    0.26381E+00    0.00000E+00  2880   0.105E+01 0.000E+00
CGA:   2    -0.100540236224E+04   -0.67394E-01   -0.66545E-01  2880   0.919E+00-0.199E-01
CGA:   3    -0.100556848483E+04   -0.16612E+00   -0.16620E+00  2880   0.204E+00-0.218E-02
CGA:   4    -0.100558249001E+04   -0.14005E-01   -0.13934E-01  2880   0.903E-01-0.222E-02
CGA:   5    -0.100559774019E+04   -0.15250E-01   -0.15255E-01  2880   0.480E-01-0.821E-03
CGA:   6    -0.100559958694E+04   -0.18467E-02   -0.18558E-02  2880   0.623E-02 0.230E-02
CGA:   7    -0.100560120064E+04   -0.16137E-02   -0.15725E-02  2880   0.514E-02 0.504E-03
CGA:   8    -0.100560147989E+04   -0.27925E-03   -0.25766E-03  2880   0.143E-02-0.220E-03
CGA:   9    -0.100560178805E+04   -0.30816E-03   -0.32921E-03  2880   0.113E-02-0.249E-03
CGA:  10    -0.100560186246E+04   -0.74410E-04   -0.65663E-04  2880   0.707E-03-0.113E-03
CGA:  11    -0.100560190873E+04   -0.46271E-04   -0.58668E-04  2880   0.198E-03 0.194E-03
CGA:  12    -0.100560191718E+04   -0.84549E-05   -0.16993E-04  2880   0.102E-03 0.988E-04
CGA:  13    -0.100560193752E+04   -0.20333E-04   -0.20861E-04  2880   0.139E-03 0.422E-04
CGA:  14    -0.100560195205E+04   -0.14537E-04   -0.15631E-04  2880   0.570E-04 0.154E-04
CGA:  15    -0.100560197363E+04   -0.21573E-04    0.26264E-04  2880   0.261E-04-0.877E-06
CGA:  16    -0.100560197620E+04   -0.25781E-05   -0.24563E-05  2880   0.306E-04-0.252E-05
CGA:  17    -0.100560198517E+04   -0.89629E-05    0.14169E-04  2880   0.148E-04-0.735E-05
  11 F= -.10056020E+04 E0= -.10055880E+04  d E =-.320118E-02  mag=     0.9998
       N       E                     dE             d eps       ncg     rms          ort
SDA:   1    -0.100558445564E+04    0.17521E-01    0.00000E+00  2880   0.566E-01 0.000E+00
CGA:   2    -0.100559047389E+04   -0.60183E-02   -0.59697E-02  2880   0.679E-01-0.957E-03
CGA:   3    -0.100559924040E+04   -0.87665E-02   -0.87616E-02  2880   0.327E-01-0.115E-02
CGA:   4    -0.100560065387E+04   -0.14135E-02   -0.14014E-02  2880   0.482E-02 0.226E-02
CGA:   5    -0.100560169438E+04   -0.10405E-02   -0.10043E-02  2880   0.373E-02 0.563E-03
CGA:   6    -0.100560193433E+04   -0.23995E-03   -0.22114E-03  2880   0.120E-02-0.349E-03
CGA:   7    -0.100560208245E+04   -0.14812E-03   -0.14929E-03  2880   0.112E-02-0.155E-03
CGA:   8    -0.100560216245E+04   -0.79994E-04   -0.73675E-04  2880   0.249E-03-0.121E-03
CGA:   9    -0.100560218078E+04   -0.18330E-04   -0.21301E-04  2880   0.118E-03 0.942E-04
CGA:  10    -0.100560219598E+04   -0.15199E-04   -0.15954E-04  2880   0.745E-04 0.271E-04
CGA:  11    -0.100560219730E+04   -0.13263E-05   -0.46690E-05  2880   0.262E-04 0.455E-04
CGA:  12    -0.100560220430E+04   -0.69975E-05    0.14742E-04  2880   0.197E-04 0.124E-04
  12 F= -.10056022E+04 E0= -.10055882E+04  d E =-.219133E-03  mag=     0.9998
       N       E                     dE             d eps       ncg     rms          ort
SDA:   1    -0.100559862387E+04    0.35734E-02    0.00000E+00  2880   0.865E-02 0.000E+00
CGA:   2    -0.100560097110E+04   -0.23472E-02   -0.25030E-02  2880   0.150E-01-0.942E-03
CGA:   3    -0.100560174646E+04   -0.77536E-03   -0.79275E-03  2880   0.188E-02 0.161E-03
CGA:   4    -0.100560189430E+04   -0.14784E-03   -0.16233E-03  2880   0.153E-02 0.364E-03
CGA:   5    -0.100560205827E+04   -0.16397E-03   -0.16657E-03  2880   0.273E-03 0.783E-04
CGA:   6    -0.100560210577E+04   -0.47501E-04   -0.57247E-04  2880   0.683E-03-0.127E-03
CGA:   7    -0.100560212952E+04   -0.23751E-04   -0.14560E-04  2880   0.233E-03-0.108E-03
CGA:   8    -0.100560213673E+04   -0.72051E-05   -0.59141E-05  2880   0.108E-03-0.161E-04
  13 F= -.10056021E+04 E0= -.10055881E+04  d E =0.675761E-04  mag=     0.9998
       N       E                     dE             d eps       ncg     rms          ort
SDA:   1    -0.100558873410E+04    0.13395E-01    0.00000E+00  2880   0.104E+00 0.000E+00
CGA:   2    -0.100559333037E+04   -0.45963E-02   -0.45542E-02  2880   0.284E-01-0.419E-03
CGA:   3    -0.100559847335E+04   -0.51430E-02   -0.51380E-02  2880   0.444E-01 0.868E-04
CGA:   4    -0.100560175969E+04   -0.32863E-02   -0.32946E-02  2880   0.308E-02-0.116E-02
CGA:   5    -0.100560230533E+04   -0.54563E-03   -0.51154E-03  2880   0.171E-02 0.575E-03
CGA:   6    -0.100560245559E+04   -0.15027E-03   -0.14067E-03  2880   0.109E-02-0.236E-03
CGA:   7    -0.100560254666E+04   -0.91068E-04   -0.91395E-04  2880   0.279E-03 0.180E-04
CGA:   8    -0.100560257211E+04   -0.25442E-04   -0.25389E-04  2880   0.150E-03-0.419E-05
CGA:   9    -0.100560257320E+04   -0.10946E-05   -0.58791E-04  2880   0.654E-03-0.201E-03
CGA:  10    -0.100560259669E+04   -0.23493E-04   -0.30101E-04  2880   0.931E-04 0.763E-04
CGA:  11    -0.100560259823E+04   -0.15365E-05   -0.55612E-05  2880   0.558E-04 0.599E-04
  14 F= -.10056026E+04 E0= -.10055886E+04  d E =-.461504E-03  mag=     0.9998
       N       E                     dE             d eps       ncg     rms          ort
SDA:   1    -0.100537620563E+04    0.22639E+00    0.00000E+00  2880   0.616E+00 0.000E+00
CGA:   2    -0.100545517696E+04   -0.78971E-01   -0.79172E-01  2880   0.129E+01-0.161E-01
CGA:   3    -0.100557632961E+04   -0.12115E+00   -0.12101E+00  2880   0.136E+00-0.542E-03
CGA:   4    -0.100558708933E+04   -0.10760E-01   -0.10844E-01  2880   0.828E-01-0.182E-02
CGA:   5    -0.100559871357E+04   -0.11624E-01   -0.11595E-01  2880   0.267E-01 0.842E-03
CGA:   6    -0.100559983345E+04   -0.11199E-02   -0.11577E-02  2880   0.673E-02 0.971E-03
CGA:   7    -0.100560162824E+04   -0.17948E-02   -0.18576E-02  2880   0.236E-02-0.413E-03
CGA:   8    -0.100560175838E+04   -0.13015E-03   -0.13558E-03  2880   0.122E-02 0.607E-04
CGA:   9    -0.100560189622E+04   -0.13784E-03   -0.13962E-03  2880   0.106E-02 0.270E-03
CGA:  10    -0.100560202632E+04   -0.13009E-03   -0.12669E-03  2880   0.462E-03-0.179E-03
CGA:  11    -0.100560207445E+04   -0.48132E-04   -0.48158E-04  2880   0.174E-03-0.390E-05
CGA:  12    -0.100560211716E+04   -0.42712E-04    0.20398E-03  2880   0.759E-04 0.637E-04
CGA:  13    -0.100560214285E+04   -0.25693E-04   -0.30206E-04  2880   0.153E-03-0.262E-04
CGA:  14    -0.100560214463E+04   -0.17711E-05   -0.31847E-05  2880   0.617E-04 0.145E-04
  15 F= -.10056021E+04 E0= -.10055881E+04  d E =0.453604E-03  mag=     0.9998
       N       E                     dE             d eps       ncg     rms          ort
SDA:   1    -0.100541389590E+04    0.18825E+00    0.00000E+00  2880   0.830E+00 0.000E+00
CGA:   2    -0.100546259774E+04   -0.48702E-01   -0.50538E-01  2880   0.590E+00-0.188E-01
CGA:   3    -0.100556175269E+04   -0.99155E-01   -0.97313E-01  2880   0.394E+00 0.266E-01
CGA:   4    -0.100558882203E+04   -0.27069E-01   -0.23949E-01  2880   0.418E-01 0.320E-01
CGA:   5    -0.100559848025E+04   -0.96582E-02   -0.96873E-02  2880   0.712E-01-0.347E-03
CGA:   6    -0.100560160001E+04   -0.31198E-02   -0.31017E-02  2880   0.685E-02-0.229E-02
CGA:   7    -0.100560304234E+04   -0.14423E-02   -0.13624E-02  2880   0.408E-02 0.897E-03
CGA:   8    -0.100560324169E+04   -0.19936E-03   -0.22331E-03  2880   0.153E-02 0.309E-03
CGA:   9    -0.100560361321E+04   -0.37152E-03   -0.52587E-03  2880   0.145E-02-0.758E-03
CGA:  10    -0.100560364339E+04   -0.30171E-04   -0.34128E-04  2880   0.824E-03 0.430E-04
CGA:  11    -0.100560372612E+04   -0.82736E-04   -0.86640E-04  2880   0.999E-03 0.192E-03
CGA:  12    -0.100560379077E+04   -0.64650E-04   -0.71180E-04  2880   0.214E-03 0.994E-04
CGA:  13    -0.100560380423E+04   -0.13462E-04   -0.16531E-04  2880   0.128E-03 0.640E-04
CGA:  14    -0.100560378886E+04    0.15371E-04   -0.77785E-04  2880   0.854E-03-0.266E-03
CGA:  15    -0.100560383087E+04   -0.42011E-04   -0.40176E-04  2880   0.306E-03-0.279E-04
CGA:  16    -0.100560384918E+04   -0.18311E-04   -0.24799E-04  2880   0.841E-04 0.144E-03
CGA:  17    -0.100560385414E+04   -0.49524E-05   -0.76880E-05  2880   0.538E-04 0.419E-04
CGA:  18    -0.100560386440E+04   -0.10266E-04   -0.10293E-04  2880   0.425E-04-0.691E-05
CGA:  19    -0.100560386447E+04   -0.63577E-07   -0.12276E-05  2880   0.135E-04 0.128E-04
  16 F= -.10056039E+04 E0= -.10055900E+04  d E =-.171984E-02  mag=     0.9999
       N       E                     dE             d eps       ncg     rms          ort
SDA:   1    -0.100553557292E+04    0.68291E-01    0.00000E+00  2880   0.260E+00 0.000E+00
CGA:   2    -0.100555314854E+04   -0.17576E-01   -0.17258E-01  2880   0.243E+00-0.183E-02
CGA:   3    -0.100559562925E+04   -0.42481E-01   -0.42450E-01  2880   0.643E-01 0.587E-03
CGA:   4    -0.100559991741E+04   -0.42882E-02   -0.43561E-02  2880   0.239E-01-0.130E-02
CGA:   5    -0.100560401374E+04   -0.40963E-02   -0.40294E-02  2880   0.394E-02 0.112E-02
CGA:   6    -0.100560446190E+04   -0.44816E-03   -0.44683E-03  2880   0.572E-02-0.202E-03
CGA:   7    -0.100560500114E+04   -0.53924E-03   -0.52053E-03  2880   0.141E-02-0.964E-03
CGA:   8    -0.100560506743E+04   -0.66283E-04   -0.78452E-04  2880   0.580E-03 0.255E-03
CGA:   9    -0.100560512397E+04   -0.56539E-04   -0.62531E-04  2880   0.240E-03 0.289E-03
CGA:  10    -0.100560515078E+04   -0.26814E-04   -0.28476E-04  2880   0.190E-03 0.503E-04
CGA:  11    -0.100560516378E+04   -0.13002E-04   -0.16877E-04  2880   0.115E-03 0.107E-03
CGA:  12    -0.100560517857E+04   -0.14788E-04   -0.16260E-04  2880   0.191E-03-0.450E-04
CGA:  13    -0.100560520809E+04   -0.29521E-04    0.40526E-04  2880   0.111E-03-0.199E-04
CGA:  14    -0.100560521726E+04   -0.91677E-05   -0.87282E-05  2880   0.128E-03-0.212E-04
  17 F= -.10056052E+04 E0= -.10055913E+04  d E =-.135279E-02  mag=     0.9998
       N       E                     dE             d eps       ncg     rms          ort
SDA:   1    -0.100554769111E+04    0.57517E-01    0.00000E+00  2880   0.137E+00 0.000E+00
CGA:   2    -0.100558274756E+04   -0.35056E-01   -0.35260E-01  2880   0.192E+00-0.114E-02
CGA:   3    -0.100559634139E+04   -0.13594E-01   -0.12943E-01  2880   0.272E-01 0.528E-02
CGA:   4    -0.100560005926E+04   -0.37179E-02   -0.37031E-02  2880   0.299E-01 0.688E-03
CGA:   5    -0.100560169392E+04   -0.16347E-02   -0.17057E-02  2880   0.428E-02 0.780E-03
CGA:   6    -0.100560261526E+04   -0.92134E-03   -0.11557E-02  2880   0.488E-02-0.151E-02
CGA:   7    -0.100560274817E+04   -0.13291E-03   -0.14279E-03  2880   0.152E-02 0.169E-03
CGA:   8    -0.100560281295E+04   -0.64779E-04   -0.84513E-04  2880   0.119E-02 0.331E-03
CGA:   9    -0.100560290030E+04   -0.87348E-04   -0.10202E-03  2880   0.634E-03 0.386E-03
CGA:  10    -0.100560294067E+04   -0.40377E-04   -0.43440E-04  2880   0.178E-03 0.490E-04
CGA:  11    -0.100560296506E+04   -0.24386E-04   -0.62876E-04  2880   0.101E-02-0.173E-03
CGA:  12    -0.100560300719E+04   -0.42132E-04   -0.44330E-04  2880   0.892E-04 0.168E-04
CGA:  13    -0.100560301064E+04   -0.34525E-05   -0.52583E-05  2880   0.537E-04 0.328E-04
CGA:  14    -0.100560299777E+04    0.12869E-04   -0.37691E-04  2880   0.329E-03-0.126E-03
CGA:  15    -0.100560301333E+04   -0.15557E-04   -0.17961E-04  2880   0.128E-03 0.284E-04
CGA:  16    -0.100560301864E+04   -0.53080E-05   -0.94724E-05  2880   0.615E-04 0.713E-04
  18 F= -.10056030E+04 E0= -.10055890E+04  d E =0.219862E-02  mag=     0.9997
       N       E                     dE             d eps       ncg     rms          ort
SDA:   1    -0.100555054479E+04    0.52469E-01    0.00000E+00  2880   0.325E+00 0.000E+00
CGA:   2    -0.100556963243E+04   -0.19088E-01   -0.20027E-01  2880   0.114E+00-0.117E-01
CGA:   3    -0.100559880013E+04   -0.29168E-01   -0.29083E-01  2880   0.598E-01 0.499E-03
CGA:   4    -0.100560158447E+04   -0.27843E-02   -0.27416E-02  2880   0.153E-01-0.185E-02
CGA:   5    -0.100560402164E+04   -0.24372E-02   -0.24632E-02  2880   0.118E-01-0.656E-03
CGA:   6    -0.100560474496E+04   -0.72331E-03   -0.73038E-03  2880   0.186E-02-0.223E-04
CGA:   7    -0.100560492464E+04   -0.17969E-03   -0.18873E-03  2880   0.140E-02 0.407E-03
CGA:   8    -0.100560506972E+04   -0.14508E-03   -0.14583E-03  2880   0.599E-03 0.796E-05
CGA:   9    -0.100560511960E+04   -0.49875E-04   -0.53526E-04  2880   0.274E-03 0.113E-03
CGA:  10    -0.100560508000E+04    0.39601E-04   -0.12267E-03  2880   0.441E-02-0.634E-03
CGA:  11    -0.100560520346E+04   -0.12347E-03   -0.14660E-03  2880   0.220E-03 0.141E-03
CGA:  12    -0.100560521864E+04   -0.15176E-04   -0.18814E-04  2880   0.105E-03 0.826E-04
CGA:  13    -0.100560522270E+04   -0.40637E-05   -0.82468E-05  2880   0.388E-04 0.618E-04
  19 F= -.10056052E+04 E0= -.10055912E+04  d E =-.220406E-02  mag=     0.9998
       N       E                     dE             d eps       ncg     rms          ort
SDA:   1    -0.100552856958E+04    0.76649E-01    0.00000E+00  2880   0.211E+00 0.000E+00
CGA:   2    -0.100555512281E+04   -0.26553E-01   -0.26480E-01  2880   0.404E+00 0.571E-02
CGA:   3    -0.100559618628E+04   -0.41063E-01   -0.41090E-01  2880   0.552E-01-0.469E-03
CGA:   4    -0.100560002650E+04   -0.38402E-02   -0.37334E-02  2880   0.245E-01 0.158E-02
CGA:   5    -0.100560415568E+04   -0.41292E-02   -0.42131E-02  2880   0.124E-01-0.166E-02
CGA:   6    -0.100560464575E+04   -0.49008E-03   -0.52139E-03  2880   0.314E-02 0.220E-03
CGA:   7    -0.100560518344E+04   -0.53769E-03   -0.50892E-03  2880   0.764E-03 0.644E-03
CGA:   8    -0.100560528887E+04   -0.10542E-03   -0.10490E-03  2880   0.189E-02-0.224E-03
CGA:   9    -0.100560538956E+04   -0.10069E-03   -0.96017E-04  2880   0.142E-02-0.106E-03
CGA:  10    -0.100560541662E+04   -0.27061E-04   -0.33164E-04  2880   0.278E-03 0.650E-04
CGA:  11    -0.100560542359E+04   -0.69721E-05   -0.10540E-04  2880   0.261E-03 0.483E-04
CGA:  12    -0.100560545247E+04   -0.28878E-04   -0.29075E-04  2880   0.520E-03 0.175E-04
CGA:  13    -0.100560548474E+04   -0.32269E-04   -0.25820E-04  2880   0.165E-03-0.111E-03
CGA:  14    -0.100560549393E+04   -0.91888E-05   -0.62502E-05  2880   0.956E-04-0.561E-04
  20 F= -.10056055E+04 E0= -.10055916E+04  d E =-.271227E-03  mag=     0.9998
       N       E                     dE             d eps       ncg     rms          ort
SDA:   1    -0.100559045444E+04    0.15030E-01    0.00000E+00  2880   0.855E-01 0.000E+00
CGA:   2    -0.100559484499E+04   -0.43905E-02   -0.44389E-02  2880   0.441E-01-0.335E-02
CGA:   3    -0.100560319306E+04   -0.83481E-02   -0.84708E-02  2880   0.340E-01-0.125E-02
CGA:   4    -0.100560506618E+04   -0.18731E-02   -0.19081E-02  2880   0.555E-02 0.244E-03
CGA:   5    -0.100560597570E+04   -0.90953E-03   -0.85519E-03  2880   0.291E-02 0.979E-03
CGA:   6    -0.100560620728E+04   -0.23158E-03   -0.22401E-03  2880   0.164E-02-0.267E-03
CGA:   7    -0.100560640078E+04   -0.19350E-03   -0.19123E-03  2880   0.569E-03 0.719E-04
CGA:   8    -0.100560645511E+04   -0.54324E-04   -0.52968E-04  2880   0.519E-03-0.131E-03
CGA:   9    -0.100560650133E+04   -0.46219E-04   -0.46591E-04  2880   0.194E-03-0.223E-04
CGA:  10    -0.100560652004E+04   -0.18716E-04   -0.18809E-04  2880   0.218E-03-0.756E-04
CGA:  11    -0.100560652214E+04   -0.20960E-05   -0.61156E-05  2880   0.125E-03 0.742E-04
  21 F= -.10056065E+04 E0= -.10055925E+04  d E =-.102821E-02  mag=     0.9998
       N       E                     dE             d eps       ncg     rms          ort
SDA:   1    -0.100560463092E+04    0.18891E-02    0.00000E+00  2880   0.955E-02 0.000E+00
CGA:   2    -0.100560525297E+04   -0.62204E-03   -0.60715E-03  2880   0.593E-02-0.820E-03
CGA:   3    -0.100560604752E+04   -0.79455E-03   -0.79007E-03  2880   0.607E-02 0.629E-04
CGA:   4    -0.100560640748E+04   -0.35997E-03   -0.36325E-03  2880   0.513E-03 0.357E-04
CGA:   5    -0.100560650802E+04   -0.10053E-03   -0.93106E-04  2880   0.271E-03 0.846E-04
CGA:   6    -0.100560652876E+04   -0.20739E-04   -0.22457E-04  2880   0.649E-04 0.632E-04
CGA:   7    -0.100560654466E+04   -0.15902E-04    0.12514E-03  2880   0.274E-04 0.461E-04
CGA:   8    -0.100560655252E+04   -0.78566E-05    0.27289E-05  2880   0.346E-04 0.789E-05
  22 F= -.10056066E+04 E0= -.10055925E+04  d E =-.303789E-04  mag=     0.9998
