       N       E                     dE             d eps       ncg     rms          ort
DAV:   1     0.844486454711E+04    0.84449E+04   -0.24315E+05  8424   0.239E+03
DAV:   2     0.999989656745E+03   -0.74449E+04   -0.70027E+04  8424   0.660E+02
DAV:   3    -0.651008288830E+03   -0.16510E+04   -0.14392E+04  8424   0.288E+02
DAV:   4    -0.821734821154E+03   -0.17073E+03   -0.16755E+03  8424   0.892E+01
DAV:   5    -0.824603779522E+03   -0.28690E+01   -0.28543E+01  8424   0.129E+01
SDA:   6    -0.292252709725E+03    0.53235E+03   -0.28543E+01  8424   0.334E+04 0.000E+00
CGA:   7    -0.614724866483E+03   -0.32247E+03   -0.37321E+03  8424   0.233E+03 0.594E+02
CGA:   8    -0.645335227782E+03   -0.30610E+02   -0.31598E+02  8424   0.745E+02-0.171E+01
CGA:   9    -0.654370307134E+03   -0.90351E+01   -0.96515E+01  8424   0.438E+02-0.341E+01
CGA:  10    -0.659035388827E+03   -0.46651E+01   -0.49654E+01  8424   0.364E+02-0.128E+01
CGA:  11    -0.662072344731E+03   -0.30370E+01   -0.37960E+01  8424   0.191E+02-0.570E+00
CGA:  12    -0.664073555848E+03   -0.20012E+01   -0.18916E+01  8424   0.329E+01-0.498E+00
CGA:  13    -0.664688971535E+03   -0.61542E+00   -0.61564E+00  8424   0.124E+01-0.249E-01
CGA:  14    -0.664874245223E+03   -0.18527E+00   -0.18540E+00  8424   0.615E+00-0.120E-01
CGA:  15    -0.664961887407E+03   -0.87642E-01   -0.87714E-01  8424   0.253E+00-0.350E-02
CGA:  16    -0.665011133297E+03   -0.49246E-01   -0.49080E-01  8424   0.903E-01 0.732E-02
CGA:  17    -0.665032783816E+03   -0.21651E-01   -0.21124E-01  8424   0.571E-01 0.101E-01
CGA:  18    -0.665041588730E+03   -0.88049E-02   -0.90435E-02  8424   0.233E-01 0.599E-02
CGA:  19    -0.665047094142E+03   -0.55054E-02   -0.53798E-02  8424   0.836E-02 0.396E-02
CGA:  20    -0.665049769035E+03   -0.26749E-02   -0.26391E-02  8424   0.549E-02 0.438E-03
CGA:  21    -0.665051173941E+03   -0.14049E-02   -0.14292E-02  8424   0.399E-02-0.373E-03
CGA:  22    -0.665051908998E+03   -0.73506E-03   -0.73800E-03  8424   0.320E-02-0.257E-03
CGA:  23    -0.665052635217E+03   -0.72622E-03   -0.72764E-03  8424   0.167E-02-0.533E-04
CGA:  24    -0.665053201935E+03   -0.56672E-03   -0.57071E-03  8424   0.173E-02-0.567E-04
CGA:  25    -0.665053567659E+03   -0.36572E-03   -0.37328E-03  8424   0.190E-02-0.336E-03
CGA:  26    -0.665053898628E+03   -0.33097E-03   -0.66864E-03  8424   0.453E-02-0.154E-02
CGA:  27    -0.665054558046E+03   -0.65942E-03   -0.63859E-03  8424   0.206E-02-0.296E-03
CGA:  28    -0.665055100228E+03   -0.54218E-03   -0.68057E-03  8424   0.301E-02-0.949E-03
CGA:  29    -0.665055384761E+03   -0.28453E-03   -0.23965E-03  8424   0.126E-02-0.675E-03
CGA:  30    -0.665055305179E+03    0.79582E-04   -0.65349E-03  8424   0.121E-01-0.162E-02
CGA:  31    -0.665056371616E+03   -0.10664E-02   -0.10563E-02  8424   0.110E-02-0.436E-04
CGA:  32    -0.665056641648E+03   -0.27003E-03   -0.27326E-03  8424   0.699E-03-0.146E-03
CGA:  33    -0.665056816585E+03   -0.17494E-03   -0.32461E-03  8424   0.178E-02-0.496E-03
CGA:  34    -0.665057136411E+03   -0.31983E-03   -0.29126E-03  8424   0.826E-03-0.358E-03
CGA:  35    -0.665057289777E+03   -0.15337E-03   -0.24112E-03  8424   0.246E-02-0.705E-03
CGA:  36    -0.665057516665E+03   -0.22689E-03   -0.22636E-03  8424   0.334E-03-0.106E-04
CGA:  37    -0.665057602113E+03   -0.85448E-04   -0.18682E-03  8424   0.133E-02-0.318E-03
CGA:  38    -0.665057851815E+03   -0.24970E-03   -0.22345E-03  8424   0.634E-03-0.307E-03
CGA:  39    -0.665057943114E+03   -0.91299E-04   -0.19422E-03  8424   0.268E-02-0.701E-03
CGA:  40    -0.665058197708E+03   -0.25459E-03   -0.25202E-03  8424   0.362E-03-0.238E-04
CGA:  41    -0.665058301435E+03   -0.10373E-03   -0.16999E-03  8424   0.999E-03-0.299E-03
CGA:  42    -0.665058501710E+03   -0.20027E-03   -0.17940E-03  8424   0.585E-03-0.260E-03
CGA:  43    -0.665058517639E+03   -0.15929E-04   -0.21127E-03  8424   0.383E-02-0.851E-03
CGA:  44    -0.665058895195E+03   -0.37756E-03   -0.37296E-03  8424   0.519E-03-0.396E-04
CGA:  45    -0.665059040908E+03   -0.14571E-03   -0.15453E-03  8424   0.463E-03-0.216E-03
CGA:  46    -0.665059248906E+03   -0.20800E-03    0.75095E-04  8424   0.424E-03 0.696E-04
CGA:  47    -0.665059630575E+03   -0.38167E-03    0.12933E-03  8424   0.274E-03 0.259E-03
CGA:  48    -0.665058023289E+03    0.16073E-02   -0.86606E-03  8424   0.165E-01-0.149E-02
CGA:  49    -0.665060412498E+03   -0.23892E-02   -0.23408E-02  8424   0.995E-03-0.108E-03
CGA:  50    -0.665060554834E+03   -0.14234E-03   -0.13386E-03  8424   0.380E-03-0.269E-04
CGA:  51    -0.665060702923E+03   -0.14809E-03   -0.13670E-03  8424   0.418E-03-0.157E-03
CGA:  52    -0.665061102937E+03   -0.40001E-03    0.63915E-04  8424   0.697E-03 0.206E-04
CGA:  53    -0.665062230712E+03   -0.11278E-02    0.21433E-03  8424   0.842E-03 0.295E-03
CGA:  54    -0.665063509171E+03   -0.12785E-02    0.12519E-02  8424   0.325E-02-0.508E-03
CGA:  55    -0.665063841079E+03   -0.33191E-03   -0.31105E-03  8424   0.366E-03-0.799E-04
CGA:  56    -0.665063994018E+03   -0.15294E-03   -0.16542E-03  8424   0.896E-03-0.314E-03
CGA:  57    -0.665064127520E+03   -0.13350E-03   -0.12018E-03  8424   0.236E-03-0.475E-04
CGA:  58    -0.665064147155E+03   -0.19635E-04   -0.14570E-03  8424   0.326E-02-0.528E-03
CGA:  59    -0.665064498944E+03   -0.35179E-03   -0.31794E-03  8424   0.344E-03-0.122E-03
CGA:  60    -0.665064633912E+03   -0.13497E-03   -0.13063E-03  8424   0.107E-02-0.365E-03
CGA:  61    -0.665064758350E+03   -0.12444E-03   -0.12027E-03  8424   0.181E-03-0.162E-04
CGA:  62    -0.665064771577E+03   -0.13227E-04   -0.11376E-03  8424   0.254E-02-0.411E-03
CGA:  63    -0.665065084932E+03   -0.31336E-03   -0.26685E-03  8424   0.311E-03-0.166E-03
CGA:  64    -0.665065201516E+03   -0.11658E-03   -0.10320E-03  8424   0.123E-02-0.399E-03
CGA:  65    -0.665065323176E+03   -0.12166E-03   -0.12115E-03  8424   0.153E-03-0.436E-05
CGA:  66    -0.665065175261E+03    0.14792E-03   -0.14119E-03  8424   0.446E-02-0.525E-03
CGA:  67    -0.665065739627E+03   -0.56437E-03   -0.49212E-03  8424   0.492E-03-0.267E-03
CGA:  68    -0.665065867466E+03   -0.12784E-03   -0.79485E-04  8424   0.316E-03-0.227E-03
CGA:  69    -0.665066124690E+03   -0.25722E-03    0.31484E-04  8424   0.212E-03 0.444E-04
CGA:  70    -0.665066396585E+03   -0.27189E-03    0.90825E-04  8424   0.341E-03-0.252E-05
CGA:  71    -0.665067043903E+03   -0.64732E-03    0.40346E-04  8424   0.583E-03 0.848E-04
CGA:  72    -0.665068431587E+03   -0.13877E-02    0.88711E-04  8424   0.729E-03 0.171E-03
CGA:  73    -0.665070304708E+03   -0.18731E-02    0.10716E-03  8424   0.497E-03 0.406E-03
CGA:  74    -0.665070383961E+03   -0.79254E-04   -0.65122E-04  8424   0.155E-03-0.582E-04
CGA:  75    -0.665070496801E+03   -0.11284E-03    0.17662E-03  8424   0.448E-03-0.126E-03
CGA:  76    -0.665070598887E+03   -0.10209E-03   -0.68040E-04  8424   0.246E-03-0.163E-03
CGA:  77    -0.665070772148E+03   -0.17326E-03    0.48536E-04  8424   0.491E-03-0.145E-03
CGA:  78    -0.665070851655E+03   -0.79507E-04   -0.66943E-04  8424   0.148E-03-0.584E-04
CGA:  79    -0.665070952916E+03   -0.10126E-03    0.16067E-03  8424   0.482E-03-0.136E-03
CGA:  80    -0.665071050274E+03   -0.97358E-04   -0.65804E-04  8424   0.207E-03-0.155E-03
CGA:  81    -0.665071207495E+03   -0.15722E-03    0.33570E-04  8424   0.358E-03-0.102E-03
CGA:  82    -0.665071621605E+03   -0.41411E-03    0.12205E-04  8424   0.164E-03 0.136E-03
CGA:  83    -0.665071890995E+03   -0.26939E-03    0.46711E-04  8424   0.371E-03-0.694E-04
CGA:  84    -0.665072473183E+03   -0.58219E-03    0.11371E-04  8424   0.129E-02-0.311E-03
CGA:  85    -0.665072793679E+03   -0.32050E-03   -0.28878E-03  8424   0.247E-03-0.294E-03
CGA:  86    -0.665072851160E+03   -0.57481E-04   -0.69938E-04  8424   0.119E-02-0.309E-03
CGA:  87    -0.665072977573E+03   -0.12641E-03   -0.10647E-03  8424   0.675E-04-0.845E-04
CGA:  88    -0.665073092052E+03   -0.11448E-03    0.52498E-05  8424   0.699E-04 0.105E-04
CGA:  89    -0.665073303694E+03   -0.21164E-03    0.40440E-05  8424   0.989E-04 0.371E-04
CGA:  90    -0.665073379886E+03   -0.76192E-04    0.71134E-04  8424   0.406E-03-0.101E-03
CGA:  91    -0.665073443285E+03   -0.63399E-04   -0.43066E-04  8424   0.800E-04-0.977E-04
CGA:  92    -0.665073564586E+03   -0.12130E-03    0.40934E-05  8424   0.642E-04 0.176E-04
CGA:  93    -0.665073756061E+03   -0.19147E-03    0.39938E-05  8424   0.758E-04 0.401E-04
CGA:  94    -0.665073824817E+03   -0.68756E-04    0.23857E-04  8424   0.445E-03-0.105E-03
CGA:  95    -0.665073885087E+03   -0.60271E-04   -0.42534E-04  8424   0.627E-04-0.853E-04
CGA:  96    -0.665073991704E+03   -0.10662E-03    0.29090E-05  8424   0.625E-04 0.176E-04
CGA:  97    -0.665074192755E+03   -0.20105E-03    0.36191E-05  8424   0.640E-04 0.460E-04
CGA:  98    -0.665074263080E+03   -0.70325E-04    0.10957E-04  8424   0.358E-03-0.780E-04
CGA:  99    -0.665074315556E+03   -0.52476E-04   -0.35037E-04  8424   0.712E-04-0.891E-04
CGA: 100    -0.665074423197E+03   -0.10764E-03    0.30124E-05  8424   0.550E-04 0.191E-04
CGA: 101    -0.665074594310E+03   -0.17111E-03    0.30082E-05  8424   0.702E-04 0.354E-04
CGA: 102    -0.665074656770E+03   -0.62460E-04    0.17880E-04  8424   0.420E-03-0.101E-03
CGA: 103    -0.665074711027E+03   -0.54256E-04   -0.37958E-04  8424   0.595E-04-0.844E-04
CGA: 104    -0.665074807380E+03   -0.96353E-04    0.24440E-05  8424   0.587E-04 0.152E-04
CGA: 105    -0.665074988194E+03   -0.18081E-03    0.29302E-05  8424   0.564E-04 0.422E-04
CGA: 106    -0.665075054799E+03   -0.66605E-04    0.67840E-05  8424   0.289E-03-0.618E-04
CGA: 107    -0.665075100870E+03   -0.46072E-04   -0.29373E-04  8424   0.840E-04-0.966E-04
CGA: 108    -0.665075207737E+03   -0.10687E-03    0.28911E-05  8424   0.390E-04 0.234E-04
CGA: 109    -0.665075335972E+03   -0.12823E-03    0.17356E-05  8424   0.524E-04 0.297E-04
CGA: 110    -0.665075401648E+03   -0.65676E-04    0.51654E-05  8424   0.249E-03-0.517E-04
CGA: 111    -0.665075445024E+03   -0.43375E-04   -0.26920E-04  8424   0.101E-03-0.104E-03
CGA: 112    -0.665075558065E+03   -0.11304E-03    0.27702E-05  8424   0.268E-04 0.320E-04
CGA: 113    -0.665075664048E+03   -0.10598E-03    0.94770E-06  8424   0.259E-04 0.336E-04
CGA: 114    -0.665075739512E+03   -0.75464E-04    0.72213E-06  8424   0.338E-04 0.214E-04
CGA: 115    -0.665075812248E+03   -0.72735E-04    0.13830E-05  8424   0.100E-03-0.213E-05
CGA: 116    -0.665076114179E+03   -0.30193E-03    0.23387E-05  8424   0.123E-03 0.915E-04
CGA: 117    -0.665076149054E+03   -0.34875E-04   -0.25137E-04  8424   0.431E-03-0.178E-03
CGA: 118    -0.665076201356E+03   -0.52302E-04   -0.37012E-04  8424   0.557E-04-0.903E-04
CGA: 119    -0.665076281560E+03   -0.80205E-04    0.20289E-05  8424   0.585E-04 0.743E-05
CGA: 120    -0.665076438438E+03   -0.15688E-03    0.21702E-05  8424   0.367E-04 0.400E-04
CGA: 121    -0.665076503681E+03   -0.65243E-04    0.17490E-05  8424   0.121E-03-0.147E-04
CGA: 122    -0.665076791036E+03   -0.28735E-03    0.12871E-05  8424   0.377E-03 0.473E-04
CGA: 123    -0.665077804566E+03   -0.10135E-02    0.22317E-04  8424   0.547E-03 0.460E-04
CGA: 124    -0.665079404186E+03   -0.15996E-02    0.17794E-04  8424   0.101E-03 0.354E-03
CGA: 125    -0.665079454630E+03   -0.50443E-04    0.13325E-02  8424   0.324E-03-0.146E-03
CGA: 126    -0.665079496503E+03   -0.41873E-04   -0.33659E-04  8424   0.371E-04-0.574E-04
CGA: 127    -0.665079561763E+03   -0.65260E-04    0.10643E-05  8424   0.575E-04-0.170E-05
CGA: 128    -0.665079720789E+03   -0.15903E-03    0.13092E-05  8424   0.377E-04 0.306E-04
CGA: 129    -0.665079767818E+03   -0.47029E-04    0.28343E-05  8424   0.875E-04-0.261E-04
CGA: 130    -0.665079819592E+03   -0.51774E-04    0.45424E-04  8424   0.260E-03-0.118E-03
CGA: 131    -0.665079856041E+03   -0.36450E-04   -0.28255E-04  8424   0.450E-04-0.627E-04
CGA: 132    -0.665079919944E+03   -0.63903E-04    0.13249E-05  8424   0.610E-04-0.421E-05
CGA: 133    -0.665080065903E+03   -0.14596E-03    0.13897E-05  8424   0.370E-04 0.237E-04
CGA: 134    -0.665080201937E+03   -0.13603E-03    0.12896E-05  8424   0.330E-04 0.224E-04
CGA: 135    -0.665080257484E+03   -0.55547E-04    0.14847E-05  8424   0.741E-04-0.201E-04
CGA: 136    -0.665079033614E+03    0.12239E-02   -0.67474E-03  8424   0.188E-01-0.104E-02
CGA: 137    -0.665080589005E+03   -0.15554E-02   -0.14876E-02  8424   0.363E-03 0.751E-04
CGA: 138    -0.665080644557E+03   -0.55552E-04   -0.34178E-04  8424   0.317E-04-0.674E-04
CGA: 139    -0.665080729576E+03   -0.85018E-04    0.15873E-05  8424   0.117E-03-0.130E-04
CGA: 140    -0.665081159116E+03   -0.42954E-03    0.19443E-05  8424   0.153E-03 0.399E-04
CGA: 141    -0.665081759300E+03   -0.60018E-03    0.14868E-04  8424   0.120E-02-0.247E-03
CGA: 142    -0.665081857438E+03   -0.98138E-04   -0.10005E-03  8424   0.336E-04 0.358E-05
CGA: 143    -0.665081905672E+03   -0.48234E-04    0.70787E-05  8424   0.352E-03-0.720E-04
CGA: 144    -0.665081951339E+03   -0.45667E-04   -0.30338E-04  8424   0.288E-04-0.524E-04
CGA: 145    -0.665082024587E+03   -0.73248E-04    0.14273E-05  8424   0.167E-03-0.289E-04
CGA: 146    -0.665082048912E+03   -0.24324E-04   -0.14999E-04  8424   0.250E-04-0.348E-04
CGA: 147    -0.665082125058E+03   -0.76147E-04    0.76722E-06  8424   0.642E-04-0.428E-05
CGA: 148    -0.665082404964E+03   -0.27991E-03    0.14215E-05  8424   0.123E-04 0.364E-04
CGA: 149    -0.665082469852E+03   -0.64888E-04    0.32719E-06  8424   0.420E-04 0.787E-06
CGA: 150    -0.665082768373E+03   -0.29852E-03    0.91165E-06  8424   0.403E-04 0.351E-04
CGA: 151    -0.665082823444E+03   -0.55071E-04    0.73749E-05  8424   0.200E-03-0.632E-04
CGA: 152    -0.665082855283E+03   -0.31839E-04   -0.23025E-04  8424   0.236E-04-0.376E-04
CGA: 153    -0.665082929676E+03   -0.74393E-04    0.68459E-06  8424   0.353E-04-0.249E-05
CGA: 154    -0.665083094930E+03   -0.16525E-03    0.78902E-06  8424   0.393E-04 0.144E-04
CGA: 155    -0.665083328565E+03   -0.23364E-03    0.17852E-05  8424   0.168E-03-0.145E-04
CGA: 156    -0.665084384310E+03   -0.10557E-02    0.13085E-05  8424   0.918E-03-0.215E-04
CGA: 157    -0.665090514823E+03   -0.61305E-02    0.13070E-04  8424   0.254E-02-0.990E-03
CGA: 158    -0.665090904209E+03   -0.38939E-03   -0.38446E-03  8424   0.785E-03-0.288E-04
CGA: 159    -0.665090994393E+03   -0.90184E-04   -0.81736E-04  8424   0.396E-04-0.387E-04
CGA: 160    -0.665090998762E+03   -0.43694E-05   -0.20447E-04  8424   0.223E-03-0.714E-04
CGA: 161    -0.665091020789E+03   -0.22027E-04   -0.22445E-04  8424   0.342E-04 0.172E-05
CGA: 162    -0.665091028445E+03   -0.76561E-05   -0.64544E-05  8424   0.131E-04-0.929E-05
   1 F= -.66509103E+03 E0= -.66508752E+03  d E =-.702222E-02  mag=     0.9761
