       N       E                     dE             d eps       ncg     rms          rms(c)
DAV:   1     0.308461428488E+04    0.30846E+04   -0.25816E+05 11560   0.131E+03
DAV:   2    -0.602677613890E+03   -0.36873E+04   -0.35530E+04 13872   0.298E+02
DAV:   3    -0.872555741481E+03   -0.26988E+03   -0.26801E+03 14080   0.848E+01
DAV:   4    -0.876043894737E+03   -0.34882E+01   -0.34744E+01 13880   0.103E+01
DAV:   5    -0.876106874499E+03   -0.62980E-01   -0.62808E-01 14224   0.127E+00    0.990E+01
DAV:   6    -0.780322980854E+03    0.95784E+02   -0.40565E+02 12976   0.319E+01    0.503E+01
DAV:   7    -0.789463889109E+03   -0.91409E+01   -0.21840E+01 13120   0.767E+00    0.163E+01
DAV:   8    -0.793649044460E+03   -0.41852E+01   -0.17180E+00 13632   0.247E+00    0.779E+00
DAV:   9    -0.795908440232E+03   -0.22594E+01   -0.11364E+00 13824   0.173E+00    0.387E+00
DAV:  10    -0.796415726500E+03   -0.50729E+00   -0.29550E-01 13240   0.938E-01    0.109E+00
DAV:  11    -0.796485308244E+03   -0.69582E-01   -0.38956E-02 13728   0.349E-01    0.599E-01
DAV:  12    -0.796494733000E+03   -0.94248E-02   -0.50062E-03 13432   0.136E-01    0.269E-01
DAV:  13    -0.796496983130E+03   -0.22501E-02   -0.11805E-03 13624   0.660E-02    0.814E-02
DAV:  14    -0.796497382635E+03   -0.39950E-03   -0.31358E-04 13240   0.362E-02    0.429E-02
DAV:  15    -0.796497413631E+03   -0.30996E-04   -0.44165E-05 12752   0.181E-02    0.271E-02
DAV:  16    -0.796497423114E+03   -0.94825E-05   -0.17491E-05  9680   0.135E-02
   1 F= -.79649742E+03 E0= -.79649742E+03  d E =-.796497E+03  mag=    -0.0037
       N       E                     dE             d eps       ncg     rms          rms(c)
DAV:   1    -0.796497280656E+03    0.13297E-03   -0.29464E-02 12016   0.326E-01    0.112E-01
DAV:   2    -0.796497362781E+03   -0.82125E-04   -0.10803E-03 14152   0.581E-02    0.405E-02
DAV:   3    -0.796497339119E+03    0.23662E-04   -0.25578E-05 11216   0.146E-02    0.173E-02
DAV:   4    -0.796497332213E+03    0.69060E-05   -0.16845E-05  9480   0.118E-02
   2 F= -.79649733E+03 E0= -.79649733E+03  d E =0.909007E-04  mag=    -0.0002
       N       E                     dE             d eps       ncg     rms          rms(c)
DAV:   1    -0.796497446889E+03   -0.10777E-03   -0.12288E-02 11888   0.210E-01    0.718E-02
DAV:   2    -0.796497479249E+03   -0.32360E-04   -0.44411E-04 14088   0.375E-02    0.251E-02
DAV:   3    -0.796497469260E+03    0.99887E-05   -0.10134E-05  8976   0.930E-03    0.111E-02
DAV:   4    -0.796497466291E+03    0.29688E-05   -0.78777E-06  8088   0.774E-03
   3 F= -.79649747E+03 E0= -.79649747E+03  d E =-.431777E-04  mag=    -0.0000
