       N       E                     dE             d eps       ncg     rms          ort
DAV:   1     0.412484666064E+04    0.41248E+04   -0.16926E+05  1824   0.159E+03
DAV:   2     0.139533713193E+01   -0.41235E+04   -0.39796E+04  1824   0.455E+02
DAV:   3    -0.715856776837E+03   -0.71725E+03   -0.67729E+03  1824   0.163E+02
DAV:   4    -0.771861420664E+03   -0.56005E+02   -0.55543E+02  1824   0.477E+01
DAV:   5    -0.773199371217E+03   -0.13380E+01   -0.13350E+01  1824   0.861E+00
SDA:   6    -0.485589858887E+03    0.28761E+03   -0.13350E+01  1824   0.872E+03 0.000E+00
CGA:   7    -0.607791363784E+03   -0.12220E+03   -0.11654E+03  1824   0.104E+03-0.184E+01
CGA:   8    -0.628301423543E+03   -0.20510E+02   -0.20517E+02  1824   0.459E+02-0.261E+01
CGA:   9    -0.637353175535E+03   -0.90518E+01   -0.90521E+01  1824   0.168E+02 0.173E-01
CGA:  10    -0.640692353327E+03   -0.33392E+01   -0.33393E+01  1824   0.502E+01 0.661E-02
CGA:  11    -0.641632904215E+03   -0.94055E+00   -0.94035E+00  1824   0.161E+01-0.219E-01
CGA:  12    -0.641986339227E+03   -0.35344E+00   -0.35374E+00  1824   0.666E+00-0.169E-01
CGA:  13    -0.642142146887E+03   -0.15581E+00   -0.15605E+00  1824   0.248E+00-0.121E-01
CGA:  14    -0.642200354203E+03   -0.58207E-01   -0.58549E-01  1824   0.110E+00-0.884E-02
CGA:  15    -0.642224862025E+03   -0.24508E-01   -0.24340E-01  1824   0.462E-01 0.563E-02
CGA:  16    -0.642238193150E+03   -0.13331E-01   -0.13196E-01  1824   0.185E-01 0.194E-02
CGA:  17    -0.642243882474E+03   -0.56893E-02   -0.60927E-02  1824   0.120E-01-0.369E-02
CGA:  18    -0.642246133207E+03   -0.22507E-02   -0.22657E-02  1824   0.528E-02-0.649E-03
CGA:  19    -0.642247692769E+03   -0.15596E-02   -0.17397E-02  1824   0.335E-02-0.134E-02
CGA:  20    -0.642248327456E+03   -0.63469E-03   -0.84068E-03  1824   0.358E-02-0.174E-02
CGA:  21    -0.642248707601E+03   -0.38014E-03   -0.46437E-03  1824   0.898E-03 0.873E-03
CGA:  22    -0.642248896103E+03   -0.18850E-03   -0.20319E-03  1824   0.371E-03 0.377E-03
CGA:  23    -0.642249038551E+03   -0.14245E-03   -0.15220E-03  1824   0.374E-03-0.139E-03
CGA:  24    -0.642249044078E+03   -0.55272E-05   -0.20153E-04  1824   0.288E-03 0.106E-03
CGA:  25    -0.642249046241E+03   -0.21631E-05   -0.27092E-04  1824   0.147E-03 0.174E-03
CGA:  26    -0.642249079329E+03   -0.33088E-04   -0.32530E-04  1824   0.597E-04 0.430E-04
CGA:  27    -0.642249116991E+03   -0.37662E-04    0.48647E-04  1824   0.228E-04 0.118E-04
CGA:  28    -0.642249131371E+03   -0.14380E-04    0.11253E-04  1824   0.139E-04 0.102E-04
CGA:  29    -0.642249130543E+03    0.82788E-06   -0.14891E-05  1824   0.110E-04 0.171E-04
   1 F= -.64224913E+03 E0= -.64224807E+03  d E =-.642249E+03  mag=    -0.0007
       N       E                     dE             d eps       ncg     rms          ort
SDA:   1    -0.642250074477E+03   -0.94311E-03    0.00000E+00  1824   0.142E-03 0.000E+00
CGA:   2    -0.642250089022E+03   -0.14545E-04   -0.17097E-04  1824   0.394E-04 0.345E-04
CGA:   3    -0.642250093176E+03   -0.41543E-05   -0.59467E-05  1824   0.195E-04 0.258E-04
CGA:   4    -0.642250098341E+03   -0.51643E-05   -0.49620E-05  1824   0.138E-04 0.295E-05
   2 F= -.64225010E+03 E0= -.64224906E+03  d E =-.967798E-03  mag=    -0.0001
       N       E                     dE             d eps       ncg     rms          ort
SDA:   1    -0.642085049923E+03    0.16504E+00    0.00000E+00  1824   0.840E+00 0.000E+00
CGA:   2    -0.642223886950E+03   -0.13884E+00   -0.13892E+00  1824   0.301E+00 0.184E-02
CGA:   3    -0.642293001467E+03   -0.69115E-01   -0.69100E-01  1824   0.858E-01-0.315E-04
CGA:   4    -0.642313236540E+03   -0.20235E-01   -0.20278E-01  1824   0.289E-01-0.108E-02
CGA:   5    -0.642318504700E+03   -0.52682E-02   -0.52610E-02  1824   0.100E-01-0.645E-03
CGA:   6    -0.642320499625E+03   -0.19949E-02   -0.19943E-02  1824   0.353E-02 0.632E-04
CGA:   7    -0.642321317837E+03   -0.81821E-03   -0.81216E-03  1824   0.108E-02 0.179E-03
CGA:   8    -0.642321613735E+03   -0.29590E-03   -0.29258E-03  1824   0.359E-03 0.533E-04
CGA:   9    -0.642321715913E+03   -0.10218E-03   -0.10147E-03  1824   0.181E-03 0.994E-05
CGA:  10    -0.642321754526E+03   -0.38613E-04   -0.38595E-04  1824   0.767E-04 0.414E-05
CGA:  11    -0.642321777860E+03   -0.23335E-04   -0.26972E-04  1824   0.628E-04-0.259E-04
CGA:  12    -0.642321785934E+03   -0.80735E-05   -0.80146E-05  1824   0.232E-04-0.334E-05
   3 F= -.64232179E+03 E0= -.64232080E+03  d E =-.716876E-01  mag=     0.0000
       N       E                     dE             d eps       ncg     rms          ort
SDA:   1    -0.641844739081E+03    0.47704E+00    0.00000E+00  1824   0.199E+01 0.000E+00
CGA:   2    -0.642175376719E+03   -0.33064E+00   -0.33094E+00  1824   0.730E+00 0.222E-02
CGA:   3    -0.642342233387E+03   -0.16686E+00   -0.16684E+00  1824   0.205E+00-0.219E-03
CGA:   4    -0.642389871462E+03   -0.47638E-01   -0.47654E-01  1824   0.726E-01-0.103E-02
CGA:   5    -0.642402793762E+03   -0.12922E-01   -0.12893E-01  1824   0.239E-01-0.812E-03
CGA:   6    -0.642407782380E+03   -0.49886E-02   -0.49886E-02  1824   0.866E-02 0.554E-04
CGA:   7    -0.642409859708E+03   -0.20773E-02   -0.20722E-02  1824   0.280E-02 0.179E-03
CGA:   8    -0.642410576066E+03   -0.71636E-03   -0.71215E-03  1824   0.970E-03 0.110E-03
CGA:   9    -0.642410828439E+03   -0.25237E-03   -0.25245E-03  1824   0.514E-03-0.246E-05
CGA:  10    -0.642410933477E+03   -0.10504E-03   -0.10518E-03  1824   0.188E-03 0.134E-04
CGA:  11    -0.642410991259E+03   -0.57782E-04   -0.60426E-04  1824   0.103E-03-0.270E-04
CGA:  12    -0.642411013567E+03   -0.22308E-04   -0.22656E-04  1824   0.469E-04-0.936E-05
CGA:  13    -0.642411024501E+03   -0.10934E-04   -0.11709E-04  1824   0.276E-04-0.148E-04
CGA:  14    -0.642411027505E+03   -0.30049E-05   -0.31552E-05  1824   0.973E-05 0.257E-05
   4 F= -.64241103E+03 E0= -.64241010E+03  d E =-.892416E-01  mag=     0.0000
       N       E                     dE             d eps       ncg     rms          ort
SDA:   1    -0.641804605888E+03    0.60642E+00    0.00000E+00  1824   0.249E+01 0.000E+00
CGA:   2    -0.642189915070E+03   -0.38531E+00   -0.38578E+00  1824   0.856E+00 0.142E-02
CGA:   3    -0.642399195412E+03   -0.20928E+00   -0.20926E+00  1824   0.235E+00-0.260E-03
CGA:   4    -0.642451743453E+03   -0.52548E-01   -0.52549E-01  1824   0.856E-01-0.469E-03
CGA:   5    -0.642466975439E+03   -0.15232E-01   -0.15207E-01  1824   0.265E-01-0.541E-03
CGA:   6    -0.642472507196E+03   -0.55318E-02   -0.55322E-02  1824   0.100E-01 0.696E-04
CGA:   7    -0.642474955884E+03   -0.24487E-02   -0.24469E-02  1824   0.327E-02 0.576E-04
CGA:   8    -0.642475761076E+03   -0.80519E-03   -0.80157E-03  1824   0.118E-02 0.128E-03
CGA:   9    -0.642476050897E+03   -0.28982E-03   -0.28991E-03  1824   0.610E-03-0.503E-05
CGA:  10    -0.642476178918E+03   -0.12802E-03   -0.12818E-03  1824   0.215E-03 0.212E-04
CGA:  11    -0.642476242622E+03   -0.63705E-04   -0.64247E-04  1824   0.978E-04-0.779E-05
CGA:  12    -0.642476268968E+03   -0.26346E-04   -0.27048E-04  1824   0.549E-04-0.108E-04
CGA:  13    -0.642476280228E+03   -0.11260E-04   -0.11339E-04  1824   0.253E-04-0.110E-04
CGA:  14    -0.642476283479E+03   -0.32507E-05   -0.34943E-05  1824   0.756E-05 0.462E-05
   5 F= -.64247628E+03 E0= -.64247538E+03  d E =-.652560E-01  mag=     0.0000
       N       E                     dE             d eps       ncg     rms          ort
SDA:   1    -0.640785328645E+03    0.16910E+01    0.00000E+00  1824   0.766E+01 0.000E+00
CGA:   2    -0.641799078846E+03   -0.10138E+01   -0.10164E+01  1824   0.192E+01-0.356E-03
CGA:   3    -0.642354053662E+03   -0.55497E+00   -0.55479E+00  1824   0.595E+00 0.896E-03
CGA:   4    -0.642466681542E+03   -0.11263E+00   -0.11267E+00  1824   0.186E+00 0.991E-06
CGA:   5    -0.642501653448E+03   -0.34972E-01   -0.34968E-01  1824   0.582E-01 0.681E-04
CGA:   6    -0.642513422480E+03   -0.11769E-01   -0.11775E-01  1824   0.205E-01 0.376E-03
CGA:   7    -0.642518706993E+03   -0.52845E-02   -0.52890E-02  1824   0.719E-02-0.119E-03
CGA:   8    -0.642520344961E+03   -0.16380E-02   -0.16358E-02  1824   0.275E-02 0.176E-03
CGA:   9    -0.642520954155E+03   -0.60919E-03   -0.60922E-03  1824   0.122E-02 0.235E-04
CGA:  10    -0.642521251499E+03   -0.29734E-03   -0.29663E-03  1824   0.456E-03 0.290E-04
CGA:  11    -0.642521362822E+03   -0.11132E-03   -0.11079E-03  1824   0.202E-03 0.284E-04
CGA:  12    -0.642521415507E+03   -0.52685E-04   -0.52343E-04  1824   0.810E-04 0.142E-04
CGA:  13    -0.642521439899E+03   -0.24392E-04   -0.24733E-04  1824   0.419E-04-0.538E-05
CGA:  14    -0.642521444886E+03   -0.49869E-05   -0.58314E-05  1824   0.134E-04 0.112E-04
   6 F= -.64252144E+03 E0= -.64252049E+03  d E =-.451614E-01  mag=     0.0000
       N       E                     dE             d eps       ncg     rms          ort
SDA:   1    -0.640017259948E+03    0.25042E+01    0.00000E+00  1824   0.115E+02 0.000E+00
CGA:   2    -0.641500528652E+03   -0.14833E+01   -0.14874E+01  1824   0.272E+01-0.672E-03
CGA:   3    -0.642294275039E+03   -0.79375E+00   -0.79355E+00  1824   0.897E+00 0.595E-03
CGA:   4    -0.642458892536E+03   -0.16462E+00   -0.16468E+00  1824   0.264E+00 0.979E-04
CGA:   5    -0.642508672878E+03   -0.49780E-01   -0.49803E-01  1824   0.845E-01 0.967E-03
CGA:   6    -0.642526027238E+03   -0.17354E-01   -0.17362E-01  1824   0.282E-01 0.759E-03
CGA:   7    -0.642533331893E+03   -0.73047E-02   -0.73160E-02  1824   0.107E-01-0.277E-03
CGA:   8    -0.642535722626E+03   -0.23907E-02   -0.23891E-02  1824   0.405E-02 0.152E-03
CGA:   9    -0.642536588393E+03   -0.86577E-03   -0.86611E-03  1824   0.172E-02 0.631E-04
CGA:  10    -0.642537039727E+03   -0.45133E-03   -0.45014E-03  1824   0.689E-03 0.286E-04
CGA:  11    -0.642537192869E+03   -0.15314E-03   -0.15310E-03  1824   0.289E-03 0.663E-04
CGA:  12    -0.642537274099E+03   -0.81230E-04   -0.80097E-04  1824   0.112E-03 0.320E-04
CGA:  13    -0.642537307721E+03   -0.33622E-04   -0.33206E-04  1824   0.495E-04 0.870E-05
CGA:  14    -0.642537315219E+03   -0.74971E-05   -0.86065E-05  1824   0.172E-04 0.182E-04
   7 F= -.64253732E+03 E0= -.64253624E+03  d E =-.158703E-01  mag=    -0.0000
       N       E                     dE             d eps       ncg     rms          ort
SDA:   1    -0.640248276352E+03    0.22890E+01    0.00000E+00  1824   0.104E+02 0.000E+00
CGA:   2    -0.641625530820E+03   -0.13773E+01   -0.13781E+01  1824   0.256E+01-0.120E-01
CGA:   3    -0.642324616360E+03   -0.69909E+00   -0.69841E+00  1824   0.791E+00 0.828E-02
CGA:   4    -0.642483740031E+03   -0.15912E+00   -0.15917E+00  1824   0.254E+00 0.129E-02
CGA:   5    -0.642530795057E+03   -0.47055E-01   -0.47079E-01  1824   0.788E-01 0.865E-03
CGA:   6    -0.642547356569E+03   -0.16562E-01   -0.16562E-01  1824   0.279E-01-0.528E-04
CGA:   7    -0.642554295463E+03   -0.69389E-02   -0.69439E-02  1824   0.963E-02-0.156E-03
CGA:   8    -0.642556656444E+03   -0.23610E-02   -0.23618E-02  1824   0.375E-02-0.342E-04
CGA:   9    -0.642557457876E+03   -0.80143E-03   -0.80170E-03  1824   0.168E-02 0.938E-04
CGA:  10    -0.642557889691E+03   -0.43182E-03   -0.43327E-03  1824   0.659E-03-0.427E-04
CGA:  11    -0.642558056177E+03   -0.16649E-03   -0.16534E-03  1824   0.306E-03 0.295E-04
CGA:  12    -0.642558139814E+03   -0.83637E-04   -0.84434E-04  1824   0.157E-03-0.187E-04
CGA:  13    -0.642558169007E+03   -0.29194E-04   -0.29585E-04  1824   0.507E-04 0.178E-04
CGA:  14    -0.642558184388E+03   -0.15381E-04   -0.15096E-04  1824   0.164E-04 0.622E-05
CGA:  15    -0.642558190878E+03   -0.64896E-05   -0.65416E-05  1824   0.120E-04-0.405E-06
   8 F= -.64255819E+03 E0= -.64255710E+03  d E =-.208757E-01  mag=    -0.0000
       N       E                     dE             d eps       ncg     rms          ort
SDA:   1    -0.642233238633E+03    0.32495E+00    0.00000E+00  1824   0.181E+01 0.000E+00
CGA:   2    -0.642448839152E+03   -0.21560E+00   -0.21592E+00  1824   0.322E+00 0.530E-04
CGA:   3    -0.642542865081E+03   -0.94026E-01   -0.93968E-01  1824   0.112E+00 0.207E-03
CGA:   4    -0.642564818089E+03   -0.21953E-01   -0.21936E-01  1824   0.304E-01-0.691E-03
CGA:   5    -0.642570718399E+03   -0.59003E-02   -0.58825E-02  1824   0.107E-01-0.586E-03
CGA:   6    -0.642572834551E+03   -0.21162E-02   -0.21152E-02  1824   0.355E-02-0.496E-04
CGA:   7    -0.642573652756E+03   -0.81821E-03   -0.81756E-03  1824   0.115E-02 0.641E-04
CGA:   8    -0.642573954697E+03   -0.30194E-03   -0.29950E-03  1824   0.379E-03 0.736E-04
CGA:   9    -0.642574066444E+03   -0.11175E-03   -0.11374E-03  1824   0.263E-03-0.346E-04
CGA:  10    -0.642574111736E+03   -0.45292E-04   -0.45537E-04  1824   0.873E-04 0.658E-05
CGA:  11    -0.642574134089E+03   -0.22353E-04   -0.22162E-04  1824   0.296E-04 0.836E-05
CGA:  12    -0.642574145043E+03   -0.10954E-04   -0.17155E-04  1824   0.590E-04-0.205E-04
CGA:  13    -0.642574152408E+03   -0.73644E-05   -0.76407E-05  1824   0.105E-04 0.248E-05
   9 F= -.64257415E+03 E0= -.64257312E+03  d E =-.159615E-01  mag=     0.0000
       N       E                     dE             d eps       ncg     rms          ort
SDA:   1    -0.642552421935E+03    0.21723E-01    0.00000E+00  1824   0.111E+00 0.000E+00
CGA:   2    -0.642567950089E+03   -0.15528E-01   -0.15541E-01  1824   0.314E-01-0.224E-04
CGA:   3    -0.642576336586E+03   -0.83865E-02   -0.83792E-02  1824   0.929E-02 0.179E-03
CGA:   4    -0.642578198870E+03   -0.18623E-02   -0.18624E-02  1824   0.308E-02-0.802E-05
CGA:   5    -0.642578831033E+03   -0.63216E-03   -0.62653E-03  1824   0.118E-02-0.190E-03
CGA:   6    -0.642579050029E+03   -0.21900E-03   -0.21809E-03  1824   0.369E-03-0.271E-04
CGA:   7    -0.642579127605E+03   -0.77577E-04   -0.78068E-04  1824   0.106E-03 0.365E-04
CGA:   8    -0.642579158353E+03   -0.30747E-04   -0.30449E-04  1824   0.338E-04 0.950E-05
CGA:   9    -0.642579171176E+03   -0.12823E-04   -0.14711E-04  1824   0.343E-04-0.112E-04
CGA:  10    -0.642579174308E+03   -0.31328E-05   -0.32684E-05  1824   0.146E-04 0.139E-05
  10 F= -.64257917E+03 E0= -.64257817E+03  d E =-.502190E-02  mag=     0.0000
       N       E                     dE             d eps       ncg     rms          ort
SDA:   1    -0.641743710373E+03    0.83546E+00    0.00000E+00  1824   0.380E+01 0.000E+00
CGA:   2    -0.642239127986E+03   -0.49542E+00   -0.49566E+00  1824   0.927E+00-0.518E-02
CGA:   3    -0.642517127612E+03   -0.27800E+00   -0.27770E+00  1824   0.265E+00 0.300E-02
CGA:   4    -0.642566752732E+03   -0.49625E-01   -0.49659E-01  1824   0.798E-01 0.455E-03
CGA:   5    -0.642583263772E+03   -0.16511E-01   -0.16509E-01  1824   0.276E-01-0.645E-04
CGA:   6    -0.642588564430E+03   -0.53007E-02   -0.52990E-02  1824   0.914E-02-0.599E-04
CGA:   7    -0.642590861185E+03   -0.22968E-02   -0.22989E-02  1824   0.325E-02-0.791E-04
CGA:   8    -0.642591630617E+03   -0.76943E-03   -0.76893E-03  1824   0.112E-02 0.382E-04
CGA:   9    -0.642591888471E+03   -0.25785E-03   -0.25785E-03  1824   0.552E-03 0.834E-05
CGA:  10    -0.642592021662E+03   -0.13319E-03   -0.13308E-03  1824   0.202E-03 0.885E-05
CGA:  11    -0.642592079916E+03   -0.58254E-04   -0.59016E-04  1824   0.119E-03-0.128E-04
CGA:  12    -0.642592106262E+03   -0.26346E-04   -0.26373E-04  1824   0.535E-04-0.460E-05
CGA:  13    -0.642592119974E+03   -0.13712E-04   -0.13933E-04  1824   0.203E-04-0.550E-05
CGA:  14    -0.642592123543E+03   -0.35696E-05   -0.36755E-05  1824   0.757E-05 0.338E-05
  11 F= -.64259212E+03 E0= -.64259114E+03  d E =-.129492E-01  mag=     0.0000
       N       E                     dE             d eps       ncg     rms          ort
SDA:   1    -0.641783065522E+03    0.80905E+00    0.00000E+00  1824   0.429E+01 0.000E+00
CGA:   2    -0.642297267026E+03   -0.51420E+00   -0.51446E+00  1824   0.761E+00-0.398E-02
CGA:   3    -0.642524966951E+03   -0.22770E+00   -0.22748E+00  1824   0.240E+00 0.148E-02
CGA:   4    -0.642572811612E+03   -0.47845E-01   -0.47842E-01  1824   0.609E-01-0.335E-03
CGA:   5    -0.642585576782E+03   -0.12765E-01   -0.12781E-01  1824   0.190E-01 0.852E-03
CGA:   6    -0.642589452451E+03   -0.38757E-02   -0.38771E-02  1824   0.750E-02 0.618E-04
CGA:   7    -0.642591081871E+03   -0.16294E-02   -0.16288E-02  1824   0.262E-02-0.731E-04
CGA:   8    -0.642591744581E+03   -0.66271E-03   -0.66359E-03  1824   0.878E-03-0.299E-04
CGA:   9    -0.642591966052E+03   -0.22147E-03   -0.22113E-03  1824   0.440E-03 0.117E-04
CGA:  10    -0.642592059093E+03   -0.93041E-04   -0.93332E-04  1824   0.167E-03 0.150E-04
CGA:  11    -0.642592101107E+03   -0.42015E-04   -0.41677E-04  1824   0.648E-04 0.241E-04
CGA:  12    -0.642592121932E+03   -0.20824E-04   -0.20260E-04  1824   0.286E-04 0.126E-04
CGA:  13    -0.642592129458E+03   -0.75266E-05   -0.75912E-05  1824   0.121E-04 0.815E-05
  12 F= -.64259213E+03 E0= -.64259109E+03  d E =-.591507E-05  mag=    -0.0000
       N       E                     dE             d eps       ncg     rms          ort
SDA:   1    -0.642449537822E+03    0.14258E+00    0.00000E+00  1824   0.796E+00 0.000E+00
CGA:   2    -0.642545170262E+03   -0.95632E-01   -0.95608E-01  1824   0.140E+00-0.156E-02
CGA:   3    -0.642586543949E+03   -0.41374E-01   -0.41262E-01  1824   0.433E-01 0.126E-02
CGA:   4    -0.642595378838E+03   -0.88349E-02   -0.88388E-02  1824   0.105E-01 0.120E-03
CGA:   5    -0.642597827269E+03   -0.24484E-02   -0.24513E-02  1824   0.329E-02-0.411E-03
CGA:   6    -0.642598521649E+03   -0.69438E-03   -0.69421E-03  1824   0.125E-02-0.271E-04
CGA:   7    -0.642598752717E+03   -0.23107E-03   -0.23270E-03  1824   0.426E-03 0.430E-04
CGA:   8    -0.642598854975E+03   -0.10226E-03   -0.10206E-03  1824   0.126E-03 0.251E-04
CGA:   9    -0.642598894391E+03   -0.39417E-04   -0.38736E-04  1824   0.517E-04 0.102E-04
CGA:  10    -0.642598911051E+03   -0.16659E-04   -0.17571E-04  1824   0.399E-04-0.105E-04
CGA:  11    -0.642598918440E+03   -0.73896E-05   -0.73932E-05  1824   0.186E-04-0.610E-05
  13 F= -.64259892E+03 E0= -.64259791E+03  d E =-.678898E-02  mag=     0.0000
       N       E                     dE             d eps       ncg     rms          ort
SDA:   1    -0.642582229573E+03    0.16681E-01    0.00000E+00  1824   0.880E-01 0.000E+00
CGA:   2    -0.642593149113E+03   -0.10920E-01   -0.10883E-01  1824   0.170E-01-0.477E-03
CGA:   3    -0.642598255854E+03   -0.51067E-02   -0.50665E-02  1824   0.545E-02 0.541E-03
CGA:   4    -0.642599280231E+03   -0.10244E-02   -0.10287E-02  1824   0.127E-02 0.813E-04
CGA:   5    -0.642599573282E+03   -0.29305E-03   -0.29268E-03  1824   0.587E-03-0.124E-03
CGA:   6    -0.642599678152E+03   -0.10487E-03   -0.10330E-03  1824   0.199E-03-0.457E-04
CGA:   7    -0.642599710862E+03   -0.32710E-04   -0.33748E-04  1824   0.451E-04 0.234E-04
CGA:   8    -0.642599722837E+03   -0.11975E-04   -0.11880E-04  1824   0.161E-04 0.935E-05
CGA:   9    -0.642599728961E+03   -0.61238E-05   -0.68012E-05  1824   0.218E-04-0.554E-05
  14 F= -.64259973E+03 E0= -.64259873E+03  d E =-.810521E-03  mag=     0.0000
       N       E                     dE             d eps       ncg     rms          ort
SDA:   1    -0.641714986198E+03    0.88474E+00    0.00000E+00  1824   0.435E+01 0.000E+00
CGA:   2    -0.642252664230E+03   -0.53768E+00   -0.53871E+00  1824   0.865E+00-0.607E-02
CGA:   3    -0.642522217719E+03   -0.26955E+00   -0.26906E+00  1824   0.332E+00 0.421E-02
CGA:   4    -0.642574869727E+03   -0.52652E-01   -0.52622E-01  1824   0.745E-01-0.259E-03
CGA:   5    -0.642589452544E+03   -0.14583E-01   -0.14580E-01  1824   0.265E-01-0.186E-03
CGA:   6    -0.642595158868E+03   -0.57063E-02   -0.57053E-02  1824   0.792E-02-0.126E-03
CGA:   7    -0.642597081410E+03   -0.19225E-02   -0.19219E-02  1824   0.288E-02 0.255E-04
CGA:   8    -0.642597731658E+03   -0.65025E-03   -0.65023E-03  1824   0.119E-02 0.104E-04
CGA:   9    -0.642597984579E+03   -0.25292E-03   -0.25303E-03  1824   0.477E-03 0.926E-05
CGA:  10    -0.642598117739E+03   -0.13316E-03   -0.13364E-03  1824   0.205E-03-0.881E-05
CGA:  11    -0.642598164708E+03   -0.46969E-04   -0.46999E-04  1824   0.105E-03-0.409E-05
CGA:  12    -0.642598192826E+03   -0.28118E-04   -0.28768E-04  1824   0.537E-04-0.126E-04
CGA:  13    -0.642598204672E+03   -0.11846E-04   -0.12002E-04  1824   0.256E-04-0.630E-05
CGA:  14    -0.642598209231E+03   -0.45590E-05   -0.45790E-05  1824   0.823E-05 0.702E-06
  15 F= -.64259821E+03 E0= -.64259726E+03  d E =0.151973E-02  mag=     0.0000
       N       E                     dE             d eps       ncg     rms          ort
SDA:   1    -0.638338173853E+03    0.42600E+01    0.00000E+00  1824   0.216E+02 0.000E+00
CGA:   2    -0.640967940769E+03   -0.26298E+01   -0.26344E+01  1824   0.404E+01-0.351E-02
CGA:   3    -0.642153876021E+03   -0.11859E+01   -0.11853E+01  1824   0.130E+01 0.547E-03
CGA:   4    -0.642409519839E+03   -0.25564E+00   -0.25557E+00  1824   0.340E+00-0.432E-02
CGA:   5    -0.642479399794E+03   -0.69880E-01   -0.69914E-01  1824   0.107E+00 0.192E-02
CGA:   6    -0.642500793103E+03   -0.21393E-01   -0.21409E-01  1824   0.398E-01 0.512E-03
CGA:   7    -0.642510014503E+03   -0.92214E-02   -0.92253E-02  1824   0.143E-01-0.459E-03
CGA:   8    -0.642513489764E+03   -0.34753E-02   -0.34744E-02  1824   0.496E-02 0.280E-04
CGA:   9    -0.642514678982E+03   -0.11892E-02   -0.11869E-02  1824   0.235E-02 0.149E-03
CGA:  10    -0.642515236153E+03   -0.55717E-03   -0.55668E-03  1824   0.913E-03 0.790E-04
CGA:  11    -0.642515467915E+03   -0.23176E-03   -0.22987E-03  1824   0.406E-03 0.100E-03
CGA:  12    -0.642515594163E+03   -0.12625E-03   -0.12517E-03  1824   0.208E-03 0.203E-04
CGA:  13    -0.642515639875E+03   -0.45713E-04   -0.46248E-04  1824   0.773E-04 0.320E-04
CGA:  14    -0.642515662230E+03   -0.22354E-04   -0.22004E-04  1824   0.256E-04 0.181E-04
CGA:  15    -0.642515671743E+03   -0.95135E-05   -0.92109E-05  1824   0.135E-04 0.478E-05
  16 F= -.64251567E+03 E0= -.64251466E+03  d E =0.825375E-01  mag=    -0.0000
       N       E                     dE             d eps       ncg     rms          ort
SDA:   1    -0.641602743997E+03    0.91292E+00    0.00000E+00  1824   0.528E+01 0.000E+00
CGA:   2    -0.642231743769E+03   -0.62900E+00   -0.62915E+00  1824   0.910E+00-0.103E-01
CGA:   3    -0.642499717026E+03   -0.26797E+00   -0.26735E+00  1824   0.296E+00 0.721E-02
CGA:   4    -0.642556442711E+03   -0.56726E-01   -0.56778E-01  1824   0.781E-01 0.110E-02
CGA:   5    -0.642572429733E+03   -0.15987E-01   -0.15974E-01  1824   0.256E-01-0.592E-03
CGA:   6    -0.642577527194E+03   -0.50975E-02   -0.50901E-02  1824   0.881E-02-0.285E-03
CGA:   7    -0.642579492927E+03   -0.19657E-02   -0.19655E-02  1824   0.272E-02 0.213E-03
CGA:   8    -0.642580216667E+03   -0.72374E-03   -0.72148E-03  1824   0.949E-03 0.649E-04
CGA:   9    -0.642580463258E+03   -0.24659E-03   -0.24564E-03  1824   0.489E-03 0.348E-04
CGA:  10    -0.642580578155E+03   -0.11490E-03   -0.11489E-03  1824   0.200E-03-0.440E-05
CGA:  11    -0.642580634876E+03   -0.56721E-04   -0.57733E-04  1824   0.110E-03-0.161E-04
CGA:  12    -0.642580660142E+03   -0.25266E-04   -0.25297E-04  1824   0.496E-04-0.162E-05
CGA:  13    -0.642580671769E+03   -0.11627E-04   -0.11625E-04  1824   0.188E-04 0.305E-06
CGA:  14    -0.642580676449E+03   -0.46797E-05   -0.46439E-05  1824   0.754E-05 0.257E-05
  17 F= -.64258068E+03 E0= -.64257968E+03  d E =-.650047E-01  mag=     0.0000
       N       E                     dE             d eps       ncg     rms          ort
SDA:   1    -0.642246830186E+03    0.33384E+00    0.00000E+00  1824   0.183E+01 0.000E+00
CGA:   2    -0.642468861021E+03   -0.22203E+00   -0.22197E+00  1824   0.330E+00-0.376E-02
CGA:   3    -0.642564587384E+03   -0.95726E-01   -0.95495E-01  1824   0.108E+00 0.284E-02
CGA:   4    -0.642585302128E+03   -0.20715E-01   -0.20728E-01  1824   0.294E-01 0.288E-03
CGA:   5    -0.642591172042E+03   -0.58699E-02   -0.58611E-02  1824   0.968E-02-0.354E-03
CGA:   6    -0.642593100542E+03   -0.19285E-02   -0.19243E-02  1824   0.330E-02-0.186E-03
CGA:   7    -0.642593833316E+03   -0.73277E-03   -0.73234E-03  1824   0.100E-02 0.111E-03
CGA:   8    -0.642594097842E+03   -0.26453E-03   -0.26336E-03  1824   0.365E-03 0.357E-04
CGA:   9    -0.642594189072E+03   -0.91231E-04   -0.90867E-04  1824   0.186E-03 0.220E-04
CGA:  10    -0.642594235274E+03   -0.46202E-04   -0.46203E-04  1824   0.782E-04-0.255E-06
CGA:  11    -0.642594258060E+03   -0.22786E-04   -0.23673E-04  1824   0.523E-04-0.115E-04
CGA:  12    -0.642594268926E+03   -0.10866E-04   -0.10957E-04  1824   0.246E-04-0.555E-05
CGA:  13    -0.642594274084E+03   -0.51581E-05   -0.51612E-05  1824   0.813E-05-0.550E-06
  18 F= -.64259427E+03 E0= -.64259330E+03  d E =-.135976E-01  mag=     0.0000
       N       E                     dE             d eps       ncg     rms          ort
SDA:   1    -0.642568723360E+03    0.25546E-01    0.00000E+00  1824   0.137E+00 0.000E+00
CGA:   2    -0.642585300629E+03   -0.16577E-01   -0.16561E-01  1824   0.238E-01-0.344E-03
CGA:   3    -0.642592520707E+03   -0.72201E-02   -0.71975E-02  1824   0.882E-02 0.260E-03
CGA:   4    -0.642594026655E+03   -0.15059E-02   -0.15079E-02  1824   0.206E-02 0.257E-04
CGA:   5    -0.642594433617E+03   -0.40696E-03   -0.40514E-03  1824   0.721E-03-0.566E-04
CGA:   6    -0.642594585720E+03   -0.15210E-03   -0.15168E-03  1824   0.238E-03-0.404E-04
CGA:   7    -0.642594631756E+03   -0.46037E-04   -0.46426E-04  1824   0.654E-04 0.195E-04
CGA:   8    -0.642594646851E+03   -0.15095E-04   -0.15228E-04  1824   0.214E-04 0.132E-04
CGA:   9    -0.642594653530E+03   -0.66792E-05   -0.65361E-05  1824   0.103E-04 0.478E-05
  19 F= -.64259465E+03 E0= -.64259369E+03  d E =-.379446E-03  mag=    -0.0000
       N       E                     dE             d eps       ncg     rms          ort
SDA:   1    -0.642462305101E+03    0.13234E+00    0.00000E+00  1824   0.666E+00 0.000E+00
CGA:   2    -0.642542978190E+03   -0.80673E-01   -0.80726E-01  1824   0.118E+00-0.704E-03
CGA:   3    -0.642580331973E+03   -0.37354E-01   -0.37316E-01  1824   0.442E-01 0.219E-03
CGA:   4    -0.642587623708E+03   -0.72917E-02   -0.72871E-02  1824   0.987E-02-0.921E-04
CGA:   5    -0.642589520309E+03   -0.18966E-02   -0.18951E-02  1824   0.354E-02-0.492E-04
CGA:   6    -0.642590267809E+03   -0.74750E-03   -0.74708E-03  1824   0.108E-02-0.401E-04
CGA:   7    -0.642590518226E+03   -0.25042E-03   -0.25010E-03  1824   0.360E-03 0.285E-04
CGA:   8    -0.642590605341E+03   -0.87115E-04   -0.86821E-04  1824   0.142E-03 0.236E-04
CGA:   9    -0.642590638522E+03   -0.33181E-04   -0.33222E-04  1824   0.669E-04 0.109E-04
CGA:  10    -0.642590657916E+03   -0.19394E-04   -0.19278E-04  1824   0.293E-04 0.256E-05
CGA:  11    -0.642590665163E+03   -0.72473E-05   -0.72199E-05  1824   0.140E-04 0.224E-05
  20 F= -.64259067E+03 E0= -.64258971E+03  d E =0.398837E-02  mag=    -0.0000
       N       E                     dE             d eps       ncg     rms          ort
SDA:   1    -0.642502200162E+03    0.88458E-01    0.00000E+00  1824   0.396E+00 0.000E+00
CGA:   2    -0.642551564832E+03   -0.49365E-01   -0.49401E-01  1824   0.810E-01-0.406E-03
CGA:   3    -0.642577259451E+03   -0.25695E-01   -0.25662E-01  1824   0.256E-01 0.247E-03
CGA:   4    -0.642581812296E+03   -0.45528E-02   -0.45520E-02  1824   0.639E-02-0.440E-04
CGA:   5    -0.642583117034E+03   -0.13047E-02   -0.13044E-02  1824   0.244E-02-0.187E-04
CGA:   6    -0.642583579850E+03   -0.46282E-03   -0.46213E-03  1824   0.786E-03-0.207E-04
CGA:   7    -0.642583766497E+03   -0.18665E-03   -0.18645E-03  1824   0.267E-03 0.106E-04
CGA:   8    -0.642583832763E+03   -0.66266E-04   -0.66025E-04  1824   0.904E-04 0.111E-04
CGA:   9    -0.642583854245E+03   -0.21482E-04   -0.21465E-04  1824   0.486E-04 0.376E-05
CGA:  10    -0.642583866889E+03   -0.12644E-04   -0.12671E-04  1824   0.205E-04-0.104E-05
CGA:  11    -0.642583871072E+03   -0.41825E-05   -0.42214E-05  1824   0.791E-05 0.276E-05
  21 F= -.64258387E+03 E0= -.64258292E+03  d E =0.679409E-02  mag=    -0.0000
       N       E                     dE             d eps       ncg     rms          ort
SDA:   1    -0.640802337275E+03    0.17815E+01    0.00000E+00  1824   0.826E+01 0.000E+00
CGA:   2    -0.641841001429E+03   -0.10387E+01   -0.10411E+01  1824   0.178E+01-0.532E-02
CGA:   3    -0.642400079809E+03   -0.55908E+00   -0.55862E+00  1824   0.571E+00 0.285E-02
CGA:   4    -0.642500558854E+03   -0.10048E+00   -0.10046E+00  1824   0.149E+00-0.109E-02
CGA:   5    -0.642530426077E+03   -0.29867E-01   -0.29874E-01  1824   0.553E-01 0.126E-03
CGA:   6    -0.642541054820E+03   -0.10629E-01   -0.10630E-01  1824   0.173E-01 0.834E-04
CGA:   7    -0.642545388098E+03   -0.43333E-02   -0.43322E-02  1824   0.621E-02 0.268E-04
CGA:   8    -0.642546869931E+03   -0.14818E-02   -0.14808E-02  1824   0.224E-02 0.632E-04
CGA:   9    -0.642547355849E+03   -0.48592E-03   -0.48607E-03  1824   0.107E-02 0.173E-04
CGA:  10    -0.642547627626E+03   -0.27178E-03   -0.27158E-03  1824   0.401E-03 0.698E-05
CGA:  11    -0.642547719515E+03   -0.91889E-04   -0.91791E-04  1824   0.179E-03 0.324E-04
CGA:  12    -0.642547772029E+03   -0.52514E-04   -0.52569E-04  1824   0.858E-04-0.128E-05
CGA:  13    -0.642547793610E+03   -0.21581E-04   -0.21667E-04  1824   0.401E-04-0.321E-05
CGA:  14    -0.642547800823E+03   -0.72131E-05   -0.74023E-05  1824   0.129E-04 0.519E-05
  22 F= -.64254780E+03 E0= -.64254686E+03  d E =0.360702E-01  mag=    -0.0000
       N       E                     dE             d eps       ncg     rms          ort
SDA:   1    -0.641588815996E+03    0.95898E+00    0.00000E+00  1824   0.473E+01 0.000E+00
CGA:   2    -0.642166871533E+03   -0.57806E+00   -0.57828E+00  1824   0.938E+00-0.524E-02
CGA:   3    -0.642457646442E+03   -0.29077E+00   -0.29035E+00  1824   0.289E+00 0.328E-02
CGA:   4    -0.642511650203E+03   -0.54004E-01   -0.54007E-01  1824   0.793E-01-0.158E-03
CGA:   5    -0.642528069476E+03   -0.16419E-01   -0.16423E-01  1824   0.273E-01 0.236E-03
CGA:   6    -0.642533318652E+03   -0.52492E-02   -0.52487E-02  1824   0.925E-02-0.299E-04
CGA:   7    -0.642535580705E+03   -0.22621E-02   -0.22638E-02  1824   0.340E-02-0.752E-04
CGA:   8    -0.642536400811E+03   -0.82011E-03   -0.82010E-03  1824   0.116E-02-0.253E-05
CGA:   9    -0.642536664715E+03   -0.26390E-03   -0.26381E-03  1824   0.579E-03 0.215E-04
CGA:  10    -0.642536805819E+03   -0.14110E-03   -0.14102E-03  1824   0.211E-03 0.505E-05
CGA:  11    -0.642536861450E+03   -0.55631E-04   -0.55326E-04  1824   0.106E-03 0.836E-05
CGA:  12    -0.642536891376E+03   -0.29925E-04   -0.30566E-04  1824   0.636E-04-0.123E-04
CGA:  13    -0.642536902732E+03   -0.11357E-04   -0.11394E-04  1824   0.199E-04 0.148E-05
CGA:  14    -0.642536907666E+03   -0.49339E-05   -0.48852E-05  1824   0.588E-05 0.389E-05
  23 F= -.64253691E+03 E0= -.64253598E+03  d E =0.108932E-01  mag=     0.0000
       N       E                     dE             d eps       ncg     rms          ort
SDA:   1    -0.641739731941E+03    0.79717E+00    0.00000E+00  1824   0.385E+01 0.000E+00
CGA:   2    -0.642227064194E+03   -0.48733E+00   -0.48789E+00  1824   0.864E+00-0.346E-02
CGA:   3    -0.642492210083E+03   -0.26515E+00   -0.26494E+00  1824   0.252E+00 0.152E-02
CGA:   4    -0.642541051847E+03   -0.48842E-01   -0.48840E-01  1824   0.678E-01-0.389E-03
CGA:   5    -0.642555678863E+03   -0.14627E-01   -0.14627E-01  1824   0.227E-01-0.807E-05
CGA:   6    -0.642560039933E+03   -0.43611E-02   -0.43579E-02  1824   0.881E-02-0.829E-04
CGA:   7    -0.642561987091E+03   -0.19472E-02   -0.19474E-02  1824   0.303E-02 0.744E-04
CGA:   8    -0.642562722968E+03   -0.73588E-03   -0.73501E-03  1824   0.944E-03 0.541E-04
CGA:   9    -0.642562961204E+03   -0.23824E-03   -0.23767E-03  1824   0.489E-03 0.254E-04
CGA:  10    -0.642563080102E+03   -0.11890E-03   -0.11895E-03  1824   0.197E-03-0.499E-05
CGA:  11    -0.642563128871E+03   -0.48769E-04   -0.48790E-04  1824   0.100E-03-0.956E-06
CGA:  12    -0.642563152175E+03   -0.23304E-04   -0.23299E-04  1824   0.416E-04 0.970E-06
CGA:  13    -0.642563161225E+03   -0.90492E-05   -0.91193E-05  1824   0.120E-04 0.614E-05
  24 F= -.64256316E+03 E0= -.64256221E+03  d E =-.262536E-01  mag=    -0.0000
       N       E                     dE             d eps       ncg     rms          ort
SDA:   1    -0.642435319579E+03    0.12783E+00    0.00000E+00  1824   0.701E+00 0.000E+00
CGA:   2    -0.642516539430E+03   -0.81220E-01   -0.81332E-01  1824   0.112E+00-0.253E-03
CGA:   3    -0.642551757435E+03   -0.35218E-01   -0.35207E-01  1824   0.407E-01-0.902E-04
CGA:   4    -0.642558854095E+03   -0.70967E-02   -0.70882E-02  1824   0.963E-02-0.193E-03
CGA:   5    -0.642560808164E+03   -0.19541E-02   -0.19494E-02  1824   0.342E-02-0.203E-03
CGA:   6    -0.642561472190E+03   -0.66403E-03   -0.66395E-03  1824   0.106E-02-0.342E-05
CGA:   7    -0.642561717794E+03   -0.24560E-03   -0.24533E-03  1824   0.343E-03 0.316E-04
CGA:   8    -0.642561804977E+03   -0.87183E-04   -0.86650E-04  1824   0.121E-03 0.254E-04
CGA:   9    -0.642561840077E+03   -0.35100E-04   -0.35378E-04  1824   0.808E-04-0.606E-05
CGA:  10    -0.642561855618E+03   -0.15541E-04   -0.15638E-04  1824   0.274E-04 0.399E-05
CGA:  11    -0.642561863154E+03   -0.75361E-05   -0.74539E-05  1824   0.108E-04 0.249E-05
  25 F= -.64256186E+03 E0= -.64256094E+03  d E =0.129807E-02  mag=    -0.0000
       N       E                     dE             d eps       ncg     rms          ort
SDA:   1    -0.642518434406E+03    0.43421E-01    0.00000E+00  1824   0.203E+00 0.000E+00
CGA:   2    -0.642544227159E+03   -0.25793E-01   -0.25769E-01  1824   0.436E-01-0.513E-03
CGA:   3    -0.642557149153E+03   -0.12922E-01   -0.12892E-01  1824   0.135E-01 0.381E-03
CGA:   4    -0.642559639245E+03   -0.24901E-02   -0.24938E-02  1824   0.395E-02 0.638E-04
CGA:   5    -0.642560403321E+03   -0.76408E-03   -0.76893E-03  1824   0.125E-02 0.131E-03
CGA:   6    -0.642560664397E+03   -0.26108E-03   -0.26125E-03  1824   0.420E-03 0.625E-05
CGA:   7    -0.642560777573E+03   -0.11318E-03   -0.11437E-03  1824   0.173E-03-0.274E-04
CGA:   8    -0.642560814158E+03   -0.36584E-04   -0.36562E-04  1824   0.658E-04-0.551E-05
CGA:   9    -0.642560825875E+03   -0.11717E-04   -0.11974E-04  1824   0.222E-04 0.614E-05
CGA:  10    -0.642560833365E+03   -0.74905E-05   -0.75701E-05  1824   0.951E-05-0.951E-06
  26 F= -.64256083E+03 E0= -.64255990E+03  d E =0.102979E-02  mag=     0.0000
