       N       E                     dE             d eps       ncg     rms          ort
DAV:   1     0.828779748946E+04    0.82878E+04   -0.24677E+05  8424   0.238E+03
DAV:   2     0.918631207155E+03   -0.73692E+04   -0.69193E+04  8424   0.659E+02
DAV:   3    -0.677753910193E+03   -0.15964E+04   -0.14055E+04  8424   0.283E+02
DAV:   4    -0.833805624058E+03   -0.15605E+03   -0.15335E+03  8424   0.857E+01
DAV:   5    -0.836320535046E+03   -0.25149E+01   -0.25036E+01  8424   0.122E+01
SDA:   6    -0.245292789983E+03    0.59103E+03   -0.25036E+01  8424   0.779E+04 0.000E+00
CGA:   7    -0.188941011142E+03    0.56352E+02   -0.47588E+03  8424   0.269E+05-0.389E+04
CGA:   8    -0.112806630992E+03    0.76134E+02   -0.60409E+03  8424   0.934E+04-0.204E+04
CGA:   9    -0.291703046497E+03   -0.17890E+03   -0.33743E+03  8424   0.188E+04 0.257E+03
CGA:  10    -0.397557568385E+03   -0.10585E+03   -0.69679E+02  8424   0.172E+04-0.625E+02
CGA:  11    -0.460028640075E+03   -0.62471E+02   -0.75945E+02  8424   0.135E+04 0.303E+03
CGA:  12    -0.503316593963E+03   -0.43288E+02   -0.66669E+02  8424   0.951E+03-0.568E+01
CGA:  13    -0.546467204375E+03   -0.43151E+02   -0.25653E+02  8424   0.284E+04-0.293E+04
CGA:  14    -0.490559128172E+03    0.55908E+02   -0.15883E+03  8424   0.166E+04-0.522E+03
CGA:  15    -0.567051078956E+03   -0.76492E+02   -0.45980E+02  8424   0.278E+04-0.408E+04
CGA:  16    -0.493764312186E+03    0.73287E+02   -0.11770E+03  8424   0.211E+04-0.106E+04
CGA:  17    -0.560586510668E+03   -0.66822E+02   -0.41311E+02  8424   0.732E+03-0.729E+03
CGA:  18    -0.591026472410E+03   -0.30440E+02   -0.92751E+01  8424   0.645E+04-0.760E+04
CGA:  19    -0.549554578908E+03    0.41472E+02   -0.32716E+03  8424   0.672E+03-0.371E+03
CGA:  20    -0.607085040148E+03   -0.57530E+02   -0.15538E+02  8424   0.400E+04 0.678E+04
CGA:  21    -0.543776134960E+03    0.63309E+02   -0.18990E+03  8424   0.152E+04-0.472E+03
CGA:  22    -0.625081140747E+03   -0.81305E+02   -0.34414E+02  8424   0.118E+04-0.347E+04
CGA:  23    -0.606586219161E+03    0.18495E+02   -0.39611E+02  8424   0.249E+04-0.131E+04
CGA:  24    -0.555350767632E+03    0.51235E+02   -0.10527E+03  8424   0.177E+04-0.921E+03
CGA:  25    -0.591222224623E+03   -0.35871E+02   -0.28411E+02  8424   0.639E+04-0.560E+04
CGA:  26    -0.551062087041E+03    0.40160E+02   -0.24434E+03  8424   0.123E+04-0.803E+03
CGA:  27    -0.647540337798E+03   -0.96478E+02   -0.22826E+02  8424   0.131E+03-0.165E+03
CGA:  28    -0.648934117880E+03   -0.13938E+01   -0.16960E+01  8424   0.850E+02-0.201E+02
CGA:  29    -0.649780384296E+03   -0.84627E+00   -0.43982E+00  8424   0.728E+02 0.725E+02
CGA:  30    -0.650814376055E+03   -0.10340E+01   -0.57570E+00  8424   0.345E+02 0.523E+02
CGA:  31    -0.651477918694E+03   -0.66354E+00   -0.47179E+00  8424   0.202E+02 0.882E+01
CGA:  32    -0.654648125981E+03   -0.31702E+01   -0.29024E+01  8424   0.187E+03 0.525E+01
CGA:  33    -0.658606277287E+03   -0.39582E+01   -0.56237E+01  8424   0.744E+02-0.104E+03
CGA:  34    -0.660698190761E+03   -0.20919E+01   -0.27279E+01  8424   0.290E+02-0.403E+01
CGA:  35    -0.662442599929E+03   -0.17444E+01   -0.17719E+01  8424   0.180E+02 0.107E+01
CGA:  36    -0.663311006225E+03   -0.86841E+00   -0.92229E+00  8424   0.128E+02-0.918E-03
CGA:  37    -0.665048702305E+03   -0.17377E+01   -0.16116E+01  8424   0.155E+02 0.204E+01
CGA:  38    -0.666711272014E+03   -0.16626E+01   -0.15738E+01  8424   0.618E+01 0.422E+01
CGA:  39    -0.667605652568E+03   -0.89438E+00   -0.85675E+00  8424   0.643E+01 0.827E+00
CGA:  40    -0.668352990682E+03   -0.74734E+00   -0.73327E+00  8424   0.362E+01 0.423E+00
CGA:  41    -0.669145447693E+03   -0.79246E+00   -0.76093E+00  8424   0.114E+01 0.299E+00
CGA:  42    -0.669330971006E+03   -0.18552E+00   -0.17865E+00  8424   0.135E+01 0.985E-01
CGA:  43    -0.669571796354E+03   -0.24083E+00   -0.24228E+00  8424   0.153E+01-0.268E-01
CGA:  44    -0.669949648610E+03   -0.37785E+00   -0.37550E+00  8424   0.150E+01-0.246E-01
CGA:  45    -0.670195243768E+03   -0.24560E+00   -0.23199E+00  8424   0.117E+01 0.148E+00
CGA:  46    -0.670427479209E+03   -0.23224E+00   -0.22621E+00  8424   0.950E+00 0.517E-01
CGA:  47    -0.670600590514E+03   -0.17311E+00   -0.16775E+00  8424   0.548E+00 0.673E-01
CGA:  48    -0.670715740249E+03   -0.11515E+00   -0.11309E+00  8424   0.356E+00 0.217E-01
CGA:  49    -0.670811053989E+03   -0.95314E-01   -0.94055E-01  8424   0.279E+00 0.938E-02
CGA:  50    -0.670877628270E+03   -0.66574E-01   -0.64951E-01  8424   0.177E+00 0.151E-01
CGA:  51    -0.670922025387E+03   -0.44397E-01   -0.42661E-01  8424   0.104E+00 0.166E-01
CGA:  52    -0.670947172976E+03   -0.25148E-01   -0.24137E-01  8424   0.634E-01 0.122E-01
CGA:  53    -0.670964377549E+03   -0.17205E-01   -0.16231E-01  8424   0.407E-01 0.102E-01
CGA:  54    -0.670975719406E+03   -0.11342E-01   -0.10581E-01  8424   0.288E-01 0.891E-02
CGA:  55    -0.670985116318E+03   -0.93969E-02   -0.84966E-02  8424   0.228E-01 0.907E-02
CGA:  56    -0.670993534930E+03   -0.84186E-02   -0.75985E-02  8424   0.199E-01 0.773E-02
CGA:  57    -0.671001438646E+03   -0.79037E-02   -0.71156E-02  8424   0.165E-01 0.681E-02
CGA:  58    -0.671007526317E+03   -0.60877E-02   -0.55688E-02  8424   0.152E-01 0.554E-02
CGA:  59    -0.671015508201E+03   -0.79819E-02   -0.69987E-02  8424   0.206E-01 0.518E-02
CGA:  60    -0.671025646311E+03   -0.10138E-01   -0.95416E-02  8424   0.293E-01 0.280E-02
CGA:  61    -0.671039414069E+03   -0.13768E-01   -0.13629E-01  8424   0.535E-01-0.784E-03
CGA:  62    -0.671052355183E+03   -0.12941E-01   -0.13016E-01  8424   0.653E-01-0.415E-02
CGA:  63    -0.671066903921E+03   -0.14549E-01   -0.15093E-01  8424   0.855E-01-0.132E-01
SDA:  64    -0.671080357136E+03   -0.13453E-01   -0.13415E-01  8424   0.872E-01-0.221E-01
CGA:  65    -0.671112447387E+03   -0.32090E-01   -0.30473E-01  8424   0.816E-01 0.105E-01
CGA:  66    -0.671145260713E+03   -0.32813E-01   -0.30673E-01  8424   0.326E-01 0.160E-01
CGA:  67    -0.671158764552E+03   -0.13504E-01   -0.12504E-01  8424   0.194E-01 0.913E-02
CGA:  68    -0.671167984548E+03   -0.92200E-02   -0.87407E-02  8424   0.191E-01 0.327E-02
CGA:  69    -0.671175959788E+03   -0.79752E-02   -0.75231E-02  8424   0.124E-01 0.370E-02
CGA:  70    -0.671185523474E+03   -0.95637E-02   -0.93795E-02  8424   0.164E-01-0.999E-04
CGA:  71    -0.671194380613E+03   -0.88571E-02   -0.10174E-01  8424   0.266E-01-0.465E-02
CGA:  72    -0.671200664999E+03   -0.62844E-02   -0.77353E-02  8424   0.310E-01-0.122E-01
CGA:  73    -0.671205372090E+03   -0.47071E-02   -0.48981E-02  8424   0.223E-01-0.122E-01
CGA:  74    -0.671202440416E+03    0.29317E-02   -0.11117E-01  8424   0.760E-01-0.272E-01
CGA:  75    -0.671218284975E+03   -0.15845E-01   -0.16231E-01  8424   0.282E-01 0.416E-02
CGA:  76    -0.671228645962E+03   -0.10361E-01   -0.10075E-01  8424   0.204E-01 0.725E-02
CGA:  77    -0.671239280458E+03   -0.10634E-01   -0.99568E-02  8424   0.204E-01 0.750E-02
CGA:  78    -0.671248313344E+03   -0.90329E-02   -0.89124E-02  8424   0.846E-02 0.854E-02
CGA:  79    -0.671253031226E+03   -0.47179E-02   -0.44533E-02  8424   0.398E-02 0.393E-02
CGA:  80    -0.671255599157E+03   -0.25679E-02   -0.23844E-02  8424   0.316E-02 0.176E-02
CGA:  81    -0.671257643417E+03   -0.20443E-02   -0.18597E-02  8424   0.232E-02 0.191E-02
CGA:  82    -0.671258580926E+03   -0.93751E-03   -0.10121E-02  8424   0.371E-02-0.648E-03
CGA:  83    -0.671259762588E+03   -0.11817E-02   -0.11738E-02  8424   0.512E-02 0.449E-04
CGA:  84    -0.671262249892E+03   -0.24873E-02   -0.25637E-02  8424   0.884E-02-0.534E-03
CGA:  85    -0.671266903340E+03   -0.46534E-02   -0.61391E-02  8424   0.244E-01-0.383E-02
CGA:  86    -0.671271830447E+03   -0.49271E-02   -0.49000E-02  8424   0.268E-01-0.559E-02
CGA:  87    -0.671277576677E+03   -0.57462E-02   -0.51909E-02  8424   0.170E-01-0.568E-02
CGA:  88    -0.671282890717E+03   -0.53140E-02   -0.55034E-02  8424   0.208E-01-0.485E-02
CGA:  89    -0.671288295666E+03   -0.54049E-02   -0.54403E-02  8424   0.337E-01-0.522E-02
CGA:  90    -0.671298218529E+03   -0.99229E-02   -0.14486E-01  8424   0.567E-01-0.236E-01
CGA:  91    -0.671313513682E+03   -0.15295E-01   -0.15504E-01  8424   0.213E-01 0.219E-02
CGA:  92    -0.671323490495E+03   -0.99768E-02   -0.97968E-02  8424   0.127E-01 0.222E-02
CGA:  93    -0.671329408047E+03   -0.59176E-02   -0.57626E-02  8424   0.739E-02 0.348E-02
CGA:  94    -0.671335015162E+03   -0.56071E-02   -0.50669E-02  8424   0.582E-02 0.305E-02
CGA:  95    -0.671338266850E+03   -0.32517E-02   -0.32220E-02  8424   0.520E-02 0.206E-02
CGA:  96    -0.671341019216E+03   -0.27524E-02   -0.27381E-02  8424   0.613E-02 0.127E-02
CGA:  97    -0.671343675816E+03   -0.26566E-02   -0.26970E-02  8424   0.360E-02 0.120E-02
CGA:  98    -0.671345993923E+03   -0.23181E-02   -0.24958E-02  8424   0.607E-02-0.110E-02
CGA:  99    -0.671347483045E+03   -0.14891E-02   -0.14634E-02  8424   0.421E-02-0.982E-03
CGA: 100    -0.671348802442E+03   -0.13194E-02   -0.13086E-02  8424   0.506E-02-0.868E-03
CGA: 101    -0.671350395698E+03   -0.15933E-02   -0.16425E-02  8424   0.510E-02-0.227E-02
CGA: 102    -0.671351528223E+03   -0.11325E-02   -0.12138E-02  8424   0.813E-02-0.198E-02
CGA: 103    -0.671353057999E+03   -0.15298E-02   -0.13690E-02  8424   0.573E-02-0.167E-02
CGA: 104    -0.671354463061E+03   -0.14051E-02   -0.13565E-02  8424   0.604E-02-0.726E-03
CGA: 105    -0.671355866022E+03   -0.14030E-02   -0.13962E-02  8424   0.411E-02-0.225E-03
CGA: 106    -0.671356756332E+03   -0.89031E-03   -0.95950E-03  8424   0.326E-02 0.404E-03
CGA: 107    -0.671357431699E+03   -0.67537E-03   -0.84817E-03  8424   0.302E-02 0.122E-02
CGA: 108    -0.671358062813E+03   -0.63111E-03   -0.91761E-03  8424   0.232E-02 0.193E-02
CGA: 109    -0.671358727991E+03   -0.66518E-03   -0.70124E-03  8424   0.127E-02 0.693E-03
CGA: 110    -0.671359143387E+03   -0.41540E-03   -0.47659E-03  8424   0.100E-02 0.983E-03
CGA: 111    -0.671359311396E+03   -0.16801E-03   -0.23184E-03  8424   0.734E-03 0.545E-03
CGA: 112    -0.671359525042E+03   -0.21365E-03   -0.22573E-03  8424   0.958E-03 0.347E-03
CGA: 113    -0.671359852067E+03   -0.32703E-03   -0.39488E-03  8424   0.435E-03 0.111E-02
CGA: 114    -0.671359942253E+03   -0.90186E-04   -0.11631E-03  8424   0.393E-03 0.372E-03
CGA: 115    -0.671360095634E+03   -0.15338E-03   -0.14375E-03  8424   0.456E-03 0.296E-03
CGA: 116    -0.671360121898E+03   -0.26263E-04   -0.71271E-04  8424   0.349E-03 0.250E-03
CGA: 117    -0.671360236990E+03   -0.11509E-03   -0.11461E-03  8424   0.493E-03 0.204E-03
CGA: 118    -0.671360261148E+03   -0.24157E-04   -0.63657E-04  8424   0.292E-03 0.200E-03
CGA: 119    -0.671360325853E+03   -0.64705E-04   -0.95178E-04  8424   0.430E-03 0.354E-03
CGA: 120    -0.671360411990E+03   -0.86138E-04   -0.86965E-04  8424   0.487E-03 0.597E-05
CGA: 121    -0.671360552806E+03   -0.14082E-03   -0.14595E-03  8424   0.386E-03 0.444E-03
CGA: 122    -0.671360565454E+03   -0.12647E-04   -0.41521E-04  8424   0.183E-03 0.145E-03
CGA: 123    -0.671360588591E+03   -0.23137E-04   -0.46370E-04  8424   0.288E-03 0.205E-03
CGA: 124    -0.671360654182E+03   -0.65591E-04   -0.63778E-04  8424   0.433E-03-0.272E-04
CGA: 125    -0.671360773556E+03   -0.11937E-03   -0.11618E-03  8424   0.407E-03 0.349E-03
CGA: 126    -0.671360784282E+03   -0.10726E-04   -0.35819E-04  8424   0.122E-03 0.126E-03
CGA: 127    -0.671360788782E+03   -0.44997E-05   -0.21272E-04  8424   0.175E-03 0.115E-03
CGA: 128    -0.671360842820E+03   -0.54039E-04   -0.56668E-04  8424   0.554E-03-0.510E-04
CGA: 129    -0.671360952290E+03   -0.10947E-03   -0.10852E-03  8424   0.105E-02 0.290E-03
CGA: 130    -0.671360999317E+03   -0.47027E-04   -0.82072E-04  8424   0.902E-04 0.181E-03
CGA: 131    -0.671360998477E+03    0.83996E-06   -0.10215E-04  8424   0.867E-04 0.660E-04
CGA: 132    -0.671361053995E+03   -0.55518E-04   -0.90667E-04  8424   0.135E-02-0.465E-04
CGA: 133    -0.671361127095E+03   -0.73100E-04   -0.10663E-03  8424   0.688E-04 0.160E-03
CGA: 134    -0.671361129049E+03   -0.19536E-05   -0.94134E-05  8424   0.735E-04 0.459E-04
CGA: 135    -0.671360924555E+03    0.20449E-03   -0.11386E-03  8424   0.571E-02-0.233E-03
CGA: 136    -0.671361321568E+03   -0.39701E-03   -0.47004E-03  8424   0.524E-04 0.243E-03
CGA: 137    -0.671361324746E+03   -0.31781E-05   -0.10579E-04  8424   0.673E-04 0.254E-04
CGA: 138    -0.671361430242E+03   -0.10550E-03    0.18263E-03  8424   0.579E-04 0.889E-04
CGA: 139    -0.671361503666E+03   -0.73424E-04    0.38128E-04  8424   0.286E-03-0.338E-04
CGA: 140    -0.671361503068E+03    0.59867E-06   -0.25260E-04  8424   0.407E-04 0.681E-04
   1 F= -.67136150E+03 E0= -.67136150E+03  d E =-.671362E+03  mag=    15.0000
       N       E                     dE             d eps       ncg     rms          ort
SDA:   1    -0.671375653763E+03   -0.14150E-01    0.00000E+00  8424   0.251E-01 0.000E+00
CGA:   2    -0.671382429223E+03   -0.67755E-02   -0.68282E-02  8424   0.105E-01 0.334E-03
CGA:   3    -0.671384272573E+03   -0.18433E-02   -0.18121E-02  8424   0.332E-02-0.155E-03
CGA:   4    -0.671384808339E+03   -0.53577E-03   -0.57534E-03  8424   0.615E-03 0.166E-03
CGA:   5    -0.671384967937E+03   -0.15960E-03   -0.14660E-03  8424   0.241E-03-0.754E-04
CGA:   6    -0.671385047227E+03   -0.79290E-04   -0.73547E-04  8424   0.347E-03-0.129E-03
CGA:   7    -0.671385080541E+03   -0.33314E-04   -0.43227E-04  8424   0.738E-04 0.371E-04
CGA:   8    -0.671385115056E+03   -0.34515E-04   -0.34422E-04  8424   0.890E-04 0.138E-05
CGA:   9    -0.671385203060E+03   -0.88004E-04    0.61616E-04  8424   0.135E-03 0.279E-04
CGA:  10    -0.671385416782E+03   -0.21372E-03    0.56852E-04  8424   0.131E-03 0.976E-04
CGA:  11    -0.671385344725E+03    0.72057E-04   -0.13941E-03  8424   0.156E-02-0.309E-03
CGA:  12    -0.671385625541E+03   -0.28082E-03   -0.27621E-03  8424   0.147E-03-0.187E-04
CGA:  13    -0.671385677256E+03   -0.51714E-04   -0.42772E-04  8424   0.223E-03-0.833E-04
CGA:  14    -0.671385693407E+03   -0.16151E-04   -0.23919E-04  8424   0.356E-04 0.272E-04
CGA:  15    -0.671385747134E+03   -0.53728E-04    0.10035E-04  8424   0.626E-04 0.167E-04
CGA:  16    -0.671385907977E+03   -0.16084E-03    0.13649E-04  8424   0.126E-03 0.385E-04
CGA:  17    -0.671385926032E+03   -0.18055E-04   -0.20425E-04  8424   0.534E-04 0.108E-04
CGA:  18    -0.671386005869E+03   -0.79837E-04    0.12565E-04  8424   0.550E-04 0.988E-05
CGA:  19    -0.671386134719E+03   -0.12885E-03    0.72727E-05  8424   0.610E-04 0.550E-04
CGA:  20    -0.671385633467E+03    0.50125E-03   -0.26978E-03  8424   0.493E-02-0.321E-03
CGA:  21    -0.671386348295E+03   -0.71483E-03   -0.61920E-03  8424   0.760E-03-0.247E-03
CGA:  22    -0.671386528554E+03   -0.18026E-03   -0.18264E-03  8424   0.601E-04 0.636E-05
CGA:  23    -0.671386622147E+03   -0.93593E-04    0.84112E-04  8424   0.419E-03-0.739E-04
CGA:  24    -0.671386653391E+03   -0.31245E-04   -0.45561E-04  8424   0.441E-04 0.291E-04
CGA:  25    -0.671386733247E+03   -0.79855E-04    0.35383E-04  8424   0.138E-03-0.200E-04
CGA:  26    -0.671387015003E+03   -0.28176E-03    0.10899E-04  8424   0.558E-03-0.769E-04
CGA:  27    -0.671387144770E+03   -0.12977E-03   -0.12840E-03  8424   0.187E-03-0.362E-05
CGA:  28    -0.671387248785E+03   -0.10402E-03   -0.69463E-04  8424   0.382E-03-0.165E-03
CGA:  29    -0.671387275971E+03   -0.27186E-04   -0.42302E-04  8424   0.433E-04 0.341E-04
CGA:  30    -0.671387356728E+03   -0.80757E-04    0.23346E-04  8424   0.898E-04-0.997E-05
CGA:  31    -0.671387601703E+03   -0.24498E-03    0.85697E-05  8424   0.366E-03-0.377E-04
CGA:  32    -0.671388589940E+03   -0.98824E-03    0.18097E-04  8424   0.115E-02-0.127E-03
CGA:  33    -0.671391839616E+03   -0.32497E-02    0.70396E-04  8424   0.633E-02-0.145E-02
CGA:  34    -0.671393052390E+03   -0.12128E-02   -0.10997E-02  8424   0.224E-02-0.382E-03
CGA:  35    -0.671393559274E+03   -0.50688E-03   -0.51846E-03  8424   0.209E-03 0.438E-04
CGA:  36    -0.671393654908E+03   -0.95634E-04   -0.81688E-04  8424   0.956E-04-0.105E-03
CGA:  37    -0.671393692258E+03   -0.37350E-04   -0.30337E-04  8424   0.430E-04-0.363E-04
CGA:  38    -0.671393806783E+03   -0.11453E-03    0.20331E-05  8424   0.349E-04 0.510E-05
CGA:  39    -0.671393906604E+03   -0.99821E-04    0.63260E-05  8424   0.921E-04-0.140E-04
CGA:  40    -0.671394289750E+03   -0.38315E-03    0.23388E-05  8424   0.221E-03-0.489E-05
CGA:  41    -0.671395409098E+03   -0.11193E-02    0.12049E-04  8424   0.526E-03-0.191E-04
CGA:  42    -0.671397990167E+03   -0.25811E-02    0.27594E-04  8424   0.124E-02-0.460E-03
CGA:  43    -0.671398215157E+03   -0.22499E-03   -0.21413E-03  8424   0.158E-03-0.341E-04
CGA:  44    -0.671398231049E+03   -0.15891E-04   -0.24060E-04  8424   0.328E-04 0.251E-04
CGA:  45    -0.671398288980E+03   -0.57931E-04    0.14263E-04  8424   0.532E-04-0.242E-05
CGA:  46    -0.671398400291E+03   -0.11131E-03    0.81968E-05  8424   0.993E-04-0.488E-04
CGA:  47    -0.671398405693E+03   -0.54021E-05   -0.12955E-04  8424   0.254E-04 0.225E-04
CGA:  48    -0.671398438625E+03   -0.32933E-04    0.41294E-04  8424   0.231E-04-0.875E-05
CGA:  49    -0.671398498001E+03   -0.59375E-04    0.10243E-05  8424   0.104E-03-0.406E-04
CGA:  50    -0.671398500401E+03   -0.24005E-05   -0.10787E-04  8424   0.174E-04 0.243E-04
CGA:  51    -0.671398496782E+03    0.36193E-05   -0.19557E-04  8424   0.251E-03-0.487E-04
CGA:  52    -0.671398572806E+03   -0.76024E-04   -0.42992E-04  8424   0.100E-03-0.116E-03
CGA:  53    -0.671398592015E+03   -0.19209E-04   -0.17860E-04  8424   0.116E-04-0.118E-04
CGA:  54    -0.671398621580E+03   -0.29566E-04    0.97511E-06  8424   0.395E-04-0.126E-04
CGA:  55    -0.671398624528E+03   -0.29481E-05   -0.41290E-05  8424   0.263E-05 0.359E-05
   2 F= -.67139862E+03 E0= -.67139862E+03  d E =-.371215E-01  mag=    15.0000
       N       E                     dE             d eps       ncg     rms          ort
SDA:   1    -0.654172020135E+03    0.17227E+02    0.00000E+00  8424   0.471E+02 0.000E+00
CGA:   2    -0.667906562210E+03   -0.13735E+02   -0.13743E+02  8424   0.160E+02 0.272E-02
CGA:   3    -0.670969621634E+03   -0.30631E+01   -0.30823E+01  8424   0.480E+01-0.150E-01
CGA:   4    -0.671838557680E+03   -0.86894E+00   -0.87165E+00  8424   0.111E+01 0.718E-03
CGA:   5    -0.672017871063E+03   -0.17931E+00   -0.17883E+00  8424   0.254E+00-0.982E-03
CGA:   6    -0.672072932187E+03   -0.55061E-01   -0.54821E-01  8424   0.743E-01-0.155E-02
CGA:   7    -0.672092073940E+03   -0.19142E-01   -0.19108E-01  8424   0.334E-01-0.387E-03
CGA:   8    -0.672100972830E+03   -0.88989E-02   -0.89587E-02  8424   0.131E-01 0.570E-03
CGA:   9    -0.672104869286E+03   -0.38965E-02   -0.39221E-02  8424   0.626E-02 0.351E-03
CGA:  10    -0.672107350669E+03   -0.24814E-02   -0.24924E-02  8424   0.406E-02-0.415E-03
CGA:  11    -0.672109099134E+03   -0.17485E-02   -0.19122E-02  8424   0.499E-02-0.119E-02
CGA:  12    -0.672110815173E+03   -0.17160E-02   -0.22077E-02  8424   0.763E-02-0.208E-02
CGA:  13    -0.672112698789E+03   -0.18836E-02   -0.22045E-02  8424   0.830E-02-0.321E-02
CGA:  14    -0.672114480413E+03   -0.17816E-02   -0.16717E-02  8424   0.529E-02-0.309E-02
CGA:  15    -0.672115773539E+03   -0.12931E-02   -0.14225E-02  8424   0.422E-02-0.313E-02
CGA:  16    -0.672116625258E+03   -0.85172E-03   -0.94478E-03  8424   0.188E-02 0.570E-03
CGA:  17    -0.672117461732E+03   -0.83647E-03   -0.83672E-03  8424   0.189E-02-0.262E-04
CGA:  18    -0.672118186363E+03   -0.72463E-03   -0.72056E-03  8424   0.130E-02 0.489E-03
CGA:  19    -0.672118867242E+03   -0.68088E-03   -0.66757E-03  8424   0.871E-03 0.470E-03
CGA:  20    -0.672119467755E+03   -0.60051E-03   -0.59720E-03  8424   0.117E-02 0.126E-04
CGA:  21    -0.672119740493E+03   -0.27274E-03   -0.30589E-03  8424   0.767E-03 0.241E-03
CGA:  22    -0.672120170180E+03   -0.42969E-03   -0.42656E-03  8424   0.108E-02 0.197E-04
CGA:  23    -0.672120593841E+03   -0.42366E-03   -0.42099E-03  8424   0.133E-02-0.546E-03
CGA:  24    -0.672120814865E+03   -0.22102E-03   -0.25625E-03  8424   0.482E-03 0.183E-03
CGA:  25    -0.672121063103E+03   -0.24824E-03   -0.32907E-03  8424   0.945E-03-0.362E-03
CGA:  26    -0.672121225979E+03   -0.16288E-03   -0.18461E-03  8424   0.339E-03 0.113E-03
CGA:  27    -0.672121364512E+03   -0.13853E-03   -0.23794E-03  8424   0.117E-02-0.399E-03
CGA:  28    -0.672121526489E+03   -0.16198E-03   -0.19087E-03  8424   0.318E-03 0.128E-03
CGA:  29    -0.672121676354E+03   -0.14987E-03   -0.19013E-03  8424   0.555E-03-0.252E-03
CGA:  30    -0.672121801407E+03   -0.12505E-03   -0.13098E-03  8424   0.217E-03 0.390E-04
CGA:  31    -0.672121585011E+03    0.21640E-03   -0.25422E-03  8424   0.445E-02-0.659E-03
CGA:  32    -0.672122085597E+03   -0.50059E-03   -0.57418E-03  8424   0.547E-03 0.273E-03
CGA:  33    -0.672122294296E+03   -0.20870E-03   -0.20371E-03  8424   0.163E-03-0.102E-03
CGA:  34    -0.672122430589E+03   -0.13629E-03    0.89566E-04  8424   0.190E-03 0.502E-04
CGA:  35    -0.672122222852E+03    0.20774E-03   -0.43098E-03  8424   0.635E-02-0.486E-03
CGA:  36    -0.672123245785E+03   -0.10229E-02   -0.91618E-03  8424   0.783E-03-0.361E-03
CGA:  37    -0.672123392003E+03   -0.14622E-03   -0.15751E-03  8424   0.736E-04 0.477E-04
CGA:  38    -0.672123482257E+03   -0.90254E-04    0.52387E-04  8424   0.654E-04 0.410E-04
CGA:  39    -0.672123548911E+03   -0.66654E-04    0.85388E-04  8424   0.569E-04 0.417E-04
CGA:  40    -0.672123622455E+03   -0.73544E-04    0.25838E-04  8424   0.612E-04 0.413E-04
CGA:  41    -0.672123676491E+03   -0.54036E-04    0.11479E-02  8424   0.960E-04 0.258E-04
CGA:  42    -0.672123855740E+03   -0.17925E-03    0.58741E-04  8424   0.661E-04 0.114E-03
CGA:  43    -0.672123919990E+03   -0.64250E-04    0.12663E-03  8424   0.703E-04 0.241E-04
CGA:  44    -0.672124049766E+03   -0.12978E-03    0.38083E-04  8424   0.744E-04 0.840E-04
CGA:  45    -0.672123461170E+03    0.58860E-03   -0.31724E-03  8424   0.532E-02-0.345E-03
CGA:  46    -0.672124340475E+03   -0.87931E-03   -0.90802E-03  8424   0.588E-03 0.505E-04
CGA:  47    -0.672124510538E+03   -0.17006E-03   -0.13472E-03  8424   0.800E-04-0.665E-04
CGA:  48    -0.672124541307E+03   -0.30769E-04   -0.31966E-04  8424   0.119E-03 0.390E-05
CGA:  49    -0.672124794995E+03   -0.25369E-03    0.11265E-03  8424   0.252E-03 0.237E-04
CGA:  50    -0.672125352628E+03   -0.55763E-03    0.39886E-03  8424   0.161E-03 0.146E-03
CGA:  51    -0.672125430787E+03   -0.78159E-04   -0.46532E-04  8424   0.143E-03-0.729E-04
CGA:  52    -0.672125456705E+03   -0.25918E-04   -0.24739E-04  8424   0.103E-03-0.378E-05
CGA:  53    -0.672125507138E+03   -0.50433E-04   -0.47099E-04  8424   0.231E-03-0.172E-04
CGA:  54    -0.672122220618E+03    0.32865E-02   -0.59058E-03  8424   0.273E-01-0.165E-02
CGA:  55    -0.672126447085E+03   -0.42265E-02   -0.44013E-02  8424   0.274E-02 0.642E-03
CGA:  56    -0.672127040277E+03   -0.59319E-03   -0.53332E-03  8424   0.825E-04-0.108E-03
CGA:  57    -0.672127051191E+03   -0.10914E-04   -0.18350E-04  8424   0.151E-04 0.148E-04
CGA:  58    -0.672127060664E+03   -0.94724E-05   -0.90044E-05  8424   0.201E-04-0.249E-05
   3 F= -.67212706E+03 E0= -.67212706E+03  d E =-.728436E+00  mag=    15.0000
       N       E                     dE             d eps       ncg     rms          ort
SDA:   1    -0.648488156150E+03    0.23639E+02    0.00000E+00  8424   0.631E+02 0.000E+00
CGA:   2    -0.666957804646E+03   -0.18470E+02   -0.18679E+02  8424   0.199E+02 0.718E-01
CGA:   3    -0.670903683915E+03   -0.39459E+01   -0.39356E+01  8424   0.601E+01 0.260E+00
CGA:   4    -0.672038807721E+03   -0.11351E+01   -0.11414E+01  8424   0.122E+01-0.311E-02
CGA:   5    -0.672244494932E+03   -0.20569E+00   -0.20478E+00  8424   0.322E+00 0.145E-02
CGA:   6    -0.672310987959E+03   -0.66493E-01   -0.66173E-01  8424   0.947E-01-0.107E-02
CGA:   7    -0.672335700654E+03   -0.24713E-01   -0.24512E-01  8424   0.423E-01-0.885E-03
CGA:   8    -0.672346481064E+03   -0.10780E-01   -0.10869E-01  8424   0.148E-01 0.285E-03
CGA:   9    -0.672350657178E+03   -0.41761E-02   -0.42015E-02  8424   0.598E-02 0.868E-04
CGA:  10    -0.672352664822E+03   -0.20076E-02   -0.19208E-02  8424   0.227E-02-0.428E-03
CGA:  11    -0.672353487603E+03   -0.82278E-03   -0.75073E-03  8424   0.134E-02-0.456E-03
CGA:  12    -0.672354064551E+03   -0.57695E-03   -0.67258E-03  8424   0.247E-02-0.803E-03
CGA:  13    -0.672354533346E+03   -0.46879E-03   -0.50633E-03  8424   0.698E-03 0.122E-03
CGA:  14    -0.672354914006E+03   -0.38066E-03   -0.39285E-03  8424   0.126E-02-0.325E-03
CGA:  15    -0.672355153116E+03   -0.23911E-03   -0.19876E-03  8424   0.111E-02-0.205E-03
CGA:  16    -0.672355628654E+03   -0.47554E-03   -0.53231E-03  8424   0.348E-02-0.703E-03
CGA:  17    -0.672356393364E+03   -0.76471E-03   -0.62779E-03  8424   0.104E-02-0.443E-03
CGA:  18    -0.672356786972E+03   -0.39361E-03   -0.38633E-03  8424   0.598E-03-0.134E-03
CGA:  19    -0.672356478906E+03    0.30807E-03   -0.64789E-03  8424   0.838E-02-0.125E-02
CGA:  20    -0.672357551495E+03   -0.10726E-02   -0.11345E-02  8424   0.813E-03 0.203E-03
CGA:  21    -0.672357912764E+03   -0.36127E-03   -0.35057E-03  8424   0.567E-03-0.145E-03
CGA:  22    -0.672358157419E+03   -0.24466E-03   -0.25783E-03  8424   0.594E-03-0.216E-03
CGA:  23    -0.672350746927E+03    0.74105E-02   -0.40155E-02  8424   0.471E-01-0.322E-02
CGA:  24    -0.672358769910E+03   -0.80230E-02   -0.81708E-02  8424   0.527E-02 0.243E-03
CGA:  25    -0.672360705352E+03   -0.19354E-02   -0.17653E-02  8424   0.181E-02-0.322E-03
CGA:  26    -0.672361293487E+03   -0.58813E-03   -0.60601E-03  8424   0.795E-03 0.373E-04
CGA:  27    -0.672361761900E+03   -0.46841E-03   -0.33663E-03  8424   0.527E-03-0.331E-03
CGA:  28    -0.672361862520E+03   -0.10062E-03   -0.79332E-04  8424   0.252E-03-0.401E-04
CGA:  29    -0.672362013311E+03   -0.15079E-03   -0.12799E-03  8424   0.433E-03-0.106E-03
CGA:  30    -0.672362471509E+03   -0.45820E-03    0.46253E-03  8424   0.159E-02-0.425E-03
CGA:  31    -0.672362723062E+03   -0.25155E-03   -0.31938E-03  8424   0.400E-03 0.124E-03
CGA:  32    -0.672362968176E+03   -0.24511E-03   -0.18920E-03  8424   0.337E-03-0.193E-03
CGA:  33    -0.672363018135E+03   -0.49958E-04   -0.17973E-03  8424   0.182E-02-0.408E-03
CGA:  34    -0.672363361636E+03   -0.34350E-03   -0.31613E-03  8424   0.420E-03-0.548E-04
CGA:  35    -0.672363519277E+03   -0.15764E-03   -0.15592E-03  8424   0.113E-03-0.569E-05
CGA:  36    -0.672363729822E+03   -0.21054E-03    0.10387E-03  8424   0.429E-03-0.981E-04
CGA:  37    -0.672363746799E+03   -0.16977E-04   -0.57397E-04  8424   0.475E-04 0.734E-04
CGA:  38    -0.672363783775E+03   -0.36976E-04   -0.38271E-04  8424   0.277E-03-0.459E-04
CGA:  39    -0.672363949650E+03   -0.16587E-03   -0.87583E-04  8424   0.299E-03-0.228E-03
CGA:  40    -0.672363958985E+03   -0.93349E-05   -0.39082E-04  8424   0.296E-04 0.582E-04
CGA:  41    -0.672363950479E+03    0.85063E-05   -0.43898E-04  8424   0.856E-03-0.846E-04
CGA:  42    -0.672364223049E+03   -0.27257E-03   -0.16858E-03  8424   0.109E-03-0.231E-03
CGA:  43    -0.672364245026E+03   -0.21976E-04   -0.23922E-04  8424   0.365E-04 0.590E-05
CGA:  44    -0.672364383291E+03   -0.13827E-03    0.60358E-05  8424   0.652E-04 0.150E-04
CGA:  45    -0.672364700059E+03   -0.31677E-03    0.15413E-04  8424   0.592E-04 0.551E-04
CGA:  46    -0.672364735250E+03   -0.35191E-04   -0.23588E-04  8424   0.165E-03-0.549E-04
CGA:  47    -0.672364777012E+03   -0.41762E-04   -0.28999E-04  8424   0.385E-04-0.302E-04
CGA:  48    -0.672364887719E+03   -0.11071E-03    0.44398E-05  8424   0.625E-04 0.998E-05
CGA:  49    -0.672365073190E+03   -0.18547E-03    0.21899E-04  8424   0.142E-03 0.141E-04
CGA:  50    -0.672365713990E+03   -0.64080E-03    0.22821E-04  8424   0.612E-04 0.104E-03
CGA:  51    -0.672365728777E+03   -0.14787E-04   -0.11340E-04  8424   0.269E-04-0.882E-05
CGA:  52    -0.672365815993E+03   -0.87216E-04    0.26781E-05  8424   0.315E-04 0.130E-04
CGA:  53    -0.672365970749E+03   -0.15476E-03    0.66213E-05  8424   0.529E-04 0.185E-04
CGA:  54    -0.672366002647E+03   -0.31898E-04   -0.21974E-04  8424   0.183E-03-0.694E-04
CGA:  55    -0.672366031113E+03   -0.28466E-04   -0.26510E-04  8424   0.157E-04-0.479E-05
CGA:  56    -0.672366096170E+03   -0.65057E-04    0.13498E-05  8424   0.280E-04 0.718E-05
CGA:  57    -0.672366235363E+03   -0.13919E-03    0.48905E-05  8424   0.276E-04 0.271E-04
CGA:  58    -0.672366289276E+03   -0.53913E-04    0.86940E-05  8424   0.183E-03-0.414E-04
CGA:  59    -0.672366302302E+03   -0.13026E-04   -0.20983E-04  8424   0.125E-04 0.192E-04
CGA:  60    -0.672366339795E+03   -0.37492E-04    0.21068E-05  8424   0.436E-04 0.419E-06
CGA:  61    -0.672366546664E+03   -0.20687E-03    0.32833E-05  8424   0.100E-03 0.283E-04
CGA:  62    -0.672366586463E+03   -0.39798E-04   -0.28111E-04  8424   0.610E-04-0.509E-04
CGA:  63    -0.672366602627E+03   -0.16164E-04   -0.12438E-04  8424   0.192E-04-0.127E-04
CGA:  64    -0.672366655549E+03   -0.52923E-04    0.14249E-05  8424   0.123E-04 0.101E-04
CGA:  65    -0.672366695888E+03   -0.40338E-04    0.12458E-05  8424   0.199E-04 0.268E-05
CGA:  66    -0.672366789731E+03   -0.93843E-04    0.19479E-05  8424   0.168E-04 0.203E-04
CGA:  67    -0.672366827555E+03   -0.37825E-04    0.30695E-05  8424   0.189E-04-0.146E-05
CGA:  68    -0.672366902571E+03   -0.75015E-04    0.11903E-05  8424   0.204E-04 0.143E-04
CGA:  69    -0.672366933068E+03   -0.30497E-04    0.91391E-05  8424   0.170E-04-0.311E-05
CGA:  70    -0.672366994583E+03   -0.61515E-04    0.10167E-05  8424   0.189E-04 0.110E-04
CGA:  71    -0.672367026940E+03   -0.32358E-04    0.59386E-05  8424   0.217E-04-0.381E-05
CGA:  72    -0.672367097696E+03   -0.70755E-04    0.12978E-05  8424   0.310E-04 0.429E-05
CGA:  73    -0.672367224656E+03   -0.12696E-03    0.35530E-05  8424   0.177E-04 0.265E-04
CGA:  74    -0.672367247112E+03   -0.22456E-04    0.13955E-04  8424   0.555E-04-0.166E-04
CGA:  75    -0.672367266275E+03   -0.19163E-04   -0.13173E-04  8424   0.252E-04-0.243E-04
CGA:  76    -0.672367305029E+03   -0.38754E-04    0.17522E-05  8424   0.704E-05 0.806E-05
CGA:  77    -0.672367344781E+03   -0.39753E-04    0.61970E-06  8424   0.113E-04 0.539E-05
CGA:  78    -0.672367358038E+03   -0.13256E-04    0.10850E-04  8424   0.360E-04-0.765E-05
CGA:  79    -0.672367302573E+03    0.55464E-04   -0.35270E-04  8424   0.114E-02-0.179E-03
CGA:  80    -0.672367426000E+03   -0.12343E-03   -0.14674E-03  8424   0.108E-04 0.643E-04
CGA:  81    -0.672367443288E+03   -0.17288E-04    0.47051E-05  8424   0.516E-04-0.125E-04
CGA:  82    -0.672367458747E+03   -0.15458E-04   -0.10338E-04  8424   0.174E-04-0.184E-04
CGA:  83    -0.672367490401E+03   -0.31655E-04    0.12662E-05  8424   0.881E-05 0.435E-05
CGA:  84    -0.672367522498E+03   -0.32096E-04    0.12009E-05  8424   0.194E-04 0.249E-05
CGA:  85    -0.672367632064E+03   -0.10957E-03    0.15513E-05  8424   0.116E-04 0.195E-04
CGA:  86    -0.672367637135E+03   -0.50704E-05   -0.66111E-05  8424   0.545E-04-0.146E-04
CGA:  87    -0.672367664688E+03   -0.27553E-04   -0.21814E-04  8424   0.162E-03-0.821E-04
CGA:  88    -0.672367677176E+03   -0.12488E-04   -0.19802E-04  8424   0.716E-05 0.213E-04
CGA:  89    -0.672367678150E+03   -0.97439E-06   -0.64522E-05  8424   0.871E-04-0.158E-04
CGA:  90    -0.672367721384E+03   -0.43234E-04   -0.32942E-04  8424   0.190E-03-0.116E-03
CGA:  91    -0.672367730352E+03   -0.89681E-05   -0.22304E-04  8424   0.111E-04 0.387E-04
   4 F= -.67236773E+03 E0= -.67236773E+03  d E =-.240670E+00  mag=    15.0000
       N       E                     dE             d eps       ncg     rms          ort
SDA:   1    -0.671664280132E+03    0.70344E+00    0.00000E+00  8424   0.225E+01 0.000E+00
CGA:   2    -0.672150279434E+03   -0.48600E+00   -0.48647E+00  8424   0.977E+00 0.740E-03
CGA:   3    -0.672350649012E+03   -0.20037E+00   -0.20010E+00  8424   0.283E+00-0.684E-03
CGA:   4    -0.672398848264E+03   -0.48199E-01   -0.48101E-01  8424   0.726E-01-0.352E-03
CGA:   5    -0.672411050442E+03   -0.12202E-01   -0.12234E-01  8424   0.148E-01 0.127E-03
CGA:   6    -0.672413979174E+03   -0.29287E-02   -0.29606E-02  8424   0.347E-02 0.169E-03
CGA:   7    -0.672414745008E+03   -0.76583E-03   -0.78727E-03  8424   0.110E-02 0.141E-03
CGA:   8    -0.672415012070E+03   -0.26706E-03   -0.27623E-03  8424   0.351E-03 0.720E-04
CGA:   9    -0.672415089218E+03   -0.77148E-04   -0.87417E-04  8424   0.118E-03 0.804E-04
CGA:  10    -0.672415096127E+03   -0.69092E-05   -0.23183E-04  8424   0.604E-04 0.830E-04
   5 F= -.67241510E+03 E0= -.67241510E+03  d E =-.473658E-01  mag=    15.0000
       N       E                     dE             d eps       ncg     rms          ort
SDA:   1    -0.671467546986E+03    0.94754E+00    0.00000E+00  8424   0.271E+01 0.000E+00
CGA:   2    -0.672116228427E+03   -0.64868E+00   -0.64898E+00  8424   0.124E+01 0.177E-02
CGA:   3    -0.672358697996E+03   -0.24247E+00   -0.24221E+00  8424   0.327E+00-0.157E-02
CGA:   4    -0.672415648485E+03   -0.56950E-01   -0.56764E-01  8424   0.851E-01-0.115E-02
CGA:   5    -0.672429751272E+03   -0.14103E-01   -0.14114E-01  8424   0.174E-01 0.624E-04
CGA:   6    -0.672433170445E+03   -0.34192E-02   -0.34685E-02  8424   0.429E-02 0.452E-03
CGA:   7    -0.672434135150E+03   -0.96471E-03   -0.98812E-03  8424   0.145E-02 0.301E-03
CGA:   8    -0.672434494426E+03   -0.35928E-03   -0.37058E-03  8424   0.517E-03 0.191E-03
CGA:   9    -0.672434606661E+03   -0.11224E-03   -0.12778E-03  8424   0.215E-03 0.201E-03
CGA:  10    -0.672434623264E+03   -0.16603E-04   -0.44210E-04  8424   0.135E-03 0.192E-03
CGA:  11    -0.672434619853E+03    0.34115E-05   -0.15529E-04  8424   0.989E-04 0.112E-03
   6 F= -.67243462E+03 E0= -.67243462E+03  d E =-.195237E-01  mag=    15.0000
       N       E                     dE             d eps       ncg     rms          ort
SDA:   1    -0.672151154674E+03    0.28347E+00    0.00000E+00  8424   0.759E+00 0.000E+00
CGA:   2    -0.672366813864E+03   -0.21566E+00   -0.21564E+00  8424   0.339E+00 0.704E-03
CGA:   3    -0.672428232033E+03   -0.61418E-01   -0.61361E-01  8424   0.823E-01-0.703E-03
CGA:   4    -0.672442980797E+03   -0.14749E-01   -0.14674E-01  8424   0.211E-01-0.881E-03
CGA:   5    -0.672446405911E+03   -0.34251E-02   -0.34326E-02  8424   0.452E-02 0.747E-04
CGA:   6    -0.672447241043E+03   -0.83513E-03   -0.86155E-03  8424   0.110E-02 0.407E-03
CGA:   7    -0.672447491757E+03   -0.25071E-03   -0.25839E-03  8424   0.417E-03 0.215E-03
CGA:   8    -0.672447593897E+03   -0.10214E-03   -0.10762E-03  8424   0.196E-03 0.163E-03
CGA:   9    -0.672447626705E+03   -0.32808E-04   -0.45751E-04  8424   0.125E-03 0.161E-03
CGA:  10    -0.672447633403E+03   -0.66982E-05   -0.17132E-04  8424   0.875E-04 0.974E-04
CGA:  11    -0.672447633234E+03    0.16887E-06   -0.10053E-04  8424   0.789E-04 0.827E-04
   7 F= -.67244763E+03 E0= -.67244763E+03  d E =-.130134E-01  mag=    15.0000
       N       E                     dE             d eps       ncg     rms          ort
SDA:   1    -0.671757197593E+03    0.69044E+00    0.00000E+00  8424   0.187E+01 0.000E+00
CGA:   2    -0.672246232789E+03   -0.48904E+00   -0.48905E+00  8424   0.873E+00-0.753E-03
CGA:   3    -0.672408860684E+03   -0.16263E+00   -0.16266E+00  8424   0.214E+00 0.468E-03
CGA:   4    -0.672446196580E+03   -0.37336E-01   -0.37301E-01  8424   0.542E-01-0.734E-03
CGA:   5    -0.672455195122E+03   -0.89985E-02   -0.89891E-02  8424   0.114E-01-0.177E-03
CGA:   6    -0.672457479395E+03   -0.22843E-02   -0.22894E-02  8424   0.279E-02 0.270E-03
CGA:   7    -0.672458159521E+03   -0.68013E-03   -0.67912E-03  8424   0.102E-02 0.548E-04
CGA:   8    -0.672458433989E+03   -0.27447E-03   -0.27178E-03  8424   0.424E-03 0.646E-04
CGA:   9    -0.672458581659E+03   -0.14767E-03   -0.14261E-03  8424   0.251E-03 0.532E-04
CGA:  10    -0.672458694670E+03   -0.11301E-03   -0.10433E-03  8424   0.196E-03 0.605E-04
CGA:  11    -0.672458782277E+03   -0.87607E-04   -0.78355E-04  8424   0.146E-03 0.104E-03
CGA:  12    -0.672458856750E+03   -0.74472E-04   -0.77211E-04  8424   0.195E-03-0.976E-05
CGA:  13    -0.672458931961E+03   -0.75211E-04   -0.66809E-04  8424   0.161E-03 0.733E-04
CGA:  14    -0.672459079862E+03   -0.14790E-03   -0.14190E-03  8424   0.339E-03 0.141E-04
CGA:  15    -0.672459293318E+03   -0.21346E-03   -0.18777E-03  8424   0.451E-03 0.107E-03
CGA:  16    -0.672459685433E+03   -0.39211E-03   -0.41114E-03  8424   0.879E-03-0.467E-04
CGA:  17    -0.672460013075E+03   -0.32764E-03   -0.32778E-03  8424   0.947E-03-0.655E-05
CGA:  18    -0.672460256400E+03   -0.24332E-03   -0.25134E-03  8424   0.489E-03 0.113E-03
CGA:  19    -0.672460389567E+03   -0.13317E-03   -0.13940E-03  8424   0.227E-03 0.841E-04
CGA:  20    -0.672460446364E+03   -0.56798E-04   -0.62412E-04  8424   0.133E-03 0.695E-04
CGA:  21    -0.672460464808E+03   -0.18443E-04   -0.31144E-04  8424   0.916E-04 0.984E-04
CGA:  22    -0.672460474586E+03   -0.97784E-05   -0.16833E-04  8424   0.503E-04 0.609E-04
   8 F= -.67246047E+03 E0= -.67246047E+03  d E =-.128414E-01  mag=    15.0000
       N       E                     dE             d eps       ncg     rms          ort
SDA:   1    -0.671918954945E+03    0.54151E+00    0.00000E+00  8424   0.149E+01 0.000E+00
CGA:   2    -0.672296516736E+03   -0.37756E+00   -0.37752E+00  8424   0.699E+00-0.143E-02
CGA:   3    -0.672429596619E+03   -0.13308E+00   -0.13322E+00  8424   0.172E+00 0.135E-02
CGA:   4    -0.672459207343E+03   -0.29611E-01   -0.29694E-01  8424   0.432E-01 0.660E-03
CGA:   5    -0.672466454699E+03   -0.72474E-02   -0.72594E-02  8424   0.891E-02 0.952E-04
CGA:   6    -0.672468304257E+03   -0.18496E-02   -0.18498E-02  8424   0.228E-02 0.258E-05
CGA:   7    -0.672468813267E+03   -0.50901E-03   -0.51167E-03  8424   0.715E-03 0.605E-04
CGA:   8    -0.672468960776E+03   -0.14751E-03   -0.15542E-03  8424   0.214E-03 0.146E-03
CGA:   9    -0.672469002386E+03   -0.41610E-04   -0.49051E-04  8424   0.875E-04 0.102E-03
CGA:  10    -0.672469020050E+03   -0.17664E-04   -0.22991E-04  8424   0.493E-04 0.655E-04
CGA:  11    -0.672469030926E+03   -0.10876E-04   -0.11515E-04  8424   0.290E-04 0.289E-04
CGA:  12    -0.672469032463E+03   -0.15373E-05   -0.42890E-05  8424   0.243E-04 0.258E-04
   9 F= -.67246903E+03 E0= -.67246903E+03  d E =-.855788E-02  mag=    15.0000
       N       E                     dE             d eps       ncg     rms          ort
SDA:   1    -0.672129859729E+03    0.33917E+00    0.00000E+00  8424   0.964E+00 0.000E+00
CGA:   2    -0.672379744744E+03   -0.24989E+00   -0.24991E+00  8424   0.427E+00-0.148E-02
CGA:   3    -0.672459432648E+03   -0.79688E-01   -0.79706E-01  8424   0.113E+00 0.291E-03
CGA:   4    -0.672479078312E+03   -0.19646E-01   -0.19730E-01  8424   0.279E-01 0.124E-02
CGA:   5    -0.672483736067E+03   -0.46578E-02   -0.46950E-02  8424   0.565E-02 0.513E-03
CGA:   6    -0.672484920897E+03   -0.11848E-02   -0.11855E-02  8424   0.143E-02 0.221E-04
CGA:   7    -0.672485245968E+03   -0.32507E-03   -0.32545E-03  8424   0.481E-03 0.693E-04
CGA:   8    -0.672485346413E+03   -0.10044E-03   -0.10367E-03  8424   0.150E-03 0.120E-03
CGA:   9    -0.672485368564E+03   -0.22152E-04   -0.29376E-04  8424   0.707E-04 0.970E-04
CGA:  10    -0.672485374160E+03   -0.55961E-05   -0.99771E-05  8424   0.435E-04 0.507E-04
  10 F= -.67248537E+03 E0= -.67248537E+03  d E =-.163417E-01  mag=    15.0000
       N       E                     dE             d eps       ncg     rms          ort
SDA:   1    -0.671952810577E+03    0.53256E+00    0.00000E+00  8424   0.141E+01 0.000E+00
CGA:   2    -0.672356135361E+03   -0.40332E+00   -0.40345E+00  8424   0.557E+00-0.193E-02
CGA:   3    -0.672460160023E+03   -0.10402E+00   -0.10401E+00  8424   0.151E+00-0.495E-03
CGA:   4    -0.672486724163E+03   -0.26564E-01   -0.26628E-01  8424   0.355E-01 0.147E-02
CGA:   5    -0.672492587742E+03   -0.58636E-02   -0.59000E-02  8424   0.754E-02 0.679E-03
CGA:   6    -0.672494151430E+03   -0.15637E-02   -0.15646E-02  8424   0.186E-02 0.775E-04
CGA:   7    -0.672494594867E+03   -0.44344E-03   -0.44137E-03  8424   0.648E-03 0.102E-03
CGA:   8    -0.672494744633E+03   -0.14977E-03   -0.14936E-03  8424   0.213E-03 0.131E-03
CGA:   9    -0.672494781029E+03   -0.36396E-04   -0.42726E-04  8424   0.987E-04 0.130E-03
CGA:  10    -0.672494787670E+03   -0.66418E-05   -0.12743E-04  8424   0.614E-04 0.725E-04
  11 F= -.67249479E+03 E0= -.67249479E+03  d E =-.941351E-02  mag=    15.0000
       N       E                     dE             d eps       ncg     rms          ort
SDA:   1    -0.671864449544E+03    0.63033E+00    0.00000E+00  8424   0.161E+01 0.000E+00
CGA:   2    -0.672341915181E+03   -0.47747E+00   -0.47770E+00  8424   0.615E+00-0.257E-02
CGA:   3    -0.672456462964E+03   -0.11455E+00   -0.11453E+00  8424   0.168E+00-0.742E-03
CGA:   4    -0.672486027409E+03   -0.29564E-01   -0.29612E-01  8424   0.387E-01 0.151E-02
CGA:   5    -0.672492412541E+03   -0.63851E-02   -0.64219E-02  8424   0.835E-02 0.872E-03
CGA:   6    -0.672494124863E+03   -0.17123E-02   -0.17132E-02  8424   0.205E-02 0.243E-03
CGA:   7    -0.672494625152E+03   -0.50029E-03   -0.49511E-03  8424   0.742E-03 0.168E-03
CGA:   8    -0.672494795478E+03   -0.17033E-03   -0.16922E-03  8424   0.263E-03 0.202E-03
CGA:   9    -0.672494838309E+03   -0.42831E-04   -0.52257E-04  8424   0.142E-03 0.190E-03
CGA:  10    -0.672494847021E+03   -0.87126E-05   -0.17528E-04  8424   0.957E-04 0.110E-03
CGA:  11    -0.672494848896E+03   -0.18746E-05   -0.10123E-04  8424   0.824E-04 0.881E-04
  12 F= -.67249485E+03 E0= -.67249485E+03  d E =-.612256E-04  mag=    15.0000
       N       E                     dE             d eps       ncg     rms          ort
SDA:   1    -0.664116170871E+03    0.83787E+01    0.00000E+00  8424   0.208E+02 0.000E+00
CGA:   2    -0.670483026052E+03   -0.63669E+01   -0.63699E+01  8424   0.748E+01-0.197E-01
CGA:   3    -0.671915542823E+03   -0.14325E+01   -0.14326E+01  8424   0.209E+01 0.879E-02
CGA:   4    -0.672283135477E+03   -0.36759E+00   -0.36764E+00  8424   0.465E+00 0.315E-02
CGA:   5    -0.672362270679E+03   -0.79135E-01   -0.79174E-01  8424   0.108E+00 0.151E-02
CGA:   6    -0.672384152589E+03   -0.21882E-01   -0.21874E-01  8424   0.271E-01 0.882E-03
CGA:   7    -0.672391289767E+03   -0.71372E-02   -0.71656E-02  8424   0.107E-01-0.416E-03
CGA:   8    -0.672393942108E+03   -0.26523E-02   -0.26247E-02  8424   0.404E-02 0.533E-03
CGA:   9    -0.672395086875E+03   -0.11448E-02   -0.10918E-02  8424   0.168E-02 0.909E-03
CGA:  10    -0.672395658327E+03   -0.57145E-03   -0.52960E-03  8424   0.883E-03 0.751E-03
CGA:  11    -0.672395957701E+03   -0.29937E-03   -0.28645E-03  8424   0.559E-03 0.678E-03
CGA:  12    -0.672396111745E+03   -0.15404E-03   -0.13852E-03  8424   0.380E-03 0.370E-03
CGA:  13    -0.672396215450E+03   -0.10371E-03   -0.91943E-04  8424   0.346E-03 0.347E-03
CGA:  14    -0.672396294246E+03   -0.78795E-04   -0.75779E-04  8424   0.332E-03 0.335E-03
CGA:  15    -0.672396374449E+03   -0.80204E-04   -0.75051E-04  8424   0.323E-03 0.326E-03
CGA:  16    -0.672396445269E+03   -0.70819E-04   -0.69479E-04  8424   0.316E-03 0.318E-03
CGA:  17    -0.672396518285E+03   -0.73016E-04   -0.69870E-04  8424   0.309E-03 0.312E-03
CGA:  18    -0.672396585681E+03   -0.67396E-04   -0.66473E-04  8424   0.304E-03 0.306E-03
CGA:  19    -0.672396656336E+03   -0.70655E-04   -0.67567E-04  8424   0.299E-03 0.301E-03
CGA:  20    -0.672396721331E+03   -0.64994E-04   -0.64285E-04  8424   0.295E-03 0.296E-03
CGA:  21    -0.672396792941E+03   -0.71611E-04   -0.67174E-04  8424   0.291E-03 0.291E-03
CGA:  22    -0.672396853927E+03   -0.60985E-04   -0.61558E-04  8424   0.289E-03 0.286E-03
CGA:  23    -0.672396930899E+03   -0.76972E-04   -0.69383E-04  8424   0.290E-03 0.280E-03
CGA:  24    -0.672396981772E+03   -0.50873E-04   -0.56398E-04  8424   0.292E-03 0.271E-03
CGA:  25    -0.672397065229E+03   -0.83456E-04   -0.73575E-04  8424   0.318E-03 0.254E-03
CGA:  26    -0.672397102228E+03   -0.36999E-04   -0.50636E-04  8424   0.299E-03 0.241E-03
CGA:  27    -0.672397184902E+03   -0.82674E-04   -0.74439E-04  8424   0.347E-03 0.226E-03
CGA:  28    -0.672397220306E+03   -0.35404E-04   -0.50733E-04  8424   0.294E-03 0.223E-03
CGA:  29    -0.672397300578E+03   -0.80272E-04   -0.72431E-04  8424   0.335E-03 0.223E-03
CGA:  30    -0.672397339632E+03   -0.39054E-04   -0.51817E-04  8424   0.291E-03 0.218E-03
CGA:  31    -0.672397417853E+03   -0.78221E-04   -0.70955E-04  8424   0.330E-03 0.216E-03
CGA:  32    -0.672397459885E+03   -0.42032E-04   -0.52876E-04  8424   0.289E-03 0.211E-03
CGA:  33    -0.672397536280E+03   -0.76395E-04   -0.69719E-04  8424   0.326E-03 0.208E-03
CGA:  34    -0.672397580916E+03   -0.44636E-04   -0.53880E-04  8424   0.288E-03 0.203E-03
CGA:  35    -0.672397655665E+03   -0.74749E-04   -0.68694E-04  8424   0.324E-03 0.200E-03
CGA:  36    -0.672397702503E+03   -0.46839E-04   -0.54793E-04  8424   0.287E-03 0.195E-03
CGA:  37    -0.672397775801E+03   -0.73298E-04   -0.67848E-04  8424   0.323E-03 0.191E-03
CGA:  38    -0.672397824469E+03   -0.48668E-04   -0.55593E-04  8424   0.287E-03 0.186E-03
CGA:  39    -0.672397896539E+03   -0.72069E-04   -0.67165E-04  8424   0.323E-03 0.182E-03
CGA:  40    -0.672397946706E+03   -0.50167E-04   -0.56272E-04  8424   0.287E-03 0.177E-03
CGA:  41    -0.672398017770E+03   -0.71064E-04   -0.66628E-04  8424   0.323E-03 0.173E-03
CGA:  42    -0.672398069170E+03   -0.51400E-04   -0.56851E-04  8424   0.286E-03 0.168E-03
CGA:  43    -0.672398139438E+03   -0.70268E-04   -0.66223E-04  8424   0.324E-03 0.165E-03
CGA:  44    -0.672398191876E+03   -0.52438E-04   -0.57358E-04  8424   0.286E-03 0.160E-03
CGA:  45    -0.672398347996E+03   -0.15612E-03   -0.12239E-03  8424   0.331E-03 0.420E-03
CGA:  46    -0.672398415064E+03   -0.67067E-04   -0.67719E-04  8424   0.338E-03 0.114E-03
CGA:  47    -0.672398617327E+03   -0.20226E-03   -0.14904E-03  8424   0.316E-03 0.449E-03
CGA:  48    -0.672398670326E+03   -0.52999E-04   -0.57575E-04  8424   0.282E-03 0.136E-03
CGA:  49    -0.672398866977E+03   -0.19665E-03   -0.14179E-03  8424   0.322E-03 0.396E-03
CGA:  50    -0.672398938225E+03   -0.71248E-04   -0.71224E-04  8424   0.370E-03 0.748E-04
CGA:  51    -0.672399221800E+03   -0.28358E-03   -0.19269E-03  8424   0.304E-03 0.446E-03
CGA:  52    -0.672399274361E+03   -0.52561E-04   -0.57341E-04  8424   0.276E-03 0.111E-03
CGA:  53    -0.672399547786E+03   -0.27342E-03   -0.18064E-03  8424   0.307E-03 0.365E-03
CGA:  54    -0.672399625785E+03   -0.77999E-04   -0.77728E-04  8424   0.438E-03 0.232E-04
CGA:  55    -0.672400060965E+03   -0.43518E-03   -0.28102E-03  8424   0.375E-03 0.425E-03
CGA:  56    -0.672400124338E+03   -0.63373E-04   -0.69957E-04  8424   0.253E-03 0.895E-04
CGA:  57    -0.672400350026E+03   -0.22569E-03   -0.17273E-03  8424   0.444E-03 0.175E-03
CGA:  58    -0.672400487966E+03   -0.13794E-03   -0.13710E-03  8424   0.263E-03 0.215E-04
CGA:  59    -0.672400743010E+03   -0.25504E-03   -0.18314E-03  8424   0.408E-03 0.180E-03
CGA:  60    -0.672400889413E+03   -0.14640E-03   -0.15009E-03  8424   0.475E-03-0.500E-04
CGA:  61    -0.672401012076E+03   -0.12266E-03   -0.12285E-03  8424   0.415E-03 0.135E-03
CGA:  62    -0.672401455041E+03   -0.44296E-03   -0.36130E-03  8424   0.108E-02 0.200E-03
CGA:  63    -0.672402510370E+03   -0.10553E-02   -0.10870E-02  8424   0.397E-02-0.213E-03
CGA:  64    -0.672404051865E+03   -0.15415E-02   -0.19607E-02  8424   0.120E-01-0.270E-02
CGA:  65    -0.672406639207E+03   -0.25873E-02   -0.26305E-02  8424   0.174E-02 0.330E-03
CGA:  66    -0.672407033126E+03   -0.39392E-03   -0.40432E-03  8424   0.242E-03 0.909E-04
CGA:  67    -0.672407042285E+03   -0.91594E-05   -0.33318E-04  8424   0.740E-04 0.118E-03
CGA:  68    -0.672407034872E+03    0.74128E-05   -0.10230E-04  8424   0.539E-04 0.759E-04
  13 F= -.67240703E+03 E0= -.67240703E+03  d E =0.878140E-01  mag=    15.0000
       N       E                     dE             d eps       ncg     rms          ort
SDA:   1    -0.634149888029E+03    0.38257E+02    0.00000E+00  8424   0.123E+03 0.000E+00
CGA:   2    -0.658302813594E+03   -0.24153E+02   -0.24499E+02  8424   0.477E+02 0.161E+00
CGA:   3    -0.668491556664E+03   -0.10189E+02   -0.10163E+02  8424   0.142E+02 0.152E-01
CGA:   4    -0.670975654817E+03   -0.24841E+01   -0.24889E+01  8424   0.381E+01 0.699E-02
CGA:   5    -0.671613119052E+03   -0.63746E+00   -0.63879E+00  8424   0.792E+00 0.257E-03
CGA:   6    -0.671775221105E+03   -0.16210E+00   -0.16194E+00  8424   0.195E+00-0.187E-02
CGA:   7    -0.671821223879E+03   -0.46003E-01   -0.46044E-01  8424   0.668E-01 0.934E-03
CGA:   8    -0.671837964758E+03   -0.16741E-01   -0.16746E-01  8424   0.231E-01 0.190E-03
CGA:   9    -0.671844874883E+03   -0.69101E-02   -0.69362E-02  8424   0.103E-01-0.105E-02
CGA:  10    -0.671848296513E+03   -0.34216E-02   -0.35075E-02  8424   0.615E-02-0.105E-02
CGA:  11    -0.671850408677E+03   -0.21122E-02   -0.24264E-02  8424   0.573E-02-0.198E-02
CGA:  12    -0.671851947293E+03   -0.15386E-02   -0.19551E-02  8424   0.742E-02-0.195E-02
CGA:  13    -0.671851155877E+03    0.79142E-03   -0.47270E-02  8424   0.394E-01-0.837E-02
CGA:  14    -0.671858018060E+03   -0.68622E-02   -0.69929E-02  8424   0.971E-02 0.896E-03
CGA:  15    -0.671861184951E+03   -0.31669E-02   -0.31609E-02  8424   0.462E-02-0.942E-03
CGA:  16    -0.671862901845E+03   -0.17169E-02   -0.17415E-02  8424   0.291E-02-0.268E-03
CGA:  17    -0.671864091617E+03   -0.11898E-02   -0.13128E-02  8424   0.401E-02-0.830E-03
CGA:  18    -0.671865047740E+03   -0.95612E-03   -0.95238E-03  8424   0.310E-02-0.949E-03
CGA:  19    -0.671856499163E+03    0.85486E-02   -0.47147E-02  8424   0.575E-01-0.778E-02
CGA:  20    -0.671869971090E+03   -0.13472E-01   -0.13590E-01  8424   0.120E-01 0.315E-03
CGA:  21    -0.671873335164E+03   -0.33641E-02   -0.32646E-02  8424   0.520E-02-0.305E-03
CGA:  22    -0.671875262667E+03   -0.19275E-02   -0.18685E-02  8424   0.381E-02-0.279E-03
CGA:  23    -0.671876836783E+03   -0.15741E-02   -0.14690E-02  8424   0.209E-02-0.662E-03
CGA:  24    -0.671877902345E+03   -0.10656E-02   -0.11569E-02  8424   0.452E-02-0.834E-03
CGA:  25    -0.671879128587E+03   -0.12262E-02   -0.89862E-03  8424   0.324E-02-0.141E-02
CGA:  26    -0.671879111495E+03    0.17093E-04   -0.29490E-02  8424   0.243E-01-0.391E-02
CGA:  27    -0.671884427052E+03   -0.53156E-02   -0.52090E-02  8424   0.475E-02-0.300E-03
CGA:  28    -0.671886433665E+03   -0.20066E-02   -0.19770E-02  8424   0.370E-02-0.203E-03
CGA:  29    -0.671887592018E+03   -0.11584E-02   -0.11828E-02  8424   0.248E-02 0.100E-03
CGA:  30    -0.671888992624E+03   -0.14006E-02   -0.13964E-02  8424   0.306E-02-0.786E-03
CGA:  31    -0.671890107533E+03   -0.11149E-02   -0.10935E-02  8424   0.365E-02-0.751E-03
CGA:  32    -0.671891642296E+03   -0.15348E-02   -0.22715E-02  8424   0.974E-02-0.277E-02
CGA:  33    -0.671894025392E+03   -0.23831E-02   -0.22991E-02  8424   0.373E-02-0.254E-03
CGA:  34    -0.671895927322E+03   -0.19019E-02   -0.18790E-02  8424   0.468E-02-0.711E-03
CGA:  35    -0.671897873424E+03   -0.19461E-02   -0.18980E-02  8424   0.399E-02-0.103E-02
CGA:  36    -0.671899418299E+03   -0.15449E-02   -0.13709E-02  8424   0.376E-02-0.168E-02
CGA:  37    -0.671900601352E+03   -0.11831E-02   -0.12126E-02  8424   0.577E-02-0.162E-02
CGA:  38    -0.671899367277E+03    0.12341E-02   -0.40936E-02  8424   0.322E-01-0.751E-02
CGA:  39    -0.671906574210E+03   -0.72069E-02   -0.73174E-02  8424   0.860E-02 0.445E-03
CGA:  40    -0.671909754874E+03   -0.31807E-02   -0.31274E-02  8424   0.446E-02-0.278E-03
CGA:  41    -0.671911152662E+03   -0.13978E-02   -0.14781E-02  8424   0.225E-02 0.385E-03
CGA:  42    -0.671912445338E+03   -0.12927E-02   -0.12921E-02  8424   0.212E-02-0.683E-04
CGA:  43    -0.671913365012E+03   -0.91967E-03   -0.89890E-03  8424   0.173E-02-0.214E-03
CGA:  44    -0.671913991794E+03   -0.62678E-03   -0.58596E-03  8424   0.685E-03-0.269E-03
CGA:  45    -0.671914678298E+03   -0.68650E-03    0.11765E-02  8424   0.491E-03 0.203E-03
CGA:  46    -0.671915430200E+03   -0.75190E-03    0.13493E-02  8424   0.564E-03 0.190E-03
CGA:  47    -0.671916530171E+03   -0.11000E-02    0.60599E-03  8424   0.636E-03 0.270E-03
CGA:  48    -0.671917863775E+03   -0.13336E-02    0.70739E-03  8424   0.461E-03 0.278E-03
CGA:  49    -0.671918881197E+03   -0.10174E-02    0.37609E-03  8424   0.598E-03 0.107E-03
CGA:  50    -0.671920084827E+03   -0.12036E-02    0.34839E-03  8424   0.660E-03 0.127E-03
CGA:  51    -0.671921428162E+03   -0.13433E-02    0.35167E-03  8424   0.426E-03 0.935E-04
CGA:  52    -0.671922118771E+03   -0.69061E-03    0.36276E-03  8424   0.393E-03-0.504E-04
CGA:  53    -0.671922689588E+03   -0.57082E-03    0.16009E-03  8424   0.411E-03-0.118E-03
CGA:  54    -0.671923093124E+03   -0.40354E-03    0.22379E-03  8424   0.399E-03-0.189E-03
CGA:  55    -0.671923384790E+03   -0.29167E-03    0.19327E-03  8424   0.411E-03-0.221E-03
CGA:  56    -0.671923546094E+03   -0.16130E-03   -0.14266E-03  8424   0.397E-03-0.104E-03
CGA:  57    -0.671923578116E+03   -0.32021E-04   -0.66639E-04  8424   0.186E-03 0.119E-03
CGA:  58    -0.671923575227E+03    0.28885E-05   -0.33641E-04  8424   0.851E-04 0.101E-03
CGA:  59    -0.671923602311E+03   -0.27083E-04   -0.30057E-04  8424   0.669E-04 0.228E-04
CGA:  60    -0.671923595987E+03    0.63231E-05   -0.13772E-04  8424   0.437E-04 0.639E-04
  14 F= -.67192360E+03 E0= -.67192360E+03  d E =0.483439E+00  mag=    15.0000
       N       E                     dE             d eps       ncg     rms          ort
SDA:   1    -0.660643909489E+03    0.11280E+02    0.00000E+00  8424   0.376E+02 0.000E+00
CGA:   2    -0.668192049880E+03   -0.75481E+01   -0.76622E+01  8424   0.153E+02-0.183E+00
CGA:   3    -0.671386608392E+03   -0.31946E+01   -0.31754E+01  8424   0.427E+01 0.859E-01
CGA:   4    -0.672132532358E+03   -0.74592E+00   -0.74739E+00  8424   0.111E+01 0.543E-02
CGA:   5    -0.672319882598E+03   -0.18735E+00   -0.18823E+00  8424   0.234E+00 0.108E-02
CGA:   6    -0.672367266210E+03   -0.47384E-01   -0.47351E-01  8424   0.511E-01-0.332E-04
CGA:   7    -0.672379305652E+03   -0.12039E-01   -0.12095E-01  8424   0.164E-01 0.350E-03
CGA:   8    -0.672383384623E+03   -0.40790E-02   -0.40942E-02  8424   0.528E-02 0.112E-03
CGA:   9    -0.672384836359E+03   -0.14517E-02   -0.14644E-02  8424   0.188E-02 0.127E-03
CGA:  10    -0.672385354864E+03   -0.51851E-03   -0.54243E-03  8424   0.734E-03 0.274E-03
CGA:  11    -0.672385587781E+03   -0.23292E-03   -0.24346E-03  8424   0.303E-03 0.139E-03
CGA:  12    -0.672385653786E+03   -0.66005E-04   -0.86229E-04  8424   0.159E-03 0.165E-03
CGA:  13    -0.672385681397E+03   -0.27611E-04   -0.38655E-04  8424   0.968E-04 0.984E-04
CGA:  14    -0.672385689443E+03   -0.80458E-05   -0.20268E-04  8424   0.851E-04 0.871E-04
CGA:  15    -0.672385693509E+03   -0.40666E-05   -0.16364E-04  8424   0.800E-04 0.817E-04
CGA:  16    -0.672385695411E+03   -0.19020E-05   -0.14195E-04  8424   0.765E-04 0.779E-04
CGA:  17    -0.672385696495E+03   -0.10835E-05   -0.12940E-04  8424   0.737E-04 0.750E-04
CGA:  18    -0.672385696726E+03   -0.23159E-06   -0.11793E-04  8424   0.714E-04 0.725E-04
CGA:  19    -0.672385696455E+03    0.27123E-06   -0.10903E-04  8424   0.694E-04 0.703E-04
CGA:  20    -0.672385695790E+03    0.66558E-06   -0.10129E-04  8424   0.676E-04 0.685E-04
  15 F= -.67238570E+03 E0= -.67238570E+03  d E =-.462100E+00  mag=    15.0000
       N       E                     dE             d eps       ncg     rms          ort
SDA:   1    -0.671554680754E+03    0.83102E+00    0.00000E+00  8424   0.261E+01 0.000E+00
CGA:   2    -0.672121080766E+03   -0.56640E+00   -0.56663E+00  8424   0.109E+01 0.141E-02
CGA:   3    -0.672342221394E+03   -0.22114E+00   -0.22098E+00  8424   0.317E+00-0.141E-02
CGA:   4    -0.672396145112E+03   -0.53924E-01   -0.53992E-01  8424   0.813E-01 0.598E-03
CGA:   5    -0.672410000965E+03   -0.13856E-01   -0.13942E-01  8424   0.162E-01 0.815E-03
CGA:   6    -0.672413274715E+03   -0.32737E-02   -0.32887E-02  8424   0.362E-02 0.216E-03
CGA:   7    -0.672414116596E+03   -0.84188E-03   -0.84818E-03  8424   0.121E-02 0.181E-03
CGA:   8    -0.672414422975E+03   -0.30638E-03   -0.30930E-03  8424   0.427E-03 0.140E-03
CGA:   9    -0.672414523639E+03   -0.10066E-03   -0.10732E-03  8424   0.197E-03 0.174E-03
CGA:  10    -0.672414551916E+03   -0.28277E-04   -0.45556E-04  8424   0.134E-03 0.178E-03
CGA:  11    -0.672414563474E+03   -0.11558E-04   -0.21504E-04  8424   0.943E-04 0.104E-03
CGA:  12    -0.672414568109E+03   -0.46357E-05   -0.13912E-04  8424   0.850E-04 0.889E-04
CGA:  13    -0.672414570288E+03   -0.21782E-05   -0.11434E-04  8424   0.803E-04 0.825E-04
CGA:  14    -0.672414571498E+03   -0.12103E-05   -0.10191E-04  8424   0.772E-04 0.786E-04
  16 F= -.67241457E+03 E0= -.67241457E+03  d E =-.288757E-01  mag=    15.0000
       N       E                     dE             d eps       ncg     rms          ort
SDA:   1    -0.670290480125E+03    0.21241E+01    0.00000E+00  8424   0.592E+01 0.000E+00
CGA:   2    -0.671708407800E+03   -0.14179E+01   -0.14179E+01  8424   0.268E+01 0.281E-02
CGA:   3    -0.672222049152E+03   -0.51364E+00   -0.51349E+00  8424   0.716E+00-0.324E-02
CGA:   4    -0.672343240413E+03   -0.12119E+00   -0.12127E+00  8424   0.180E+00 0.139E-02
CGA:   5    -0.672373975261E+03   -0.30735E-01   -0.30840E-01  8424   0.357E-01 0.191E-02
CGA:   6    -0.672381214074E+03   -0.72388E-02   -0.72496E-02  8424   0.815E-02 0.505E-03
CGA:   7    -0.672383156684E+03   -0.19426E-02   -0.19397E-02  8424   0.284E-02 0.212E-03
CGA:   8    -0.672383888411E+03   -0.73173E-03   -0.72635E-03  8424   0.101E-02 0.193E-03
CGA:   9    -0.672384164400E+03   -0.27599E-03   -0.26861E-03  8424   0.430E-03 0.275E-03
CGA:  10    -0.672384260858E+03   -0.96458E-04   -0.10598E-03  8424   0.249E-03 0.303E-03
CGA:  11    -0.672384304875E+03   -0.44017E-04   -0.48673E-04  8424   0.153E-03 0.167E-03
CGA:  12    -0.672384327013E+03   -0.22138E-04   -0.27774E-04  8424   0.133E-03 0.140E-03
CGA:  13    -0.672384341962E+03   -0.14949E-04   -0.21975E-04  8424   0.124E-03 0.128E-03
CGA:  14    -0.672384354187E+03   -0.12225E-04   -0.19490E-04  8424   0.118E-03 0.121E-03
CGA:  15    -0.672384364364E+03   -0.10178E-04   -0.17666E-04  8424   0.114E-03 0.116E-03
CGA:  16    -0.672384373091E+03   -0.87266E-05   -0.16300E-04  8424   0.110E-03 0.112E-03
CGA:  17    -0.672384380705E+03   -0.76143E-05   -0.15200E-04  8424   0.107E-03 0.109E-03
CGA:  18    -0.672384387433E+03   -0.67273E-05   -0.14277E-04  8424   0.105E-03 0.106E-03
CGA:  19    -0.672384393435E+03   -0.60020E-05   -0.13481E-04  8424   0.103E-03 0.104E-03
CGA:  20    -0.672384398832E+03   -0.53970E-05   -0.12781E-04  8424   0.101E-03 0.102E-03
CGA:  21    -0.672384403716E+03   -0.48842E-05   -0.12156E-04  8424   0.991E-04 0.999E-04
CGA:  22    -0.672384408160E+03   -0.44442E-05   -0.11591E-04  8424   0.975E-04 0.983E-04
CGA:  23    -0.672384412223E+03   -0.40631E-05   -0.11076E-04  8424   0.961E-04 0.968E-04
CGA:  24    -0.672384415956E+03   -0.37330E-05   -0.10606E-04  8424   0.948E-04 0.954E-04
CGA:  25    -0.672384419397E+03   -0.34413E-05   -0.10171E-04  8424   0.936E-04 0.941E-04
  17 F= -.67238442E+03 E0= -.67238442E+03  d E =0.301521E-01  mag=    15.0000
       N       E                     dE             d eps       ncg     rms          ort
SDA:   1    -0.671933240906E+03    0.45118E+00    0.00000E+00  8424   0.110E+01 0.000E+00
CGA:   2    -0.672246505862E+03   -0.31326E+00   -0.31343E+00  8424   0.536E+00-0.160E-02
CGA:   3    -0.672341760485E+03   -0.95255E-01   -0.95255E-01  8424   0.122E+00-0.567E-03
CGA:   4    -0.672362128202E+03   -0.20368E-01   -0.20379E-01  8424   0.293E-01 0.119E-02
CGA:   5    -0.672367087102E+03   -0.49589E-02   -0.49677E-02  8424   0.607E-02 0.101E-02
CGA:   6    -0.672368354334E+03   -0.12672E-02   -0.12577E-02  8424   0.148E-02 0.398E-03
