       N       E                     dE             d eps       ncg     rms          ort
DAV:   1     0.828510887740E+04    0.82851E+04   -0.24676E+05  8424   0.238E+03
DAV:   2     0.917192210190E+03   -0.73679E+04   -0.69184E+04  8424   0.658E+02
DAV:   3    -0.678326218443E+03   -0.15955E+04   -0.14037E+04  8424   0.283E+02
DAV:   4    -0.834411642663E+03   -0.15609E+03   -0.15336E+03  8424   0.857E+01
DAV:   5    -0.836938645351E+03   -0.25270E+01   -0.25151E+01  8424   0.122E+01
SDA:   6    -0.225355866288E+03    0.61158E+03   -0.25151E+01  8424   0.904E+04 0.000E+00
CGA:   7    -0.686904756565E+02    0.15667E+03   -0.52948E+03  8424   0.308E+05-0.515E+04
CGA:   8     0.251103744382E+04    0.25797E+04   -0.19733E+04  8424   0.223E+06-0.767E+05
CGA:   9     0.589629147730E+04    0.33853E+04   -0.18573E+05  8424   0.425E+05-0.258E+05
CGA:  10     0.380351042847E+04   -0.20928E+04   -0.22435E+04  8424   0.995E+05-0.106E+06
CGA:  11     0.540159678720E+04    0.15981E+04   -0.68753E+04  8424   0.277E+05-0.204E+05
CGA:  12     0.893024562131E+03   -0.45086E+04   -0.10225E+04  8424   0.244E+05-0.608E+05
CGA:  13     0.168215519110E+04    0.78913E+03   -0.11195E+04  8424   0.573E+05-0.292E+05
CGA:  14     0.424474478661E+04    0.25626E+04   -0.32482E+04  8424   0.189E+05-0.133E+05
CGA:  15    -0.371487629873E+03   -0.46162E+04   -0.41788E+03  8424   0.896E+04-0.289E+05
CGA:  16    -0.576275967654E+03   -0.20479E+03   -0.34280E+03  8424   0.380E+04-0.550E+04
CGA:  17    -0.584966789520E+03   -0.86908E+01   -0.20229E+03  8424   0.107E+04-0.827E+03
CGA:  18    -0.638813201937E+03   -0.53846E+02   -0.20095E+02  8424   0.771E+02 0.161E+03
CGA:  19    -0.652139906892E+03   -0.13327E+02   -0.12868E+02  8424   0.772E+02 0.190E+02
CGA:  20    -0.662800556506E+03   -0.10661E+02   -0.10965E+02  8424   0.451E+02 0.557E+01
CGA:  21    -0.667105788996E+03   -0.43052E+01   -0.48471E+01  8424   0.373E+02 0.437E+01
CGA:  22    -0.670808261940E+03   -0.37025E+01   -0.35287E+01  8424   0.219E+02-0.704E+01
CGA:  23    -0.672209662462E+03   -0.14014E+01   -0.96017E+00  8424   0.100E+02 0.107E+02
CGA:  24    -0.672536061768E+03   -0.32640E+00   -0.52374E+00  8424   0.167E+02-0.119E+02
CGA:  25    -0.672885837935E+03   -0.34978E+00   -0.85644E+00  8424   0.132E+02-0.684E+01
CGA:  26    -0.673808902448E+03   -0.92306E+00   -0.11184E+01  8424   0.136E+02-0.565E+01
CGA:  27    -0.674265096864E+03   -0.45619E+00   -0.56387E+00  8424   0.223E+01 0.112E-01
CGA:  28    -0.674539849402E+03   -0.27475E+00   -0.27463E+00  8424   0.197E+01 0.342E-01
CGA:  29    -0.674667545242E+03   -0.12770E+00   -0.14495E+00  8424   0.620E+00 0.931E-03
CGA:  30    -0.674819861013E+03   -0.15232E+00   -0.16069E+00  8424   0.108E+01-0.618E-01
CGA:  31    -0.674896816525E+03   -0.76956E-01   -0.78932E-01  8424   0.225E+00-0.191E-01
CGA:  32    -0.674933336493E+03   -0.36520E-01   -0.36081E-01  8424   0.691E-01 0.889E-02
CGA:  33    -0.674947312765E+03   -0.13976E-01   -0.13537E-01  8424   0.517E-01 0.471E-02
CGA:  34    -0.674952851300E+03   -0.55385E-02   -0.55429E-02  8424   0.320E-01 0.461E-03
CGA:  35    -0.674952671246E+03    0.18005E-03   -0.39177E-02  8424   0.236E+00-0.387E-01
CGA:  36    -0.674986822375E+03   -0.34151E-01   -0.34551E-01  8424   0.435E-01 0.268E-02
CGA:  37    -0.674996917331E+03   -0.10095E-01   -0.10099E-01  8424   0.744E-01-0.114E-04
CGA:  38    -0.675022661056E+03   -0.25744E-01   -0.28468E-01  8424   0.979E-01-0.182E-01
CGA:  39    -0.674633590649E+03    0.38907E+00   -0.15639E+00  8424   0.325E+01-0.503E+00
CGA:  40    -0.675064745100E+03   -0.43115E+00   -0.47373E+00  8424   0.423E+00-0.223E+00
CGA:  41    -0.675191612993E+03   -0.12687E+00   -0.12679E+00  8424   0.994E-01-0.209E-02
CGA:  42    -0.675219574630E+03   -0.27962E-01   -0.27425E-01  8424   0.435E-01-0.521E-02
CGA:  43    -0.675233930858E+03   -0.14356E-01   -0.14316E-01  8424   0.227E-01-0.735E-03
CGA:  44    -0.675241544887E+03   -0.76140E-02   -0.74765E-02  8424   0.738E-02-0.258E-02
CGA:  45    -0.675243632439E+03   -0.20876E-02   -0.20310E-02  8424   0.324E-02-0.709E-03
CGA:  46    -0.675244753438E+03   -0.11210E-02   -0.17319E-02  8424   0.976E-02-0.297E-02
CGA:  47    -0.675246041122E+03   -0.12877E-02   -0.13352E-02  8424   0.100E-02 0.231E-03
CGA:  48    -0.675246859792E+03   -0.81867E-03    0.46214E-02  8424   0.644E-03 0.215E-03
CGA:  49    -0.675247735666E+03   -0.87587E-03    0.31981E-03  8424   0.452E-03 0.335E-03
CGA:  50    -0.675243390103E+03    0.43456E-02   -0.23368E-02  8424   0.451E-01-0.262E-02
CGA:  51    -0.675249557208E+03   -0.61671E-02   -0.60381E-02  8424   0.196E-02-0.118E-02
CGA:  52    -0.675250049991E+03   -0.49278E-03   -0.52890E-03  8424   0.445E-03 0.899E-04
CGA:  53    -0.675249972183E+03    0.77808E-04   -0.53613E-03  8424   0.764E-02-0.123E-02
CGA:  54    -0.675250856223E+03   -0.88404E-03   -0.10971E-02  8424   0.755E-03 0.425E-03
CGA:  55    -0.675251220281E+03   -0.36406E-03   -0.32905E-03  8424   0.542E-03-0.152E-03
CGA:  56    -0.675251493223E+03   -0.27294E-03   -0.28249E-03  8424   0.245E-02-0.597E-03
CGA:  57    -0.675251873578E+03   -0.38036E-03   -0.42579E-03  8424   0.450E-03 0.975E-04
CGA:  58    -0.675252179755E+03   -0.30618E-03   -0.39403E-03  8424   0.127E-02-0.393E-03
CGA:  59    -0.675252689556E+03   -0.50980E-03   -0.39661E-03  8424   0.115E-02-0.366E-03
CGA:  60    -0.675252933050E+03   -0.24349E-03   -0.20466E-03  8424   0.450E-03-0.113E-03
CGA:  61    -0.675253132821E+03   -0.19977E-03   -0.49543E-03  8424   0.654E-02-0.492E-03
CGA:  62    -0.675254271407E+03   -0.11386E-02   -0.92197E-03  8424   0.486E-03-0.491E-03
CGA:  63    -0.675254545279E+03   -0.27387E-03   -0.28532E-03  8424   0.165E-02-0.329E-03
CGA:  64    -0.675254932869E+03   -0.38759E-03   -0.29594E-03  8424   0.457E-03-0.223E-03
CGA:  65    -0.675255184549E+03   -0.25168E-03   -0.27809E-03  8424   0.171E-02-0.222E-03
CGA:  66    -0.675257055741E+03   -0.18712E-02    0.31349E-03  8424   0.350E-02 0.434E-03
CGA:  67    -0.675263182905E+03   -0.61272E-02    0.66422E-02  8424   0.134E-01-0.822E-04
CGA:  68    -0.675294357174E+03   -0.31174E-01    0.37075E-02  8424   0.486E-01 0.259E-02
CGA:  69    -0.675371407750E+03   -0.77051E-01    0.12567E+00  8424   0.368E+00-0.228E+00
CGA:  70    -0.675437813173E+03   -0.66405E-01   -0.68242E-01  8424   0.730E-01 0.420E-02
CGA:  71    -0.675453711828E+03   -0.15899E-01   -0.17555E-01  8424   0.125E-01 0.550E-02
CGA:  72    -0.675457992428E+03   -0.42806E-02   -0.51564E-02  8424   0.101E-01 0.525E-02
CGA:  73    -0.675460425141E+03   -0.24327E-02   -0.42073E-02  8424   0.511E-02 0.732E-02
CGA:  74    -0.675461255645E+03   -0.83050E-03   -0.14203E-02  8424   0.362E-02 0.236E-02
CGA:  75    -0.675461677254E+03   -0.42161E-03   -0.13970E-02  8424   0.278E-02 0.388E-02
CGA:  76    -0.675461773356E+03   -0.96102E-04   -0.66250E-03  8424   0.208E-02 0.214E-02
CGA:  77    -0.675461743409E+03    0.29946E-04   -0.48064E-03  8424   0.190E-02 0.197E-02
CGA:  78    -0.675461668988E+03    0.74421E-04   -0.40610E-03  8424   0.177E-02 0.183E-02
CGA:  79    -0.675461584816E+03    0.84173E-04   -0.35955E-03  8424   0.165E-02 0.171E-02
CGA:  80    -0.675461484239E+03    0.10058E-03   -0.31554E-03  8424   0.155E-02 0.160E-02
CGA:  81    -0.675461378123E+03    0.10612E-03   -0.28179E-03  8424   0.147E-02 0.151E-02
CGA:  82    -0.675461266145E+03    0.11198E-03   -0.25165E-03  8424   0.139E-02 0.143E-02
CGA:  83    -0.675461152790E+03    0.11335E-03   -0.22693E-03  8424   0.133E-02 0.136E-02
CGA:  84    -0.675461038264E+03    0.11453E-03   -0.20496E-03  8424   0.127E-02 0.130E-02
CGA:  85    -0.675460924947E+03    0.11332E-03   -0.18644E-03  8424   0.122E-02 0.124E-02
CGA:  86    -0.675460812753E+03    0.11219E-03   -0.16982E-03  8424   0.117E-02 0.119E-02
CGA:  87    -0.675460703130E+03    0.10962E-03   -0.15559E-03  8424   0.113E-02 0.115E-02
CGA:  88    -0.675460595776E+03    0.10735E-03   -0.14267E-03  8424   0.109E-02 0.111E-02
CGA:  89    -0.675460491648E+03    0.10413E-03   -0.13150E-03  8424   0.105E-02 0.107E-02
CGA:  90    -0.675460390316E+03    0.10133E-03   -0.12124E-03  8424   0.102E-02 0.104E-02
CGA:  91    -0.675460292489E+03    0.97827E-04   -0.11233E-03  8424   0.989E-03 0.100E-02
CGA:  92    -0.675460197621E+03    0.94868E-04   -0.10402E-03  8424   0.961E-03 0.975E-03
CGA:  93    -0.675460106354E+03    0.91268E-04   -0.96820E-04  8424   0.936E-03 0.949E-03
CGA:  94    -0.675460017960E+03    0.88394E-04   -0.89960E-04  8424   0.913E-03 0.924E-03
CGA:  95    -0.675459933222E+03    0.84738E-04   -0.84121E-04  8424   0.891E-03 0.902E-03
CGA:  96    -0.675459851044E+03    0.82178E-04   -0.78301E-04  8424   0.871E-03 0.881E-03
CGA:  97    -0.675459772735E+03    0.78308E-04   -0.73647E-04  8424   0.852E-03 0.862E-03
CGA:  98    -0.675459696266E+03    0.76469E-04   -0.68436E-04  8424   0.835E-03 0.843E-03
CGA:  99    -0.675459624521E+03    0.71745E-04   -0.65071E-04  8424   0.819E-03 0.826E-03
CGA: 100    -0.675459553081E+03    0.71440E-04   -0.59862E-04  8424   0.805E-03 0.810E-03
CGA: 101    -0.675459488167E+03    0.64914E-04   -0.58091E-04  8424   0.792E-03 0.794E-03
CGA: 102    -0.675459421506E+03    0.66660E-04   -0.52547E-04  8424   0.779E-03 0.779E-03
CGA: 103    -0.675459362213E+03    0.59293E-04   -0.51887E-04  8424   0.766E-03 0.766E-03
CGA: 104    -0.675459300952E+03    0.61262E-04   -0.46879E-04  8424   0.753E-03 0.755E-03
CGA: 105    -0.675459245271E+03    0.55681E-04   -0.45860E-04  8424   0.741E-03 0.745E-03
CGA: 106    -0.675459189471E+03    0.55800E-04   -0.42221E-04  8424   0.730E-03 0.734E-03
CGA: 107    -0.675459137187E+03    0.52284E-04   -0.40598E-04  8424   0.720E-03 0.724E-03
CGA: 108    -0.675459085980E+03    0.51207E-04   -0.37958E-04  8424   0.711E-03 0.715E-03
CGA: 109    -0.675459037430E+03    0.48550E-04   -0.36288E-04  8424   0.702E-03 0.706E-03
CGA: 110    -0.675458990234E+03    0.47195E-04   -0.34138E-04  8424   0.694E-03 0.698E-03
CGA: 111    -0.675458945351E+03    0.44883E-04   -0.32620E-04  8424   0.686E-03 0.690E-03
CGA: 112    -0.675458901781E+03    0.43571E-04   -0.30749E-04  8424   0.679E-03 0.682E-03
CGA: 113    -0.675458860389E+03    0.41392E-04   -0.29443E-04  8424   0.672E-03 0.675E-03
CGA: 114    -0.675458820168E+03    0.40221E-04   -0.27760E-04  8424   0.666E-03 0.668E-03
CGA: 115    -0.675458782042E+03    0.38125E-04   -0.26655E-04  8424   0.659E-03 0.662E-03
CGA: 116    -0.675458744948E+03    0.37094E-04   -0.25133E-04  8424   0.653E-03 0.656E-03
CGA: 117    -0.675458709753E+03    0.35195E-04   -0.24148E-04  8424   0.648E-03 0.650E-03
CGA: 118    -0.675458675563E+03    0.34190E-04   -0.22818E-04  8424   0.642E-03 0.644E-03
CGA: 119    -0.675458642987E+03    0.32576E-04   -0.21884E-04  8424   0.637E-03 0.639E-03
CGA: 120    -0.675458611439E+03    0.31549E-04   -0.20746E-04  8424   0.632E-03 0.634E-03
CGA: 121    -0.675458581282E+03    0.30157E-04   -0.19870E-04  8424   0.627E-03 0.629E-03
CGA: 122    -0.675458552143E+03    0.29139E-04   -0.18884E-04  8424   0.623E-03 0.625E-03
CGA: 123    -0.675458524253E+03    0.27889E-04   -0.18086E-04  8424   0.619E-03 0.621E-03
CGA: 124    -0.675458497337E+03    0.26916E-04   -0.17217E-04  8424   0.615E-03 0.617E-03
CGA: 125    -0.675458471561E+03    0.25776E-04   -0.16494E-04  8424   0.611E-03 0.613E-03
CGA: 126    -0.675458446701E+03    0.24860E-04   -0.15721E-04  8424   0.607E-03 0.609E-03
CGA: 127    -0.675458422876E+03    0.23825E-04   -0.15063E-04  8424   0.604E-03 0.605E-03
CGA: 128    -0.675458399911E+03    0.22966E-04   -0.14373E-04  8424   0.601E-03 0.602E-03
CGA: 129    -0.675458377878E+03    0.22033E-04   -0.13770E-04  8424   0.597E-03 0.599E-03
CGA: 130    -0.675458356650E+03    0.21228E-04   -0.13152E-04  8424   0.594E-03 0.596E-03
CGA: 131    -0.675458336266E+03    0.20384E-04   -0.12600E-04  8424   0.592E-03 0.593E-03
CGA: 132    -0.675458316635E+03    0.19630E-04   -0.12047E-04  8424   0.589E-03 0.590E-03
CGA: 133    -0.675458297774E+03    0.18861E-04   -0.11542E-04  8424   0.586E-03 0.587E-03
CGA: 134    -0.675458279619E+03    0.18156E-04   -0.11045E-04  8424   0.584E-03 0.585E-03
CGA: 135    -0.675458262168E+03    0.17451E-04   -0.10585E-04  8424   0.581E-03 0.582E-03
CGA: 136    -0.675458245376E+03    0.16792E-04   -0.10137E-04  8424   0.579E-03 0.580E-03
CGA: 137    -0.675458229229E+03    0.16147E-04   -0.97159E-05  8424   0.577E-03 0.578E-03
CGA: 138    -0.675458213696E+03    0.15533E-04   -0.93110E-05  8424   0.575E-03 0.575E-03
CGA: 139    -0.675458198754E+03    0.14942E-04   -0.89253E-05  8424   0.573E-03 0.573E-03
CGA: 140    -0.675458184381E+03    0.14373E-04   -0.85581E-05  8424   0.571E-03 0.571E-03
CGA: 141    -0.675458170550E+03    0.13831E-04   -0.82046E-05  8424   0.569E-03 0.570E-03
CGA: 142    -0.675458157248E+03    0.13302E-04   -0.78709E-05  8424   0.567E-03 0.568E-03
CGA: 143    -0.675458144443E+03    0.12805E-04   -0.75471E-05  8424   0.565E-03 0.566E-03
CGA: 144    -0.675458132130E+03    0.12314E-04   -0.72436E-05  8424   0.564E-03 0.564E-03
CGA: 145    -0.675458120274E+03    0.11855E-04   -0.69468E-05  8424   0.562E-03 0.563E-03
CGA: 146    -0.675458108875E+03    0.11399E-04   -0.66705E-05  8424   0.561E-03 0.561E-03
CGA: 147    -0.675458097898E+03    0.10977E-04   -0.63981E-05  8424   0.559E-03 0.560E-03
CGA: 148    -0.675458087345E+03    0.10554E-04   -0.61461E-05  8424   0.558E-03 0.558E-03
CGA: 149    -0.675458077180E+03    0.10165E-04   -0.58959E-05  8424   0.556E-03 0.557E-03
CGA: 150    -0.675458067407E+03    0.97726E-05   -0.56656E-05  8424   0.555E-03 0.556E-03
   1 F= -.67545807E+03 E0= -.67545807E+03  d E =-.675458E+03  mag=     1.0000
       N       E                     dE             d eps       ncg     rms          ort
SDA:   1    -0.675459638502E+03   -0.15613E-02    0.00000E+00  8424   0.140E-01 0.000E+00
CGA:   2    -0.675462518843E+03   -0.28803E-02   -0.20423E-02  8424   0.538E-02 0.757E-02
CGA:   3    -0.675463361846E+03   -0.84300E-03   -0.57344E-03  8424   0.332E-02 0.409E-02
CGA:   4    -0.675463716917E+03   -0.35507E-03   -0.25912E-03  8424   0.246E-02 0.282E-02
CGA:   5    -0.675463907494E+03   -0.19058E-03   -0.15397E-03  8424   0.198E-02 0.218E-02
CGA:   6    -0.675464021148E+03   -0.11365E-03   -0.10336E-03  8424   0.166E-02 0.180E-02
CGA:   7    -0.675464092941E+03   -0.71793E-04   -0.74665E-04  8424   0.144E-02 0.153E-02
CGA:   8    -0.675464139810E+03   -0.46869E-04   -0.56726E-04  8424   0.127E-02 0.135E-02
CGA:   9    -0.675464170901E+03   -0.31091E-04   -0.44728E-04  8424   0.115E-02 0.121E-02
CGA:  10    -0.675464191549E+03   -0.20648E-04   -0.36291E-04  8424   0.105E-02 0.110E-02
CGA:  11    -0.675464205052E+03   -0.13503E-04   -0.30122E-04  8424   0.972E-03 0.101E-02
CGA:  12    -0.675464213539E+03   -0.84872E-05   -0.25468E-04  8424   0.907E-03 0.937E-03
CGA:  13    -0.675464218437E+03   -0.48977E-05   -0.21865E-04  8424   0.853E-03 0.878E-03
CGA:  14    -0.675464220727E+03   -0.22899E-05   -0.19014E-04  8424   0.808E-03 0.829E-03
CGA:  15    -0.675464221102E+03   -0.37524E-06   -0.16716E-04  8424   0.769E-03 0.787E-03
CGA:  16    -0.675464220062E+03    0.10402E-05   -0.14834E-04  8424   0.736E-03 0.752E-03
CGA:  17    -0.675464217972E+03    0.20900E-05   -0.13271E-04  8424   0.707E-03 0.721E-03
CGA:  18    -0.675464215103E+03    0.28681E-05   -0.11957E-04  8424   0.682E-03 0.694E-03
CGA:  19    -0.675464211662E+03    0.34417E-05   -0.10839E-04  8424   0.659E-03 0.670E-03
   2 F= -.67546421E+03 E0= -.67546421E+03  d E =-.614425E-02  mag=     1.0000
       N       E                     dE             d eps       ncg     rms          ort
SDA:   1    -0.675337503167E+03    0.12671E+00    0.00000E+00  8424   0.423E+00 0.000E+00
CGA:   2    -0.675458990459E+03   -0.12149E+00   -0.24431E-01  8424   0.109E+00 0.112E+00
CGA:   3    -0.675496563728E+03   -0.37573E-01   -0.37661E-01  8424   0.445E-01-0.422E-03
CGA:   4    -0.675503127115E+03   -0.65634E-02   -0.62836E-02  8424   0.869E-02 0.416E-02
CGA:   5    -0.675504479731E+03   -0.13526E-02   -0.11854E-02  8424   0.268E-02 0.356E-02
CGA:   6    -0.675504814019E+03   -0.33429E-03   -0.32280E-03  8424   0.133E-02 0.224E-02
CGA:   7    -0.675504884121E+03   -0.70102E-04   -0.86675E-04  8424   0.946E-03 0.110E-02
CGA:   8    -0.675504905488E+03   -0.21367E-04   -0.47138E-04  8424   0.792E-03 0.864E-03
CGA:   9    -0.675504911741E+03   -0.62534E-05   -0.33189E-04  8424   0.699E-03 0.743E-03
CGA:  10    -0.675504910931E+03    0.81009E-06   -0.25619E-04  8424   0.635E-03 0.666E-03
CGA:  11    -0.675504906320E+03    0.46113E-05   -0.20804E-04  8424   0.588E-03 0.611E-03
CGA:  12    -0.675504899527E+03    0.67923E-05   -0.17457E-04  8424   0.552E-03 0.569E-03
CGA:  13    -0.675504891456E+03    0.80717E-05   -0.14992E-04  8424   0.523E-03 0.537E-03
CGA:  14    -0.675504882644E+03    0.88121E-05   -0.13100E-04  8424   0.499E-03 0.510E-03
CGA:  15    -0.675504873430E+03    0.92135E-05   -0.11600E-04  8424   0.479E-03 0.488E-03
CGA:  16    -0.675504864036E+03    0.93945E-05   -0.10383E-04  8424   0.463E-03 0.470E-03
   3 F= -.67550486E+03 E0= -.67550486E+03  d E =-.406524E-01  mag=     1.0000
       N       E                     dE             d eps       ncg     rms          ort
SDA:   1    -0.602042160858E+03    0.73463E+02    0.00000E+00  8424   0.221E+03 0.000E+00
CGA:   2    -0.649807231056E+03   -0.47765E+02   -0.42496E+02  8424   0.738E+02 0.371E+02
CGA:   3    -0.668561872501E+03   -0.18755E+02   -0.18570E+02  8424   0.259E+02 0.128E+01
CGA:   4    -0.673805476741E+03   -0.52436E+01   -0.52891E+01  8424   0.565E+01-0.297E+00
CGA:   5    -0.674834631049E+03   -0.10292E+01   -0.10269E+01  8424   0.175E+01 0.290E-01
CGA:   6    -0.675188942648E+03   -0.35431E+00   -0.34943E+00  8424   0.515E+00 0.456E-01
CGA:   7    -0.675344378603E+03   -0.15544E+00   -0.15441E+00  8424   0.249E+00 0.605E-02
CGA:   8    -0.675406667547E+03   -0.62289E-01   -0.60317E-01  8424   0.848E-01 0.141E-01
CGA:   9    -0.675432139479E+03   -0.25472E-01   -0.23505E-01  8424   0.319E-01 0.127E-01
CGA:  10    -0.675441785968E+03   -0.96465E-02   -0.83994E-02  8424   0.109E-01 0.110E-01
CGA:  11    -0.675444523624E+03   -0.27377E-02   -0.23957E-02  8424   0.515E-02 0.797E-02
CGA:  12    -0.675445246752E+03   -0.72313E-03   -0.68469E-03  8424   0.343E-02 0.398E-02
CGA:  13    -0.675445573885E+03   -0.32713E-03   -0.37384E-03  8424   0.292E-02 0.316E-02
CGA:  14    -0.675445783360E+03   -0.20947E-03   -0.28253E-03  8424   0.263E-02 0.277E-02
CGA:  15    -0.675445932347E+03   -0.14899E-03   -0.23341E-03  8424   0.245E-02 0.254E-02
CGA:  16    -0.675446045140E+03   -0.11279E-03   -0.20222E-03  8424   0.231E-02 0.238E-02
CGA:  17    -0.675446134020E+03   -0.88881E-04   -0.18029E-03  8424   0.221E-02 0.226E-02
CGA:  18    -0.675446205976E+03   -0.71956E-04   -0.16374E-03  8424   0.213E-02 0.217E-02
CGA:  19    -0.675446265358E+03   -0.59383E-04   -0.15062E-03  8424   0.206E-02 0.210E-02
CGA:  20    -0.675446315111E+03   -0.49752E-04   -0.13988E-03  8424   0.201E-02 0.204E-02
CGA:  21    -0.675446357241E+03   -0.42130E-04   -0.13080E-03  8424   0.196E-02 0.198E-02
CGA:  22    -0.675446393190E+03   -0.35949E-04   -0.12296E-03  8424   0.192E-02 0.194E-02
CGA:  23    -0.675446424045E+03   -0.30856E-04   -0.11606E-03  8424   0.188E-02 0.190E-02
CGA:  24    -0.675446450659E+03   -0.26614E-04   -0.10994E-03  8424   0.185E-02 0.186E-02
CGA:  25    -0.675446473686E+03   -0.23028E-04   -0.10443E-03  8424   0.182E-02 0.183E-02
CGA:  26    -0.675446493650E+03   -0.19963E-04   -0.99415E-04  8424   0.179E-02 0.181E-02
CGA:  27    -0.675446510991E+03   -0.17341E-04   -0.94842E-04  8424   0.177E-02 0.178E-02
CGA:  28    -0.675446526152E+03   -0.15162E-04   -0.90723E-04  8424   0.175E-02 0.176E-02
CGA:  29    -0.675446539514E+03   -0.13361E-04   -0.87010E-04  8424   0.173E-02 0.174E-02
CGA:  30    -0.675446551310E+03   -0.11796E-04   -0.83573E-04  8424   0.171E-02 0.172E-02
CGA:  31    -0.675446561716E+03   -0.10406E-04   -0.80353E-04  8424   0.170E-02 0.170E-02
CGA:  32    -0.675446570878E+03   -0.91620E-05   -0.77322E-04  8424   0.168E-02 0.169E-02
CGA:  33    -0.675446578923E+03   -0.80450E-05   -0.74460E-04  8424   0.167E-02 0.167E-02
CGA:  34    -0.675446585962E+03   -0.70384E-05   -0.71749E-04  8424   0.166E-02 0.166E-02
CGA:  35    -0.675446592089E+03   -0.61274E-05   -0.69174E-04  8424   0.164E-02 0.165E-02
CGA:  36    -0.675446597388E+03   -0.52984E-05   -0.66718E-04  8424   0.163E-02 0.164E-02
CGA:  37    -0.675446601926E+03   -0.45382E-05   -0.64368E-04  8424   0.162E-02 0.163E-02
CGA:  38    -0.675446605759E+03   -0.38328E-05   -0.62108E-04  8424   0.161E-02 0.162E-02
CGA:  39    -0.675446608933E+03   -0.31747E-05   -0.59927E-04  8424   0.160E-02 0.161E-02
CGA:  40    -0.675446611498E+03   -0.25650E-05   -0.57826E-04  8424   0.159E-02 0.159E-02
CGA:  41    -0.675446613504E+03   -0.20053E-05   -0.55807E-04  8424   0.158E-02 0.158E-02
CGA:  42    -0.675446615000E+03   -0.14965E-05   -0.53870E-04  8424   0.157E-02 0.157E-02
CGA:  43    -0.675446616037E+03   -0.10372E-05   -0.52016E-04  8424   0.156E-02 0.157E-02
CGA:  44    -0.675446616660E+03   -0.62271E-06   -0.50238E-04  8424   0.155E-02 0.156E-02
CGA:  45    -0.675446616908E+03   -0.24771E-06   -0.48532E-04  8424   0.154E-02 0.155E-02
CGA:  46    -0.675446616818E+03    0.89804E-07   -0.46895E-04  8424   0.154E-02 0.154E-02
CGA:  47    -0.675446616424E+03    0.39410E-06   -0.45323E-04  8424   0.153E-02 0.153E-02
CGA:  48    -0.675446615757E+03    0.66721E-06   -0.43813E-04  8424   0.152E-02 0.152E-02
CGA:  49    -0.675446614845E+03    0.91200E-06   -0.42362E-04  8424   0.151E-02 0.152E-02
CGA:  50    -0.675446613714E+03    0.11309E-05   -0.40968E-04  8424   0.151E-02 0.151E-02
CGA:  51    -0.675446612387E+03    0.13263E-05   -0.39628E-04  8424   0.150E-02 0.150E-02
CGA:  52    -0.675446610887E+03    0.15000E-05   -0.38338E-04  8424   0.149E-02 0.149E-02
CGA:  53    -0.675446609233E+03    0.16540E-05   -0.37097E-04  8424   0.149E-02 0.149E-02
CGA:  54    -0.675446607442E+03    0.17910E-05   -0.35903E-04  8424   0.148E-02 0.148E-02
CGA:  55    -0.675446605530E+03    0.19118E-05   -0.34752E-04  8424   0.147E-02 0.148E-02
CGA:  56    -0.675446603511E+03    0.20192E-05   -0.33644E-04  8424   0.147E-02 0.147E-02
CGA:  57    -0.675446601398E+03    0.21131E-05   -0.32575E-04  8424   0.146E-02 0.146E-02
CGA:  58    -0.675446599199E+03    0.21991E-05   -0.31542E-04  8424   0.146E-02 0.146E-02
CGA:  59    -0.675446596928E+03    0.22713E-05   -0.30543E-04  8424   0.145E-02 0.145E-02
CGA:  60    -0.675446594582E+03    0.23461E-05   -0.29571E-04  8424   0.145E-02 0.145E-02
CGA:  61    -0.675446592194E+03    0.23874E-05   -0.28645E-04  8424   0.145E-02 0.144E-02
CGA:  62    -0.675446589759E+03    0.24351E-05   -0.27748E-04  8424   0.144E-02 0.143E-02
CGA:  63    -0.675446587322E+03    0.24368E-05   -0.26906E-04  8424   0.144E-02 0.143E-02
CGA:  64    -0.675446584850E+03    0.24721E-05   -0.26073E-04  8424   0.143E-02 0.143E-02
CGA:  65    -0.675446582363E+03    0.24873E-05   -0.25270E-04  8424   0.143E-02 0.142E-02
CGA:  66    -0.675446579840E+03    0.25224E-05   -0.24479E-04  8424   0.142E-02 0.142E-02
CGA:  67    -0.675446577301E+03    0.25395E-05   -0.23723E-04  8424   0.142E-02 0.142E-02
CGA:  68    -0.675446574748E+03    0.25524E-05   -0.22995E-04  8424   0.141E-02 0.141E-02
CGA:  69    -0.675446572190E+03    0.25584E-05   -0.22293E-04  8424   0.141E-02 0.141E-02
CGA:  70    -0.675446569628E+03    0.25620E-05   -0.21615E-04  8424   0.141E-02 0.141E-02
CGA:  71    -0.675446567066E+03    0.25619E-05   -0.20958E-04  8424   0.140E-02 0.140E-02
CGA:  72    -0.675446564507E+03    0.25590E-05   -0.20322E-04  8424   0.140E-02 0.140E-02
CGA:  73    -0.675446561954E+03    0.25530E-05   -0.19705E-04  8424   0.140E-02 0.140E-02
CGA:  74    -0.675446559410E+03    0.25442E-05   -0.19108E-04  8424   0.139E-02 0.139E-02
CGA:  75    -0.675446556878E+03    0.25325E-05   -0.18529E-04  8424   0.139E-02 0.139E-02
CGA:  76    -0.675446554359E+03    0.25187E-05   -0.17969E-04  8424   0.139E-02 0.139E-02
CGA:  77    -0.675446551856E+03    0.25024E-05   -0.17425E-04  8424   0.139E-02 0.139E-02
CGA:  78    -0.675446549372E+03    0.24846E-05   -0.16899E-04  8424   0.138E-02 0.138E-02
CGA:  79    -0.675446546907E+03    0.24648E-05   -0.16389E-04  8424   0.138E-02 0.138E-02
CGA:  80    -0.675446544463E+03    0.24439E-05   -0.15894E-04  8424   0.138E-02 0.138E-02
CGA:  81    -0.675446542042E+03    0.24214E-05   -0.15415E-04  8424   0.137E-02 0.138E-02
CGA:  82    -0.675446539644E+03    0.23982E-05   -0.14951E-04  8424   0.137E-02 0.137E-02
CGA:  83    -0.675446537270E+03    0.23733E-05   -0.14501E-04  8424   0.137E-02 0.137E-02
CGA:  84    -0.675446534922E+03    0.23482E-05   -0.14064E-04  8424   0.137E-02 0.137E-02
CGA:  85    -0.675446532601E+03    0.23210E-05   -0.13642E-04  8424   0.136E-02 0.137E-02
CGA:  86    -0.675446530307E+03    0.22943E-05   -0.13232E-04  8424   0.136E-02 0.136E-02
CGA:  87    -0.675446528045E+03    0.22619E-05   -0.12836E-04  8424   0.136E-02 0.136E-02
CGA:  88    -0.675446525812E+03    0.22325E-05   -0.12450E-04  8424   0.136E-02 0.136E-02
CGA:  89    -0.675446523632E+03    0.21804E-05   -0.12086E-04  8424   0.136E-02 0.136E-02
CGA:  90    -0.675446521484E+03    0.21476E-05   -0.11722E-04  8424   0.135E-02 0.135E-02
CGA:  91    -0.675446519428E+03    0.20563E-05   -0.11396E-04  8424   0.135E-02 0.135E-02
CGA:  92    -0.675446517400E+03    0.20279E-05   -0.11050E-04  8424   0.135E-02 0.135E-02
CGA:  93    -0.675446515498E+03    0.19022E-05   -0.10764E-04  8424   0.135E-02 0.135E-02
CGA:  94    -0.675446513614E+03    0.18835E-05   -0.10436E-04  8424   0.134E-02 0.134E-02
CGA:  95    -0.675446511841E+03    0.17738E-05   -0.10165E-04  8424   0.134E-02 0.134E-02
   4 F= -.67544651E+03 E0= -.67544651E+03  d E =0.583522E-01  mag=     1.0000
       N       E                     dE             d eps       ncg     rms          ort
SDA:   1    -0.668251467718E+03    0.71950E+01    0.00000E+00  8424   0.205E+02 0.000E+00
CGA:   2    -0.671582959024E+03   -0.33315E+01   -0.25093E+01  8424   0.904E+01 0.123E+02
CGA:   3    -0.674127999185E+03   -0.25450E+01   -0.14058E+01  8424   0.305E+01 0.473E+01
CGA:   4    -0.675412833461E+03   -0.12848E+01   -0.24422E+00  8424   0.950E+00 0.762E+00
CGA:   5    -0.675601115417E+03   -0.18828E+00   -0.18826E+00  8424   0.339E+00 0.186E-03
CGA:   6    -0.675674930975E+03   -0.73816E-01   -0.73494E-01  8424   0.456E-01 0.265E-02
CGA:   7    -0.675682892213E+03   -0.79612E-02   -0.76890E-02  8424   0.127E-01 0.426E-02
CGA:   8    -0.675686694551E+03   -0.38023E-02   -0.31693E-02  8424   0.411E-02 0.522E-02
CGA:   9    -0.675687682159E+03   -0.98761E-03   -0.86927E-03  8424   0.193E-02 0.321E-02
CGA:  10    -0.675687886111E+03   -0.20395E-03   -0.21196E-03  8424   0.140E-02 0.157E-02
CGA:  11    -0.675687994029E+03   -0.10792E-03   -0.13314E-03  8424   0.120E-02 0.128E-02
CGA:  12    -0.675688057436E+03   -0.63407E-04   -0.98382E-04  8424   0.106E-02 0.112E-02
CGA:  13    -0.675688096390E+03   -0.38955E-04   -0.77828E-04  8424   0.963E-03 0.100E-02
CGA:  14    -0.675688119957E+03   -0.23567E-04   -0.63869E-04  8424   0.888E-03 0.920E-03
CGA:  15    -0.675688133246E+03   -0.13289E-04   -0.53738E-04  8424   0.827E-03 0.853E-03
CGA:  16    -0.675688139425E+03   -0.61790E-05   -0.46062E-04  8424   0.778E-03 0.799E-03
CGA:  17    -0.675688140581E+03   -0.11556E-05   -0.40071E-04  8424   0.737E-03 0.755E-03
CGA:  18    -0.675688138142E+03    0.24390E-05   -0.35285E-04  8424   0.702E-03 0.717E-03
CGA:  19    -0.675688133113E+03    0.50285E-05   -0.31387E-04  8424   0.672E-03 0.685E-03
CGA:  20    -0.675688126218E+03    0.68950E-05   -0.28162E-04  8424   0.646E-03 0.658E-03
CGA:  21    -0.675688117987E+03    0.82315E-05   -0.25455E-04  8424   0.623E-03 0.634E-03
CGA:  22    -0.675688108812E+03    0.91748E-05   -0.23158E-04  8424   0.604E-03 0.613E-03
CGA:  23    -0.675688098993E+03    0.98188E-05   -0.21193E-04  8424   0.587E-03 0.595E-03
CGA:  24    -0.675688088751E+03    0.10242E-04   -0.19492E-04  8424   0.571E-03 0.578E-03
CGA:  25    -0.675688078251E+03    0.10500E-04   -0.18004E-04  8424   0.557E-03 0.564E-03
CGA:  26    -0.675688067616E+03    0.10635E-04   -0.16690E-04  8424   0.545E-03 0.551E-03
CGA:  27    -0.675688056942E+03    0.10674E-04   -0.15522E-04  8424   0.534E-03 0.539E-03
CGA:  28    -0.675688046301E+03    0.10641E-04   -0.14476E-04  8424   0.524E-03 0.529E-03
CGA:  29    -0.675688035749E+03    0.10552E-04   -0.13535E-04  8424   0.515E-03 0.519E-03
CGA:  30    -0.675688025329E+03    0.10420E-04   -0.12684E-04  8424   0.506E-03 0.510E-03
CGA:  31    -0.675688015074E+03    0.10255E-04   -0.11912E-04  8424   0.498E-03 0.502E-03
CGA:  32    -0.675688005011E+03    0.10063E-04   -0.11207E-04  8424   0.491E-03 0.495E-03
CGA:  33    -0.675687995159E+03    0.98515E-05   -0.10563E-04  8424   0.485E-03 0.488E-03
   5 F= -.67568800E+03 E0= -.67568800E+03  d E =-.241483E+00  mag=     1.0000
       N       E                     dE             d eps       ncg     rms          ort
SDA:   1    -0.674797920840E+03    0.89008E+00    0.00000E+00  8424   0.244E+01 0.000E+00
CGA:   2    -0.675503988528E+03   -0.70607E+00   -0.70468E+00  8424   0.813E+00 0.595E-02
CGA:   3    -0.675663307514E+03   -0.15932E+00   -0.15688E+00  8424   0.240E+00 0.199E-01
CGA:   4    -0.675708066869E+03   -0.44759E-01   -0.44709E-01  8424   0.583E-01 0.424E-03
CGA:   5    -0.675717891453E+03   -0.98246E-02   -0.99556E-02  8424   0.129E-01-0.149E-02
CGA:   6    -0.675720210893E+03   -0.23194E-02   -0.21592E-02  8424   0.268E-02 0.188E-02
CGA:   7    -0.675720623298E+03   -0.41240E-03   -0.36322E-03  8424   0.127E-02 0.178E-02
CGA:   8    -0.675720722567E+03   -0.99269E-04   -0.10712E-03  8424   0.858E-03 0.101E-02
CGA:   9    -0.675720758923E+03   -0.36356E-04   -0.56422E-04  8424   0.708E-03 0.774E-03
CGA:  10    -0.675720776662E+03   -0.17739E-04   -0.40031E-04  8424   0.618E-03 0.658E-03
CGA:  11    -0.675720785115E+03   -0.84526E-05   -0.30971E-04  8424   0.556E-03 0.584E-03
CGA:  12    -0.675720788153E+03   -0.30389E-05   -0.25086E-04  8424   0.509E-03 0.530E-03
CGA:  13    -0.675720787791E+03    0.36252E-06   -0.20927E-04  8424   0.473E-03 0.489E-03
CGA:  14    -0.675720785204E+03    0.25871E-05   -0.17830E-04  8424   0.443E-03 0.456E-03
CGA:  15    -0.675720781132E+03    0.40717E-05   -0.15439E-04  8424   0.419E-03 0.430E-03
CGA:  16    -0.675720776064E+03    0.50681E-05   -0.13539E-04  8424   0.399E-03 0.407E-03
CGA:  17    -0.675720770333E+03    0.57306E-05   -0.11999E-04  8424   0.381E-03 0.389E-03
CGA:  18    -0.675720764176E+03    0.61579E-05   -0.10728E-04  8424   0.366E-03 0.373E-03
   6 F= -.67572076E+03 E0= -.67572076E+03  d E =-.327690E-01  mag=     1.0000
       N       E                     dE             d eps       ncg     rms          ort
SDA:   1    -0.674697742295E+03    0.10230E+01    0.00000E+00  8424   0.280E+01 0.000E+00
CGA:   2    -0.675475966722E+03   -0.77822E+00   -0.77779E+00  8424   0.979E+00 0.200E-02
CGA:   3    -0.675665887851E+03   -0.18992E+00   -0.18814E+00  8424   0.286E+00 0.157E-01
CGA:   4    -0.675718516626E+03   -0.52629E-01   -0.52654E-01  8424   0.715E-01-0.325E-03
CGA:   5    -0.675730519018E+03   -0.12002E-01   -0.12177E-01  8424   0.154E-01-0.217E-02
CGA:   6    -0.675733390586E+03   -0.28716E-02   -0.27875E-02  8424   0.324E-02 0.901E-03
CGA:   7    -0.675734033547E+03   -0.64296E-03   -0.55609E-03  8424   0.110E-02 0.137E-02
CGA:   8    -0.675734192504E+03   -0.15896E-03   -0.15896E-03  8424   0.602E-03 0.996E-03
CGA:   9    -0.675734226004E+03   -0.33500E-04   -0.46225E-04  8424   0.453E-03 0.512E-03
CGA:  10    -0.675734240203E+03   -0.14199E-04   -0.29097E-04  8424   0.383E-03 0.412E-03
CGA:  11    -0.675734246714E+03   -0.65112E-05   -0.21605E-04  8424   0.339E-03 0.357E-03
CGA:  12    -0.675734249041E+03   -0.23267E-05   -0.17075E-04  8424   0.306E-03 0.320E-03
CGA:  13    -0.675734248820E+03    0.22128E-06   -0.13979E-04  8424   0.282E-03 0.292E-03
CGA:  14    -0.675734246966E+03    0.18534E-05   -0.11720E-04  8424   0.262E-03 0.270E-03
CGA:  15    -0.675734244045E+03    0.29214E-05   -0.10002E-04  8424   0.246E-03 0.253E-03
   7 F= -.67573424E+03 E0= -.67573424E+03  d E =-.134799E-01  mag=     1.0000
       N       E                     dE             d eps       ncg     rms          ort
SDA:   1    -0.675678174512E+03    0.56072E-01    0.00000E+00  8424   0.161E+00 0.000E+00
CGA:   2    -0.675718217493E+03   -0.40043E-01   -0.39960E-01  8424   0.742E-01 0.491E-03
CGA:   3    -0.675732475770E+03   -0.14258E-01   -0.14085E-01  8424   0.186E-01 0.178E-02
CGA:   4    -0.675735608586E+03   -0.31328E-02   -0.30484E-02  8424   0.428E-02 0.133E-02
CGA:   5    -0.675736298130E+03   -0.68954E-03   -0.64557E-03  8424   0.873E-03 0.108E-02
CGA:   6    -0.675736395038E+03   -0.96908E-04   -0.10259E-03  8424   0.413E-03 0.660E-03
CGA:   7    -0.675736409301E+03   -0.14263E-04   -0.26843E-04  8424   0.289E-03 0.340E-03
CGA:   8    -0.675736410582E+03   -0.12809E-05   -0.14461E-04  8424   0.241E-03 0.263E-03
CGA:   9    -0.675736408182E+03    0.24000E-05   -0.10132E-04  8424   0.212E-03 0.226E-03
   8 F= -.67573641E+03 E0= -.67573641E+03  d E =-.216414E-02  mag=     1.0000
       N       E                     dE             d eps       ncg     rms          ort
SDA:   1    -0.675512687006E+03    0.22372E+00    0.00000E+00  8424   0.552E+00 0.000E+00
CGA:   2    -0.675694304132E+03   -0.18162E+00   -0.18202E+00  8424   0.189E+00-0.168E-02
CGA:   3    -0.675728892474E+03   -0.34588E-01   -0.34642E-01  8424   0.517E-01-0.691E-03
CGA:   4    -0.675737663998E+03   -0.87715E-02   -0.86303E-02  8424   0.112E-01 0.235E-02
CGA:   5    -0.675739417465E+03   -0.17535E-02   -0.16849E-02  8424   0.217E-02 0.210E-02
CGA:   6    -0.675739767838E+03   -0.35037E-03   -0.33161E-03  8424   0.771E-03 0.116E-02
CGA:   7    -0.675739848856E+03   -0.81019E-04   -0.83570E-04  8424   0.431E-03 0.528E-03
CGA:   8    -0.675739866501E+03   -0.17645E-04   -0.32263E-04  8424   0.346E-03 0.383E-03
CGA:   9    -0.675739871691E+03   -0.51896E-05   -0.21180E-04  8424   0.298E-03 0.320E-03
CGA:  10    -0.675739871490E+03    0.20088E-06   -0.15600E-04  8424   0.266E-03 0.281E-03
CGA:  11    -0.675739868549E+03    0.29409E-05   -0.12221E-04  8424   0.243E-03 0.253E-03
   9 F= -.67573987E+03 E0= -.67573987E+03  d E =-.346037E-02  mag=     1.0000
       N       E                     dE             d eps       ncg     rms          ort
SDA:   1    -0.675643568394E+03    0.96303E-01    0.00000E+00  8424   0.275E+00 0.000E+00
CGA:   2    -0.675705772584E+03   -0.62204E-01   -0.61925E-01  8424   0.128E+00 0.218E-02
CGA:   3    -0.675732600564E+03   -0.26828E-01   -0.26778E-01  8424   0.371E-01 0.459E-03
CGA:   4    -0.675738518404E+03   -0.59178E-02   -0.58572E-02  8424   0.812E-02 0.131E-02
CGA:   5    -0.675739808514E+03   -0.12901E-02   -0.12429E-02  8424   0.151E-02 0.137E-02
CGA:   6    -0.675740023767E+03   -0.21525E-03   -0.21133E-03  8424   0.556E-03 0.849E-03
CGA:   7    -0.675740055858E+03   -0.32092E-04   -0.45923E-04  8424   0.346E-03 0.422E-03
CGA:   8    -0.675740059540E+03   -0.36813E-05   -0.20522E-04  8424   0.281E-03 0.310E-03
CGA:   9    -0.675740057086E+03    0.24536E-05   -0.13750E-04  8424   0.244E-03 0.261E-03
CGA:  10    -0.675740052220E+03    0.48661E-05   -0.10316E-04  8424   0.220E-03 0.231E-03
  10 F= -.67574005E+03 E0= -.67574005E+03  d E =-.183671E-03  mag=     1.0000
       N       E                     dE             d eps       ncg     rms          ort
SDA:   1    -0.675658512706E+03    0.81544E-01    0.00000E+00  8424   0.227E+00 0.000E+00
CGA:   2    -0.675712576481E+03   -0.54064E-01   -0.53703E-01  8424   0.108E+00 0.263E-02
CGA:   3    -0.675734455483E+03   -0.21879E-01   -0.21769E-01  8424   0.285E-01 0.118E-02
CGA:   4    -0.675739112589E+03   -0.46571E-02   -0.46100E-02  8424   0.650E-02 0.993E-03
CGA:   5    -0.675740177750E+03   -0.10652E-02   -0.10296E-02  8424   0.123E-02 0.933E-03
CGA:   6    -0.675740354591E+03   -0.17684E-03   -0.17285E-03  8424   0.441E-03 0.672E-03
CGA:   7    -0.675740373225E+03   -0.18634E-04   -0.33211E-04  8424   0.290E-03 0.348E-03
CGA:   8    -0.675740373620E+03   -0.39501E-06   -0.16052E-04  8424   0.240E-03 0.262E-03
CGA:   9    -0.675740369863E+03    0.37568E-05   -0.11038E-04  8424   0.211E-03 0.224E-03
  11 F= -.67574037E+03 E0= -.67574037E+03  d E =-.317643E-03  mag=     1.0000
       N       E                     dE             d eps       ncg     rms          ort
SDA:   1    -0.675681280493E+03    0.59093E-01    0.00000E+00  8424   0.156E+00 0.000E+00
CGA:   2    -0.675721407502E+03   -0.40127E-01   -0.39777E-01  8424   0.716E-01 0.233E-02
CGA:   3    -0.675735270411E+03   -0.13863E-01   -0.13739E-01  8424   0.176E-01 0.161E-02
CGA:   4    -0.675738233862E+03   -0.29635E-02   -0.29210E-02  8424   0.413E-02 0.929E-03
CGA:   5    -0.675738939744E+03   -0.70588E-03   -0.68297E-03  8424   0.815E-03 0.596E-03
CGA:   6    -0.675739052075E+03   -0.11233E-03   -0.11246E-03  8424   0.304E-03 0.468E-03
CGA:   7    -0.675739058157E+03   -0.60829E-05   -0.19931E-04  8424   0.214E-03 0.251E-03
CGA:   8    -0.675739055420E+03    0.27378E-05   -0.10660E-04  8424   0.181E-03 0.196E-03
  12 F= -.67573906E+03 E0= -.67573906E+03  d E =0.131444E-02  mag=     1.0000
       N       E                     dE             d eps       ncg     rms          ort
SDA:   1    -0.675725440913E+03    0.13617E-01    0.00000E+00  8424   0.429E-01 0.000E+00
CGA:   2    -0.675734169303E+03   -0.87284E-02   -0.86741E-02  8424   0.167E-01 0.589E-03
CGA:   3    -0.675737688255E+03   -0.35190E-02   -0.34043E-02  8424   0.490E-02 0.134E-02
CGA:   4    -0.675738524294E+03   -0.83604E-03   -0.80661E-03  8424   0.114E-02 0.906E-03
CGA:   5    -0.675738685244E+03   -0.16095E-03   -0.16202E-03  8424   0.330E-03 0.581E-03
CGA:   6    -0.675738697297E+03   -0.12053E-04   -0.24348E-04  8424   0.214E-03 0.258E-03
CGA:   7    -0.675738696140E+03    0.11578E-05   -0.11466E-04  8424   0.176E-03 0.193E-03
  13 F= -.67573870E+03 E0= -.67573870E+03  d E =0.359280E-03  mag=     1.0000
       N       E                     dE             d eps       ncg     rms          ort
SDA:   1    -0.675725048531E+03    0.13649E-01    0.00000E+00  8424   0.392E-01 0.000E+00
CGA:   2    -0.675734412872E+03   -0.93643E-02   -0.93106E-02  8424   0.174E-01 0.425E-03
CGA:   3    -0.675737771236E+03   -0.33584E-02   -0.32942E-02  8424   0.435E-02 0.925E-03
CGA:   4    -0.675738470217E+03   -0.69898E-03   -0.67822E-03  8424   0.100E-02 0.791E-03
CGA:   5    -0.675738592013E+03   -0.12180E-03   -0.12957E-03  8424   0.324E-03 0.567E-03
CGA:   6    -0.675738600764E+03   -0.87515E-05   -0.22435E-04  8424   0.212E-03 0.257E-03
CGA:   7    -0.675738598757E+03    0.20070E-05   -0.10985E-04  8424   0.173E-03 0.191E-03
  14 F= -.67573860E+03 E0= -.67573860E+03  d E =0.973824E-04  mag=     1.0000
       N       E                     dE             d eps       ncg     rms          ort
SDA:   1    -0.675728675450E+03    0.99253E-02    0.00000E+00  8424   0.279E-01 0.000E+00
CGA:   2    -0.675735048425E+03   -0.63730E-02   -0.62827E-02  8424   0.124E-01 0.798E-03
CGA:   3    -0.675737618398E+03   -0.25700E-02   -0.25017E-02  8424   0.328E-02 0.872E-03
CGA:   4    -0.675738128352E+03   -0.50995E-03   -0.49624E-03  8424   0.725E-03 0.719E-03
CGA:   5    -0.675738204266E+03   -0.75915E-04   -0.87507E-04  8424   0.272E-03 0.478E-03
CGA:   6    -0.675738208824E+03   -0.45578E-05   -0.17408E-04  8424   0.186E-03 0.221E-03
  15 F= -.67573821E+03 E0= -.67573821E+03  d E =0.389933E-03  mag=     1.0000
       N       E                     dE             d eps       ncg     rms          ort
SDA:   1    -0.675712496370E+03    0.25708E-01    0.00000E+00  8424   0.772E-01 0.000E+00
CGA:   2    -0.675728907757E+03   -0.16411E-01   -0.16340E-01  8424   0.317E-01 0.730E-03
CGA:   3    -0.675735539847E+03   -0.66321E-02   -0.65369E-02  8424   0.973E-02 0.112E-02
CGA:   4    -0.675737187363E+03   -0.16475E-02   -0.16184E-02  8424   0.223E-02 0.808E-03
CGA:   5    -0.675737534810E+03   -0.34745E-03   -0.33917E-03  8424   0.448E-03 0.590E-03
CGA:   6    -0.675737575233E+03   -0.40423E-04   -0.52429E-04  8424   0.221E-03 0.347E-03
CGA:   7    -0.675737577637E+03   -0.24041E-05   -0.13979E-04  8424   0.161E-03 0.186E-03
  16 F= -.67573758E+03 E0= -.67573758E+03  d E =0.631187E-03  mag=     1.0000
       N       E                     dE             d eps       ncg     rms          ort
SDA:   1    -0.675710704998E+03    0.26870E-01    0.00000E+00  8424   0.891E-01 0.000E+00
CGA:   2    -0.675727613133E+03   -0.16908E-01   -0.16846E-01  8424   0.324E-01 0.860E-03
CGA:   3    -0.675734738093E+03   -0.71250E-02   -0.70354E-02  8424   0.113E-01 0.956E-03
CGA:   4    -0.675736689580E+03   -0.19515E-02   -0.19243E-02  8424   0.271E-02 0.692E-03
CGA:   5    -0.675737130163E+03   -0.44058E-03   -0.43027E-03  8424   0.508E-03 0.497E-03
CGA:   6    -0.675737189458E+03   -0.59295E-04   -0.65825E-04  8424   0.207E-03 0.323E-03
CGA:   7    -0.675737193108E+03   -0.36500E-05   -0.13976E-04  8424   0.144E-03 0.169E-03
  17 F= -.67573719E+03 E0= -.67573719E+03  d E =0.384529E-03  mag=     1.0000
       N       E                     dE             d eps       ncg     rms          ort
SDA:   1    -0.675730783665E+03    0.64058E-02    0.00000E+00  8424   0.188E-01 0.000E+00
CGA:   2    -0.675735001756E+03   -0.42181E-02   -0.41618E-02  8424   0.785E-02 0.565E-03
CGA:   3    -0.675736564912E+03   -0.15632E-02   -0.15236E-02  8424   0.198E-02 0.639E-03
CGA:   4    -0.675736895985E+03   -0.33107E-03   -0.32229E-03  8424   0.485E-03 0.435E-03
CGA:   5    -0.675736950234E+03   -0.54249E-04   -0.62235E-04  8424   0.176E-03 0.310E-03
CGA:   6    -0.675736951505E+03   -0.12715E-05   -0.11008E-04  8424   0.124E-03 0.145E-03
  18 F= -.67573695E+03 E0= -.67573695E+03  d E =0.241603E-03  mag=     1.0000
       N       E                     dE             d eps       ncg     rms          ort
SDA:   1    -0.675728058265E+03    0.88920E-02    0.00000E+00  8424   0.248E-01 0.000E+00
CGA:   2    -0.675733563593E+03   -0.55053E-02   -0.54631E-02  8424   0.112E-01 0.427E-03
CGA:   3    -0.675735906498E+03   -0.23429E-02   -0.23055E-02  8424   0.313E-02 0.494E-03
CGA:   4    -0.675736390309E+03   -0.48381E-03   -0.47675E-03  8424   0.672E-03 0.470E-03
CGA:   5    -0.675736466332E+03   -0.76023E-04   -0.84239E-04  8424   0.209E-03 0.359E-03
CGA:   6    -0.675736470508E+03   -0.41761E-05   -0.14398E-04  8424   0.137E-03 0.165E-03
  19 F= -.67573647E+03 E0= -.67573647E+03  d E =0.480997E-03  mag=     1.0000
       N       E                     dE             d eps       ncg     rms          ort
SDA:   1    -0.675734278310E+03    0.21880E-02    0.00000E+00  8424   0.642E-02 0.000E+00
CGA:   2    -0.675735552415E+03   -0.12741E-02   -0.12405E-02  8424   0.254E-02 0.484E-03
CGA:   3    -0.675736072908E+03   -0.52049E-03   -0.49079E-03  8424   0.710E-03 0.565E-03
CGA:   4    -0.675736172710E+03   -0.99802E-04   -0.10375E-03  8424   0.214E-03 0.379E-03
CGA:   5    -0.675736179068E+03   -0.63586E-05   -0.15737E-04  8424   0.138E-03 0.168E-03
  20 F= -.67573618E+03 E0= -.67573618E+03  d E =0.291440E-03  mag=     1.0000
       N       E                     dE             d eps       ncg     rms          ort
SDA:   1    -0.675733453412E+03    0.27193E-02    0.00000E+00  8424   0.726E-02 0.000E+00
CGA:   2    -0.675735165776E+03   -0.17124E-02   -0.16484E-02  8424   0.304E-02 0.614E-03
CGA:   3    -0.675735798657E+03   -0.63288E-03   -0.60379E-03  8424   0.747E-03 0.526E-03
CGA:   4    -0.675735902796E+03   -0.10414E-03   -0.10712E-03  8424   0.206E-03 0.340E-03
CGA:   5    -0.675735913240E+03   -0.10444E-04   -0.22238E-04  8424   0.120E-03 0.209E-03
CGA:   6    -0.675735911473E+03    0.17671E-05   -0.62395E-05  8424   0.948E-04 0.106E-03
