       N       E                     dE             d eps       ncg     rms          ort
DAV:   1     0.828333179514E+04    0.82833E+04   -0.24666E+05  8424   0.238E+03
DAV:   2     0.916408418409E+03   -0.73669E+04   -0.69184E+04  8424   0.658E+02
DAV:   3    -0.679053294784E+03   -0.15955E+04   -0.14016E+04  8424   0.282E+02
DAV:   4    -0.835597759359E+03   -0.15654E+03   -0.15376E+03  8424   0.858E+01
DAV:   5    -0.838144304880E+03   -0.25465E+01   -0.25342E+01  8424   0.122E+01
SDA:   6    -0.183754108733E+03    0.65439E+03   -0.25342E+01  8424   0.973E+04 0.000E+00
CGA:   7     0.283341608068E+01    0.18659E+03   -0.45226E+03  8424   0.276E+05-0.625E+04
CGA:   8     0.276484209161E+04    0.27620E+04   -0.16948E+04  8424   0.264E+06-0.881E+05
CGA:   9     0.626676287515E+04    0.35019E+04   -0.22203E+05  8424   0.622E+05-0.375E+05
CGA:  10     0.457253798587E+04   -0.16942E+04   -0.35753E+04  8424   0.245E+05-0.163E+05
CGA:  11     0.285419535302E+04   -0.17183E+04   -0.73505E+03  8424   0.215E+06-0.242E+06
CGA:  12     0.551653463056E+04    0.26623E+04   -0.16046E+05  8424   0.323E+05-0.216E+05
CGA:  13     0.354796698671E+03   -0.51617E+04   -0.14133E+04  8424   0.531E+05-0.138E+06
CGA:  14     0.288098911231E+04    0.25262E+04   -0.31162E+04  8424   0.187E+06-0.786E+05
CGA:  15     0.483634655411E+04    0.19554E+04   -0.12483E+05  8424   0.191E+05-0.146E+05
CGA:  16    -0.160741531968E+03   -0.49971E+04   -0.58260E+03  8424   0.108E+05 0.382E+05
CGA:  17    -0.537164049765E+03   -0.37642E+03   -0.28673E+03  8424   0.159E+04 0.102E+04
CGA:  18    -0.611778427808E+03   -0.74614E+02   -0.42382E+02  8424   0.302E+03-0.105E+03
CGA:  19    -0.624860752849E+03   -0.13082E+02   -0.11886E+02  8424   0.245E+03 0.496E+02
CGA:  20    -0.630472755304E+03   -0.56120E+01   -0.11063E+02  8424   0.694E+03-0.251E+02
CGA:  21    -0.646685000309E+03   -0.16212E+02   -0.19544E+02  8424   0.210E+03-0.161E+03
CGA:  22    -0.652148387564E+03   -0.54634E+01   -0.90859E+01  8424   0.921E+02-0.123E+02
CGA:  23    -0.665095743485E+03   -0.12947E+02   -0.13226E+02  8424   0.534E+02 0.412E+01
CGA:  24    -0.667799594048E+03   -0.27039E+01   -0.29663E+01  8424   0.414E+02-0.157E+02
CGA:  25    -0.668713634087E+03   -0.91404E+00   -0.18521E+01  8424   0.264E+02 0.363E+01
CGA:  26    -0.670039319243E+03   -0.13257E+01   -0.20841E+01  8424   0.139E+02 0.434E+01
CGA:  27    -0.670622375574E+03   -0.58306E+00   -0.69104E+00  8424   0.263E+02-0.598E+01
CGA:  28    -0.671281552435E+03   -0.65918E+00   -0.56340E+00  8424   0.128E+02-0.356E+01
CGA:  29    -0.671937931780E+03   -0.65638E+00   -0.62626E+00  8424   0.384E+01 0.319E+00
CGA:  30    -0.672123757274E+03   -0.18583E+00   -0.22765E+00  8424   0.477E+01-0.240E+00
CGA:  31    -0.672499453161E+03   -0.37570E+00   -0.37874E+00  8424   0.367E+01 0.107E+00
CGA:  32    -0.672676592477E+03   -0.17714E+00   -0.18844E+00  8424   0.110E+01-0.225E+00
CGA:  33    -0.672780861817E+03   -0.10427E+00   -0.10319E+00  8424   0.131E+01 0.118E+00
CGA:  34    -0.672924806680E+03   -0.14394E+00   -0.14490E+00  8424   0.396E+00-0.130E+00
CGA:  35    -0.673022243572E+03   -0.97437E-01   -0.10497E+00  8424   0.266E+00-0.398E-01
CGA:  36    -0.673076693819E+03   -0.54450E-01   -0.54367E-01  8424   0.189E+00-0.893E-03
CGA:  37    -0.673098498985E+03   -0.21805E-01   -0.21844E-01  8424   0.149E+00-0.768E-02
CGA:  38    -0.673135475536E+03   -0.36977E-01   -0.39452E-01  8424   0.221E+00-0.399E-01
CGA:  39    -0.673159521719E+03   -0.24046E-01   -0.27379E-01  8424   0.266E+00-0.676E-01
CGA:  40    -0.673174556828E+03   -0.15035E-01   -0.15445E-01  8424   0.222E+00-0.762E-02
CGA:  41    -0.673190587690E+03   -0.16031E-01   -0.15513E-01  8424   0.148E+00-0.162E-02
CGA:  42    -0.673205363770E+03   -0.14776E-01   -0.14486E-01  8424   0.181E+00-0.252E-02
CGA:  43    -0.673215559992E+03   -0.10196E-01   -0.97073E-02  8424   0.168E+00 0.154E-01
CGA:  44    -0.673224980404E+03   -0.94204E-02   -0.99763E-02  8424   0.166E+00 0.674E-02
CGA:  45    -0.673234612398E+03   -0.96320E-02   -0.11076E-01  8424   0.144E+00 0.420E-02
CGA:  46    -0.673243910687E+03   -0.92983E-02   -0.10214E-01  8424   0.827E-01 0.389E-02
SDA:  47    -0.673253821153E+03   -0.99105E-02   -0.97740E-02  8424   0.706E-01 0.106E-01
CGA:  48    -0.673260230374E+03   -0.64092E-02   -0.64576E-02  8424   0.469E-01 0.389E-02
CGA:  49    -0.673268592946E+03   -0.83626E-02   -0.80598E-02  8424   0.134E-01 0.468E-02
CGA:  50    -0.673272812789E+03   -0.42198E-02   -0.37474E-02  8424   0.443E-02 0.319E-02
CGA:  51    -0.673273619111E+03   -0.80632E-03   -0.75561E-03  8424   0.517E-02 0.238E-02
CGA:  52    -0.673274036962E+03   -0.41785E-03   -0.42807E-03  8424   0.377E-02 0.251E-03
CGA:  53    -0.673274648254E+03   -0.61129E-03   -0.55067E-03  8424   0.208E-02 0.255E-02
CGA:  54    -0.673274801308E+03   -0.15305E-03   -0.17741E-03  8424   0.171E-02 0.778E-03
CGA:  55    -0.673275326719E+03   -0.52541E-03   -0.41838E-03  8424   0.142E-02 0.171E-02
CGA:  56    -0.673275517613E+03   -0.19089E-03   -0.18621E-03  8424   0.180E-02 0.364E-03
CGA:  57    -0.673275786802E+03   -0.26919E-03   -0.26930E-03  8424   0.103E-02 0.143E-02
CGA:  58    -0.673276029906E+03   -0.24310E-03   -0.20443E-03  8424   0.804E-03 0.482E-03
CGA:  59    -0.673276411195E+03   -0.38129E-03   -0.29147E-03  8424   0.178E-02 0.721E-03
CGA:  60    -0.673276490490E+03   -0.79295E-04   -0.10586E-03  8424   0.724E-03 0.384E-03
CGA:  61    -0.673276643208E+03   -0.15272E-03   -0.13799E-03  8424   0.920E-03 0.474E-03
CGA:  62    -0.673276778018E+03   -0.13481E-03   -0.14487E-03  8424   0.248E-02-0.340E-03
CGA:  63    -0.673277104977E+03   -0.32696E-03   -0.31249E-03  8424   0.566E-02 0.184E-03
CGA:  64    -0.673277555573E+03   -0.45060E-03   -0.49011E-03  8424   0.506E-02 0.811E-03
CGA:  65    -0.673279030125E+03   -0.14746E-02   -0.13510E-02  8424   0.813E-02 0.107E-02
CGA:  66    -0.673279818908E+03   -0.78878E-03   -0.75697E-03  8424   0.465E-02-0.779E-03
CGA:  67    -0.673281969637E+03   -0.21507E-02   -0.39667E-04  8424   0.261E-01-0.284E-02
CGA:  68    -0.673284892542E+03   -0.29229E-02   -0.28565E-02  8424   0.589E-02-0.403E-03
CGA:  69    -0.673285414584E+03   -0.52204E-03   -0.41805E-03  8424   0.265E-02-0.858E-03
CGA:  70    -0.673286630569E+03   -0.12160E-02    0.13786E-02  8424   0.118E-02 0.163E-02
CGA:  71    -0.673287212599E+03   -0.58203E-03    0.15461E-02  8424   0.986E-03 0.536E-03
CGA:  72    -0.673288151082E+03   -0.93848E-03    0.36158E-03  8424   0.713E-03 0.118E-02
CGA:  73    -0.673288544348E+03   -0.39327E-03    0.36607E-03  8424   0.829E-03 0.304E-03
CGA:  74    -0.673289189999E+03   -0.64565E-03    0.64694E-03  8424   0.237E-02 0.464E-03
CGA:  75    -0.673289393936E+03   -0.20394E-03   -0.15312E-03  8424   0.897E-03-0.362E-03
CGA:  76    -0.673287137466E+03    0.22565E-02   -0.12278E-02  8424   0.565E-01-0.293E-02
CGA:  77    -0.673290736933E+03   -0.35995E-02   -0.38211E-02  8424   0.153E-01-0.588E-02
CGA:  78    -0.673291769945E+03   -0.10330E-02   -0.10643E-02  8424   0.365E-03 0.226E-03
CGA:  79    -0.673291937040E+03   -0.16709E-03   -0.18531E-03  8424   0.376E-02-0.138E-03
CGA:  80    -0.673292450037E+03   -0.51300E-03   -0.31745E-03  8424   0.859E-02-0.868E-03
CGA:  81    -0.673293622894E+03   -0.11729E-02   -0.68658E-03  8424   0.194E-01-0.218E-02
CGA:  82    -0.673294605235E+03   -0.98234E-03   -0.88488E-02  8424   0.384E+00-0.406E-01
CGA:  83    -0.673314548098E+03   -0.19943E-01   -0.17968E-01  8424   0.467E-01 0.428E-01
CGA:  84    -0.673322744206E+03   -0.81961E-02   -0.83049E-02  8424   0.420E-01 0.786E-03
CGA:  85    -0.673325457642E+03   -0.27134E-02   -0.27729E-02  8424   0.129E-01-0.245E-02
CGA:  86    -0.673327749438E+03   -0.22918E-02   -0.22312E-02  8424   0.900E-02-0.433E-03
CGA:  87    -0.673328567577E+03   -0.81814E-03   -0.79869E-03  8424   0.907E-02 0.224E-03
CGA:  88    -0.673330894426E+03   -0.23268E-02   -0.22820E-02  8424   0.685E-02-0.892E-03
CGA:  89    -0.673331697153E+03   -0.80273E-03   -0.67643E-03  8424   0.898E-02-0.120E-02
CGA:  90    -0.673333644246E+03   -0.19471E-02   -0.18174E-02  8424   0.487E-02-0.280E-02
CGA:  91    -0.673333385265E+03    0.25898E-03   -0.22477E-02  8424   0.612E-01-0.680E-02
CGA:  92    -0.673336673733E+03   -0.32885E-02   -0.34496E-02  8424   0.881E-02-0.585E-02
CGA:  93    -0.673338157127E+03   -0.14834E-02   -0.14566E-02  8424   0.459E-02-0.197E-03
CGA:  94    -0.673339115184E+03   -0.95806E-03   -0.82752E-03  8424   0.988E-02-0.133E-02
CGA:  95    -0.673340943811E+03   -0.18286E-02   -0.15404E-02  8424   0.506E-02-0.358E-02
CGA:  96    -0.673342896650E+03   -0.19528E-02    0.62485E-02  8424   0.262E-02 0.222E-03
CGA:  97    -0.673344574086E+03   -0.16774E-02    0.43706E-02  8424   0.163E-02 0.451E-03
CGA:  98    -0.673345924440E+03   -0.13504E-02    0.10732E-02  8424   0.460E-02 0.105E-03
CGA:  99    -0.673334909192E+03    0.11015E-01   -0.41556E-02  8424   0.214E+00-0.273E-01
CGA: 100    -0.673346654928E+03   -0.11746E-01   -0.11134E-01  8424   0.375E-01 0.155E-01
CGA: 101    -0.673356420375E+03   -0.97654E-02   -0.97992E-02  8424   0.260E-01 0.637E-03
CGA: 102    -0.673358571864E+03   -0.21515E-02   -0.20466E-02  8424   0.134E-01-0.145E-02
CGA: 103    -0.673360571174E+03   -0.19993E-02   -0.18344E-02  8424   0.209E-02-0.121E-02
CGA: 104    -0.673360992376E+03   -0.42120E-03   -0.35852E-03  8424   0.503E-02-0.709E-03
CGA: 105    -0.673361695862E+03   -0.70349E-03   -0.42026E-03  8424   0.314E-02-0.199E-02
CGA: 106    -0.673359082388E+03    0.26135E-02   -0.13077E-02  8424   0.120E+00-0.933E-02
CGA: 107    -0.673364690370E+03   -0.56080E-02   -0.53165E-02  8424   0.470E-02 0.844E-02
CGA: 108    -0.673365759703E+03   -0.10693E-02   -0.99201E-03  8424   0.851E-02-0.101E-02
CGA: 109    -0.673366458851E+03   -0.69915E-03   -0.46945E-03  8424   0.283E-02-0.126E-02
CGA: 110    -0.673366912181E+03   -0.45333E-03   -0.31814E-03  8424   0.553E-02-0.108E-02
CGA: 111    -0.673367410707E+03   -0.49853E-03   -0.27928E-03  8424   0.352E-02-0.129E-02
CGA: 112    -0.673367702901E+03   -0.29219E-03   -0.14830E-03  8424   0.268E-02-0.715E-03
CGA: 113    -0.673368726700E+03   -0.10238E-02    0.13620E-01  8424   0.135E-01-0.211E-02
CGA: 114    -0.673369509923E+03   -0.78322E-03   -0.70383E-03  8424   0.119E-02-0.966E-03
CGA: 115    -0.673363120882E+03    0.63890E-02   -0.34165E-02  8424   0.111E+00-0.652E-02
CGA: 116    -0.673369346848E+03   -0.62260E-02   -0.75929E-02  8424   0.317E-01-0.221E-01
CGA: 117    -0.673371885764E+03   -0.25389E-02   -0.25254E-02  8424   0.168E-02 0.292E-03
CGA: 118    -0.673372556135E+03   -0.67037E-03   -0.72666E-03  8424   0.259E-02-0.119E-02
CGA: 119    -0.673373003504E+03   -0.44737E-03   -0.36889E-03  8424   0.174E-02-0.328E-03
CGA: 120    -0.673373292674E+03   -0.28917E-03   -0.14579E-03  8424   0.899E-03-0.549E-03
CGA: 121    -0.673374065352E+03   -0.77268E-03    0.14497E-03  8424   0.108E-02-0.142E-03
CGA: 122    -0.673375453460E+03   -0.13881E-02    0.14179E-03  8424   0.588E-02-0.240E-03
CGA: 123    -0.673382948688E+03   -0.74952E-02    0.63191E-03  8424   0.580E-02-0.188E-02
CGA: 124    -0.673392142126E+03   -0.91934E-02    0.31182E-03  8424   0.299E-02 0.150E-02
CGA: 125    -0.673395878373E+03   -0.37362E-02    0.17301E-02  8424   0.200E-01-0.411E-02
CGA: 126    -0.673396958483E+03   -0.10801E-02   -0.10783E-02  8424   0.164E-02-0.173E-02
CGA: 127    -0.673397203693E+03   -0.24521E-03   -0.24900E-03  8424   0.727E-03 0.228E-04
CGA: 128    -0.673397313630E+03   -0.10994E-03   -0.81534E-04  8424   0.479E-03-0.135E-03
CGA: 129    -0.673397414464E+03   -0.10083E-03   -0.91786E-04  8424   0.511E-03-0.106E-03
CGA: 130    -0.673397524971E+03   -0.11051E-03   -0.15262E-03  8424   0.435E-02-0.652E-03
CGA: 131    -0.673397704655E+03   -0.17968E-03   -0.20386E-03  8424   0.222E-03 0.173E-03
CGA: 132    -0.673397763384E+03   -0.58729E-04   -0.12893E-03  8424   0.135E-02-0.282E-03
CGA: 133    -0.673397903128E+03   -0.13974E-03   -0.11273E-03  8424   0.578E-03-0.125E-03
CGA: 134    -0.673397961358E+03   -0.58230E-04   -0.53053E-04  8424   0.894E-04-0.256E-04
CGA: 135    -0.673398056535E+03   -0.95177E-04    0.14662E-04  8424   0.626E-04 0.292E-04
CGA: 136    -0.673398195080E+03   -0.13855E-03    0.68764E-05  8424   0.208E-03 0.489E-04
CGA: 137    -0.673398207996E+03   -0.12916E-04   -0.12947E-04  8424   0.697E-04 0.340E-06
CGA: 138    -0.673398303374E+03   -0.95378E-04    0.72111E-05  8424   0.699E-04 0.365E-04
CGA: 139    -0.673398381600E+03   -0.78226E-04    0.10501E-04  8424   0.173E-03-0.590E-05
CGA: 140    -0.673398557841E+03   -0.17624E-03    0.23834E-04  8424   0.953E-03-0.965E-04
CGA: 141    -0.673398649901E+03   -0.92060E-04   -0.68576E-04  8424   0.300E-03-0.118E-03
CGA: 142    -0.673398691021E+03   -0.41119E-04   -0.32854E-04  8424   0.103E-03-0.555E-04
CGA: 143    -0.673398804688E+03   -0.11367E-03    0.74078E-05  8424   0.114E-03 0.379E-04
CGA: 144    -0.673398941385E+03   -0.13670E-03    0.33314E-04  8424   0.774E-03-0.695E-04
CGA: 145    -0.673399009195E+03   -0.67810E-04   -0.44885E-04  8424   0.116E-03-0.119E-03
CGA: 146    -0.673399065315E+03   -0.56120E-04    0.11233E-03  8424   0.272E-03-0.394E-04
CGA: 147    -0.673399301675E+03   -0.23636E-03    0.14777E-04  8424   0.594E-03-0.311E-04
CGA: 148    -0.673399972551E+03   -0.67088E-03    0.45904E-04  8424   0.232E-03 0.300E-03
CGA: 149    -0.673400030073E+03   -0.57523E-04   -0.63935E-04  8424   0.185E-02-0.350E-03
CGA: 150    -0.673400099809E+03   -0.69736E-04   -0.82223E-04  8424   0.487E-04 0.772E-04
CGA: 151    -0.673400167180E+03   -0.67371E-04    0.37324E-05  8424   0.119E-03 0.246E-04
CGA: 152    -0.673400172512E+03   -0.53318E-05   -0.38569E-04  8424   0.297E-02-0.438E-03
CGA: 153    -0.673400286299E+03   -0.11379E-03   -0.13123E-03  8424   0.431E-04 0.124E-03
CGA: 154    -0.673400346217E+03   -0.59918E-04    0.30630E-05  8424   0.160E-03 0.153E-04
CGA: 155    -0.673400701358E+03   -0.35514E-03    0.10835E-04  8424   0.557E-04 0.183E-03
CGA: 156    -0.673400771160E+03   -0.69802E-04    0.42047E-05  8424   0.865E-04 0.206E-04
CGA: 157    -0.673400960321E+03   -0.18916E-03    0.61948E-05  8424   0.300E-03 0.355E-04
CGA: 158    -0.673401704693E+03   -0.74437E-03    0.19312E-04  8424   0.145E-03 0.402E-03
CGA: 159    -0.673401736229E+03   -0.31535E-04   -0.24932E-04  8424   0.415E-03-0.955E-04
CGA: 160    -0.673401788792E+03   -0.52564E-04   -0.28436E-04  8424   0.144E-03-0.148E-03
CGA: 161    -0.673401880688E+03   -0.91895E-04    0.90668E-05  8424   0.101E-03 0.275E-04
CGA: 162    -0.673402029331E+03   -0.14864E-03    0.81996E-05  8424   0.366E-03-0.777E-05
CGA: 163    -0.673402628909E+03   -0.59958E-03    0.13521E-04  8424   0.426E-03 0.306E-03
CGA: 164    -0.673402654064E+03   -0.25155E-04   -0.24064E-04  8424   0.836E-04-0.614E-05
CGA: 165    -0.673402747329E+03   -0.93264E-04    0.57992E-05  8424   0.930E-04 0.122E-04
CGA: 166    -0.673402924464E+03   -0.17714E-03    0.42406E-05  8424   0.780E-04 0.103E-03
CGA: 167    -0.673402991519E+03   -0.67055E-04    0.90895E-05  8424   0.121E-03 0.222E-05
CGA: 168    -0.673403179044E+03   -0.18752E-03    0.57013E-05  8424   0.375E-03 0.172E-04
CGA: 169    -0.673403873617E+03   -0.69457E-03    0.17646E-04  8424   0.187E-03 0.392E-03
CGA: 170    -0.673403908638E+03   -0.35021E-04   -0.26733E-04  8424   0.403E-03-0.108E-03
CGA: 171    -0.673403962871E+03   -0.54233E-04   -0.29567E-04  8424   0.202E-03-0.177E-03
CGA: 172    -0.673404074947E+03   -0.11208E-03    0.86735E-05  8424   0.555E-04 0.587E-04
CGA: 173    -0.673404186106E+03   -0.11116E-03    0.27814E-05  8424   0.573E-04 0.592E-04
CGA: 174    -0.673404249054E+03   -0.62948E-04    0.37102E-05  8424   0.172E-03 0.116E-04
CGA: 175    -0.673404563404E+03   -0.31435E-03    0.82676E-05  8424   0.969E-04 0.166E-03
CGA: 176    -0.673404646264E+03   -0.82860E-04    0.97516E-05  8424   0.967E-04 0.116E-05
CGA: 177    -0.673404796696E+03   -0.15043E-03    0.38469E-05  8424   0.126E-03 0.837E-04
CGA: 178    -0.673404871769E+03   -0.75073E-04    0.30974E-04  8424   0.507E-03-0.109E-03
CGA: 179    -0.673404899447E+03   -0.27678E-04   -0.26518E-04  8424   0.759E-04-0.690E-05
CGA: 180    -0.673404990662E+03   -0.91214E-04    0.37422E-05  8424   0.778E-04 0.307E-04
CGA: 181    -0.673405160524E+03   -0.16986E-03    0.38570E-05  8424   0.756E-04 0.106E-03
CGA: 182    -0.673405221566E+03   -0.61041E-04    0.76259E-05  8424   0.217E-03-0.830E-05
CGA: 183    -0.673405502230E+03   -0.28066E-03    0.75172E-05  8424   0.390E-03 0.560E-04
CGA: 184    -0.673406154574E+03   -0.65234E-03    0.21501E-04  8424   0.653E-03 0.323E-03
CGA: 185    -0.673406187743E+03   -0.33169E-04   -0.33087E-04  8424   0.834E-04 0.364E-06
CGA: 186    -0.673406278125E+03   -0.90382E-04    0.45234E-05  8424   0.833E-04 0.301E-04
CGA: 187    -0.673406448004E+03   -0.16988E-03    0.38571E-05  8424   0.958E-04 0.107E-03
CGA: 188    -0.673406506843E+03   -0.58839E-04    0.16001E-04  8424   0.316E-03-0.384E-04
CGA: 189    -0.673406790655E+03   -0.28381E-03    0.64249E-05  8424   0.879E-03-0.619E-04
CGA: 190    -0.673407707334E+03   -0.91668E-03    0.29306E-04  8424   0.413E-02-0.283E-03
CGA: 191    -0.673412849639E+03   -0.51423E-02    0.72733E-04  8424   0.155E-01 0.168E-02
CGA: 192    -0.673439152782E+03   -0.26303E-01    0.10146E-02  8424   0.342E-01-0.800E-03
CGA: 193    -0.673508657509E+03   -0.69505E-01    0.69844E-03  8424   0.493E-01-0.941E-01
CGA: 194    -0.673513066248E+03   -0.44087E-02   -0.46635E-02  8424   0.165E-01 0.228E-02
CGA: 195    -0.673514032296E+03   -0.96605E-03   -0.12613E-02  8424   0.424E-02 0.271E-02
CGA: 196    -0.673514455387E+03   -0.42309E-03   -0.60145E-03  8424   0.276E-02 0.289E-02
CGA: 197    -0.673514577657E+03   -0.12227E-03   -0.22369E-03  8424   0.196E-02 0.100E-02
CGA: 198    -0.673514589841E+03   -0.12185E-04   -0.21705E-03  8424   0.158E-02 0.217E-02
CGA: 199    -0.673514559131E+03    0.30710E-04   -0.91416E-04  8424   0.116E-02 0.108E-02
CGA: 200    -0.673514524271E+03    0.34860E-04   -0.74126E-04  8424   0.106E-02 0.108E-02
   1 F= -.67351452E+03 E0= -.67350547E+03  d E =-.673515E+03  mag=     7.0000
       N       E                     dE             d eps       ncg     rms          ort
SDA:   1    -0.673518461710E+03   -0.39026E-02    0.00000E+00  8424   0.721E-02 0.000E+00
CGA:   2    -0.673519132874E+03   -0.67116E-03   -0.75243E-03  8424   0.562E-02 0.162E-02
CGA:   3    -0.673519737504E+03   -0.60463E-03   -0.71850E-03  8424   0.152E-02 0.236E-02
CGA:   4    -0.673519760538E+03   -0.23034E-04   -0.15134E-03  8424   0.101E-02 0.161E-02
CGA:   5    -0.673519732347E+03    0.28191E-04   -0.51136E-04  8424   0.769E-03 0.829E-03
CGA:   6    -0.673519699766E+03    0.32581E-04   -0.35604E-04  8424   0.678E-03 0.718E-03
CGA:   7    -0.673519665490E+03    0.34276E-04   -0.27742E-04  8424   0.624E-03 0.649E-03
CGA:   8    -0.673519631605E+03    0.33885E-04   -0.23130E-04  8424   0.585E-03 0.603E-03
CGA:   9    -0.673519598625E+03    0.32980E-04   -0.19876E-04  8424   0.555E-03 0.569E-03
CGA:  10    -0.673519566778E+03    0.31848E-04   -0.17418E-04  8424   0.531E-03 0.542E-03
CGA:  11    -0.673519536157E+03    0.30621E-04   -0.15479E-04  8424   0.511E-03 0.520E-03
CGA:  12    -0.673519506792E+03    0.29365E-04   -0.13902E-04  8424   0.495E-03 0.502E-03
CGA:  13    -0.673519478676E+03    0.28115E-04   -0.12591E-04  8424   0.481E-03 0.487E-03
CGA:  14    -0.673519451784E+03    0.26893E-04   -0.11480E-04  8424   0.468E-03 0.474E-03
CGA:  15    -0.673519426075E+03    0.25709E-04   -0.10527E-04  8424   0.458E-03 0.463E-03
CGA:  16    -0.673519401508E+03    0.24567E-04   -0.96983E-05  8424   0.448E-03 0.453E-03
CGA:  17    -0.673519378036E+03    0.23472E-04   -0.89711E-05  8424   0.440E-03 0.444E-03
CGA:  18    -0.673519355611E+03    0.22425E-04   -0.83273E-05  8424   0.433E-03 0.436E-03
CGA:  19    -0.673519334186E+03    0.21424E-04   -0.77532E-05  8424   0.426E-03 0.429E-03
CGA:  20    -0.673519313718E+03    0.20469E-04   -0.72378E-05  8424   0.420E-03 0.423E-03
CGA:  21    -0.673519294161E+03    0.19557E-04   -0.67724E-05  8424   0.415E-03 0.417E-03
CGA:  22    -0.673519275472E+03    0.18689E-04   -0.63499E-05  8424   0.410E-03 0.412E-03
CGA:  23    -0.673519257611E+03    0.17861E-04   -0.59647E-05  8424   0.405E-03 0.407E-03
CGA:  24    -0.673519240539E+03    0.17072E-04   -0.56120E-05  8424   0.401E-03 0.403E-03
CGA:  25    -0.673519224220E+03    0.16320E-04   -0.52879E-05  8424   0.397E-03 0.399E-03
CGA:  26    -0.673519208618E+03    0.15602E-04   -0.49890E-05  8424   0.394E-03 0.396E-03
CGA:  27    -0.673519193699E+03    0.14918E-04   -0.47126E-05  8424   0.391E-03 0.392E-03
CGA:  28    -0.673519179433E+03    0.14266E-04   -0.44563E-05  8424   0.388E-03 0.389E-03
CGA:  29    -0.673519165789E+03    0.13644E-04   -0.42180E-05  8424   0.385E-03 0.387E-03
CGA:  30    -0.673519152738E+03    0.13051E-04   -0.39959E-05  8424   0.383E-03 0.384E-03
CGA:  31    -0.673519140254E+03    0.12484E-04   -0.37886E-05  8424   0.380E-03 0.381E-03
CGA:  32    -0.673519128309E+03    0.11945E-04   -0.35947E-05  8424   0.378E-03 0.379E-03
CGA:  33    -0.673519116881E+03    0.11428E-04   -0.34130E-05  8424   0.376E-03 0.377E-03
CGA:  34    -0.673519105945E+03    0.10936E-04   -0.32425E-05  8424   0.374E-03 0.375E-03
CGA:  35    -0.673519095479E+03    0.10466E-04   -0.30823E-05  8424   0.373E-03 0.373E-03
CGA:  36    -0.673519085463E+03    0.10016E-04   -0.29315E-05  8424   0.371E-03 0.372E-03
CGA:  37    -0.673519075877E+03    0.95865E-05   -0.27894E-05  8424   0.369E-03 0.370E-03
   2 F= -.67351908E+03 E0= -.67351001E+03  d E =-.455161E-02  mag=     7.0000
       N       E                     dE             d eps       ncg     rms          ort
SDA:   1    -0.672698412822E+03    0.82067E+00    0.00000E+00  8424   0.291E+01 0.000E+00
CGA:   2    -0.673112883746E+03   -0.41447E+00   -0.44199E+00  8424   0.448E+01-0.271E+00
CGA:   3    -0.673503970450E+03   -0.39109E+00   -0.38974E+00  8424   0.683E+00 0.338E-01
CGA:   4    -0.673594780594E+03   -0.90810E-01   -0.90674E-01  8424   0.600E+00 0.421E-02
CGA:   5    -0.673641929107E+03   -0.47149E-01   -0.47496E-01  8424   0.992E-01-0.949E-02
CGA:   6    -0.673658206598E+03   -0.16277E-01   -0.15334E-01  8424   0.370E-01 0.893E-02
CGA:   7    -0.673661081076E+03   -0.28745E-02   -0.28413E-02  8424   0.136E-01 0.227E-02
CGA:   8    -0.673662665066E+03   -0.15840E-02   -0.13538E-02  8424   0.415E-02 0.636E-02
CGA:   9    -0.673662993912E+03   -0.32885E-03   -0.34061E-03  8424   0.238E-02 0.332E-02
CGA:  10    -0.673663157781E+03   -0.16387E-03   -0.15412E-03  8424   0.166E-02 0.177E-02
CGA:  11    -0.673663211069E+03   -0.53288E-04   -0.75003E-04  8424   0.139E-02 0.150E-02
CGA:  12    -0.673663243787E+03   -0.32718E-04   -0.56527E-04  8424   0.123E-02 0.131E-02
CGA:  13    -0.673663261901E+03   -0.18114E-04   -0.44161E-04  8424   0.112E-02 0.118E-02
CGA:  14    -0.673663271319E+03   -0.94184E-05   -0.36082E-04  8424   0.104E-02 0.108E-02
CGA:  15    -0.673663275147E+03   -0.38274E-05   -0.30347E-04  8424   0.973E-03 0.100E-02
CGA:  16    -0.673663275215E+03   -0.68321E-07   -0.26053E-04  8424   0.919E-03 0.945E-03
CGA:  17    -0.673663272687E+03    0.25278E-05   -0.22715E-04  8424   0.875E-03 0.895E-03
CGA:  18    -0.673663268339E+03    0.43485E-05   -0.20048E-04  8424   0.837E-03 0.854E-03
CGA:  19    -0.673663262713E+03    0.56257E-05   -0.17877E-04  8424   0.805E-03 0.819E-03
CGA:  20    -0.673663256195E+03    0.65176E-05   -0.16080E-04  8424   0.777E-03 0.789E-03
CGA:  21    -0.673663249064E+03    0.71314E-05   -0.14569E-04  8424   0.752E-03 0.763E-03
CGA:  22    -0.673663241522E+03    0.75419E-05   -0.13279E-04  8424   0.731E-03 0.740E-03
CGA:  23    -0.673663233720E+03    0.78025E-05   -0.12166E-04  8424   0.712E-03 0.720E-03
CGA:  24    -0.673663225769E+03    0.79507E-05   -0.11194E-04  8424   0.695E-03 0.702E-03
CGA:  25    -0.673663217755E+03    0.80136E-05   -0.10339E-04  8424   0.680E-03 0.686E-03
   3 F= -.67366322E+03 E0= -.67365443E+03  d E =-.144142E+00  mag=     7.0000
       N       E                     dE             d eps       ncg     rms          ort
SDA:   1    -0.650369099768E+03    0.23294E+02    0.00000E+00  8424   0.618E+02 0.000E+00
CGA:   2    -0.663746946233E+03   -0.13378E+02   -0.45495E-01  8424   0.685E+02-0.656E+01
CGA:   3    -0.668616853656E+03   -0.48699E+01   -0.96385E+01  8424   0.303E+02-0.265E+02
CGA:   4    -0.671522215066E+03   -0.29054E+01   -0.27656E+01  8424   0.922E+01 0.114E+01
CGA:   5    -0.672276104430E+03   -0.75389E+00   -0.75146E+00  8424   0.121E+02-0.239E+01
CGA:   6    -0.672827360232E+03   -0.55126E+00   -0.55178E+00  8424   0.154E+02 0.109E-01
CGA:   7    -0.673291827332E+03   -0.46447E+00   -0.51296E+00  8424   0.295E+01-0.118E+01
CGA:   8    -0.673435810485E+03   -0.14398E+00   -0.15536E+00  8424   0.218E+01 0.103E+00
CGA:   9    -0.673722569758E+03   -0.28676E+00   -0.28483E+00  8424   0.163E+01 0.372E-01
CGA:  10    -0.673837620455E+03   -0.11505E+00   -0.11170E+00  8424   0.579E+00-0.945E-01
CGA:  11    -0.673902400241E+03   -0.64780E-01   -0.65108E-01  8424   0.867E+00-0.532E-02
CGA:  12    -0.673952310944E+03   -0.49911E-01   -0.50517E-01  8424   0.191E+00-0.121E-02
CGA:  13    -0.673966412898E+03   -0.14102E-01   -0.14166E-01  8424   0.143E+00 0.656E-02
CGA:  14    -0.673986148422E+03   -0.19736E-01   -0.19007E-01  8424   0.658E-01 0.144E-01
CGA:  15    -0.673990671286E+03   -0.45229E-02   -0.46491E-02  8424   0.269E-01 0.938E-02
CGA:  16    -0.673994972197E+03   -0.43009E-02   -0.38288E-02  8424   0.259E-01 0.105E-01
CGA:  17    -0.673997936498E+03   -0.29643E-02   -0.29627E-02  8424   0.721E-02 0.634E-02
CGA:  18    -0.673999020377E+03   -0.10839E-02   -0.94659E-03  8424   0.561E-02 0.583E-02
CGA:  19    -0.673999466113E+03   -0.44574E-03   -0.45344E-03  8424   0.345E-02 0.338E-02
CGA:  20    -0.673999832954E+03   -0.36684E-03   -0.33181E-03  8424   0.254E-02 0.266E-02
CGA:  21    -0.673999955322E+03   -0.12237E-03   -0.16488E-03  8424   0.214E-02 0.228E-02
CGA:  22    -0.674000052985E+03   -0.97663E-04   -0.13625E-03  8424   0.192E-02 0.203E-02
CGA:  23    -0.674000114620E+03   -0.61635E-04   -0.10842E-03  8424   0.177E-02 0.185E-02
CGA:  24    -0.674000157133E+03   -0.42514E-04   -0.91858E-04  8424   0.166E-02 0.172E-02
CGA:  25    -0.674000186648E+03   -0.29515E-04   -0.79882E-04  8424   0.157E-02 0.163E-02
CGA:  26    -0.674000207043E+03   -0.20394E-04   -0.70838E-04  8424   0.151E-02 0.155E-02
CGA:  27    -0.674000220804E+03   -0.13761E-04   -0.63729E-04  8424   0.145E-02 0.149E-02
CGA:  28    -0.674000229613E+03   -0.88085E-05   -0.57967E-04  8424   0.140E-02 0.143E-02
CGA:  29    -0.674000234660E+03   -0.50477E-05   -0.53195E-04  8424   0.137E-02 0.139E-02
CGA:  30    -0.674000236843E+03   -0.21823E-05   -0.49195E-04  8424   0.133E-02 0.135E-02
CGA:  31    -0.674000236799E+03    0.43678E-07   -0.45762E-04  8424   0.130E-02 0.132E-02
CGA:  32    -0.674000234997E+03    0.18018E-05   -0.42762E-04  8424   0.128E-02 0.129E-02
CGA:  33    -0.674000231796E+03    0.32014E-05   -0.40105E-04  8424   0.125E-02 0.127E-02
CGA:  34    -0.674000227478E+03    0.43182E-05   -0.37730E-04  8424   0.123E-02 0.124E-02
CGA:  35    -0.674000222264E+03    0.52133E-05   -0.35587E-04  8424   0.121E-02 0.122E-02
CGA:  36    -0.674000216341E+03    0.59229E-05   -0.33647E-04  8424   0.120E-02 0.121E-02
CGA:  37    -0.674000209866E+03    0.64753E-05   -0.31886E-04  8424   0.118E-02 0.119E-02
CGA:  38    -0.674000202969E+03    0.68972E-05   -0.30284E-04  8424   0.117E-02 0.118E-02
CGA:  39    -0.674000195759E+03    0.72103E-05   -0.28819E-04  8424   0.115E-02 0.116E-02
CGA:  40    -0.674000188320E+03    0.74390E-05   -0.27470E-04  8424   0.114E-02 0.115E-02
CGA:  41    -0.674000180722E+03    0.75979E-05   -0.26222E-04  8424   0.113E-02 0.114E-02
CGA:  42    -0.674000173023E+03    0.76983E-05   -0.25063E-04  8424   0.112E-02 0.113E-02
CGA:  43    -0.674000165271E+03    0.77522E-05   -0.23982E-04  8424   0.111E-02 0.112E-02
CGA:  44    -0.674000157501E+03    0.77704E-05   -0.22968E-04  8424   0.111E-02 0.111E-02
CGA:  45    -0.674000149744E+03    0.77567E-05   -0.22015E-04  8424   0.110E-02 0.110E-02
CGA:  46    -0.674000142026E+03    0.77186E-05   -0.21117E-04  8424   0.109E-02 0.110E-02
CGA:  47    -0.674000134368E+03    0.76572E-05   -0.20271E-04  8424   0.109E-02 0.109E-02
CGA:  48    -0.674000126789E+03    0.75793E-05   -0.19471E-04  8424   0.108E-02 0.108E-02
CGA:  49    -0.674000119303E+03    0.74863E-05   -0.18713E-04  8424   0.107E-02 0.108E-02
CGA:  50    -0.674000111922E+03    0.73811E-05   -0.17994E-04  8424   0.107E-02 0.107E-02
CGA:  51    -0.674000104655E+03    0.72665E-05   -0.17311E-04  8424   0.106E-02 0.106E-02
CGA:  52    -0.674000097511E+03    0.71445E-05   -0.16661E-04  8424   0.106E-02 0.106E-02
CGA:  53    -0.674000090494E+03    0.70164E-05   -0.16042E-04  8424   0.105E-02 0.106E-02
CGA:  54    -0.674000083612E+03    0.68826E-05   -0.15451E-04  8424   0.105E-02 0.105E-02
CGA:  55    -0.674000076864E+03    0.67480E-05   -0.14885E-04  8424   0.104E-02 0.105E-02
CGA:  56    -0.674000070254E+03    0.66093E-05   -0.14345E-04  8424   0.104E-02 0.104E-02
CGA:  57    -0.674000063785E+03    0.64695E-05   -0.13828E-04  8424   0.104E-02 0.104E-02
CGA:  58    -0.674000057458E+03    0.63271E-05   -0.13334E-04  8424   0.103E-02 0.104E-02
CGA:  59    -0.674000051273E+03    0.61843E-05   -0.12860E-04  8424   0.103E-02 0.103E-02
CGA:  60    -0.674000045232E+03    0.60418E-05   -0.12407E-04  8424   0.103E-02 0.103E-02
CGA:  61    -0.674000039332E+03    0.58994E-05   -0.11972E-04  8424   0.102E-02 0.103E-02
CGA:  62    -0.674000033575E+03    0.57567E-05   -0.11555E-04  8424   0.102E-02 0.102E-02
CGA:  63    -0.674000027960E+03    0.56157E-05   -0.11154E-04  8424   0.102E-02 0.102E-02
CGA:  64    -0.674000022485E+03    0.54747E-05   -0.10770E-04  8424   0.102E-02 0.102E-02
CGA:  65    -0.674000017149E+03    0.53361E-05   -0.10401E-04  8424   0.101E-02 0.101E-02
CGA:  66    -0.674000011950E+03    0.51988E-05   -0.10047E-04  8424   0.101E-02 0.101E-02
   4 F= -.67400001E+03 E0= -.67399479E+03  d E =-.336794E+00  mag=     7.0000
       N       E                     dE             d eps       ncg     rms          ort
SDA:   1    -0.672348099498E+03    0.16519E+01    0.00000E+00  8424   0.564E+01 0.000E+00
CGA:   2    -0.673303023218E+03   -0.95492E+00   -0.70919E-01  8424   0.331E+01 0.239E+00
CGA:   3    -0.673754171093E+03   -0.45115E+00   -0.41125E+00  8424   0.103E+01 0.580E+00
CGA:   4    -0.673993607565E+03   -0.23944E+00   -0.23716E+00  8424   0.278E+00 0.148E-01
CGA:   5    -0.674046763819E+03   -0.53156E-01   -0.51235E-01  8424   0.618E-01 0.151E-01
CGA:   6    -0.674057913101E+03   -0.11149E-01   -0.10709E-01  8424   0.187E-01 0.445E-02
CGA:   7    -0.674060641650E+03   -0.27285E-02   -0.23734E-02  8424   0.603E-02 0.676E-02
CGA:   8    -0.674061614476E+03   -0.97283E-03   -0.82112E-03  8424   0.333E-02 0.476E-02
CGA:   9    -0.674061956993E+03   -0.34252E-03   -0.29634E-03  8424   0.219E-02 0.242E-02
CGA:  10    -0.674062082528E+03   -0.12554E-03   -0.13974E-03  8424   0.190E-02 0.203E-02
CGA:  11    -0.674062171782E+03   -0.89254E-04   -0.11104E-03  8424   0.172E-02 0.180E-02
CGA:  12    -0.674062236978E+03   -0.65196E-04   -0.92145E-04  8424   0.159E-02 0.165E-02
CGA:  13    -0.674062286080E+03   -0.49102E-04   -0.79010E-04  8424   0.150E-02 0.154E-02
CGA:  14    -0.674062323823E+03   -0.37743E-04   -0.69289E-04  8424   0.142E-02 0.145E-02
CGA:  15    -0.674062353184E+03   -0.29361E-04   -0.61736E-04  8424   0.135E-02 0.138E-02
CGA:  16    -0.674062376144E+03   -0.22960E-04   -0.55651E-04  8424   0.130E-02 0.132E-02
CGA:  17    -0.674062394094E+03   -0.17950E-04   -0.50615E-04  8424   0.125E-02 0.127E-02
CGA:  18    -0.674062408048E+03   -0.13954E-04   -0.46360E-04  8424   0.121E-02 0.123E-02
CGA:  19    -0.674062418769E+03   -0.10721E-04   -0.42707E-04  8424   0.118E-02 0.119E-02
CGA:  20    -0.674062426848E+03   -0.80782E-05   -0.39530E-04  8424   0.115E-02 0.116E-02
CGA:  21    -0.674062432746E+03   -0.58986E-05   -0.36737E-04  8424   0.112E-02 0.113E-02
CGA:  22    -0.674062436838E+03   -0.40916E-05   -0.34261E-04  8424   0.109E-02 0.110E-02
CGA:  23    -0.674062439421E+03   -0.25834E-05   -0.32049E-04  8424   0.107E-02 0.108E-02
CGA:  24    -0.674062440747E+03   -0.13258E-05   -0.30061E-04  8424   0.105E-02 0.106E-02
CGA:  25    -0.674062441020E+03   -0.27338E-06   -0.28265E-04  8424   0.103E-02 0.104E-02
CGA:  26    -0.674062440412E+03    0.60840E-06   -0.26633E-04  8424   0.101E-02 0.102E-02
CGA:  27    -0.674062439067E+03    0.13452E-05   -0.25145E-04  8424   0.997E-03 0.101E-02
CGA:  28    -0.674062437104E+03    0.19622E-05   -0.23782E-04  8424   0.983E-03 0.990E-03
CGA:  29    -0.674062434629E+03    0.24755E-05   -0.22529E-04  8424   0.969E-03 0.976E-03
CGA:  30    -0.674062431726E+03    0.29031E-05   -0.21374E-04  8424   0.957E-03 0.963E-03
CGA:  31    -0.674062428470E+03    0.32558E-05   -0.20305E-04  8424   0.945E-03 0.951E-03
CGA:  32    -0.674062424925E+03    0.35450E-05   -0.19313E-04  8424   0.934E-03 0.939E-03
CGA:  33    -0.674062421145E+03    0.37805E-05   -0.18391E-04  8424   0.924E-03 0.929E-03
CGA:  34    -0.674062417176E+03    0.39690E-05   -0.17531E-04  8424   0.915E-03 0.919E-03
CGA:  35    -0.674062413058E+03    0.41179E-05   -0.16728E-04  8424   0.906E-03 0.910E-03
CGA:  36    -0.674062408826E+03    0.42317E-05   -0.15976E-04  8424   0.898E-03 0.902E-03
CGA:  37    -0.674062404509E+03    0.43170E-05   -0.15270E-04  8424   0.890E-03 0.894E-03
CGA:  38    -0.674062400133E+03    0.43755E-05   -0.14607E-04  8424   0.883E-03 0.886E-03
CGA:  39    -0.674062395721E+03    0.44122E-05   -0.13983E-04  8424   0.876E-03 0.879E-03
CGA:  40    -0.674062391291E+03    0.44299E-05   -0.13394E-04  8424   0.870E-03 0.873E-03
CGA:  41    -0.674062386861E+03    0.44308E-05   -0.12839E-04  8424   0.864E-03 0.867E-03
CGA:  42    -0.674062382441E+03    0.44199E-05   -0.12313E-04  8424   0.858E-03 0.861E-03
CGA:  43    -0.674062378046E+03    0.43951E-05   -0.11815E-04  8424   0.853E-03 0.855E-03
CGA:  44    -0.674062373685E+03    0.43603E-05   -0.11343E-04  8424   0.848E-03 0.850E-03
CGA:  45    -0.674062369367E+03    0.43183E-05   -0.10895E-04  8424   0.843E-03 0.845E-03
CGA:  46    -0.674062365099E+03    0.42676E-05   -0.10469E-04  8424   0.838E-03 0.841E-03
CGA:  47    -0.674062360889E+03    0.42107E-05   -0.10063E-04  8424   0.834E-03 0.836E-03
   5 F= -.67406236E+03 E0= -.67406012E+03  d E =-.623489E-01  mag=     7.0000
       N       E                     dE             d eps       ncg     rms          ort
SDA:   1    -0.673840900770E+03    0.22146E+00    0.00000E+00  8424   0.672E+00 0.000E+00
CGA:   2    -0.673993649475E+03   -0.15275E+00   -0.29791E-01  8424   0.251E+00 0.176E+00
CGA:   3    -0.674067689204E+03   -0.74040E-01   -0.72008E-01  8424   0.775E-01 0.143E-01
CGA:   4    -0.674082139430E+03   -0.14450E-01   -0.13495E-01  8424   0.168E-01 0.899E-02
CGA:   5    -0.674085456186E+03   -0.33168E-02   -0.28314E-02  8424   0.393E-02 0.563E-02
CGA:   6    -0.674086028880E+03   -0.57269E-03   -0.49096E-03  8424   0.200E-02 0.325E-02
CGA:   7    -0.674086147099E+03   -0.11822E-03   -0.12823E-03  8424   0.155E-02 0.175E-02
CGA:   8    -0.674086204682E+03   -0.57584E-04   -0.81664E-04  8424   0.134E-02 0.144E-02
CGA:   9    -0.674086237343E+03   -0.32660E-04   -0.61355E-04  8424   0.120E-02 0.127E-02
CGA:  10    -0.674086256510E+03   -0.19168E-04   -0.49468E-04  8424   0.111E-02 0.115E-02
CGA:  11    -0.674086267437E+03   -0.10926E-04   -0.41562E-04  8424   0.104E-02 0.107E-02
CGA:  12    -0.674086272961E+03   -0.55237E-05   -0.35881E-04  8424   0.982E-03 0.101E-02
CGA:  13    -0.674086274776E+03   -0.18159E-05   -0.31579E-04  8424   0.938E-03 0.958E-03
CGA:  14    -0.674086273966E+03    0.81071E-06   -0.28194E-04  8424   0.901E-03 0.918E-03
CGA:  15    -0.674086271255E+03    0.27107E-05   -0.25450E-04  8424   0.870E-03 0.885E-03
CGA:  16    -0.674086267153E+03    0.41017E-05   -0.23174E-04  8424   0.845E-03 0.856E-03
CGA:  17    -0.674086262067E+03    0.50863E-05   -0.21296E-04  8424   0.823E-03 0.833E-03
CGA:  18    -0.674086256264E+03    0.58030E-05   -0.19694E-04  8424   0.804E-03 0.812E-03
CGA:  19    -0.674086249933E+03    0.63314E-05   -0.18292E-04  8424   0.787E-03 0.794E-03
CGA:  20    -0.674086243217E+03    0.67159E-05   -0.17054E-04  8424   0.772E-03 0.779E-03
CGA:  21    -0.674086236231E+03    0.69859E-05   -0.15951E-04  8424   0.758E-03 0.764E-03
CGA:  22    -0.674086229063E+03    0.71681E-05   -0.14962E-04  8424   0.746E-03 0.752E-03
CGA:  23    -0.674086221784E+03    0.72786E-05   -0.14068E-04  8424   0.735E-03 0.740E-03
CGA:  24    -0.674086214451E+03    0.73328E-05   -0.13256E-04  8424   0.725E-03 0.729E-03
CGA:  25    -0.674086207110E+03    0.73417E-05   -0.12515E-04  8424   0.716E-03 0.720E-03
CGA:  26    -0.674086199795E+03    0.73146E-05   -0.11836E-04  8424   0.707E-03 0.711E-03
CGA:  27    -0.674086192537E+03    0.72585E-05   -0.11211E-04  8424   0.700E-03 0.703E-03
CGA:  28    -0.674086185358E+03    0.71782E-05   -0.10632E-04  8424   0.692E-03 0.696E-03
CGA:  29    -0.674086178279E+03    0.70796E-05   -0.10097E-04  8424   0.686E-03 0.689E-03
   6 F= -.67408618E+03 E0= -.67408574E+03  d E =-.238174E-01  mag=     7.0000
       N       E                     dE             d eps       ncg     rms          ort
SDA:   1    -0.667460831917E+03    0.66254E+01    0.00000E+00  8424   0.166E+02 0.000E+00
CGA:   2    -0.672396564735E+03   -0.49357E+01   -0.88039E+00  8424   0.419E+01 0.388E+01
CGA:   3    -0.673794890863E+03   -0.13983E+01   -0.13911E+01  8424   0.158E+01 0.411E-01
CGA:   4    -0.674048356050E+03   -0.25347E+00   -0.25330E+00  8424   0.307E+00 0.189E-02
CGA:   5    -0.674106187210E+03   -0.57831E-01   -0.56890E-01  8424   0.871E-01 0.906E-02
CGA:   6    -0.674122971566E+03   -0.16784E-01   -0.16027E-01  8424   0.224E-01 0.824E-02
CGA:   7    -0.674128744144E+03   -0.57726E-02   -0.50987E-02  8424   0.869E-02 0.580E-02
CGA:   8    -0.674130741572E+03   -0.19974E-02   -0.16985E-02  8424   0.387E-02 0.514E-02
CGA:   9    -0.674131255166E+03   -0.51359E-03   -0.46081E-03  8424   0.236E-02 0.279E-02
CGA:  10    -0.674131486455E+03   -0.23129E-03   -0.23498E-03  8424   0.192E-02 0.211E-02
CGA:  11    -0.674131620369E+03   -0.13391E-03   -0.16291E-03  8424   0.167E-02 0.178E-02
CGA:  12    -0.674131707044E+03   -0.86675E-04   -0.12608E-03  8424   0.151E-02 0.158E-02
CGA:  13    -0.674131765695E+03   -0.58650E-04   -0.10293E-03  8424   0.139E-02 0.144E-02
CGA:  14    -0.674131806059E+03   -0.40365E-04   -0.86838E-04  8424   0.129E-02 0.133E-02
CGA:  15    -0.674131833784E+03   -0.27725E-04   -0.74946E-04  8424   0.122E-02 0.125E-02
CGA:  16    -0.674131852430E+03   -0.18646E-04   -0.65775E-04  8424   0.116E-02 0.118E-02
CGA:  17    -0.674131864380E+03   -0.11949E-04   -0.58478E-04  8424   0.110E-02 0.113E-02
CGA:  18    -0.674131871293E+03   -0.69132E-05   -0.52531E-04  8424   0.106E-02 0.108E-02
CGA:  19    -0.674131874369E+03   -0.30763E-05   -0.47591E-04  8424   0.102E-02 0.104E-02
CGA:  20    -0.674131874503E+03   -0.13403E-06   -0.43429E-04  8424   0.990E-03 0.101E-02
CGA:  21    -0.674131872359E+03    0.21443E-05   -0.39868E-04  8424   0.961E-03 0.975E-03
CGA:  22    -0.674131868446E+03    0.39123E-05   -0.36788E-04  8424   0.935E-03 0.948E-03
CGA:  23    -0.674131863163E+03    0.52838E-05   -0.34097E-04  8424   0.913E-03 0.924E-03
CGA:  24    -0.674131856818E+03    0.63451E-05   -0.31725E-04  8424   0.892E-03 0.902E-03
CGA:  25    -0.674131849656E+03    0.71619E-05   -0.29617E-04  8424   0.874E-03 0.883E-03
CGA:  26    -0.674131841871E+03    0.77846E-05   -0.27731E-04  8424   0.857E-03 0.865E-03
CGA:  27    -0.674131833619E+03    0.82522E-05   -0.26031E-04  8424   0.842E-03 0.850E-03
CGA:  28    -0.674131825025E+03    0.85940E-05   -0.24492E-04  8424   0.828E-03 0.835E-03
CGA:  29    -0.674131816191E+03    0.88338E-05   -0.23091E-04  8424   0.816E-03 0.822E-03
CGA:  30    -0.674131807200E+03    0.89914E-05   -0.21809E-04  8424   0.804E-03 0.810E-03
CGA:  31    -0.674131798118E+03    0.90817E-05   -0.20631E-04  8424   0.793E-03 0.799E-03
CGA:  32    -0.674131789001E+03    0.91169E-05   -0.19546E-04  8424   0.783E-03 0.788E-03
CGA:  33    -0.674131779894E+03    0.91069E-05   -0.18543E-04  8424   0.774E-03 0.779E-03
CGA:  34    -0.674131770833E+03    0.90607E-05   -0.17612E-04  8424   0.765E-03 0.770E-03
CGA:  35    -0.674131761849E+03    0.89846E-05   -0.16746E-04  8424   0.757E-03 0.761E-03
CGA:  36    -0.674131752964E+03    0.88850E-05   -0.15938E-04  8424   0.750E-03 0.753E-03
CGA:  37    -0.674131744197E+03    0.87671E-05   -0.15182E-04  8424   0.743E-03 0.746E-03
CGA:  38    -0.674131735562E+03    0.86345E-05   -0.14474E-04  8424   0.736E-03 0.739E-03
CGA:  39    -0.674131727072E+03    0.84905E-05   -0.13808E-04  8424   0.730E-03 0.733E-03
CGA:  40    -0.674131718734E+03    0.83378E-05   -0.13182E-04  8424   0.724E-03 0.727E-03
CGA:  41    -0.674131710555E+03    0.81788E-05   -0.12591E-04  8424   0.719E-03 0.721E-03
CGA:  42    -0.674131702540E+03    0.80150E-05   -0.12033E-04  8424   0.714E-03 0.716E-03
CGA:  43    -0.674131694692E+03    0.78482E-05   -0.11505E-04  8424   0.709E-03 0.711E-03
CGA:  44    -0.674131687013E+03    0.76790E-05   -0.11006E-04  8424   0.704E-03 0.706E-03
CGA:  45    -0.674131679504E+03    0.75088E-05   -0.10532E-04  8424   0.700E-03 0.702E-03
CGA:  46    -0.674131672167E+03    0.73376E-05   -0.10082E-04  8424   0.696E-03 0.698E-03
   7 F= -.67413167E+03 E0= -.67413167E+03  d E =-.454939E-01  mag=     7.0000
       N       E                     dE             d eps       ncg     rms          ort
SDA:   1    -0.673863295374E+03    0.26838E+00    0.00000E+00  8424   0.853E+00 0.000E+00
CGA:   2    -0.674032249973E+03   -0.16895E+00   -0.16766E-02  8424   0.513E+00-0.145E+00
CGA:   3    -0.674112098565E+03   -0.79849E-01   -0.79034E-01  8424   0.137E+00 0.674E-02
CGA:   4    -0.674133978191E+03   -0.21880E-01   -0.21509E-01  8424   0.294E-01 0.454E-02
CGA:   5    -0.674138923732E+03   -0.49455E-02   -0.46353E-02  8424   0.592E-02 0.412E-02
CGA:   6    -0.674139873899E+03   -0.95017E-03   -0.83145E-03  8424   0.206E-02 0.281E-02
CGA:   7    -0.674140095110E+03   -0.22121E-03   -0.23366E-03  8424   0.116E-02 0.197E-02
CGA:   8    -0.674140132305E+03   -0.37195E-04   -0.65020E-04  8424   0.934E-03 0.103E-02
CGA:   9    -0.674140144968E+03   -0.12663E-04   -0.43316E-04  8424   0.821E-03 0.873E-03
CGA:  10    -0.674140147826E+03   -0.28579E-05   -0.33406E-04  8424   0.749E-03 0.782E-03
CGA:  11    -0.674140145648E+03    0.21771E-05   -0.27513E-04  8424   0.700E-03 0.722E-03
CGA:  12    -0.674140140570E+03    0.50781E-05   -0.23524E-04  8424   0.662E-03 0.679E-03
CGA:  13    -0.674140133720E+03    0.68504E-05   -0.20606E-04  8424   0.633E-03 0.646E-03
CGA:  14    -0.674140125759E+03    0.79611E-05   -0.18357E-04  8424   0.609E-03 0.619E-03
CGA:  15    -0.674140117103E+03    0.86558E-05   -0.16558E-04  8424   0.589E-03 0.597E-03
CGA:  16    -0.674140108027E+03    0.90761E-05   -0.15078E-04  8424   0.572E-03 0.579E-03
CGA:  17    -0.674140098718E+03    0.93092E-05   -0.13833E-04  8424   0.558E-03 0.564E-03
CGA:  18    -0.674140089307E+03    0.94105E-05   -0.12768E-04  8424   0.546E-03 0.551E-03
CGA:  19    -0.674140079889E+03    0.94179E-05   -0.11844E-04  8424   0.535E-03 0.539E-03
CGA:  20    -0.674140070532E+03    0.93569E-05   -0.11031E-04  8424   0.525E-03 0.529E-03
CGA:  21    -0.674140061286E+03    0.92468E-05   -0.10310E-04  8424   0.517E-03 0.520E-03
   8 F= -.67414006E+03 E0= -.67414006E+03  d E =-.838912E-02  mag=     7.0000
       N       E                     dE             d eps       ncg     rms          ort
SDA:   1    -0.674010225570E+03    0.12984E+00    0.00000E+00  8424   0.351E+00 0.000E+00
CGA:   2    -0.674104417820E+03   -0.94192E-01   -0.31659E-03  8424   0.232E+00-0.788E-01
CGA:   3    -0.674132135838E+03   -0.27718E-01   -0.27440E-01  8424   0.571E-01 0.506E-02
CGA:   4    -0.674141509497E+03   -0.93737E-02   -0.91831E-02  8424   0.140E-01 0.332E-02
CGA:   5    -0.674143736812E+03   -0.22273E-02   -0.21472E-02  8424   0.338E-02 0.192E-02
CGA:   6    -0.674144185511E+03   -0.44870E-03   -0.43513E-03  8424   0.137E-02 0.169E-02
CGA:   7    -0.674144271636E+03   -0.86126E-04   -0.11117E-03  8424   0.816E-03 0.102E-02
CGA:   8    -0.674144286970E+03   -0.15334E-04   -0.48241E-04  8424   0.656E-03 0.726E-03
CGA:   9    -0.674144286693E+03    0.27673E-06   -0.32149E-04  8424   0.572E-03 0.609E-03
CGA:  10    -0.674144280259E+03    0.64343E-05   -0.24425E-04  8424   0.519E-03 0.543E-03
CGA:  11    -0.674144270907E+03    0.93515E-05   -0.19812E-04  8424   0.481E-03 0.498E-03
CGA:  12    -0.674144260080E+03    0.10827E-04   -0.16710E-04  8424   0.454E-03 0.466E-03
CGA:  13    -0.674144248518E+03    0.11562E-04   -0.14462E-04  8424   0.432E-03 0.441E-03
CGA:  14    -0.674144236638E+03    0.11880E-04   -0.12749E-04  8424   0.414E-03 0.422E-03
CGA:  15    -0.674144224690E+03    0.11948E-04   -0.11392E-04  8424   0.400E-03 0.406E-03
CGA:  16    -0.674144212828E+03    0.11862E-04   -0.10288E-04  8424   0.388E-03 0.393E-03
CGA:  17    -0.674144201152E+03    0.11677E-04   -0.93702E-05  8424   0.377E-03 0.382E-03
CGA:  18    -0.674144189724E+03    0.11428E-04   -0.85935E-05  8424   0.369E-03 0.372E-03
CGA:  19    -0.674144178584E+03    0.11139E-04   -0.79267E-05  8424   0.361E-03 0.364E-03
CGA:  20    -0.674144167758E+03    0.10826E-04   -0.73474E-05  8424   0.354E-03 0.357E-03
CGA:  21    -0.674144157260E+03    0.10499E-04   -0.68389E-05  8424   0.349E-03 0.351E-03
CGA:  22    -0.674144147095E+03    0.10164E-04   -0.63886E-05  8424   0.344E-03 0.346E-03
CGA:  23    -0.674144137267E+03    0.98282E-05   -0.59864E-05  8424   0.339E-03 0.341E-03
   9 F= -.67414414E+03 E0= -.67414414E+03  d E =-.407598E-02  mag=     7.0000
       N       E                     dE             d eps       ncg     rms          ort
SDA:   1    -0.673819568441E+03    0.32458E+00    0.00000E+00  8424   0.862E+00 0.000E+00
CGA:   2    -0.674056485296E+03   -0.23692E+00   -0.23656E+00  8424   0.365E+00 0.188E-02
CGA:   3    -0.674125337510E+03   -0.68852E-01   -0.68028E-01  8424   0.924E-01 0.699E-02
CGA:   4    -0.674141948590E+03   -0.16611E-01   -0.16235E-01  8424   0.205E-01 0.387E-02
CGA:   5    -0.674145463155E+03   -0.35146E-02   -0.33327E-02  8424   0.435E-02 0.241E-02
CGA:   6    -0.674146182877E+03   -0.71972E-03   -0.62625E-03  8424   0.138E-02 0.210E-02
CGA:   7    -0.674146328500E+03   -0.14562E-03   -0.15838E-03  8424   0.817E-03 0.138E-02
CGA:   8    -0.674146355453E+03   -0.26954E-04   -0.47497E-04  8424   0.668E-03 0.733E-03
CGA:   9    -0.674146365805E+03   -0.10351E-04   -0.32732E-04  8424   0.590E-03 0.626E-03
CGA:  10    -0.674146368953E+03   -0.31487E-05   -0.25508E-04  8424   0.539E-03 0.562E-03
CGA:  11    -0.674146368170E+03    0.78363E-06   -0.21004E-04  8424   0.501E-03 0.518E-03
CGA:  12    -0.674146365010E+03    0.31595E-05   -0.17860E-04  8424   0.473E-03 0.486E-03
CGA:  13    -0.674146360343E+03    0.46671E-05   -0.15515E-04  8424   0.449E-03 0.460E-03
CGA:  14    -0.674146354698E+03    0.56450E-05   -0.13687E-04  8424   0.430E-03 0.439E-03
CGA:  15    -0.674146348420E+03    0.62780E-05   -0.12218E-04  8424   0.414E-03 0.421E-03
CGA:  16    -0.674146341742E+03    0.66783E-05   -0.11007E-04  8424   0.400E-03 0.406E-03
  10 F= -.67414634E+03 E0= -.67414634E+03  d E =-.220447E-02  mag=     7.0000
       N       E                     dE             d eps       ncg     rms          ort
SDA:   1    -0.674014323396E+03    0.13203E+00    0.00000E+00  8424   0.338E+00 0.000E+00
CGA:   2    -0.674112349345E+03   -0.98026E-01   -0.97128E-01  8424   0.157E+00 0.402E-02
CGA:   3    -0.674140640387E+03   -0.28291E-01   -0.27962E-01  8424   0.338E-01 0.329E-02
CGA:   4    -0.674146392100E+03   -0.57517E-02   -0.54998E-02  8424   0.811E-02 0.324E-02
CGA:   5    -0.674147737714E+03   -0.13456E-02   -0.12161E-02  8424   0.178E-02 0.253E-02
CGA:   6    -0.674147956627E+03   -0.21891E-03   -0.21414E-03  8424   0.901E-03 0.144E-02
CGA:   7    -0.674147999145E+03   -0.42517E-04   -0.59510E-04  8424   0.657E-03 0.758E-03
CGA:   8    -0.674148011701E+03   -0.12556E-04   -0.34052E-04  8424   0.559E-03 0.605E-03
CGA:   9    -0.674148014686E+03   -0.29852E-05   -0.24783E-04  8424   0.501E-03 0.528E-03
CGA:  10    -0.674148013106E+03    0.15798E-05   -0.19632E-04  8424   0.460E-03 0.479E-03
CGA:  11    -0.674148009023E+03    0.40833E-05   -0.16282E-04  8424   0.430E-03 0.444E-03
CGA:  12    -0.674148003477E+03    0.55462E-05   -0.13904E-04  8424   0.406E-03 0.417E-03
CGA:  13    -0.674147997056E+03    0.64201E-05   -0.12118E-04  8424   0.387E-03 0.396E-03
CGA:  14    -0.674147990121E+03    0.69358E-05   -0.10722E-04  8424   0.372E-03 0.379E-03
  11 F= -.67414799E+03 E0= -.67414799E+03  d E =-.164838E-02  mag=     7.0000
       N       E                     dE             d eps       ncg     rms          ort
SDA:   1    -0.673907986258E+03    0.24001E+00    0.00000E+00  8424   0.653E+00 0.000E+00
CGA:   2    -0.674075036176E+03   -0.16705E+00   -0.16624E+00  8424   0.288E+00 0.430E-02
CGA:   3    -0.674129813315E+03   -0.54777E-01   -0.54512E-01  8424   0.734E-01 0.240E-02
CGA:   4    -0.674142573831E+03   -0.12761E-01   -0.12465E-01  8424   0.180E-01 0.350E-02
CGA:   5    -0.674145603517E+03   -0.30297E-02   -0.28530E-02  8424   0.358E-02 0.281E-02
CGA:   6    -0.674146212130E+03   -0.60861E-03   -0.53987E-03  8424   0.117E-02 0.177E-02
CGA:   7    -0.674146338284E+03   -0.12615E-03   -0.14115E-03  8424   0.675E-03 0.115E-02
CGA:   8    -0.674146357382E+03   -0.19098E-04   -0.39725E-04  8424   0.550E-03 0.604E-03
CGA:   9    -0.674146362854E+03   -0.54727E-05   -0.27110E-04  8424   0.486E-03 0.515E-03
CGA:  10    -0.674146362675E+03    0.17916E-06   -0.21055E-04  8424   0.444E-03 0.463E-03
CGA:  11    -0.674146359517E+03    0.31578E-05   -0.17304E-04  8424   0.413E-03 0.427E-03
CGA:  12    -0.674146354629E+03    0.48881E-05   -0.14695E-04  8424   0.390E-03 0.400E-03
CGA:  13    -0.674146348695E+03    0.59345E-05   -0.12753E-04  8424   0.371E-03 0.379E-03
CGA:  14    -0.674146342125E+03    0.65697E-05   -0.11242E-04  8424   0.355E-03 0.362E-03
CGA:  15    -0.674146335182E+03    0.69429E-05   -0.10027E-04  8424   0.342E-03 0.347E-03
  12 F= -.67414634E+03 E0= -.67414634E+03  d E =0.165494E-02  mag=     7.0000
       N       E                     dE             d eps       ncg     rms          ort
SDA:   1    -0.673997133773E+03    0.14921E+00    0.00000E+00  8424   0.419E+00 0.000E+00
CGA:   2    -0.674095752234E+03   -0.98618E-01   -0.98080E-01  8424   0.196E+00 0.327E-02
CGA:   3    -0.674134525070E+03   -0.38773E-01   -0.38371E-01  8424   0.506E-01 0.348E-02
CGA:   4    -0.674142974698E+03   -0.84496E-02   -0.82776E-02  8424   0.119E-01 0.229E-02
CGA:   5    -0.674145009406E+03   -0.20347E-02   -0.19072E-02  8424   0.233E-02 0.199E-02
CGA:   6    -0.674145348819E+03   -0.33941E-03   -0.31013E-03  8424   0.888E-03 0.139E-02
CGA:   7    -0.674145400372E+03   -0.51553E-04   -0.65663E-04  8424   0.588E-03 0.703E-03
CGA:   8    -0.674145413536E+03   -0.13164E-04   -0.32878E-04  8424   0.485E-03 0.531E-03
CGA:   9    -0.674145416306E+03   -0.27705E-05   -0.22782E-04  8424   0.426E-03 0.453E-03
CGA:  10    -0.674145414461E+03    0.18455E-05   -0.17513E-04  8424   0.387E-03 0.404E-03
CGA:  11    -0.674145410219E+03    0.42416E-05   -0.14223E-04  8424   0.358E-03 0.371E-03
CGA:  12    -0.674145404648E+03    0.55718E-05   -0.11957E-04  8424   0.336E-03 0.346E-03
CGA:  13    -0.674145398324E+03    0.63231E-05   -0.10294E-04  8424   0.319E-03 0.326E-03
  13 F= -.67414540E+03 E0= -.67414540E+03  d E =0.936858E-03  mag=     7.0000
       N       E                     dE             d eps       ncg     rms          ort
SDA:   1    -0.674096271226E+03    0.49133E-01    0.00000E+00  8424   0.131E+00 0.000E+00
CGA:   2    -0.674130939293E+03   -0.34668E-01   -0.34316E-01  8424   0.601E-01 0.188E-02
CGA:   3    -0.674142242408E+03   -0.11303E-01   -0.11020E-01  8424   0.136E-01 0.297E-02
CGA:   4    -0.674144607889E+03   -0.23655E-02   -0.22507E-02  8424   0.315E-02 0.169E-02
CGA:   5    -0.674145107583E+03   -0.49969E-03   -0.45588E-03  8424   0.797E-03 0.125E-02
CGA:   6    -0.674145172779E+03   -0.65196E-04   -0.82109E-04  8424   0.465E-03 0.768E-03
CGA:   7    -0.674145178358E+03   -0.55790E-05   -0.23651E-04  8424   0.370E-03 0.413E-03
CGA:   8    -0.674145176465E+03    0.18930E-05   -0.15526E-04  8424   0.323E-03 0.345E-03
CGA:   9    -0.674145171851E+03    0.46136E-05   -0.11781E-04  8424   0.293E-03 0.307E-03
  14 F= -.67414517E+03 E0= -.67414517E+03  d E =0.226473E-03  mag=     7.0000
       N       E                     dE             d eps       ncg     rms          ort
SDA:   1    -0.674113526327E+03    0.31650E-01    0.00000E+00  8424   0.941E-01 0.000E+00
CGA:   2    -0.674133142650E+03   -0.19616E-01   -0.19397E-01  8424   0.403E-01 0.179E-02
CGA:   3    -0.674141640621E+03   -0.84980E-02   -0.82684E-02  8424   0.121E-01 0.206E-02
CGA:   4    -0.674143665936E+03   -0.20253E-02   -0.19330E-02  8424   0.262E-02 0.164E-02
CGA:   5    -0.674144047220E+03   -0.38128E-03   -0.35618E-03  8424   0.714E-03 0.121E-02
CGA:   6    -0.674144099032E+03   -0.51812E-04   -0.72972E-04  8424   0.409E-03 0.705E-03
CGA:   7    -0.674144101856E+03   -0.28246E-05   -0.20510E-04  8424   0.331E-03 0.366E-03
CGA:   8    -0.674144098735E+03    0.31213E-05   -0.13737E-04  8424   0.290E-03 0.309E-03
CGA:   9    -0.674144093441E+03    0.52935E-05   -0.10492E-04  8424   0.264E-03 0.276E-03
  15 F= -.67414409E+03 E0= -.67414409E+03  d E =0.107841E-02  mag=     7.0000
       N       E                     dE             d eps       ncg     rms          ort
SDA:   1    -0.674129240756E+03    0.14858E-01    0.00000E+00  8424   0.434E-01 0.000E+00
CGA:   2    -0.674138713571E+03   -0.94728E-02   -0.92286E-02  8424   0.187E-01 0.195E-02
CGA:   3    -0.674142595327E+03   -0.38818E-02   -0.37069E-02  8424   0.495E-02 0.181E-02
CGA:   4    -0.674143422308E+03   -0.82698E-03   -0.77127E-03  8424   0.113E-02 0.128E-02
CGA:   5    -0.674143549801E+03   -0.12749E-03   -0.13332E-03  8424   0.473E-03 0.828E-03
CGA:   6    -0.674143561360E+03   -0.11559E-04   -0.27914E-04  8424   0.338E-03 0.395E-03
CGA:   7    -0.674143560653E+03    0.70766E-06   -0.15542E-04  8424   0.285E-03 0.310E-03
CGA:   8    -0.674143556517E+03    0.41361E-05   -0.11102E-04  8424   0.253E-03 0.268E-03
  16 F= -.67414356E+03 E0= -.67414356E+03  d E =0.536925E-03  mag=     7.0000
       N       E                     dE             d eps       ncg     rms          ort
SDA:   1    -0.674126543701E+03    0.17017E-01    0.00000E+00  8424   0.445E-01 0.000E+00
CGA:   2    -0.674137558130E+03   -0.11014E-01   -0.10733E-01  8424   0.207E-01 0.186E-02
CGA:   3    -0.674141697549E+03   -0.41394E-02   -0.39807E-02  8424   0.478E-02 0.182E-02
CGA:   4    -0.674142473362E+03   -0.77581E-03   -0.72850E-03  8424   0.112E-02 0.123E-02
CGA:   5    -0.674142604994E+03   -0.13163E-03   -0.13671E-03  8424   0.452E-03 0.795E-03
CGA:   6    -0.674142617876E+03   -0.12882E-04   -0.28193E-04  8424   0.318E-03 0.373E-03
CGA:   7    -0.674142617533E+03    0.34268E-06   -0.15236E-04  8424   0.268E-03 0.291E-03
CGA:   8    -0.674142613675E+03    0.38588E-05   -0.10838E-04  8424   0.238E-03 0.252E-03
  17 F= -.67414261E+03 E0= -.67414261E+03  d E =0.942842E-03  mag=     7.0000
       N       E                     dE             d eps       ncg     rms          ort
SDA:   1    -0.674080638081E+03    0.61979E-01    0.00000E+00  8424   0.175E+00 0.000E+00
CGA:   2    -0.674118789655E+03   -0.38152E-01   -0.37838E-01  8424   0.773E-01 0.251E-02
CGA:   3    -0.674135003145E+03   -0.16213E-01   -0.16014E-01  8424   0.221E-01 0.187E-02
CGA:   4    -0.674138716279E+03   -0.37131E-02   -0.36541E-02  8424   0.527E-02 0.103E-02
CGA:   5    -0.674139599793E+03   -0.88351E-03   -0.84319E-03  8424   0.105E-02 0.880E-03
CGA:   6    -0.674139737831E+03   -0.13804E-03   -0.13676E-03  8424   0.419E-03 0.650E-03
CGA:   7    -0.674139753398E+03   -0.15567E-04   -0.29118E-04  8424   0.287E-03 0.339E-03
CGA:   8    -0.674139754216E+03   -0.81744E-06   -0.15093E-04  8424   0.239E-03 0.260E-03
CGA:   9    -0.674139751246E+03    0.29696E-05   -0.10580E-04  8424   0.212E-03 0.224E-03
  18 F= -.67413975E+03 E0= -.67413975E+03  d E =0.286243E-02  mag=     7.0000
       N       E                     dE             d eps       ncg     rms          ort
SDA:   1    -0.674040902909E+03    0.98851E-01    0.00000E+00  8424   0.319E+00 0.000E+00
CGA:   2    -0.674102999642E+03   -0.62097E-01   -0.61996E-01  8424   0.124E+00 0.100E-02
CGA:   3    -0.674129853409E+03   -0.26854E-01   -0.26639E-01  8424   0.420E-01 0.189E-02
CGA:   4    -0.674136958219E+03   -0.71048E-02   -0.70337E-02  8424   0.101E-01 0.126E-02
CGA:   5    -0.674138663093E+03   -0.17049E-02   -0.16579E-02  8424   0.194E-02 0.993E-03
CGA:   6    -0.674138977391E+03   -0.31430E-03   -0.29510E-03  8424   0.542E-03 0.782E-03
CGA:   7    -0.674139023683E+03   -0.46292E-04   -0.62628E-04  8424   0.299E-03 0.495E-03
CGA:   8    -0.674139026624E+03   -0.29405E-05   -0.17497E-04  8424   0.236E-03 0.264E-03
CGA:   9    -0.674139024010E+03    0.26136E-05   -0.11256E-04  8424   0.205E-03 0.219E-03
  19 F= -.67413902E+03 E0= -.67413902E+03  d E =0.727236E-03  mag=     7.0000
       N       E                     dE             d eps       ncg     rms          ort
SDA:   1    -0.674117011370E+03    0.22015E-01    0.00000E+00  8424   0.744E-01 0.000E+00
CGA:   2    -0.674131709919E+03   -0.14699E-01   -0.14590E-01  8424   0.281E-01 0.117E-02
CGA:   3    -0.674137728522E+03   -0.60186E-02   -0.59238E-02  8424   0.887E-02 0.950E-03
CGA:   4    -0.674139204943E+03   -0.14764E-02   -0.14373E-02  8424   0.211E-02 0.911E-03
CGA:   5    -0.674139517523E+03   -0.31258E-03   -0.30199E-03  8424   0.500E-03 0.769E-03
CGA:   6    -0.674139555749E+03   -0.38227E-04   -0.54473E-04  8424   0.267E-03 0.439E-03
CGA:   7    -0.674139557616E+03   -0.18666E-05   -0.15197E-04  8424   0.203E-03 0.230E-03
  20 F= -.67413956E+03 E0= -.67413956E+03  d E =-.533605E-03  mag=     7.0000
       N       E                     dE             d eps       ncg     rms          ort
SDA:   1    -0.674088788904E+03    0.50767E-01    0.00000E+00  8424   0.144E+00 0.000E+00
CGA:   2    -0.674120349442E+03   -0.31561E-01   -0.31517E-01  8424   0.680E-01 0.376E-03
CGA:   3    -0.674134549419E+03   -0.14200E-01   -0.14091E-01  8424   0.191E-01 0.116E-02
CGA:   4    -0.674137609909E+03   -0.30605E-02   -0.30166E-02  8424   0.415E-02 0.120E-02
CGA:   5    -0.674138259003E+03   -0.64909E-03   -0.62861E-03  8424   0.816E-03 0.933E-03
CGA:   6    -0.674138356875E+03   -0.97873E-04   -0.10627E-03  8424   0.354E-03 0.545E-03
CGA:   7    -0.674138370806E+03   -0.13931E-04   -0.26732E-04  8424   0.237E-03 0.282E-03
CGA:   8    -0.674138370576E+03    0.23005E-06   -0.13257E-04  8424   0.197E-03 0.215E-03
  21 F= -.67413837E+03 E0= -.67413837E+03  d E =0.118704E-02  mag=     7.0000
       N       E                     dE             d eps       ncg     rms          ort
SDA:   1    -0.674128305206E+03    0.10066E-01    0.00000E+00  8424   0.337E-01 0.000E+00
CGA:   2    -0.674134754901E+03   -0.64497E-02   -0.63717E-02  8424   0.126E-01 0.101E-02
CGA:   3    -0.674137534788E+03   -0.27799E-02   -0.26831E-02  8424   0.401E-02 0.107E-02
