       N       E                     dE             d eps       ncg     rms          ort
DAV:   1     0.826339295081E+04    0.82634E+04   -0.24582E+05  8424   0.238E+03
DAV:   2     0.877819733364E+03   -0.73856E+04   -0.69144E+04  8424   0.658E+02
DAV:   3    -0.736776043286E+03   -0.16146E+04   -0.14250E+04  8424   0.284E+02
DAV:   4    -0.895525617678E+03   -0.15875E+03   -0.15602E+03  8424   0.862E+01
DAV:   5    -0.898192185625E+03   -0.26666E+01   -0.26527E+01  8424   0.125E+01
SDA:   6    -0.243379145632E+03    0.65481E+03   -0.26527E+01  8424   0.524E+04 0.000E+00
CGA:   7    -0.457203309744E+03   -0.21382E+03   -0.36991E+03  8424   0.103E+05-0.102E+04
CGA:   8    -0.545083013011E+03   -0.87880E+02   -0.40225E+03  8424   0.111E+04-0.140E+04
CGA:   9    -0.603891147154E+03   -0.58808E+02   -0.17617E+02  8424   0.420E+03 0.302E+03
CGA:  10    -0.631680312944E+03   -0.27789E+02   -0.24763E+02  8424   0.665E+03 0.127E+02
CGA:  11    -0.623734885104E+03    0.79454E+01   -0.22480E+02  8424   0.159E+04-0.117E+01
CGA:  12    -0.628280515869E+03   -0.45456E+01   -0.16432E+02  8424   0.967E+03 0.193E+04
CGA:  13    -0.651840879712E+03   -0.23560E+02   -0.12433E+02  8424   0.241E+03 0.478E+03
CGA:  14    -0.656726739511E+03   -0.48859E+01   -0.12062E+02  8424   0.403E+03-0.998E+02
CGA:  15    -0.670364803418E+03   -0.13638E+02   -0.13859E+02  8424   0.461E+03 0.758E+00
CGA:  16    -0.672886715995E+03   -0.25219E+01   -0.15100E+02  8424   0.430E+03-0.185E+03
CGA:  17    -0.664959816399E+03    0.79269E+01   -0.69187E+01  8424   0.571E+03-0.393E+03
CGA:  18    -0.667546533172E+03   -0.25867E+01   -0.22770E+02  8424   0.920E+03-0.488E+03
CGA:  19    -0.668544212768E+03   -0.99768E+00   -0.36785E+02  8424   0.568E+03-0.503E+03
CGA:  20    -0.685638294666E+03   -0.17094E+02   -0.10144E+02  8424   0.821E+02 0.248E+03
CGA:  21    -0.686260882572E+03   -0.62259E+00   -0.21850E+01  8424   0.119E+03-0.103E+03
CGA:  22    -0.686041274654E+03    0.21961E+00   -0.38571E+01  8424   0.166E+03-0.901E+02
CGA:  23    -0.688132774873E+03   -0.20915E+01   -0.35547E+01  8424   0.987E+02-0.121E+03
CGA:  24    -0.688298583437E+03   -0.16581E+00   -0.28417E+01  8424   0.124E+03-0.742E+02
CGA:  25    -0.690066013689E+03   -0.17674E+01   -0.23397E+01  8424   0.404E+02-0.473E+02
CGA:  26    -0.692902795408E+03   -0.28368E+01   -0.27639E+01  8424   0.334E+02 0.309E+01
CGA:  27    -0.694021148066E+03   -0.11184E+01   -0.14143E+01  8424   0.246E+02-0.519E+01
CGA:  28    -0.695694125970E+03   -0.16730E+01   -0.17107E+01  8424   0.127E+02 0.139E+01
CGA:  29    -0.696290033510E+03   -0.59591E+00   -0.80421E+00  8424   0.222E+01 0.142E+01
CGA:  30    -0.696537494889E+03   -0.24746E+00   -0.24710E+00  8424   0.314E+01 0.322E-01
CGA:  31    -0.696941099276E+03   -0.40360E+00   -0.41907E+00  8424   0.172E+01-0.229E+00
CGA:  32    -0.697095793082E+03   -0.15469E+00   -0.15414E+00  8424   0.108E+01 0.870E-01
CGA:  33    -0.697224680852E+03   -0.12889E+00   -0.13452E+00  8424   0.119E+01-0.267E+00
CGA:  34    -0.697270273081E+03   -0.45592E-01   -0.39978E-01  8424   0.183E+01 0.732E-01
CGA:  35    -0.697329113014E+03   -0.58840E-01   -0.50209E-01  8424   0.835E+00 0.265E+00
CGA:  36    -0.697355774088E+03   -0.26661E-01   -0.29609E-01  8424   0.632E+00-0.795E-01
CGA:  37    -0.697388231945E+03   -0.32458E-01   -0.34636E-01  8424   0.894E+00 0.160E-01
CGA:  38    -0.697429399328E+03   -0.41167E-01   -0.43254E-01  8424   0.450E+00 0.107E-01
CGA:  39    -0.697458302123E+03   -0.28903E-01   -0.28909E-01  8424   0.350E+00 0.437E-02
CGA:  40    -0.697475011904E+03   -0.16710E-01   -0.16874E-01  8424   0.239E+00-0.591E-02
CGA:  41    -0.697494930688E+03   -0.19919E-01   -0.19761E-01  8424   0.291E+00 0.225E-01
CGA:  42    -0.697514415248E+03   -0.19485E-01   -0.20119E-01  8424   0.940E-01 0.209E-01
CGA:  43    -0.697530145821E+03   -0.15731E-01   -0.15498E-01  8424   0.117E+00 0.204E-02
CGA:  44    -0.697539769912E+03   -0.96241E-02   -0.95866E-02  8424   0.113E+00-0.156E-01
CGA:  45    -0.697552134786E+03   -0.12365E-01   -0.12433E-01  8424   0.707E-01-0.384E-02
CGA:  46    -0.697557039778E+03   -0.49050E-02   -0.49594E-02  8424   0.526E-01 0.287E-02
CGA:  47    -0.697564741116E+03   -0.77013E-02   -0.83989E-02  8424   0.475E-01-0.105E-01
CGA:  48    -0.697570189552E+03   -0.54484E-02   -0.69813E-02  8424   0.630E-01-0.169E-01
CGA:  49    -0.697574623533E+03   -0.44340E-02   -0.47493E-02  8424   0.518E-01-0.153E-01
CGA:  50    -0.697578318415E+03   -0.36949E-02   -0.54682E-02  8424   0.620E-01-0.396E-01
CGA:  51    -0.697582529490E+03   -0.42111E-02   -0.43567E-02  8424   0.265E-01 0.556E-02
CGA:  52    -0.697587155701E+03   -0.46262E-02   -0.48777E-02  8424   0.486E-01-0.355E-02
CGA:  53    -0.697592686671E+03   -0.55310E-02   -0.56588E-02  8424   0.312E-01-0.342E-02
CGA:  54    -0.697596813976E+03   -0.41273E-02   -0.59734E-02  8424   0.800E-01-0.179E-01
CGA:  55    -0.697601079360E+03   -0.42654E-02   -0.39889E-02  8424   0.190E-01-0.500E-02
CGA:  56    -0.697602843196E+03   -0.17638E-02   -0.17672E-02  8424   0.111E-01 0.958E-03
CGA:  57    -0.697603907203E+03   -0.10640E-02   -0.40885E-02  8424   0.470E-01-0.128E-01
CGA:  58    -0.697606584551E+03   -0.26773E-02   -0.27870E-02  8424   0.117E-01 0.172E-02
CGA:  59    -0.697607918463E+03   -0.13339E-02   -0.13088E-02  8424   0.239E-01-0.555E-02
CGA:  60    -0.697609435808E+03   -0.15173E-02   -0.17570E-02  8424   0.350E-01-0.945E-02
CGA:  61    -0.697610736553E+03   -0.13007E-02   -0.12306E-02  8424   0.372E-01-0.830E-02
CGA:  62    -0.697618927712E+03   -0.81912E-02    0.51509E-02  8424   0.622E-01 0.109E-01
CGA:  63    -0.697637398866E+03   -0.18471E-01    0.12314E+00  8424   0.216E+00 0.325E-01
CGA:  64    -0.697646417568E+03   -0.90187E-02   -0.80227E-02  8424   0.932E-01-0.308E-02
CGA:  65    -0.697661921575E+03   -0.15504E-01   -0.16231E-01  8424   0.120E+00-0.114E-01
CGA:  66    -0.697685759906E+03   -0.23838E-01    0.21079E+00  8424   0.111E+00 0.906E-01
CGA:  67    -0.697708630255E+03   -0.22870E-01   -0.24192E-01  8424   0.161E+00-0.120E-01
CGA:  68    -0.697745523732E+03   -0.36893E-01    0.78610E-01  8424   0.226E+00 0.148E+00
CGA:  69    -0.697770910393E+03   -0.25387E-01   -0.25338E-01  8424   0.390E+00-0.143E-01
CGA:  70    -0.697794108479E+03   -0.23198E-01   -0.22770E-01  8424   0.263E+00-0.109E-01
CGA:  71    -0.697866882733E+03   -0.72774E-01   -0.94156E-01  8424   0.119E+01-0.741E-01
CGA:  72    -0.697879758945E+03   -0.12876E-01   -0.71221E-02  8424   0.916E+00 0.741E+00
CGA:  73    -0.697911747428E+03   -0.31988E-01   -0.27880E-01  8424   0.176E+00 0.147E+00
CGA:  74    -0.697933242408E+03   -0.21495E-01   -0.21520E-01  8424   0.291E+00 0.130E-01
CGA:  75    -0.697949625381E+03   -0.16383E-01   -0.21218E-01  8424   0.302E+00 0.963E-02
CGA:  76    -0.697989905990E+03   -0.40281E-01   -0.30692E-01  8424   0.392E+01-0.255E+00
CGA:  77    -0.698057780054E+03   -0.67874E-01   -0.81739E-01  8424   0.128E+01-0.636E+00
CGA:  78    -0.698295470855E+03   -0.23769E+00   -0.27626E+00  8424   0.707E+01-0.164E+00
CGA:  79    -0.698374363267E+03   -0.78892E-01   -0.15244E+00  8424   0.254E+01-0.238E+01
CGA:  80    -0.698476494175E+03   -0.10213E+00   -0.11089E+00  8424   0.281E+01 0.292E-01
CGA:  81    -0.698648143773E+03   -0.17165E+00   -0.18179E+00  8424   0.191E+01 0.682E-01
CGA:  82    -0.698784907960E+03   -0.13676E+00   -0.13367E+00  8424   0.106E+01 0.239E+00
CGA:  83    -0.698819978853E+03   -0.35071E-01   -0.22472E-01  8424   0.662E+00 0.727E+00
CGA:  84    -0.698885951723E+03   -0.65973E-01   -0.65973E-01  8424   0.242E+00 0.629E-02
CGA:  85    -0.698914614550E+03   -0.28663E-01   -0.28217E-01  8424   0.174E+00 0.176E-01
CGA:  86    -0.698940975570E+03   -0.26361E-01   -0.25964E-01  8424   0.218E+00 0.202E-01
CGA:  87    -0.698992370135E+03   -0.51395E-01   -0.45030E-01  8424   0.326E+00 0.771E-01
CGA:  88    -0.699050601253E+03   -0.58231E-01   -0.56383E-01  8424   0.489E+00 0.684E-01
CGA:  89    -0.699127672987E+03   -0.77072E-01   -0.78229E-01  8424   0.417E+00-0.246E-01
CGA:  90    -0.699159288431E+03   -0.31615E-01   -0.33321E-01  8424   0.283E+00 0.207E-01
CGA:  91    -0.699195599010E+03   -0.36311E-01   -0.36763E-01  8424   0.240E+00-0.221E-01
CGA:  92    -0.699220360577E+03   -0.24762E-01   -0.24892E-01  8424   0.342E+00-0.170E-01
CGA:  93    -0.699242081419E+03   -0.21721E-01   -0.21977E-01  8424   0.257E+00 0.716E-02
CGA:  94    -0.699258490237E+03   -0.16409E-01   -0.17642E-01  8424   0.205E+00 0.507E-02
CGA:  95    -0.699284214591E+03   -0.25724E-01   -0.25618E-01  8424   0.184E+00 0.463E-02
CGA:  96    -0.699301061427E+03   -0.16847E-01   -0.16631E-01  8424   0.206E+00-0.386E-02
CGA:  97    -0.699316708948E+03   -0.15648E-01   -0.15745E-01  8424   0.152E+00-0.187E-02
CGA:  98    -0.699328356316E+03   -0.11647E-01   -0.11812E-01  8424   0.144E+00-0.972E-03
CGA:  99    -0.699340595464E+03   -0.12239E-01   -0.12257E-01  8424   0.870E-01-0.318E-03
CGA: 100    -0.699349425411E+03   -0.88299E-02   -0.88282E-02  8424   0.108E+00 0.492E-02
CGA: 101    -0.699358600024E+03   -0.91746E-02   -0.93628E-02  8424   0.647E-01 0.789E-02
CGA: 102    -0.699366833653E+03   -0.82336E-02   -0.81058E-02  8424   0.800E-01 0.681E-02
CGA: 103    -0.699374548171E+03   -0.77145E-02   -0.77181E-02  8424   0.682E-01 0.113E-02
CGA: 104    -0.699383066915E+03   -0.85187E-02   -0.85129E-02  8424   0.578E-01-0.677E-03
CGA: 105    -0.699387272630E+03   -0.42057E-02   -0.42130E-02  8424   0.437E-01-0.323E-03
CGA: 106    -0.699392036143E+03   -0.47635E-02   -0.47507E-02  8424   0.355E-01 0.112E-02
CGA: 107    -0.699395736097E+03   -0.37000E-02   -0.36990E-02  8424   0.389E-01 0.126E-02
CGA: 108    -0.699398614416E+03   -0.28783E-02   -0.29309E-02  8424   0.180E-01 0.145E-02
CGA: 109    -0.699400944677E+03   -0.23303E-02   -0.23241E-02  8424   0.280E-01 0.151E-03
CGA: 110    -0.699403173913E+03   -0.22292E-02   -0.22081E-02  8424   0.173E-01-0.692E-03
CGA: 111    -0.699404958555E+03   -0.17846E-02   -0.17869E-02  8424   0.166E-01-0.289E-03
CGA: 112    -0.699405991395E+03   -0.10328E-02   -0.10531E-02  8424   0.112E-01 0.412E-03
CGA: 113    -0.699407259555E+03   -0.12682E-02   -0.12540E-02  8424   0.117E-01 0.115E-02
SDA: 114    -0.699408162368E+03   -0.90281E-03   -0.92522E-03  8424   0.913E-02 0.827E-03
CGA: 115    -0.699409150400E+03   -0.98803E-03   -0.98804E-03  8424   0.106E-01-0.362E-05
CGA: 116    -0.699410489682E+03   -0.13393E-02   -0.13488E-02  8424   0.111E-01-0.341E-03
CGA: 117    -0.699412534989E+03   -0.20453E-02   -0.20490E-02  8424   0.423E-02-0.919E-04
CGA: 118    -0.699413213067E+03   -0.67808E-03   -0.64064E-03  8424   0.187E-02 0.755E-03
CGA: 119    -0.699413646335E+03   -0.43327E-03   -0.42252E-03  8424   0.159E-02 0.117E-03
CGA: 120    -0.699413798405E+03   -0.15207E-03   -0.15046E-03  8424   0.142E-02-0.809E-04
CGA: 121    -0.699414005858E+03   -0.20745E-03   -0.22938E-03  8424   0.965E-03-0.371E-03
CGA: 122    -0.699414082984E+03   -0.77126E-04   -0.77385E-04  8424   0.418E-03 0.612E-04
CGA: 123    -0.699414136374E+03   -0.53389E-04   -0.52680E-04  8424   0.329E-03 0.115E-03
CGA: 124    -0.699414201133E+03   -0.64759E-04   -0.63460E-04  8424   0.184E-03 0.320E-04
CGA: 125    -0.699414151401E+03    0.49732E-04   -0.71334E-04  8424   0.272E-02-0.510E-03
CGA: 126    -0.699414251390E+03   -0.99989E-04   -0.10901E-03  8424   0.273E-03 0.108E-03
CGA: 127    -0.699414268299E+03   -0.16910E-04   -0.21385E-04  8424   0.821E-04 0.956E-04
CGA: 128    -0.699414274344E+03   -0.60443E-05   -0.81906E-05  8424   0.646E-04 0.466E-04
   1 F= -.69941427E+03 E0= -.69940515E+03  d E =-.699414E+03  mag=     1.9926
       N       E                     dE             d eps       ncg     rms          ort
SDA:   1    -0.699416352688E+03   -0.20844E-02    0.00000E+00  8424   0.422E-01 0.000E+00
CGA:   2    -0.699417850040E+03   -0.14974E-02   -0.14988E-02  8424   0.126E-02 0.418E-03
CGA:   3    -0.699418137662E+03   -0.28762E-03   -0.29529E-03  8424   0.793E-03-0.642E-04
CGA:   4    -0.699418228001E+03   -0.90339E-04   -0.90467E-04  8424   0.701E-03-0.635E-04
CGA:   5    -0.699418269743E+03   -0.41742E-04   -0.41434E-04  8424   0.190E-03-0.595E-05
CGA:   6    -0.699418293334E+03   -0.23591E-04   -0.23713E-04  8424   0.643E-04-0.121E-04
CGA:   7    -0.699418297879E+03   -0.45452E-05   -0.48488E-05  8424   0.403E-04 0.848E-05
   2 F= -.69941830E+03 E0= -.69940917E+03  d E =-.402354E-02  mag=     1.9926
       N       E                     dE             d eps       ncg     rms          ort
SDA:   1    -0.698977028220E+03    0.44127E+00    0.00000E+00  8424   0.175E+01 0.000E+00
CGA:   2    -0.699293606455E+03   -0.31658E+00   -0.31533E+00  8424   0.133E+01 0.156E-01
CGA:   3    -0.699395403275E+03   -0.10180E+00   -0.10073E+00  8424   0.805E+00-0.379E-03
CGA:   4    -0.699487115931E+03   -0.91713E-01   -0.91714E-01  8424   0.205E+00-0.134E-02
CGA:   5    -0.699516206818E+03   -0.29091E-01   -0.29107E-01  8424   0.715E-01-0.628E-03
CGA:   6    -0.699522949396E+03   -0.67426E-02   -0.67635E-02  8424   0.410E-01 0.109E-02
CGA:   7    -0.699525792542E+03   -0.28431E-02   -0.28850E-02  8424   0.113E-01 0.106E-02
CGA:   8    -0.699527348593E+03   -0.15561E-02   -0.15557E-02  8424   0.341E-02 0.116E-04
CGA:   9    -0.699527823614E+03   -0.47502E-03   -0.47445E-03  8424   0.287E-02 0.204E-04
CGA:  10    -0.699528038013E+03   -0.21440E-03   -0.21166E-03  8424   0.123E-02-0.723E-04
CGA:  11    -0.699528192057E+03   -0.15404E-03   -0.15410E-03  8424   0.518E-03-0.365E-05
CGA:  12    -0.699528273427E+03   -0.81370E-04   -0.82778E-04  8424   0.466E-03-0.298E-04
CGA:  13    -0.699528303801E+03   -0.30374E-04   -0.30224E-04  8424   0.188E-03-0.352E-05
CGA:  14    -0.699528334053E+03   -0.30252E-04   -0.34368E-04  8424   0.184E-03-0.580E-04
CGA:  15    -0.699528341836E+03   -0.77833E-05   -0.92172E-05  8424   0.659E-04 0.328E-04
   3 F= -.69952834E+03 E0= -.69951917E+03  d E =-.110044E+00  mag=     1.9921
       N       E                     dE             d eps       ncg     rms          ort
SDA:   1    -0.697905563115E+03    0.16228E+01    0.00000E+00  8424   0.602E+01 0.000E+00
CGA:   2    -0.698733886608E+03   -0.82832E+00   -0.81948E+00  8424   0.582E+01 0.241E+00
CGA:   3    -0.699189231995E+03   -0.45535E+00   -0.44664E+00  8424   0.240E+01-0.275E-01
CGA:   4    -0.699506133971E+03   -0.31690E+00   -0.31671E+00  8424   0.782E+00 0.417E-02
CGA:   5    -0.699602532745E+03   -0.96399E-01   -0.96683E-01  8424   0.438E+00-0.150E-01
CGA:   6    -0.699630703731E+03   -0.28171E-01   -0.28439E-01  8424   0.150E+00-0.584E-03
CGA:   7    -0.699645994829E+03   -0.15291E-01   -0.15311E-01  8424   0.401E-01 0.297E-02
CGA:   8    -0.699651234984E+03   -0.52402E-02   -0.52298E-02  8424   0.216E-01 0.484E-03
CGA:   9    -0.699652727694E+03   -0.14927E-02   -0.14965E-02  8424   0.101E-01 0.113E-03
CGA:  10    -0.699654137168E+03   -0.14095E-02   -0.14132E-02  8424   0.395E-02-0.134E-03
CGA:  11    -0.699654617816E+03   -0.48065E-03   -0.47997E-03  8424   0.302E-02 0.514E-04
CGA:  12    -0.699654872065E+03   -0.25425E-03   -0.25379E-03  8424   0.165E-02-0.234E-04
CGA:  13    -0.699655071405E+03   -0.19934E-03   -0.19902E-03  8424   0.591E-03 0.251E-04
CGA:  14    -0.699655165704E+03   -0.94299E-04   -0.10129E-03  8424   0.100E-02-0.119E-03
CGA:  15    -0.699655213339E+03   -0.47635E-04   -0.48393E-04  8424   0.228E-03 0.140E-04
CGA:  16    -0.699655222713E+03   -0.93735E-05   -0.13726E-04  8424   0.158E-03 0.857E-04
CGA:  17    -0.699655230235E+03   -0.75219E-05   -0.12156E-04  8424   0.694E-04 0.901E-04
CGA:  18    -0.699655241772E+03   -0.11537E-04   -0.11914E-04  8424   0.963E-04-0.582E-05
CGA:  19    -0.699655247198E+03   -0.54263E-05   -0.63597E-05  8424   0.456E-04 0.257E-04
   4 F= -.69965525E+03 E0= -.69964601E+03  d E =-.126905E+00  mag=     1.9919
       N       E                     dE             d eps       ncg     rms          ort
SDA:   1    -0.699137720011E+03    0.51752E+00    0.00000E+00  8424   0.166E+01 0.000E+00
CGA:   2    -0.699422790543E+03   -0.28507E+00   -0.28359E+00  8424   0.215E+01 0.199E-01
CGA:   3    -0.699567241643E+03   -0.14445E+00   -0.14285E+00  8424   0.643E+00-0.356E-04
CGA:   4    -0.699660890150E+03   -0.93649E-01   -0.93878E-01  8424   0.207E+00-0.475E-02
CGA:   5    -0.699684757616E+03   -0.23867E-01   -0.23868E-01  8424   0.869E-01-0.105E-04
CGA:   6    -0.699691215312E+03   -0.64577E-02   -0.64989E-02  8424   0.456E-01 0.870E-03
CGA:   7    -0.699695234086E+03   -0.40188E-02   -0.40466E-02  8424   0.766E-02 0.150E-02
CGA:   8    -0.699696540580E+03   -0.13065E-02   -0.13188E-02  8424   0.452E-02-0.204E-03
CGA:   9    -0.699696908974E+03   -0.36839E-03   -0.37045E-03  8424   0.290E-02 0.881E-04
CGA:  10    -0.699697168515E+03   -0.25954E-03   -0.26125E-03  8424   0.980E-03 0.859E-04
CGA:  11    -0.699697322903E+03   -0.15439E-03   -0.15313E-03  8424   0.452E-03 0.271E-04
CGA:  12    -0.699697392484E+03   -0.69580E-04   -0.70974E-04  8424   0.523E-03-0.316E-04
CGA:  13    -0.699697425577E+03   -0.33093E-04   -0.32838E-04  8424   0.191E-03-0.630E-05
CGA:  14    -0.699697455361E+03   -0.29784E-04   -0.30622E-04  8424   0.103E-03-0.158E-04
CGA:  15    -0.699697461258E+03   -0.58968E-05   -0.73660E-05  8424   0.502E-04 0.442E-04
   5 F= -.69969746E+03 E0= -.69968816E+03  d E =-.422141E-01  mag=     1.9922
       N       E                     dE             d eps       ncg     rms          ort
SDA:   1    -0.698685849086E+03    0.10116E+01    0.00000E+00  8424   0.275E+01 0.000E+00
CGA:   2    -0.699386872479E+03   -0.70102E+00   -0.70025E+00  8424   0.189E+01 0.543E-02
CGA:   3    -0.699549839676E+03   -0.16297E+00   -0.16245E+00  8424   0.146E+01-0.676E-02
CGA:   4    -0.699675990340E+03   -0.12615E+00   -0.12616E+00  8424   0.255E+00-0.141E-02
CGA:   5    -0.699710281210E+03   -0.34291E-01   -0.34194E-01  8424   0.906E-01 0.370E-02
CGA:   6    -0.699722168385E+03   -0.11887E-01   -0.11890E-01  8424   0.312E-01-0.899E-04
CGA:   7    -0.699724430791E+03   -0.22624E-02   -0.22635E-02  8424   0.177E-01 0.966E-04
CGA:   8    -0.699726219158E+03   -0.17884E-02   -0.17875E-02  8424   0.531E-02-0.111E-03
CGA:   9    -0.699727055212E+03   -0.83605E-03   -0.84317E-03  8424   0.239E-02-0.147E-03
CGA:  10    -0.699727293927E+03   -0.23872E-03   -0.24025E-03  8424   0.174E-02 0.154E-03
CGA:  11    -0.699727436832E+03   -0.14291E-03   -0.14755E-03  8424   0.767E-03 0.140E-03
CGA:  12    -0.699727576512E+03   -0.13968E-03   -0.14506E-03  8424   0.466E-03-0.847E-04
CGA:  13    -0.699727620080E+03   -0.43568E-04   -0.43741E-04  8424   0.309E-03 0.194E-04
CGA:  14    -0.699727647416E+03   -0.27336E-04   -0.27648E-04  8424   0.166E-03 0.108E-04
CGA:  15    -0.699727673077E+03   -0.25660E-04   -0.25262E-04  8424   0.640E-04 0.113E-04
CGA:  16    -0.699727680843E+03   -0.77668E-05   -0.77616E-05  8424   0.839E-04-0.791E-05
   6 F= -.69972768E+03 E0= -.69971828E+03  d E =-.302196E-01  mag=     1.9925
       N       E                     dE             d eps       ncg     rms          ort
SDA:   1    -0.698502420992E+03    0.12253E+01    0.00000E+00  8424   0.358E+01 0.000E+00
CGA:   2    -0.699264047752E+03   -0.76163E+00   -0.75908E+00  8424   0.234E+01 0.243E-01
CGA:   3    -0.699493463845E+03   -0.22942E+00   -0.23039E+00  8424   0.205E+01 0.828E-02
CGA:   4    -0.699671602705E+03   -0.17814E+00   -0.17800E+00  8424   0.413E+00-0.267E-02
CGA:   5    -0.699721662095E+03   -0.50059E-01   -0.50042E-01  8424   0.124E+00 0.287E-02
CGA:   6    -0.699739243721E+03   -0.17582E-01   -0.17582E-01  8424   0.415E-01-0.619E-04
CGA:   7    -0.699742488989E+03   -0.32453E-02   -0.32430E-02  8424   0.253E-01-0.258E-03
CGA:   8    -0.699744858577E+03   -0.23696E-02   -0.23651E-02  8424   0.768E-02-0.196E-03
CGA:   9    -0.699745945421E+03   -0.10868E-02   -0.10964E-02  8424   0.360E-02-0.330E-03
CGA:  10    -0.699746329089E+03   -0.38367E-03   -0.38483E-03  8424   0.190E-02 0.275E-03
CGA:  11    -0.699746483843E+03   -0.15475E-03   -0.15927E-03  8424   0.110E-02 0.116E-03
CGA:  12    -0.699746659271E+03   -0.17543E-03   -0.17377E-03  8424   0.393E-03 0.456E-04
CGA:  13    -0.699746725063E+03   -0.65792E-04   -0.73192E-04  8424   0.782E-03-0.117E-03
CGA:  14    -0.699746763130E+03   -0.38068E-04   -0.35402E-04  8424   0.287E-03-0.504E-04
CGA:  15    -0.699746779780E+03   -0.16649E-04   -0.17731E-04  8424   0.213E-03 0.214E-04
CGA:  16    -0.699746792614E+03   -0.12834E-04   -0.14090E-04  8424   0.937E-04 0.241E-04
CGA:  17    -0.699746805389E+03   -0.12775E-04   -0.12845E-04  8424   0.156E-03-0.578E-05
CGA:  18    -0.699746815916E+03   -0.10528E-04   -0.91225E-05  8424   0.397E-04-0.290E-04
CGA:  19    -0.699746826077E+03   -0.10161E-04    0.39899E-05  8424   0.726E-04-0.144E-04
CGA:  20    -0.699746843624E+03   -0.17547E-04    0.34414E-05  8424   0.717E-04-0.499E-04
CGA:  21    -0.699746844221E+03   -0.59741E-06   -0.30674E-05  8424   0.223E-04 0.373E-04
   7 F= -.69974684E+03 E0= -.69973728E+03  d E =-.191634E-01  mag=     1.9926
       N       E                     dE             d eps       ncg     rms          ort
SDA:   1    -0.699247132995E+03    0.49971E+00    0.00000E+00  8424   0.160E+01 0.000E+00
CGA:   2    -0.699550263364E+03   -0.30313E+00   -0.30248E+00  8424   0.853E+00 0.715E-02
CGA:   3    -0.699654478666E+03   -0.10422E+00   -0.10405E+00  8424   0.894E+00 0.594E-02
CGA:   4    -0.699724233477E+03   -0.69755E-01   -0.69705E-01  8424   0.200E+00-0.411E-03
CGA:   5    -0.699749201866E+03   -0.24968E-01   -0.24956E-01  8424   0.561E-01 0.105E-02
CGA:   6    -0.699756526492E+03   -0.73246E-02   -0.73199E-02  8424   0.228E-01 0.615E-04
CGA:   7    -0.699758105104E+03   -0.15786E-02   -0.15710E-02  8424   0.107E-01-0.245E-03
CGA:   8    -0.699759272192E+03   -0.11671E-02   -0.11675E-02  8424   0.287E-02-0.104E-03
CGA:   9    -0.699759741019E+03   -0.46883E-03   -0.48326E-03  8424   0.185E-02-0.227E-03
CGA:  10    -0.699759856570E+03   -0.11555E-03   -0.11997E-03  8424   0.822E-03 0.114E-03
CGA:  11    -0.699759935554E+03   -0.78984E-04   -0.81060E-04  8424   0.314E-03 0.145E-03
CGA:  12    -0.699760001210E+03   -0.65656E-04   -0.65269E-04  8424   0.182E-03 0.529E-05
CGA:  13    -0.699760017976E+03   -0.16766E-04   -0.16838E-04  8424   0.145E-03 0.369E-05
CGA:  14    -0.699760034280E+03   -0.16304E-04   -0.16334E-04  8424   0.109E-03-0.217E-04
CGA:  15    -0.699760048064E+03   -0.13785E-04   -0.17371E-04  8424   0.643E-04-0.458E-04
CGA:  16    -0.699760052089E+03   -0.40246E-05   -0.40214E-05  8424   0.370E-04-0.767E-06
   8 F= -.69976005E+03 E0= -.69975039E+03  d E =-.132079E-01  mag=     1.9925
       N       E                     dE             d eps       ncg     rms          ort
SDA:   1    -0.699634397870E+03    0.12565E+00    0.00000E+00  8424   0.380E+00 0.000E+00
CGA:   2    -0.699707793426E+03   -0.73396E-01   -0.73404E-01  8424   0.447E+00-0.966E-04
CGA:   3    -0.699736528115E+03   -0.28735E-01   -0.28888E-01  8424   0.161E+00-0.165E-02
CGA:   4    -0.699759980678E+03   -0.23453E-01   -0.23442E-01  8424   0.378E-01 0.174E-03
CGA:   5    -0.699764601401E+03   -0.46207E-02   -0.46162E-02  8424   0.165E-01 0.756E-03
CGA:   6    -0.699765993485E+03   -0.13921E-02   -0.13932E-02  8424   0.916E-02 0.240E-04
CGA:   7    -0.699766790946E+03   -0.79746E-03   -0.78858E-03  8424   0.203E-02-0.322E-03
CGA:   8    -0.699767068689E+03   -0.27774E-03   -0.27781E-03  8424   0.991E-03-0.318E-05
CGA:   9    -0.699767154389E+03   -0.85700E-04   -0.84270E-04  8424   0.640E-03-0.496E-04
CGA:  10    -0.699767215453E+03   -0.61064E-04   -0.61069E-04  8424   0.211E-03 0.163E-06
CGA:  11    -0.699767237489E+03   -0.22037E-04   -0.22386E-04  8424   0.742E-04 0.539E-04
CGA:  12    -0.699767250004E+03   -0.12515E-04   -0.11992E-04  8424   0.481E-04 0.314E-04
CGA:  13    -0.699767258873E+03   -0.88690E-05   -0.90151E-05  8424   0.691E-04-0.785E-05
   9 F= -.69976726E+03 E0= -.69975757E+03  d E =-.720678E-02  mag=     1.9924
       N       E                     dE             d eps       ncg     rms          ort
SDA:   1    -0.699448748866E+03    0.31850E+00    0.00000E+00  8424   0.926E+00 0.000E+00
CGA:   2    -0.699646079149E+03   -0.19733E+00   -0.19708E+00  8424   0.710E+00 0.231E-02
CGA:   3    -0.699703771240E+03   -0.57692E-01   -0.57444E-01  8424   0.485E+00-0.297E-03
CGA:   4    -0.699754642711E+03   -0.50871E-01   -0.50918E-01  8424   0.108E+00 0.205E-02
CGA:   5    -0.699766906510E+03   -0.12264E-01   -0.12261E-01  8424   0.337E-01-0.486E-03
CGA:   6    -0.699771650387E+03   -0.47439E-02   -0.47164E-02  8424   0.926E-02 0.932E-03
CGA:   7    -0.699772514924E+03   -0.86454E-03   -0.85909E-03  8424   0.714E-02-0.215E-03
CGA:   8    -0.699773155320E+03   -0.64040E-03   -0.63047E-03  8424   0.193E-02-0.421E-03
CGA:   9    -0.699773419961E+03   -0.26464E-03   -0.26129E-03  8424   0.645E-03 0.110E-03
CGA:  10    -0.699773505068E+03   -0.85107E-04   -0.84763E-04  8424   0.543E-03 0.354E-04
CGA:  11    -0.699773545474E+03   -0.40406E-04   -0.42757E-04  8424   0.219E-03 0.576E-04
CGA:  12    -0.699773579567E+03   -0.34093E-04   -0.32936E-04  8424   0.795E-04 0.512E-04
CGA:  13    -0.699773589447E+03   -0.98801E-05   -0.41135E-04  8424   0.341E-03-0.102E-03
CGA:  14    -0.699773607258E+03   -0.17812E-04   -0.22131E-04  8424   0.583E-04 0.667E-04
CGA:  15    -0.699773611238E+03   -0.39792E-05   -0.50373E-05  8424   0.271E-04 0.195E-04
  10 F= -.69977361E+03 E0= -.69976384E+03  d E =-.635236E-02  mag=     1.9923
       N       E                     dE             d eps       ncg     rms          ort
SDA:   1    -0.698826159013E+03    0.94745E+00    0.00000E+00  8424   0.265E+01 0.000E+00
CGA:   2    -0.699437003173E+03   -0.61084E+00   -0.61014E+00  8424   0.173E+01 0.616E-02
CGA:   3    -0.699605512966E+03   -0.16851E+00   -0.16737E+00  8424   0.144E+01-0.712E-02
CGA:   4    -0.699726254782E+03   -0.12074E+00   -0.12104E+00  8424   0.286E+00-0.428E-04
CGA:   5    -0.699759640880E+03   -0.33386E-01   -0.33334E-01  8424   0.989E-01-0.213E-02
CGA:   6    -0.699773110371E+03   -0.13469E-01   -0.13438E-01  8424   0.251E-01 0.205E-02
CGA:   7    -0.699775559570E+03   -0.24492E-02   -0.24383E-02  8424   0.199E-01-0.328E-03
CGA:   8    -0.699777212515E+03   -0.16529E-02   -0.16318E-02  8424   0.513E-02-0.558E-03
CGA:   9    -0.699777980985E+03   -0.76847E-03   -0.76443E-03  8424   0.176E-02 0.126E-03
CGA:  10    -0.699778234247E+03   -0.25326E-03   -0.25167E-03  8424   0.144E-02 0.993E-04
CGA:  11    -0.699778343659E+03   -0.10941E-03   -0.11403E-03  8424   0.701E-03 0.928E-04
CGA:  12    -0.699778449237E+03   -0.10558E-03   -0.10441E-03  8424   0.271E-03 0.638E-04
CGA:  13    -0.699778501891E+03   -0.52654E-04   -0.55023E-04  8424   0.274E-03-0.374E-04
CGA:  14    -0.699778521692E+03   -0.19801E-04   -0.20459E-04  8424   0.158E-03 0.164E-04
CGA:  15    -0.699778531550E+03   -0.98573E-05   -0.11981E-04  8424   0.459E-04 0.404E-04
  11 F= -.69977853E+03 E0= -.69976867E+03  d E =-.492031E-02  mag=     1.9918
       N       E                     dE             d eps       ncg     rms          ort
SDA:   1    -0.699591260644E+03    0.18726E+00    0.00000E+00  8424   0.559E+00 0.000E+00
CGA:   2    -0.699705481316E+03   -0.11422E+00   -0.11407E+00  8424   0.496E+00 0.147E-02
CGA:   3    -0.699741821542E+03   -0.36340E-01   -0.36239E-01  8424   0.270E+00-0.745E-04
CGA:   4    -0.699772584615E+03   -0.30763E-01   -0.30762E-01  8424   0.628E-01 0.413E-03
CGA:   5    -0.699780614004E+03   -0.80294E-02   -0.80317E-02  8424   0.222E-01-0.498E-03
CGA:   6    -0.699782785574E+03   -0.21716E-02   -0.21815E-02  8424   0.137E-01 0.446E-03
CGA:   7    -0.699783730143E+03   -0.94457E-03   -0.95488E-03  8424   0.287E-02 0.227E-03
CGA:   8    -0.699784201994E+03   -0.47185E-03   -0.47524E-03  8424   0.110E-02-0.793E-04
CGA:   9    -0.699784299328E+03   -0.97333E-04   -0.97283E-04  8424   0.829E-03-0.170E-05
CGA:  10    -0.699784375680E+03   -0.76352E-04   -0.77189E-04  8424   0.268E-03 0.311E-04
CGA:  11    -0.699784423436E+03   -0.47757E-04   -0.52369E-04  8424   0.237E-03-0.663E-04
CGA:  12    -0.699784437095E+03   -0.13659E-04   -0.14323E-04  8424   0.120E-03 0.157E-04
CGA:  13    -0.699784446813E+03   -0.97177E-05   -0.10441E-04  8424   0.478E-04 0.190E-04
CGA:  14    -0.699784458685E+03   -0.11872E-04   -0.12803E-04  8424   0.422E-04-0.826E-05
CGA:  15    -0.699784460046E+03   -0.13606E-05   -0.17044E-05  8424   0.181E-04 0.456E-05
  12 F= -.69978446E+03 E0= -.69977458E+03  d E =-.592850E-02  mag=     1.9918
       N       E                     dE             d eps       ncg     rms          ort
SDA:   1    -0.699745920748E+03    0.38538E-01    0.00000E+00  8424   0.123E+00 0.000E+00
CGA:   2    -0.699761453583E+03   -0.15533E-01   -0.15533E-01  8424   0.182E+00 0.152E-03
CGA:   3    -0.699777697503E+03   -0.16244E-01   -0.16249E-01  8424   0.381E-01-0.110E-03
CGA:   4    -0.699783337686E+03   -0.56402E-02   -0.56617E-02  8424   0.139E-01-0.642E-03
CGA:   5    -0.699784860801E+03   -0.15231E-02   -0.15242E-02  8424   0.369E-02 0.108E-03
CGA:   6    -0.699785358976E+03   -0.49817E-03   -0.49943E-03  8424   0.283E-02-0.765E-04
CGA:   7    -0.699785520693E+03   -0.16172E-03   -0.15938E-03  8424   0.525E-03-0.425E-04
CGA:   8    -0.699785588223E+03   -0.67530E-04   -0.66418E-04  8424   0.144E-03 0.879E-04
CGA:   9    -0.699785617140E+03   -0.28917E-04   -0.28126E-04  8424   0.613E-04 0.156E-04
CGA:  10    -0.699785626624E+03   -0.94839E-05   -0.17572E-04  8424   0.316E-03-0.579E-04
CGA:  11    -0.699785637559E+03   -0.10935E-04   -0.11812E-04  8424   0.237E-04 0.983E-05
CGA:  12    -0.699785640834E+03   -0.32744E-05   -0.32216E-05  8424   0.133E-04 0.495E-05
  13 F= -.69978564E+03 E0= -.69977577E+03  d E =-.118079E-02  mag=     1.9918
       N       E                     dE             d eps       ncg     rms          ort
SDA:   1    -0.699755603679E+03    0.30034E-01    0.00000E+00  8424   0.137E+00 0.000E+00
CGA:   2    -0.699765489862E+03   -0.98862E-02   -0.99429E-02  8424   0.106E+00-0.539E-03
CGA:   3    -0.699780162882E+03   -0.14673E-01   -0.14673E-01  8424   0.341E-01 0.452E-05
CGA:   4    -0.699785496582E+03   -0.53337E-02   -0.53469E-02  8424   0.132E-01-0.456E-03
CGA:   5    -0.699786873441E+03   -0.13769E-02   -0.13826E-02  8424   0.312E-02 0.241E-03
CGA:   6    -0.699787244848E+03   -0.37141E-03   -0.37200E-03  8424   0.253E-02 0.524E-04
CGA:   7    -0.699787407109E+03   -0.16226E-03   -0.16466E-03  8424   0.429E-03 0.400E-04
CGA:   8    -0.699787480916E+03   -0.73807E-04   -0.75294E-04  8424   0.198E-03-0.308E-04
CGA:   9    -0.699787502994E+03   -0.22078E-04   -0.21986E-04  8424   0.117E-03-0.133E-04
CGA:  10    -0.699787511246E+03   -0.82519E-05   -0.81372E-05  8424   0.617E-04-0.235E-05
  14 F= -.69978751E+03 E0= -.69977762E+03  d E =-.187041E-02  mag=     1.9917
       N       E                     dE             d eps       ncg     rms          ort
SDA:   1    -0.699678374347E+03    0.10913E+00    0.00000E+00  8424   0.293E+00 0.000E+00
CGA:   2    -0.699739821391E+03   -0.61447E-01   -0.61437E-01  8424   0.429E+00 0.126E-03
CGA:   3    -0.699767227695E+03   -0.27406E-01   -0.27540E-01  8424   0.127E+00-0.187E-02
CGA:   4    -0.699783984323E+03   -0.16757E-01   -0.16760E-01  8424   0.327E-01-0.521E-03
CGA:   5    -0.699787829393E+03   -0.38451E-02   -0.38482E-02  8424   0.121E-01 0.475E-03
CGA:   6    -0.699788870015E+03   -0.10406E-02   -0.10398E-02  8424   0.746E-02-0.235E-04
CGA:   7    -0.699789531555E+03   -0.66154E-03   -0.65407E-03  8424   0.160E-02-0.228E-03
CGA:   8    -0.699789724730E+03   -0.19318E-03   -0.19280E-03  8424   0.651E-03 0.905E-04
CGA:   9    -0.699789793419E+03   -0.68689E-04   -0.68527E-04  8424   0.495E-03-0.830E-05
CGA:  10    -0.699789836641E+03   -0.43222E-04   -0.42749E-04  8424   0.163E-03-0.151E-04
CGA:  11    -0.699789863030E+03   -0.26389E-04   -0.28349E-04  8424   0.146E-03-0.320E-04
CGA:  12    -0.699789873069E+03   -0.10039E-04   -0.99696E-05  8424   0.752E-04-0.197E-05
CGA:  13    -0.699789881040E+03   -0.79709E-05   -0.78985E-05  8424   0.456E-04-0.586E-05
  15 F= -.69978988E+03 E0= -.69977999E+03  d E =-.236979E-02  mag=     1.9916
       N       E                     dE             d eps       ncg     rms          ort
SDA:   1    -0.699700989614E+03    0.88883E-01    0.00000E+00  8424   0.285E+00 0.000E+00
CGA:   2    -0.699741863092E+03   -0.40873E-01   -0.40826E-01  8424   0.363E+00 0.154E-02
CGA:   3    -0.699768756017E+03   -0.26893E-01   -0.26969E-01  8424   0.108E+00-0.412E-03
CGA:   4    -0.699786550905E+03   -0.17795E-01   -0.17772E-01  8424   0.297E-01 0.500E-03
CGA:   5    -0.699790077859E+03   -0.35270E-02   -0.35263E-02  8424   0.130E-01-0.182E-03
CGA:   6    -0.699791065168E+03   -0.98731E-03   -0.99043E-03  8424   0.658E-02 0.833E-04
CGA:   7    -0.699791665858E+03   -0.60069E-03   -0.59904E-03  8424   0.134E-02-0.384E-04
CGA:   8    -0.699791897712E+03   -0.23185E-03   -0.24882E-03  8424   0.898E-03-0.248E-03
CGA:   9    -0.699791947953E+03   -0.50241E-04   -0.50232E-04  8424   0.403E-03-0.484E-06
CGA:  10    -0.699791977345E+03   -0.29392E-04   -0.32549E-04  8424   0.131E-03 0.812E-04
CGA:  11    -0.699791995211E+03   -0.17866E-04   -0.17995E-04  8424   0.950E-04 0.395E-04
CGA:  12    -0.699792004240E+03   -0.90287E-05   -0.91515E-05  8424   0.470E-04 0.267E-05
  16 F= -.69979200E+03 E0= -.69978206E+03  d E =-.212320E-02  mag=     1.9914
       N       E                     dE             d eps       ncg     rms          ort
SDA:   1    -0.699759885836E+03    0.32109E-01    0.00000E+00  8424   0.967E-01 0.000E+00
CGA:   2    -0.699780529749E+03   -0.20644E-01   -0.20696E-01  8424   0.554E-01-0.546E-03
CGA:   3    -0.699788098867E+03   -0.75691E-02   -0.75520E-02  8424   0.371E-01 0.978E-03
CGA:   4    -0.699790767986E+03   -0.26691E-02   -0.26730E-02  8424   0.151E-01-0.201E-04
CGA:   5    -0.699792215098E+03   -0.14471E-02   -0.14455E-02  8424   0.355E-02-0.106E-03
CGA:   6    -0.699792716099E+03   -0.50100E-03   -0.49832E-03  8424   0.112E-02 0.113E-03
CGA:   7    -0.699792813241E+03   -0.97143E-04   -0.96796E-04  8424   0.729E-03-0.101E-04
CGA:   8    -0.699792885716E+03   -0.72475E-04   -0.71076E-04  8424   0.239E-03-0.738E-04
CGA:   9    -0.699792907440E+03   -0.21723E-04   -0.22001E-04  8424   0.864E-04 0.198E-04
CGA:  10    -0.699792916837E+03   -0.93973E-05   -0.96201E-05  8424   0.574E-04 0.171E-04
  17 F= -.69979292E+03 E0= -.69978299E+03  d E =-.912597E-03  mag=     1.9915
       N       E                     dE             d eps       ncg     rms          ort
SDA:   1    -0.699788423934E+03    0.44835E-02    0.00000E+00  8424   0.126E-01 0.000E+00
CGA:   2    -0.699790771636E+03   -0.23477E-02   -0.23433E-02  8424   0.106E-01 0.575E-04
CGA:   3    -0.699791591742E+03   -0.82011E-03   -0.81917E-03  8424   0.653E-02-0.584E-04
CGA:   4    -0.699792315878E+03   -0.72414E-03   -0.72430E-03  8424   0.163E-02 0.416E-04
CGA:   5    -0.699792508215E+03   -0.19234E-03   -0.19234E-03  8424   0.471E-03-0.251E-05
CGA:   6    -0.699792562903E+03   -0.54689E-04   -0.54676E-04  8424   0.311E-03 0.101E-04
CGA:   7    -0.699792583596E+03   -0.20693E-04   -0.20650E-04  8424   0.760E-04-0.134E-05
CGA:   8    -0.699792590395E+03   -0.67988E-05   -0.72014E-05  8424   0.177E-04 0.231E-04
  18 F= -.69979259E+03 E0= -.69978267E+03  d E =0.326442E-03  mag=     1.9915
       N       E                     dE             d eps       ncg     rms          ort
SDA:   1    -0.699776834799E+03    0.15749E-01    0.00000E+00  8424   0.436E-01 0.000E+00
CGA:   2    -0.699785258203E+03   -0.84234E-02   -0.84508E-02  8424   0.611E-01-0.344E-03
CGA:   3    -0.699789162905E+03   -0.39047E-02   -0.39021E-02  8424   0.181E-01-0.811E-05
CGA:   4    -0.699791846542E+03   -0.26836E-02   -0.26885E-02  8424   0.448E-02-0.144E-03
CGA:   5    -0.699792357283E+03   -0.51074E-03   -0.51061E-03  8424   0.140E-02 0.222E-03
CGA:   6    -0.699792521558E+03   -0.16428E-03   -0.16457E-03  8424   0.766E-03 0.126E-03
CGA:   7    -0.699792571989E+03   -0.50431E-04   -0.52784E-04  8424   0.209E-03 0.452E-04
CGA:   8    -0.699792608142E+03   -0.36153E-04   -0.37991E-04  8424   0.117E-03-0.308E-04
CGA:   9    -0.699792614471E+03   -0.63286E-05   -0.68357E-05  8424   0.456E-04 0.109E-04
  19 F= -.69979261E+03 E0= -.69978268E+03  d E =-.240754E-04  mag=     1.9915
       N       E                     dE             d eps       ncg     rms          ort
SDA:   1    -0.699775132123E+03    0.17476E-01    0.00000E+00  8424   0.537E-01 0.000E+00
CGA:   2    -0.699785156357E+03   -0.10024E-01   -0.10013E-01  8424   0.460E-01 0.119E-03
CGA:   3    -0.699788954019E+03   -0.37977E-02   -0.37906E-02  8424   0.301E-01-0.570E-04
CGA:   4    -0.699792064944E+03   -0.31109E-02   -0.31088E-02  8424   0.902E-02-0.217E-03
CGA:   5    -0.699793025917E+03   -0.96097E-03   -0.96253E-03  8424   0.188E-02 0.264E-03
CGA:   6    -0.699793291655E+03   -0.26574E-03   -0.26422E-03  8424   0.103E-02 0.639E-04
CGA:   7    -0.699793354892E+03   -0.63236E-04   -0.65112E-04  8424   0.320E-03 0.347E-04
CGA:   8    -0.699793397556E+03   -0.42665E-04   -0.42815E-04  8424   0.131E-03-0.865E-05
CGA:   9    -0.699793415883E+03   -0.18327E-04   -0.19587E-04  8424   0.941E-04-0.303E-04
CGA:  10    -0.699793420810E+03   -0.49266E-05   -0.47579E-05  8424   0.416E-04-0.354E-05
  20 F= -.69979342E+03 E0= -.69978347E+03  d E =-.806339E-03  mag=     1.9914
       N       E                     dE             d eps       ncg     rms          ort
SDA:   1    -0.697347379794E+03    0.24460E+01    0.00000E+00  8424   0.710E+01 0.000E+00
CGA:   2    -0.698722446825E+03   -0.13751E+01   -0.13442E+01  8424   0.467E+01 0.340E+00
CGA:   3    -0.699233473436E+03   -0.51103E+00   -0.50738E+00  8424   0.440E+01-0.142E+00
CGA:   4    -0.699603925271E+03   -0.37045E+00   -0.36862E+00  8424   0.103E+01-0.133E-01
CGA:   5    -0.699716388982E+03   -0.11246E+00   -0.11263E+00  8424   0.365E+00 0.310E-01
CGA:   6    -0.699740778467E+03   -0.24389E-01   -0.24396E-01  8424   0.203E+00 0.736E-03
CGA:   7    -0.699761250660E+03   -0.20472E-01   -0.20489E-01  8424   0.391E-01 0.175E-02
CGA:   8    -0.699766131209E+03   -0.48805E-02   -0.48857E-02  8424   0.355E-01-0.564E-03
CGA:   9    -0.699768346902E+03   -0.22157E-02   -0.22008E-02  8424   0.123E-01-0.467E-03
CGA:  10    -0.699769732300E+03   -0.13854E-02   -0.13830E-02  8424   0.419E-02 0.344E-03
CGA:  11    -0.699770205755E+03   -0.47346E-03   -0.47319E-03  8424   0.488E-02 0.137E-03
CGA:  12    -0.699770591861E+03   -0.38611E-03   -0.38758E-03  8424   0.130E-02 0.373E-04
CGA:  13    -0.699770805663E+03   -0.21380E-03   -0.21323E-03  8424   0.845E-03 0.940E-05
CGA:  14    -0.699770888995E+03   -0.83332E-04   -0.82990E-04  8424   0.844E-03-0.300E-04
CGA:  15    -0.699770959685E+03   -0.70690E-04   -0.70151E-04  8424   0.252E-03-0.249E-04
CGA:  16    -0.699770988362E+03   -0.28677E-04   -0.28077E-04  8424   0.127E-03 0.836E-04
CGA:  17    -0.699771001934E+03   -0.13571E-04   -0.14204E-04  8424   0.114E-03 0.260E-04
CGA:  18    -0.699771023785E+03   -0.21851E-04   -0.25498E-04  8424   0.808E-04-0.461E-04
CGA:  19    -0.699771029141E+03   -0.53563E-05   -0.54769E-05  8424   0.740E-04-0.371E-04
  21 F= -.69977103E+03 E0= -.69976096E+03  d E =0.223917E-01  mag=     1.9906
       N       E                     dE             d eps       ncg     rms          ort
SDA:   1    -0.698159532586E+03    0.16115E+01    0.00000E+00  8424   0.510E+01 0.000E+00
CGA:   2    -0.699007883055E+03   -0.84835E+00   -0.83873E+00  8424   0.449E+01 0.146E+00
CGA:   3    -0.699344763541E+03   -0.33688E+00   -0.33910E+00  8424   0.253E+01-0.198E-01
CGA:   4    -0.699671995934E+03   -0.32723E+00   -0.32666E+00  8424   0.704E+00 0.194E-01
CGA:   5    -0.699760929731E+03   -0.88934E-01   -0.88868E-01  8424   0.157E+00 0.185E-02
CGA:   6    -0.699783997904E+03   -0.23068E-01   -0.23038E-01  8424   0.661E-01 0.607E-03
CGA:   7    -0.699788444116E+03   -0.44462E-02   -0.44403E-02  8424   0.314E-01-0.382E-03
CGA:   8    -0.699791730277E+03   -0.32862E-02   -0.32857E-02  8424   0.102E-01-0.104E-03
CGA:   9    -0.699793086262E+03   -0.13560E-02   -0.13465E-02  8424   0.336E-02 0.418E-03
CGA:  10    -0.699793596141E+03   -0.50988E-03   -0.51094E-03  8424   0.288E-02-0.324E-04
CGA:  11    -0.699793806079E+03   -0.20994E-03   -0.20794E-03  8424   0.129E-02-0.529E-04
CGA:  12    -0.699793953987E+03   -0.14791E-03   -0.14778E-03  8424   0.541E-03 0.243E-04
CGA:  13    -0.699794057213E+03   -0.10323E-03   -0.10807E-03  8424   0.324E-03-0.584E-04
CGA:  14    -0.699794096064E+03   -0.38851E-04   -0.39504E-04  8424   0.289E-03-0.331E-04
CGA:  15    -0.699794117312E+03   -0.21248E-04   -0.20122E-04  8424   0.156E-03-0.287E-04
CGA:  16    -0.699794136942E+03   -0.19630E-04   -0.19821E-04  8424   0.483E-04-0.777E-05
CGA:  17    -0.699794143268E+03   -0.63263E-05   -0.61077E-05  8424   0.164E-04 0.135E-04
  22 F= -.69979414E+03 E0= -.69978420E+03  d E =-.231141E-01  mag=     1.9915
       N       E                     dE             d eps       ncg     rms          ort
SDA:   1    -0.699775488670E+03    0.18648E-01    0.00000E+00  8424   0.627E-01 0.000E+00
CGA:   2    -0.699783190881E+03   -0.77022E-02   -0.77014E-02  8424   0.812E-01 0.131E-03
CGA:   3    -0.699789840442E+03   -0.66496E-02   -0.66537E-02  8424   0.184E-01-0.319E-04
CGA:   4    -0.699793093176E+03   -0.32527E-02   -0.32354E-02  8424   0.466E-02 0.286E-03
CGA:   5    -0.699793785536E+03   -0.69236E-03   -0.69959E-03  8424   0.305E-02-0.257E-03
CGA:   6    -0.699793973165E+03   -0.18763E-03   -0.18759E-03  8424   0.110E-02 0.509E-07
CGA:   7    -0.699794076183E+03   -0.10302E-03   -0.10360E-03  8424   0.267E-03 0.247E-04
CGA:   8    -0.699794122401E+03   -0.46219E-04   -0.50586E-04  8424   0.142E-03-0.639E-04
CGA:   9    -0.699794129872E+03   -0.74708E-05   -0.84778E-05  8424   0.718E-04 0.239E-04
  23 F= -.69979413E+03 E0= -.69978417E+03  d E =0.133962E-04  mag=     1.9912
       N       E                     dE             d eps       ncg     rms          ort
SDA:   1    -0.699789750483E+03    0.43719E-02    0.00000E+00  8424   0.154E-01 0.000E+00
CGA:   2    -0.699791667051E+03   -0.19166E-02   -0.19156E-02  8424   0.167E-01 0.123E-03
CGA:   3    -0.699793020963E+03   -0.13539E-02   -0.13561E-02  8424   0.637E-02 0.718E-04
CGA:   4    -0.699793871835E+03   -0.85087E-03   -0.85626E-03  8424   0.269E-02-0.285E-03
CGA:   5    -0.699794150837E+03   -0.27900E-03   -0.28009E-03  8424   0.539E-03 0.161E-03
CGA:   6    -0.699794202632E+03   -0.51795E-04   -0.52787E-04  8424   0.402E-03 0.432E-04
CGA:   7    -0.699794236729E+03   -0.34097E-04   -0.35199E-04  8424   0.652E-04 0.330E-04
CGA:   8    -0.699794248041E+03   -0.11312E-04   -0.13341E-04  8424   0.847E-04-0.265E-04
CGA:   9    -0.699794250366E+03   -0.23256E-05   -0.26246E-05  8424   0.387E-04 0.464E-05
  24 F= -.69979425E+03 E0= -.69978429E+03  d E =-.120494E-03  mag=     1.9913
       N       E                     dE             d eps       ncg     rms          ort
SDA:   1    -0.699792822221E+03    0.14258E-02    0.00000E+00  8424   0.727E-02 0.000E+00
CGA:   2    -0.699793240756E+03   -0.41854E-03   -0.41971E-03  8424   0.365E-02 0.125E-04
CGA:   3    -0.699793859339E+03   -0.61858E-03   -0.62598E-03  8424   0.157E-02-0.117E-03
CGA:   4    -0.699794073374E+03   -0.21403E-03   -0.21253E-03  8424   0.556E-03 0.503E-04
CGA:   5    -0.699794136344E+03   -0.62970E-04   -0.62989E-04  8424   0.254E-03 0.852E-05
CGA:   6    -0.699794150844E+03   -0.14500E-04   -0.15453E-04  8424   0.780E-04 0.182E-04
CGA:   7    -0.699794159950E+03   -0.91058E-05   -0.91079E-05  8424   0.166E-04 0.173E-04
  25 F= -.69979416E+03 E0= -.69978420E+03  d E =0.904168E-04  mag=     1.9914
       N       E                     dE             d eps       ncg     rms          ort
SDA:   1    -0.699785917956E+03    0.82329E-02    0.00000E+00  8424   0.285E-01 0.000E+00
CGA:   2    -0.699788466863E+03   -0.25489E-02   -0.25480E-02  8424   0.299E-01-0.700E-04
CGA:   3    -0.699791922350E+03   -0.34555E-02   -0.34549E-02  8424   0.828E-02 0.758E-04
CGA:   4    -0.699793343171E+03   -0.14208E-02   -0.14321E-02  8424   0.268E-02-0.181E-03
CGA:   5    -0.699793617952E+03   -0.27478E-03   -0.27571E-03  8424   0.638E-03 0.136E-03
CGA:   6    -0.699793717150E+03   -0.99198E-04   -0.98520E-04  8424   0.285E-03 0.190E-04
CGA:   7    -0.699793735185E+03   -0.18035E-04   -0.18737E-04  8424   0.121E-03 0.138E-04
CGA:   8    -0.699793749966E+03   -0.14781E-04   -0.14781E-04  8424   0.401E-04 0.738E-07
CGA:   9    -0.699793756318E+03   -0.63514E-05   -0.72427E-05  8424   0.309E-04-0.129E-04
  26 F= -.69979376E+03 E0= -.69978381E+03  d E =0.403632E-03  mag=     1.9915
       N       E                     dE             d eps       ncg     rms          ort
SDA:   1    -0.699788955946E+03    0.47940E-02    0.00000E+00  8424   0.136E-01 0.000E+00
CGA:   2    -0.699790877515E+03   -0.19216E-02   -0.19263E-02  8424   0.217E-01-0.169E-03
CGA:   3    -0.699792661271E+03   -0.17838E-02   -0.17841E-02  8424   0.525E-02 0.230E-04
CGA:   4    -0.699793298942E+03   -0.63767E-03   -0.63692E-03  8424   0.157E-02 0.813E-04
CGA:   5    -0.699793516227E+03   -0.21728E-03   -0.21850E-03  8424   0.520E-03-0.512E-04
CGA:   6    -0.699793557078E+03   -0.40851E-04   -0.40981E-04  8424   0.329E-03 0.371E-05
CGA:   7    -0.699793586200E+03   -0.29122E-04   -0.28833E-04  8424   0.867E-04-0.117E-04
CGA:   8    -0.699793595480E+03   -0.92799E-05   -0.92799E-05  8424   0.235E-04-0.102E-05
  27 F= -.69979360E+03 E0= -.69978365E+03  d E =0.160838E-03  mag=     1.9914
