       N       E                     dE             d eps       ncg     rms          rms(c)
DAV:   1     0.304624633238E+04    0.30462E+04   -0.25834E+05 73632   0.130E+03
DAV:   2    -0.614171858550E+03   -0.36604E+04   -0.35312E+04 89400   0.297E+02
DAV:   3    -0.871577569838E+03   -0.25741E+03   -0.25530E+03 89028   0.832E+01
DAV:   4    -0.874785079873E+03   -0.32075E+01   -0.31956E+01 89304   0.998E+00
DAV:   5    -0.874839319558E+03   -0.54240E-01   -0.54106E-01 91044   0.120E+00    0.987E+01
DAV:   6    -0.782334016890E+03    0.92505E+02   -0.39113E+02 84036   0.315E+01    0.502E+01
DAV:   7    -0.791061893498E+03   -0.87279E+01   -0.23788E+01 84168   0.816E+00    0.175E+01
DAV:   8    -0.794744982460E+03   -0.36831E+01   -0.15760E+01105348   0.530E+00    0.977E+00
DAV:   9    -0.796081473667E+03   -0.13365E+01   -0.25246E+00 96936   0.313E+00    0.712E+00
DAV:  10    -0.796622964840E+03   -0.54149E+00   -0.35192E+00 94968   0.261E+00    0.595E+00
DAV:  11    -0.797304580859E+03   -0.68162E+00   -0.41848E+00100308   0.220E+00    0.470E+00
DAV:  12    -0.797294077634E+03    0.10503E-01   -0.96873E-01100872   0.160E+00    0.328E+00
DAV:  13    -0.797298636870E+03   -0.45592E-02   -0.61529E-01 89400   0.928E-01    0.252E+00
DAV:  14    -0.797401605416E+03   -0.10297E+00   -0.30775E-01 91704   0.101E+00    0.309E+00
DAV:  15    -0.797387883612E+03    0.13722E-01   -0.84672E-02 96132   0.620E-01    0.184E+00
DAV:  16    -0.797382129076E+03    0.57545E-02   -0.17407E-01 94200   0.526E-01    0.121E+00
DAV:  17    -0.797393585456E+03   -0.11456E-01   -0.31999E-02 85116   0.276E-01    0.137E+00
DAV:  18    -0.797397036716E+03   -0.34513E-02   -0.32374E-02 97440   0.239E-01    0.165E+00
DAV:  19    -0.797393620721E+03    0.34160E-02   -0.90580E-03 88680   0.205E-01    0.120E+00
DAV:  20    -0.797392475197E+03    0.11455E-02   -0.42951E-02106356   0.347E-01    0.131E+00
DAV:  21    -0.797391606449E+03    0.86875E-03   -0.71079E-03 84096   0.189E-01    0.754E-01
DAV:  22    -0.797391992728E+03   -0.38628E-03   -0.48556E-03 91668   0.121E-01    0.326E-01
DAV:  23    -0.797392959934E+03   -0.96721E-03   -0.26136E-03 85176   0.852E-02    0.258E-01
DAV:  24    -0.797393271659E+03   -0.31173E-03   -0.85388E-04101496   0.802E-02    0.857E-02
DAV:  25    -0.797393406233E+03   -0.13457E-03   -0.39400E-04 85608   0.423E-02    0.913E-02
DAV:  26    -0.797393408610E+03   -0.23768E-05   -0.50596E-05 79896   0.152E-02
   1 F= -.79739341E+03 E0= -.79737530E+03  d E =-.797393E+03  mag=     0.5104
       N       E                     dE             d eps       ncg     rms          rms(c)
DAV:   1    -0.797393595534E+03   -0.18930E-03   -0.75311E-03 75744   0.161E-01    0.152E-01
DAV:   2    -0.797394069776E+03   -0.47424E-03   -0.36676E-03108972   0.117E-01    0.554E-01
DAV:   3    -0.797393435592E+03    0.63418E-03   -0.17129E-03110088   0.866E-02    0.668E-02
DAV:   4    -0.797393565817E+03   -0.13023E-03   -0.25191E-04 84516   0.258E-02    0.290E-02
DAV:   5    -0.797393577691E+03   -0.11874E-04   -0.41256E-05 65088   0.114E-02    0.334E-02
DAV:   6    -0.797393575266E+03    0.24247E-05   -0.14361E-05 42528   0.658E-03
   2 F= -.79739358E+03 E0= -.79737544E+03  d E =-.166657E-03  mag=     0.5155
       N       E                     dE             d eps       ncg     rms          rms(c)
DAV:   1    -0.797393649046E+03   -0.71355E-04   -0.21554E-03 75648   0.852E-02    0.364E-02
DAV:   2    -0.797393668500E+03   -0.19454E-04   -0.15032E-04 96624   0.264E-02    0.103E-01
DAV:   3    -0.797393646350E+03    0.22150E-04   -0.42205E-05 74196   0.180E-02    0.188E-02
DAV:   4    -0.797393650549E+03   -0.41995E-05   -0.21846E-05 51048   0.777E-03
   3 F= -.79739365E+03 E0= -.79737552E+03  d E =-.752830E-04  mag=     0.5151
