       N       E                     dE             d eps       ncg     rms          rms(c)
DAV:   1     0.305312779228E+04    0.30531E+04   -0.25843E+05 73620   0.130E+03
DAV:   2    -0.613153204533E+03   -0.36663E+04   -0.35375E+04 89256   0.298E+02
DAV:   3    -0.871472267961E+03   -0.25832E+03   -0.25618E+03 88992   0.834E+01
DAV:   4    -0.874700195741E+03   -0.32279E+01   -0.32159E+01 89364   0.100E+01
DAV:   5    -0.874754789677E+03   -0.54594E-01   -0.54459E-01 90996   0.120E+00    0.989E+01
DAV:   6    -0.781956786810E+03    0.92798E+02   -0.39131E+02 82812   0.315E+01    0.503E+01
DAV:   7    -0.790970048291E+03   -0.90133E+01   -0.23252E+01 84144   0.816E+00    0.177E+01
DAV:   8    -0.794543294554E+03   -0.35732E+01   -0.11173E+01107376   0.538E+00    0.106E+01
DAV:   9    -0.795714395514E+03   -0.11711E+01   -0.17703E+00 94452   0.300E+00    0.654E+00
DAV:  10    -0.796631128625E+03   -0.91673E+00   -0.35398E+00 93960   0.310E+00    0.578E+00
DAV:  11    -0.797276239362E+03   -0.64511E+00   -0.29130E+00 88392   0.182E+00    0.521E+00
DAV:  12    -0.797286108757E+03   -0.98694E-02   -0.32526E+00104736   0.199E+00    0.259E+00
DAV:  13    -0.797437625811E+03   -0.15152E+00   -0.61804E-01 91344   0.139E+00    0.358E+00
DAV:  14    -0.797370608036E+03    0.67018E-01   -0.12291E-01 95532   0.830E-01    0.225E+00
DAV:  15    -0.797330874304E+03    0.39734E-01   -0.12869E-01102384   0.852E-01    0.101E+00
DAV:  16    -0.797337739671E+03   -0.68654E-02   -0.51452E-02 82992   0.391E-01    0.131E+00
DAV:  17    -0.797337354300E+03    0.38537E-03   -0.12448E-02 96996   0.234E-01    0.543E-01
DAV:  18    -0.797339706027E+03   -0.23517E-02   -0.61923E-03 83508   0.127E-01    0.711E-01
DAV:  19    -0.797339013610E+03    0.69242E-03   -0.21956E-02119724   0.173E-01    0.560E-01
DAV:  20    -0.797339294657E+03   -0.28105E-03   -0.33027E-03 84744   0.105E-01    0.256E-01
DAV:  21    -0.797339289446E+03    0.52106E-05   -0.15289E-03 89208   0.657E-02    0.114E-01
DAV:  22    -0.797339329965E+03   -0.40519E-04   -0.62585E-04 85668   0.333E-02    0.855E-02
DAV:  23    -0.797339334686E+03   -0.47211E-05   -0.15795E-04 78072   0.220E-02    0.387E-02
DAV:  24    -0.797339335335E+03   -0.64923E-06   -0.35783E-05 60480   0.814E-03
   1 F= -.79733934E+03 E0= -.79732272E+03  d E =-.797339E+03  mag=    -0.9924
       N       E                     dE             d eps       ncg     rms          rms(c)
DAV:   1    -0.797339766327E+03   -0.43164E-03   -0.11293E-02 75840   0.201E-01    0.736E-02
DAV:   2    -0.797339797149E+03   -0.30822E-04   -0.54583E-04 92760   0.434E-02    0.897E-02
DAV:   3    -0.797339784791E+03    0.12358E-04   -0.18151E-04 83892   0.244E-02    0.426E-02
DAV:   4    -0.797339780273E+03    0.45171E-05   -0.20199E-05 62400   0.119E-02
   2 F= -.79733978E+03 E0= -.79732309E+03  d E =-.444938E-03  mag=    -0.9921
       N       E                     dE             d eps       ncg     rms          rms(c)
DAV:   1    -0.797340005207E+03   -0.22042E-03   -0.84609E-03 75672   0.171E-01    0.515E-02
DAV:   2    -0.797340022332E+03   -0.17125E-04   -0.30092E-04 90468   0.320E-02    0.591E-02
DAV:   3    -0.797340019217E+03    0.31146E-05   -0.15104E-04 68004   0.174E-02    0.535E-02
DAV:   4    -0.797340011472E+03    0.77450E-05   -0.35709E-05 56568   0.109E-02
   3 F= -.79734001E+03 E0= -.79732331E+03  d E =-.231199E-03  mag=    -0.9920
       N       E                     dE             d eps       ncg     rms          rms(c)
DAV:   1    -0.797340362114E+03   -0.34290E-03   -0.93942E-02 75528   0.559E-01    0.103E-01
DAV:   2    -0.797340549847E+03   -0.18773E-03   -0.25656E-03 89400   0.899E-02    0.169E-01
DAV:   3    -0.797340502769E+03    0.47078E-04   -0.47937E-04 94944   0.396E-02    0.520E-02
DAV:   4    -0.797340507263E+03   -0.44940E-05   -0.11196E-04 78756   0.191E-02    0.568E-02
DAV:   5    -0.797340497930E+03    0.93331E-05   -0.87134E-05 57720   0.133E-02
   4 F= -.79734050E+03 E0= -.79732375E+03  d E =-.486458E-03  mag=    -0.9918
       N       E                     dE             d eps       ncg     rms          rms(c)
DAV:   1    -0.797340501035E+03    0.62282E-05   -0.36959E-01 75000   0.111E+00    0.123E-01
DAV:   2    -0.797341205258E+03   -0.70422E-03   -0.84480E-03 88788   0.158E-01    0.223E-01
DAV:   3    -0.797341125798E+03    0.79460E-04   -0.10248E-03 96540   0.497E-02    0.946E-02
DAV:   4    -0.797341103796E+03    0.22002E-04   -0.22036E-04 83652   0.256E-02    0.621E-02
DAV:   5    -0.797341085894E+03    0.17902E-04   -0.89523E-05 73992   0.170E-02    0.366E-02
DAV:   6    -0.797341076920E+03    0.89738E-05   -0.69286E-05 83772   0.160E-02
   5 F= -.79734108E+03 E0= -.79732436E+03  d E =-.578990E-03  mag=    -0.9916
       N       E                     dE             d eps       ncg     rms          rms(c)
DAV:   1    -0.797339742558E+03    0.13433E-02   -0.98770E-01 73704   0.184E+00    0.451E-01
DAV:   2    -0.797345984150E+03   -0.62416E-02   -0.78982E-02 91416   0.408E-01    0.174E+00
DAV:   3    -0.797340368987E+03    0.56152E-02   -0.35259E-02 96324   0.250E-01    0.171E-01
DAV:   4    -0.797341393823E+03   -0.10248E-02   -0.49874E-03 84072   0.917E-02    0.328E-01
DAV:   5    -0.797341238682E+03    0.15514E-03   -0.15151E-03 87648   0.557E-02    0.122E-01
DAV:   6    -0.797341292847E+03   -0.54165E-04   -0.14729E-03 85092   0.374E-02    0.198E-01
DAV:   7    -0.797341216878E+03    0.75969E-04   -0.77267E-04 89940   0.319E-02    0.922E-02
DAV:   8    -0.797341204040E+03    0.12838E-04   -0.30460E-04 74604   0.206E-02    0.506E-02
DAV:   9    -0.797341211500E+03   -0.74606E-05   -0.44687E-05 56472   0.115E-02
   6 F= -.79734121E+03 E0= -.79732453E+03  d E =-.134580E-03  mag=    -0.9914
       N       E                     dE             d eps       ncg     rms          rms(c)
DAV:   1    -0.797341563278E+03   -0.35924E-03   -0.51073E-01 73824   0.132E+00    0.628E-01
DAV:   2    -0.797349954132E+03   -0.83909E-02   -0.12915E-01105480   0.503E-01    0.195E+00
DAV:   3    -0.797341494714E+03    0.84594E-02   -0.35382E-02106332   0.340E-01    0.574E-01
DAV:   4    -0.797341707037E+03   -0.21232E-03   -0.61643E-03 87168   0.125E-01    0.177E-01
DAV:   5    -0.797342010057E+03   -0.30302E-03   -0.22028E-03 83592   0.709E-02    0.222E-01
DAV:   6    -0.797341924839E+03    0.85218E-04   -0.95854E-04 82212   0.469E-02    0.782E-02
DAV:   7    -0.797341983704E+03   -0.58865E-04   -0.84722E-04 82284   0.282E-02    0.155E-01
DAV:   8    -0.797341926638E+03    0.57067E-04   -0.80628E-04 74844   0.254E-02    0.679E-02
DAV:   9    -0.797341929041E+03   -0.24037E-05   -0.78180E-05 57096   0.105E-02
   7 F= -.79734193E+03 E0= -.79732513E+03  d E =-.717541E-03  mag=    -0.9914
       N       E                     dE             d eps       ncg     rms          rms(c)
DAV:   1    -0.797342233280E+03   -0.30664E-03   -0.14381E-01 74136   0.677E-01    0.180E-01
DAV:   2    -0.797343018743E+03   -0.78546E-03   -0.10248E-02 92988   0.154E-01    0.639E-01
DAV:   3    -0.797342286794E+03    0.73195E-03   -0.49921E-03 98424   0.963E-02    0.673E-02
DAV:   4    -0.797342429030E+03   -0.14224E-03   -0.50192E-04 80904   0.363E-02    0.101E-01
DAV:   5    -0.797342408890E+03    0.20140E-04   -0.13121E-04 80064   0.219E-02    0.361E-02
DAV:   6    -0.797342415933E+03   -0.70427E-05   -0.17519E-04 81048   0.140E-02    0.680E-02
DAV:   7    -0.797342404934E+03    0.10999E-04   -0.10701E-04 55284   0.128E-02    0.291E-02
DAV:   8    -0.797342406060E+03   -0.11256E-05   -0.36934E-05 50304   0.706E-03
   8 F= -.79734241E+03 E0= -.79732564E+03  d E =-.477018E-03  mag=    -0.9915
       N       E                     dE             d eps       ncg     rms          rms(c)
DAV:   1    -0.797342549377E+03   -0.14444E-03   -0.87334E-02 74064   0.547E-01    0.229E-01
DAV:   2    -0.797344135681E+03   -0.15863E-02   -0.20380E-02103572   0.192E-01    0.997E-01
DAV:   3    -0.797342288289E+03    0.18474E-02   -0.10850E-02104424   0.138E-01    0.894E-02
DAV:   4    -0.797342644294E+03   -0.35600E-03   -0.13185E-03 82308   0.441E-02    0.150E-01
DAV:   5    -0.797342619182E+03    0.25112E-04   -0.60422E-04 78420   0.254E-02    0.500E-02
DAV:   6    -0.797342623795E+03   -0.46134E-05   -0.46383E-05 58500   0.113E-02
   9 F= -.79734262E+03 E0= -.79732584E+03  d E =-.217736E-03  mag=    -0.9915
       N       E                     dE             d eps       ncg     rms          rms(c)
DAV:   1    -0.797336277129E+03    0.63421E-02   -0.34305E+00 73440   0.344E+00    0.108E+00
DAV:   2    -0.797364021469E+03   -0.27744E-01   -0.43545E-01101724   0.951E-01    0.323E+00
DAV:   3    -0.797342245303E+03    0.21776E-01   -0.13643E-01103296   0.566E-01    0.136E+00
DAV:   4    -0.797340512986E+03    0.17323E-02   -0.19054E-02 84204   0.245E-01    0.518E-01
DAV:   5    -0.797340588863E+03   -0.75877E-04   -0.79579E-03 86928   0.147E-01    0.234E-01
DAV:   6    -0.797340800355E+03   -0.21149E-03   -0.33347E-03 78504   0.811E-02    0.234E-01
DAV:   7    -0.797340878620E+03   -0.78265E-04   -0.52134E-03 85452   0.702E-02    0.320E-01
DAV:   8    -0.797340659641E+03    0.21898E-03   -0.34001E-03 90792   0.564E-02    0.142E-01
DAV:   9    -0.797340666612E+03   -0.69710E-05   -0.19976E-04 81684   0.228E-02    0.361E-02
DAV:  10    -0.797340666238E+03    0.37397E-06   -0.34909E-05 64296   0.762E-03
  10 F= -.79734067E+03 E0= -.79732379E+03  d E =0.195756E-02  mag=    -0.9915
       N       E                     dE             d eps       ncg     rms          rms(c)
DAV:   1    -0.797332838327E+03    0.78283E-02   -0.46179E+00 73440   0.397E+00    0.171E+00
DAV:   2    -0.797393815611E+03   -0.60977E-01   -0.91574E-01101220   0.136E+00    0.446E+00
DAV:   3    -0.797350421006E+03    0.43395E-01   -0.99984E-01107208   0.862E-01    0.253E+00
DAV:   4    -0.797337526363E+03    0.12895E-01   -0.45360E-02 84888   0.405E-01    0.953E-01
DAV:   5    -0.797334763039E+03    0.27633E-02   -0.27616E-02 86520   0.284E-01    0.496E-01
DAV:   6    -0.797338089463E+03   -0.33264E-02   -0.82675E-03 77628   0.136E-01    0.821E-01
DAV:   7    -0.797338151763E+03   -0.62301E-04   -0.24276E-02 99660   0.211E-01    0.970E-01
DAV:   8    -0.797335997270E+03    0.21545E-02   -0.16645E-02 82344   0.140E-01    0.384E-01
DAV:   9    -0.797336436611E+03   -0.43934E-03   -0.22974E-03 76548   0.727E-02    0.124E-01
DAV:  10    -0.797336584945E+03   -0.14833E-03   -0.80208E-04 81348   0.443E-02    0.174E-01
DAV:  11    -0.797336545162E+03    0.39783E-04   -0.25545E-04 92724   0.307E-02    0.512E-02
DAV:  12    -0.797336556323E+03   -0.11161E-04   -0.12081E-04 81708   0.147E-02    0.286E-02
DAV:  13    -0.797336560422E+03   -0.40998E-05   -0.93132E-06 52020   0.664E-03
  11 F= -.79733656E+03 E0= -.79731974E+03  d E =0.410582E-02  mag=    -0.9892
       N       E                     dE             d eps       ncg     rms          rms(c)
DAV:   1    -0.797334328643E+03    0.22277E-02   -0.28507E+00 73440   0.317E+00    0.102E+00
DAV:   2    -0.797351478648E+03   -0.17150E-01   -0.23647E-01 92352   0.735E-01    0.257E+00
DAV:   3    -0.797338068446E+03    0.13410E-01   -0.90807E-02100380   0.448E-01    0.572E-01
DAV:   4    -0.797340096952E+03   -0.20285E-02   -0.25365E-02 87612   0.243E-01    0.855E-01
DAV:   5    -0.797338700256E+03    0.13967E-02   -0.56000E-03 89580   0.143E-01    0.259E-01
DAV:   6    -0.797339148601E+03   -0.44834E-03   -0.99981E-03 89172   0.994E-02    0.485E-01
DAV:   7    -0.797338645678E+03    0.50292E-03   -0.50456E-03 87864   0.877E-02    0.239E-01
DAV:   8    -0.797338589748E+03    0.55930E-04   -0.20521E-03 81012   0.501E-02    0.127E-01
DAV:   9    -0.797338614343E+03   -0.24595E-04   -0.13683E-04 81756   0.247E-02    0.653E-02
DAV:  10    -0.797338604798E+03    0.95450E-05   -0.16515E-04 73704   0.137E-02    0.334E-02
DAV:  11    -0.797338605802E+03   -0.10035E-05   -0.19274E-05 54024   0.925E-03
  12 F= -.79733861E+03 E0= -.79732184E+03  d E =-.204538E-02  mag=    -0.9917
       N       E                     dE             d eps       ncg     rms          rms(c)
DAV:   1    -0.797340785456E+03   -0.21807E-02   -0.87643E-01 73440   0.177E+00    0.633E-01
DAV:   2    -0.797345831269E+03   -0.50458E-02   -0.67065E-02 92880   0.417E-01    0.129E+00
DAV:   3    -0.797341873036E+03    0.39582E-02   -0.20458E-02 96960   0.257E-01    0.224E-01
DAV:   4    -0.797342829237E+03   -0.95620E-03   -0.90650E-03 84108   0.132E-01    0.566E-01
DAV:   5    -0.797342024730E+03    0.80451E-03   -0.31329E-03 86952   0.973E-02    0.229E-01
DAV:   6    -0.797342296693E+03   -0.27196E-03   -0.54282E-03 88236   0.738E-02    0.354E-01
DAV:   7    -0.797341974937E+03    0.32176E-03   -0.22835E-03 83028   0.644E-02    0.726E-02
DAV:   8    -0.797342041532E+03   -0.66596E-04   -0.35345E-04 79596   0.260E-02    0.634E-02
DAV:   9    -0.797342036996E+03    0.45368E-05   -0.19406E-04 63792   0.144E-02    0.407E-02
DAV:  10    -0.797342034112E+03    0.28832E-05   -0.28726E-05 52692   0.761E-03
  13 F= -.79734203E+03 E0= -.79732523E+03  d E =-.342831E-02  mag=    -0.9917
       N       E                     dE             d eps       ncg     rms          rms(c)
DAV:   1    -0.797341485378E+03    0.55162E-03   -0.57679E-01 73440   0.142E+00    0.345E-01
DAV:   2    -0.797344092023E+03   -0.26066E-02   -0.31758E-02 88500   0.279E-01    0.102E+00
DAV:   3    -0.797342170928E+03    0.19211E-02   -0.14647E-02 94224   0.163E-01    0.142E-01
DAV:   4    -0.797342608799E+03   -0.43787E-03   -0.21537E-03 81372   0.723E-02    0.273E-01
DAV:   5    -0.797342445722E+03    0.16308E-03   -0.76869E-04 86328   0.496E-02    0.110E-01
DAV:   6    -0.797342485843E+03   -0.40121E-04   -0.98898E-04 84636   0.333E-02    0.144E-01
DAV:   7    -0.797342444400E+03    0.41443E-04   -0.42512E-04 78588   0.280E-02    0.534E-02
DAV:   8    -0.797342450317E+03   -0.59169E-05   -0.15350E-04 63204   0.138E-02    0.406E-02
DAV:   9    -0.797342448846E+03    0.14714E-05   -0.44065E-05 50268   0.745E-03
  14 F= -.79734245E+03 E0= -.79732565E+03  d E =-.414734E-03  mag=    -0.9917
       N       E                     dE             d eps       ncg     rms          rms(c)
DAV:   1    -0.797340513513E+03    0.19368E-02   -0.53061E-01 73440   0.136E+00    0.377E-01
DAV:   2    -0.797343220992E+03   -0.27075E-02   -0.35116E-02 89400   0.295E-01    0.111E+00
DAV:   3    -0.797340958398E+03    0.22626E-02   -0.17369E-02 93516   0.181E-01    0.192E-01
DAV:   4    -0.797341461153E+03   -0.50275E-03   -0.34401E-03 81600   0.878E-02    0.293E-01
DAV:   5    -0.797341302195E+03    0.15896E-03   -0.96467E-04 84396   0.586E-02    0.106E-01
DAV:   6    -0.797341325404E+03   -0.23209E-04   -0.85537E-04 87108   0.338E-02    0.120E-01
DAV:   7    -0.797341316472E+03    0.89323E-05   -0.61756E-04 79176   0.302E-02    0.100E-01
DAV:   8    -0.797341300947E+03    0.15525E-04   -0.31773E-04 67560   0.184E-02    0.471E-02
DAV:   9    -0.797341302868E+03   -0.19217E-05   -0.53541E-05 52476   0.878E-03
  15 F= -.79734130E+03 E0= -.79732456E+03  d E =0.114598E-02  mag=    -0.9920
       N       E                     dE             d eps       ncg     rms          rms(c)
DAV:   1    -0.797341866338E+03   -0.56539E-03   -0.10155E-01 73464   0.605E-01    0.196E-01
DAV:   2    -0.797342205457E+03   -0.33912E-03   -0.44436E-03 90348   0.114E-01    0.263E-01
DAV:   3    -0.797342042386E+03    0.16307E-03   -0.15295E-03102432   0.659E-02    0.113E-01
DAV:   4    -0.797342055234E+03   -0.12848E-04   -0.16346E-04 79848   0.249E-02    0.105E-01
DAV:   5    -0.797342016368E+03    0.38866E-04   -0.35487E-04 81468   0.233E-02    0.622E-02
DAV:   6    -0.797342047828E+03   -0.31460E-04   -0.23693E-04 82428   0.209E-02    0.111E-01
DAV:   7    -0.797342001598E+03    0.46230E-04   -0.20959E-04 59832   0.177E-02    0.125E-02
DAV:   8    -0.797342015144E+03   -0.13546E-04   -0.13653E-05 51564   0.733E-03    0.948E-03
DAV:   9    -0.797342015720E+03   -0.57656E-06   -0.56705E-06 43812   0.334E-03
  16 F= -.79734202E+03 E0= -.79732529E+03  d E =-.712852E-03  mag=    -0.9922
       N       E                     dE             d eps       ncg     rms          rms(c)
DAV:   1    -0.797341915899E+03    0.99244E-04   -0.25598E-02 73608   0.296E-01    0.522E-02
DAV:   2    -0.797341974123E+03   -0.58223E-04   -0.66628E-04 87756   0.447E-02    0.603E-02
DAV:   3    -0.797341969597E+03    0.45258E-05   -0.12353E-04 69036   0.177E-02    0.492E-02
DAV:   4    -0.797341965659E+03    0.39376E-05   -0.38200E-05 51864   0.102E-02
  17 F= -.79734197E+03 E0= -.79732523E+03  d E =0.500611E-04  mag=    -0.9922
