       N       E                     dE             d eps       ncg     rms          ort
DAV:   1     0.291418554705E+04    0.29142E+04   -0.29357E+05  2880   0.141E+03
DAV:   2    -0.933557099285E+03   -0.38477E+04   -0.37077E+04  2880   0.313E+02
DAV:   3    -0.120217635190E+04   -0.26862E+03   -0.26690E+03  2880   0.866E+01
DAV:   4    -0.120541639373E+04   -0.32400E+01   -0.32288E+01  2880   0.101E+01
DAV:   5    -0.120547071602E+04   -0.54322E-01   -0.54211E-01  2880   0.120E+00
SDA:   6    -0.830531634944E+03    0.37494E+03   -0.54211E-01  2880   0.655E+03 0.000E+00
CGA:   7    -0.950525950647E+03   -0.11999E+03   -0.11976E+03  2880   0.469E+02-0.348E+01
CGA:   8    -0.964487594952E+03   -0.13962E+02   -0.13935E+02  2880   0.116E+02 0.213E+00
CGA:   9    -0.968720593987E+03   -0.42330E+01   -0.42299E+01  2880   0.433E+01 0.107E-01
CGA:  10    -0.970117443975E+03   -0.13968E+01   -0.14019E+01  2880   0.985E+00-0.421E-01
CGA:  11    -0.970486200294E+03   -0.36876E+00   -0.36923E+00  2880   0.218E+00-0.283E-02
CGA:  12    -0.970559962054E+03   -0.73762E-01   -0.73590E-01  2880   0.484E-01 0.148E-02
CGA:  13    -0.970578522027E+03   -0.18560E-01   -0.18728E-01  2880   0.115E-01-0.112E-02
CGA:  14    -0.970582857289E+03   -0.43353E-02   -0.42783E-02  2880   0.262E-02 0.392E-03
CGA:  15    -0.970583938491E+03   -0.10812E-02   -0.10469E-02  2880   0.625E-03 0.243E-03
CGA:  16    -0.970584260477E+03   -0.32199E-03   -0.43408E-03  2880   0.468E-03-0.294E-03
CGA:  17    -0.970584333473E+03   -0.72996E-04   -0.72913E-04  2880   0.192E-03 0.332E-05
CGA:  18    -0.970584368125E+03   -0.34652E-04   -0.38412E-04  2880   0.754E-04 0.503E-04
CGA:  19    -0.970584384870E+03   -0.16745E-04   -0.19091E-04  2880   0.378E-04 0.340E-04
CGA:  20    -0.970584396577E+03   -0.11707E-04   -0.12307E-04  2880   0.160E-04 0.144E-04
CGA:  21    -0.970584403313E+03   -0.67365E-05   -0.67436E-05  2880   0.797E-05-0.177E-06
   1 F= -.97058440E+03 E0= -.97058440E+03  d E =-.970584E+03  mag=    -0.0000
       N       E                     dE             d eps       ncg     rms          ort
SDA:   1    -0.970784381304E+03   -0.19998E+00    0.00000E+00  2880   0.435E-02 0.000E+00
CGA:   2    -0.970786190729E+03   -0.18094E-02   -0.17974E-02  2880   0.989E-03 0.795E-04
CGA:   3    -0.970786478023E+03   -0.28729E-03   -0.28796E-03  2880   0.230E-03-0.440E-04
CGA:   4    -0.970786536497E+03   -0.58474E-04   -0.58580E-04  2880   0.485E-04 0.204E-04
CGA:   5    -0.970786556332E+03   -0.19835E-04   -0.19296E-04  2880   0.161E-04 0.573E-05
CGA:   6    -0.970786563365E+03   -0.70332E-05   -0.74603E-05  2880   0.656E-05-0.309E-05
   2 F= -.97078656E+03 E0= -.97078656E+03  d E =-.202160E+00  mag=    -0.0000
       N       E                     dE             d eps       ncg     rms          ort
SDA:   1    -0.973684497817E+03   -0.28979E+01    0.00000E+00  2880   0.173E+01 0.000E+00
CGA:   2    -0.974386024470E+03   -0.70153E+00   -0.70143E+00  2880   0.435E+00 0.123E-02
CGA:   3    -0.974501289185E+03   -0.11526E+00   -0.11521E+00  2880   0.865E-01-0.206E-02
CGA:   4    -0.974527650563E+03   -0.26361E-01   -0.26345E-01  2880   0.216E-01 0.530E-03
CGA:   5    -0.974536092760E+03   -0.84422E-02   -0.84289E-02  2880   0.696E-02 0.103E-03
CGA:   6    -0.974538587550E+03   -0.24948E-02   -0.24994E-02  2880   0.165E-02-0.690E-04
CGA:   7    -0.974539132047E+03   -0.54450E-03   -0.54259E-03  2880   0.306E-03 0.485E-04
CGA:   8    -0.974539253878E+03   -0.12183E-03   -0.12424E-03  2880   0.765E-04-0.242E-04
CGA:   9    -0.974539276481E+03   -0.22603E-04   -0.22382E-04  2880   0.146E-04 0.119E-04
CGA:  10    -0.974539281279E+03   -0.47978E-05   -0.48623E-05  2880   0.389E-05 0.517E-05
   3 F= -.97453928E+03 E0= -.97453928E+03  d E =-.375272E+01  mag=     0.0000
       N       E                     dE             d eps       ncg     rms          ort
SDA:   1    -0.975973675798E+03   -0.14344E+01    0.00000E+00  2880   0.166E+02 0.000E+00
CGA:   2    -0.982199613138E+03   -0.62259E+01   -0.62373E+01  2880   0.429E+01-0.107E+00
CGA:   3    -0.983343380424E+03   -0.11438E+01   -0.11415E+01  2880   0.869E+00-0.291E-01
CGA:   4    -0.983595471441E+03   -0.25209E+00   -0.25221E+00  2880   0.223E+00 0.500E-02
CGA:   5    -0.983679959150E+03   -0.84488E-01   -0.84159E-01  2880   0.748E-01 0.349E-02
CGA:   6    -0.983708031822E+03   -0.28073E-01   -0.28083E-01  2880   0.200E-01-0.164E-03
CGA:   7    -0.983715072631E+03   -0.70408E-02   -0.70333E-02  2880   0.417E-02 0.178E-03
CGA:   8    -0.983716604405E+03   -0.15318E-02   -0.15363E-02  2880   0.860E-03-0.879E-04
CGA:   9    -0.983716930875E+03   -0.32647E-03   -0.32537E-03  2880   0.180E-03 0.155E-04
CGA:  10    -0.983717003921E+03   -0.73046E-04   -0.72349E-04  2880   0.391E-04 0.918E-05
CGA:  11    -0.983717024165E+03   -0.20244E-04   -0.21717E-04  2880   0.126E-04-0.718E-05
CGA:  12    -0.983717027002E+03   -0.28370E-05   -0.29493E-05  2880   0.291E-05 0.236E-05
   4 F= -.98371703E+03 E0= -.98371703E+03  d E =-.917775E+01  mag=     0.0000
       N       E                     dE             d eps       ncg     rms          ort
SDA:   1    -0.977265900365E+03    0.64511E+01    0.00000E+00  2880   0.311E+02 0.000E+00
CGA:   2    -0.988528110478E+03   -0.11262E+02   -0.11267E+02  2880   0.649E+01-0.190E+00
CGA:   3    -0.990276915842E+03   -0.17488E+01   -0.17476E+01  2880   0.133E+01-0.526E-02
CGA:   4    -0.990644205188E+03   -0.36729E+00   -0.36814E+00  2880   0.353E+00 0.770E-02
CGA:   5    -0.990775852355E+03   -0.13165E+00   -0.13137E+00  2880   0.112E+00 0.446E-02
CGA:   6    -0.990819436585E+03   -0.43584E-01   -0.43551E-01  2880   0.317E-01 0.407E-03
CGA:   7    -0.990830543512E+03   -0.11107E-01   -0.11104E-01  2880   0.682E-02 0.126E-03
CGA:   8    -0.990832966061E+03   -0.24225E-02   -0.24251E-02  2880   0.129E-02-0.122E-03
CGA:   9    -0.990833455286E+03   -0.48922E-03   -0.48845E-03  2880   0.257E-03 0.156E-04
CGA:  10    -0.990833563779E+03   -0.10849E-03   -0.10865E-03  2880   0.624E-04-0.201E-05
CGA:  11    -0.990833591311E+03   -0.27532E-04   -0.27928E-04  2880   0.141E-04-0.361E-05
CGA:  12    -0.990833596250E+03   -0.49396E-05   -0.48985E-05  2880   0.261E-05 0.187E-05
   5 F= -.99083360E+03 E0= -.99083360E+03  d E =-.711657E+01  mag=    -0.0000
       N       E                     dE             d eps       ncg     rms          ort
SDA:   1    -0.988608434508E+03    0.22252E+01    0.00000E+00  2880   0.965E+01 0.000E+00
CGA:   2    -0.992191406946E+03   -0.35830E+01   -0.35829E+01  2880   0.178E+01-0.154E-01
CGA:   3    -0.992638528699E+03   -0.44712E+00   -0.44838E+00  2880   0.297E+00 0.672E-03
CGA:   4    -0.992720006704E+03   -0.81478E-01   -0.81495E-01  2880   0.594E-01 0.192E-03
CGA:   5    -0.992740882013E+03   -0.20875E-01   -0.20875E-01  2880   0.173E-01 0.102E-03
CGA:   6    -0.992747720602E+03   -0.68386E-02   -0.68349E-02  2880   0.572E-02 0.535E-04
CGA:   7    -0.992749789676E+03   -0.20691E-02   -0.20687E-02  2880   0.128E-02 0.429E-04
CGA:   8    -0.992750261676E+03   -0.47200E-03   -0.47252E-03  2880   0.225E-03-0.376E-04
CGA:   9    -0.992750344440E+03   -0.82765E-04   -0.82896E-04  2880   0.428E-04-0.499E-05
CGA:  10    -0.992750358060E+03   -0.13620E-04   -0.13772E-04  2880   0.819E-05 0.590E-05
CGA:  11    -0.992750362671E+03   -0.46109E-05   -0.67519E-05  2880   0.888E-05-0.577E-05
   6 F= -.99275036E+03 E0= -.99275036E+03  d E =-.191677E+01  mag=    -0.0000
       N       E                     dE             d eps       ncg     rms          ort
SDA:   1    -0.990112409127E+03    0.26379E+01    0.00000E+00  2880   0.840E+01 0.000E+00
CGA:   2    -0.993173190570E+03   -0.30608E+01   -0.30608E+01  2880   0.174E+01-0.320E-01
CGA:   3    -0.993596280715E+03   -0.42309E+00   -0.42479E+00  2880   0.261E+00-0.843E-03
CGA:   4    -0.993669560515E+03   -0.73280E-01   -0.73293E-01  2880   0.456E-01 0.222E-03
CGA:   5    -0.993684908567E+03   -0.15348E-01   -0.15349E-01  2880   0.119E-01 0.616E-04
CGA:   6    -0.993689467741E+03   -0.45592E-02   -0.45610E-02  2880   0.404E-02-0.817E-04
CGA:   7    -0.993690949915E+03   -0.14822E-02   -0.14810E-02  2880   0.933E-03 0.838E-04
CGA:   8    -0.993691316332E+03   -0.36642E-03   -0.36701E-03  2880   0.168E-03-0.197E-04
CGA:   9    -0.993691380929E+03   -0.64597E-04   -0.65165E-04  2880   0.367E-04-0.143E-04
CGA:  10    -0.993691390050E+03   -0.91211E-05   -0.96112E-05  2880   0.643E-05 0.670E-05
   7 F= -.99369139E+03 E0= -.99369139E+03  d E =-.941027E+00  mag=    -0.0000
       N       E                     dE             d eps       ncg     rms          ort
SDA:   1    -0.989671604637E+03    0.40198E+01    0.00000E+00  2880   0.106E+02 0.000E+00
CGA:   2    -0.993563324577E+03   -0.38917E+01   -0.38920E+01  2880   0.223E+01-0.335E-01
CGA:   3    -0.994114949418E+03   -0.55162E+00   -0.55345E+00  2880   0.323E+00-0.384E-03
CGA:   4    -0.994203029196E+03   -0.88080E-01   -0.88118E-01  2880   0.512E-01 0.523E-03
CGA:   5    -0.994219684932E+03   -0.16656E-01   -0.16659E-01  2880   0.119E-01 0.126E-03
CGA:   6    -0.994224328161E+03   -0.46432E-02   -0.46488E-02  2880   0.412E-02-0.156E-03
CGA:   7    -0.994225843959E+03   -0.15158E-02   -0.15136E-02  2880   0.101E-02 0.111E-03
CGA:   8    -0.994226244065E+03   -0.40011E-03   -0.40075E-03  2880   0.187E-03-0.184E-04
CGA:   9    -0.994226314386E+03   -0.70322E-04   -0.70671E-04  2880   0.358E-04-0.118E-04
CGA:  10    -0.994226325400E+03   -0.11014E-04   -0.11100E-04  2880   0.579E-05 0.344E-05
CGA:  11    -0.994226328108E+03   -0.27080E-05   -0.53492E-05  2880   0.913E-05-0.541E-05
   8 F= -.99422633E+03 E0= -.99422633E+03  d E =-.534938E+00  mag=    -0.0000
       N       E                     dE             d eps       ncg     rms          ort
SDA:   1    -0.987130076148E+03    0.70962E+01    0.00000E+00  2880   0.178E+02 0.000E+00
CGA:   2    -0.993458808874E+03   -0.63287E+01   -0.63287E+01  2880   0.375E+01-0.813E-02
CGA:   3    -0.994408724134E+03   -0.94992E+00   -0.95253E+00  2880   0.556E+00 0.840E-03
CGA:   4    -0.994557183240E+03   -0.14846E+00   -0.14847E+00  2880   0.827E-01 0.429E-03
CGA:   5    -0.994583981370E+03   -0.26798E-01   -0.26808E-01  2880   0.178E-01 0.236E-03
CGA:   6    -0.994591207440E+03   -0.72261E-02   -0.72312E-02  2880   0.623E-02-0.124E-03
CGA:   7    -0.994593597666E+03   -0.23902E-02   -0.23901E-02  2880   0.169E-02 0.568E-05
CGA:   8    -0.994594238138E+03   -0.64047E-03   -0.64085E-03  2880   0.306E-03-0.245E-04
CGA:   9    -0.994594351953E+03   -0.11382E-03   -0.11393E-03  2880   0.519E-04-0.773E-05
CGA:  10    -0.994594373456E+03   -0.21503E-04   -0.21917E-04  2880   0.124E-04-0.593E-05
CGA:  11    -0.994594378260E+03   -0.48036E-05   -0.48581E-05  2880   0.288E-05-0.709E-06
   9 F= -.99459438E+03 E0= -.99459438E+03  d E =-.368050E+00  mag=     0.0000
       N       E                     dE             d eps       ncg     rms          ort
SDA:   1    -0.967798458713E+03    0.26796E+02    0.00000E+00  2880   0.612E+02 0.000E+00
CGA:   2    -0.988657585621E+03   -0.20859E+02   -0.20884E+02  2880   0.141E+02 0.312E+00
CGA:   3    -0.992261584620E+03   -0.36040E+01   -0.36169E+01  2880   0.246E+01 0.405E-01
CGA:   4    -0.992951647362E+03   -0.69006E+00   -0.69114E+00  2880   0.448E+00 0.568E-02
CGA:   5    -0.993103574993E+03   -0.15193E+00   -0.15201E+00  2880   0.132E+00 0.215E-02
CGA:   6    -0.993152872752E+03   -0.49298E-01   -0.49293E-01  2880   0.412E-01 0.200E-03
CGA:   7    -0.993168028099E+03   -0.15155E-01   -0.15155E-01  2880   0.106E-01 0.144E-04
CGA:   8    -0.993171878369E+03   -0.38503E-02   -0.38506E-02  2880   0.208E-02-0.761E-04
CGA:   9    -0.993172620666E+03   -0.74230E-03   -0.74230E-03  2880   0.410E-03-0.350E-05
CGA:  10    -0.993172792973E+03   -0.17231E-03   -0.17450E-03  2880   0.997E-04-0.327E-04
CGA:  11    -0.993172829398E+03   -0.36425E-04   -0.36387E-04  2880   0.191E-04 0.107E-05
CGA:  12    -0.993172836284E+03   -0.68862E-05   -0.69045E-05  2880   0.396E-05 0.324E-05
  10 F= -.99317284E+03 E0= -.99317284E+03  d E =0.142154E+01  mag=    -0.0000
       N       E                     dE             d eps       ncg     rms          ort
SDA:   1    -0.973179245355E+03    0.19994E+02    0.00000E+00  2880   0.502E+02 0.000E+00
CGA:   2    -0.990931812478E+03   -0.17753E+02   -0.17753E+02  2880   0.111E+02-0.212E+00
CGA:   3    -0.993759338881E+03   -0.28275E+01   -0.28482E+01  2880   0.187E+01 0.199E-01
CGA:   4    -0.994350696348E+03   -0.59136E+00   -0.59136E+00  2880   0.382E+00 0.102E-02
CGA:   5    -0.994488626072E+03   -0.13793E+00   -0.13794E+00  2880   0.114E+00 0.139E-02
CGA:   6    -0.994532606094E+03   -0.43980E-01   -0.43973E-01  2880   0.340E-01 0.438E-04
CGA:   7    -0.994545144734E+03   -0.12539E-01   -0.12538E-01  2880   0.796E-02 0.109E-03
CGA:   8    -0.994548093021E+03   -0.29483E-02   -0.29485E-02  2880   0.155E-02-0.560E-04
CGA:   9    -0.994548674300E+03   -0.58128E-03   -0.58136E-03  2880   0.326E-03-0.682E-05
CGA:  10    -0.994548803326E+03   -0.12903E-03   -0.12926E-03  2880   0.678E-04-0.711E-05
CGA:  11    -0.994548833283E+03   -0.29957E-04   -0.30229E-04  2880   0.156E-04-0.309E-05
CGA:  12    -0.994548838204E+03   -0.49216E-05   -0.50171E-05  2880   0.283E-05 0.268E-05
  11 F= -.99454884E+03 E0= -.99454884E+03  d E =-.137600E+01  mag=    -0.0000
       N       E                     dE             d eps       ncg     rms          ort
SDA:   1    -0.994275230136E+03    0.27360E+00    0.00000E+00  2880   0.112E+01 0.000E+00
CGA:   2    -0.994671878643E+03   -0.39665E+00   -0.39672E+00  2880   0.265E+00 0.162E-02
CGA:   3    -0.994741849512E+03   -0.69971E-01   -0.69952E-01  2880   0.403E-01 0.141E-03
CGA:   4    -0.994753957270E+03   -0.12108E-01   -0.12097E-01  2880   0.707E-02-0.188E-03
CGA:   5    -0.994756397317E+03   -0.24400E-02   -0.24397E-02  2880   0.193E-02-0.187E-04
CGA:   6    -0.994757125884E+03   -0.72857E-03   -0.72759E-03  2880   0.555E-03 0.618E-04
CGA:   7    -0.994757363323E+03   -0.23744E-03   -0.23930E-03  2880   0.167E-03-0.346E-04
CGA:   8    -0.994757415160E+03   -0.51838E-04   -0.51954E-04  2880   0.269E-04 0.336E-05
CGA:   9    -0.994757425974E+03   -0.10814E-04   -0.10896E-04  2880   0.657E-05-0.253E-05
CGA:  10    -0.994757428111E+03   -0.21362E-05   -0.21366E-05  2880   0.118E-05 0.274E-07
  12 F= -.99475743E+03 E0= -.99475743E+03  d E =-.208590E+00  mag=    -0.0000
       N       E                     dE             d eps       ncg     rms          ort
SDA:   1    -0.991945453520E+03    0.28120E+01    0.00000E+00  2880   0.697E+01 0.000E+00
CGA:   2    -0.994338486955E+03   -0.23930E+01   -0.23950E+01  2880   0.169E+01 0.418E-01
CGA:   3    -0.994797241076E+03   -0.45875E+00   -0.45823E+00  2880   0.270E+00-0.586E-03
CGA:   4    -0.994876734237E+03   -0.79493E-01   -0.79534E-01  2880   0.488E-01 0.178E-04
CGA:   5    -0.994893625802E+03   -0.16892E-01   -0.16892E-01  2880   0.142E-01 0.449E-04
CGA:   6    -0.994899112722E+03   -0.54869E-02   -0.54799E-02  2880   0.420E-02 0.228E-03
CGA:   7    -0.994900811843E+03   -0.16991E-02   -0.17039E-02  2880   0.117E-02-0.116E-03
CGA:   8    -0.994901202787E+03   -0.39094E-03   -0.39093E-03  2880   0.190E-03-0.743E-06
CGA:   9    -0.994901272716E+03   -0.69929E-04   -0.69924E-04  2880   0.361E-04 0.510E-06
CGA:  10    -0.994901288659E+03   -0.15943E-04   -0.16509E-04  2880   0.996E-05-0.583E-05
CGA:  11    -0.994901290604E+03   -0.19454E-05   -0.22171E-05  2880   0.246E-05 0.276E-05
  13 F= -.99490129E+03 E0= -.99490129E+03  d E =-.143862E+00  mag=     0.0000
       N       E                     dE             d eps       ncg     rms          ort
SDA:   1    -0.994850337955E+03    0.50951E-01    0.00000E+00  2880   0.197E+00 0.000E+00
CGA:   2    -0.994922189068E+03   -0.71851E-01   -0.71852E-01  2880   0.469E-01-0.167E-04
CGA:   3    -0.994934104096E+03   -0.11915E-01   -0.11912E-01  2880   0.669E-02-0.571E-04
CGA:   4    -0.994936060423E+03   -0.19563E-02   -0.19571E-02  2880   0.115E-02 0.152E-04
CGA:   5    -0.994936445346E+03   -0.38492E-03   -0.38499E-03  2880   0.297E-03 0.548E-05
CGA:   6    -0.994936559038E+03   -0.11369E-03   -0.11379E-03  2880   0.947E-04-0.265E-05
CGA:   7    -0.994936594372E+03   -0.35334E-04   -0.35345E-04  2880   0.244E-04-0.372E-06
CGA:   8    -0.994936603576E+03   -0.92045E-05   -0.92453E-05  2880   0.502E-05-0.126E-05
  14 F= -.99493660E+03 E0= -.99493660E+03  d E =-.353130E-01  mag=    -0.0000
       N       E                     dE             d eps       ncg     rms          ort
SDA:   1    -0.992480663371E+03    0.24559E+01    0.00000E+00  2880   0.587E+01 0.000E+00
CGA:   2    -0.994614648438E+03   -0.21340E+01   -0.21339E+01  2880   0.124E+01 0.144E-02
CGA:   3    -0.994939057271E+03   -0.32441E+00   -0.32438E+00  2880   0.173E+00-0.350E-03
CGA:   4    -0.994984329945E+03   -0.45273E-01   -0.45275E-01  2880   0.285E-01 0.431E-04
CGA:   5    -0.994993545060E+03   -0.92151E-02   -0.92149E-02  2880   0.609E-02-0.103E-04
CGA:   6    -0.994995906773E+03   -0.23617E-02   -0.23602E-02  2880   0.196E-02 0.319E-04
CGA:   7    -0.994996689228E+03   -0.78245E-03   -0.78430E-03  2880   0.578E-03-0.333E-04
CGA:   8    -0.994996895202E+03   -0.20597E-03   -0.20615E-03  2880   0.104E-03-0.960E-05
CGA:   9    -0.994996932923E+03   -0.37720E-04   -0.37715E-04  2880   0.179E-04 0.252E-06
CGA:  10    -0.994996941124E+03   -0.82016E-05   -0.93036E-05  2880   0.787E-05-0.642E-05
  15 F= -.99499694E+03 E0= -.99499694E+03  d E =-.603375E-01  mag=     0.0000
       N       E                     dE             d eps       ncg     rms          ort
SDA:   1    -0.938626751967E+03    0.56370E+02    0.00000E+00  2880   0.115E+03 0.000E+00
CGA:   2    -0.977657888642E+03   -0.39031E+02   -0.39061E+02  2880   0.303E+02 0.133E+01
CGA:   3    -0.985215159017E+03   -0.75573E+01   -0.76042E+01  2880   0.585E+01 0.123E+00
CGA:   4    -0.986866316973E+03   -0.16512E+01   -0.16541E+01  2880   0.130E+01 0.529E-02
CGA:   5    -0.987261452062E+03   -0.39514E+00   -0.39537E+00  2880   0.383E+00 0.124E-02
CGA:   6    -0.987397855983E+03   -0.13640E+00   -0.13641E+00  2880   0.108E+00-0.542E-03
CGA:   7    -0.987437773497E+03   -0.39918E-01   -0.39909E-01  2880   0.283E-01 0.269E-03
CGA:   8    -0.987448094311E+03   -0.10321E-01   -0.10322E-01  2880   0.655E-02-0.646E-04
CGA:   9    -0.987450501805E+03   -0.24075E-02   -0.24087E-02  2880   0.135E-02-0.460E-04
CGA:  10    -0.987451038825E+03   -0.53702E-03   -0.53809E-03  2880   0.306E-03-0.188E-04
CGA:  11    -0.987451160274E+03   -0.12145E-03   -0.12217E-03  2880   0.726E-04-0.125E-04
CGA:  12    -0.987451184873E+03   -0.24599E-04   -0.24575E-04  2880   0.133E-04 0.774E-05
CGA:  13    -0.987451192286E+03   -0.74129E-05   -0.83691E-05  2880   0.688E-05-0.438E-05
  16 F= -.98745119E+03 E0= -.98745119E+03  d E =0.754575E+01  mag=    -0.0000
       N       E                     dE             d eps       ncg     rms          ort
SDA:   1    -0.941729102612E+03    0.45722E+02    0.00000E+00  2880   0.117E+03 0.000E+00
CGA:   2    -0.983572953330E+03   -0.41844E+02   -0.41859E+02  2880   0.306E+02-0.372E+01
CGA:   3    -0.991422723464E+03   -0.78498E+01   -0.79442E+01  2880   0.584E+01 0.666E+00
CGA:   4    -0.993343002380E+03   -0.19203E+01   -0.19253E+01  2880   0.164E+01 0.131E+00
CGA:   5    -0.993981681807E+03   -0.63868E+00   -0.63659E+00  2880   0.553E+00 0.497E-01
CGA:   6    -0.994214189419E+03   -0.23251E+00   -0.23232E+00  2880   0.169E+00 0.267E-02
CGA:   7    -0.994277099425E+03   -0.62910E-01   -0.62900E-01  2880   0.409E-01 0.450E-03
CGA:   8    -0.994292562294E+03   -0.15463E-01   -0.15465E-01  2880   0.837E-02-0.116E-03
CGA:   9    -0.994295835856E+03   -0.32736E-02   -0.32718E-02  2880   0.183E-02 0.486E-04
CGA:  10    -0.994296626067E+03   -0.79021E-03   -0.79218E-03  2880   0.479E-03-0.274E-04
CGA:  11    -0.994296834219E+03   -0.20815E-03   -0.20758E-03  2880   0.125E-03 0.731E-05
CGA:  12    -0.994296887671E+03   -0.53452E-04   -0.52907E-04  2880   0.317E-04 0.105E-04
CGA:  13    -0.994296903419E+03   -0.15748E-04   -0.15837E-04  2880   0.849E-05-0.952E-06
CGA:  14    -0.994296906920E+03   -0.35009E-05   -0.35013E-05  2880   0.196E-05-0.666E-08
  17 F= -.99429691E+03 E0= -.99429691E+03  d E =-.684571E+01  mag=    -0.0000
       N       E                     dE             d eps       ncg     rms          ort
SDA:   1    -0.994261656264E+03    0.35247E-01    0.00000E+00  2880   0.577E+00 0.000E+00
CGA:   2    -0.994465337894E+03   -0.20368E+00   -0.20371E+00  2880   0.129E+00 0.537E-03
CGA:   3    -0.994501130776E+03   -0.35793E-01   -0.35776E-01  2880   0.203E-01-0.920E-04
CGA:   4    -0.994506945477E+03   -0.58147E-02   -0.57996E-02  2880   0.354E-02-0.178E-03
CGA:   5    -0.994508200857E+03   -0.12554E-02   -0.12553E-02  2880   0.102E-02-0.877E-05
CGA:   6    -0.994508587908E+03   -0.38705E-03   -0.38666E-03  2880   0.291E-03 0.395E-04
CGA:   7    -0.994508721629E+03   -0.13372E-03   -0.13717E-03  2880   0.100E-03-0.410E-04
CGA:   8    -0.994508748233E+03   -0.26604E-04   -0.26803E-04  2880   0.150E-04 0.324E-05
CGA:   9    -0.994508752863E+03   -0.46299E-05   -0.47653E-05  2880   0.313E-05 0.215E-05
  18 F= -.99450875E+03 E0= -.99450875E+03  d E =-.211846E+00  mag=     0.0000
       N       E                     dE             d eps       ncg     rms          ort
SDA:   1    -0.986297309415E+03    0.82114E+01    0.00000E+00  2880   0.208E+02 0.000E+00
CGA:   2    -0.993417832215E+03   -0.71205E+01   -0.71363E+01  2880   0.469E+01 0.135E+00
CGA:   3    -0.994792231935E+03   -0.13744E+01   -0.13732E+01  2880   0.780E+00 0.867E-02
CGA:   4    -0.995011209024E+03   -0.21898E+00   -0.21953E+00  2880   0.149E+00 0.274E-02
CGA:   5    -0.995066885410E+03   -0.55676E-01   -0.55680E-01  2880   0.496E-01 0.799E-03
CGA:   6    -0.995086934586E+03   -0.20049E-01   -0.20039E-01  2880   0.145E-01 0.380E-03
CGA:   7    -0.995092651508E+03   -0.57169E-02   -0.57218E-02  2880   0.354E-02-0.339E-03
CGA:   8    -0.995093841263E+03   -0.11898E-02   -0.11898E-02  2880   0.524E-03 0.234E-05
CGA:   9    -0.995094034523E+03   -0.19326E-03   -0.19328E-03  2880   0.101E-03 0.233E-05
CGA:  10    -0.995094079067E+03   -0.44543E-04   -0.45825E-04  2880   0.297E-04-0.167E-04
CGA:  11    -0.995094085597E+03   -0.65298E-05   -0.71292E-05  2880   0.666E-05 0.650E-05
  19 F= -.99509409E+03 E0= -.99509409E+03  d E =-.585333E+00  mag=     0.0000
       N       E                     dE             d eps       ncg     rms          ort
SDA:   1    -0.994889272561E+03    0.20481E+00    0.00000E+00  2880   0.571E+00 0.000E+00
CGA:   2    -0.995082944812E+03   -0.19367E+00   -0.19372E+00  2880   0.124E+00 0.630E-03
CGA:   3    -0.995119338804E+03   -0.36394E-01   -0.36392E-01  2880   0.202E-01 0.146E-03
CGA:   4    -0.995124985525E+03   -0.56467E-02   -0.56235E-02  2880   0.330E-02-0.285E-03
CGA:   5    -0.995126115736E+03   -0.11302E-02   -0.11301E-02  2880   0.991E-03-0.982E-05
CGA:   6    -0.995126496157E+03   -0.38042E-03   -0.37891E-03  2880   0.283E-03 0.599E-04
CGA:   7    -0.995126635149E+03   -0.13899E-03   -0.14722E-03  2880   0.123E-03-0.624E-04
CGA:   8    -0.995126659876E+03   -0.24727E-04   -0.25801E-04  2880   0.215E-04 0.111E-04
CGA:   9    -0.995126664294E+03   -0.44178E-05   -0.51740E-05  2880   0.566E-05 0.539E-05
  20 F= -.99512666E+03 E0= -.99512666E+03  d E =-.325787E-01  mag=     0.0000
       N       E                     dE             d eps       ncg     rms          ort
SDA:   1    -0.994004328105E+03    0.11223E+01    0.00000E+00  2880   0.272E+01 0.000E+00
CGA:   2    -0.994935342401E+03   -0.93101E+00   -0.93123E+00  2880   0.599E+00 0.632E-02
CGA:   3    -0.995105517669E+03   -0.17018E+00   -0.17008E+00  2880   0.964E-01 0.165E-03
CGA:   4    -0.995132015384E+03   -0.26498E-01   -0.26476E-01  2880   0.156E-01-0.376E-03
CGA:   5    -0.995137335799E+03   -0.53204E-02   -0.53204E-02  2880   0.448E-02-0.186E-05
CGA:   6    -0.995139104301E+03   -0.17685E-02   -0.17622E-02  2880   0.138E-02 0.141E-03
CGA:   7    -0.995139710148E+03   -0.60585E-03   -0.61469E-03  2880   0.434E-03-0.111E-03
CGA:   8    -0.995139838310E+03   -0.12816E-03   -0.12872E-03  2880   0.611E-04 0.171E-04
CGA:   9    -0.995139860717E+03   -0.22406E-04   -0.22407E-04  2880   0.120E-04 0.195E-05
CGA:  10    -0.995139864244E+03   -0.35268E-05   -0.10014E-04  2880   0.233E-04-0.142E-04
  21 F= -.99513986E+03 E0= -.99513986E+03  d E =-.131999E-01  mag=    -0.0000
       N       E                     dE             d eps       ncg     rms          ort
SDA:   1    -0.994781894497E+03    0.35797E+00    0.00000E+00  2880   0.844E+00 0.000E+00
CGA:   2    -0.995083677675E+03   -0.30178E+00   -0.30179E+00  2880   0.177E+00 0.134E-03
CGA:   3    -0.995129771798E+03   -0.46094E-01   -0.46089E-01  2880   0.254E-01 0.214E-04
CGA:   4    -0.995136340663E+03   -0.65689E-02   -0.65618E-02  2880   0.381E-02-0.695E-04
CGA:   5    -0.995137541637E+03   -0.12010E-02   -0.12008E-02  2880   0.754E-03-0.289E-05
CGA:   6    -0.995137830466E+03   -0.28883E-03   -0.28819E-03  2880   0.239E-03 0.224E-04
CGA:   7    -0.995137939338E+03   -0.10887E-03   -0.11132E-03  2880   0.928E-04-0.255E-04
CGA:   8    -0.995137964220E+03   -0.24882E-04   -0.25326E-04  2880   0.144E-04 0.810E-05
CGA:   9    -0.995137969481E+03   -0.52615E-05   -0.52779E-05  2880   0.319E-05 0.800E-06
  22 F= -.99513797E+03 E0= -.99513797E+03  d E =0.189476E-02  mag=    -0.0000
       N       E                     dE             d eps       ncg     rms          ort
SDA:   1    -0.912557547483E+03    0.82580E+02    0.00000E+00  2880   0.191E+03 0.000E+00
CGA:   2    -0.975945069309E+03   -0.63388E+02   -0.63390E+02  2880   0.465E+02-0.632E+00
CGA:   3    -0.988902943860E+03   -0.12958E+02   -0.13324E+02  2880   0.823E+01 0.110E+01
CGA:   4    -0.991387744521E+03   -0.24848E+01   -0.25057E+01  2880   0.177E+01 0.121E+00
CGA:   5    -0.992043857415E+03   -0.65611E+00   -0.65869E+00  2880   0.574E+00 0.355E-01
CGA:   6    -0.992281372959E+03   -0.23752E+00   -0.23751E+00  2880   0.196E+00 0.202E-02
CGA:   7    -0.992352204520E+03   -0.70832E-01   -0.70922E-01  2880   0.487E-01 0.125E-02
CGA:   8    -0.992370018127E+03   -0.17814E-01   -0.17812E-01  2880   0.978E-02-0.202E-04
CGA:   9    -0.992373672493E+03   -0.36544E-02   -0.36526E-02  2880   0.208E-02-0.685E-04
CGA:  10    -0.992374477838E+03   -0.80534E-03   -0.80515E-03  2880   0.470E-03-0.184E-04
CGA:  11    -0.992374688975E+03   -0.21114E-03   -0.21223E-03  2880   0.130E-03-0.195E-04
CGA:  12    -0.992374736368E+03   -0.47394E-04   -0.47612E-04  2880   0.293E-04 0.116E-04
CGA:  13    -0.992374749539E+03   -0.13171E-04   -0.13154E-04  2880   0.776E-05 0.157E-05
CGA:  14    -0.992374753241E+03   -0.37018E-05   -0.37114E-05  2880   0.202E-05-0.181E-06
  23 F= -.99237475E+03 E0= -.99237475E+03  d E =0.276322E+01  mag=    -0.0000
       N       E                     dE             d eps       ncg     rms          ort
SDA:   1    -0.983307773519E+03    0.90670E+01    0.00000E+00  2880   0.254E+02 0.000E+00
CGA:   2    -0.992233913834E+03   -0.89261E+01   -0.89339E+01  2880   0.641E+01 0.665E-01
CGA:   3    -0.993917336030E+03   -0.16834E+01   -0.16811E+01  2880   0.976E+00 0.155E-02
CGA:   4    -0.994213223253E+03   -0.29589E+00   -0.29628E+00  2880   0.180E+00 0.749E-03
CGA:   5    -0.994276550397E+03   -0.63327E-01   -0.63339E-01  2880   0.501E-01 0.230E-03
CGA:   6    -0.994296013500E+03   -0.19463E-01   -0.19462E-01  2880   0.150E-01 0.227E-03
CGA:   7    -0.994301897592E+03   -0.58841E-02   -0.58849E-02  2880   0.360E-02-0.101E-03
CGA:   8    -0.994303232042E+03   -0.13345E-02   -0.13340E-02  2880   0.662E-03-0.403E-04
CGA:   9    -0.994303474302E+03   -0.24226E-03   -0.24209E-03  2880   0.142E-03-0.124E-04
CGA:  10    -0.994303522866E+03   -0.48564E-04   -0.48760E-04  2880   0.252E-04 0.589E-05
CGA:  11    -0.994303535668E+03   -0.12802E-04   -0.13572E-04  2880   0.975E-05-0.564E-05
CGA:  12    -0.994303537474E+03   -0.18059E-05   -0.20209E-05  2880   0.250E-05 0.178E-05
  24 F= -.99430354E+03 E0= -.99430354E+03  d E =-.192878E+01  mag=    -0.0000
       N       E                     dE             d eps       ncg     rms          ort
SDA:   1    -0.993680777168E+03    0.62276E+00    0.00000E+00  2880   0.225E+01 0.000E+00
CGA:   2    -0.994461788274E+03   -0.78101E+00   -0.78133E+00  2880   0.520E+00 0.581E-02
CGA:   3    -0.994608659466E+03   -0.14687E+00   -0.14675E+00  2880   0.781E-01-0.217E-03
CGA:   4    -0.994631296777E+03   -0.22637E-01   -0.22615E-01  2880   0.144E-01-0.445E-03
CGA:   5    -0.994636525933E+03   -0.52292E-02   -0.52292E-02  2880   0.423E-02-0.632E-05
CGA:   6    -0.994638199195E+03   -0.16733E-02   -0.16699E-02  2880   0.120E-02 0.106E-03
CGA:   7    -0.994638728438E+03   -0.52924E-03   -0.53636E-03  2880   0.347E-03-0.102E-03
CGA:   8    -0.994638829186E+03   -0.10075E-03   -0.10146E-03  2880   0.484E-04 0.148E-04
CGA:   9    -0.994638848847E+03   -0.19661E-04   -0.19721E-04  2880   0.115E-04-0.244E-05
CGA:  10    -0.994638853703E+03   -0.48555E-05   -0.52441E-05  2880   0.449E-05-0.346E-05
  25 F= -.99463885E+03 E0= -.99463885E+03  d E =-.335316E+00  mag=     0.0000
       N       E                     dE             d eps       ncg     rms          ort
SDA:   1    -0.971822187235E+03    0.22817E+02    0.00000E+00  2880   0.561E+02 0.000E+00
CGA:   2    -0.989743464736E+03   -0.17921E+02   -0.18025E+02  2880   0.143E+02 0.795E+00
CGA:   3    -0.993913259940E+03   -0.41698E+01   -0.41724E+01  2880   0.252E+01 0.180E-01
CGA:   4    -0.994660714229E+03   -0.74745E+00   -0.74997E+00  2880   0.565E+00 0.225E-01
CGA:   5    -0.994874153653E+03   -0.21344E+00   -0.21324E+00  2880   0.197E+00 0.828E-02
CGA:   6    -0.994952739519E+03   -0.78586E-01   -0.78551E-01  2880   0.559E-01 0.904E-03
CGA:   7    -0.994974133049E+03   -0.21394E-01   -0.21398E-01  2880   0.133E-01-0.299E-03
CGA:   8    -0.994978807800E+03   -0.46748E-02   -0.46740E-02  2880   0.218E-02-0.863E-04
CGA:   9    -0.994979603086E+03   -0.79529E-03   -0.79517E-03  2880   0.437E-03 0.190E-04
CGA:  10    -0.994979791174E+03   -0.18809E-03   -0.19050E-03  2880   0.114E-03-0.337E-04
CGA:  11    -0.994979827997E+03   -0.36824E-04   -0.37034E-04  2880   0.241E-04 0.174E-04
CGA:  12    -0.994979839528E+03   -0.11530E-04   -0.11380E-04  2880   0.689E-05 0.330E-05
CGA:  13    -0.994979843400E+03   -0.38719E-05   -0.43260E-05  2880   0.351E-05-0.245E-05
  26 F= -.99497984E+03 E0= -.99497984E+03  d E =-.340990E+00  mag=     0.0000
       N       E                     dE             d eps       ncg     rms          ort
SDA:   1    -0.991003341655E+03    0.39765E+01    0.00000E+00  2880   0.101E+02 0.000E+00
CGA:   2    -0.994465578527E+03   -0.34622E+01   -0.34605E+01  2880   0.220E+01-0.538E-01
CGA:   3    -0.995054000559E+03   -0.58842E+00   -0.59069E+00  2880   0.350E+00 0.373E-02
CGA:   4    -0.995155945456E+03   -0.10194E+00   -0.10191E+00  2880   0.570E-01 0.465E-03
CGA:   5    -0.995176557071E+03   -0.20612E-01   -0.20611E-01  2880   0.165E-01 0.258E-05
CGA:   6    -0.995183146236E+03   -0.65892E-02   -0.65995E-02  2880   0.522E-02-0.233E-03
CGA:   7    -0.995185035899E+03   -0.18897E-02   -0.18880E-02  2880   0.117E-02 0.171E-03
CGA:   8    -0.995185488255E+03   -0.45236E-03   -0.45270E-03  2880   0.233E-03-0.209E-04
CGA:   9    -0.995185573890E+03   -0.85634E-04   -0.85670E-04  2880   0.447E-04-0.225E-05
CGA:  10    -0.995185589498E+03   -0.15608E-04   -0.15628E-04  2880   0.813E-05 0.330E-05
CGA:  11    -0.995185593991E+03   -0.44927E-05   -0.59054E-05  2880   0.644E-05-0.445E-05
  27 F= -.99518559E+03 E0= -.99518559E+03  d E =-.205751E+00  mag=     0.0000
       N       E                     dE             d eps       ncg     rms          ort
SDA:   1    -0.994949743515E+03    0.23585E+00    0.00000E+00  2880   0.638E+00 0.000E+00
CGA:   2    -0.995165269256E+03   -0.21553E+00   -0.21559E+00  2880   0.142E+00 0.118E-02
CGA:   3    -0.995206171639E+03   -0.40902E-01   -0.40891E-01  2880   0.233E-01 0.446E-04
CGA:   4    -0.995212764276E+03   -0.65926E-02   -0.65709E-02  2880   0.381E-02-0.297E-03
CGA:   5    -0.995214083229E+03   -0.13190E-02   -0.13189E-02  2880   0.111E-02-0.329E-05
CGA:   6    -0.995214508903E+03   -0.42567E-03   -0.42405E-03  2880   0.317E-03 0.613E-04
CGA:   7    -0.995214662279E+03   -0.15338E-03   -0.16101E-03  2880   0.132E-03-0.622E-04
CGA:   8    -0.995214690423E+03   -0.28145E-04   -0.29126E-04  2880   0.220E-04 0.110E-04
CGA:   9    -0.995214695473E+03   -0.50500E-05   -0.56775E-05  2880   0.560E-05 0.516E-05
  28 F= -.99521470E+03 E0= -.99521470E+03  d E =-.291015E-01  mag=    -0.0000
       N       E                     dE             d eps       ncg     rms          ort
SDA:   1    -0.994990129975E+03    0.22456E+00    0.00000E+00  2880   0.561E+00 0.000E+00
CGA:   2    -0.995180295672E+03   -0.19017E+00   -0.19020E+00  2880   0.121E+00 0.855E-03
CGA:   3    -0.995215176246E+03   -0.34881E-01   -0.34873E-01  2880   0.200E-01 0.459E-04
CGA:   4    -0.995220717224E+03   -0.55410E-02   -0.55199E-02  2880   0.318E-02-0.269E-03
CGA:   5    -0.995221789765E+03   -0.10725E-02   -0.10725E-02  2880   0.898E-03-0.212E-05
CGA:   6    -0.995222133232E+03   -0.34347E-03   -0.34193E-03  2880   0.264E-03 0.546E-04
CGA:   7    -0.995222262689E+03   -0.12946E-03   -0.13726E-03  2880   0.119E-03-0.575E-04
CGA:   8    -0.995222286881E+03   -0.24192E-04   -0.25116E-04  2880   0.209E-04 0.103E-04
CGA:   9    -0.995222291069E+03   -0.41876E-05   -0.49529E-05  2880   0.568E-05 0.554E-05
  29 F= -.99522229E+03 E0= -.99522229E+03  d E =-.759560E-02  mag=    -0.0000
       N       E                     dE             d eps       ncg     rms          ort
SDA:   1    -0.994863799398E+03    0.35849E+00    0.00000E+00  2880   0.855E+00 0.000E+00
CGA:   2    -0.995164575193E+03   -0.30078E+00   -0.30078E+00  2880   0.182E+00 0.104E-02
CGA:   3    -0.995214052213E+03   -0.49477E-01   -0.49459E-01  2880   0.280E-01-0.709E-05
CGA:   4    -0.995221434267E+03   -0.73821E-02   -0.73639E-02  2880   0.425E-02-0.223E-03
CGA:   5    -0.995222812642E+03   -0.13784E-02   -0.13784E-02  2880   0.102E-02 0.141E-05
CGA:   6    -0.995223205379E+03   -0.39274E-03   -0.39072E-03  2880   0.318E-03 0.495E-04
CGA:   7    -0.995223357141E+03   -0.15176E-03   -0.15929E-03  2880   0.138E-03-0.564E-04
CGA:   8    -0.995223388609E+03   -0.31469E-04   -0.32264E-04  2880   0.223E-04 0.120E-04
CGA:   9    -0.995223394209E+03   -0.55996E-05   -0.60711E-05  2880   0.582E-05 0.486E-05
  30 F= -.99522339E+03 E0= -.99522339E+03  d E =-.110314E-02  mag=     0.0000
       N       E                     dE             d eps       ncg     rms          ort
SDA:   1    -0.990557345936E+03    0.46660E+01    0.00000E+00  2880   0.109E+02 0.000E+00
CGA:   2    -0.994468321918E+03   -0.39110E+01   -0.39109E+01  2880   0.228E+01 0.210E-01
CGA:   3    -0.995054430746E+03   -0.58611E+00   -0.58592E+00  2880   0.332E+00-0.335E-03
CGA:   4    -0.995141455317E+03   -0.87025E-01   -0.87044E-01  2880   0.515E-01 0.852E-04
CGA:   5    -0.995157995566E+03   -0.16540E-01   -0.16544E-01  2880   0.110E-01 0.132E-03
CGA:   6    -0.995162362253E+03   -0.43667E-02   -0.43667E-02  2880   0.393E-02-0.208E-06
CGA:   7    -0.995163933704E+03   -0.15715E-02   -0.15752E-02  2880   0.117E-02-0.732E-04
CGA:   8    -0.995164342557E+03   -0.40885E-03   -0.40877E-03  2880   0.189E-03 0.227E-04
CGA:   9    -0.995164417365E+03   -0.74809E-04   -0.75061E-04  2880   0.337E-04-0.671E-05
CGA:  10    -0.995164431882E+03   -0.14517E-04   -0.16614E-04  2880   0.152E-04-0.133E-04
CGA:  11    -0.995164433465E+03   -0.15830E-05   -0.20563E-05  2880   0.551E-05 0.343E-05
  31 F= -.99516443E+03 E0= -.99516443E+03  d E =0.589607E-01  mag=    -0.0000
       N       E                     dE             d eps       ncg     rms          ort
SDA:   1    -0.779795050528E+03    0.21537E+03    0.00000E+00  2880   0.790E+03 0.000E+00
CGA:   2    -0.928654707791E+03   -0.14886E+03   -0.17921E+03  2880   0.169E+03 0.627E+00
CGA:   3    -0.977855630230E+03   -0.49201E+02   -0.49729E+02  2880   0.278E+02 0.483E+01
CGA:   4    -0.986652043209E+03   -0.87964E+01   -0.88532E+01  2880   0.689E+01 0.103E+01
CGA:   5    -0.989330120122E+03   -0.26781E+01   -0.26724E+01  2880   0.255E+01 0.141E+00
CGA:   6    -0.990402679688E+03   -0.10726E+01   -0.10696E+01  2880   0.998E+00 0.372E-01
CGA:   7    -0.990775567154E+03   -0.37289E+00   -0.37299E+00  2880   0.254E+00-0.144E-02
CGA:   8    -0.990866438240E+03   -0.90871E-01   -0.90874E-01  2880   0.488E-01 0.276E-05
CGA:   9    -0.990884588489E+03   -0.18150E-01   -0.18152E-01  2880   0.979E-02-0.428E-04
CGA:  10    -0.990888428619E+03   -0.38401E-02   -0.38488E-02  2880   0.295E-02-0.178E-03
CGA:  11    -0.990889579273E+03   -0.11507E-02   -0.11479E-02  2880   0.106E-02 0.571E-04
CGA:  12    -0.990889959556E+03   -0.38028E-03   -0.38031E-03  2880   0.341E-03-0.817E-05
CGA:  13    -0.990890075752E+03   -0.11620E-03   -0.11633E-03  2880   0.780E-04 0.230E-04
CGA:  14    -0.990890112220E+03   -0.36468E-04   -0.36652E-04  2880   0.204E-04-0.198E-05
CGA:  15    -0.990890121068E+03   -0.88486E-05   -0.88591E-05  2880   0.473E-05-0.106E-06
  32 F= -.99089012E+03 E0= -.99089012E+03  d E =0.427431E+01  mag=    -0.0000
       N       E                     dE             d eps       ncg     rms          ort
SDA:   1    -0.972922798692E+03    0.17967E+02    0.00000E+00  2880   0.492E+02 0.000E+00
CGA:   2    -0.989039514613E+03   -0.16117E+02   -0.16123E+02  2880   0.132E+02 0.432E-01
CGA:   3    -0.992314795288E+03   -0.32753E+01   -0.32809E+01  2880   0.200E+01-0.901E-03
CGA:   4    -0.992929327593E+03   -0.61453E+00   -0.61461E+00  2880   0.370E+00-0.822E-03
CGA:   5    -0.993056004479E+03   -0.12668E+00   -0.12667E+00  2880   0.103E+00-0.485E-03
CGA:   6    -0.993095936883E+03   -0.39932E-01   -0.39938E-01  2880   0.306E-01-0.237E-03
CGA:   7    -0.993108048789E+03   -0.12112E-01   -0.12107E-01  2880   0.731E-02 0.132E-03
CGA:   8    -0.993110841932E+03   -0.27931E-02   -0.27958E-02  2880   0.143E-02-0.924E-04
CGA:   9    -0.993111355140E+03   -0.51321E-03   -0.51340E-03  2880   0.297E-03-0.194E-04
CGA:  10    -0.993111463588E+03   -0.10845E-03   -0.10854E-03  2880   0.665E-04-0.523E-05
CGA:  11    -0.993111488129E+03   -0.24540E-04   -0.24523E-04  2880   0.150E-04 0.853E-06
CGA:  12    -0.993111494558E+03   -0.64289E-05   -0.64804E-05  2880   0.400E-05-0.741E-06
  33 F= -.99311149E+03 E0= -.99311149E+03  d E =-.222137E+01  mag=     0.0000
       N       E                     dE             d eps       ncg     rms          ort
SDA:   1    -0.986969526584E+03    0.61420E+01    0.00000E+00  2880   0.175E+02 0.000E+00
CGA:   2    -0.992721980995E+03   -0.57525E+01   -0.57574E+01  2880   0.490E+01 0.110E+00
CGA:   3    -0.994003957171E+03   -0.12820E+01   -0.12817E+01  2880   0.669E+00-0.711E-02
CGA:   4    -0.994214962941E+03   -0.21101E+00   -0.21111E+00  2880   0.138E+00 0.112E-02
CGA:   5    -0.994264367837E+03   -0.49405E-01   -0.49402E-01  2880   0.387E-01 0.158E-03
CGA:   6    -0.994279765275E+03   -0.15397E-01   -0.15390E-01  2880   0.113E-01 0.102E-03
CGA:   7    -0.994284254746E+03   -0.44895E-02   -0.44892E-02  2880   0.247E-02 0.781E-05
CGA:   8    -0.994285206850E+03   -0.95210E-03   -0.95406E-03  2880   0.445E-03-0.557E-04
CGA:   9    -0.994285360470E+03   -0.15362E-03   -0.15362E-03  2880   0.827E-04 0.915E-05
CGA:  10    -0.994285394729E+03   -0.34259E-04   -0.34736E-04  2880   0.237E-04-0.801E-05
CGA:  11    -0.994285401308E+03   -0.65788E-05   -0.66890E-05  2880   0.403E-05 0.252E-05
  34 F= -.99428540E+03 E0= -.99428540E+03  d E =-.117391E+01  mag=     0.0000
       N       E                     dE             d eps       ncg     rms          ort
SDA:   1    -0.922477700358E+03    0.71808E+02    0.00000E+00  2880   0.167E+03 0.000E+00
CGA:   2    -0.972672196602E+03   -0.50194E+02   -0.50561E+02  2880   0.527E+02 0.169E+01
CGA:   3    -0.987122490038E+03   -0.14450E+02   -0.14730E+02  2880   0.102E+02 0.128E+01
CGA:   4    -0.990258773702E+03   -0.31363E+01   -0.31350E+01  2880   0.288E+01 0.349E-01
CGA:   5    -0.991254017590E+03   -0.99524E+00   -0.99527E+00  2880   0.958E+00 0.705E-01
CGA:   6    -0.991632042592E+03   -0.37803E+00   -0.37763E+00  2880   0.311E+00 0.789E-02
CGA:   7    -0.991743543571E+03   -0.11150E+00   -0.11149E+00  2880   0.846E-01 0.122E-02
CGA:   8    -0.991773894967E+03   -0.30351E-01   -0.30356E-01  2880   0.174E-01-0.472E-03
CGA:   9    -0.991780263310E+03   -0.63683E-02   -0.63685E-02  2880   0.348E-02-0.675E-05
CGA:  10    -0.991781621639E+03   -0.13583E-02   -0.13575E-02  2880   0.885E-03 0.204E-04
CGA:  11    -0.991782010221E+03   -0.38858E-03   -0.39320E-03  2880   0.304E-03-0.509E-04
CGA:  12    -0.991782108468E+03   -0.98247E-04   -0.98668E-04  2880   0.671E-04 0.367E-04
CGA:  13    -0.991782140046E+03   -0.31578E-04   -0.31435E-04  2880   0.202E-04 0.226E-05
CGA:  14    -0.991782149740E+03   -0.96935E-05   -0.13311E-04  2880   0.169E-04-0.129E-04
  35 F= -.99178215E+03 E0= -.99178215E+03  d E =0.250325E+01  mag=    -0.0000
       N       E                     dE             d eps       ncg     rms          ort
SDA:   1    -0.952247405065E+03    0.39535E+02    0.00000E+00  2880   0.956E+02 0.000E+00
CGA:   2    -0.986693087244E+03   -0.34446E+02   -0.34436E+02  2880   0.237E+02-0.333E+01
CGA:   3    -0.992753031650E+03   -0.60599E+01   -0.61608E+01  2880   0.460E+01 0.482E+00
CGA:   4    -0.994210160429E+03   -0.14571E+01   -0.14623E+01  2880   0.125E+01 0.807E-01
CGA:   5    -0.994674609768E+03   -0.46445E+00   -0.46401E+00  2880   0.389E+00 0.325E-01
CGA:   6    -0.994835576696E+03   -0.16097E+00   -0.16080E+00  2880   0.117E+00 0.265E-02
CGA:   7    -0.994880115703E+03   -0.44539E-01   -0.44521E-01  2880   0.291E-01 0.693E-03
CGA:   8    -0.994891146509E+03   -0.11031E-01   -0.11032E-01  2880   0.592E-02-0.843E-04
CGA:   9    -0.994893470677E+03   -0.23242E-02   -0.23237E-02  2880   0.118E-02 0.139E-04
CGA:  10    -0.994893969928E+03   -0.49925E-03   -0.50056E-03  2880   0.277E-03-0.213E-04
CGA:  11    -0.994894091589E+03   -0.12166E-03   -0.12191E-03  2880   0.706E-04-0.296E-05
CGA:  12    -0.994894119193E+03   -0.27604E-04   -0.27429E-04  2880   0.164E-04 0.728E-05
CGA:  13    -0.994894127845E+03   -0.86519E-05   -0.88115E-05  2880   0.537E-05-0.136E-05
  36 F= -.99489413E+03 E0= -.99489413E+03  d E =-.311198E+01  mag=    -0.0000
       N       E                     dE             d eps       ncg     rms          ort
SDA:   1    -0.994211347952E+03    0.68277E+00    0.00000E+00  2880   0.209E+01 0.000E+00
CGA:   2    -0.994925275766E+03   -0.71393E+00   -0.71441E+00  2880   0.476E+00 0.592E-02
CGA:   3    -0.995062060225E+03   -0.13678E+00   -0.13668E+00  2880   0.740E-01-0.583E-04
CGA:   4    -0.995083117053E+03   -0.21057E-01   -0.21042E-01  2880   0.128E-01-0.304E-03
CGA:   5    -0.995087833056E+03   -0.47160E-02   -0.47160E-02  2880   0.389E-02-0.290E-05
CGA:   6    -0.995089399588E+03   -0.15665E-02   -0.15634E-02  2880   0.114E-02 0.888E-04
CGA:   7    -0.995089895748E+03   -0.49616E-03   -0.50183E-03  2880   0.331E-03-0.938E-04
CGA:   8    -0.995089989195E+03   -0.93447E-04   -0.94417E-04  2880   0.453E-04 0.160E-04
CGA:   9    -0.995090007174E+03   -0.17979E-04   -0.17994E-04  2880   0.101E-04-0.151E-05
CGA:  10    -0.995090011553E+03   -0.43786E-05   -0.60852E-05  2880   0.875E-05-0.669E-05
  37 F= -.99509001E+03 E0= -.99509001E+03  d E =-.195884E+00  mag=     0.0000
       N       E                     dE             d eps       ncg     rms          ort
SDA:   1    -0.987952745843E+03    0.71373E+01    0.00000E+00  2880   0.175E+02 0.000E+00
CGA:   2    -0.993719017818E+03   -0.57663E+01   -0.57845E+01  2880   0.417E+01 0.166E+00
CGA:   3    -0.994936644674E+03   -0.12176E+01   -0.12163E+01  2880   0.722E+00-0.794E-03
CGA:   4    -0.995142043552E+03   -0.20540E+00   -0.20590E+00  2880   0.135E+00 0.297E-02
CGA:   5    -0.995192123273E+03   -0.50080E-01   -0.50068E-01  2880   0.448E-01 0.103E-02
CGA:   6    -0.995210213751E+03   -0.18090E-01   -0.18075E-01  2880   0.135E-01 0.377E-03
CGA:   7    -0.995215486573E+03   -0.52728E-02   -0.52781E-02  2880   0.335E-02-0.236E-03
CGA:   8    -0.995216624392E+03   -0.11378E-02   -0.11379E-02  2880   0.509E-03 0.593E-05
CGA:   9    -0.995216812607E+03   -0.18822E-03   -0.18822E-03  2880   0.980E-04-0.142E-05
CGA:  10    -0.995216854834E+03   -0.42227E-04   -0.43373E-04  2880   0.268E-04-0.144E-04
CGA:  11    -0.995216860958E+03   -0.61232E-05   -0.66124E-05  2880   0.606E-05 0.623E-05
  38 F= -.99521686E+03 E0= -.99521686E+03  d E =-.126849E+00  mag=    -0.0000
       N       E                     dE             d eps       ncg     rms          ort
SDA:   1    -0.994421606785E+03    0.79525E+00    0.00000E+00  2880   0.204E+01 0.000E+00
CGA:   2    -0.995116420310E+03   -0.69481E+00   -0.69461E+00  2880   0.453E+00-0.654E-02
CGA:   3    -0.995241156078E+03   -0.12474E+00   -0.12488E+00  2880   0.726E-01 0.144E-03
CGA:   4    -0.995261662023E+03   -0.20506E-01   -0.20532E-01  2880   0.110E-01 0.445E-03
CGA:   5    -0.995265603405E+03   -0.39414E-02   -0.39413E-02  2880   0.314E-02 0.194E-04
CGA:   6    -0.995266889341E+03   -0.12859E-02   -0.12913E-02  2880   0.105E-02-0.906E-04
CGA:   7    -0.995267250587E+03   -0.36125E-03   -0.36119E-03  2880   0.228E-03 0.677E-04
CGA:   8    -0.995267342240E+03   -0.91653E-04   -0.91711E-04  2880   0.455E-04-0.243E-05
CGA:   9    -0.995267359378E+03   -0.17138E-04   -0.17203E-04  2880   0.933E-05-0.240E-05
CGA:  10    -0.995267361729E+03   -0.23513E-05   -0.24970E-05  2880   0.168E-05 0.197E-05
  39 F= -.99526736E+03 E0= -.99526736E+03  d E =-.505008E-01  mag=    -0.0000
       N       E                     dE             d eps       ncg     rms          ort
SDA:   1    -0.995232183779E+03    0.35176E-01    0.00000E+00  2880   0.963E-01 0.000E+00
CGA:   2    -0.995264755748E+03   -0.32572E-01   -0.32575E-01  2880   0.206E-01 0.114E-03
CGA:   3    -0.995270633260E+03   -0.58775E-02   -0.58787E-02  2880   0.331E-02 0.271E-04
CGA:   4    -0.995271558686E+03   -0.92543E-03   -0.91746E-03  2880   0.520E-03-0.106E-03
CGA:   5    -0.995271726309E+03   -0.16762E-03   -0.16765E-03  2880   0.133E-03 0.186E-05
CGA:   6    -0.995271774139E+03   -0.47830E-04   -0.47692E-04  2880   0.369E-04 0.162E-04
CGA:   7    -0.995271793844E+03   -0.19705E-04   -0.28952E-04  2880   0.471E-04-0.263E-04
CGA:   8    -0.995271800421E+03   -0.65772E-05   -0.85894E-05  2880   0.435E-05 0.110E-04
  40 F= -.99527180E+03 E0= -.99527180E+03  d E =-.443869E-02  mag=     0.0000
       N       E                     dE             d eps       ncg     rms          ort
SDA:   1    -0.994857932380E+03    0.41386E+00    0.00000E+00  2880   0.102E+01 0.000E+00
CGA:   2    -0.995209545706E+03   -0.35161E+00   -0.35162E+00  2880   0.217E+00 0.112E-02
CGA:   3    -0.995268352150E+03   -0.58806E-01   -0.58786E-01  2880   0.331E-01-0.253E-04
CGA:   4    -0.995276979076E+03   -0.86269E-02   -0.86123E-02  2880   0.473E-02-0.185E-03
CGA:   5    -0.995278526732E+03   -0.15477E-02   -0.15477E-02  2880   0.109E-02 0.677E-05
CGA:   6    -0.995278952789E+03   -0.42606E-03   -0.42427E-03  2880   0.351E-03 0.364E-04
CGA:   7    -0.995279113877E+03   -0.16109E-03   -0.16671E-03  2880   0.140E-03-0.479E-04
CGA:   8    -0.995279149566E+03   -0.35690E-04   -0.36218E-04  2880   0.209E-04 0.110E-04
CGA:   9    -0.995279155982E+03   -0.64154E-05   -0.65930E-05  2880   0.498E-05 0.335E-05
  41 F= -.99527916E+03 E0= -.99527916E+03  d E =-.735556E-02  mag=     0.0000
       N       E                     dE             d eps       ncg     rms          ort
SDA:   1    -0.994546386073E+03    0.73276E+00    0.00000E+00  2880   0.176E+01 0.000E+00
CGA:   2    -0.995168069406E+03   -0.62168E+00   -0.62173E+00  2880   0.364E+00 0.538E-03
CGA:   3    -0.995263511610E+03   -0.95442E-01   -0.95408E-01  2880   0.515E-01-0.964E-05
CGA:   4    -0.995276649937E+03   -0.13138E-01   -0.13134E-01  2880   0.733E-02-0.489E-04
CGA:   5    -0.995278947472E+03   -0.22975E-02   -0.22991E-02  2880   0.141E-02 0.285E-04
CGA:   6    -0.995279502530E+03   -0.55506E-03   -0.55490E-03  2880   0.466E-03 0.637E-05
CGA:   7    -0.995279702354E+03   -0.19982E-03   -0.20158E-03  2880   0.161E-03-0.282E-04
CGA:   8    -0.995279749953E+03   -0.47599E-04   -0.48315E-04  2880   0.245E-04 0.140E-04
CGA:   9    -0.995279760056E+03   -0.10104E-04   -0.10105E-04  2880   0.531E-05-0.878E-07
CGA:  10    -0.995279759026E+03    0.10306E-05   -0.52671E-05  2880   0.224E-04-0.101E-04
  42 F= -.99527976E+03 E0= -.99527976E+03  d E =-.603044E-03  mag=     0.0000
       N       E                     dE             d eps       ncg     rms          ort
SDA:   1    -0.983247311189E+03    0.12032E+02    0.00000E+00  2880   0.287E+02 0.000E+00
CGA:   2    -0.993312651202E+03   -0.10065E+02   -0.10073E+02  2880   0.586E+01 0.732E-01
CGA:   3    -0.994853711690E+03   -0.15411E+01   -0.15407E+01  2880   0.851E+00 0.578E-02
CGA:   4    -0.995074807757E+03   -0.22110E+00   -0.22137E+00  2880   0.140E+00 0.991E-03
CGA:   5    -0.995120725913E+03   -0.45918E-01   -0.45951E-01  2880   0.318E-01 0.487E-03
CGA:   6    -0.995133829236E+03   -0.13103E-01   -0.13102E-01  2880   0.113E-01 0.723E-05
CGA:   7    -0.995138346618E+03   -0.45174E-02   -0.45201E-02  2880   0.321E-02-0.133E-03
CGA:   8    -0.995139452382E+03   -0.11058E-02   -0.11070E-02  2880   0.509E-03 0.442E-04
CGA:   9    -0.995139653245E+03   -0.20086E-03   -0.20110E-03  2880   0.911E-04-0.172E-04
CGA:  10    -0.995139691937E+03   -0.38692E-04   -0.40311E-04  2880   0.277E-04-0.198E-04
CGA:  11    -0.995139698021E+03   -0.60845E-05   -0.64951E-05  2880   0.604E-05 0.507E-05
  43 F= -.99513970E+03 E0= -.99513970E+03  d E =0.140061E+00  mag=     0.0000
       N       E                     dE             d eps       ncg     rms          ort
SDA:   1    -0.992724185111E+03    0.24155E+01    0.00000E+00  2880   0.616E+01 0.000E+00
CGA:   2    -0.994870559522E+03   -0.21464E+01   -0.21463E+01  2880   0.128E+01-0.276E-02
CGA:   3    -0.995203705654E+03   -0.33315E+00   -0.33336E+00  2880   0.197E+00 0.256E-04
CGA:   4    -0.995254846466E+03   -0.51141E-01   -0.51135E-01  2880   0.276E-01 0.509E-04
CGA:   5    -0.995263870328E+03   -0.90239E-02   -0.90225E-02  2880   0.588E-02-0.447E-04
CGA:   6    -0.995266209559E+03   -0.23392E-02   -0.23385E-02  2880   0.191E-02 0.164E-04
CGA:   7    -0.995266959255E+03   -0.74970E-03   -0.74920E-03  2880   0.552E-03 0.148E-04
CGA:   8    -0.995267177477E+03   -0.21822E-03   -0.21968E-03  2880   0.111E-03-0.416E-04
CGA:   9    -0.995267212254E+03   -0.34777E-04   -0.34897E-04  2880   0.160E-04 0.590E-05
CGA:  10    -0.995267217865E+03   -0.56109E-05   -0.56699E-05  2880   0.304E-05 0.242E-05
  44 F= -.99526722E+03 E0= -.99526722E+03  d E =-.127520E+00  mag=     0.0000
       N       E                     dE             d eps       ncg     rms          ort
SDA:   1    -0.994947097879E+03    0.32011E+00    0.00000E+00  2880   0.827E+00 0.000E+00
CGA:   2    -0.995233382689E+03   -0.28628E+00   -0.28620E+00  2880   0.175E+00-0.964E-03
CGA:   3    -0.995280490410E+03   -0.47108E-01   -0.47130E-01  2880   0.274E-01-0.107E-03
CGA:   4    -0.995287644220E+03   -0.71538E-02   -0.71856E-02  2880   0.382E-02 0.268E-03
CGA:   5    -0.995288917325E+03   -0.12731E-02   -0.12731E-02  2880   0.888E-03 0.881E-06
CGA:   6    -0.995289281904E+03   -0.36458E-03   -0.36622E-03  2880   0.320E-03-0.457E-04
CGA:   7    -0.995289379095E+03   -0.97191E-04   -0.99241E-04  2880   0.713E-04 0.400E-04
CGA:   8    -0.995289409898E+03   -0.30804E-04   -0.30783E-04  2880   0.161E-04 0.263E-05
CGA:   9    -0.995289417461E+03   -0.75623E-05   -0.84709E-05  2880   0.866E-05-0.697E-05
  45 F= -.99528942E+03 E0= -.99528942E+03  d E =-.221996E-01  mag=    -0.0000
       N       E                     dE             d eps       ncg     rms          ort
SDA:   1    -0.995236642538E+03    0.52767E-01    0.00000E+00  2880   0.131E+00 0.000E+00
CGA:   2    -0.995283069078E+03   -0.46427E-01   -0.46423E-01  2880   0.271E-01-0.144E-03
CGA:   3    -0.995290506220E+03   -0.74371E-02   -0.74296E-02  2880   0.408E-02-0.919E-04
CGA:   4    -0.995291529191E+03   -0.10230E-02   -0.10373E-02  2880   0.574E-03 0.131E-03
CGA:   5    -0.995291721652E+03   -0.19246E-03   -0.19290E-03  2880   0.140E-03 0.131E-04
CGA:   6    -0.995291786946E+03   -0.65294E-04   -0.69147E-04  2880   0.742E-04-0.311E-04
CGA:   7    -0.995291799833E+03   -0.12887E-04   -0.14548E-04  2880   0.203E-04 0.148E-04
CGA:   8    -0.995291803135E+03   -0.33018E-05   -0.46461E-05  2880   0.621E-05 0.803E-05
  46 F= -.99529180E+03 E0= -.99529180E+03  d E =-.238567E-02  mag=     0.0000
       N       E                     dE             d eps       ncg     rms          ort
SDA:   1    -0.992442424263E+03    0.28494E+01    0.00000E+00  2880   0.667E+01 0.000E+00
CGA:   2    -0.994887707473E+03   -0.24453E+01   -0.24455E+01  2880   0.132E+01-0.601E-02
CGA:   3    -0.995229124414E+03   -0.34142E+00   -0.34157E+00  2880   0.184E+00-0.121E-03
CGA:   4    -0.995276061900E+03   -0.46937E-01   -0.46973E-01  2880   0.276E-01 0.430E-03
CGA:   5    -0.995284619623E+03   -0.85577E-02   -0.85601E-02  2880   0.513E-02 0.805E-04
CGA:   6    -0.995286643710E+03   -0.20241E-02   -0.20297E-02  2880   0.175E-02-0.975E-04
CGA:   7    -0.995287325164E+03   -0.68145E-03   -0.67991E-03  2880   0.498E-03 0.269E-04
CGA:   8    -0.995287515511E+03   -0.19035E-03   -0.19038E-03  2880   0.951E-04-0.852E-06
CGA:   9    -0.995287551059E+03   -0.35549E-04   -0.35620E-04  2880   0.150E-04-0.225E-05
CGA:  10    -0.995287557370E+03   -0.63107E-05   -0.67697E-05  2880   0.467E-05-0.392E-05
  47 F= -.99528756E+03 E0= -.99528756E+03  d E =0.424576E-02  mag=     0.0000
       N       E                     dE             d eps       ncg     rms          ort
SDA:   1    -0.988172172518E+03    0.71154E+01    0.00000E+00  2880   0.165E+02 0.000E+00
CGA:   2    -0.994225394022E+03   -0.60532E+01   -0.60531E+01  2880   0.328E+01 0.232E-02
CGA:   3    -0.995065144524E+03   -0.83975E+00   -0.83992E+00  2880   0.471E+00-0.151E-03
CGA:   4    -0.995185788350E+03   -0.12064E+00   -0.12063E+00  2880   0.729E-01-0.128E-03
CGA:   5    -0.995208621700E+03   -0.22833E-01   -0.22838E-01  2880   0.142E-01 0.132E-03
CGA:   6    -0.995214228819E+03   -0.56071E-02   -0.56053E-02  2880   0.481E-02 0.344E-04
CGA:   7    -0.995216239736E+03   -0.20109E-02   -0.20226E-02  2880   0.153E-02-0.158E-03
CGA:   8    -0.995216769153E+03   -0.52942E-03   -0.52935E-03  2880   0.255E-03 0.781E-05
CGA:   9    -0.995216865498E+03   -0.96345E-04   -0.96574E-04  2880   0.451E-04-0.845E-05
CGA:  10    -0.995216884545E+03   -0.19046E-04   -0.20910E-04  2880   0.170E-04-0.146E-04
CGA:  11    -0.995216887235E+03   -0.26900E-05   -0.30007E-05  2880   0.473E-05 0.321E-05
  48 F= -.99521689E+03 E0= -.99521689E+03  d E =0.706701E-01  mag=     0.0000
       N       E                     dE             d eps       ncg     rms          ort
SDA:   1    -0.986220773333E+03    0.89961E+01    0.00000E+00  2880   0.212E+02 0.000E+00
CGA:   2    -0.994023638831E+03   -0.78029E+01   -0.78018E+01  2880   0.423E+01 0.200E-01
CGA:   3    -0.995102553689E+03   -0.10789E+01   -0.10788E+01  2880   0.599E+00-0.339E-03
CGA:   4    -0.995257407818E+03   -0.15485E+00   -0.15492E+00  2880   0.943E-01 0.559E-03
CGA:   5    -0.995287099014E+03   -0.29691E-01   -0.29688E-01  2880   0.186E-01-0.147E-03
CGA:   6    -0.995294475535E+03   -0.73765E-02   -0.73774E-02  2880   0.627E-02-0.172E-04
CGA:   7    -0.995296987749E+03   -0.25122E-02   -0.25068E-02  2880   0.178E-02 0.875E-04
CGA:   8    -0.995297680741E+03   -0.69299E-03   -0.69652E-03  2880   0.350E-03-0.797E-04
CGA:   9    -0.995297799363E+03   -0.11862E-03   -0.11864E-03  2880   0.531E-04-0.189E-05
CGA:  10    -0.995297817972E+03   -0.18609E-04   -0.18591E-04  2880   0.964E-05 0.235E-05
CGA:  11    -0.995297822994E+03   -0.50227E-05   -0.64265E-05  2880   0.692E-05-0.479E-05
  49 F= -.99529782E+03 E0= -.99529782E+03  d E =-.809358E-01  mag=    -0.0000
       N       E                     dE             d eps       ncg     rms          ort
SDA:   1    -0.992242174117E+03    0.30556E+01    0.00000E+00  2880   0.694E+01 0.000E+00
CGA:   2    -0.994731633447E+03   -0.24895E+01   -0.24895E+01  2880   0.150E+01-0.387E-02
CGA:   3    -0.995112235186E+03   -0.38060E+00   -0.38072E+00  2880   0.229E+00 0.360E-03
CGA:   4    -0.995174224204E+03   -0.61989E-01   -0.62019E-01  2880   0.342E-01 0.383E-03
CGA:   5    -0.995185454356E+03   -0.11230E-01   -0.11229E-01  2880   0.778E-02-0.673E-04
CGA:   6    -0.995188465490E+03   -0.30111E-02   -0.30129E-02  2880   0.257E-02-0.407E-04
CGA:   7    -0.995189431442E+03   -0.96595E-03   -0.96399E-03  2880   0.683E-03 0.651E-04
CGA:   8    -0.995189704529E+03   -0.27309E-03   -0.27403E-03  2880   0.138E-03-0.221E-04
CGA:   9    -0.995189752725E+03   -0.48195E-04   -0.48216E-04  2880   0.247E-04-0.205E-05
CGA:  10    -0.995189760968E+03   -0.82433E-05   -0.82645E-05  2880   0.411E-05 0.183E-05
  50 F= -.99518976E+03 E0= -.99518976E+03  d E =0.108062E+00  mag=    -0.0000
       N       E                     dE             d eps       ncg     rms          ort
SDA:   1    -0.992641234520E+03    0.25485E+01    0.00000E+00  2880   0.625E+01 0.000E+00
CGA:   2    -0.994892282146E+03   -0.22510E+01   -0.22510E+01  2880   0.134E+01 0.229E-02
CGA:   3    -0.995233839911E+03   -0.34156E+00   -0.34147E+00  2880   0.203E+00-0.684E-03
CGA:   4    -0.995288338436E+03   -0.54499E-01   -0.54478E-01  2880   0.309E-01-0.270E-03
CGA:   5    -0.995298347311E+03   -0.10009E-01   -0.10011E-01  2880   0.680E-02 0.946E-04
CGA:   6    -0.995300996978E+03   -0.26497E-02   -0.26482E-02  2880   0.226E-02 0.334E-04
CGA:   7    -0.995301916397E+03   -0.91942E-03   -0.92444E-03  2880   0.693E-03-0.850E-04
CGA:   8    -0.995302155317E+03   -0.23892E-03   -0.23889E-03  2880   0.117E-03 0.490E-05
CGA:   9    -0.995302198475E+03   -0.43159E-04   -0.43153E-04  2880   0.217E-04 0.424E-06
CGA:  10    -0.995302208348E+03   -0.98724E-05   -0.11108E-04  2880   0.937E-05-0.786E-05
  51 F= -.99530221E+03 E0= -.99530221E+03  d E =-.112447E+00  mag=     0.0000
       N       E                     dE             d eps       ncg     rms          ort
SDA:   1    -0.995300374504E+03    0.18240E-02    0.00000E+00  2880   0.509E-02 0.000E+00
CGA:   2    -0.995302210592E+03   -0.18361E-02   -0.18359E-02  2880   0.106E-02 0.349E-04
CGA:   3    -0.995302489425E+03   -0.27883E-03   -0.27798E-03  2880   0.166E-03-0.885E-05
CGA:   4    -0.995302540168E+03   -0.50743E-04   -0.49513E-04  2880   0.333E-04-0.242E-04
CGA:   5    -0.995302546916E+03   -0.67478E-05   -0.71213E-05  2880   0.534E-05 0.380E-05
  52 F= -.99530255E+03 E0= -.99530255E+03  d E =-.338568E-03  mag=     0.0000
       N       E                     dE             d eps       ncg     rms          ort
SDA:   1    -0.995272527793E+03    0.30012E-01    0.00000E+00  2880   0.705E-01 0.000E+00
CGA:   2    -0.995298803971E+03   -0.26276E-01   -0.26274E-01  2880   0.140E-01 0.593E-04
CGA:   3    -0.995302360402E+03   -0.35564E-02   -0.35545E-02  2880   0.205E-02-0.226E-04
CGA:   4    -0.995302909157E+03   -0.54875E-03   -0.54500E-03  2880   0.314E-03-0.551E-04
CGA:   5    -0.995302999249E+03   -0.90092E-04   -0.90417E-04  2880   0.563E-04 0.926E-05
CGA:   6    -0.995303019638E+03   -0.20389E-04   -0.20253E-04  2880   0.161E-04 0.659E-05
CGA:   7    -0.995303020715E+03   -0.10773E-05   -0.18709E-04  2880   0.611E-04-0.249E-04
CGA:   8    -0.995303030462E+03   -0.97462E-05   -0.11844E-04  2880   0.586E-05 0.122E-04
  53 F= -.99530303E+03 E0= -.99530303E+03  d E =-.483546E-03  mag=    -0.0000
       N       E                     dE             d eps       ncg     rms          ort
SDA:   1    -0.995255000979E+03    0.48020E-01    0.00000E+00  2880   0.113E+00 0.000E+00
CGA:   2    -0.995296931567E+03   -0.41931E-01   -0.41933E-01  2880   0.231E-01-0.140E-03
CGA:   3    -0.995302769487E+03   -0.58379E-02   -0.58429E-02  2880   0.331E-02 0.496E-04
CGA:   4    -0.995303610630E+03   -0.84114E-03   -0.84336E-03  2880   0.487E-03 0.240E-04
CGA:   5    -0.995303766184E+03   -0.15555E-03   -0.15542E-03  2880   0.948E-04-0.513E-05
CGA:   6    -0.995303802410E+03   -0.36226E-04   -0.36294E-04  2880   0.304E-04-0.147E-05
CGA:   7    -0.995303813228E+03   -0.10818E-04   -0.10770E-04  2880   0.774E-05 0.292E-05
CGA:   8    -0.995303816443E+03   -0.32143E-05   -0.31987E-05  2880   0.159E-05 0.472E-06
  54 F= -.99530382E+03 E0= -.99530382E+03  d E =-.785981E-03  mag=     0.0000
       N       E                     dE             d eps       ncg     rms          ort
SDA:   1    -0.994691278402E+03    0.61253E+00    0.00000E+00  2880   0.140E+01 0.000E+00
CGA:   2    -0.995221981844E+03   -0.53070E+00   -0.53072E+00  2880   0.281E+00-0.630E-03
CGA:   3    -0.995291732663E+03   -0.69751E-01   -0.69761E-01  2880   0.391E-01 0.845E-04
CGA:   4    -0.995301827765E+03   -0.10095E-01   -0.10101E-01  2880   0.585E-02 0.572E-04
CGA:   5    -0.995303638398E+03   -0.18106E-02   -0.18100E-02  2880   0.109E-02-0.175E-04
CGA:   6    -0.995304052013E+03   -0.41361E-03   -0.41390E-03  2880   0.358E-03-0.754E-05
CGA:   7    -0.995304192160E+03   -0.14015E-03   -0.13968E-03  2880   0.103E-03 0.983E-05
CGA:   8    -0.995304234441E+03   -0.42281E-04   -0.42463E-04  2880   0.212E-04-0.355E-05
CGA:   9    -0.995304242613E+03   -0.81720E-05   -0.83329E-05  2880   0.419E-05-0.284E-05
  55 F= -.99530424E+03 E0= -.99530424E+03  d E =-.426170E-03  mag=     0.0000
       N       E                     dE             d eps       ncg     rms          ort
SDA:   1    -0.995119124253E+03    0.18511E+00    0.00000E+00  2880   0.439E+00 0.000E+00
CGA:   2    -0.995276712233E+03   -0.15759E+00   -0.15759E+00  2880   0.931E-01 0.108E-03
CGA:   3    -0.995300562444E+03   -0.23850E-01   -0.23839E-01  2880   0.144E-01-0.134E-03
CGA:   4    -0.995304428526E+03   -0.38661E-02   -0.38630E-02  2880   0.214E-02-0.408E-04
CGA:   5    -0.995305109063E+03   -0.68054E-03   -0.68053E-03  2880   0.469E-03-0.180E-06
CGA:   6    -0.995305288351E+03   -0.17929E-03   -0.17905E-03  2880   0.150E-03 0.560E-05
CGA:   7    -0.995305352259E+03   -0.63908E-04   -0.64716E-04  2880   0.492E-04-0.959E-05
CGA:   8    -0.995305369866E+03   -0.17607E-04   -0.17767E-04  2880   0.968E-05-0.408E-05
CGA:   9    -0.995305372242E+03   -0.23756E-05   -0.24866E-05  2880   0.169E-05 0.163E-05
  56 F= -.99530537E+03 E0= -.99530537E+03  d E =-.112963E-02  mag=     0.0000
       N       E                     dE             d eps       ncg     rms          ort
SDA:   1    -0.995122288622E+03    0.18308E+00    0.00000E+00  2880   0.431E+00 0.000E+00
CGA:   2    -0.995280649133E+03   -0.15836E+00   -0.15836E+00  2880   0.895E-01-0.131E-03
CGA:   3    -0.995303113646E+03   -0.22465E-01   -0.22461E-01  2880   0.131E-01-0.366E-04
CGA:   4    -0.995306540322E+03   -0.34267E-02   -0.34291E-02  2880   0.191E-02 0.287E-04
CGA:   5    -0.995307142727E+03   -0.60241E-03   -0.60282E-03  2880   0.381E-03 0.147E-04
CGA:   6    -0.995307293727E+03   -0.15100E-03   -0.15141E-03  2880   0.132E-03-0.787E-05
CGA:   7    -0.995307343658E+03   -0.49931E-04   -0.49856E-04  2880   0.370E-04 0.178E-05
CGA:   8    -0.995307356778E+03   -0.13120E-04   -0.13112E-04  2880   0.635E-05 0.278E-05
CGA:   9    -0.995307359534E+03   -0.27559E-05   -0.27853E-05  2880   0.145E-05-0.478E-06
  57 F= -.99530736E+03 E0= -.99530736E+03  d E =-.198729E-02  mag=    -0.0000
       N       E                     dE             d eps       ncg     rms          ort
SDA:   1    -0.995293457660E+03    0.13899E-01    0.00000E+00  2880   0.341E-01 0.000E+00
CGA:   2    -0.995305246643E+03   -0.11789E-01   -0.11789E-01  2880   0.741E-02-0.169E-04
CGA:   3    -0.995307249780E+03   -0.20031E-02   -0.20054E-02  2880   0.121E-02 0.296E-04
CGA:   4    -0.995307587025E+03   -0.33725E-03   -0.33656E-03  2880   0.184E-03-0.105E-04
CGA:   5    -0.995307650006E+03   -0.62981E-04   -0.63016E-04  2880   0.502E-04-0.634E-05
CGA:   6    -0.995307665989E+03   -0.15983E-04   -0.16046E-04  2880   0.126E-04 0.660E-05
CGA:   7    -0.995307672603E+03   -0.66141E-05   -0.68640E-05  2880   0.559E-05-0.176E-05
  58 F= -.99530767E+03 E0= -.99530767E+03  d E =-.313069E-03  mag=    -0.0000
       N       E                     dE             d eps       ncg     rms          ort
SDA:   1    -0.995304215235E+03    0.34508E-02    0.00000E+00  2880   0.925E-02 0.000E+00
CGA:   2    -0.995307426616E+03   -0.32114E-02   -0.32114E-02  2880   0.199E-02 0.819E-05
CGA:   3    -0.995307973977E+03   -0.54736E-03   -0.54694E-03  2880   0.327E-03-0.592E-05
CGA:   4    -0.995308066223E+03   -0.92246E-04   -0.92048E-04  2880   0.511E-04-0.310E-05
CGA:   5    -0.995308082776E+03   -0.16553E-04   -0.16573E-04  2880   0.126E-04 0.126E-05
CGA:   6    -0.995308088711E+03   -0.59346E-05   -0.63713E-05  2880   0.664E-05-0.286E-05
  59 F= -.99530809E+03 E0= -.99530809E+03  d E =-.416107E-03  mag=    -0.0000
