       N       E                     dE             d eps       ncg     rms          ort
DAV:   1     0.102727848659E+05    0.10273E+05   -0.42428E+05 10640   0.155E+03
DAV:   2    -0.118537468767E+03   -0.10391E+05   -0.98103E+04 10640   0.474E+02
DAV:   3    -0.152238429312E+04   -0.14038E+04   -0.13091E+04 10640   0.181E+02
DAV:   4    -0.160435705440E+04   -0.81973E+02   -0.79722E+02 10640   0.462E+01
DAV:   5    -0.160672274418E+04   -0.23657E+01   -0.23581E+01 10640   0.838E+00
SDA:   6    -0.726404747209E+03    0.88032E+03   -0.23581E+01 10640   0.295E+04 0.000E+00
CGA:   7    -0.111460696515E+04   -0.38820E+03   -0.38778E+03 10640   0.165E+04-0.351E+02
CGA:   8    -0.113874523308E+04   -0.24138E+02   -0.90077E+02 10640   0.150E+04-0.997E+03
CGA:   9    -0.115028652229E+04   -0.11541E+02   -0.71357E+02 10640   0.228E+04-0.166E+04
CGA:  10    -0.112743486923E+04    0.22852E+02   -0.12785E+03 10640   0.281E+04-0.185E+04
CGA:  11    -0.113806318647E+04   -0.10628E+02   -0.13738E+03 10640   0.344E+04-0.320E+04
CGA:  12    -0.111298604526E+04    0.25077E+02   -0.18574E+03 10640   0.382E+04-0.307E+04
CGA:  13    -0.112360229462E+04   -0.10616E+02   -0.19155E+03 10640   0.430E+04-0.418E+04
CGA:  14    -0.111394369468E+04    0.96586E+01   -0.22582E+03 10640   0.414E+04-0.377E+04
CGA:  15    -0.115176623246E+04   -0.37823E+02   -0.19889E+03 10640   0.369E+04-0.414E+04
CGA:  16    -0.117803754906E+04   -0.26271E+02   -0.17521E+03 10640   0.260E+04-0.291E+04
CGA:  17    -0.122992365245E+04   -0.51886E+02   -0.10451E+03 10640   0.103E+04-0.165E+04
CGA:  18    -0.125214396948E+04   -0.22220E+02   -0.36886E+02 10640   0.231E+03-0.398E+03
CGA:  19    -0.125943638801E+04   -0.72924E+01   -0.56721E+01 10640   0.378E+02 0.380E+02
CGA:  20    -0.126259480003E+04   -0.31584E+01   -0.32301E+01 10640   0.779E+02-0.334E+00
CGA:  21    -0.127232687329E+04   -0.97321E+01   -0.97299E+01 10640   0.119E+03 0.111E+01
CGA:  22    -0.127526582287E+04   -0.29389E+01   -0.33212E+01 10640   0.308E+02-0.272E+02
CGA:  23    -0.127591103260E+04   -0.64521E+00   -0.69379E+00 10640   0.166E+02-0.194E+01
CGA:  24    -0.127646414025E+04   -0.55311E+00   -0.67864E+00 10640   0.177E+02-0.276E+01
CGA:  25    -0.127766916540E+04   -0.12050E+01   -0.12519E+01 10640   0.265E+02-0.249E+00
CGA:  26    -0.127894713097E+04   -0.12780E+01   -0.10469E+01 10640   0.957E+01 0.362E+01
CGA:  27    -0.127950098073E+04   -0.55385E+00   -0.56658E+00 10640   0.759E+01-0.510E+00
CGA:  28    -0.128020348737E+04   -0.70251E+00   -0.70727E+00 10640   0.787E+01-0.338E-01
CGA:  29    -0.128095899102E+04   -0.75550E+00   -0.75441E+00 10640   0.421E+01-0.478E+00
CGA:  30    -0.128146144622E+04   -0.50246E+00   -0.50189E+00 10640   0.310E+01-0.226E+00
CGA:  31    -0.128217693317E+04   -0.71549E+00   -0.77739E+00 10640   0.338E+01-0.376E+00
CGA:  32    -0.128257011133E+04   -0.39318E+00   -0.39649E+00 10640   0.104E+01-0.318E+00
CGA:  33    -0.128286674183E+04   -0.29663E+00   -0.42904E+00 10640   0.177E+01-0.332E+00
CGA:  34    -0.128305779483E+04   -0.19105E+00   -0.19876E+00 10640   0.546E+00-0.238E+00
CGA:  35    -0.128315838577E+04   -0.10059E+00   -0.10257E+00 10640   0.460E+00-0.223E-01
CGA:  36    -0.128325861613E+04   -0.10023E+00   -0.96391E-01 10640   0.240E+00 0.481E-01
CGA:  37    -0.128329978837E+04   -0.41172E-01   -0.40552E-01 10640   0.105E+00 0.516E-01
CGA:  38    -0.128332305167E+04   -0.23263E-01   -0.21743E-01 10640   0.735E-01 0.532E-01
CGA:  39    -0.128333690632E+04   -0.13855E-01   -0.13030E-01 10640   0.346E-01 0.243E-01
CGA:  40    -0.128334406348E+04   -0.71572E-02   -0.69547E-02 10640   0.234E-01 0.318E-01
CGA:  41    -0.128334661984E+04   -0.25564E-02   -0.29059E-02 10640   0.154E-01 0.168E-01
CGA:  42    -0.128334796717E+04   -0.13473E-02   -0.17688E-02 10640   0.133E-01 0.142E-01
CGA:  43    -0.128334891921E+04   -0.95204E-03   -0.14123E-02 10640   0.118E-01 0.125E-01
CGA:  44    -0.128334961218E+04   -0.69297E-03   -0.11629E-02 10640   0.106E-01 0.111E-01
CGA:  45    -0.128335012131E+04   -0.50913E-03   -0.97471E-03 10640   0.956E-02 0.100E-01
CGA:  46    -0.128335049811E+04   -0.37680E-03   -0.82946E-03 10640   0.873E-02 0.910E-02
CGA:  47    -0.128335077813E+04   -0.28002E-03   -0.71498E-03 10640   0.803E-02 0.835E-02
CGA:  48    -0.128335098655E+04   -0.20841E-03   -0.62320E-03 10640   0.744E-02 0.771E-02
CGA:  49    -0.128335114143E+04   -0.15488E-03   -0.54849E-03 10640   0.693E-02 0.716E-02
CGA:  50    -0.128335125594E+04   -0.11451E-03   -0.48686E-03 10640   0.648E-02 0.669E-02
CGA:  51    -0.128335133977E+04   -0.83829E-04   -0.43539E-03 10640   0.610E-02 0.628E-02
CGA:  52    -0.128335140013E+04   -0.60364E-04   -0.39194E-03 10640   0.575E-02 0.592E-02
CGA:  53    -0.128335144245E+04   -0.42316E-04   -0.35489E-03 10640   0.545E-02 0.559E-02
CGA:  54    -0.128335147082E+04   -0.28378E-04   -0.32302E-03 10640   0.518E-02 0.531E-02
CGA:  55    -0.128335148840E+04   -0.17575E-04   -0.29537E-03 10640   0.494E-02 0.505E-02
CGA:  56    -0.128335149758E+04   -0.91842E-05   -0.27121E-03 10640   0.472E-02 0.482E-02
CGA:  57    -0.128335150024E+04   -0.26574E-05   -0.24995E-03 10640   0.452E-02 0.462E-02
CGA:  58    -0.128335149783E+04    0.24127E-05   -0.23113E-03 10640   0.434E-02 0.443E-02
CGA:  59    -0.128335149148E+04    0.63459E-05   -0.21437E-03 10640   0.418E-02 0.426E-02
CGA:  60    -0.128335148209E+04    0.93879E-05   -0.19938E-03 10640   0.403E-02 0.410E-02
CGA:  61    -0.128335147038E+04    0.11713E-04   -0.18590E-03 10640   0.389E-02 0.396E-02
CGA:  62    -0.128335145691E+04    0.13470E-04   -0.17373E-03 10640   0.377E-02 0.383E-02
CGA:  63    -0.128335144213E+04    0.14776E-04   -0.16270E-03 10640   0.365E-02 0.370E-02
CGA:  64    -0.128335142641E+04    0.15725E-04   -0.15267E-03 10640   0.354E-02 0.359E-02
CGA:  65    -0.128335141002E+04    0.16386E-04   -0.14351E-03 10640   0.344E-02 0.349E-02
CGA:  66    -0.128335139321E+04    0.16816E-04   -0.13513E-03 10640   0.335E-02 0.339E-02
CGA:  67    -0.128335137615E+04    0.17062E-04   -0.12743E-03 10640   0.326E-02 0.330E-02
CGA:  68    -0.128335135899E+04    0.17159E-04   -0.12035E-03 10640   0.318E-02 0.322E-02
CGA:  69    -0.128335134185E+04    0.17138E-04   -0.11381E-03 10640   0.310E-02 0.314E-02
CGA:  70    -0.128335132482E+04    0.17023E-04   -0.10776E-03 10640   0.303E-02 0.307E-02
CGA:  71    -0.128335130799E+04    0.16830E-04   -0.10216E-03 10640   0.296E-02 0.300E-02
CGA:  72    -0.128335129142E+04    0.16577E-04   -0.96952E-04 10640   0.290E-02 0.293E-02
CGA:  73    -0.128335127514E+04    0.16279E-04   -0.92109E-04 10640   0.284E-02 0.287E-02
CGA:  74    -0.128335125919E+04    0.15944E-04   -0.87594E-04 10640   0.279E-02 0.281E-02
CGA:  75    -0.128335124361E+04    0.15582E-04   -0.83379E-04 10640   0.274E-02 0.276E-02
CGA:  76    -0.128335122841E+04    0.15199E-04   -0.79437E-04 10640   0.269E-02 0.271E-02
CGA:  77    -0.128335121361E+04    0.14804E-04   -0.75744E-04 10640   0.264E-02 0.266E-02
CGA:  78    -0.128335119921E+04    0.14399E-04   -0.72281E-04 10640   0.260E-02 0.262E-02
CGA:  79    -0.128335118522E+04    0.13987E-04   -0.69028E-04 10640   0.255E-02 0.257E-02
CGA:  80    -0.128335117165E+04    0.13575E-04   -0.65968E-04 10640   0.251E-02 0.253E-02
CGA:  81    -0.128335115849E+04    0.13163E-04   -0.63088E-04 10640   0.248E-02 0.249E-02
CGA:  82    -0.128335114573E+04    0.12754E-04   -0.60372E-04 10640   0.244E-02 0.246E-02
CGA:  83    -0.128335113338E+04    0.12349E-04   -0.57809E-04 10640   0.241E-02 0.242E-02
CGA:  84    -0.128335112143E+04    0.11952E-04   -0.55387E-04 10640   0.237E-02 0.239E-02
CGA:  85    -0.128335110987E+04    0.11559E-04   -0.53097E-04 10640   0.234E-02 0.236E-02
CGA:  86    -0.128335109870E+04    0.11175E-04   -0.50929E-04 10640   0.231E-02 0.233E-02
CGA:  87    -0.128335108790E+04    0.10799E-04   -0.48875E-04 10640   0.228E-02 0.230E-02
CGA:  88    -0.128335107746E+04    0.10433E-04   -0.46927E-04 10640   0.226E-02 0.227E-02
CGA:  89    -0.128335106739E+04    0.10076E-04   -0.45078E-04 10640   0.223E-02 0.224E-02
CGA:  90    -0.128335105766E+04    0.97293E-05   -0.43321E-04 10640   0.221E-02 0.222E-02
CGA:  91    -0.128335104827E+04    0.93924E-05   -0.41650E-04 10640   0.218E-02 0.220E-02
CGA:  92    -0.128335103920E+04    0.90668E-05   -0.40061E-04 10640   0.216E-02 0.217E-02
CGA:  93    -0.128335103045E+04    0.87492E-05   -0.38547E-04 10640   0.214E-02 0.215E-02
CGA:  94    -0.128335102201E+04    0.84437E-05   -0.37105E-04 10640   0.212E-02 0.213E-02
CGA:  95    -0.128335101386E+04    0.81452E-05   -0.35730E-04 10640   0.210E-02 0.211E-02
CGA:  96    -0.128335100600E+04    0.78585E-05   -0.34418E-04 10640   0.208E-02 0.209E-02
CGA:  97    -0.128335099842E+04    0.75805E-05   -0.33165E-04 10640   0.206E-02 0.207E-02
CGA:  98    -0.128335099111E+04    0.73117E-05   -0.31969E-04 10640   0.205E-02 0.205E-02
CGA:  99    -0.128335098406E+04    0.70520E-05   -0.30825E-04 10640   0.203E-02 0.204E-02
CGA: 100    -0.128335097726E+04    0.68020E-05   -0.29731E-04 10640   0.201E-02 0.202E-02
CGA: 101    -0.128335097070E+04    0.65609E-05   -0.28684E-04 10640   0.200E-02 0.201E-02
CGA: 102    -0.128335096437E+04    0.63272E-05   -0.27682E-04 10640   0.198E-02 0.199E-02
CGA: 103    -0.128335095827E+04    0.61038E-05   -0.26722E-04 10640   0.197E-02 0.198E-02
CGA: 104    -0.128335095238E+04    0.58875E-05   -0.25802E-04 10640   0.195E-02 0.196E-02
CGA: 105    -0.128335094670E+04    0.56786E-05   -0.24919E-04 10640   0.194E-02 0.195E-02
CGA: 106    -0.128335094122E+04    0.54776E-05   -0.24073E-04 10640   0.193E-02 0.194E-02
CGA: 107    -0.128335093594E+04    0.52845E-05   -0.23260E-04 10640   0.192E-02 0.192E-02
CGA: 108    -0.128335093084E+04    0.50987E-05   -0.22480E-04 10640   0.191E-02 0.191E-02
CGA: 109    -0.128335092592E+04    0.49197E-05   -0.21731E-04 10640   0.189E-02 0.190E-02
CGA: 110    -0.128335092117E+04    0.47460E-05   -0.21011E-04 10640   0.188E-02 0.189E-02
CGA: 111    -0.128335091659E+04    0.45798E-05   -0.20319E-04 10640   0.187E-02 0.188E-02
CGA: 112    -0.128335091217E+04    0.44206E-05   -0.19653E-04 10640   0.186E-02 0.187E-02
CGA: 113    -0.128335090791E+04    0.42653E-05   -0.19013E-04 10640   0.185E-02 0.186E-02
CGA: 114    -0.128335090379E+04    0.41175E-05   -0.18397E-04 10640   0.184E-02 0.185E-02
CGA: 115    -0.128335089981E+04    0.39753E-05   -0.17804E-04 10640   0.183E-02 0.184E-02
CGA: 116    -0.128335089598E+04    0.38365E-05   -0.17233E-04 10640   0.182E-02 0.183E-02
CGA: 117    -0.128335089227E+04    0.37052E-05   -0.16683E-04 10640   0.182E-02 0.182E-02
CGA: 118    -0.128335088869E+04    0.35775E-05   -0.16152E-04 10640   0.181E-02 0.181E-02
CGA: 119    -0.128335088524E+04    0.34540E-05   -0.15642E-04 10640   0.180E-02 0.180E-02
CGA: 120    -0.128335088190E+04    0.33360E-05   -0.15149E-04 10640   0.179E-02 0.180E-02
CGA: 121    -0.128335087868E+04    0.32225E-05   -0.14674E-04 10640   0.178E-02 0.179E-02
CGA: 122    -0.128335087557E+04    0.31129E-05   -0.14216E-04 10640   0.178E-02 0.178E-02
CGA: 123    -0.128335087256E+04    0.30074E-05   -0.13773E-04 10640   0.177E-02 0.177E-02
CGA: 124    -0.128335086966E+04    0.29060E-05   -0.13347E-04 10640   0.176E-02 0.177E-02
CGA: 125    -0.128335086685E+04    0.28078E-05   -0.12935E-04 10640   0.176E-02 0.176E-02
CGA: 126    -0.128335086413E+04    0.27143E-05   -0.12537E-04 10640   0.175E-02 0.175E-02
CGA: 127    -0.128335086151E+04    0.26225E-05   -0.12153E-04 10640   0.174E-02 0.175E-02
CGA: 128    -0.128335085898E+04    0.25357E-05   -0.11782E-04 10640   0.174E-02 0.174E-02
CGA: 129    -0.128335085652E+04    0.24511E-05   -0.11423E-04 10640   0.173E-02 0.174E-02
CGA: 130    -0.128335085416E+04    0.23693E-05   -0.11077E-04 10640   0.173E-02 0.173E-02
CGA: 131    -0.128335085186E+04    0.22920E-05   -0.10742E-04 10640   0.172E-02 0.173E-02
CGA: 132    -0.128335084965E+04    0.22157E-05   -0.10418E-04 10640   0.172E-02 0.172E-02
CGA: 133    -0.128335084750E+04    0.21435E-05   -0.10105E-04 10640   0.171E-02 0.171E-02
   1 F= -.12833508E+04 E0= -.12833508E+04  d E =-.128335E+04  mag=    47.0000
       N       E                     dE             d eps       ncg     rms          ort
SDA:   1    -0.128335208649E+04   -0.12368E-02    0.00000E+00 10640   0.922E-02 0.000E+00
CGA:   2    -0.128335290973E+04   -0.82324E-03   -0.52205E-03 10640   0.523E-02 0.680E-02
CGA:   3    -0.128335325824E+04   -0.34851E-03   -0.22116E-03 10640   0.403E-02 0.459E-02
CGA:   4    -0.128335348760E+04   -0.22936E-03   -0.15039E-03 10640   0.338E-02 0.369E-02
CGA:   5    -0.128335365901E+04   -0.17141E-03   -0.11635E-03 10640   0.295E-02 0.316E-02
CGA:   6    -0.128335379538E+04   -0.13637E-03   -0.95724E-04 10640   0.264E-02 0.279E-02
CGA:   7    -0.128335390793E+04   -0.11255E-03   -0.81600E-04 10640   0.240E-02 0.252E-02
CGA:   8    -0.128335400309E+04   -0.95157E-04   -0.71171E-04 10640   0.221E-02 0.230E-02
CGA:   9    -0.128335408493E+04   -0.81842E-04   -0.63083E-04 10640   0.205E-02 0.212E-02
CGA:  10    -0.128335415623E+04   -0.71304E-04   -0.56590E-04 10640   0.192E-02 0.198E-02
CGA:  11    -0.128335421900E+04   -0.62766E-04   -0.51247E-04 10640   0.180E-02 0.185E-02
CGA:  12    -0.128335427472E+04   -0.55725E-04   -0.46769E-04 10640   0.170E-02 0.175E-02
CGA:  13    -0.128335432456E+04   -0.49838E-04   -0.42962E-04 10640   0.161E-02 0.165E-02
CGA:  14    -0.128335436942E+04   -0.44862E-04   -0.39687E-04 10640   0.154E-02 0.157E-02
CGA:  15    -0.128335441004E+04   -0.40620E-04   -0.36844E-04 10640   0.147E-02 0.150E-02
CGA:  16    -0.128335444702E+04   -0.36975E-04   -0.34357E-04 10640   0.140E-02 0.143E-02
CGA:  17    -0.128335448084E+04   -0.33827E-04   -0.32168E-04 10640   0.135E-02 0.137E-02
CGA:  18    -0.128335451194E+04   -0.31091E-04   -0.30230E-04 10640   0.130E-02 0.132E-02
CGA:  19    -0.128335454064E+04   -0.28704E-04   -0.28504E-04 10640   0.125E-02 0.127E-02
CGA:  20    -0.128335456725E+04   -0.26609E-04   -0.26961E-04 10640   0.121E-02 0.123E-02
CGA:  21    -0.128335459202E+04   -0.24769E-04   -0.25577E-04 10640   0.117E-02 0.119E-02
CGA:  22    -0.128335461516E+04   -0.23144E-04   -0.24329E-04 10640   0.114E-02 0.116E-02
CGA:  23    -0.128335463687E+04   -0.21703E-04   -0.23201E-04 10640   0.111E-02 0.112E-02
CGA:  24    -0.128335465729E+04   -0.20425E-04   -0.22178E-04 10640   0.108E-02 0.109E-02
CGA:  25    -0.128335467658E+04   -0.19287E-04   -0.21248E-04 10640   0.105E-02 0.106E-02
CGA:  26    -0.128335469485E+04   -0.18269E-04   -0.20399E-04 10640   0.103E-02 0.104E-02
CGA:  27    -0.128335471221E+04   -0.17360E-04   -0.19623E-04 10640   0.100E-02 0.101E-02
CGA:  28    -0.128335472875E+04   -0.16546E-04   -0.18912E-04 10640   0.981E-03 0.992E-03
CGA:  29    -0.128335474456E+04   -0.15812E-04   -0.18258E-04 10640   0.961E-03 0.971E-03
CGA:  30    -0.128335475972E+04   -0.15153E-04   -0.17656E-04 10640   0.942E-03 0.951E-03
CGA:  31    -0.128335477428E+04   -0.14558E-04   -0.17101E-04 10640   0.925E-03 0.933E-03
CGA:  32    -0.128335478830E+04   -0.14020E-04   -0.16587E-04 10640   0.909E-03 0.917E-03
CGA:  33    -0.128335480183E+04   -0.13535E-04   -0.16112E-04 10640   0.893E-03 0.901E-03
CGA:  34    -0.128335481492E+04   -0.13093E-04   -0.15671E-04 10640   0.879E-03 0.886E-03
CGA:  35    -0.128335482762E+04   -0.12694E-04   -0.15261E-04 10640   0.865E-03 0.872E-03
CGA:  36    -0.128335483995E+04   -0.12332E-04   -0.14879E-04 10640   0.853E-03 0.859E-03
CGA:  37    -0.128335485195E+04   -0.12001E-04   -0.14523E-04 10640   0.841E-03 0.847E-03
CGA:  38    -0.128335486365E+04   -0.11701E-04   -0.14191E-04 10640   0.829E-03 0.835E-03
CGA:  39    -0.128335487508E+04   -0.11427E-04   -0.13880E-04 10640   0.819E-03 0.824E-03
CGA:  40    -0.128335488626E+04   -0.11178E-04   -0.13589E-04 10640   0.808E-03 0.814E-03
CGA:  41    -0.128335489721E+04   -0.10950E-04   -0.13316E-04 10640   0.799E-03 0.804E-03
CGA:  42    -0.128335490795E+04   -0.10742E-04   -0.13061E-04 10640   0.790E-03 0.794E-03
CGA:  43    -0.128335491850E+04   -0.10552E-04   -0.12820E-04 10640   0.781E-03 0.785E-03
CGA:  44    -0.128335492888E+04   -0.10379E-04   -0.12595E-04 10640   0.773E-03 0.777E-03
CGA:  45    -0.128335493910E+04   -0.10220E-04   -0.12382E-04 10640   0.765E-03 0.769E-03
CGA:  46    -0.128335494918E+04   -0.10075E-04   -0.12182E-04 10640   0.757E-03 0.761E-03
CGA:  47    -0.128335495912E+04   -0.99439E-05   -0.11994E-04 10640   0.750E-03 0.754E-03
CGA:  48    -0.128335496894E+04   -0.98224E-05   -0.11816E-04 10640   0.743E-03 0.747E-03
CGA:  49    -0.128335497865E+04   -0.97130E-05   -0.11649E-04 10640   0.737E-03 0.740E-03
CGA:  50    -0.128335498827E+04   -0.96133E-05   -0.11490E-04 10640   0.730E-03 0.734E-03
CGA:  51    -0.128335499779E+04   -0.95217E-05   -0.11341E-04 10640   0.724E-03 0.727E-03
CGA:  52    -0.128335500723E+04   -0.94386E-05   -0.11199E-04 10640   0.718E-03 0.721E-03
CGA:  53    -0.128335501659E+04   -0.93645E-05   -0.11066E-04 10640   0.713E-03 0.716E-03
CGA:  54    -0.128335502589E+04   -0.92946E-05   -0.10939E-04 10640   0.707E-03 0.710E-03
CGA:  55    -0.128335503512E+04   -0.92349E-05   -0.10821E-04 10640   0.702E-03 0.705E-03
CGA:  56    -0.128335504430E+04   -0.91799E-05   -0.10708E-04 10640   0.697E-03 0.700E-03
CGA:  57    -0.128335505343E+04   -0.91307E-05   -0.10601E-04 10640   0.692E-03 0.695E-03
CGA:  58    -0.128335506252E+04   -0.90869E-05   -0.10501E-04 10640   0.687E-03 0.690E-03
CGA:  59    -0.128335507157E+04   -0.90489E-05   -0.10406E-04 10640   0.683E-03 0.685E-03
CGA:  60    -0.128335508058E+04   -0.90163E-05   -0.10317E-04 10640   0.678E-03 0.681E-03
CGA:  61    -0.128335508957E+04   -0.89862E-05   -0.10231E-04 10640   0.674E-03 0.676E-03
CGA:  62    -0.128335509853E+04   -0.89627E-05   -0.10152E-04 10640   0.670E-03 0.672E-03
CGA:  63    -0.128335510748E+04   -0.89414E-05   -0.10077E-04 10640   0.666E-03 0.668E-03
CGA:  64    -0.128335511640E+04   -0.89263E-05   -0.10007E-04 10640   0.662E-03 0.664E-03
   2 F= -.12833551E+04 E0= -.12833551E+04  d E =-.426890E-02  mag=    47.0000
       N       E                     dE             d eps       ncg     rms          ort
SDA:   1    -0.128332880030E+04    0.26307E-01    0.00000E+00 10640   0.147E+00 0.000E+00
CGA:   2    -0.128335160488E+04   -0.22805E-01   -0.94555E-02 10640   0.472E-01 0.661E-01
CGA:   3    -0.128336673473E+04   -0.15130E-01   -0.17258E-02 10640   0.277E-01 0.947E-02
CGA:   4    -0.128337288390E+04   -0.61492E-02   -0.59390E-02 10640   0.656E-02 0.168E-02
CGA:   5    -0.128337393486E+04   -0.10510E-02   -0.97691E-03 10640   0.192E-02 0.934E-03
CGA:   6    -0.128337436357E+04   -0.42871E-03   -0.36340E-03 10640   0.107E-02 0.648E-03
CGA:   7    -0.128337467138E+04   -0.30781E-03   -0.25148E-03 10640   0.727E-03 0.528E-03
CGA:   8    -0.128337491283E+04   -0.24146E-03   -0.18713E-03 10640   0.610E-03 0.559E-03
CGA:   9    -0.128337511857E+04   -0.20574E-03   -0.15197E-03 10640   0.347E-03 0.317E-03
CGA:  10    -0.128337542354E+04   -0.30497E-03   -0.17928E-03 10640   0.569E-03 0.186E-03
CGA:  11    -0.128337549180E+04   -0.68261E-04   -0.75001E-04 10640   0.280E-03 0.227E-03
CGA:  12    -0.128337569681E+04   -0.20501E-03   -0.15684E-03 10640   0.640E-03 0.198E-03
CGA:  13    -0.128337585328E+04   -0.15647E-03   -0.20529E-03 10640   0.109E-02-0.328E-03
CGA:  14    -0.128337594820E+04   -0.94923E-04   -0.11450E-03 10640   0.237E-03 0.264E-03
CGA:  15    -0.128337603928E+04   -0.91076E-04   -0.80157E-04 10640   0.431E-03 0.112E-03
CGA:  16    -0.128337650260E+04   -0.46333E-03   -0.36784E-05 10640   0.503E-02-0.310E-03
CGA:  17    -0.128337713620E+04   -0.63359E-03   -0.70848E-03 10640   0.704E-03 0.415E-03
CGA:  18    -0.128337733236E+04   -0.19616E-03   -0.17695E-03 10640   0.231E-03-0.219E-03
CGA:  19    -0.128337736033E+04   -0.27974E-04   -0.35564E-04 10640   0.141E-03 0.815E-04
CGA:  20    -0.128337746592E+04   -0.10558E-03   -0.99924E-04 10640   0.229E-03 0.246E-04
CGA:  21    -0.128337764307E+04   -0.17716E-03    0.19147E-02 10640   0.313E-03 0.133E-03
CGA:  22    -0.128337766418E+04   -0.21110E-04   -0.42662E-04 10640   0.960E-04 0.117E-03
CGA:  23    -0.128337769536E+04   -0.31178E-04   -0.32746E-04 10640   0.623E-04 0.240E-04
CGA:  24    -0.128337752056E+04    0.17479E-03   -0.10199E-03 10640   0.331E-02-0.212E-03
CGA:  25    -0.128337777669E+04   -0.25613E-03   -0.39155E-03 10640   0.415E-03 0.343E-03
CGA:  26    -0.128337789020E+04   -0.11350E-03   -0.12212E-03 10640   0.720E-04 0.311E-04
CGA:  27    -0.128337793193E+04   -0.41734E-04   -0.40105E-04 10640   0.703E-03-0.171E-03
CGA:  28    -0.128337793401E+04   -0.20836E-05   -0.63177E-04 10640   0.548E-04 0.145E-03
   3 F= -.12833779E+04 E0= -.12833779E+04  d E =-.228176E-01  mag=    47.0000
       N       E                     dE             d eps       ncg     rms          ort
SDA:   1    -0.125662905107E+04    0.26749E+02    0.00000E+00 10640   0.894E+02 0.000E+00
CGA:   2    -0.127301888959E+04   -0.16390E+02   -0.14961E+02 10640   0.272E+02 0.920E+01
CGA:   3    -0.128101727561E+04   -0.79984E+01   -0.80753E+01 10640   0.110E+02-0.327E-01
CGA:   4    -0.128259158049E+04   -0.15743E+01   -0.14138E+01 10640   0.156E+01 0.122E+01
CGA:   5    -0.128293676183E+04   -0.34518E+00   -0.34563E+00 10640   0.440E+00 0.148E-02
CGA:   6    -0.128302752692E+04   -0.90765E-01   -0.90608E-01 10640   0.157E+00-0.518E-03
CGA:   7    -0.128305776914E+04   -0.30242E-01   -0.30308E-01 10640   0.494E-01 0.147E-02
CGA:   8    -0.128306859326E+04   -0.10824E-01   -0.10443E-01 10640   0.203E-01-0.195E-02
CGA:   9    -0.128307355604E+04   -0.49628E-02   -0.50688E-02 10640   0.928E-02 0.823E-03
CGA:  10    -0.128307672693E+04   -0.31709E-02   -0.31413E-02 10640   0.616E-02-0.444E-03
CGA:  11    -0.128307800733E+04   -0.12804E-02   -0.13659E-02 10640   0.378E-02 0.574E-03
CGA:  12    -0.128307941826E+04   -0.14109E-02   -0.13850E-02 10640   0.404E-02-0.589E-03
CGA:  13    -0.128308020055E+04   -0.78228E-03   -0.80914E-03 10640   0.304E-02 0.206E-03
CGA:  14    -0.128308125800E+04   -0.10575E-02   -0.10671E-02 10640   0.235E-02 0.254E-03
CGA:  15    -0.128308225908E+04   -0.10011E-02   -0.10068E-02 10640   0.341E-02-0.237E-03
CGA:  16    -0.128308260032E+04   -0.34124E-03   -0.45959E-03 10640   0.157E-02 0.538E-03
CGA:  17    -0.128308294122E+04   -0.34089E-03   -0.38691E-03 10640   0.150E-02 0.306E-03
CGA:  18    -0.128308345427E+04   -0.51306E-03   -0.45986E-03 10640   0.130E-02-0.574E-03
CGA:  19    -0.128308354605E+04   -0.91780E-04   -0.10693E-03 10640   0.847E-03 0.618E-04
CGA:  20    -0.128308361237E+04   -0.66319E-04   -0.11578E-03 10640   0.694E-03 0.234E-03
CGA:  21    -0.128308380888E+04   -0.19651E-03   -0.19751E-03 10640   0.458E-03-0.304E-07
CGA:  22    -0.128308152403E+04    0.22848E-02   -0.57577E-03 10640   0.255E-01-0.309E-02
CGA:  23    -0.128308347701E+04   -0.19530E-02   -0.23870E-02 10640   0.237E-02 0.240E-02
CGA:  24    -0.128308408013E+04   -0.60312E-03   -0.64220E-03 10640   0.136E-02 0.372E-03
CGA:  25    -0.128308454150E+04   -0.46137E-03   -0.36155E-03 10640   0.102E-02-0.838E-03
CGA:  26    -0.128308453843E+04    0.30774E-05   -0.77995E-04 10640   0.171E-03 0.312E-03
CGA:  27    -0.128308452788E+04    0.10542E-04   -0.17602E-04 10640   0.111E-03 0.113E-03
CGA:  28    -0.128308461769E+04   -0.89807E-04    0.63338E-04 10640   0.116E-03 0.176E-04
CGA:  29    -0.128308461486E+04    0.28253E-05   -0.13637E-04 10640   0.417E-04 0.766E-04
   4 F= -.12830846E+04 E0= -.12830846E+04  d E =0.293319E+00  mag=    47.0000
       N       E                     dE             d eps       ncg     rms          ort
SDA:   1    -0.127257389995E+04    0.10511E+02    0.00000E+00 10640   0.363E+02 0.000E+00
CGA:   2    -0.127939857674E+04   -0.68247E+01   -0.68277E+01 10640   0.130E+02 0.284E-01
CGA:   3    -0.128263486289E+04   -0.32363E+01   -0.32377E+01 10640   0.423E+01 0.101E-01
CGA:   4    -0.128324862469E+04   -0.61376E+00   -0.61229E+00 10640   0.680E+00 0.149E-01
CGA:   5    -0.128337144431E+04   -0.12282E+00   -0.12276E+00 10640   0.195E+00 0.680E-03
CGA:   6    -0.128340955697E+04   -0.38113E-01   -0.38010E-01 10640   0.583E-01-0.169E-02
CGA:   7    -0.128342188258E+04   -0.12326E-01   -0.12335E-01 10640   0.163E-01 0.308E-03
CGA:   8    -0.128342588669E+04   -0.40041E-02   -0.39596E-02 10640   0.955E-02-0.169E-02
CGA:   9    -0.128342795261E+04   -0.20659E-02   -0.20462E-02 10640   0.517E-02-0.694E-03
CGA:  10    -0.128342958252E+04   -0.16299E-02   -0.18437E-02 10640   0.577E-02-0.178E-02
CGA:  11    -0.128343057505E+04   -0.99254E-03   -0.96878E-03 10640   0.408E-02-0.162E-02
CGA:  12    -0.128343155703E+04   -0.98197E-03   -0.11555E-02 10640   0.369E-02-0.142E-02
CGA:  13    -0.128343237311E+04   -0.81608E-03   -0.10673E-02 10640   0.529E-02-0.151E-02
CGA:  14    -0.128343296149E+04   -0.58838E-03   -0.57022E-03 10640   0.254E-02-0.195E-03
CGA:  15    -0.128343356234E+04   -0.60086E-03   -0.61384E-03 10640   0.188E-02 0.439E-03
CGA:  16    -0.128343389680E+04   -0.33445E-03   -0.36727E-03 10640   0.755E-03 0.290E-03
CGA:  17    -0.128343398638E+04   -0.89584E-04   -0.13897E-03 10640   0.420E-03 0.432E-03
CGA:  18    -0.128343399924E+04   -0.12860E-04   -0.51209E-04 10640   0.232E-03 0.264E-03
CGA:  19    -0.128343400393E+04   -0.46927E-05   -0.29962E-04 10640   0.171E-03 0.193E-03
CGA:  20    -0.128343399613E+04    0.78017E-05   -0.16625E-04 10640   0.146E-03 0.156E-03
CGA:  21    -0.128343398759E+04    0.85406E-05   -0.12863E-04 10640   0.129E-03 0.136E-03
CGA:  22    -0.128343397861E+04    0.89821E-05   -0.10279E-04 10640   0.117E-03 0.122E-03
   5 F= -.12834340E+04 E0= -.12834340E+04  d E =-.349364E+00  mag=    47.0000
       N       E                     dE             d eps       ncg     rms          ort
SDA:   1    -0.128332973824E+04    0.10425E+00    0.00000E+00 10640   0.301E+00 0.000E+00
CGA:   2    -0.128339887827E+04   -0.69140E-01   -0.69136E-01 10640   0.134E+00 0.540E-03
CGA:   3    -0.128343013421E+04   -0.31256E-01   -0.31264E-01 10640   0.288E-01-0.794E-03
CGA:   4    -0.128343470026E+04   -0.45661E-02   -0.45221E-02 10640   0.544E-02-0.667E-03
CGA:   5    -0.128343568804E+04   -0.98778E-03   -0.99087E-03 10640   0.147E-02 0.980E-04
CGA:   6    -0.128343598032E+04   -0.29228E-03   -0.29109E-03 10640   0.541E-03-0.484E-04
CGA:   7    -0.128343605339E+04   -0.73069E-04   -0.80724E-04 10640   0.124E-03 0.122E-03
CGA:   8    -0.128343606540E+04   -0.12008E-04   -0.19195E-04 10640   0.613E-04 0.821E-04
CGA:   9    -0.128343607834E+04   -0.12936E-04   -0.12903E-04 10640   0.415E-04 0.287E-04
CGA:  10    -0.128343608104E+04   -0.27045E-05   -0.69638E-05 10640   0.248E-04 0.448E-04
   6 F= -.12834361E+04 E0= -.12834361E+04  d E =-.210243E-02  mag=    47.0000
       N       E                     dE             d eps       ncg     rms          ort
SDA:   1    -0.127823171550E+04    0.52044E+01    0.00000E+00 10640   0.134E+02 0.000E+00
CGA:   2    -0.128182399243E+04   -0.35923E+01   -0.35921E+01 10640   0.637E+01 0.231E-02
CGA:   3    -0.128318161324E+04   -0.13576E+01   -0.13577E+01 10640   0.108E+01-0.119E-01
CGA:   4    -0.128336097525E+04   -0.17936E+00   -0.17928E+00 10640   0.223E+00-0.251E-02
CGA:   5    -0.128340465592E+04   -0.43681E-01   -0.43686E-01 10640   0.552E-01 0.126E-02
CGA:   6    -0.128341586550E+04   -0.11210E-01   -0.11211E-01 10640   0.213E-01-0.144E-02
CGA:   7    -0.128341962581E+04   -0.37603E-02   -0.37638E-02 10640   0.577E-02 0.209E-03
CGA:   8    -0.128342106568E+04   -0.14399E-02   -0.14507E-02 10640   0.294E-02-0.214E-03
CGA:   9    -0.128342179471E+04   -0.72903E-03   -0.76916E-03 10640   0.229E-02-0.577E-03
CGA:  10    -0.128342220080E+04   -0.40609E-03   -0.41045E-03 10640   0.889E-03-0.255E-03
CGA:  11    -0.128342245265E+04   -0.25185E-03   -0.32846E-03 10640   0.717E-03-0.367E-03
CGA:  12    -0.128342255509E+04   -0.10244E-03   -0.16086E-03 10640   0.108E-02-0.355E-03
CGA:  13    -0.128342266843E+04   -0.11333E-03   -0.11095E-03 10640   0.565E-03-0.105E-03
CGA:  14    -0.128342277662E+04   -0.10820E-03   -0.10911E-03 10640   0.488E-03 0.878E-04
CGA:  15    -0.128342290780E+04   -0.13118E-03   -0.13091E-03 10640   0.268E-03 0.317E-04
CGA:  16    -0.128342299093E+04   -0.83125E-04   -0.90089E-04 10640   0.353E-03-0.764E-04
CGA:  17    -0.128342301745E+04   -0.26524E-04   -0.32743E-04 10640   0.183E-03 0.623E-04
CGA:  18    -0.128342302577E+04   -0.83251E-05   -0.18867E-04 10640   0.919E-04 0.773E-04
CGA:  19    -0.128342303368E+04   -0.79030E-05   -0.14569E-04 10640   0.778E-04 0.629E-04
CGA:  20    -0.128342265306E+04    0.38062E-03   -0.20520E-03 10640   0.505E-02-0.429E-03
CGA:  21    -0.128342308563E+04   -0.43257E-03   -0.48086E-03 10640   0.158E-03 0.211E-03
CGA:  22    -0.128342309240E+04   -0.67739E-05   -0.19317E-04 10640   0.462E-04 0.497E-04
CGA:  23    -0.128342310931E+04   -0.16903E-04   -0.16920E-04 10640   0.467E-04 0.235E-06
CGA:  24    -0.128342284185E+04    0.26746E-03   -0.59801E-04 10640   0.233E-02-0.356E-03
CGA:  25    -0.128342306096E+04   -0.21911E-03   -0.26256E-03 10640   0.400E-03 0.166E-03
CGA:  26    -0.128342316136E+04   -0.10040E-03   -0.10801E-03 10640   0.157E-03 0.569E-04
CGA:  27    -0.128342322693E+04   -0.65573E-04   -0.57147E-04 10640   0.187E-03-0.139E-03
CGA:  28    -0.128342322882E+04   -0.18943E-05   -0.16989E-04 10640   0.246E-04 0.534E-04
   7 F= -.12834232E+04 E0= -.12834232E+04  d E =0.128522E-01  mag=    47.0000
       N       E                     dE             d eps       ncg     rms          ort
SDA:   1    -0.125747806877E+04    0.25945E+02    0.00000E+00 10640   0.711E+02 0.000E+00
CGA:   2    -0.127460565391E+04   -0.17128E+02   -0.17148E+02 10640   0.323E+02 0.391E-01
CGA:   3    -0.128200526942E+04   -0.73996E+01   -0.73972E+01 10640   0.598E+01 0.135E-02
CGA:   4    -0.128298278687E+04   -0.97752E+00   -0.98015E+00 10640   0.112E+01-0.136E-01
CGA:   5    -0.128321176496E+04   -0.22898E+00   -0.22930E+00 10640   0.270E+00 0.614E-02
CGA:   6    -0.128327224249E+04   -0.60478E-01   -0.60103E-01 10640   0.939E-01-0.450E-02
CGA:   7    -0.128329006247E+04   -0.17820E-01   -0.17784E-01 10640   0.271E-01 0.145E-03
CGA:   8    -0.128329745911E+04   -0.73966E-02   -0.72853E-02 10640   0.149E-01-0.259E-02
CGA:   9    -0.128330074615E+04   -0.32870E-02   -0.31989E-02 10640   0.872E-02-0.119E-02
CGA:  10    -0.128330277525E+04   -0.20291E-02   -0.19477E-02 10640   0.454E-02-0.127E-02
CGA:  11    -0.128330396369E+04   -0.11884E-02   -0.12023E-02 10640   0.429E-02-0.189E-02
CGA:  12    -0.128330451386E+04   -0.55017E-03   -0.49247E-03 10640   0.189E-02-0.529E-03
CGA:  13    -0.128330517088E+04   -0.65702E-03   -0.71191E-03 10640   0.241E-02-0.419E-03
CGA:  14    -0.128330566696E+04   -0.49608E-03   -0.44426E-03 10640   0.262E-02-0.771E-03
CGA:  15    -0.128330623026E+04   -0.56330E-03   -0.56757E-03 10640   0.215E-02-0.252E-03
CGA:  16    -0.128330648294E+04   -0.25268E-03   -0.30345E-03 10640   0.107E-02 0.348E-03
CGA:  17    -0.128330677342E+04   -0.29048E-03   -0.29642E-03 10640   0.832E-03 0.102E-03
CGA:  18    -0.128330694509E+04   -0.17167E-03   -0.17249E-03 10640   0.427E-03 0.665E-05
CGA:  19    -0.128330696912E+04   -0.24031E-04   -0.59097E-04 10640   0.286E-03 0.234E-03
CGA:  20    -0.128330700537E+04   -0.36251E-04   -0.48654E-04 10640   0.144E-03 0.114E-03
CGA:  21    -0.128330705415E+04   -0.48775E-04   -0.50300E-04 10640   0.749E-04 0.663E-04
CGA:  22    -0.128330707973E+04   -0.25579E-04   -0.27096E-04 10640   0.720E-04 0.606E-04
CGA:  23    -0.128330708344E+04   -0.37101E-05   -0.10146E-04 10640   0.471E-04 0.493E-04
CGA:  24    -0.128330710964E+04   -0.26205E-04    0.12274E-03 10640   0.388E-04 0.377E-04
CGA:  25    -0.128330711135E+04   -0.17059E-05   -0.57443E-05 10640   0.351E-04 0.345E-04
CGA:  26    -0.128330713207E+04   -0.20723E-04    0.32628E-04 10640   0.332E-04 0.326E-04
CGA:  27    -0.128330713800E+04   -0.59275E-05   -0.72057E-05 10640   0.319E-04 0.303E-04
   8 F= -.12833071E+04 E0= -.12833071E+04  d E =0.116091E+00  mag=    47.0000
       N       E                     dE             d eps       ncg     rms          ort
SDA:   1    -0.123478877950E+04    0.48518E+02    0.00000E+00 10640   0.159E+03 0.000E+00
CGA:   2    -0.126484207561E+04   -0.30053E+02   -0.29975E+02 10640   0.584E+02 0.141E+00
CGA:   3    -0.127907293008E+04   -0.14231E+02   -0.14245E+02 10640   0.188E+02 0.648E+00
CGA:   4    -0.128185548338E+04   -0.27826E+01   -0.26429E+01 10640   0.298E+01 0.645E+00
CGA:   5    -0.128241104574E+04   -0.55556E+00   -0.55833E+00 10640   0.932E+00 0.669E-02
CGA:   6    -0.128257891084E+04   -0.16787E+00   -0.16807E+00 10640   0.299E+00 0.104E-01
CGA:   7    -0.128263993002E+04   -0.61019E-01   -0.60774E-01 10640   0.105E+00-0.585E-02
CGA:   8    -0.128265879342E+04   -0.18863E-01   -0.18794E-01 10640   0.401E-01-0.818E-03
CGA:   9    -0.128266882198E+04   -0.10029E-01   -0.10037E-01 10640   0.213E-01-0.483E-03
CGA:  10    -0.128267389757E+04   -0.50756E-02   -0.50705E-02 10640   0.118E-01 0.134E-02
CGA:  11    -0.128267692393E+04   -0.30264E-02   -0.30204E-02 10640   0.651E-02 0.123E-02
CGA:  12    -0.128267859766E+04   -0.16737E-02   -0.16787E-02 10640   0.397E-02 0.143E-02
CGA:  13    -0.128268029988E+04   -0.17022E-02   -0.16872E-02 10640   0.506E-02 0.136E-03
CGA:  14    -0.128268114364E+04   -0.84376E-03   -0.95505E-03 10640   0.288E-02 0.187E-02
CGA:  15    -0.128268226832E+04   -0.11247E-02   -0.10717E-02 10640   0.265E-02 0.165E-02
CGA:  16    -0.128268282486E+04   -0.55654E-03   -0.53816E-03 10640   0.304E-02-0.477E-03
CGA:  17    -0.128268334859E+04   -0.52373E-03   -0.54191E-03 10640   0.155E-02 0.830E-03
CGA:  18    -0.128268356680E+04   -0.21822E-03   -0.26801E-03 10640   0.996E-03 0.490E-03
CGA:  19    -0.128268411533E+04   -0.54853E-03   -0.56931E-03 10640   0.315E-02-0.112E-03
CGA:  20    -0.128268460880E+04   -0.49346E-03   -0.50554E-03 10640   0.315E-02 0.178E-03
CGA:  21    -0.128268494168E+04   -0.33288E-03   -0.38173E-03 10640   0.217E-02 0.392E-03
CGA:  22    -0.128268542716E+04   -0.48549E-03   -0.49174E-03 10640   0.280E-02 0.174E-03
CGA:  23    -0.128268592967E+04   -0.50250E-03   -0.47908E-03 10640   0.200E-02-0.339E-03
CGA:  24    -0.128268623385E+04   -0.30418E-03   -0.29990E-03 10640   0.213E-02-0.895E-04
CGA:  25    -0.128268659097E+04   -0.35712E-03   -0.35511E-03 10640   0.203E-02-0.528E-04
CGA:  26    -0.128268702148E+04   -0.43050E-03   -0.42075E-03 10640   0.146E-02-0.912E-03
CGA:  27    -0.128268718569E+04   -0.16421E-03   -0.12065E-03 10640   0.102E-02-0.609E-03
CGA:  28    -0.128268724751E+04   -0.61820E-04   -0.63821E-04 10640   0.698E-03 0.142E-04
CGA:  29    -0.128268728432E+04   -0.36814E-04   -0.61061E-04 10640   0.373E-03 0.190E-03
CGA:  30    -0.128268731809E+04   -0.33767E-04   -0.48675E-04 10640   0.284E-03 0.142E-03
CGA:  31    -0.128268736538E+04   -0.47288E-04   -0.53370E-04 10640   0.269E-03 0.919E-04
CGA:  32    -0.128268738723E+04   -0.21850E-04   -0.35782E-04 10640   0.216E-03 0.142E-03
CGA:  33    -0.128268739735E+04   -0.10127E-04   -0.22288E-04 10640   0.124E-03 0.135E-03
CGA:  34    -0.128268744583E+04   -0.48477E-04   -0.38608E-04 10640   0.941E-04 0.806E-04
CGA:  35    -0.128268744188E+04    0.39488E-05   -0.62469E-05 10640   0.764E-04 0.793E-04
CGA:  36    -0.128268744839E+04   -0.65025E-05   -0.10370E-04 10640   0.719E-04 0.730E-04
CGA:  37    -0.128268746625E+04   -0.17867E-04   -0.15682E-04 10640   0.664E-04 0.678E-04
CGA:  38    -0.128268747014E+04   -0.38836E-05   -0.80797E-05 10640   0.633E-04 0.637E-04
CGA:  39    -0.128268749163E+04   -0.21493E-04   -0.16744E-04 10640   0.592E-04 0.592E-04
CGA:  40    -0.128268749296E+04   -0.13303E-05   -0.60892E-05 10640   0.559E-04 0.557E-04
CGA:  41    -0.128268751859E+04   -0.25630E-04   -0.18260E-04 10640   0.531E-04 0.517E-04
CGA:  42    -0.128268751824E+04    0.35334E-06   -0.46722E-05 10640   0.489E-04 0.487E-04
CGA:  43    -0.128268754292E+04   -0.24683E-04   -0.17140E-04 10640   0.454E-04 0.457E-04
CGA:  44    -0.128268754400E+04   -0.10797E-05   -0.48205E-05 10640   0.428E-04 0.424E-04
CGA:  45    -0.128268762718E+04   -0.83186E-04   -0.93078E-04 10640   0.106E-03 0.301E-04
CGA:  46    -0.128268761757E+04    0.96111E-05   -0.55446E-05 10640   0.357E-04 0.518E-04
   9 F= -.12826876E+04 E0= -.12826876E+04  d E =0.619520E+00  mag=    47.0000
       N       E                     dE             d eps       ncg     rms          ort
SDA:   1    -0.127532898339E+04    0.73586E+01    0.00000E+00 10640   0.263E+02 0.000E+00
CGA:   2    -0.128029110800E+04   -0.49621E+01   -0.49617E+01 10640   0.945E+01 0.260E-01
CGA:   3    -0.128261519522E+04   -0.23241E+01   -0.23247E+01 10640   0.333E+01-0.278E-02
CGA:   4    -0.128307566297E+04   -0.46047E+00   -0.46035E+00 10640   0.578E+00-0.290E-02
CGA:   5    -0.128317041509E+04   -0.94752E-01   -0.94500E-01 10640   0.162E+00 0.257E-02
CGA:   6    -0.128320299936E+04   -0.32584E-01   -0.32292E-01 10640   0.480E-01-0.353E-02
CGA:   7    -0.128321251197E+04   -0.95126E-02   -0.96022E-02 10640   0.150E-01 0.122E-02
CGA:   8    -0.128321591756E+04   -0.34056E-02   -0.33035E-02 10640   0.826E-02-0.151E-02
CGA:   9    -0.128321769046E+04   -0.17729E-02   -0.17478E-02 10640   0.461E-02-0.541E-03
CGA:  10    -0.128321907278E+04   -0.13823E-02   -0.21339E-02 10640   0.118E-01-0.344E-02
CGA:  11    -0.128322030192E+04   -0.12291E-02   -0.12725E-02 10640   0.231E-02 0.276E-03
CGA:  12    -0.128322105887E+04   -0.75694E-03   -0.78827E-03 10640   0.187E-02-0.579E-03
CGA:  13    -0.128322153672E+04   -0.47786E-03   -0.52600E-03 10640   0.254E-02-0.513E-03
CGA:  14    -0.128322211438E+04   -0.57765E-03   -0.78179E-03 10640   0.405E-02-0.150E-02
CGA:  15    -0.128322266081E+04   -0.54644E-03   -0.58206E-03 10640   0.148E-02 0.255E-03
CGA:  16    -0.128322305244E+04   -0.39162E-03   -0.38996E-03 10640   0.709E-03-0.418E-04
CGA:  17    -0.128322324053E+04   -0.18809E-03   -0.18852E-03 10640   0.531E-03 0.391E-04
CGA:  18    -0.128322338419E+04   -0.14366E-03   -0.14406E-03 10640   0.282E-03 0.139E-04
CGA:  19    -0.128322354029E+04   -0.15610E-03   -0.14079E-03 10640   0.332E-03 0.723E-04
CGA:  20    -0.128322218821E+04    0.13521E-02   -0.74943E-03 10640   0.174E-01-0.141E-02
CGA:  21    -0.128322365280E+04   -0.14646E-02   -0.17343E-02 10640   0.187E-02 0.954E-03
CGA:  22    -0.128322404350E+04   -0.39070E-03   -0.43269E-03 10640   0.735E-03 0.146E-03
CGA:  23    -0.128322430921E+04   -0.26571E-03   -0.20814E-03 10640   0.460E-03-0.244E-03
CGA:  24    -0.128322431453E+04   -0.53209E-05   -0.38794E-04 10640   0.211E-03 0.939E-04
CGA:  25    -0.128322431245E+04    0.20837E-05   -0.28604E-04 10640   0.108E-03 0.867E-04
CGA:  26    -0.128322434268E+04   -0.30227E-04   -0.30878E-04 10640   0.782E-04 0.269E-05
CGA:  27    -0.128322437813E+04   -0.35456E-04   -0.27196E-04 10640   0.186E-03-0.840E-04
CGA:  28    -0.128322437351E+04    0.46179E-05   -0.17491E-04 10640   0.420E-04 0.658E-04
  10 F= -.12832244E+04 E0= -.12832244E+04  d E =-.536756E+00  mag=    47.0000
       N       E                     dE             d eps       ncg     rms          ort
SDA:   1    -0.127996002249E+04    0.32644E+01    0.00000E+00 10640   0.113E+02 0.000E+00
CGA:   2    -0.128209441442E+04   -0.21344E+01   -0.21349E+01 10640   0.407E+01 0.129E-01
CGA:   3    -0.128309550220E+04   -0.10011E+01   -0.10014E+01 10640   0.142E+01-0.383E-02
CGA:   4    -0.128329435468E+04   -0.19885E+00   -0.19807E+00 10640   0.237E+00 0.106E-03
CGA:   5    -0.128333485008E+04   -0.40495E-01   -0.40394E-01 10640   0.661E-01 0.462E-03
CGA:   6    -0.128334809884E+04   -0.13249E-01   -0.13094E-01 10640   0.193E-01-0.103E-02
CGA:   7    -0.128335213303E+04   -0.40342E-02   -0.40332E-02 10640   0.573E-02 0.361E-04
CGA:   8    -0.128335333794E+04   -0.12049E-02   -0.11787E-02 10640   0.274E-02-0.181E-03
CGA:   9    -0.128335415178E+04   -0.81384E-03   -0.78216E-03 10640   0.250E-02-0.722E-03
CGA:  10    -0.128335472490E+04   -0.57312E-03   -0.53132E-03 10640   0.207E-02-0.868E-03
CGA:  11    -0.128335514967E+04   -0.42477E-03   -0.62362E-03 10640   0.385E-02-0.155E-02
CGA:  12    -0.128335566973E+04   -0.52006E-03   -0.49581E-03 10640   0.128E-02-0.108E-03
CGA:  13    -0.128335598698E+04   -0.31725E-03   -0.32561E-03 10640   0.476E-03 0.123E-03
CGA:  14    -0.128335612845E+04   -0.14147E-03   -0.14705E-03 10640   0.302E-03 0.124E-03
CGA:  15    -0.128335627432E+04   -0.14587E-03   -0.15986E-03 10640   0.587E-03-0.146E-03
CGA:  16    -0.128335630237E+04   -0.28048E-04   -0.37402E-04 10640   0.439E-03 0.443E-04
CGA:  17    -0.128335632690E+04   -0.24535E-04   -0.45023E-04 10640   0.211E-03 0.914E-04
CGA:  18    -0.128335636517E+04   -0.38267E-04   -0.45069E-04 10640   0.265E-03 0.508E-04
CGA:  19    -0.128335644435E+04   -0.79176E-04   -0.75339E-04 10640   0.308E-03-0.554E-04
CGA:  20    -0.128335650345E+04   -0.59106E-04   -0.55745E-04 10640   0.558E-03-0.524E-04
CGA:  21    -0.128335658752E+04   -0.84068E-04   -0.82357E-04 10640   0.498E-03-0.230E-04
CGA:  22    -0.128335665742E+04   -0.69901E-04   -0.64199E-04 10640   0.285E-03-0.429E-04
CGA:  23    -0.128335672582E+04   -0.68397E-04   -0.63572E-04 10640   0.338E-03-0.136E-03
CGA:  24    -0.128335674879E+04   -0.22976E-04   -0.17368E-04 10640   0.242E-03-0.334E-04
CGA:  25    -0.128335676654E+04   -0.17751E-04   -0.20544E-04 10640   0.161E-03 0.147E-04
CGA:  26    -0.128335678214E+04   -0.15594E-04   -0.19836E-04 10640   0.135E-03 0.283E-04
CGA:  27    -0.128335679872E+04   -0.16584E-04   -0.18538E-04 10640   0.729E-04 0.136E-04
CGA:  28    -0.128335680642E+04   -0.77001E-05   -0.87138E-05 10640   0.457E-04 0.718E-05
  11 F= -.12833568E+04 E0= -.12833568E+04  d E =-.132433E+00  mag=    47.0000
       N       E                     dE             d eps       ncg     rms          ort
SDA:   1    -0.128323153045E+04    0.12527E+00    0.00000E+00 10640   0.448E+00 0.000E+00
CGA:   2    -0.128331980801E+04   -0.88278E-01   -0.88283E-01 10640   0.166E+00 0.183E-03
CGA:   3    -0.128336174247E+04   -0.41934E-01   -0.41948E-01 10640   0.458E-01-0.687E-03
CGA:   4    -0.128336895659E+04   -0.72141E-02   -0.71567E-02 10640   0.717E-02-0.765E-03
CGA:   5    -0.128337034158E+04   -0.13850E-02   -0.13896E-02 10640   0.181E-02 0.152E-03
CGA:   6    -0.128337078801E+04   -0.44643E-03   -0.45369E-03 10640   0.105E-02-0.397E-03
CGA:   7    -0.128337088489E+04   -0.96876E-04   -0.10647E-03 10640   0.246E-03 0.990E-04
CGA:   8    -0.128337092242E+04   -0.37535E-04   -0.40602E-04 10640   0.121E-03 0.429E-04
CGA:   9    -0.128337098692E+04   -0.64505E-04    0.46285E-03 10640   0.891E-04-0.309E-04
CGA:  10    -0.128337103642E+04   -0.49491E-04    0.10387E-04 10640   0.625E-04-0.112E-04
CGA:  11    -0.128337106387E+04   -0.27452E-04    0.40702E-04 10640   0.469E-04-0.666E-05
CGA:  12    -0.128337110591E+04   -0.42039E-04    0.35600E-05 10640   0.333E-04-0.470E-05
CGA:  13    -0.128337114532E+04   -0.39414E-04    0.16450E-05 10640   0.268E-04-0.223E-05
CGA:  14    -0.128337116448E+04   -0.19155E-04    0.36558E-05 10640   0.202E-04 0.455E-05
CGA:  15    -0.128337117924E+04   -0.14760E-04    0.60459E-05 10640   0.173E-04 0.542E-05
CGA:  16    -0.128337120100E+04   -0.21765E-04    0.18968E-05 10640   0.114E-04 0.421E-05
CGA:  17    -0.128337121128E+04   -0.10280E-04    0.23403E-05 10640   0.833E-05 0.601E-05
CGA:  18    -0.128337121050E+04    0.78431E-06   -0.38629E-06 10640   0.569E-05 0.677E-05
  12 F= -.12833712E+04 E0= -.12833712E+04  d E =-.144041E-01  mag=    47.0000
       N       E                     dE             d eps       ncg     rms          ort
SDA:   1    -0.128118716394E+04    0.21840E+01    0.00000E+00 10640   0.685E+01 0.000E+00
CGA:   2    -0.128259205820E+04   -0.14049E+01   -0.14049E+01 10640   0.269E+01 0.240E-02
CGA:   3    -0.128324912564E+04   -0.65707E+00   -0.65695E+00 10640   0.709E+00 0.128E-02
CGA:   4    -0.128335855689E+04   -0.10943E+00   -0.10951E+00 10640   0.114E+00 0.188E-02
CGA:   5    -0.128338142093E+04   -0.22864E-01   -0.22864E-01 10640   0.306E-01-0.211E-03
CGA:   6    -0.128338747231E+04   -0.60514E-02   -0.60491E-02 10640   0.111E-01-0.498E-03
CGA:   7    -0.128338962658E+04   -0.21543E-02   -0.21519E-02 10640   0.350E-02-0.491E-03
CGA:   8    -0.128339043623E+04   -0.80965E-03   -0.84643E-03 10640   0.248E-02-0.704E-03
CGA:   9    -0.128339092302E+04   -0.48679E-03   -0.58494E-03 10640   0.251E-02-0.107E-02
CGA:  10    -0.128339125482E+04   -0.33181E-03   -0.45089E-03 10640   0.192E-02-0.110E-02
CGA:  11    -0.128339022533E+04    0.10295E-02   -0.91739E-03 10640   0.127E-01-0.305E-02
CGA:  12    -0.128339168062E+04   -0.14553E-02   -0.14841E-02 10640   0.250E-02 0.287E-03
CGA:  13    -0.128339230531E+04   -0.62470E-03   -0.62373E-03 10640   0.801E-03 0.235E-03
CGA:  14    -0.128339253221E+04   -0.22690E-03   -0.22491E-03 10640   0.646E-03 0.117E-03
CGA:  15    -0.128339265354E+04   -0.12133E-03   -0.13593E-03 10640   0.180E-03 0.257E-03
CGA:  16    -0.128339267314E+04   -0.19605E-04   -0.34291E-04 10640   0.992E-04 0.144E-03
CGA:  17    -0.128339269530E+04   -0.22160E-04   -0.22402E-04 10640   0.742E-04 0.359E-04
CGA:  18    -0.128339270355E+04   -0.82444E-05   -0.14396E-04 10640   0.393E-04 0.685E-04
  13 F= -.12833927E+04 E0= -.12833927E+04  d E =-.214931E-01  mag=    47.0000
       N       E                     dE             d eps       ncg     rms          ort
SDA:   1    -0.128189423873E+04    0.14985E+01    0.00000E+00 10640   0.430E+01 0.000E+00
CGA:   2    -0.128288347180E+04   -0.98923E+00   -0.98925E+00 10640   0.189E+01-0.230E-02
CGA:   3    -0.128331831186E+04   -0.43484E+00   -0.43481E+00 10640   0.401E+00 0.320E-02
CGA:   4    -0.128338255127E+04   -0.64239E-01   -0.64320E-01 10640   0.735E-01 0.159E-02
CGA:   5    -0.128339716610E+04   -0.14615E-01   -0.14620E-01 10640   0.184E-01 0.258E-03
CGA:   6    -0.128340093831E+04   -0.37722E-02   -0.37706E-02 10640   0.667E-02-0.893E-04
CGA:   7    -0.128340227250E+04   -0.13342E-02   -0.13309E-02 10640   0.217E-02-0.184E-03
CGA:   8    -0.128340281396E+04   -0.54146E-03   -0.55924E-03 10640   0.157E-02-0.363E-03
CGA:   9    -0.128340311690E+04   -0.30294E-03   -0.30603E-03 10640   0.920E-03-0.206E-03
CGA:  10    -0.128340334832E+04   -0.23142E-03   -0.24362E-03 10640   0.614E-03-0.144E-03
CGA:  11    -0.128340350084E+04   -0.15252E-03   -0.19502E-03 10640   0.900E-03-0.278E-03
CGA:  12    -0.128340360926E+04   -0.10842E-03   -0.10634E-03 10640   0.477E-03-0.132E-03
CGA:  13    -0.128340373918E+04   -0.12992E-03   -0.13146E-03 10640   0.575E-03-0.179E-04
CGA:  14    -0.128340386731E+04   -0.12812E-03   -0.12719E-03 10640   0.434E-03-0.163E-03
CGA:  15    -0.128340395775E+04   -0.90443E-04   -0.17815E-03 10640   0.756E-03-0.262E-03
CGA:  16    -0.128340402274E+04   -0.64988E-04   -0.90097E-04 10640   0.202E-03 0.191E-03
CGA:  17    -0.128340406825E+04   -0.45509E-04   -0.49235E-04 10640   0.854E-04 0.728E-04
CGA:  18    -0.128340404200E+04    0.26250E-04   -0.77352E-04 10640   0.873E-03-0.245E-03
CGA:  19    -0.128340409016E+04   -0.48168E-04   -0.81655E-04 10640   0.124E-03 0.200E-03
CGA:  20    -0.128340409841E+04   -0.82445E-05   -0.17514E-04 10640   0.654E-04 0.659E-04
CGA:  21    -0.128340413686E+04   -0.38447E-04    0.44659E-04 10640   0.524E-04 0.129E-05
CGA:  22    -0.128340413954E+04   -0.26870E-05   -0.61052E-05 10640   0.156E-04 0.255E-04
  14 F= -.12834041E+04 E0= -.12834041E+04  d E =-.114360E-01  mag=    47.0000
       N       E                     dE             d eps       ncg     rms          ort
SDA:   1    -0.123262794963E+04    0.50776E+02    0.00000E+00 10640   0.175E+03 0.000E+00
CGA:   2    -0.126401122749E+04   -0.31383E+02   -0.31389E+02 10640   0.589E+02 0.462E+00
CGA:   3    -0.127892439112E+04   -0.14913E+02   -0.14900E+02 10640   0.191E+02 0.298E+00
CGA:   4    -0.128183194183E+04   -0.29076E+01   -0.28796E+01 10640   0.320E+01 0.122E+00
CGA:   5    -0.128237400185E+04   -0.54206E+00   -0.54473E+00 10640   0.109E+01 0.111E-01
CGA:   6    -0.128255761139E+04   -0.18361E+00   -0.18326E+00 10640   0.326E+00 0.895E-02
CGA:   7    -0.128263008429E+04   -0.72473E-01   -0.72471E-01 10640   0.111E+00-0.109E-01
CGA:   8    -0.128264974760E+04   -0.19663E-01   -0.19725E-01 10640   0.478E-01 0.283E-02
CGA:   9    -0.128266234548E+04   -0.12598E-01   -0.12813E-01 10640   0.358E-01-0.511E-02
CGA:  10    -0.128266839306E+04   -0.60476E-02   -0.61189E-02 10640   0.171E-01 0.290E-02
CGA:  11    -0.128267454260E+04   -0.61495E-02   -0.61340E-02 10640   0.110E-01 0.151E-03
CGA:  12    -0.128267821629E+04   -0.36737E-02   -0.35779E-02 10640   0.993E-02 0.986E-03
CGA:  13    -0.128268165386E+04   -0.34376E-02   -0.34510E-02 10640   0.111E-01-0.162E-03
CGA:  14    -0.128268482983E+04   -0.31760E-02   -0.30783E-02 10640   0.756E-02 0.203E-02
CGA:  15    -0.128268805098E+04   -0.32211E-02   -0.31225E-02 10640   0.829E-02 0.847E-03
CGA:  16    -0.128268960064E+04   -0.15497E-02   -0.16749E-02 10640   0.474E-02 0.212E-02
CGA:  17    -0.128269120489E+04   -0.16043E-02   -0.15794E-02 10640   0.319E-02 0.931E-03
CGA:  18    -0.128269200554E+04   -0.80065E-03   -0.81785E-03 10640   0.187E-02 0.640E-03
CGA:  19    -0.128269286025E+04   -0.85471E-03   -0.84743E-03 10640   0.208E-02 0.320E-04
CGA:  20    -0.128269326260E+04   -0.40235E-03   -0.41594E-03 10640   0.133E-02 0.259E-03
CGA:  21    -0.128269368938E+04   -0.42677E-03   -0.41389E-03 10640   0.119E-02 0.366E-03
CGA:  22    -0.128269412834E+04   -0.43897E-03   -0.68682E-03 10640   0.437E-02-0.121E-02
CGA:  23    -0.128269440818E+04   -0.27984E-03   -0.39620E-03 10640   0.711E-03 0.737E-03
CGA:  24    -0.128269461365E+04   -0.20546E-03   -0.20546E-03 10640   0.732E-03-0.218E-04
CGA:  25    -0.128269479770E+04   -0.18406E-03   -0.20969E-03 10640   0.105E-02-0.533E-03
CGA:  26    -0.128269487043E+04   -0.72732E-04   -0.11356E-03 10640   0.306E-03 0.290E-03
CGA:  27    -0.128269496013E+04   -0.89698E-04   -0.90337E-04 10640   0.160E-03 0.544E-04
CGA:  28    -0.128269500596E+04   -0.45827E-04   -0.45852E-04 10640   0.265E-03-0.378E-04
CGA:  29    -0.128269503479E+04   -0.28834E-04   -0.35342E-04 10640   0.337E-03 0.948E-04
CGA:  30    -0.128269508066E+04   -0.45865E-04   -0.62667E-04 10640   0.234E-03 0.164E-03
CGA:  31    -0.128269521688E+04   -0.13623E-03   -0.12420E-03 10640   0.398E-03 0.936E-04
CGA:  32    -0.128269530831E+04   -0.91426E-04   -0.96780E-04 10640   0.220E-03 0.746E-04
CGA:  33    -0.128269532461E+04   -0.16301E-04   -0.33707E-04 10640   0.166E-03 0.159E-03
CGA:  34    -0.128269533205E+04   -0.74393E-05   -0.18297E-04 10640   0.781E-04 0.897E-04
CGA:  35    -0.128269533667E+04   -0.46198E-05   -0.10288E-04 10640   0.508E-04 0.604E-04
  15 F= -.12826953E+04 E0= -.12826953E+04  d E =0.708803E+00  mag=    47.0000
       N       E                     dE             d eps       ncg     rms          ort
SDA:   1    -0.127069802092E+04    0.11997E+02    0.00000E+00 10640   0.427E+02 0.000E+00
CGA:   2    -0.127860070268E+04   -0.79027E+01   -0.79028E+01 10640   0.150E+02 0.360E-01
CGA:   3    -0.128236350870E+04   -0.37628E+01   -0.37609E+01 10640   0.478E+01 0.212E-01
CGA:   4    -0.128308567938E+04   -0.72217E+00   -0.72281E+00 10640   0.745E+00 0.476E-02
CGA:   5    -0.128321840691E+04   -0.13273E+00   -0.13275E+00 10640   0.250E+00 0.211E-02
CGA:   6    -0.128326216970E+04   -0.43763E-01   -0.43619E-01 10640   0.789E-01-0.452E-02
CGA:   7    -0.128327766832E+04   -0.15499E-01   -0.15510E-01 10640   0.204E-01 0.154E-02
CGA:   8    -0.128328290738E+04   -0.52391E-02   -0.53655E-02 10640   0.129E-01-0.251E-02
CGA:   9    -0.128328551135E+04   -0.26040E-02   -0.26297E-02 10640   0.772E-02-0.116E-02
CGA:  10    -0.128328746657E+04   -0.19552E-02   -0.33701E-02 10640   0.160E-01-0.526E-02
CGA:  11    -0.128328922026E+04   -0.17537E-02   -0.18353E-02 10640   0.359E-02 0.788E-03
CGA:  12    -0.128329031391E+04   -0.10937E-02   -0.11504E-02 10640   0.247E-02-0.661E-03
CGA:  13    -0.128329103220E+04   -0.71829E-03   -0.92059E-03 10640   0.417E-02-0.868E-03
CGA:  14    -0.128329167479E+04   -0.64259E-03   -0.64426E-03 10640   0.277E-02-0.771E-03
CGA:  15    -0.128329249050E+04   -0.81571E-03   -0.12088E-02 10640   0.533E-02-0.133E-02
CGA:  16    -0.128329306038E+04   -0.56988E-03   -0.52246E-03 10640   0.354E-02-0.779E-03
CGA:  17    -0.128329383384E+04   -0.77346E-03   -0.78054E-03 10640   0.420E-02-0.682E-03
CGA:  18    -0.128329453336E+04   -0.69953E-03   -0.67805E-03 10640   0.212E-02-0.469E-03
CGA:  19    -0.128329478602E+04   -0.25265E-03   -0.26901E-03 10640   0.118E-02 0.155E-03
CGA:  20    -0.128329497729E+04   -0.19127E-03   -0.21269E-03 10640   0.799E-03 0.290E-03
CGA:  21    -0.128329512916E+04   -0.15187E-03   -0.16311E-03 10640   0.398E-03 0.152E-03
CGA:  22    -0.128329520175E+04   -0.72592E-04   -0.81099E-04 10640   0.326E-03 0.135E-03
CGA:  23    -0.128329522602E+04   -0.24268E-04   -0.52308E-04 10640   0.220E-03 0.253E-03
CGA:  24    -0.128329523091E+04   -0.48956E-05   -0.21845E-04 10640   0.110E-03 0.135E-03
CGA:  25    -0.128329523900E+04   -0.80873E-05   -0.15323E-04 10640   0.813E-04 0.912E-04
CGA:  26    -0.128329524505E+04   -0.60502E-05   -0.11470E-04 10640   0.684E-04 0.736E-04
  16 F= -.12832952E+04 E0= -.12832952E+04  d E =-.599908E+00  mag=    47.0000
       N       E                     dE             d eps       ncg     rms          ort
SDA:   1    -0.128174061511E+04    0.15546E+01    0.00000E+00 10640   0.528E+01 0.000E+00
CGA:   2    -0.128278256026E+04   -0.10419E+01   -0.10420E+01 10640   0.198E+01 0.254E-02
CGA:   3    -0.128327587267E+04   -0.49331E+00   -0.49340E+00 10640   0.567E+00-0.321E-02
CGA:   4    -0.128336070314E+04   -0.84830E-01   -0.84757E-01 10640   0.933E-01-0.119E-02
CGA:   5    -0.128337780866E+04   -0.17106E-01   -0.17096E-01 10640   0.293E-01-0.332E-03
CGA:   6    -0.128338319624E+04   -0.53876E-02   -0.53607E-02 10640   0.976E-02-0.126E-02
CGA:   7    -0.128338504875E+04   -0.18525E-02   -0.18525E-02 10640   0.250E-02 0.429E-05
CGA:   8    -0.128338570655E+04   -0.65780E-03   -0.69516E-03 10640   0.180E-02-0.499E-03
CGA:   9    -0.128338599908E+04   -0.29253E-03   -0.57328E-03 10640   0.404E-02-0.147E-02
CGA:  10    -0.128338643187E+04   -0.43279E-03   -0.43777E-03 10640   0.732E-03 0.557E-04
CGA:  11    -0.128338662819E+04   -0.19631E-03   -0.39283E-03 10640   0.137E-02-0.617E-03
CGA:  12    -0.128338689234E+04   -0.26416E-03   -0.25290E-03 10640   0.745E-03-0.263E-03
CGA:  13    -0.128338699403E+04   -0.10169E-03   -0.99666E-04 10640   0.171E-03-0.332E-04
CGA:  14    -0.128338680976E+04    0.18428E-03   -0.11599E-03 10640   0.408E-02-0.367E-03
CGA:  15    -0.128338743891E+04   -0.62915E-03   -0.53724E-03 10640   0.651E-03-0.330E-03
CGA:  16    -0.128338752240E+04   -0.83486E-04   -0.92190E-04 10640   0.102E-03 0.380E-04
CGA:  17    -0.128338754436E+04   -0.21960E-04   -0.24916E-04 10640   0.880E-04 0.201E-04
CGA:  18    -0.128338763917E+04   -0.94816E-04    0.92466E-04 10640   0.866E-04 0.466E-04
CGA:  19    -0.128338765109E+04   -0.11922E-04   -0.16475E-04 10640   0.604E-04 0.252E-04
CGA:  20    -0.128338771215E+04   -0.61059E-04    0.17643E-03 10640   0.575E-04 0.355E-04
CGA:  21    -0.128338773018E+04   -0.18023E-04   -0.18341E-04 10640   0.747E-04 0.738E-05
CGA:  22    -0.128338779150E+04   -0.61321E-04    0.15808E-02 10640   0.865E-04 0.323E-04
CGA:  23    -0.128338741818E+04    0.37332E-03   -0.21192E-03 10640   0.712E-02-0.351E-03
CGA:  24    -0.128338817850E+04   -0.76032E-03   -0.77059E-03 10640   0.355E-03 0.501E-04
CGA:  25    -0.128338821249E+04   -0.33995E-04   -0.44326E-04 10640   0.462E-04 0.213E-04
CGA:  26    -0.128338822247E+04   -0.99716E-05   -0.13110E-04 10640   0.136E-04 0.928E-05
  17 F= -.12833882E+04 E0= -.12833882E+04  d E =-.929774E-01  mag=    47.0000
       N       E                     dE             d eps       ncg     rms          ort
SDA:   1    -0.128146866819E+04    0.19195E+01    0.00000E+00 10640   0.619E+01 0.000E+00
CGA:   2    -0.128271495754E+04   -0.12463E+01   -0.12479E+01 10640   0.236E+01 0.612E-03
CGA:   3    -0.128330331045E+04   -0.58835E+00   -0.58824E+00 10640   0.614E+00-0.181E-03
CGA:   4    -0.128339926005E+04   -0.95950E-01   -0.96132E-01 10640   0.944E-01-0.128E-03
CGA:   5    -0.128341892163E+04   -0.19662E-01   -0.19570E-01 10640   0.254E-01-0.271E-03
CGA:   6    -0.128342407232E+04   -0.51507E-02   -0.50405E-02 10640   0.980E-02-0.338E-03
CGA:   7    -0.128342578179E+04   -0.17095E-02   -0.17011E-02 10640   0.274E-02-0.405E-05
CGA:   8    -0.128342654196E+04   -0.76017E-03   -0.70788E-03 10640   0.152E-02-0.249E-03
CGA:   9    -0.128342700772E+04   -0.46575E-03   -0.41066E-03 10640   0.140E-02-0.343E-03
CGA:  10    -0.128342735779E+04   -0.35007E-03   -0.29389E-03 10640   0.899E-03-0.317E-03
CGA:  11    -0.128342756754E+04   -0.20975E-03   -0.50230E-03 10640   0.374E-02-0.103E-02
CGA:  12    -0.128342797069E+04   -0.40315E-03   -0.45413E-03 10640   0.869E-03 0.167E-03
CGA:  13    -0.128342816272E+04   -0.19204E-03   -0.21087E-03 10640   0.295E-03 0.919E-04
CGA:  14    -0.128342829957E+04   -0.13685E-03   -0.13646E-03 10640   0.449E-03-0.478E-04
CGA:  15    -0.128342831494E+04   -0.15367E-04   -0.51877E-04 10640   0.203E-03 0.126E-03
CGA:  16    -0.128342831536E+04   -0.42278E-06   -0.29224E-04 10640   0.114E-03 0.961E-04
CGA:  17    -0.128342834027E+04   -0.24910E-04   -0.33805E-04 10640   0.104E-03 0.448E-04
CGA:  18    -0.128342839480E+04   -0.54527E-04   -0.51835E-04 10640   0.281E-03-0.913E-04
CGA:  19    -0.128342840159E+04   -0.67863E-05   -0.32121E-04 10640   0.814E-04 0.939E-04
CGA:  20    -0.128342841682E+04   -0.15233E-04   -0.21481E-04 10640   0.536E-04 0.356E-04
CGA:  21    -0.128342726536E+04    0.11515E-02   -0.62619E-03 10640   0.869E-02-0.675E-03
CGA:  22    -0.128342811916E+04   -0.85380E-03   -0.10427E-02 10640   0.131E-02 0.503E-03
CGA:  23    -0.128342851006E+04   -0.39090E-03   -0.39943E-03 10640   0.275E-03 0.254E-04
CGA:  24    -0.128342863323E+04   -0.12317E-03   -0.62786E-04 10640   0.237E-03-0.153E-03
CGA:  25    -0.128342862152E+04    0.11714E-04   -0.20772E-04 10640   0.357E-04 0.645E-04
CGA:  26    -0.128342861373E+04    0.77809E-05   -0.39707E-05 10640   0.230E-04 0.242E-04
CGA:  27    -0.128342863942E+04   -0.25683E-04    0.41433E-03 10640   0.581E-04-0.309E-05
CGA:  28    -0.128342863854E+04    0.87454E-06   -0.65333E-05 10640   0.234E-04 0.177E-04
  18 F= -.12834286E+04 E0= -.12834286E+04  d E =-.404161E-01  mag=    47.0000
       N       E                     dE             d eps       ncg     rms          ort
SDA:   1    -0.128267322505E+04    0.75541E+00    0.00000E+00 10640   0.221E+01 0.000E+00
CGA:   2    -0.128317077173E+04   -0.49755E+00   -0.49745E+00 10640   0.951E+00 0.190E-03
CGA:   3    -0.128338988819E+04   -0.21912E+00   -0.21915E+00 10640   0.219E+00-0.701E-03
CGA:   4    -0.128342334140E+04   -0.33453E-01   -0.33574E-01 10640   0.420E-01 0.122E-02
CGA:   5    -0.128343112710E+04   -0.77857E-02   -0.77114E-02 10640   0.122E-01-0.293E-03
CGA:   6    -0.128343329041E+04   -0.21633E-02   -0.21578E-02 10640   0.374E-02-0.180E-05
CGA:   7    -0.128343411848E+04   -0.82807E-03   -0.82078E-03 10640   0.103E-02-0.286E-04
CGA:   8    -0.128343444281E+04   -0.32434E-03   -0.29682E-03 10640   0.786E-03-0.206E-03
CGA:   9    -0.128343456484E+04   -0.12202E-03   -0.11956E-03 10640   0.342E-03-0.934E-05
CGA:  10    -0.128343468586E+04   -0.12102E-03   -0.11701E-03 10640   0.238E-03-0.672E-04
CGA:  11    -0.128343166372E+04    0.30221E-02   -0.16422E-02 10640   0.209E-01-0.162E-02
CGA:  12    -0.128343395759E+04   -0.22939E-02   -0.26376E-02 10640   0.279E-02 0.115E-02
CGA:  13    -0.128343484447E+04   -0.88689E-03   -0.83508E-03 10640   0.992E-03-0.122E-03
CGA:  14    -0.128343500889E+04   -0.16442E-03   -0.21318E-03 10640   0.447E-03 0.108E-03
CGA:  15    -0.128343509330E+04   -0.84407E-04   -0.10937E-03 10640   0.171E-03 0.573E-04
CGA:  16    -0.128343513049E+04   -0.37189E-04   -0.47471E-04 10640   0.915E-04 0.264E-04
CGA:  17    -0.128343512770E+04    0.27894E-05   -0.16251E-04 10640   0.285E-04 0.410E-04
  19 F= -.12834351E+04 E0= -.12834351E+04  d E =-.648916E-02  mag=    47.0000
       N       E                     dE             d eps       ncg     rms          ort
SDA:   1    -0.128235779716E+04    0.10773E+01    0.00000E+00 10640   0.296E+01 0.000E+00
CGA:   2    -0.128308028996E+04   -0.72249E+00   -0.72235E+00 10640   0.136E+01 0.349E-03
CGA:   3    -0.128337825535E+04   -0.29797E+00   -0.29827E+00 10640   0.280E+00-0.158E-02
CGA:   4    -0.128342143654E+04   -0.43181E-01   -0.43450E-01 10640   0.570E-01 0.236E-02
CGA:   5    -0.128343204589E+04   -0.10609E-01   -0.10531E-01 10640   0.159E-01-0.333E-03
CGA:   6    -0.128343483529E+04   -0.27894E-02   -0.28240E-02 10640   0.498E-02 0.129E-03
CGA:   7    -0.128343592009E+04   -0.10848E-02   -0.10791E-02 10640   0.139E-02-0.118E-04
CGA:   8    -0.128343633267E+04   -0.41258E-03   -0.37194E-03 10640   0.902E-03-0.196E-03
CGA:   9    -0.128343644749E+04   -0.11482E-03   -0.14031E-03 10640   0.330E-03 0.924E-04
CGA:  10    -0.128343654269E+04   -0.95197E-04   -0.10094E-03 10640   0.163E-03 0.336E-04
CGA:  11    -0.128343659956E+04   -0.56878E-04   -0.12558E-03 10640   0.112E-02-0.266E-03
CGA:  12    -0.128343663221E+04   -0.32650E-04   -0.10830E-03 10640   0.138E-03 0.219E-03
CGA:  13    -0.128343664061E+04   -0.83962E-05   -0.24858E-04 10640   0.816E-04 0.577E-04
CGA:  14    -0.128343668875E+04   -0.48140E-04   -0.46457E-04 10640   0.166E-03-0.837E-04
CGA:  15    -0.128343668665E+04    0.20999E-05   -0.18265E-04 10640   0.521E-04 0.659E-04
CGA:  16    -0.128343669083E+04   -0.41767E-05   -0.11326E-04 10640   0.272E-04 0.286E-04
  20 F= -.12834367E+04 E0= -.12834367E+04  d E =-.156313E-02  mag=    47.0000
       N       E                     dE             d eps       ncg     rms          ort
SDA:   1    -0.127926655770E+04    0.41701E+01    0.00000E+00 10640   0.110E+02 0.000E+00
CGA:   2    -0.128209016823E+04   -0.28236E+01   -0.28238E+01 10640   0.526E+01-0.215E-02
CGA:   3    -0.128320900931E+04   -0.11188E+01   -0.11191E+01 10640   0.105E+01 0.184E-02
CGA:   4    -0.128336774758E+04   -0.15874E+00   -0.15821E+00 10640   0.226E+00 0.177E-02
CGA:   5    -0.128340800262E+04   -0.40255E-01   -0.40433E-01 10640   0.601E-01 0.110E-02
CGA:   6    -0.128341940310E+04   -0.11400E-01   -0.11421E-01 10640   0.177E-01 0.152E-03
CGA:   7    -0.128342350896E+04   -0.41059E-02   -0.40366E-02 10640   0.549E-02-0.552E-03
CGA:   8    -0.128342460271E+04   -0.10937E-02   -0.11099E-02 10640   0.249E-02 0.130E-03
CGA:   9    -0.128342531073E+04   -0.70802E-03   -0.69218E-03 10640   0.153E-02-0.246E-03
CGA:  10    -0.128342564310E+04   -0.33236E-03   -0.32870E-03 10640   0.771E-03-0.361E-04
CGA:  11    -0.128342586094E+04   -0.21785E-03   -0.21499E-03 10640   0.437E-03-0.677E-04
CGA:  12    -0.128342596723E+04   -0.10629E-03   -0.10584E-03 10640   0.324E-03-0.691E-05
CGA:  13    -0.128342602751E+04   -0.60276E-04   -0.71197E-04 10640   0.169E-03 0.110E-03
CGA:  14    -0.128342609233E+04   -0.64828E-04   -0.67271E-04 10640   0.119E-03 0.116E-03
CGA:  15    -0.128342612628E+04   -0.33947E-04   -0.34633E-04 10640   0.130E-03 0.258E-04
CGA:  16    -0.128342614476E+04   -0.18479E-04   -0.29277E-04 10640   0.603E-04 0.826E-04
CGA:  17    -0.128342614940E+04   -0.46406E-05   -0.10448E-04 10640   0.438E-04 0.428E-04
CGA:  18    -0.128342615719E+04   -0.77914E-05   -0.10270E-04 10640   0.412E-04 0.365E-04
  21 F= -.12834262E+04 E0= -.12834262E+04  d E =0.105336E-01  mag=    47.0000
       N       E                     dE             d eps       ncg     rms          ort
SDA:   1    -0.128088108224E+04    0.25451E+01    0.00000E+00 10640   0.713E+01 0.000E+00
CGA:   2    -0.128254893039E+04   -0.16678E+01   -0.16678E+01 10640   0.321E+01 0.199E-03
CGA:   3    -0.128328656989E+04   -0.73764E+00   -0.73781E+00 10640   0.654E+00-0.223E-03
CGA:   4    -0.128338728948E+04   -0.10072E+00   -0.10127E+00 10640   0.120E+00 0.529E-02
CGA:   5    -0.128341160177E+04   -0.24312E-01   -0.24228E-01 10640   0.338E-01-0.106E-02
CGA:   6    -0.128341772138E+04   -0.61196E-02   -0.61655E-02 10640   0.111E-01 0.549E-03
CGA:   7    -0.128342010773E+04   -0.23863E-02   -0.23622E-02 10640   0.338E-02-0.379E-03
CGA:   8    -0.128342089154E+04   -0.78381E-03   -0.77685E-03 10640   0.189E-02-0.224E-03
CGA:   9    -0.128342123341E+04   -0.34187E-03   -0.35329E-03 10640   0.765E-03 0.176E-03
CGA:  10    -0.128342145040E+04   -0.21699E-03   -0.21756E-03 10640   0.318E-03 0.189E-03
CGA:  11    -0.128342159826E+04   -0.14786E-03   -0.14147E-03 10640   0.266E-03 0.675E-04
CGA:  12    -0.128342165040E+04   -0.52139E-04   -0.63033E-04 10640   0.177E-03 0.150E-03
CGA:  13    -0.128342169875E+04   -0.48345E-04   -0.47969E-04 10640   0.144E-03 0.619E-04
CGA:  14    -0.128342174183E+04   -0.43080E-04   -0.45616E-04 10640   0.114E-03 0.835E-04
CGA:  15    -0.128342175528E+04   -0.13453E-04   -0.19030E-04 10640   0.850E-04 0.581E-04
CGA:  16    -0.128342177548E+04   -0.20196E-04   -0.20725E-04 10640   0.110E-03 0.367E-04
CGA:  17    -0.128342180593E+04   -0.30455E-04   -0.35137E-04 10640   0.638E-04 0.135E-03
CGA:  18    -0.128342181277E+04   -0.68390E-05   -0.10970E-04 10640   0.587E-04 0.492E-04
CGA:  19    -0.128342182890E+04   -0.16128E-04   -0.15562E-04 10640   0.698E-04 0.415E-04
CGA:  20    -0.128342183211E+04   -0.32160E-05   -0.86526E-05 10640   0.517E-04 0.423E-04
CGA:  21    -0.128342184589E+04   -0.13773E-04   -0.13295E-04 10640   0.558E-04 0.428E-04
CGA:  22    -0.128342184893E+04   -0.30383E-05   -0.75995E-05 10640   0.478E-04 0.413E-04
CGA:  23    -0.128342186074E+04   -0.11811E-04   -0.11672E-04 10640   0.501E-04 0.403E-04
CGA:  24    -0.128342186344E+04   -0.27031E-05   -0.68297E-05 10640   0.440E-04 0.393E-04
CGA:  25    -0.128342187334E+04   -0.99052E-05   -0.10122E-04 10640   0.445E-04 0.386E-04
  22 F= -.12834219E+04 E0= -.12834219E+04  d E =0.428385E-02  mag=    47.0000
       N       E                     dE             d eps       ncg     rms          ort
SDA:   1    -0.127983904359E+04    0.35828E+01    0.00000E+00 10640   0.998E+01 0.000E+00
CGA:   2    -0.128221968031E+04   -0.23806E+01   -0.23806E+01 10640   0.443E+01 0.771E-02
CGA:   3    -0.128322736185E+04   -0.10077E+01   -0.10077E+01 10640   0.887E+00-0.813E-02
CGA:   4    -0.128337249907E+04   -0.14514E+00   -0.14520E+00 10640   0.173E+00 0.903E-03
CGA:   5    -0.128340630470E+04   -0.33806E-01   -0.33714E-01 10640   0.474E-01-0.277E-02
CGA:   6    -0.128341496571E+04   -0.86610E-02   -0.86087E-02 10640   0.175E-01-0.121E-02
CGA:   7    -0.128341840700E+04   -0.34413E-02   -0.34310E-02 10640   0.463E-02-0.443E-03
CGA:   8    -0.128341975643E+04   -0.13494E-02   -0.14737E-02 10640   0.365E-02-0.119E-02
CGA:   9    -0.128342033655E+04   -0.58012E-03   -0.57530E-03 10640   0.188E-02-0.303E-03
CGA:  10    -0.128342035357E+04   -0.17016E-04   -0.11033E-02 10640   0.708E-02-0.263E-02
CGA:  11    -0.128342135837E+04   -0.10048E-02   -0.10330E-02 10640   0.153E-02 0.287E-03
CGA:  12    -0.128342166153E+04   -0.30317E-03   -0.29616E-03 10640   0.517E-03-0.121E-03
CGA:  13    -0.128342181910E+04   -0.15757E-03   -0.15249E-03 10640   0.305E-03 0.634E-04
CGA:  14    -0.128342190787E+04   -0.88767E-04   -0.23638E-03 10640   0.174E-02-0.331E-03
CGA:  15    -0.128342208135E+04   -0.17348E-03   -0.18693E-03 10640   0.232E-03 0.873E-04
CGA:  16    -0.128342212927E+04   -0.47914E-04   -0.51467E-04 10640   0.960E-04 0.748E-04
CGA:  17    -0.128342217989E+04   -0.50622E-04   -0.51330E-04 10640   0.231E-03-0.514E-05
CGA:  18    -0.128342223439E+04   -0.54506E-04   -0.54744E-04 10640   0.256E-03 0.176E-04
CGA:  19    -0.128342226627E+04   -0.31874E-04   -0.41615E-04 10640   0.219E-03 0.863E-04
CGA:  20    -0.128342230607E+04   -0.39802E-04   -0.50779E-04 10640   0.213E-03 0.129E-03
CGA:  21    -0.128342236954E+04   -0.63469E-04   -0.76935E-04 10640   0.457E-03-0.123E-03
CGA:  22    -0.128342240249E+04   -0.32953E-04   -0.45561E-04 10640   0.430E-04 0.807E-04
CGA:  23    -0.128342239973E+04    0.27642E-05   -0.37667E-05 10640   0.342E-04 0.371E-04
  23 F= -.12834224E+04 E0= -.12834224E+04  d E =-.526382E-03  mag=    47.0000
       N       E                     dE             d eps       ncg     rms          ort
SDA:   1    -0.128017252281E+04    0.32499E+01    0.00000E+00 10640   0.876E+01 0.000E+00
CGA:   2    -0.128237323452E+04   -0.22007E+01   -0.22007E+01 10640   0.410E+01 0.285E-02
CGA:   3    -0.128325928347E+04   -0.88605E+00   -0.88592E+00 10640   0.784E+00-0.637E-02
CGA:   4    -0.128338669464E+04   -0.12741E+00   -0.12714E+00 10640   0.162E+00-0.358E-02
CGA:   5    -0.128341684146E+04   -0.30147E-01   -0.30160E-01 10640   0.430E-01 0.489E-03
CGA:   6    -0.128342502519E+04   -0.81837E-02   -0.81275E-02 10640   0.151E-01-0.130E-02
CGA:   7    -0.128342800932E+04   -0.29841E-02   -0.29804E-02 10640   0.410E-02-0.129E-03
CGA:   8    -0.128342905858E+04   -0.10493E-02   -0.10622E-02 10640   0.235E-02-0.370E-03
CGA:   9    -0.128342963582E+04   -0.57724E-03   -0.61786E-03 10640   0.201E-02-0.671E-03
CGA:  10    -0.128342999967E+04   -0.36385E-03   -0.38477E-03 10640   0.111E-02-0.582E-03
CGA:  11    -0.128343019182E+04   -0.19215E-03   -0.36678E-03 10640   0.172E-02-0.760E-03
CGA:  12    -0.128343043144E+04   -0.23961E-03   -0.23346E-03 10640   0.553E-03-0.538E-04
CGA:  13    -0.128343054869E+04   -0.11725E-03   -0.11904E-03 10640   0.170E-03 0.102E-03
CGA:  14    -0.128343060815E+04   -0.59467E-04   -0.56577E-04 10640   0.125E-03 0.700E-04
CGA:  15    -0.128343065801E+04   -0.49860E-04   -0.48743E-04 10640   0.968E-04 0.309E-04
CGA:  16    -0.128343067478E+04   -0.16765E-04   -0.20549E-04 10640   0.476E-04 0.520E-04
CGA:  17    -0.128343068495E+04   -0.10168E-04   -0.10515E-04 10640   0.342E-04 0.189E-04
CGA:  18    -0.128343069471E+04   -0.97626E-05   -0.10421E-04 10640   0.257E-04 0.331E-04
  24 F= -.12834307E+04 E0= -.12834307E+04  d E =-.829498E-02  mag=    47.0000
       N       E                     dE             d eps       ncg     rms          ort
SDA:   1    -0.127766170877E+04    0.57690E+01    0.00000E+00 10640   0.151E+02 0.000E+00
CGA:   2    -0.128162429652E+04   -0.39626E+01   -0.39627E+01 10640   0.718E+01-0.439E-02
CGA:   3    -0.128316376772E+04   -0.15395E+01   -0.15393E+01 10640   0.122E+01-0.493E-02
CGA:   4    -0.128336655019E+04   -0.20278E+00   -0.20243E+00 10640   0.258E+00-0.576E-02
CGA:   5    -0.128341527851E+04   -0.48728E-01   -0.48895E-01 10640   0.655E-01 0.404E-02
CGA:   6    -0.128342832831E+04   -0.13050E-01   -0.12974E-01 10640   0.250E-01-0.185E-02
CGA:   7    -0.128343290174E+04   -0.45734E-02   -0.45606E-02 10640   0.686E-02-0.236E-03
CGA:   8    -0.128343451352E+04   -0.16118E-02   -0.16128E-02 10640   0.326E-02-0.156E-03
CGA:   9    -0.128343544314E+04   -0.92962E-03   -0.10724E-02 10640   0.380E-02-0.135E-02
CGA:  10    -0.128343581103E+04   -0.36789E-03   -0.35303E-03 10640   0.144E-02-0.183E-03
CGA:  11    -0.128343604761E+04   -0.23658E-03   -0.23940E-03 10640   0.104E-02 0.492E-04
CGA:  12    -0.128343630510E+04   -0.25750E-03   -0.26759E-03 10640   0.757E-03-0.544E-03
CGA:  13    -0.128343645639E+04   -0.15128E-03   -0.15106E-03 10640   0.391E-03-0.618E-05
CGA:  14    -0.128343652730E+04   -0.70908E-04   -0.71677E-04 10640   0.158E-03 0.178E-04
CGA:  15    -0.128343663360E+04   -0.10630E-03   -0.12326E-03 10640   0.260E-03-0.336E-04
CGA:  16    -0.128343669425E+04   -0.60654E-04   -0.61258E-04 10640   0.215E-03-0.139E-04
CGA:  17    -0.128343676028E+04   -0.66028E-04   -0.10202E-03 10640   0.434E-03-0.148E-03
CGA:  18    -0.128343681354E+04   -0.53261E-04   -0.62015E-04 10640   0.145E-03 0.709E-04
CGA:  19    -0.128343687592E+04   -0.62379E-04   -0.84271E-04 10640   0.231E-03-0.926E-04
CGA:  20    -0.128343692005E+04   -0.44126E-04   -0.44872E-04 10640   0.859E-04 0.965E-05
CGA:  21    -0.128343694027E+04   -0.20224E-04   -0.18828E-04 10640   0.450E-04-0.236E-04
CGA:  22    -0.128343695893E+04   -0.18661E-04    0.59276E-04 10640   0.311E-04 0.111E-04
CGA:  23    -0.128343698611E+04   -0.27176E-04   -0.32281E-04 10640   0.834E-04-0.938E-05
CGA:  24    -0.128343703849E+04   -0.52377E-04    0.16281E-04 10640   0.114E-03-0.327E-04
CGA:  25    -0.128343709076E+04   -0.52274E-04    0.35569E-04 10640   0.997E-04 0.391E-06
CGA:  26    -0.128343709951E+04   -0.87495E-05   -0.12800E-04 10640   0.408E-04 0.239E-04
CGA:  27    -0.128343710909E+04   -0.95837E-05   -0.10545E-04 10640   0.409E-04 0.120E-04
CGA:  28    -0.128343714156E+04   -0.32471E-04    0.87797E-04 10640   0.487E-04-0.250E-05
CGA:  29    -0.128343715477E+04   -0.13205E-04   -0.13345E-04 10640   0.470E-04-0.152E-04
CGA:  30    -0.128343715336E+04    0.14061E-05   -0.19935E-05 10640   0.310E-04 0.153E-04
  25 F= -.12834372E+04 E0= -.12834372E+04  d E =-.645865E-02  mag=    47.0000
       N       E                     dE             d eps       ncg     rms          ort
SDA:   1    -0.127634126137E+04    0.70959E+01    0.00000E+00 10640   0.187E+02 0.000E+00
CGA:   2    -0.128118428345E+04   -0.48430E+01   -0.48430E+01 10640   0.881E+01-0.780E-02
CGA:   3    -0.128308488710E+04   -0.19006E+01   -0.19006E+01 10640   0.152E+01 0.267E-02
CGA:   4    -0.128333934227E+04   -0.25446E+00   -0.25434E+00 10640   0.308E+00-0.229E-02
CGA:   5    -0.128339978490E+04   -0.60443E-01   -0.60692E-01 10640   0.713E-01 0.489E-02
CGA:   6    -0.128341566723E+04   -0.15882E-01   -0.15807E-01 10640   0.260E-01-0.222E-02
CGA:   7    -0.128342035283E+04   -0.46856E-02   -0.47073E-02 10640   0.710E-02 0.392E-03
CGA:   8    -0.128342230407E+04   -0.19512E-02   -0.19678E-02 10640   0.374E-02-0.614E-03
CGA:   9    -0.128342313746E+04   -0.83340E-03   -0.83192E-03 10640   0.233E-02-0.304E-03
CGA:  10    -0.128342357966E+04   -0.44220E-03   -0.43968E-03 10640   0.900E-03-0.547E-04
CGA:  11    -0.128342384314E+04   -0.26348E-03   -0.27823E-03 10640   0.621E-03-0.207E-03
CGA:  12    -0.128342394456E+04   -0.10142E-03   -0.99504E-04 10640   0.341E-03-0.462E-04
CGA:  13    -0.128342407107E+04   -0.12651E-03   -0.14260E-03 10640   0.320E-03-0.795E-04
CGA:  14    -0.128342414473E+04   -0.73658E-04   -0.19236E-03 10640   0.122E-02-0.228E-03
CGA:  15    -0.128342426916E+04   -0.12443E-03   -0.15289E-03 10640   0.231E-03 0.183E-03
CGA:  16    -0.128342435906E+04   -0.89903E-04   -0.93012E-04 10640   0.162E-03-0.416E-04
CGA:  17    -0.128342438550E+04   -0.26439E-04   -0.25713E-04 10640   0.806E-04-0.832E-05
CGA:  18    -0.128342441389E+04   -0.28392E-04   -0.29103E-04 10640   0.104E-03-0.702E-05
CGA:  19    -0.128342447098E+04   -0.57088E-04    0.18549E-03 10640   0.851E-04-0.354E-04
CGA:  20    -0.128342451902E+04   -0.48040E-04    0.14987E-04 10640   0.831E-04 0.125E-04
CGA:  21    -0.128342395496E+04    0.56406E-03   -0.30377E-03 10640   0.427E-02-0.486E-03
CGA:  22    -0.128342473510E+04   -0.78014E-03   -0.68809E-03 10640   0.604E-03-0.256E-03
CGA:  23    -0.128342481881E+04   -0.83710E-04   -0.10713E-03 10640   0.116E-03 0.779E-04
CGA:  24    -0.128342487320E+04   -0.54392E-04   -0.40722E-04 10640   0.161E-03-0.807E-04
CGA:  25    -0.128342487853E+04   -0.53263E-05   -0.16745E-04 10640   0.199E-04 0.317E-04
  26 F= -.12834249E+04 E0= -.12834249E+04  d E =0.122748E-01  mag=    47.0000
       N       E                     dE             d eps       ncg     rms          ort
SDA:   1    -0.128033996672E+04    0.30849E+01    0.00000E+00 10640   0.831E+01 0.000E+00
CGA:   2    -0.128242287151E+04   -0.20829E+01   -0.20824E+01 10640   0.380E+01-0.454E-02
CGA:   3    -0.128326712654E+04   -0.84426E+00   -0.84530E+00 10640   0.663E+00 0.534E-02
CGA:   4    -0.128338000771E+04   -0.11288E+00   -0.11291E+00 10640   0.131E+00 0.113E-03
CGA:   5    -0.128340570398E+04   -0.25696E-01   -0.26030E-01 10640   0.315E-01 0.168E-02
CGA:   6    -0.128341209328E+04   -0.63893E-02   -0.63595E-02 10640   0.130E-01-0.120E-03
CGA:   7    -0.128341432761E+04   -0.22343E-02   -0.22329E-02 10640   0.364E-02 0.172E-04
CGA:   8    -0.128341518165E+04   -0.85404E-03   -0.87122E-03 10640   0.149E-02 0.131E-03
CGA:   9    -0.128341562123E+04   -0.43958E-03   -0.43614E-03 10640   0.101E-02-0.376E-04
CGA:  10    -0.128341573240E+04   -0.11117E-03   -0.16123E-03 10640   0.351E-03 0.251E-03
CGA:  11    -0.128341579442E+04   -0.62026E-04   -0.89210E-04 10640   0.176E-03 0.179E-03
CGA:  12    -0.128341585845E+04   -0.64023E-04   -0.66018E-04 10640   0.487E-03-0.716E-04
CGA:  13    -0.128341586343E+04   -0.49875E-05   -0.34050E-04 10640   0.433E-03 0.126E-03
CGA:  14    -0.128341585476E+04    0.86695E-05   -0.41084E-04 10640   0.139E-03 0.191E-03
CGA:  15    -0.128341584543E+04    0.93301E-05   -0.17070E-04 10640   0.118E-03 0.111E-03
CGA:  16    -0.128341588272E+04   -0.37289E-04   -0.59116E-04 10640   0.648E-03-0.114E-03
CGA:  17    -0.128341590364E+04   -0.20916E-04   -0.51109E-04 10640   0.557E-04 0.126E-03
CGA:  18    -0.128341589925E+04    0.43922E-05   -0.49533E-05 10640   0.400E-04 0.398E-04
CGA:  19    -0.128341591965E+04   -0.20405E-04   -0.17100E-04 10640   0.527E-04 0.252E-04
CGA:  20    -0.128341592297E+04   -0.33152E-05   -0.68789E-05 10640   0.348E-04 0.206E-04
CGA:  21    -0.128341593740E+04   -0.14437E-04   -0.14380E-04 10640   0.514E-04 0.414E-04
CGA:  22    -0.128341595130E+04   -0.13894E-04   -0.13039E-04 10640   0.109E-03-0.203E-04
CGA:  23    -0.128341600318E+04   -0.51879E-04   -0.43005E-04 10640   0.400E-03 0.242E-04
CGA:  24    -0.128341605995E+04   -0.56775E-04   -0.72054E-04 10640   0.618E-04 0.943E-04
CGA:  25    -0.128341608077E+04   -0.20818E-04   -0.21215E-04 10640   0.338E-04 0.155E-04
CGA:  26    -0.128341611565E+04   -0.34876E-04    0.17492E-04 10640   0.495E-04-0.855E-05
CGA:  27    -0.128341615745E+04   -0.41806E-04    0.63897E-05 10640   0.367E-04 0.204E-04
CGA:  28    -0.128341570873E+04    0.44872E-03   -0.24200E-03 10640   0.552E-02-0.332E-03
CGA:  29    -0.128341636187E+04   -0.65313E-03   -0.57278E-03 10640   0.181E-03-0.200E-03
CGA:  30    -0.128341638895E+04   -0.27088E-04   -0.30173E-04 10640   0.486E-04 0.902E-05
CGA:  31    -0.128341638959E+04   -0.63670E-06   -0.65804E-05 10640   0.654E-05 0.157E-04
  27 F= -.12834164E+04 E0= -.12834164E+04  d E =0.848894E-02  mag=    47.0000
       N       E                     dE             d eps       ncg     rms          ort
SDA:   1    -0.127902926891E+04    0.43871E+01    0.00000E+00 10640   0.120E+02 0.000E+00
CGA:   2    -0.128196070632E+04   -0.29314E+01   -0.29315E+01 10640   0.559E+01 0.360E-02
CGA:   3    -0.128316237989E+04   -0.12017E+01   -0.12048E+01 10640   0.120E+01-0.389E-02
CGA:   4    -0.128334078412E+04   -0.17840E+00   -0.17723E+00 10640   0.251E+00 0.118E-01
CGA:   5    -0.128338669272E+04   -0.45909E-01   -0.45902E-01 10640   0.685E-01-0.578E-03
CGA:   6    -0.128339938669E+04   -0.12694E-01   -0.12690E-01 10640   0.200E-01-0.548E-04
CGA:   7    -0.128340391527E+04   -0.45286E-02   -0.44854E-02 10640   0.618E-02-0.190E-03
CGA:   8    -0.128340540859E+04   -0.14933E-02   -0.14494E-02 10640   0.347E-02-0.267E-03
CGA:   9    -0.128340622931E+04   -0.82072E-03   -0.80308E-03 10640   0.195E-02-0.112E-03
CGA:  10    -0.128340677413E+04   -0.54482E-03   -0.53338E-03 10640   0.123E-02-0.110E-03
CGA:  11    -0.128340716428E+04   -0.39015E-03   -0.37517E-03 10640   0.117E-02-0.259E-03
CGA:  12    -0.128340736172E+04   -0.19744E-03   -0.20464E-03 10640   0.595E-03 0.450E-04
CGA:  13    -0.128340761465E+04   -0.25293E-03   -0.25054E-03 10640   0.536E-03 0.635E-04
CGA:  14    -0.128340782418E+04   -0.20954E-03   -0.20953E-03 10640   0.675E-03-0.531E-05
CGA:  15    -0.128340798856E+04   -0.16438E-03   -0.17986E-03 10640   0.321E-03 0.146E-03
CGA:  16    -0.128340807813E+04   -0.89566E-04   -0.99191E-04 10640   0.246E-03 0.834E-04
CGA:  17    -0.128340814258E+04   -0.64456E-04   -0.70429E-04 10640   0.103E-03 0.428E-04
CGA:  18    -0.128340817442E+04   -0.31836E-04   -0.35002E-04 10640   0.753E-04 0.492E-04
CGA:  19    -0.128340819655E+04   -0.22130E-04   -0.27057E-04 10640   0.459E-04 0.450E-04
[...]
CGA:  14    -0.128342745034E+04   -0.89817E-04   -0.94047E-04 10640   0.360E-03 0.146E-03
CGA:  15    -0.128342756856E+04   -0.11823E-03   -0.12498E-03 10640   0.612E-03-0.169E-03
CGA:  16    -0.128342760512E+04   -0.36555E-04   -0.36358E-04 10640   0.745E-03-0.409E-05
CGA:  17    -0.128342765046E+04   -0.45344E-04   -0.67643E-04 10640   0.523E-03 0.186E-03
CGA:  18    -0.128342768368E+04   -0.33214E-04   -0.64907E-04 10640   0.498E-03 0.300E-03
CGA:  19    -0.128342777159E+04   -0.87911E-04   -0.88298E-04 10640   0.292E-03 0.187E-04
CGA:  20    -0.128342780819E+04   -0.36602E-04   -0.43508E-04 10640   0.641E-04 0.127E-03
CGA:  21    -0.128342780969E+04   -0.15036E-05   -0.74413E-05 10640   0.356E-04 0.519E-04
  43 F= -.12834278E+04 E0= -.12834278E+04  d E =0.149346E-01  mag=    47.0000
       N       E                     dE             d eps       ncg     rms          ort
SDA:   1    -0.126428822345E+04    0.19140E+02    0.00000E+00 10640   0.608E+02 0.000E+00
CGA:   2    -0.127641473897E+04   -0.12127E+02   -0.12124E+02 10640   0.226E+02 0.154E+00
CGA:   3    -0.128215187795E+04   -0.57371E+01   -0.57341E+01 10640   0.557E+01 0.171E-01
CGA:   4    -0.128304475965E+04   -0.89288E+00   -0.89318E+00 10640   0.920E+00-0.453E-03
CGA:   5    -0.128323132298E+04   -0.18656E+00   -0.18648E+00 10640   0.229E+00 0.696E-02
CGA:   6    -0.128328106497E+04   -0.49742E-01   -0.49938E-01 10640   0.859E-01-0.723E-02
CGA:   7    -0.128329626201E+04   -0.15197E-01   -0.15203E-01 10640   0.231E-01 0.105E-02
CGA:   8    -0.128330233676E+04   -0.60748E-02   -0.62705E-02 10640   0.129E-01-0.247E-02
CGA:   9    -0.128330522497E+04   -0.28882E-02   -0.30485E-02 10640   0.921E-02-0.223E-02
CGA:  10    -0.128330703552E+04   -0.18105E-02   -0.18814E-02 10640   0.472E-02-0.142E-02
CGA:  11    -0.128330659396E+04    0.44156E-03   -0.27828E-02 10640   0.221E-01-0.648E-02
CGA:  12    -0.128330910090E+04   -0.25069E-02   -0.26447E-02 10640   0.400E-02 0.142E-02
CGA:  13    -0.128331020395E+04   -0.11030E-02   -0.11075E-02 10640   0.163E-02-0.109E-03
CGA:  14    -0.128331070113E+04   -0.49719E-03   -0.51776E-03 10640   0.170E-02-0.194E-03
CGA:  15    -0.128331102313E+04   -0.32200E-03   -0.32525E-03 10640   0.776E-03 0.330E-03
CGA:  16    -0.128331134520E+04   -0.32207E-03   -0.41144E-03 10640   0.177E-02-0.415E-03
CGA:  17    -0.128331158354E+04   -0.23834E-03   -0.24369E-03 10640   0.285E-03 0.592E-04
CGA:  18    -0.128331169564E+04   -0.11210E-03   -0.28876E-03 10640   0.204E-02-0.238E-03
CGA:  19    -0.128331198492E+04   -0.28929E-03   -0.26608E-03 10640   0.454E-03-0.162E-03
CGA:  20    -0.128331212183E+04   -0.13691E-03   -0.18269E-03 10640   0.798E-03-0.262E-03
CGA:  21    -0.128331219607E+04   -0.74241E-04   -0.88558E-04 10640   0.152E-03 0.917E-04
CGA:  22    -0.128331225754E+04   -0.61464E-04   -0.59834E-04 10640   0.187E-03 0.178E-04
CGA:  23    -0.128331238621E+04   -0.12867E-03    0.18485E-03 10640   0.200E-03 0.781E-04
CGA:  24    -0.128331256591E+04   -0.17970E-03    0.20726E-03 10640   0.232E-03 0.153E-03
CGA:  25    -0.128331259736E+04   -0.31451E-04   -0.37577E-04 10640   0.786E-04 0.583E-04
CGA:  26    -0.128331245914E+04    0.13822E-03   -0.86204E-04 10640   0.173E-02-0.230E-03
CGA:  27    -0.128331278320E+04   -0.32406E-03   -0.31026E-03 10640   0.679E-03-0.416E-04
CGA:  28    -0.128331290815E+04   -0.12495E-03   -0.12808E-03 10640   0.117E-03 0.129E-04
CGA:  29    -0.128331292645E+04   -0.18301E-04   -0.21712E-04 10640   0.344E-04 0.131E-04
CGA:  30    -0.128331296903E+04   -0.42582E-04    0.30762E-04 10640   0.429E-04 0.238E-04
CGA:  31    -0.128331298776E+04   -0.18724E-04   -0.23162E-04 10640   0.267E-03-0.432E-04
CGA:  32    -0.128331301229E+04   -0.24534E-04   -0.28367E-04 10640   0.281E-04 0.123E-04
CGA:  33    -0.128331302589E+04   -0.13602E-04   -0.13687E-04 10640   0.706E-04-0.216E-05
CGA:  34    -0.128331311217E+04   -0.86273E-04    0.25508E-04 10640   0.107E-03 0.453E-04
CGA:  35    -0.128331313179E+04   -0.19620E-04   -0.18389E-04 10640   0.260E-04-0.455E-05
CGA:  36    -0.128331313786E+04   -0.60729E-05   -0.64371E-05 10640   0.301E-04 0.231E-05
CGA:  37    -0.128331313934E+04   -0.14817E-05   -0.13379E-04 10640   0.844E-03-0.405E-04
CGA:  38    -0.128331330419E+04   -0.16485E-03   -0.12891E-03 10640   0.790E-04-0.573E-04
CGA:  39    -0.128331333332E+04   -0.29138E-04   -0.15359E-04 10640   0.504E-04-0.272E-04
CGA:  40    -0.128331334454E+04   -0.11216E-04   -0.78072E-05 10640   0.923E-05-0.738E-05
CGA:  41    -0.128331334251E+04    0.20274E-05   -0.96346E-06 10640   0.561E-05 0.551E-05
  44 F= -.12833133E+04 E0= -.12833133E+04  d E =0.114467E+00  mag=    47.0000
       N       E                     dE             d eps       ncg     rms          ort
SDA:   1    -0.128070983571E+04    0.26035E+01    0.00000E+00 10640   0.830E+01 0.000E+00
CGA:   2    -0.128245036181E+04   -0.17405E+01   -0.17410E+01 10640   0.329E+01 0.392E-02
CGA:   3    -0.128324689353E+04   -0.79653E+00   -0.79854E+00 10640   0.809E+00 0.400E-02
CGA:   4    -0.128337138019E+04   -0.12449E+00   -0.12483E+00 10640   0.138E+00 0.542E-02
CGA:   5    -0.128339820859E+04   -0.26828E-01   -0.27035E-01 10640   0.387E-01 0.822E-03
CGA:   6    -0.128340529392E+04   -0.70853E-02   -0.71763E-02 10640   0.126E-01 0.275E-03
CGA:   7    -0.128340782392E+04   -0.25300E-02   -0.25630E-02 10640   0.335E-02 0.134E-03
CGA:   8    -0.128340865394E+04   -0.83002E-03   -0.81721E-03 10640   0.162E-02-0.440E-04
CGA:   9    -0.128340894797E+04   -0.29403E-03   -0.33638E-03 10640   0.712E-03 0.154E-03
CGA:  10    -0.128340905137E+04   -0.10340E-03   -0.16460E-03 10640   0.246E-03 0.231E-03
CGA:  11    -0.128340906532E+04   -0.13949E-04   -0.62830E-04 10640   0.124E-03 0.181E-03
CGA:  12    -0.128340907753E+04   -0.12204E-04   -0.28199E-04 10640   0.852E-04 0.721E-04
CGA:  13    -0.128340907556E+04    0.19707E-05   -0.13570E-04 10640   0.694E-04 0.557E-04
CGA:  14    -0.128340907206E+04    0.34917E-05   -0.10698E-04 10640   0.591E-04 0.524E-04
  45 F= -.12834091E+04 E0= -.12834091E+04  d E =-.957296E-01  mag=    47.0000
       N       E                     dE             d eps       ncg     rms          ort
SDA:   1    -0.128327119803E+04    0.13788E+00    0.00000E+00 10640   0.431E+00 0.000E+00
CGA:   2    -0.128337070180E+04   -0.99504E-01   -0.99567E-01 10640   0.191E+00 0.462E-03
CGA:   3    -0.128341379507E+04   -0.43093E-01   -0.43033E-01 10640   0.425E-01-0.393E-03
CGA:   4    -0.128342019139E+04   -0.63963E-02   -0.63665E-02 10640   0.864E-02-0.837E-04
CGA:   5    -0.128342183387E+04   -0.16425E-02   -0.16071E-02 10640   0.246E-02-0.181E-03
CGA:   6    -0.128342229666E+04   -0.46279E-03   -0.45452E-03 10640   0.757E-03-0.454E-04
CGA:   7    -0.128342243079E+04   -0.13413E-03   -0.14826E-03 10640   0.206E-03 0.930E-04
CGA:   8    -0.128342249220E+04   -0.61405E-04   -0.63209E-04 10640   0.126E-03 0.254E-04
CGA:   9    -0.128342253380E+04   -0.41602E-04   -0.42700E-04 10640   0.101E-03 0.272E-04
CGA:  10    -0.128342258987E+04   -0.56072E-04   -0.69560E-04 10640   0.314E-03-0.604E-04
CGA:  11    -0.128342261276E+04   -0.22893E-04   -0.34282E-04 10640   0.723E-04 0.478E-04
CGA:  12    -0.128342262443E+04   -0.11669E-04   -0.16306E-04 10640   0.374E-04 0.325E-04
CGA:  13    -0.128342263516E+04   -0.10732E-04   -0.12259E-04 10640   0.465E-04 0.144E-04
CGA:  14    -0.128342264190E+04   -0.67401E-05   -0.11811E-04 10640   0.315E-04 0.354E-04
  46 F= -.12834226E+04 E0= -.12834226E+04  d E =-.135698E-01  mag=    47.0000
       N       E                     dE             d eps       ncg     rms          ort
SDA:   1    -0.127998032007E+04    0.34423E+01    0.00000E+00 10640   0.980E+01 0.000E+00
CGA:   2    -0.128226284345E+04   -0.22825E+01   -0.22829E+01 10640   0.433E+01 0.254E-02
CGA:   3    -0.128325926093E+04   -0.99642E+00   -0.99652E+00 10640   0.829E+00 0.394E-03
CGA:   4    -0.128339480818E+04   -0.13555E+00   -0.13560E+00 10640   0.155E+00 0.806E-03
CGA:   5    -0.128342662054E+04   -0.31812E-01   -0.31714E-01 10640   0.403E-01-0.106E-02
CGA:   6    -0.128343420675E+04   -0.75862E-02   -0.75579E-02 10640   0.156E-01-0.189E-03
CGA:   7    -0.128343703201E+04   -0.28253E-02   -0.28197E-02 10640   0.422E-02-0.246E-04
CGA:   8    -0.128343821866E+04   -0.11866E-02   -0.11865E-02 10640   0.221E-02-0.327E-03
CGA:   9    -0.128343875432E+04   -0.53567E-03   -0.53577E-03 10640   0.135E-02 0.845E-05
CGA:  10    -0.128343919312E+04   -0.43879E-03   -0.48938E-03 10640   0.195E-02-0.622E-03
CGA:  11    -0.128343939095E+04   -0.19783E-03   -0.18184E-03 10640   0.104E-02-0.143E-03
CGA:  12    -0.128343954903E+04   -0.15808E-03   -0.16863E-03 10640   0.913E-03 0.100E-03
CGA:  13    -0.128343976898E+04   -0.21995E-03   -0.21873E-03 10640   0.617E-03-0.236E-04
CGA:  14    -0.128343999100E+04   -0.22203E-03   -0.23308E-03 10640   0.109E-02-0.994E-04
CGA:  15    -0.128344009209E+04   -0.10109E-03   -0.12961E-03 10640   0.680E-03 0.207E-03
CGA:  16    -0.128344018321E+04   -0.91119E-04   -0.12059E-03 10640   0.549E-03 0.241E-03
CGA:  17    -0.128344033817E+04   -0.15496E-03   -0.15773E-03 10640   0.307E-03 0.500E-04
CGA:  18    -0.128344041195E+04   -0.73780E-04   -0.70405E-04 10640   0.292E-03-0.672E-04
CGA:  19    -0.128344041920E+04   -0.72453E-05   -0.25322E-04 10640   0.240E-03 0.121E-03
CGA:  20    -0.128344041951E+04   -0.31441E-06   -0.28960E-04 10640   0.111E-03 0.172E-03
CGA:  21    -0.128344044937E+04   -0.29857E-04   -0.29135E-04 10640   0.616E-04 0.358E-04
CGA:  22    -0.128344045518E+04   -0.58088E-05   -0.10705E-04 10640   0.246E-04 0.432E-04
  47 F= -.12834405E+04 E0= -.12834405E+04  d E =-.178133E-01  mag=    47.0000
       N       E                     dE             d eps       ncg     rms          ort
SDA:   1    -0.128305090451E+04    0.38954E+00    0.00000E+00 10640   0.101E+01 0.000E+00
CGA:   2    -0.128331873096E+04   -0.26783E+00   -0.26785E+00 10640   0.484E+00-0.617E-03
CGA:   3    -0.128342031441E+04   -0.10158E+00   -0.10159E+00 10640   0.827E-01 0.406E-03
CGA:   4    -0.128343368571E+04   -0.13371E-01   -0.13384E-01 10640   0.183E-01 0.215E-03
CGA:   5    -0.128343707210E+04   -0.33864E-02   -0.33772E-02 10640   0.531E-02-0.181E-03
CGA:   6    -0.128343802096E+04   -0.94886E-03   -0.94108E-03 10640   0.169E-02-0.149E-03
CGA:   7    -0.128343835661E+04   -0.33565E-03   -0.33671E-03 10640   0.408E-03 0.504E-04
CGA:   8    -0.128343848632E+04   -0.12971E-03   -0.14620E-03 10640   0.394E-03-0.133E-03
CGA:   9    -0.128343851889E+04   -0.32568E-04   -0.36551E-04 10640   0.174E-03 0.431E-04
CGA:  10    -0.128343854934E+04   -0.30450E-04   -0.32618E-04 10640   0.108E-03 0.374E-04
CGA:  11    -0.128343858115E+04   -0.31817E-04   -0.34578E-04 10640   0.140E-03-0.678E-04
CGA:  12    -0.128343859504E+04   -0.13882E-04   -0.16378E-04 10640   0.356E-04 0.232E-04
CGA:  13    -0.128343860823E+04   -0.13191E-04   -0.14654E-04 10640   0.356E-04-0.111E-04
CGA:  14    -0.128343860439E+04    0.38372E-05   -0.75216E-05 10640   0.257E-03-0.362E-04
CGA:  15    -0.128343863268E+04   -0.28292E-04   -0.42055E-04 10640   0.975E-04 0.553E-04
CGA:  16    -0.128343867021E+04   -0.37523E-04   -0.34156E-04 10640   0.439E-04-0.296E-04
CGA:  17    -0.128343867127E+04   -0.10618E-05   -0.37545E-05 10640   0.206E-04 0.989E-05
  48 F= -.12834387E+04 E0= -.12834387E+04  d E =0.178391E-02  mag=    47.0000
       N       E                     dE             d eps       ncg     rms          ort
SDA:   1    -0.126604292367E+04    0.17396E+02    0.00000E+00 10640   0.524E+02 0.000E+00
CGA:   2    -0.127718705329E+04   -0.11144E+02   -0.11162E+02 10640   0.212E+02 0.193E-01
CGA:   3    -0.128226216017E+04   -0.50751E+01   -0.50753E+01 10640   0.544E+01 0.188E-01
CGA:   4    -0.128306296444E+04   -0.80080E+00   -0.79990E+00 10640   0.104E+01 0.162E-01
CGA:   5    -0.128325045480E+04   -0.18749E+00   -0.18798E+00 10640   0.273E+00 0.475E-02
CGA:   6    -0.128330387835E+04   -0.53424E-01   -0.53358E-01 10640   0.818E-01-0.252E-04
CGA:   7    -0.128332240752E+04   -0.18529E-01   -0.18297E-01 10640   0.253E-01-0.214E-02
CGA:   8    -0.128332758350E+04   -0.51760E-02   -0.51148E-02 10640   0.117E-01-0.453E-03
CGA:   9    -0.128333074099E+04   -0.31575E-02   -0.30805E-02 10640   0.645E-02-0.150E-02
CGA:  10    -0.128333216696E+04   -0.14260E-02   -0.14005E-02 10640   0.306E-02-0.366E-03
CGA:  11    -0.128333307386E+04   -0.90690E-03   -0.90789E-03 10640   0.253E-02-0.906E-03
CGA:  12    -0.128333355591E+04   -0.48205E-03   -0.43219E-03 10640   0.159E-02-0.700E-03
CGA:  13    -0.128333386995E+04   -0.31404E-03   -0.70571E-03 10640   0.392E-02-0.128E-02
CGA:  14    -0.128333440834E+04   -0.53839E-03   -0.54220E-03 10640   0.124E-02 0.327E-04
CGA:  15    -0.128333466329E+04   -0.25495E-03   -0.27170E-03 10640   0.329E-03 0.170E-03
CGA:  16    -0.128333473314E+04   -0.69850E-04   -0.84864E-04 10640   0.194E-03 0.179E-03
CGA:  17    -0.128333480470E+04   -0.71556E-04   -0.10126E-03 10640   0.893E-03-0.138E-03
CGA:  18    -0.128333484884E+04   -0.44145E-04   -0.79463E-04 10640   0.884E-04 0.157E-03
CGA:  19    -0.128333484882E+04    0.23127E-07   -0.11413E-04 10640   0.714E-04 0.584E-04
CGA:  20    -0.128333468357E+04    0.16525E-03   -0.94062E-04 10640   0.382E-02-0.185E-03
CGA:  21    -0.128333496600E+04   -0.28243E-03   -0.35567E-03 10640   0.106E-03 0.178E-03
CGA:  22    -0.128333497689E+04   -0.10884E-04   -0.20055E-04 10640   0.578E-04 0.273E-04
CGA:  23    -0.128333506084E+04   -0.83955E-04    0.11697E-03 10640   0.141E-03-0.335E-04
CGA:  24    -0.128333506340E+04   -0.25616E-05   -0.18245E-04 10640   0.495E-04 0.426E-04
CGA:  25    -0.128333508155E+04   -0.18151E-04   -0.19660E-04 10640   0.336E-04 0.851E-05
CGA:  26    -0.128333513998E+04   -0.58428E-04    0.16437E-04 10640   0.154E-03-0.123E-04
CGA:  27    -0.128333523509E+04   -0.95104E-04    0.72974E-03 10640   0.737E-03-0.134E-03
CGA:  28    -0.128333527302E+04   -0.37935E-04   -0.84675E-04 10640   0.147E-03 0.133E-03
CGA:  29    -0.128333532116E+04   -0.48136E-04   -0.49750E-04 10640   0.540E-04 0.950E-05
CGA:  30    -0.128333527809E+04    0.43062E-04   -0.42477E-04 10640   0.151E-02-0.292E-03
CGA:  31    -0.128333534110E+04   -0.63007E-04   -0.13961E-03 10640   0.818E-04 0.216E-03
CGA:  32    -0.128333533718E+04    0.39237E-05   -0.99599E-05 10640   0.404E-04 0.414E-04
CGA:  33    -0.128333475477E+04    0.58241E-03   -0.31539E-03 10640   0.430E-02-0.298E-03
CGA:  34    -0.128333511210E+04   -0.35733E-03   -0.48660E-03 10640   0.544E-03 0.254E-03
CGA:  35    -0.128333535614E+04   -0.24404E-03   -0.23066E-03 10640   0.931E-04-0.389E-04
CGA:  36    -0.128333539151E+04   -0.35365E-04   -0.13880E-04 10640   0.321E-04-0.376E-04
CGA:  37    -0.128333538691E+04    0.45980E-05   -0.22250E-05 10640   0.139E-04 0.118E-04
  49 F= -.12833354E+04 E0= -.12833354E+04  d E =0.103284E+00  mag=    47.0000
       N       E                     dE             d eps       ncg     rms          ort
SDA:   1    -0.127891903445E+04    0.44164E+01    0.00000E+00 10640   0.135E+02 0.000E+00
CGA:   2    -0.128182500784E+04   -0.29060E+01   -0.29038E+01 10640   0.568E+01 0.332E-01
CGA:   3    -0.128312017768E+04   -0.12952E+01   -0.12991E+01 10640   0.157E+01-0.446E-02
CGA:   4    -0.128334584064E+04   -0.22566E+00   -0.22216E+00 10640   0.278E+00 0.245E-01
CGA:   5    -0.128339897785E+04   -0.53137E-01   -0.52915E-01 10640   0.739E-01 0.294E-03
CGA:   6    -0.128341357512E+04   -0.14597E-01   -0.14456E-01 10640   0.206E-01-0.432E-03
CGA:   7    -0.128341811934E+04   -0.45442E-02   -0.45446E-02 10640   0.628E-02 0.345E-04
CGA:   8    -0.128341950942E+04   -0.13901E-02   -0.13408E-02 10640   0.313E-02-0.152E-03
CGA:   9    -0.128342031293E+04   -0.80352E-03   -0.75258E-03 10640   0.154E-02-0.191E-03
CGA:  10    -0.128342080923E+04   -0.49630E-03   -0.44487E-03 10640   0.106E-02-0.270E-03
CGA:  11    -0.128342110564E+04   -0.29641E-03   -0.23360E-03 10640   0.764E-03-0.288E-03
CGA:  12    -0.128342128307E+04   -0.17743E-03   -0.14593E-03 10640   0.401E-03-0.147E-03
CGA:  13    -0.128342140474E+04   -0.12166E-03   -0.11704E-03 10640   0.339E-03-0.453E-04
CGA:  14    -0.128342150790E+04   -0.10316E-03   -0.95884E-04 10640   0.359E-03-0.521E-04
CGA:  15    -0.128342158991E+04   -0.82005E-04   -0.84185E-04 10640   0.186E-03 0.124E-04
CGA:  16    -0.128342162929E+04   -0.39381E-04   -0.48929E-04 10640   0.792E-04 0.508E-04
CGA:  17    -0.128342165423E+04   -0.24941E-04   -0.28244E-04 10640   0.410E-04 0.214E-04
CGA:  18    -0.128342165057E+04    0.36606E-05   -0.69456E-05 10640   0.240E-04 0.363E-04
  50 F= -.12834217E+04 E0= -.12834217E+04  d E =-.862637E-01  mag=    47.0000
       N       E                     dE             d eps       ncg     rms          ort
SDA:   1    -0.128324501439E+04    0.17664E+00    0.00000E+00 10640   0.596E+00 0.000E+00
CGA:   2    -0.128335959322E+04   -0.11458E+00   -0.11450E+00 10640   0.220E+00-0.207E-03
CGA:   3    -0.128341319453E+04   -0.53601E-01   -0.53668E-01 10640   0.727E-01 0.378E-03
CGA:   4    -0.128342355055E+04   -0.10356E-01   -0.10435E-01 10640   0.113E-01 0.379E-03
CGA:   5    -0.128342555110E+04   -0.20005E-02   -0.20279E-02 10640   0.315E-02 0.157E-03
CGA:   6    -0.128342614617E+04   -0.59507E-03   -0.61006E-03 10640   0.843E-03 0.923E-04
CGA:   7    -0.128342633570E+04   -0.18953E-03   -0.19270E-03 10640   0.232E-03 0.255E-04
CGA:   8    -0.128342638803E+04   -0.52331E-04   -0.52358E-04 10640   0.116E-03 0.557E-06
CGA:   9    -0.128342640589E+04   -0.17860E-04   -0.21362E-04 10640   0.401E-04 0.228E-04
CGA:  10    -0.128342640589E+04   -0.30850E-08   -0.61878E-05 10640   0.201E-04 0.309E-04
  51 F= -.12834264E+04 E0= -.12834264E+04  d E =-.475532E-02  mag=    47.0000
       N       E                     dE             d eps       ncg     rms          ort
SDA:   1    -0.128336063580E+04    0.65770E-01    0.00000E+00 10640   0.195E+00 0.000E+00
CGA:   2    -0.128340949548E+04   -0.48860E-01   -0.48851E-01 10640   0.887E-01-0.110E-03
CGA:   3    -0.128342863141E+04   -0.19136E-01   -0.19173E-01 10640   0.162E-01 0.419E-03
CGA:   4    -0.128343138720E+04   -0.27558E-02   -0.27538E-02 10640   0.327E-02-0.125E-04
CGA:   5    -0.128343206031E+04   -0.67311E-03   -0.66398E-03 10640   0.848E-03-0.982E-04
CGA:   6    -0.128343220169E+04   -0.14137E-03   -0.14542E-03 10640   0.287E-03 0.369E-04
CGA:   7    -0.128343224623E+04   -0.44548E-04   -0.50041E-04 10640   0.684E-04 0.472E-04
CGA:   8    -0.128343226261E+04   -0.16378E-04   -0.17602E-04 10640   0.294E-04 0.214E-04
CGA:   9    -0.128343226753E+04   -0.49183E-05   -0.67733E-05 10640   0.165E-04 0.185E-04
  52 F= -.12834323E+04 E0= -.12834323E+04  d E =-.586164E-02  mag=    47.0000
       N       E                     dE             d eps       ncg     rms          ort
SDA:   1    -0.128260355179E+04    0.82871E+00    0.00000E+00 10640   0.219E+01 0.000E+00
CGA:   2    -0.128319003905E+04   -0.58649E+00   -0.58649E+00 10640   0.101E+01-0.356E-04
CGA:   3    -0.128339856225E+04   -0.20852E+00   -0.20859E+00 10640   0.180E+00 0.120E-02
CGA:   4    -0.128342913074E+04   -0.30568E-01   -0.30529E-01 10640   0.405E-01-0.350E-03
CGA:   5    -0.128343660213E+04   -0.74714E-02   -0.74453E-02 10640   0.107E-01-0.313E-03
CGA:   6    -0.128343851532E+04   -0.19132E-02   -0.19005E-02 10640   0.359E-02-0.154E-03
CGA:   7    -0.128343921486E+04   -0.69954E-03   -0.70650E-03 10640   0.894E-03 0.141E-03
CGA:   8    -0.128343947203E+04   -0.25717E-03   -0.25760E-03 10640   0.478E-03-0.139E-04
CGA:   9    -0.128343958280E+04   -0.11077E-03   -0.11095E-03 10640   0.274E-03 0.139E-04
CGA:  10    -0.128343966415E+04   -0.81356E-04   -0.83893E-04 10640   0.193E-03-0.513E-04
CGA:  11    -0.128343969119E+04   -0.27031E-04   -0.29060E-04 10640   0.770E-04 0.306E-04
CGA:  12    -0.128343970468E+04   -0.13498E-04   -0.16165E-04 10640   0.406E-04 0.398E-04
CGA:  13    -0.128343970990E+04   -0.52220E-05   -0.68673E-05 10640   0.270E-04 0.218E-04
