       N       E                     dE             d eps       ncg     rms          ort
DAV:   1     0.102670923892E+05    0.10267E+05   -0.42438E+05 10640   0.155E+03
DAV:   2    -0.121653625089E+03   -0.10389E+05   -0.98066E+04 10640   0.474E+02
DAV:   3    -0.152330002594E+04   -0.14016E+04   -0.13067E+04 10640   0.181E+02
DAV:   4    -0.160451163254E+04   -0.81212E+02   -0.79031E+02 10640   0.460E+01
DAV:   5    -0.160685857643E+04   -0.23469E+01   -0.23394E+01 10640   0.836E+00
SDA:   6    -0.727215198040E+03    0.87964E+03   -0.23394E+01 10640   0.294E+04 0.000E+00
CGA:   7    -0.111819365505E+04   -0.39098E+03   -0.39030E+03 10640   0.155E+04-0.333E+02
CGA:   8    -0.113996212159E+04   -0.21768E+02   -0.85567E+02 10640   0.149E+04-0.966E+03
CGA:   9    -0.115090750950E+04   -0.10945E+02   -0.70997E+02 10640   0.225E+04-0.163E+04
CGA:  10    -0.113030114380E+04    0.20606E+02   -0.12425E+03 10640   0.278E+04-0.185E+04
CGA:  11    -0.113660977578E+04   -0.63086E+01   -0.13708E+03 10640   0.344E+04-0.312E+04
CGA:  12    -0.110845895850E+04    0.28151E+02   -0.18717E+03 10640   0.398E+04-0.316E+04
CGA:  13    -0.111460144442E+04   -0.61425E+01   -0.20186E+03 10640   0.452E+04-0.431E+04
CGA:  14    -0.109745481727E+04    0.17147E+02   -0.24216E+03 10640   0.460E+04-0.409E+04
CGA:  15    -0.112443193739E+04   -0.26977E+02   -0.22972E+03 10640   0.453E+04-0.477E+04
CGA:  16    -0.114057936213E+04   -0.16147E+02   -0.22779E+03 10640   0.371E+04-0.384E+04
CGA:  17    -0.119760317509E+04   -0.57024E+02   -0.16574E+03 10640   0.224E+04-0.300E+04
CGA:  18    -0.123743078270E+04   -0.39828E+02   -0.90246E+02 10640   0.845E+03-0.131E+04
CGA:  19    -0.125690937992E+04   -0.19479E+02   -0.28870E+02 10640   0.148E+03-0.278E+03
CGA:  20    -0.126230889148E+04   -0.53995E+01   -0.42749E+01 10640   0.276E+02 0.239E+02
CGA:  21    -0.126644945437E+04   -0.41406E+01   -0.41381E+01 10640   0.103E+03 0.124E+00
CGA:  22    -0.127610788687E+04   -0.96584E+01   -0.94090E+01 10640   0.444E+02 0.246E+01
CGA:  23    -0.127713454401E+04   -0.10267E+01   -0.11056E+01 10640   0.104E+02-0.439E+01
CGA:  24    -0.127770154807E+04   -0.56700E+00   -0.59276E+00 10640   0.125E+02-0.531E+00
CGA:  25    -0.127883611395E+04   -0.11346E+01   -0.11635E+01 10640   0.150E+02 0.538E-01
CGA:  26    -0.127990721213E+04   -0.10711E+01   -0.10196E+01 10640   0.450E+01-0.130E+00
CGA:  27    -0.128047679004E+04   -0.56958E+00   -0.57597E+00 10640   0.651E+01-0.443E+00
CGA:  28    -0.128119231281E+04   -0.71552E+00   -0.72199E+00 10640   0.460E+01-0.749E+00
CGA:  29    -0.128160243890E+04   -0.41013E+00   -0.40938E+00 10640   0.289E+01-0.418E+00
CGA:  30    -0.128214154822E+04   -0.53911E+00   -0.56054E+00 10640   0.363E+01-0.270E+00
CGA:  31    -0.128266764371E+04   -0.52610E+00   -0.55118E+00 10640   0.128E+01-0.563E+00
CGA:  32    -0.128288961638E+04   -0.22197E+00   -0.25460E+00 10640   0.138E+01-0.282E+00
CGA:  33    -0.128315284560E+04   -0.26323E+00   -0.30782E+00 10640   0.649E+00-0.279E+00
CGA:  34    -0.128325356121E+04   -0.10072E+00   -0.10306E+00 10640   0.368E+00-0.368E-01
CGA:  35    -0.128334477693E+04   -0.91216E-01   -0.83632E-01 10640   0.196E+00 0.733E-01
CGA:  36    -0.128338465484E+04   -0.39878E-01   -0.38371E-01 10640   0.911E-01 0.720E-01
CGA:  37    -0.128340575260E+04   -0.21098E-01   -0.19981E-01 10640   0.611E-01 0.651E-01
CGA:  38    -0.128341716814E+04   -0.11416E-01   -0.10580E-01 10640   0.312E-01 0.288E-01
CGA:  39    -0.128342340077E+04   -0.62326E-02   -0.64241E-02 10640   0.243E-01 0.346E-01
CGA:  40    -0.128342587964E+04   -0.24789E-02   -0.29323E-02 10640   0.170E-01 0.184E-01
CGA:  41    -0.128342724215E+04   -0.13625E-02   -0.18875E-02 10640   0.149E-01 0.158E-01
CGA:  42    -0.128342823428E+04   -0.99213E-03   -0.15394E-02 10640   0.133E-01 0.140E-01
CGA:  43    -0.128342896674E+04   -0.73246E-03   -0.12813E-02 10640   0.119E-01 0.125E-01
CGA:  44    -0.128342951163E+04   -0.54490E-03   -0.10826E-02 10640   0.108E-01 0.113E-01
CGA:  45    -0.128342991932E+04   -0.40768E-03   -0.92677E-03 10640   0.990E-02 0.103E-01
CGA:  46    -0.128343022547E+04   -0.30615E-03   -0.80246E-03 10640   0.912E-02 0.947E-02
CGA:  47    -0.128343045576E+04   -0.23029E-03   -0.70185E-03 10640   0.845E-02 0.875E-02
CGA:  48    -0.128343062886E+04   -0.17310E-03   -0.61931E-03 10640   0.787E-02 0.814E-02
CGA:  49    -0.128343075849E+04   -0.12963E-03   -0.55076E-03 10640   0.736E-02 0.760E-02
CGA:  50    -0.128343085487E+04   -0.96380E-04   -0.49320E-03 10640   0.692E-02 0.713E-02
CGA:  51    -0.128343092564E+04   -0.70773E-04   -0.44437E-03 10640   0.653E-02 0.671E-02
CGA:  52    -0.128343097659E+04   -0.50945E-04   -0.40257E-03 10640   0.618E-02 0.635E-02
CGA:  53    -0.128343101211E+04   -0.35524E-04   -0.36648E-03 10640   0.587E-02 0.602E-02
CGA:  54    -0.128343103559E+04   -0.23485E-04   -0.33507E-03 10640   0.559E-02 0.572E-02
CGA:  55    -0.128343104966E+04   -0.14067E-04   -0.30756E-03 10640   0.533E-02 0.546E-02
CGA:  56    -0.128343105635E+04   -0.66834E-05   -0.28330E-03 10640   0.510E-02 0.522E-02
CGA:  57    -0.128343105724E+04   -0.89466E-06   -0.26178E-03 10640   0.490E-02 0.500E-02
CGA:  58    -0.128343105360E+04    0.36351E-05   -0.24261E-03 10640   0.470E-02 0.480E-02
CGA:  59    -0.128343104643E+04    0.71703E-05   -0.22543E-03 10640   0.453E-02 0.461E-02
CGA:  60    -0.128343103652E+04    0.99163E-05   -0.20998E-03 10640   0.437E-02 0.445E-02
CGA:  61    -0.128343102448E+04    0.12036E-04   -0.19602E-03 10640   0.422E-02 0.429E-02
CGA:  62    -0.128343101083E+04    0.13649E-04   -0.18337E-03 10640   0.408E-02 0.415E-02
CGA:  63    -0.128343099598E+04    0.14858E-04   -0.17185E-03 10640   0.396E-02 0.402E-02
CGA:  64    -0.128343098023E+04    0.15746E-04   -0.16134E-03 10640   0.384E-02 0.390E-02
CGA:  65    -0.128343096386E+04    0.16368E-04   -0.15173E-03 10640   0.373E-02 0.378E-02
CGA:  66    -0.128343094708E+04    0.16777E-04   -0.14290E-03 10640   0.363E-02 0.368E-02
CGA:  67    -0.128343093007E+04    0.17016E-04   -0.13478E-03 10640   0.353E-02 0.358E-02
CGA:  68    -0.128343091295E+04    0.17118E-04   -0.12729E-03 10640   0.344E-02 0.349E-02
CGA:  69    -0.128343089584E+04    0.17109E-04   -0.12037E-03 10640   0.336E-02 0.340E-02
CGA:  70    -0.128343087883E+04    0.17007E-04   -0.11397E-03 10640   0.328E-02 0.332E-02
CGA:  71    -0.128343086200E+04    0.16834E-04   -0.10802E-03 10640   0.321E-02 0.325E-02
CGA:  72    -0.128343084540E+04    0.16604E-04   -0.10249E-03 10640   0.314E-02 0.318E-02
CGA:  73    -0.128343082907E+04    0.16330E-04   -0.97345E-04 10640   0.308E-02 0.311E-02
CGA:  74    -0.128343081305E+04    0.16020E-04   -0.92544E-04 10640   0.302E-02 0.305E-02
CGA:  75    -0.128343079736E+04    0.15682E-04   -0.88060E-04 10640   0.296E-02 0.299E-02
CGA:  76    -0.128343078204E+04    0.15326E-04   -0.83864E-04 10640   0.290E-02 0.293E-02
CGA:  77    -0.128343076708E+04    0.14954E-04   -0.79933E-04 10640   0.285E-02 0.288E-02
CGA:  78    -0.128343075251E+04    0.14572E-04   -0.76245E-04 10640   0.280E-02 0.283E-02
CGA:  79    -0.128343073833E+04    0.14184E-04   -0.72781E-04 10640   0.276E-02 0.278E-02
CGA:  80    -0.128343072454E+04    0.13792E-04   -0.69524E-04 10640   0.271E-02 0.273E-02
CGA:  81    -0.128343071114E+04    0.13399E-04   -0.66457E-04 10640   0.267E-02 0.269E-02
CGA:  82    -0.128343069813E+04    0.13007E-04   -0.63566E-04 10640   0.263E-02 0.265E-02
CGA:  83    -0.128343068551E+04    0.12620E-04   -0.60838E-04 10640   0.259E-02 0.261E-02
CGA:  84    -0.128343067327E+04    0.12236E-04   -0.58261E-04 10640   0.256E-02 0.258E-02
CGA:  85    -0.128343066142E+04    0.11857E-04   -0.55825E-04 10640   0.252E-02 0.254E-02
CGA:  86    -0.128343064993E+04    0.11487E-04   -0.53519E-04 10640   0.249E-02 0.251E-02
CGA:  87    -0.128343063881E+04    0.11122E-04   -0.51335E-04 10640   0.246E-02 0.248E-02
CGA:  88    -0.128343062804E+04    0.10766E-04   -0.49264E-04 10640   0.243E-02 0.244E-02
CGA:  89    -0.128343061762E+04    0.10418E-04   -0.47300E-04 10640   0.240E-02 0.242E-02
CGA:  90    -0.128343060754E+04    0.10079E-04   -0.45434E-04 10640   0.238E-02 0.239E-02
CGA:  91    -0.128343059780E+04    0.97484E-05   -0.43661E-04 10640   0.235E-02 0.236E-02
CGA:  92    -0.128343058837E+04    0.94263E-05   -0.41974E-04 10640   0.232E-02 0.234E-02
CGA:  93    -0.128343057926E+04    0.91130E-05   -0.40369E-04 10640   0.230E-02 0.231E-02
CGA:  94    -0.128343057045E+04    0.88112E-05   -0.38840E-04 10640   0.228E-02 0.229E-02
CGA:  95    -0.128343056193E+04    0.85153E-05   -0.37383E-04 10640   0.226E-02 0.227E-02
CGA:  96    -0.128343055370E+04    0.82298E-05   -0.35993E-04 10640   0.224E-02 0.225E-02
CGA:  97    -0.128343054575E+04    0.79537E-05   -0.34667E-04 10640   0.222E-02 0.223E-02
CGA:  98    -0.128343053806E+04    0.76848E-05   -0.33400E-04 10640   0.220E-02 0.221E-02
CGA:  99    -0.128343053063E+04    0.74265E-05   -0.32190E-04 10640   0.218E-02 0.219E-02
CGA: 100    -0.128343052346E+04    0.71742E-05   -0.31034E-04 10640   0.216E-02 0.217E-02
CGA: 101    -0.128343051653E+04    0.69326E-05   -0.29928E-04 10640   0.214E-02 0.215E-02
CGA: 102    -0.128343050983E+04    0.66977E-05   -0.28869E-04 10640   0.213E-02 0.214E-02
CGA: 103    -0.128343050336E+04    0.64708E-05   -0.27855E-04 10640   0.211E-02 0.212E-02
CGA: 104    -0.128343049711E+04    0.62514E-05   -0.26884E-04 10640   0.210E-02 0.210E-02
CGA: 105    -0.128343049107E+04    0.60405E-05   -0.25953E-04 10640   0.208E-02 0.209E-02
CGA: 106    -0.128343048523E+04    0.58357E-05   -0.25061E-04 10640   0.207E-02 0.207E-02
CGA: 107    -0.128343047959E+04    0.56391E-05   -0.24205E-04 10640   0.205E-02 0.206E-02
CGA: 108    -0.128343047414E+04    0.54479E-05   -0.23384E-04 10640   0.204E-02 0.205E-02
CGA: 109    -0.128343046888E+04    0.52647E-05   -0.22595E-04 10640   0.203E-02 0.204E-02
CGA: 110    -0.128343046379E+04    0.50879E-05   -0.21837E-04 10640   0.202E-02 0.202E-02
CGA: 111    -0.128343045888E+04    0.49160E-05   -0.21110E-04 10640   0.201E-02 0.201E-02
CGA: 112    -0.128343045413E+04    0.47512E-05   -0.20410E-04 10640   0.199E-02 0.200E-02
CGA: 113    -0.128343044953E+04    0.45911E-05   -0.19737E-04 10640   0.198E-02 0.199E-02
CGA: 114    -0.128343044510E+04    0.44387E-05   -0.19090E-04 10640   0.197E-02 0.198E-02
CGA: 115    -0.128343044081E+04    0.42897E-05   -0.18468E-04 10640   0.196E-02 0.197E-02
CGA: 116    -0.128343043666E+04    0.41472E-05   -0.17868E-04 10640   0.195E-02 0.196E-02
CGA: 117    -0.128343043265E+04    0.40095E-05   -0.17291E-04 10640   0.194E-02 0.195E-02
CGA: 118    -0.128343042877E+04    0.38759E-05   -0.16736E-04 10640   0.193E-02 0.194E-02
CGA: 119    -0.128343042503E+04    0.37477E-05   -0.16200E-04 10640   0.193E-02 0.193E-02
CGA: 120    -0.128343042140E+04    0.36240E-05   -0.15684E-04 10640   0.192E-02 0.192E-02
CGA: 121    -0.128343041790E+04    0.35045E-05   -0.15187E-04 10640   0.191E-02 0.191E-02
CGA: 122    -0.128343041451E+04    0.33892E-05   -0.14707E-04 10640   0.190E-02 0.191E-02
CGA: 123    -0.128343041123E+04    0.32791E-05   -0.14245E-04 10640   0.189E-02 0.190E-02
CGA: 124    -0.128343040806E+04    0.31707E-05   -0.13799E-04 10640   0.189E-02 0.189E-02
CGA: 125    -0.128343040499E+04    0.30681E-05   -0.13368E-04 10640   0.188E-02 0.188E-02
CGA: 126    -0.128343040202E+04    0.29683E-05   -0.12952E-04 10640   0.187E-02 0.188E-02
CGA: 127    -0.128343039915E+04    0.28717E-05   -0.12551E-04 10640   0.187E-02 0.187E-02
CGA: 128    -0.128343039637E+04    0.27785E-05   -0.12164E-04 10640   0.186E-02 0.186E-02
CGA: 129    -0.128343039368E+04    0.26897E-05   -0.11790E-04 10640   0.185E-02 0.186E-02
CGA: 130    -0.128343039108E+04    0.26030E-05   -0.11428E-04 10640   0.185E-02 0.185E-02
CGA: 131    -0.128343038856E+04    0.25190E-05   -0.11079E-04 10640   0.184E-02 0.184E-02
CGA: 132    -0.128343038612E+04    0.24380E-05   -0.10741E-04 10640   0.184E-02 0.184E-02
CGA: 133    -0.128343038376E+04    0.23610E-05   -0.10415E-04 10640   0.183E-02 0.183E-02
CGA: 134    -0.128343038147E+04    0.22860E-05   -0.10100E-04 10640   0.183E-02 0.183E-02
   1 F= -.12834304E+04 E0= -.12834304E+04  d E =-.128343E+04  mag=    47.0000
       N       E                     dE             d eps       ncg     rms          ort
SDA:   1    -0.128342867984E+04    0.17039E-02    0.00000E+00 10640   0.367E-02 0.000E+00
CGA:   2    -0.128342883651E+04   -0.15667E-03   -0.10209E-03 10640   0.308E-02 0.337E-02
CGA:   3    -0.128342894776E+04   -0.11125E-03   -0.75846E-04 10640   0.272E-02 0.290E-02
CGA:   4    -0.128342903503E+04   -0.87275E-04   -0.62000E-04 10640   0.248E-02 0.260E-02
CGA:   5    -0.128342910718E+04   -0.72151E-04   -0.53208E-04 10640   0.229E-02 0.239E-02
CGA:   6    -0.128342916875E+04   -0.61564E-04   -0.46992E-04 10640   0.215E-02 0.222E-02
CGA:   7    -0.128342922238E+04   -0.53635E-04   -0.42278E-04 10640   0.202E-02 0.208E-02
CGA:   8    -0.128342926980E+04   -0.47415E-04   -0.38527E-04 10640   0.192E-02 0.197E-02
CGA:   9    -0.128342931217E+04   -0.42367E-04   -0.35438E-04 10640   0.183E-02 0.187E-02
CGA:  10    -0.128342935034E+04   -0.38170E-04   -0.32829E-04 10640   0.175E-02 0.179E-02
CGA:  11    -0.128342938495E+04   -0.34619E-04   -0.30584E-04 10640   0.168E-02 0.172E-02
CGA:  12    -0.128342941652E+04   -0.31569E-04   -0.28623E-04 10640   0.162E-02 0.165E-02
CGA:  13    -0.128342944544E+04   -0.28922E-04   -0.26892E-04 10640   0.157E-02 0.159E-02
CGA:  14    -0.128342947205E+04   -0.26607E-04   -0.25351E-04 10640   0.152E-02 0.154E-02
CGA:  15    -0.128342949662E+04   -0.24565E-04   -0.23967E-04 10640   0.147E-02 0.149E-02
CGA:  16    -0.128342951937E+04   -0.22755E-04   -0.22718E-04 10640   0.143E-02 0.145E-02
CGA:  17    -0.128342954051E+04   -0.21142E-04   -0.21585E-04 10640   0.139E-02 0.141E-02
CGA:  18    -0.128342956021E+04   -0.19700E-04   -0.20552E-04 10640   0.135E-02 0.137E-02
CGA:  19    -0.128342957862E+04   -0.18406E-04   -0.19607E-04 10640   0.132E-02 0.134E-02
CGA:  20    -0.128342959586E+04   -0.17240E-04   -0.18739E-04 10640   0.129E-02 0.131E-02
CGA:  21    -0.128342961205E+04   -0.16187E-04   -0.17940E-04 10640   0.126E-02 0.128E-02
CGA:  22    -0.128342962728E+04   -0.15232E-04   -0.17202E-04 10640   0.124E-02 0.125E-02
CGA:  23    -0.128342964164E+04   -0.14366E-04   -0.16518E-04 10640   0.121E-02 0.122E-02
CGA:  24    -0.128342965522E+04   -0.13579E-04   -0.15884E-04 10640   0.119E-02 0.120E-02
CGA:  25    -0.128342966808E+04   -0.12860E-04   -0.15293E-04 10640   0.117E-02 0.118E-02
CGA:  26    -0.128342968029E+04   -0.12203E-04   -0.14743E-04 10640   0.115E-02 0.116E-02
CGA:  27    -0.128342969189E+04   -0.11602E-04   -0.14228E-04 10640   0.113E-02 0.114E-02
CGA:  28    -0.128342970294E+04   -0.11050E-04   -0.13746E-04 10640   0.111E-02 0.112E-02
CGA:  29    -0.128342971348E+04   -0.10545E-04   -0.13295E-04 10640   0.109E-02 0.110E-02
CGA:  30    -0.128342972356E+04   -0.10078E-04   -0.12870E-04 10640   0.108E-02 0.108E-02
CGA:  31    -0.128342973321E+04   -0.96485E-05   -0.12471E-04 10640   0.106E-02 0.107E-02
CGA:  32    -0.128342974246E+04   -0.92523E-05   -0.12095E-04 10640   0.105E-02 0.105E-02
CGA:  33    -0.128342975135E+04   -0.88847E-05   -0.11739E-04 10640   0.103E-02 0.104E-02
CGA:  34    -0.128342975989E+04   -0.85444E-05   -0.11403E-04 10640   0.102E-02 0.103E-02
CGA:  35    -0.128342976812E+04   -0.82301E-05   -0.11086E-04 10640   0.101E-02 0.101E-02
CGA:  36    -0.128342977606E+04   -0.79371E-05   -0.10784E-04 10640   0.995E-03 0.100E-02
CGA:  37    -0.128342978372E+04   -0.76645E-05   -0.10498E-04 10640   0.984E-03 0.990E-03
CGA:  38    -0.128342979113E+04   -0.74106E-05   -0.10226E-04 10640   0.974E-03 0.979E-03
   2 F= -.12834298E+04 E0= -.12834298E+04  d E =0.590342E-03  mag=    47.0000
       N       E                     dE             d eps       ncg     rms          ort
SDA:   1    -0.128330397819E+04    0.12581E+00    0.00000E+00 10640   0.333E+00 0.000E+00
CGA:   2    -0.128335131879E+04   -0.47341E-01   -0.50881E-01 10640   0.174E+00 0.228E+00
CGA:   3    -0.128339476975E+04   -0.43451E-01   -0.36072E-01 10640   0.763E-01 0.109E+00
CGA:   4    -0.128342499794E+04   -0.30228E-01   -0.11177E-01 10640   0.157E-01 0.321E-01
CGA:   5    -0.128343262880E+04   -0.76309E-02   -0.70418E-02 10640   0.184E-02 0.248E-02
CGA:   6    -0.128343306699E+04   -0.43819E-03   -0.36522E-03 10640   0.792E-03 0.897E-03
CGA:   7    -0.128343338030E+04   -0.31331E-03   -0.23943E-03 10640   0.560E-03 0.680E-03
CGA:   8    -0.128343362549E+04   -0.24519E-03   -0.18726E-03 10640   0.556E-03 0.245E-03
CGA:   9    -0.128343394669E+04   -0.32120E-03   -0.21807E-03 10640   0.437E-03 0.637E-03
CGA:  10    -0.128343410778E+04   -0.16109E-03   -0.14079E-03 10640   0.703E-03 0.988E-04
CGA:  11    -0.128343443440E+04   -0.32662E-03   -0.25803E-03 10640   0.754E-03 0.402E-03
CGA:  12    -0.128343460172E+04   -0.16732E-03   -0.17835E-03 10640   0.752E-03-0.112E-03
CGA:  13    -0.128343476133E+04   -0.15961E-03   -0.16474E-03 10640   0.774E-03-0.461E-04
CGA:  14    -0.128343497806E+04   -0.21673E-03    0.59768E-01 10640   0.656E-03 0.665E-03
CGA:  15    -0.128343512388E+04   -0.14582E-03   -0.14832E-03 10640   0.557E-03-0.324E-04
CGA:  16    -0.128343524489E+04   -0.12101E-03   -0.11993E-03 10640   0.378E-03 0.139E-04
CGA:  17    -0.128343537549E+04   -0.13060E-03    0.40260E-03 10640   0.345E-03 0.367E-03
CGA:  18    -0.128343546879E+04   -0.93299E-04   -0.17615E-03 10640   0.145E-02-0.235E-03
CGA:  19    -0.128343560650E+04   -0.13771E-03   -0.14101E-03 10640   0.189E-03 0.464E-04
CGA:  20    -0.128343580094E+04   -0.19444E-03   -0.21776E-05 10640   0.657E-03-0.528E-04
CGA:  21    -0.128343578904E+04    0.11906E-04   -0.57387E-03 10640   0.934E-02-0.666E-03
CGA:  22    -0.128343675183E+04   -0.96279E-03   -0.96068E-03 10640   0.108E-02 0.250E-04
CGA:  23    -0.128343709063E+04   -0.33880E-03   -0.33651E-03 10640   0.402E-04-0.694E-04
CGA:  24    -0.128343708553E+04    0.50925E-05   -0.25369E-05 10640   0.249E-04 0.278E-04
   3 F= -.12834371E+04 E0= -.12834371E+04  d E =-.729440E-02  mag=    47.0000
       N       E                     dE             d eps       ncg     rms          ort
SDA:   1    -0.128182071099E+04    0.16164E+01    0.00000E+00 10640   0.423E+01 0.000E+00
CGA:   2    -0.128292728712E+04   -0.11066E+01   -0.11064E+01 10640   0.201E+01-0.267E-02
CGA:   3    -0.128336630053E+04   -0.43901E+00   -0.43920E+00 10640   0.315E+00 0.129E-02
CGA:   4    -0.128342032431E+04   -0.54024E-01   -0.54079E-01 10640   0.628E-01 0.380E-03
CGA:   5    -0.128343315311E+04   -0.12829E-01   -0.12903E-01 10640   0.143E-01 0.775E-03
CGA:   6    -0.128343632313E+04   -0.31700E-02   -0.31649E-02 10640   0.568E-02-0.557E-04
CGA:   7    -0.128343726696E+04   -0.94384E-03   -0.93155E-03 10640   0.178E-02-0.860E-04
CGA:   8    -0.128343770722E+04   -0.44026E-03   -0.43470E-03 10640   0.748E-03-0.142E-03
CGA:   9    -0.128343787115E+04   -0.16392E-03   -0.16677E-03 10640   0.299E-03 0.677E-04
CGA:  10    -0.128343794350E+04   -0.72354E-04   -0.74258E-04 10640   0.134E-03 0.348E-04
CGA:  11    -0.128343796532E+04   -0.21819E-04   -0.26334E-04 10640   0.435E-04 0.437E-04
CGA:  12    -0.128343797416E+04   -0.88361E-05   -0.11140E-04 10640   0.215E-04 0.281E-04
   4 F= -.12834380E+04 E0= -.12834380E+04  d E =-.888622E-03  mag=    47.0000
       N       E                     dE             d eps       ncg     rms          ort
SDA:   1    -0.127344058834E+04    0.99974E+01    0.00000E+00 10640   0.255E+02 0.000E+00
CGA:   2    -0.128039967479E+04   -0.69591E+01   -0.69591E+01 10640   0.122E+02-0.736E-02
CGA:   3    -0.128299514127E+04   -0.25955E+01   -0.25956E+01 10640   0.185E+01-0.268E-03
CGA:   4    -0.128331427511E+04   -0.31913E+00   -0.31938E+00 10640   0.392E+00 0.211E-02
CGA:   5    -0.128339249981E+04   -0.78225E-01   -0.78237E-01 10640   0.974E-01 0.418E-03
CGA:   6    -0.128341197617E+04   -0.19476E-01   -0.19440E-01 10640   0.373E-01-0.460E-03
CGA:   7    -0.128341905215E+04   -0.70760E-02   -0.69416E-02 10640   0.111E-01-0.188E-02
CGA:   8    -0.128342160612E+04   -0.25540E-02   -0.25455E-02 10640   0.520E-02-0.636E-03
CGA:   9    -0.128342285625E+04   -0.12501E-02   -0.12517E-02 10640   0.342E-02-0.780E-03
CGA:  10    -0.128342357683E+04   -0.72058E-03   -0.71421E-03 10640   0.165E-02-0.816E-03
CGA:  11    -0.128342392757E+04   -0.35074E-03   -0.37903E-03 10640   0.103E-02-0.581E-03
CGA:  12    -0.128342409817E+04   -0.17061E-03   -0.17168E-03 10640   0.760E-03-0.400E-03
CGA:  13    -0.128342422559E+04   -0.12742E-03   -0.18820E-03 10640   0.965E-03-0.403E-03
CGA:  14    -0.128342433245E+04   -0.10685E-03   -0.11784E-03 10640   0.298E-03 0.804E-04
CGA:  15    -0.128342441714E+04   -0.84694E-04   -0.84341E-04 10640   0.876E-04 0.642E-04
CGA:  16    -0.128342444432E+04   -0.27178E-04   -0.27199E-04 10640   0.849E-04 0.346E-04
CGA:  17    -0.128342445469E+04   -0.10367E-04   -0.16982E-04 10640   0.308E-04 0.587E-04
CGA:  18    -0.128342445963E+04   -0.49427E-05   -0.60771E-05 10640   0.210E-04 0.214E-04
CGA:  19    -0.128342447087E+04   -0.11241E-04    0.31755E-04 10640   0.187E-04 0.159E-04
CGA:  20    -0.128342447195E+04   -0.10743E-05   -0.26174E-05 10640   0.156E-04 0.143E-04
CGA:  21    -0.128342447985E+04   -0.79078E-05    0.43734E-04 10640   0.153E-04 0.132E-04
   5 F= -.12834245E+04 E0= -.12834245E+04  d E =0.134943E-01  mag=    47.0000
       N       E                     dE             d eps       ncg     rms          ort
SDA:   1    -0.127614329372E+04    0.72812E+01    0.00000E+00 10640   0.196E+02 0.000E+00
CGA:   2    -0.128100150087E+04   -0.48582E+01   -0.48582E+01 10640   0.918E+01-0.423E-02
CGA:   3    -0.128306665417E+04   -0.20652E+01   -0.20652E+01 10640   0.158E+01 0.207E-02
CGA:   4    -0.128332645846E+04   -0.25980E+00   -0.25977E+00 10640   0.306E+00-0.841E-03
CGA:   5    -0.128338824861E+04   -0.61790E-01   -0.61841E-01 10640   0.767E-01 0.158E-02
CGA:   6    -0.128340412761E+04   -0.15879E-01   -0.15831E-01 10640   0.289E-01-0.147E-02
CGA:   7    -0.128340940323E+04   -0.52756E-02   -0.52321E-02 10640   0.811E-02-0.820E-03
CGA:   8    -0.128341141085E+04   -0.20076E-02   -0.20307E-02 10640   0.416E-02-0.902E-03
CGA:   9    -0.128341233913E+04   -0.92828E-03   -0.94673E-03 10640   0.285E-02-0.814E-03
CGA:  10    -0.128341289310E+04   -0.55397E-03   -0.56144E-03 10640   0.138E-02-0.721E-03
CGA:  11    -0.128341316598E+04   -0.27288E-03   -0.38536E-03 10640   0.154E-02-0.809E-03
CGA:  12    -0.128341336140E+04   -0.19542E-03   -0.19144E-03 10640   0.386E-03-0.291E-04
CGA:  13    -0.128341348648E+04   -0.12508E-03   -0.13164E-03 10640   0.220E-03-0.590E-04
CGA:  14    -0.128341354478E+04   -0.58300E-04   -0.61501E-04 10640   0.239E-03-0.363E-04
CGA:  15    -0.128341360195E+04   -0.57175E-04   -0.74277E-04 10640   0.326E-03-0.135E-03
CGA:  16    -0.128341364514E+04   -0.43187E-04   -0.43011E-04 10640   0.978E-04-0.708E-06
CGA:  17    -0.128341367553E+04   -0.30390E-04   -0.30342E-04 10640   0.506E-04 0.668E-06
CGA:  18    -0.128341370456E+04   -0.29034E-04    0.45200E-04 10640   0.310E-04 0.254E-04
CGA:  19    -0.128341371431E+04   -0.97476E-05   -0.95934E-05 10640   0.372E-04 0.256E-05
CGA:  20    -0.128341373495E+04   -0.20644E-04    0.40680E-03 10640   0.262E-04 0.155E-04
CGA:  21    -0.128341375891E+04   -0.23951E-04    0.16908E-04 10640   0.243E-04 0.287E-04
CGA:  22    -0.128341376077E+04   -0.18606E-05   -0.32718E-05 10640   0.130E-04 0.119E-04
   6 F= -.12834138E+04 E0= -.12834138E+04  d E =0.107191E-01  mag=    47.0000
       N       E                     dE             d eps       ncg     rms          ort
SDA:   1    -0.127922130290E+04    0.41925E+01    0.00000E+00 10640   0.128E+02 0.000E+00
CGA:   2    -0.128185576137E+04   -0.26345E+01   -0.26345E+01 10640   0.519E+01 0.801E-02
CGA:   3    -0.128313771412E+04   -0.12820E+01   -0.12820E+01 10640   0.134E+01-0.163E-02
CGA:   4    -0.128333517831E+04   -0.19746E+00   -0.19777E+00 10640   0.224E+00 0.587E-02
CGA:   5    -0.128337671926E+04   -0.41541E-01   -0.41474E-01 10640   0.667E-01-0.115E-02
CGA:   6    -0.128338912107E+04   -0.12402E-01   -0.12389E-01 10640   0.200E-01-0.154E-03
CGA:   7    -0.128339346425E+04   -0.43432E-02   -0.43350E-02 10640   0.518E-02-0.406E-03
CGA:   8    -0.128339464248E+04   -0.11782E-02   -0.11769E-02 10640   0.255E-02-0.327E-03
CGA:   9    -0.128339518230E+04   -0.53982E-03   -0.53745E-03 10640   0.125E-02-0.208E-03
CGA:  10    -0.128339551680E+04   -0.33450E-03   -0.36002E-03 10640   0.853E-03-0.327E-03
CGA:  11    -0.128339565798E+04   -0.14118E-03   -0.24782E-03 10640   0.163E-02-0.691E-03
CGA:  12    -0.128339580827E+04   -0.15028E-03   -0.16469E-03 10640   0.239E-03 0.104E-03
CGA:  13    -0.128339590567E+04   -0.97403E-04   -0.10483E-03 10640   0.153E-03-0.432E-04
CGA:  14    -0.128339520255E+04    0.70312E-03   -0.37865E-03 10640   0.724E-02-0.681E-03
CGA:  15    -0.128339588824E+04   -0.68569E-03   -0.75467E-03 10640   0.614E-03 0.227E-03
CGA:  16    -0.128339603555E+04   -0.14730E-03   -0.14888E-03 10640   0.312E-03 0.896E-05
CGA:  17    -0.128339614166E+04   -0.10611E-03   -0.97210E-04 10640   0.167E-03-0.751E-04
CGA:  18    -0.128339615681E+04   -0.15147E-04   -0.21172E-04 10640   0.534E-04 0.241E-04
CGA:  19    -0.128339616826E+04   -0.11452E-04   -0.12762E-04 10640   0.337E-04 0.667E-05
CGA:  20    -0.128339586465E+04    0.30361E-03   -0.70588E-04 10640   0.221E-02-0.255E-03
CGA:  21    -0.128339610276E+04   -0.23811E-03   -0.28643E-03 10640   0.360E-03 0.152E-03
CGA:  22    -0.128339620031E+04   -0.97559E-04   -0.10337E-03 10640   0.939E-04 0.318E-04
CGA:  23    -0.128339624617E+04   -0.45859E-04   -0.33756E-04 10640   0.227E-03-0.106E-03
CGA:  24    -0.128339624531E+04    0.86392E-06   -0.18715E-04 10640   0.231E-04 0.557E-04
   7 F= -.12833962E+04 E0= -.12833962E+04  d E =0.175155E-01  mag=    47.0000
       N       E                     dE             d eps       ncg     rms          ort
SDA:   1    -0.128269934223E+04    0.69690E+00    0.00000E+00 10640   0.238E+01 0.000E+00
CGA:   2    -0.128315818983E+04   -0.45885E+00   -0.45836E+00 10640   0.876E+00-0.184E-02
CGA:   3    -0.128338595781E+04   -0.22777E+00   -0.22795E+00 10640   0.242E+00 0.103E-02
CGA:   4    -0.128342311401E+04   -0.37156E-01   -0.37072E-01 10640   0.359E-01-0.304E-03
CGA:   5    -0.128342988500E+04   -0.67710E-02   -0.68231E-02 10640   0.104E-01 0.314E-03
CGA:   6    -0.128343191966E+04   -0.20347E-02   -0.20029E-02 10640   0.372E-02-0.173E-03
CGA:   7    -0.128343263843E+04   -0.71876E-03   -0.71127E-03 10640   0.849E-03-0.415E-04
CGA:   8    -0.128343287316E+04   -0.23473E-03   -0.22541E-03 10640   0.445E-03-0.116E-03
CGA:   9    -0.128343297904E+04   -0.10588E-03   -0.98057E-04 10640   0.297E-03-0.875E-04
CGA:  10    -0.128343304898E+04   -0.69937E-04   -0.63453E-04 10640   0.177E-03-0.879E-04
CGA:  11    -0.128343309169E+04   -0.42718E-04   -0.50917E-04 10640   0.242E-03-0.113E-03
CGA:  12    -0.128343313375E+04   -0.42058E-04   -0.34511E-04 10640   0.884E-04-0.377E-04
CGA:  13    -0.128343315933E+04   -0.25582E-04   -0.26297E-04 10640   0.665E-04-0.313E-04
CGA:  14    -0.128343306203E+04    0.97303E-04   -0.49910E-04 10640   0.139E-02-0.177E-03
CGA:  15    -0.128343319216E+04   -0.13013E-03   -0.13869E-03 10640   0.106E-03 0.360E-04
CGA:  16    -0.128343321675E+04   -0.24582E-04   -0.25387E-04 10640   0.447E-04 0.663E-05
CGA:  17    -0.128343322553E+04   -0.87848E-05   -0.10359E-04 10640   0.127E-04 0.118E-04
   8 F= -.12834332E+04 E0= -.12834332E+04  d E =-.369802E-01  mag=    47.0000
       N       E                     dE             d eps       ncg     rms          ort
SDA:   1    -0.128317442775E+04    0.25879E+00    0.00000E+00 10640   0.820E+00 0.000E+00
CGA:   2    -0.128333577286E+04   -0.16135E+00   -0.16118E+00 10640   0.310E+00-0.849E-03
CGA:   3    -0.128341518933E+04   -0.79416E-01   -0.79445E-01 10640   0.824E-01 0.251E-03
CGA:   4    -0.128342801612E+04   -0.12827E-01   -0.12780E-01 10640   0.125E-01-0.246E-03
CGA:   5    -0.128343044924E+04   -0.24331E-02   -0.24339E-02 10640   0.354E-02 0.134E-04
CGA:   6    -0.128343116993E+04   -0.72068E-03   -0.69968E-03 10640   0.139E-02-0.176E-03
CGA:   7    -0.128343142940E+04   -0.25948E-03   -0.25194E-03 10640   0.336E-03-0.626E-04
CGA:   8    -0.128343152690E+04   -0.97498E-04   -0.97734E-04 10640   0.241E-03-0.968E-04
CGA:   9    -0.128343157803E+04   -0.51130E-04   -0.50089E-04 10640   0.221E-03-0.971E-04
CGA:  10    -0.128343161620E+04   -0.38173E-04   -0.48935E-04 10640   0.287E-03-0.158E-03
CGA:  11    -0.128343165967E+04   -0.43467E-04   -0.41046E-04 10640   0.940E-04-0.143E-04
CGA:  12    -0.128343168851E+04   -0.28845E-04   -0.31927E-04 10640   0.110E-03-0.506E-04
CGA:  13    -0.128343170193E+04   -0.13412E-04   -0.13939E-04 10640   0.223E-04 0.327E-05
CGA:  14    -0.128343170905E+04   -0.71239E-05   -0.87070E-05 10640   0.409E-04-0.181E-04
   9 F= -.12834317E+04 E0= -.12834317E+04  d E =0.151648E-02  mag=    47.0000
       N       E                     dE             d eps       ncg     rms          ort
SDA:   1    -0.128130111991E+04    0.21306E+01    0.00000E+00 10640   0.660E+01 0.000E+00
CGA:   2    -0.128262671534E+04   -0.13256E+01   -0.13258E+01 10640   0.257E+01 0.718E-02
CGA:   3    -0.128328109011E+04   -0.65437E+00   -0.65430E+00 10640   0.652E+00-0.368E-02
CGA:   4    -0.128338211760E+04   -0.10103E+00   -0.10112E+00 10640   0.100E+00 0.107E-02
CGA:   5    -0.128340246602E+04   -0.20348E-01   -0.20213E-01 10640   0.285E-01-0.179E-02
CGA:   6    -0.128340782399E+04   -0.53580E-02   -0.53262E-02 10640   0.103E-01-0.342E-03
CGA:   7    -0.128340980806E+04   -0.19841E-02   -0.19615E-02 10640   0.256E-02-0.286E-03
CGA:   8    -0.128341042226E+04   -0.61420E-03   -0.61177E-03 10640   0.110E-02-0.126E-03
CGA:   9    -0.128341073295E+04   -0.31069E-03   -0.32633E-03 10640   0.105E-02-0.321E-03
CGA:  10    -0.128341093525E+04   -0.20230E-03   -0.22857E-03 10640   0.105E-02-0.620E-03
CGA:  11    -0.128341110231E+04   -0.16706E-03   -0.15540E-03 10640   0.389E-03-0.944E-04
CGA:  12    -0.128341120433E+04   -0.10202E-03   -0.14548E-03 10640   0.571E-03-0.291E-03
CGA:  13    -0.128341128799E+04   -0.83666E-04   -0.77888E-04 10640   0.147E-03-0.420E-04
CGA:  14    -0.128341132284E+04   -0.34848E-04   -0.34482E-04 10640   0.633E-04-0.366E-04
CGA:  15    -0.128341136800E+04   -0.45159E-04    0.77382E-05 10640   0.358E-04 0.135E-04
CGA:  16    -0.128341141394E+04   -0.45936E-04    0.56451E-05 10640   0.198E-04 0.209E-04
CGA:  17    -0.128341143818E+04   -0.24247E-04    0.19553E-05 10640   0.162E-04 0.908E-05
CGA:  18    -0.128341146741E+04   -0.29223E-04    0.22931E-05 10640   0.148E-04 0.141E-04
CGA:  19    -0.128341148338E+04   -0.15970E-04    0.18392E-05 10640   0.153E-04 0.567E-05
CGA:  20    -0.128341150730E+04   -0.23920E-04    0.23971E-05 10640   0.120E-04 0.130E-04
CGA:  21    -0.128341151995E+04   -0.12653E-04    0.15831E-05 10640   0.933E-05 0.609E-05
CGA:  22    -0.128341152775E+04   -0.78049E-05    0.20707E-05 10640   0.134E-04 0.333E-05
  10 F= -.12834115E+04 E0= -.12834115E+04  d E =0.201813E-01  mag=    47.0000
       N       E                     dE             d eps       ncg     rms          ort
SDA:   1    -0.127554825905E+04    0.78633E+01    0.00000E+00 10640   0.245E+02 0.000E+00
CGA:   2    -0.128045661110E+04   -0.49084E+01   -0.49085E+01 10640   0.950E+01 0.668E-03
CGA:   3    -0.128289069326E+04   -0.24341E+01   -0.24341E+01 10640   0.232E+01 0.694E-02
CGA:   4    -0.128325433813E+04   -0.36364E+00   -0.36394E+00 10640   0.341E+00 0.339E-02
CGA:   5    -0.128332597125E+04   -0.71633E-01   -0.71687E-01 10640   0.865E-01 0.123E-02
CGA:   6    -0.128334450942E+04   -0.18538E-01   -0.18540E-01 10640   0.316E-01 0.149E-03
CGA:   7    -0.128335000778E+04   -0.54984E-02   -0.54765E-02 10640   0.887E-02-0.231E-03
CGA:   8    -0.128335201523E+04   -0.20075E-02   -0.20038E-02 10640   0.329E-02-0.183E-03
CGA:   9    -0.128335286870E+04   -0.85347E-03   -0.85224E-03 10640   0.154E-02 0.681E-04
CGA:  10    -0.128335322206E+04   -0.35335E-03   -0.35504E-03 10640   0.757E-03 0.834E-04
CGA:  11    -0.128335340865E+04   -0.18659E-03   -0.18721E-03 10640   0.283E-03 0.589E-04
CGA:  12    -0.128335352220E+04   -0.11355E-03   -0.12155E-03 10640   0.296E-03-0.520E-04
CGA:  13    -0.128335355842E+04   -0.36223E-04   -0.40347E-04 10640   0.140E-03 0.483E-04
CGA:  14    -0.128335359157E+04   -0.33141E-04   -0.35228E-04 10640   0.110E-03 0.655E-04
CGA:  15    -0.128335362485E+04   -0.33284E-04   -0.34517E-04 10640   0.919E-04 0.384E-04
CGA:  16    -0.128335365232E+04   -0.27466E-04   -0.28442E-04 10640   0.690E-04 0.617E-04
CGA:  17    -0.128335366423E+04   -0.11913E-04   -0.13387E-04 10640   0.356E-04 0.293E-04
CGA:  18    -0.128335368298E+04   -0.18752E-04   -0.17588E-04 10640   0.343E-04 0.109E-04
CGA:  19    -0.128335369059E+04   -0.76092E-05   -0.90269E-05 10640   0.315E-04 0.310E-04
  11 F= -.12833537E+04 E0= -.12833537E+04  d E =0.578372E-01  mag=    47.0000
       N       E                     dE             d eps       ncg     rms          ort
SDA:   1    -0.127945627825E+04    0.38974E+01    0.00000E+00 10640   0.123E+02 0.000E+00
CGA:   2    -0.128196338428E+04   -0.25071E+01   -0.25071E+01 10640   0.489E+01 0.440E-02
CGA:   3    -0.128321179187E+04   -0.12484E+01   -0.12484E+01 10640   0.114E+01 0.123E-03
CGA:   4    -0.128339246068E+04   -0.18067E+00   -0.18070E+00 10640   0.169E+00 0.572E-03
CGA:   5    -0.128342908542E+04   -0.36625E-01   -0.36607E-01 10640   0.401E-01-0.880E-03
CGA:   6    -0.128343890123E+04   -0.98158E-02   -0.98277E-02 10640   0.116E-01-0.106E-02
CGA:   7    -0.128344111805E+04   -0.22168E-02   -0.22223E-02 10640   0.354E-02 0.149E-03
CGA:   8    -0.128344199737E+04   -0.87932E-03   -0.88628E-03 10640   0.207E-02-0.520E-03
CGA:   9    -0.128344245208E+04   -0.45471E-03   -0.46521E-03 10640   0.994E-03-0.367E-03
CGA:  10    -0.128344231193E+04    0.14015E-03   -0.57634E-03 10640   0.503E-02-0.153E-02
CGA:  11    -0.128344288848E+04   -0.57656E-03   -0.58348E-03 10640   0.815E-03 0.590E-04
CGA:  12    -0.128344307602E+04   -0.18754E-03   -0.18789E-03 10640   0.187E-03 0.149E-04
CGA:  13    -0.128344314707E+04   -0.71049E-04   -0.82596E-04 10640   0.290E-03-0.632E-04
CGA:  14    -0.128344318518E+04   -0.38115E-04   -0.33858E-04 10640   0.115E-03-0.505E-04
CGA:  15    -0.128344248059E+04    0.70460E-03   -0.38041E-03 10640   0.523E-02-0.616E-03
CGA:  16    -0.128344314738E+04   -0.66679E-03   -0.69272E-03 10640   0.709E-03 0.942E-04
CGA:  17    -0.128344326914E+04   -0.12177E-03   -0.13413E-03 10640   0.204E-03 0.479E-04
CGA:  18    -0.128344333620E+04   -0.67059E-04   -0.61764E-04 10640   0.153E-03-0.339E-04
CGA:  19    -0.128344335890E+04   -0.22701E-04   -0.27853E-04 10640   0.562E-04 0.245E-04
CGA:  20    -0.128344336549E+04   -0.65865E-05   -0.11113E-04 10640   0.223E-04 0.183E-04
CGA:  21    -0.128344337712E+04   -0.11631E-04   -0.11372E-04 10640   0.288E-04-0.121E-04
CGA:  22    -0.128344337788E+04   -0.75738E-06   -0.29461E-05 10640   0.564E-05 0.729E-05
  12 F= -.12834434E+04 E0= -.12834434E+04  d E =-.896873E-01  mag=    47.0000
       N       E                     dE             d eps       ncg     rms          ort
SDA:   1    -0.128221762128E+04    0.12258E+01    0.00000E+00 10640   0.345E+01 0.000E+00
CGA:   2    -0.128298701016E+04   -0.76939E+00   -0.76958E+00 10640   0.151E+01 0.213E-02
CGA:   3    -0.128335184532E+04   -0.36484E+00   -0.36475E+00 10640   0.299E+00-0.123E-02
CGA:   4    -0.128339997815E+04   -0.48133E-01   -0.48165E-01 10640   0.497E-01 0.200E-03
CGA:   5    -0.128341077004E+04   -0.10792E-01   -0.10759E-01 10640   0.117E-01-0.234E-03
CGA:   6    -0.128341352432E+04   -0.27543E-02   -0.27336E-02 10640   0.383E-02-0.180E-03
CGA:   7    -0.128341419523E+04   -0.67091E-03   -0.67176E-03 10640   0.129E-02 0.108E-04
CGA:   8    -0.128341448196E+04   -0.28673E-03   -0.28124E-03 10640   0.528E-03-0.455E-04
CGA:   9    -0.128341465073E+04   -0.16877E-03   -0.16965E-03 10640   0.390E-03-0.123E-03
CGA:  10    -0.128341472549E+04   -0.74758E-04   -0.68085E-04 10640   0.218E-03-0.670E-04
CGA:  11    -0.128341477762E+04   -0.52134E-04   -0.84646E-04 10640   0.463E-03-0.219E-03
CGA:  12    -0.128341482194E+04   -0.44320E-04   -0.54603E-04 10640   0.948E-04 0.497E-04
CGA:  13    -0.128341484433E+04   -0.22391E-04   -0.23497E-04 10640   0.347E-04 0.117E-04
CGA:  14    -0.128341486189E+04   -0.17554E-04   -0.19483E-04 10640   0.680E-04-0.104E-04
CGA:  15    -0.128341486455E+04   -0.26654E-05   -0.52465E-05 10640   0.391E-04 0.121E-04
  13 F= -.12834149E+04 E0= -.12834149E+04  d E =0.285133E-01  mag=    47.0000
       N       E                     dE             d eps       ncg     rms          ort
SDA:   1    -0.127609447347E+04    0.73204E+01    0.00000E+00 10640   0.231E+02 0.000E+00
CGA:   2    -0.128064166456E+04   -0.45472E+01   -0.45473E+01 10640   0.877E+01-0.883E-03
CGA:   3    -0.128291063655E+04   -0.22690E+01   -0.22694E+01 10640   0.220E+01 0.698E-02
CGA:   4    -0.128325557279E+04   -0.34494E+00   -0.34540E+00 10640   0.314E+00 0.383E-02
CGA:   5    -0.128332153711E+04   -0.65964E-01   -0.66143E-01 10640   0.779E-01 0.232E-02
CGA:   6    -0.128333872763E+04   -0.17191E-01   -0.17228E-01 10640   0.278E-01 0.648E-03
CGA:   7    -0.128334347255E+04   -0.47449E-02   -0.47487E-02 10640   0.819E-02 0.833E-04
CGA:   8    -0.128334522638E+04   -0.17538E-02   -0.17570E-02 10640   0.291E-02 0.619E-04
CGA:   9    -0.128334594852E+04   -0.72214E-03   -0.73004E-03 10640   0.116E-02 0.341E-03
CGA:  10    -0.128334618968E+04   -0.24117E-03   -0.26503E-03 10640   0.488E-03 0.355E-03
CGA:  11    -0.128334628337E+04   -0.93683E-04   -0.11722E-03 10640   0.183E-03 0.281E-03
CGA:  12    -0.128334632150E+04   -0.38138E-04   -0.41999E-04 10640   0.103E-03 0.114E-03
CGA:  13    -0.128334632364E+04   -0.21334E-05   -0.13770E-04 10640   0.850E-04 0.909E-04
CGA:  14    -0.128334632578E+04   -0.21437E-05   -0.11603E-04 10640   0.746E-04 0.793E-04
  14 F= -.12833463E+04 E0= -.12833463E+04  d E =0.685388E-01  mag=    47.0000
       N       E                     dE             d eps       ncg     rms          ort
SDA:   1    -0.127499119135E+04    0.83551E+01    0.00000E+00 10640   0.273E+02 0.000E+00
CGA:   2    -0.128024091664E+04   -0.52497E+01   -0.52496E+01 10640   0.999E+01 0.864E-02
CGA:   3    -0.128287019705E+04   -0.26293E+01   -0.26288E+01 10640   0.262E+01 0.141E-01
CGA:   4    -0.128327960851E+04   -0.40941E+00   -0.40998E+00 10640   0.364E+00 0.713E-02
CGA:   5    -0.128335649230E+04   -0.76884E-01   -0.76896E-01 10640   0.909E-01 0.511E-03
CGA:   6    -0.128337700036E+04   -0.20508E-01   -0.20499E-01 10640   0.325E-01-0.724E-03
CGA:   7    -0.128338243187E+04   -0.54315E-02   -0.54230E-02 10640   0.943E-02-0.725E-04
CGA:   8    -0.128338444711E+04   -0.20152E-02   -0.20127E-02 10640   0.339E-02-0.126E-03
CGA:   9    -0.128338542661E+04   -0.97949E-03   -0.99887E-03 10640   0.183E-02-0.286E-03
CGA:  10    -0.128338578943E+04   -0.36282E-03   -0.36270E-03 10640   0.887E-03-0.368E-05
CGA:  11    -0.128338604815E+04   -0.25872E-03   -0.30817E-03 10640   0.876E-03-0.430E-03
CGA:  12    -0.128338614324E+04   -0.95083E-04   -0.88995E-04 10640   0.423E-03-0.143E-03
CGA:  13    -0.128338624511E+04   -0.10187E-03   -0.10896E-03 10640   0.334E-03-0.101E-03
CGA:  14    -0.128338630977E+04   -0.64660E-04   -0.75891E-04 10640   0.534E-03-0.195E-03
CGA:  15    -0.128338636304E+04   -0.53266E-04   -0.61721E-04 10640   0.129E-03 0.671E-04
CGA:  16    -0.128338641342E+04   -0.50387E-04   -0.52221E-04 10640   0.808E-04-0.153E-04
CGA:  17    -0.128338641204E+04    0.13808E-05   -0.54426E-04 10640   0.630E-03-0.108E-03
CGA:  18    -0.128338645880E+04   -0.46759E-04   -0.59644E-04 10640   0.512E-04 0.756E-04
CGA:  19    -0.128338647734E+04   -0.18536E-04   -0.19351E-04 10640   0.736E-04-0.106E-04
CGA:  20    -0.128338648126E+04   -0.39248E-05   -0.25109E-04 10640   0.231E-03-0.127E-03
CGA:  21    -0.128338649773E+04   -0.16463E-04   -0.26137E-04 10640   0.598E-04 0.611E-04
CGA:  22    -0.128338651562E+04   -0.17899E-04   -0.18207E-04 10640   0.270E-04 0.127E-04
CGA:  23    -0.128338653422E+04   -0.18597E-04    0.56546E-04 10640   0.466E-04-0.264E-04
CGA:  24    -0.128338653427E+04   -0.47425E-07   -0.34744E-05 10640   0.105E-04 0.182E-04
  15 F= -.12833865E+04 E0= -.12833865E+04  d E =-.402085E-01  mag=    47.0000
       N       E                     dE             d eps       ncg     rms          ort
SDA:   1    -0.128277334151E+04    0.61319E+00    0.00000E+00 10640   0.156E+01 0.000E+00
CGA:   2    -0.128317447329E+04   -0.40113E+00   -0.40113E+00 10640   0.737E+00-0.174E-03
CGA:   3    -0.128333628025E+04   -0.16181E+00   -0.16184E+00 10640   0.120E+00 0.106E-02
CGA:   4    -0.128335665141E+04   -0.20371E-01   -0.20436E-01 10640   0.231E-01 0.873E-03
CGA:   5    -0.128336147811E+04   -0.48267E-02   -0.48363E-02 10640   0.513E-02 0.292E-03
CGA:   6    -0.128336267180E+04   -0.11937E-02   -0.11938E-02 10640   0.179E-02 0.985E-05
CGA:   7    -0.128336300700E+04   -0.33520E-03   -0.33105E-03 10640   0.683E-03-0.739E-04
CGA:   8    -0.128336314816E+04   -0.14117E-03   -0.14071E-03 10640   0.270E-03-0.204E-04
CGA:   9    -0.128336320521E+04   -0.57046E-04   -0.57797E-04 10640   0.958E-04 0.531E-04
CGA:  10    -0.128336324383E+04   -0.38618E-04   -0.40796E-04 10640   0.870E-04-0.179E-04
CGA:  11    -0.128336324691E+04   -0.30819E-05   -0.72892E-05 10640   0.400E-04 0.307E-04
  16 F= -.12833632E+04 E0= -.12833632E+04  d E =0.232874E-01  mag=    47.0000
       N       E                     dE             d eps       ncg     rms          ort
SDA:   1    -0.126867986062E+04    0.14683E+02    0.00000E+00 10640   0.460E+02 0.000E+00
CGA:   2    -0.127783199315E+04   -0.91521E+01   -0.91525E+01 10640   0.178E+02 0.114E-01
CGA:   3    -0.128241372300E+04   -0.45817E+01   -0.45808E+01 10640   0.436E+01 0.193E-01
CGA:   4    -0.128309781890E+04   -0.68410E+00   -0.68472E+00 10640   0.625E+00 0.987E-02
CGA:   5    -0.128323090725E+04   -0.13309E+00   -0.13313E+00 10640   0.152E+00 0.380E-02
CGA:   6    -0.128326583964E+04   -0.34932E-01   -0.34930E-01 10640   0.509E-01 0.606E-03
CGA:   7    -0.128327489024E+04   -0.90506E-02   -0.90283E-02 10640   0.166E-01-0.416E-03
CGA:   8    -0.128327831314E+04   -0.34229E-02   -0.34198E-02 10640   0.624E-02-0.223E-03
CGA:   9    -0.128327991284E+04   -0.15997E-02   -0.15901E-02 10640   0.266E-02 0.255E-03
CGA:  10    -0.128328053579E+04   -0.62295E-03   -0.62197E-03 10640   0.127E-02 0.336E-03
CGA:  11    -0.128328083178E+04   -0.29599E-03   -0.29953E-03 10640   0.443E-03 0.279E-03
CGA:  12    -0.128328099654E+04   -0.16476E-03   -0.15462E-03 10640   0.212E-03 0.156E-03
CGA:  13    -0.128328104722E+04   -0.50683E-04   -0.55842E-04 10640   0.123E-03 0.175E-03
CGA:  14    -0.128328106931E+04   -0.22093E-04   -0.24385E-04 10640   0.846E-04 0.931E-04
CGA:  15    -0.128328107888E+04   -0.95710E-05   -0.13982E-04 10640   0.748E-04 0.781E-04
CGA:  16    -0.128328108846E+04   -0.95777E-05   -0.12889E-04 10640   0.684E-04 0.708E-04
CGA:  17    -0.128328109484E+04   -0.63780E-05   -0.10515E-04 10640   0.639E-04 0.658E-04
CGA:  18    -0.128328110142E+04   -0.65811E-05   -0.10056E-04 10640   0.601E-04 0.618E-04
  17 F= -.12832811E+04 E0= -.12832811E+04  d E =0.821455E-01  mag=    47.0000
       N       E                     dE             d eps       ncg     rms          ort
SDA:   1    -0.127707583421E+04    0.62053E+01    0.00000E+00 10640   0.202E+02 0.000E+00
CGA:   2    -0.128106023140E+04   -0.39844E+01   -0.39843E+01 10640   0.769E+01 0.212E-02
CGA:   3    -0.128305489110E+04   -0.19947E+01   -0.19939E+01 10640   0.192E+01 0.114E-01
CGA:   4    -0.128335579357E+04   -0.30090E+00   -0.30114E+00 10640   0.271E+00 0.481E-02
CGA:   5    -0.128341372151E+04   -0.57928E-01   -0.57925E-01 10640   0.656E-01 0.542E-03
CGA:   6    -0.128342934693E+04   -0.15625E-01   -0.15666E-01 10640   0.212E-01-0.126E-02
CGA:   7    -0.128343306275E+04   -0.37158E-02   -0.37205E-02 10640   0.642E-02 0.192E-03
CGA:   8    -0.128343450272E+04   -0.14400E-02   -0.14478E-02 10640   0.290E-02-0.475E-03
CGA:   9    -0.128343520601E+04   -0.70329E-03   -0.72254E-03 10640   0.148E-02-0.311E-03
CGA:  10    -0.128343552565E+04   -0.31964E-03   -0.32830E-03 10640   0.906E-03-0.232E-03
CGA:  11    -0.128343570061E+04   -0.17496E-03   -0.27049E-03 10640   0.126E-02-0.676E-03
CGA:  12    -0.128343582855E+04   -0.12794E-03   -0.13697E-03 10640   0.216E-03 0.841E-04
CGA:  13    -0.128343590278E+04   -0.74228E-04   -0.94817E-04 10640   0.188E-03-0.104E-03
CGA:  14    -0.128343595367E+04   -0.50891E-04    0.66581E-04 10640   0.122E-03-0.839E-06
CGA:  15    -0.128343594404E+04    0.96274E-05   -0.78662E-04 10640   0.516E-03-0.207E-03
CGA:  16    -0.128343606342E+04   -0.11938E-03   -0.11685E-03 10640   0.214E-03-0.133E-03
CGA:  17    -0.128343607349E+04   -0.10062E-04   -0.15649E-04 10640   0.507E-04 0.386E-04
CGA:  18    -0.128343607506E+04   -0.15784E-05   -0.48143E-05 10640   0.223E-04 0.207E-04
  18 F= -.12834361E+04 E0= -.12834361E+04  d E =-.154974E+00  mag=    47.0000
       N       E                     dE             d eps       ncg     rms          ort
SDA:   1    -0.128015297243E+04    0.32831E+01    0.00000E+00 10640   0.913E+01 0.000E+00
CGA:   2    -0.128222111105E+04   -0.20681E+01   -0.20681E+01 10640   0.407E+01 0.293E-02
CGA:   3    -0.128318566181E+04   -0.96455E+00   -0.96452E+00 10640   0.799E+00 0.188E-02
CGA:   4    -0.128331311770E+04   -0.12746E+00   -0.12771E+00 10640   0.134E+00 0.399E-02
CGA:   5    -0.128334158805E+04   -0.28470E-01   -0.28463E-01 10640   0.350E-01-0.507E-03
CGA:   6    -0.128334856693E+04   -0.69789E-02   -0.69771E-02 10640   0.133E-01-0.287E-04
CGA:   7    -0.128335096891E+04   -0.24020E-02   -0.23772E-02 10640   0.380E-02-0.549E-03
CGA:   8    -0.128335184937E+04   -0.88046E-03   -0.88584E-03 10640   0.151E-02-0.231E-03
CGA:   9    -0.128335222597E+04   -0.37660E-03   -0.37889E-03 10640   0.779E-03-0.480E-04
CGA:  10    -0.128335242652E+04   -0.20055E-03   -0.21570E-03 10640   0.695E-03-0.243E-03
CGA:  11    -0.128335253208E+04   -0.10556E-03   -0.10411E-03 10640   0.253E-03-0.151E-03
CGA:  12    -0.128335260006E+04   -0.67984E-04   -0.81219E-04 10640   0.172E-03-0.723E-04
CGA:  13    -0.128335267732E+04   -0.77255E-04    0.43453E-04 10640   0.927E-04 0.327E-04
CGA:  14    -0.128335270144E+04   -0.24124E-04   -0.24630E-04 10640   0.481E-04 0.404E-04
CGA:  15    -0.128335273016E+04   -0.28715E-04   -0.27373E-04 10640   0.472E-04 0.802E-05
CGA:  16    -0.128335276690E+04   -0.36742E-04    0.18016E-04 10640   0.343E-04 0.108E-04
CGA:  17    -0.128335278287E+04   -0.15974E-04   -0.16360E-04 10640   0.350E-04-0.307E-05
CGA:  18    -0.128335280045E+04   -0.17577E-04    0.39989E-04 10640   0.307E-04 0.246E-05
CGA:  19    -0.128335282769E+04   -0.27242E-04    0.63073E-05 10640   0.230E-04 0.108E-04
CGA:  20    -0.128335284516E+04   -0.17465E-04    0.32766E-04 10640   0.195E-04 0.818E-05
CGA:  21    -0.128335286134E+04   -0.16179E-04    0.14737E-04 10640   0.133E-04 0.799E-05
CGA:  22    -0.128335287649E+04   -0.15155E-04    0.37857E-05 10640   0.745E-05 0.487E-05
CGA:  23    -0.128335288416E+04   -0.76718E-05    0.25351E-05 10640   0.409E-05 0.233E-05
  19 F= -.12833529E+04 E0= -.12833529E+04  d E =0.831909E-01  mag=    47.0000
       N       E                     dE             d eps       ncg     rms          ort
SDA:   1    -0.126806634209E+04    0.15287E+02    0.00000E+00 10640   0.480E+02 0.000E+00
CGA:   2    -0.127759061082E+04   -0.95243E+01   -0.95254E+01 10640   0.185E+02 0.142E-01
CGA:   3    -0.128236244203E+04   -0.47718E+01   -0.47715E+01 10640   0.456E+01 0.162E-01
CGA:   4    -0.128307690987E+04   -0.71447E+00   -0.71521E+00 10640   0.652E+00 0.951E-02
CGA:   5    -0.128321582916E+04   -0.13892E+00   -0.13900E+00 10640   0.159E+00 0.248E-02
CGA:   6    -0.128325245682E+04   -0.36628E-01   -0.36631E-01 10640   0.522E-01 0.403E-03
CGA:   7    -0.128326196950E+04   -0.95127E-02   -0.94666E-02 10640   0.170E-01-0.706E-03
CGA:   8    -0.128326549447E+04   -0.35250E-02   -0.35148E-02 10640   0.649E-02-0.315E-03
CGA:   9    -0.128326719319E+04   -0.16987E-02   -0.16987E-02 10640   0.290E-02 0.882E-05
CGA:  10    -0.128326789593E+04   -0.70275E-03   -0.70267E-03 10640   0.160E-02 0.268E-04
CGA:  11    -0.128326823972E+04   -0.34379E-03   -0.34515E-03 10640   0.584E-03 0.572E-04
CGA:  12    -0.128326846207E+04   -0.22234E-03   -0.24647E-03 10640   0.570E-03-0.142E-03
CGA:  13    -0.128326853080E+04   -0.68733E-04   -0.74208E-04 10640   0.271E-03 0.744E-04
CGA:  14    -0.128326859496E+04   -0.64166E-04   -0.66857E-04 10640   0.193E-03 0.113E-03
CGA:  15    -0.128326865079E+04   -0.55830E-04   -0.57895E-04 10640   0.157E-03 0.682E-04
CGA:  16    -0.128326869373E+04   -0.42937E-04   -0.45666E-04 10640   0.114E-03 0.109E-03
CGA:  17    -0.128326871275E+04   -0.19019E-04   -0.21482E-04 10640   0.592E-04 0.501E-04
CGA:  18    -0.128326873770E+04   -0.24949E-04   -0.23485E-04 10640   0.433E-04 0.365E-04
CGA:  19    -0.128326874646E+04   -0.87594E-05   -0.93742E-05 10640   0.333E-04 0.289E-04
  20 F= -.12832687E+04 E0= -.12832687E+04  d E =0.841377E-01  mag=    47.0000
       N       E                     dE             d eps       ncg     rms          ort
SDA:   1    -0.127626395743E+04    0.70048E+01    0.00000E+00 10640   0.231E+02 0.000E+00
CGA:   2    -0.128074254921E+04   -0.44786E+01   -0.44784E+01 10640   0.858E+01 0.648E-02
CGA:   3    -0.128298938270E+04   -0.22468E+01   -0.22465E+01 10640   0.223E+01 0.858E-02
CGA:   4    -0.128333689484E+04   -0.34751E+00   -0.34787E+00 10640   0.308E+00 0.527E-02
CGA:   5    -0.128340270778E+04   -0.65813E-01   -0.65806E-01 10640   0.752E-01-0.368E-03
CGA:   6    -0.128342053454E+04   -0.17827E-01   -0.17835E-01 10640   0.236E-01-0.106E-02
CGA:   7    -0.128342486109E+04   -0.43265E-02   -0.43283E-02 10640   0.693E-02 0.682E-04
CGA:   8    -0.128342647617E+04   -0.16151E-02   -0.16173E-02 10640   0.312E-02-0.480E-03
CGA:   9    -0.128342726289E+04   -0.78673E-03   -0.79866E-03 10640   0.141E-02-0.251E-03
CGA:  10    -0.128342765081E+04   -0.38792E-03   -0.52381E-03 10640   0.199E-02-0.775E-03
CGA:  11    -0.128342787626E+04   -0.22545E-03   -0.22750E-03 10640   0.332E-03 0.210E-04
CGA:  12    -0.128342785556E+04    0.20693E-04   -0.24864E-03 10640   0.165E-02-0.529E-03
CGA:  13    -0.128342808796E+04   -0.23240E-03   -0.23689E-03 10640   0.385E-03 0.420E-04
CGA:  14    -0.128342816946E+04   -0.81501E-04   -0.77684E-04 10640   0.874E-04-0.676E-04
CGA:  15    -0.128342820816E+04   -0.38692E-04    0.12100E-03 10640   0.476E-04 0.519E-05
CGA:  16    -0.128342824905E+04   -0.40890E-04    0.10156E-04 10640   0.273E-04 0.135E-04
CGA:  17    -0.128342828887E+04   -0.39824E-04    0.34618E-05 10640   0.182E-04 0.238E-04
CGA:  18    -0.128342830789E+04   -0.19020E-04    0.20854E-05 10640   0.122E-04 0.106E-04
CGA:  19    -0.128342832052E+04   -0.12632E-04    0.14279E-05 10640   0.120E-04 0.845E-05
CGA:  20    -0.128342833510E+04   -0.14578E-04    0.10581E-05 10640   0.139E-04 0.592E-05
CGA:  21    -0.128342836259E+04   -0.27485E-04    0.15669E-05 10640   0.904E-05 0.179E-04
CGA:  22    -0.128342837031E+04   -0.77227E-05    0.15959E-05 10640   0.883E-05 0.548E-05
  21 F= -.12834284E+04 E0= -.12834284E+04  d E =-.159624E+00  mag=    47.0000
       N       E                     dE             d eps       ncg     rms          ort
SDA:   1    -0.128155850007E+04    0.18699E+01    0.00000E+00 10640   0.542E+01 0.000E+00
CGA:   2    -0.128268765003E+04   -0.11291E+01   -0.11293E+01 10640   0.222E+01 0.564E-02
CGA:   3    -0.128324307240E+04   -0.55542E+00   -0.55542E+00 10640   0.502E+00-0.421E-03
CGA:   4    -0.128332217383E+04   -0.79101E-01   -0.79273E-01 10640   0.745E-01 0.201E-02
CGA:   5    -0.128333873056E+04   -0.16557E-01   -0.16530E-01 10640   0.179E-01-0.117E-02
CGA:   6    -0.128334301712E+04   -0.42866E-02   -0.42868E-02 10640   0.474E-02-0.146E-03
CGA:   7    -0.128334409789E+04   -0.10808E-02   -0.10767E-02 10640   0.168E-02-0.298E-03
CGA:   8    -0.128334440405E+04   -0.30616E-03   -0.31016E-03 10640   0.709E-03 0.909E-04
CGA:   9    -0.128334462472E+04   -0.22067E-03   -0.23257E-03 10640   0.502E-03-0.166E-03
CGA:  10    -0.128334470602E+04   -0.81307E-04   -0.18961E-03 10640   0.104E-02-0.433E-03
CGA:  11    -0.128334481871E+04   -0.11269E-03   -0.12110E-03 10640   0.221E-03 0.628E-04
CGA:  12    -0.128334489548E+04   -0.76768E-04   -0.81112E-04 10640   0.125E-03-0.445E-04
CGA:  13    -0.128334464758E+04    0.24790E-03   -0.12458E-03 10640   0.238E-02-0.374E-03
CGA:  14    -0.128334493221E+04   -0.28463E-03   -0.30532E-03 10640   0.305E-03 0.125E-03
CGA:  15    -0.128334500941E+04   -0.77197E-04   -0.76400E-04 10640   0.165E-03-0.137E-04
CGA:  16    -0.128334505375E+04   -0.44343E-04   -0.43709E-04 10640   0.900E-04-0.451E-04
CGA:  17    -0.128334505958E+04   -0.58292E-05   -0.90158E-05 10640   0.339E-04 0.209E-04
  22 F= -.12833451E+04 E0= -.12833451E+04  d E =0.833107E-01  mag=    47.0000
       N       E                     dE             d eps       ncg     rms          ort
SDA:   1    -0.126422154354E+04    0.19124E+02    0.00000E+00 10640   0.613E+02 0.000E+00
CGA:   2    -0.127606970957E+04   -0.11848E+02   -0.11851E+02 10640   0.227E+02 0.328E-01
CGA:   3    -0.128201185147E+04   -0.59421E+01   -0.59426E+01 10640   0.591E+01 0.183E-01
CGA:   4    -0.128293594492E+04   -0.92409E+00   -0.92524E+00 10640   0.822E+00 0.136E-01
CGA:   5    -0.128311085958E+04   -0.17491E+00   -0.17504E+00 10640   0.200E+00 0.222E-02
CGA:   6    -0.128315759376E+04   -0.46734E-01   -0.46758E-01 10640   0.620E-01 0.899E-03
CGA:   7    -0.128316938991E+04   -0.11796E-01   -0.11763E-01 10640   0.196E-01-0.370E-03
CGA:   8    -0.128317346040E+04   -0.40705E-02   -0.40695E-02 10640   0.766E-02 0.196E-04
CGA:   9    -0.128317543348E+04   -0.19731E-02   -0.19731E-02 10640   0.320E-02 0.264E-03
CGA:  10    -0.128317621296E+04   -0.77948E-03   -0.78573E-03 10640   0.159E-02 0.320E-03
CGA:  11    -0.128317657075E+04   -0.35779E-03   -0.36715E-03 10640   0.628E-03 0.202E-03
CGA:  12    -0.128317677824E+04   -0.20749E-03   -0.20401E-03 10640   0.314E-03 0.103E-03
CGA:  13    -0.128317683423E+04   -0.55992E-04   -0.68297E-04 10640   0.150E-03 0.178E-03
CGA:  14    -0.128317686549E+04   -0.31263E-04   -0.33758E-04 10640   0.936E-04 0.914E-04
CGA:  15    -0.128317687075E+04   -0.52588E-05   -0.13416E-04 10640   0.779E-04 0.758E-04
CGA:  16    -0.128317688185E+04   -0.11099E-04   -0.14871E-04 10640   0.695E-04 0.687E-04
CGA:  17    -0.128317688510E+04   -0.32482E-05   -0.97703E-05 10640   0.634E-04 0.637E-04
CGA:  18    -0.128317689090E+04   -0.58026E-05   -0.10310E-04 10640   0.587E-04 0.600E-04
  23 F= -.12831769E+04 E0= -.12831769E+04  d E =0.168169E+00  mag=    47.0000
       N       E                     dE             d eps       ncg     rms          ort
SDA:   1    -0.127800854679E+04    0.51683E+01    0.00000E+00 10640   0.174E+02 0.000E+00
CGA:   2    -0.128140158885E+04   -0.33930E+01   -0.33929E+01 10640   0.650E+01 0.359E-02
CGA:   3    -0.128310489833E+04   -0.17033E+01   -0.17030E+01 10640   0.167E+01 0.610E-02
CGA:   4    -0.128336647698E+04   -0.26158E+00   -0.26184E+00 10640   0.231E+00 0.384E-02
CGA:   5    -0.128341618727E+04   -0.49710E-01   -0.49706E-01 10640   0.548E-01-0.419E-03
CGA:   6    -0.128342970429E+04   -0.13517E-01   -0.13534E-01 10640   0.151E-01-0.739E-03
CGA:   7    -0.128343280231E+04   -0.30980E-02   -0.30962E-02 10640   0.460E-02-0.823E-04
CGA:   8    -0.128343387826E+04   -0.10759E-02   -0.10810E-02 10640   0.257E-02-0.452E-03
CGA:   9    -0.128343444532E+04   -0.56706E-03   -0.57426E-03 10640   0.111E-02-0.321E-03
CGA:  10    -0.128343471045E+04   -0.26513E-03   -0.47177E-03 10640   0.182E-02-0.802E-03
CGA:  11    -0.128343495180E+04   -0.24135E-03   -0.23496E-03 10640   0.401E-03-0.532E-04
CGA:  12    -0.128343506170E+04   -0.10990E-03   -0.12190E-03 10640   0.281E-03-0.152E-03
CGA:  13    -0.128343494458E+04    0.11712E-03   -0.13567E-03 10640   0.222E-02-0.468E-03
CGA:  14    -0.128343518162E+04   -0.23705E-03   -0.23514E-03 10640   0.254E-03-0.543E-05
CGA:  15    -0.128343527307E+04   -0.91444E-04   -0.10472E-03 10640   0.166E-03-0.850E-04
CGA:  16    -0.128343529050E+04   -0.17428E-04   -0.17758E-04 10640   0.528E-04 0.347E-05
CGA:  17    -0.128343530409E+04   -0.13595E-04   -0.27598E-04 10640   0.147E-03-0.556E-04
CGA:  18    -0.128343534318E+04   -0.39091E-04   -0.38093E-04 10640   0.933E-04-0.801E-04
CGA:  19    -0.128343534928E+04   -0.61021E-05   -0.95252E-05 10640   0.969E-05 0.205E-04
  24 F= -.12834353E+04 E0= -.12834353E+04  d E =-.258458E+00  mag=    47.0000
       N       E                     dE             d eps       ncg     rms          ort
SDA:   1    -0.128163644328E+04    0.17989E+01    0.00000E+00 10640   0.567E+01 0.000E+00
CGA:   2    -0.128274783463E+04   -0.11114E+01   -0.11114E+01 10640   0.214E+01 0.447E-02
CGA:   3    -0.128330467337E+04   -0.55684E+00   -0.55683E+00 10640   0.546E+00 0.119E-02
CGA:   4    -0.128338987521E+04   -0.85202E-01   -0.85396E-01 10640   0.760E-01 0.203E-02
CGA:   5    -0.128340637835E+04   -0.16503E-01   -0.16479E-01 10640   0.188E-01-0.652E-03
CGA:   6    -0.128341074587E+04   -0.43675E-02   -0.43653E-02 10640   0.583E-02-0.126E-03
CGA:   7    -0.128341183485E+04   -0.10890E-02   -0.10812E-02 10640   0.194E-02-0.116E-03
CGA:   8    -0.128341221019E+04   -0.37534E-03   -0.37609E-03 10640   0.717E-03 0.184E-04
CGA:   9    -0.128341242896E+04   -0.21877E-03   -0.22424E-03 10640   0.397E-03-0.830E-04
CGA:  10    -0.128341253071E+04   -0.10175E-03   -0.10805E-03 10640   0.349E-03-0.104E-03
CGA:  11    -0.128341259616E+04   -0.65447E-04   -0.66717E-04 10640   0.235E-03-0.148E-03
CGA:  12    -0.128341262137E+04   -0.25209E-04   -0.68873E-04 10640   0.386E-03-0.170E-03
CGA:  13    -0.128341268049E+04   -0.59123E-04   -0.58070E-04 10640   0.149E-03-0.834E-05
CGA:  14    -0.128341271211E+04   -0.31613E-04   -0.32527E-04 10640   0.491E-04 0.262E-04
CGA:  15    -0.128341273611E+04   -0.24007E-04   -0.32123E-04 10640   0.130E-03-0.272E-04
CGA:  16    -0.128341275345E+04   -0.17341E-04   -0.17257E-04 10640   0.180E-04-0.157E-06
CGA:  17    -0.128341275565E+04   -0.21912E-05   -0.13217E-04 10640   0.131E-03-0.234E-04
CGA:  18    -0.128341277774E+04   -0.22092E-04   -0.18075E-04 10640   0.277E-04-0.262E-04
CGA:  19    -0.128341278268E+04   -0.49478E-05   -0.49705E-05 10640   0.934E-05 0.444E-06
CGA:  20    -0.128341274873E+04    0.33958E-04   -0.18458E-04 10640   0.475E-03-0.329E-04
CGA:  21    -0.128341280977E+04   -0.61046E-04   -0.55411E-04 10640   0.380E-04-0.129E-04
CGA:  22    -0.128341282450E+04   -0.14726E-04   -0.98824E-05 10640   0.440E-04-0.219E-04
CGA:  23    -0.128341282669E+04   -0.21921E-05   -0.43840E-05 10640   0.440E-05 0.595E-05
  25 F= -.12834128E+04 E0= -.12834128E+04  d E =0.225226E-01  mag=    47.0000
       N       E                     dE             d eps       ncg     rms          ort
SDA:   1    -0.128317422789E+04    0.23860E+00    0.00000E+00 10640   0.631E+00 0.000E+00
CGA:   2    -0.128333157772E+04   -0.15735E+00   -0.15748E+00 10640   0.294E+00 0.615E-03
CGA:   3    -0.128339828245E+04   -0.66705E-01   -0.66593E-01 10640   0.481E-01-0.659E-03
CGA:   4    -0.128340648252E+04   -0.82001E-02   -0.81608E-02 10640   0.926E-02-0.151E-03
CGA:   5    -0.128340848166E+04   -0.19991E-02   -0.19737E-02 10640   0.213E-02-0.125E-03
CGA:   6    -0.128340898964E+04   -0.50799E-03   -0.49879E-03 10640   0.696E-03-0.530E-04
CGA:   7    -0.128340910776E+04   -0.11812E-03   -0.12093E-03 10640   0.236E-03 0.137E-04
CGA:   8    -0.128340917949E+04   -0.71727E-04   -0.65089E-04 10640   0.158E-03-0.559E-04
CGA:   9    -0.128340922291E+04   -0.43426E-04   -0.40037E-04 10640   0.144E-03-0.663E-04
CGA:  10    -0.128340925479E+04   -0.31879E-04   -0.26953E-04 10640   0.144E-03-0.837E-04
CGA:  11    -0.128340928544E+04   -0.30648E-04   -0.24612E-04 10640   0.810E-04-0.291E-04
CGA:  12    -0.128340929708E+04   -0.11642E-04   -0.12936E-04 10640   0.191E-04 0.790E-05
CGA:  13    -0.128340930332E+04   -0.62363E-05   -0.60926E-05 10640   0.237E-04-0.218E-05
CGA:  14    -0.128340931906E+04   -0.15739E-04    0.62537E-04 10640   0.483E-04-0.209E-04
CGA:  15    -0.128340932101E+04   -0.19517E-05   -0.50895E-05 10640   0.103E-04 0.127E-04
  26 F= -.12834093E+04 E0= -.12834093E+04  d E =0.350568E-02  mag=    47.0000
       N       E                     dE             d eps       ncg     rms          ort
SDA:   1    -0.126653388803E+04    0.16875E+02    0.00000E+00 10640   0.526E+02 0.000E+00
CGA:   2    -0.127692673838E+04   -0.10393E+02   -0.10395E+02 10640   0.201E+02 0.357E-01
CGA:   3    -0.128212467529E+04   -0.51979E+01   -0.52000E+01 10640   0.509E+01 0.103E-01
CGA:   4    -0.128291676795E+04   -0.79209E+00   -0.79301E+00 10640   0.728E+00 0.133E-01
CGA:   5    -0.128306970089E+04   -0.15293E+00   -0.15314E+00 10640   0.185E+00 0.172E-02
CGA:   6    -0.128310979802E+04   -0.40097E-01   -0.40138E-01 10640   0.648E-01 0.754E-03
CGA:   7    -0.128312131740E+04   -0.11519E-01   -0.11494E-01 10640   0.183E-01-0.857E-04
CGA:   8    -0.128312539467E+04   -0.40773E-02   -0.40729E-02 10640   0.689E-02-0.297E-04
CGA:   9    -0.128312709393E+04   -0.16993E-02   -0.17189E-02 10640   0.305E-02 0.424E-03
CGA:  10    -0.128312780580E+04   -0.71186E-03   -0.73279E-03 10640   0.143E-02 0.309E-03
CGA:  11    -0.128312812445E+04   -0.31865E-03   -0.34105E-03 10640   0.483E-03 0.302E-03
CGA:  12    -0.128312827546E+04   -0.15101E-03   -0.15528E-03 10640   0.212E-03 0.190E-03
CGA:  13    -0.128312831389E+04   -0.38428E-04   -0.56081E-04 10640   0.121E-03 0.183E-03
CGA:  14    -0.128312832364E+04   -0.97562E-05   -0.20594E-04 10640   0.872E-04 0.971E-04
CGA:  15    -0.128312832748E+04   -0.38407E-05   -0.13582E-04 10640   0.765E-04 0.807E-04
CGA:  16    -0.128312832895E+04   -0.14614E-05   -0.10843E-04 10640   0.702E-04 0.729E-04
  27 F= -.12831283E+04 E0= -.12831283E+04  d E =0.280992E+00  mag=    47.0000
       N       E                     dE             d eps       ncg     rms          ort
SDA:   1    -0.127344656533E+04    0.96818E+01    0.00000E+00 10640   0.322E+02 0.000E+00
CGA:   2    -0.127969490392E+04   -0.62483E+01   -0.62482E+01 10640   0.120E+02 0.105E-01
CGA:   3    -0.128283211638E+04   -0.31372E+01   -0.31371E+01 10640   0.308E+01 0.117E-01
CGA:   4    -0.128331379686E+04   -0.48168E+00   -0.48238E+00 10640   0.425E+00 0.780E-02
CGA:   5    -0.128340523853E+04   -0.91442E-01   -0.91451E-01 10640   0.100E+00 0.285E-03
CGA:   6    -0.128343007073E+04   -0.24832E-01   -0.24832E-01 10640   0.271E-01-0.601E-03
CGA:   7    -0.128343576248E+04   -0.56917E-02   -0.56820E-02 10640   0.857E-02-0.245E-03
CGA:   8    -0.128343757627E+04   -0.18138E-02   -0.18033E-02 10640   0.442E-02-0.294E-03
CGA:   9    -0.128343859852E+04   -0.10222E-02   -0.10204E-02 10640   0.184E-02-0.332E-03
CGA:  10    -0.128343911746E+04   -0.51894E-03   -0.53870E-03 10640   0.102E-02-0.270E-03
CGA:  11    -0.128343935286E+04   -0.23540E-03   -0.26614E-03 10640   0.125E-02-0.535E-03
CGA:  12    -0.128343947953E+04   -0.12667E-03   -0.13480E-03 10640   0.206E-03 0.603E-04
CGA:  13    -0.128343955150E+04   -0.71972E-04   -0.13927E-03 10640   0.406E-03-0.167E-03
CGA:  14    -0.128343966300E+04   -0.11150E-03   -0.11366E-03 10640   0.234E-03-0.132E-03
CGA:  15    -0.128343968372E+04   -0.20715E-04   -0.21618E-04 10640   0.773E-04 0.746E-05
CGA:  16    -0.128343970115E+04   -0.17434E-04   -0.17544E-04 10640   0.742E-04 0.284E-05
CGA:  17    -0.128343974628E+04   -0.45136E-04    0.67363E-04 10640   0.825E-04-0.153E-04
CGA:  18    -0.128343981571E+04   -0.69423E-04    0.78265E-05 10640   0.102E-03 0.150E-04
CGA:  19    -0.128343989002E+04   -0.74315E-04    0.76752E-04 10640   0.864E-04 0.139E-04
CGA:  20    -0.128343984163E+04    0.48395E-04   -0.73526E-04 10640   0.110E-02-0.249E-03
CGA:  21    -0.128344002128E+04   -0.17965E-03   -0.15500E-03 10640   0.202E-03-0.172E-03
CGA:  22    -0.128344004333E+04   -0.22053E-04   -0.25212E-04 10640   0.271E-04 0.254E-04
CGA:  23    -0.128344004093E+04    0.24012E-05   -0.18913E-05 10640   0.141E-04 0.209E-04
  28 F= -.12834400E+04 E0= -.12834400E+04  d E =-.311712E+00  mag=    47.0000
       N       E                     dE             d eps       ncg     rms          ort
SDA:   1    -0.128337881596E+04    0.61227E-01    0.00000E+00 10640   0.182E+00 0.000E+00
CGA:   2    -0.128341609710E+04   -0.37281E-01   -0.37320E-01 10640   0.724E-01 0.987E-03
CGA:   3    -0.128343452563E+04   -0.18429E-01   -0.18433E-01 10640   0.179E-01-0.508E-03
CGA:   4    -0.128343724624E+04   -0.27206E-02   -0.27162E-02 10640   0.285E-02-0.429E-04
CGA:   5    -0.128343785685E+04   -0.61062E-03   -0.60471E-03 10640   0.942E-03-0.209E-03
CGA:   6    -0.128343800872E+04   -0.15187E-03   -0.15232E-03 10640   0.289E-03 0.817E-05
CGA:   7    -0.128343805817E+04   -0.49449E-04   -0.51488E-04 10640   0.591E-04 0.344E-04
CGA:   8    -0.128343807018E+04   -0.12002E-04   -0.12801E-04 10640   0.204E-04 0.202E-04
CGA:   9    -0.128343807822E+04   -0.80470E-05   -0.78521E-05 10640   0.154E-04 0.351E-05
CGA:  10    -0.128343799357E+04    0.84652E-04   -0.45585E-04 10640   0.657E-03-0.875E-04
CGA:  11    -0.128343805973E+04   -0.66160E-04   -0.70883E-04 10640   0.102E-03 0.165E-04
CGA:  12    -0.128343808674E+04   -0.27006E-04   -0.28891E-04 10640   0.345E-04 0.141E-04
CGA:  13    -0.128343809523E+04   -0.84961E-05   -0.98816E-05 10640   0.175E-04 0.909E-05
  29 F= -.12834381E+04 E0= -.12834381E+04  d E =0.194570E-02  mag=    47.0000
       N       E                     dE             d eps       ncg     rms          ort
SDA:   1    -0.128147359070E+04    0.19645E+01    0.00000E+00 10640   0.570E+01 0.000E+00
CGA:   2    -0.128271868853E+04   -0.12451E+01   -0.12458E+01 10640   0.244E+01 0.405E-02
CGA:   3    -0.128330566680E+04   -0.58698E+00   -0.58679E+00 10640   0.549E+00-0.219E-02
CGA:   4    -0.128338897787E+04   -0.83311E-01   -0.83251E-01 10640   0.979E-01 0.181E-03
CGA:   5    -0.128340788081E+04   -0.18903E-01   -0.18798E-01 10640   0.284E-01-0.517E-03
CGA:   6    -0.128341316400E+04   -0.52832E-02   -0.52711E-02 10640   0.892E-02-0.207E-04
CGA:   7    -0.128341501398E+04   -0.18500E-02   -0.18495E-02 10640   0.229E-02 0.644E-05
CGA:   8    -0.128341553091E+04   -0.51693E-03   -0.52159E-03 10640   0.102E-02 0.446E-04
CGA:   9    -0.128341583379E+04   -0.30288E-03   -0.29394E-03 10640   0.764E-03-0.170E-03
CGA:  10    -0.128341598541E+04   -0.15162E-03   -0.14645E-03 10640   0.335E-03-0.492E-04
CGA:  11    -0.128341610187E+04   -0.11646E-03   -0.17272E-03 10640   0.621E-03-0.251E-03
CGA:  12    -0.128341616523E+04   -0.63358E-04   -0.82192E-04 10640   0.176E-03 0.924E-04
CGA:  13    -0.128341620494E+04   -0.39712E-04   -0.43629E-04 10640   0.705E-04 0.349E-04
CGA:  14    -0.128341624131E+04   -0.36370E-04   -0.34781E-04 10640   0.929E-04 0.177E-04
CGA:  15    -0.128341625543E+04   -0.14122E-04   -0.21459E-04 10640   0.571E-04 0.514E-04
CGA:  16    -0.128341627838E+04   -0.22948E-04   -0.36603E-04 10640   0.270E-03-0.426E-04
CGA:  17    -0.128341629837E+04   -0.19983E-04   -0.26558E-04 10640   0.341E-04 0.284E-04
CGA:  18    -0.128341630558E+04   -0.72149E-05   -0.86732E-05 10640   0.300E-04 0.155E-04
CGA:  19    -0.128341631889E+04   -0.13310E-04   -0.13453E-04 10640   0.514E-04 0.128E-04
CGA:  20    -0.128341634137E+04   -0.22479E-04   -0.22799E-04 10640   0.626E-04 0.401E-04
CGA:  21    -0.128341635981E+04   -0.18443E-04   -0.18414E-04 10640   0.395E-04-0.115E-05
CGA:  22    -0.128341637082E+04   -0.11008E-04   -0.11029E-04 10640   0.289E-04 0.677E-06
CGA:  23    -0.128341638195E+04   -0.11128E-04   -0.10643E-04 10640   0.446E-04 0.105E-04
CGA:  24    -0.128341640891E+04   -0.26964E-04   -0.24589E-04 10640   0.286E-04 0.277E-04
CGA:  25    -0.128341640915E+04   -0.23560E-06   -0.33387E-05 10640   0.126E-04 0.151E-04
  30 F= -.12834164E+04 E0= -.12834164E+04  d E =0.216861E-01  mag=    47.0000
       N       E                     dE             d eps       ncg     rms          ort
SDA:   1    -0.126087154605E+04    0.22545E+02    0.00000E+00 10640   0.727E+02 0.000E+00
CGA:   2    -0.127468687860E+04   -0.13815E+02   -0.13799E+02 10640   0.265E+02 0.124E+00
CGA:   3    -0.128147418167E+04   -0.67873E+01   -0.67937E+01 10640   0.792E+01 0.414E-01
CGA:   4    -0.128266279197E+04   -0.11886E+01   -0.11826E+01 10640   0.114E+01 0.641E-01
CGA:   5    -0.128288261395E+04   -0.21982E+00   -0.22054E+00 10640   0.329E+00 0.495E-02
CGA:   6    -0.128294580467E+04   -0.63191E-01   -0.63301E-01 10640   0.107E+00 0.213E-02
CGA:   7    -0.128296774430E+04   -0.21940E-01   -0.21892E-01 10640   0.274E-01-0.376E-03
CGA:   8    -0.128297373947E+04   -0.59952E-02   -0.60031E-02 10640   0.115E-01 0.184E-03
CGA:   9    -0.128297635351E+04   -0.26140E-02   -0.26413E-02 10640   0.514E-02 0.512E-03
CGA:  10    -0.128297743483E+04   -0.10813E-02   -0.11554E-02 10640   0.178E-02 0.114E-02
CGA:  11    -0.128297788850E+04   -0.45368E-03   -0.49532E-03 10640   0.660E-03 0.829E-03
CGA:  12    -0.128297808427E+04   -0.19577E-03   -0.21967E-03 10640   0.362E-03 0.498E-03
CGA:  13    -0.128297813317E+04   -0.48898E-04   -0.69547E-04 10640   0.245E-03 0.255E-03
CGA:  14    -0.128297816759E+04   -0.34423E-04   -0.48594E-04 10640   0.209E-03 0.203E-03
CGA:  15    -0.128297817236E+04   -0.47627E-05   -0.28471E-04 10640   0.184E-03 0.184E-03
CGA:  16    -0.128297818189E+04   -0.95292E-05   -0.27922E-04 10640   0.168E-03 0.172E-03
CGA:  17    -0.128297818580E+04   -0.39159E-05   -0.22799E-04 10640   0.156E-03 0.161E-03
CGA:  18    -0.128297818937E+04   -0.35655E-05   -0.20821E-04 10640   0.147E-03 0.151E-03
CGA:  19    -0.128297819150E+04   -0.21383E-05   -0.18583E-04 10640   0.139E-03 0.143E-03
CGA:  20    -0.128297819312E+04   -0.16136E-05   -0.17017E-04 10640   0.132E-03 0.136E-03
CGA:  21    -0.128297819423E+04   -0.11161E-05   -0.15628E-04 10640   0.126E-03 0.129E-03
CGA:  22    -0.128297819506E+04   -0.82902E-06   -0.14476E-04 10640   0.121E-03 0.124E-03
CGA:  23    -0.128297819569E+04   -0.62468E-06   -0.13473E-04 10640   0.116E-03 0.119E-03
CGA:  24    -0.128297819618E+04   -0.49668E-06   -0.12599E-04 10640   0.112E-03 0.114E-03
CGA:  25    -0.128297819661E+04   -0.42297E-06   -0.11830E-04 10640   0.109E-03 0.110E-03
CGA:  26    -0.128297819701E+04   -0.39908E-06   -0.11155E-04 10640   0.105E-03 0.107E-03
CGA:  27    -0.128297819741E+04   -0.40038E-06   -0.10551E-04 10640   0.102E-03 0.103E-03
CGA:  28    -0.128297819781E+04   -0.40752E-06   -0.10001E-04 10640   0.990E-04 0.100E-03
  31 F= -.12829782E+04 E0= -.12829782E+04  d E =0.438211E+00  mag=    47.0000
       N       E                     dE             d eps       ncg     rms          ort
SDA:   1    -0.127375177694E+04    0.92264E+01    0.00000E+00 10640   0.311E+02 0.000E+00
CGA:   2    -0.127980767662E+04   -0.60559E+01   -0.60559E+01 10640   0.116E+02 0.133E-01
CGA:   3    -0.128281723877E+04   -0.30096E+01   -0.30087E+01 10640   0.312E+01 0.583E-02
CGA:   4    -0.128329669180E+04   -0.47945E+00   -0.47953E+00 10640   0.449E+00 0.432E-02
CGA:   5    -0.128338745024E+04   -0.90758E-01   -0.90789E-01 10640   0.127E+00-0.176E-02
CGA:   6    -0.128341209813E+04   -0.24648E-01   -0.24660E-01 10640   0.459E-01-0.141E-02
CGA:   7    -0.128342033900E+04   -0.82409E-02   -0.82424E-02 10640   0.104E-01 0.335E-03
CGA:   8    -0.128342292166E+04   -0.25827E-02   -0.25969E-02 10640   0.414E-02-0.227E-03
CGA:   9    -0.128342408338E+04   -0.11617E-02   -0.12995E-02 10640   0.358E-02-0.105E-02
CGA:  10    -0.128342464587E+04   -0.56249E-03   -0.57999E-03 10640   0.172E-02-0.854E-03
CGA:  11    -0.128342412152E+04    0.52435E-03   -0.95398E-03 10640   0.779E-02-0.279E-02
CGA:  12    -0.128342518840E+04   -0.10669E-02   -0.10819E-02 10640   0.176E-02 0.190E-03
CGA:  13    -0.128342551322E+04   -0.32482E-03   -0.32796E-03 10640   0.454E-03 0.842E-04
CGA:  14    -0.128342565002E+04   -0.13680E-03   -0.13124E-03 10640   0.203E-03 0.972E-04
CGA:  15    -0.128342574742E+04   -0.97401E-04   -0.10837E-03 10640   0.225E-03-0.502E-04
CGA:  16    -0.128342578471E+04   -0.37290E-04   -0.64943E-04 10640   0.289E-03-0.181E-03
CGA:  17    -0.128342580975E+04   -0.25045E-04   -0.32402E-04 10640   0.674E-04 0.584E-04
CGA:  18    -0.128342583405E+04   -0.24300E-04   -0.52665E-04 10640   0.231E-03-0.682E-04
CGA:  19    -0.128342588904E+04   -0.54992E-04   -0.51451E-04 10640   0.162E-03-0.113E-03
CGA:  20    -0.128342590104E+04   -0.11993E-04   -0.12987E-04 10640   0.552E-04 0.105E-04
CGA:  21    -0.128342590500E+04   -0.39662E-05   -0.55495E-05 10640   0.159E-04 0.105E-04
CGA:  22    -0.128342591440E+04   -0.93980E-05    0.67116E-04 10640   0.257E-04-0.229E-05
  32 F= -.12834259E+04 E0= -.12834259E+04  d E =-.447717E+00  mag=    47.0000
       N       E                     dE             d eps       ncg     rms          ort
SDA:   1    -0.128265526782E+04    0.77064E+00    0.00000E+00 10640   0.257E+01 0.000E+00
CGA:   2    -0.128314617478E+04   -0.49091E+00   -0.49108E+00 10640   0.935E+00 0.474E-02
CGA:   3    -0.128338734533E+04   -0.24117E+00   -0.24119E+00 10640   0.275E+00-0.152E-02
CGA:   4    -0.128342896884E+04   -0.41624E-01   -0.41649E-01 10640   0.387E-01 0.451E-03
CGA:   5    -0.128343679555E+04   -0.78267E-02   -0.78024E-02 10640   0.115E-01-0.717E-03
CGA:   6    -0.128343894979E+04   -0.21542E-02   -0.21493E-02 10640   0.390E-02-0.100E-03
CGA:   7    -0.128343966333E+04   -0.71354E-03   -0.71810E-03 10640   0.884E-03 0.107E-03
CGA:   8    -0.128343985894E+04   -0.19561E-03   -0.19666E-03 10640   0.313E-03 0.898E-04
CGA:   9    -0.128343997058E+04   -0.11164E-03   -0.12308E-03 10640   0.332E-03-0.879E-04
CGA:  10    -0.128344002180E+04   -0.51222E-04   -0.49614E-04 10640   0.167E-03-0.613E-04
CGA:  11    -0.128343940820E+04    0.61360E-03   -0.33054E-03 10640   0.314E-02-0.648E-03
CGA:  12    -0.128344002072E+04   -0.61252E-03   -0.63788E-03 10640   0.511E-03 0.116E-03
CGA:  13    -0.128344011933E+04   -0.98614E-04   -0.10397E-03 10640   0.241E-03 0.254E-04
CGA:  14    -0.128344015936E+04   -0.40025E-04   -0.51446E-04 10640   0.101E-03 0.575E-04
CGA:  15    -0.128344020413E+04   -0.44777E-04   -0.44675E-04 10640   0.853E-04-0.275E-05
CGA:  16    -0.128344022741E+04   -0.23272E-04   -0.21403E-04 10640   0.330E-04-0.139E-04
CGA:  17    -0.128344022733E+04    0.78919E-07   -0.30987E-05 10640   0.147E-04 0.117E-04
  33 F= -.12834402E+04 E0= -.12834402E+04  d E =-.143129E-01  mag=    47.0000
       N       E                     dE             d eps       ncg     rms          ort
SDA:   1    -0.128304391584E+04    0.39631E+00    0.00000E+00 10640   0.123E+01 0.000E+00
CGA:   2    -0.128328792874E+04   -0.24401E+00   -0.24433E+00 10640   0.465E+00 0.228E-02
CGA:   3    -0.128340640815E+04   -0.11848E+00   -0.11841E+00 10640   0.127E+00-0.903E-03
CGA:   4    -0.128342558459E+04   -0.19176E-01   -0.19220E-01 10640   0.193E-01 0.303E-03
CGA:   5    -0.128342955639E+04   -0.39718E-02   -0.39084E-02 10640   0.595E-02-0.461E-03
CGA:   6    -0.128343058999E+04   -0.10336E-02   -0.10457E-02 10640   0.189E-02 0.900E-04
CGA:   7    -0.128343094841E+04   -0.35842E-03   -0.36965E-03 10640   0.431E-03 0.885E-04
CGA:   8    -0.128343104476E+04   -0.96350E-04   -0.10149E-03 10640   0.160E-03 0.569E-04
CGA:   9    -0.128343109224E+04   -0.47480E-04   -0.48474E-04 10640   0.936E-04 0.225E-04
CGA:  10    -0.128343112073E+04   -0.28488E-04   -0.28809E-04 10640   0.613E-04 0.829E-05
CGA:  11    -0.128343114010E+04   -0.19369E-04   -0.19463E-04 10640   0.397E-04 0.607E-05
CGA:  12    -0.128343114261E+04   -0.25132E-05   -0.66529E-05 10640   0.228E-04 0.269E-04
  34 F= -.12834311E+04 E0= -.12834311E+04  d E =0.908471E-02  mag=    47.0000
       N       E                     dE             d eps       ncg     rms          ort
SDA:   1    -0.126567552342E+04    0.17756E+02    0.00000E+00 10640   0.548E+02 0.000E+00
CGA:   2    -0.127658824706E+04   -0.10913E+02   -0.10912E+02 10640   0.215E+02 0.197E-01
CGA:   3    -0.128193912210E+04   -0.53509E+01   -0.53529E+01 10640   0.596E+01 0.262E-01
CGA:   4    -0.128282436444E+04   -0.88524E+00   -0.88362E+00 10640   0.913E+00 0.300E-01
CGA:   5    -0.128299644125E+04   -0.17208E+00   -0.17252E+00 10640   0.267E+00 0.444E-02
CGA:   6    -0.128304672681E+04   -0.50286E-01   -0.50331E-01 10640   0.828E-01 0.127E-02
CGA:   7    -0.128306420668E+04   -0.17480E-01   -0.17415E-01 10640   0.220E-01-0.959E-03
CGA:   8    -0.128306894073E+04   -0.47340E-02   -0.47224E-02 10640   0.951E-02-0.184E-03
CGA:   9    -0.128307109121E+04   -0.21505E-02   -0.21523E-02 10640   0.422E-02 0.658E-04
CGA:  10    -0.128307198026E+04   -0.88905E-03   -0.92347E-03 10640   0.143E-02 0.750E-03
CGA:  11    -0.128307238150E+04   -0.40124E-03   -0.41013E-03 10640   0.526E-03 0.482E-03
CGA:  12    -0.128307254984E+04   -0.16834E-03   -0.17244E-03 10640   0.278E-03 0.275E-03
CGA:  13    -0.128307259406E+04   -0.44223E-04   -0.53401E-04 10640   0.194E-03 0.136E-03
CGA:  14    -0.128307263200E+04   -0.37937E-04   -0.52739E-04 10640   0.130E-03 0.200E-03
CGA:  15    -0.128307264728E+04   -0.15280E-04   -0.23195E-04 10640   0.107E-03 0.108E-03
CGA:  16    -0.128307264971E+04   -0.24308E-05   -0.14110E-04 10640   0.983E-04 0.100E-03
CGA:  17    -0.128307265488E+04   -0.51649E-05   -0.14356E-04 10640   0.922E-04 0.948E-04
CGA:  18    -0.128307265853E+04   -0.36575E-05   -0.12675E-04 10640   0.872E-04 0.895E-04
CGA:  19    -0.128307266169E+04   -0.31535E-05   -0.11635E-04 10640   0.829E-04 0.850E-04
CGA:  20    -0.128307266439E+04   -0.27017E-05   -0.10714E-04 10640   0.791E-04 0.810E-04
  35 F= -.12830727E+04 E0= -.12830727E+04  d E =0.358478E+00  mag=    47.0000
       N       E                     dE             d eps       ncg     rms          ort
SDA:   1    -0.126735664929E+04    0.15716E+02    0.00000E+00 10640   0.521E+02 0.000E+00
CGA:   2    -0.127741007973E+04   -0.10053E+02   -0.10053E+02 10640   0.192E+02 0.261E-01
CGA:   3    -0.128239362175E+04   -0.49835E+01   -0.49820E+01 10640   0.528E+01 0.200E-01
CGA:   4    -0.128320107124E+04   -0.80745E+00   -0.80747E+00 10640   0.771E+00 0.879E-02
CGA:   5    -0.128335302981E+04   -0.15196E+00   -0.15193E+00 10640   0.225E+00-0.127E-02
CGA:   6    -0.128339544567E+04   -0.42416E-01   -0.42378E-01 10640   0.779E-01-0.113E-02
CGA:   7    -0.128341027483E+04   -0.14829E-01   -0.14826E-01 10640   0.179E-01-0.297E-04
CGA:   8    -0.128341450659E+04   -0.42318E-02   -0.42303E-02 10640   0.704E-02 0.841E-04
CGA:   9    -0.128341643397E+04   -0.19274E-02   -0.20006E-02 10640   0.503E-02-0.104E-02
CGA:  10    -0.128341734714E+04   -0.91317E-03   -0.91064E-03 10640   0.206E-02-0.548E-03
CGA:  11    -0.128341753491E+04   -0.18777E-03   -0.11033E-02 10640   0.574E-02-0.237E-02
CGA:  12    -0.128341824860E+04   -0.71370E-03   -0.73673E-03 10640   0.124E-02 0.229E-03
CGA:  13    -0.128341852794E+04   -0.27934E-03   -0.27852E-03 10640   0.360E-03-0.549E-04
CGA:  14    -0.128341864959E+04   -0.12165E-03   -0.13248E-03 10640   0.342E-03-0.684E-04
CGA:  15    -0.128341704381E+04    0.16058E-02   -0.86504E-03 10640   0.132E-01-0.154E-02
CGA:  16    -0.128341850688E+04   -0.14631E-02   -0.14826E-02 10640   0.147E-02 0.818E-04
CGA:  17    -0.128341886245E+04   -0.35557E-03   -0.35897E-03 10640   0.771E-03 0.212E-04
CGA:  18    -0.128341906154E+04   -0.19909E-03   -0.19763E-03 10640   0.334E-03-0.762E-05
CGA:  19    -0.128341920125E+04   -0.13971E-03   -0.14476E-03 10640   0.293E-03-0.135E-03
CGA:  20    -0.128341920190E+04   -0.65395E-06   -0.16086E-04 10640   0.117E-03 0.501E-04
CGA:  21    -0.128341919866E+04    0.32445E-05   -0.10711E-04 10640   0.554E-04 0.453E-04
  36 F= -.12834192E+04 E0= -.12834192E+04  d E =-.346534E+00  mag=    47.0000
[...]
CGA:   4    -0.128343581451E+04   -0.18658E-01   -0.18749E-01 10640   0.171E-01 0.499E-03
CGA:   5    -0.128343955452E+04   -0.37400E-02   -0.36934E-02 10640   0.443E-02-0.360E-03
CGA:   6    -0.128344047895E+04   -0.92444E-03   -0.93129E-03 10640   0.145E-02 0.595E-04
CGA:   7    -0.128344076451E+04   -0.28556E-03   -0.27283E-03 10640   0.487E-03-0.856E-04
CGA:   8    -0.128344084626E+04   -0.81743E-04   -0.85517E-04 10640   0.152E-03 0.282E-04
CGA:   9    -0.128344090040E+04   -0.54148E-04   -0.54968E-04 10640   0.114E-03-0.326E-04
CGA:  10    -0.128344091951E+04   -0.19103E-04   -0.43300E-04 10640   0.425E-03-0.145E-03
CGA:  11    -0.128344095262E+04   -0.33113E-04   -0.41040E-04 10640   0.438E-04 0.356E-04
CGA:  12    -0.128344096259E+04   -0.99730E-05   -0.10944E-04 10640   0.188E-04 0.115E-04
CGA:  13    -0.128344085750E+04    0.10509E-03   -0.30600E-04 10640   0.121E-02-0.138E-03
CGA:  14    -0.128344095026E+04   -0.92759E-04   -0.11565E-03 10640   0.824E-04 0.907E-04
CGA:  15    -0.128344096893E+04   -0.18675E-04   -0.21016E-04 10640   0.392E-04 0.214E-04
CGA:  16    -0.128344098580E+04   -0.16864E-04   -0.16563E-04 10640   0.957E-04-0.538E-04
CGA:  17    -0.128344098569E+04    0.10555E-06   -0.72525E-05 10640   0.119E-04 0.280E-04
  41 F= -.12834410E+04 E0= -.12834410E+04  d E =-.238892E-01  mag=    47.0000
       N       E                     dE             d eps       ncg     rms          ort
SDA:   1    -0.128282804585E+04    0.61294E+00    0.00000E+00 10640   0.187E+01 0.000E+00
CGA:   2    -0.128321235156E+04   -0.38431E+00   -0.38445E+00 10640   0.746E+00 0.202E-02
CGA:   3    -0.128340028520E+04   -0.18793E+00   -0.18795E+00 10640   0.179E+00 0.781E-04
CGA:   4    -0.128342826869E+04   -0.27983E-01   -0.28021E-01 10640   0.268E-01 0.303E-03
CGA:   5    -0.128343390749E+04   -0.56388E-02   -0.56262E-02 10640   0.699E-02-0.135E-03
CGA:   6    -0.128343537240E+04   -0.14649E-02   -0.14516E-02 10640   0.278E-02-0.149E-03
CGA:   7    -0.128343579127E+04   -0.41887E-03   -0.43166E-03 10640   0.663E-03 0.102E-03
CGA:   8    -0.128343595068E+04   -0.15940E-03   -0.16111E-03 10640   0.224E-03 0.353E-04
CGA:   9    -0.128343602916E+04   -0.78488E-04   -0.78892E-04 10640   0.115E-03-0.739E-05
CGA:  10    -0.128343606172E+04   -0.32552E-04   -0.32557E-04 10640   0.664E-04-0.479E-06
CGA:  11    -0.128343607403E+04   -0.12311E-04   -0.13037E-04 10640   0.276E-04 0.847E-05
CGA:  12    -0.128343607825E+04   -0.42249E-05   -0.57169E-05 10640   0.135E-04 0.156E-04
  42 F= -.12834361E+04 E0= -.12834361E+04  d E =0.490744E-02  mag=    47.0000
       N       E                     dE             d eps       ncg     rms          ort
SDA:   1    -0.127196941046E+04    0.11467E+02    0.00000E+00 10640   0.360E+02 0.000E+00
CGA:   2    -0.127897785003E+04   -0.70084E+01   -0.70095E+01 10640   0.135E+02 0.891E-02
CGA:   3    -0.128248606636E+04   -0.35082E+01   -0.35083E+01 10640   0.345E+01 0.148E-01
CGA:   4    -0.128302702788E+04   -0.54096E+00   -0.54196E+00 10640   0.485E+00 0.948E-02
CGA:   5    -0.128312999942E+04   -0.10297E+00   -0.10310E+00 10640   0.117E+00 0.290E-02
CGA:   6    -0.128315719722E+04   -0.27198E-01   -0.27213E-01 10640   0.376E-01 0.726E-03
CGA:   7    -0.128316417975E+04   -0.69825E-02   -0.69427E-02 10640   0.126E-01-0.516E-03
CGA:   8    -0.128316663807E+04   -0.24583E-02   -0.24620E-02 10640   0.470E-02 0.928E-04
CGA:   9    -0.128316779511E+04   -0.11570E-02   -0.11582E-02 10640   0.192E-02 0.423E-03
CGA:  10    -0.128316821238E+04   -0.41727E-03   -0.43626E-03 10640   0.852E-03 0.486E-03
CGA:  11    -0.128316840586E+04   -0.19348E-03   -0.21142E-03 10640   0.317E-03 0.379E-03
CGA:  12    -0.128316849422E+04   -0.88358E-04   -0.96458E-04 10640   0.185E-03 0.249E-03
CGA:  13    -0.128316852244E+04   -0.28221E-04   -0.34495E-04 10640   0.133E-03 0.113E-03
CGA:  14    -0.128316853551E+04   -0.13066E-04   -0.20776E-04 10640   0.111E-03 0.940E-04
CGA:  15    -0.128316854270E+04   -0.71930E-05   -0.15625E-04 10640   0.957E-04 0.901E-04
CGA:  16    -0.128316854890E+04   -0.62055E-05   -0.13691E-04 10640   0.866E-04 0.862E-04
CGA:  17    -0.128316855271E+04   -0.38075E-05   -0.11444E-04 10640   0.802E-04 0.817E-04
CGA:  18    -0.128316855620E+04   -0.34892E-05   -0.10480E-04 10640   0.754E-04 0.774E-04
  43 F= -.12831686E+04 E0= -.12831686E+04  d E =0.267522E+00  mag=    47.0000
       N       E                     dE             d eps       ncg     rms          ort
SDA:   1    -0.126212204014E+04    0.21047E+02    0.00000E+00 10640   0.685E+02 0.000E+00
CGA:   2    -0.127537522132E+04   -0.13253E+02   -0.13253E+02 10640   0.253E+02 0.305E-01
CGA:   3    -0.128200981096E+04   -0.66346E+01   -0.66318E+01 10640   0.658E+01 0.373E-01
CGA:   4    -0.128303860735E+04   -0.10288E+01   -0.10296E+01 10640   0.935E+00 0.140E-01
CGA:   5    -0.128323309876E+04   -0.19449E+00   -0.19449E+00 10640   0.243E+00 0.111E-02
CGA:   6    -0.128328456095E+04   -0.51462E-01   -0.51465E-01 10640   0.923E-01-0.157E-02
CGA:   7    -0.128330007850E+04   -0.15518E-01   -0.15506E-01 10640   0.241E-01-0.772E-04
CGA:   8    -0.128330551303E+04   -0.54345E-02   -0.54360E-02 10640   0.890E-02-0.480E-04
CGA:   9    -0.128330802556E+04   -0.25125E-02   -0.25771E-02 10640   0.543E-02-0.784E-03
CGA:  10    -0.128330901398E+04   -0.98842E-03   -0.98902E-03 10640   0.223E-02 0.555E-04
CGA:  11    -0.128330971215E+04   -0.69817E-03   -0.85919E-03 10640   0.193E-02-0.951E-03
CGA:  12    -0.128330996721E+04   -0.25506E-03   -0.26040E-03 10640   0.114E-02-0.391E-03
CGA:  13    -0.128331021946E+04   -0.25225E-03   -0.27297E-03 10640   0.710E-03-0.267E-03
CGA:  14    -0.128331037996E+04   -0.16050E-03   -0.16580E-03 10640   0.556E-03-0.664E-04
CGA:  15    -0.128331052154E+04   -0.14158E-03   -0.14085E-03 10640   0.361E-03 0.139E-04
CGA:  16    -0.128331066165E+04   -0.14010E-03   -0.15533E-03 10640   0.358E-03-0.824E-04
CGA:  17    -0.128331069446E+04   -0.32814E-04   -0.40838E-04 10640   0.168E-03 0.857E-04
CGA:  18    -0.128331071946E+04   -0.24998E-04   -0.31517E-04 10640   0.110E-03 0.757E-04
CGA:  19    -0.128331075128E+04   -0.31824E-04   -0.32771E-04 10640   0.599E-04 0.347E-04
CGA:  20    -0.128331076229E+04   -0.11006E-04   -0.13144E-04 10640   0.433E-04 0.331E-04
CGA:  21    -0.128331076343E+04   -0.11399E-05   -0.47722E-05 10640   0.257E-04 0.309E-04
  44 F= -.12833108E+04 E0= -.12833108E+04  d E =-.142207E+00  mag=    47.0000
       N       E                     dE             d eps       ncg     rms          ort
SDA:   1    -0.128051073208E+04    0.28000E+01    0.00000E+00 10640   0.941E+01 0.000E+00
CGA:   2    -0.128234267790E+04   -0.18319E+01   -0.18318E+01 10640   0.352E+01-0.512E-02
CGA:   3    -0.128326295605E+04   -0.92028E+00   -0.92007E+00 10640   0.904E+00 0.338E-02
CGA:   4    -0.128340488917E+04   -0.14193E+00   -0.14195E+00 10640   0.126E+00 0.378E-03
CGA:   5    -0.128343140606E+04   -0.26517E-01   -0.26523E-01 10640   0.295E-01 0.103E-02
CGA:   6    -0.128343854112E+04   -0.71351E-02   -0.71308E-02 10640   0.852E-02 0.198E-03
CGA:   7    -0.128344027914E+04   -0.17380E-02   -0.17353E-02 10640   0.282E-02-0.166E-03
CGA:   8    -0.128344086848E+04   -0.58934E-03   -0.58879E-03 10640   0.130E-02-0.134E-03
CGA:   9    -0.128344119159E+04   -0.32311E-03   -0.32981E-03 10640   0.630E-03-0.132E-03
CGA:  10    -0.128344132317E+04   -0.13158E-03   -0.13154E-03 10640   0.304E-03 0.378E-05
CGA:  11    -0.128344140468E+04   -0.81511E-04   -0.90089E-04 10640   0.292E-03-0.114E-03
CGA:  12    -0.128344144516E+04   -0.40476E-04   -0.40307E-04 10640   0.130E-03-0.544E-04
CGA:  13    -0.128344144892E+04   -0.37660E-05   -0.75019E-04 10640   0.393E-03-0.148E-03
CGA:  14    -0.128344152726E+04   -0.78335E-04   -0.77739E-04 10640   0.116E-03-0.116E-04
CGA:  15    -0.128344153549E+04   -0.82318E-05   -0.12783E-04 10640   0.329E-04 0.347E-04
  45 F= -.12834415E+04 E0= -.12834415E+04  d E =-.130772E+00  mag=    47.0000
       N       E                     dE             d eps       ncg     rms          ort
SDA:   1    -0.128339753618E+04    0.43991E-01    0.00000E+00 10640   0.146E+00 0.000E+00
CGA:   2    -0.128342616200E+04   -0.28626E-01   -0.28620E-01 10640   0.565E-01-0.912E-04
CGA:   3    -0.128344043009E+04   -0.14268E-01   -0.14276E-01 10640   0.168E-01-0.359E-03
CGA:   4    -0.128344280992E+04   -0.23798E-02   -0.23837E-02 10640   0.263E-02 0.573E-04
CGA:   5    -0.128344331167E+04   -0.50175E-03   -0.49675E-03 10640   0.828E-03-0.124E-03
CGA:   6    -0.128344343810E+04   -0.12643E-03   -0.13084E-03 10640   0.203E-03 0.750E-04
CGA:   7    -0.128344348655E+04   -0.48450E-04   -0.48519E-04 10640   0.498E-04 0.189E-04
CGA:   8    -0.128344350435E+04   -0.17805E-04   -0.20930E-04 10640   0.556E-04-0.193E-04
CGA:   9    -0.128344350482E+04   -0.46769E-06   -0.30034E-05 10640   0.354E-04 0.178E-04
  46 F= -.12834435E+04 E0= -.12834435E+04  d E =-.196933E-02  mag=    47.0000
       N       E                     dE             d eps       ncg     rms          ort
SDA:   1    -0.128171631297E+04    0.17272E+01    0.00000E+00 10640   0.524E+01 0.000E+00
CGA:   2    -0.128280663810E+04   -0.10903E+01   -0.10904E+01 10640   0.209E+01 0.458E-02
CGA:   3    -0.128333034511E+04   -0.52371E+00   -0.52369E+00 10640   0.478E+00-0.439E-03
CGA:   4    -0.128340612283E+04   -0.75778E-01   -0.75852E-01 10640   0.750E-01 0.124E-02
CGA:   5    -0.128342257315E+04   -0.16450E-01   -0.16454E-01 10640   0.178E-01-0.935E-03
CGA:   6    -0.128342679749E+04   -0.42243E-02   -0.42211E-02 10640   0.483E-02 0.138E-03
CGA:   7    -0.128342796613E+04   -0.11686E-02   -0.11890E-02 10640   0.225E-02-0.722E-03
CGA:   8    -0.128342828579E+04   -0.31966E-03   -0.32553E-03 10640   0.831E-03 0.128E-03
CGA:   9    -0.128342854936E+04   -0.26357E-03   -0.29629E-03 10640   0.735E-03-0.267E-03
CGA:  10    -0.128342736957E+04    0.11798E-02   -0.50341E-03 10640   0.110E-01-0.213E-02
CGA:  11    -0.128342841447E+04   -0.10449E-02   -0.11861E-02 10640   0.142E-02 0.974E-03
CGA:  12    -0.128342880402E+04   -0.38955E-03   -0.38970E-03 10640   0.661E-03 0.191E-03
CGA:  13    -0.128342898085E+04   -0.17682E-03   -0.17401E-03 10640   0.450E-03-0.132E-03
CGA:  14    -0.128342900410E+04   -0.23251E-04   -0.45239E-04 10640   0.211E-03 0.174E-03
CGA:  15    -0.128342900848E+04   -0.43847E-05   -0.25195E-04 10640   0.882E-04 0.131E-03
CGA:  16    -0.128342904894E+04   -0.40460E-04   -0.41810E-04 10640   0.714E-04-0.578E-05
CGA:  17    -0.128342904244E+04    0.65009E-05   -0.33493E-05 10640   0.432E-04 0.494E-04
  47 F= -.12834290E+04 E0= -.12834290E+04  d E =0.144624E-01  mag=    47.0000
       N       E                     dE             d eps       ncg     rms          ort
SDA:   1    -0.126972957264E+04    0.13699E+02    0.00000E+00 10640   0.478E+02 0.000E+00
CGA:   2    -0.127826001507E+04   -0.85304E+01   -0.85317E+01 10640   0.152E+02 0.460E-01
CGA:   3    -0.128229019770E+04   -0.40302E+01   -0.40281E+01 10640   0.477E+01 0.362E-01
CGA:   4    -0.128304241904E+04   -0.75222E+00   -0.75385E+00 10640   0.646E+00 0.184E-01
CGA:   5    -0.128317779730E+04   -0.13538E+00   -0.13551E+00 10640   0.160E+00 0.824E-02
CGA:   6    -0.128321592779E+04   -0.38130E-01   -0.38145E-01 10640   0.522E-01-0.136E-02
CGA:   7    -0.128322551924E+04   -0.95914E-02   -0.96433E-02 10640   0.148E-01 0.147E-02
CGA:   8    -0.128322915603E+04   -0.36368E-02   -0.36580E-02 10640   0.796E-02-0.118E-02
CGA:   9    -0.128323059821E+04   -0.14422E-02   -0.14645E-02 10640   0.319E-02 0.926E-03
CGA:  10    -0.128323123877E+04   -0.64056E-03   -0.68032E-03 10640   0.136E-02 0.124E-02
CGA:  11    -0.128323168085E+04   -0.44207E-03   -0.43625E-03 10640   0.835E-03 0.579E-03
CGA:  12    -0.128323187241E+04   -0.19156E-03   -0.21546E-03 10640   0.531E-03 0.582E-03
CGA:  13    -0.128323201604E+04   -0.14363E-03   -0.13701E-03 10640   0.468E-03 0.174E-03
CGA:  14    -0.128323220918E+04   -0.19314E-03   -0.18038E-03 10640   0.460E-03 0.186E-03
CGA:  15    -0.128323234624E+04   -0.13707E-03   -0.14042E-03 10640   0.287E-03 0.472E-03
CGA:  16    -0.128323238505E+04   -0.38806E-04   -0.49472E-04 10640   0.176E-03 0.203E-03
CGA:  17    -0.128323246217E+04   -0.77120E-04   -0.61331E-04 10640   0.158E-03 0.125E-03
CGA:  18    -0.128323247417E+04   -0.12004E-04   -0.22022E-04 10640   0.129E-03 0.112E-03
CGA:  19    -0.128323264510E+04   -0.17093E-03   -0.13692E-03 10640   0.750E-03 0.396E-04
CGA:  20    -0.128323285421E+04   -0.20911E-03   -0.22637E-03 10640   0.806E-04 0.491E-03
CGA:  21    -0.128323287945E+04   -0.25239E-04   -0.24497E-04 10640   0.143E-03 0.185E-04
CGA:  22    -0.128323297343E+04   -0.93980E-04    0.31755E-02 10640   0.642E-04 0.131E-03
CGA:  23    -0.128323301766E+04   -0.44230E-04    0.29100E-04 10640   0.784E-04 0.250E-04
CGA:  24    -0.128323307863E+04   -0.60975E-04    0.28304E-03 10640   0.484E-04 0.824E-04
CGA:  25    -0.128323308993E+04   -0.11303E-04   -0.11943E-04 10640   0.430E-04 0.328E-04
CGA:  26    -0.128323312067E+04   -0.30739E-04    0.16439E-04 10640   0.488E-04 0.256E-04
CGA:  27    -0.128323312489E+04   -0.42189E-05   -0.73643E-05 10640   0.363E-04 0.275E-04
  48 F= -.12832331E+04 E0= -.12832331E+04  d E =0.195918E+00  mag=    47.0000
       N       E                     dE             d eps       ncg     rms          ort
SDA:   1    -0.127132472351E+04    0.11908E+02    0.00000E+00 10640   0.404E+02 0.000E+00
CGA:   2    -0.127895935658E+04   -0.76346E+01   -0.76381E+01 10640   0.140E+02 0.443E-01
CGA:   3    -0.128261332001E+04   -0.36540E+01   -0.36539E+01 10640   0.397E+01 0.581E-03
CGA:   4    -0.128323312619E+04   -0.61981E+00   -0.62049E+00 10640   0.577E+00 0.720E-02
CGA:   5    -0.128335519462E+04   -0.12207E+00   -0.12186E+00 10640   0.158E+00-0.498E-02
CGA:   6    -0.128338633830E+04   -0.31144E-01   -0.31124E-01 10640   0.583E-01-0.961E-04
CGA:   7    -0.128339659842E+04   -0.10260E-01   -0.10215E-01 10640   0.154E-01-0.549E-03
CGA:   8    -0.128340024754E+04   -0.36491E-02   -0.36476E-02 10640   0.609E-02-0.430E-03
CGA:   9    -0.128340205768E+04   -0.18101E-02   -0.18877E-02 10640   0.451E-02-0.101E-02
CGA:  10    -0.128340307722E+04   -0.10195E-02   -0.11241E-02 10640   0.477E-02-0.200E-02
CGA:  11    -0.128340375613E+04   -0.67891E-03   -0.72286E-03 10640   0.264E-02-0.190E-02
CGA:  12    -0.128340421761E+04   -0.46148E-03   -0.68705E-03 10640   0.320E-02-0.123E-02
CGA:  13    -0.128340466955E+04   -0.45194E-03   -0.57875E-03 10640   0.347E-02-0.159E-02
CGA:  14    -0.128340507337E+04   -0.40382E-03   -0.40370E-03 10640   0.180E-02-0.484E-05
CGA:  15    -0.128340552112E+04   -0.44775E-03   -0.44918E-03 10640   0.137E-02 0.116E-03
CGA:  16    -0.128340583130E+04   -0.31018E-03   -0.31287E-03 10640   0.591E-03 0.576E-04
CGA:  17    -0.128340584454E+04   -0.13239E-04   -0.68292E-04 10640   0.345E-03 0.371E-03
CGA:  18    -0.128340585090E+04   -0.63606E-05   -0.39200E-04 10640   0.193E-03 0.238E-03
CGA:  19    -0.128340585605E+04   -0.51429E-05   -0.24003E-04 10640   0.133E-03 0.157E-03
CGA:  20    -0.128340585104E+04    0.50103E-05   -0.12315E-04 10640   0.109E-03 0.119E-03
  49 F= -.12834059E+04 E0= -.12834059E+04  d E =-.172726E+00  mag=    47.0000
       N       E                     dE             d eps       ncg     rms          ort
SDA:   1    -0.128299605944E+04    0.40980E+00    0.00000E+00 10640   0.144E+01 0.000E+00
CGA:   2    -0.128327631186E+04   -0.28025E+00   -0.28009E+00 10640   0.528E+00-0.489E-02
CGA:   3    -0.128341073935E+04   -0.13443E+00   -0.13427E+00 10640   0.138E+00 0.446E-02
CGA:   4    -0.128343232417E+04   -0.21585E-01   -0.21632E-01 10640   0.207E-01 0.728E-03
CGA:   5    -0.128343633301E+04   -0.40088E-02   -0.40375E-02 10640   0.538E-02 0.108E-02
CGA:   6    -0.128343743612E+04   -0.11031E-02   -0.11059E-02 10640   0.207E-02 0.122E-03
CGA:   7    -0.128343780439E+04   -0.36827E-03   -0.37263E-03 10640   0.491E-03 0.107E-03
CGA:   8    -0.128343793206E+04   -0.12767E-03   -0.12712E-03 10640   0.192E-03 0.188E-04
CGA:   9    -0.128343796273E+04   -0.30670E-04   -0.34348E-04 10640   0.739E-04 0.818E-04
CGA:  10    -0.128343796231E+04    0.42052E-06   -0.93652E-05 10640   0.453E-04 0.774E-04
  50 F= -.12834380E+04 E0= -.12834380E+04  d E =-.321113E-01  mag=    47.0000
       N       E                     dE             d eps       ncg     rms          ort
SDA:   1    -0.128223420303E+04    0.12038E+01    0.00000E+00 10640   0.380E+01 0.000E+00
CGA:   2    -0.128299843674E+04   -0.76423E+00   -0.76423E+00 10640   0.145E+01-0.672E-02
CGA:   3    -0.128336167491E+04   -0.36324E+00   -0.36285E+00 10640   0.358E+00 0.739E-02
CGA:   4    -0.128341779933E+04   -0.56124E-01   -0.56222E-01 10640   0.559E-01 0.213E-02
CGA:   5    -0.128342904384E+04   -0.11245E-01   -0.11247E-01 10640   0.152E-01 0.117E-02
CGA:   6    -0.128343196702E+04   -0.29232E-02   -0.29249E-02 10640   0.579E-02 0.145E-03
CGA:   7    -0.128343306201E+04   -0.10950E-02   -0.10937E-02 10640   0.151E-02-0.874E-04
CGA:   8    -0.128343346042E+04   -0.39841E-03   -0.41403E-03 10640   0.812E-03-0.197E-03
CGA:   9    -0.128343359335E+04   -0.13292E-03   -0.13454E-03 10640   0.327E-03 0.119E-03
CGA:  10    -0.128343364735E+04   -0.53999E-04   -0.60876E-04 10640   0.125E-03 0.166E-03
CGA:  11    -0.128343366741E+04   -0.20069E-04   -0.22058E-04 10640   0.699E-04 0.796E-04
CGA:  12    -0.128343367673E+04   -0.93123E-05   -0.11422E-04 10640   0.543E-04 0.569E-04
  51 F= -.12834337E+04 E0= -.12834337E+04  d E =0.428559E-02  mag=    47.0000
       N       E                     dE             d eps       ncg     rms          ort
SDA:   1    -0.126647883696E+04    0.16955E+02    0.00000E+00 10640   0.552E+02 0.000E+00
CGA:   2    -0.127685199004E+04   -0.10373E+02   -0.10373E+02 10640   0.197E+02 0.237E-01
CGA:   3    -0.128191676873E+04   -0.50648E+01   -0.50603E+01 10640   0.587E+01 0.424E-01
CGA:   4    -0.128280324346E+04   -0.88647E+00   -0.88559E+00 10640   0.858E+00 0.212E-01
CGA:   5    -0.128297190607E+04   -0.16866E+00   -0.16865E+00 10640   0.251E+00-0.666E-02
CGA:   6    -0.128301807268E+04   -0.46167E-01   -0.46200E-01 10640   0.811E-01 0.365E-02
CGA:   7    -0.128303476093E+04   -0.16688E-01   -0.16698E-01 10640   0.221E-01-0.155E-02
CGA:   8    -0.128303924720E+04   -0.44863E-02   -0.44838E-02 10640   0.909E-02 0.307E-03
CGA:   9    -0.128304130412E+04   -0.20569E-02   -0.20416E-02 10640   0.386E-02 0.661E-03
CGA:  10    -0.128304261452E+04   -0.13104E-02   -0.14104E-02 10640   0.304E-02-0.700E-03
CGA:  11    -0.128304312260E+04   -0.50807E-03   -0.50811E-03 10640   0.131E-02 0.273E-04
CGA:  12    -0.128304356390E+04   -0.44130E-03   -0.55665E-03 10640   0.130E-02-0.537E-03
CGA:  13    -0.128304376695E+04   -0.20305E-03   -0.20750E-03 10640   0.976E-03-0.837E-04
CGA:  14    -0.128304395985E+04   -0.19291E-03   -0.19422E-03 10640   0.533E-03 0.198E-03
CGA:  15    -0.128304419572E+04   -0.23587E-03   -0.23037E-03 10640   0.487E-03 0.373E-04
CGA:  16    -0.128304430269E+04   -0.10696E-03   -0.10929E-03 10640   0.331E-03 0.143E-03
CGA:  17    -0.128304442733E+04   -0.12464E-03   -0.12081E-03 10640   0.226E-03 0.654E-04
CGA:  18    -0.128304414996E+04    0.27737E-03   -0.29346E-03 10640   0.273E-02-0.673E-03
CGA:  19    -0.128304441115E+04   -0.26119E-03   -0.34618E-03 10640   0.578E-03 0.599E-03
CGA:  20    -0.128304463018E+04   -0.21903E-03   -0.22485E-03 10640   0.355E-03-0.104E-03
CGA:  21    -0.128304469339E+04   -0.63212E-04   -0.58293E-04 10640   0.174E-03-0.739E-04
CGA:  22    -0.128304472483E+04   -0.31444E-04   -0.32576E-04 10640   0.130E-03 0.418E-04
CGA:  23    -0.128304476787E+04   -0.43035E-04   -0.72757E-04 10640   0.307E-03-0.155E-03
CGA:  24    -0.128304482380E+04   -0.55928E-04   -0.52201E-04 10640   0.672E-04-0.359E-04
CGA:  25    -0.128304485879E+04   -0.34994E-04    0.72990E-04 10640   0.216E-04 0.149E-05
CGA:  26    -0.128304485769E+04    0.10981E-05   -0.18443E-05 10640   0.129E-04 0.161E-04
