       N       E                     dE             d eps       ncg     rms          ort
DAV:   1     0.290430983653E+04    0.29043E+04   -0.21089E+05  2592   0.138E+03
DAV:   2    -0.715629290181E+03   -0.36199E+04   -0.34706E+04  2592   0.242E+02
DAV:   3    -0.120101615967E+04   -0.48539E+03   -0.48065E+03  2592   0.956E+01
DAV:   4    -0.122381847360E+04   -0.22802E+02   -0.22622E+02  2592   0.230E+01
DAV:   5    -0.122513297321E+04   -0.13145E+01   -0.13125E+01  2592   0.538E+00
SDA:   6    -0.109309957182E+04    0.13203E+03   -0.13125E+01  2592   0.717E+02 0.000E+00
CGA:   7    -0.110901216463E+04   -0.15913E+02   -0.15915E+02  2592   0.653E+01 0.936E-01
CGA:   8    -0.111093116258E+04   -0.19190E+01   -0.19093E+01  2592   0.152E+01 0.899E-01
CGA:   9    -0.111143439310E+04   -0.50323E+00   -0.50300E+00  2592   0.408E+00 0.205E-02
CGA:  10    -0.111158864173E+04   -0.15425E+00   -0.15568E+00  2592   0.107E+00-0.926E-02
CGA:  11    -0.111162855989E+04   -0.39918E-01   -0.40085E-01  2592   0.263E-01-0.106E-02
CGA:  12    -0.111163752969E+04   -0.89698E-02   -0.89821E-02  2592   0.553E-02-0.113E-03
CGA:  13    -0.111163989442E+04   -0.23647E-02   -0.25170E-02  2592   0.174E-02-0.688E-03
CGA:  14    -0.111164042242E+04   -0.52800E-03   -0.52142E-03  2592   0.408E-03 0.674E-04
CGA:  15    -0.111164052571E+04   -0.10329E-03   -0.10400E-03  2592   0.116E-03 0.144E-03
CGA:  16    -0.111164054820E+04   -0.22490E-04   -0.28113E-04  2592   0.460E-04 0.796E-04
CGA:  17    -0.111164055659E+04   -0.83931E-05   -0.94790E-05  2592   0.216E-04 0.270E-04
   1 F= -.11116406E+04 E0= -.11116406E+04  d E =-.111164E+04  mag=     0.0000
       N       E                     dE             d eps       ncg     rms          ort
SDA:   1    -0.111164083224E+04   -0.28404E-03    0.00000E+00  2592   0.299E-03 0.000E+00
CGA:   2    -0.111164090439E+04   -0.72152E-04   -0.72152E-04  2592   0.666E-04 0.286E-04
CGA:   3    -0.111164092179E+04   -0.17399E-04   -0.17444E-04  2592   0.161E-04 0.216E-04
CGA:   4    -0.111164092636E+04   -0.45698E-05   -0.47342E-05  2592   0.540E-05 0.848E-05
   2 F= -.11116409E+04 E0= -.11116409E+04  d E =-.369765E-03  mag=    -0.0000
       N       E                     dE             d eps       ncg     rms          ort
SDA:   1    -0.111162946269E+04    0.11459E-01    0.00000E+00  2592   0.416E-01 0.000E+00
CGA:   2    -0.111164011378E+04   -0.10651E-01   -0.10652E-01  2592   0.990E-02-0.471E-04
CGA:   3    -0.111164315948E+04   -0.30457E-02   -0.30469E-02  2592   0.249E-02-0.218E-04
CGA:   4    -0.111164395809E+04   -0.79861E-03   -0.80160E-03  2592   0.582E-03-0.403E-04
CGA:   5    -0.111164414533E+04   -0.18724E-03   -0.18701E-03  2592   0.145E-03 0.272E-05
CGA:   6    -0.111164420037E+04   -0.55039E-04   -0.55298E-04  2592   0.349E-04-0.215E-05
CGA:   7    -0.111164421255E+04   -0.12183E-04   -0.12026E-04  2592   0.769E-05 0.175E-05
CGA:   8    -0.111164421588E+04   -0.33315E-05   -0.34614E-05  2592   0.271E-05-0.799E-06
   3 F= -.11116442E+04 E0= -.11116442E+04  d E =-.328952E-02  mag=    -0.0000
       N       E                     dE             d eps       ncg     rms          ort
SDA:   1    -0.111158583657E+04    0.58376E-01    0.00000E+00  2592   0.187E+00 0.000E+00
CGA:   2    -0.111163094052E+04   -0.45104E-01   -0.45105E-01  2592   0.414E-01-0.552E-04
CGA:   3    -0.111164379798E+04   -0.12857E-01   -0.12859E-01  2592   0.103E-01-0.565E-04
CGA:   4    -0.111164710441E+04   -0.33064E-02   -0.33095E-02  2592   0.239E-02-0.766E-04
CGA:   5    -0.111164786626E+04   -0.76185E-03   -0.76136E-03  2592   0.570E-03 0.109E-04
CGA:   6    -0.111164808367E+04   -0.21741E-03   -0.21795E-03  2592   0.128E-03-0.595E-05
CGA:   7    -0.111164812954E+04   -0.45866E-04   -0.45664E-04  2592   0.295E-04 0.271E-05
CGA:   8    -0.111164814122E+04   -0.11683E-04   -0.11744E-04  2592   0.844E-05-0.640E-06
CGA:   9    -0.111164814463E+04   -0.34103E-05   -0.36116E-05  2592   0.342E-05-0.143E-05
   4 F= -.11116481E+04 E0= -.11116481E+04  d E =-.392875E-02  mag=    -0.0000
       N       E                     dE             d eps       ncg     rms          ort
SDA:   1    -0.111160899491E+04    0.39146E-01    0.00000E+00  2592   0.127E+00 0.000E+00
CGA:   2    -0.111163832905E+04   -0.29334E-01   -0.29333E-01  2592   0.283E-01-0.842E-04
CGA:   3    -0.111164702094E+04   -0.86919E-02   -0.86913E-02  2592   0.682E-02 0.950E-04
CGA:   4    -0.111164929586E+04   -0.22749E-02   -0.22743E-02  2592   0.157E-02 0.161E-04
CGA:   5    -0.111164982499E+04   -0.52913E-03   -0.52870E-03  2592   0.385E-03 0.127E-04
CGA:   6    -0.111164997436E+04   -0.14937E-03   -0.14919E-03  2592   0.858E-04 0.194E-05
CGA:   7    -0.111165000614E+04   -0.31783E-04   -0.31559E-04  2592   0.195E-04 0.394E-05
CGA:   8    -0.111165001452E+04   -0.83756E-05   -0.85278E-05  2592   0.656E-05-0.145E-05
   5 F= -.11116500E+04 E0= -.11116500E+04  d E =-.186988E-02  mag=    -0.0000
       N       E                     dE             d eps       ncg     rms          ort
SDA:   1    -0.111155551914E+04    0.94487E-01    0.00000E+00  2592   0.268E+00 0.000E+00
CGA:   2    -0.111162207206E+04   -0.66553E-01   -0.66552E-01  2592   0.637E-01-0.875E-04
CGA:   3    -0.111164128954E+04   -0.19217E-01   -0.19217E-01  2592   0.162E-01-0.455E-04
CGA:   4    -0.111164656147E+04   -0.52719E-02   -0.52733E-02  2592   0.366E-02-0.126E-03
CGA:   5    -0.111164782411E+04   -0.12626E-02   -0.12624E-02  2592   0.914E-03 0.475E-05
CGA:   6    -0.111164817113E+04   -0.34702E-03   -0.34708E-03  2592   0.219E-03-0.143E-05
CGA:   7    -0.111164825150E+04   -0.80369E-04   -0.80313E-04  2592   0.542E-04 0.107E-05
CGA:   8    -0.111164827188E+04   -0.20376E-04   -0.20488E-04  2592   0.166E-04-0.212E-05
CGA:   9    -0.111164827751E+04   -0.56370E-05   -0.56472E-05  2592   0.451E-05-0.377E-06
   6 F= -.11116483E+04 E0= -.11116483E+04  d E =0.173700E-02  mag=    -0.0000
       N       E                     dE             d eps       ncg     rms          ort
SDA:   1    -0.111154306749E+04    0.10520E+00    0.00000E+00  2592   0.295E+00 0.000E+00
CGA:   2    -0.111161923815E+04   -0.76171E-01   -0.76175E-01  2592   0.727E-01-0.195E-04
CGA:   3    -0.111164092765E+04   -0.21689E-01   -0.21692E-01  2592   0.182E-01 0.472E-04
CGA:   4    -0.111164687575E+04   -0.59481E-02   -0.59481E-02  2592   0.411E-02-0.257E-04
CGA:   5    -0.111164829740E+04   -0.14216E-02   -0.14210E-02  2592   0.107E-02 0.314E-04
CGA:   6    -0.111164870898E+04   -0.41158E-03   -0.41203E-03  2592   0.268E-03-0.886E-05
CGA:   7    -0.111164880794E+04   -0.98967E-04   -0.98916E-04  2592   0.641E-04 0.111E-05
CGA:   8    -0.111164883186E+04   -0.23911E-04   -0.23936E-04  2592   0.181E-04-0.644E-06
CGA:   9    -0.111164883799E+04   -0.61321E-05   -0.61271E-05  2592   0.468E-05 0.616E-06
   7 F= -.11116488E+04 E0= -.11116488E+04  d E =-.560473E-03  mag=    -0.0000
       N       E                     dE             d eps       ncg     rms          ort
SDA:   1    -0.111162118026E+04    0.27652E-01    0.00000E+00  2592   0.839E-01 0.000E+00
CGA:   2    -0.111164305360E+04   -0.21873E-01   -0.21873E-01  2592   0.204E-01 0.204E-05
CGA:   3    -0.111164913299E+04   -0.60794E-02   -0.60839E-02  2592   0.506E-02 0.115E-03
CGA:   4    -0.111165075737E+04   -0.16244E-02   -0.16255E-02  2592   0.115E-02 0.904E-04
CGA:   5    -0.111165115981E+04   -0.40245E-03   -0.40263E-03  2592   0.314E-03-0.165E-04
CGA:   6    -0.111165126935E+04   -0.10953E-03   -0.10922E-03  2592   0.662E-04 0.147E-04
CGA:   7    -0.111165129539E+04   -0.26038E-04   -0.25927E-04  2592   0.163E-04 0.268E-05
CGA:   8    -0.111165130244E+04   -0.70498E-05   -0.71887E-05  2592   0.584E-05-0.158E-05
   8 F= -.11116513E+04 E0= -.11116513E+04  d E =-.246445E-02  mag=     0.0000
       N       E                     dE             d eps       ncg     rms          ort
SDA:   1    -0.111164217248E+04    0.91229E-02    0.00000E+00  2592   0.264E-01 0.000E+00
CGA:   2    -0.111164907490E+04   -0.69024E-02   -0.69035E-02  2592   0.568E-02 0.931E-05
CGA:   3    -0.111165089934E+04   -0.18244E-02   -0.18238E-02  2592   0.155E-02-0.612E-04
CGA:   4    -0.111165138787E+04   -0.48853E-03   -0.48798E-03  2592   0.382E-03-0.416E-04
CGA:   5    -0.111165150752E+04   -0.11965E-03   -0.11967E-03  2592   0.976E-04 0.227E-05
CGA:   6    -0.111165154471E+04   -0.37193E-04   -0.37377E-04  2592   0.256E-04-0.365E-05
CGA:   7    -0.111165155364E+04   -0.89269E-05   -0.89349E-05  2592   0.596E-05-0.278E-06
   9 F= -.11116516E+04 E0= -.11116516E+04  d E =-.251200E-03  mag=     0.0000
