       N       E                     dE             d eps       ncg     rms          ort
DAV:   1     0.946952045194E+04    0.94695E+04   -0.43087E+05 10640   0.157E+03
DAV:   2    -0.247757330950E+03   -0.97173E+04   -0.91279E+04 10640   0.466E+02
DAV:   3    -0.143083753336E+04   -0.11831E+04   -0.10441E+04 10640   0.171E+02
DAV:   4    -0.151174736900E+04   -0.80910E+02   -0.79206E+02 10640   0.447E+01
DAV:   5    -0.151402779524E+04   -0.22804E+01   -0.22732E+01 10640   0.787E+00
SDA:   6    -0.127353519205E+04    0.24049E+03   -0.22732E+01 10640   0.469E+02 0.000E+00
CGA:   7    -0.128175228968E+04   -0.82171E+01   -0.82011E+01 10640   0.533E+01-0.878E+00
CGA:   8    -0.128268576543E+04   -0.93348E+00   -0.92953E+00 10640   0.202E+01-0.123E+00
CGA:   9    -0.128314054752E+04   -0.45478E+00   -0.45761E+00 10640   0.660E+00-0.946E-01
CGA:  10    -0.128328999877E+04   -0.14945E+00   -0.15249E+00 10640   0.335E+00-0.689E-01
CGA:  11    -0.128335710951E+04   -0.67111E-01   -0.69012E-01 10640   0.176E+00-0.667E-01
CGA:  12    -0.128339356215E+04   -0.36453E-01   -0.48980E-01 10640   0.206E+00-0.857E-01
CGA:  13    -0.128341655284E+04   -0.22991E-01   -0.25711E-01 10640   0.108E+00-0.802E-01
CGA:  14    -0.128343200242E+04   -0.15450E-01   -0.17930E-01 10640   0.601E-01-0.411E-01
CGA:  15    -0.128344068616E+04   -0.86837E-02   -0.89120E-02 10640   0.330E-01-0.916E-02
CGA:  16    -0.128344784178E+04   -0.71556E-02   -0.70008E-02 10640   0.190E-01 0.456E-02
CGA:  17    -0.128345172631E+04   -0.38845E-02   -0.40942E-02 10640   0.920E-02 0.739E-02
CGA:  18    -0.128345371480E+04   -0.19885E-02   -0.22154E-02 10640   0.367E-02 0.527E-02
CGA:  19    -0.128345431277E+04   -0.59798E-03   -0.66065E-03 10640   0.182E-02 0.181E-02
CGA:  20    -0.128345429767E+04    0.15101E-04   -0.24532E-03 10640   0.124E-02 0.213E-02
CGA:  21    -0.128345421313E+04    0.84547E-04   -0.75899E-04 10640   0.102E-02 0.111E-02
CGA:  22    -0.128345413561E+04    0.77520E-04   -0.58553E-04 10640   0.907E-03 0.959E-03
CGA:  23    -0.128345406355E+04    0.72058E-04   -0.47897E-04 10640   0.822E-03 0.861E-03
CGA:  24    -0.128345399596E+04    0.67592E-04   -0.39789E-04 10640   0.754E-03 0.785E-03
CGA:  25    -0.128345393247E+04    0.63482E-04   -0.33435E-04 10640   0.697E-03 0.723E-03
CGA:  26    -0.128345387291E+04    0.59559E-04   -0.28400E-04 10640   0.650E-03 0.672E-03
CGA:  27    -0.128345381710E+04    0.55813E-04   -0.24363E-04 10640   0.610E-03 0.628E-03
CGA:  28    -0.128345376484E+04    0.52258E-04   -0.21087E-04 10640   0.575E-03 0.591E-03
CGA:  29    -0.128345371593E+04    0.48911E-04   -0.18398E-04 10640   0.545E-03 0.559E-03
CGA:  30    -0.128345367016E+04    0.45778E-04   -0.16165E-04 10640   0.518E-03 0.530E-03
CGA:  31    -0.128345362730E+04    0.42854E-04   -0.14294E-04 10640   0.495E-03 0.506E-03
CGA:  32    -0.128345358717E+04    0.40133E-04   -0.12711E-04 10640   0.474E-03 0.484E-03
CGA:  33    -0.128345354956E+04    0.37606E-04   -0.11362E-04 10640   0.455E-03 0.464E-03
CGA:  34    -0.128345351430E+04    0.35259E-04   -0.10202E-04 10640   0.439E-03 0.446E-03
CGA:  35    -0.128345348122E+04    0.33080E-04   -0.92001E-05 10640   0.424E-03 0.431E-03
CGA:  36    -0.128345345017E+04    0.31057E-04   -0.83280E-05 10640   0.410E-03 0.416E-03
CGA:  37    -0.128345342099E+04    0.29179E-04   -0.75651E-05 10640   0.398E-03 0.404E-03
CGA:  38    -0.128345339355E+04    0.27432E-04   -0.68942E-05 10640   0.387E-03 0.392E-03
CGA:  39    -0.128345336774E+04    0.25810E-04   -0.63014E-05 10640   0.376E-03 0.381E-03
CGA:  40    -0.128345334345E+04    0.24298E-04   -0.57753E-05 10640   0.367E-03 0.371E-03
CGA:  41    -0.128345332056E+04    0.22891E-04   -0.53065E-05 10640   0.358E-03 0.362E-03
CGA:  42    -0.128345329898E+04    0.21578E-04   -0.48871E-05 10640   0.350E-03 0.354E-03
CGA:  43    -0.128345327862E+04    0.20354E-04   -0.45105E-05 10640   0.343E-03 0.346E-03
CGA:  44    -0.128345325941E+04    0.19211E-04   -0.41713E-05 10640   0.336E-03 0.339E-03
CGA:  45    -0.128345324127E+04    0.18142E-04   -0.38649E-05 10640   0.330E-03 0.333E-03
CGA:  46    -0.128345322413E+04    0.17141E-04   -0.35872E-05 10640   0.324E-03 0.327E-03
CGA:  47    -0.128345320792E+04    0.16206E-04   -0.33348E-05 10640   0.319E-03 0.321E-03
CGA:  48    -0.128345319260E+04    0.15328E-04   -0.31049E-05 10640   0.313E-03 0.316E-03
CGA:  49    -0.128345317809E+04    0.14505E-04   -0.28949E-05 10640   0.309E-03 0.311E-03
CGA:  50    -0.128345316436E+04    0.13732E-04   -0.27028E-05 10640   0.304E-03 0.306E-03
CGA:  51    -0.128345315135E+04    0.13006E-04   -0.25265E-05 10640   0.300E-03 0.302E-03
CGA:  52    -0.128345313903E+04    0.12325E-04   -0.23645E-05 10640   0.296E-03 0.298E-03
CGA:  53    -0.128345312735E+04    0.11683E-04   -0.22153E-05 10640   0.293E-03 0.294E-03
CGA:  54    -0.128345311627E+04    0.11079E-04   -0.20777E-05 10640   0.289E-03 0.291E-03
CGA:  55    -0.128345310576E+04    0.10509E-04   -0.19505E-05 10640   0.286E-03 0.288E-03
CGA:  56    -0.128345309578E+04    0.99741E-05   -0.18328E-05 10640   0.283E-03 0.285E-03
   1 F= -.12834531E+04 E0= -.12834531E+04  d E =-.128345E+04  mag=    47.0000
       N       E                     dE             d eps       ncg     rms          ort
SDA:   1    -0.128344386796E+04    0.92378E-02    0.00000E+00 10640   0.199E-01 0.000E+00
CGA:   2    -0.128344582385E+04   -0.19559E-02    0.35390E-02 10640   0.131E-01 0.160E-01
CGA:   3    -0.128344713919E+04   -0.13153E-02    0.19318E-02 10640   0.945E-02 0.111E-01
CGA:   4    -0.128344809094E+04   -0.95175E-03    0.13928E-02 10640   0.722E-02 0.821E-02
CGA:   5    -0.128344880978E+04   -0.71884E-03    0.11674E-02 10640   0.570E-02 0.637E-02
CGA:   6    -0.128344936684E+04   -0.55706E-03    0.10832E-02 10640   0.458E-02 0.507E-02
CGA:   7    -0.128344980526E+04   -0.43843E-03    0.11008E-02 10640   0.373E-02 0.411E-02
CGA:   8    -0.128345015351E+04   -0.34825E-03    0.12558E-02 10640   0.306E-02 0.335E-02
CGA:   9    -0.128345043156E+04   -0.27804E-03    0.17848E-02 10640   0.252E-02 0.275E-02
CGA:  10    -0.128345065408E+04   -0.22252E-03    0.62870E-02 10640   0.208E-02 0.227E-02
CGA:  11    -0.128345149940E+04   -0.84532E-03   -0.28247E-03 10640   0.374E-03 0.779E-03
CGA:  12    -0.128345151123E+04   -0.11835E-04   -0.25412E-04 10640   0.284E-03 0.445E-03
CGA:  13    -0.128345150833E+04    0.29047E-05   -0.92797E-05 10640   0.251E-03 0.266E-03
   2 F= -.12834515E+04 E0= -.12834515E+04  d E =0.158746E-02  mag=    47.0000
       N       E                     dE             d eps       ncg     rms          ort
SDA:   1    -0.128344795474E+04    0.35565E-02    0.00000E+00 10640   0.117E-01 0.000E+00
CGA:   2    -0.128344884659E+04   -0.89185E-03   -0.88010E-03 10640   0.538E-02 0.757E-02
CGA:   3    -0.128344928505E+04   -0.43846E-03   -0.42097E-03 10640   0.319E-02 0.406E-02
CGA:   4    -0.128344959539E+04   -0.31034E-03   -0.27824E-03 10640   0.199E-02 0.248E-02
CGA:   5    -0.128344983526E+04   -0.23987E-03   -0.20034E-03 10640   0.121E-02 0.153E-02
CGA:   6    -0.128345001614E+04   -0.18088E-03   -0.14293E-03 10640   0.682E-03 0.895E-03
CGA:   7    -0.128345013588E+04   -0.11974E-03   -0.91993E-04 10640   0.359E-03 0.489E-03
CGA:   8    -0.128345019716E+04   -0.61279E-04   -0.47703E-04 10640   0.196E-03 0.263E-03
CGA:   9    -0.128345022256E+04   -0.25396E-04   -0.21424E-04 10640   0.122E-03 0.153E-03
CGA:  10    -0.128345023347E+04   -0.10909E-04   -0.10652E-04 10640   0.849E-04 0.101E-03
CGA:  11    -0.128345023853E+04   -0.50654E-05   -0.60653E-05 10640   0.639E-04 0.734E-04
   3 F= -.12834502E+04 E0= -.12834502E+04  d E =0.285725E-02  mag=    47.0000
       N       E                     dE             d eps       ncg     rms          ort
SDA:   1    -0.128344970760E+04    0.52586E-03    0.00000E+00 10640   0.137E-02 0.000E+00
CGA:   2    -0.128345009582E+04   -0.38821E-03    0.81584E-04 10640   0.576E-03 0.835E-03
CGA:   3    -0.128345027311E+04   -0.17729E-03    0.28100E-04 10640   0.336E-03 0.430E-03
CGA:   4    -0.128345037039E+04   -0.97287E-04    0.18881E-04 10640   0.217E-03 0.266E-03
CGA:   5    -0.128345042735E+04   -0.56953E-04    0.15525E-04 10640   0.145E-03 0.175E-03
CGA:   6    -0.128345046170E+04   -0.34350E-04    0.14314E-04 10640   0.991E-04 0.119E-03
CGA:   7    -0.128345048270E+04   -0.21002E-04    0.15063E-04 10640   0.683E-04 0.816E-04
CGA:   8    -0.128345049557E+04   -0.12868E-04    0.21562E-04 10640   0.475E-04 0.565E-04
CGA:   9    -0.128345052237E+04   -0.26803E-04   -0.11921E-05 10640   0.530E-05-0.476E-05
CGA:  10    -0.128345052175E+04    0.61926E-06   -0.45963E-07 10640   0.510E-05 0.468E-05
   4 F= -.12834505E+04 E0= -.12834505E+04  d E =0.257403E-02  mag=    47.0000
       N       E                     dE             d eps       ncg     rms          ort
SDA:   1    -0.128345041454E+04    0.10783E-03    0.00000E+00 10640   0.952E-04 0.000E+00
CGA:   2    -0.128345052278E+04   -0.10825E-03    0.20995E-05 10640   0.293E-04 0.373E-04
CGA:   3    -0.128345056917E+04   -0.46382E-04    0.89970E-06 10640   0.136E-04 0.203E-04
CGA:   4    -0.128345056769E+04    0.14719E-05   -0.17229E-06 10640   0.126E-04 0.131E-04
   5 F= -.12834506E+04 E0= -.12834506E+04  d E =0.252809E-02  mag=    47.0000
       N       E                     dE             d eps       ncg     rms          ort
SDA:   1    -0.128345057136E+04   -0.21956E-05    0.00000E+00 10640   0.340E-04 0.000E+00
CGA:   2    -0.128345056788E+04    0.34784E-05   -0.28860E-06 10640   0.289E-04 0.322E-04
CGA:   3    -0.128345056501E+04    0.28712E-05   -0.22078E-06 10640   0.251E-04 0.276E-04
CGA:   4    -0.128345056260E+04    0.24125E-05   -0.17434E-06 10640   0.222E-04 0.241E-04
   6 F= -.12834506E+04 E0= -.12834506E+04  d E =0.253318E-02  mag=    47.0000
       N       E                     dE             d eps       ncg     rms          ort
SDA:   1    -0.128345046741E+04    0.97601E-04    0.00000E+00 10640   0.745E-04 0.000E+00
CGA:   2    -0.128345047665E+04   -0.92430E-05   -0.93330E-05 10640   0.998E-05-0.396E-05
CGA:   3    -0.128345048350E+04   -0.68483E-05    0.20123E-06 10640   0.392E-05 0.530E-05
CGA:   4    -0.128345048991E+04   -0.64027E-05    0.30213E-07 10640   0.226E-05 0.268E-05
   7 F= -.12834505E+04 E0= -.12834505E+04  d E =0.260588E-02  mag=    47.0000
