       N       E                     dE             d eps       ncg     rms          ort
DAV:   1     0.289350182928E+04    0.28935E+04   -0.21013E+05  2592   0.137E+03
DAV:   2    -0.721771988758E+03   -0.36153E+04   -0.34639E+04  2592   0.242E+02
DAV:   3    -0.120141890828E+04   -0.47965E+03   -0.47449E+03  2592   0.952E+01
DAV:   4    -0.122440414332E+04   -0.22985E+02   -0.22803E+02  2592   0.231E+01
DAV:   5    -0.122572614274E+04   -0.13220E+01   -0.13201E+01  2592   0.542E+00
SDA:   6    -0.109630071551E+04    0.12943E+03   -0.13201E+01  2592   0.672E+02 0.000E+00
CGA:   7    -0.111132395064E+04   -0.15023E+02   -0.15024E+02  2592   0.634E+01 0.114E+00
CGA:   8    -0.111318223482E+04   -0.18583E+01   -0.18486E+01  2592   0.148E+01 0.925E-01
CGA:   9    -0.111366958444E+04   -0.48735E+00   -0.48701E+00  2592   0.399E+00 0.270E-02
CGA:  10    -0.111381826755E+04   -0.14868E+00   -0.15023E+00  2592   0.111E+00-0.102E-01
CGA:  11    -0.111385667032E+04   -0.38403E-01   -0.38554E-01  2592   0.330E-01-0.117E-02
CGA:  12    -0.111386644468E+04   -0.97744E-02   -0.97557E-02  2592   0.765E-02 0.251E-03
CGA:  13    -0.111386925098E+04   -0.28063E-02   -0.28896E-02  2592   0.258E-02-0.580E-03
CGA:  14    -0.111387013254E+04   -0.88156E-03   -0.91447E-03  2592   0.705E-03-0.228E-03
CGA:  15    -0.111387032868E+04   -0.19614E-03   -0.18963E-03  2592   0.178E-03 0.129E-03
CGA:  16    -0.111387036707E+04   -0.38388E-04   -0.42856E-04  2592   0.634E-04 0.101E-03
CGA:  17    -0.111387037820E+04   -0.11129E-04   -0.12811E-04  2592   0.308E-04 0.389E-04
CGA:  18    -0.111387038270E+04   -0.45089E-05   -0.57857E-05  2592   0.190E-04 0.230E-04
   1 F= -.11138704E+04 E0= -.11138624E+04  d E =-.111387E+04  mag=     0.0083
       N       E                     dE             d eps       ncg     rms          ort
SDA:   1    -0.111387215721E+04   -0.17790E-02    0.00000E+00  2592   0.181E-02 0.000E+00
CGA:   2    -0.111387260680E+04   -0.44960E-03   -0.44932E-03  2592   0.428E-03 0.245E-04
CGA:   3    -0.111387273141E+04   -0.12461E-03   -0.12330E-03  2592   0.103E-03 0.277E-04
CGA:   4    -0.111387276636E+04   -0.34943E-04   -0.34891E-04  2592   0.293E-04 0.632E-06
CGA:   5    -0.111387277502E+04   -0.86632E-05   -0.85733E-05  2592   0.678E-05 0.189E-05
   2 F= -.11138728E+04 E0= -.11138648E+04  d E =-.239231E-02  mag=     0.0010
       N       E                     dE             d eps       ncg     rms          ort
SDA:   1    -0.111375841878E+04    0.11435E+00    0.00000E+00  2592   0.409E+00 0.000E+00
CGA:   2    -0.111386016188E+04   -0.10174E+00   -0.10174E+00  2592   0.975E-01-0.414E-04
CGA:   3    -0.111388923653E+04   -0.29075E-01   -0.29075E-01  2592   0.256E-01-0.155E-04
CGA:   4    -0.111389694507E+04   -0.77085E-02   -0.77154E-02  2592   0.653E-02-0.147E-03
CGA:   5    -0.111389893374E+04   -0.19887E-02   -0.19880E-02  2592   0.160E-02 0.107E-04
CGA:   6    -0.111389951169E+04   -0.57795E-03   -0.57737E-03  2592   0.436E-03 0.519E-05
CGA:   7    -0.111389964938E+04   -0.13769E-03   -0.13729E-03  2592   0.119E-03 0.791E-05
CGA:   8    -0.111389969103E+04   -0.41656E-04   -0.41811E-04  2592   0.339E-04-0.197E-05
CGA:   9    -0.111389970316E+04   -0.12129E-04   -0.12326E-04  2592   0.107E-04-0.198E-05
CGA:  10    -0.111389970641E+04   -0.32497E-05   -0.32440E-05  2592   0.273E-05 0.118E-06
   3 F= -.11138997E+04 E0= -.11138918E+04  d E =-.269314E-01  mag=     0.0000
       N       E                     dE             d eps       ncg     rms          ort
SDA:   1    -0.111334823538E+04    0.55147E+00    0.00000E+00  2592   0.175E+01 0.000E+00
CGA:   2    -0.111376431678E+04   -0.41608E+00   -0.41620E+00  2592   0.399E+00 0.232E-03
CGA:   3    -0.111388344516E+04   -0.11913E+00   -0.11913E+00  2592   0.106E+00-0.693E-04
CGA:   4    -0.111391556395E+04   -0.32119E-01   -0.32125E-01  2592   0.268E-01-0.261E-03
CGA:   5    -0.111392375497E+04   -0.81910E-02   -0.81881E-02  2592   0.637E-02 0.878E-04
CGA:   6    -0.111392607276E+04   -0.23178E-02   -0.23170E-02  2592   0.174E-02 0.751E-05
CGA:   7    -0.111392661567E+04   -0.54291E-03   -0.54264E-03  2592   0.471E-03 0.860E-05
CGA:   8    -0.111392677651E+04   -0.16085E-03   -0.16085E-03  2592   0.124E-03-0.280E-06
CGA:   9    -0.111392682176E+04   -0.45244E-04   -0.45363E-04  2592   0.368E-04-0.157E-05
CGA:  10    -0.111392683515E+04   -0.13394E-04   -0.13591E-04  2592   0.114E-04-0.239E-05
CGA:  11    -0.111392683793E+04   -0.27840E-05   -0.28228E-05  2592   0.205E-05 0.125E-05
   4 F= -.11139268E+04 E0= -.11139189E+04  d E =-.271315E-01  mag=     0.0000
       N       E                     dE             d eps       ncg     rms          ort
SDA:   1    -0.111374969938E+04    0.17714E+00    0.00000E+00  2592   0.533E+00 0.000E+00
CGA:   2    -0.111388090792E+04   -0.13121E+00   -0.13120E+00  2592   0.138E+00-0.172E-03
CGA:   3    -0.111392032893E+04   -0.39421E-01   -0.39422E-01  2592   0.346E-01 0.223E-03
CGA:   4    -0.111393135436E+04   -0.11025E-01   -0.11028E-01  2592   0.877E-02-0.859E-04
CGA:   5    -0.111393404591E+04   -0.26916E-02   -0.26906E-02  2592   0.221E-02 0.492E-04
CGA:   6    -0.111393481375E+04   -0.76784E-03   -0.76762E-03  2592   0.658E-03 0.315E-05
CGA:   7    -0.111393501561E+04   -0.20186E-03   -0.20181E-03  2592   0.168E-03 0.409E-05
CGA:   8    -0.111393507563E+04   -0.60022E-04   -0.60140E-04  2592   0.455E-04-0.193E-05
CGA:   9    -0.111393509209E+04   -0.16457E-04   -0.16503E-04  2592   0.140E-04-0.679E-06
CGA:  10    -0.111393509687E+04   -0.47785E-05   -0.47975E-05  2592   0.421E-05-0.405E-06
   5 F= -.11139351E+04 E0= -.11139271E+04  d E =-.825893E-02  mag=     0.0000
       N       E                     dE             d eps       ncg     rms          ort
SDA:   1    -0.111317454814E+04    0.76054E+00    0.00000E+00  2592   0.216E+01 0.000E+00
CGA:   2    -0.111370935296E+04   -0.53480E+00   -0.53482E+00  2592   0.569E+00-0.148E-03
CGA:   3    -0.111387017368E+04   -0.16082E+00   -0.16084E+00  2592   0.143E+00 0.533E-03
CGA:   4    -0.111391555997E+04   -0.45386E-01   -0.45391E-01  2592   0.353E-01-0.323E-03
CGA:   5    -0.111392647056E+04   -0.10911E-01   -0.10910E-01  2592   0.953E-02 0.568E-04
CGA:   6    -0.111392963173E+04   -0.31612E-02   -0.31607E-02  2592   0.284E-02 0.115E-04
CGA:   7    -0.111393052684E+04   -0.89511E-03   -0.89494E-03  2592   0.709E-03 0.109E-04
CGA:   8    -0.111393078181E+04   -0.25497E-03   -0.25538E-03  2592   0.187E-03-0.756E-05
CGA:   9    -0.111393084953E+04   -0.67727E-04   -0.67760E-04  2592   0.565E-04-0.608E-06
CGA:  10    -0.111393086814E+04   -0.18603E-04   -0.18602E-04  2592   0.167E-04 0.374E-07
CGA:  11    -0.111393087350E+04   -0.53687E-05   -0.53635E-05  2592   0.342E-05 0.427E-06
   6 F= -.11139309E+04 E0= -.11139229E+04  d E =0.422336E-02  mag=    -0.0000
       N       E                     dE             d eps       ncg     rms          ort
SDA:   1    -0.111370609906E+04    0.22477E+00    0.00000E+00  2592   0.627E+00 0.000E+00
CGA:   2    -0.111387792017E+04   -0.17182E+00   -0.17182E+00  2592   0.152E+00-0.932E-04
CGA:   3    -0.111392168474E+04   -0.43765E-01   -0.43770E-01  2592   0.450E-01 0.107E-03
CGA:   4    -0.111393488576E+04   -0.13201E-01   -0.13200E-01  2592   0.114E-01-0.670E-04
CGA:   5    -0.111393843947E+04   -0.35537E-02   -0.35537E-02  2592   0.311E-02 0.105E-04
CGA:   6    -0.111393955771E+04   -0.11182E-02   -0.11178E-02  2592   0.829E-03 0.725E-05
CGA:   7    -0.111393984027E+04   -0.28256E-03   -0.28233E-03  2592   0.234E-03 0.827E-05
CGA:   8    -0.111393991875E+04   -0.78478E-04   -0.78608E-04  2592   0.736E-04-0.701E-05
CGA:   9    -0.111393994163E+04   -0.22876E-04   -0.22868E-04  2592   0.180E-04 0.143E-05
CGA:  10    -0.111393994790E+04   -0.62708E-05   -0.62305E-05  2592   0.432E-05 0.164E-05
   7 F= -.11139399E+04 E0= -.11139320E+04  d E =-.907440E-02  mag=     0.0000
       N       E                     dE             d eps       ncg     rms          ort
SDA:   1    -0.111387334768E+04    0.66594E-01    0.00000E+00  2592   0.200E+00 0.000E+00
CGA:   2    -0.111392424481E+04   -0.50897E-01   -0.50896E-01  2592   0.515E-01 0.314E-04
CGA:   3    -0.111393898501E+04   -0.14740E-01   -0.14741E-01  2592   0.133E-01-0.650E-05
CGA:   4    -0.111394309838E+04   -0.41134E-02   -0.41137E-02  2592   0.335E-02 0.524E-04
CGA:   5    -0.111394415042E+04   -0.10520E-02   -0.10520E-02  2592   0.894E-03-0.300E-04
CGA:   6    -0.111394445056E+04   -0.30014E-03   -0.29993E-03  2592   0.257E-03 0.848E-05
CGA:   7    -0.111394453098E+04   -0.80421E-04   -0.80424E-04  2592   0.691E-04 0.515E-06
CGA:   8    -0.111394455501E+04   -0.24026E-04   -0.24026E-04  2592   0.178E-04-0.272E-07
CGA:   9    -0.111394456132E+04   -0.63083E-05   -0.62795E-05  2592   0.498E-05 0.802E-06
   8 F= -.11139446E+04 E0= -.11139366E+04  d E =-.461342E-02  mag=    -0.0000
       N       E                     dE             d eps       ncg     rms          ort
SDA:   1    -0.111391596362E+04    0.28591E-01    0.00000E+00  2592   0.835E-01 0.000E+00
CGA:   2    -0.111393793770E+04   -0.21974E-01   -0.21970E-01  2592   0.215E-01-0.636E-04
CGA:   3    -0.111394408628E+04   -0.61486E-02   -0.61512E-02  2592   0.592E-02 0.702E-04
CGA:   4    -0.111394586391E+04   -0.17776E-02   -0.17775E-02  2592   0.150E-02-0.829E-05
CGA:   5    -0.111394632714E+04   -0.46323E-03   -0.46325E-03  2592   0.378E-03 0.441E-05
CGA:   6    -0.111394646166E+04   -0.13452E-03   -0.13456E-03  2592   0.103E-03-0.120E-05
CGA:   7    -0.111394649384E+04   -0.32180E-04   -0.32187E-04  2592   0.261E-04 0.430E-05
CGA:   8    -0.111394650361E+04   -0.97698E-05   -0.98301E-05  2592   0.856E-05-0.133E-05
   9 F= -.11139465E+04 E0= -.11139386E+04  d E =-.194229E-02  mag=    -0.0000
       N       E                     dE             d eps       ncg     rms          ort
SDA:   1    -0.111349936101E+04    0.44713E+00    0.00000E+00  2592   0.118E+01 0.000E+00
CGA:   2    -0.111382754654E+04   -0.32819E+00   -0.32821E+00  2592   0.300E+00 0.273E-05
CGA:   3    -0.111391207853E+04   -0.84532E-01   -0.84534E-01  2592   0.831E-01 0.109E-03
CGA:   4    -0.111393689031E+04   -0.24812E-01   -0.24810E-01  2592   0.200E-01-0.137E-03
CGA:   5    -0.111394310141E+04   -0.62111E-02   -0.62111E-02  2592   0.517E-02 0.379E-05
CGA:   6    -0.111394484628E+04   -0.17449E-02   -0.17446E-02  2592   0.145E-02 0.115E-04
CGA:   7    -0.111394529482E+04   -0.44854E-03   -0.44870E-03  2592   0.383E-03 0.222E-04
CGA:   8    -0.111394543260E+04   -0.13778E-03   -0.13819E-03  2592   0.108E-03-0.102E-04
CGA:   9    -0.111394547167E+04   -0.39062E-04   -0.39016E-04  2592   0.292E-04 0.787E-06
CGA:  10    -0.111394548150E+04   -0.98305E-05   -0.98062E-05  2592   0.786E-05 0.176E-05
  10 F= -.11139455E+04 E0= -.11139375E+04  d E =0.102211E-02  mag=    -0.0000
       N       E                     dE             d eps       ncg     rms          ort
SDA:   1    -0.111343518450E+04    0.51029E+00    0.00000E+00  2592   0.137E+01 0.000E+00
CGA:   2    -0.111380529103E+04   -0.37011E+00   -0.37015E+00  2592   0.323E+00 0.128E-03
CGA:   3    -0.111390140064E+04   -0.96110E-01   -0.96113E-01  2592   0.905E-01 0.113E-03
CGA:   4    -0.111392775693E+04   -0.26356E-01   -0.26354E-01  2592   0.229E-01-0.136E-03
CGA:   5    -0.111393480277E+04   -0.70458E-02   -0.70460E-02  2592   0.596E-02 0.826E-05
CGA:   6    -0.111393688895E+04   -0.20862E-02   -0.20864E-02  2592   0.157E-02-0.693E-05
CGA:   7    -0.111393741952E+04   -0.53057E-03   -0.53009E-03  2592   0.416E-03 0.234E-04
CGA:   8    -0.111393756269E+04   -0.14317E-03   -0.14328E-03  2592   0.128E-03-0.561E-05
CGA:   9    -0.111393760582E+04   -0.43130E-04   -0.43133E-04  2592   0.344E-04-0.191E-06
CGA:  10    -0.111393761811E+04   -0.12288E-04   -0.12278E-04  2592   0.897E-05 0.252E-06
CGA:  11    -0.111393762102E+04   -0.29139E-05   -0.29136E-05  2592   0.204E-05 0.390E-06
  11 F= -.11139376E+04 E0= -.11139298E+04  d E =0.786047E-02  mag=    -0.0000
       N       E                     dE             d eps       ncg     rms          ort
SDA:   1    -0.111359849021E+04    0.33913E+00    0.00000E+00  2592   0.948E+00 0.000E+00
CGA:   2    -0.111385957373E+04   -0.26108E+00   -0.26108E+00  2592   0.218E+00 0.823E-04
CGA:   3    -0.111392647318E+04   -0.66899E-01   -0.66900E-01  2592   0.585E-01-0.947E-04
CGA:   4    -0.111394420552E+04   -0.17732E-01   -0.17732E-01  2592   0.150E-01-0.301E-04
CGA:   5    -0.111394864942E+04   -0.44439E-02   -0.44440E-02  2592   0.424E-02-0.330E-05
CGA:   6    -0.111395004511E+04   -0.13957E-02   -0.13954E-02  2592   0.110E-02 0.279E-04
CGA:   7    -0.111395042362E+04   -0.37851E-03   -0.37878E-03  2592   0.306E-03-0.143E-04
CGA:   8    -0.111395052452E+04   -0.10090E-03   -0.10087E-03  2592   0.847E-04 0.239E-05
CGA:   9    -0.111395055463E+04   -0.30108E-04   -0.30087E-04  2592   0.231E-04 0.689E-06
CGA:  10    -0.111395056325E+04   -0.86238E-05   -0.86245E-05  2592   0.585E-05-0.273E-07
  12 F= -.11139506E+04 E0= -.11139427E+04  d E =-.129422E-01  mag=     0.0000
       N       E                     dE             d eps       ncg     rms          ort
SDA:   1    -0.111393588931E+04    0.14665E-01    0.00000E+00  2592   0.431E-01 0.000E+00
CGA:   2    -0.111394678911E+04   -0.10900E-01   -0.10903E-01  2592   0.974E-02 0.344E-04
CGA:   3    -0.111394984058E+04   -0.30515E-02   -0.30513E-02  2592   0.282E-02-0.178E-04
CGA:   4    -0.111395066092E+04   -0.82034E-03   -0.82080E-03  2592   0.750E-03 0.138E-04
CGA:   5    -0.111395089512E+04   -0.23420E-03   -0.23422E-03  2592   0.212E-03 0.181E-05
CGA:   6    -0.111395097057E+04   -0.75445E-04   -0.75452E-04  2592   0.601E-04-0.274E-06
CGA:   7    -0.111395099085E+04   -0.20279E-04   -0.20303E-04  2592   0.178E-04-0.154E-05
CGA:   8    -0.111395099626E+04   -0.54091E-05   -0.54153E-05  2592   0.415E-05 0.545E-06
  13 F= -.11139510E+04 E0= -.11139431E+04  d E =-.433005E-03  mag=    -0.0000
       N       E                     dE             d eps       ncg     rms          ort
SDA:   1    -0.111394685931E+04    0.41315E-02    0.00000E+00  2592   0.122E-01 0.000E+00
CGA:   2    -0.111395017570E+04   -0.33164E-02   -0.33159E-02  2592   0.289E-02-0.124E-04
CGA:   3    -0.111395104253E+04   -0.86684E-03   -0.86701E-03  2592   0.809E-03 0.723E-05
CGA:   4    -0.111395128467E+04   -0.24214E-03   -0.24181E-03  2592   0.217E-03-0.152E-04
CGA:   5    -0.111395134850E+04   -0.63830E-04   -0.63875E-04  2592   0.550E-04 0.221E-05
CGA:   6    -0.111395136805E+04   -0.19545E-04   -0.19555E-04  2592   0.153E-04-0.333E-06
CGA:   7    -0.111395137275E+04   -0.47077E-05   -0.47178E-05  2592   0.384E-05 0.101E-05
  14 F= -.11139514E+04 E0= -.11139435E+04  d E =-.376498E-03  mag=     0.0000
