       N       E                     dE             d eps       ncg     rms          rms(c)
DAV:   1     0.309070867891E+04    0.30907E+04   -0.25779E+05 11532   0.130E+03
DAV:   2    -0.583774206045E+03   -0.36745E+04   -0.35480E+04 14028   0.298E+02
DAV:   3    -0.847121374953E+03   -0.26335E+03   -0.26081E+03 14004   0.843E+01
DAV:   4    -0.850485654210E+03   -0.33643E+01   -0.33516E+01 14028   0.102E+01
DAV:   5    -0.850544386053E+03   -0.58732E-01   -0.58590E-01 14316   0.125E+00    0.101E+02
DAV:   6    -0.753500592087E+03    0.97044E+02   -0.46190E+02 13344   0.336E+01    0.559E+01
DAV:   7    -0.759455777542E+03   -0.59552E+01   -0.97158E+01 13740   0.133E+01    0.267E+01
DAV:   8    -0.767237371559E+03   -0.77816E+01   -0.13695E+02 16512   0.110E+01    0.204E+01
DAV:   9    -0.767352409287E+03   -0.11504E+00   -0.48889E+01 14424   0.605E+00    0.146E+01
DAV:  10    -0.767270007739E+03    0.82402E-01   -0.30021E+01 15780   0.491E+00    0.127E+01
DAV:  11    -0.767423727880E+03   -0.15372E+00   -0.21715E+01 15492   0.424E+00    0.108E+01
DAV:  12    -0.767228096009E+03    0.19563E+00   -0.76521E+00 15108   0.322E+00    0.900E+00
DAV:  13    -0.766952049975E+03    0.27605E+00   -0.37428E+00 14148   0.155E+00    0.606E+00
DAV:  14    -0.767018271261E+03   -0.66221E-01   -0.23651E+00 16416   0.148E+00    0.632E+00
DAV:  15    -0.767116343601E+03   -0.98072E-01   -0.90960E-01 16164   0.222E+00    0.563E+00
DAV:  16    -0.767165786309E+03   -0.49443E-01   -0.14468E+00 13860   0.116E+00    0.645E+00
DAV:  17    -0.767159342112E+03    0.64442E-02   -0.25379E-01 14208   0.793E-01    0.692E+00
DAV:  18    -0.767180613550E+03   -0.21271E-01   -0.42621E-02 13152   0.479E-01    0.902E+00
DAV:  19    -0.767102103059E+03    0.78510E-01   -0.48983E-01 16728   0.941E-01    0.335E+00
DAV:  20    -0.767092518816E+03    0.95842E-02   -0.22992E-01 14460   0.988E-01    0.575E+00
DAV:  21    -0.767101244382E+03   -0.87256E-02   -0.65022E-01 15180   0.115E+00    0.405E+00
DAV:  22    -0.767102563840E+03   -0.13195E-02   -0.76887E-02 13140   0.562E-01    0.318E+00
DAV:  23    -0.767101173073E+03    0.13908E-02   -0.65603E-03 13032   0.159E-01    0.318E+00
DAV:  24    -0.767097502088E+03    0.36710E-02   -0.95111E-04 14916   0.488E-02    0.308E+00
DAV:  25    -0.767088991923E+03    0.85102E-02   -0.20409E-02 14628   0.289E-01    0.330E+00
DAV:  26    -0.767084907374E+03    0.40845E-02   -0.40188E-02 14556   0.414E-01    0.404E+00
DAV:  27    -0.767092905640E+03   -0.79983E-02   -0.16010E-02 13080   0.271E-01    0.355E+00
DAV:  28    -0.767101682884E+03   -0.87772E-02   -0.15086E-02 13944   0.197E-01    0.372E+00
DAV:  29    -0.767084252502E+03    0.17430E-01   -0.10323E-01 16032   0.680E-01    0.224E+00
DAV:  30    -0.767093684058E+03   -0.94316E-02   -0.26585E-02 12912   0.307E-01    0.190E+00
DAV:  31    -0.767095842037E+03   -0.21580E-02   -0.97583E-03 14088   0.238E-01    0.142E+00
DAV:  32    -0.767098238410E+03   -0.23964E-02   -0.57781E-03 13572   0.152E-01    0.142E+00
DAV:  33    -0.767097522728E+03    0.71568E-03   -0.33612E-03 14592   0.129E-01    0.118E+00
DAV:  34    -0.767097618798E+03   -0.96070E-04   -0.31404E-03 13944   0.105E-01    0.105E+00
DAV:  35    -0.767098304614E+03   -0.68582E-03   -0.13715E-03 13584   0.868E-02    0.117E+00
DAV:  36    -0.767100013303E+03   -0.17087E-02   -0.16928E-03 13920   0.887E-02    0.135E+00
DAV:  37    -0.767101156123E+03   -0.11428E-02   -0.18560E-03 14076   0.822E-02    0.155E+00
DAV:  38    -0.767101641222E+03   -0.48510E-03   -0.45330E-04 14064   0.438E-02    0.161E+00
DAV:  39    -0.767102972018E+03   -0.13308E-02   -0.68206E-04 13908   0.484E-02    0.176E+00
DAV:  40    -0.767104606923E+03   -0.16349E-02   -0.46989E-04 13932   0.426E-02    0.185E+00
DAV:  41    -0.767105639041E+03   -0.10321E-02   -0.21180E-04 13980   0.288E-02    0.192E+00
DAV:  42    -0.767106088177E+03   -0.44914E-03   -0.55147E-05 13560   0.151E-02    0.195E+00
DAV:  43    -0.767105914476E+03    0.17370E-03   -0.12113E-05  9264   0.752E-03    0.194E+00
DAV:  44    -0.767106387336E+03   -0.47286E-03   -0.15713E-05  9072   0.830E-03    0.196E+00
DAV:  45    -0.767105750093E+03    0.63724E-03   -0.28938E-05 10884   0.132E-02    0.194E+00
DAV:  46    -0.767105036697E+03    0.71340E-03   -0.12651E-04 14184   0.233E-02    0.194E+00
DAV:  47    -0.767105080886E+03   -0.44188E-04   -0.57633E-05 12816   0.142E-02    0.196E+00
DAV:  48    -0.767105151021E+03   -0.70135E-04   -0.18926E-05  9792   0.102E-02    0.195E+00
DAV:  49    -0.767105174796E+03   -0.23775E-04   -0.17374E-06  6336   0.243E-03    0.195E+00
DAV:  50    -0.767105148548E+03    0.26248E-04   -0.64263E-07  6336   0.198E-03    0.195E+00
DAV:  51    -0.767105362613E+03   -0.21406E-03   -0.23077E-04 14988   0.349E-02    0.191E+00
DAV:  52    -0.767103078348E+03    0.22843E-02   -0.62176E-04 13500   0.468E-02    0.178E+00
DAV:  53    -0.767099953003E+03    0.31253E-02   -0.28625E-03 13896   0.104E-01    0.148E+00
DAV:  54    -0.767098668975E+03    0.12840E-02   -0.19573E-03 14028   0.874E-02    0.126E+00
DAV:  55    -0.767097810821E+03    0.85815E-03   -0.22306E-03 14004   0.947E-02    0.102E+00
DAV:  56    -0.767097365030E+03    0.44579E-03   -0.28295E-04 13008   0.328E-02    0.101E+00
DAV:  57    -0.767097273215E+03    0.91815E-04   -0.19366E-04 14076   0.275E-02    0.939E-01
DAV:  58    -0.767097422498E+03   -0.14928E-03   -0.11524E-04 13956   0.203E-02    0.906E-01
DAV:  59    -0.767097492134E+03   -0.69636E-04   -0.18195E-05  9672   0.820E-03    0.905E-01
DAV:  60    -0.767097374277E+03    0.11786E-03   -0.11423E-05  9168   0.759E-03    0.892E-01
DAV:  61    -0.767095734170E+03    0.16401E-02   -0.10360E-03 14028   0.662E-02    0.808E-01
DAV:  62    -0.767094481102E+03    0.12531E-02   -0.14406E-03 13956   0.776E-02    0.665E-01
DAV:  63    -0.767094209683E+03    0.27142E-03   -0.25832E-04 13668   0.325E-02    0.657E-01
DAV:  64    -0.767094613217E+03   -0.40353E-03   -0.70640E-05 13092   0.208E-02    0.635E-01
DAV:  65    -0.767095268621E+03   -0.65540E-03   -0.50627E-04 14040   0.495E-02    0.543E-01
DAV:  66    -0.767095291805E+03   -0.23185E-04   -0.64268E-03 13836   0.159E-01    0.290E-01
DAV:  67    -0.767095529919E+03   -0.23811E-03   -0.55323E-04 13536   0.441E-02    0.297E-01
DAV:  68    -0.767095826713E+03   -0.29679E-03   -0.10275E-04 14256   0.194E-02    0.296E-01
DAV:  69    -0.767097023134E+03   -0.11964E-02   -0.11233E-03 15156   0.592E-02    0.392E-01
DAV:  70    -0.767096412895E+03    0.61024E-03   -0.41742E-04 12060   0.371E-02    0.332E-01
DAV:  71    -0.767095633694E+03    0.77920E-03   -0.68211E-04 14544   0.389E-02    0.294E-01
DAV:  72    -0.767097354465E+03   -0.17208E-02   -0.17527E-03 14100   0.786E-02    0.404E-01
DAV:  73    -0.767096477160E+03    0.87731E-03   -0.58008E-04 11916   0.401E-02    0.300E-01
DAV:  74    -0.767095648173E+03    0.82899E-03   -0.81180E-04 14532   0.425E-02    0.207E-01
DAV:  75    -0.767095671024E+03   -0.22851E-04   -0.12516E-04 13164   0.211E-02    0.189E-01
DAV:  76    -0.767095652440E+03    0.18584E-04   -0.81039E-06  9408   0.631E-03    0.187E-01
DAV:  77    -0.767095148003E+03    0.50444E-03   -0.21278E-04 14532   0.281E-02    0.189E-01
DAV:  78    -0.767094771960E+03    0.37604E-03   -0.18238E-04 14004   0.259E-02    0.193E-01
DAV:  79    -0.767094278112E+03    0.49385E-03   -0.14731E-04 14892   0.267E-02    0.216E-01
DAV:  80    -0.767094477274E+03   -0.19916E-03   -0.44821E-05 11988   0.149E-02    0.207E-01
DAV:  81    -0.767094397995E+03    0.79279E-04   -0.21788E-06  6900   0.425E-03    0.214E-01
DAV:  82    -0.767094389540E+03    0.84555E-05   -0.89568E-07  6396   0.179E-03
   1 F= -.76709439E+03 E0= -.76707376E+03  d E =-.767094E+03  mag=     1.6742
       N       E                     dE             d eps       ncg     rms          rms(c)
DAV:   1    -0.767278826659E+03   -0.18443E+00   -0.19018E-02 11712   0.155E-01    0.431E-01
DAV:   2    -0.767284271660E+03   -0.54450E-02   -0.21067E-02 16716   0.204E-01    0.132E+00
DAV:   3    -0.767280018977E+03    0.42527E-02   -0.61744E-03 15612   0.174E-01    0.493E-01
DAV:   4    -0.767280287438E+03   -0.26846E-03   -0.11649E-03 13764   0.603E-02    0.386E-01
DAV:   5    -0.767281560719E+03   -0.12733E-02   -0.14745E-03 14868   0.794E-02    0.413E-01
DAV:   6    -0.767282658582E+03   -0.10979E-02   -0.23946E-03 14112   0.688E-02    0.337E-01
DAV:   7    -0.767282201708E+03    0.45687E-03   -0.38557E-04 12036   0.429E-02    0.369E-01
DAV:   8    -0.767280163830E+03    0.20379E-02   -0.21748E-03 14616   0.831E-02    0.322E-01
DAV:   9    -0.767283058418E+03   -0.28946E-02   -0.10992E-02 14196   0.158E-01    0.167E+00
DAV:  10    -0.767276644034E+03    0.64144E-02   -0.56240E-03 11844   0.188E-01    0.648E-01
DAV:  11    -0.767278666821E+03   -0.20228E-02   -0.21970E-03 13068   0.970E-02    0.421E-01
DAV:  12    -0.767274948747E+03    0.37181E-02   -0.48258E-03 13812   0.139E-01    0.621E-01
DAV:  13    -0.767275023050E+03   -0.74303E-04   -0.10606E-03 12132   0.747E-02    0.670E-01
DAV:  14    -0.767275071417E+03   -0.48367E-04   -0.58316E-05 12732   0.221E-02    0.617E-01
DAV:  15    -0.767277467276E+03   -0.23959E-02   -0.57279E-04 15396   0.688E-02    0.729E-01
DAV:  16    -0.767278210272E+03   -0.74300E-03   -0.19861E-03 14364   0.949E-02    0.436E-01
DAV:  17    -0.767279551720E+03   -0.13414E-02   -0.71157E-04 14028   0.556E-02    0.416E-01
DAV:  18    -0.767280384951E+03   -0.83323E-03   -0.49090E-04 14928   0.439E-02    0.410E-01
DAV:  19    -0.767281446624E+03   -0.10617E-02   -0.63961E-04 14016   0.398E-02    0.533E-01
DAV:  20    -0.767280306825E+03    0.11398E-02   -0.11057E-03 14160   0.473E-02    0.412E-01
DAV:  21    -0.767279824249E+03    0.48258E-03   -0.37801E-04 13728   0.328E-02    0.324E-01
DAV:  22    -0.767279259835E+03    0.56441E-03   -0.29332E-04 15192   0.370E-02    0.255E-01
DAV:  23    -0.767278444408E+03    0.81543E-03   -0.44641E-04 14880   0.484E-02    0.249E-01
DAV:  24    -0.767277993650E+03    0.45076E-03   -0.20950E-04 14112   0.282E-02    0.270E-01
DAV:  25    -0.767277981256E+03    0.12394E-04   -0.11157E-05  9564   0.685E-03    0.275E-01
DAV:  26    -0.767277927049E+03    0.54207E-04   -0.14347E-06  6972   0.299E-03    0.277E-01
DAV:  27    -0.767278582486E+03   -0.65544E-03   -0.13575E-04 14340   0.306E-02    0.238E-01
DAV:  28    -0.767279367457E+03   -0.78497E-03   -0.46359E-04 15132   0.479E-02    0.213E-01
DAV:  29    -0.767279947648E+03   -0.58019E-03   -0.42745E-04 14388   0.394E-02    0.211E-01
DAV:  30    -0.767280328706E+03   -0.38106E-03   -0.15107E-04 14136   0.230E-02    0.233E-01
DAV:  31    -0.767280560339E+03   -0.23163E-03   -0.57105E-05 12288   0.131E-02    0.253E-01
DAV:  32    -0.767280560970E+03   -0.63106E-06   -0.79363E-06  8928   0.650E-03
   2 F= -.76728056E+03 E0= -.76725968E+03  d E =-.186171E+00  mag=     1.7826
       N       E                     dE             d eps       ncg     rms          rms(c)
DAV:   1    -0.770907347077E+03   -0.36268E+01   -0.79910E+00 11520   0.324E+00    0.620E+00
DAV:   2    -0.770965945060E+03   -0.58598E-01   -0.39912E+00 16572   0.221E+00    0.579E+00
DAV:   3    -0.770946594132E+03    0.19351E-01   -0.36927E-01 15204   0.137E+00    0.317E+00
DAV:   4    -0.770892043893E+03    0.54550E-01   -0.37193E-01 14676   0.115E+00    0.289E+00
DAV:   5    -0.770913632166E+03   -0.21588E-01   -0.28326E-01 14208   0.104E+00    0.515E+00
DAV:   6    -0.770867121756E+03    0.46510E-01   -0.76330E-01 15204   0.723E-01    0.111E+00
DAV:   7    -0.770874921176E+03   -0.77994E-02   -0.29741E-02 12900   0.298E-01    0.101E+00
DAV:   8    -0.770871514447E+03    0.34067E-02   -0.12654E-02 15192   0.194E-01    0.723E-01
DAV:   9    -0.770870110546E+03    0.14039E-02   -0.50270E-03 13884   0.147E-01    0.465E-01
DAV:  10    -0.770869439106E+03    0.67144E-03   -0.29317E-03 15456   0.100E-01    0.171E-01
DAV:  11    -0.770869468837E+03   -0.29731E-04   -0.96165E-04 14964   0.711E-02    0.211E-01
DAV:  12    -0.770869384575E+03    0.84262E-04   -0.89280E-04 13740   0.456E-02    0.103E-01
DAV:  13    -0.770869405210E+03   -0.20636E-04   -0.54030E-04 13152   0.304E-02    0.122E-01
DAV:  14    -0.770869376175E+03    0.29036E-04   -0.38354E-04 12360   0.228E-02    0.629E-02
DAV:  15    -0.770869376157E+03    0.17768E-07   -0.39337E-05 10656   0.146E-02
   3 F= -.77086938E+03 E0= -.77085034E+03  d E =-.358882E+01  mag=     1.9972
       N       E                     dE             d eps       ncg     rms          rms(c)
DAV:   1    -0.779914583191E+03   -0.90452E+01   -0.73721E+01 11520   0.106E+01    0.643E+00
DAV:   2    -0.779822111694E+03    0.92471E-01   -0.14370E+00 13740   0.176E+00    0.426E+00
DAV:   3    -0.779849891033E+03   -0.27779E-01   -0.68100E-01 15696   0.155E+00    0.642E+00
DAV:   4    -0.779799183933E+03    0.50707E-01   -0.22469E+00 16236   0.125E+00    0.225E+00
DAV:   5    -0.779800131592E+03   -0.94766E-03   -0.11853E-01 13992   0.737E-01    0.209E+00
DAV:   6    -0.779793675544E+03    0.64560E-02   -0.10774E-01 15228   0.522E-01    0.131E+00
DAV:   7    -0.779799190721E+03   -0.55152E-02   -0.58738E-02 13716   0.314E-01    0.164E+00
DAV:   8    -0.779797896408E+03    0.12943E-02   -0.69114E-03 12732   0.176E-01    0.138E+00
DAV:   9    -0.779793732293E+03    0.41641E-02   -0.11822E-02 14088   0.159E-01    0.678E-01
DAV:  10    -0.779794184544E+03   -0.45225E-03   -0.71816E-03 14268   0.155E-01    0.217E-01
DAV:  11    -0.779795300328E+03   -0.11158E-02   -0.21347E-03 12600   0.766E-02    0.286E-01
DAV:  12    -0.779795270378E+03    0.29950E-04   -0.93365E-04 14628   0.703E-02    0.868E-02
DAV:  13    -0.779795307364E+03   -0.36986E-04   -0.57869E-04 13692   0.350E-02    0.118E-01
DAV:  14    -0.779795278688E+03    0.28676E-04   -0.29784E-04 13356   0.230E-02    0.624E-02
DAV:  15    -0.779795281963E+03   -0.32753E-05   -0.11085E-04 10080   0.139E-02    0.432E-02
DAV:  16    -0.779795281221E+03    0.74244E-06   -0.33633E-05  8748   0.853E-03
   4 F= -.77979528E+03 E0= -.77977589E+03  d E =-.892591E+01  mag=     1.9969
       N       E                     dE             d eps       ncg     rms          rms(c)
DAV:   1    -0.785901714722E+03   -0.61064E+01   -0.10289E+02 11520   0.134E+01    0.354E+00
DAV:   2    -0.785950876221E+03   -0.49161E-01   -0.20579E+00 13848   0.198E+00    0.380E+00
DAV:   3    -0.785909781651E+03    0.41095E-01   -0.33817E-01 15876   0.109E+00    0.233E+00
DAV:   4    -0.785902448409E+03    0.73332E-02   -0.15749E-01 14508   0.730E-01    0.275E+00
DAV:   5    -0.785882057646E+03    0.20391E-01   -0.96581E-02 15552   0.527E-01    0.674E-01
DAV:   6    -0.785887427343E+03   -0.53697E-02   -0.25264E-02 13044   0.241E-01    0.837E-01
DAV:   7    -0.785885330297E+03    0.20970E-02   -0.14900E-02 14976   0.209E-01    0.450E-01
DAV:   8    -0.785886052973E+03   -0.72268E-03   -0.11257E-02 13596   0.131E-01    0.609E-01
DAV:   9    -0.785885095665E+03    0.95731E-03   -0.35723E-03 13332   0.811E-02    0.191E-01
DAV:  10    -0.785885337637E+03   -0.24197E-03   -0.17437E-03 13920   0.504E-02    0.205E-01
DAV:  11    -0.785885327480E+03    0.10157E-04   -0.29327E-04 12732   0.334E-02    0.123E-01
DAV:  12    -0.785885305571E+03    0.21909E-04   -0.35162E-04 14100   0.253E-02    0.654E-02
DAV:  13    -0.785885314814E+03   -0.92428E-05   -0.71050E-05 11988   0.166E-02
   5 F= -.78588531E+03 E0= -.78586597E+03  d E =-.609003E+01  mag=     1.9980
       N       E                     dE             d eps       ncg     rms          rms(c)
DAV:   1    -0.787580045167E+03   -0.16947E+01   -0.33714E+01 11520   0.747E+00    0.273E+00
DAV:   2    -0.787652161402E+03   -0.72116E-01   -0.18428E+00 14040   0.185E+00    0.446E+00
DAV:   3    -0.787613055107E+03    0.39106E-01   -0.27323E-01 15288   0.993E-01    0.229E+00
DAV:   4    -0.787598582275E+03    0.14473E-01   -0.83449E-02 14304   0.554E-01    0.961E-01
DAV:   5    -0.787600623204E+03   -0.20409E-02   -0.61764E-02 14088   0.352E-01    0.167E+00
DAV:   6    -0.787594564534E+03    0.60587E-02   -0.24997E-02 13776   0.246E-01    0.713E-01
DAV:   7    -0.787596529338E+03   -0.19648E-02   -0.29887E-02 14964   0.271E-01    0.963E-01
DAV:   8    -0.787594181369E+03    0.23480E-02   -0.87394E-03 14016   0.187E-01    0.663E-01
DAV:   9    -0.787593047739E+03    0.11336E-02   -0.98975E-03 14940   0.136E-01    0.262E-01
DAV:  10    -0.787593519382E+03   -0.47164E-03   -0.85220E-04 12300   0.638E-02    0.183E-01
DAV:  11    -0.787593434764E+03    0.84617E-04   -0.89281E-04 13320   0.335E-02    0.930E-02
DAV:  12    -0.787593449862E+03   -0.15098E-04   -0.26400E-04 12600   0.223E-02    0.417E-02
DAV:  13    -0.787593454602E+03   -0.47401E-05   -0.27320E-05  9576   0.966E-03
   6 F= -.78759345E+03 E0= -.78757433E+03  d E =-.170814E+01  mag=     1.9976
       N       E                     dE             d eps       ncg     rms          rms(c)
DAV:   1    -0.788494195720E+03   -0.90075E+00   -0.29542E+01 11520   0.758E+00    0.437E+00
DAV:   2    -0.788563253893E+03   -0.69058E-01   -0.43112E+00 15072   0.304E+00    0.593E+00
DAV:   3    -0.788556813501E+03    0.64404E-02   -0.56083E-01 14988   0.139E+00    0.363E+00
DAV:   4    -0.788511121861E+03    0.45692E-01   -0.18605E-01 14292   0.733E-01    0.249E+00
DAV:   5    -0.788485261332E+03    0.25861E-01   -0.10746E-01 14244   0.655E-01    0.151E+00
DAV:   6    -0.788487857778E+03   -0.25964E-02   -0.55164E-02 13080   0.371E-01    0.129E+00
DAV:   7    -0.788485255066E+03    0.26027E-02   -0.38396E-02 14568   0.277E-01    0.750E-01
DAV:   8    -0.788484202805E+03    0.10523E-02   -0.78172E-03 13656   0.186E-01    0.493E-01
DAV:   9    -0.788485471956E+03   -0.12692E-02   -0.14592E-02 16224   0.191E-01    0.917E-01
DAV:  10    -0.788483236198E+03    0.22358E-02   -0.10237E-02 15420   0.147E-01    0.125E-01
DAV:  11    -0.788483683979E+03   -0.44778E-03   -0.11634E-03 13080   0.514E-02    0.147E-01
DAV:  12    -0.788483671543E+03    0.12436E-04   -0.69426E-04 13200   0.313E-02    0.993E-02
DAV:  13    -0.788483672470E+03   -0.92653E-06   -0.29245E-04 11808   0.194E-02    0.549E-02
DAV:  14    -0.788483675350E+03   -0.28801E-05   -0.11559E-04  9300   0.122E-02    0.474E-02
DAV:  15    -0.788483670283E+03    0.50667E-05   -0.48241E-05  7884   0.802E-03
   7 F= -.78848367E+03 E0= -.78846524E+03  d E =-.890216E+00  mag=     1.9976
       N       E                     dE             d eps       ncg     rms          rms(c)
DAV:   1    -0.788975150376E+03   -0.49148E+00   -0.30791E+01 11520   0.852E+00    0.408E+00
DAV:   2    -0.789051660664E+03   -0.76510E-01   -0.44140E+00 15576   0.307E+00    0.590E+00
DAV:   3    -0.789043390872E+03    0.82698E-02   -0.44143E-01 15240   0.132E+00    0.349E+00
DAV:   4    -0.788995110006E+03    0.48281E-01   -0.16159E-01 14244   0.697E-01    0.265E+00
DAV:   5    -0.788964087712E+03    0.31022E-01   -0.82085E-02 14232   0.570E-01    0.846E-01
DAV:   6    -0.788970382733E+03   -0.62950E-02   -0.38827E-02 13524   0.338E-01    0.111E+00
DAV:   7    -0.788967596817E+03    0.27859E-02   -0.23063E-02 14280   0.210E-01    0.483E-01
DAV:   8    -0.788967350743E+03    0.24607E-03   -0.54707E-03 13848   0.151E-01    0.361E-01
DAV:   9    -0.788967965036E+03   -0.61429E-03   -0.76346E-03 15240   0.127E-01    0.653E-01
DAV:  10    -0.788966904856E+03    0.10602E-02   -0.81120E-03 16032   0.125E-01    0.220E-01
DAV:  11    -0.788967046789E+03   -0.14193E-03   -0.13779E-03 12480   0.522E-02    0.114E-01
DAV:  12    -0.788967037113E+03    0.96766E-05   -0.48918E-04 13536   0.276E-02    0.992E-02
DAV:  13    -0.788967024893E+03    0.12220E-04   -0.28936E-04 11868   0.183E-02    0.578E-02
DAV:  14    -0.788967026197E+03   -0.13047E-05   -0.10255E-04  9504   0.121E-02    0.357E-02
DAV:  15    -0.788967024783E+03    0.14141E-05   -0.37391E-05  7632   0.722E-03
   8 F= -.78896702E+03 E0= -.78894899E+03  d E =-.483355E+00  mag=     1.9974
       N       E                     dE             d eps       ncg     rms          rms(c)
DAV:   1    -0.789269498946E+03   -0.30247E+00   -0.51716E+01 11520   0.118E+01    0.406E+00
DAV:   2    -0.789398352002E+03   -0.12885E+00   -0.42835E+00 15180   0.302E+00    0.563E+00
DAV:   3    -0.789379403477E+03    0.18949E-01   -0.36631E-01 15636   0.128E+00    0.330E+00
DAV:   4    -0.789333514439E+03    0.45889E-01   -0.14376E-01 14208   0.695E-01    0.234E+00
DAV:   5    -0.789317941946E+03    0.15572E-01   -0.11770E-01 14508   0.671E-01    0.180E+00
DAV:   6    -0.789315238747E+03    0.27032E-02   -0.76802E-02 13056   0.400E-01    0.107E+00
DAV:   7    -0.789315751950E+03   -0.51320E-03   -0.28228E-02 14052   0.243E-01    0.845E-01
DAV:   8    -0.789313001523E+03    0.27504E-02   -0.87372E-03 14520   0.196E-01    0.318E-01
DAV:   9    -0.789314695651E+03   -0.16941E-02   -0.80336E-03 14448   0.131E-01    0.813E-01
DAV:  10    -0.789312809797E+03    0.18859E-02   -0.70049E-03 15888   0.125E-01    0.105E-01
DAV:  11    -0.789313219839E+03   -0.41004E-03   -0.11076E-03 12696   0.482E-02    0.146E-01
DAV:  12    -0.789313216699E+03    0.31399E-05   -0.75468E-04 13116   0.294E-02    0.107E-01
DAV:  13    -0.789313220679E+03   -0.39799E-05   -0.39926E-04 11472   0.203E-02    0.757E-02
DAV:  14    -0.789313216326E+03    0.43533E-05   -0.11113E-04  9324   0.139E-02    0.385E-02
DAV:  15    -0.789313215197E+03    0.11293E-05   -0.36277E-05  8196   0.758E-03
   9 F= -.78931322E+03 E0= -.78929555E+03  d E =-.346190E+00  mag=     1.9971
       N       E                     dE             d eps       ncg     rms          rms(c)
DAV:   1    -0.789113160326E+03    0.20006E+00   -0.15765E+02 11544   0.210E+01    0.393E+00
DAV:   2    -0.789453736013E+03   -0.34058E+00   -0.44092E+00 14280   0.319E+00    0.561E+00
DAV:   3    -0.789425333090E+03    0.28403E-01   -0.20602E+00 15936   0.145E+00    0.266E+00
DAV:   4    -0.789393896800E+03    0.31436E-01   -0.14300E-01 13716   0.737E-01    0.170E+00
DAV:   5    -0.789378525529E+03    0.15371E-01   -0.77203E-02 14292   0.529E-01    0.140E+00
DAV:   6    -0.789370905511E+03    0.76200E-02   -0.43002E-02 13920   0.420E-01    0.924E-01
DAV:   7    -0.789367603260E+03    0.33023E-02   -0.18573E-02 13860   0.332E-01    0.539E-01
DAV:   8    -0.789366569513E+03    0.10337E-02   -0.11326E-02 14148   0.209E-01    0.821E-01
DAV:   9    -0.789363978505E+03    0.25910E-02   -0.11051E-02 14160   0.194E-01    0.434E-01
DAV:  10    -0.789364174283E+03   -0.19578E-03   -0.68198E-03 13572   0.138E-01    0.392E-01
DAV:  11    -0.789364210836E+03   -0.36553E-04   -0.25324E-03 13524   0.797E-02    0.245E-01
DAV:  12    -0.789364309426E+03   -0.98591E-04   -0.59353E-04 13392   0.527E-02    0.180E-01
DAV:  13    -0.789364276041E+03    0.33385E-04   -0.15379E-03 14820   0.462E-02    0.169E-01
DAV:  14    -0.789364255634E+03    0.20407E-04   -0.37789E-04 12288   0.307E-02    0.855E-02
DAV:  15    -0.789364260120E+03   -0.44859E-05   -0.25464E-04 12720   0.200E-02    0.876E-02
DAV:  16    -0.789364251697E+03    0.84237E-05   -0.17264E-04 11124   0.175E-02    0.385E-02
DAV:  17    -0.789364253775E+03   -0.20782E-05   -0.36746E-05  9432   0.107E-02
  10 F= -.78936425E+03 E0= -.78934492E+03  d E =-.510386E-01  mag=     1.9942
       N       E                     dE             d eps       ncg     rms          rms(c)
DAV:   1    -0.789498311209E+03   -0.13406E+00   -0.28708E+01 11904   0.942E+00    0.544E+00
DAV:   2    -0.789597825301E+03   -0.99514E-01   -0.38966E+00 15852   0.315E+00    0.603E+00
DAV:   3    -0.789565125612E+03    0.32700E-01   -0.69252E-01 16176   0.160E+00    0.402E+00
DAV:   4    -0.789512831027E+03    0.52295E-01   -0.33149E-01 14736   0.100E+00    0.211E+00
DAV:   5    -0.789535360567E+03   -0.22530E-01   -0.23188E-01 14484   0.877E-01    0.361E+00
DAV:   6    -0.789497643616E+03    0.37717E-01   -0.48943E-01 16800   0.874E-01    0.149E+00
DAV:   7    -0.789499141549E+03   -0.14979E-02   -0.27477E-02 13524   0.329E-01    0.121E+00
DAV:   8    -0.789497963022E+03    0.11785E-02   -0.36379E-02 15288   0.228E-01    0.148E+00
DAV:   9    -0.789491963485E+03    0.59995E-02   -0.96454E-03 15708   0.212E-01    0.539E-01
DAV:  10    -0.789492974639E+03   -0.10112E-02   -0.83824E-03 13308   0.108E-01    0.218E-01
DAV:  11    -0.789493505854E+03   -0.53121E-03   -0.15355E-03 12408   0.663E-02    0.137E-01
DAV:  12    -0.789493450878E+03    0.54975E-04   -0.36974E-04 14328   0.359E-02    0.120E-01
DAV:  13    -0.789493429893E+03    0.20985E-04   -0.42667E-04 13524   0.257E-02    0.655E-02
DAV:  14    -0.789493455404E+03   -0.25510E-04   -0.13827E-04 12432   0.191E-02    0.978E-02
DAV:  15    -0.789493426827E+03    0.28576E-04   -0.15885E-04  9288   0.133E-02    0.185E-02
DAV:  16    -0.789493437147E+03   -0.10319E-04   -0.12494E-05  8388   0.798E-03    0.111E-02
DAV:  17    -0.789493437357E+03   -0.21044E-06   -0.39597E-06  6720   0.405E-03
  11 F= -.78949344E+03 E0= -.78947549E+03  d E =-.129184E+00  mag=     1.9959
       N       E                     dE             d eps       ncg     rms          rms(c)
DAV:   1    -0.789574805234E+03   -0.81368E-01   -0.40480E+00 11904   0.357E+00    0.175E+00
DAV:   2    -0.789593705109E+03   -0.18900E-01   -0.28491E-01 15252   0.101E+00    0.304E+00
DAV:   3    -0.789576758193E+03    0.16947E-01   -0.15618E-01 16164   0.624E-01    0.792E-01
DAV:   4    -0.789578575270E+03   -0.18171E-02   -0.20707E-02 13848   0.315E-01    0.841E-01
DAV:   5    -0.789575881147E+03    0.26941E-02   -0.72404E-03 15024   0.211E-01    0.206E-01
DAV:   6    -0.789576213261E+03   -0.33211E-03   -0.47364E-03 14028   0.140E-01    0.435E-01
DAV:   7    -0.789575666010E+03    0.54725E-03   -0.12043E-03 14652   0.840E-02    0.211E-01
DAV:   8    -0.789575601433E+03    0.64577E-04   -0.11667E-03 13944   0.485E-02    0.123E-01
DAV:   9    -0.789575648063E+03   -0.46630E-04   -0.23405E-04 13296   0.298E-02    0.105E-01
DAV:  10    -0.789575612166E+03    0.35897E-04   -0.17284E-04 13584   0.248E-02    0.348E-02
DAV:  11    -0.789575615840E+03   -0.36743E-05   -0.56567E-05 13224   0.165E-02
  12 F= -.78957562E+03 E0= -.78955761E+03  d E =-.821785E-01  mag=     1.9954
       N       E                     dE             d eps       ncg     rms          rms(c)
DAV:   1    -0.789590353507E+03   -0.14741E-01   -0.45991E-01 11568   0.125E+00    0.414E-01
DAV:   2    -0.789591541588E+03   -0.11881E-02   -0.16920E-02 14124   0.225E-01    0.437E-01
DAV:   3    -0.789591441930E+03    0.99658E-04   -0.82517E-03 16836   0.126E-01    0.480E-01
DAV:   4    -0.789591000352E+03    0.44158E-03   -0.26483E-03 14940   0.831E-02    0.151E-01
DAV:   5    -0.789591053680E+03   -0.53328E-04   -0.72601E-04 14844   0.494E-02    0.112E-01
DAV:   6    -0.789591022764E+03    0.30916E-04   -0.20664E-04 14424   0.328E-02    0.515E-02
DAV:   7    -0.789591017682E+03    0.50820E-05   -0.81087E-05 14052   0.197E-02
  13 F= -.78959102E+03 E0= -.78957301E+03  d E =-.154018E-01  mag=     1.9957
       N       E                     dE             d eps       ncg     rms          rms(c)
DAV:   1    -0.789623852121E+03   -0.32829E-01   -0.24662E+00 11520   0.285E+00    0.923E-01
DAV:   2    -0.789632914161E+03   -0.90620E-02   -0.15722E-01 15276   0.700E-01    0.217E+00
DAV:   3    -0.789624742556E+03    0.81716E-02   -0.54214E-02 16044   0.408E-01    0.683E-01
DAV:   4    -0.789625872227E+03   -0.11297E-02   -0.11092E-02 13932   0.199E-01    0.344E-01
DAV:   5    -0.789625974545E+03   -0.10232E-03   -0.45217E-03 14400   0.114E-01    0.323E-01
DAV:   6    -0.789625755416E+03    0.21913E-03   -0.12510E-03 15024   0.705E-02    0.842E-02
DAV:   7    -0.789625783599E+03   -0.28182E-04   -0.52495E-04 13800   0.401E-02    0.134E-01
DAV:   8    -0.789625755001E+03    0.28597E-04   -0.89985E-04 15852   0.382E-02    0.132E-01
DAV:   9    -0.789625736943E+03    0.18058E-04   -0.45548E-04 12768   0.251E-02    0.800E-02
DAV:  10    -0.789625731976E+03    0.49664E-05   -0.13197E-04 10500   0.162E-02    0.493E-02
DAV:  11    -0.789625730051E+03    0.19250E-05   -0.63240E-05  8736   0.923E-03
  14 F= -.78962573E+03 E0= -.78960797E+03  d E =-.347124E-01  mag=     1.9956
       N       E                     dE             d eps       ncg     rms          rms(c)
DAV:   1    -0.789665219208E+03   -0.39487E-01   -0.59000E+00 11520   0.441E+00    0.123E+00
DAV:   2    -0.789684127484E+03   -0.18908E-01   -0.39806E-01 15564   0.104E+00    0.288E+00
DAV:   3    -0.789669815746E+03    0.14312E-01   -0.84295E-02 15912   0.549E-01    0.100E+00
DAV:   4    -0.789670138147E+03   -0.32240E-03   -0.16022E-02 14004   0.250E-01    0.349E-01
DAV:   5    -0.789670811011E+03   -0.67286E-03   -0.55578E-03 13860   0.131E-01    0.419E-01
DAV:   6    -0.789670561658E+03    0.24935E-03   -0.25364E-03 14760   0.786E-02    0.155E-01
DAV:   7    -0.789670658145E+03   -0.96488E-04   -0.15031E-03 13416   0.617E-02    0.230E-01
DAV:   8    -0.789670616146E+03    0.41999E-04   -0.28355E-03 15072   0.576E-02    0.260E-01
DAV:   9    -0.789670525256E+03    0.90891E-04   -0.19597E-03 14796   0.535E-02    0.177E-01
DAV:  10    -0.789670490795E+03    0.34460E-04   -0.29473E-04 12804   0.300E-02    0.524E-02
DAV:  11    -0.789670495489E+03   -0.46941E-05   -0.68498E-05 12708   0.130E-02
  15 F= -.78967050E+03 E0= -.78965315E+03  d E =-.447654E-01  mag=     1.9951
       N       E                     dE             d eps       ncg     rms          rms(c)
DAV:   1    -0.789160975461E+03    0.50952E+00   -0.82398E+01 11592   0.164E+01    0.521E+00
DAV:   2    -0.789421794610E+03   -0.26082E+00   -0.41075E+00 14592   0.317E+00    0.495E+00
DAV:   3    -0.789356474766E+03    0.65320E-01   -0.48004E-01 15828   0.147E+00    0.320E+00
DAV:   4    -0.789333947396E+03    0.22527E-01   -0.32344E-01 14904   0.104E+00    0.221E+00
DAV:   5    -0.789322746058E+03    0.11201E-01   -0.56144E-02 14508   0.540E-01    0.127E+00
DAV:   6    -0.789319466380E+03    0.32797E-02   -0.82427E-02 15240   0.466E-01    0.170E+00
DAV:   7    -0.789317859201E+03    0.16072E-02   -0.61946E-02 15084   0.370E-01    0.124E+00
DAV:   8    -0.789314585428E+03    0.32738E-02   -0.42462E-02 15372   0.278E-01    0.818E-01
DAV:   9    -0.789314667162E+03   -0.81734E-04   -0.26991E-02 14136   0.193E-01    0.677E-01
DAV:  10    -0.789313936252E+03    0.73091E-03   -0.83135E-03 15228   0.152E-01    0.231E-01
DAV:  11    -0.789313928946E+03    0.73058E-05   -0.75429E-04 13608   0.600E-02    0.870E-02
DAV:  12    -0.789313942148E+03   -0.13202E-04   -0.35728E-04 14184   0.321E-02    0.116E-01
DAV:  13    -0.789313918334E+03    0.23814E-04   -0.31127E-04 13404   0.218E-02    0.526E-02
DAV:  14    -0.789313922747E+03   -0.44129E-05   -0.72961E-05 11280   0.140E-02
  16 F= -.78931392E+03 E0= -.78929679E+03  d E =0.356573E+00  mag=     1.9928
       N       E                     dE             d eps       ncg     rms          rms(c)
DAV:   1    -0.789710631432E+03   -0.39671E+00   -0.22860E+01 11520   0.842E+00    0.356E+00
DAV:   2    -0.789788523393E+03   -0.77892E-01   -0.11313E+00 14568   0.188E+00    0.415E+00
DAV:   3    -0.789751166406E+03    0.37357E-01   -0.47110E-01 16524   0.107E+00    0.214E+00
DAV:   4    -0.789745468336E+03    0.56981E-02   -0.76597E-02 14472   0.510E-01    0.176E+00
DAV:   5    -0.789737233371E+03    0.82350E-02   -0.55277E-02 15528   0.397E-01    0.103E+00
DAV:   6    -0.789738020363E+03   -0.78699E-03   -0.50768E-02 14652   0.387E-01    0.137E+00
DAV:   7    -0.789733688087E+03    0.43323E-02   -0.91577E-03 15036   0.264E-01    0.643E-01
DAV:   8    -0.789733128981E+03    0.55911E-03   -0.12944E-02 14064   0.159E-01    0.354E-01
DAV:   9    -0.789733751275E+03   -0.62229E-03   -0.52764E-03 13776   0.996E-02    0.441E-01
DAV:  10    -0.789733214755E+03    0.53652E-03   -0.40378E-03 14604   0.762E-02    0.151E-01
DAV:  11    -0.789733332571E+03   -0.11782E-03   -0.29814E-04 12792   0.403E-02    0.131E-01
DAV:  12    -0.789733280473E+03    0.52098E-04   -0.28621E-04 13572   0.255E-02    0.276E-02
DAV:  13    -0.789733298638E+03   -0.18165E-04   -0.41311E-05 11508   0.133E-02    0.307E-02
DAV:  14    -0.789733297245E+03    0.13929E-05   -0.85446E-06  8340   0.617E-03
  17 F= -.78973330E+03 E0= -.78971609E+03  d E =-.419374E+00  mag=     1.9937
       N       E                     dE             d eps       ncg     rms          rms(c)
DAV:   1    -0.789752941444E+03   -0.19643E-01   -0.64882E-01 11544   0.140E+00    0.580E-01
DAV:   2    -0.789755055105E+03   -0.21137E-02   -0.28284E-02 14220   0.290E-01    0.641E-01
DAV:   3    -0.789754445681E+03    0.60942E-03   -0.11769E-02 16824   0.175E-01    0.521E-01
DAV:   4    -0.789754210616E+03    0.23507E-03   -0.44140E-03 14832   0.112E-01    0.389E-01
DAV:   5    -0.789753953864E+03    0.25675E-03   -0.19295E-03 15396   0.771E-02    0.154E-01
DAV:   6    -0.789753968223E+03   -0.14359E-04   -0.72118E-04 14172   0.532E-02    0.106E-01
DAV:   7    -0.789753951916E+03    0.16307E-04   -0.15294E-04 14208   0.311E-02    0.601E-02
DAV:   8    -0.789753944116E+03    0.77996E-05   -0.11570E-04 13668   0.185E-02    0.360E-02
DAV:   9    -0.789753945972E+03   -0.18560E-05   -0.55423E-05  9456   0.108E-02
  18 F= -.78975395E+03 E0= -.78973684E+03  d E =-.206487E-01  mag=     1.9937
       N       E                     dE             d eps       ncg     rms          rms(c)
DAV:   1    -0.789756667430E+03   -0.27233E-02   -0.26394E+00 11520   0.292E+00    0.112E+00
DAV:   2    -0.789764067793E+03   -0.74004E-02   -0.10374E-01 14232   0.525E-01    0.111E+00
DAV:   3    -0.789764154181E+03   -0.86387E-04   -0.67954E-02 17004   0.330E-01    0.140E+00
DAV:   4    -0.789760555698E+03    0.35985E-02   -0.16812E-02 14664   0.212E-01    0.302E-01
DAV:   5    -0.789761455973E+03   -0.90028E-03   -0.78494E-03 13764   0.125E-01    0.483E-01
DAV:   6    -0.789761217387E+03    0.23859E-03   -0.20949E-03 13812   0.884E-02    0.220E-01
DAV:   7    -0.789761190760E+03    0.26626E-04   -0.16160E-03 14232   0.494E-02    0.141E-01
DAV:   8    -0.789761223766E+03   -0.33006E-04   -0.44355E-04 12768   0.343E-02    0.718E-02
DAV:   9    -0.789761222066E+03    0.16998E-05   -0.15884E-04 12468   0.167E-02    0.707E-02
DAV:  10    -0.789761218740E+03    0.33264E-05   -0.20152E-04 10560   0.136E-02    0.583E-02
DAV:  11    -0.789761215979E+03    0.27605E-05   -0.91286E-05  8604   0.109E-02
  19 F= -.78976122E+03 E0= -.78974432E+03  d E =-.727001E-02  mag=     1.9936
       N       E                     dE             d eps       ncg     rms          rms(c)
DAV:   1    -0.789771979360E+03   -0.10761E-01   -0.34110E-01 11808   0.103E+00    0.439E-01
DAV:   2    -0.789773407182E+03   -0.14278E-02   -0.19562E-02 14436   0.242E-01    0.700E-01
DAV:   3    -0.789772482650E+03    0.92453E-03   -0.68910E-03 16164   0.144E-01    0.215E-01
DAV:   4    -0.789772650729E+03   -0.16808E-03   -0.15689E-03 13800   0.787E-02    0.300E-01
DAV:   5    -0.789772446509E+03    0.20422E-03   -0.14915E-03 15432   0.602E-02    0.160E-01
DAV:   6    -0.789772444641E+03    0.18674E-05   -0.58027E-04 14220   0.398E-02    0.829E-02
DAV:   7    -0.789772440384E+03    0.42570E-05   -0.60508E-05 13848   0.229E-02
  20 F= -.78977244E+03 E0= -.78975557E+03  d E =-.112244E-01  mag=     1.9936
       N       E                     dE             d eps       ncg     rms          rms(c)
DAV:   1    -0.789780380440E+03   -0.79358E-02   -0.69686E-01 11520   0.153E+00    0.425E-01
DAV:   2    -0.789782604765E+03   -0.22243E-02   -0.28535E-02 14280   0.303E-01    0.848E-01
DAV:   3    -0.789781314232E+03    0.12905E-02   -0.87615E-03 15444   0.162E-01    0.246E-01
DAV:   4    -0.789781631196E+03   -0.31696E-03   -0.27099E-03 13932   0.937E-02    0.295E-01
DAV:   5    -0.789781469049E+03    0.16215E-03   -0.16751E-03 15252   0.624E-02    0.178E-01
DAV:   6    -0.789781425668E+03    0.43381E-04   -0.44260E-04 14844   0.421E-02    0.528E-02
DAV:   7    -0.789781435823E+03   -0.10155E-04   -0.16143E-04 13836   0.237E-02    0.888E-02
DAV:   8    -0.789781423220E+03    0.12603E-04   -0.30867E-04 13428   0.197E-02    0.721E-02
DAV:   9    -0.789781419614E+03    0.36062E-05   -0.12196E-04  9228   0.134E-02    0.334E-02
DAV:  10    -0.789781420086E+03   -0.47149E-06   -0.23806E-05  7836   0.661E-03
  21 F= -.78978142E+03 E0= -.78976463E+03  d E =-.897970E-02  mag=     1.9935
       N       E                     dE             d eps       ncg     rms          rms(c)
DAV:   1    -0.789792210308E+03   -0.10791E-01   -0.14668E+00 11520   0.218E+00    0.446E-01
DAV:   2    -0.789796710196E+03   -0.44999E-02   -0.56189E-02 14148   0.416E-01    0.125E+00
DAV:   3    -0.789793767215E+03    0.29430E-02   -0.13317E-02 15048   0.213E-01    0.246E-01
DAV:   4    -0.789794387107E+03   -0.61989E-03   -0.21430E-03 13536   0.884E-02    0.151E-01
DAV:   5    -0.789794424955E+03   -0.37848E-04   -0.74780E-04 13116   0.494E-02    0.135E-01
DAV:   6    -0.789794391872E+03    0.33083E-04   -0.45282E-04 14808   0.317E-02    0.994E-02
DAV:   7    -0.789794367254E+03    0.24619E-04   -0.15452E-04 13764   0.251E-02    0.417E-02
DAV:   8    -0.789794380654E+03   -0.13401E-04   -0.21008E-04 13728   0.181E-02    0.750E-02
DAV:   9    -0.789794368711E+03    0.11943E-04   -0.18474E-04  9624   0.142E-02    0.476E-02
DAV:  10    -0.789794368234E+03    0.47769E-06   -0.20616E-05  8076   0.934E-03
  22 F= -.78979437E+03 E0= -.78977770E+03  d E =-.129481E-01  mag=     1.9933
       N       E                     dE             d eps       ncg     rms          rms(c)
DAV:   1    -0.789119515345E+03    0.67485E+00   -0.77654E+01 11520   0.161E+01    0.609E+00
DAV:   2    -0.789349402247E+03   -0.22989E+00   -0.33434E+00 14400   0.287E+00    0.566E+00
DAV:   3    -0.789279675079E+03    0.69727E-01   -0.94321E-01 17424   0.169E+00    0.396E+00
DAV:   4    -0.789260734278E+03    0.18941E-01   -0.22119E-01 14664   0.869E-01    0.265E+00
DAV:   5    -0.789243860805E+03    0.16873E-01   -0.14034E-01 15096   0.634E-01    0.118E+00
DAV:   6    -0.789251974905E+03   -0.81141E-02   -0.13215E-01 14004   0.432E-01    0.238E+00
DAV:   7    -0.789238586226E+03    0.13389E-01   -0.14139E-01 15396   0.381E-01    0.904E-01
DAV:   8    -0.789241399212E+03   -0.28130E-02   -0.55889E-03 12504   0.165E-01    0.609E-01
DAV:   9    -0.789240504141E+03    0.89507E-03   -0.14265E-02 14664   0.110E-01    0.430E-01
DAV:  10    -0.789240796170E+03   -0.29203E-03   -0.28508E-03 13068   0.929E-02    0.360E-01
DAV:  11    -0.789240504926E+03    0.29124E-03   -0.16075E-03 14508   0.568E-02    0.588E-02
DAV:  12    -0.789240602659E+03   -0.97733E-04   -0.25007E-04 13224   0.310E-02    0.642E-02
DAV:  13    -0.789240602793E+03   -0.13445E-06   -0.99983E-05 12840   0.167E-02
  23 F= -.78924060E+03 E0= -.78922484E+03  d E =0.553765E+00  mag=     1.9941
       N       E                     dE             d eps       ncg     rms          rms(c)
DAV:   1    -0.789567686565E+03   -0.32708E+00   -0.76868E+01 11976   0.132E+01    0.770E+00
DAV:   2    -0.789968296710E+03   -0.40061E+00   -0.49331E+00 14544   0.330E+00    0.980E+00
DAV:   3    -0.789934945395E+03    0.33351E-01   -0.71872E+00 17268   0.209E+00    0.657E+00
DAV:   4    -0.789804805804E+03    0.13014E+00   -0.36722E-01 15012   0.135E+00    0.460E+00
DAV:   5    -0.789745711738E+03    0.59094E-01   -0.30666E-01 15264   0.992E-01    0.265E+00
DAV:   6    -0.789786048051E+03   -0.40336E-01   -0.33855E-01 14352   0.828E-01    0.369E+00
DAV:   7    -0.789766288330E+03    0.19760E-01   -0.14465E-01 14064   0.585E-01    0.317E+00
DAV:   8    -0.789731833213E+03    0.34455E-01   -0.29920E-01 15180   0.640E-01    0.213E+00
DAV:   9    -0.789745896092E+03   -0.14063E-01   -0.16317E-01 15084   0.570E-01    0.177E+00
DAV:  10    -0.789741763170E+03    0.41329E-02   -0.85623E-02 14280   0.363E-01    0.165E+00
DAV:  11    -0.789735919788E+03    0.58434E-02   -0.41595E-02 13404   0.229E-01    0.424E-01
DAV:  12    -0.789737548285E+03   -0.16285E-02   -0.29810E-03 12180   0.116E-01    0.192E-01
DAV:  13    -0.789737849164E+03   -0.30088E-03   -0.10486E-03 13428   0.560E-02    0.239E-01
DAV:  14    -0.789737777391E+03    0.71773E-04   -0.27728E-03 15324   0.443E-02    0.227E-01
DAV:  15    -0.789737752248E+03    0.25142E-04   -0.13638E-03 13416   0.451E-02    0.117E-01
DAV:  16    -0.789737753180E+03   -0.93135E-06   -0.13350E-04 12828   0.215E-02    0.469E-02
DAV:  17    -0.789737753259E+03   -0.79046E-07   -0.27746E-05 10188   0.805E-03
  24 F= -.78973775E+03 E0= -.78972189E+03  d E =-.497150E+00  mag=     1.9930
       N       E                     dE             d eps       ncg     rms          rms(c)
DAV:   1    -0.789812756852E+03   -0.75004E-01   -0.15914E+00 11544   0.196E+00    0.798E-01
DAV:   2    -0.789817016901E+03   -0.42600E-02   -0.60042E-02 14148   0.358E-01    0.551E-01
DAV:   3    -0.789816846638E+03    0.17026E-03   -0.18952E-02 16956   0.215E-01    0.912E-01
DAV:   4    -0.789815247005E+03    0.15996E-02   -0.10084E-02 15972   0.150E-01    0.370E-01
DAV:   5    -0.789815356599E+03   -0.10959E-03   -0.35580E-03 13956   0.925E-02    0.216E-01
DAV:   6    -0.789815241831E+03    0.11477E-03   -0.95765E-04 14124   0.667E-02    0.139E-01
DAV:   7    -0.789815210401E+03    0.31430E-04   -0.24316E-04 14760   0.370E-02    0.371E-02
DAV:   8    -0.789815220502E+03   -0.10100E-04   -0.11495E-04 13728   0.177E-02    0.499E-02
DAV:   9    -0.789815217524E+03    0.29775E-05   -0.11812E-04  9708   0.154E-02    0.519E-02
DAV:  10    -0.789815212789E+03    0.47348E-05   -0.10098E-04  8640   0.103E-02    0.383E-02
DAV:  11    -0.789815212448E+03    0.34085E-06   -0.48299E-05  7824   0.839E-03
  25 F= -.78981521E+03 E0= -.78979929E+03  d E =-.774592E-01  mag=     1.9931
       N       E                     dE             d eps       ncg     rms          rms(c)
DAV:   1    -0.789821779011E+03   -0.65662E-02   -0.11374E+01 11520   0.525E+00    0.262E+00
DAV:   2    -0.789850144680E+03   -0.28366E-01   -0.39606E-01 14136   0.869E-01    0.115E+00
DAV:   3    -0.789848732882E+03    0.14118E-02   -0.12557E-01 16380   0.576E-01    0.234E+00
DAV:   4    -0.789838444250E+03    0.10289E-01   -0.61942E-02 16764   0.408E-01    0.501E-01
DAV:   5    -0.789840963309E+03   -0.25191E-02   -0.26556E-02 14292   0.229E-01    0.100E+00
DAV:   6    -0.789838918319E+03    0.20450E-02   -0.10173E-02 14820   0.166E-01    0.347E-01
DAV:   7    -0.789839445264E+03   -0.52695E-03   -0.98837E-03 13776   0.103E-01    0.426E-01
DAV:   8    -0.789839150829E+03    0.29444E-03   -0.19552E-03 13380   0.691E-02    0.157E-01
DAV:   9    -0.789839168839E+03   -0.18010E-04   -0.75313E-04 13944   0.341E-02    0.927E-02
DAV:  10    -0.789839193675E+03   -0.24836E-04   -0.39539E-04 13188   0.271E-02    0.720E-02
DAV:  11    -0.789839196748E+03   -0.30727E-05   -0.23981E-04 13464   0.199E-02    0.100E-01
DAV:  12    -0.789839172698E+03    0.24050E-04   -0.16934E-04  9708   0.146E-02    0.213E-02
DAV:  13    -0.789839182889E+03   -0.10191E-04   -0.28184E-05  8040   0.786E-03    0.234E-02
DAV:  14    -0.789839181885E+03    0.10044E-05   -0.80868E-06  6516   0.435E-03
  26 F= -.78983918E+03 E0= -.78982327E+03  d E =-.239694E-01  mag=     1.9935
       N       E                     dE             d eps       ncg     rms          rms(c)
DAV:   1    -0.789864562794E+03   -0.25380E-01   -0.17814E+00 11904   0.208E+00    0.101E+00
DAV:   2    -0.789869595758E+03   -0.50330E-02   -0.68192E-02 14136   0.390E-01    0.510E-01
DAV:   3    -0.789870383179E+03   -0.78742E-03   -0.34812E-02 16668   0.246E-01    0.138E+00
DAV:   4    -0.789866588592E+03    0.37946E-02   -0.20592E-02 16128   0.196E-01    0.194E-01
DAV:   5    -0.789867817926E+03   -0.12293E-02   -0.49138E-03 13416   0.106E-01    0.451E-01
DAV:   6    -0.789867492283E+03    0.32564E-03   -0.16914E-03 13932   0.740E-02    0.152E-01
DAV:   7    -0.789867589901E+03   -0.97618E-04   -0.18244E-03 13824   0.395E-02    0.210E-01
DAV:   8    -0.789867536389E+03    0.53512E-04   -0.53289E-04 12888   0.321E-02    0.753E-02
DAV:   9    -0.789867548358E+03   -0.11969E-04   -0.25658E-04 13008   0.159E-02    0.752E-02
DAV:  10    -0.789867546994E+03    0.13648E-05   -0.14770E-04  9876   0.141E-02    0.345E-02
DAV:  11    -0.789867549116E+03   -0.21220E-05   -0.31483E-05  7992   0.755E-03
  27 F= -.78986755E+03 E0= -.78985166E+03  d E =-.283672E-01  mag=     1.9934
       N       E                     dE             d eps       ncg     rms          rms(c)
DAV:   1    -0.789869668549E+03   -0.21216E-02   -0.46068E-02 11592   0.391E-01    0.889E-02
DAV:   2    -0.789869810731E+03   -0.14218E-03   -0.17547E-03 14148   0.685E-02    0.214E-01
DAV:   3    -0.789869723018E+03    0.87713E-04   -0.62641E-04 14964   0.352E-02    0.514E-02
DAV:   4    -0.789869750085E+03   -0.27067E-04   -0.88501E-05 12780   0.198E-02    0.589E-02
DAV:   5    -0.789869741934E+03    0.81516E-05   -0.48957E-05 10260   0.131E-02
  28 F= -.78986974E+03 E0= -.78985390E+03  d E =-.219282E-02  mag=     1.9935
       N       E                     dE             d eps       ncg     rms          rms(c)
DAV:   1    -0.789879551348E+03   -0.98013E-02   -0.15558E+00 11520   0.223E+00    0.463E-01
DAV:   2    -0.789885825180E+03   -0.62738E-02   -0.79600E-02 14148   0.428E-01    0.167E+00
DAV:   3    -0.789880393812E+03    0.54314E-02   -0.26303E-02 14988   0.240E-01    0.269E-01
DAV:   4    -0.789881889820E+03   -0.14960E-02   -0.31962E-03 13284   0.104E-01    0.218E-01
DAV:   5    -0.789881933991E+03   -0.44171E-04   -0.95062E-04 13308   0.602E-02    0.108E-01
DAV:   6    -0.789881909235E+03    0.24756E-04   -0.38071E-04 14688   0.347E-02    0.949E-02
DAV:   7    -0.789881892552E+03    0.16683E-04   -0.98903E-05 13788   0.231E-02    0.879E-02
DAV:   8    -0.789881896877E+03   -0.43250E-05   -0.52353E-04 14328   0.211E-02    0.112E-01
DAV:   9    -0.789881877813E+03    0.19064E-04   -0.20018E-04 10572   0.172E-02    0.363E-02
DAV:  10    -0.789881882269E+03   -0.44557E-05   -0.26546E-05  7992   0.764E-03
  29 F= -.78988188E+03 E0= -.78986622E+03  d E =-.121403E-01  mag=     1.9940
       N       E                     dE             d eps       ncg     rms          rms(c)
DAV:   1    -0.789891122349E+03   -0.92445E-02   -0.81599E+00 11520   0.510E+00    0.639E-01
DAV:   2    -0.789907984483E+03   -0.16862E-01   -0.18909E-01 13524   0.715E-01    0.988E-01
DAV:   3    -0.789906322842E+03    0.16616E-02   -0.21061E-02 15816   0.219E-01    0.533E-01
DAV:   4    -0.789905972853E+03    0.34999E-03   -0.55869E-03 13584   0.130E-01    0.364E-01
DAV:   5    -0.789905680464E+03    0.29239E-03   -0.30654E-03 14988   0.886E-02    0.187E-01
DAV:   6    -0.789905564197E+03    0.11627E-03   -0.93753E-04 13812   0.656E-02    0.186E-01
DAV:   7    -0.789905472232E+03    0.91965E-04   -0.73240E-04 14364   0.511E-02    0.762E-02
DAV:   8    -0.789905511073E+03   -0.38842E-04   -0.21288E-04 13236   0.241E-02    0.836E-02
DAV:   9    -0.789905501948E+03    0.91257E-05   -0.26546E-04 11964   0.176E-02    0.649E-02
DAV:  10    -0.789905500774E+03    0.11735E-05   -0.12965E-04  9252   0.133E-02    0.429E-02
DAV:  11    -0.789905499629E+03    0.11449E-05   -0.60282E-05  7512   0.850E-03
  30 F= -.78990550E+03 E0= -.78989027E+03  d E =-.236174E-01  mag=     1.9958
       N       E                     dE             d eps       ncg     rms          rms(c)
DAV:   1    -0.789254441513E+03    0.65106E+00   -0.51849E+01 11544   0.130E+01    0.648E+00
DAV:   2    -0.789693638991E+03   -0.43920E+00   -0.50552E+00 15276   0.347E+00    0.100E+01
DAV:   3    -0.789477745296E+03    0.21589E+00   -0.87035E+00 17148   0.217E+00    0.470E+00
DAV:   4    -0.789378257545E+03    0.99488E-01   -0.60575E-01 15252   0.152E+00    0.422E+00
DAV:   5    -0.789296557723E+03    0.81700E-01   -0.14976E-01 15000   0.942E-01    0.203E+00
DAV:   6    -0.789309222886E+03   -0.12665E-01   -0.35471E-01 14280   0.716E-01    0.370E+00
DAV:   7    -0.789318618791E+03   -0.93959E-02   -0.58405E-02 12744   0.384E-01    0.391E+00
DAV:   8    -0.789307215509E+03    0.11403E-01   -0.79674E-03 13380   0.221E-01    0.399E+00
DAV:   9    -0.789261569258E+03    0.45646E-01   -0.38701E-01 17256   0.434E-01    0.109E+00
DAV:  10    -0.789277350158E+03   -0.15781E-01   -0.31881E-02 12780   0.368E-01    0.955E-01
DAV:  11    -0.789276243140E+03    0.11070E-02   -0.11048E-02 13836   0.182E-01    0.467E-01
DAV:  12    -0.789276642841E+03   -0.39970E-03   -0.38011E-03 12732   0.130E-01    0.297E-01
DAV:  13    -0.789276520586E+03    0.12225E-03   -0.34246E-03 13980   0.717E-02    0.195E-01
DAV:  14    -0.789276657881E+03   -0.13729E-03   -0.87112E-04 12240   0.552E-02    0.165E-01
DAV:  15    -0.789276618269E+03    0.39612E-04   -0.38344E-04 13932   0.297E-02    0.122E-01
DAV:  16    -0.789276618968E+03   -0.69898E-06   -0.22751E-04 12300   0.235E-02    0.313E-02
DAV:  17    -0.789276642581E+03   -0.23613E-04   -0.52797E-05 11316   0.124E-02    0.371E-02
DAV:  18    -0.789276646537E+03   -0.39569E-05   -0.33847E-05  9672   0.956E-03
  31 F= -.78927665E+03 E0= -.78925686E+03  d E =0.628853E+00  mag=     1.4613
       N       E                     dE             d eps       ncg     rms          rms(c)
DAV:   1    -0.789584931880E+03   -0.30829E+00   -0.79182E+01 12132   0.130E+01    0.856E+00
DAV:   2    -0.790432341696E+03   -0.84741E+00   -0.11768E+01 15096   0.432E+00    0.958E+00
DAV:   3    -0.790125308362E+03    0.30703E+00   -0.70265E+00 16896   0.244E+00    0.781E+00
DAV:   4    -0.789818140701E+03    0.30717E+00   -0.29750E+00 15732   0.196E+00    0.444E+00
DAV:   5    -0.789809952395E+03    0.81883E-02   -0.62855E-01 15708   0.121E+00    0.451E+00
DAV:   6    -0.789808556650E+03    0.13957E-02   -0.10211E-01 13968   0.794E-01    0.379E+00
DAV:   7    -0.789770833836E+03    0.37723E-01   -0.43951E-01 16248   0.962E-01    0.273E+00
DAV:   8    -0.789833800685E+03   -0.62967E-01   -0.44023E-01 14100   0.650E-01    0.470E+00
DAV:   9    -0.789820802703E+03    0.12998E-01   -0.17663E-02 12072   0.298E-01    0.458E+00
DAV:  10    -0.789802184245E+03    0.18618E-01   -0.62905E-03 13872   0.134E-01    0.456E+00
DAV:  11    -0.789789295412E+03    0.12889E-01   -0.10384E-01 15168   0.487E-01    0.523E+00
DAV:  12    -0.789742037105E+03    0.47258E-01   -0.27146E-01 13848   0.501E-01    0.209E+00
DAV:  13    -0.789763031924E+03   -0.20995E-01   -0.56139E-02 13632   0.384E-01    0.237E+00
DAV:  14    -0.789758932141E+03    0.40998E-02   -0.32193E-02 13836   0.218E-01    0.149E+00
DAV:  15    -0.789760150655E+03   -0.12185E-02   -0.13994E-02 12360   0.170E-01    0.149E+00
DAV:  16    -0.789757350768E+03    0.27999E-02   -0.10112E-02 15288   0.184E-01    0.871E-01
DAV:  17    -0.789760023236E+03   -0.26725E-02   -0.16792E-02 14088   0.175E-01    0.979E-01
DAV:  18    -0.789759356359E+03    0.66688E-03   -0.51743E-03 11904   0.119E-01    0.523E-01
DAV:  19    -0.789759718513E+03   -0.36215E-03   -0.17364E-03 13776   0.617E-02    0.419E-01
DAV:  20    -0.789759670224E+03    0.48289E-04   -0.61571E-04 14100   0.418E-02    0.246E-01
DAV:  21    -0.789759855110E+03   -0.18489E-03   -0.10477E-03 13860   0.408E-02    0.125E-01
DAV:  22    -0.789760068934E+03   -0.21382E-03   -0.16578E-04 12204   0.241E-02    0.127E-01
DAV:  23    -0.789760145827E+03   -0.76893E-04   -0.15853E-04 13044   0.155E-02    0.102E-01
DAV:  24    -0.789760277659E+03   -0.13183E-03   -0.94874E-04 13920   0.337E-02    0.672E-02
DAV:  25    -0.789760416492E+03   -0.13883E-03   -0.14079E-03 13548   0.404E-02    0.575E-02
DAV:  26    -0.789760512641E+03   -0.96149E-04   -0.66614E-04 13716   0.272E-02    0.547E-02
DAV:  27    -0.789760537129E+03   -0.24487E-04   -0.18510E-05 10308   0.963E-03    0.535E-02
DAV:  28    -0.789760536833E+03    0.29535E-06   -0.11739E-06  6432   0.273E-03
  32 F= -.78976054E+03 E0= -.78974092E+03  d E =-.483890E+00  mag=     1.4551
       N       E                     dE             d eps       ncg     rms          rms(c)
DAV:   1    -0.789785281918E+03   -0.24745E-01   -0.41396E-01 11616   0.111E+00    0.526E-01
DAV:   2    -0.789799398850E+03   -0.14117E-01   -0.63901E-02 15336   0.345E-01    0.214E+00
DAV:   3    -0.789782663330E+03    0.16736E-01   -0.27158E-02 15672   0.283E-01    0.287E-01
DAV:   4    -0.789786130662E+03   -0.34673E-02   -0.55609E-03 12540   0.130E-01    0.405E-01
DAV:   5    -0.789786133053E+03   -0.23915E-05   -0.30512E-03 15012   0.693E-02    0.435E-01
DAV:   6    -0.789785480859E+03    0.65219E-03   -0.55637E-04 11916   0.458E-02    0.247E-01
DAV:   7    -0.789785488443E+03   -0.75842E-05   -0.63117E-04 14784   0.414E-02    0.830E-02
DAV:   8    -0.789785709195E+03   -0.22075E-03   -0.67823E-04 12768   0.350E-02    0.180E-01
DAV:   9    -0.789785647357E+03    0.61838E-04   -0.41488E-04 12996   0.298E-02    0.660E-02
DAV:  10    -0.789785666069E+03   -0.18712E-04   -0.60914E-05 11172   0.153E-02    0.366E-02
DAV:  11    -0.789785663790E+03    0.22796E-05   -0.26848E-05  8148   0.723E-03
  33 F= -.78978566E+03 E0= -.78976607E+03  d E =-.251270E-01  mag=     1.4507
       N       E                     dE             d eps       ncg     rms          rms(c)
DAV:   1    -0.789884055089E+03   -0.98389E-01   -0.99225E+00 11520   0.509E+00    0.240E+00
DAV:   2    -0.790165278403E+03   -0.28122E+00   -0.17224E+00 15000   0.152E+00    0.889E+00
DAV:   3    -0.789875232008E+03    0.29005E+00   -0.16225E+00 15840   0.993E-01    0.237E+00
DAV:   4    -0.789900672041E+03   -0.25440E-01   -0.10850E-01 13764   0.655E-01    0.137E+00
DAV:   5    -0.789919785046E+03   -0.19113E-01   -0.11688E-01 13764   0.339E-01    0.235E+00
DAV:   6    -0.789897826319E+03    0.21959E-01   -0.28380E-02 11928   0.253E-01    0.171E+00
DAV:   7    -0.789893860508E+03    0.39658E-02   -0.30156E-02 14940   0.241E-01    0.174E+00
DAV:   8    -0.789893036005E+03    0.82450E-03   -0.28194E-02 12228   0.299E-01    0.570E-01
DAV:   9    -0.789896730615E+03   -0.36946E-02   -0.48617E-03 13620   0.155E-01    0.822E-01
DAV:  10    -0.789894481684E+03    0.22489E-02   -0.44540E-03 12924   0.113E-01    0.300E-01
DAV:  11    -0.789895108327E+03   -0.62664E-03   -0.11950E-03 13176   0.789E-02    0.489E-01
DAV:  12    -0.789894731360E+03    0.37697E-03   -0.86064E-04 11928   0.764E-02    0.122E-01
DAV:  13    -0.789894916673E+03   -0.18531E-03   -0.26142E-04 12048   0.351E-02    0.652E-02
DAV:  14    -0.789894925845E+03   -0.91718E-05   -0.84772E-05 12648   0.171E-02
  34 F= -.78989493E+03 E0= -.78987525E+03  d E =-.109262E+00  mag=     1.4630
       N       E                     dE             d eps       ncg     rms          rms(c)
DAV:   1    -0.789892167421E+03    0.27493E-02   -0.98872E-01 11544   0.182E+00    0.802E-01
DAV:   2    -0.789921137567E+03   -0.28970E-01   -0.17485E-01 15852   0.544E-01    0.251E+00
DAV:   3    -0.789889839374E+03    0.31298E-01   -0.36491E-02 16980   0.424E-01    0.820E-01
DAV:   4    -0.789892837906E+03   -0.29985E-02   -0.19541E-02 14016   0.201E-01    0.395E-01
DAV:   5    -0.789892921826E+03   -0.83919E-04   -0.16717E-03 13608   0.934E-02    0.244E-01
DAV:   6    -0.789892789387E+03    0.13244E-03   -0.15779E-03 14868   0.553E-02    0.849E-02
DAV:   7    -0.789892845624E+03   -0.56237E-04   -0.36716E-04 13668   0.309E-02    0.133E-01
DAV:   8    -0.789892837049E+03    0.85756E-05   -0.62884E-04 12900   0.237E-02    0.114E-01
DAV:   9    -0.789892836211E+03    0.83763E-06   -0.31374E-05 11316   0.135E-02
  35 F= -.78989284E+03 E0= -.78987351E+03  d E =0.208963E-02  mag=     1.4554
       N       E                     dE             d eps       ncg     rms          rms(c)
DAV:   1    -0.789897174390E+03   -0.43373E-02   -0.33943E-01 11544   0.995E-01    0.456E-01
DAV:   2    -0.789910728204E+03   -0.13554E-01   -0.76562E-02 14880   0.302E-01    0.265E+00
DAV:   3    -0.789892214218E+03    0.18514E-01   -0.83991E-02 14844   0.244E-01    0.329E-01
DAV:   4    -0.789897741366E+03   -0.55271E-02   -0.38188E-03 12336   0.135E-01    0.271E-01
DAV:   5    -0.789898035533E+03   -0.29417E-03   -0.13466E-03 14124   0.618E-02    0.367E-01
DAV:   6    -0.789897456051E+03    0.57948E-03   -0.46613E-04 11904   0.402E-02    0.170E-01
DAV:   7    -0.789897531623E+03   -0.75572E-04   -0.84686E-04 15156   0.399E-02    0.160E-01
DAV:   8    -0.789897606385E+03   -0.74762E-04   -0.28284E-04 12660   0.369E-02    0.644E-02
DAV:   9    -0.789897612011E+03   -0.56259E-05   -0.76241E-05 12252   0.148E-02
  36 F= -.78989761E+03 E0= -.78987805E+03  d E =-.477580E-02  mag=     1.4570
       N       E                     dE             d eps       ncg     rms          rms(c)
DAV:   1    -0.789899141915E+03   -0.15355E-02   -0.31872E-01 11544   0.103E+00    0.370E-01
DAV:   2    -0.789903259660E+03   -0.41177E-02   -0.23542E-02 14400   0.218E-01    0.131E+00
DAV:   3    -0.789898833691E+03    0.44260E-02   -0.23184E-02 15264   0.158E-01    0.528E-01
DAV:   4    -0.789899644320E+03   -0.81063E-03   -0.57698E-03 14076   0.114E-01    0.297E-01
DAV:   5    -0.789899572648E+03    0.71672E-04   -0.80945E-04 14136   0.554E-02    0.972E-02
DAV:   6    -0.789899594596E+03   -0.21948E-04   -0.43144E-04 14124   0.288E-02    0.115E-01
DAV:   7    -0.789899646531E+03   -0.51935E-04   -0.98557E-05 12060   0.152E-02    0.162E-01
DAV:   8    -0.789899519043E+03    0.12749E-03   -0.10907E-04 11484   0.181E-02    0.477E-02
DAV:   9    -0.789899575852E+03   -0.56809E-04   -0.12196E-04 11028   0.171E-02    0.681E-02
DAV:  10    -0.789899572598E+03    0.32535E-05   -0.11055E-04  8520   0.110E-02    0.333E-02
DAV:  11    -0.789899574058E+03   -0.14594E-05   -0.18008E-05  7884   0.805E-03
  37 F= -.78989957E+03 E0= -.78988003E+03  d E =-.196205E-02  mag=     1.4587
       N       E                     dE             d eps       ncg     rms          rms(c)
DAV:   1    -0.789900819866E+03   -0.12473E-02   -0.10273E-01 11592   0.583E-01    0.216E-01
DAV:   2    -0.789907619447E+03   -0.67996E-02   -0.31468E-02 15960   0.188E-01    0.185E+00
DAV:   3    -0.789897972524E+03    0.96469E-02   -0.30092E-02 14964   0.166E-01    0.120E-01
DAV:   4    -0.789900937036E+03   -0.29645E-02   -0.98403E-04 11832   0.627E-02    0.209E-01
DAV:   5    -0.789900950391E+03   -0.13355E-04   -0.92336E-05 12696   0.253E-02    0.176E-01
DAV:   6    -0.789900822332E+03    0.12806E-03   -0.25496E-04 13788   0.229E-02    0.578E-02
DAV:   7    -0.789900901714E+03   -0.79382E-04   -0.78736E-05 11676   0.192E-02    0.509E-02
DAV:   8    -0.789900912500E+03   -0.10785E-04   -0.32145E-05  9528   0.122E-02    0.292E-02
DAV:   9    -0.789900910495E+03    0.20048E-05   -0.20804E-05  6804   0.649E-03
  38 F= -.78990091E+03 E0= -.78988134E+03  d E =-.133644E-02  mag=     1.4605
       N       E                     dE             d eps       ncg     rms          rms(c)
DAV:   1    -0.789895737026E+03    0.51755E-02   -0.12112E+01 11520   0.627E+00    0.120E+00
DAV:   2    -0.790029916799E+03   -0.13418E+00   -0.97472E-01 14124   0.122E+00    0.691E+00
DAV:   3    -0.789896846723E+03    0.13307E+00   -0.90438E-01 14400   0.682E-01    0.211E+00
DAV:   4    -0.789914767793E+03   -0.17921E-01   -0.46025E-02 13380   0.425E-01    0.685E-01
DAV:   5    -0.789922138905E+03   -0.73711E-02   -0.24085E-02 13512   0.181E-01    0.133E+00
DAV:   6    -0.789912972541E+03    0.91664E-02   -0.12314E-02 11964   0.176E-01    0.780E-01
DAV:   7    -0.789914975705E+03   -0.20032E-02   -0.38833E-02 14952   0.183E-01    0.908E-01
DAV:   8    -0.789914425329E+03    0.55038E-03   -0.57682E-03 12792   0.133E-01    0.396E-01
DAV:   9    -0.789914360153E+03    0.65176E-04   -0.47882E-03 13848   0.925E-02    0.186E-01
DAV:  10    -0.789914604612E+03   -0.24446E-03   -0.14337E-03 12444   0.584E-02    0.155E-01
DAV:  11    -0.789914540916E+03    0.63695E-04   -0.33330E-04 13860   0.338E-02    0.399E-02
DAV:  12    -0.789914557227E+03   -0.16310E-04   -0.48984E-05 12552   0.125E-02    0.433E-02
DAV:  13    -0.789914555136E+03    0.20909E-05   -0.20413E-05  8220   0.907E-03
  39 F= -.78991456E+03 E0= -.78989542E+03  d E =-.136446E-01  mag=     1.4813
       N       E                     dE             d eps       ncg     rms          rms(c)
DAV:   1    -0.789930079777E+03   -0.15523E-01   -0.10883E+01 11520   0.599E+00    0.258E+00
DAV:   2    -0.790446188095E+03   -0.51611E+00   -0.28592E+00 17040   0.221E+00    0.102E+01
DAV:   3    -0.789901383330E+03    0.54480E+00   -0.22385E+00 16608   0.135E+00    0.230E+00
DAV:   4    -0.789929638068E+03   -0.28255E-01   -0.93796E-02 13440   0.576E-01    0.921E-01
DAV:   5    -0.789944923109E+03   -0.15285E-01   -0.46247E-02 13308   0.251E-01    0.180E+00
DAV:   6    -0.789927564154E+03    0.17359E-01   -0.18928E-02 12780   0.256E-01    0.131E+00
DAV:   7    -0.789926344927E+03    0.12192E-02   -0.40556E-02 14928   0.242E-01    0.660E-01
DAV:   8    -0.789928390083E+03   -0.20452E-02   -0.11044E-02 13260   0.190E-01    0.428E-01
DAV:   9    -0.789928554718E+03   -0.16463E-03   -0.32537E-03 12900   0.116E-01    0.384E-01
DAV:  10    -0.789928809672E+03   -0.25495E-03   -0.45052E-03 14424   0.108E-01    0.587E-01
DAV:  11    -0.789928007276E+03    0.80240E-03   -0.36457E-03 13656   0.834E-02    0.177E-01
DAV:  12    -0.789928251768E+03   -0.24449E-03   -0.35631E-04 12048   0.388E-02    0.147E-01
DAV:  13    -0.789928215630E+03    0.36138E-04   -0.44668E-04 13188   0.267E-02    0.938E-02
DAV:  14    -0.789928230139E+03   -0.14509E-04   -0.10425E-04 11676   0.178E-02    0.559E-02
DAV:  15    -0.789928225452E+03    0.46869E-05   -0.27105E-05 10164   0.114E-02
  40 F= -.78992823E+03 E0= -.78991027E+03  d E =-.136703E-01  mag=     1.5189
       N       E                     dE             d eps       ncg     rms          rms(c)
DAV:   1    -0.789937648771E+03   -0.94186E-02   -0.29239E+00 11520   0.312E+00    0.246E+00
DAV:   2    -0.790198382620E+03   -0.26073E+00   -0.34147E+00 17784   0.204E+00    0.510E+00
DAV:   3    -0.790000105549E+03    0.19828E+00   -0.48590E-01 17976   0.122E+00    0.280E+00
DAV:   4    -0.789950658971E+03    0.49447E-01   -0.68391E-02 14100   0.590E-01    0.226E+00
DAV:   5    -0.789928111854E+03    0.22547E-01   -0.40097E-02 14136   0.418E-01    0.825E-01
DAV:   6    -0.789931971360E+03   -0.38595E-02   -0.26541E-02 14160   0.233E-01    0.685E-01
DAV:   7    -0.789933422734E+03   -0.14514E-02   -0.23182E-03 12336   0.127E-01    0.621E-01
DAV:   8    -0.789932499177E+03    0.92356E-03   -0.98572E-04 12192   0.620E-02    0.510E-01
DAV:   9    -0.789931989788E+03    0.50939E-03   -0.31629E-03 16500   0.703E-02    0.358E-01
DAV:  10    -0.789932480250E+03   -0.49046E-03   -0.46204E-03 14520   0.803E-02    0.391E-01
DAV:  11    -0.789932189446E+03    0.29080E-03   -0.10185E-03 12288   0.513E-02    0.144E-01
DAV:  12    -0.789932208338E+03   -0.18891E-04   -0.50744E-04 13764   0.277E-02    0.971E-02
DAV:  13    -0.789932231745E+03   -0.23407E-04   -0.70307E-05 12084   0.190E-02    0.461E-02
DAV:  14    -0.789932227310E+03    0.44351E-05   -0.28059E-05  8340   0.652E-03
  41 F= -.78993223E+03 E0= -.78991379E+03  d E =-.400186E-02  mag=     1.4969
       N       E                     dE             d eps       ncg     rms          rms(c)
DAV:   1    -0.789935930394E+03   -0.36986E-02   -0.26082E-01 11520   0.940E-01    0.528E-01
DAV:   2    -0.789941696213E+03   -0.57658E-02   -0.69447E-02 16848   0.363E-01    0.171E+00
DAV:   3    -0.789935865893E+03    0.58303E-02   -0.28622E-02 15816   0.264E-01    0.751E-01
DAV:   4    -0.789935769637E+03    0.96256E-04   -0.79240E-03 12708   0.120E-01    0.287E-01
DAV:   5    -0.789936491310E+03   -0.72167E-03   -0.50259E-03 14352   0.731E-02    0.432E-01
DAV:   6    -0.789936390480E+03    0.10083E-03   -0.31456E-04 11880   0.448E-02    0.430E-01
DAV:   7    -0.789935632581E+03    0.75790E-03   -0.15227E-03 12732   0.421E-02    0.143E-01
DAV:   8    -0.789935955542E+03   -0.32296E-03   -0.85896E-04 13008   0.431E-02    0.127E-01
DAV:   9    -0.789936029082E+03   -0.73539E-04   -0.34492E-04 11700   0.278E-02    0.823E-02
DAV:  10    -0.789936029750E+03   -0.66801E-06   -0.81630E-05 11448   0.153E-02
  42 F= -.78993603E+03 E0= -.78991756E+03  d E =-.380244E-02  mag=     1.4987
       N       E                     dE             d eps       ncg     rms          rms(c)
DAV:   1    -0.789941104227E+03   -0.50751E-02   -0.11722E+00 11520   0.196E+00    0.336E-01
DAV:   2    -0.789950646668E+03   -0.95424E-02   -0.58437E-02 13884   0.343E-01    0.200E+00
DAV:   3    -0.789940185908E+03    0.10461E-01   -0.39998E-02 14352   0.201E-01    0.298E-01
DAV:   4    -0.789943167968E+03   -0.29821E-02   -0.27938E-03 12420   0.977E-02    0.190E-01
DAV:   5    -0.789943302597E+03   -0.13463E-03   -0.61268E-04 14400   0.439E-02    0.259E-01
DAV:   6    -0.789943159242E+03    0.14335E-03   -0.10828E-04 12132   0.241E-02    0.224E-01
DAV:   7    -0.789942943624E+03    0.21562E-03   -0.35411E-04 14280   0.294E-02    0.102E-01
DAV:   8    -0.789943051771E+03   -0.10815E-03   -0.45824E-04 13296   0.302E-02    0.125E-01
DAV:   9    -0.789943067808E+03   -0.16038E-04   -0.15168E-04 11964   0.251E-02    0.708E-02
DAV:  10    -0.789943061437E+03    0.63717E-05   -0.51522E-05  9864   0.127E-02
  43 F= -.78994306E+03 E0= -.78992485E+03  d E =-.703169E-02  mag=     1.5042
       N       E                     dE             d eps       ncg     rms          rms(c)
DAV:   1    -0.789757726443E+03    0.18534E+00   -0.10182E+02 11520   0.183E+01    0.280E+00
DAV:   2    -0.790035472541E+03   -0.27775E+00   -0.34790E+00 13932   0.301E+00    0.569E+00
DAV:   3    -0.789979592787E+03    0.55880E-01   -0.96926E-01 14988   0.119E+00    0.276E+00
DAV:   4    -0.789948912048E+03    0.30681E-01   -0.11347E-01 14196   0.697E-01    0.169E+00
DAV:   5    -0.789967546091E+03   -0.18634E-01   -0.51467E-02 13224   0.360E-01    0.239E+00
DAV:   6    -0.789966817256E+03    0.72883E-03   -0.57961E-03 12156   0.162E-01    0.241E+00
DAV:   7    -0.789963073780E+03    0.37435E-02   -0.44706E-04 13620   0.510E-02    0.242E+00
DAV:   8    -0.789968105800E+03   -0.50320E-02   -0.23448E-01 16728   0.889E-01    0.230E+00
DAV:   9    -0.789958534972E+03    0.95708E-02   -0.52946E-02 12636   0.380E-01    0.998E-01
DAV:  10    -0.789960859149E+03   -0.23242E-02   -0.56486E-03 13620   0.165E-01    0.947E-01
DAV:  11    -0.789966764024E+03   -0.59049E-02   -0.81050E-03 14472   0.193E-01    0.622E-01
DAV:  12    -0.789968352626E+03   -0.15886E-02   -0.90859E-03 14172   0.188E-01    0.354E-01
DAV:  13    -0.789968359470E+03   -0.68444E-05   -0.35734E-03 13488   0.853E-02    0.292E-01
DAV:  14    -0.789968239050E+03    0.12042E-03   -0.23118E-03 14748   0.495E-02    0.219E-01
DAV:  15    -0.789968247869E+03   -0.88191E-05   -0.68710E-04 12588   0.356E-02    0.121E-01
DAV:  16    -0.789968237733E+03    0.10136E-04   -0.24822E-04 13932   0.266E-02    0.530E-02
DAV:  17    -0.789968254942E+03   -0.17208E-04   -0.38917E-05 11904   0.120E-02    0.416E-02
DAV:  18    -0.789968251689E+03    0.32531E-05   -0.21112E-05  7836   0.636E-03
  44 F= -.78996825E+03 E0= -.78995463E+03  d E =-.251903E-01  mag=     1.9951
       N       E                     dE             d eps       ncg     rms          rms(c)
DAV:   1    -0.789984527242E+03   -0.16272E-01   -0.44604E+00 11532   0.392E+00    0.230E+00
DAV:   2    -0.790027613178E+03   -0.43086E-01   -0.10103E+00 16500   0.162E+00    0.491E+00
DAV:   3    -0.789981219938E+03    0.46393E-01   -0.24444E-01 16548   0.967E-01    0.141E+00
DAV:   4    -0.789985070787E+03   -0.38508E-02   -0.14378E-01 14004   0.481E-01    0.142E+00
DAV:   5    -0.789986521141E+03   -0.14504E-02   -0.29054E-02 13788   0.293E-01    0.117E+00
DAV:   6    -0.789983703237E+03    0.28179E-02   -0.67437E-02 15468   0.247E-01    0.815E-01
DAV:   7    -0.789983242609E+03    0.46063E-03   -0.76072E-03 13128   0.149E-01    0.293E-01
DAV:   8    -0.789983147263E+03    0.95346E-04   -0.18070E-03 14484   0.744E-02    0.134E-01
DAV:   9    -0.789983366593E+03   -0.21933E-03   -0.21716E-03 14196   0.505E-02    0.269E-01
DAV:  10    -0.789983154115E+03    0.21248E-03   -0.11544E-03 14172   0.424E-02    0.444E-02
DAV:  11    -0.789983202594E+03   -0.48479E-04   -0.10293E-04 12372   0.158E-02    0.320E-02
DAV:  12    -0.789983202367E+03    0.22706E-06   -0.45620E-05  9252   0.933E-03
  45 F= -.78998320E+03 E0= -.78996951E+03  d E =-.149507E-01  mag=     1.9999
       N       E                     dE             d eps       ncg     rms          rms(c)
DAV:   1    -0.789974556511E+03    0.86461E-02   -0.10409E+01 11520   0.591E+00    0.104E+00
DAV:   2    -0.790000487913E+03   -0.25931E-01   -0.28646E-01 13980   0.921E-01    0.196E+00
DAV:   3    -0.789992616401E+03    0.78715E-02   -0.48209E-02 15576   0.390E-01    0.593E-01
DAV:   4    -0.789994180175E+03   -0.15638E-02   -0.14843E-02 13980   0.215E-01    0.691E-01
DAV:   5    -0.789993038429E+03    0.11417E-02   -0.63761E-03 15480   0.143E-01    0.225E-01
DAV:   6    -0.789993181909E+03   -0.14348E-03   -0.32344E-03 14052   0.971E-02    0.300E-01
DAV:   7    -0.789992974051E+03    0.20786E-03   -0.15194E-03 14472   0.710E-02    0.171E-01
DAV:   8    -0.789993055705E+03   -0.81654E-04   -0.20218E-03 14244   0.433E-02    0.231E-01
DAV:   9    -0.789992961861E+03    0.93845E-04   -0.11033E-03 13032   0.370E-02    0.788E-02
DAV:  10    -0.789992991973E+03   -0.30112E-04   -0.20044E-04 12060   0.171E-02    0.475E-02
DAV:  11    -0.789992988138E+03    0.38345E-05   -0.50020E-05  8628   0.107E-02
  46 F= -.78999299E+03 E0= -.78997918E+03  d E =-.978577E-02  mag=     2.0000
       N       E                     dE             d eps       ncg     rms          rms(c)
DAV:   1    -0.789994367702E+03   -0.13757E-02   -0.20549E+00 11520   0.263E+00    0.179E+00
DAV:   2    -0.790037838734E+03   -0.43471E-01   -0.74491E-01 17256   0.128E+00    0.459E+00
DAV:   3    -0.789989823255E+03    0.48015E-01   -0.91795E-02 17256   0.803E-01    0.156E+00
DAV:   4    -0.789988611220E+03    0.12120E-02   -0.50816E-02 14004   0.341E-01    0.229E-01
DAV:   5    -0.789992617699E+03   -0.40065E-02   -0.79886E-03 13092   0.163E-01    0.409E-01
DAV:   6    -0.789992882643E+03   -0.26494E-03   -0.58491E-03 15516   0.951E-02    0.586E-01
DAV:   7    -0.789992142782E+03    0.73986E-03   -0.10625E-02 14796   0.894E-02    0.307E-01
DAV:   8    -0.789992335240E+03   -0.19246E-03   -0.14831E-03 12612   0.563E-02    0.154E-01
DAV:   9    -0.789992287421E+03    0.47818E-04   -0.10177E-03 14748   0.356E-02    0.855E-02
DAV:  10    -0.789992320128E+03   -0.32707E-04   -0.18074E-04 12996   0.214E-02    0.103E-01
DAV:  11    -0.789992287421E+03    0.32707E-04   -0.18604E-04 10776   0.159E-02    0.165E-02
DAV:  12    -0.789992296780E+03   -0.93590E-05   -0.10750E-05  8184   0.667E-03
  47 F= -.78999230E+03 E0= -.78997839E+03  d E =0.691358E-03  mag=     2.0000
       N       E                     dE             d eps       ncg     rms          rms(c)
DAV:   1    -0.789994541665E+03   -0.22542E-02   -0.22474E-01 11520   0.875E-01    0.461E-01
DAV:   2    -0.789998084543E+03   -0.35429E-02   -0.57620E-02 16284   0.306E-01    0.158E+00
DAV:   3    -0.789993181142E+03    0.49034E-02   -0.31573E-02 16368   0.227E-01    0.179E-01
DAV:   4    -0.789994772805E+03   -0.15917E-02   -0.42132E-03 13308   0.990E-02    0.326E-01
DAV:   5    -0.789994685525E+03    0.87280E-04   -0.87141E-04 13524   0.587E-02    0.135E-01
DAV:   6    -0.789994709628E+03   -0.24102E-04   -0.14202E-03 13872   0.347E-02    0.165E-01
DAV:   7    -0.789994682105E+03    0.27523E-04   -0.52966E-04 13068   0.293E-02    0.937E-02
DAV:   8    -0.789994678018E+03    0.40867E-05   -0.31321E-04 12348   0.160E-02    0.633E-02
DAV:   9    -0.789994681005E+03   -0.29868E-05   -0.24853E-05  8700   0.101E-02
  48 F= -.78999468E+03 E0= -.78998081E+03  d E =-.238422E-02  mag=     2.0000
       N       E                     dE             d eps       ncg     rms          rms(c)
DAV:   1    -0.789995268810E+03   -0.59079E-03   -0.80432E-02 11520   0.525E-01    0.159E-01
DAV:   2    -0.789995780596E+03   -0.51179E-03   -0.66140E-03 15132   0.120E-01    0.559E-01
DAV:   3    -0.789995172270E+03    0.60833E-03   -0.29962E-03 15612   0.773E-02    0.424E-02
DAV:   4    -0.789995400029E+03   -0.22776E-03   -0.44567E-04 12840   0.278E-02    0.123E-01
DAV:   5    -0.789995392731E+03    0.72980E-05   -0.64529E-04 11664   0.230E-02    0.989E-02
DAV:   6    -0.789995380692E+03    0.12039E-04   -0.99440E-05  9960   0.143E-02    0.213E-02
DAV:   7    -0.789995385152E+03   -0.44598E-05   -0.93999E-06  8088   0.610E-03
  49 F= -.78999539E+03 E0= -.78998151E+03  d E =-.704147E-03  mag=     2.0000
       N       E                     dE             d eps       ncg     rms          rms(c)
DAV:   1    -0.789996065685E+03   -0.68499E-03   -0.39578E+00 11520   0.368E+00    0.177E+00
DAV:   2    -0.790054827850E+03   -0.58762E-01   -0.95008E-01 16860   0.141E+00    0.507E+00
DAV:   3    -0.789994753195E+03    0.60075E-01   -0.13344E-01 16800   0.844E-01    0.182E+00
DAV:   4    -0.789992791752E+03    0.19614E-02   -0.79090E-02 13956   0.339E-01    0.410E-01
DAV:   5    -0.789997782508E+03   -0.49908E-02   -0.75625E-03 12312   0.180E-01    0.305E-01
DAV:   6    -0.789997673178E+03    0.10933E-03   -0.20942E-03 14148   0.681E-02    0.171E-01
DAV:   7    -0.789997686647E+03   -0.13468E-04   -0.42012E-04 13800   0.389E-02    0.175E-01
DAV:   8    -0.789997753843E+03   -0.67196E-04   -0.28934E-03 16104   0.463E-02    0.293E-01
DAV:   9    -0.789997577101E+03    0.17674E-03   -0.11485E-03 13644   0.390E-02    0.604E-02
DAV:  10    -0.789997631078E+03   -0.53977E-04   -0.58378E-05 12252   0.140E-02    0.687E-02
DAV:  11    -0.789997624393E+03    0.66854E-05   -0.91218E-05  9156   0.996E-03
  50 F= -.78999762E+03 E0= -.78998378E+03  d E =-.223924E-02  mag=     2.0000
       N       E                     dE             d eps       ncg     rms          rms(c)
DAV:   1    -0.789991761971E+03    0.58691E-02   -0.71630E+00 11520   0.497E+00    0.209E+00
DAV:   2    -0.790050397060E+03   -0.58635E-01   -0.12681E+00 16668   0.169E+00    0.509E+00
DAV:   3    -0.789996546923E+03    0.53850E-01   -0.17070E-01 16812   0.930E-01    0.194E+00
DAV:   4    -0.789991875862E+03    0.46711E-02   -0.59932E-02 14076   0.374E-01    0.645E-01
DAV:   5    -0.789995568501E+03   -0.36926E-02   -0.19541E-02 13764   0.216E-01    0.392E-01
DAV:   6    -0.789996187807E+03   -0.61931E-03   -0.32314E-03 13584   0.117E-01    0.286E-01
DAV:   7    -0.789996693718E+03   -0.50591E-03   -0.11821E-02 15348   0.914E-02    0.583E-01
DAV:   8    -0.789995862001E+03    0.83172E-03   -0.97227E-03 15492   0.957E-02    0.264E-01
DAV:   9    -0.789996053277E+03   -0.19128E-03   -0.24753E-03 13416   0.508E-02    0.197E-01
DAV:  10    -0.789996006137E+03    0.47140E-04   -0.40368E-04 12672   0.288E-02    0.987E-02
DAV:  11    -0.789995998423E+03    0.77137E-05   -0.23244E-04 12540   0.168E-02    0.377E-02
DAV:  12    -0.789996008583E+03   -0.10160E-04   -0.28243E-05  9348   0.983E-03    0.814E-03
DAV:  13    -0.789996009316E+03   -0.73232E-06   -0.22665E-06  6444   0.399E-03
  51 F= -.78999601E+03 E0= -.78998238E+03  d E =0.161508E-02  mag=     2.0000
       N       E                     dE             d eps       ncg     rms          rms(c)
DAV:   1    -0.789997282532E+03   -0.12739E-02   -0.41680E+00 11520   0.378E+00    0.149E+00
DAV:   2    -0.790037066971E+03   -0.39784E-01   -0.74660E-01 16344   0.119E+00    0.417E+00
DAV:   3    -0.789996721296E+03    0.40346E-01   -0.10695E-01 16344   0.710E-01    0.128E+00
DAV:   4    -0.790000627868E+03   -0.39066E-02   -0.11861E-01 14076   0.334E-01    0.114E+00
DAV:   5    -0.790000775401E+03   -0.14753E-03   -0.48601E-02 12936   0.238E-01    0.735E-01
DAV:   6    -0.790000157624E+03    0.61778E-03   -0.64349E-03 12744   0.103E-01    0.168E-01
DAV:   7    -0.790000433889E+03   -0.27626E-03   -0.71393E-04 13740   0.575E-02    0.115E-01
DAV:   8    -0.790000435008E+03   -0.11189E-05   -0.24369E-04 14088   0.372E-02    0.408E-02
DAV:   9    -0.790000454021E+03   -0.19013E-04   -0.20647E-04 14160   0.204E-02    0.748E-02
DAV:  10    -0.790000448517E+03    0.55033E-05   -0.18350E-04 11208   0.186E-02    0.725E-02
DAV:  11    -0.790000441278E+03    0.72395E-05   -0.15013E-04 10128   0.130E-02    0.429E-02
DAV:  12    -0.790000440429E+03    0.84919E-06   -0.34504E-05  8064   0.779E-03
  52 F= -.79000044E+03 E0= -.78998668E+03  d E =-.443111E-02  mag=     2.0000
       N       E                     dE             d eps       ncg     rms          rms(c)
DAV:   1    -0.790000202087E+03    0.23919E-03   -0.82563E-01 11520   0.167E+00    0.103E+00
DAV:   2    -0.790016888137E+03   -0.16686E-01   -0.32721E-01 16884   0.775E-01    0.342E+00
DAV:   3    -0.789994075089E+03    0.22813E-01   -0.11602E-01 16824   0.542E-01    0.438E-01
DAV:   4    -0.789999046322E+03   -0.49712E-02   -0.17608E-02 13464   0.180E-01    0.426E-01
DAV:   5    -0.789999669126E+03   -0.62280E-03   -0.21304E-03 13032   0.915E-02    0.297E-01
DAV:   6    -0.789999550613E+03    0.11851E-03   -0.55741E-03 13752   0.649E-02    0.284E-01
DAV:   7    -0.789999466359E+03    0.84254E-04   -0.58282E-04 13188   0.463E-02    0.127E-01
DAV:   8    -0.789999458685E+03    0.76741E-05   -0.53175E-04 13956   0.281E-02    0.652E-02
DAV:   9    -0.789999483126E+03   -0.24441E-04   -0.13245E-04 12936   0.199E-02    0.558E-02
DAV:  10    -0.789999474262E+03    0.88639E-05   -0.75737E-05  9372   0.114E-02
  53 F= -.78999947E+03 E0= -.78998562E+03  d E =0.966167E-03  mag=     2.0000
       N       E                     dE             d eps       ncg     rms          rms(c)
DAV:   1    -0.790001437973E+03   -0.19548E-02   -0.24798E-01 11520   0.909E-01    0.696E-01
DAV:   2    -0.790007682581E+03   -0.62446E-02   -0.12432E-01 16944   0.511E-01    0.199E+00
DAV:   3    -0.789999398148E+03    0.82844E-02   -0.34538E-02 16872   0.347E-01    0.446E-01
DAV:   4    -0.790000639108E+03   -0.12410E-02   -0.84894E-03 13920   0.124E-01    0.186E-01
DAV:   5    -0.790001121263E+03   -0.48216E-03   -0.16638E-03 13392   0.691E-02    0.237E-01
DAV:   6    -0.790000990106E+03    0.13116E-03   -0.79939E-04 13848   0.420E-02    0.542E-02
DAV:   7    -0.790001020544E+03   -0.30438E-04   -0.25085E-04 13620   0.214E-02    0.652E-02
DAV:   8    -0.790001029388E+03   -0.88446E-05   -0.22791E-04 11772   0.177E-02    0.941E-02
DAV:   9    -0.790001006602E+03    0.22786E-04   -0.25215E-04 10680   0.161E-02    0.392E-02
DAV:  10    -0.790001011598E+03   -0.49959E-05   -0.20615E-05  7884   0.838E-03
  54 F= -.79000101E+03 E0= -.78998720E+03  d E =-.153734E-02  mag=     2.0000
       N       E                     dE             d eps       ncg     rms          rms(c)
DAV:   1    -0.790001346717E+03   -0.34011E-03   -0.63980E-02 11520   0.468E-01    0.272E-01
DAV:   2    -0.790003314319E+03   -0.19676E-02   -0.26180E-02 17232   0.214E-01    0.121E+00
DAV:   3    -0.790000316727E+03    0.29976E-02   -0.11901E-02 16404   0.163E-01    0.167E-01
DAV:   4    -0.790001213866E+03   -0.89714E-03   -0.99068E-04 12588   0.503E-02    0.360E-02
DAV:   5    -0.790001327616E+03   -0.11375E-03   -0.65757E-05 13548   0.203E-02    0.245E-02
DAV:   6    -0.790001332357E+03   -0.47416E-05   -0.18297E-05  8796   0.893E-03
  55 F= -.79000133E+03 E0= -.78998756E+03  d E =-.320759E-03  mag=     2.0000
       N       E                     dE             d eps       ncg     rms          rms(c)
DAV:   1    -0.790001650516E+03   -0.32290E-03   -0.59357E-01 11520   0.143E+00    0.325E-01
DAV:   2    -0.790004731314E+03   -0.30808E-02   -0.39330E-02 14160   0.295E-01    0.125E+00
DAV:   3    -0.790001613780E+03    0.31175E-02   -0.14134E-02 14820   0.174E-01    0.154E-01
DAV:   4    -0.790002613275E+03   -0.99949E-03   -0.27557E-03 12936   0.664E-02    0.256E-01
DAV:   5    -0.790002598346E+03    0.14929E-04   -0.50842E-04 12600   0.425E-02    0.101E-01
DAV:   6    -0.790002660485E+03   -0.62139E-04   -0.13635E-03 13572   0.284E-02    0.215E-01
DAV:   7    -0.790002563196E+03    0.97289E-04   -0.78184E-04 12876   0.325E-02    0.502E-02
DAV:   8    -0.790002599709E+03   -0.36513E-04   -0.17242E-04 12396   0.155E-02    0.677E-02
DAV:   9    -0.790002588945E+03    0.10764E-04   -0.82074E-05  8244   0.989E-03    0.107E-02
DAV:  10    -0.790002592811E+03   -0.38661E-05   -0.43366E-06  6876   0.423E-03
  56 F= -.79000259E+03 E0= -.78998885E+03  d E =-.126045E-02  mag=     2.0000
       N       E                     dE             d eps       ncg     rms          rms(c)
DAV:   1    -0.789995351492E+03    0.72375E-02   -0.63715E+00 11520   0.466E+00    0.116E+00
DAV:   2    -0.790024977662E+03   -0.29626E-01   -0.45713E-01 15324   0.106E+00    0.338E+00
DAV:   3    -0.790001805473E+03    0.23172E-01   -0.91038E-02 15900   0.576E-01    0.102E+00
DAV:   4    -0.790004403436E+03   -0.25980E-02   -0.22064E-02 13824   0.225E-01    0.355E-01
DAV:   5    -0.790005264930E+03   -0.86149E-03   -0.50900E-03 13752   0.124E-01    0.255E-01
DAV:   6    -0.790005232095E+03    0.32835E-04   -0.16650E-03 14604   0.796E-02    0.141E-01
DAV:   7    -0.790005519377E+03   -0.28728E-03   -0.34637E-03 14016   0.585E-02    0.379E-01
DAV:   8    -0.790005132800E+03    0.38658E-03   -0.56204E-03 15900   0.710E-02    0.206E-01
DAV:   9    -0.790005195607E+03   -0.62807E-04   -0.11149E-03 12780   0.371E-02    0.120E-01
DAV:  10    -0.790005187554E+03    0.80538E-05   -0.30912E-04 12540   0.202E-02    0.629E-02
DAV:  11    -0.790005190225E+03   -0.26719E-05   -0.12956E-04 11100   0.141E-02    0.496E-02
DAV:  12    -0.790005186840E+03    0.33853E-05   -0.42074E-05  8136   0.845E-03
  57 F= -.79000519E+03 E0= -.78999165E+03  d E =-.259403E-02  mag=     2.0000
       N       E                     dE             d eps       ncg     rms          rms(c)
DAV:   1    -0.790002133149E+03    0.30571E-02   -0.21600E+00 11520   0.273E+00    0.854E-01
DAV:   2    -0.790016396159E+03   -0.14263E-01   -0.24668E-01 15696   0.704E-01    0.279E+00
DAV:   3    -0.790001443345E+03    0.14953E-01   -0.85708E-02 16296   0.436E-01    0.397E-01
DAV:   4    -0.790004817152E+03   -0.33738E-02   -0.10852E-02 13488   0.159E-01    0.321E-01
DAV:   5    -0.790005029945E+03   -0.21279E-03   -0.14977E-03 12948   0.810E-02    0.129E-01
DAV:   6    -0.790005098126E+03   -0.68181E-04   -0.22897E-03 14184   0.499E-02    0.243E-01
DAV:   7    -0.790004966613E+03    0.13151E-03   -0.84948E-04 14436   0.426E-02    0.107E-01
DAV:   8    -0.790005024149E+03   -0.57536E-04   -0.10151E-03 14208   0.273E-02    0.171E-01
DAV:   9    -0.790004965445E+03    0.58704E-04   -0.44174E-04 12096   0.245E-02    0.234E-02
DAV:  10    -0.790004988817E+03   -0.23372E-04   -0.41510E-05  9348   0.999E-03    0.366E-02
DAV:  11    -0.790004986498E+03    0.23183E-05   -0.36142E-05  7428   0.656E-03
  58 F= -.79000499E+03 E0= -.78999138E+03  d E =0.200342E-03  mag=     2.0000
       N       E                     dE             d eps       ncg     rms          rms(c)
DAV:   1    -0.789986483176E+03    0.18506E-01   -0.65268E+00 11520   0.473E+00    0.123E+00
DAV:   2    -0.790017604318E+03   -0.31121E-01   -0.49503E-01 15252   0.105E+00    0.356E+00
DAV:   3    -0.789991620298E+03    0.25984E-01   -0.11702E-01 15912   0.590E-01    0.574E-01
DAV:   4    -0.789997023147E+03   -0.54028E-02   -0.35002E-02 13740   0.248E-01    0.771E-01
DAV:   5    -0.789996620044E+03    0.40310E-03   -0.76037E-03 13416   0.154E-01    0.314E-01
DAV:   6    -0.789997327312E+03   -0.70727E-03   -0.15375E-02 14040   0.105E-01    0.648E-01
DAV:   7    -0.789996446479E+03    0.88083E-03   -0.25746E-03 13464   0.881E-02    0.307E-01
DAV:   8    -0.789996446018E+03    0.46097E-06   -0.41964E-03 14280   0.612E-02    0.199E-01
DAV:   9    -0.789996571029E+03   -0.12501E-03   -0.73963E-04 13104   0.462E-02    0.997E-02
DAV:  10    -0.789996554828E+03    0.16201E-04   -0.36114E-04 13584   0.224E-02    0.534E-02
DAV:  11    -0.789996558314E+03   -0.34858E-05   -0.10649E-04  9840   0.112E-02    0.376E-02
DAV:  12    -0.789996557971E+03    0.34288E-06   -0.52794E-05  7464   0.799E-03
  59 F= -.78999656E+03 E0= -.78998265E+03  d E =0.842853E-02  mag=     2.0000
       N       E                     dE             d eps       ncg     rms          rms(c)
DAV:   1    -0.789999436392E+03   -0.28781E-02   -0.35891E+00 11520   0.350E+00    0.122E+00
DAV:   2    -0.790026001426E+03   -0.26565E-01   -0.43112E-01 16176   0.996E-01    0.348E+00
DAV:   3    -0.790000522904E+03    0.25479E-01   -0.94117E-02 16488   0.594E-01    0.109E+00
DAV:   4    -0.790002836189E+03   -0.23133E-02   -0.24383E-02 13908   0.235E-01    0.377E-01
DAV:   5    -0.790004070356E+03   -0.12342E-02   -0.84351E-03 13896   0.140E-01    0.368E-01
DAV:   6    -0.790003946776E+03    0.12358E-03   -0.20589E-03 14400   0.900E-02    0.178E-01
DAV:   7    -0.790004194918E+03   -0.24814E-03   -0.49498E-03 14136   0.651E-02    0.366E-01
DAV:   8    -0.790003845311E+03    0.34961E-03   -0.40897E-03 14868   0.677E-02    0.160E-01
DAV:   9    -0.790003927004E+03   -0.81693E-04   -0.10009E-03 13056   0.335E-02    0.142E-01
DAV:  10    -0.790003901373E+03    0.25632E-04   -0.33014E-04 12396   0.214E-02    0.711E-02
DAV:  11    -0.790003898702E+03    0.26704E-05   -0.11368E-04 10764   0.136E-02    0.225E-02
DAV:  12    -0.790003902891E+03   -0.41891E-05   -0.13560E-05  7668   0.652E-03
  60 F= -.79000390E+03 E0= -.78999021E+03  d E =-.734492E-02  mag=     2.0000
       N       E                     dE             d eps       ncg     rms          rms(c)
DAV:   1    -0.789999877378E+03    0.40213E-02   -0.33690E+00 11520   0.341E+00    0.634E-01
DAV:   2    -0.790008260784E+03   -0.83834E-02   -0.10453E-01 14016   0.549E-01    0.125E+00
DAV:   3    -0.790005839939E+03    0.24208E-02   -0.23375E-02 15588   0.225E-01    0.345E-01
DAV:   4    -0.790006551103E+03   -0.71116E-03   -0.70342E-03 13308   0.128E-01    0.492E-01
DAV:   5    -0.790005990241E+03    0.56086E-03   -0.34146E-03 15000   0.895E-02    0.128E-01
DAV:   6    -0.790006288722E+03   -0.29848E-03   -0.33181E-03 13872   0.621E-02    0.347E-01
DAV:   7    -0.790005970225E+03    0.31850E-03   -0.36283E-03 14496   0.609E-02    0.137E-01
DAV:   8    -0.790006030367E+03   -0.60142E-04   -0.39883E-04 12540   0.293E-02    0.674E-02
DAV:   9    -0.790006031078E+03   -0.71157E-06   -0.21971E-04 11280   0.145E-02    0.625E-02
DAV:  10    -0.790006027720E+03    0.33587E-05   -0.11186E-04  9228   0.111E-02    0.383E-02
DAV:  11    -0.790006026959E+03    0.76096E-06   -0.26893E-05  7320   0.676E-03
  61 F= -.79000603E+03 E0= -.78999247E+03  d E =-.212407E-02  mag=     2.0000
       N       E                     dE             d eps       ncg     rms          rms(c)
DAV:   1    -0.790004423866E+03    0.16039E-02   -0.10869E+00 11520   0.194E+00    0.538E-01
DAV:   2    -0.790009090820E+03   -0.46670E-02   -0.65474E-02 15048   0.411E-01    0.140E+00
DAV:   3    -0.790005361336E+03    0.37295E-02   -0.18535E-02 15636   0.228E-01    0.209E-01
DAV:   4    -0.790006455077E+03   -0.10937E-02   -0.73339E-03 13308   0.110E-01    0.422E-01
DAV:   5    -0.790006160652E+03    0.29442E-03   -0.18984E-03 13632   0.731E-02    0.181E-01
DAV:   6    -0.790006270742E+03   -0.11009E-03   -0.31095E-03 14448   0.513E-02    0.273E-01
DAV:   7    -0.790006105675E+03    0.16507E-03   -0.11770E-03 13944   0.441E-02    0.409E-02
DAV:   8    -0.790006147088E+03   -0.41413E-04   -0.11726E-04 13152   0.154E-02    0.508E-02
DAV:   9    -0.790006146946E+03    0.14249E-06   -0.71801E-05  8460   0.101E-02
  62 F= -.79000615E+03 E0= -.78999251E+03  d E =-.119987E-03  mag=     2.0000
       N       E                     dE             d eps       ncg     rms          rms(c)
DAV:   1    -0.790005868550E+03    0.27854E-03   -0.68571E-02 11520   0.484E-01    0.260E-01
DAV:   2    -0.790007318828E+03   -0.14503E-02   -0.20119E-02 16248   0.178E-01    0.104E+00
DAV:   3    -0.790005192512E+03    0.21263E-02   -0.10655E-02 15924   0.134E-01    0.115E-01
DAV:   4    -0.790005937120E+03   -0.74461E-03   -0.17983E-03 13176   0.540E-02    0.210E-01
DAV:   5    -0.790005927433E+03    0.96865E-05   -0.40886E-04 12504   0.363E-02    0.834E-02
DAV:   6    -0.790005927383E+03    0.50226E-07   -0.31055E-04 13080   0.175E-02    0.697E-02
DAV:   7    -0.790005934304E+03   -0.69215E-05   -0.23080E-05  9540   0.119E-02
  63 F= -.79000593E+03 E0= -.78999228E+03  d E =0.212641E-03  mag=     2.0000
       N       E                     dE             d eps       ncg     rms          rms(c)
DAV:   1    -0.790006220057E+03   -0.29267E-03   -0.33300E-02 11520   0.338E-01    0.137E-01
DAV:   2    -0.790006622622E+03   -0.40256E-03   -0.50446E-03 15216   0.965E-02    0.502E-01
DAV:   3    -0.790006108913E+03    0.51371E-03   -0.23849E-03 15204   0.679E-02    0.635E-02
DAV:   4    -0.790006283755E+03   -0.17484E-03   -0.53287E-04 12816   0.302E-02    0.116E-01
DAV:   5    -0.790006276985E+03    0.67694E-05   -0.11118E-04 11868   0.199E-02    0.567E-02
DAV:   6    -0.790006276189E+03    0.79665E-06   -0.17468E-04 11244   0.117E-02    0.561E-02
DAV:   7    -0.790006275997E+03    0.19175E-06   -0.24287E-05  8400   0.903E-03
  64 F= -.79000628E+03 E0= -.78999265E+03  d E =-.341693E-03  mag=     2.0000
