       N       E                     dE             d eps       ncg     rms          rms(c)
DAV:   1     0.305577192101E+04    0.30558E+04   -0.25781E+05 11544   0.130E+03
DAV:   2    -0.605379908923E+03   -0.36612E+04   -0.35371E+04 14052   0.297E+02
DAV:   3    -0.863459335913E+03   -0.25808E+03   -0.25550E+03 13992   0.833E+01
DAV:   4    -0.866726799331E+03   -0.32675E+01   -0.32550E+01 14040   0.101E+01
DAV:   5    -0.866783548247E+03   -0.56749E-01   -0.56613E-01 14256   0.123E+00    0.985E+01
DAV:   6    -0.774829616403E+03    0.91954E+02   -0.38509E+02 13044   0.315E+01    0.514E+01
DAV:   7    -0.783008782609E+03   -0.81792E+01   -0.39361E+01 13992   0.111E+01    0.211E+01
DAV:   8    -0.788195169583E+03   -0.51864E+01   -0.46073E+01 15528   0.755E+00    0.139E+01
DAV:   9    -0.789198044306E+03   -0.10029E+01   -0.10561E+01 14892   0.532E+00    0.107E+01
DAV:  10    -0.789412459374E+03   -0.21442E+00   -0.10908E+01 15336   0.391E+00    0.713E+00
DAV:  11    -0.789651917999E+03   -0.23946E+00   -0.12550E+00 13824   0.271E+00    0.668E+00
DAV:  12    -0.789982523247E+03   -0.33061E+00   -0.10510E+00 14184   0.170E+00    0.364E+00
DAV:  13    -0.790208742272E+03   -0.22622E+00   -0.45102E-01 14268   0.170E+00    0.690E+00
DAV:  14    -0.790235567510E+03   -0.26825E-01   -0.32080E+00 15240   0.132E+00    0.577E+00
DAV:  15    -0.790226931795E+03    0.86357E-02   -0.66383E-01 14892   0.104E+00    0.373E+00
DAV:  16    -0.790228121727E+03   -0.11899E-02   -0.37322E-01 14844   0.832E-01    0.217E+00
DAV:  17    -0.790236485941E+03   -0.83642E-02   -0.43002E-02 13044   0.439E-01    0.107E+00
DAV:  18    -0.790249118283E+03   -0.12632E-01   -0.13170E-01 15360   0.357E-01    0.247E+00
DAV:  19    -0.790244309413E+03    0.48089E-02   -0.73807E-03 11952   0.204E-01    0.247E+00
DAV:  20    -0.790239732231E+03    0.45772E-02   -0.91365E-04 13260   0.415E-02    0.231E+00
DAV:  21    -0.790232671175E+03    0.70611E-02   -0.83437E-02 13368   0.263E-01    0.171E+00
DAV:  22    -0.790237433551E+03   -0.47624E-02   -0.96200E-03 12252   0.217E-01    0.126E+00
DAV:  23    -0.790243823108E+03   -0.63896E-02   -0.15045E-02 14388   0.221E-01    0.157E+00
DAV:  24    -0.790238275361E+03    0.55477E-02   -0.99547E-03 14124   0.198E-01    0.967E-01
DAV:  25    -0.790236162461E+03    0.21129E-02   -0.14480E-02 13680   0.167E-01    0.530E-01
DAV:  26    -0.790238654444E+03   -0.24920E-02   -0.44460E-03 12336   0.126E-01    0.461E-01
DAV:  27    -0.790239134271E+03   -0.47983E-03   -0.14218E-03 13200   0.721E-02    0.348E-01
DAV:  28    -0.790239400779E+03   -0.26651E-03   -0.76920E-04 13716   0.605E-02    0.259E-01
DAV:  29    -0.790239452589E+03   -0.51810E-04   -0.66684E-04 13152   0.479E-02    0.127E-01
DAV:  30    -0.790239467053E+03   -0.14464E-04   -0.14480E-04 13536   0.240E-02    0.700E-02
DAV:  31    -0.790239469768E+03   -0.27153E-05   -0.37216E-05 11964   0.130E-02
   1 F= -.79023947E+03 E0= -.79021453E+03  d E =-.790239E+03  mag=     1.6715
       N       E                     dE             d eps       ncg     rms          rms(c)
DAV:   1    -0.790240256703E+03   -0.78965E-03   -0.97320E-03 11808   0.172E-01    0.256E-01
DAV:   2    -0.790244336289E+03   -0.40796E-02   -0.15571E-02 17628   0.192E-01    0.138E+00
DAV:   3    -0.790239205825E+03    0.51305E-02   -0.14592E-02 16188   0.166E-01    0.375E-01
DAV:   4    -0.790240059586E+03   -0.85376E-03   -0.12838E-03 12156   0.643E-02    0.899E-02
DAV:   5    -0.790240149959E+03   -0.90373E-04   -0.22159E-04 14124   0.286E-02    0.770E-02
DAV:   6    -0.790240182424E+03   -0.32465E-04   -0.45721E-05 11112   0.135E-02    0.766E-02
DAV:   7    -0.790240146809E+03    0.35615E-04   -0.20225E-05  9660   0.103E-02    0.510E-02
DAV:   8    -0.790240130568E+03    0.16241E-04   -0.46968E-05 10572   0.105E-02    0.224E-02
DAV:   9    -0.790240145538E+03   -0.14970E-04   -0.14561E-05  8748   0.885E-03    0.164E-02
DAV:  10    -0.790240148357E+03   -0.28189E-05   -0.53346E-06  7860   0.580E-03
   2 F= -.79024015E+03 E0= -.79021499E+03  d E =-.678589E-03  mag=     1.6790
       N       E                     dE             d eps       ncg     rms          rms(c)
DAV:   1    -0.790241023008E+03   -0.87747E-03   -0.20437E-02 11808   0.251E-01    0.344E-01
DAV:   2    -0.790246235084E+03   -0.52121E-02   -0.27706E-02 17496   0.249E-01    0.159E+00
DAV:   3    -0.790240073455E+03    0.61616E-02   -0.21076E-02 16680   0.207E-01    0.513E-01
DAV:   4    -0.790240725737E+03   -0.65228E-03   -0.20315E-03 12252   0.817E-02    0.160E-01
DAV:   5    -0.790240953904E+03   -0.22817E-03   -0.28561E-04 14088   0.317E-02    0.169E-01
DAV:   6    -0.790240906405E+03    0.47499E-04   -0.26960E-05 10848   0.132E-02    0.157E-01
DAV:   7    -0.790240723264E+03    0.18314E-03   -0.18872E-04 12096   0.253E-02    0.665E-02
DAV:   8    -0.790240816001E+03   -0.92737E-04   -0.10910E-04 11400   0.231E-02    0.306E-02
DAV:   9    -0.790240837504E+03   -0.21503E-04   -0.31765E-05 10140   0.141E-02    0.385E-02
DAV:  10    -0.790240835373E+03    0.21314E-05   -0.14737E-05  8088   0.798E-03
   3 F= -.79024084E+03 E0= -.79021570E+03  d E =-.687015E-03  mag=     1.6822
       N       E                     dE             d eps       ncg     rms          rms(c)
DAV:   1    -0.790246562111E+03   -0.57246E-02   -0.85324E-01 11520   0.161E+00    0.176E+00
DAV:   2    -0.790325424119E+03   -0.78862E-01   -0.94000E-01 17520   0.125E+00    0.508E+00
DAV:   3    -0.790282010589E+03    0.43414E-01   -0.12315E+00 16716   0.856E-01    0.379E+00
DAV:   4    -0.790242075402E+03    0.39935E-01   -0.81203E-02 14448   0.613E-01    0.153E+00
DAV:   5    -0.790243257240E+03   -0.11818E-02   -0.18719E-02 13752   0.247E-01    0.103E+00
DAV:   6    -0.790244862947E+03   -0.16057E-02   -0.35031E-03 13692   0.943E-02    0.869E-01
DAV:   7    -0.790244165527E+03    0.69742E-03   -0.21681E-03 12036   0.750E-02    0.101E+00
DAV:   8    -0.790242536225E+03    0.16293E-02   -0.22483E-03 15048   0.111E-01    0.101E+00
DAV:   9    -0.790242681001E+03   -0.14478E-03   -0.16995E-02 14376   0.167E-01    0.916E-01
DAV:  10    -0.790243301299E+03   -0.62030E-03   -0.59168E-03 12540   0.181E-01    0.969E-01
DAV:  11    -0.790241334674E+03    0.19666E-02   -0.96627E-03 12360   0.135E-01    0.258E-01
DAV:  12    -0.790241520290E+03   -0.18562E-03   -0.91106E-04 12276   0.591E-02    0.744E-02
DAV:  13    -0.790241637009E+03   -0.11672E-03   -0.20919E-04 12288   0.274E-02    0.735E-02
DAV:  14    -0.790241683773E+03   -0.46764E-04   -0.48940E-05 11256   0.198E-02    0.291E-02
DAV:  15    -0.790241688433E+03   -0.46603E-05   -0.12481E-05  9504   0.650E-03
   4 F= -.79024169E+03 E0= -.79021668E+03  d E =-.853060E-03  mag=     1.7009
       N       E                     dE             d eps       ncg     rms          rms(c)
DAV:   1    -0.790252540948E+03   -0.10857E-01   -0.32932E+00 11520   0.316E+00    0.285E+00
DAV:   2    -0.790363461824E+03   -0.11092E+00   -0.23369E+00 17568   0.204E+00    0.617E+00
DAV:   3    -0.790314990692E+03    0.48471E-01   -0.17471E+00 16692   0.125E+00    0.455E+00
DAV:   4    -0.790245283641E+03    0.69707E-01   -0.95294E-02 14676   0.800E-01    0.251E+00
DAV:   5    -0.790240792184E+03    0.44915E-02   -0.39082E-02 13932   0.348E-01    0.178E+00
DAV:   6    -0.790240132995E+03    0.65919E-03   -0.14004E-02 14232   0.183E-01    0.125E+00
DAV:   7    -0.790241413392E+03   -0.12804E-02   -0.31841E-03 12696   0.993E-02    0.990E-01
DAV:   8    -0.790242348992E+03   -0.93560E-03   -0.15139E-02 16824   0.215E-01    0.851E-01
DAV:   9    -0.790241649447E+03    0.69954E-03   -0.97985E-03 13308   0.164E-01    0.489E-01
DAV:  10    -0.790242244349E+03   -0.59490E-03   -0.18668E-03 13884   0.995E-02    0.295E-01
DAV:  11    -0.790242239621E+03    0.47287E-05   -0.19983E-03 13944   0.771E-02    0.201E-01
DAV:  12    -0.790242355129E+03   -0.11551E-03   -0.14525E-03 12948   0.465E-02    0.207E-01
DAV:  13    -0.790242280883E+03    0.74247E-04   -0.67238E-04 12468   0.333E-02    0.797E-02
DAV:  14    -0.790242301982E+03   -0.21099E-04   -0.70892E-05 10776   0.144E-02    0.294E-02
DAV:  15    -0.790242307957E+03   -0.59754E-05   -0.10654E-05  8436   0.687E-03
   5 F= -.79024231E+03 E0= -.79021956E+03  d E =-.619524E-03  mag=     1.9948
       N       E                     dE             d eps       ncg     rms          rms(c)
DAV:   1    -0.790255906182E+03   -0.13604E-01   -0.27955E+00 11520   0.295E+00    0.313E+00
DAV:   2    -0.790341542014E+03   -0.85636E-01   -0.27358E+00 18216   0.218E+00    0.591E+00
DAV:   3    -0.790268436980E+03    0.73105E-01   -0.28318E-01 17244   0.117E+00    0.380E+00
DAV:   4    -0.790242169538E+03    0.26267E-01   -0.69723E-02 13776   0.445E-01    0.270E+00
DAV:   5    -0.790229516643E+03    0.12653E-01   -0.30382E-02 14604   0.353E-01    0.118E+00
DAV:   6    -0.790232021213E+03   -0.25046E-02   -0.26291E-02 13632   0.243E-01    0.412E-01
DAV:   7    -0.790233796440E+03   -0.17752E-02   -0.29904E-03 12936   0.143E-01    0.228E-01
DAV:   8    -0.790233751178E+03    0.45263E-04   -0.83989E-04 14544   0.661E-02    0.108E-01
DAV:   9    -0.790233869321E+03   -0.11814E-03   -0.82704E-04 14508   0.463E-02    0.279E-01
DAV:  10    -0.790233695428E+03    0.17389E-03   -0.77105E-04 14856   0.418E-02    0.116E-01
DAV:  11    -0.790233739516E+03   -0.44088E-04   -0.15783E-04 14064   0.303E-02    0.988E-02
DAV:  12    -0.790233721266E+03    0.18250E-04   -0.11812E-04 12984   0.168E-02    0.367E-02
DAV:  13    -0.790233725073E+03   -0.38074E-05   -0.21386E-05  8352   0.999E-03
   6 F= -.79023373E+03 E0= -.79021155E+03  d E =0.858288E-02  mag=     1.9991
       N       E                     dE             d eps       ncg     rms          rms(c)
DAV:   1    -0.789656714086E+03    0.57701E+00   -0.66548E+01 11532   0.141E+01    0.917E+00
DAV:   2    -0.789783034189E+03   -0.12632E+00   -0.10303E+01 16044   0.450E+00    0.717E+00
DAV:   3    -0.789732843447E+03    0.50191E-01   -0.37380E+00 15768   0.251E+00    0.551E+00
DAV:   4    -0.789640353167E+03    0.92490E-01   -0.23208E+00 15012   0.179E+00    0.382E+00
DAV:   5    -0.789595717050E+03    0.44636E-01   -0.19245E+00 15120   0.143E+00    0.330E+00
DAV:   6    -0.789606498506E+03   -0.10781E-01   -0.73578E-01 15204   0.115E+00    0.550E+00
DAV:   7    -0.789533609708E+03    0.72889E-01   -0.15734E+00 16320   0.924E-01    0.171E+00
DAV:   8    -0.789539360595E+03   -0.57509E-02   -0.73933E-02 12720   0.464E-01    0.153E+00
DAV:   9    -0.789534175821E+03    0.51848E-02   -0.38118E-02 13524   0.313E-01    0.159E+00
DAV:  10    -0.789531964794E+03    0.22110E-02   -0.41603E-03 13116   0.129E-01    0.143E+00
DAV:  11    -0.789528019758E+03    0.39450E-02   -0.78871E-03 13800   0.162E-01    0.905E-01
DAV:  12    -0.789526387383E+03    0.16324E-02   -0.17440E-02 14316   0.215E-01    0.541E-01
DAV:  13    -0.789528927677E+03   -0.25403E-02   -0.63424E-03 12132   0.108E-01    0.713E-01
DAV:  14    -0.789528979836E+03   -0.52159E-04   -0.52790E-04 12360   0.562E-02    0.658E-01
DAV:  15    -0.789528950379E+03    0.29457E-04   -0.30333E-03 15696   0.138E-01    0.326E-01
DAV:  16    -0.789529252226E+03   -0.30185E-03   -0.30170E-03 13572   0.986E-02    0.365E-01
DAV:  17    -0.789529306795E+03   -0.54569E-04   -0.73406E-04 14448   0.642E-02    0.193E-01
DAV:  18    -0.789529326426E+03   -0.19631E-04   -0.78057E-04 13908   0.572E-02    0.143E-01
DAV:  19    -0.789529312956E+03    0.13469E-04   -0.17996E-04 13404   0.293E-02    0.123E-01
DAV:  20    -0.789529328813E+03   -0.15857E-04   -0.22500E-04 14424   0.336E-02    0.555E-02
DAV:  21    -0.789529341059E+03   -0.12246E-04   -0.81807E-05 12828   0.160E-02    0.537E-02
DAV:  22    -0.789529336765E+03    0.42935E-05   -0.24186E-05  8256   0.898E-03
   7 F= -.78952934E+03 E0= -.78950713E+03  d E =0.704388E+00  mag=     1.9916
       N       E                     dE             d eps       ncg     rms          rms(c)
DAV:   1    -0.790406885630E+03   -0.87754E+00   -0.43012E+01 11736   0.101E+01    0.105E+01
DAV:   2    -0.792433203105E+03   -0.20263E+01   -0.55295E+01 17928   0.698E+00    0.105E+01
DAV:   3    -0.791514693385E+03    0.91851E+00   -0.20179E+01 16248   0.398E+00    0.843E+00
DAV:   4    -0.790910677044E+03    0.60402E+00   -0.56785E+00 14616   0.217E+00    0.734E+00
DAV:   5    -0.790618515523E+03    0.29216E+00   -0.25366E+00 14796   0.133E+00    0.597E+00
DAV:   6    -0.790518895547E+03    0.99620E-01   -0.96383E-01 13764   0.774E-01    0.498E+00
DAV:   7    -0.790398962584E+03    0.11993E+00   -0.40559E-01 17088   0.919E-01    0.414E+00
DAV:   8    -0.790315171074E+03    0.83792E-01   -0.64543E-01 16368   0.902E-01    0.422E+00
DAV:   9    -0.790189994414E+03    0.12518E+00   -0.88338E-01 14880   0.110E+00    0.285E+00
DAV:  10    -0.790216156042E+03   -0.26162E-01   -0.15920E-01 14616   0.997E-01    0.373E+00
DAV:  11    -0.790211232442E+03    0.49236E-02   -0.38683E-02 12744   0.372E-01    0.384E+00
DAV:  12    -0.790187476682E+03    0.23756E-01   -0.14944E-02 14136   0.275E-01    0.361E+00
DAV:  13    -0.790174038335E+03    0.13438E-01   -0.27619E-01 15672   0.588E-01    0.435E+00
DAV:  14    -0.790185531082E+03   -0.11493E-01   -0.79961E-02 14664   0.516E-01    0.378E+00
DAV:  15    -0.790184510241E+03    0.10208E-02   -0.64359E-03 12588   0.144E-01    0.375E+00
DAV:  16    -0.790188363322E+03   -0.38531E-02   -0.34564E-03 14424   0.130E-01    0.404E+00
DAV:  17    -0.790180563367E+03    0.78000E-02   -0.16183E-01 16644   0.567E-01    0.301E+00
DAV:  18    -0.790189352166E+03   -0.87888E-02   -0.20046E-02 14580   0.366E-01    0.253E+00
DAV:  19    -0.790188728720E+03    0.62345E-03   -0.56802E-02 15564   0.496E-01    0.236E+00
DAV:  20    -0.790192152940E+03   -0.34242E-02   -0.71090E-02 15036   0.473E-01    0.232E+00
DAV:  21    -0.790307101446E+03   -0.11495E+00   -0.85255E-02 15276   0.736E-01    0.634E+00
DAV:  22    -0.790264325208E+03    0.42776E-01   -0.52264E-01 14256   0.622E-01    0.547E+00
DAV:  23    -0.790247861584E+03    0.16464E-01   -0.49050E-02 14424   0.563E-01    0.436E+00
DAV:  24    -0.790202986272E+03    0.44875E-01   -0.65188E-02 14208   0.465E-01    0.249E+00
DAV:  25    -0.790212729116E+03   -0.97428E-02   -0.92759E-03 12408   0.206E-01    0.256E+00
DAV:  26    -0.790212270068E+03    0.45905E-03   -0.14420E-03 12672   0.747E-02    0.254E+00
DAV:  27    -0.790213765957E+03   -0.14959E-02   -0.83081E-03 13908   0.179E-01    0.263E+00
DAV:  28    -0.790204770234E+03    0.89957E-02   -0.50027E-02 15060   0.358E-01    0.257E+00
DAV:  29    -0.790201260493E+03    0.35097E-02   -0.87689E-03 12876   0.201E-01    0.226E+00
DAV:  30    -0.790199994777E+03    0.12657E-02   -0.84341E-03 15636   0.142E-01    0.191E+00
DAV:  31    -0.790199782440E+03    0.21234E-03   -0.27563E-03 13356   0.126E-01    0.166E+00
DAV:  32    -0.790198292462E+03    0.14900E-02   -0.38772E-03 15096   0.140E-01    0.115E+00
DAV:  33    -0.790197862384E+03    0.43008E-03   -0.27133E-03 13788   0.118E-01    0.849E-01
DAV:  34    -0.790196629067E+03    0.12333E-02   -0.18436E-03 15012   0.111E-01    0.544E-01
DAV:  35    -0.790196639725E+03   -0.10658E-04   -0.36402E-03 13572   0.988E-02    0.744E-01
DAV:  36    -0.790196687363E+03   -0.47638E-04   -0.74322E-04 13176   0.589E-02    0.883E-01
DAV:  37    -0.790197427521E+03   -0.74016E-03   -0.62741E-04 14136   0.549E-02    0.142E+00
DAV:  38    -0.790196249442E+03    0.11781E-02   -0.29113E-04 12228   0.413E-02    0.152E+00
DAV:  39    -0.790195527731E+03    0.72171E-03   -0.48852E-05 13128   0.163E-02    0.150E+00
DAV:  40    -0.790195506348E+03    0.21382E-04   -0.19931E-06  8172   0.317E-03    0.149E+00
DAV:  41    -0.790195924107E+03   -0.41776E-03   -0.10008E-04 14364   0.243E-02    0.131E+00
DAV:  42    -0.790198365303E+03   -0.24412E-02   -0.52570E-04 15492   0.662E-02    0.111E+00
DAV:  43    -0.790202537216E+03   -0.41719E-02   -0.28051E-03 15396   0.150E-01    0.851E-01
DAV:  44    -0.790203445384E+03   -0.90817E-03   -0.18088E-03 12960   0.746E-02    0.529E-01
DAV:  45    -0.790204822080E+03   -0.13767E-02   -0.54341E-04 15984   0.602E-02    0.606E-01
DAV:  46    -0.790205382939E+03   -0.56086E-03   -0.98080E-04 14316   0.735E-02    0.603E-01
DAV:  47    -0.790205020085E+03    0.36285E-03   -0.95887E-04 14376   0.664E-02    0.279E-01
DAV:  48    -0.790205263585E+03   -0.24350E-03   -0.30327E-04 12144   0.338E-02    0.236E-01
DAV:  49    -0.790205314529E+03   -0.50944E-04   -0.28127E-05 10836   0.114E-02    0.231E-01
DAV:  50    -0.790205317956E+03   -0.34272E-05   -0.72953E-05 13884   0.190E-02
   8 F= -.79020532E+03 E0= -.79018076E+03  d E =-.675981E+00  mag=     1.7033
       N       E                     dE             d eps       ncg     rms          rms(c)
DAV:   1    -0.790230362273E+03   -0.25048E-01   -0.10899E+00 11520   0.183E+00    0.199E+00
DAV:   2    -0.790282573420E+03   -0.52211E-01   -0.10723E+00 17256   0.137E+00    0.443E+00
DAV:   3    -0.790234135862E+03    0.48438E-01   -0.17223E-01 16476   0.872E-01    0.235E+00
DAV:   4    -0.790226328252E+03    0.78076E-02   -0.34150E-02 13164   0.321E-01    0.139E+00
DAV:   5    -0.790224023810E+03    0.23044E-02   -0.20627E-02 14604   0.258E-01    0.525E-01
DAV:   6    -0.790227633405E+03   -0.36096E-02   -0.17682E-02 13740   0.197E-01    0.108E+00
DAV:   7    -0.790226372561E+03    0.12608E-02   -0.20757E-03 12876   0.136E-01    0.846E-01
DAV:   8    -0.790225037462E+03    0.13351E-02   -0.10437E-02 15252   0.119E-01    0.259E-01
DAV:   9    -0.790225835017E+03   -0.79756E-03   -0.14135E-03 12456   0.736E-02    0.381E-01
DAV:  10    -0.790225487990E+03    0.34703E-03   -0.59991E-04 13788   0.425E-02    0.158E-01
DAV:  11    -0.790225515551E+03   -0.27561E-04   -0.65434E-04 13224   0.285E-02    0.106E-01
DAV:  12    -0.790225532578E+03   -0.17027E-04   -0.12110E-04 11976   0.202E-02    0.467E-02
DAV:  13    -0.790225533572E+03   -0.99397E-06   -0.50593E-05  8712   0.969E-03
   9 F= -.79022553E+03 E0= -.79020148E+03  d E =-.202156E-01  mag=     1.7222
       N       E                     dE             d eps       ncg     rms          rms(c)
DAV:   1    -0.790233534593E+03   -0.80020E-02   -0.84450E-01 11520   0.166E+00    0.991E-01
DAV:   2    -0.790249695620E+03   -0.16161E-01   -0.25731E-01 15816   0.654E-01    0.311E+00
DAV:   3    -0.790229797773E+03    0.19898E-01   -0.14001E-01 15120   0.466E-01    0.602E-01
DAV:   4    -0.790233649486E+03   -0.38517E-02   -0.18215E-02 12372   0.212E-01    0.571E-01
DAV:   5    -0.790233451107E+03    0.19838E-03   -0.25786E-03 13704   0.105E-01    0.270E-01
DAV:   6    -0.790233373131E+03    0.77977E-04   -0.11966E-03 13800   0.615E-02    0.158E-01
DAV:   7    -0.790233513610E+03   -0.14048E-03   -0.74320E-04 13908   0.418E-02    0.238E-01
DAV:   8    -0.790233394099E+03    0.11951E-03   -0.20046E-04 13968   0.311E-02    0.142E-01
DAV:   9    -0.790233396997E+03   -0.28977E-05   -0.72053E-04 14616   0.259E-02    0.137E-01
DAV:  10    -0.790233406056E+03   -0.90592E-05   -0.27829E-04 12480   0.216E-02    0.112E-01
DAV:  11    -0.790233382585E+03    0.23471E-04   -0.12904E-04 10668   0.158E-02    0.434E-02
DAV:  12    -0.790233386805E+03   -0.42198E-05   -0.24511E-05  8232   0.827E-03
  10 F= -.79023339E+03 E0= -.79020925E+03  d E =-.785323E-02  mag=     1.7371
       N       E                     dE             d eps       ncg     rms          rms(c)
DAV:   1    -0.790239419481E+03   -0.60369E-02   -0.55025E-01 11520   0.130E+00    0.734E-01
DAV:   2    -0.790253293279E+03   -0.13874E-01   -0.14869E-01 16116   0.495E-01    0.295E+00
DAV:   3    -0.790236275545E+03    0.17018E-01   -0.71718E-02 16224   0.364E-01    0.332E-01
DAV:   4    -0.790239817398E+03   -0.35419E-02   -0.10729E-02 13212   0.151E-01    0.569E-01
DAV:   5    -0.790239761626E+03    0.55772E-04   -0.13602E-03 12984   0.944E-02    0.352E-01
DAV:   6    -0.790239506944E+03    0.25468E-03   -0.16907E-03 13608   0.508E-02    0.113E-01
DAV:   7    -0.790239649817E+03   -0.14287E-03   -0.36048E-04 12744   0.315E-02    0.179E-01
DAV:   8    -0.790239570423E+03    0.79394E-04   -0.25961E-04 13392   0.252E-02    0.465E-02
DAV:   9    -0.790239589107E+03   -0.18684E-04   -0.85318E-05 12492   0.153E-02    0.536E-02
DAV:  10    -0.790239586539E+03    0.25675E-05   -0.24603E-05  8460   0.101E-02
  11 F= -.79023959E+03 E0= -.79021556E+03  d E =-.619973E-02  mag=     1.7464
       N       E                     dE             d eps       ncg     rms          rms(c)
DAV:   1    -0.790242354600E+03   -0.27655E-02   -0.57479E-01 11520   0.132E+00    0.874E-01
DAV:   2    -0.790262390236E+03   -0.20036E-01   -0.23573E-01 16596   0.607E-01    0.348E+00
DAV:   3    -0.790237943779E+03    0.24446E-01   -0.97711E-02 16212   0.442E-01    0.519E-01
DAV:   4    -0.790241748183E+03   -0.38044E-02   -0.11977E-02 13164   0.178E-01    0.400E-01
DAV:   5    -0.790242456738E+03   -0.70855E-03   -0.20784E-03 12732   0.945E-02    0.406E-01
DAV:   6    -0.790242066635E+03    0.39010E-03   -0.22115E-03 13044   0.583E-02    0.138E-01
DAV:   7    -0.790242160931E+03   -0.94296E-04   -0.48460E-04 12540   0.349E-02    0.145E-01
DAV:   8    -0.790242139536E+03    0.21395E-04   -0.11618E-04 13368   0.231E-02    0.975E-02
DAV:   9    -0.790242119975E+03    0.19562E-04   -0.77471E-05 11832   0.166E-02    0.358E-02
DAV:  10    -0.790242133173E+03   -0.13199E-04   -0.72017E-05  9996   0.118E-02    0.642E-02
DAV:  11    -0.790242127646E+03    0.55278E-05   -0.14986E-05  7824   0.871E-03
  12 F= -.79024213E+03 E0= -.79021813E+03  d E =-.254111E-02  mag=     1.7616
       N       E                     dE             d eps       ncg     rms          rms(c)
DAV:   1    -0.790240802994E+03    0.13302E-02   -0.11220E+00 11520   0.187E+00    0.553E-01
DAV:   2    -0.790248435739E+03   -0.76327E-02   -0.67697E-02 14280   0.400E-01    0.197E+00
DAV:   3    -0.790240599881E+03    0.78359E-02   -0.22588E-02 15000   0.255E-01    0.327E-01
DAV:   4    -0.790242430590E+03   -0.18307E-02   -0.72935E-03 13428   0.138E-01    0.471E-01
DAV:   5    -0.790242269455E+03    0.16114E-03   -0.19322E-03 13104   0.840E-02    0.300E-01
DAV:   6    -0.790242154349E+03    0.11511E-03   -0.24827E-03 13656   0.547E-02    0.190E-01
DAV:   7    -0.790242250592E+03   -0.96243E-04   -0.32994E-04 12420   0.368E-02    0.217E-01
DAV:   8    -0.790242195567E+03    0.55025E-04   -0.29686E-04 14196   0.287E-02    0.143E-01
DAV:   9    -0.790242227494E+03   -0.31926E-04   -0.79566E-05 12432   0.156E-02    0.118E-01
DAV:  10    -0.790242229310E+03   -0.18167E-05   -0.76188E-06  8148   0.632E-03
  13 F= -.79024223E+03 E0= -.79021870E+03  d E =-.101665E-03  mag=     1.7927
       N       E                     dE             d eps       ncg     rms          rms(c)
DAV:   1    -0.790242478796E+03   -0.25130E-03   -0.93569E-01 11520   0.172E+00    0.110E+00
DAV:   2    -0.790287322244E+03   -0.44843E-01   -0.44924E-01 17184   0.835E-01    0.426E+00
DAV:   3    -0.790249609644E+03    0.37713E-01   -0.40925E-01 16716   0.595E-01    0.211E+00
DAV:   4    -0.790240440116E+03    0.91695E-02   -0.35707E-02 14076   0.350E-01    0.610E-01
DAV:   5    -0.790243107876E+03   -0.26678E-02   -0.69042E-03 13272   0.152E-01    0.438E-01
DAV:   6    -0.790244203649E+03   -0.10958E-02   -0.91205E-04 13080   0.489E-02    0.513E-01
DAV:   7    -0.790243168764E+03    0.10349E-02   -0.91356E-04 14076   0.619E-02    0.560E-01
DAV:   8    -0.790243656745E+03   -0.48798E-03   -0.18760E-03 14964   0.890E-02    0.968E-01
DAV:   9    -0.790243521375E+03    0.13537E-03   -0.14362E-02 15936   0.182E-01    0.689E-01
DAV:  10    -0.790243312178E+03    0.20920E-03   -0.16482E-03 12204   0.859E-02    0.518E-01
DAV:  11    -0.790242180390E+03    0.11318E-02   -0.38552E-03 15516   0.742E-02    0.347E-01
DAV:  12    -0.790241586338E+03    0.59405E-03   -0.86760E-04 12792   0.582E-02    0.178E-01
DAV:  13    -0.790241462412E+03    0.12393E-03   -0.60634E-04 14028   0.355E-02    0.168E-01
DAV:  14    -0.790241446349E+03    0.16063E-04   -0.12858E-04 11736   0.223E-02    0.124E-01
DAV:  15    -0.790241411375E+03    0.34974E-04   -0.23738E-05 10764   0.970E-03    0.102E-01
DAV:  16    -0.790241362918E+03    0.48458E-04   -0.44931E-05 11340   0.115E-02    0.884E-02
DAV:  17    -0.790241322784E+03    0.40133E-04   -0.25767E-05 10908   0.107E-02    0.610E-02
DAV:  18    -0.790241311266E+03    0.11518E-04   -0.80118E-06  7248   0.571E-03    0.521E-02
DAV:  19    -0.790241299943E+03    0.11323E-04   -0.46369E-06  7188   0.416E-03    0.529E-02
DAV:  20    -0.790241276115E+03    0.23828E-04   -0.12236E-05 10032   0.668E-03    0.518E-02
DAV:  21    -0.790241192015E+03    0.84101E-04   -0.10662E-04 14412   0.216E-02    0.557E-02
DAV:  22    -0.790241167905E+03    0.24110E-04   -0.45105E-05 11964   0.114E-02    0.624E-02
DAV:  23    -0.790241143311E+03    0.24594E-04   -0.55704E-06  8148   0.578E-03    0.639E-02
DAV:  24    -0.790241162231E+03   -0.18920E-04   -0.39717E-06  7236   0.451E-03    0.595E-02
DAV:  25    -0.790241190146E+03   -0.27915E-04   -0.11491E-05  8940   0.730E-03    0.518E-02
DAV:  26    -0.790241325025E+03   -0.13488E-03   -0.32044E-04 14820   0.400E-02    0.587E-02
DAV:  27    -0.790241478234E+03   -0.15321E-03   -0.30083E-04 14016   0.291E-02    0.988E-02
DAV:  28    -0.790241342858E+03    0.13538E-03   -0.19862E-04 13620   0.244E-02    0.608E-02
DAV:  29    -0.790241302313E+03    0.40545E-04   -0.67875E-05 13140   0.139E-02    0.459E-02
DAV:  30    -0.790241266206E+03    0.36107E-04   -0.28750E-05 10716   0.107E-02    0.438E-02
DAV:  31    -0.790241178579E+03    0.87627E-04   -0.11345E-04 14388   0.226E-02    0.458E-02
DAV:  32    -0.790241063370E+03    0.11521E-03   -0.15311E-04 14772   0.260E-02    0.628E-02
DAV:  33    -0.790241090223E+03   -0.26853E-04   -0.28422E-05 11040   0.953E-03    0.583E-02
DAV:  34    -0.790241076323E+03    0.13900E-04   -0.78565E-07  6468   0.256E-03    0.612E-02
DAV:  35    -0.790241117153E+03   -0.40830E-04   -0.69026E-06  7908   0.749E-03    0.533E-02
DAV:  36    -0.790241152472E+03   -0.35319E-04   -0.19049E-05 10920   0.863E-03    0.489E-02
DAV:  37    -0.790241202748E+03   -0.50276E-04   -0.29702E-05 12276   0.127E-02    0.424E-02
DAV:  38    -0.790241215695E+03   -0.12947E-04   -0.12625E-05  8688   0.597E-03    0.418E-02
DAV:  39    -0.790241217802E+03   -0.21068E-05   -0.54224E-07  6228   0.135E-03
  14 F= -.79024122E+03 E0= -.79021727E+03  d E =0.101151E-02  mag=     1.7774
       N       E                     dE             d eps       ncg     rms          rms(c)
DAV:   1    -0.790241903920E+03   -0.68823E-03   -0.35086E-01 11520   0.103E+00    0.101E+00
DAV:   2    -0.790270094648E+03   -0.28191E-01   -0.15194E-01 17880   0.774E-01    0.306E+00
DAV:   3    -0.790246566570E+03    0.23528E-01   -0.87263E-02 16764   0.533E-01    0.129E+00
DAV:   4    -0.790242378754E+03    0.41878E-02   -0.14388E-02 13812   0.276E-01    0.730E-01
DAV:   5    -0.790240992052E+03    0.13867E-02   -0.44408E-03 14136   0.139E-01    0.457E-01
DAV:   6    -0.790240836463E+03    0.15559E-03   -0.20647E-03 16896   0.114E-01    0.324E-01
DAV:   7    -0.790240773098E+03    0.63365E-04   -0.11293E-03 13140   0.714E-02    0.215E-01
DAV:   8    -0.790240724878E+03    0.48220E-04   -0.65545E-04 13656   0.388E-02    0.146E-01
DAV:   9    -0.790240742652E+03   -0.17774E-04   -0.21835E-04 13044   0.251E-02    0.133E-01
DAV:  10    -0.790240721834E+03    0.20819E-04   -0.16006E-04 14700   0.260E-02    0.560E-02
DAV:  11    -0.790240746690E+03   -0.24857E-04   -0.65430E-05 11700   0.125E-02    0.567E-02
DAV:  12    -0.790240717011E+03    0.29679E-04   -0.70304E-05 11508   0.132E-02    0.634E-02
DAV:  13    -0.790240679456E+03    0.37556E-04   -0.16655E-04 13968   0.197E-02    0.373E-02
DAV:  14    -0.790240681940E+03   -0.24840E-05   -0.73598E-05 12336   0.147E-02
  15 F= -.79024068E+03 E0= -.79021671E+03  d E =0.535862E-03  mag=     1.7609
       N       E                     dE             d eps       ncg     rms          rms(c)
DAV:   1    -0.790242637236E+03   -0.19578E-02   -0.12271E-01 11520   0.604E-01    0.462E-01
DAV:   2    -0.790251856863E+03   -0.92196E-02   -0.52982E-02 17268   0.325E-01    0.215E+00
DAV:   3    -0.790241701383E+03    0.10155E-01   -0.40897E-02 17412   0.269E-01    0.523E-01
DAV:   4    -0.790242890219E+03   -0.11888E-02   -0.24361E-03 12468   0.864E-02    0.321E-01
DAV:   5    -0.790242837328E+03    0.52891E-04   -0.10200E-03 13980   0.682E-02    0.238E-01
DAV:   6    -0.790243025276E+03   -0.18795E-03   -0.43105E-04 14568   0.355E-02    0.220E-01
DAV:   7    -0.790242910734E+03    0.11454E-03   -0.63096E-05 12036   0.158E-02    0.207E-01
DAV:   8    -0.790242574273E+03    0.33646E-03   -0.46574E-04 13536   0.358E-02    0.102E-01
DAV:   9    -0.790242597875E+03   -0.23603E-04   -0.59684E-04 12840   0.309E-02    0.145E-01
DAV:  10    -0.790242564528E+03    0.33348E-04   -0.80711E-05 12600   0.227E-02    0.998E-02
DAV:  11    -0.790242523175E+03    0.41353E-04   -0.23930E-04 13524   0.237E-02    0.585E-02
DAV:  12    -0.790242516791E+03    0.63837E-05   -0.94513E-05 12624   0.161E-02
  16 F= -.79024252E+03 E0= -.79021844E+03  d E =-.183485E-02  mag=     1.7646
       N       E                     dE             d eps       ncg     rms          rms(c)
DAV:   1    -0.790243071480E+03   -0.54831E-03   -0.72269E-02 11520   0.468E-01    0.198E-01
DAV:   2    -0.790244153223E+03   -0.10817E-02   -0.12359E-02 15552   0.137E-01    0.795E-01
DAV:   3    -0.790242860139E+03    0.12931E-02   -0.51162E-03 15732   0.101E-01    0.131E-01
DAV:   4    -0.790243183863E+03   -0.32372E-03   -0.56431E-04 13284   0.420E-02    0.795E-02
DAV:   5    -0.790243271802E+03   -0.87939E-04   -0.10021E-04 13392   0.266E-02    0.145E-01
DAV:   6    -0.790243259396E+03    0.12406E-04   -0.75908E-05 11376   0.140E-02    0.121E-01
DAV:   7    -0.790243301811E+03   -0.42415E-04   -0.10890E-04 12120   0.132E-02    0.139E-01
DAV:   8    -0.790243274399E+03    0.27412E-04   -0.15461E-05  8868   0.907E-03    0.142E-01
DAV:   9    -0.790243207884E+03    0.66515E-04   -0.47827E-05 12396   0.130E-02    0.126E-01
DAV:  10    -0.790243038249E+03    0.16963E-03   -0.59412E-04 14952   0.399E-02    0.546E-02
DAV:  11    -0.790243008847E+03    0.29402E-04   -0.16785E-04 13464   0.253E-02    0.683E-02
DAV:  12    -0.790243089512E+03   -0.80666E-04   -0.55653E-05 13152   0.170E-02    0.777E-02
DAV:  13    -0.790243166007E+03   -0.76494E-04   -0.20108E-04 15084   0.352E-02    0.500E-02
DAV:  14    -0.790243210192E+03   -0.44185E-04   -0.14594E-04 14004   0.217E-02    0.439E-02
DAV:  15    -0.790243240993E+03   -0.30801E-04   -0.30972E-05 11112   0.115E-02    0.383E-02
DAV:  16    -0.790243331821E+03   -0.90828E-04   -0.11323E-04 14052   0.206E-02    0.716E-02
DAV:  17    -0.790243292867E+03    0.38954E-04   -0.30966E-05 10968   0.971E-03    0.591E-02
DAV:  18    -0.790243265615E+03    0.27252E-04   -0.16394E-05  9408   0.669E-03    0.499E-02
DAV:  19    -0.790243226680E+03    0.38935E-04   -0.37881E-05 12264   0.117E-02    0.384E-02
DAV:  20    -0.790243174171E+03    0.52509E-04   -0.98060E-05 14304   0.190E-02    0.310E-02
DAV:  21    -0.790243126179E+03    0.47992E-04   -0.96737E-05 14280   0.196E-02    0.345E-02
DAV:  22    -0.790243121624E+03    0.45544E-05   -0.16466E-05  9696   0.744E-03
  17 F= -.79024312E+03 E0= -.79021909E+03  d E =-.604833E-03  mag=     1.7600
       N       E                     dE             d eps       ncg     rms          rms(c)
DAV:   1    -0.790243158055E+03   -0.31876E-04   -0.35030E-01 11520   0.103E+00    0.392E-01
DAV:   2    -0.790248062210E+03   -0.49042E-02   -0.51135E-02 15192   0.300E-01    0.161E+00
DAV:   3    -0.790242276396E+03    0.57858E-02   -0.22460E-02 14952   0.216E-01    0.280E-01
DAV:   4    -0.790243412778E+03   -0.11364E-02   -0.16787E-03 12372   0.753E-02    0.800E-02
DAV:   5    -0.790243591821E+03   -0.17904E-03   -0.24182E-04 13716   0.390E-02    0.150E-01
DAV:   6    -0.790243623800E+03   -0.31979E-04   -0.24523E-04 13428   0.257E-02    0.150E-01
DAV:   7    -0.790243705660E+03   -0.81860E-04   -0.20576E-04 13680   0.217E-02    0.175E-01
DAV:   8    -0.790243714068E+03   -0.84081E-05   -0.23145E-05 10656   0.965E-03
  18 F= -.79024371E+03 E0= -.79022038E+03  d E =-.592444E-03  mag=     1.7955
       N       E                     dE             d eps       ncg     rms          rms(c)
DAV:   1    -0.790240181937E+03    0.35237E-02   -0.12781E+00 11520   0.198E+00    0.101E+00
DAV:   2    -0.790263440793E+03   -0.23259E-01   -0.23507E-01 16176   0.768E-01    0.349E+00
DAV:   3    -0.790238697863E+03    0.24743E-01   -0.16466E-01 15696   0.526E-01    0.966E-01
DAV:   4    -0.790241042211E+03   -0.23443E-02   -0.17527E-02 13404   0.222E-01    0.454E-01
DAV:   5    -0.790242775527E+03   -0.17333E-02   -0.31568E-03 12600   0.114E-01    0.478E-01
DAV:   6    -0.790243868258E+03   -0.10927E-02   -0.66331E-03 14280   0.119E-01    0.743E-01
DAV:   7    -0.790242378739E+03    0.14895E-02   -0.76523E-03 15348   0.110E-01    0.335E-01
DAV:   8    -0.790242738649E+03   -0.35991E-03   -0.31109E-03 13248   0.733E-02    0.256E-01
DAV:   9    -0.790242711263E+03    0.27385E-04   -0.10442E-03 12576   0.487E-02    0.116E-01
DAV:  10    -0.790242838066E+03   -0.12680E-03   -0.33891E-04 13368   0.300E-02    0.175E-01
DAV:  11    -0.790242784413E+03    0.53654E-04   -0.39487E-04 13332   0.302E-02    0.785E-02
DAV:  12    -0.790242800669E+03   -0.16256E-04   -0.62127E-05 12540   0.158E-02    0.614E-02
DAV:  13    -0.790242797832E+03    0.28362E-05   -0.79780E-05  9648   0.116E-02
  19 F= -.79024280E+03 E0= -.79022021E+03  d E =0.916236E-03  mag=     1.9927
       N       E                     dE             d eps       ncg     rms          rms(c)
DAV:   1    -0.790247562854E+03   -0.47622E-02   -0.11161E+00 11520   0.177E+00    0.175E+00
DAV:   2    -0.790267936533E+03   -0.20374E-01   -0.52149E-01 17184   0.117E+00    0.289E+00
DAV:   3    -0.790257490820E+03    0.10446E-01   -0.12273E-01 16080   0.724E-01    0.189E+00
DAV:   4    -0.790250214191E+03    0.72766E-02   -0.31868E-02 13944   0.335E-01    0.108E+00
DAV:   5    -0.790245236683E+03    0.49775E-02   -0.87673E-03 14196   0.254E-01    0.595E-01
DAV:   6    -0.790245409266E+03   -0.17258E-03   -0.91682E-03 13968   0.208E-01    0.646E-01
DAV:   7    -0.790245116145E+03    0.29312E-03   -0.11018E-02 15060   0.146E-01    0.456E-01
DAV:   8    -0.790244721043E+03    0.39510E-03   -0.14547E-03 13248   0.645E-02    0.226E-01
DAV:   9    -0.790244630518E+03    0.90525E-04   -0.94818E-04 14544   0.447E-02    0.150E-01
DAV:  10    -0.790244629981E+03    0.53650E-06   -0.43069E-04 13572   0.318E-02    0.939E-02
DAV:  11    -0.790244629038E+03    0.94383E-06   -0.74503E-05 11100   0.160E-02
  20 F= -.79024463E+03 E0= -.79022187E+03  d E =-.183121E-02  mag=     1.9995
       N       E                     dE             d eps       ncg     rms          rms(c)
DAV:   1    -0.790247890177E+03   -0.32602E-02   -0.21584E-01 11520   0.799E-01    0.540E-01
DAV:   2    -0.790251394839E+03   -0.35047E-02   -0.27469E-02 16056   0.358E-01    0.160E+00
DAV:   3    -0.790246874072E+03    0.45208E-02   -0.25602E-02 16332   0.250E-01    0.214E-01
DAV:   4    -0.790247852059E+03   -0.97799E-03   -0.41679E-03 13272   0.998E-02    0.350E-01
DAV:   5    -0.790247661121E+03    0.19094E-03   -0.12303E-03 13920   0.611E-02    0.148E-01
DAV:   6    -0.790247653479E+03    0.76414E-05   -0.28472E-04 13740   0.351E-02    0.597E-02
DAV:   7    -0.790247688003E+03   -0.34524E-04   -0.21911E-04 13128   0.200E-02    0.101E-01
DAV:   8    -0.790247663481E+03    0.24522E-04   -0.12584E-04  9924   0.171E-02    0.482E-02
DAV:   9    -0.790247663369E+03    0.11197E-06   -0.22084E-05  9084   0.913E-03
  21 F= -.79024766E+03 E0= -.79022494E+03  d E =-.303433E-02  mag=     1.9998
       N       E                     dE             d eps       ncg     rms          rms(c)
DAV:   1    -0.790247911211E+03   -0.24773E-03   -0.49063E-02 11520   0.392E-01    0.240E-01
DAV:   2    -0.790249068485E+03   -0.11573E-02   -0.10695E-02 16356   0.172E-01    0.878E-01
DAV:   3    -0.790247530297E+03    0.15382E-02   -0.51277E-03 16104   0.128E-01    0.152E-01
DAV:   4    -0.790247864499E+03   -0.33420E-03   -0.59956E-04 13020   0.475E-02    0.563E-02
DAV:   5    -0.790247902613E+03   -0.38114E-04   -0.11658E-04 13152   0.197E-02    0.593E-02
DAV:   6    -0.790247896089E+03    0.65235E-05   -0.39832E-05  9408   0.121E-02
  22 F= -.79024790E+03 E0= -.79022527E+03  d E =-.232720E-03  mag=     1.9999
       N       E                     dE             d eps       ncg     rms          rms(c)
DAV:   1    -0.790246133670E+03    0.17689E-02   -0.71242E-01 11520   0.151E+00    0.453E-01
DAV:   2    -0.790250640159E+03   -0.45065E-02   -0.41136E-02 14760   0.349E-01    0.158E+00
DAV:   3    -0.790245817779E+03    0.48224E-02   -0.16828E-02 15624   0.218E-01    0.209E-01
DAV:   4    -0.790247077927E+03   -0.12601E-02   -0.29666E-03 13236   0.983E-02    0.277E-01
DAV:   5    -0.790247044082E+03    0.33845E-04   -0.78422E-04 13488   0.559E-02    0.149E-01
DAV:   6    -0.790247008044E+03    0.36038E-04   -0.58707E-04 13320   0.361E-02    0.109E-01
DAV:   7    -0.790247029937E+03   -0.21893E-04   -0.12149E-04 13452   0.241E-02    0.131E-01
DAV:   8    -0.790246979167E+03    0.50770E-04   -0.19425E-04 12900   0.192E-02    0.335E-02
DAV:   9    -0.790246993756E+03   -0.14589E-04   -0.27264E-05  9180   0.108E-02    0.189E-02
DAV:  10    -0.790246994479E+03   -0.72309E-06   -0.52796E-06  6552   0.517E-03
  23 F= -.79024699E+03 E0= -.79022430E+03  d E =0.901610E-03  mag=     1.9999
       N       E                     dE             d eps       ncg     rms          rms(c)
DAV:   1    -0.790201137310E+03    0.45856E-01   -0.15836E+01 11520   0.709E+00    0.237E+00
DAV:   2    -0.790271544873E+03   -0.70408E-01   -0.12947E+00 15396   0.185E+00    0.409E+00
DAV:   3    -0.790241132703E+03    0.30412E-01   -0.15423E-01 15060   0.985E-01    0.224E+00
DAV:   4    -0.790227408235E+03    0.13724E-01   -0.60794E-02 14136   0.466E-01    0.158E+00
DAV:   5    -0.790221263163E+03    0.61451E-02   -0.19302E-02 14208   0.299E-01    0.775E-01
DAV:   6    -0.790224200270E+03   -0.29371E-02   -0.37359E-02 14604   0.290E-01    0.129E+00
DAV:   7    -0.790221931531E+03    0.22687E-02   -0.65644E-02 15288   0.275E-01    0.728E-01
DAV:   8    -0.790221750294E+03    0.18124E-03   -0.39452E-03 12252   0.121E-01    0.510E-01
DAV:   9    -0.790221109558E+03    0.64074E-03   -0.12969E-03 14940   0.802E-02    0.259E-01
DAV:  10    -0.790221102096E+03    0.74621E-05   -0.14310E-03 13524   0.546E-02    0.914E-02
DAV:  11    -0.790221269986E+03   -0.16789E-03   -0.30063E-04 12300   0.287E-02    0.129E-01
DAV:  12    -0.790221227876E+03    0.42110E-04   -0.28522E-04 11268   0.214E-02    0.419E-02
DAV:  13    -0.790221243644E+03   -0.15769E-04   -0.62095E-05 11592   0.145E-02    0.488E-02
DAV:  14    -0.790221239919E+03    0.37252E-05   -0.18341E-05  8292   0.872E-03
  24 F= -.79022124E+03 E0= -.79019851E+03  d E =0.257546E-01  mag=     1.9999
       N       E                     dE             d eps       ncg     rms          rms(c)
DAV:   1    -0.790232032278E+03   -0.10789E-01   -0.69597E+00 11520   0.477E+00    0.143E+00
DAV:   2    -0.790258068920E+03   -0.26037E-01   -0.29011E-01 14232   0.102E+00    0.316E+00
DAV:   3    -0.790240084867E+03    0.17984E-01   -0.16896E-01 14532   0.589E-01    0.921E-01
DAV:   4    -0.790242449013E+03   -0.23641E-02   -0.19840E-02 13104   0.308E-01    0.679E-01
DAV:   5    -0.790241595317E+03    0.85370E-03   -0.59736E-03 13716   0.162E-01    0.333E-01
DAV:   6    -0.790241424455E+03    0.17086E-03   -0.26096E-03 14520   0.100E-01    0.243E-01
DAV:   7    -0.790241355748E+03    0.68708E-04   -0.16466E-03 14100   0.751E-02    0.224E-01
DAV:   8    -0.790241244799E+03    0.11095E-03   -0.77681E-04 15096   0.558E-02    0.122E-01
DAV:   9    -0.790241233952E+03    0.10847E-04   -0.23603E-04 14496   0.306E-02    0.611E-02
DAV:  10    -0.790241258150E+03   -0.24198E-04   -0.85483E-05 12840   0.153E-02    0.789E-02
DAV:  11    -0.790241240898E+03    0.17252E-04   -0.10553E-04 10704   0.171E-02    0.431E-02
DAV:  12    -0.790241243365E+03   -0.24668E-05   -0.40035E-05  8832   0.101E-02
  25 F= -.79024124E+03 E0= -.79021870E+03  d E =-.200034E-01  mag=     1.9999
       N       E                     dE             d eps       ncg     rms          rms(c)
DAV:   1    -0.790228298791E+03    0.12942E-01   -0.62735E+00 11520   0.456E+00    0.226E+00
DAV:   2    -0.790304155123E+03   -0.75856E-01   -0.12219E+00 15924   0.161E+00    0.561E+00
DAV:   3    -0.790236405051E+03    0.67750E-01   -0.81559E-01 16104   0.103E+00    0.251E+00
DAV:   4    -0.790229023767E+03    0.73813E-02   -0.67300E-02 13152   0.470E-01    0.751E-01
DAV:   5    -0.790232575531E+03   -0.35518E-02   -0.34632E-02 14172   0.326E-01    0.104E+00
DAV:   6    -0.790234332525E+03   -0.17570E-02   -0.21578E-02 13728   0.208E-01    0.123E+00
DAV:   7    -0.790230660931E+03    0.36716E-02   -0.10190E-02 14136   0.148E-01    0.678E-01
DAV:   8    -0.790230452641E+03    0.20829E-03   -0.11643E-02 13524   0.129E-01    0.319E-01
DAV:   9    -0.790231122477E+03   -0.66984E-03   -0.12522E-03 12492   0.854E-02    0.196E-01
DAV:  10    -0.790231073679E+03    0.48798E-04   -0.12750E-03 13404   0.531E-02    0.212E-01
DAV:  11    -0.790231029289E+03    0.44390E-04   -0.24036E-04 12672   0.339E-02    0.866E-02
DAV:  12    -0.790231047516E+03   -0.18228E-04   -0.22266E-04 13488   0.221E-02    0.505E-02
DAV:  13    -0.790231057228E+03   -0.97115E-05   -0.51084E-05 10380   0.140E-02
  26 F= -.79023106E+03 E0= -.79020835E+03  d E =0.101861E-01  mag=     1.9971
       N       E                     dE             d eps       ncg     rms          rms(c)
DAV:   1    -0.790243632095E+03   -0.12585E-01   -0.35986E+00 11520   0.344E+00    0.167E+00
DAV:   2    -0.790286016147E+03   -0.42384E-01   -0.52749E-01 15672   0.120E+00    0.431E+00
DAV:   3    -0.790246420376E+03    0.39596E-01   -0.10245E-01 15648   0.778E-01    0.148E+00
DAV:   4    -0.790245426987E+03    0.99339E-03   -0.25792E-02 13884   0.372E-01    0.526E-01
DAV:   5    -0.790246934153E+03   -0.15072E-02   -0.16425E-02 13596   0.243E-01    0.601E-01
DAV:   6    -0.790246697229E+03    0.23692E-03   -0.66420E-03 13452   0.153E-01    0.474E-01
DAV:   7    -0.790246243170E+03    0.45406E-03   -0.29613E-03 14448   0.103E-01    0.182E-01
DAV:   8    -0.790246351183E+03   -0.10801E-03   -0.12596E-03 13680   0.606E-02    0.186E-01
DAV:   9    -0.790246276184E+03    0.74999E-04   -0.53178E-04 14508   0.431E-02    0.120E-01
DAV:  10    -0.790246308367E+03   -0.32183E-04   -0.79430E-04 14148   0.277E-02    0.154E-01
DAV:  11    -0.790246259704E+03    0.48663E-04   -0.30631E-04 12072   0.245E-02    0.357E-02
DAV:  12    -0.790246272268E+03   -0.12564E-04   -0.57363E-05  9528   0.102E-02    0.331E-02
DAV:  13    -0.790246271099E+03    0.11691E-05   -0.21601E-05  7152   0.640E-03
  27 F= -.79024627E+03 E0= -.79022356E+03  d E =-.152139E-01  mag=     1.9999
       N       E                     dE             d eps       ncg     rms          rms(c)
DAV:   1    -0.790246231594E+03    0.40674E-04   -0.78988E-02 11520   0.528E-01    0.308E-01
DAV:   2    -0.790247137743E+03   -0.90615E-03   -0.11206E-02 16068   0.205E-01    0.802E-01
DAV:   3    -0.790245995370E+03    0.11424E-02   -0.70499E-03 15972   0.138E-01    0.180E-01
DAV:   4    -0.790246265570E+03   -0.27020E-03   -0.94671E-04 12792   0.595E-02    0.126E-01
DAV:   5    -0.790246248249E+03    0.17321E-04   -0.21244E-04 13596   0.310E-02    0.630E-02
DAV:   6    -0.790246239096E+03    0.91526E-05   -0.92635E-05 13164   0.194E-02
  28 F= -.79024624E+03 E0= -.79022355E+03  d E =0.320029E-04  mag=     1.9999
       N       E                     dE             d eps       ncg     rms          rms(c)
DAV:   1    -0.790246494011E+03   -0.24576E-03   -0.23186E-02 11520   0.286E-01    0.136E-01
DAV:   2    -0.790246642868E+03   -0.14886E-03   -0.18363E-03 15576   0.913E-02    0.288E-01
DAV:   3    -0.790246499180E+03    0.14369E-03   -0.75512E-04 15948   0.572E-02    0.723E-02
DAV:   4    -0.790246529155E+03   -0.29975E-04   -0.24473E-04 13128   0.265E-02    0.788E-02
DAV:   5    -0.790246518822E+03    0.10333E-04   -0.81100E-05 11340   0.161E-02    0.301E-02
DAV:   6    -0.790246518246E+03    0.57641E-06   -0.16396E-05  7860   0.931E-03
  29 F= -.79024652E+03 E0= -.79022384E+03  d E =-.279149E-03  mag=     1.9999
       N       E                     dE             d eps       ncg     rms          rms(c)
DAV:   1    -0.790246562971E+03   -0.44149E-04   -0.35020E-03 11544   0.108E-01    0.748E-02
DAV:   2    -0.790246698536E+03   -0.13557E-03   -0.15302E-03 16848   0.560E-02    0.312E-01
DAV:   3    -0.790246503185E+03    0.19535E-03   -0.79867E-04 15996   0.424E-02    0.421E-02
DAV:   4    -0.790246552263E+03   -0.49078E-04   -0.61921E-05 12048   0.135E-02    0.141E-02
DAV:   5    -0.790246558291E+03   -0.60287E-05   -0.74628E-06  8136   0.614E-03
  30 F= -.79024656E+03 E0= -.79022387E+03  d E =-.400458E-04  mag=     1.9999
       N       E                     dE             d eps       ncg     rms          rms(c)
DAV:   1    -0.790246648810E+03   -0.96547E-04   -0.13561E-01 11520   0.655E-01    0.408E-01
DAV:   2    -0.790250970119E+03   -0.43213E-02   -0.57486E-02 16836   0.315E-01    0.171E+00
DAV:   3    -0.790245097100E+03    0.58730E-02   -0.22844E-02 16140   0.232E-01    0.232E-01
DAV:   4    -0.790246336703E+03   -0.12396E-02   -0.20495E-03 12576   0.681E-02    0.755E-02
DAV:   5    -0.790246528634E+03   -0.19193E-03   -0.17103E-04 12912   0.315E-02    0.565E-02
DAV:   6    -0.790246526937E+03    0.16969E-05   -0.55658E-05 11772   0.148E-02
  31 F= -.79024653E+03 E0= -.79022386E+03  d E =0.313539E-04  mag=     1.9999
       N       E                     dE             d eps       ncg     rms          rms(c)
DAV:   1    -0.790245242784E+03    0.12859E-02   -0.59143E-01 11520   0.139E+00    0.549E-01
DAV:   2    -0.790251752407E+03   -0.65096E-02   -0.87503E-02 15960   0.448E-01    0.208E+00
DAV:   3    -0.790243179182E+03    0.85732E-02   -0.47955E-02 14724   0.301E-01    0.207E-01
DAV:   4    -0.790245368193E+03   -0.21890E-02   -0.38957E-03 12252   0.101E-01    0.233E-01
DAV:   5    -0.790245474820E+03   -0.10663E-03   -0.83652E-04 13704   0.538E-02    0.990E-02
DAV:   6    -0.790245481542E+03   -0.67217E-05   -0.56154E-04 13572   0.320E-02    0.119E-01
DAV:   7    -0.790245461970E+03    0.19572E-04   -0.11353E-04 13176   0.234E-02    0.862E-02
DAV:   8    -0.790245447157E+03    0.14813E-04   -0.12030E-04 12888   0.176E-02    0.394E-02
DAV:   9    -0.790245454302E+03   -0.71454E-05   -0.61559E-05  9912   0.118E-02
  32 F= -.79024545E+03 E0= -.79022296E+03  d E =0.107264E-02  mag=     1.9999
       N       E                     dE             d eps       ncg     rms          rms(c)
DAV:   1    -0.790245894276E+03   -0.44712E-03   -0.12530E-01 11520   0.638E-01    0.407E-01
DAV:   2    -0.790249604669E+03   -0.37104E-02   -0.48917E-02 16536   0.285E-01    0.155E+00
DAV:   3    -0.790244756737E+03    0.48479E-02   -0.21052E-02 16500   0.212E-01    0.203E-01
DAV:   4    -0.790245873790E+03   -0.11171E-02   -0.28480E-03 13260   0.837E-02    0.233E-01
DAV:   5    -0.790245916537E+03   -0.42747E-04   -0.61331E-04 13404   0.518E-02    0.125E-01
DAV:   6    -0.790245883544E+03    0.32993E-04   -0.28787E-04 13860   0.281E-02    0.503E-02
DAV:   7    -0.790245894500E+03   -0.10956E-04   -0.50670E-05 13176   0.155E-02    0.522E-02
DAV:   8    -0.790245886012E+03    0.84885E-05   -0.31327E-05  8808   0.103E-02
  33 F= -.79024589E+03 E0= -.79022339E+03  d E =-.431709E-03  mag=     1.9999
       N       E                     dE             d eps       ncg     rms          rms(c)
DAV:   1    -0.790246457276E+03   -0.56278E-03   -0.65332E-02 11520   0.454E-01    0.339E-01
DAV:   2    -0.790249204335E+03   -0.27471E-02   -0.28780E-02 17292   0.257E-01    0.135E+00
DAV:   3    -0.790245521230E+03    0.36831E-02   -0.11132E-02 16128   0.192E-01    0.287E-01
DAV:   4    -0.790246194333E+03   -0.67310E-03   -0.13441E-03 12960   0.658E-02    0.952E-02
DAV:   5    -0.790246339146E+03   -0.14481E-03   -0.28531E-04 13260   0.348E-02    0.784E-02
DAV:   6    -0.790246353962E+03   -0.14816E-04   -0.69787E-05 12564   0.185E-02    0.486E-02
DAV:   7    -0.790246349227E+03    0.47354E-05   -0.52132E-05 10248   0.122E-02
  34 F= -.79024635E+03 E0= -.79022379E+03  d E =-.463215E-03  mag=     1.9999
       N       E                     dE             d eps       ncg     rms          rms(c)
DAV:   1    -0.790246538656E+03   -0.18469E-03   -0.33013E-02 11520   0.322E-01    0.208E-01
DAV:   2    -0.790247714378E+03   -0.11757E-02   -0.11226E-02 17016   0.156E-01    0.923E-01
DAV:   3    -0.790246062059E+03    0.16523E-02   -0.52882E-03 16392   0.120E-01    0.107E-01
DAV:   4    -0.790246470094E+03   -0.40803E-03   -0.50134E-04 12660   0.373E-02    0.388E-02
DAV:   5    -0.790246515404E+03   -0.45310E-04   -0.43642E-05 12720   0.159E-02    0.322E-02
DAV:   6    -0.790246514516E+03    0.88810E-06   -0.19370E-05  8748   0.856E-03
  35 F= -.79024651E+03 E0= -.79022396E+03  d E =-.165290E-03  mag=     1.9999
