       N       E                     dE             d eps       ncg     rms          ort
DAV:   1     0.104008595311E+05    0.10401E+05   -0.42479E+05 10564   0.157E+03
DAV:   2    -0.752916233605E+02   -0.10476E+05   -0.98865E+04 10564   0.479E+02
DAV:   3    -0.151587250387E+04   -0.14406E+04   -0.13404E+04 10564   0.185E+02
DAV:   4    -0.160246625398E+04   -0.86594E+02   -0.84079E+02 10564   0.475E+01
DAV:   5    -0.160508686928E+04   -0.26206E+01   -0.26117E+01 10564   0.882E+00
SDA:   6    -0.738277916704E+03    0.86681E+03   -0.26117E+01 10564   0.287E+04 0.000E+00
CGA:   7    -0.113953993714E+04   -0.40126E+03   -0.39798E+03 10564   0.104E+04-0.160E+02
CGA:   8    -0.117031730240E+04   -0.30777E+02   -0.55345E+02 10564   0.875E+03-0.442E+03
CGA:   9    -0.120739784423E+04   -0.37081E+02   -0.37731E+02 10564   0.464E+03-0.122E+02
CGA:  10    -0.123072897053E+04   -0.23331E+02   -0.28334E+02 10564   0.300E+03-0.550E+02
CGA:  11    -0.125555453363E+04   -0.24826E+02   -0.26221E+02 10564   0.178E+03-0.424E+01
CGA:  12    -0.126726382161E+04   -0.11709E+02   -0.12876E+02 10564   0.627E+02-0.851E+01
CGA:  13    -0.127258719093E+04   -0.53234E+01   -0.55605E+01 10564   0.442E+02-0.122E+01
CGA:  14    -0.127655705507E+04   -0.39699E+01   -0.40869E+01 10564   0.209E+02-0.108E+01
CGA:  15    -0.127804373035E+04   -0.14867E+01   -0.15278E+01 10564   0.846E+01-0.794E+00
CGA:  16    -0.127926287682E+04   -0.12191E+01   -0.12189E+01 10564   0.496E+01-0.204E+00
CGA:  17    -0.127977753403E+04   -0.51466E+00   -0.51148E+00 10564   0.344E+01-0.220E+00
CGA:  18    -0.128025669888E+04   -0.47916E+00   -0.47748E+00 10564   0.297E+01-0.278E+00
CGA:  19    -0.128064265972E+04   -0.38596E+00   -0.38268E+00 10564   0.185E+01-0.345E+00
CGA:  20    -0.128100244696E+04   -0.35979E+00   -0.41254E+00 10564   0.347E+01-0.538E+00
CGA:  21    -0.128129945598E+04   -0.29701E+00   -0.28018E+00 10564   0.135E+01-0.509E+00
CGA:  22    -0.128154354734E+04   -0.24409E+00   -0.27571E+00 10564   0.194E+01-0.376E+00
CGA:  23    -0.128176451525E+04   -0.22097E+00   -0.21982E+00 10564   0.841E+00-0.355E+00
CGA:  24    -0.128186139305E+04   -0.96878E-01   -0.94666E-01 10564   0.728E+00-0.110E+00
CGA:  25    -0.128198415966E+04   -0.12277E+00   -0.12698E+00 10564   0.411E+00-0.101E+00
CGA:  26    -0.128203281099E+04   -0.48651E-01   -0.48423E-01 10564   0.246E+00-0.104E-01
CGA:  27    -0.128207878116E+04   -0.45970E-01   -0.45207E-01 10564   0.187E+00 0.260E-01
CGA:  28    -0.128210741478E+04   -0.28634E-01   -0.29369E-01 10564   0.116E+00 0.380E-01
CGA:  29    -0.128212825894E+04   -0.20844E-01   -0.21222E-01 10564   0.819E-01 0.442E-01
CGA:  30    -0.128214360985E+04   -0.15351E-01   -0.16044E-01 10564   0.388E-01 0.386E-01
CGA:  31    -0.128214964648E+04   -0.60366E-02   -0.69207E-02 10564   0.290E-01 0.235E-01
CGA:  32    -0.128215386664E+04   -0.42202E-02   -0.43058E-02 10564   0.209E-01 0.101E-01
CGA:  33    -0.128215864910E+04   -0.47825E-02   -0.46569E-02 10564   0.141E-01 0.144E-01
CGA:  34    -0.128216082653E+04   -0.21774E-02   -0.21859E-02 10564   0.132E-01 0.400E-02
CGA:  35    -0.128216429146E+04   -0.34649E-02   -0.31590E-02 10564   0.124E-01 0.102E-01
CGA:  36    -0.128216560734E+04   -0.13159E-02   -0.14732E-02 10564   0.728E-02 0.398E-02
CGA:  37    -0.128216724939E+04   -0.16420E-02   -0.15857E-02 10564   0.840E-02 0.665E-02
CGA:  38    -0.128216878466E+04   -0.15353E-02   -0.14956E-02 10564   0.751E-02 0.187E-02
CGA:  39    -0.128217195222E+04   -0.31676E-02   -0.24277E-02 10564   0.858E-02 0.685E-02
CGA:  40    -0.128217282965E+04   -0.87743E-03   -0.95913E-03 10564   0.532E-02 0.158E-02
CGA:  41    -0.128217443204E+04   -0.16024E-02   -0.14029E-02 10564   0.778E-02 0.317E-02
CGA:  42    -0.128217572802E+04   -0.12960E-02   -0.12980E-02 10564   0.646E-02-0.674E-03
CGA:  43    -0.128217859505E+04   -0.28670E-02   -0.27857E-02 10564   0.314E-01 0.150E-03
CGA:  44    -0.128218804559E+04   -0.94505E-02   -0.93072E-02 10564   0.219E-01-0.179E-03
CGA:  45    -0.128219284220E+04   -0.47966E-02   -0.49480E-02 10564   0.147E-01-0.432E-02
CGA:  46    -0.128219434946E+04   -0.15073E-02   -0.12033E-02 10564   0.392E-02-0.361E-02
CGA:  47    -0.128219603426E+04   -0.16848E-02    0.48351E-03 10564   0.231E-02 0.260E-03
CGA:  48    -0.128219815437E+04   -0.21201E-02    0.16570E-03 10564   0.112E-02 0.107E-02
CGA:  49    -0.128219991206E+04   -0.17577E-02    0.77114E-04 10564   0.109E-02 0.100E-02
CGA:  50    -0.128220056774E+04   -0.65568E-03    0.15468E-03 10564   0.123E-02 0.978E-04
CGA:  51    -0.128220195163E+04   -0.13839E-02    0.67746E-04 10564   0.966E-03 0.799E-03
CGA:  52    -0.128220259549E+04   -0.64386E-03    0.10702E-03 10564   0.835E-03-0.182E-04
CGA:  53    -0.128220357045E+04   -0.97496E-03    0.33219E-04 10564   0.759E-03 0.477E-03
CGA:  54    -0.128220390845E+04   -0.33799E-03    0.31728E-03 10564   0.936E-03-0.128E-03
CGA:  55    -0.128220469699E+04   -0.78854E-03    0.40158E-04 10564   0.104E-02 0.203E-03
CGA:  56    -0.128220603502E+04   -0.13380E-02    0.61473E-04 10564   0.758E-03 0.512E-03
CGA:  57    -0.128220720020E+04   -0.11652E-02    0.56764E-04 10564   0.107E-02 0.225E-03
CGA:  58    -0.128220890013E+04   -0.16999E-02    0.54229E-04 10564   0.719E-03 0.220E-03
CGA:  59    -0.128221001446E+04   -0.11143E-02    0.31440E-04 10564   0.864E-03 0.339E-03
CGA:  60    -0.128221122111E+04   -0.12066E-02    0.72682E-04 10564   0.549E-03 0.111E-03
CGA:  61    -0.128221190296E+04   -0.68185E-03    0.28147E-04 10564   0.609E-03 0.116E-03
CGA:  62    -0.128221262196E+04   -0.71899E-03    0.40402E-04 10564   0.538E-03 0.342E-03
CGA:  63    -0.128221262029E+04    0.16646E-05   -0.30265E-04 10564   0.182E-03 0.253E-03
   1 F= -.12822126E+04 E0= -.12822025E+04  d E =-.203308E-01  mag=    47.0000
