       N       E                     dE             d eps       ncg     rms          rms(c)
DAV:   1     0.580953023291E+04    0.58095E+04   -0.20831E+05 16808   0.162E+03
DAV:   2     0.353285398355E+03   -0.54562E+04   -0.49357E+04 16584   0.492E+02
DAV:   3    -0.472557911795E+03   -0.82584E+03   -0.77517E+03 17640   0.201E+02
DAV:   4    -0.516127891541E+03   -0.43570E+02   -0.42995E+02 18264   0.470E+01
DAV:   5    -0.516659360653E+03   -0.53147E+00   -0.53014E+00 18144   0.562E+00    0.121E+02
DAV:   6    -0.452468315932E+03    0.64191E+02   -0.51482E+02 20696   0.878E+01    0.102E+02
DAV:   7    -0.429203551792E+03    0.23265E+02   -0.27310E+02 18328   0.977E+01    0.571E+01
DAV:   8    -0.433097530782E+03   -0.38940E+01   -0.72782E+01 20096   0.322E+01    0.547E+01
DAV:   9    -0.426997728285E+03    0.60998E+01   -0.34768E+01 19680   0.258E+01    0.569E+01
DAV:  10    -0.418014591123E+03    0.89831E+01   -0.28492E+01 18376   0.211E+01    0.330E+01
DAV:  11    -0.421466116520E+03   -0.34515E+01   -0.12671E+01 18880   0.168E+01    0.279E+01
DAV:  12    -0.416973889412E+03    0.44922E+01   -0.46106E+00 17984   0.146E+01    0.165E+01
DAV:  13    -0.416622229328E+03    0.35166E+00   -0.11530E+00 18040   0.471E+00    0.110E+01
DAV:  14    -0.416906341717E+03   -0.28411E+00   -0.50799E-01 18256   0.279E+00    0.102E+01
DAV:  15    -0.417038641159E+03   -0.13230E+00   -0.13930E-01 17584   0.235E+00    0.925E+00
DAV:  16    -0.417276580666E+03   -0.23794E+00   -0.64069E-02 19032   0.145E+00    0.743E+00
DAV:  17    -0.417581792237E+03   -0.30521E+00   -0.58566E-01 19008   0.444E+00    0.508E+00
DAV:  18    -0.417597091961E+03   -0.15300E-01   -0.24104E-01 18312   0.310E+00    0.398E+00
DAV:  19    -0.417604964742E+03   -0.78728E-02   -0.70108E-02 17848   0.169E+00    0.208E+00
DAV:  20    -0.417609103711E+03   -0.41390E-02   -0.20748E-02 18776   0.798E-01    0.159E+00
DAV:  21    -0.417610961407E+03   -0.18577E-02   -0.17590E-02 18488   0.963E-01    0.135E+00
DAV:  22    -0.417610852105E+03    0.10930E-03   -0.75798E-03 18936   0.587E-01    0.809E-01
DAV:  23    -0.417613043021E+03   -0.21909E-02   -0.23271E-03 18240   0.302E-01    0.539E-01
DAV:  24    -0.417613675066E+03   -0.63205E-03   -0.13191E-03 18464   0.306E-01    0.465E-01
DAV:  25    -0.417613924823E+03   -0.24976E-03   -0.69635E-04 18424   0.221E-01    0.261E-01
DAV:  26    -0.417614086652E+03   -0.16183E-03   -0.28126E-04 17760   0.914E-02    0.169E-01
DAV:  27    -0.417614136464E+03   -0.49812E-04   -0.12733E-04 17544   0.949E-02    0.141E-01
DAV:  28    -0.417614160194E+03   -0.23730E-04   -0.43917E-05 15088   0.618E-02    0.930E-02
DAV:  29    -0.417614178482E+03   -0.18289E-04   -0.15460E-05 11432   0.264E-02    0.614E-02
DAV:  30    -0.417614182444E+03   -0.39620E-05   -0.12008E-05  9912   0.245E-02
   1 F= -.41761418E+03 E0= -.41760719E+03  d E =-.417614E+03  mag=    41.0020
       N       E                     dE             d eps       ncg     rms          rms(c)
DAV:   1    -0.417616898057E+03   -0.27196E-02   -0.21752E-02 22304   0.107E+00    0.110E-01
DAV:   2    -0.417617556967E+03   -0.65891E-03   -0.63261E-03 17904   0.183E-01    0.869E-02
DAV:   3    -0.417617614344E+03   -0.57377E-04   -0.35431E-04 17616   0.131E-01    0.109E-01
DAV:   4    -0.417617568626E+03    0.45718E-04   -0.81387E-05 15368   0.773E-02    0.282E-02
DAV:   5    -0.417617568704E+03   -0.78289E-07   -0.13759E-05 10880   0.139E-02
   2 F= -.41761757E+03 E0= -.41761059E+03  d E =-.338626E-02  mag=    41.0001
       N       E                     dE             d eps       ncg     rms          rms(c)
DAV:   1    -0.417553149644E+03    0.64419E-01   -0.30777E+00 21944   0.127E+01    0.127E+00
DAV:   2    -0.417644648440E+03   -0.91499E-01   -0.88897E-01 18040   0.217E+00    0.889E-01
DAV:   3    -0.417651841113E+03   -0.71927E-02   -0.44534E-02 17760   0.129E+00    0.110E+00
DAV:   4    -0.417647017382E+03    0.48237E-02   -0.99534E-03 17696   0.708E-01    0.339E-01
DAV:   5    -0.417647026225E+03   -0.88433E-05   -0.18376E-03 18776   0.192E-01    0.279E-01
DAV:   6    -0.417647135362E+03   -0.10914E-03   -0.12177E-03 18536   0.266E-01    0.296E-01
DAV:   7    -0.417646877752E+03    0.25761E-03   -0.60572E-04 18704   0.198E-01    0.659E-02
DAV:   8    -0.417646912434E+03   -0.34682E-04   -0.16784E-04 18176   0.674E-02    0.570E-02
DAV:   9    -0.417646907357E+03    0.50770E-05   -0.67462E-05 15880   0.659E-02
   3 F= -.41764691E+03 E0= -.41764004E+03  d E =-.293387E-01  mag=    41.0000
       N       E                     dE             d eps       ncg     rms          rms(c)
DAV:   1    -0.417556766145E+03    0.90146E-01   -0.42483E+00 21256   0.134E+01    0.133E+00
DAV:   2    -0.417657630937E+03   -0.10086E+00   -0.97732E-01 17976   0.234E+00    0.976E-01
DAV:   3    -0.417665831539E+03   -0.82006E-02   -0.55877E-02 17760   0.138E+00    0.119E+00
DAV:   4    -0.417660157448E+03    0.56741E-02   -0.11439E-02 18360   0.748E-01    0.368E-01
DAV:   5    -0.417660230967E+03   -0.73520E-04   -0.20202E-03 18800   0.228E-01    0.325E-01
DAV:   6    -0.417660235103E+03   -0.41360E-05   -0.15271E-03 18944   0.310E-01    0.303E-01
DAV:   7    -0.417660006685E+03    0.22842E-03   -0.73190E-04 18776   0.211E-01    0.696E-02
DAV:   8    -0.417660038725E+03   -0.32039E-04   -0.21060E-04 18032   0.644E-02    0.484E-02
DAV:   9    -0.417660039624E+03   -0.89985E-06   -0.74831E-05 15768   0.652E-02
   4 F= -.41766004E+03 E0= -.41765333E+03  d E =-.131323E-01  mag=    41.0000
       N       E                     dE             d eps       ncg     rms          rms(c)
DAV:   1    -0.417656306297E+03    0.37324E-02   -0.87881E-01 19120   0.358E+00    0.327E-01
DAV:   2    -0.417663429439E+03   -0.71231E-02   -0.69431E-02 18440   0.677E-01    0.283E-01
DAV:   3    -0.417663769475E+03   -0.34004E-03   -0.36591E-03 18200   0.396E-01    0.303E-01
DAV:   4    -0.417663385310E+03    0.38417E-03   -0.75897E-04 18992   0.222E-01    0.101E-01
DAV:   5    -0.417663379477E+03    0.58324E-05   -0.20001E-04 19664   0.765E-02    0.961E-02
DAV:   6    -0.417663376184E+03    0.32934E-05   -0.18307E-04 18424   0.111E-01    0.849E-02
DAV:   7    -0.417663355633E+03    0.20551E-04   -0.65765E-05 17232   0.624E-02    0.170E-02
DAV:   8    -0.417663358146E+03   -0.25134E-05   -0.13001E-05 10344   0.231E-02
   5 F= -.41766336E+03 E0= -.41765675E+03  d E =-.331852E-02  mag=    41.0000
       N       E                     dE             d eps       ncg     rms          rms(c)
DAV:   1    -0.417635075040E+03    0.28281E-01   -0.47434E+00 18888   0.771E+00    0.675E-01
DAV:   2    -0.417668345196E+03   -0.33270E-01   -0.32509E-01 18248   0.147E+00    0.587E-01
DAV:   3    -0.417669704299E+03   -0.13591E-02   -0.17296E-02 18144   0.811E-01    0.603E-01
DAV:   4    -0.417668019073E+03    0.16852E-02   -0.31669E-03 19240   0.457E-01    0.184E-01
DAV:   5    -0.417667872211E+03    0.14686E-03   -0.89659E-04 20000   0.119E-01    0.140E-01
DAV:   6    -0.417667985540E+03   -0.11333E-03   -0.58735E-04 19352   0.199E-01    0.204E-01
DAV:   7    -0.417667818981E+03    0.16656E-03   -0.28085E-04 18824   0.143E-01    0.286E-02
DAV:   8    -0.417667835698E+03   -0.16717E-04   -0.62784E-05 17216   0.422E-02    0.383E-02
DAV:   9    -0.417667831901E+03    0.37968E-05   -0.28492E-05 13168   0.399E-02
   6 F= -.41766783E+03 E0= -.41766134E+03  d E =-.447376E-02  mag=    41.0000
       N       E                     dE             d eps       ncg     rms          rms(c)
DAV:   1    -0.417654234416E+03    0.13601E-01   -0.83260E-01 20848   0.498E+00    0.480E-01
DAV:   2    -0.417668582518E+03   -0.14348E-01   -0.13810E-01 18056   0.910E-01    0.392E-01
DAV:   3    -0.417669478435E+03   -0.89592E-03   -0.75856E-03 17512   0.551E-01    0.429E-01
DAV:   4    -0.417668699019E+03    0.77942E-03   -0.14724E-03 18576   0.330E-01    0.129E-01
DAV:   5    -0.417668689809E+03    0.92101E-05   -0.33639E-04 19656   0.716E-02    0.104E-01
DAV:   6    -0.417668716822E+03   -0.27013E-04   -0.19810E-04 18328   0.118E-01    0.121E-01
DAV:   7    -0.417668663322E+03    0.53500E-04   -0.10278E-04 17680   0.865E-02    0.220E-02
DAV:   8    -0.417668668771E+03   -0.54488E-05   -0.27183E-05 13880   0.218E-02
   7 F= -.41766867E+03 E0= -.41766213E+03  d E =-.836870E-03  mag=    41.0000
