       N       E                     dE             d eps       ncg     rms          rms(c)
DAV:   1     0.345068606398E+04    0.34507E+04   -0.18842E+05 10392   0.128E+03
DAV:   2    -0.363883411495E+02   -0.34871E+04   -0.33461E+04 13128   0.228E+02
DAV:   3    -0.517171315198E+03   -0.48078E+03   -0.47609E+03 12816   0.928E+01
DAV:   4    -0.540410731254E+03   -0.23239E+02   -0.23061E+02 13152   0.228E+01
DAV:   5    -0.541599119371E+03   -0.11884E+01   -0.11863E+01 15036   0.501E+00    0.622E+01
DAV:   6    -0.523649132537E+03    0.17950E+02   -0.36975E+01 11736   0.698E+00    0.421E+01
DAV:   7    -0.522436359962E+03    0.12128E+01   -0.24998E+01 12660   0.566E+00    0.820E+00
DAV:   8    -0.521944260001E+03    0.49210E+00   -0.31885E+00 11892   0.235E+00    0.563E+00
DAV:   9    -0.521987990513E+03   -0.43731E-01   -0.32455E-01 13428   0.845E-01    0.169E+00
DAV:  10    -0.521990031042E+03   -0.20405E-02   -0.30197E-02 13080   0.266E-01    0.108E+00
DAV:  11    -0.521993807626E+03   -0.37766E-02   -0.44773E-03 12192   0.109E-01    0.702E-01
DAV:  12    -0.521997385626E+03   -0.35780E-02   -0.41100E-03 11124   0.105E-01    0.145E-01
DAV:  13    -0.521997866503E+03   -0.48088E-03   -0.77351E-04 14760   0.392E-02    0.161E-01
DAV:  14    -0.521997920148E+03   -0.53645E-04   -0.83676E-05 13152   0.128E-02    0.109E-01
DAV:  15    -0.521997995091E+03   -0.74943E-04   -0.62001E-05 10344   0.121E-02    0.488E-02
DAV:  16    -0.521998011121E+03   -0.16030E-04   -0.22311E-05  9120   0.693E-03    0.117E-02
DAV:  17    -0.521998015250E+03   -0.41290E-05   -0.62912E-06  6312   0.393E-03
   1 F= -.52199802E+03 E0= -.52199802E+03  d E =-.521998E+03  mag=     0.0055
       N       E                     dE             d eps       ncg     rms          rms(c)
DAV:   1    -0.521998975800E+03   -0.96468E-03   -0.22484E-03 10836   0.643E-02    0.559E-02
DAV:   2    -0.521998992245E+03   -0.16444E-04   -0.21231E-04 14352   0.212E-02    0.170E-02
DAV:   3    -0.521998990535E+03    0.17096E-05   -0.74627E-06  6552   0.481E-03    0.101E-02
DAV:   4    -0.521998989960E+03    0.57516E-06   -0.36767E-06  5868   0.330E-03
   2 F= -.52199899E+03 E0= -.52199899E+03  d E =-.974710E-03  mag=     0.0009
       N       E                     dE             d eps       ncg     rms          rms(c)
DAV:   1    -0.522004367566E+03   -0.53770E-02   -0.19270E-01 10608   0.591E-01    0.496E-01
DAV:   2    -0.522005767365E+03   -0.13998E-02   -0.17678E-02 13896   0.192E-01    0.147E-01
DAV:   3    -0.522005659176E+03    0.10819E-03   -0.77674E-04 13704   0.445E-02    0.910E-02
DAV:   4    -0.522005617218E+03    0.41958E-04   -0.13452E-04 13524   0.174E-02    0.423E-02
DAV:   5    -0.522005604802E+03    0.12416E-04   -0.26922E-05 10968   0.995E-03    0.219E-02
DAV:   6    -0.522005604217E+03    0.58483E-06   -0.13148E-05  7812   0.689E-03
   3 F= -.52200560E+03 E0= -.52200560E+03  d E =-.661426E-02  mag=     0.0001
       N       E                     dE             d eps       ncg     rms          rms(c)
DAV:   1    -0.522008938861E+03   -0.33341E-02   -0.68276E-01 10488   0.102E+00    0.536E-01
DAV:   2    -0.522013523948E+03   -0.45851E-02   -0.53229E-02 14016   0.324E-01    0.227E-01
DAV:   3    -0.522013312331E+03    0.21162E-03   -0.12955E-03 13104   0.579E-02    0.175E-01
DAV:   4    -0.522013200074E+03    0.11226E-03   -0.29797E-04 12540   0.239E-02    0.101E-01
DAV:   5    -0.522013171768E+03    0.28307E-04   -0.12184E-04 12684   0.165E-02    0.358E-02
DAV:   6    -0.522013174681E+03   -0.29137E-05   -0.43962E-05 12492   0.963E-03
   4 F= -.52201317E+03 E0= -.52201317E+03  d E =-.757046E-02  mag=     0.0000
       N       E                     dE             d eps       ncg     rms          rms(c)
DAV:   1    -0.522013163129E+03    0.86389E-05   -0.74049E-01 10512   0.108E+00    0.581E-01
DAV:   2    -0.522018659309E+03   -0.54962E-02   -0.61090E-02 14028   0.353E-01    0.225E-01
DAV:   3    -0.522018376011E+03    0.28330E-03   -0.12581E-03 12588   0.584E-02    0.179E-01
DAV:   4    -0.522018247759E+03    0.12825E-03   -0.40129E-04 12504   0.271E-02    0.103E-01
DAV:   5    -0.522018229469E+03    0.18291E-04   -0.13320E-04 13500   0.160E-02    0.353E-02
DAV:   6    -0.522018232615E+03   -0.31465E-05   -0.26633E-05 10116   0.734E-03
   5 F= -.52201823E+03 E0= -.52201823E+03  d E =-.505793E-02  mag=     0.0000
       N       E                     dE             d eps       ncg     rms          rms(c)
DAV:   1    -0.522009130193E+03    0.90993E-02   -0.15019E+00 10392   0.161E+00    0.936E-01
DAV:   2    -0.522020847451E+03   -0.11717E-01   -0.13311E-01 14496   0.532E-01    0.359E-01
DAV:   3    -0.522020189700E+03    0.65775E-03   -0.27148E-03 12588   0.868E-02    0.289E-01
DAV:   4    -0.522019959300E+03    0.23040E-03   -0.77737E-04 13272   0.383E-02    0.160E-01
DAV:   5    -0.522019893761E+03    0.65538E-04   -0.20368E-04 12552   0.223E-02    0.544E-02
DAV:   6    -0.522019899229E+03   -0.54673E-05   -0.10655E-04 13920   0.148E-02    0.406E-02
DAV:   7    -0.522019897766E+03    0.14632E-05   -0.15232E-05  6456   0.610E-03
   6 F= -.52201990E+03 E0= -.52201990E+03  d E =-.166515E-02  mag=     0.0000
       N       E                     dE             d eps       ncg     rms          rms(c)
DAV:   1    -0.521976752386E+03    0.43147E-01   -0.45366E+00 10368   0.285E+00    0.191E+00
DAV:   2    -0.522013310002E+03   -0.36558E-01   -0.42032E-01 14808   0.960E-01    0.653E-01
DAV:   3    -0.522011068616E+03    0.22414E-02   -0.99688E-03 12720   0.166E-01    0.502E-01
DAV:   4    -0.522010281399E+03    0.78722E-03   -0.28266E-03 13224   0.755E-02    0.243E-01
DAV:   5    -0.522010129958E+03    0.15144E-03   -0.60883E-04 12852   0.431E-02    0.977E-02
DAV:   6    -0.522010158970E+03   -0.29012E-04   -0.31346E-04 14172   0.260E-02    0.102E-01
DAV:   7    -0.522010146842E+03    0.12128E-04   -0.52902E-05 11292   0.105E-02    0.773E-02
DAV:   8    -0.522010138695E+03    0.81465E-05   -0.13308E-05  6372   0.584E-03
   7 F= -.52201014E+03 E0= -.52201014E+03  d E =0.975907E-02  mag=     0.0000
       N       E                     dE             d eps       ncg     rms          rms(c)
DAV:   1    -0.522008716230E+03    0.14306E-02   -0.19695E+00 10368   0.188E+00    0.122E+00
DAV:   2    -0.522024362778E+03   -0.15647E-01   -0.17965E-01 14424   0.628E-01    0.432E-01
DAV:   3    -0.522023408130E+03    0.95465E-03   -0.48489E-03 12912   0.116E-01    0.318E-01
DAV:   4    -0.522023021700E+03    0.38643E-03   -0.13119E-03 13200   0.528E-02    0.153E-01
DAV:   5    -0.522022956344E+03    0.65356E-04   -0.29466E-04 13068   0.307E-02    0.692E-02
DAV:   6    -0.522022968725E+03   -0.12381E-04   -0.14431E-04 13908   0.187E-02    0.675E-02
DAV:   7    -0.522022960744E+03    0.79815E-05   -0.33997E-05 10056   0.839E-03
   8 F= -.52202296E+03 E0= -.52202296E+03  d E =-.128220E-01  mag=     0.0000
       N       E                     dE             d eps       ncg     rms          rms(c)
DAV:   1    -0.522023069817E+03   -0.10109E-03   -0.87310E-02 10488   0.392E-01    0.289E-01
DAV:   2    -0.522023797128E+03   -0.72731E-03   -0.83031E-03 14808   0.133E-01    0.891E-02
DAV:   3    -0.522023747124E+03    0.50003E-04   -0.23211E-04 12696   0.244E-02    0.624E-02
DAV:   4    -0.522023734099E+03    0.13026E-04   -0.62020E-05 12504   0.110E-02    0.301E-02
DAV:   5    -0.522023731986E+03    0.21127E-05   -0.96360E-06  6552   0.550E-03
   9 F= -.52202373E+03 E0= -.52202373E+03  d E =-.771242E-03  mag=     0.0000
       N       E                     dE             d eps       ncg     rms          rms(c)
DAV:   1    -0.522022730786E+03    0.10033E-02   -0.26388E-01 10416   0.643E-01    0.349E-01
DAV:   2    -0.522024765747E+03   -0.20350E-02   -0.22986E-02 14688   0.216E-01    0.135E-01
DAV:   3    -0.522024659482E+03    0.10627E-03   -0.38020E-04 12480   0.315E-02    0.114E-01
DAV:   4    -0.522024626375E+03    0.33107E-04   -0.11285E-04 12936   0.141E-02    0.651E-02
DAV:   5    -0.522024616007E+03    0.10368E-04   -0.36623E-05 10728   0.895E-03    0.192E-02
DAV:   6    -0.522024616821E+03   -0.81414E-06   -0.12307E-05  6456   0.532E-03
  10 F= -.52202462E+03 E0= -.52202462E+03  d E =-.884835E-03  mag=     0.0000
