       N       E                     dE             d eps       ncg     rms          ort
DAV:   1     0.102837789885E+05    0.10284E+05   -0.42607E+05 10640   0.156E+03
DAV:   2    -0.142538711621E+03   -0.10426E+05   -0.98320E+04 10640   0.475E+02
DAV:   3    -0.154753011999E+04   -0.14050E+04   -0.13129E+04 10640   0.182E+02
DAV:   4    -0.162847088371E+04   -0.80941E+02   -0.78731E+02 10640   0.460E+01
DAV:   5    -0.163079331914E+04   -0.23224E+01   -0.23148E+01 10640   0.831E+00
SDA:   6    -0.765948050918E+03    0.86485E+03   -0.23148E+01 10640   0.283E+04 0.000E+00
CGA:   7    -0.116910583980E+04   -0.40316E+03   -0.39957E+03 10640   0.948E+03-0.150E+02
CGA:   8    -0.119176070595E+04   -0.22655E+02   -0.54098E+02 10640   0.963E+03-0.483E+03
CGA:   9    -0.121052287260E+04   -0.18762E+02   -0.46305E+02 10640   0.993E+03-0.675E+03
CGA:  10    -0.122319710936E+04   -0.12674E+02   -0.46994E+02 10640   0.871E+03-0.650E+03
CGA:  11    -0.123995406543E+04   -0.16757E+02   -0.36421E+02 10640   0.570E+03-0.518E+03
CGA:  12    -0.125189939455E+04   -0.11945E+02   -0.22410E+02 10640   0.313E+03-0.252E+03
CGA:  13    -0.127027568044E+04   -0.18376E+02   -0.13261E+02 10640   0.141E+03 0.476E+02
CGA:  14    -0.127782363631E+04   -0.75480E+01   -0.86383E+01 10640   0.182E+03-0.211E+02
CGA:  15    -0.128744847590E+04   -0.96248E+01   -0.12229E+02 10640   0.402E+03-0.211E+02
CGA:  16    -0.128906322254E+04   -0.16147E+01   -0.14355E+02 10640   0.347E+03-0.221E+03
CGA:  17    -0.129558494908E+04   -0.65217E+01   -0.11844E+02 10640   0.141E+03-0.211E+03
CGA:  18    -0.129819251142E+04   -0.26076E+01   -0.43727E+01 10640   0.459E+02-0.554E+02
CGA:  19    -0.130030437550E+04   -0.21119E+01   -0.17578E+01 10640   0.225E+02 0.329E+01
CGA:  20    -0.130146455969E+04   -0.11602E+01   -0.13757E+01 10640   0.328E+02-0.269E+01
CGA:  21    -0.130413328570E+04   -0.26687E+01   -0.25682E+01 10640   0.210E+02-0.200E+01
CGA:  22    -0.130480096748E+04   -0.66768E+00   -0.99530E+00 10640   0.714E+01-0.353E+01
CGA:  23    -0.130519655620E+04   -0.39559E+00   -0.44314E+00 10640   0.391E+01-0.171E+00
CGA:  24    -0.130569807973E+04   -0.50152E+00   -0.49133E+00 10640   0.229E+01 0.490E+00
CGA:  25    -0.130595337566E+04   -0.25530E+00   -0.25936E+00 10640   0.155E+01 0.188E-01
CGA:  26    -0.130617879837E+04   -0.22542E+00   -0.22522E+00 10640   0.121E+01-0.456E-01
CGA:  27    -0.130631003516E+04   -0.13124E+00   -0.13055E+00 10640   0.895E+00-0.119E+00
CGA:  28    -0.130641111108E+04   -0.10108E+00   -0.10185E+00 10640   0.109E+01-0.146E+00
CGA:  29    -0.130651633379E+04   -0.10522E+00   -0.10326E+00 10640   0.735E+00-0.293E+00
CGA:  30    -0.130658539500E+04   -0.69061E-01   -0.73335E-01 10640   0.680E+00-0.249E+00
CGA:  31    -0.130664837660E+04   -0.62982E-01   -0.77584E-01 10640   0.634E+00-0.288E+00
CGA:  32    -0.130668830494E+04   -0.39928E-01   -0.36741E-01 10640   0.295E+00-0.171E+00
CGA:  33    -0.130671673474E+04   -0.28430E-01   -0.55675E-01 10640   0.110E+01-0.199E+00
CGA:  34    -0.130676999011E+04   -0.53255E-01   -0.54094E-01 10640   0.128E+00-0.621E-02
CGA:  35    -0.130679583798E+04   -0.25848E-01   -0.24680E-01 10640   0.204E+00 0.170E-01
CGA:  36    -0.130683497344E+04   -0.39135E-01   -0.37782E-01 10640   0.817E-01 0.388E-01
CGA:  37    -0.130684570310E+04   -0.10730E-01   -0.10965E-01 10640   0.519E-01 0.141E-01
CGA:  38    -0.130685729806E+04   -0.11595E-01   -0.10686E-01 10640   0.295E-01 0.191E-01
CGA:  39    -0.130686120516E+04   -0.39071E-02   -0.41043E-02 10640   0.208E-01 0.606E-02
CGA:  40    -0.130686587790E+04   -0.46727E-02   -0.45521E-02 10640   0.247E-01 0.190E-02
CGA:  41    -0.130686893948E+04   -0.30616E-02   -0.30528E-02 10640   0.672E-02-0.112E-02
CGA:  42    -0.130686996432E+04   -0.10248E-02   -0.11696E-02 10640   0.138E-01-0.320E-02
CGA:  43    -0.130686972081E+04    0.24351E-03   -0.16309E-02 10640   0.179E-01-0.218E-01
CGA:  44    -0.130687150805E+04   -0.17872E-02   -0.16610E-02 10640   0.134E-01-0.272E-02
CGA:  45    -0.130686603515E+04    0.54729E-02   -0.67449E-02 10640   0.228E+00-0.265E-01
CGA:  46    -0.130687702119E+04   -0.10986E-01   -0.10923E-01 10640   0.213E-01-0.436E-03
CGA:  47    -0.130687939125E+04   -0.23701E-02   -0.23006E-02 10640   0.115E-01-0.153E-02
CGA:  48    -0.130688097971E+04   -0.15885E-02   -0.15782E-02 10640   0.576E-02-0.325E-02
CGA:  49    -0.130688132195E+04   -0.34224E-03   -0.23404E-03 10640   0.874E-03-0.114E-02
CGA:  50    -0.130688172189E+04   -0.39994E-03    0.53752E-04 10640   0.762E-03 0.190E-03
CGA:  51    -0.130688227344E+04   -0.55155E-03    0.65594E-04 10640   0.992E-03-0.243E-03
CGA:  52    -0.130688300303E+04   -0.72959E-03    0.18378E-04 10640   0.136E-02-0.993E-03
CGA:  53    -0.130688318340E+04   -0.18037E-03   -0.15012E-03 10640   0.194E-02-0.833E-03
CGA:  54    -0.130688333116E+04   -0.14776E-03   -0.10866E-03 10640   0.413E-03-0.441E-03
CGA:  55    -0.130688354355E+04   -0.21240E-03    0.16226E-04 10640   0.337E-03-0.689E-04
CGA:  56    -0.130688383798E+04   -0.29443E-03    0.71789E-05 10640   0.224E-03-0.974E-04
CGA:  57    -0.130688414417E+04   -0.30619E-03    0.19014E-05 10640   0.294E-03-0.715E-04
CGA:  58    -0.130688466255E+04   -0.51838E-03    0.16925E-05 10640   0.109E-03 0.648E-04
CGA:  59    -0.130688493929E+04   -0.27674E-03    0.14593E-05 10640   0.687E-04 0.384E-04
CGA:  60    -0.130688519739E+04   -0.25810E-03    0.72616E-06 10640   0.277E-04 0.327E-04
CGA:  61    -0.130688536354E+04   -0.16614E-03    0.21111E-06 10640   0.501E-04 0.785E-05
CGA:  62    -0.130688572779E+04   -0.36425E-03    0.23436E-06 10640   0.436E-04 0.366E-04
CGA:  63    -0.130688578284E+04   -0.55051E-04    0.87032E-06 10640   0.874E-04-0.323E-04
CGA:  64    -0.130688580834E+04   -0.25503E-04    0.14285E-03 10640   0.270E-03-0.133E-03
CGA:  65    -0.130688584844E+04   -0.40095E-04   -0.31412E-04 10640   0.559E-03-0.368E-03
CGA:  66    -0.130688588138E+04   -0.32943E-04   -0.28482E-04 10640   0.186E-04-0.501E-04
CGA:  67    -0.130688592074E+04   -0.39358E-04    0.14943E-06 10640   0.424E-04-0.116E-04
CGA:  68    -0.130688595825E+04   -0.37511E-04    0.12441E-05 10640   0.183E-03-0.740E-04
CGA:  69    -0.130688597920E+04   -0.20952E-04   -0.13098E-04 10640   0.103E-03-0.124E-03
CGA:  70    -0.130688572823E+04    0.25097E-03   -0.45365E-04 10640   0.957E-02-0.960E-03
CGA:  71    -0.130688611779E+04   -0.38956E-03   -0.38567E-03 10640   0.294E-04-0.290E-04
CGA:  72    -0.130688614486E+04   -0.27076E-04    0.91116E-06 10640   0.149E-03-0.556E-04
CGA:  73    -0.130688616745E+04   -0.22582E-04   -0.13809E-04 10640   0.240E-03-0.179E-03
CGA:  74    -0.130688618672E+04   -0.19272E-04   -0.12855E-04 10640   0.314E-04-0.749E-04
CGA:  75    -0.130688622146E+04   -0.34742E-04    0.29276E-06 10640   0.438E-04-0.167E-04
CGA:  76    -0.130688624440E+04   -0.22939E-04    0.31260E-05 10640   0.252E-03-0.965E-04
CGA:  77    -0.130688626358E+04   -0.19178E-04   -0.12795E-04 10640   0.287E-04-0.758E-04
CGA:  78    -0.130688629394E+04   -0.30358E-04    0.27263E-06 10640   0.398E-04-0.163E-04
CGA:  79    -0.130688631466E+04   -0.20727E-04    0.26052E-05 10640   0.215E-03-0.853E-04
CGA:  80    -0.130688633171E+04   -0.17046E-04   -0.11225E-04 10640   0.308E-04-0.741E-04
CGA:  81    -0.130688636011E+04   -0.28404E-04    0.27878E-06 10640   0.308E-04-0.139E-04
CGA:  82    -0.130688641358E+04   -0.53464E-04    0.92242E-07 10640   0.497E-05 0.191E-05
CGA:  83    -0.130688644401E+04   -0.30437E-04    0.15312E-07 10640   0.915E-05-0.395E-06
CGA:  84    -0.130688652176E+04   -0.77751E-04    0.15015E-07 10640   0.486E-05 0.737E-05
CGA:  85    -0.130688654036E+04   -0.18593E-04    0.21751E-07 10640   0.183E-04-0.558E-05
CGA:  86    -0.130688655538E+04   -0.15022E-04    0.51871E-06 10640   0.907E-04-0.370E-04
CGA:  87    -0.130688656649E+04   -0.11112E-04   -0.67697E-05 10640   0.823E-04-0.834E-04
CGA:  88    -0.130688657670E+04   -0.10213E-04   -0.64071E-05 10640   0.883E-04-0.824E-04
CGA:  89    -0.130688658712E+04   -0.10417E-04   -0.65840E-05 10640   0.798E-04-0.812E-04
CGA:  90    -0.130688659692E+04   -0.97984E-05   -0.64849E-05 10640   0.101E-03-0.870E-04
   1 F= -.13068866E+04 E0= -.13068659E+04  d E =-.130689E+04  mag=    47.0000
       N       E                     dE             d eps       ncg     rms          ort
SDA:   1    -0.130688754797E+04   -0.96085E-03    0.00000E+00 10640   0.469E-01 0.000E+00
CGA:   2    -0.130688937555E+04   -0.18276E-02   -0.18278E-02 10640   0.206E-02 0.223E-04
CGA:   3    -0.130689000083E+04   -0.62528E-03   -0.60867E-03 10640   0.857E-03 0.899E-04
CGA:   4    -0.130689014347E+04   -0.14264E-03   -0.15532E-03 10640   0.964E-03-0.237E-03
CGA:   5    -0.130689023000E+04   -0.86533E-04   -0.88041E-04 10640   0.349E-03-0.449E-03
CGA:   6    -0.130689024959E+04   -0.19591E-04   -0.32303E-04 10640   0.695E-03-0.253E-03
CGA:   7    -0.130689028500E+04   -0.35404E-04   -0.34486E-04 10640   0.114E-03-0.111E-04
CGA:   8    -0.130689030195E+04   -0.16952E-04   -0.17891E-04 10640   0.152E-03-0.248E-04
CGA:   9    -0.130689031855E+04   -0.16605E-04   -0.20254E-04 10640   0.938E-04-0.780E-04
CGA:  10    -0.130689033018E+04   -0.11629E-04   -0.10745E-04 10640   0.187E-03-0.772E-04
CGA:  11    -0.130689033939E+04   -0.92060E-05   -0.81658E-05 10640   0.902E-05-0.125E-04
   2 F= -.13068903E+04 E0= -.13068696E+04  d E =-.374247E-02  mag=    47.0000
       N       E                     dE             d eps       ncg     rms          ort
SDA:   1    -0.130665253766E+04    0.23779E+00    0.00000E+00 10640   0.815E+00 0.000E+00
CGA:   2    -0.130679411406E+04   -0.14158E+00   -0.14140E+00 10640   0.116E+01 0.381E-02
CGA:   3    -0.130688621112E+04   -0.92097E-01   -0.92177E-01 10640   0.278E+00 0.213E-02
CGA:   4    -0.130692043526E+04   -0.34224E-01   -0.34226E-01 10640   0.163E+00-0.144E-02
CGA:   5    -0.130693547811E+04   -0.15043E-01   -0.14984E-01 10640   0.282E-01-0.199E-02
CGA:   6    -0.130693831890E+04   -0.28408E-02   -0.28272E-02 10640   0.187E-01-0.694E-03
CGA:   7    -0.130694032261E+04   -0.20037E-02   -0.19981E-02 10640   0.578E-02-0.567E-03
CGA:   8    -0.130694084116E+04   -0.51855E-03   -0.51837E-03 10640   0.240E-02-0.266E-05
CGA:   9    -0.130694115270E+04   -0.31153E-03   -0.30724E-03 10640   0.106E-02 0.408E-03
CGA:  10    -0.130694123552E+04   -0.82819E-04   -0.91852E-04 10640   0.437E-03 0.207E-03
CGA:  11    -0.130694129236E+04   -0.56842E-04   -0.57999E-04 10640   0.179E-03 0.236E-03
CGA:  12    -0.130694131003E+04   -0.17668E-04   -0.18530E-04 10640   0.119E-03 0.722E-04
CGA:  13    -0.130694133943E+04   -0.29403E-04   -0.25999E-04 10640   0.694E-04 0.826E-04
CGA:  14    -0.130694134693E+04   -0.75037E-05   -0.76516E-05 10640   0.588E-04 0.213E-04
   3 F= -.13069413E+04 E0= -.13069207E+04  d E =-.510075E-01  mag=    47.0000
       N       E                     dE             d eps       ncg     rms          ort
SDA:   1    -0.130449969622E+04    0.24416E+01    0.00000E+00 10640   0.726E+01 0.000E+00
CGA:   2    -0.130573517419E+04   -0.12355E+01   -0.12364E+01 10640   0.956E+01-0.107E-01
CGA:   3    -0.130652276984E+04   -0.78760E+00   -0.78820E+00 10640   0.261E+01 0.109E-01
CGA:   4    -0.130682511286E+04   -0.30234E+00   -0.30234E+00 10640   0.156E+01-0.771E-03
CGA:   5    -0.130696902117E+04   -0.14391E+00   -0.14380E+00 10640   0.286E+00-0.463E-02
CGA:   6    -0.130699541562E+04   -0.26394E-01   -0.26351E-01 10640   0.162E+00-0.132E-02
CGA:   7    -0.130701461032E+04   -0.19195E-01   -0.19200E-01 10640   0.634E-01-0.130E-02
CGA:   8    -0.130702031747E+04   -0.57071E-02   -0.57033E-02 10640   0.223E-01-0.147E-03
CGA:   9    -0.130702407834E+04   -0.37609E-02   -0.36981E-02 10640   0.118E-01 0.121E-02
CGA:  10    -0.130702507031E+04   -0.99197E-03   -0.10125E-02 10640   0.567E-02 0.587E-03
CGA:  11    -0.130702588259E+04   -0.81228E-03   -0.79817E-03 10640   0.365E-02 0.739E-03
CGA:  12    -0.130702628637E+04   -0.40378E-03   -0.41113E-03 10640   0.142E-02 0.453E-03
CGA:  13    -0.130702653093E+04   -0.24456E-03   -0.24022E-03 10640   0.146E-02 0.124E-03
CGA:  14    -0.130702675389E+04   -0.22295E-03   -0.22379E-03 10640   0.697E-03-0.366E-04
CGA:  15    -0.130702682494E+04   -0.71051E-04   -0.71650E-04 10640   0.476E-03 0.467E-04
CGA:  16    -0.130702689424E+04   -0.69304E-04   -0.68174E-04 10640   0.290E-03 0.658E-04
CGA:  17    -0.130702693680E+04   -0.42556E-04   -0.42409E-04 10640   0.215E-03 0.134E-04
CGA:  18    -0.130702695481E+04   -0.18013E-04   -0.20623E-04 10640   0.105E-03 0.948E-04
CGA:  19    -0.130702696525E+04   -0.10441E-04   -0.13181E-04 10640   0.770E-04 0.891E-04
CGA:  20    -0.130702697800E+04   -0.12751E-04   -0.12689E-04 10640   0.149E-03 0.112E-05
CGA:  21    -0.130702699046E+04   -0.12455E-04   -0.14508E-04 10640   0.775E-04 0.914E-04
CGA:  22    -0.130702699173E+04   -0.12690E-05   -0.36655E-05 10640   0.287E-04 0.343E-04
   4 F= -.13070270E+04 E0= -.13070066E+04  d E =-.856448E-01  mag=    47.0000
       N       E                     dE             d eps       ncg     rms          ort
SDA:   1    -0.130642122847E+04    0.60576E+00    0.00000E+00 10640   0.205E+01 0.000E+00
CGA:   2    -0.130676566942E+04   -0.34444E+00   -0.34436E+00 10640   0.162E+01 0.191E-02
CGA:   3    -0.130690076460E+04   -0.13510E+00   -0.13519E+00 10640   0.755E+00 0.239E-02
CGA:   4    -0.130700155040E+04   -0.10079E+00   -0.10073E+00 10640   0.416E+00 0.306E-02
CGA:   5    -0.130703331889E+04   -0.31768E-01   -0.31771E-01 10640   0.687E-01 0.131E-03
CGA:   6    -0.130704071149E+04   -0.73926E-02   -0.73929E-02 10640   0.429E-01 0.149E-03
CGA:   7    -0.130704474284E+04   -0.40313E-02   -0.40318E-02 10640   0.110E-01 0.702E-04
CGA:   8    -0.130704603301E+04   -0.12902E-02   -0.12904E-02 10640   0.741E-02-0.338E-04
CGA:   9    -0.130704692758E+04   -0.89457E-03   -0.89369E-03 10640   0.225E-02 0.887E-04
CGA:  10    -0.130704715555E+04   -0.22797E-03   -0.22999E-03 10640   0.150E-02 0.197E-03
CGA:  11    -0.130704735977E+04   -0.20422E-03   -0.20143E-03 10640   0.671E-03 0.215E-03
CGA:  12    -0.130704742328E+04   -0.63508E-04   -0.66939E-04 10640   0.321E-03 0.142E-03
CGA:  13    -0.130704747584E+04   -0.52555E-04   -0.49421E-04 10640   0.200E-03 0.185E-03
CGA:  14    -0.130704749801E+04   -0.22171E-04   -0.22172E-04 10640   0.203E-03 0.190E-04
CGA:  15    -0.130704753046E+04   -0.32453E-04   -0.29874E-04 10640   0.131E-03 0.108E-03
CGA:  16    -0.130704753741E+04   -0.69500E-05   -0.88680E-05 10640   0.624E-04 0.430E-04
   5 F= -.13070475E+04 E0= -.13070273E+04  d E =-.205457E-01  mag=    47.0000
       N       E                     dE             d eps       ncg     rms          ort
SDA:   1    -0.130541762594E+04    0.16299E+01    0.00000E+00 10640   0.481E+01 0.000E+00
CGA:   2    -0.130634122433E+04   -0.92360E+00   -0.92340E+00 10640   0.449E+01 0.420E-02
CGA:   3    -0.130672450707E+04   -0.38328E+00   -0.38323E+00 10640   0.192E+01 0.427E-02
CGA:   4    -0.130694993481E+04   -0.22543E+00   -0.22543E+00 10640   0.919E+00 0.112E-02
CGA:   5    -0.130702793825E+04   -0.78003E-01   -0.77935E-01 10640   0.159E+00-0.171E-02
CGA:   6    -0.130704358266E+04   -0.15644E-01   -0.15656E-01 10640   0.108E+00 0.114E-02
CGA:   7    -0.130705447946E+04   -0.10897E-01   -0.10902E-01 10640   0.254E-01 0.652E-03
CGA:   8    -0.130705763535E+04   -0.31559E-02   -0.31662E-02 10640   0.177E-01-0.699E-03
CGA:   9    -0.130705969842E+04   -0.20631E-02   -0.20662E-02 10640   0.587E-02-0.300E-03
CGA:  10    -0.130706029710E+04   -0.59868E-03   -0.59655E-03 10640   0.437E-02-0.280E-03
CGA:  11    -0.130706094402E+04   -0.64692E-03   -0.69442E-03 10640   0.329E-02-0.841E-03
CGA:  12    -0.130706115949E+04   -0.21547E-03   -0.21022E-03 10640   0.113E-02-0.153E-03
CGA:  13    -0.130706141027E+04   -0.25078E-03   -0.29690E-03 10640   0.286E-02-0.286E-03
CGA:  14    -0.130706160825E+04   -0.19797E-03   -0.17946E-03 10640   0.785E-03-0.530E-03
CGA:  15    -0.130706167757E+04   -0.69323E-04   -0.13402E-03 10640   0.288E-02-0.710E-03
CGA:  16    -0.130706183287E+04   -0.15530E-03   -0.16498E-03 10640   0.341E-03 0.152E-03
CGA:  17    -0.130706189357E+04   -0.60699E-04   -0.68088E-04 10640   0.958E-03-0.105E-03
CGA:  18    -0.130706198066E+04   -0.87091E-04   -0.95844E-04 10640   0.784E-03-0.411E-03
CGA:  19    -0.130706201294E+04   -0.32279E-04   -0.23961E-04 10640   0.418E-03-0.119E-03
CGA:  20    -0.130706204788E+04   -0.34936E-04   -0.32122E-04 10640   0.559E-03-0.958E-04
CGA:  21    -0.130706210114E+04   -0.53265E-04   -0.95477E-04 10640   0.180E-02-0.422E-03
CGA:  22    -0.130706221335E+04   -0.11221E-03   -0.10815E-03 10640   0.291E-03-0.611E-04
CGA:  23    -0.130706223755E+04   -0.24196E-04   -0.23335E-04 10640   0.164E-03-0.224E-04
CGA:  24    -0.130706213476E+04    0.10279E-03   -0.62667E-04 10640   0.184E-02-0.351E-03
CGA:  25    -0.130706225900E+04   -0.12424E-03   -0.11813E-03 10640   0.563E-03-0.371E-04
CGA:  26    -0.130706232684E+04   -0.67840E-04   -0.67233E-04 10640   0.391E-03-0.668E-05
CGA:  27    -0.130706235639E+04   -0.29556E-04   -0.33675E-04 10640   0.305E-04 0.353E-04
CGA:  28    -0.130706206661E+04    0.28978E-03   -0.15768E-03 10640   0.588E-02-0.306E-03
CGA:  29    -0.130706237519E+04   -0.30858E-03   -0.33171E-03 10640   0.250E-03 0.858E-04
CGA:  30    -0.130706239497E+04   -0.19772E-04   -0.18855E-04 10640   0.880E-04-0.303E-05
CGA:  31    -0.130706241981E+04   -0.24841E-04   -0.21366E-04 10640   0.168E-03-0.395E-04
CGA:  32    -0.130706242613E+04   -0.63274E-05   -0.47275E-05 10640   0.583E-04-0.572E-05
   6 F= -.13070624E+04 E0= -.13070426E+04  d E =-.148887E-01  mag=    47.0000
       N       E                     dE             d eps       ncg     rms          ort
SDA:   1    -0.130493954286E+04    0.21229E+01    0.00000E+00 10640   0.606E+01 0.000E+00
CGA:   2    -0.130620189396E+04   -0.12624E+01   -0.12617E+01 10640   0.528E+01-0.126E-02
CGA:   3    -0.130665832907E+04   -0.45644E+00   -0.45765E+00 10640   0.247E+01-0.825E-04
CGA:   4    -0.130694889945E+04   -0.29057E+00   -0.29109E+00 10640   0.109E+01-0.230E-02
CGA:   5    -0.130703036662E+04   -0.81467E-01   -0.80060E-01 10640   0.190E+00 0.125E-01
CGA:   6    -0.130705343579E+04   -0.23069E-01   -0.23111E-01 10640   0.121E+00 0.197E-03
CGA:   7    -0.130706507552E+04   -0.11640E-01   -0.11699E-01 10640   0.351E-01 0.542E-03
CGA:   8    -0.130706906955E+04   -0.39940E-02   -0.39045E-02 10640   0.215E-01-0.651E-03
CGA:   9    -0.130707185497E+04   -0.27854E-02   -0.27043E-02 10640   0.827E-02-0.690E-03
CGA:  10    -0.130707272189E+04   -0.86691E-03   -0.81664E-03 10640   0.509E-02-0.360E-03
CGA:  11    -0.130707371853E+04   -0.99665E-03   -0.94851E-03 10640   0.566E-02-0.128E-02
CGA:  12    -0.130707412445E+04   -0.40592E-03   -0.31009E-03 10640   0.192E-02-0.630E-03
CGA:  13    -0.130707455268E+04   -0.42823E-03   -0.47272E-03 10640   0.557E-02-0.819E-03
CGA:  14    -0.130707499517E+04   -0.44249E-03   -0.28175E-03 10640   0.275E-02-0.120E-02
CGA:  15    -0.130707522834E+04   -0.23317E-03   -0.13801E-03 10640   0.142E-02-0.629E-03
CGA:  16    -0.130707543512E+04   -0.20678E-03   -0.32262E-03 10640   0.787E-02-0.140E-02
CGA:  17    -0.130707584926E+04   -0.41414E-03   -0.43196E-03 10640   0.847E-03 0.122E-03
CGA:  18    -0.130707592771E+04   -0.78444E-04   -0.77331E-04 10640   0.578E-03-0.867E-05
CGA:  19    -0.130707610722E+04   -0.17951E-03   -0.23128E-03 10640   0.106E-02-0.256E-03
CGA:  20    -0.130707614305E+04   -0.35831E-04   -0.31250E-04 10640   0.461E-03-0.300E-04
CGA:  21    -0.130707618344E+04   -0.40389E-04   -0.40476E-04 10640   0.568E-03 0.110E-06
CGA:  22    -0.130707624593E+04   -0.62491E-04   -0.57057E-04 10640   0.394E-03-0.581E-04
CGA:  23    -0.130707628834E+04   -0.42414E-04   -0.29418E-04 10640   0.223E-03-0.119E-03
CGA:  24    -0.130707631765E+04   -0.29302E-04   -0.26885E-04 10640   0.685E-03-0.165E-03
CGA:  25    -0.130707635131E+04   -0.33664E-04   -0.36106E-04 10640   0.117E-03 0.190E-04
CGA:  26    -0.130707637436E+04   -0.23048E-04   -0.25345E-04 10640   0.324E-03-0.731E-04
CGA:  27    -0.130707639917E+04   -0.24808E-04   -0.20473E-04 10640   0.562E-04-0.360E-04
CGA:  28    -0.130707640702E+04   -0.78534E-05   -0.10631E-04 10640   0.359E-03-0.744E-04
CGA:  29    -0.130707642300E+04   -0.15976E-04   -0.15922E-04 10640   0.254E-04 0.113E-06
CGA:  30    -0.130707643428E+04   -0.11285E-04    0.73054E-05 10640   0.480E-04-0.946E-05
CGA:  31    -0.130707646625E+04   -0.31966E-04    0.12247E-05 10640   0.632E-04 0.166E-04
CGA:  32    -0.130707650898E+04   -0.42738E-04    0.15551E-04 10640   0.107E-03-0.473E-04
CGA:  33    -0.130707651699E+04   -0.80058E-05   -0.70254E-05 10640   0.155E-04-0.910E-05
   7 F= -.13070765E+04 E0= -.13070574E+04  d E =-.140909E-01  mag=    47.0000
       N       E                     dE             d eps       ncg     rms          ort
SDA:   1    -0.130624680250E+04    0.82971E+00    0.00000E+00 10640   0.417E+01 0.000E+00
CGA:   2    -0.130652952042E+04   -0.28272E+00   -0.27895E+00 10640   0.227E+01 0.424E-01
CGA:   3    -0.130689846444E+04   -0.36894E+00   -0.36887E+00 10640   0.834E+00-0.166E-02
CGA:   4    -0.130702678202E+04   -0.12832E+00   -0.12832E+00 10640   0.451E+00 0.244E-03
CGA:   5    -0.130706844355E+04   -0.41662E-01   -0.41717E-01 10640   0.851E-01 0.956E-03
CGA:   6    -0.130707634763E+04   -0.79041E-02   -0.78904E-02 10640   0.419E-01-0.559E-04
CGA:   7    -0.130708115420E+04   -0.48066E-02   -0.48079E-02 10640   0.184E-01 0.249E-04
CGA:   8    -0.130708268930E+04   -0.15351E-02   -0.15218E-02 10640   0.660E-02-0.125E-03
CGA:   9    -0.130708382504E+04   -0.11357E-02   -0.11429E-02 10640   0.511E-02-0.967E-03
CGA:  10    -0.130708424411E+04   -0.41907E-03   -0.38673E-03 10640   0.157E-02-0.409E-03
CGA:  11    -0.130708451233E+04   -0.26822E-03   -0.33403E-03 10640   0.458E-02-0.966E-03
CGA:  12    -0.130708474218E+04   -0.22985E-03   -0.22456E-03 10640   0.481E-03-0.404E-04
CGA:  13    -0.130708482215E+04   -0.79963E-04   -0.82259E-04 10640   0.103E-02-0.197E-03
CGA:  14    -0.130708476950E+04    0.52648E-04   -0.22055E-03 10640   0.290E-02-0.137E-02
CGA:  15    -0.130708504418E+04   -0.27468E-03   -0.25266E-03 10640   0.171E-02-0.259E-03
CGA:  16    -0.130708525605E+04   -0.21187E-03   -0.20334E-03 10640   0.106E-02-0.231E-03
CGA:  17    -0.130708533930E+04   -0.83246E-04   -0.75712E-04 10640   0.160E-03-0.894E-04
CGA:  18    -0.130708534443E+04   -0.51353E-05   -0.46041E-04 10640   0.148E-02-0.266E-03
CGA:  19    -0.130708541306E+04   -0.68628E-04   -0.71549E-04 10640   0.715E-04 0.263E-04
CGA:  20    -0.130708542486E+04   -0.11796E-04   -0.13143E-04 10640   0.230E-03-0.765E-04
CGA:  21    -0.130708544432E+04   -0.19463E-04   -0.15124E-04 10640   0.556E-04-0.439E-04
CGA:  22    -0.130708543945E+04    0.48662E-05   -0.14059E-04 10640   0.782E-03-0.123E-03
CGA:  23    -0.130708548188E+04   -0.42426E-04   -0.36883E-04 10640   0.533E-04-0.456E-04
CGA:  24    -0.130708548162E+04    0.26490E-06   -0.13505E-04 10640   0.533E-03-0.127E-03
CGA:  25    -0.130708551083E+04   -0.29209E-04   -0.27702E-04 10640   0.565E-04-0.124E-04
CGA:  26    -0.130708551737E+04   -0.65441E-05   -0.50613E-05 10640   0.285E-04-0.214E-04
   8 F= -.13070855E+04 E0= -.13070669E+04  d E =-.900038E-02  mag=    47.0000
       N       E                     dE             d eps       ncg     rms          ort
SDA:   1    -0.130680693874E+04    0.27857E+00    0.00000E+00 10640   0.832E+00 0.000E+00
CGA:   2    -0.130696823303E+04   -0.16129E+00   -0.16121E+00 10640   0.807E+00 0.244E-02
CGA:   3    -0.130702999928E+04   -0.61766E-01   -0.61364E-01 10640   0.330E+00 0.109E-02
CGA:   4    -0.130707654783E+04   -0.46549E-01   -0.46519E-01 10640   0.126E+00-0.200E-02
CGA:   5    -0.130708662050E+04   -0.10073E-01   -0.10189E-01 10640   0.243E-01 0.177E-02
CGA:   6    -0.130708987191E+04   -0.32514E-02   -0.32446E-02 10640   0.158E-01-0.352E-03
CGA:   7    -0.130709119906E+04   -0.13271E-02   -0.13250E-02 10640   0.433E-02-0.172E-04
CGA:   8    -0.130709168280E+04   -0.48374E-03   -0.48396E-03 10640   0.267E-02 0.953E-05
CGA:   9    -0.130709203804E+04   -0.35525E-03   -0.35110E-03 10640   0.123E-02-0.314E-03
CGA:  10    -0.130709215401E+04   -0.11597E-03   -0.11091E-03 10640   0.658E-03-0.120E-03
CGA:  11    -0.130709225293E+04   -0.98912E-04   -0.10560E-03 10640   0.764E-03-0.186E-03
CGA:  12    -0.130709231621E+04   -0.63282E-04   -0.51249E-04 10640   0.306E-03-0.241E-03
CGA:  13    -0.130709225608E+04    0.60124E-04   -0.99636E-04 10640   0.316E-02-0.478E-03
CGA:  14    -0.130709242399E+04   -0.16790E-03   -0.16268E-03 10640   0.248E-03-0.465E-04
CGA:  15    -0.130709245004E+04   -0.26055E-04   -0.24466E-04 10640   0.206E-03-0.300E-04
CGA:  16    -0.130709245938E+04   -0.93424E-05   -0.69905E-04 10640   0.897E-03-0.257E-03
CGA:  17    -0.130709250129E+04   -0.41905E-04   -0.45143E-04 10640   0.135E-03 0.305E-04
CGA:  18    -0.130709251874E+04   -0.17448E-04   -0.17992E-04 10640   0.916E-04 0.200E-04
CGA:  19    -0.130709253376E+04   -0.15026E-04   -0.14399E-04 10640   0.527E-04-0.354E-04
CGA:  20    -0.130709254481E+04   -0.11051E-04    0.22426E-04 10640   0.580E-04-0.379E-04
CGA:  21    -0.130709254796E+04   -0.31483E-05   -0.37024E-05 10640   0.155E-04 0.624E-05
   9 F= -.13070925E+04 E0= -.13070741E+04  d E =-.703059E-02  mag=    47.0000
       N       E                     dE             d eps       ncg     rms          ort
SDA:   1    -0.130651721085E+04    0.57533E+00    0.00000E+00 10640   0.161E+01 0.000E+00
CGA:   2    -0.130685785290E+04   -0.34064E+00   -0.34055E+00 10640   0.154E+01 0.177E-02
CGA:   3    -0.130698115682E+04   -0.12330E+00   -0.12263E+00 10640   0.662E+00 0.293E-02
CGA:   4    -0.130706414980E+04   -0.82993E-01   -0.83012E-01 10640   0.265E+00 0.117E-02
CGA:   5    -0.130708467369E+04   -0.20524E-01   -0.20686E-01 10640   0.479E-01 0.255E-02
CGA:   6    -0.130709100254E+04   -0.63289E-02   -0.63302E-02 10640   0.303E-01 0.124E-03
CGA:   7    -0.130709373764E+04   -0.27351E-02   -0.27496E-02 10640   0.787E-02 0.309E-03
CGA:   8    -0.130709470171E+04   -0.96407E-03   -0.95863E-03 10640   0.627E-02-0.265E-03
CGA:   9    -0.130709537358E+04   -0.67187E-03   -0.65719E-03 10640   0.191E-02-0.466E-03
CGA:  10    -0.130709561412E+04   -0.24054E-03   -0.23987E-03 10640   0.155E-02-0.258E-03
CGA:  11    -0.130709582021E+04   -0.20609E-03   -0.21563E-03 10640   0.131E-02-0.420E-03
CGA:  12    -0.130709591208E+04   -0.91871E-04   -0.77006E-04 10640   0.532E-03-0.255E-03
CGA:  13    -0.130709598287E+04   -0.70787E-04   -0.15655E-03 10640   0.198E-02-0.375E-03
CGA:  14    -0.130709610046E+04   -0.11759E-03   -0.11316E-03 10640   0.190E-03-0.468E-04
CGA:  15    -0.130709613074E+04   -0.30283E-04   -0.30796E-04 10640   0.333E-03-0.221E-04
CGA:  16    -0.130709617629E+04   -0.45547E-04   -0.49153E-04 10640   0.252E-03-0.158E-03
CGA:  17    -0.130709619449E+04   -0.18202E-04   -0.14712E-04 10640   0.196E-03-0.101E-03
CGA:  18    -0.130709623071E+04   -0.36222E-04    0.12041E-03 10640   0.120E-03 0.239E-04
CGA:  19    -0.130709572986E+04    0.50086E-03   -0.26983E-03 10640   0.960E-02-0.810E-03
CGA:  20    -0.130709624319E+04   -0.51333E-03   -0.51873E-03 10640   0.877E-03 0.400E-04
CGA:  21    -0.130709632749E+04   -0.84307E-04   -0.85608E-04 10640   0.478E-03 0.939E-05
CGA:  22    -0.130709640746E+04   -0.79969E-04   -0.74596E-04 10640   0.177E-03-0.597E-04
CGA:  23    -0.130709642331E+04   -0.15845E-04   -0.12268E-04 10640   0.364E-04-0.221E-04
CGA:  24    -0.130709642812E+04   -0.48152E-05   -0.48445E-05 10640   0.453E-04 0.404E-06
CGA:  25    -0.130709643814E+04   -0.10018E-04   -0.12006E-04 10640   0.175E-03-0.579E-04
CGA:  26    -0.130709644503E+04   -0.68851E-05   -0.80388E-05 10640   0.182E-04 0.651E-05
  10 F= -.13070964E+04 E0= -.13070784E+04  d E =-.389706E-02  mag=    47.0000
       N       E                     dE             d eps       ncg     rms          ort
SDA:   1    -0.130633116272E+04    0.76528E+00    0.00000E+00 10640   0.222E+01 0.000E+00
CGA:   2    -0.130676397351E+04   -0.43281E+00   -0.43287E+00 10640   0.214E+01 0.111E-02
CGA:   3    -0.130693216263E+04   -0.16819E+00   -0.16577E+00 10640   0.884E+00 0.241E-01
CGA:   4    -0.130705326319E+04   -0.12110E+00   -0.12105E+00 10640   0.359E+00 0.257E-05
CGA:   5    -0.130708205034E+04   -0.28787E-01   -0.28850E-01 10640   0.627E-01 0.252E-03
CGA:   6    -0.130709073535E+04   -0.86850E-02   -0.86850E-02 10640   0.377E-01 0.423E-04
CGA:   7    -0.130709393392E+04   -0.31986E-02   -0.32191E-02 10640   0.112E-01 0.210E-03
CGA:   8    -0.130709528909E+04   -0.13552E-02   -0.13475E-02 10640   0.722E-02-0.103E-03
CGA:   9    -0.130709613091E+04   -0.84183E-03   -0.81649E-03 10640   0.246E-02-0.341E-03
CGA:  10    -0.130709640835E+04   -0.27744E-03   -0.26193E-03 10640   0.194E-02-0.215E-03
CGA:  11    -0.130709666659E+04   -0.25824E-03   -0.24787E-03 10640   0.104E-02-0.258E-03
CGA:  12    -0.130709678331E+04   -0.11671E-03   -0.99657E-04 10640   0.680E-03-0.252E-03
CGA:  13    -0.130709688696E+04   -0.10365E-03   -0.15139E-03 10640   0.173E-02-0.402E-03
CGA:  14    -0.130709697970E+04   -0.92743E-04   -0.87000E-04 10640   0.231E-03-0.428E-04
CGA:  15    -0.130709702287E+04   -0.43166E-04   -0.44324E-04 10640   0.426E-03-0.511E-04
CGA:  16    -0.130709707603E+04   -0.53161E-04   -0.47191E-04 10640   0.204E-03-0.182E-03
CGA:  17    -0.130709700962E+04    0.66416E-04   -0.50563E-04 10640   0.299E-02-0.451E-03
CGA:  18    -0.130709715344E+04   -0.14382E-03   -0.15164E-03 10640   0.272E-03 0.624E-04
CGA:  19    -0.130709717677E+04   -0.23335E-04   -0.23666E-04 10640   0.127E-03 0.394E-05
CGA:  20    -0.130709678330E+04    0.39348E-03   -0.21237E-03 10640   0.568E-02-0.577E-03
CGA:  21    -0.130709706146E+04   -0.27816E-03   -0.30423E-03 10640   0.828E-03 0.114E-03
CGA:  22    -0.130709721784E+04   -0.15638E-03   -0.15540E-03 10640   0.105E-02-0.755E-05
CGA:  23    -0.130709731282E+04   -0.94976E-04   -0.87260E-04 10640   0.130E-03-0.342E-04
CGA:  24    -0.130709732292E+04   -0.10106E-04   -0.96810E-05 10640   0.296E-04-0.178E-05
CGA:  25    -0.130709731724E+04    0.56848E-05   -0.19048E-04 10640   0.494E-03-0.659E-04
CGA:  26    -0.130709734663E+04   -0.29393E-04   -0.27605E-04 10640   0.561E-04-0.682E-05
CGA:  27    -0.130709735506E+04   -0.84253E-05   -0.68235E-05 10640   0.383E-04-0.986E-05
  11 F= -.13070974E+04 E0= -.13070797E+04  d E =-.910030E-03  mag=    47.0000
       N       E                     dE             d eps       ncg     rms          ort
SDA:   1    -0.130671736949E+04    0.37998E+00    0.00000E+00 10640   0.112E+01 0.000E+00
CGA:   2    -0.130694761890E+04   -0.23025E+00   -0.23014E+00 10640   0.886E+00-0.173E-02
CGA:   3    -0.130702161762E+04   -0.73999E-01   -0.73816E-01 10640   0.467E+00 0.551E-02
CGA:   4    -0.130708313463E+04   -0.61517E-01   -0.61725E-01 10640   0.132E+00 0.186E-02
CGA:   5    -0.130709361413E+04   -0.10480E-01   -0.10453E-01 10640   0.368E-01 0.213E-03
CGA:   6    -0.130709791769E+04   -0.43036E-02   -0.43466E-02 10640   0.186E-01 0.373E-03
CGA:   7    -0.130709947075E+04   -0.15531E-02   -0.15931E-02 10640   0.575E-02 0.287E-03
CGA:   8    -0.130710028267E+04   -0.81192E-03   -0.80164E-03 10640   0.375E-02-0.108E-03
CGA:   9    -0.130710062262E+04   -0.33996E-03   -0.34765E-03 10640   0.909E-03 0.627E-04
CGA:  10    -0.130710077324E+04   -0.15062E-03   -0.14814E-03 10640   0.104E-02-0.423E-04
CGA:  11    -0.130710086799E+04   -0.94745E-04   -0.94168E-04 10640   0.264E-03-0.425E-05
CGA:  12    -0.130710089411E+04   -0.26118E-04   -0.29212E-04 10640   0.186E-03 0.317E-04
CGA:  13    -0.130710092658E+04   -0.32472E-04   -0.34103E-04 10640   0.971E-04 0.403E-04
CGA:  14    -0.130710093292E+04   -0.63434E-05   -0.97345E-05 10640   0.431E-04 0.282E-04
  12 F= -.13071009E+04 E0= -.13070832E+04  d E =-.357787E-02  mag=    47.0000
       N       E                     dE             d eps       ncg     rms          ort
SDA:   1    -0.130701633736E+04    0.84589E-01    0.00000E+00 10640   0.248E+00 0.000E+00
CGA:   2    -0.130706896998E+04   -0.52633E-01   -0.52632E-01 10640   0.170E+00 0.573E-04
CGA:   3    -0.130708757799E+04   -0.18608E-01   -0.18586E-01 10640   0.970E-01-0.129E-03
CGA:   4    -0.130709852157E+04   -0.10944E-01   -0.10941E-01 10640   0.318E-01 0.290E-04
CGA:   5    -0.130710102854E+04   -0.25070E-02   -0.24732E-02 10640   0.735E-02-0.310E-03
CGA:   6    -0.130710193614E+04   -0.90760E-03   -0.91073E-03 10640   0.387E-02 0.627E-04
CGA:   7    -0.130710227768E+04   -0.34155E-03   -0.34519E-03 10640   0.125E-02 0.451E-04
CGA:   8    -0.130710242413E+04   -0.14644E-03   -0.14518E-03 10640   0.790E-03-0.210E-04
CGA:   9    -0.130710249949E+04   -0.75360E-04   -0.77872E-04 10640   0.235E-03 0.370E-04
CGA:  10    -0.130710251945E+04   -0.19965E-04   -0.23315E-04 10640   0.112E-03 0.474E-04
CGA:  11    -0.130710254673E+04   -0.27282E-04   -0.28059E-04 10640   0.105E-03-0.169E-04
CGA:  12    -0.130710254809E+04   -0.13597E-05   -0.45189E-05 10640   0.365E-04 0.278E-04
  13 F= -.13071025E+04 E0= -.13070848E+04  d E =-.161517E-02  mag=    47.0000
       N       E                     dE             d eps       ncg     rms          ort
SDA:   1    -0.130705125036E+04    0.51296E-01    0.00000E+00 10640   0.154E+00 0.000E+00
CGA:   2    -0.130708101259E+04   -0.29762E-01   -0.29762E-01 10640   0.136E+00 0.580E-04
CGA:   3    -0.130709267067E+04   -0.11658E-01   -0.11656E-01 10640   0.602E-01 0.768E-05
CGA:   4    -0.130710074518E+04   -0.80745E-02   -0.80791E-02 10640   0.239E-01 0.264E-03
CGA:   5    -0.130710257881E+04   -0.18336E-02   -0.18329E-02 10640   0.451E-02 0.300E-04
CGA:   6    -0.130710312244E+04   -0.54363E-03   -0.54375E-03 10640   0.309E-02 0.699E-05
CGA:   7    -0.130710336548E+04   -0.24304E-03   -0.25255E-03 10640   0.669E-03 0.151E-03
CGA:   8    -0.130710347811E+04   -0.11263E-03   -0.11488E-03 10640   0.695E-03-0.107E-03
CGA:   9    -0.130710354410E+04   -0.65990E-04   -0.61289E-04 10640   0.219E-03-0.121E-03
CGA:  10    -0.130710356480E+04   -0.20704E-04   -0.19825E-04 10640   0.159E-03-0.269E-04
CGA:  11    -0.130710306372E+04    0.50108E-03   -0.27016E-03 10640   0.647E-02-0.809E-03
CGA:  12    -0.130710343687E+04   -0.37315E-03   -0.37583E-03 10640   0.131E-02 0.188E-04
CGA:  13    -0.130710360505E+04   -0.16818E-03   -0.17620E-03 10640   0.576E-03 0.726E-04
CGA:  14    -0.130710365102E+04   -0.45967E-04   -0.47357E-04 10640   0.101E-03 0.905E-05
CGA:  15    -0.130710366767E+04   -0.16647E-04   -0.16845E-04 10640   0.112E-03 0.303E-05
CGA:  16    -0.130710367500E+04   -0.73294E-05   -0.99803E-05 10640   0.249E-04 0.188E-04
  14 F= -.13071037E+04 E0= -.13070860E+04  d E =-.112690E-02  mag=    47.0000
       N       E                     dE             d eps       ncg     rms          ort
SDA:   1    -0.130366207046E+04    0.34416E+01    0.00000E+00 10640   0.111E+02 0.000E+00
CGA:   2    -0.130551952643E+04   -0.18575E+01   -0.18607E+01 10640   0.847E+01 0.179E-01
CGA:   3    -0.130631397893E+04   -0.79445E+00   -0.77909E+00 10640   0.420E+01 0.121E+00
CGA:   4    -0.130682796015E+04   -0.51398E+00   -0.51391E+00 10640   0.236E+01 0.632E-02
CGA:   5    -0.130702505679E+04   -0.19710E+00   -0.19702E+00 10640   0.305E+00 0.578E-02
CGA:   6    -0.130706244456E+04   -0.37388E-01   -0.37392E-01 10640   0.182E+00-0.174E-03
CGA:   7    -0.130708041956E+04   -0.17975E-01   -0.18140E-01 10640   0.517E-01 0.210E-02
CGA:   8    -0.130708622283E+04   -0.58033E-02   -0.57696E-02 10640   0.354E-01-0.434E-03
CGA:   9    -0.130709045702E+04   -0.42342E-02   -0.41672E-02 10640   0.127E-01-0.102E-02
CGA:  10    -0.130709168985E+04   -0.12328E-02   -0.12121E-02 10640   0.641E-02-0.246E-03
CGA:  11    -0.130709283767E+04   -0.11478E-02   -0.11546E-02 10640   0.468E-02-0.103E-02
CGA:  12    -0.130709322426E+04   -0.38659E-03   -0.33594E-03 10640   0.192E-02-0.552E-03
CGA:  13    -0.130709352455E+04   -0.30030E-03   -0.30274E-03 10640   0.300E-02-0.392E-03
CGA:  14    -0.130709385694E+04   -0.33239E-03   -0.30218E-03 10640   0.692E-03-0.651E-03
CGA:  15    -0.130709393544E+04   -0.78495E-04   -0.18402E-03 10640   0.396E-02-0.627E-03
CGA:  16    -0.130709413292E+04   -0.19748E-03   -0.19589E-03 10640   0.300E-03-0.929E-05
CGA:  17    -0.130709417607E+04   -0.43150E-04   -0.41747E-04 10640   0.397E-03-0.418E-04
CGA:  18    -0.130709424689E+04   -0.70818E-04   -0.11707E-03 10640   0.828E-03-0.271E-03
CGA:  19    -0.130709429621E+04   -0.49325E-04   -0.47993E-04 10640   0.214E-03-0.991E-05
CGA:  20    -0.130709433927E+04   -0.43060E-04   -0.63898E-04 10640   0.733E-03-0.162E-03
CGA:  21    -0.130709437663E+04   -0.37355E-04   -0.37342E-04 10640   0.709E-04 0.114E-05
CGA:  22    -0.130709438770E+04   -0.11072E-04   -0.94956E-05 10640   0.106E-03-0.395E-04
CGA:  23    -0.130709439539E+04   -0.76883E-05   -0.69069E-05 10640   0.300E-04-0.722E-05
  15 F= -.13070944E+04 E0= -.13070771E+04  d E =0.927961E-02  mag=    47.0000
       N       E                     dE             d eps       ncg     rms          ort
SDA:   1    -0.130558161991E+04    0.15128E+01    0.00000E+00 10640   0.487E+01 0.000E+00
CGA:   2    -0.130647688322E+04   -0.89526E+00   -0.89514E+00 10640   0.288E+01 0.416E-02
CGA:   3    -0.130679759845E+04   -0.32072E+00   -0.31946E+00 10640   0.192E+01 0.410E-02
CGA:   4    -0.130701943649E+04   -0.22184E+00   -0.22176E+00 10640   0.811E+00-0.202E-02
CGA:   5    -0.130707685652E+04   -0.57420E-01   -0.57373E-01 10640   0.133E+00 0.157E-03
CGA:   6    -0.130709433154E+04   -0.17475E-01   -0.17458E-01 10640   0.768E-01-0.576E-03
CGA:   7    -0.130710119369E+04   -0.68622E-02   -0.68007E-02 10640   0.226E-01-0.870E-03
CGA:   8    -0.130710410177E+04   -0.29081E-02   -0.29113E-02 10640   0.148E-01 0.152E-03
CGA:   9    -0.130710565877E+04   -0.15570E-02   -0.15527E-02 10640   0.435E-02-0.767E-04
CGA:  10    -0.130710622664E+04   -0.56787E-03   -0.56285E-03 10640   0.365E-02-0.258E-03
CGA:  11    -0.130710658455E+04   -0.35791E-03   -0.36469E-03 10640   0.999E-03 0.163E-03
CGA:  12    -0.130710670344E+04   -0.11889E-03   -0.11730E-03 10640   0.943E-03-0.463E-04
CGA:  13    -0.130710687787E+04   -0.17444E-03   -0.20576E-03 10640   0.116E-02-0.373E-03
CGA:  14    -0.130710693379E+04   -0.55920E-04   -0.47780E-04 10640   0.353E-03-0.102E-03
CGA:  15    -0.130710698316E+04   -0.49365E-04   -0.50543E-04 10640   0.797E-03-0.985E-04
CGA:  16    -0.130710706385E+04   -0.80693E-04   -0.73663E-04 10640   0.527E-03-0.417E-03
CGA:  17    -0.130710712771E+04   -0.63861E-04   -0.58141E-04 10640   0.440E-03-0.167E-03
CGA:  18    -0.130710716026E+04   -0.32544E-04   -0.33928E-04 10640   0.197E-03 0.467E-04
CGA:  19    -0.130710716916E+04   -0.89029E-05   -0.12680E-04 10640   0.458E-04 0.457E-04
CGA:  20    -0.130710717781E+04   -0.86544E-05   -0.14452E-04 10640   0.311E-03-0.488E-04
CGA:  21    -0.130710719569E+04   -0.17876E-04   -0.17860E-04 10640   0.320E-04 0.285E-06
CGA:  22    -0.130710719990E+04   -0.42062E-05   -0.60126E-05 10640   0.153E-03-0.369E-04
  16 F= -.13071072E+04 E0= -.13070896E+04  d E =-.128045E-01  mag=    47.0000
       N       E                     dE             d eps       ncg     rms          ort
SDA:   1    -0.130696025339E+04    0.14694E+00    0.00000E+00 10640   0.479E+00 0.000E+00
CGA:   2    -0.130704854668E+04   -0.88293E-01   -0.88353E-01 10640   0.278E+00-0.116E-02
CGA:   3    -0.130707692260E+04   -0.28376E-01   -0.28415E-01 10640   0.192E+00 0.192E-02
CGA:   4    -0.130709979150E+04   -0.22869E-01   -0.22868E-01 10640   0.704E-01-0.156E-04
CGA:   5    -0.130710507704E+04   -0.52855E-02   -0.52735E-02 10640   0.142E-01-0.120E-03
CGA:   6    -0.130710675183E+04   -0.16748E-02   -0.16771E-02 10640   0.714E-02 0.169E-03
CGA:   7    -0.130710748899E+04   -0.73716E-03   -0.72756E-03 10640   0.239E-02-0.297E-03
CGA:   8    -0.130710776565E+04   -0.27666E-03   -0.27586E-03 10640   0.167E-02-0.772E-04
CGA:   9    -0.130710792444E+04   -0.15879E-03   -0.15823E-03 10640   0.463E-03-0.161E-04
CGA:  10    -0.130710799638E+04   -0.71940E-04   -0.84532E-04 10640   0.872E-03-0.225E-03
CGA:  11    -0.130710802999E+04   -0.33610E-04   -0.31858E-04 10640   0.383E-03-0.290E-04
CGA:  12    -0.130710804166E+04   -0.11673E-04   -0.14945E-04 10640   0.125E-03 0.377E-04
CGA:  13    -0.130710805137E+04   -0.97011E-05   -0.10483E-04 10640   0.145E-03 0.165E-04
CGA:  14    -0.130710807407E+04   -0.22700E-04   -0.29294E-04 10640   0.301E-03-0.117E-03
CGA:  15    -0.130710809388E+04   -0.19810E-04   -0.18462E-04 10640   0.590E-04-0.209E-04
CGA:  16    -0.130710810133E+04   -0.74504E-05   -0.94594E-05 10640   0.141E-03-0.393E-04
  17 F= -.13071081E+04 E0= -.13070906E+04  d E =-.901431E-03  mag=    47.0000
       N       E                     dE             d eps       ncg     rms          ort
SDA:   1    -0.130707365856E+04    0.34435E-01    0.00000E+00 10640   0.120E+00 0.000E+00
CGA:   2    -0.130709416026E+04   -0.20502E-01   -0.20483E-01 10640   0.697E-01 0.403E-03
CGA:   3    -0.130710155065E+04   -0.73904E-02   -0.73863E-02 10640   0.452E-01-0.245E-03
CGA:   4    -0.130710679909E+04   -0.52484E-02   -0.52506E-02 10640   0.220E-01 0.465E-03
CGA:   5    -0.130710847644E+04   -0.16774E-02   -0.16743E-02 10640   0.327E-02-0.501E-04
CGA:   6    -0.130710890697E+04   -0.43053E-03   -0.43036E-03 10640   0.166E-02 0.161E-04
CGA:   7    -0.130710904176E+04   -0.13479E-03   -0.14163E-03 10640   0.414E-03 0.198E-03
CGA:   8    -0.130710910717E+04   -0.65410E-04   -0.65091E-04 10640   0.359E-03 0.143E-04
CGA:   9    -0.130710914344E+04   -0.36268E-04   -0.36407E-04 10640   0.970E-04 0.691E-05
CGA:  10    -0.130710914776E+04   -0.43194E-05   -0.65024E-05 10640   0.409E-04 0.419E-04
  18 F= -.13071091E+04 E0= -.13070916E+04  d E =-.104643E-02  mag=    47.0000
       N       E                     dE             d eps       ncg     rms          ort
SDA:   1    -0.130708566036E+04    0.23483E-01    0.00000E+00 10640   0.838E-01 0.000E+00
CGA:   2    -0.130709568196E+04   -0.10022E-01   -0.10016E-01 10640   0.834E-01 0.117E-02
CGA:   3    -0.130710440111E+04   -0.87191E-02   -0.87121E-02 10640   0.279E-01-0.559E-03
CGA:   4    -0.130710799586E+04   -0.35948E-02   -0.35963E-02 10640   0.183E-01-0.769E-04
CGA:   5    -0.130710941822E+04   -0.14224E-02   -0.14523E-02 10640   0.227E-02 0.858E-03
CGA:   6    -0.130710968274E+04   -0.26452E-03   -0.26499E-03 10640   0.108E-02 0.257E-03
CGA:   7    -0.130710981964E+04   -0.13691E-03   -0.13688E-03 10640   0.476E-03 0.433E-04
CGA:   8    -0.130710985214E+04   -0.32497E-04   -0.36322E-04 10640   0.145E-03 0.965E-04
CGA:   9    -0.130710987565E+04   -0.23509E-04   -0.22562E-04 10640   0.701E-04 0.523E-04
CGA:  10    -0.130710988789E+04   -0.12239E-04   -0.12424E-04 10640   0.727E-04-0.101E-04
CGA:  11    -0.130710988853E+04   -0.64538E-06   -0.27813E-05 10640   0.387E-04 0.313E-04
  19 F= -.13071099E+04 E0= -.13070924E+04  d E =-.740772E-03  mag=    47.0000
       N       E                     dE             d eps       ncg     rms          ort
SDA:   1    -0.130675660381E+04    0.35328E+00    0.00000E+00 10640   0.104E+01 0.000E+00
CGA:   2    -0.130696914426E+04   -0.21254E+00   -0.21245E+00 10640   0.726E+00 0.109E-02
CGA:   3    -0.130703988358E+04   -0.70739E-01   -0.70761E-01 10640   0.447E+00 0.248E-02
CGA:   4    -0.130709348441E+04   -0.53601E-01   -0.53586E-01 10640   0.127E+00 0.169E-02
CGA:   5    -0.130710418801E+04   -0.10704E-01   -0.10688E-01 10640   0.301E-01-0.392E-03
CGA:   6    -0.130710769942E+04   -0.35114E-02   -0.35043E-02 10640   0.167E-01 0.931E-03
CGA:   7    -0.130710918747E+04   -0.14881E-02   -0.14928E-02 10640   0.512E-02 0.222E-03
CGA:   8    -0.130710983964E+04   -0.65218E-03   -0.65291E-03 10640   0.322E-02-0.362E-04
CGA:   9    -0.130711018043E+04   -0.34078E-03   -0.34084E-03 10640   0.100E-02 0.299E-04
CGA:  10    -0.130711027624E+04   -0.95815E-04   -0.97675E-04 10640   0.559E-03 0.149E-03
CGA:  11    -0.130711037008E+04   -0.93840E-04   -0.92518E-04 10640   0.282E-03 0.372E-04
CGA:  12    -0.130711039600E+04   -0.25916E-04   -0.26991E-04 10640   0.115E-03 0.534E-04
CGA:  13    -0.130711040398E+04   -0.79792E-05   -0.10799E-04 10640   0.663E-04 0.937E-04
  20 F= -.13071104E+04 E0= -.13070929E+04  d E =-.515444E-03  mag=    47.0000
       N       E                     dE             d eps       ncg     rms          ort
SDA:   1    -0.130705336992E+04    0.57026E-01    0.00000E+00 10640   0.184E+00 0.000E+00
CGA:   2    -0.130708936262E+04   -0.35993E-01   -0.36116E-01 10640   0.939E-01-0.134E-02
CGA:   3    -0.130710003474E+04   -0.10672E-01   -0.10672E-01 10640   0.853E-01 0.211E-03
CGA:   4    -0.130710902965E+04   -0.89949E-02   -0.89905E-02 10640   0.164E-01-0.814E-03
CGA:   5    -0.130711046727E+04   -0.14376E-02   -0.14346E-02 10640   0.581E-02-0.122E-03
CGA:   6    -0.130711109672E+04   -0.62945E-03   -0.62946E-03 10640   0.205E-02 0.118E-03
CGA:   7    -0.130711129941E+04   -0.20269E-03   -0.20214E-03 10640   0.988E-03-0.409E-04
CGA:   8    -0.130711142310E+04   -0.12368E-03   -0.12508E-03 10640   0.588E-03-0.668E-04
CGA:   9    -0.130711146742E+04   -0.44318E-04   -0.45048E-04 10640   0.144E-03 0.271E-04
CGA:  10    -0.130711150096E+04   -0.33544E-04    0.24755E-03 10640   0.616E-04 0.646E-04
CGA:  11    -0.130711152053E+04   -0.19575E-04    0.37173E-03 10640   0.275E-04 0.355E-04
CGA:  12    -0.130711152486E+04   -0.43311E-05   -0.60971E-05 10640   0.121E-03-0.156E-04
  21 F= -.13071115E+04 E0= -.13070940E+04  d E =-.112089E-02  mag=    47.0000
       N       E                     dE             d eps       ncg     rms          ort
SDA:   1    -0.130710254386E+04    0.89767E-02    0.00000E+00 10640   0.619E-01 0.000E+00
CGA:   2    -0.130710605226E+04   -0.35084E-02   -0.34770E-02 10640   0.200E-01-0.574E-03
CGA:   3    -0.130710993778E+04   -0.38855E-02   -0.39181E-02 10640   0.942E-02-0.358E-03
CGA:   4    -0.130711096210E+04   -0.10243E-02   -0.10248E-02 10640   0.600E-02 0.190E-03
CGA:   5    -0.130711158668E+04   -0.62457E-03   -0.62350E-03 10640   0.114E-02-0.907E-04
CGA:   6    -0.130711168136E+04   -0.94687E-04   -0.93645E-04 10640   0.491E-03-0.342E-04
CGA:   7    -0.130711173563E+04   -0.54264E-04   -0.54178E-04 10640   0.156E-03 0.341E-04
CGA:   8    -0.130711175770E+04   -0.22071E-04   -0.31743E-04 10640   0.337E-03-0.123E-03
CGA:   9    -0.130711177012E+04   -0.12423E-04   -0.15466E-04 10640   0.325E-04 0.443E-04
CGA:  10    -0.130711177467E+04   -0.45450E-05   -0.48012E-05 10640   0.434E-04-0.135E-04
  22 F= -.13071118E+04 E0= -.13070942E+04  d E =-.249801E-03  mag=    47.0000
