       N       E                     dE             d eps       ncg     rms          ort
DAV:   1     0.102899538864E+05    0.10290E+05   -0.42546E+05 10640   0.155E+03
DAV:   2    -0.114964066432E+03   -0.10405E+05   -0.98202E+04 10640   0.474E+02
DAV:   3    -0.152284206407E+04   -0.14079E+04   -0.13118E+04 10640   0.182E+02
DAV:   4    -0.160485054250E+04   -0.82008E+02   -0.79773E+02 10640   0.461E+01
DAV:   5    -0.160722125022E+04   -0.23707E+01   -0.23632E+01 10640   0.838E+00
SDA:   6    -0.728343571104E+03    0.87888E+03   -0.23632E+01 10640   0.289E+04 0.000E+00
CGA:   7    -0.114303670193E+04   -0.41469E+03   -0.40948E+03 10640   0.818E+03-0.206E+02
CGA:   8    -0.116804189781E+04   -0.25005E+02   -0.43889E+02 10640   0.790E+03-0.301E+03
CGA:   9    -0.120134504591E+04   -0.33303E+02   -0.28719E+02 10640   0.628E+03-0.168E+03
CGA:  10    -0.122196491592E+04   -0.20620E+02   -0.26150E+02 10640   0.365E+03-0.123E+03
CGA:  11    -0.123623162626E+04   -0.14267E+02   -0.16010E+02 10640   0.291E+03-0.380E+02
CGA:  12    -0.124265740693E+04   -0.64258E+01   -0.13706E+02 10640   0.635E+03-0.158E+03
CGA:  13    -0.123240053367E+04    0.10257E+02   -0.29417E+02 10640   0.112E+04-0.534E+03
CGA:  14    -0.121747022634E+04    0.14930E+02   -0.46970E+02 10640   0.153E+04-0.108E+04
CGA:  15    -0.120337744609E+04    0.14093E+02   -0.62284E+02 10640   0.222E+04-0.172E+04
CGA:  16    -0.119379995138E+04    0.95775E+01   -0.92420E+02 10640   0.206E+04-0.180E+04
CGA:  17    -0.120728869240E+04   -0.13489E+02   -0.78048E+02 10640   0.215E+04-0.229E+04
CGA:  18    -0.121289022224E+04   -0.56015E+01   -0.80625E+02 10640   0.181E+04-0.184E+04
CGA:  19    -0.123088916507E+04   -0.17999E+02   -0.61515E+02 10640   0.164E+04-0.193E+04
CGA:  20    -0.123342599411E+04   -0.25368E+01   -0.57554E+02 10640   0.149E+04-0.148E+04
CGA:  21    -0.124243893684E+04   -0.90129E+01   -0.49907E+02 10640   0.131E+04-0.144E+04
CGA:  22    -0.124816218329E+04   -0.57232E+01   -0.44050E+02 10640   0.112E+04-0.119E+04
CGA:  23    -0.125528664354E+04   -0.71245E+01   -0.36717E+02 10640   0.831E+03-0.939E+03
CGA:  24    -0.126337610761E+04   -0.80895E+01   -0.25677E+02 10640   0.491E+03-0.636E+03
CGA:  25    -0.126940064477E+04   -0.60245E+01   -0.13998E+02 10640   0.176E+03-0.266E+03
CGA:  26    -0.127259118132E+04   -0.31905E+01   -0.41662E+01 10640   0.219E+02-0.421E+02
CGA:  27    -0.127358847830E+04   -0.99730E+00   -0.10626E+01 10640   0.182E+02-0.207E+00
CGA:  28    -0.127545271853E+04   -0.18642E+01   -0.18452E+01 10640   0.237E+02 0.158E+01
CGA:  29    -0.127751450093E+04   -0.20618E+01   -0.21483E+01 10640   0.100E+02 0.201E+01
CGA:  30    -0.127817728012E+04   -0.66278E+00   -0.69105E+00 10640   0.465E+01-0.280E+00
CGA:  31    -0.127881801725E+04   -0.64074E+00   -0.62454E+00 10640   0.552E+01 0.136E+00
CGA:  32    -0.127951843840E+04   -0.70042E+00   -0.69456E+00 10640   0.424E+01-0.113E+00
CGA:  33    -0.127999991574E+04   -0.48148E+00   -0.48523E+00 10640   0.288E+01-0.374E+00
CGA:  34    -0.128036596507E+04   -0.36605E+00   -0.39865E+00 10640   0.273E+01-0.633E+00
CGA:  35    -0.128074059830E+04   -0.37463E+00   -0.44673E+00 10640   0.240E+01-0.789E+00
CGA:  36    -0.128096458553E+04   -0.22399E+00   -0.24584E+00 10640   0.180E+01-0.596E+00
CGA:  37    -0.128120499224E+04   -0.24041E+00   -0.30516E+00 10640   0.202E+01-0.560E+00
CGA:  38    -0.128137138528E+04   -0.16639E+00   -0.16765E+00 10640   0.715E+00-0.297E+00
CGA:  39    -0.128153323605E+04   -0.16185E+00   -0.19424E+00 10640   0.104E+01-0.150E+00
CGA:  40    -0.128162730142E+04   -0.94065E-01   -0.94313E-01 10640   0.360E+00-0.202E-01
CGA:  41    -0.128170805116E+04   -0.80750E-01   -0.74051E-01 10640   0.242E+00 0.776E-01
CGA:  42    -0.128176223729E+04   -0.54186E-01   -0.50235E-01 10640   0.133E+00 0.931E-01
CGA:  43    -0.128179546679E+04   -0.33229E-01   -0.30259E-01 10640   0.945E-01 0.876E-01
CGA:  44    -0.128180679262E+04   -0.11326E-01   -0.11566E-01 10640   0.601E-01 0.238E-01
CGA:  45    -0.128181855304E+04   -0.11760E-01   -0.11076E-01 10640   0.452E-01 0.449E-01
CGA:  46    -0.128182442777E+04   -0.58747E-02   -0.59154E-02 10640   0.276E-01 0.219E-01
CGA:  47    -0.128183010933E+04   -0.56816E-02   -0.55679E-02 10640   0.274E-01 0.335E-01
CGA:  48    -0.128183408689E+04   -0.39776E-02   -0.38518E-02 10640   0.195E-01 0.158E-01
CGA:  49    -0.128183726388E+04   -0.31770E-02   -0.29162E-02 10640   0.166E-01 0.158E-01
CGA:  50    -0.128184000343E+04   -0.27396E-02   -0.24991E-02 10640   0.146E-01 0.145E-01
CGA:  51    -0.128184268754E+04   -0.26841E-02   -0.23494E-02 10640   0.132E-01 0.131E-01
CGA:  52    -0.128184497489E+04   -0.22873E-02   -0.20540E-02 10640   0.121E-01 0.117E-01
CGA:  53    -0.128184735601E+04   -0.23811E-02   -0.20481E-02 10640   0.116E-01 0.102E-01
CGA:  54    -0.128184915920E+04   -0.18032E-02   -0.17251E-02 10640   0.118E-01 0.832E-02
CGA:  55    -0.128185091191E+04   -0.17527E-02   -0.17172E-02 10640   0.132E-01 0.610E-02
CGA:  56    -0.128185228638E+04   -0.13745E-02   -0.14981E-02 10640   0.118E-01 0.477E-02
CGA:  57    -0.128185652395E+04   -0.42376E-02   -0.32820E-02 10640   0.105E-01 0.144E-01
CGA:  58    -0.128185802352E+04   -0.14996E-02   -0.14970E-02 10640   0.123E-01 0.221E-02
CGA:  59    -0.128186490071E+04   -0.68772E-02   -0.47418E-02 10640   0.894E-02 0.119E-01
CGA:  60    -0.128186613651E+04   -0.12358E-02   -0.12498E-02 10640   0.777E-02 0.130E-02
CGA:  61    -0.128188053491E+04   -0.14398E-01   -0.13250E-01 10640   0.121E-01 0.554E-02
CGA:  62    -0.128188216487E+04   -0.16300E-02   -0.13669E-02 10640   0.484E-02-0.170E-02
CGA:  63    -0.128188485350E+04   -0.26886E-02    0.25260E-02 10640   0.588E-02 0.223E-02
CGA:  64    -0.128188963318E+04   -0.47797E-02    0.24060E-01 10640   0.926E-02 0.228E-02
CGA:  65    -0.128189865183E+04   -0.90187E-02    0.52700E-02 10640   0.596E-02 0.693E-02
CGA:  66    -0.128189937970E+04   -0.72787E-03   -0.62194E-03 10640   0.225E-02-0.663E-03
CGA:  67    -0.128190065284E+04   -0.12731E-02    0.10941E-02 10640   0.319E-02 0.737E-03
CGA:  68    -0.128190361308E+04   -0.29602E-02    0.15283E-02 10640   0.278E-02 0.176E-02
CGA:  69    -0.128190399883E+04   -0.38575E-03   -0.33762E-03 10640   0.173E-02-0.336E-03
CGA:  70    -0.128190526584E+04   -0.12670E-02    0.28698E-03 10640   0.159E-02 0.103E-02
CGA:  71    -0.128190560043E+04   -0.33460E-03   -0.55714E-03 10640   0.109E-01-0.222E-02
CGA:  72    -0.128190652173E+04   -0.92129E-03   -0.88304E-03 10640   0.100E-02-0.197E-03
CGA:  73    -0.128190703756E+04   -0.51583E-03    0.19518E-02 10640   0.234E-02-0.449E-04
CGA:  74    -0.128190915745E+04   -0.21199E-02    0.30044E-03 10640   0.212E-02 0.170E-02
CGA:  75    -0.128190952528E+04   -0.36784E-03   -0.29790E-03 10640   0.132E-02-0.659E-03
CGA:  76    -0.128191019695E+04   -0.67167E-03    0.20636E-03 10640   0.160E-02 0.320E-03
CGA:  77    -0.128191147447E+04   -0.12775E-02    0.73175E-03 10640   0.174E-02 0.188E-03
CGA:  78    -0.128191311050E+04   -0.16360E-02    0.31658E-03 10640   0.107E-02 0.990E-03
CGA:  79    -0.128191331754E+04   -0.20704E-03   -0.15807E-03 10640   0.922E-03-0.524E-03
CGA:  80    -0.128191376922E+04   -0.45168E-03    0.53832E-04 10640   0.829E-03 0.276E-03
CGA:  81    -0.128191431571E+04   -0.54649E-03    0.17903E-02 10640   0.189E-02-0.399E-03
CGA:  82    -0.128191549429E+04   -0.11786E-02    0.75392E-04 10640   0.540E-02-0.345E-03
CGA:  83    -0.128191885324E+04   -0.33590E-02    0.85959E-03 10640   0.959E-02-0.287E-02
CGA:  84    -0.128191956076E+04   -0.70751E-03   -0.72735E-03 10640   0.170E-03 0.122E-03
CGA:  85    -0.128191956644E+04   -0.56884E-05   -0.14285E-04 10640   0.404E-04 0.589E-04
   1 F= -.12819196E+04 E0= -.12819095E+04  d E =-.128192E+04  mag=    47.0000
       N       E                     dE             d eps       ncg     rms          ort
SDA:   1    -0.128192747398E+04   -0.79132E-02    0.00000E+00 10640   0.813E-02 0.000E+00
CGA:   2    -0.128192936238E+04   -0.18884E-02   -0.18687E-02 10640   0.385E-02 0.114E-02
CGA:   3    -0.128193016231E+04   -0.79993E-03   -0.77849E-03 10640   0.298E-02-0.596E-03
CGA:   4    -0.128193037397E+04   -0.21166E-03   -0.23727E-03 10640   0.507E-03 0.224E-03
CGA:   5    -0.128193040355E+04   -0.29580E-04   -0.45416E-04 10640   0.209E-03 0.130E-03
CGA:   6    -0.128193045145E+04   -0.47901E-04   -0.46221E-04 10640   0.222E-03-0.723E-04
CGA:   7    -0.128193047560E+04   -0.24144E-04   -0.19929E-04 10640   0.165E-03-0.692E-04
CGA:   8    -0.128193047492E+04    0.67709E-06   -0.63157E-05 10640   0.126E-03 0.499E-04
   2 F= -.12819305E+04 E0= -.12819204E+04  d E =-.109085E-01  mag=    47.0000
       N       E                     dE             d eps       ncg     rms          ort
SDA:   1    -0.127905698582E+04    0.28735E+01    0.00000E+00 10640   0.813E+01 0.000E+00
CGA:   2    -0.128116878488E+04   -0.21118E+01   -0.21133E+01 10640   0.501E+01-0.875E-02
CGA:   3    -0.128182542904E+04   -0.65664E+00   -0.66441E+00 10640   0.203E+01-0.421E-02
CGA:   4    -0.128209310320E+04   -0.26767E+00   -0.26550E+00 10640   0.378E+00-0.430E-02
CGA:   5    -0.128214877146E+04   -0.55668E-01   -0.55528E-01 10640   0.138E+00-0.439E-02
CGA:   6    -0.128217007761E+04   -0.21306E-01   -0.21265E-01 10640   0.465E-01-0.171E-02
CGA:   7    -0.128217695959E+04   -0.68820E-02   -0.68525E-02 10640   0.238E-01-0.112E-02
CGA:   8    -0.128218047732E+04   -0.35177E-02   -0.35265E-02 10640   0.786E-02 0.398E-03
CGA:   9    -0.128218227757E+04   -0.18002E-02   -0.18191E-02 10640   0.529E-02-0.365E-03
CGA:  10    -0.128218310744E+04   -0.82988E-03   -0.83155E-03 10640   0.282E-02 0.133E-03
CGA:  11    -0.128218331567E+04   -0.20823E-03   -0.16828E-02 10640   0.178E-01-0.363E-02
CGA:  12    -0.128218459658E+04   -0.12809E-02   -0.13451E-02 10640   0.265E-02 0.710E-03
CGA:  13    -0.128218522942E+04   -0.63284E-03   -0.64083E-03 10640   0.189E-02-0.194E-03
CGA:  14    -0.128218562357E+04   -0.39415E-03   -0.45589E-03 10640   0.274E-02-0.917E-03
CGA:  15    -0.128218556992E+04    0.53643E-04   -0.72786E-03 10640   0.946E-02-0.246E-02
CGA:  16    -0.128218658274E+04   -0.10128E-02   -0.10577E-02 10640   0.308E-02 0.434E-03
CGA:  17    -0.128218733818E+04   -0.75543E-03   -0.76187E-03 10640   0.228E-02-0.223E-03
CGA:  18    -0.128218770929E+04   -0.37111E-03   -0.35691E-03 10640   0.843E-03-0.352E-03
CGA:  19    -0.128218800596E+04   -0.29667E-03    0.13578E-01 10640   0.841E-03 0.135E-03
CGA:  20    -0.128218834281E+04   -0.33685E-03   -0.41105E-03 10640   0.176E-02-0.346E-03
CGA:  21    -0.128218881994E+04   -0.47713E-03    0.19517E-02 10640   0.172E-02-0.228E-03
CGA:  22    -0.128218955190E+04   -0.73196E-03    0.13567E-02 10640   0.200E-02 0.237E-03
CGA:  23    -0.128218161452E+04    0.79374E-02   -0.41313E-02 10640   0.822E-01-0.987E-02
CGA:  24    -0.128219001527E+04   -0.84008E-02   -0.80990E-02 10640   0.175E-01-0.348E-02
CGA:  25    -0.128219313782E+04   -0.31225E-02   -0.32638E-02 10640   0.333E-02 0.751E-03
CGA:  26    -0.128219346245E+04   -0.32463E-03   -0.39543E-03 10640   0.940E-03 0.272E-03
CGA:  27    -0.128219361289E+04   -0.15044E-03   -0.19114E-03 10640   0.439E-03 0.235E-03
CGA:  28    -0.128219365881E+04   -0.45917E-04   -0.91250E-04 10640   0.237E-03 0.244E-03
CGA:  29    -0.128219366616E+04   -0.73474E-05   -0.32311E-04 10640   0.164E-03 0.121E-03
CGA:  30    -0.128219367220E+04   -0.60436E-05   -0.23221E-04 10640   0.141E-03 0.897E-04
CGA:  31    -0.128219367824E+04   -0.60405E-05   -0.19190E-04 10640   0.126E-03 0.702E-04
CGA:  32    -0.128219367031E+04    0.79347E-05   -0.23066E-04 10640   0.942E-04 0.162E-03
   3 F= -.12821937E+04 E0= -.12821852E+04  d E =-.263195E+00  mag=    47.0000
       N       E                     dE             d eps       ncg     rms          ort
SDA:   1    -0.126832123740E+04    0.13872E+02    0.00000E+00 10640   0.395E+02 0.000E+00
CGA:   2    -0.127736486669E+04   -0.90436E+01   -0.90383E+01 10640   0.223E+02 0.127E-01
CGA:   3    -0.128071107807E+04   -0.33462E+01   -0.34340E+01 10640   0.104E+02-0.262E+00
CGA:   4    -0.128199372963E+04   -0.12827E+01   -0.12737E+01 10640   0.184E+01 0.634E-01
CGA:   5    -0.128225885676E+04   -0.26513E+00   -0.26392E+00 10640   0.622E+00 0.766E-02
CGA:   6    -0.128235477024E+04   -0.95913E-01   -0.95553E-01 10640   0.212E+00-0.107E-01
CGA:   7    -0.128238878116E+04   -0.34011E-01   -0.33411E-01 10640   0.103E+00-0.340E-02
CGA:   8    -0.128240640197E+04   -0.17621E-01   -0.17447E-01 10640   0.455E-01-0.281E-02
CGA:   9    -0.128241582662E+04   -0.94247E-02   -0.92239E-02 10640   0.326E-01-0.467E-02
CGA:  10    -0.128242255661E+04   -0.67300E-02   -0.65906E-02 10640   0.256E-01-0.544E-02
CGA:  11    -0.128242896973E+04   -0.64131E-02   -0.73138E-02 10640   0.363E-01-0.955E-02
CGA:  12    -0.128243335673E+04   -0.43870E-02   -0.35986E-02 10640   0.203E-01-0.851E-02
CGA:  13    -0.128243589226E+04   -0.25355E-02   -0.89084E-02 10640   0.806E-01-0.195E-01
CGA:  14    -0.128244346765E+04   -0.75754E-02   -0.76986E-02 10640   0.156E-01 0.785E-03
CGA:  15    -0.128244655619E+04   -0.30885E-02   -0.31786E-02 10640   0.103E-01 0.162E-02
CGA:  16    -0.128244847677E+04   -0.19206E-02   -0.19755E-02 10640   0.489E-02 0.675E-03
CGA:  17    -0.128244993984E+04   -0.14631E-02   -0.14660E-02 10640   0.534E-02-0.875E-04
CGA:  18    -0.128245070278E+04   -0.76294E-03   -0.81998E-03 10640   0.123E-02 0.591E-03
CGA:  19    -0.128245099220E+04   -0.28942E-03   -0.29809E-03 10640   0.104E-02 0.308E-03
CGA:  20    -0.128245139374E+04   -0.40154E-03   -0.56409E-03 10640   0.349E-02-0.872E-03
CGA:  21    -0.128245164338E+04   -0.24964E-03   -0.32023E-03 10640   0.726E-03 0.432E-03
CGA:  22    -0.128245195227E+04   -0.30889E-03   -0.33126E-03 10640   0.105E-02-0.140E-03
CGA:  23    -0.128245185180E+04    0.10047E-03   -0.42903E-03 10640   0.888E-02-0.210E-02
CGA:  24    -0.128245258085E+04   -0.72906E-03   -0.82929E-03 10640   0.140E-02 0.577E-03
CGA:  25    -0.128245303021E+04   -0.44935E-03   -0.45405E-03 10640   0.961E-03-0.102E-03
CGA:  26    -0.128245326287E+04   -0.23266E-03   -0.21105E-03 10640   0.179E-02-0.892E-03
CGA:  27    -0.128245337514E+04   -0.11227E-03   -0.14716E-03 10640   0.331E-03 0.197E-03
CGA:  28    -0.128245347093E+04   -0.95792E-04   -0.95315E-04 10640   0.379E-03 0.558E-04
CGA:  29    -0.128245372371E+04   -0.25278E-03    0.41570E-03 10640   0.473E-03-0.822E-04
CGA:  30    -0.128245400686E+04   -0.28315E-03    0.89955E-04 10640   0.817E-03 0.260E-04
CGA:  31    -0.128245454254E+04   -0.53568E-03    0.45900E-03 10640   0.958E-03 0.304E-03
CGA:  32    -0.128245537389E+04   -0.83135E-03    0.64277E-03 10640   0.103E-02 0.224E-03
CGA:  33    -0.128245620915E+04   -0.83525E-03    0.51460E-03 10640   0.116E-02-0.281E-03
CGA:  34    -0.128245675191E+04   -0.54277E-03    0.38712E-03 10640   0.180E-02-0.110E-02
CGA:  35    -0.128245693666E+04   -0.18475E-03   -0.18167E-03 10640   0.439E-03-0.211E-04
CGA:  36    -0.128245698948E+04   -0.52823E-04   -0.66019E-04 10640   0.146E-03 0.144E-03
CGA:  37    -0.128245700496E+04   -0.15473E-04   -0.23165E-04 10640   0.409E-04 0.641E-04
CGA:  38    -0.128245700782E+04   -0.28622E-05   -0.65301E-05 10640   0.230E-04 0.298E-04
   4 F= -.12824570E+04 E0= -.12824526E+04  d E =-.263338E+00  mag=    47.0000
       N       E                     dE             d eps       ncg     rms          ort
SDA:   1    -0.127812367099E+04    0.43333E+01    0.00000E+00 10640   0.116E+02 0.000E+00
CGA:   2    -0.128120406241E+04   -0.30804E+01   -0.30814E+01 10640   0.597E+01-0.423E-02
CGA:   3    -0.128222063103E+04   -0.10166E+01   -0.10248E+01 10640   0.187E+01 0.513E-02
CGA:   4    -0.128247570143E+04   -0.25507E+00   -0.25273E+00 10640   0.399E+00 0.102E-01
CGA:   5    -0.128253669336E+04   -0.60992E-01   -0.61036E-01 10640   0.122E+00-0.412E-02
CGA:   6    -0.128255648100E+04   -0.19788E-01   -0.19517E-01 10640   0.404E-01-0.455E-02
CGA:   7    -0.128256504952E+04   -0.85685E-02   -0.86531E-02 10640   0.231E-01-0.621E-02
CGA:   8    -0.128256870829E+04   -0.36588E-02   -0.36069E-02 10640   0.991E-02-0.198E-02
CGA:   9    -0.128256721818E+04    0.14901E-02   -0.62852E-02 10640   0.833E-01-0.159E-01
CGA:  10    -0.128257436712E+04   -0.71489E-02   -0.72090E-02 10640   0.108E-01 0.638E-02
CGA:  11    -0.128257708268E+04   -0.27156E-02   -0.27351E-02 10640   0.584E-02-0.199E-02
CGA:  12    -0.128257821028E+04   -0.11276E-02   -0.14648E-02 10640   0.116E-01-0.411E-02
CGA:  13    -0.128257929013E+04   -0.10799E-02   -0.11859E-02 10640   0.226E-02 0.864E-03
CGA:  14    -0.128257999591E+04   -0.70578E-03   -0.83492E-03 10640   0.422E-02-0.107E-02
CGA:  15    -0.128258032161E+04   -0.32571E-03   -0.68100E-03 10640   0.986E-02-0.469E-02
CGA:  16    -0.128258191569E+04   -0.15941E-02   -0.16092E-02 10640   0.550E-02 0.242E-03
CGA:  17    -0.128258305343E+04   -0.11377E-02   -0.10666E-02 10640   0.210E-02-0.178E-02
CGA:  18    -0.128258335560E+04   -0.30216E-03   -0.42998E-03 10640   0.581E-02-0.170E-02
CGA:  19    -0.128258386125E+04   -0.50565E-03   -0.50836E-03 10640   0.985E-03 0.536E-05
CGA:  20    -0.128258422132E+04   -0.36008E-03   -0.39366E-03 10640   0.136E-02-0.188E-03
CGA:  21    -0.128258487441E+04   -0.65309E-03    0.46331E-03 10640   0.121E-02-0.346E-03
CGA:  22    -0.128258566777E+04   -0.79335E-03    0.11756E-03 10640   0.106E-02 0.702E-03
CGA:  23    -0.128258586571E+04   -0.19795E-03   -0.20446E-03 10640   0.576E-03 0.165E-03
CGA:  24    -0.128258628454E+04   -0.41882E-03    0.21171E-03 10640   0.179E-03 0.180E-03
CGA:  25    -0.128258651036E+04   -0.22583E-03    0.24910E-04 10640   0.206E-03 0.179E-03
CGA:  26    -0.128258628342E+04    0.22694E-03   -0.14445E-03 10640   0.657E-02-0.434E-03
CGA:  27    -0.128258732245E+04   -0.10390E-02   -0.80160E-03 10640   0.449E-03-0.862E-03
CGA:  28    -0.128258745534E+04   -0.13288E-03   -0.12441E-03 10640   0.492E-03-0.963E-04
CGA:  29    -0.128258736215E+04    0.93188E-04   -0.31450E-03 10640   0.691E-02-0.988E-03
CGA:  30    -0.128258810590E+04   -0.74375E-03   -0.66423E-03 10640   0.793E-03-0.481E-03
CGA:  31    -0.128258818796E+04   -0.82053E-04   -0.13327E-03 10640   0.228E-03 0.229E-03
CGA:  32    -0.128258830468E+04   -0.11672E-03   -0.12765E-03 10640   0.937E-03-0.276E-03
CGA:  33    -0.128258835725E+04   -0.52572E-04   -0.76937E-04 10640   0.109E-03 0.799E-04
CGA:  34    -0.128258840595E+04   -0.48704E-04   -0.51975E-04 10640   0.368E-03-0.541E-04
CGA:  35    -0.128258859898E+04   -0.19303E-03    0.97871E-04 10640   0.962E-03-0.514E-03
CGA:  36    -0.128258887212E+04   -0.27314E-03   -0.25144E-03 10640   0.986E-03-0.176E-03
CGA:  37    -0.128258891511E+04   -0.42988E-04   -0.80809E-04 10640   0.185E-03 0.137E-03
CGA:  38    -0.128258890337E+04    0.11737E-04   -0.12130E-04 10640   0.564E-04 0.784E-04
CGA:  39    -0.128258889733E+04    0.60354E-05   -0.47523E-05 10640   0.341E-04 0.374E-04
   5 F= -.12825889E+04 E0= -.12825868E+04  d E =-.131890E+00  mag=    47.0000
       N       E                     dE             d eps       ncg     rms          ort
SDA:   1    -0.125211673993E+04    0.30472E+02    0.00000E+00 10640   0.790E+02 0.000E+00
CGA:   2    -0.127375974720E+04   -0.21643E+02   -0.21596E+02 10640   0.393E+02-0.136E+00
CGA:   3    -0.128059472740E+04   -0.68350E+01   -0.71972E+01 10640   0.104E+02-0.483E+00
CGA:   4    -0.128223543368E+04   -0.16407E+01   -0.15883E+01 10640   0.173E+01 0.299E+00
CGA:   5    -0.128258091730E+04   -0.34548E+00   -0.34665E+00 10640   0.506E+00-0.129E-01
CGA:   6    -0.128267110153E+04   -0.90184E-01   -0.88653E-01 10640   0.229E+00-0.115E-01
CGA:   7    -0.128271642688E+04   -0.45325E-01   -0.44387E-01 10640   0.913E-01-0.974E-02
CGA:   8    -0.128273855000E+04   -0.22123E-01   -0.21567E-01 10640   0.614E-01-0.113E-01
CGA:   9    -0.128275545835E+04   -0.16908E-01   -0.17292E-01 10640   0.578E-01-0.145E-01
CGA:  10    -0.128276802091E+04   -0.12563E-01   -0.12272E-01 10640   0.443E-01-0.163E-01
CGA:  11    -0.128277762504E+04   -0.96041E-02   -0.98815E-02 10640   0.413E-01-0.177E-01
CGA:  12    -0.128278477741E+04   -0.71524E-02   -0.68941E-02 10640   0.282E-01-0.143E-01
CGA:  13    -0.128279063124E+04   -0.58538E-02   -0.63455E-02 10640   0.276E-01-0.100E-01
CGA:  14    -0.128279474547E+04   -0.41142E-02   -0.38396E-02 10640   0.127E-01-0.337E-02
CGA:  15    -0.128279787414E+04   -0.31287E-02   -0.31338E-02 10640   0.654E-02 0.381E-03
CGA:  16    -0.128279901803E+04   -0.11439E-02   -0.12884E-02 10640   0.295E-02 0.142E-02
CGA:  17    -0.128279921289E+04   -0.19486E-03   -0.50202E-03 10640   0.167E-02 0.207E-02
CGA:  18    -0.128279923223E+04   -0.19349E-04   -0.20748E-03 10640   0.109E-02 0.120E-02
CGA:  19    -0.128279921033E+04    0.21904E-04   -0.12840E-03 10640   0.894E-03 0.970E-03
CGA:  20    -0.128279916352E+04    0.46809E-04   -0.90445E-04 10640   0.790E-03 0.836E-03
CGA:  21    -0.128279911359E+04    0.49927E-04   -0.73225E-04 10640   0.716E-03 0.749E-03
CGA:  22    -0.128279906284E+04    0.50758E-04   -0.61219E-04 10640   0.660E-03 0.685E-03
CGA:  23    -0.128279901288E+04    0.49956E-04   -0.52458E-04 10640   0.615E-03 0.635E-03
CGA:  24    -0.128279896447E+04    0.48413E-04   -0.45683E-04 10640   0.577E-03 0.594E-03
CGA:  25    -0.128279891796E+04    0.46512E-04   -0.40256E-04 10640   0.545E-03 0.560E-03
CGA:  26    -0.128279887351E+04    0.44447E-04   -0.35798E-04 10640   0.518E-03 0.530E-03
CGA:  27    -0.128279883118E+04    0.42333E-04   -0.32069E-04 10640   0.494E-03 0.505E-03
CGA:  28    -0.128279879094E+04    0.40234E-04   -0.28901E-04 10640   0.472E-03 0.482E-03
CGA:  29    -0.128279875275E+04    0.38187E-04   -0.26181E-04 10640   0.453E-03 0.462E-03
CGA:  30    -0.128279871654E+04    0.36213E-04   -0.23822E-04 10640   0.436E-03 0.444E-03
CGA:  31    -0.128279868222E+04    0.34323E-04   -0.21760E-04 10640   0.420E-03 0.428E-03
CGA:  32    -0.128279864970E+04    0.32522E-04   -0.19947E-04 10640   0.406E-03 0.413E-03
CGA:  33    -0.128279861889E+04    0.30811E-04   -0.18342E-04 10640   0.394E-03 0.400E-03
CGA:  34    -0.128279858970E+04    0.29190E-04   -0.16914E-04 10640   0.382E-03 0.387E-03
CGA:  35    -0.128279856204E+04    0.27658E-04   -0.15637E-04 10640   0.371E-03 0.376E-03
CGA:  36    -0.128279853582E+04    0.26214E-04   -0.14489E-04 10640   0.361E-03 0.366E-03
CGA:  37    -0.128279851097E+04    0.24851E-04   -0.13454E-04 10640   0.352E-03 0.357E-03
CGA:  38    -0.128279848741E+04    0.23567E-04   -0.12518E-04 10640   0.344E-03 0.348E-03
CGA:  39    -0.128279846505E+04    0.22358E-04   -0.11667E-04 10640   0.336E-03 0.340E-03
CGA:  40    -0.128279844383E+04    0.21217E-04   -0.10892E-04 10640   0.329E-03 0.332E-03
CGA:  41    -0.128279842369E+04    0.20144E-04   -0.10184E-04 10640   0.322E-03 0.325E-03
CGA:  42    -0.128279840456E+04    0.19131E-04   -0.95358E-05 10640   0.316E-03 0.319E-03
CGA:  43    -0.128279838638E+04    0.18177E-04   -0.89406E-05 10640   0.310E-03 0.313E-03
CGA:  44    -0.128279836910E+04    0.17276E-04   -0.83929E-05 10640   0.304E-03 0.307E-03
CGA:  45    -0.128279835268E+04    0.16426E-04   -0.78879E-05 10640   0.299E-03 0.302E-03
CGA:  46    -0.128279833705E+04    0.15626E-04   -0.74214E-05 10640   0.294E-03 0.297E-03
CGA:  47    -0.128279832218E+04    0.14867E-04   -0.69896E-05 10640   0.290E-03 0.292E-03
CGA:  48    -0.128279830803E+04    0.14153E-04   -0.65892E-05 10640   0.285E-03 0.287E-03
CGA:  49    -0.128279829456E+04    0.13476E-04   -0.62174E-05 10640   0.281E-03 0.283E-03
CGA:  50    -0.128279828172E+04    0.12836E-04   -0.58716E-05 10640   0.278E-03 0.279E-03
CGA:  51    -0.128279826949E+04    0.12231E-04   -0.55495E-05 10640   0.274E-03 0.276E-03
CGA:  52    -0.128279825783E+04    0.11658E-04   -0.52491E-05 10640   0.271E-03 0.272E-03
CGA:  53    -0.128279824671E+04    0.11115E-04   -0.49685E-05 10640   0.267E-03 0.269E-03
CGA:  54    -0.128279823611E+04    0.10601E-04   -0.47061E-05 10640   0.264E-03 0.266E-03
CGA:  55    -0.128279822600E+04    0.10113E-04   -0.44604E-05 10640   0.262E-03 0.263E-03
CGA:  56    -0.128279821635E+04    0.96511E-05   -0.42301E-05 10640   0.259E-03 0.260E-03
   6 F= -.12827982E+04 E0= -.12827982E+04  d E =-.209319E+00  mag=    47.0000
       N       E                     dE             d eps       ncg     rms          ort
SDA:   1    -0.127978986860E+04    0.30084E+01    0.00000E+00 10640   0.864E+01 0.000E+00
CGA:   2    -0.128183435000E+04   -0.20445E+01   -0.20412E+01 10640   0.379E+01 0.201E-01
CGA:   3    -0.128267406419E+04   -0.83971E+00   -0.84534E+00 10640   0.862E+00-0.369E-01
CGA:   4    -0.128281106113E+04   -0.13700E+00   -0.13607E+00 10640   0.163E+00 0.122E-01
CGA:   5    -0.128284251628E+04   -0.31455E-01   -0.31845E-01 10640   0.458E-01-0.347E-02
CGA:   6    -0.128285039645E+04   -0.78802E-02   -0.78804E-02 10640   0.152E-01 0.448E-04
CGA:   7    -0.128285371455E+04   -0.33181E-02   -0.33744E-02 10640   0.442E-02-0.421E-03
CGA:   8    -0.128285455036E+04   -0.83581E-03   -0.18850E-02 10640   0.893E-02-0.309E-02
CGA:   9    -0.128285547002E+04   -0.91966E-03   -0.93100E-03 10640   0.138E-02 0.890E-03
CGA:  10    -0.128285585568E+04   -0.38567E-03   -0.38929E-03 10640   0.685E-03-0.253E-04
CGA:  11    -0.128285604865E+04   -0.19297E-03    0.25770E-03 10640   0.416E-03 0.412E-03
CGA:  12    -0.128285607557E+04   -0.26916E-04   -0.47001E-04 10640   0.259E-02-0.511E-03
CGA:  13    -0.128285646373E+04   -0.38816E-03   -0.38048E-03 10640   0.677E-03-0.947E-04
CGA:  14    -0.128285658135E+04   -0.11762E-03   -0.11595E-03 10640   0.177E-03-0.370E-04
CGA:  15    -0.128285666575E+04   -0.84401E-04    0.12084E-03 10640   0.121E-03 0.125E-03
CGA:  16    -0.128285673095E+04   -0.65201E-04    0.57180E-04 10640   0.895E-04 0.863E-04
CGA:  17    -0.128285677460E+04   -0.43650E-04    0.88331E-04 10640   0.847E-04 0.755E-04
CGA:  18    -0.128285683059E+04   -0.55993E-04    0.18365E-04 10640   0.835E-04 0.665E-04
CGA:  19    -0.128285687876E+04   -0.48162E-04   -0.43263E-04 10640   0.286E-03 0.163E-04
CGA:  20    -0.128285708929E+04   -0.21053E-03    0.12718E-03 10640   0.825E-04 0.255E-03
CGA:  21    -0.128285713953E+04   -0.50241E-04    0.32193E-04 10640   0.117E-03-0.139E-04
CGA:  22    -0.128285719288E+04   -0.53352E-04    0.67189E-04 10640   0.119E-03 0.856E-04
CGA:  23    -0.128285719525E+04   -0.23688E-05   -0.98336E-05 10640   0.369E-04 0.495E-04
   7 F= -.12828572E+04 E0= -.12828572E+04  d E =-.589789E-01  mag=    47.0000
       N       E                     dE             d eps       ncg     rms          ort
SDA:   1    -0.128225311264E+04    0.60408E+00    0.00000E+00 10640   0.162E+01 0.000E+00
CGA:   2    -0.128269185302E+04   -0.43874E+00   -0.43901E+00 10640   0.713E+00-0.530E-02
CGA:   3    -0.128283923746E+04   -0.14738E+00   -0.14745E+00 10640   0.140E+00 0.469E-02
CGA:   4    -0.128286352308E+04   -0.24286E-01   -0.24363E-01 10640   0.285E-01 0.160E-02
CGA:   5    -0.128286862986E+04   -0.51068E-02   -0.51565E-02 10640   0.683E-02 0.120E-02
CGA:   6    -0.128286988894E+04   -0.12591E-02   -0.12851E-02 10640   0.236E-02 0.677E-03
CGA:   7    -0.128287045020E+04   -0.56126E-03   -0.56132E-03 10640   0.801E-03 0.703E-04
CGA:   8    -0.128287064318E+04   -0.19298E-03   -0.19107E-03 10640   0.392E-03 0.133E-03
CGA:   9    -0.128287070801E+04   -0.64828E-04   -0.75910E-04 10640   0.168E-03 0.214E-03
CGA:  10    -0.128287073103E+04   -0.23014E-04   -0.28271E-04 10640   0.967E-04 0.111E-03
CGA:  11    -0.128287073323E+04   -0.22005E-05   -0.10879E-04 10640   0.804E-04 0.864E-04
   8 F= -.12828707E+04 E0= -.12828707E+04  d E =-.135380E-01  mag=    47.0000
       N       E                     dE             d eps       ncg     rms          ort
SDA:   1    -0.128179833214E+04    0.10724E+01    0.00000E+00 10640   0.283E+01 0.000E+00
CGA:   2    -0.128256251470E+04   -0.76418E+00   -0.76387E+00 10640   0.129E+01 0.542E-02
CGA:   3    -0.128282989785E+04   -0.26738E+00   -0.26739E+00 10640   0.261E+00-0.863E-02
CGA:   4    -0.128287286735E+04   -0.42969E-01   -0.42897E-01 10640   0.580E-01-0.156E-02
CGA:   5    -0.128288333762E+04   -0.10470E-01   -0.10430E-01 10640   0.154E-01-0.162E-02
CGA:   6    -0.128288638917E+04   -0.30515E-02   -0.30513E-02 10640   0.634E-02-0.163E-02
CGA:   7    -0.128288757142E+04   -0.11823E-02   -0.11839E-02 10640   0.188E-02-0.303E-03
CGA:   8    -0.128288809199E+04   -0.52058E-03   -0.68510E-03 10640   0.278E-02-0.916E-03
CGA:   9    -0.128288839002E+04   -0.29802E-03   -0.40243E-03 10640   0.272E-02-0.149E-02
CGA:  10    -0.128288894335E+04   -0.55333E-03   -0.55000E-03 10640   0.141E-02-0.237E-03
CGA:  11    -0.128288922509E+04   -0.28175E-03   -0.28457E-03 10640   0.746E-03-0.567E-03
CGA:  12    -0.128288758597E+04    0.16391E-02   -0.88489E-03 10640   0.165E-01-0.188E-02
CGA:  13    -0.128288930223E+04   -0.17163E-02   -0.17133E-02 10640   0.194E-02 0.474E-04
CGA:  14    -0.128288981000E+04   -0.50777E-03   -0.51916E-03 10640   0.464E-03 0.101E-03
CGA:  15    -0.128288996865E+04   -0.15865E-03   -0.15816E-03 10640   0.228E-03-0.975E-05
CGA:  16    -0.128288999834E+04   -0.29691E-04   -0.37320E-04 10640   0.550E-04 0.377E-04
CGA:  17    -0.128289002374E+04   -0.25400E-04   -0.25048E-04 10640   0.660E-04 0.116E-04
CGA:  18    -0.128288920292E+04    0.82082E-03   -0.44312E-03 10640   0.642E-02-0.517E-03
CGA:  19    -0.128288988233E+04   -0.67941E-03   -0.83263E-03 10640   0.652E-03 0.342E-03
CGA:  20    -0.128289009318E+04   -0.21086E-03   -0.22896E-03 10640   0.194E-03 0.603E-04
CGA:  21    -0.128289014923E+04   -0.56044E-04   -0.45747E-04 10640   0.129E-03-0.251E-04
CGA:  22    -0.128289019112E+04   -0.41894E-04   -0.37207E-04 10640   0.793E-04-0.175E-04
CGA:  23    -0.128289019816E+04   -0.70350E-05   -0.10340E-04 10640   0.254E-04 0.774E-05
   9 F= -.12828902E+04 E0= -.12828902E+04  d E =-.194649E-01  mag=    47.0000
       N       E                     dE             d eps       ncg     rms          ort
SDA:   1    -0.127786547768E+04    0.50247E+01    0.00000E+00 10640   0.133E+02 0.000E+00
CGA:   2    -0.128133547786E+04   -0.34700E+01   -0.34696E+01 10640   0.609E+01 0.865E-02
CGA:   3    -0.128263533231E+04   -0.12999E+01   -0.12997E+01 10640   0.115E+01-0.852E-02
CGA:   4    -0.128283115179E+04   -0.19582E+00   -0.19557E+00 10640   0.239E+00-0.249E-02
CGA:   5    -0.128287698647E+04   -0.45835E-01   -0.45349E-01 10640   0.596E-01-0.121E-02
CGA:   6    -0.128288913419E+04   -0.12148E-01   -0.11796E-01 10640   0.227E-01-0.133E-02
CGA:   7    -0.128289384459E+04   -0.47104E-02   -0.45581E-02 10640   0.682E-02-0.520E-03
CGA:   8    -0.128289600737E+04   -0.21628E-02   -0.20180E-02 10640   0.493E-02-0.906E-03
CGA:   9    -0.128289728304E+04   -0.12757E-02   -0.11221E-02 10640   0.374E-02-0.791E-03
CGA:  10    -0.128289860912E+04   -0.13261E-02   -0.12074E-02 10640   0.496E-02-0.202E-02
CGA:  11    -0.128289922207E+04   -0.61294E-03   -0.63931E-03 10640   0.144E-02 0.994E-04
CGA:  12    -0.128289975288E+04   -0.53082E-03   -0.50243E-03 10640   0.113E-02-0.342E-03
CGA:  13    -0.128290007799E+04   -0.32510E-03   -0.63954E-03 10640   0.425E-02-0.980E-03
CGA:  14    -0.128290055633E+04   -0.47834E-03   -0.51763E-03 10640   0.106E-02 0.130E-03
CGA:  15    -0.128290088131E+04   -0.32498E-03   -0.32945E-03 10640   0.424E-03 0.378E-04
CGA:  16    -0.128290105571E+04   -0.17440E-03   -0.16891E-03 10640   0.745E-03-0.180E-03
CGA:  17    -0.128290116252E+04   -0.10681E-03   -0.10422E-03 10640   0.620E-03-0.163E-04
CGA:  18    -0.128290130590E+04   -0.14339E-03   -0.13513E-03 10640   0.746E-03-0.467E-04
CGA:  19    -0.128290143416E+04   -0.12825E-03   -0.59914E-03 10640   0.409E-02-0.101E-02
CGA:  20    -0.128290194565E+04   -0.51149E-03   -0.62839E-03 10640   0.882E-03 0.450E-03
CGA:  21    -0.128290219946E+04   -0.25380E-03   -0.24561E-03 10640   0.315E-03-0.519E-04
CGA:  22    -0.128290221445E+04   -0.14997E-04   -0.40826E-04 10640   0.111E-03 0.996E-04
CGA:  23    -0.128290221553E+04   -0.10776E-05   -0.20162E-04 10640   0.694E-04 0.770E-04
CGA:  24    -0.128290224132E+04   -0.25785E-04   -0.25735E-04 10640   0.150E-03-0.227E-04
CGA:  25    -0.128290223540E+04    0.59154E-05   -0.10129E-04 10640   0.112E-03 0.587E-04
CGA:  26    -0.128290222522E+04    0.10182E-04   -0.10628E-04 10640   0.376E-04 0.716E-04
CGA:  27    -0.128290222412E+04    0.10960E-05   -0.43099E-05 10640   0.190E-04 0.235E-04
  10 F= -.12829022E+04 E0= -.12829022E+04  d E =-.120260E-01  mag=    47.0000
       N       E                     dE             d eps       ncg     rms          ort
SDA:   1    -0.127945689069E+04    0.34453E+01    0.00000E+00 10640   0.937E+01 0.000E+00
CGA:   2    -0.128176080983E+04   -0.23039E+01   -0.23033E+01 10640   0.435E+01-0.633E-02
CGA:   3    -0.128270800452E+04   -0.94719E+00   -0.94757E+00 10640   0.871E+00 0.488E-02
CGA:   4    -0.128284926756E+04   -0.14126E+00   -0.14128E+00 10640   0.167E+00-0.875E-03
CGA:   5    -0.128288128365E+04   -0.32016E-01   -0.32226E-01 10640   0.426E-01 0.238E-02
CGA:   6    -0.128288975988E+04   -0.84762E-02   -0.83789E-02 10640   0.166E-01-0.929E-03
CGA:   7    -0.128289280121E+04   -0.30413E-02   -0.30483E-02 10640   0.478E-02 0.100E-03
CGA:   8    -0.128289398766E+04   -0.11864E-02   -0.11827E-02 10640   0.257E-02-0.818E-04
CGA:   9    -0.128289463668E+04   -0.64903E-03   -0.64739E-03 10640   0.165E-02-0.479E-04
CGA:  10    -0.128289504291E+04   -0.40623E-03   -0.41080E-03 10640   0.830E-03 0.139E-03
CGA:  11    -0.128289537800E+04   -0.33509E-03   -0.33952E-03 10640   0.840E-03-0.483E-04
CGA:  12    -0.128289554855E+04   -0.17054E-03   -0.17849E-03 10640   0.597E-03 0.121E-03
CGA:  13    -0.128289582736E+04   -0.27881E-03   -0.26319E-03 10640   0.465E-03 0.153E-03
CGA:  14    -0.128289608032E+04   -0.25296E-03   -0.24364E-03 10640   0.719E-03 0.697E-04
CGA:  15    -0.128289620929E+04   -0.12898E-03   -0.16104E-03 10640   0.319E-03 0.306E-03
CGA:  16    -0.128289630734E+04   -0.98051E-04   -0.10672E-03 10640   0.266E-03 0.147E-03
CGA:  17    -0.128289641247E+04   -0.10512E-03   -0.10539E-03 10640   0.181E-03 0.118E-04
CGA:  18    -0.128289642028E+04   -0.78094E-05   -0.25565E-04 10640   0.121E-03 0.115E-03
CGA:  19    -0.128289644037E+04   -0.20090E-04   -0.24176E-04 10640   0.561E-04 0.498E-04
CGA:  20    -0.128289647339E+04   -0.33021E-04   -0.34407E-04 10640   0.736E-04-0.943E-05
CGA:  21    -0.128289647414E+04   -0.75031E-06   -0.73787E-05 10640   0.663E-04 0.400E-04
CGA:  22    -0.128289648736E+04   -0.13221E-04   -0.14793E-04 10640   0.282E-04 0.294E-04
CGA:  23    -0.128289636310E+04    0.12426E-03   -0.68307E-04 10640   0.102E-02-0.134E-03
CGA:  24    -0.128289645209E+04   -0.88988E-04   -0.14062E-03 10640   0.265E-03 0.147E-03
CGA:  25    -0.128289654653E+04   -0.94444E-04   -0.90137E-04 10640   0.334E-04-0.231E-04
CGA:  26    -0.128289655452E+04   -0.79850E-05   -0.71183E-05 10640   0.322E-04-0.360E-05
  11 F= -.12828966E+04 E0= -.12828966E+04  d E =0.566960E-02  mag=    47.0000
       N       E                     dE             d eps       ncg     rms          ort
SDA:   1    -0.128120699356E+04    0.16896E+01    0.00000E+00 10640   0.463E+01 0.000E+00
CGA:   2    -0.128237330727E+04   -0.11663E+01   -0.11654E+01 10640   0.211E+01-0.631E-02
CGA:   3    -0.128281674078E+04   -0.44343E+00   -0.44416E+00 10640   0.446E+00 0.705E-02
CGA:   4    -0.128288822845E+04   -0.71488E-01   -0.71574E-01 10640   0.968E-01 0.255E-03
CGA:   5    -0.128290453438E+04   -0.16306E-01   -0.16698E-01 10640   0.242E-01 0.154E-02
CGA:   6    -0.128290884435E+04   -0.43100E-02   -0.44811E-02 10640   0.725E-02 0.818E-03
CGA:   7    -0.128291070493E+04   -0.18606E-02   -0.17983E-02 10640   0.269E-02-0.412E-03
CGA:   8    -0.128291111331E+04   -0.40838E-03   -0.46677E-03 10640   0.115E-02 0.301E-03
CGA:   9    -0.128291143041E+04   -0.31710E-03   -0.33066E-03 10640   0.547E-03 0.120E-03
CGA:  10    -0.128291158602E+04   -0.15560E-03   -0.16632E-03 10640   0.322E-03 0.117E-03
CGA:  11    -0.128291161360E+04   -0.27583E-04   -0.64976E-04 10640   0.148E-03 0.191E-03
CGA:  12    -0.128291164038E+04   -0.26783E-04   -0.35387E-04 10640   0.861E-04 0.760E-04
CGA:  13    -0.128291164938E+04   -0.90023E-05   -0.17156E-04 10640   0.767E-04 0.552E-04
CGA:  14    -0.128291165707E+04   -0.76844E-05   -0.14504E-04 10640   0.718E-04 0.452E-04
CGA:  15    -0.128291166072E+04   -0.36533E-05   -0.11314E-04 10640   0.604E-04 0.440E-04
CGA:  16    -0.128291166809E+04   -0.73672E-05   -0.12316E-04 10640   0.597E-04 0.413E-04
  12 F= -.12829117E+04 E0= -.12829117E+04  d E =-.151136E-01  mag=    47.0000
       N       E                     dE             d eps       ncg     rms          ort
SDA:   1    -0.128196458633E+04    0.94707E+00    0.00000E+00 10640   0.246E+01 0.000E+00
CGA:   2    -0.128264915327E+04   -0.68457E+00   -0.68451E+00 10640   0.112E+01-0.144E-02
CGA:   3    -0.128287331422E+04   -0.22416E+00   -0.22417E+00 10640   0.219E+00 0.157E-03
CGA:   4    -0.128290864783E+04   -0.35334E-01   -0.35531E-01 10640   0.516E-01 0.187E-02
CGA:   5    -0.128291774813E+04   -0.91003E-02   -0.91237E-02 10640   0.135E-01 0.156E-03
CGA:   6    -0.128292008696E+04   -0.23388E-02   -0.23902E-02 10640   0.400E-02 0.474E-03
CGA:   7    -0.128292106369E+04   -0.97673E-03   -0.97368E-03 10640   0.134E-02-0.600E-04
CGA:   8    -0.128292136070E+04   -0.29701E-03   -0.30278E-03 10640   0.686E-03 0.114E-03
CGA:   9    -0.128292156302E+04   -0.20232E-03   -0.20243E-03 10640   0.442E-03 0.172E-04
CGA:  10    -0.128292162045E+04   -0.57431E-04   -0.77025E-04 10640   0.190E-03 0.181E-03
CGA:  11    -0.128292167499E+04   -0.54545E-04   -0.60102E-04 10640   0.124E-03 0.113E-03
CGA:  12    -0.128292171547E+04   -0.40475E-04   -0.45402E-04 10640   0.360E-03-0.509E-04
CGA:  13    -0.128292172833E+04   -0.12862E-04   -0.26953E-04 10640   0.364E-03 0.946E-04
CGA:  14    -0.128292173980E+04   -0.11467E-04   -0.39177E-04 10640   0.126E-03 0.152E-03
CGA:  15    -0.128292175227E+04   -0.12470E-04   -0.23144E-04 10640   0.128E-03 0.825E-04
CGA:  16    -0.128292177383E+04   -0.21563E-04   -0.51781E-04 10640   0.803E-03-0.196E-03
CGA:  17    -0.128292180867E+04   -0.34837E-04   -0.61633E-04 10640   0.500E-04 0.149E-03
CGA:  18    -0.128292180671E+04    0.19597E-05   -0.39307E-05 10640   0.293E-04 0.320E-04
CGA:  19    -0.128292182342E+04   -0.16718E-04   -0.12379E-04 10640   0.301E-04 0.239E-04
CGA:  20    -0.128292182822E+04   -0.47979E-05   -0.58477E-05 10640   0.290E-04 0.185E-04
CGA:  21    -0.128292183913E+04   -0.10906E-04   -0.10238E-04 10640   0.666E-04 0.622E-05
CGA:  22    -0.128292187404E+04   -0.34911E-04   -0.28619E-04 10640   0.239E-04 0.618E-04
CGA:  23    -0.128292187979E+04   -0.57536E-05   -0.58220E-05 10640   0.285E-04 0.457E-05
CGA:  24    -0.128292189409E+04   -0.14292E-04   -0.11699E-04 10640   0.211E-04 0.296E-04
CGA:  25    -0.128292190582E+04   -0.11738E-04    0.44708E-04 10640   0.266E-04 0.740E-06
CGA:  26    -0.128292196900E+04   -0.63173E-04   -0.15298E-04 10640   0.866E-04 0.680E-05
CGA:  27    -0.128292197064E+04   -0.16473E-05   -0.16810E-04 10640   0.197E-04 0.464E-04
CGA:  28    -0.128292199320E+04   -0.22557E-04    0.18735E-04 10640   0.278E-04-0.124E-04
CGA:  29    -0.128292198828E+04    0.49172E-05   -0.15458E-05 10640   0.101E-04 0.160E-04
  13 F= -.12829220E+04 E0= -.12829220E+04  d E =-.103202E-01  mag=    47.0000
       N       E                     dE             d eps       ncg     rms          ort
SDA:   1    -0.128258272575E+04    0.33927E+00    0.00000E+00 10640   0.970E+00 0.000E+00
CGA:   2    -0.128281006959E+04   -0.22734E+00   -0.22720E+00 10640   0.443E+00-0.632E-03
CGA:   3    -0.128290618469E+04   -0.96115E-01   -0.96233E-01 10640   0.997E-01 0.603E-03
CGA:   4    -0.128292163093E+04   -0.15446E-01   -0.15455E-01 10640   0.185E-01 0.165E-03
CGA:   5    -0.128292528832E+04   -0.36574E-02   -0.36803E-02 10640   0.461E-02 0.133E-03
CGA:   6    -0.128292620152E+04   -0.91320E-03   -0.90787E-03 10640   0.162E-02-0.231E-04
CGA:   7    -0.128292651985E+04   -0.31832E-03   -0.31634E-03 10640   0.540E-03-0.935E-05
CGA:   8    -0.128292662532E+04   -0.10547E-03   -0.11164E-03 10640   0.236E-03 0.407E-04
CGA:   9    -0.128292672503E+04   -0.99712E-04   -0.10635E-03 10640   0.382E-03-0.102E-03
CGA:  10    -0.128292673557E+04   -0.10538E-04   -0.23096E-04 10640   0.217E-03 0.503E-04
CGA:  11    -0.128292674518E+04   -0.96149E-05   -0.24728E-04 10640   0.134E-03 0.619E-04
CGA:  12    -0.128292677852E+04   -0.33342E-04   -0.34661E-04 10640   0.117E-03 0.948E-05
CGA:  13    -0.128292681519E+04   -0.36662E-04   -0.28383E-04 10640   0.195E-03-0.837E-04
CGA:  14    -0.128292682092E+04   -0.57339E-05   -0.20010E-04 10640   0.574E-04 0.655E-04
CGA:  15    -0.128292683127E+04   -0.10349E-04   -0.13666E-04 10640   0.346E-04 0.250E-04
CGA:  16    -0.128292677499E+04    0.56278E-04   -0.44924E-04 10640   0.102E-02-0.169E-03
CGA:  17    -0.128292683105E+04   -0.56054E-04   -0.93924E-04 10640   0.132E-03 0.161E-03
CGA:  18    -0.128292685346E+04   -0.22413E-04   -0.28076E-04 10640   0.631E-04 0.409E-04
CGA:  19    -0.128292687819E+04   -0.24729E-04   -0.29270E-04 10640   0.224E-03-0.115E-03
CGA:  20    -0.128292687919E+04   -0.99993E-06   -0.17008E-04 10640   0.358E-04 0.670E-04
  14 F= -.12829269E+04 E0= -.12829269E+04  d E =-.489090E-02  mag=    47.0000
       N       E                     dE             d eps       ncg     rms          ort
SDA:   1    -0.128158120903E+04    0.13457E+01    0.00000E+00 10640   0.352E+01 0.000E+00
CGA:   2    -0.128251299614E+04   -0.93179E+00   -0.93176E+00 10640   0.170E+01-0.179E-03
CGA:   3    -0.128285764605E+04   -0.34465E+00   -0.34461E+00 10640   0.343E+00-0.148E-02
CGA:   4    -0.128291045900E+04   -0.52813E-01   -0.52847E-01 10640   0.728E-01 0.661E-03
CGA:   5    -0.128292429038E+04   -0.13831E-01   -0.13780E-01 10640   0.188E-01-0.616E-03
CGA:   6    -0.128292767030E+04   -0.33799E-02   -0.34170E-02 10640   0.552E-02 0.428E-03
CGA:   7    -0.128292903197E+04   -0.13617E-02   -0.13508E-02 10640   0.206E-02-0.333E-03
CGA:   8    -0.128292942343E+04   -0.39146E-03   -0.39924E-03 10640   0.993E-03 0.126E-03
CGA:   9    -0.128292976882E+04   -0.34539E-03   -0.36249E-03 10640   0.984E-03-0.222E-03
CGA:  10    -0.128292992532E+04   -0.15649E-03   -0.15573E-03 10640   0.541E-03-0.947E-05
CGA:  11    -0.128293011570E+04   -0.19038E-03   -0.24276E-03 10640   0.729E-03-0.283E-03
CGA:  12    -0.128293022032E+04   -0.10462E-03   -0.11549E-03 10640   0.239E-03 0.927E-04
CGA:  13    -0.128293028221E+04   -0.61893E-04   -0.62851E-04 10640   0.135E-03 0.258E-04
CGA:  14    -0.128293036636E+04   -0.84146E-04   -0.96714E-04 10640   0.262E-03-0.337E-04
CGA:  15    -0.128293038274E+04   -0.16383E-04   -0.25170E-04 10640   0.143E-03 0.551E-04
CGA:  16    -0.128293040143E+04   -0.18689E-04   -0.26128E-04 10640   0.129E-03 0.577E-04
CGA:  17    -0.128293045083E+04   -0.49404E-04   -0.49407E-04 10640   0.118E-03 0.140E-05
CGA:  18    -0.128293048023E+04   -0.29396E-04   -0.64273E-04 10640   0.546E-03-0.132E-03
CGA:  19    -0.128293050912E+04   -0.28885E-04   -0.57835E-04 10640   0.123E-03 0.161E-03
CGA:  20    -0.128293052718E+04   -0.18067E-04   -0.25144E-04 10640   0.723E-04 0.590E-04
CGA:  21    -0.128293055819E+04   -0.31004E-04   -0.40470E-04 10640   0.124E-03-0.888E-04
CGA:  22    -0.128293055810E+04    0.91146E-07   -0.10463E-04 10640   0.378E-04 0.549E-04
  15 F= -.12829306E+04 E0= -.12829306E+04  d E =-.367891E-02  mag=    47.0000
       N       E                     dE             d eps       ncg     rms          ort
SDA:   1    -0.128195164575E+04    0.97891E+00    0.00000E+00 10640   0.261E+01 0.000E+00
CGA:   2    -0.128261984154E+04   -0.66820E+00   -0.66819E+00 10640   0.126E+01-0.457E-03
CGA:   3    -0.128287633347E+04   -0.25649E+00   -0.25662E+00 10640   0.270E+00 0.870E-03
CGA:   4    -0.128291737805E+04   -0.41045E-01   -0.41173E-01 10640   0.538E-01 0.184E-02
CGA:   5    -0.128292768282E+04   -0.10305E-01   -0.10254E-01 10640   0.155E-01-0.859E-03
CGA:   6    -0.128293011800E+04   -0.24352E-02   -0.25038E-02 10640   0.441E-02 0.857E-03
CGA:   7    -0.128293116361E+04   -0.10456E-02   -0.10461E-02 10640   0.148E-02 0.315E-04
CGA:   8    -0.128293148710E+04   -0.32349E-03   -0.32664E-03 10640   0.718E-03 0.138E-03
CGA:   9    -0.128293169994E+04   -0.21284E-03   -0.21005E-03 10640   0.403E-03 0.107E-03
CGA:  10    -0.128293180472E+04   -0.10479E-03   -0.10666E-03 10640   0.204E-03 0.158E-03
CGA:  11    -0.128293187953E+04   -0.74807E-04   -0.73096E-04 10640   0.126E-03 0.111E-03
CGA:  12    -0.128293189395E+04   -0.14426E-04   -0.19964E-04 10640   0.762E-04 0.659E-04
CGA:  13    -0.128293192802E+04   -0.34066E-04   -0.30377E-04 10640   0.147E-03 0.230E-04
CGA:  14    -0.128293195640E+04   -0.28381E-04   -0.35570E-04 10640   0.487E-04 0.120E-03
CGA:  15    -0.128293196246E+04   -0.60566E-05   -0.85208E-05 10640   0.387E-04 0.360E-04
CGA:  16    -0.128293198512E+04   -0.22664E-04   -0.17624E-04 10640   0.597E-04 0.233E-04
CGA:  17    -0.128293198887E+04   -0.37478E-05   -0.69577E-05 10640   0.295E-04 0.240E-04
  16 F= -.12829320E+04 E0= -.12829320E+04  d E =-.143077E-02  mag=    47.0000
       N       E                     dE             d eps       ncg     rms          ort
SDA:   1    -0.128264779461E+04    0.28419E+00    0.00000E+00 10640   0.813E+00 0.000E+00
CGA:   2    -0.128283831316E+04   -0.19052E+00   -0.19053E+00 10640   0.357E+00 0.273E-02
CGA:   3    -0.128292006762E+04   -0.81754E-01   -0.81718E-01 10640   0.763E-01-0.324E-02
CGA:   4    -0.128293219867E+04   -0.12131E-01   -0.12098E-01 10640   0.149E-01-0.384E-03
CGA:   5    -0.128293515281E+04   -0.29541E-02   -0.29369E-02 10640   0.412E-02-0.453E-03
CGA:   6    -0.128293588668E+04   -0.73386E-03   -0.73063E-03 10640   0.136E-02-0.592E-04
CGA:   7    -0.128293619405E+04   -0.30738E-03   -0.30720E-03 10640   0.468E-03-0.173E-03
CGA:   8    -0.128293628895E+04   -0.94899E-04   -0.94925E-04 10640   0.211E-03-0.149E-04
CGA:   9    -0.128293638907E+04   -0.10012E-03    0.39473E-03 10640   0.934E-04 0.119E-04
CGA:  10    -0.128293644678E+04   -0.57706E-04    0.42713E-04 10640   0.427E-04 0.186E-04
CGA:  11    -0.128293648675E+04   -0.39974E-04    0.85575E-05 10640   0.233E-04 0.163E-04
CGA:  12    -0.128293653165E+04   -0.44902E-04    0.18340E-05 10640   0.149E-04 0.140E-04
CGA:  13    -0.128293653314E+04   -0.14897E-05   -0.22196E-05 10640   0.998E-05 0.893E-05
  17 F= -.12829365E+04 E0= -.12829365E+04  d E =-.454427E-02  mag=    47.0000
       N       E                     dE             d eps       ncg     rms          ort
SDA:   1    -0.128281166107E+04    0.12487E+00    0.00000E+00 10640   0.356E+00 0.000E+00
CGA:   2    -0.128289543831E+04   -0.83777E-01   -0.83768E-01 10640   0.163E+00 0.113E-02
CGA:   3    -0.128293121518E+04   -0.35777E-01   -0.35755E-01 10640   0.412E-01-0.255E-02
CGA:   4    -0.128293720952E+04   -0.59943E-02   -0.59725E-02 10640   0.779E-02-0.243E-03
CGA:   5    -0.128293879142E+04   -0.15819E-02   -0.15694E-02 10640   0.223E-02-0.615E-03
CGA:   6    -0.128293919085E+04   -0.39943E-03   -0.39688E-03 10640   0.690E-03-0.853E-04
CGA:   7    -0.128293937233E+04   -0.18148E-03   -0.21514E-03 10640   0.607E-03-0.322E-03
CGA:   8    -0.128293943004E+04   -0.57711E-04   -0.54322E-04 10640   0.282E-03-0.577E-04
CGA:   9    -0.128293950266E+04   -0.72618E-04   -0.94511E-04 10640   0.403E-03-0.149E-03
CGA:  10    -0.128293959505E+04   -0.92388E-04   -0.91533E-04 10640   0.470E-03-0.284E-03
CGA:  11    -0.128293961876E+04   -0.23715E-04   -0.37123E-04 10640   0.363E-04 0.902E-04
CGA:  12    -0.128293962304E+04   -0.42806E-05   -0.53409E-05 10640   0.284E-04 0.108E-04
  18 F= -.12829396E+04 E0= -.12829396E+04  d E =-.308990E-02  mag=    47.0000
       N       E                     dE             d eps       ncg     rms          ort
SDA:   1    -0.127651653469E+04    0.64231E+01    0.00000E+00 10640   0.178E+02 0.000E+00
CGA:   2    -0.128073753031E+04   -0.42210E+01   -0.42207E+01 10640   0.849E+01 0.166E-01
CGA:   3    -0.128247854327E+04   -0.17410E+01   -0.17408E+01 10640   0.226E+01-0.157E-01
CGA:   4    -0.128281081124E+04   -0.33227E+00   -0.33196E+00 10640   0.401E+00 0.184E-02
CGA:   5    -0.128288855710E+04   -0.77746E-01   -0.77664E-01 10640   0.985E-01-0.388E-02
CGA:   6    -0.128290751645E+04   -0.18959E-01   -0.18971E-01 10640   0.312E-01 0.940E-03
CGA:   7    -0.128291477912E+04   -0.72627E-02   -0.73111E-02 10640   0.132E-01-0.237E-02
CGA:   8    -0.128291704758E+04   -0.22685E-02   -0.22760E-02 10640   0.573E-02 0.342E-03
CGA:   9    -0.128291888258E+04   -0.18350E-02   -0.19525E-02 10640   0.506E-02-0.961E-03
CGA:  10    -0.128291990905E+04   -0.10265E-02   -0.10593E-02 10640   0.394E-02-0.956E-03
CGA:  11    -0.128292081674E+04   -0.90768E-03   -0.10292E-02 10640   0.294E-02-0.117E-02
CGA:  12    -0.128292135384E+04   -0.53711E-03   -0.56379E-03 10640   0.221E-02-0.546E-03
CGA:  13    -0.128292187245E+04   -0.51861E-03   -0.53206E-03 10640   0.139E-02-0.188E-03
CGA:  14    -0.128292220494E+04   -0.33249E-03   -0.32495E-03 10640   0.711E-03 0.294E-03
CGA:  15    -0.128292238877E+04   -0.18383E-03   -0.18840E-03 10640   0.303E-03 0.346E-03
CGA:  16    -0.128292246438E+04   -0.75609E-04   -0.85980E-04 10640   0.156E-03 0.256E-03
CGA:  17    -0.128292247246E+04   -0.80766E-05   -0.20191E-04 10640   0.107E-03 0.121E-03
CGA:  18    -0.128292247419E+04   -0.17282E-05   -0.12307E-04 10640   0.891E-04 0.964E-04
  19 F= -.12829225E+04 E0= -.12829225E+04  d E =0.171489E-01  mag=    47.0000
       N       E                     dE             d eps       ncg     rms          ort
SDA:   1    -0.128011328499E+04    0.28092E+01    0.00000E+00 10640   0.800E+01 0.000E+00
CGA:   2    -0.128195652778E+04   -0.18432E+01   -0.18434E+01 10640   0.346E+01-0.713E-02
CGA:   3    -0.128276128574E+04   -0.80476E+00   -0.80451E+00 10640   0.683E+00 0.133E-01
CGA:   4    -0.128287615677E+04   -0.11487E+00   -0.11485E+00 10640   0.129E+00-0.538E-03
CGA:   5    -0.128290116579E+04   -0.25009E-01   -0.25069E-01 10640   0.309E-01 0.337E-02
CGA:   6    -0.128290723980E+04   -0.60740E-02   -0.60914E-02 10640   0.125E-01 0.915E-03
CGA:   7    -0.128290956659E+04   -0.23268E-02   -0.23231E-02 10640   0.389E-02-0.107E-03
CGA:   8    -0.128291021388E+04   -0.64729E-03   -0.67726E-03 10640   0.130E-02 0.905E-03
CGA:   9    -0.128291067234E+04   -0.45846E-03   -0.44116E-03 10640   0.731E-03 0.255E-03
CGA:  10    -0.128291077920E+04   -0.10686E-03   -0.13302E-03 10640   0.385E-03 0.447E-03
CGA:  11    -0.128291080786E+04   -0.28659E-04   -0.49066E-04 10640   0.219E-03 0.254E-03
CGA:  12    -0.128291083079E+04   -0.22932E-04   -0.32572E-04 10640   0.163E-03 0.176E-03
CGA:  13    -0.128291083244E+04   -0.16479E-05   -0.16501E-04 10640   0.142E-03 0.149E-03
CGA:  14    -0.128291083574E+04   -0.32984E-05   -0.15215E-04 10640   0.128E-03 0.134E-03
CGA:  15    -0.128291083667E+04   -0.92948E-06   -0.12503E-04 10640   0.118E-03 0.123E-03
CGA:  16    -0.128291083686E+04   -0.19248E-06   -0.10991E-04 10640   0.111E-03 0.115E-03
  20 F= -.12829108E+04 E0= -.12829108E+04  d E =0.116373E-01  mag=    47.0000
       N       E                     dE             d eps       ncg     rms          ort
SDA:   1    -0.128107511899E+04    0.18357E+01    0.00000E+00 10640   0.516E+01 0.000E+00
CGA:   2    -0.128229953502E+04   -0.12244E+01   -0.12252E+01 10640   0.245E+01-0.105E-01
CGA:   3    -0.128280044408E+04   -0.50091E+00   -0.50052E+00 10640   0.685E+00 0.125E-01
CGA:   4    -0.128289727305E+04   -0.96829E-01   -0.96870E-01 10640   0.125E+00 0.187E-02
CGA:   5    -0.128292009952E+04   -0.22826E-01   -0.22816E-01 10640   0.268E-01 0.353E-02
CGA:   6    -0.128292624513E+04   -0.61456E-02   -0.62194E-02 10640   0.965E-02-0.160E-02
CGA:   7    -0.128292801726E+04   -0.17721E-02   -0.17670E-02 10640   0.296E-02 0.418E-03
CGA:   8    -0.128292880848E+04   -0.79122E-03   -0.10009E-02 10640   0.370E-02-0.148E-02
CGA:   9    -0.128292910290E+04   -0.29442E-03   -0.28497E-03 10640   0.200E-02-0.258E-03
CGA:  10    -0.128292936556E+04   -0.26266E-03   -0.27012E-03 10640   0.134E-02 0.176E-03
CGA:  11    -0.128292962800E+04   -0.26244E-03   -0.26159E-03 10640   0.581E-03-0.121E-03
CGA:  12    -0.128292965977E+04   -0.31768E-04   -0.29313E-03 10640   0.222E-02-0.706E-03
CGA:  13    -0.128292985355E+04   -0.19378E-03   -0.23290E-03 10640   0.420E-03 0.399E-03
CGA:  14    -0.128292998196E+04   -0.12841E-03   -0.13069E-03 10640   0.180E-03-0.347E-04
CGA:  15    -0.128293007655E+04   -0.94585E-04    0.40147E-04 10640   0.147E-03-0.379E-04
CGA:  16    -0.128293010648E+04   -0.29936E-04   -0.53851E-04 10640   0.266E-03-0.910E-04
CGA:  17    -0.128293012504E+04   -0.18559E-04   -0.28007E-04 10640   0.611E-04 0.861E-04
CGA:  18    -0.128293013139E+04   -0.63517E-05   -0.97132E-05 10640   0.303E-04 0.375E-04
  21 F= -.12829301E+04 E0= -.12829301E+04  d E =-.192945E-01  mag=    47.0000
       N       E                     dE             d eps       ncg     rms          ort
SDA:   1    -0.128252636311E+04    0.40376E+00    0.00000E+00 10640   0.118E+01 0.000E+00
CGA:   2    -0.128278646766E+04   -0.26010E+00   -0.26009E+00 10640   0.523E+00 0.142E-02
CGA:   3    -0.128290267254E+04   -0.11620E+00   -0.11622E+00 10640   0.145E+00-0.775E-03
CGA:   4    -0.128292297221E+04   -0.20300E-01   -0.20358E-01 10640   0.259E-01 0.106E-02
CGA:   5    -0.128292781766E+04   -0.48454E-02   -0.48302E-02 10640   0.755E-02-0.795E-03
CGA:   6    -0.128292897346E+04   -0.11558E-02   -0.11856E-02 10640   0.186E-02 0.748E-03
CGA:   7    -0.128292948086E+04   -0.50740E-03   -0.51137E-03 10640   0.719E-03-0.788E-04
CGA:   8    -0.128292958484E+04   -0.10398E-03   -0.11067E-03 10640   0.287E-03 0.159E-03
CGA:   9    -0.128292965249E+04   -0.67649E-04   -0.68356E-04 10640   0.135E-03 0.113E-03
CGA:  10    -0.128292970548E+04   -0.52987E-04   -0.49721E-04 10640   0.115E-03 0.517E-04
CGA:  11    -0.128292971591E+04   -0.10429E-04   -0.18828E-04 10640   0.682E-04 0.979E-04
CGA:  12    -0.128292972013E+04   -0.42247E-05   -0.81972E-05 10640   0.418E-04 0.500E-04
  22 F= -.12829297E+04 E0= -.12829297E+04  d E =0.411265E-03  mag=    47.0000
       N       E                     dE             d eps       ncg     rms          ort
SDA:   1    -0.128102685837E+04    0.19029E+01    0.00000E+00 10640   0.534E+01 0.000E+00
CGA:   2    -0.128226174196E+04   -0.12349E+01   -0.12350E+01 10640   0.238E+01-0.420E-02
CGA:   3    -0.128279736679E+04   -0.53562E+00   -0.53543E+00 10640   0.556E+00 0.788E-02
CGA:   4    -0.128288046666E+04   -0.83100E-01   -0.83172E-01 10640   0.117E+00 0.230E-02
CGA:   5    -0.128290031441E+04   -0.19848E-01   -0.19853E-01 10640   0.333E-01 0.285E-03
CGA:   6    -0.128290586000E+04   -0.55456E-02   -0.56002E-02 10640   0.890E-02 0.225E-02
CGA:   7    -0.128290822395E+04   -0.23640E-02   -0.23675E-02 10640   0.305E-02-0.507E-04
CGA:   8    -0.128290874019E+04   -0.51625E-03   -0.53250E-03 10640   0.124E-02 0.867E-03
CGA:   9    -0.128290908956E+04   -0.34937E-03   -0.33804E-03 10640   0.646E-03 0.579E-03
CGA:  10    -0.128290925862E+04   -0.16906E-03   -0.17460E-03 10640   0.417E-03 0.531E-03
CGA:  11    -0.128290928162E+04   -0.23000E-04   -0.47869E-04 10640   0.279E-03 0.314E-03
CGA:  12    -0.128290931402E+04   -0.32402E-04   -0.42006E-04 10640   0.225E-03 0.244E-03
CGA:  13    -0.128290932484E+04   -0.10821E-04   -0.26134E-04 10640   0.204E-03 0.213E-03
CGA:  14    -0.128290933640E+04   -0.11562E-04   -0.24272E-04 10640   0.188E-03 0.195E-03
CGA:  15    -0.128290934409E+04   -0.76836E-05   -0.20594E-04 10640   0.175E-03 0.181E-03
CGA:  16    -0.128290935039E+04   -0.62999E-05   -0.18529E-04 10640   0.165E-03 0.170E-03
CGA:  17    -0.128290935524E+04   -0.48506E-05   -0.16638E-04 10640   0.157E-03 0.161E-03
CGA:  18    -0.128290935907E+04   -0.38301E-05   -0.15115E-04 10640   0.149E-03 0.153E-03
CGA:  19    -0.128290936207E+04   -0.30021E-05   -0.13807E-04 10640   0.143E-03 0.146E-03
CGA:  20    -0.128290936441E+04   -0.23364E-05   -0.12675E-04 10640   0.137E-03 0.140E-03
CGA:  21    -0.128290936620E+04   -0.17912E-05   -0.11682E-04 10640   0.131E-03 0.134E-03
CGA:  22    -0.128290936754E+04   -0.13398E-05   -0.10804E-04 10640   0.127E-03 0.129E-03
CGA:  23    -0.128290936851E+04   -0.97181E-06   -0.10024E-04 10640   0.122E-03 0.125E-03
  23 F= -.12829094E+04 E0= -.12829094E+04  d E =0.203516E-01  mag=    47.0000
       N       E                     dE             d eps       ncg     rms          ort
SDA:   1    -0.125268977184E+04    0.30220E+02    0.00000E+00 10640   0.102E+03 0.000E+00
CGA:   2    -0.127112549217E+04   -0.18436E+02   -0.18250E+02 10640   0.359E+02 0.367E+01
CGA:   3    -0.127963323416E+04   -0.85077E+01   -0.87887E+01 10640   0.205E+02-0.407E+01
CGA:   4    -0.128183428882E+04   -0.22011E+01   -0.22466E+01 10640   0.257E+01 0.492E+00
CGA:   5    -0.128231800144E+04   -0.48371E+00   -0.48359E+00 10640   0.673E+00 0.413E-02
CGA:   6    -0.128245371549E+04   -0.13571E+00   -0.13659E+00 10640   0.223E+00-0.169E-01
CGA:   7    -0.128250002499E+04   -0.46309E-01   -0.46859E-01 10640   0.912E-01-0.101E-01
CGA:   8    -0.128251555780E+04   -0.15533E-01   -0.15609E-01 10640   0.338E-01-0.347E-02
CGA:   9    -0.128252419670E+04   -0.86389E-02   -0.10387E-01 10640   0.302E-01-0.107E-01
CGA:  10    -0.128252857966E+04   -0.43830E-02   -0.72574E-02 10640   0.291E-01-0.153E-01
CGA:  11    -0.128253432460E+04   -0.57449E-02   -0.58396E-02 10640   0.153E-01-0.370E-02
CGA:  12    -0.128253731956E+04   -0.29950E-02   -0.32423E-02 10640   0.618E-02-0.369E-02
CGA:  13    -0.128253719905E+04    0.12051E-03   -0.27798E-02 10640   0.298E-01-0.695E-02
CGA:  14    -0.128254030892E+04   -0.31099E-02   -0.31807E-02 10640   0.257E-02 0.104E-02
CGA:  15    -0.128254107317E+04   -0.76425E-03   -0.78454E-03 10640   0.201E-02-0.201E-03
CGA:  16    -0.128253509264E+04    0.59805E-02   -0.32601E-02 10640   0.540E-01-0.754E-02
CGA:  17    -0.128254159648E+04   -0.65038E-02   -0.67288E-02 10640   0.748E-02 0.165E-02
CGA:  18    -0.128254363747E+04   -0.20410E-02   -0.19970E-02 10640   0.514E-02-0.463E-03
CGA:  19    -0.128254447327E+04   -0.83580E-03   -0.77306E-03 10640   0.618E-03-0.314E-03
CGA:  20    -0.128254476147E+04   -0.28820E-03   -0.37102E-03 10640   0.131E-02-0.278E-03
CGA:  21    -0.128254479674E+04   -0.35271E-04   -0.85877E-04 10640   0.863E-03 0.216E-03
CGA:  22    -0.128254485846E+04   -0.61722E-04   -0.12803E-03 10640   0.617E-03 0.308E-03
CGA:  23    -0.128254504620E+04   -0.18774E-03   -0.19984E-03 10640   0.635E-03 0.127E-03
CGA:  24    -0.128254529526E+04   -0.24906E-03   -0.24601E-03 10640   0.133E-02-0.484E-03
CGA:  25    -0.128254545213E+04   -0.15686E-03   -0.20355E-03 10640   0.359E-03 0.272E-03
CGA:  26    -0.128254560596E+04   -0.15383E-03   -0.17144E-03 10640   0.386E-03-0.226E-03
CGA:  27    -0.128254563979E+04   -0.33833E-04   -0.51757E-04 10640   0.135E-03 0.957E-04
CGA:  28    -0.128254568840E+04   -0.48608E-04   -0.49286E-04 10640   0.918E-04 0.327E-04
CGA:  29    -0.128254573718E+04   -0.48780E-04   -0.47807E-04 10640   0.260E-03 0.884E-05
CGA:  30    -0.128254591485E+04   -0.17767E-03   -0.18108E-03 10640   0.774E-03-0.911E-05
CGA:  31    -0.128254615981E+04   -0.24496E-03   -0.24115E-03 10640   0.718E-03-0.344E-03
CGA:  32    -0.128254620192E+04   -0.42104E-04   -0.41454E-04 10640   0.402E-03-0.101E-05
CGA:  33    -0.128254620849E+04   -0.65728E-05   -0.33918E-04 10640   0.226E-03 0.115E-03
CGA:  34    -0.128254619732E+04    0.11175E-04   -0.21225E-04 10640   0.151E-03 0.136E-03
CGA:  35    -0.128254620822E+04   -0.10901E-04   -0.23120E-04 10640   0.100E-03 0.847E-04
CGA:  36    -0.128254622729E+04   -0.19075E-04   -0.22717E-04 10640   0.792E-04 0.575E-04
CGA:  37    -0.128254623294E+04   -0.56470E-05   -0.11732E-04 10640   0.573E-04 0.438E-04
CGA:  38    -0.128254624233E+04   -0.93915E-05   -0.11934E-04 10640   0.478E-04 0.354E-04
  24 F= -.12825462E+04 E0= -.12825462E+04  d E =0.363126E+00  mag=    47.0000
       N       E                     dE             d eps       ncg     rms          ort
SDA:   1    -0.127636689491E+04    0.61793E+01    0.00000E+00 10640   0.214E+02 0.000E+00
CGA:   2    -0.128051693446E+04   -0.41500E+01   -0.41498E+01 10640   0.759E+01-0.793E-02
CGA:   3    -0.128246293192E+04   -0.19460E+01   -0.19462E+01 10640   0.201E+01 0.134E-01
CGA:   4    -0.128277863124E+04   -0.31570E+00   -0.31631E+00 10640   0.332E+00 0.618E-02
CGA:   5    -0.128284271683E+04   -0.64086E-01   -0.64339E-01 10640   0.974E-01 0.432E-02
CGA:   6    -0.128286017506E+04   -0.17458E-01   -0.17554E-01 10640   0.338E-01 0.104E-02
CGA:   7    -0.128286659268E+04   -0.64176E-02   -0.64652E-02 10640   0.841E-02 0.850E-03
CGA:   8    -0.128286884168E+04   -0.22490E-02   -0.22597E-02 10640   0.481E-02-0.883E-03
CGA:   9    -0.128286952184E+04   -0.68017E-03   -0.73338E-03 10640   0.186E-02 0.674E-03
CGA:  10    -0.128286993805E+04   -0.41621E-03   -0.44112E-03 10640   0.695E-03 0.643E-03
CGA:  11    -0.128287008493E+04   -0.14687E-03   -0.17186E-03 10640   0.460E-03 0.410E-03
CGA:  12    -0.128287012322E+04   -0.38289E-04   -0.61464E-04 10640   0.271E-03 0.215E-03
CGA:  13    -0.128287019434E+04   -0.71129E-04   -0.80095E-04 10640   0.227E-03 0.257E-03
CGA:  14    -0.128287025415E+04   -0.59804E-04   -0.58387E-04 10640   0.300E-03 0.619E-04
CGA:  15    -0.128287028488E+04   -0.30730E-04   -0.57043E-04 10640   0.177E-03 0.304E-03
CGA:  16    -0.128287029294E+04   -0.80665E-05   -0.21084E-04 10640   0.122E-03 0.116E-03
CGA:  17    -0.128287034440E+04   -0.51451E-04   -0.41026E-04 10640   0.134E-03 0.944E-04
CGA:  18    -0.128287034577E+04   -0.13774E-05   -0.13694E-04 10640   0.998E-04 0.956E-04
CGA:  19    -0.128287037826E+04   -0.32486E-04   -0.27635E-04 10640   0.950E-04 0.925E-04
CGA:  20    -0.128287038919E+04   -0.10932E-04   -0.15974E-04 10640   0.901E-04 0.849E-04
CGA:  21    -0.128287043908E+04   -0.49887E-04   -0.36980E-04 10640   0.124E-03 0.690E-04
CGA:  22    -0.128287044108E+04   -0.19992E-05   -0.11919E-04 10640   0.759E-04 0.721E-04
CGA:  23    -0.128287048062E+04   -0.39540E-04   -0.28761E-04 10640   0.728E-04 0.705E-04
CGA:  24    -0.128287049259E+04   -0.11977E-04   -0.14312E-04 10640   0.719E-04 0.613E-04
CGA:  25    -0.128287055351E+04   -0.60915E-04   -0.81570E-04 10640   0.997E-03-0.236E-04
CGA:  26    -0.128287066393E+04   -0.11042E-03   -0.13275E-03 10640   0.182E-02 0.269E-03
CGA:  27    -0.128287081609E+04   -0.15216E-03   -0.23372E-03 10640   0.343E-04 0.460E-03
CGA:  28    -0.128287082244E+04   -0.63560E-05   -0.63810E-05 10640   0.299E-04-0.448E-07
  25 F= -.12828708E+04 E0= -.12828708E+04  d E =-.324580E+00  mag=    47.0000
       N       E                     dE             d eps       ncg     rms          ort
SDA:   1    -0.128176781481E+04    0.11030E+01    0.00000E+00 10640   0.365E+01 0.000E+00
CGA:   2    -0.128250504352E+04   -0.73723E+00   -0.73709E+00 10640   0.136E+01-0.198E-02
CGA:   3    -0.128284829927E+04   -0.34326E+00   -0.34326E+00 10640   0.328E+00-0.437E-03
CGA:   4    -0.128290038889E+04   -0.52090E-01   -0.52312E-01 10640   0.572E-01 0.246E-02
CGA:   5    -0.128291177257E+04   -0.11384E-01   -0.11382E-01 10640   0.157E-01-0.278E-04
CGA:   6    -0.128291437963E+04   -0.26071E-02   -0.26998E-02 10640   0.494E-02 0.124E-02
CGA:   7    -0.128291556554E+04   -0.11859E-02   -0.11772E-02 10640   0.170E-02-0.360E-03
CGA:   8    -0.128291587431E+04   -0.30877E-03   -0.31289E-03 10640   0.713E-03 0.942E-04
CGA:   9    -0.128291605327E+04   -0.17896E-03   -0.17907E-03 10640   0.377E-03 0.324E-04
CGA:  10    -0.128291611481E+04   -0.61541E-04   -0.70410E-04 10640   0.151E-03 0.142E-03
CGA:  11    -0.128291613851E+04   -0.23701E-04   -0.33233E-04 10640   0.894E-04 0.123E-03
CGA:  12    -0.128291616055E+04   -0.22041E-04   -0.21709E-04 10640   0.785E-04 0.388E-04
CGA:  13    -0.128291617342E+04   -0.12873E-04   -0.18324E-04 10640   0.455E-04 0.759E-04
CGA:  14    -0.128291618999E+04   -0.16567E-04   -0.13969E-04 10640   0.379E-04 0.341E-04
CGA:  15    -0.128291619324E+04   -0.32476E-05   -0.59256E-05 10640   0.340E-04 0.341E-04
CGA:  16    -0.128291621942E+04   -0.26186E-04   -0.17647E-04 10640   0.360E-04 0.294E-04
CGA:  17    -0.128291621801E+04    0.14089E-05   -0.31752E-05 10640   0.284E-04 0.292E-04
  26 F= -.12829162E+04 E0= -.12829162E+04  d E =-.453956E-01  mag=    47.0000
       N       E                     dE             d eps       ncg     rms          ort
SDA:   1    -0.128267616067E+04    0.24006E+00    0.00000E+00 10640   0.739E+00 0.000E+00
CGA:   2    -0.128284356741E+04   -0.16741E+00   -0.16740E+00 10640   0.310E+00-0.295E-03
CGA:   3    -0.128291638897E+04   -0.72822E-01   -0.72817E-01 10640   0.644E-01-0.127E-02
CGA:   4    -0.128292721139E+04   -0.10822E-01   -0.10829E-01 10640   0.118E-01 0.112E-03
CGA:   5    -0.128292953905E+04   -0.23277E-02   -0.23366E-02 10640   0.261E-02 0.248E-03
CGA:   6    -0.128293007769E+04   -0.53864E-03   -0.54496E-03 10640   0.907E-03 0.225E-03
CGA:   7    -0.128293029178E+04   -0.21409E-03   -0.21329E-03 10640   0.416E-03-0.515E-04
CGA:   8    -0.128293038735E+04   -0.95568E-04   -0.95888E-04 10640   0.257E-03-0.235E-04
CGA:   9    -0.128293044343E+04   -0.56085E-04   -0.56102E-04 10640   0.134E-03 0.399E-04
CGA:  10    -0.128293030748E+04    0.13595E-03   -0.17665E-03 10640   0.219E-02-0.344E-03
CGA:  11    -0.128293049017E+04   -0.18269E-03   -0.22990E-03 10640   0.359E-03 0.282E-03
CGA:  12    -0.128293058554E+04   -0.95379E-04   -0.95217E-04 10640   0.118E-03-0.474E-05
CGA:  13    -0.128293057523E+04    0.10318E-04   -0.79990E-04 10640   0.108E-02-0.214E-03
CGA:  14    -0.128293063700E+04   -0.61773E-04   -0.96176E-04 10640   0.968E-04 0.177E-03
CGA:  15    -0.128293064743E+04   -0.10433E-04   -0.15778E-04 10640   0.549E-04 0.388E-04
CGA:  16    -0.128293066978E+04   -0.22348E-04   -0.31071E-04 10640   0.109E-03-0.656E-04
CGA:  17    -0.128293067912E+04   -0.93422E-05   -0.14099E-04 10640   0.343E-04 0.321E-04
CGA:  18    -0.128293066735E+04    0.11775E-04   -0.37425E-04 10640   0.244E-03-0.860E-04
CGA:  19    -0.128293069783E+04   -0.30484E-04   -0.40735E-04 10640   0.552E-04 0.780E-04
CGA:  20    -0.128293072097E+04   -0.23140E-04   -0.26548E-04 10640   0.779E-04-0.470E-04
CGA:  21    -0.128293072199E+04   -0.10182E-05   -0.68213E-05 10640   0.207E-04 0.280E-04
  27 F= -.12829307E+04 E0= -.12829307E+04  d E =-.145040E-01  mag=    47.0000
       N       E                     dE             d eps       ncg     rms          ort
SDA:   1    -0.128111335750E+04    0.18174E+01    0.00000E+00 10640   0.518E+01 0.000E+00
CGA:   2    -0.128233609693E+04   -0.12227E+01   -0.12226E+01 10640   0.224E+01-0.215E-02
CGA:   3    -0.128284508147E+04   -0.50898E+00   -0.50896E+00 10640   0.463E+00-0.831E-03
CGA:   4    -0.128292203399E+04   -0.76953E-01   -0.77009E-01 10640   0.924E-01 0.106E-02
CGA:   5    -0.128293887407E+04   -0.16840E-01   -0.16855E-01 10640   0.258E-01 0.115E-03
CGA:   6    -0.128294310622E+04   -0.42321E-02   -0.43099E-02 10640   0.855E-02 0.896E-03
CGA:   7    -0.128294516207E+04   -0.20558E-02   -0.20395E-02 10640   0.273E-02-0.571E-03
CGA:   8    -0.128294578369E+04   -0.62162E-03   -0.62152E-03 10640   0.138E-02-0.375E-05
CGA:   9    -0.128294617495E+04   -0.39126E-03   -0.40052E-03 10640   0.125E-02-0.275E-03
CGA:  10    -0.128294638811E+04   -0.21316E-03   -0.21097E-03 10640   0.573E-03-0.433E-04
CGA:  11    -0.128294659284E+04   -0.20474E-03   -0.23380E-03 10640   0.588E-03-0.174E-03
CGA:  12    -0.128294667313E+04   -0.80285E-04   -0.81822E-04 10640   0.366E-03 0.242E-04
CGA:  13    -0.128294679245E+04   -0.11932E-03   -0.11779E-03 10640   0.294E-03 0.309E-04
CGA:  14    -0.128294688793E+04   -0.95480E-04   -0.98480E-04 10640   0.437E-03-0.660E-04
CGA:  15    -0.128294695129E+04   -0.63362E-04   -0.67185E-04 10640   0.298E-03 0.563E-04
CGA:  16    -0.128294698662E+04   -0.35326E-04   -0.46179E-04 10640   0.179E-03 0.868E-04
CGA:  17    -0.128294702322E+04   -0.36602E-04   -0.41742E-04 10640   0.111E-03 0.677E-04
CGA:  18    -0.128294704705E+04   -0.23825E-04   -0.25805E-04 10640   0.631E-04 0.234E-04
CGA:  19    -0.128294706179E+04   -0.14743E-04   -0.15857E-04 10640   0.636E-04 0.271E-04
CGA:  20    -0.128294707677E+04   -0.14982E-04   -0.17062E-04 10640   0.431E-04 0.352E-04
CGA:  21    -0.128294708563E+04   -0.88611E-05   -0.91543E-05 10640   0.280E-04 0.950E-05
  28 F= -.12829471E+04 E0= -.12829471E+04  d E =-.163636E-01  mag=    47.0000
       N       E                     dE             d eps       ncg     rms          ort
SDA:   1    -0.128248910809E+04    0.45797E+00    0.00000E+00 10640   0.124E+01 0.000E+00
CGA:   2    -0.128281121808E+04   -0.32211E+00   -0.32217E+00 10640   0.560E+00-0.367E-02
CGA:   3    -0.128292691514E+04   -0.11570E+00   -0.11580E+00 10640   0.116E+00 0.296E-02
CGA:   4    -0.128294593742E+04   -0.19022E-01   -0.19127E-01 10640   0.252E-01 0.151E-02
CGA:   5    -0.128295031243E+04   -0.43750E-02   -0.43819E-02 10640   0.696E-02 0.103E-03
CGA:   6    -0.128295136354E+04   -0.10511E-02   -0.11056E-02 10640   0.187E-02 0.720E-03
CGA:   7    -0.128295190662E+04   -0.54308E-03   -0.54643E-03 10640   0.668E-03-0.100E-03
CGA:   8    -0.128295206667E+04   -0.16005E-03   -0.15954E-03 10640   0.355E-03 0.274E-04
CGA:   9    -0.128295212166E+04   -0.54990E-04   -0.63244E-04 10640   0.140E-03 0.132E-03
CGA:  10    -0.128295215436E+04   -0.32696E-04   -0.36525E-04 10640   0.841E-04 0.936E-04
CGA:  11    -0.128295217451E+04   -0.20148E-04   -0.19943E-04 10640   0.715E-04 0.253E-04
CGA:  12    -0.128295218237E+04   -0.78611E-05   -0.13513E-04 10640   0.408E-04 0.673E-04
  29 F= -.12829522E+04 E0= -.12829522E+04  d E =-.509674E-02  mag=    47.0000
       N       E                     dE             d eps       ncg     rms          ort
SDA:   1    -0.128167210603E+04    0.12801E+01    0.00000E+00 10640   0.337E+01 0.000E+00
CGA:   2    -0.128258682676E+04   -0.91472E+00   -0.91531E+00 10640   0.151E+01-0.114E-01
CGA:   3    -0.128289718990E+04   -0.31036E+00   -0.31052E+00 10640   0.284E+00 0.112E-01
CGA:   4    -0.128294849073E+04   -0.51301E-01   -0.51360E-01 10640   0.545E-01 0.152E-02
CGA:   5    -0.128295896645E+04   -0.10476E-01   -0.10551E-01 10640   0.105E-01 0.284E-02
CGA:   6    -0.128296161296E+04   -0.26465E-02   -0.26299E-02 10640   0.324E-02 0.814E-03
CGA:   7    -0.128296248344E+04   -0.87048E-03   -0.87866E-03 10640   0.181E-02-0.247E-03
CGA:   8    -0.128296270977E+04   -0.22632E-03   -0.25962E-03 10640   0.689E-03 0.512E-03
CGA:   9    -0.128296282929E+04   -0.11952E-03   -0.14218E-03 10640   0.408E-03 0.402E-03
CGA:  10    -0.128296293080E+04   -0.10151E-03   -0.10086E-03 10640   0.433E-03 0.204E-04
CGA:  11    -0.128296295830E+04   -0.27502E-04   -0.56101E-04 10640   0.220E-03 0.308E-03
CGA:  12    -0.128296295800E+04    0.30520E-06   -0.17767E-04 10640   0.119E-03 0.138E-03
CGA:  13    -0.128296296136E+04   -0.33668E-05   -0.13388E-04 10640   0.103E-03 0.108E-03
CGA:  14    -0.128296296828E+04   -0.69154E-05   -0.13645E-04 10640   0.942E-04 0.983E-04
CGA:  15    -0.128296297265E+04   -0.43706E-05   -0.11342E-04 10640   0.879E-04 0.909E-04
CGA:  16    -0.128296297601E+04   -0.33604E-05   -0.10071E-04 10640   0.828E-04 0.853E-04
  30 F= -.12829630E+04 E0= -.12829630E+04  d E =-.107936E-01  mag=    47.0000
       N       E                     dE             d eps       ncg     rms          ort
SDA:   1    -0.128001663659E+04    0.29463E+01    0.00000E+00 10640   0.733E+01 0.000E+00
CGA:   2    -0.128223721061E+04   -0.22206E+01   -0.22229E+01 10640   0.298E+01-0.180E-01
CGA:   3    -0.128282865235E+04   -0.59144E+00   -0.59141E+00 10640   0.590E+00 0.131E-01
CGA:   4    -0.128293722952E+04   -0.10858E+00   -0.10858E+00 10640   0.113E+00 0.378E-03
CGA:   5    -0.128295777504E+04   -0.20546E-01   -0.20582E-01 10640   0.263E-01 0.445E-02
CGA:   6    -0.128296325060E+04   -0.54756E-02   -0.54635E-02 10640   0.109E-01 0.142E-02
CGA:   7    -0.128296540767E+04   -0.21571E-02   -0.21567E-02 10640   0.385E-02-0.111E-03
CGA:   8    -0.128296618269E+04   -0.77502E-03   -0.76613E-03 10640   0.149E-02 0.867E-03
CGA:   9    -0.128296659907E+04   -0.41638E-03   -0.39937E-03 10640   0.692E-03 0.620E-03
CGA:  10    -0.128296674457E+04   -0.14550E-03   -0.16126E-03 10640   0.375E-03 0.555E-03
CGA:  11    -0.128296677693E+04   -0.32361E-04   -0.49143E-04 10640   0.248E-03 0.277E-03
CGA:  12    -0.128296679244E+04   -0.15510E-04   -0.30116E-04 10640   0.203E-03 0.219E-03
CGA:  13    -0.128296679871E+04   -0.62630E-05   -0.21388E-04 10640   0.180E-03 0.190E-03
CGA:  14    -0.128296680241E+04   -0.36994E-05   -0.17773E-04 10640   0.164E-03 0.171E-03
CGA:  15    -0.128296680402E+04   -0.16180E-05   -0.15028E-04 10640   0.152E-03 0.157E-03
CGA:  16    -0.128296680443E+04   -0.40887E-06   -0.13084E-04 10640   0.142E-03 0.147E-03
CGA:  17    -0.128296680399E+04    0.44257E-06   -0.11553E-04 10640   0.134E-03 0.138E-03
CGA:  18    -0.128296680295E+04    0.10383E-05   -0.10315E-04 10640   0.127E-03 0.130E-03
  31 F= -.12829668E+04 E0= -.12829668E+04  d E =-.382694E-02  mag=    47.0000
       N       E                     dE             d eps       ncg     rms          ort
SDA:   1    -0.125616898157E+04    0.26798E+02    0.00000E+00 10640   0.687E+02 0.000E+00
CGA:   2    -0.127511512791E+04   -0.18946E+02   -0.18967E+02 10640   0.311E+02-0.138E+00
CGA:   3    -0.128131541268E+04   -0.62003E+01   -0.61893E+01 10640   0.647E+01 0.162E+00
CGA:   4    -0.128240550265E+04   -0.10901E+01   -0.10901E+01 10640   0.144E+01-0.689E-03
CGA:   5    -0.128265981442E+04   -0.25431E+00   -0.25447E+00 10640   0.382E+00-0.110E-01
CGA:   6    -0.128272963690E+04   -0.69822E-01   -0.69955E-01 10640   0.128E+00-0.598E-02
CGA:   7    -0.128275787489E+04   -0.28238E-01   -0.28484E-01 10640   0.419E-01-0.383E-02
CGA:   8    -0.128276765596E+04   -0.97811E-02   -0.10194E-01 10640   0.299E-01-0.494E-02
CGA:   9    -0.128277320015E+04   -0.55442E-02   -0.56746E-02 10640   0.144E-01-0.297E-02
CGA:  10    -0.128277677085E+04   -0.35707E-02   -0.51169E-02 10640   0.174E-01-0.700E-02
CGA:  11    -0.128277836633E+04   -0.15955E-02   -0.15622E-02 10640   0.778E-02-0.299E-02
CGA:  12    -0.128278007674E+04   -0.17104E-02   -0.21139E-02 10640   0.860E-02-0.283E-02
CGA:  13    -0.128278098555E+04   -0.90881E-03   -0.86547E-03 10640   0.564E-02-0.128E-02
CGA:  14    -0.128278212310E+04   -0.11375E-02   -0.11373E-02 10640   0.542E-02 0.339E-05
CGA:  15    -0.128278298938E+04   -0.86628E-03   -0.87857E-03 10640   0.291E-02 0.404E-03
CGA:  16    -0.128278361726E+04   -0.62788E-03   -0.62520E-03 10640   0.218E-02 0.310E-03
CGA:  17    -0.128278394280E+04   -0.32555E-03   -0.35915E-03 10640   0.106E-02 0.792E-03
CGA:  18    -0.128278401654E+04   -0.73735E-04   -0.13754E-03 10640   0.469E-03 0.676E-03
CGA:  19    -0.128278405818E+04   -0.41643E-04   -0.60069E-04 10640   0.280E-03 0.324E-03
CGA:  20    -0.128278407490E+04   -0.16717E-04   -0.32433E-04 10640   0.215E-03 0.238E-03
CGA:  21    -0.128278407699E+04   -0.20931E-05   -0.19596E-04 10640   0.188E-03 0.199E-03
CGA:  22    -0.128278407708E+04   -0.90738E-07   -0.15996E-04 10640   0.171E-03 0.178E-03
CGA:  23    -0.128278407573E+04    0.13582E-05   -0.13499E-04 10640   0.158E-03 0.163E-03
CGA:  24    -0.128278407368E+04    0.20411E-05   -0.11838E-04 10640   0.149E-03 0.153E-03
CGA:  25    -0.128278407132E+04    0.23678E-05   -0.10625E-04 10640   0.142E-03 0.145E-03
  32 F= -.12827841E+04 E0= -.12827841E+04  d E =0.182732E+00  mag=    47.0000
       N       E                     dE             d eps       ncg     rms          ort
SDA:   1    -0.127571899316E+04    0.70651E+01    0.00000E+00 10640   0.217E+02 0.000E+00
CGA:   2    -0.128033085797E+04   -0.46119E+01   -0.46115E+01 10640   0.896E+01 0.109E-01
CGA:   3    -0.128242496194E+04   -0.20941E+01   -0.20927E+01 10640   0.234E+01 0.133E-01
CGA:   4    -0.128277779260E+04   -0.35283E+00   -0.35285E+00 10640   0.429E+00 0.716E-02
CGA:   5    -0.128285403627E+04   -0.76244E-01   -0.76197E-01 10640   0.125E+00 0.238E-02
CGA:   6    -0.128287637438E+04   -0.22338E-01   -0.22342E-01 10640   0.360E-01 0.379E-04
CGA:   7    -0.128288447318E+04   -0.80988E-02   -0.82268E-02 10640   0.121E-01-0.184E-02
CGA:   8    -0.128288660149E+04   -0.21283E-02   -0.21225E-02 10640   0.519E-02 0.303E-03
CGA:   9    -0.128288801848E+04   -0.14170E-02   -0.16505E-02 10640   0.454E-02-0.159E-02
CGA:  10    -0.128288863536E+04   -0.61688E-03   -0.62582E-03 10640   0.202E-02-0.323E-03
CGA:  11    -0.128288916675E+04   -0.53139E-03   -0.77844E-03 10640   0.179E-02-0.102E-02
CGA:  12    -0.128288961267E+04   -0.44592E-03   -0.46547E-03 10640   0.591E-03-0.261E-03
CGA:  13    -0.128288969077E+04   -0.78101E-04   -0.83278E-04 10640   0.266E-03 0.214E-03
CGA:  14    -0.128288980741E+04   -0.11664E-03   -0.11405E-03 10640   0.253E-03 0.201E-04
CGA:  15    -0.128288992810E+04   -0.12069E-03    0.18865E-03 10640   0.195E-03 0.111E-03
CGA:  16    -0.128288958846E+04    0.33964E-03   -0.20350E-03 10640   0.370E-02-0.691E-03
CGA:  17    -0.128289008076E+04   -0.49230E-03   -0.56167E-03 10640   0.574E-03 0.352E-03
CGA:  18    -0.128289025083E+04   -0.17007E-03   -0.15938E-03 10640   0.334E-03-0.117E-03
CGA:  19    -0.128289034301E+04   -0.92179E-04   -0.96031E-04 10640   0.686E-03-0.180E-03
CGA:  20    -0.128289038662E+04   -0.43611E-04   -0.68006E-04 10640   0.105E-03 0.103E-03
CGA:  21    -0.128289040045E+04   -0.13822E-04   -0.20170E-04 10640   0.429E-04 0.393E-04
CGA:  22    -0.128289041924E+04   -0.18792E-04   -0.18635E-04 10640   0.105E-03-0.332E-04
CGA:  23    -0.128289042526E+04   -0.60189E-05   -0.10504E-04 10640   0.246E-04 0.206E-04
  33 F= -.12828904E+04 E0= -.12828904E+04  d E =-.106354E+00  mag=    47.0000
       N       E                     dE             d eps       ncg     rms          ort
SDA:   1    -0.128237704639E+04    0.51337E+00    0.00000E+00 10640   0.173E+01 0.000E+00
CGA:   2    -0.128271378018E+04   -0.33673E+00   -0.33665E+00 10640   0.632E+00-0.174E-03
CGA:   3    -0.128287431389E+04   -0.16053E+00   -0.16054E+00 10640   0.176E+00-0.225E-03
CGA:   4    -0.128290147081E+04   -0.27157E-01   -0.27296E-01 10640   0.255E-01 0.101E-02
CGA:   5    -0.128290677434E+04   -0.53035E-02   -0.53053E-02 10640   0.699E-02 0.280E-04
CGA:   6    -0.128290799682E+04   -0.12225E-02   -0.12728E-02 10640   0.227E-02 0.472E-03
CGA:   7    -0.128290850233E+04   -0.50551E-03   -0.49552E-03 10640   0.727E-03-0.121E-03
CGA:   8    -0.128290863811E+04   -0.13577E-03   -0.13959E-03 10640   0.249E-03 0.499E-04
CGA:   9    -0.128290869918E+04   -0.61077E-04   -0.62782E-04 10640   0.107E-03 0.421E-04
CGA:  10    -0.128290870270E+04   -0.35137E-05   -0.15014E-04 10640   0.492E-04 0.740E-04
  34 F= -.12829087E+04 E0= -.12829087E+04  d E =-.182774E-01  mag=    47.0000
       N       E                     dE             d eps       ncg     rms          ort
SDA:   1    -0.128283402514E+04    0.74674E-01    0.00000E+00 10640   0.217E+00 0.000E+00
CGA:   2    -0.128289183738E+04   -0.57812E-01   -0.57825E-01 10640   0.984E-01-0.205E-02
CGA:   3    -0.128291119629E+04   -0.19359E-01   -0.19507E-01 10640   0.189E-01 0.251E-02
CGA:   4    -0.128291440461E+04   -0.32083E-02   -0.32863E-02 10640   0.369E-02 0.896E-03
CGA:   5    -0.128291507283E+04   -0.66822E-03   -0.68941E-03 10640   0.931E-03 0.287E-03
CGA:   6    -0.128291518650E+04   -0.11367E-03   -0.14065E-03 10640   0.276E-03 0.249E-03
CGA:   7    -0.128291526777E+04   -0.81275E-04   -0.81602E-04 10640   0.959E-04 0.318E-04
CGA:   8    -0.128291529051E+04   -0.22736E-04   -0.23255E-04 10640   0.519E-04 0.203E-04
CGA:   9    -0.128291528764E+04    0.28643E-05   -0.45801E-05 10640   0.292E-04 0.441E-04
  35 F= -.12829153E+04 E0= -.12829153E+04  d E =-.658495E-02  mag=    47.0000
       N       E                     dE             d eps       ncg     rms          ort
SDA:   1    -0.128105898365E+04    0.18563E+01    0.00000E+00 10640   0.467E+01 0.000E+00
[...]
CGA:   4    -0.128293263770E+04   -0.11913E-01   -0.11904E-01 10640   0.129E-01-0.232E-03
CGA:   5    -0.128293518147E+04   -0.25438E-02   -0.25435E-02 10640   0.301E-02 0.842E-04
CGA:   6    -0.128293583307E+04   -0.65160E-03   -0.65322E-03 10640   0.119E-02-0.798E-04
CGA:   7    -0.128293605736E+04   -0.22429E-03   -0.22414E-03 10640   0.381E-03-0.378E-04
CGA:   8    -0.128293614325E+04   -0.85890E-04   -0.15951E-03 10640   0.855E-03-0.311E-03
CGA:   9    -0.128293622557E+04   -0.82316E-04   -0.89783E-04 10640   0.130E-03 0.738E-04
CGA:  10    -0.128293625543E+04   -0.29867E-04   -0.29738E-04 10640   0.488E-04 0.186E-04
CGA:  11    -0.128293628873E+04   -0.33301E-04    0.12216E-04 10640   0.358E-04 0.223E-04
CGA:  12    -0.128293631718E+04   -0.28445E-04    0.15623E-04 10640   0.227E-04 0.253E-04
CGA:  13    -0.128293629344E+04    0.23735E-04   -0.14740E-04 10640   0.537E-03-0.488E-04
CGA:  14    -0.128293638958E+04   -0.96135E-04   -0.69989E-04 10640   0.113E-03-0.109E-03
CGA:  15    -0.128293639598E+04   -0.64039E-05   -0.11394E-04 10640   0.170E-04 0.217E-04
  44 F= -.12829364E+04 E0= -.12829364E+04  d E =-.726633E-02  mag=    47.0000
       N       E                     dE             d eps       ncg     rms          ort
SDA:   1    -0.128214358741E+04    0.79280E+00    0.00000E+00 10640   0.216E+01 0.000E+00
CGA:   2    -0.128269659170E+04   -0.55300E+00   -0.55322E+00 10640   0.932E+00 0.380E-02
CGA:   3    -0.128289678956E+04   -0.20020E+00   -0.19939E+00 10640   0.193E+00-0.772E-02
CGA:   4    -0.128293045955E+04   -0.33670E-01   -0.33716E-01 10640   0.385E-01 0.402E-03
CGA:   5    -0.128293831366E+04   -0.78541E-02   -0.76528E-02 10640   0.998E-02-0.169E-02
CGA:   6    -0.128293993601E+04   -0.16224E-02   -0.16235E-02 10640   0.384E-02 0.399E-04
CGA:   7    -0.128294075787E+04   -0.82186E-03   -0.79367E-03 10640   0.115E-02-0.280E-03
CGA:   8    -0.128294110006E+04   -0.34219E-03   -0.35325E-03 10640   0.994E-03-0.356E-03
CGA:   9    -0.128294127017E+04   -0.17010E-03   -0.15337E-03 10640   0.551E-03-0.212E-03
CGA:  10    -0.128294139106E+04   -0.12089E-03   -0.19031E-03 10640   0.102E-02-0.491E-03
CGA:  11    -0.128294159149E+04   -0.20044E-03   -0.16429E-03 10640   0.436E-03-0.250E-03
CGA:  12    -0.128294164445E+04   -0.52954E-04   -0.52248E-04 10640   0.899E-04-0.413E-05
CGA:  13    -0.128294166983E+04   -0.25380E-04   -0.25360E-04 10640   0.792E-04-0.339E-05
CGA:  14    -0.128294173903E+04   -0.69200E-04    0.19663E-04 10640   0.154E-03-0.584E-04
CGA:  15    -0.128294174648E+04   -0.74558E-05   -0.13474E-04 10640   0.218E-04 0.300E-04
  45 F= -.12829417E+04 E0= -.12829417E+04  d E =-.535050E-02  mag=    47.0000
       N       E                     dE             d eps       ncg     rms          ort
SDA:   1    -0.128289831297E+04    0.43426E-01    0.00000E+00 10640   0.143E+00 0.000E+00
CGA:   2    -0.128292664989E+04   -0.28337E-01   -0.28359E-01 10640   0.644E-01 0.366E-03
CGA:   3    -0.128293939915E+04   -0.12749E-01   -0.12752E-01 10640   0.241E-01 0.252E-04
CGA:   4    -0.128294279116E+04   -0.33920E-02   -0.34765E-02 10640   0.324E-02 0.702E-03
CGA:   5    -0.128294348929E+04   -0.69812E-03   -0.69204E-03 10640   0.805E-03-0.968E-04
CGA:   6    -0.128294360483E+04   -0.11554E-03   -0.12882E-03 10640   0.200E-03 0.132E-03
CGA:   7    -0.128294367132E+04   -0.66491E-04   -0.68165E-04 10640   0.121E-03-0.519E-04
CGA:   8    -0.128294367839E+04   -0.70670E-05   -0.10835E-04 10640   0.513E-04 0.266E-04
  46 F= -.12829437E+04 E0= -.12829437E+04  d E =-.193191E-02  mag=    47.0000
       N       E                     dE             d eps       ncg     rms          ort
SDA:   1    -0.128288001035E+04    0.63661E-01    0.00000E+00 10640   0.189E+00 0.000E+00
CGA:   2    -0.128292238822E+04   -0.42378E-01   -0.42375E-01 10640   0.828E-01-0.285E-04
CGA:   3    -0.128293998638E+04   -0.17598E-01   -0.17613E-01 10640   0.241E-01 0.451E-03
CGA:   4    -0.128294324953E+04   -0.32632E-02   -0.33267E-02 10640   0.446E-02 0.640E-03
CGA:   5    -0.128294410962E+04   -0.86010E-03   -0.85529E-03 10640   0.112E-02-0.845E-04
CGA:   6    -0.128294427815E+04   -0.16853E-03   -0.18118E-03 10640   0.263E-03 0.174E-03
CGA:   7    -0.128294436188E+04   -0.83735E-04   -0.84639E-04 10640   0.109E-03-0.208E-04
CGA:   8    -0.128294437541E+04   -0.13529E-04   -0.16097E-04 10640   0.446E-04 0.337E-04
CGA:   9    -0.128294438913E+04   -0.13713E-04   -0.13702E-04 10640   0.244E-04 0.839E-05
CGA:  10    -0.128294438811E+04    0.10147E-05   -0.24668E-04 10640   0.145E-03-0.416E-04
CGA:  11    -0.128294439402E+04   -0.59045E-05   -0.15020E-04 10640   0.394E-04 0.569E-04
  47 F= -.12829444E+04 E0= -.12829444E+04  d E =-.715629E-03  mag=    47.0000
       N       E                     dE             d eps       ncg     rms          ort
SDA:   1    -0.128287121874E+04    0.73169E-01    0.00000E+00 10640   0.233E+00 0.000E+00
CGA:   2    -0.128291715703E+04   -0.45938E-01   -0.45960E-01 10640   0.997E-01 0.532E-03
CGA:   3    -0.128293858360E+04   -0.21427E-01   -0.21412E-01 10640   0.384E-01-0.419E-03
CGA:   4    -0.128294385598E+04   -0.52724E-02   -0.53205E-02 10640   0.533E-02 0.547E-03
CGA:   5    -0.128294493052E+04   -0.10745E-02   -0.10666E-02 10640   0.147E-02-0.184E-03
CGA:   6    -0.128294517057E+04   -0.24005E-03   -0.24765E-03 10640   0.386E-03 0.121E-03
CGA:   7    -0.128294528402E+04   -0.11346E-03   -0.11731E-03 10640   0.204E-03-0.836E-04
CGA:   8    -0.128294529448E+04   -0.10454E-04   -0.17752E-04 10640   0.770E-04 0.581E-04
CGA:   9    -0.128294530296E+04   -0.84792E-05   -0.12129E-04 10640   0.427E-04 0.338E-04
CGA:  10    -0.128294531795E+04   -0.14993E-04   -0.23909E-04 10640   0.122E-03-0.543E-04
CGA:  11    -0.128294532740E+04   -0.94501E-05   -0.13721E-04 10640   0.297E-04 0.355E-04
  48 F= -.12829453E+04 E0= -.12829453E+04  d E =-.933385E-03  mag=    47.0000
       N       E                     dE             d eps       ncg     rms          ort
SDA:   1    -0.128288702054E+04    0.58297E-01    0.00000E+00 10640   0.181E+00 0.000E+00
CGA:   2    -0.128292483933E+04   -0.37819E-01   -0.37814E-01 10640   0.786E-01-0.203E-03
CGA:   3    -0.128294183100E+04   -0.16992E-01   -0.16999E-01 10640   0.255E-01 0.755E-03
CGA:   4    -0.128294537004E+04   -0.35390E-02   -0.35612E-02 10640   0.410E-02 0.281E-03
CGA:   5    -0.128294605618E+04   -0.68614E-03   -0.70466E-03 10640   0.935E-03 0.358E-03
CGA:   6    -0.128294628400E+04   -0.22782E-03   -0.22810E-03 10640   0.347E-03-0.561E-04
CGA:   7    -0.128294632980E+04   -0.45799E-04   -0.50343E-04 10640   0.927E-04 0.696E-04
CGA:   8    -0.128294635232E+04   -0.22523E-04   -0.54942E-04 10640   0.241E-03-0.117E-03
CGA:   9    -0.128294637696E+04   -0.24635E-04   -0.30862E-04 10640   0.351E-04 0.609E-04
CGA:  10    -0.128294638321E+04   -0.62534E-05   -0.69514E-05 10640   0.111E-04 0.104E-04
  49 F= -.12829464E+04 E0= -.12829464E+04  d E =-.105581E-02  mag=    47.0000
       N       E                     dE             d eps       ncg     rms          ort
SDA:   1    -0.128291960037E+04    0.26777E-01    0.00000E+00 10640   0.876E-01 0.000E+00
CGA:   2    -0.128293821126E+04   -0.18611E-01   -0.18610E-01 10640   0.356E-01-0.129E-03
CGA:   3    -0.128294680026E+04   -0.85890E-02   -0.85984E-02 10640   0.886E-02-0.382E-03
CGA:   4    -0.128294814797E+04   -0.13477E-02   -0.13519E-02 10640   0.151E-02 0.702E-04
CGA:   5    -0.128294843223E+04   -0.28426E-03   -0.28552E-03 10640   0.386E-03 0.484E-04
CGA:   6    -0.128294850241E+04   -0.70180E-04   -0.71089E-04 10640   0.125E-03 0.264E-04
CGA:   7    -0.128294852820E+04   -0.25784E-04   -0.25991E-04 10640   0.353E-04 0.124E-04
CGA:   8    -0.128294853538E+04   -0.71855E-05   -0.73621E-05 10640   0.148E-04 0.854E-05
  50 F= -.12829485E+04 E0= -.12829485E+04  d E =-.215217E-02  mag=    47.0000
       N       E                     dE             d eps       ncg     rms          ort
SDA:   1    -0.128293059313E+04    0.17935E-01    0.00000E+00 10640   0.554E-01 0.000E+00
CGA:   2    -0.128294425939E+04   -0.13666E-01   -0.13677E-01 10640   0.255E-01-0.288E-03
CGA:   3    -0.128294946440E+04   -0.52050E-02   -0.52040E-02 10640   0.641E-02-0.880E-04
CGA:   4    -0.128295052359E+04   -0.10592E-02   -0.10363E-02 10640   0.147E-02-0.433E-03
CGA:   5    -0.128295071252E+04   -0.18894E-03   -0.20166E-03 10640   0.272E-03 0.198E-03
CGA:   6    -0.128295078686E+04   -0.74342E-04   -0.76411E-04 10640   0.142E-03-0.526E-04
CGA:   7    -0.128295080574E+04   -0.18873E-04   -0.19094E-04 10640   0.522E-04 0.520E-05
CGA:   8    -0.128295081448E+04   -0.87452E-05   -0.90691E-05 10640   0.178E-04 0.798E-05
CGA:   9    -0.128295082386E+04   -0.93799E-05    0.19257E-04 10640   0.118E-04 0.339E-05
  51 F= -.12829508E+04 E0= -.12829508E+04  d E =-.228848E-02  mag=    47.0000
       N       E                     dE             d eps       ncg     rms          ort
SDA:   1    -0.128283345212E+04    0.11736E+00    0.00000E+00 10640   0.325E+00 0.000E+00
CGA:   2    -0.128292472810E+04   -0.91276E-01   -0.91273E-01 10640   0.143E+00 0.142E-03
CGA:   3    -0.128295219837E+04   -0.27470E-01   -0.27447E-01 10640   0.380E-01-0.121E-02
CGA:   4    -0.128295800453E+04   -0.58062E-02   -0.57653E-02 10640   0.900E-02-0.715E-03
CGA:   5    -0.128295942834E+04   -0.14238E-02   -0.14373E-02 10640   0.176E-02 0.329E-03
CGA:   6    -0.128295988274E+04   -0.45440E-03   -0.48175E-03 10640   0.975E-03-0.451E-03
CGA:   7    -0.128295998757E+04   -0.10483E-03   -0.11023E-03 10640   0.274E-03 0.998E-04
CGA:   8    -0.128296005237E+04   -0.64803E-04   -0.65094E-04 10640   0.143E-03-0.258E-04
CGA:   9    -0.128296011265E+04   -0.60275E-04    0.94105E-04 10640   0.881E-04-0.460E-05
CGA:  10    -0.128296013209E+04   -0.19437E-04   -0.34311E-04 10640   0.166E-03-0.752E-04
CGA:  11    -0.128296016541E+04   -0.33324E-04   -0.32169E-04 10640   0.936E-04-0.559E-04
CGA:  12    -0.128296017622E+04   -0.10809E-04   -0.10264E-04 10640   0.295E-04-0.112E-04
CGA:  13    -0.128296019533E+04   -0.19108E-04    0.36686E-05 10640   0.155E-04 0.185E-05
CGA:  14    -0.128296020907E+04   -0.13740E-04    0.17846E-05 10640   0.152E-04-0.204E-05
CGA:  15    -0.128296022009E+04   -0.11024E-04    0.14266E-05 10640   0.131E-04 0.570E-05
CGA:  16    -0.128296023806E+04   -0.17972E-04    0.13837E-05 10640   0.128E-04 0.573E-05
CGA:  17    -0.128296026735E+04   -0.29288E-04    0.69851E-06 10640   0.834E-05 0.430E-05
CGA:  18    -0.128296028425E+04   -0.16897E-04    0.45310E-06 10640   0.686E-05 0.702E-05
CGA:  19    -0.128296028405E+04    0.20234E-06   -0.43837E-06 10640   0.332E-05 0.436E-05
  52 F= -.12829603E+04 E0= -.12829603E+04  d E =-.946018E-02  mag=    47.0000
       N       E                     dE             d eps       ncg     rms          ort
SDA:   1    -0.128258219297E+04    0.37809E+00    0.00000E+00 10640   0.107E+01 0.000E+00
CGA:   2    -0.128285754386E+04   -0.27535E+00   -0.27537E+00 10640   0.483E+00-0.881E-05
CGA:   3    -0.128296100972E+04   -0.10347E+00   -0.10345E+00 10640   0.974E-01-0.176E-02
CGA:   4    -0.128297723536E+04   -0.16226E-01   -0.16243E-01 10640   0.199E-01 0.388E-03
CGA:   5    -0.128298107085E+04   -0.38355E-02   -0.38369E-02 10640   0.462E-02 0.649E-04
CGA:   6    -0.128298204369E+04   -0.97284E-03   -0.97158E-03 10640   0.183E-02-0.193E-03
CGA:   7    -0.128298232767E+04   -0.28397E-03   -0.29361E-03 10640   0.435E-03 0.202E-03
CGA:   8    -0.128298244121E+04   -0.11354E-03   -0.24301E-03 10640   0.118E-02-0.447E-03
CGA:   9    -0.128298253559E+04   -0.94386E-04   -0.12434E-03 10640   0.201E-03 0.247E-03
CGA:  10    -0.128298257199E+04   -0.36396E-04   -0.38927E-04 10640   0.541E-04 0.412E-04
CGA:  11    -0.128298260505E+04   -0.33066E-04    0.44321E-04 10640   0.482E-04 0.118E-04
CGA:  12    -0.128298262241E+04   -0.17355E-04   -0.17453E-04 10640   0.499E-04-0.129E-05
CGA:  13    -0.128298263646E+04   -0.14050E-04   -0.28098E-04 10640   0.149E-03-0.397E-04
CGA:  14    -0.128298249367E+04    0.14279E-03   -0.10825E-03 10640   0.305E-02-0.514E-03
CGA:  15    -0.128298271272E+04   -0.21905E-03   -0.27142E-03 10640   0.977E-04 0.310E-03
CGA:  16    -0.128298271048E+04    0.22422E-05   -0.76007E-05 10640   0.327E-04 0.532E-04
  53 F= -.12829827E+04 E0= -.12829827E+04  d E =-.224264E-01  mag=    47.0000
       N       E                     dE             d eps       ncg     rms          ort
SDA:   1    -0.128260184179E+04    0.38087E+00    0.00000E+00 10640   0.125E+01 0.000E+00
CGA:   2    -0.128286339867E+04   -0.26156E+00   -0.26155E+00 10640   0.504E+00 0.136E-03
CGA:   3    -0.128298349179E+04   -0.12009E+00   -0.12009E+00 10640   0.134E+00-0.105E-02
CGA:   4    -0.128300381689E+04   -0.20325E-01   -0.20392E-01 10640   0.235E-01 0.786E-03
CGA:   5    -0.128300813401E+04   -0.43171E-02   -0.43343E-02 10640   0.641E-02 0.350E-03
CGA:   6    -0.128300936917E+04   -0.12352E-02   -0.12274E-02 10640   0.229E-02-0.165E-03
CGA:   7    -0.128300979973E+04   -0.43056E-03   -0.43119E-03 10640   0.655E-03 0.197E-04
CGA:   8    -0.128300997771E+04   -0.17798E-03   -0.22017E-03 10640   0.969E-03-0.407E-03
CGA:   9    -0.128301005759E+04   -0.79881E-04   -0.94308E-04 10640   0.140E-03 0.107E-03
CGA:  10    -0.128301009790E+04   -0.40313E-04   -0.79073E-04 10640   0.349E-03-0.139E-03
CGA:  11    -0.128301016829E+04   -0.70387E-04   -0.68656E-04 10640   0.803E-04-0.377E-04
CGA:  12    -0.128301016711E+04    0.11850E-05   -0.36401E-04 10640   0.582E-03-0.140E-03
CGA:  13    -0.128301023638E+04   -0.69272E-04   -0.63808E-04 10640   0.446E-04-0.361E-04
CGA:  14    -0.128301024618E+04   -0.97982E-05   -0.98735E-05 10640   0.163E-04 0.733E-05
  54 F= -.12830102E+04 E0= -.12830102E+04  d E =-.275357E-01  mag=    47.0000
       N       E                     dE             d eps       ncg     rms          ort
SDA:   1    -0.128259571993E+04    0.41452E+00    0.00000E+00 10640   0.113E+01 0.000E+00
CGA:   2    -0.128287432125E+04   -0.27860E+00   -0.27860E+00 10640   0.516E+00-0.335E-02
CGA:   3    -0.128298502662E+04   -0.11071E+00   -0.11079E+00 10640   0.108E+00 0.290E-02
CGA:   4    -0.128300213771E+04   -0.17111E-01   -0.17086E-01 10640   0.237E-01-0.361E-03
CGA:   5    -0.128300600802E+04   -0.38703E-02   -0.39308E-02 10640   0.628E-02 0.890E-03
CGA:   6    -0.128300723082E+04   -0.12228E-02   -0.12139E-02 10640   0.199E-02-0.173E-03
CGA:   7    -0.128300772172E+04   -0.49090E-03   -0.49963E-03 10640   0.858E-03-0.349E-03
CGA:   8    -0.128300787695E+04   -0.15523E-03   -0.15251E-03 10640   0.493E-03-0.138E-03
CGA:   9    -0.128300798035E+04   -0.10340E-03   -0.10527E-03 10640   0.261E-03-0.907E-04
CGA:  10    -0.128300683503E+04    0.11453E-02   -0.61752E-03 10640   0.108E-01-0.116E-02
CGA:  11    -0.128300778752E+04   -0.95249E-03   -0.10654E-02 10640   0.128E-02 0.512E-03
CGA:  12    -0.128300808651E+04   -0.29899E-03   -0.30837E-03 10640   0.334E-03 0.525E-04
CGA:  13    -0.128300822793E+04   -0.14142E-03   -0.16739E-03 10640   0.999E-03-0.334E-03
CGA:  14    -0.128300823966E+04   -0.11733E-04   -0.88233E-04 10640   0.112E-03 0.246E-03
CGA:  15    -0.128300823043E+04    0.92319E-05   -0.11469E-04 10640   0.528E-04 0.672E-04
CGA:  16    -0.128300825205E+04   -0.21624E-04   -0.38042E-04 10640   0.172E-03-0.476E-04
CGA:  17    -0.128300824359E+04    0.84609E-05   -0.12402E-04 10640   0.358E-04 0.656E-04
  55 F= -.12830082E+04 E0= -.12830082E+04  d E =0.200259E-02  mag=    47.0000
       N       E                     dE             d eps       ncg     rms          ort
SDA:   1    -0.127660764308E+04    0.64006E+01    0.00000E+00 10640   0.197E+02 0.000E+00
CGA:   2    -0.128054556537E+04   -0.39379E+01   -0.39354E+01 10640   0.780E+01 0.282E-01
CGA:   3    -0.128240492976E+04   -0.18594E+01   -0.18619E+01 10640   0.243E+01-0.237E-02
CGA:   4    -0.128274700317E+04   -0.34207E+00   -0.33799E+00 10640   0.409E+00 0.332E-01
CGA:   5    -0.128281890606E+04   -0.71903E-01   -0.71908E-01 10640   0.123E+00-0.221E-02
CGA:   6    -0.128284128954E+04   -0.22383E-01   -0.22329E-01 10640   0.343E-01 0.445E-03
CGA:   7    -0.128284859510E+04   -0.73056E-02   -0.73298E-02 10640   0.105E-01 0.227E-03
CGA:   8    -0.128285047910E+04   -0.18840E-02   -0.19572E-02 10640   0.391E-02 0.600E-03
CGA:   9    -0.128285150088E+04   -0.10218E-02   -0.10291E-02 10640   0.208E-02 0.125E-03
CGA:  10    -0.128285183336E+04   -0.33248E-03   -0.40158E-03 10640   0.854E-03 0.584E-03
CGA:  11    -0.128285210991E+04   -0.27655E-03   -0.28697E-03 10640   0.416E-03 0.275E-03
CGA:  12    -0.128285222804E+04   -0.11813E-03   -0.13186E-03 10640   0.270E-03 0.235E-03
CGA:  13    -0.128285224650E+04   -0.18462E-04   -0.40255E-04 10640   0.167E-03 0.149E-03
CGA:  14    -0.128285228453E+04   -0.38036E-04   -0.41761E-04 10640   0.166E-03 0.988E-04
CGA:  15    -0.128285228523E+04   -0.69361E-06   -0.18639E-04 10640   0.114E-03 0.103E-03
CGA:  16    -0.128285230464E+04   -0.19413E-04   -0.25149E-04 10640   0.106E-03 0.102E-03
CGA:  17    -0.128285230805E+04   -0.34087E-05   -0.15586E-04 10640   0.976E-04 0.953E-04
CGA:  18    -0.128285232367E+04   -0.15622E-04   -0.20694E-04 10640   0.923E-04 0.898E-04
CGA:  19    -0.128285232596E+04   -0.22900E-05   -0.12963E-04 10640   0.862E-04 0.852E-04
CGA:  20    -0.128285233811E+04   -0.12143E-04   -0.17099E-04 10640   0.816E-04 0.813E-04
CGA:  21    -0.128285234070E+04   -0.25958E-05   -0.11528E-04 10640   0.774E-04 0.775E-04
CGA:  22    -0.128285235013E+04   -0.94258E-05   -0.14310E-04 10640   0.736E-04 0.743E-04
CGA:  23    -0.128285235320E+04   -0.30723E-05   -0.10506E-04 10640   0.704E-04 0.711E-04
CGA:  24    -0.128285236057E+04   -0.73723E-05   -0.12133E-04 10640   0.672E-04 0.682E-04
  56 F= -.12828524E+04 E0= -.12828524E+04  d E =0.155883E+00  mag=    47.0000
       N       E                     dE             d eps       ncg     rms          ort
SDA:   1    -0.127946291362E+04    0.33894E+01    0.00000E+00 10640   0.115E+02 0.000E+00
CGA:   2    -0.128165811737E+04   -0.21952E+01   -0.21951E+01 10640   0.426E+01 0.170E-02
CGA:   3    -0.128271103417E+04   -0.10529E+01   -0.10529E+01 10640   0.143E+01 0.139E-02
CGA:   4    -0.128291297189E+04   -0.20194E+00   -0.20239E+00 10640   0.231E+00-0.255E-03
CGA:   5    -0.128295152053E+04   -0.38549E-01   -0.38603E-01 10640   0.665E-01 0.189E-02
CGA:   6    -0.128296458044E+04   -0.13060E-01   -0.13015E-01 10640   0.201E-01-0.150E-02
CGA:   7    -0.128296859311E+04   -0.40127E-02   -0.40110E-02 10640   0.591E-02-0.575E-04
CGA:   8    -0.128296984472E+04   -0.12516E-02   -0.12430E-02 10640   0.284E-02-0.738E-03
CGA:   9    -0.128297041217E+04   -0.56744E-03   -0.56981E-03 10640   0.132E-02-0.305E-03
CGA:  10    -0.128297034833E+04    0.63843E-04   -0.73358E-03 10640   0.730E-02-0.198E-02
CGA:  11    -0.128297100445E+04   -0.65612E-03   -0.70111E-03 10640   0.820E-03 0.346E-03
CGA:  12    -0.128297124377E+04   -0.23933E-03   -0.24961E-03 10640   0.323E-03-0.184E-03
CGA:  13    -0.128297137469E+04   -0.13091E-03    0.30732E-03 10640   0.145E-03 0.225E-04
CGA:  14    -0.128297141853E+04   -0.43848E-04   -0.63055E-04 10640   0.268E-03-0.113E-03
CGA:  15    -0.128297142040E+04   -0.18649E-05   -0.11948E-03 10640   0.195E-02-0.587E-03
CGA:  16    -0.128297153112E+04   -0.11072E-03   -0.16009E-03 10640   0.958E-04 0.292E-03
CGA:  17    -0.128297153372E+04   -0.26065E-05   -0.92698E-05 10640   0.315E-04 0.409E-04
CGA:  18    -0.128297154096E+04   -0.72390E-05   -0.19750E-04 10640   0.166E-03-0.625E-04
CGA:  19    -0.128297142681E+04    0.11416E-03   -0.10526E-03 10640   0.260E-02-0.566E-03
CGA:  20    -0.128297162253E+04   -0.19572E-03   -0.24678E-03 10640   0.899E-04 0.303E-03
CGA:  21    -0.128297162639E+04   -0.38653E-05   -0.98032E-05 10640   0.276E-04 0.367E-04
CGA:  22    -0.128297163726E+04   -0.10869E-04   -0.13843E-04 10640   0.562E-04-0.285E-04
CGA:  23    -0.128297167108E+04   -0.33821E-04    0.42136E-04 10640   0.643E-04-0.339E-04
CGA:  24    -0.128297167119E+04   -0.10453E-06   -0.45408E-05 10640   0.122E-04 0.239E-04
