       N       E                     dE             d eps       ncg     rms          ort
DAV:   1     0.102661597373E+05    0.10266E+05   -0.42551E+05 10640   0.155E+03
DAV:   2    -0.118493306229E+03   -0.10385E+05   -0.98028E+04 10640   0.474E+02
DAV:   3    -0.152226508131E+04   -0.14038E+04   -0.13094E+04 10640   0.181E+02
DAV:   4    -0.160414337348E+04   -0.81878E+02   -0.79643E+02 10640   0.461E+01
DAV:   5    -0.160652562899E+04   -0.23823E+01   -0.23743E+01 10640   0.841E+00
SDA:   6    -0.728401918720E+03    0.87812E+03   -0.23743E+01 10640   0.291E+04 0.000E+00
CGA:   7    -0.113421908766E+04   -0.40582E+03   -0.40184E+03 10640   0.103E+04-0.160E+02
CGA:   8    -0.116352993436E+04   -0.29311E+02   -0.53838E+02 10640   0.941E+03-0.490E+03
CGA:   9    -0.119466971165E+04   -0.31140E+02   -0.23496E+02 10640   0.543E+03-0.112E+03
CGA:  10    -0.120982263944E+04   -0.15153E+02   -0.33396E+02 10640   0.659E+03-0.143E+03
CGA:  11    -0.122876097414E+04   -0.18938E+02   -0.20805E+02 10640   0.562E+03-0.156E+03
CGA:  12    -0.122706429315E+04    0.16967E+01   -0.18804E+02 10640   0.812E+03-0.358E+03
CGA:  13    -0.122950571571E+04   -0.24414E+01   -0.33896E+02 10640   0.122E+04-0.895E+03
CGA:  14    -0.122355322278E+04    0.59525E+01   -0.55605E+02 10640   0.114E+04-0.849E+03
CGA:  15    -0.124161916709E+04   -0.18066E+02   -0.40932E+02 10640   0.105E+04-0.132E+04
CGA:  16    -0.123906487883E+04    0.25543E+01   -0.43622E+02 10640   0.904E+03-0.748E+03
CGA:  17    -0.125488971899E+04   -0.15825E+02   -0.29566E+02 10640   0.619E+03-0.885E+03
CGA:  18    -0.125602915498E+04   -0.11394E+01   -0.23368E+02 10640   0.489E+03-0.433E+03
CGA:  19    -0.126524231298E+04   -0.92132E+01   -0.14102E+02 10640   0.171E+03-0.285E+03
CGA:  20    -0.126756485275E+04   -0.23225E+01   -0.54175E+01 10640   0.882E+02-0.811E+02
CGA:  21    -0.127207682305E+04   -0.45120E+01   -0.42959E+01 10640   0.488E+02-0.667E+00
CGA:  22    -0.127380467226E+04   -0.17278E+01   -0.24254E+01 10640   0.362E+02-0.719E+01
CGA:  23    -0.127641840988E+04   -0.26137E+01   -0.28511E+01 10640   0.173E+02 0.259E+01
CGA:  24    -0.127748853766E+04   -0.10701E+01   -0.11475E+01 10640   0.859E+01-0.571E+00
CGA:  25    -0.127875193701E+04   -0.12634E+01   -0.11962E+01 10640   0.762E+01 0.124E+01
CGA:  26    -0.127955696064E+04   -0.80502E+00   -0.82662E+00 10640   0.498E+01 0.181E-01
CGA:  27    -0.128034941023E+04   -0.79245E+00   -0.79005E+00 10640   0.488E+01-0.175E+00
CGA:  28    -0.128103076940E+04   -0.68136E+00   -0.68227E+00 10640   0.267E+01-0.306E+00
CGA:  29    -0.128152987328E+04   -0.49910E+00   -0.50046E+00 10640   0.238E+01-0.113E+00
CGA:  30    -0.128206825325E+04   -0.53838E+00   -0.60041E+00 10640   0.266E+01-0.453E+00
CGA:  31    -0.128248668361E+04   -0.41843E+00   -0.44438E+00 10640   0.940E+00-0.421E+00
CGA:  32    -0.128266687713E+04   -0.18019E+00   -0.21797E+00 10640   0.123E+01-0.257E+00
CGA:  33    -0.128285972062E+04   -0.19284E+00   -0.20844E+00 10640   0.387E+00-0.174E+00
CGA:  34    -0.128294917358E+04   -0.89453E-01   -0.89604E-01 10640   0.296E+00-0.975E-04
CGA:  35    -0.128302161642E+04   -0.72443E-01   -0.66321E-01 10640   0.105E+00 0.834E-01
CGA:  36    -0.128304601323E+04   -0.24397E-01   -0.23072E-01 10640   0.623E-01 0.759E-01
CGA:  37    -0.128305586848E+04   -0.98553E-02   -0.97689E-02 10640   0.395E-01 0.392E-01
CGA:  38    -0.128306115235E+04   -0.52839E-02   -0.56572E-02 10640   0.304E-01 0.320E-01
CGA:  39    -0.128306478222E+04   -0.36299E-02   -0.41221E-02 10640   0.248E-01 0.266E-01
CGA:  40    -0.128306728437E+04   -0.25021E-02   -0.31207E-02 10640   0.209E-01 0.224E-01
CGA:  41    -0.128306899725E+04   -0.17129E-02   -0.24175E-02 10640   0.181E-01 0.193E-01
CGA:  42    -0.128307021760E+04   -0.12204E-02   -0.19431E-02 10640   0.159E-01 0.169E-01
CGA:  43    -0.128307108110E+04   -0.86350E-03   -0.15871E-02 10640   0.142E-01 0.150E-01
CGA:  44    -0.128307170131E+04   -0.62021E-03   -0.13239E-02 10640   0.128E-01 0.134E-01
CGA:  45    -0.128307214675E+04   -0.44544E-03   -0.11209E-02 10640   0.117E-01 0.122E-01
CGA:  46    -0.128307246628E+04   -0.31954E-03   -0.96206E-03 10640   0.107E-01 0.111E-01
CGA:  47    -0.128307269363E+04   -0.22734E-03   -0.83513E-03 10640   0.988E-02 0.103E-01
CGA:  48    -0.128307285292E+04   -0.15930E-03   -0.73213E-03 10640   0.918E-02 0.951E-02
CGA:  49    -0.128307296149E+04   -0.10857E-03   -0.64729E-03 10640   0.857E-02 0.886E-02
CGA:  50    -0.128307303201E+04   -0.70515E-04   -0.57650E-03 10640   0.804E-02 0.829E-02
CGA:  51    -0.128307307386E+04   -0.41850E-04   -0.51678E-03 10640   0.757E-02 0.779E-02
CGA:  52    -0.128307309406E+04   -0.20199E-04   -0.46588E-03 10640   0.715E-02 0.735E-02
CGA:  53    -0.128307309790E+04   -0.38397E-05   -0.42211E-03 10640   0.678E-02 0.696E-02
CGA:  54    -0.128307308940E+04    0.84956E-05   -0.38419E-03 10640   0.644E-02 0.660E-02
CGA:  55    -0.128307307164E+04    0.17760E-04   -0.35109E-03 10640   0.614E-02 0.629E-02
CGA:  56    -0.128307304698E+04    0.24660E-04   -0.32201E-03 10640   0.587E-02 0.600E-02
CGA:  57    -0.128307301725E+04    0.29734E-04   -0.29632E-03 10640   0.562E-02 0.574E-02
CGA:  58    -0.128307298385E+04    0.33394E-04   -0.27350E-03 10640   0.539E-02 0.550E-02
CGA:  59    -0.128307294790E+04    0.35953E-04   -0.25314E-03 10640   0.518E-02 0.528E-02
CGA:  60    -0.128307291024E+04    0.37657E-04   -0.23489E-03 10640   0.499E-02 0.508E-02
CGA:  61    -0.128307287155E+04    0.38696E-04   -0.21847E-03 10640   0.481E-02 0.490E-02
CGA:  62    -0.128307283233E+04    0.39218E-04   -0.20363E-03 10640   0.465E-02 0.473E-02
CGA:  63    -0.128307279299E+04    0.39342E-04   -0.19018E-03 10640   0.450E-02 0.457E-02
CGA:  64    -0.128307275383E+04    0.39156E-04   -0.17795E-03 10640   0.436E-02 0.443E-02
CGA:  65    -0.128307271510E+04    0.38733E-04   -0.16680E-03 10640   0.423E-02 0.429E-02
CGA:  66    -0.128307267696E+04    0.38134E-04   -0.15660E-03 10640   0.411E-02 0.417E-02
CGA:  67    -0.128307263957E+04    0.37398E-04   -0.14725E-03 10640   0.400E-02 0.405E-02
CGA:  68    -0.128307260300E+04    0.36568E-04   -0.13865E-03 10640   0.389E-02 0.394E-02
CGA:  69    -0.128307256733E+04    0.35669E-04   -0.13072E-03 10640   0.379E-02 0.384E-02
CGA:  70    -0.128307253260E+04    0.34727E-04   -0.12341E-03 10640   0.370E-02 0.375E-02
CGA:  71    -0.128307249884E+04    0.33758E-04   -0.11664E-03 10640   0.362E-02 0.366E-02
CGA:  72    -0.128307246607E+04    0.32772E-04   -0.11036E-03 10640   0.353E-02 0.357E-02
CGA:  73    -0.128307243429E+04    0.31782E-04   -0.10454E-03 10640   0.346E-02 0.350E-02
CGA:  74    -0.128307240350E+04    0.30793E-04   -0.99118E-04 10640   0.339E-02 0.342E-02
CGA:  75    -0.128307237368E+04    0.29814E-04   -0.94068E-04 10640   0.332E-02 0.335E-02
CGA:  76    -0.128307234484E+04    0.28848E-04   -0.89357E-04 10640   0.326E-02 0.329E-02
CGA:  77    -0.128307231694E+04    0.27900E-04   -0.84953E-04 10640   0.320E-02 0.323E-02
CGA:  78    -0.128307228996E+04    0.26972E-04   -0.80833E-04 10640   0.314E-02 0.317E-02
CGA:  79    -0.128307226390E+04    0.26067E-04   -0.76973E-04 10640   0.309E-02 0.311E-02
CGA:  80    -0.128307223871E+04    0.25184E-04   -0.73351E-04 10640   0.303E-02 0.306E-02
CGA:  81    -0.128307221439E+04    0.24328E-04   -0.69948E-04 10640   0.299E-02 0.301E-02
CGA:  82    -0.128307219089E+04    0.23497E-04   -0.66749E-04 10640   0.294E-02 0.296E-02
CGA:  83    -0.128307216820E+04    0.22692E-04   -0.63737E-04 10640   0.290E-02 0.292E-02
CGA:  84    -0.128307214628E+04    0.21912E-04   -0.60898E-04 10640   0.286E-02 0.288E-02
CGA:  85    -0.128307212513E+04    0.21158E-04   -0.58220E-04 10640   0.282E-02 0.284E-02
CGA:  86    -0.128307210470E+04    0.20428E-04   -0.55691E-04 10640   0.278E-02 0.280E-02
CGA:  87    -0.128307208498E+04    0.19724E-04   -0.53300E-04 10640   0.275E-02 0.276E-02
CGA:  88    -0.128307206593E+04    0.19043E-04   -0.51039E-04 10640   0.271E-02 0.273E-02
CGA:  89    -0.128307204755E+04    0.18386E-04   -0.48897E-04 10640   0.268E-02 0.270E-02
CGA:  90    -0.128307202980E+04    0.17751E-04   -0.46868E-04 10640   0.265E-02 0.266E-02
CGA:  91    -0.128307201266E+04    0.17140E-04   -0.44943E-04 10640   0.262E-02 0.263E-02
CGA:  92    -0.128307199611E+04    0.16549E-04   -0.43116E-04 10640   0.259E-02 0.261E-02
CGA:  93    -0.128307198013E+04    0.15979E-04   -0.41380E-04 10640   0.257E-02 0.258E-02
CGA:  94    -0.128307196470E+04    0.15431E-04   -0.39730E-04 10640   0.254E-02 0.255E-02
CGA:  95    -0.128307194979E+04    0.14901E-04   -0.38161E-04 10640   0.252E-02 0.253E-02
CGA:  96    -0.128307193540E+04    0.14391E-04   -0.36667E-04 10640   0.249E-02 0.250E-02
CGA:  97    -0.128307192151E+04    0.13898E-04   -0.35244E-04 10640   0.247E-02 0.248E-02
CGA:  98    -0.128307190808E+04    0.13424E-04   -0.33888E-04 10640   0.245E-02 0.246E-02
CGA:  99    -0.128307189512E+04    0.12966E-04   -0.32594E-04 10640   0.243E-02 0.244E-02
CGA: 100    -0.128307188259E+04    0.12524E-04   -0.31360E-04 10640   0.241E-02 0.242E-02
CGA: 101    -0.128307187049E+04    0.12100E-04   -0.30182E-04 10640   0.239E-02 0.240E-02
CGA: 102    -0.128307185880E+04    0.11688E-04   -0.29056E-04 10640   0.237E-02 0.238E-02
CGA: 103    -0.128307184751E+04    0.11294E-04   -0.27980E-04 10640   0.235E-02 0.236E-02
CGA: 104    -0.128307183660E+04    0.10913E-04   -0.26951E-04 10640   0.234E-02 0.235E-02
CGA: 105    -0.128307182605E+04    0.10544E-04   -0.25967E-04 10640   0.232E-02 0.233E-02
CGA: 106    -0.128307181586E+04    0.10191E-04   -0.25025E-04 10640   0.231E-02 0.231E-02
CGA: 107    -0.128307180601E+04    0.98489E-05   -0.24123E-04 10640   0.229E-02 0.230E-02
CGA: 108    -0.128307179649E+04    0.95191E-05   -0.23258E-04 10640   0.228E-02 0.228E-02
CGA: 109    -0.128307178729E+04    0.92011E-05   -0.22430E-04 10640   0.226E-02 0.227E-02
CGA: 110    -0.128307177840E+04    0.88950E-05   -0.21636E-04 10640   0.225E-02 0.226E-02
CGA: 111    -0.128307176980E+04    0.85982E-05   -0.20874E-04 10640   0.224E-02 0.224E-02
CGA: 112    -0.128307176149E+04    0.83135E-05   -0.20143E-04 10640   0.223E-02 0.223E-02
CGA: 113    -0.128307175345E+04    0.80378E-05   -0.19442E-04 10640   0.221E-02 0.222E-02
CGA: 114    -0.128307174568E+04    0.77722E-05   -0.18768E-04 10640   0.220E-02 0.221E-02
CGA: 115    -0.128307173816E+04    0.75162E-05   -0.18121E-04 10640   0.219E-02 0.220E-02
CGA: 116    -0.128307173089E+04    0.72680E-05   -0.17499E-04 10640   0.218E-02 0.219E-02
CGA: 117    -0.128307172386E+04    0.70298E-05   -0.16901E-04 10640   0.217E-02 0.218E-02
CGA: 118    -0.128307171706E+04    0.68001E-05   -0.16326E-04 10640   0.216E-02 0.217E-02
CGA: 119    -0.128307171048E+04    0.65775E-05   -0.15774E-04 10640   0.215E-02 0.216E-02
CGA: 120    -0.128307170412E+04    0.63627E-05   -0.15242E-04 10640   0.214E-02 0.215E-02
CGA: 121    -0.128307169797E+04    0.61560E-05   -0.14730E-04 10640   0.213E-02 0.214E-02
CGA: 122    -0.128307169201E+04    0.59558E-05   -0.14238E-04 10640   0.213E-02 0.213E-02
CGA: 123    -0.128307168625E+04    0.57623E-05   -0.13764E-04 10640   0.212E-02 0.212E-02
CGA: 124    -0.128307168067E+04    0.55765E-05   -0.13307E-04 10640   0.211E-02 0.211E-02
CGA: 125    -0.128307167527E+04    0.53969E-05   -0.12867E-04 10640   0.210E-02 0.211E-02
CGA: 126    -0.128307167005E+04    0.52226E-05   -0.12443E-04 10640   0.210E-02 0.210E-02
CGA: 127    -0.128307166500E+04    0.50552E-05   -0.12034E-04 10640   0.209E-02 0.209E-02
CGA: 128    -0.128307166010E+04    0.48926E-05   -0.11641E-04 10640   0.208E-02 0.208E-02
CGA: 129    -0.128307165537E+04    0.47365E-05   -0.11261E-04 10640   0.207E-02 0.208E-02
CGA: 130    -0.128307165078E+04    0.45846E-05   -0.10895E-04 10640   0.207E-02 0.207E-02
CGA: 131    -0.128307164634E+04    0.44390E-05   -0.10541E-04 10640   0.206E-02 0.207E-02
CGA: 132    -0.128307164205E+04    0.42969E-05   -0.10201E-04 10640   0.206E-02 0.206E-02
   1 F= -.12830716E+04 E0= -.12830716E+04  d E =-.128307E+04  mag=    47.0000
       N       E                     dE             d eps       ncg     rms          ort
SDA:   1    -0.128306873617E+04    0.29102E-02    0.00000E+00 10640   0.678E-02 0.000E+00
CGA:   2    -0.128306912449E+04   -0.38832E-03   -0.24466E-03 10640   0.493E-02 0.579E-02
CGA:   3    -0.128306935627E+04   -0.23178E-03   -0.15089E-03 10640   0.404E-02 0.448E-02
CGA:   4    -0.128306952165E+04   -0.16538E-03   -0.11176E-03 10640   0.349E-02 0.376E-02
CGA:   5    -0.128306964998E+04   -0.12833E-03   -0.89948E-04 10640   0.311E-02 0.330E-02
CGA:   6    -0.128306975444E+04   -0.10446E-03   -0.75817E-04 10640   0.282E-02 0.297E-02
CGA:   7    -0.128306984209E+04   -0.87647E-04   -0.65769E-04 10640   0.260E-02 0.271E-02
CGA:   8    -0.128306991715E+04   -0.75065E-04   -0.58165E-04 10640   0.242E-02 0.251E-02
CGA:   9    -0.128306998238E+04   -0.65231E-04   -0.52145E-04 10640   0.227E-02 0.234E-02
CGA:  10    -0.128307003970E+04   -0.57314E-04   -0.47229E-04 10640   0.214E-02 0.220E-02
CGA:  11    -0.128307009050E+04   -0.50805E-04   -0.43124E-04 10640   0.203E-02 0.208E-02
CGA:  12    -0.128307013585E+04   -0.45342E-04   -0.39625E-04 10640   0.193E-02 0.198E-02
CGA:  13    -0.128307017655E+04   -0.40706E-04   -0.36606E-04 10640   0.184E-02 0.188E-02
CGA:  14    -0.128307021327E+04   -0.36723E-04   -0.33967E-04 10640   0.177E-02 0.180E-02
CGA:  15    -0.128307024654E+04   -0.33270E-04   -0.31640E-04 10640   0.170E-02 0.173E-02
CGA:  16    -0.128307027681E+04   -0.30261E-04   -0.29574E-04 10640   0.163E-02 0.166E-02
CGA:  17    -0.128307030442E+04   -0.27616E-04   -0.27726E-04 10640   0.158E-02 0.160E-02
CGA:  18    -0.128307032971E+04   -0.25284E-04   -0.26064E-04 10640   0.152E-02 0.155E-02
CGA:  19    -0.128307035292E+04   -0.23215E-04   -0.24562E-04 10640   0.148E-02 0.150E-02
CGA:  20    -0.128307037429E+04   -0.21374E-04   -0.23200E-04 10640   0.143E-02 0.145E-02
CGA:  21    -0.128307039403E+04   -0.19732E-04   -0.21960E-04 10640   0.139E-02 0.141E-02
CGA:  22    -0.128307041228E+04   -0.18258E-04   -0.20825E-04 10640   0.135E-02 0.137E-02
CGA:  23    -0.128307042922E+04   -0.16935E-04   -0.19785E-04 10640   0.132E-02 0.134E-02
CGA:  24    -0.128307044496E+04   -0.15743E-04   -0.18829E-04 10640   0.129E-02 0.130E-02
CGA:  25    -0.128307045963E+04   -0.14666E-04   -0.17947E-04 10640   0.126E-02 0.127E-02
CGA:  26    -0.128307047332E+04   -0.13691E-04   -0.17132E-04 10640   0.123E-02 0.124E-02
CGA:  27    -0.128307048613E+04   -0.12808E-04   -0.16376E-04 10640   0.120E-02 0.122E-02
CGA:  28    -0.128307049813E+04   -0.12003E-04   -0.15674E-04 10640   0.118E-02 0.119E-02
CGA:  29    -0.128307050940E+04   -0.11272E-04   -0.15021E-04 10640   0.116E-02 0.117E-02
CGA:  30    -0.128307052000E+04   -0.10602E-04   -0.14412E-04 10640   0.114E-02 0.115E-02
CGA:  31    -0.128307053000E+04   -0.99919E-05   -0.13844E-04 10640   0.112E-02 0.112E-02
CGA:  32    -0.128307053943E+04   -0.94327E-05   -0.13311E-04 10640   0.110E-02 0.111E-02
CGA:  33    -0.128307054835E+04   -0.89173E-05   -0.12811E-04 10640   0.108E-02 0.109E-02
CGA:  34    -0.128307055679E+04   -0.84463E-05   -0.12342E-04 10640   0.106E-02 0.107E-02
CGA:  35    -0.128307056480E+04   -0.80109E-05   -0.11900E-04 10640   0.105E-02 0.105E-02
CGA:  36    -0.128307057241E+04   -0.76098E-05   -0.11484E-04 10640   0.103E-02 0.104E-02
CGA:  37    -0.128307057965E+04   -0.72405E-05   -0.11092E-04 10640   0.102E-02 0.102E-02
CGA:  38    -0.128307058655E+04   -0.68975E-05   -0.10721E-04 10640   0.100E-02 0.101E-02
CGA:  39    -0.128307059313E+04   -0.65800E-05   -0.10370E-04 10640   0.989E-03 0.995E-03
CGA:  40    -0.128307059942E+04   -0.62857E-05   -0.10037E-04 10640   0.976E-03 0.983E-03
   2 F= -.12830706E+04 E0= -.12830706E+04  d E =0.104263E-02  mag=    47.0000
       N       E                     dE             d eps       ncg     rms          ort
SDA:   1    -0.128306920164E+04    0.13915E-02    0.00000E+00 10640   0.509E-02 0.000E+00
CGA:   2    -0.128306994059E+04   -0.73895E-03   -0.88511E-03 10640   0.291E-02 0.365E-02
CGA:   3    -0.128307040647E+04   -0.46588E-03   -0.29042E-03 10640   0.195E-02 0.234E-02
CGA:   4    -0.128307065324E+04   -0.24677E-03   -0.15800E-03 10640   0.149E-02 0.169E-02
CGA:   5    -0.128307081748E+04   -0.16424E-03   -0.10874E-03 10640   0.120E-02 0.133E-02
CGA:   6    -0.128307093565E+04   -0.11816E-03   -0.80943E-04 10640   0.101E-02 0.109E-02
CGA:   7    -0.128307102552E+04   -0.89871E-04   -0.63600E-04 10640   0.863E-03 0.927E-03
CGA:   8    -0.128307109697E+04   -0.71454E-04   -0.52096E-04 10640   0.756E-03 0.805E-03
CGA:   9    -0.128307115595E+04   -0.58980E-04   -0.44138E-04 10640   0.674E-03 0.712E-03
CGA:  10    -0.128307120627E+04   -0.50320E-04   -0.38484E-04 10640   0.610E-03 0.640E-03
CGA:  11    -0.128307125049E+04   -0.44216E-04   -0.34392E-04 10640   0.559E-03 0.583E-03
CGA:  12    -0.128307129039E+04   -0.39903E-04   -0.31408E-04 10640   0.518E-03 0.538E-03
CGA:  13    -0.128307132728E+04   -0.36890E-04   -0.29238E-04 10640   0.484E-03 0.500E-03
CGA:  14    -0.128307136215E+04   -0.34865E-04   -0.27690E-04 10640   0.456E-03 0.470E-03
CGA:  15    -0.128307139576E+04   -0.33617E-04   -0.26635E-04 10640   0.433E-03 0.444E-03
CGA:  16    -0.128307142877E+04   -0.33005E-04   -0.25984E-04 10640   0.412E-03 0.422E-03
CGA:  17    -0.128307146172E+04   -0.32948E-04   -0.25683E-04 10640   0.395E-03 0.404E-03
CGA:  18    -0.128307149510E+04   -0.33384E-04   -0.25690E-04 10640   0.380E-03 0.387E-03
CGA:  19    -0.128307152941E+04   -0.34304E-04   -0.25995E-04 10640   0.366E-03 0.373E-03
CGA:  20    -0.128307156510E+04   -0.35699E-04   -0.26586E-04 10640   0.354E-03 0.360E-03
CGA:  21    -0.128307160271E+04   -0.37607E-04   -0.27481E-04 10640   0.343E-03 0.349E-03
CGA:  22    -0.128307164280E+04   -0.40086E-04   -0.28703E-04 10640   0.333E-03 0.338E-03
CGA:  23    -0.128307168601E+04   -0.43216E-04   -0.30294E-04 10640   0.323E-03 0.328E-03
CGA:  24    -0.128307173316E+04   -0.47148E-04   -0.32331E-04 10640   0.313E-03 0.318E-03
CGA:  25    -0.128307178526E+04   -0.52094E-04   -0.34923E-04 10640   0.303E-03 0.308E-03
CGA:  26    -0.128307184363E+04   -0.58373E-04   -0.38235E-04 10640   0.292E-03 0.297E-03
CGA:  27    -0.128307191014E+04   -0.66515E-04   -0.42542E-04 10640   0.281E-03 0.287E-03
CGA:  28    -0.128307198757E+04   -0.77424E-04   -0.48318E-04 10640   0.269E-03 0.275E-03
CGA:  29    -0.128307208044E+04   -0.92870E-04   -0.56487E-04 10640   0.255E-03 0.262E-03
CGA:  30    -0.128307219707E+04   -0.11663E-03   -0.69031E-04 10640   0.239E-03 0.247E-03
CGA:  31    -0.128307235640E+04   -0.15934E-03   -0.91581E-04 10640   0.218E-03 0.228E-03
CGA:  32    -0.128307261775E+04   -0.26135E-03   -0.16875E-02 10640   0.186E-03 0.201E-03
CGA:  33    -0.128307304292E+04   -0.42517E-03   -0.15825E-02 10640   0.139E-03 0.161E-03
CGA:  34    -0.128307314725E+04   -0.10433E-03    0.24975E-03 10640   0.129E-03 0.134E-03
CGA:  35    -0.128307324539E+04   -0.98134E-04    0.19948E-03 10640   0.120E-03 0.124E-03
CGA:  36    -0.128307333875E+04   -0.93366E-04    0.14793E-03 10640   0.111E-03 0.115E-03
CGA:  37    -0.128307342450E+04   -0.85748E-04    0.15110E-03 10640   0.103E-03 0.107E-03
CGA:  38    -0.128307351043E+04   -0.85927E-04    0.82727E-04 10640   0.964E-04 0.995E-04
CGA:  39    -0.128307357809E+04   -0.67666E-04    0.64816E-03 10640   0.913E-04 0.918E-04
CGA:  40    -0.128307367222E+04   -0.94124E-04    0.30802E-04 10640   0.933E-04 0.817E-04
CGA:  41    -0.128307368141E+04   -0.91924E-05   -0.19072E-04 10640   0.894E-04 0.715E-04
CGA:  42    -0.128307379298E+04   -0.11157E-03    0.17388E-04 10640   0.127E-03 0.544E-04
CGA:  43    -0.128307378387E+04    0.91157E-05   -0.10900E-04 10640   0.743E-04 0.803E-04
CGA:  44    -0.128307387970E+04   -0.95829E-04   -0.64202E-04 10640   0.118E-03 0.576E-04
CGA:  45    -0.128307404305E+04   -0.16336E-03    0.21251E-04 10640   0.309E-03-0.606E-04
CGA:  46    -0.128307402040E+04    0.22654E-04   -0.20816E-04 10640   0.946E-04 0.155E-03
CGA:  47    -0.128307400420E+04    0.16198E-04   -0.75051E-05 10640   0.570E-04 0.839E-04
CGA:  48    -0.128307408091E+04   -0.76712E-04   -0.53104E-04 10640   0.115E-03 0.380E-04
CGA:  49    -0.128307419807E+04   -0.11716E-03    0.45237E-04 10640   0.290E-03-0.815E-04
CGA:  50    -0.128307419116E+04    0.69145E-05   -0.23462E-04 10640   0.639E-04 0.113E-03
   3 F= -.12830742E+04 E0= -.12830742E+04  d E =-.359174E-02  mag=    47.0000
       N       E                     dE             d eps       ncg     rms          ort
SDA:   1    -0.126284776442E+04    0.20226E+02    0.00000E+00 10640   0.616E+02 0.000E+00
CGA:   2    -0.127543185480E+04   -0.12584E+02   -0.12589E+02 10640   0.244E+02 0.542E-01
CGA:   3    -0.128145350482E+04   -0.60217E+01   -0.60259E+01 10640   0.619E+01 0.145E-01
CGA:   4    -0.128240671980E+04   -0.95321E+00   -0.95239E+00 10640   0.989E+00 0.387E-01
CGA:   5    -0.128260227510E+04   -0.19556E+00   -0.19592E+00 10640   0.308E+00-0.149E-02
CGA:   6    -0.128265376955E+04   -0.51494E-01   -0.51775E-01 10640   0.100E+00 0.615E-02
CGA:   7    -0.128267465610E+04   -0.20887E-01   -0.20784E-01 10640   0.288E-01-0.127E-02
CGA:   8    -0.128268059675E+04   -0.59406E-02   -0.59306E-02 10640   0.133E-01-0.259E-04
CGA:   9    -0.128268327119E+04   -0.26744E-02   -0.27460E-02 10640   0.564E-02 0.917E-03
CGA:  10    -0.128268464000E+04   -0.13688E-02   -0.14241E-02 10640   0.217E-02 0.120E-02
CGA:  11    -0.128268531705E+04   -0.67705E-03   -0.69020E-03 10640   0.108E-02 0.761E-03
CGA:  12    -0.128268554873E+04   -0.23168E-03   -0.29054E-03 10640   0.598E-03 0.740E-03
CGA:  13    -0.128268577067E+04   -0.22194E-03   -0.20515E-03 10640   0.591E-03 0.246E-03
CGA:  14    -0.128268583432E+04   -0.63643E-04   -0.13180E-03 10640   0.375E-03 0.565E-03
CGA:  15    -0.128268592345E+04   -0.89138E-04   -0.94517E-04 10640   0.327E-03 0.265E-03
CGA:  16    -0.128268594436E+04   -0.20906E-04   -0.49639E-04 10640   0.296E-03 0.240E-03
CGA:  17    -0.128268602685E+04   -0.82491E-04   -0.80869E-04 10640   0.382E-03 0.200E-03
CGA:  18    -0.128268603991E+04   -0.13061E-04   -0.43715E-04 10640   0.260E-03 0.203E-03
CGA:  19    -0.128268612069E+04   -0.80777E-04   -0.74815E-04 10640   0.314E-03 0.201E-03
CGA:  20    -0.128268613261E+04   -0.11923E-04   -0.38193E-04 10640   0.238E-03 0.190E-03
CGA:  21    -0.128268621400E+04   -0.81387E-04   -0.72321E-04 10640   0.305E-03 0.178E-03
CGA:  22    -0.128268622391E+04   -0.99067E-05   -0.34700E-04 10640   0.214E-03 0.175E-03
CGA:  23    -0.128268630307E+04   -0.79161E-04   -0.67649E-04 10640   0.264E-03 0.170E-03
CGA:  24    -0.128268631251E+04   -0.94450E-05   -0.31073E-04 10640   0.197E-03 0.162E-03
CGA:  25    -0.128268639252E+04   -0.80013E-04   -0.66176E-04 10640   0.260E-03 0.151E-03
CGA:  26    -0.128268640026E+04   -0.77334E-05   -0.28505E-04 10640   0.177E-03 0.148E-03
CGA:  27    -0.128268647745E+04   -0.77191E-04   -0.61784E-04 10640   0.221E-03 0.144E-03
CGA:  28    -0.128268648499E+04   -0.75385E-05   -0.25510E-04 10640   0.163E-03 0.136E-03
CGA:  29    -0.128268656474E+04   -0.79748E-04   -0.62245E-04 10640   0.233E-03 0.124E-03
CGA:  30    -0.128268657033E+04   -0.55919E-05   -0.23882E-04 10640   0.145E-03 0.126E-03
CGA:  31    -0.128268664293E+04   -0.72605E-04   -0.55147E-04 10640   0.172E-03 0.125E-03
CGA:  32    -0.128268664973E+04   -0.68031E-05   -0.20987E-04 10640   0.136E-03 0.113E-03
CGA:  33    -0.128268673299E+04   -0.83253E-04   -0.63090E-04 10640   0.262E-03 0.903E-04
CGA:  34    -0.128268673736E+04   -0.43752E-05   -0.22984E-04 10640   0.116E-03 0.113E-03
CGA:  35    -0.128268674594E+04   -0.85815E-05   -0.22232E-04 10640   0.179E-03 0.123E-03
CGA:  36    -0.128268679619E+04   -0.50250E-04   -0.68608E-04 10640   0.923E-03-0.126E-03
CGA:  37    -0.128268683265E+04   -0.36456E-04   -0.69607E-04 10640   0.114E-03 0.198E-03
CGA:  38    -0.128268683312E+04   -0.46788E-06   -0.12857E-04 10640   0.118E-03 0.857E-04
CGA:  39    -0.128268690162E+04   -0.68501E-04   -0.82485E-04 10640   0.983E-03-0.299E-04
CGA:  40    -0.128268705222E+04   -0.15060E-03   -0.16501E-03 10640   0.185E-02 0.499E-03
CGA:  41    -0.128268714610E+04   -0.93879E-04   -0.13939E-03 10640   0.810E-04 0.267E-03
CGA:  42    -0.128268714442E+04    0.16795E-05   -0.69748E-05 10640   0.567E-04 0.513E-04
CGA:  43    -0.128268724480E+04   -0.10038E-03   -0.65679E-04 10640   0.218E-03 0.365E-04
CGA:  44    -0.128268724486E+04   -0.60070E-07   -0.15510E-04 10640   0.499E-04 0.741E-04
   4 F= -.12826872E+04 E0= -.12826872E+04  d E =0.386946E+00  mag=    47.0000
       N       E                     dE             d eps       ncg     rms          ort
SDA:   1    -0.125527060921E+04    0.27417E+02    0.00000E+00 10640   0.916E+02 0.000E+00
CGA:   2    -0.127267079885E+04   -0.17400E+02   -0.17398E+02 10640   0.329E+02 0.799E-01
CGA:   3    -0.128106552328E+04   -0.83947E+01   -0.83950E+01 10640   0.935E+01 0.500E-01
CGA:   4    -0.128253108819E+04   -0.14656E+01   -0.14676E+01 10640   0.132E+01 0.115E-01
CGA:   5    -0.128280656513E+04   -0.27548E+00   -0.27558E+00 10640   0.365E+00 0.416E-02
CGA:   6    -0.128287853766E+04   -0.71973E-01   -0.71727E-01 10640   0.141E+00-0.591E-02
CGA:   7    -0.128290212484E+04   -0.23587E-01   -0.23663E-01 10640   0.353E-01 0.183E-02
CGA:   8    -0.128291074520E+04   -0.86204E-02   -0.86157E-02 10640   0.157E-01-0.144E-02
CGA:   9    -0.128291461899E+04   -0.38738E-02   -0.39004E-02 10640   0.103E-01-0.180E-02
CGA:  10    -0.128291670645E+04   -0.20875E-02   -0.20638E-02 10640   0.461E-02-0.126E-02
CGA:  11    -0.128291796562E+04   -0.12592E-02   -0.16099E-02 10640   0.510E-02-0.226E-02
CGA:  12    -0.128291861896E+04   -0.65334E-03   -0.66771E-03 10640   0.425E-02-0.250E-02
CGA:  13    -0.128291908271E+04   -0.46375E-03   -0.97554E-03 10640   0.511E-02-0.259E-02
CGA:  14    -0.128292004998E+04   -0.96727E-03   -0.95048E-03 10640   0.290E-02-0.219E-03
CGA:  15    -0.128292053041E+04   -0.48042E-03   -0.51437E-03 10640   0.980E-03 0.475E-03
CGA:  16    -0.128292080900E+04   -0.27859E-03   -0.28068E-03 10640   0.612E-03 0.263E-03
CGA:  17    -0.128292099964E+04   -0.19065E-03   -0.19068E-03 10640   0.517E-03 0.484E-05
CGA:  18    -0.128292105280E+04   -0.53153E-04   -0.73184E-04 10640   0.209E-03 0.178E-03
CGA:  19    -0.128292108088E+04   -0.28078E-04   -0.39649E-04 10640   0.155E-03 0.108E-03
CGA:  20    -0.128292091460E+04    0.16628E-03   -0.12514E-03 10640   0.430E-02-0.512E-03
CGA:  21    -0.128292120694E+04   -0.29234E-03   -0.35538E-03 10640   0.116E-03 0.368E-03
CGA:  22    -0.128292121185E+04   -0.49033E-05   -0.13412E-04 10640   0.615E-04 0.551E-04
CGA:  23    -0.128292123517E+04   -0.23321E-04   -0.23261E-04 10640   0.941E-04 0.208E-04
CGA:  24    -0.128292129932E+04   -0.64158E-04    0.41165E-02 10640   0.155E-03 0.367E-04
CGA:  25    -0.128292113385E+04    0.16547E-03   -0.24585E-03 10640   0.333E-02-0.463E-03
CGA:  26    -0.128292156855E+04   -0.43469E-03   -0.46288E-03 10640   0.356E-03 0.192E-03
CGA:  27    -0.128292169323E+04   -0.12468E-03   -0.14146E-03 10640   0.463E-03-0.195E-03
CGA:  28    -0.128292173719E+04   -0.43964E-04   -0.47412E-04 10640   0.306E-04 0.193E-04
CGA:  29    -0.128292174242E+04   -0.52257E-05   -0.55999E-05 10640   0.121E-04 0.344E-05
   5 F= -.12829217E+04 E0= -.12829217E+04  d E =-.234498E+00  mag=    47.0000
       N       E                     dE             d eps       ncg     rms          ort
SDA:   1    -0.127997496383E+04    0.29468E+01    0.00000E+00 10640   0.101E+02 0.000E+00
CGA:   2    -0.128191784391E+04   -0.19429E+01   -0.19426E+01 10640   0.368E+01 0.175E-02
CGA:   3    -0.128286194475E+04   -0.94410E+00   -0.94416E+00 10640   0.102E+01 0.491E-03
CGA:   4    -0.128302099431E+04   -0.15905E+00   -0.15938E+00 10640   0.144E+00 0.374E-02
CGA:   5    -0.128305164307E+04   -0.30649E-01   -0.30592E-01 10640   0.405E-01-0.104E-02
CGA:   6    -0.128305880562E+04   -0.71626E-02   -0.72850E-02 10640   0.143E-01 0.159E-02
CGA:   7    -0.128306159503E+04   -0.27894E-02   -0.27512E-02 10640   0.414E-02-0.502E-03
CGA:   8    -0.128306245368E+04   -0.85865E-03   -0.85977E-03 10640   0.152E-02 0.337E-04
CGA:   9    -0.128306282040E+04   -0.36672E-03   -0.36814E-03 10640   0.713E-03 0.979E-04
CGA:  10    -0.128306298518E+04   -0.16478E-03   -0.16734E-03 10640   0.324E-03 0.761E-04
CGA:  11    -0.128306307891E+04   -0.93731E-04   -0.93457E-04 10640   0.166E-03 0.374E-04
CGA:  12    -0.128306309855E+04   -0.19639E-04   -0.28415E-04 10640   0.700E-04 0.882E-04
CGA:  13    -0.128306313323E+04   -0.34681E-04   -0.60287E-04 10640   0.241E-03-0.421E-04
CGA:  14    -0.128306313302E+04    0.21455E-06   -0.21145E-04 10640   0.751E-04 0.112E-03
   6 F= -.12830631E+04 E0= -.12830631E+04  d E =-.141391E+00  mag=    47.0000
       N       E                     dE             d eps       ncg     rms          ort
SDA:   1    -0.128296553955E+04    0.97594E-01    0.00000E+00 10640   0.328E+00 0.000E+00
CGA:   2    -0.128302974954E+04   -0.64210E-01   -0.64296E-01 10640   0.124E+00 0.150E-02
CGA:   3    -0.128306143312E+04   -0.31684E-01   -0.31680E-01 10640   0.352E-01-0.151E-02
CGA:   4    -0.128306656088E+04   -0.51278E-02   -0.51526E-02 10640   0.538E-02 0.272E-03
CGA:   5    -0.128306775275E+04   -0.11919E-02   -0.11662E-02 10640   0.232E-02-0.707E-03
CGA:   6    -0.128306801586E+04   -0.26312E-03   -0.28105E-03 10640   0.574E-03 0.167E-03
CGA:   7    -0.128306812537E+04   -0.10951E-03   -0.11466E-03 10640   0.164E-03 0.893E-04
CGA:   8    -0.128306817459E+04   -0.49212E-04   -0.68277E-04 10640   0.476E-03-0.160E-03
CGA:   9    -0.128306819289E+04   -0.18306E-04   -0.37051E-04 10640   0.631E-04 0.112E-03
CGA:  10    -0.128306819850E+04   -0.56065E-05   -0.90339E-05 10640   0.411E-04 0.279E-04
CGA:  11    -0.128306822687E+04   -0.28369E-04    0.25222E-03 10640   0.355E-04-0.350E-05
CGA:  12    -0.128306825693E+04   -0.30064E-04    0.38233E-05 10640   0.535E-04 0.743E-05
CGA:  13    -0.128306818372E+04    0.73210E-04   -0.73946E-04 10640   0.780E-03-0.164E-03
CGA:  14    -0.128306829310E+04   -0.10938E-03   -0.10874E-03 10640   0.232E-03-0.341E-05
CGA:  15    -0.128306832016E+04   -0.27057E-04   -0.34853E-04 10640   0.585E-04 0.650E-04
CGA:  16    -0.128306834056E+04   -0.20394E-04   -0.20334E-04 10640   0.687E-04 0.990E-05
CGA:  17    -0.128306834974E+04   -0.91891E-05   -0.11482E-04 10640   0.195E-04 0.188E-04
   7 F= -.12830683E+04 E0= -.12830683E+04  d E =-.521673E-02  mag=    47.0000
       N       E                     dE             d eps       ncg     rms          ort
SDA:   1    -0.128247102547E+04    0.59732E+00    0.00000E+00 10640   0.179E+01 0.000E+00
CGA:   2    -0.128285181920E+04   -0.38079E+00   -0.38083E+00 10640   0.744E+00 0.139E-02
CGA:   3    -0.128303142548E+04   -0.17961E+00   -0.17960E+00 10640   0.180E+00-0.787E-03
CGA:   4    -0.128305955198E+04   -0.28126E-01   -0.27975E-01 10640   0.302E-01-0.163E-02
CGA:   5    -0.128306536878E+04   -0.58168E-02   -0.58170E-02 10640   0.855E-02 0.287E-04
CGA:   6    -0.128306714529E+04   -0.17765E-02   -0.17451E-02 10640   0.356E-02-0.859E-03
CGA:   7    -0.128306765121E+04   -0.50592E-03   -0.52370E-03 10640   0.776E-03 0.245E-03
CGA:   8    -0.128306788906E+04   -0.23785E-03   -0.25672E-03 10640   0.660E-03-0.251E-03
CGA:   9    -0.128306799620E+04   -0.10714E-03   -0.10773E-03 10640   0.506E-03-0.199E-03
CGA:  10    -0.128306799904E+04   -0.28419E-05   -0.19326E-03 10640   0.137E-02-0.618E-03
CGA:  11    -0.128306826870E+04   -0.26965E-03   -0.25530E-03 10640   0.488E-03-0.211E-03
CGA:  12    -0.128306831521E+04   -0.46511E-04   -0.54952E-04 10640   0.118E-03 0.726E-04
CGA:  13    -0.128306834089E+04   -0.25679E-04   -0.27195E-04 10640   0.922E-04 0.344E-04
CGA:  14    -0.128306822138E+04    0.11951E-03   -0.10121E-03 10640   0.176E-02-0.363E-03
CGA:  15    -0.128306837881E+04   -0.15743E-03   -0.18570E-03 10640   0.211E-03 0.172E-03
CGA:  16    -0.128306843269E+04   -0.53886E-04   -0.53906E-04 10640   0.526E-04 0.612E-06
CGA:  17    -0.128306846760E+04   -0.34902E-04    0.26692E-04 10640   0.586E-04 0.292E-05
CGA:  18    -0.128306847669E+04   -0.90965E-05   -0.10785E-04 10640   0.144E-04 0.191E-04
   8 F= -.12830685E+04 E0= -.12830685E+04  d E =-.126948E-03  mag=    47.0000
       N       E                     dE             d eps       ncg     rms          ort
SDA:   1    -0.128265008337E+04    0.41838E+00    0.00000E+00 10640   0.111E+01 0.000E+00
CGA:   2    -0.128293521261E+04   -0.28513E+00   -0.28513E+00 10640   0.531E+00-0.279E-03
CGA:   3    -0.128304896381E+04   -0.11375E+00   -0.11375E+00 10640   0.980E-01-0.164E-03
CGA:   4    -0.128306486841E+04   -0.15905E-01   -0.15872E-01 10640   0.194E-01-0.354E-03
CGA:   5    -0.128306864012E+04   -0.37717E-02   -0.37786E-02 10640   0.487E-02 0.156E-03
CGA:   6    -0.128306974808E+04   -0.11080E-02   -0.10961E-02 10640   0.214E-02-0.622E-03
CGA:   7    -0.128307005145E+04   -0.30337E-03   -0.31305E-03 10640   0.486E-03 0.134E-03
CGA:   8    -0.128307021610E+04   -0.16466E-03   -0.20932E-03 10640   0.566E-03-0.265E-03
CGA:   9    -0.128307031411E+04   -0.98008E-04   -0.99515E-04 10640   0.106E-03 0.218E-04
CGA:  10    -0.128307037999E+04   -0.65882E-04    0.57807E-04 10640   0.915E-04 0.279E-05
CGA:  11    -0.128307004562E+04    0.33437E-03   -0.18102E-03 10640   0.333E-02-0.365E-03
CGA:  12    -0.128307050677E+04   -0.46115E-03   -0.39241E-03 10640   0.661E-03-0.228E-03
CGA:  13    -0.128307062182E+04   -0.11505E-03   -0.12813E-03 10640   0.123E-03 0.610E-04
CGA:  14    -0.128307065246E+04   -0.30639E-04   -0.34987E-04 10640   0.501E-04 0.281E-04
CGA:  15    -0.128307067646E+04   -0.24004E-04   -0.23483E-04 10640   0.785E-04-0.210E-04
CGA:  16    -0.128307068024E+04   -0.37745E-05   -0.58004E-05 10640   0.485E-04 0.724E-05
   9 F= -.12830707E+04 E0= -.12830707E+04  d E =-.220355E-02  mag=    47.0000
       N       E                     dE             d eps       ncg     rms          ort
SDA:   1    -0.127710259501E+04    0.59681E+01    0.00000E+00 10640   0.168E+02 0.000E+00
CGA:   2    -0.128098277312E+04   -0.38802E+01   -0.38818E+01 10640   0.752E+01 0.162E-02
CGA:   3    -0.128272931805E+04   -0.17465E+01   -0.17460E+01 10640   0.157E+01-0.285E-02
CGA:   4    -0.128297313655E+04   -0.24382E+00   -0.24361E+00 10640   0.288E+00-0.200E-02
CGA:   5    -0.128302917260E+04   -0.56036E-01   -0.56221E-01 10640   0.764E-01 0.161E-02
CGA:   6    -0.128304476953E+04   -0.15597E-01   -0.15414E-01 10640   0.256E-01-0.126E-02
CGA:   7    -0.128304975408E+04   -0.49846E-02   -0.50270E-02 10640   0.660E-02 0.349E-03
CGA:   8    -0.128305170467E+04   -0.19506E-02   -0.18995E-02 10640   0.433E-02-0.110E-02
CGA:   9    -0.128305237411E+04   -0.66943E-03   -0.68330E-03 10640   0.183E-02 0.112E-03
CGA:  10    -0.128305303749E+04   -0.66338E-03   -0.70206E-03 10640   0.170E-02-0.718E-03
CGA:  11    -0.128305335172E+04   -0.31423E-03   -0.28286E-03 10640   0.154E-02-0.642E-03
CGA:  12    -0.128305360587E+04   -0.25415E-03   -0.22704E-03 10640   0.856E-03-0.325E-03
CGA:  13    -0.128305387461E+04   -0.26873E-03   -0.37579E-03 10640   0.157E-02-0.450E-03
CGA:  14    -0.128305412314E+04   -0.24854E-03   -0.26028E-03 10640   0.642E-03 0.754E-04
CGA:  15    -0.128305426307E+04   -0.13992E-03   -0.14581E-03 10640   0.213E-03 0.571E-04
CGA:  16    -0.128305428143E+04   -0.18366E-04   -0.37704E-04 10640   0.122E-03 0.126E-03
CGA:  17    -0.128305432216E+04   -0.40730E-04   -0.39929E-04 10640   0.961E-04 0.400E-04
CGA:  18    -0.128305432702E+04   -0.48580E-05   -0.18823E-04 10640   0.538E-04 0.864E-04
CGA:  19    -0.128305433278E+04   -0.57637E-05   -0.10423E-04 10640   0.419E-04 0.433E-04
CGA:  20    -0.128305434328E+04   -0.10499E-04   -0.11372E-04 10640   0.378E-04 0.363E-04
CGA:  21    -0.128305434443E+04   -0.11471E-05   -0.58328E-05 10640   0.343E-04 0.334E-04
CGA:  22    -0.128305435555E+04   -0.11120E-04   -0.10529E-04 10640   0.338E-04 0.304E-04
CGA:  23    -0.128305435536E+04    0.19010E-06   -0.43614E-05 10640   0.300E-04 0.285E-04
CGA:  24    -0.128305436691E+04   -0.11556E-04   -0.10086E-04 10640   0.318E-04 0.265E-04
CGA:  25    -0.128305436653E+04    0.38461E-06   -0.37594E-05 10640   0.269E-04 0.251E-04
  10 F= -.12830544E+04 E0= -.12830544E+04  d E =0.163137E-01  mag=    47.0000
       N       E                     dE             d eps       ncg     rms          ort
SDA:   1    -0.126967794747E+04    0.13376E+02    0.00000E+00 10640   0.374E+02 0.000E+00
CGA:   2    -0.127841438537E+04   -0.87364E+01   -0.87364E+01 10640   0.170E+02-0.317E-02
CGA:   3    -0.128230670491E+04   -0.38923E+01   -0.38930E+01 10640   0.341E+01 0.714E-02
CGA:   4    -0.128284740241E+04   -0.54070E+00   -0.54127E+00 10640   0.600E+00 0.402E-02
CGA:   5    -0.128297114559E+04   -0.12374E+00   -0.12398E+00 10640   0.153E+00 0.428E-02
CGA:   6    -0.128300286673E+04   -0.31721E-01   -0.31545E-01 10640   0.560E-01-0.284E-02
CGA:   7    -0.128301320536E+04   -0.10339E-01   -0.10322E-01 10640   0.151E-01-0.103E-03
CGA:   8    -0.128301738244E+04   -0.41771E-02   -0.42230E-02 10640   0.845E-02-0.213E-02
CGA:   9    -0.128301897783E+04   -0.15954E-02   -0.15959E-02 10640   0.399E-02 0.331E-04
CGA:  10    -0.128302011240E+04   -0.11346E-02   -0.11548E-02 10640   0.249E-02-0.661E-03
CGA:  11    -0.128302062021E+04   -0.50781E-03   -0.50351E-03 10640   0.139E-02-0.241E-03
CGA:  12    -0.128302100906E+04   -0.38885E-03   -0.41498E-03 10640   0.134E-02-0.359E-03
CGA:  13    -0.128302135458E+04   -0.34553E-03   -0.39787E-03 10640   0.169E-02-0.375E-03
CGA:  14    -0.128302169153E+04   -0.33695E-03   -0.33657E-03 10640   0.117E-02 0.463E-04
CGA:  15    -0.128302209637E+04   -0.40485E-03   -0.38484E-03 10640   0.564E-03 0.387E-03
CGA:  16    -0.128302230315E+04   -0.20678E-03   -0.20622E-03 10640   0.331E-03 0.259E-03
CGA:  17    -0.128302235973E+04   -0.56575E-04   -0.82386E-04 10640   0.167E-03 0.252E-03
CGA:  18    -0.128302237998E+04   -0.20248E-04   -0.29620E-04 10640   0.994E-04 0.104E-03
CGA:  19    -0.128302238676E+04   -0.67856E-05   -0.15232E-04 10640   0.785E-04 0.768E-04
CGA:  20    -0.128302238854E+04   -0.17734E-05   -0.10386E-04 10640   0.677E-04 0.687E-04
  11 F= -.12830224E+04 E0= -.12830224E+04  d E =0.319780E-01  mag=    47.0000
       N       E                     dE             d eps       ncg     rms          ort
SDA:   1    -0.122701755137E+04    0.56005E+02    0.00000E+00 10640   0.192E+03 0.000E+00
CGA:   2    -0.126090303935E+04   -0.33885E+02   -0.32901E+02 10640   0.675E+02 0.198E+01
CGA:   3    -0.127701041169E+04   -0.16107E+02   -0.16124E+02 10640   0.252E+02 0.154E+01
CGA:   4    -0.128097451215E+04   -0.39641E+01   -0.38258E+01 10640   0.365E+01 0.485E+00
CGA:   5    -0.128163609917E+04   -0.66159E+00   -0.66433E+00 10640   0.112E+01 0.688E-02
CGA:   6    -0.128184191330E+04   -0.20581E+00   -0.20556E+00 10640   0.341E+00 0.782E-02
CGA:   7    -0.128191288506E+04   -0.70972E-01   -0.70984E-01 10640   0.103E+00-0.266E-04
CGA:   8    -0.128193299584E+04   -0.20111E-01   -0.20186E-01 10640   0.400E-01 0.279E-02
CGA:   9    -0.128194307612E+04   -0.10080E-01   -0.10078E-01 10640   0.213E-01 0.179E-03
CGA:  10    -0.128194765774E+04   -0.45816E-02   -0.46158E-02 10640   0.952E-02 0.269E-02
CGA:  11    -0.128195098305E+04   -0.33253E-02   -0.33779E-02 10640   0.729E-02-0.597E-03
CGA:  12    -0.128195201003E+04   -0.10270E-02   -0.11313E-02 10640   0.322E-02 0.159E-02
CGA:  13    -0.128195338735E+04   -0.13773E-02   -0.13045E-02 10640   0.261E-02 0.702E-03
CGA:  14    -0.128195424791E+04   -0.86056E-03   -0.84942E-03 10640   0.361E-02 0.335E-03
CGA:  15    -0.128195488169E+04   -0.63378E-03   -0.73551E-03 10640   0.220E-02 0.183E-02
CGA:  16    -0.128195543089E+04   -0.54919E-03   -0.54511E-03 10640   0.173E-02 0.287E-03
CGA:  17    -0.128195602248E+04   -0.59159E-03   -0.60106E-03 10640   0.155E-02-0.129E-03
CGA:  18    -0.128195624969E+04   -0.22721E-03   -0.26506E-03 10640   0.102E-02 0.710E-03
CGA:  19    -0.128195681586E+04   -0.56617E-03   -0.51825E-03 10640   0.157E-02 0.420E-03
CGA:  20    -0.128195752577E+04   -0.70991E-03   -0.76970E-03 10640   0.302E-02-0.570E-03
CGA:  21    -0.128195772595E+04   -0.20018E-03   -0.25273E-03 10640   0.303E-02 0.447E-03
CGA:  22    -0.128195801289E+04   -0.28694E-03   -0.39622E-03 10640   0.217E-02 0.858E-03
CGA:  23    -0.128195862209E+04   -0.60920E-03   -0.61457E-03 10640   0.274E-02 0.385E-03
CGA:  24    -0.128195919445E+04   -0.57236E-03   -0.53461E-03 10640   0.149E-02-0.569E-03
CGA:  25    -0.128195933815E+04   -0.14370E-03   -0.15799E-03 10640   0.121E-02 0.135E-03
CGA:  26    -0.128195947932E+04   -0.14117E-03   -0.17844E-03 10640   0.884E-03 0.403E-03
CGA:  27    -0.128195964847E+04   -0.16915E-03   -0.17735E-03 10640   0.429E-03 0.108E-03
CGA:  28    -0.128195976181E+04   -0.11334E-03   -0.18032E-03 10640   0.119E-02-0.437E-03
CGA:  29    -0.128195980938E+04   -0.47570E-04   -0.95789E-04 10640   0.227E-03 0.339E-03
CGA:  30    -0.128195982831E+04   -0.18928E-04   -0.32652E-04 10640   0.175E-03 0.130E-03
CGA:  31    -0.128195991043E+04   -0.82125E-04    0.17899E-03 10640   0.191E-03-0.205E-05
CGA:  32    -0.128195993174E+04   -0.21303E-04   -0.28222E-04 10640   0.850E-04 0.110E-03
CGA:  33    -0.128195992888E+04    0.28538E-05   -0.53996E-05 10640   0.485E-04 0.567E-04
  12 F= -.12819599E+04 E0= -.12819599E+04  d E =0.106246E+01  mag=    47.0000
       N       E                     dE             d eps       ncg     rms          ort
SDA:   1    -0.126158573678E+04    0.20374E+02    0.00000E+00 10640   0.716E+02 0.000E+00
CGA:   2    -0.127510051360E+04   -0.13515E+02   -0.13514E+02 10640   0.256E+02 0.134E-01
CGA:   3    -0.128159589055E+04   -0.64954E+01   -0.64903E+01 10640   0.752E+01 0.501E-01
CGA:   4    -0.128275995014E+04   -0.11641E+01   -0.11649E+01 10640   0.108E+01 0.413E-01
CGA:   5    -0.128298379354E+04   -0.22384E+00   -0.22385E+00 10640   0.312E+00-0.213E-02
CGA:   6    -0.128304136781E+04   -0.57574E-01   -0.57651E-01 10640   0.107E+00 0.668E-02
CGA:   7    -0.128306280619E+04   -0.21438E-01   -0.21428E-01 10640   0.329E-01-0.400E-02
CGA:   8    -0.128306963016E+04   -0.68240E-02   -0.68327E-02 10640   0.139E-01-0.434E-03
CGA:   9    -0.128307311578E+04   -0.34856E-02   -0.35597E-02 10640   0.883E-02-0.120E-02
CGA:  10    -0.128307484750E+04   -0.17317E-02   -0.17307E-02 10640   0.376E-02 0.113E-03
CGA:  11    -0.128307599748E+04   -0.11500E-02   -0.11438E-02 10640   0.200E-02 0.724E-04
CGA:  12    -0.128307662677E+04   -0.62929E-03   -0.64970E-03 10640   0.207E-02-0.180E-03
CGA:  13    -0.128307704796E+04   -0.42119E-03   -0.97235E-03 10640   0.612E-02-0.181E-02
CGA:  14    -0.128307767112E+04   -0.62316E-03   -0.68624E-03 10640   0.136E-02 0.571E-03
CGA:  15    -0.128307808840E+04   -0.41728E-03   -0.40549E-03 10640   0.566E-03 0.232E-03
CGA:  16    -0.128307830446E+04   -0.21606E-03   -0.24760E-03 10640   0.137E-02-0.213E-03
CGA:  17    -0.128307843030E+04   -0.12584E-03   -0.12464E-03 10640   0.110E-02-0.154E-04
CGA:  18    -0.128307851552E+04   -0.85219E-04   -0.99731E-04 10640   0.564E-03 0.107E-03
CGA:  19    -0.128307861751E+04   -0.10198E-03   -0.10725E-03 10640   0.861E-03 0.107E-03
CGA:  20    -0.128307883839E+04   -0.22088E-03   -0.22045E-03 10640   0.741E-03-0.106E-03
CGA:  21    -0.128307897647E+04   -0.13808E-03   -0.13204E-03 10640   0.105E-02-0.380E-03
CGA:  22    -0.128307912445E+04   -0.14798E-03   -0.15822E-03 10640   0.401E-03 0.155E-03
CGA:  23    -0.128307928401E+04   -0.15956E-03   -0.16875E-03 10640   0.172E-03-0.609E-04
CGA:  24    -0.128307937721E+04   -0.93195E-04    0.37671E-04 10640   0.117E-03 0.603E-04
CGA:  25    -0.128307943840E+04   -0.61196E-04   -0.58584E-04 10640   0.880E-04 0.169E-04
CGA:  26    -0.128307949600E+04   -0.57599E-04    0.47702E-04 10640   0.576E-04 0.480E-04
CGA:  27    -0.128307950505E+04   -0.90452E-05   -0.10536E-04 10640   0.301E-04 0.317E-04
CGA:  28    -0.128307952258E+04   -0.17532E-04    0.12356E-04 10640   0.263E-04 0.197E-04
CGA:  29    -0.128307952518E+04   -0.25964E-05   -0.39825E-05 10640   0.219E-04 0.182E-04
  13 F= -.12830795E+04 E0= -.12830795E+04  d E =-.111960E+01  mag=    47.0000
       N       E                     dE             d eps       ncg     rms          ort
SDA:   1    -0.128079779844E+04    0.22817E+01    0.00000E+00 10640   0.780E+01 0.000E+00
CGA:   2    -0.128228015343E+04   -0.14824E+01   -0.14821E+01 10640   0.278E+01-0.375E-02
CGA:   3    -0.128298842192E+04   -0.70827E+00   -0.70792E+00 10640   0.823E+00 0.871E-02
CGA:   4    -0.128311472734E+04   -0.12631E+00   -0.12660E+00 10640   0.116E+00 0.422E-02
CGA:   5    -0.128313773514E+04   -0.23008E-01   -0.23041E-01 10640   0.351E-01 0.161E-02
CGA:   6    -0.128314436711E+04   -0.66320E-02   -0.66018E-02 10640   0.133E-01-0.899E-03
CGA:   7    -0.128314669415E+04   -0.23270E-02   -0.23373E-02 10640   0.298E-02 0.308E-03
CGA:   8    -0.128314758271E+04   -0.88856E-03   -0.97898E-03 10640   0.218E-02-0.856E-03
CGA:   9    -0.128314785395E+04   -0.27124E-03   -0.27751E-03 10640   0.957E-03 0.151E-03
CGA:  10    -0.128314808759E+04   -0.23364E-03   -0.23308E-03 10640   0.435E-03 0.624E-04
CGA:  11    -0.128314820525E+04   -0.11766E-03   -0.11560E-03 10640   0.306E-03 0.680E-04
CGA:  12    -0.128314825292E+04   -0.47672E-04   -0.55671E-04 10640   0.163E-03 0.127E-03
CGA:  13    -0.128314835149E+04   -0.98572E-04   -0.14756E-03 10640   0.619E-03-0.117E-03
CGA:  14    -0.128314847714E+04   -0.12565E-03   -0.12067E-03 10640   0.324E-03-0.112E-03
CGA:  15    -0.128314849576E+04   -0.18616E-04   -0.30794E-04 10640   0.108E-03 0.102E-03
CGA:  16    -0.128314850527E+04   -0.95118E-05   -0.15574E-04 10640   0.704E-04 0.502E-04
CGA:  17    -0.128314852553E+04   -0.20257E-04   -0.76001E-04 10640   0.809E-03-0.109E-03
CGA:  18    -0.128314862069E+04   -0.95165E-04   -0.10141E-03 10640   0.597E-04 0.527E-04
CGA:  19    -0.128314862808E+04   -0.73865E-05   -0.10451E-04 10640   0.383E-04 0.385E-04
CGA:  20    -0.128314864926E+04   -0.21183E-04    0.30362E-04 10640   0.310E-04 0.240E-04
CGA:  21    -0.128314865137E+04   -0.21131E-05   -0.44759E-05 10640   0.250E-04 0.248E-04
CGA:  22    -0.128314866402E+04   -0.12650E-04    0.37636E-04 10640   0.230E-04 0.235E-04
CGA:  23    -0.128314867358E+04   -0.95595E-05   -0.75600E-05 10640   0.219E-04 0.213E-04
  14 F= -.12831487E+04 E0= -.12831487E+04  d E =-.691484E-01  mag=    47.0000
       N       E                     dE             d eps       ncg     rms          ort
SDA:   1    -0.128306406997E+04    0.84594E-01    0.00000E+00 10640   0.311E+00 0.000E+00
CGA:   2    -0.128312471866E+04   -0.60649E-01   -0.60668E-01 10640   0.111E+00 0.501E-03
CGA:   3    -0.128315325789E+04   -0.28539E-01   -0.28541E-01 10640   0.309E-01-0.153E-03
CGA:   4    -0.128315829212E+04   -0.50342E-02   -0.49273E-02 10640   0.565E-02-0.136E-02
CGA:   5    -0.128315926353E+04   -0.97141E-03   -0.96939E-03 10640   0.164E-02-0.293E-04
CGA:   6    -0.128315965279E+04   -0.38926E-03   -0.39460E-03 10640   0.118E-02-0.566E-03
CGA:   7    -0.128315976833E+04   -0.11554E-03   -0.11590E-03 10640   0.300E-03 0.602E-05
CGA:   8    -0.128315981677E+04   -0.48440E-04   -0.50020E-04 10640   0.175E-03 0.254E-04
CGA:   9    -0.128315962511E+04    0.19167E-03   -0.14490E-03 10640   0.281E-02-0.621E-03
CGA:  10    -0.128315989757E+04   -0.27246E-03   -0.29930E-03 10640   0.449E-03 0.195E-03
CGA:  11    -0.128316003373E+04   -0.13616E-03   -0.16191E-03 10640   0.257E-03-0.278E-03
CGA:  12    -0.128316006379E+04   -0.30056E-04   -0.37122E-04 10640   0.515E-04 0.674E-04
CGA:  13    -0.128316008099E+04   -0.17200E-04   -0.17985E-04 10640   0.503E-04-0.240E-04
CGA:  14    -0.128316008303E+04   -0.20443E-05   -0.33616E-05 10640   0.452E-04 0.109E-04
CGA:  15    -0.128316009434E+04   -0.11307E-04   -0.11639E-04 10640   0.652E-04 0.119E-04
CGA:  16    -0.128316014230E+04   -0.47961E-04    0.44093E-04 10640   0.465E-04 0.175E-04
CGA:  17    -0.128316018496E+04   -0.42665E-04    0.13622E-04 10640   0.690E-04 0.143E-04
CGA:  18    -0.128316014767E+04    0.37295E-04   -0.81405E-04 10640   0.620E-03-0.179E-03
CGA:  19    -0.128316028425E+04   -0.13659E-03   -0.13258E-03 10640   0.283E-03-0.687E-04
CGA:  20    -0.128316029075E+04   -0.64994E-05   -0.21611E-04 10640   0.502E-04 0.832E-04
  15 F= -.12831603E+04 E0= -.12831603E+04  d E =-.116172E-01  mag=    47.0000
       N       E                     dE             d eps       ncg     rms          ort
SDA:   1    -0.128089698401E+04    0.22633E+01    0.00000E+00 10640   0.727E+01 0.000E+00
CGA:   2    -0.128236052778E+04   -0.14635E+01   -0.14638E+01 10640   0.281E+01 0.661E-02
CGA:   3    -0.128302832560E+04   -0.66780E+00   -0.66778E+00 10640   0.869E+00-0.204E-02
CGA:   4    -0.128315514704E+04   -0.12682E+00   -0.12658E+00 10640   0.154E+00-0.542E-02
CGA:   5    -0.128318253989E+04   -0.27393E-01   -0.27298E-01 10640   0.406E-01-0.953E-03
CGA:   6    -0.128319076247E+04   -0.82226E-02   -0.81519E-02 10640   0.132E-01-0.198E-02
CGA:   7    -0.128319338921E+04   -0.26267E-02   -0.26240E-02 10640   0.376E-02-0.779E-04
CGA:   8    -0.128319435343E+04   -0.96422E-03   -0.10018E-02 10640   0.313E-02-0.114E-02
CGA:   9    -0.128319485458E+04   -0.50115E-03   -0.49498E-03 10640   0.154E-02-0.594E-03
CGA:  10    -0.128318959273E+04    0.52619E-02   -0.28399E-02 10640   0.344E-01-0.566E-02
CGA:  11    -0.128319508733E+04   -0.54946E-02   -0.56211E-02 10640   0.751E-02 0.554E-03
CGA:  12    -0.128319624942E+04   -0.11621E-02   -0.11493E-02 10640   0.174E-02-0.422E-04
CGA:  13    -0.128319668650E+04   -0.43708E-03   -0.47565E-03 10640   0.694E-03 0.302E-03
CGA:  14    -0.128319687658E+04   -0.19008E-03   -0.21142E-03 10640   0.392E-03 0.155E-03
CGA:  15    -0.128319694707E+04   -0.70490E-04   -0.10050E-03 10640   0.113E-03 0.166E-03
CGA:  16    -0.128319695986E+04   -0.12786E-04   -0.30675E-04 10640   0.641E-04 0.937E-04
CGA:  17    -0.128319696162E+04   -0.17589E-05   -0.10803E-04 10640   0.456E-04 0.445E-04
  16 F= -.12831970E+04 E0= -.12831970E+04  d E =-.366709E-01  mag=    47.0000
       N       E                     dE             d eps       ncg     rms          ort
SDA:   1    -0.128212107426E+04    0.10759E+01    0.00000E+00 10640   0.343E+01 0.000E+00
CGA:   2    -0.128283654832E+04   -0.71547E+00   -0.71528E+00 10640   0.142E+01 0.265E-02
CGA:   3    -0.128315704120E+04   -0.32049E+00   -0.32029E+00 10640   0.433E+00-0.442E-02
CGA:   4    -0.128321950347E+04   -0.62462E-01   -0.62628E-01 10640   0.750E-01 0.344E-02
CGA:   5    -0.128323362967E+04   -0.14126E-01   -0.14027E-01 10640   0.201E-01-0.796E-03
CGA:   6    -0.128323728511E+04   -0.36554E-02   -0.36994E-02 10640   0.580E-02 0.389E-03
CGA:   7    -0.128323870069E+04   -0.14156E-02   -0.13849E-02 10640   0.201E-02-0.380E-03
CGA:   8    -0.128323909188E+04   -0.39119E-03   -0.38054E-03 10640   0.922E-03-0.931E-04
CGA:   9    -0.128323936886E+04   -0.27698E-03   -0.28136E-03 10640   0.779E-03-0.289E-03
CGA:  10    -0.128323949904E+04   -0.13018E-03   -0.12135E-03 10640   0.385E-03-0.110E-03
CGA:  11    -0.128323954854E+04   -0.49503E-04   -0.21735E-03 10640   0.125E-02-0.471E-03
CGA:  12    -0.128323971198E+04   -0.16344E-03   -0.17820E-03 10640   0.339E-03 0.860E-04
CGA:  13    -0.128323981806E+04   -0.10608E-03   -0.10101E-03 10640   0.267E-03-0.158E-03
CGA:  14    -0.128323983892E+04   -0.20856E-04   -0.24355E-04 10640   0.151E-03 0.257E-04
CGA:  15    -0.128323986952E+04   -0.30603E-04   -0.33639E-04 10640   0.105E-03 0.305E-04
CGA:  16    -0.128323990703E+04   -0.37509E-04   -0.42379E-04 10640   0.250E-03-0.122E-03
CGA:  17    -0.128323992086E+04   -0.13828E-04   -0.24450E-04 10640   0.474E-04 0.535E-04
CGA:  18    -0.128323993952E+04   -0.18659E-04   -0.19641E-04 10640   0.545E-04-0.189E-04
CGA:  19    -0.128323996752E+04   -0.28004E-04    0.10259E-04 10640   0.143E-03-0.552E-04
CGA:  20    -0.128323997273E+04   -0.52084E-05   -0.14357E-04 10640   0.392E-04 0.481E-04
  17 F= -.12832400E+04 E0= -.12832400E+04  d E =-.430111E-01  mag=    47.0000
       N       E                     dE             d eps       ncg     rms          ort
SDA:   1    -0.127629169745E+04    0.69483E+01    0.00000E+00 10640   0.200E+02 0.000E+00
CGA:   2    -0.128089224876E+04   -0.46006E+01   -0.45995E+01 10640   0.898E+01-0.139E-02
CGA:   3    -0.128285035174E+04   -0.19581E+01   -0.19595E+01 10640   0.232E+01-0.402E-02
CGA:   4    -0.128318643327E+04   -0.33608E+00   -0.33529E+00 10640   0.422E+00 0.156E-01
CGA:   5    -0.128326532346E+04   -0.78890E-01   -0.78970E-01 10640   0.114E+00 0.308E-03
CGA:   6    -0.128328681771E+04   -0.21494E-01   -0.21575E-01 10640   0.341E-01 0.147E-02
CGA:   7    -0.128329448581E+04   -0.76681E-02   -0.76314E-02 10640   0.117E-01-0.101E-02
CGA:   8    -0.128329686962E+04   -0.23838E-02   -0.23621E-02 10640   0.566E-02-0.428E-03
CGA:   9    -0.128329834559E+04   -0.14760E-02   -0.14848E-02 10640   0.312E-02-0.466E-03
CGA:  10    -0.128329908159E+04   -0.73600E-03   -0.73610E-03 10640   0.167E-02-0.367E-04
CGA:  11    -0.128329956978E+04   -0.48819E-03   -0.49697E-03 10640   0.125E-02-0.191E-03
CGA:  12    -0.128329991865E+04   -0.34887E-03   -0.38925E-03 10640   0.169E-02-0.422E-03
CGA:  13    -0.128330025444E+04   -0.33579E-03   -0.44535E-03 10640   0.232E-02-0.802E-03
CGA:  14    -0.128330060213E+04   -0.34769E-03   -0.35569E-03 10640   0.169E-02-0.344E-03
CGA:  15    -0.128330116807E+04   -0.56594E-03   -0.78053E-03 10640   0.245E-02-0.800E-03
CGA:  16    -0.128330130949E+04   -0.14142E-03   -0.15991E-03 10640   0.134E-02 0.113E-03
CGA:  17    -0.128330150838E+04   -0.19889E-03   -0.21929E-03 10640   0.960E-03 0.168E-03
CGA:  18    -0.128330175719E+04   -0.24881E-03   -0.23397E-03 10640   0.479E-03-0.284E-03
CGA:  19    -0.128330184378E+04   -0.86583E-04   -0.85533E-04 10640   0.509E-03-0.834E-04
CGA:  20    -0.128330185585E+04   -0.12071E-04   -0.43653E-04 10640   0.305E-03 0.194E-03
CGA:  21    -0.128330185537E+04    0.47407E-06   -0.36042E-04 10640   0.175E-03 0.212E-03
CGA:  22    -0.128330193169E+04   -0.76319E-04   -0.71378E-04 10640   0.148E-03 0.312E-04
CGA:  23    -0.128330193333E+04   -0.16330E-05   -0.17572E-04 10640   0.607E-04 0.102E-03
  18 F= -.12833019E+04 E0= -.12833019E+04  d E =-.619606E-01  mag=    47.0000
       N       E                     dE             d eps       ncg     rms          ort
SDA:   1    -0.127864061379E+04    0.46613E+01    0.00000E+00 10640   0.131E+02 0.000E+00
CGA:   2    -0.128171632056E+04   -0.30757E+01   -0.30757E+01 10640   0.601E+01-0.428E-03
CGA:   3    -0.128304093772E+04   -0.13246E+01   -0.13246E+01 10640   0.143E+01-0.497E-02
CGA:   4    -0.128324565631E+04   -0.20472E+00   -0.20472E+00 10640   0.275E+00 0.105E-01
CGA:   5    -0.128329681696E+04   -0.51161E-01   -0.51141E-01 10640   0.744E-01-0.638E-03
CGA:   6    -0.128331032936E+04   -0.13512E-01   -0.13615E-01 10640   0.212E-01 0.214E-02
CGA:   7    -0.128331529810E+04   -0.49687E-02   -0.49621E-02 10640   0.788E-02-0.128E-02
CGA:   8    -0.128331665823E+04   -0.13601E-02   -0.13576E-02 10640   0.322E-02-0.292E-04
CGA:   9    -0.128331750331E+04   -0.84508E-03   -0.84637E-03 10640   0.141E-02-0.348E-04
CGA:  10    -0.128331792723E+04   -0.42392E-03   -0.42853E-03 10640   0.898E-03-0.595E-04
CGA:  11    -0.128331811354E+04   -0.18631E-03   -0.18664E-03 10640   0.472E-03 0.181E-04
CGA:  12    -0.128331826507E+04   -0.15153E-03   -0.15607E-03 10640   0.383E-03-0.507E-04
CGA:  13    -0.128331677302E+04    0.14921E-02   -0.80281E-03 10640   0.165E-01-0.153E-02
CGA:  14    -0.128331816692E+04   -0.13939E-02   -0.15718E-02 10640   0.159E-02 0.728E-03
CGA:  15    -0.128331858297E+04   -0.41605E-03   -0.44459E-03 10640   0.609E-03 0.189E-03
CGA:  16    -0.128331877736E+04   -0.19439E-03   -0.16489E-03 10640   0.457E-03-0.173E-03
CGA:  17    -0.128331882042E+04   -0.43061E-04   -0.55369E-04 10640   0.210E-03 0.533E-04
CGA:  18    -0.128331884230E+04   -0.21877E-04   -0.32788E-04 10640   0.949E-04 0.438E-04
CGA:  19    -0.128331887487E+04   -0.32569E-04   -0.69321E-04 10640   0.685E-03-0.163E-03
CGA:  20    -0.128331892760E+04   -0.52728E-04   -0.66757E-04 10640   0.724E-04 0.510E-04
CGA:  21    -0.128331895687E+04   -0.29275E-04   -0.42477E-04 10640   0.222E-03-0.775E-04
CGA:  22    -0.128331897513E+04   -0.18261E-04   -0.27014E-04 10640   0.218E-04 0.341E-04
CGA:  23    -0.128331899718E+04   -0.22044E-04    0.26005E-04 10640   0.320E-04-0.423E-05
CGA:  24    -0.128331904522E+04   -0.48042E-04    0.31592E-05 10640   0.475E-04-0.126E-04
CGA:  25    -0.128331910373E+04   -0.58507E-04    0.30597E-05 10640   0.101E-03-0.351E-05
CGA:  26    -0.128331921567E+04   -0.11194E-03    0.28579E-04 10640   0.750E-04 0.150E-04
CGA:  27    -0.128331928435E+04   -0.68681E-04    0.21335E-03 10640   0.123E-03-0.638E-04
CGA:  28    -0.128331930549E+04   -0.21141E-04   -0.19939E-04 10640   0.174E-04-0.528E-05
CGA:  29    -0.128331930761E+04   -0.21217E-05   -0.32597E-05 10640   0.809E-05 0.692E-05
  19 F= -.12833193E+04 E0= -.12833193E+04  d E =-.173743E-01  mag=    47.0000
       N       E                     dE             d eps       ncg     rms          ort
SDA:   1    -0.126887368144E+04    0.14446E+02    0.00000E+00 10640   0.466E+02 0.000E+00
CGA:   2    -0.127784123422E+04   -0.89676E+01   -0.89671E+01 10640   0.176E+02 0.716E-01
CGA:   3    -0.128205998442E+04   -0.42188E+01   -0.42285E+01 10640   0.585E+01 0.330E-01
CGA:   4    -0.128290816465E+04   -0.84818E+00   -0.84438E+00 10640   0.899E+00 0.284E-01
CGA:   5    -0.128307435668E+04   -0.16619E+00   -0.16608E+00 10640   0.251E+00 0.403E-02
CGA:   6    -0.128312411224E+04   -0.49756E-01   -0.49420E-01 10640   0.785E-01-0.378E-02
CGA:   7    -0.128314001866E+04   -0.15906E-01   -0.15899E-01 10640   0.222E-01 0.363E-03
CGA:   8    -0.128314496797E+04   -0.49493E-02   -0.48619E-02 10640   0.103E-01-0.103E-02
CGA:   9    -0.128314741284E+04   -0.24449E-02   -0.24046E-02 10640   0.569E-02-0.748E-03
CGA:  10    -0.128314889967E+04   -0.14868E-02   -0.14763E-02 10640   0.343E-02-0.675E-03
CGA:  11    -0.128314983216E+04   -0.93249E-03   -0.95023E-03 10640   0.300E-02-0.915E-03
CGA:  12    -0.128315041334E+04   -0.58118E-03   -0.55867E-03 10640   0.185E-02-0.537E-03
CGA:  13    -0.128315092772E+04   -0.51438E-03   -0.51662E-03 10640   0.138E-02-0.508E-04
CGA:  14    -0.128315139776E+04   -0.47004E-03   -0.48281E-03 10640   0.181E-02-0.207E-03
CGA:  15    -0.128315166761E+04   -0.26985E-03   -0.30904E-03 10640   0.754E-03 0.394E-03
CGA:  16    -0.128315184510E+04   -0.17750E-03   -0.20307E-03 10640   0.536E-03 0.348E-03
CGA:  17    -0.128315199485E+04   -0.14975E-03   -0.16274E-03 10640   0.267E-03 0.155E-03
CGA:  18    -0.128315201616E+04   -0.21315E-04   -0.49746E-04 10640   0.150E-03 0.199E-03
CGA:  19    -0.128315202310E+04   -0.69411E-05   -0.21010E-04 10640   0.885E-04 0.101E-03
CGA:  20    -0.128315204211E+04   -0.19005E-04   -0.21184E-04 10640   0.634E-04 0.659E-04
CGA:  21    -0.128315204040E+04    0.17068E-05   -0.72555E-05 10640   0.561E-04 0.572E-04
  20 F= -.12831520E+04 E0= -.12831520E+04  d E =0.167267E+00  mag=    47.0000
       N       E                     dE             d eps       ncg     rms          ort
SDA:   1    -0.127991658423E+04    0.32355E+01    0.00000E+00 10640   0.112E+02 0.000E+00
CGA:   2    -0.128204744182E+04   -0.21309E+01   -0.21308E+01 10640   0.405E+01 0.681E-02
CGA:   3    -0.128305581844E+04   -0.10084E+01   -0.10084E+01 10640   0.134E+01-0.153E-02
CGA:   4    -0.128324697586E+04   -0.19116E+00   -0.19072E+00 10640   0.210E+00 0.902E-02
CGA:   5    -0.128328513834E+04   -0.38162E-01   -0.38098E-01 10640   0.627E-01-0.133E-02
CGA:   6    -0.128329658543E+04   -0.11447E-01   -0.11496E-01 10640   0.179E-01 0.915E-03
CGA:   7    -0.128330054380E+04   -0.39584E-02   -0.39497E-02 10640   0.540E-02-0.327E-03
CGA:   8    -0.128330159671E+04   -0.10529E-02   -0.10477E-02 10640   0.228E-02-0.110E-03
CGA:   9    -0.128330218612E+04   -0.58940E-03   -0.59879E-03 10640   0.137E-02-0.317E-03
CGA:  10    -0.128330248702E+04   -0.30090E-03   -0.30442E-03 10640   0.785E-03-0.188E-03
CGA:  11    -0.128330264053E+04   -0.15351E-03   -0.31002E-03 10640   0.202E-02-0.722E-03
CGA:  12    -0.128330281764E+04   -0.17712E-03   -0.19903E-03 10640   0.283E-03 0.153E-03
CGA:  13    -0.128330292250E+04   -0.10485E-03   -0.14188E-03 10640   0.364E-03-0.167E-03
CGA:  14    -0.128330300429E+04   -0.81797E-04   -0.80641E-04 10640   0.117E-03-0.339E-04
CGA:  15    -0.128330302852E+04   -0.24227E-04   -0.23818E-04 10640   0.784E-04-0.139E-04
CGA:  16    -0.128330308049E+04   -0.51967E-04    0.17746E-04 10640   0.471E-04 0.382E-04
CGA:  17    -0.128330312760E+04   -0.47115E-04    0.26759E-04 10640   0.445E-04 0.225E-04
CGA:  18    -0.128330317703E+04   -0.49432E-04    0.17026E-04 10640   0.310E-04 0.340E-04
CGA:  19    -0.128330319315E+04   -0.16113E-04    0.14097E-03 10640   0.264E-04 0.232E-05
CGA:  20    -0.128330321138E+04   -0.18235E-04    0.13241E-04 10640   0.204E-04 0.123E-04
CGA:  21    -0.128330323515E+04   -0.23772E-04    0.64940E-05 10640   0.194E-04 0.193E-04
CGA:  22    -0.128330324783E+04   -0.12678E-04    0.83748E-05 10640   0.164E-04 0.223E-05
CGA:  23    -0.128330326506E+04   -0.17228E-04    0.26482E-05 10640   0.117E-04 0.109E-04
CGA:  24    -0.128330326855E+04   -0.34921E-05   -0.33706E-05 10640   0.115E-04 0.351E-05
  21 F= -.12833033E+04 E0= -.12833033E+04  d E =-.151228E+00  mag=    47.0000
       N       E                     dE             d eps       ncg     rms          ort
SDA:   1    -0.128291342335E+04    0.38984E+00    0.00000E+00 10640   0.128E+01 0.000E+00
CGA:   2    -0.128316615507E+04   -0.25273E+00   -0.25280E+00 10640   0.482E+00 0.137E-02
CGA:   3    -0.128328701888E+04   -0.12086E+00   -0.12086E+00 10640   0.142E+00-0.236E-02
CGA:   4    -0.128330708101E+04   -0.20062E-01   -0.20238E-01 10640   0.232E-01 0.205E-02
CGA:   5    -0.128331147773E+04   -0.43967E-02   -0.43595E-02 10640   0.751E-02-0.616E-03
CGA:   6    -0.128331265870E+04   -0.11810E-02   -0.12179E-02 10640   0.194E-02 0.497E-03
CGA:   7    -0.128331314483E+04   -0.48614E-03   -0.48600E-03 10640   0.559E-03-0.380E-04
CGA:   8    -0.128331328121E+04   -0.13637E-03   -0.13694E-03 10640   0.322E-03-0.513E-04
CGA:   9    -0.128331333419E+04   -0.52976E-04   -0.54655E-04 10640   0.132E-03 0.322E-04
CGA:  10    -0.128331337335E+04   -0.39165E-04   -0.38544E-04 10640   0.615E-04 0.212E-04
CGA:  11    -0.128331341080E+04   -0.37453E-04    0.84855E-04 10640   0.386E-04 0.250E-04
CGA:  12    -0.128331343102E+04   -0.20216E-04   -0.20021E-04 10640   0.496E-04 0.134E-05
CGA:  13    -0.128331346126E+04   -0.30241E-04    0.30991E-04 10640   0.428E-04 0.113E-04
CGA:  14    -0.128331349579E+04   -0.34529E-04    0.18722E-04 10640   0.334E-04 0.188E-04
CGA:  15    -0.128331351270E+04   -0.16906E-04   -0.16903E-04 10640   0.564E-04-0.441E-06
CGA:  16    -0.128331354882E+04   -0.36120E-04    0.23423E-04 10640   0.470E-04-0.554E-05
CGA:  17    -0.128331359249E+04   -0.43673E-04    0.49957E-05 10640   0.486E-04-0.105E-04
CGA:  18    -0.128331347966E+04    0.11283E-03   -0.35882E-04 10640   0.729E-03-0.216E-03
CGA:  19    -0.128331361306E+04   -0.13340E-03   -0.11418E-03 10640   0.286E-03-0.148E-03
CGA:  20    -0.128331363972E+04   -0.26661E-04   -0.35085E-04 10640   0.440E-04 0.679E-04
CGA:  21    -0.128331363747E+04    0.22514E-05   -0.38217E-05 10640   0.212E-04 0.301E-04
  22 F= -.12833136E+04 E0= -.12833136E+04  d E =-.103689E-01  mag=    47.0000
       N       E                     dE             d eps       ncg     rms          ort
SDA:   1    -0.128279775233E+04    0.51589E+00    0.00000E+00 10640   0.148E+01 0.000E+00
CGA:   2    -0.128312786650E+04   -0.33011E+00   -0.33011E+00 10640   0.636E+00-0.126E-03
CGA:   3    -0.128327921862E+04   -0.15135E+00   -0.15134E+00 10640   0.132E+00-0.101E-02
CGA:   4    -0.128329974497E+04   -0.20526E-01   -0.20716E-01 10640   0.227E-01 0.198E-02
CGA:   5    -0.128330462035E+04   -0.48754E-02   -0.48557E-02 10640   0.622E-02-0.487E-03
CGA:   6    -0.128330560094E+04   -0.98059E-03   -0.10361E-02 10640   0.186E-02 0.717E-03
CGA:   7    -0.128330608956E+04   -0.48863E-03   -0.48553E-03 10640   0.776E-03-0.294E-03
CGA:   8    -0.128330617830E+04   -0.88736E-04   -0.10010E-03 10640   0.264E-03 0.126E-03
CGA:   9    -0.128330622335E+04   -0.45052E-04   -0.51811E-04 10640   0.104E-03 0.954E-04
CGA:  10    -0.128330625105E+04   -0.27700E-04   -0.28493E-04 10640   0.669E-04 0.227E-04
CGA:  11    -0.128330625158E+04   -0.52791E-06   -0.75447E-05 10640   0.350E-04 0.495E-04
  23 F= -.12833063E+04 E0= -.12833063E+04  d E =0.738589E-02  mag=    47.0000
       N       E                     dE             d eps       ncg     rms          ort
SDA:   1    -0.127441514729E+04    0.88911E+01    0.00000E+00 10640   0.232E+02 0.000E+00
CGA:   2    -0.128043190784E+04   -0.60168E+01   -0.60167E+01 10640   0.110E+02-0.182E-02
CGA:   3    -0.128281340213E+04   -0.23815E+01   -0.23815E+01 10640   0.190E+01-0.434E-02
CGA:   4    -0.128312015349E+04   -0.30675E+00   -0.30700E+00 10640   0.415E+00 0.241E-02
CGA:   5    -0.128319508547E+04   -0.74932E-01   -0.74988E-01 10640   0.121E+00 0.268E-02
CGA:   6    -0.128321660245E+04   -0.21517E-01   -0.21464E-01 10640   0.396E-01-0.158E-02
CGA:   7    -0.128322466945E+04   -0.80670E-02   -0.80642E-02 10640   0.104E-01-0.232E-03
CGA:   8    -0.128322732965E+04   -0.26602E-02   -0.27516E-02 10640   0.705E-02-0.177E-02
CGA:   9    -0.128322826262E+04   -0.93297E-03   -0.96077E-03 10640   0.235E-02 0.542E-03
CGA:  10    -0.128322902512E+04   -0.76250E-03   -0.78759E-03 10640   0.134E-02-0.259E-03
CGA:  11    -0.128322929927E+04   -0.27415E-03   -0.43776E-03 10640   0.297E-02-0.111E-02
CGA:  12    -0.128322948596E+04   -0.18669E-03   -0.26049E-03 10640   0.361E-03 0.547E-03
CGA:  13    -0.128322953629E+04   -0.50338E-04   -0.61903E-04 10640   0.239E-03 0.155E-03
CGA:  14    -0.128322963053E+04   -0.94235E-04   -0.10691E-03 10640   0.306E-03-0.131E-03
CGA:  15    -0.128322964723E+04   -0.16699E-04   -0.31790E-04 10640   0.115E-03 0.129E-03
CGA:  16    -0.128322966990E+04   -0.22672E-04   -0.26668E-04 10640   0.835E-04 0.758E-04
CGA:  17    -0.128322970838E+04   -0.38476E-04    0.10468E-03 10640   0.104E-03 0.117E-04
CGA:  18    -0.128322973151E+04   -0.23132E-04   -0.24072E-04 10640   0.767E-04 0.103E-03
CGA:  19    -0.128322972887E+04    0.26362E-05   -0.50635E-05 10640   0.457E-04 0.527E-04
  24 F= -.12832297E+04 E0= -.12832297E+04  d E =0.765227E-01  mag=    47.0000
       N       E                     dE             d eps       ncg     rms          ort
SDA:   1    -0.126656229190E+04    0.16667E+02    0.00000E+00 10640   0.551E+02 0.000E+00
CGA:   2    -0.127698138670E+04   -0.10419E+02   -0.10421E+02 10640   0.194E+02 0.877E-01
CGA:   3    -0.128194992881E+04   -0.49685E+01   -0.49651E+01 10640   0.569E+01 0.363E-01
CGA:   4    -0.128283204257E+04   -0.88211E+00   -0.88342E+00 10640   0.841E+00 0.205E-01
CGA:   5    -0.128300332090E+04   -0.17128E+00   -0.17128E+00 10640   0.225E+00 0.851E-03
CGA:   6    -0.128304967022E+04   -0.46349E-01   -0.46368E-01 10640   0.798E-01-0.339E-02
CGA:   7    -0.128306466881E+04   -0.14999E-01   -0.14999E-01 10640   0.198E-01 0.215E-03
CGA:   8    -0.128306987827E+04   -0.52095E-02   -0.53534E-02 10640   0.943E-02-0.206E-02
CGA:   9    -0.128307191986E+04   -0.20416E-02   -0.20333E-02 10640   0.414E-02 0.240E-03
CGA:  10    -0.128307320365E+04   -0.12838E-02   -0.14050E-02 10640   0.324E-02-0.961E-03
CGA:  11    -0.128307368895E+04   -0.48531E-03   -0.48650E-03 10640   0.130E-02 0.756E-04
CGA:  12    -0.128307408441E+04   -0.39546E-03   -0.38949E-03 10640   0.736E-03 0.731E-04
CGA:  13    -0.128307435458E+04   -0.27017E-03   -0.30010E-03 10640   0.121E-02-0.176E-03
CGA:  14    -0.128307443542E+04   -0.80834E-04   -0.11408E-03 10640   0.740E-03 0.332E-03
CGA:  15    -0.128307448792E+04   -0.52499E-04   -0.98595E-04 10640   0.510E-03 0.404E-03
CGA:  16    -0.128307463589E+04   -0.14798E-03   -0.14817E-03 10640   0.482E-03-0.236E-05
CGA:  17    -0.128307466621E+04   -0.30312E-04   -0.54411E-04 10640   0.167E-03 0.233E-03
CGA:  18    -0.128307466627E+04   -0.68329E-07   -0.19669E-04 10640   0.112E-03 0.148E-03
CGA:  19    -0.128307468935E+04   -0.23073E-04   -0.23020E-04 10640   0.857E-04 0.830E-04
CGA:  20    -0.128307469574E+04   -0.63922E-05   -0.11621E-04 10640   0.762E-04 0.751E-04
CGA:  21    -0.128307470849E+04   -0.12750E-04   -0.14018E-04 10640   0.708E-04 0.711E-04
CGA:  22    -0.128307471557E+04   -0.70777E-05   -0.10556E-04 10640   0.667E-04 0.673E-04
CGA:  23    -0.128307472578E+04   -0.10211E-04   -0.11684E-04 10640   0.630E-04 0.641E-04
CGA:  24    -0.128307473284E+04   -0.70669E-05   -0.97005E-05 10640   0.601E-04 0.611E-04
CGA:  25    -0.128307474163E+04   -0.87882E-05   -0.10226E-04 10640   0.572E-04 0.584E-04
  25 F= -.12830747E+04 E0= -.12830747E+04  d E =0.154987E+00  mag=    47.0000
       N       E                     dE             d eps       ncg     rms          ort
SDA:   1    -0.128092495334E+04    0.21498E+01    0.00000E+00 10640   0.755E+01 0.000E+00
CGA:   2    -0.128236265827E+04   -0.14377E+01   -0.14377E+01 10640   0.276E+01 0.814E-02
CGA:   3    -0.128304704742E+04   -0.68439E+00   -0.68463E+00 10640   0.898E+00-0.712E-02
CGA:   4    -0.128317698018E+04   -0.12993E+00   -0.12999E+00 10640   0.135E+00 0.437E-02
CGA:   5    -0.128320266243E+04   -0.25682E-01   -0.25677E-01 10640   0.411E-01-0.241E-02
CGA:   6    -0.128320984482E+04   -0.71824E-02   -0.71949E-02 10640   0.118E-01 0.983E-03
CGA:   7    -0.128321240917E+04   -0.25644E-02   -0.25690E-02 10640   0.352E-02-0.216E-03
CGA:   8    -0.128321309088E+04   -0.68171E-03   -0.68184E-03 10640   0.144E-02-0.191E-04
CGA:   9    -0.128321345964E+04   -0.36876E-03   -0.38151E-03 10640   0.826E-03-0.169E-03
CGA:  10    -0.128321365552E+04   -0.19588E-03   -0.25519E-03 10640   0.960E-03-0.383E-03
CGA:  11    -0.128321372230E+04   -0.66776E-04   -0.17863E-03 10640   0.123E-02-0.781E-03
CGA:  12    -0.128321386627E+04   -0.14397E-03   -0.15383E-03 10640   0.375E-03 0.117E-03
CGA:  13    -0.128321399646E+04   -0.13019E-03   -0.14088E-03 10640   0.202E-03-0.783E-04
CGA:  14    -0.128321405004E+04   -0.53580E-04   -0.57234E-04 10640   0.150E-03-0.254E-04
CGA:  15    -0.128321405736E+04   -0.73229E-05   -0.65709E-04 10640   0.663E-03-0.208E-03
CGA:  16    -0.128321411191E+04   -0.54543E-04   -0.64754E-04 10640   0.696E-04 0.762E-04
CGA:  17    -0.128321413180E+04   -0.19892E-04   -0.41581E-04 10640   0.203E-03-0.706E-04
CGA:  18    -0.128321415419E+04   -0.22386E-04   -0.25209E-04 10640   0.348E-04 0.241E-04
CGA:  19    -0.128321416227E+04   -0.80890E-05   -0.82601E-05 10640   0.995E-05 0.674E-05
  26 F= -.12832142E+04 E0= -.12832142E+04  d E =-.139421E+00  mag=    47.0000
       N       E                     dE             d eps       ncg     rms          ort
SDA:   1    -0.128225677891E+04    0.95738E+00    0.00000E+00 10640   0.317E+01 0.000E+00
CGA:   2    -0.128287863069E+04   -0.62185E+00   -0.62199E+00 10640   0.119E+01 0.401E-02
CGA:   3    -0.128317651952E+04   -0.29789E+00   -0.29796E+00 10640   0.355E+00-0.543E-02
CGA:   4    -0.128322744494E+04   -0.50925E-01   -0.51101E-01 10640   0.560E-01 0.312E-02
CGA:   5    -0.128323823067E+04   -0.10786E-01   -0.10726E-01 10640   0.179E-01-0.150E-02
CGA:   6    -0.128324114415E+04   -0.29135E-02   -0.29616E-02 10640   0.488E-02 0.853E-03
CGA:   7    -0.128324227586E+04   -0.11317E-02   -0.11315E-02 10640   0.142E-02-0.458E-04
CGA:   8    -0.128324258152E+04   -0.30567E-03   -0.30533E-03 10640   0.696E-03-0.441E-04
CGA:   9    -0.128324272561E+04   -0.14409E-03   -0.14447E-03 10640   0.298E-03 0.369E-04
CGA:  10    -0.128324283353E+04   -0.10792E-03   -0.11711E-03 10640   0.246E-03-0.614E-04
CGA:  11    -0.128324249465E+04    0.33887E-03   -0.20387E-03 10640   0.418E-02-0.669E-03
CGA:  12    -0.128324285304E+04   -0.35838E-03   -0.40367E-03 10640   0.449E-03 0.287E-03
CGA:  13    -0.128324297997E+04   -0.12693E-03   -0.12688E-03 10640   0.225E-03 0.622E-04
CGA:  14    -0.128324304657E+04   -0.66599E-04   -0.66327E-04 10640   0.235E-03-0.569E-04
CGA:  15    -0.128324307309E+04   -0.26518E-04   -0.29247E-04 10640   0.113E-03 0.284E-04
CGA:  16    -0.128324308444E+04   -0.11353E-04   -0.15294E-04 10640   0.559E-04 0.287E-04
CGA:  17    -0.128324310195E+04   -0.17504E-04   -0.17490E-04 10640   0.600E-04-0.679E-05
CGA:  18    -0.128324311402E+04   -0.12073E-04   -0.17532E-04 10640   0.116E-03-0.674E-04
CGA:  19    -0.128324312615E+04   -0.12136E-04   -0.15273E-04 10640   0.356E-04 0.255E-04
CGA:  20    -0.128324313334E+04   -0.71854E-05   -0.82679E-05 10640   0.139E-04 0.182E-04
  27 F= -.12832431E+04 E0= -.12832431E+04  d E =-.289711E-01  mag=    47.0000
       N       E                     dE             d eps       ncg     rms          ort
SDA:   1    -0.128307476161E+04    0.16836E+00    0.00000E+00 10640   0.488E+00 0.000E+00
CGA:   2    -0.128318546012E+04   -0.11070E+00   -0.11070E+00 10640   0.214E+00 0.280E-03
CGA:   3    -0.128323603816E+04   -0.50578E-01   -0.50564E-01 10640   0.438E-01-0.163E-02
CGA:   4    -0.128324279543E+04   -0.67573E-02   -0.68085E-02 10640   0.749E-02 0.583E-03
CGA:   5    -0.128324445210E+04   -0.16567E-02   -0.16498E-02 10640   0.213E-02-0.295E-03
CGA:   6    -0.128324474232E+04   -0.29022E-03   -0.31985E-03 10640   0.609E-03 0.358E-03
CGA:   7    -0.128324491452E+04   -0.17220E-03   -0.17297E-03 10640   0.253E-03-0.963E-04
CGA:   8    -0.128324495335E+04   -0.38828E-04   -0.40249E-04 10640   0.102E-03 0.306E-04
CGA:   9    -0.128324497739E+04   -0.24040E-04   -0.24387E-04 10640   0.468E-04 0.168E-04
CGA:  10    -0.128324499546E+04   -0.18068E-04   -0.27605E-04 10640   0.922E-04-0.349E-04
CGA:  11    -0.128324500389E+04   -0.84377E-05   -0.11775E-04 10640   0.236E-04 0.283E-04
CGA:  12    -0.128324499631E+04    0.75856E-05   -0.22549E-04 10640   0.166E-03-0.613E-04
CGA:  13    -0.128324501473E+04   -0.18418E-04   -0.24474E-04 10640   0.311E-04 0.519E-04
CGA:  14    -0.128324502587E+04   -0.11142E-04   -0.16681E-04 10640   0.560E-04-0.369E-04
CGA:  15    -0.128324502617E+04   -0.29727E-06   -0.50136E-05 10640   0.172E-04 0.267E-04
  28 F= -.12832450E+04 E0= -.12832450E+04  d E =-.189283E-02  mag=    47.0000
       N       E                     dE             d eps       ncg     rms          ort
SDA:   1    -0.127664635053E+04    0.65987E+01    0.00000E+00 10640   0.174E+02 0.000E+00
CGA:   2    -0.128111795517E+04   -0.44716E+01   -0.44716E+01 10640   0.826E+01-0.243E-03
CGA:   3    -0.128291870603E+04   -0.18008E+01   -0.18005E+01 10640   0.139E+01-0.750E-02
CGA:   4    -0.128314902372E+04   -0.23032E+00   -0.23060E+00 10640   0.277E+00 0.311E-02
CGA:   5    -0.128320517784E+04   -0.56154E-01   -0.56177E-01 10640   0.687E-01 0.640E-03
CGA:   6    -0.128321895371E+04   -0.13776E-01   -0.13766E-01 10640   0.257E-01-0.168E-03
CGA:   7    -0.128322362328E+04   -0.46696E-02   -0.46404E-02 10640   0.770E-02-0.439E-03
CGA:   8    -0.128322551858E+04   -0.18953E-02   -0.19133E-02 10640   0.451E-02-0.119E-02
CGA:   9    -0.128322620082E+04   -0.68224E-03   -0.69854E-03 10640   0.155E-02 0.308E-03
CGA:  10    -0.128322676437E+04   -0.56355E-03   -0.67428E-03 10640   0.119E-02-0.647E-03
CGA:  11    -0.128322695070E+04   -0.18633E-03   -0.19282E-03 10640   0.610E-03-0.196E-03
CGA:  12    -0.128322709208E+04   -0.14139E-03   -0.18008E-03 10640   0.778E-03-0.360E-03
CGA:  13    -0.128322720117E+04   -0.10909E-03   -0.11343E-03 10640   0.260E-03 0.419E-04
CGA:  14    -0.128322725752E+04   -0.56348E-04   -0.57871E-04 10640   0.101E-03 0.438E-04
CGA:  15    -0.128322731516E+04   -0.57640E-04   -0.10706E-03 10640   0.392E-03-0.748E-04
CGA:  16    -0.128322733404E+04   -0.18879E-04   -0.37170E-04 10640   0.758E-04 0.101E-03
CGA:  17    -0.128322734892E+04   -0.14881E-04   -0.17416E-04 10640   0.691E-04 0.295E-04
CGA:  18    -0.128322731879E+04    0.30128E-04   -0.72058E-04 10640   0.649E-03-0.210E-03
CGA:  19    -0.128322736592E+04   -0.47126E-04   -0.73229E-04 10640   0.162E-03 0.150E-03
CGA:  20    -0.128322741679E+04   -0.50877E-04   -0.51283E-04 10640   0.664E-04 0.179E-04
CGA:  21    -0.128322731097E+04    0.10582E-03   -0.59835E-04 10640   0.188E-02-0.311E-03
CGA:  22    -0.128322743092E+04   -0.11994E-03   -0.16821E-03 10640   0.108E-03 0.231E-03
CGA:  23    -0.128322744429E+04   -0.13372E-04   -0.18887E-04 10640   0.711E-04 0.400E-04
CGA:  24    -0.128322747620E+04   -0.31912E-04   -0.37089E-04 10640   0.600E-04-0.559E-04
CGA:  25    -0.128322747584E+04    0.36017E-06   -0.57001E-05 10640   0.237E-04 0.308E-04
CGA:  26    -0.128322748735E+04   -0.11506E-04   -0.11037E-04 10640   0.104E-04 0.251E-05
CGA:  27    -0.128322749059E+04   -0.32419E-05   -0.32782E-05 10640   0.952E-05 0.678E-05
  29 F= -.12832275E+04 E0= -.12832275E+04  d E =0.175356E-01  mag=    47.0000
       N       E                     dE             d eps       ncg     rms          ort
SDA:   1    -0.126202311754E+04    0.21204E+02    0.00000E+00 10640   0.736E+02 0.000E+00
CGA:   2    -0.127526491605E+04   -0.13242E+02   -0.13234E+02 10640   0.237E+02 0.229E+00
CGA:   3    -0.128151513830E+04   -0.62502E+01   -0.62525E+01 10640   0.742E+01 0.511E-01
CGA:   4    -0.128266944410E+04   -0.11543E+01   -0.11569E+01 10640   0.112E+01 0.258E-01
CGA:   5    -0.128288616927E+04   -0.21673E+00   -0.21695E+00 10640   0.327E+00 0.389E-02
CGA:   6    -0.128294889039E+04   -0.62721E-01   -0.62473E-01 10640   0.118E+00-0.301E-02
CGA:   7    -0.128297175270E+04   -0.22862E-01   -0.22808E-01 10640   0.293E-01-0.211E-03
CGA:   8    -0.128297930061E+04   -0.75479E-02   -0.75303E-02 10640   0.139E-01-0.212E-02
CGA:   9    -0.128298228537E+04   -0.29848E-02   -0.29946E-02 10640   0.705E-02 0.335E-03
CGA:  10    -0.128298424113E+04   -0.19558E-02   -0.19576E-02 10640   0.413E-02-0.226E-03
CGA:  11    -0.128298524546E+04   -0.10043E-02   -0.10063E-02 10640   0.228E-02 0.165E-03
CGA:  12    -0.128298592883E+04   -0.68337E-03   -0.67782E-03 10640   0.150E-02 0.259E-03
CGA:  13    -0.128298650466E+04   -0.57582E-03   -0.55507E-03 10640   0.123E-02 0.308E-03
CGA:  14    -0.128298692215E+04   -0.41749E-03   -0.41272E-03 10640   0.946E-03 0.510E-03
CGA:  15    -0.128298724965E+04   -0.32751E-03   -0.33875E-03 10640   0.535E-03 0.733E-03
CGA:  16    -0.128298747302E+04   -0.22337E-03   -0.21538E-03 10640   0.689E-03 0.574E-04
CGA:  17    -0.128298755061E+04   -0.77582E-04   -0.11922E-03 10640   0.315E-03 0.352E-03
CGA:  18    -0.128298765548E+04   -0.10488E-03   -0.99653E-04 10640   0.250E-03 0.109E-03
CGA:  19    -0.128298781166E+04   -0.15618E-03   -0.13747E-03 10640   0.423E-03 0.134E-03
CGA:  20    -0.128298787381E+04   -0.62146E-04   -0.68207E-04 10640   0.255E-03 0.526E-04
CGA:  21    -0.128298796358E+04   -0.89773E-04   -0.86041E-04 10640   0.186E-03 0.133E-03
CGA:  22    -0.128298798481E+04   -0.21233E-04   -0.21191E-03 10640   0.233E-02-0.222E-03
CGA:  23    -0.128298818158E+04   -0.19676E-03   -0.25787E-03 10640   0.264E-03 0.305E-03
CGA:  24    -0.128298823419E+04   -0.52610E-04   -0.61188E-04 10640   0.168E-03 0.846E-04
CGA:  25    -0.128298832189E+04   -0.87705E-04   -0.12694E-03 10640   0.739E-03-0.145E-03
CGA:  26    -0.128298837863E+04   -0.56737E-04   -0.95076E-04 10640   0.198E-03 0.207E-03
CGA:  27    -0.128298843847E+04   -0.59841E-04   -0.63202E-04 10640   0.127E-03 0.600E-04
CGA:  28    -0.128298827102E+04    0.16745E-03   -0.18450E-03 10640   0.340E-02-0.434E-03
CGA:  29    -0.128298854700E+04   -0.27597E-03   -0.38990E-03 10640   0.421E-03 0.519E-03
CGA:  30    -0.128298865309E+04   -0.10610E-03   -0.11526E-03 10640   0.200E-03 0.972E-04
CGA:  31    -0.128298873168E+04   -0.78588E-04   -0.95078E-04 10640   0.570E-03-0.280E-03
CGA:  32    -0.128298873972E+04   -0.80446E-05   -0.53826E-04 10640   0.118E-03 0.196E-03
CGA:  33    -0.128298873827E+04    0.14576E-05   -0.16181E-04 10640   0.818E-04 0.815E-04
[...]
CGA:  17    -0.128336584732E+04   -0.54043E-04   -0.60445E-04 10640   0.294E-03-0.624E-04
CGA:  18    -0.128336587930E+04   -0.31972E-04   -0.21488E-04 10640   0.275E-03-0.877E-04
CGA:  19    -0.128336590530E+04   -0.26005E-04   -0.20349E-04 10640   0.234E-03-0.407E-04
CGA:  20    -0.128336592619E+04   -0.20892E-04   -0.23692E-04 10640   0.273E-03 0.235E-04
CGA:  21    -0.128336595720E+04   -0.31009E-04   -0.38971E-04 10640   0.262E-03 0.782E-04
CGA:  22    -0.128336599200E+04   -0.34794E-04   -0.40814E-04 10640   0.147E-03 0.571E-04
CGA:  23    -0.128336602292E+04   -0.30928E-04   -0.30220E-04 10640   0.166E-03-0.141E-04
CGA:  24    -0.128336605651E+04   -0.33591E-04   -0.33999E-04 10640   0.243E-03-0.517E-04
CGA:  25    -0.128336607360E+04   -0.17084E-04   -0.15101E-04 10640   0.153E-03-0.159E-04
CGA:  26    -0.128336608445E+04   -0.10853E-04   -0.11707E-04 10640   0.944E-04 0.626E-05
CGA:  27    -0.128336609294E+04   -0.84866E-05   -0.99965E-05 10640   0.893E-04 0.142E-04
CGA:  28    -0.128336610411E+04   -0.11170E-04   -0.11968E-04 10640   0.681E-04 0.919E-05
CGA:  29    -0.128336611412E+04   -0.10010E-04   -0.87725E-05 10640   0.326E-04-0.157E-04
CGA:  30    -0.128336601090E+04    0.10321E-03   -0.20992E-04 10640   0.966E-03-0.194E-03
CGA:  31    -0.128336610828E+04   -0.97380E-04   -0.10817E-03 10640   0.954E-04 0.987E-04
CGA:  32    -0.128336611943E+04   -0.11144E-04   -0.14561E-04 10640   0.417E-04 0.426E-04
CGA:  33    -0.128336613265E+04   -0.13221E-04   -0.13180E-04 10640   0.221E-04 0.107E-04
CGA:  34    -0.128336613496E+04   -0.23090E-05   -0.32192E-05 10640   0.661E-05 0.922E-05
  43 F= -.12833661E+04 E0= -.12833661E+04  d E =-.153825E+00  mag=    47.0000
       N       E                     dE             d eps       ncg     rms          ort
SDA:   1    -0.128318423497E+04    0.18190E+00    0.00000E+00 10640   0.577E+00 0.000E+00
CGA:   2    -0.128330775126E+04   -0.12352E+00   -0.12351E+00 10640   0.232E+00 0.904E-03
CGA:   3    -0.128336362174E+04   -0.55870E-01   -0.55920E-01 10640   0.553E-01-0.138E-02
CGA:   4    -0.128337252780E+04   -0.89061E-02   -0.88825E-02 10640   0.987E-02-0.544E-03
CGA:   5    -0.128337451131E+04   -0.19835E-02   -0.19838E-02 10640   0.269E-02-0.335E-03
CGA:   6    -0.128337500651E+04   -0.49520E-03   -0.49338E-03 10640   0.105E-02-0.144E-03
CGA:   7    -0.128337516060E+04   -0.15409E-03   -0.15905E-03 10640   0.216E-03 0.119E-03
CGA:   8    -0.128337522769E+04   -0.67093E-04   -0.10654E-03 10640   0.354E-03-0.162E-03
CGA:   9    -0.128337527079E+04   -0.43100E-04   -0.46739E-04 10640   0.612E-04 0.460E-04
CGA:  10    -0.128337530854E+04   -0.37743E-04    0.22971E-04 10640   0.258E-04-0.215E-05
CGA:  11    -0.128337532154E+04   -0.13002E-04    0.10139E-04 10640   0.134E-04 0.983E-05
CGA:  12    -0.128337533675E+04   -0.15214E-04    0.19743E-05 10640   0.878E-05 0.906E-05
CGA:  13    -0.128337534544E+04   -0.86915E-05    0.65887E-06 10640   0.617E-05 0.377E-05
  44 F= -.12833753E+04 E0= -.12833753E+04  d E =-.921049E-02  mag=    47.0000
       N       E                     dE             d eps       ncg     rms          ort
SDA:   1    -0.128061491062E+04    0.27604E+01    0.00000E+00 10640   0.799E+01 0.000E+00
CGA:   2    -0.128241240770E+04   -0.17975E+01   -0.17973E+01 10640   0.338E+01 0.945E-02
CGA:   3    -0.128320212544E+04   -0.78972E+00   -0.78984E+00 10640   0.745E+00-0.643E-02
CGA:   4    -0.128332248548E+04   -0.12036E+00   -0.12047E+00 10640   0.130E+00 0.219E-02
CGA:   5    -0.128335001260E+04   -0.27527E-01   -0.27538E-01 10640   0.321E-01-0.305E-02
CGA:   6    -0.128335620782E+04   -0.61952E-02   -0.62043E-02 10640   0.110E-01 0.958E-03
CGA:   7    -0.128335854213E+04   -0.23343E-02   -0.23341E-02 10640   0.386E-02-0.929E-03
CGA:   8    -0.128335930840E+04   -0.76627E-03   -0.76558E-03 10640   0.142E-02 0.780E-04
CGA:   9    -0.128335970933E+04   -0.40093E-03   -0.72200E-03 10640   0.289E-02-0.110E-02
CGA:  10    -0.128336000615E+04   -0.29682E-03   -0.32859E-03 10640   0.531E-03 0.299E-03
CGA:  11    -0.128336016892E+04   -0.16278E-03   -0.21390E-03 10640   0.527E-03-0.344E-03
CGA:  12    -0.128336024385E+04   -0.74922E-04   -0.81191E-04 10640   0.130E-03 0.897E-04
CGA:  13    -0.128335945947E+04    0.78438E-03   -0.42257E-03 10640   0.763E-02-0.846E-03
CGA:  14    -0.128336022250E+04   -0.76303E-03   -0.85263E-03 10640   0.120E-02 0.365E-03
CGA:  15    -0.128336050725E+04   -0.28475E-03   -0.27204E-03 10640   0.793E-04-0.737E-04
CGA:  16    -0.128336053913E+04   -0.31883E-04   -0.36339E-04 10640   0.154E-03-0.410E-04
CGA:  17    -0.128336054877E+04   -0.96422E-05   -0.17179E-04 10640   0.292E-04 0.279E-04
CGA:  18    -0.128336055886E+04   -0.10090E-04   -0.10594E-04 10640   0.373E-04 0.774E-05
CGA:  19    -0.128336059394E+04   -0.35080E-04    0.88048E-03 10640   0.725E-04-0.348E-06
CGA:  20    -0.128336029363E+04    0.30031E-03   -0.16308E-03 10640   0.177E-02-0.238E-03
CGA:  21    -0.128336050064E+04   -0.20701E-03   -0.24020E-03 10640   0.463E-03 0.752E-04
CGA:  22    -0.128336063548E+04   -0.13483E-03   -0.13708E-03 10640   0.145E-03 0.674E-05
CGA:  23    -0.128336065771E+04   -0.22240E-04   -0.23145E-04 10640   0.393E-04 0.249E-05
CGA:  24    -0.128336066934E+04   -0.11621E-04   -0.14880E-04 10640   0.361E-04 0.143E-04
CGA:  25    -0.128336066749E+04    0.18471E-05   -0.97679E-05 10640   0.201E-04 0.296E-04
CGA:  26    -0.128336067795E+04   -0.10459E-04   -0.10120E-04 10640   0.522E-04-0.483E-05
CGA:  27    -0.128336067479E+04    0.31604E-05   -0.57832E-05 10640   0.385E-04 0.211E-04
  45 F= -.12833607E+04 E0= -.12833607E+04  d E =0.146707E-01  mag=    47.0000
       N       E                     dE             d eps       ncg     rms          ort
SDA:   1    -0.128242108338E+04    0.93959E+00    0.00000E+00 10640   0.245E+01 0.000E+00
CGA:   2    -0.128304795302E+04   -0.62687E+00   -0.62713E+00 10640   0.114E+01 0.105E-02
CGA:   3    -0.128329744721E+04   -0.24949E+00   -0.24909E+00 10640   0.206E+00-0.183E-02
CGA:   4    -0.128333144652E+04   -0.33999E-01   -0.33968E-01 10640   0.410E-01 0.631E-04
CGA:   5    -0.128333980321E+04   -0.83567E-02   -0.81777E-02 10640   0.110E-01-0.643E-03
CGA:   6    -0.128334167492E+04   -0.18717E-02   -0.19434E-02 10640   0.373E-02 0.272E-03
CGA:   7    -0.128334251249E+04   -0.83757E-03   -0.79141E-03 10640   0.109E-02-0.186E-03
CGA:   8    -0.128334272185E+04   -0.20936E-03   -0.22337E-03 10640   0.435E-03 0.641E-04
CGA:   9    -0.128334289698E+04   -0.17513E-03   -0.15927E-03 10640   0.555E-03-0.191E-03
CGA:  10    -0.128334295894E+04   -0.61957E-04   -0.46280E-04 10640   0.233E-03-0.560E-04
CGA:  11    -0.128334299890E+04   -0.39966E-04   -0.35879E-04 10640   0.184E-03-0.170E-04
CGA:  12    -0.128334305403E+04   -0.55122E-04   -0.37546E-04 10640   0.104E-03-0.983E-04
CGA:  13    -0.128334307873E+04   -0.24707E-04   -0.24412E-04 10640   0.455E-04-0.181E-05
CGA:  14    -0.128334308829E+04   -0.95544E-05   -0.89545E-05 10640   0.286E-04-0.322E-05
  46 F= -.12833431E+04 E0= -.12833431E+04  d E =0.175865E-01  mag=    47.0000
       N       E                     dE             d eps       ncg     rms          ort
SDA:   1    -0.127144747231E+04    0.11896E+02    0.00000E+00 10640   0.364E+02 0.000E+00
CGA:   2    -0.127906161966E+04   -0.76141E+01   -0.76189E+01 10640   0.143E+02 0.176E-01
CGA:   3    -0.128250506663E+04   -0.34434E+01   -0.34464E+01 10640   0.352E+01 0.534E-02
CGA:   4    -0.128305600586E+04   -0.55094E+00   -0.54987E+00 10640   0.639E+00 0.247E-01
CGA:   5    -0.128317641730E+04   -0.12041E+00   -0.12060E+00 10640   0.188E+00-0.171E-02
CGA:   6    -0.128320817906E+04   -0.31762E-01   -0.31856E-01 10640   0.590E-01 0.232E-02
CGA:   7    -0.128322139639E+04   -0.13217E-01   -0.13112E-01 10640   0.155E-01-0.948E-03
CGA:   8    -0.128322503974E+04   -0.36433E-02   -0.36720E-02 10640   0.684E-02 0.365E-03
CGA:   9    -0.128322666378E+04   -0.16240E-02   -0.16309E-02 10640   0.397E-02 0.824E-04
CGA:  10    -0.128322741657E+04   -0.75279E-03   -0.81644E-03 10640   0.146E-02 0.568E-03
CGA:  11    -0.128322802820E+04   -0.61163E-03   -0.61079E-03 10640   0.904E-03 0.142E-04
CGA:  12    -0.128322815381E+04   -0.12560E-03   -0.17329E-03 10640   0.491E-03 0.384E-03
CGA:  13    -0.128322834005E+04   -0.18624E-03   -0.19386E-03 10640   0.324E-03 0.244E-03
CGA:  14    -0.128322851021E+04   -0.17016E-03   -0.16409E-03 10640   0.403E-03 0.192E-03
CGA:  15    -0.128322852686E+04   -0.16654E-04   -0.50980E-04 10640   0.192E-03 0.190E-03
CGA:  16    -0.128322857967E+04   -0.52806E-04   -0.63004E-04 10640   0.173E-03 0.135E-03
CGA:  17    -0.128322868422E+04   -0.10455E-03    0.11859E-02 10640   0.285E-03 0.195E-05
CGA:  18    -0.128322873953E+04   -0.55305E-04   -0.67950E-04 10640   0.204E-03 0.213E-03
CGA:  19    -0.128322873919E+04    0.34264E-06   -0.19809E-04 10640   0.858E-04 0.103E-03
CGA:  20    -0.128322877655E+04   -0.37360E-04   -0.31706E-04 10640   0.788E-04 0.645E-04
CGA:  21    -0.128322883895E+04   -0.62400E-04   -0.55912E-04 10640   0.290E-03 0.149E-04
CGA:  22    -0.128322895251E+04   -0.11357E-03   -0.11056E-03 10640   0.929E-04 0.235E-03
CGA:  23    -0.128322896674E+04   -0.14231E-04   -0.17241E-04 10640   0.518E-04 0.245E-04
CGA:  24    -0.128322896473E+04    0.20115E-05   -0.21783E-04 10640   0.130E-02-0.856E-04
CGA:  25    -0.128322906588E+04   -0.10115E-03   -0.15960E-03 10640   0.283E-03 0.142E-03
CGA:  26    -0.128322912881E+04   -0.62922E-04   -0.66812E-04 10640   0.445E-04 0.123E-04
CGA:  27    -0.128322913856E+04   -0.97548E-05   -0.10763E-04 10640   0.288E-04 0.376E-05
CGA:  28    -0.128322916087E+04   -0.22313E-04   -0.20443E-04 10640   0.809E-04 0.122E-04
CGA:  29    -0.128322922898E+04   -0.68104E-04   -0.73096E-04 10640   0.415E-03-0.375E-04
CGA:  30    -0.128322923039E+04   -0.14165E-05   -0.20737E-04 10640   0.502E-03 0.526E-04
CGA:  31    -0.128322922880E+04    0.15913E-05   -0.44950E-04 10640   0.158E-03 0.120E-03
CGA:  32    -0.128322922566E+04    0.31455E-05   -0.16052E-04 10640   0.768E-04 0.495E-04
CGA:  33    -0.128322923104E+04   -0.53871E-05   -0.11076E-04 10640   0.446E-04 0.165E-04
  47 F= -.12832292E+04 E0= -.12832292E+04  d E =0.113857E+00  mag=    47.0000
       N       E                     dE             d eps       ncg     rms          ort
SDA:   1    -0.127927023763E+04    0.39590E+01    0.00000E+00 10640   0.130E+02 0.000E+00
CGA:   2    -0.128185791737E+04   -0.25877E+01   -0.25870E+01 10640   0.484E+01 0.400E-02
CGA:   3    -0.128307200592E+04   -0.12141E+01   -0.12148E+01 10640   0.125E+01 0.170E-02
CGA:   4    -0.128327312440E+04   -0.20112E+00   -0.20121E+00 10640   0.193E+00-0.194E-03
CGA:   5    -0.128331383914E+04   -0.40715E-01   -0.40827E-01 10640   0.452E-01 0.751E-03
CGA:   6    -0.128332402811E+04   -0.10189E-01   -0.10066E-01 10640   0.171E-01-0.810E-03
CGA:   7    -0.128332668266E+04   -0.26546E-02   -0.27557E-02 10640   0.498E-02 0.569E-03
CGA:   8    -0.128332801149E+04   -0.13288E-02   -0.12719E-02 10640   0.245E-02-0.491E-03
CGA:   9    -0.128332864895E+04   -0.63746E-03   -0.61379E-03 10640   0.151E-02-0.296E-03
CGA:  10    -0.128332897846E+04   -0.32952E-03   -0.31307E-03 10640   0.769E-03-0.138E-03
CGA:  11    -0.128332920429E+04   -0.22583E-03   -0.22147E-03 10640   0.493E-03-0.144E-03
CGA:  12    -0.128332910232E+04    0.10198E-03   -0.32074E-03 10640   0.515E-02-0.929E-03
CGA:  13    -0.128332949420E+04   -0.39188E-03   -0.48475E-03 10640   0.498E-03 0.367E-03
CGA:  14    -0.128332963611E+04   -0.14191E-03   -0.14579E-03 10640   0.248E-03 0.477E-04
CGA:  15    -0.128332972449E+04   -0.88381E-04   -0.81210E-04 10640   0.427E-03-0.138E-03
CGA:  16    -0.128332973622E+04   -0.11733E-04   -0.37104E-04 10640   0.705E-04 0.985E-04
CGA:  17    -0.128332974198E+04   -0.57567E-05   -0.12629E-04 10640   0.608E-04 0.363E-04
CGA:  18    -0.128332978366E+04   -0.41681E-04    0.18353E-03 10640   0.189E-03-0.357E-04
CGA:  19    -0.128332978144E+04    0.22188E-05   -0.13124E-04 10640   0.320E-04 0.605E-04
  48 F= -.12833298E+04 E0= -.12833298E+04  d E =-.100550E+00  mag=    47.0000
       N       E                     dE             d eps       ncg     rms          ort
SDA:   1    -0.128301327938E+04    0.31650E+00    0.00000E+00 10640   0.973E+00 0.000E+00
CGA:   2    -0.128322024304E+04   -0.20696E+00   -0.20704E+00 10640   0.386E+00 0.105E-02
CGA:   3    -0.128331409830E+04   -0.93855E-01   -0.93816E-01 10640   0.901E-01-0.893E-03
CGA:   4    -0.128332885502E+04   -0.14757E-01   -0.14699E-01 10640   0.156E-01-0.447E-03
CGA:   5    -0.128333209101E+04   -0.32360E-02   -0.32206E-02 10640   0.383E-02-0.190E-03
CGA:   6    -0.128333292156E+04   -0.83055E-03   -0.81293E-03 10640   0.179E-02-0.256E-03
CGA:   7    -0.128333314012E+04   -0.21856E-03   -0.24234E-03 10640   0.417E-03 0.181E-03
CGA:   8    -0.128333328734E+04   -0.14722E-03   -0.15479E-03 10640   0.349E-03-0.117E-03
CGA:   9    -0.128333336060E+04   -0.73262E-04   -0.10187E-03 10640   0.674E-03-0.221E-03
CGA:  10    -0.128333342834E+04   -0.67736E-04   -0.77126E-04 10640   0.157E-03 0.573E-04
CGA:  11    -0.128333336994E+04    0.58399E-04   -0.15011E-03 10640   0.104E-02-0.345E-03
CGA:  12    -0.128333348900E+04   -0.11906E-03   -0.15304E-03 10640   0.275E-03 0.218E-03
CGA:  13    -0.128333357529E+04   -0.86293E-04   -0.81492E-04 10640   0.108E-03-0.932E-04
CGA:  14    -0.128333358034E+04   -0.50520E-05   -0.85794E-05 10640   0.478E-04 0.204E-04
  49 F= -.12833336E+04 E0= -.12833336E+04  d E =-.379890E-02  mag=    47.0000
       N       E                     dE             d eps       ncg     rms          ort
SDA:   1    -0.128186622422E+04    0.14674E+01    0.00000E+00 10640   0.413E+01 0.000E+00
CGA:   2    -0.128281361137E+04   -0.94739E+00   -0.94770E+00 10640   0.177E+01 0.645E-02
CGA:   3    -0.128322095932E+04   -0.40735E+00   -0.40712E+00 10640   0.395E+00-0.568E-02
CGA:   4    -0.128328342350E+04   -0.62464E-01   -0.62463E-01 10640   0.759E-01 0.560E-03
CGA:   5    -0.128329815066E+04   -0.14727E-01   -0.14586E-01 10640   0.222E-01-0.190E-02
CGA:   6    -0.128330178414E+04   -0.36335E-02   -0.36605E-02 10640   0.692E-02 0.340E-03
CGA:   7    -0.128330336397E+04   -0.15798E-02   -0.15722E-02 10640   0.190E-02-0.205E-03
CGA:   8    -0.128330386850E+04   -0.50454E-03   -0.50633E-03 10640   0.101E-02-0.106E-03
CGA:   9    -0.128330415410E+04   -0.28560E-03   -0.32058E-03 10640   0.144E-02-0.451E-03
CGA:  10    -0.128330432553E+04   -0.17142E-03   -0.14930E-03 10640   0.646E-03-0.292E-03
CGA:  11    -0.128330443522E+04   -0.10970E-03   -0.23653E-03 10640   0.233E-02-0.637E-03
CGA:  12    -0.128330467670E+04   -0.24148E-03   -0.24259E-03 10640   0.304E-03 0.126E-04
CGA:  13    -0.128330473279E+04   -0.56092E-04   -0.63100E-04 10640   0.126E-03 0.129E-03
CGA:  14    -0.128330480389E+04   -0.71102E-04   -0.12003E-03 10640   0.711E-03-0.120E-03
CGA:  15    -0.128330485665E+04   -0.52756E-04   -0.69373E-04 10640   0.835E-04 0.937E-04
CGA:  16    -0.128330486765E+04   -0.11003E-04   -0.15418E-04 10640   0.521E-04 0.414E-04
CGA:  17    -0.128330442155E+04    0.44610E-03   -0.24026E-03 10640   0.340E-02-0.399E-03
CGA:  18    -0.128330482239E+04   -0.40083E-03   -0.44045E-03 10640   0.841E-03 0.124E-03
CGA:  19    -0.128330497586E+04   -0.15348E-03   -0.18152E-03 10640   0.963E-04 0.110E-03
CGA:  20    -0.128330443035E+04    0.54551E-03   -0.15411E-03 10640   0.736E-02-0.725E-03
CGA:  21    -0.128330494663E+04   -0.51628E-03   -0.73749E-03 10640   0.317E-03 0.682E-03
CGA:  22    -0.128330498204E+04   -0.35406E-04   -0.64010E-04 10640   0.169E-03 0.972E-04
CGA:  23    -0.128330507779E+04   -0.95747E-04   -0.80488E-04 10640   0.136E-03-0.151E-03
CGA:  24    -0.128330507022E+04    0.75709E-05   -0.12921E-04 10640   0.388E-04 0.565E-04
  50 F= -.12833051E+04 E0= -.12833051E+04  d E =0.285101E-01  mag=    47.0000
       N       E                     dE             d eps       ncg     rms          ort
SDA:   1    -0.127923835859E+04    0.40667E+01    0.00000E+00 10640   0.109E+02 0.000E+00
CGA:   2    -0.128188823391E+04   -0.26499E+01   -0.26509E+01 10640   0.506E+01 0.571E-03
CGA:   3    -0.128300287859E+04   -0.11146E+01   -0.11151E+01 10640   0.109E+01 0.205E-02
CGA:   4    -0.128316682985E+04   -0.16395E+00   -0.16364E+00 10640   0.222E+00 0.818E-03
CGA:   5    -0.128320680927E+04   -0.39979E-01   -0.40047E-01 10640   0.590E-01 0.106E-02
CGA:   6    -0.128321852152E+04   -0.11712E-01   -0.11528E-01 10640   0.190E-01-0.109E-02
CGA:   7    -0.128322228642E+04   -0.37649E-02   -0.38208E-02 10640   0.508E-02 0.401E-03
CGA:   8    -0.128322358251E+04   -0.12961E-02   -0.12522E-02 10640   0.264E-02-0.353E-03
CGA:   9    -0.128322409803E+04   -0.51552E-03   -0.52900E-03 10640   0.114E-02 0.100E-03
CGA:  10    -0.128322447243E+04   -0.37441E-03   -0.36892E-03 10640   0.734E-03-0.133E-03
CGA:  11    -0.128322463885E+04   -0.16641E-03   -0.15857E-03 10640   0.455E-03-0.749E-04
CGA:  12    -0.128322473176E+04   -0.92911E-04   -0.95928E-04 10640   0.212E-03 0.269E-04
CGA:  13    -0.128322477860E+04   -0.46846E-04   -0.56500E-04 10640   0.124E-03 0.109E-03
CGA:  14    -0.128322484787E+04   -0.69264E-04   -0.73232E-04 10640   0.270E-03-0.163E-04
CGA:  15    -0.128322484610E+04    0.17684E-05   -0.27611E-04 10640   0.147E-03 0.127E-03
CGA:  16    -0.128322484185E+04    0.42498E-05   -0.22260E-04 10640   0.968E-04 0.114E-03
CGA:  17    -0.128322474436E+04    0.97492E-04   -0.11321E-03 10640   0.214E-02-0.250E-03
CGA:  18    -0.128322486761E+04   -0.12325E-03   -0.20548E-03 10640   0.186E-03 0.315E-03
CGA:  19    -0.128322488720E+04   -0.19591E-04   -0.33215E-04 10640   0.942E-04 0.692E-04
CGA:  20    -0.128322493069E+04   -0.43495E-04   -0.42581E-04 10640   0.126E-03-0.671E-04
CGA:  21    -0.128322492977E+04    0.91952E-06   -0.13096E-04 10640   0.489E-04 0.589E-04
  51 F= -.12832249E+04 E0= -.12832249E+04  d E =0.801404E-01  mag=    47.0000
       N       E                     dE             d eps       ncg     rms          ort
SDA:   1    -0.127108356535E+04    0.12141E+02    0.00000E+00 10640   0.377E+02 0.000E+00
CGA:   2    -0.127873513154E+04   -0.76516E+01   -0.76454E+01 10640   0.154E+02 0.405E-01
CGA:   3    -0.128222921649E+04   -0.34941E+01   -0.35046E+01 10640   0.498E+01 0.176E-01
CGA:   4    -0.128292748021E+04   -0.69826E+00   -0.68080E+00 10640   0.801E+00 0.112E+00
CGA:   5    -0.128308253706E+04   -0.15506E+00   -0.15518E+00 10640   0.210E+00-0.260E-02
CGA:   6    -0.128312336302E+04   -0.40826E-01   -0.40908E-01 10640   0.604E-01 0.179E-02
CGA:   7    -0.128313715376E+04   -0.13791E-01   -0.13643E-01 10640   0.211E-01-0.227E-02
CGA:   8    -0.128314074180E+04   -0.35880E-02   -0.36519E-02 10640   0.771E-02 0.705E-03
CGA:   9    -0.128314303828E+04   -0.22965E-02   -0.23009E-02 10640   0.444E-02-0.702E-03
CGA:  10    -0.128314399916E+04   -0.96088E-03   -0.95405E-03 10640   0.247E-02-0.139E-03
CGA:  11    -0.128314475773E+04   -0.75857E-03   -0.82199E-03 10640   0.246E-02-0.100E-02
CGA:  12    -0.128314505317E+04   -0.29544E-03   -0.27491E-03 10640   0.119E-02-0.215E-03
CGA:  13    -0.128314542637E+04   -0.37321E-03   -0.40148E-03 10640   0.134E-02-0.318E-03
CGA:  14    -0.128314563985E+04   -0.21348E-03   -0.20021E-03 10640   0.117E-02-0.170E-03
CGA:  15    -0.128314593688E+04   -0.29703E-03   -0.29662E-03 10640   0.968E-03 0.303E-04
CGA:  16    -0.128314619490E+04   -0.25801E-03   -0.25269E-03 10640   0.993E-03-0.216E-03
CGA:  17    -0.128314637547E+04   -0.18057E-03   -0.17903E-03 10640   0.602E-03-0.415E-04
CGA:  18    -0.128314641219E+04   -0.36723E-04   -0.67107E-04 10640   0.300E-03 0.188E-03
CGA:  19    -0.128314644671E+04   -0.34512E-04   -0.55277E-04 10640   0.217E-03 0.161E-03
CGA:  20    -0.128314646982E+04   -0.23115E-04   -0.11326E-03 10640   0.164E-02-0.347E-03
CGA:  21    -0.128314653620E+04   -0.66382E-04   -0.12979E-03 10640   0.101E-03 0.335E-03
CGA:  22    -0.128314653056E+04    0.56416E-05   -0.70246E-05 10640   0.408E-04 0.612E-04
