       N       E                     dE             d eps       ncg     rms          ort
DAV:   1     0.102678741176E+05    0.10268E+05   -0.42537E+05 10640   0.155E+03
DAV:   2    -0.120427561189E+03   -0.10388E+05   -0.98064E+04 10640   0.474E+02
DAV:   3    -0.152281527853E+04   -0.14024E+04   -0.13086E+04 10640   0.181E+02
DAV:   4    -0.160438081784E+04   -0.81566E+02   -0.79381E+02 10640   0.461E+01
DAV:   5    -0.160671447470E+04   -0.23337E+01   -0.23263E+01 10640   0.834E+00
SDA:   6    -0.726652532195E+03    0.88006E+03   -0.23263E+01 10640   0.295E+04 0.000E+00
CGA:   7    -0.111572080064E+04   -0.38907E+03   -0.38905E+03 10640   0.158E+04-0.283E+02
CGA:   8    -0.114514834851E+04   -0.29428E+02   -0.83924E+02 10640   0.138E+04-0.979E+03
CGA:   9    -0.116103462550E+04   -0.15886E+02   -0.65196E+02 10640   0.190E+04-0.142E+04
CGA:  10    -0.115720979582E+04    0.38248E+01   -0.99956E+02 10640   0.194E+04-0.138E+04
CGA:  11    -0.117631968041E+04   -0.19110E+02   -0.89821E+02 10640   0.201E+04-0.198E+04
CGA:  12    -0.118362808301E+04   -0.73084E+01   -0.96509E+02 10640   0.168E+04-0.152E+04
CGA:  13    -0.121131257602E+04   -0.27684E+02   -0.70180E+02 10640   0.107E+04-0.128E+04
CGA:  14    -0.122589531052E+04   -0.14583E+02   -0.43991E+02 10640   0.654E+03-0.690E+03
CGA:  15    -0.123875414677E+04   -0.12859E+02   -0.23925E+02 10640   0.280E+03-0.314E+03
CGA:  16    -0.125001133813E+04   -0.11257E+02   -0.76895E+01 10640   0.683E+02 0.572E+02
CGA:  17    -0.125425549025E+04   -0.42442E+01   -0.44747E+01 10640   0.130E+03-0.658E+01
CGA:  18    -0.126469029241E+04   -0.10435E+02   -0.11707E+02 10640   0.306E+03 0.824E+01
CGA:  19    -0.126644077622E+04   -0.17505E+01   -0.11654E+02 10640   0.239E+03-0.229E+03
CGA:  20    -0.127149052860E+04   -0.50498E+01   -0.65756E+01 10640   0.852E+02-0.105E+03
CGA:  21    -0.127286977370E+04   -0.13792E+01   -0.26384E+01 10640   0.615E+02-0.112E+02
CGA:  22    -0.127524969901E+04   -0.23799E+01   -0.24419E+01 10640   0.263E+02-0.151E+01
CGA:  23    -0.127632956645E+04   -0.10799E+01   -0.11893E+01 10640   0.312E+02-0.369E+01
CGA:  24    -0.127766390129E+04   -0.13343E+01   -0.17707E+01 10640   0.264E+02-0.170E+01
CGA:  25    -0.127887651448E+04   -0.12126E+01   -0.13886E+01 10640   0.103E+02-0.219E+01
CGA:  26    -0.127953645338E+04   -0.65994E+00   -0.68680E+00 10640   0.575E+01-0.335E+00
CGA:  27    -0.128024688715E+04   -0.71043E+00   -0.68887E+00 10640   0.504E+01 0.526E+00
CGA:  28    -0.128114567070E+04   -0.89878E+00   -0.87769E+00 10640   0.335E+01 0.157E+00
CGA:  29    -0.128177830843E+04   -0.63264E+00   -0.62255E+00 10640   0.275E+01 0.662E-02
CGA:  30    -0.128234246023E+04   -0.56415E+00   -0.60094E+00 10640   0.210E+01-0.384E+00
CGA:  31    -0.128268350393E+04   -0.34104E+00   -0.36470E+00 10640   0.142E+01-0.331E+00
CGA:  32    -0.128295433788E+04   -0.27083E+00   -0.38916E+00 10640   0.170E+01-0.554E+00
CGA:  33    -0.128313029170E+04   -0.17595E+00   -0.18951E+00 10640   0.484E+00-0.316E+00
CGA:  34    -0.128324742694E+04   -0.11714E+00   -0.14032E+00 10640   0.370E+00-0.984E-01
CGA:  35    -0.128331050956E+04   -0.63083E-01   -0.60960E-01 10640   0.147E+00 0.373E-01
CGA:  36    -0.128334376191E+04   -0.33252E-01   -0.30879E-01 10640   0.748E-01 0.586E-01
CGA:  37    -0.128336031688E+04   -0.16555E-01   -0.16335E-01 10640   0.437E-01 0.515E-01
CGA:  38    -0.128336687185E+04   -0.65550E-02   -0.65917E-02 10640   0.252E-01 0.279E-01
CGA:  39    -0.128336968720E+04   -0.28153E-02   -0.32972E-02 10640   0.208E-01 0.224E-01
CGA:  40    -0.128337152883E+04   -0.18416E-02   -0.24694E-02 10640   0.181E-01 0.193E-01
CGA:  41    -0.128337283919E+04   -0.13104E-02   -0.19850E-02 10640   0.160E-01 0.169E-01
CGA:  42    -0.128337379879E+04   -0.95960E-03   -0.16420E-02 10640   0.144E-01 0.151E-01
CGA:  43    -0.128337451106E+04   -0.71226E-03   -0.13832E-02 10640   0.131E-01 0.137E-01
CGA:  44    -0.128337504415E+04   -0.53310E-03   -0.11817E-02 10640   0.119E-01 0.124E-01
CGA:  45    -0.128337544462E+04   -0.40047E-03   -0.10211E-02 10640   0.110E-01 0.114E-01
CGA:  46    -0.128337574545E+04   -0.30083E-03   -0.89069E-03 10640   0.101E-01 0.105E-01
CGA:  47    -0.128337597059E+04   -0.22514E-03   -0.78331E-03 10640   0.941E-02 0.974E-02
CGA:  48    -0.128337613774E+04   -0.16716E-03   -0.69382E-03 10640   0.879E-02 0.908E-02
CGA:  49    -0.128337626021E+04   -0.12247E-03   -0.61849E-03 10640   0.823E-02 0.849E-02
CGA:  50    -0.128337634808E+04   -0.87874E-04   -0.55452E-03 10640   0.774E-02 0.797E-02
CGA:  51    -0.128337640908E+04   -0.61001E-04   -0.49976E-03 10640   0.731E-02 0.751E-02
CGA:  52    -0.128337644914E+04   -0.40061E-04   -0.45253E-03 10640   0.691E-02 0.710E-02
CGA:  53    -0.128337647286E+04   -0.23718E-04   -0.41153E-03 10640   0.656E-02 0.673E-02
CGA:  54    -0.128337648383E+04   -0.10966E-04   -0.37573E-03 10640   0.625E-02 0.640E-02
CGA:  55    -0.128337648485E+04   -0.10265E-05   -0.34428E-03 10640   0.596E-02 0.610E-02
CGA:  56    -0.128337647815E+04    0.67051E-05   -0.31651E-03 10640   0.570E-02 0.582E-02
CGA:  57    -0.128337646546E+04    0.12691E-04   -0.29187E-03 10640   0.546E-02 0.558E-02
CGA:  58    -0.128337644817E+04    0.17294E-04   -0.26991E-03 10640   0.525E-02 0.535E-02
CGA:  59    -0.128337642737E+04    0.20796E-04   -0.25025E-03 10640   0.505E-02 0.514E-02
CGA:  60    -0.128337640394E+04    0.23426E-04   -0.23259E-03 10640   0.487E-02 0.495E-02
CGA:  61    -0.128337637859E+04    0.25355E-04   -0.21666E-03 10640   0.470E-02 0.478E-02
CGA:  62    -0.128337635186E+04    0.26727E-04   -0.20224E-03 10640   0.454E-02 0.462E-02
CGA:  63    -0.128337632421E+04    0.27652E-04   -0.18915E-03 10640   0.440E-02 0.447E-02
CGA:  64    -0.128337629599E+04    0.28221E-04   -0.17723E-03 10640   0.427E-02 0.433E-02
CGA:  65    -0.128337626748E+04    0.28505E-04   -0.16635E-03 10640   0.414E-02 0.420E-02
CGA:  66    -0.128337623892E+04    0.28562E-04   -0.15638E-03 10640   0.403E-02 0.408E-02
CGA:  67    -0.128337621048E+04    0.28437E-04   -0.14723E-03 10640   0.392E-02 0.397E-02
CGA:  68    -0.128337618231E+04    0.28170E-04   -0.13880E-03 10640   0.382E-02 0.387E-02
CGA:  69    -0.128337615452E+04    0.27789E-04   -0.13104E-03 10640   0.373E-02 0.377E-02
CGA:  70    -0.128337612720E+04    0.27320E-04   -0.12386E-03 10640   0.364E-02 0.368E-02
CGA:  71    -0.128337610042E+04    0.26784E-04   -0.11722E-03 10640   0.356E-02 0.360E-02
CGA:  72    -0.128337607422E+04    0.26196E-04   -0.11105E-03 10640   0.348E-02 0.352E-02
CGA:  73    -0.128337604865E+04    0.25571E-04   -0.10532E-03 10640   0.341E-02 0.344E-02
CGA:  74    -0.128337602373E+04    0.24920E-04   -0.99987E-04 10640   0.334E-02 0.337E-02
CGA:  75    -0.128337599948E+04    0.24249E-04   -0.95012E-04 10640   0.327E-02 0.331E-02
CGA:  76    -0.128337597591E+04    0.23569E-04   -0.90365E-04 10640   0.321E-02 0.324E-02
CGA:  77    -0.128337595303E+04    0.22884E-04   -0.86019E-04 10640   0.316E-02 0.318E-02
CGA:  78    -0.128337593083E+04    0.22201E-04   -0.81948E-04 10640   0.310E-02 0.313E-02
CGA:  79    -0.128337590931E+04    0.21519E-04   -0.78130E-04 10640   0.305E-02 0.307E-02
CGA:  80    -0.128337588846E+04    0.20847E-04   -0.74545E-04 10640   0.300E-02 0.302E-02
CGA:  81    -0.128337586828E+04    0.20182E-04   -0.71173E-04 10640   0.295E-02 0.298E-02
CGA:  82    -0.128337584875E+04    0.19531E-04   -0.68000E-04 10640   0.291E-02 0.293E-02
CGA:  83    -0.128337582986E+04    0.18891E-04   -0.65009E-04 10640   0.287E-02 0.289E-02
CGA:  84    -0.128337581159E+04    0.18267E-04   -0.62187E-04 10640   0.283E-02 0.285E-02
CGA:  85    -0.128337579393E+04    0.17657E-04   -0.59522E-04 10640   0.279E-02 0.281E-02
CGA:  86    -0.128337577687E+04    0.17065E-04   -0.57003E-04 10640   0.275E-02 0.277E-02
CGA:  87    -0.128337576038E+04    0.16488E-04   -0.54619E-04 10640   0.272E-02 0.274E-02
CGA:  88    -0.128337574445E+04    0.15928E-04   -0.52362E-04 10640   0.269E-02 0.270E-02
CGA:  89    -0.128337572907E+04    0.15384E-04   -0.50222E-04 10640   0.266E-02 0.267E-02
CGA:  90    -0.128337571421E+04    0.14857E-04   -0.48192E-04 10640   0.263E-02 0.264E-02
CGA:  91    -0.128337569987E+04    0.14347E-04   -0.46265E-04 10640   0.260E-02 0.261E-02
CGA:  92    -0.128337568601E+04    0.13852E-04   -0.44434E-04 10640   0.257E-02 0.258E-02
CGA:  93    -0.128337567264E+04    0.13374E-04   -0.42692E-04 10640   0.254E-02 0.256E-02
CGA:  94    -0.128337565973E+04    0.12913E-04   -0.41035E-04 10640   0.252E-02 0.253E-02
CGA:  95    -0.128337564726E+04    0.12466E-04   -0.39458E-04 10640   0.250E-02 0.251E-02
CGA:  96    -0.128337563522E+04    0.12036E-04   -0.37954E-04 10640   0.247E-02 0.248E-02
CGA:  97    -0.128337562361E+04    0.11620E-04   -0.36521E-04 10640   0.245E-02 0.246E-02
CGA:  98    -0.128337561239E+04    0.11218E-04   -0.35153E-04 10640   0.243E-02 0.244E-02
CGA:  99    -0.128337560156E+04    0.10831E-04   -0.33848E-04 10640   0.241E-02 0.242E-02
CGA: 100    -0.128337559110E+04    0.10456E-04   -0.32601E-04 10640   0.239E-02 0.240E-02
CGA: 101    -0.128337558100E+04    0.10096E-04   -0.31409E-04 10640   0.237E-02 0.238E-02
CGA: 102    -0.128337557126E+04    0.97481E-05   -0.30270E-04 10640   0.235E-02 0.236E-02
CGA: 103    -0.128337556184E+04    0.94128E-05   -0.29180E-04 10640   0.234E-02 0.234E-02
CGA: 104    -0.128337555275E+04    0.90899E-05   -0.28136E-04 10640   0.232E-02 0.233E-02
CGA: 105    -0.128337554397E+04    0.87783E-05   -0.27137E-04 10640   0.230E-02 0.231E-02
CGA: 106    -0.128337553550E+04    0.84772E-05   -0.26180E-04 10640   0.229E-02 0.230E-02
CGA: 107    -0.128337552731E+04    0.81878E-05   -0.25262E-04 10640   0.227E-02 0.228E-02
CGA: 108    -0.128337551940E+04    0.79092E-05   -0.24382E-04 10640   0.226E-02 0.227E-02
CGA: 109    -0.128337551176E+04    0.76403E-05   -0.23538E-04 10640   0.225E-02 0.225E-02
CGA: 110    -0.128337550438E+04    0.73813E-05   -0.22728E-04 10640   0.223E-02 0.224E-02
CGA: 111    -0.128337549725E+04    0.71318E-05   -0.21950E-04 10640   0.222E-02 0.223E-02
CGA: 112    -0.128337549036E+04    0.68906E-05   -0.21204E-04 10640   0.221E-02 0.221E-02
CGA: 113    -0.128337548370E+04    0.66587E-05   -0.20486E-04 10640   0.220E-02 0.220E-02
CGA: 114    -0.128337547726E+04    0.64363E-05   -0.19796E-04 10640   0.218E-02 0.219E-02
CGA: 115    -0.128337547104E+04    0.62201E-05   -0.19133E-04 10640   0.217E-02 0.218E-02
CGA: 116    -0.128337546503E+04    0.60126E-05   -0.18495E-04 10640   0.216E-02 0.217E-02
CGA: 117    -0.128337545922E+04    0.58117E-05   -0.17881E-04 10640   0.215E-02 0.216E-02
CGA: 118    -0.128337545360E+04    0.56198E-05   -0.17290E-04 10640   0.214E-02 0.215E-02
CGA: 119    -0.128337544816E+04    0.54339E-05   -0.16722E-04 10640   0.213E-02 0.214E-02
CGA: 120    -0.128337544291E+04    0.52537E-05   -0.16174E-04 10640   0.212E-02 0.213E-02
CGA: 121    -0.128337543783E+04    0.50815E-05   -0.15647E-04 10640   0.212E-02 0.212E-02
CGA: 122    -0.128337543291E+04    0.49140E-05   -0.15139E-04 10640   0.211E-02 0.211E-02
CGA: 123    -0.128337542816E+04    0.47534E-05   -0.14649E-04 10640   0.210E-02 0.210E-02
CGA: 124    -0.128337542356E+04    0.45979E-05   -0.14177E-04 10640   0.209E-02 0.209E-02
CGA: 125    -0.128337541911E+04    0.44486E-05   -0.13722E-04 10640   0.208E-02 0.209E-02
CGA: 126    -0.128337541481E+04    0.43043E-05   -0.13283E-04 10640   0.208E-02 0.208E-02
CGA: 127    -0.128337541065E+04    0.41648E-05   -0.12860E-04 10640   0.207E-02 0.207E-02
CGA: 128    -0.128337540661E+04    0.40305E-05   -0.12451E-04 10640   0.206E-02 0.206E-02
CGA: 129    -0.128337540271E+04    0.39006E-05   -0.12057E-04 10640   0.205E-02 0.206E-02
CGA: 130    -0.128337539894E+04    0.37745E-05   -0.11677E-04 10640   0.205E-02 0.205E-02
CGA: 131    -0.128337539529E+04    0.36547E-05   -0.11309E-04 10640   0.204E-02 0.205E-02
CGA: 132    -0.128337539175E+04    0.35368E-05   -0.10954E-04 10640   0.204E-02 0.204E-02
CGA: 133    -0.128337538832E+04    0.34253E-05   -0.10612E-04 10640   0.203E-02 0.203E-02
CGA: 134    -0.128337538501E+04    0.33153E-05   -0.10281E-04 10640   0.202E-02 0.203E-02
   1 F= -.12833754E+04 E0= -.12833754E+04  d E =-.128338E+04  mag=    47.0000
       N       E                     dE             d eps       ncg     rms          ort
SDA:   1    -0.128336755097E+04    0.78374E-02    0.00000E+00 10640   0.198E-01 0.000E+00
CGA:   2    -0.128336992671E+04   -0.23757E-02   -0.31670E-02 10640   0.117E-01 0.147E-01
CGA:   3    -0.128337176482E+04   -0.18381E-02   -0.11432E-02 10640   0.723E-02 0.894E-02
CGA:   4    -0.128337268384E+04   -0.91902E-03   -0.57763E-03 10640   0.530E-02 0.612E-02
CGA:   5    -0.128337326382E+04   -0.57998E-03   -0.37605E-03 10640   0.411E-02 0.463E-02
CGA:   6    -0.128337365511E+04   -0.39130E-03   -0.26324E-03 10640   0.332E-02 0.367E-02
CGA:   7    -0.128337393200E+04   -0.27688E-03   -0.19396E-03 10640   0.277E-02 0.301E-02
CGA:   8    -0.128337413560E+04   -0.20360E-03   -0.14883E-03 10640   0.236E-02 0.255E-02
CGA:   9    -0.128337429027E+04   -0.15467E-03   -0.11812E-03 10640   0.206E-02 0.220E-02
CGA:  10    -0.128337441113E+04   -0.12086E-03   -0.96440E-04 10640   0.183E-02 0.194E-02
CGA:  11    -0.128337450795E+04   -0.96824E-04   -0.80676E-04 10640   0.164E-02 0.173E-02
CGA:  12    -0.128337458726E+04   -0.79314E-04   -0.68913E-04 10640   0.150E-02 0.157E-02
CGA:  13    -0.128337465355E+04   -0.66286E-04   -0.59939E-04 10640   0.138E-02 0.143E-02
CGA:  14    -0.128337470996E+04   -0.56416E-04   -0.52961E-04 10640   0.128E-02 0.133E-02
CGA:  15    -0.128337475878E+04   -0.48819E-04   -0.47444E-04 10640   0.120E-02 0.124E-02
CGA:  16    -0.128337480168E+04   -0.42893E-04   -0.43018E-04 10640   0.113E-02 0.116E-02
CGA:  17    -0.128337483989E+04   -0.38216E-04   -0.39421E-04 10640   0.107E-02 0.110E-02
CGA:  18    -0.128337487438E+04   -0.34486E-04   -0.36464E-04 10640   0.102E-02 0.105E-02
CGA:  19    -0.128337490587E+04   -0.31487E-04   -0.34010E-04 10640   0.977E-03 0.999E-03
CGA:  20    -0.128337493493E+04   -0.29060E-04   -0.31957E-04 10640   0.940E-03 0.958E-03
CGA:  21    -0.128337496201E+04   -0.27083E-04   -0.30222E-04 10640   0.906E-03 0.923E-03
CGA:  22    -0.128337498747E+04   -0.25466E-04   -0.28749E-04 10640   0.877E-03 0.892E-03
CGA:  23    -0.128337501162E+04   -0.24142E-04   -0.27490E-04 10640   0.851E-03 0.864E-03
CGA:  24    -0.128337503467E+04   -0.23053E-04   -0.26409E-04 10640   0.828E-03 0.840E-03
CGA:  25    -0.128337505683E+04   -0.22160E-04   -0.25476E-04 10640   0.807E-03 0.818E-03
CGA:  26    -0.128337507826E+04   -0.21428E-04   -0.24669E-04 10640   0.788E-03 0.798E-03
CGA:  27    -0.128337509909E+04   -0.20833E-04   -0.23968E-04 10640   0.771E-03 0.780E-03
CGA:  28    -0.128337511944E+04   -0.20353E-04   -0.23359E-04 10640   0.756E-03 0.764E-03
CGA:  29    -0.128337513941E+04   -0.19968E-04   -0.22828E-04 10640   0.742E-03 0.749E-03
CGA:  30    -0.128337515908E+04   -0.19667E-04   -0.22366E-04 10640   0.728E-03 0.735E-03
CGA:  31    -0.128337517852E+04   -0.19439E-04   -0.21964E-04 10640   0.716E-03 0.723E-03
CGA:  32    -0.128337519779E+04   -0.19273E-04   -0.21615E-04 10640   0.705E-03 0.711E-03
CGA:  33    -0.128337521695E+04   -0.19160E-04   -0.21312E-04 10640   0.694E-03 0.700E-03
CGA:  34    -0.128337523605E+04   -0.19099E-04   -0.21054E-04 10640   0.685E-03 0.690E-03
CGA:  35    -0.128337525513E+04   -0.19079E-04   -0.20831E-04 10640   0.675E-03 0.680E-03
CGA:  36    -0.128337527423E+04   -0.19101E-04   -0.20645E-04 10640   0.666E-03 0.671E-03
CGA:  37    -0.128337529339E+04   -0.19157E-04   -0.20490E-04 10640   0.658E-03 0.662E-03
CGA:  38    -0.128337531264E+04   -0.19248E-04   -0.20365E-04 10640   0.650E-03 0.654E-03
CGA:  39    -0.128337533200E+04   -0.19368E-04   -0.20267E-04 10640   0.642E-03 0.646E-03
CGA:  40    -0.128337535152E+04   -0.19520E-04   -0.20196E-04 10640   0.635E-03 0.639E-03
CGA:  41    -0.128337537122E+04   -0.19697E-04   -0.20148E-04 10640   0.628E-03 0.631E-03
CGA:  42    -0.128337539112E+04   -0.19904E-04   -0.20125E-04 10640   0.621E-03 0.624E-03
CGA:  43    -0.128337541126E+04   -0.20135E-04   -0.20123E-04 10640   0.614E-03 0.617E-03
CGA:  44    -0.128337543165E+04   -0.20394E-04   -0.20144E-04 10640   0.607E-03 0.611E-03
CGA:  45    -0.128337545233E+04   -0.20681E-04   -0.20189E-04 10640   0.601E-03 0.604E-03
CGA:  46    -0.128337547333E+04   -0.20992E-04   -0.20253E-04 10640   0.595E-03 0.598E-03
CGA:  47    -0.128337549466E+04   -0.21329E-04   -0.20339E-04 10640   0.589E-03 0.592E-03
CGA:  48    -0.128337551635E+04   -0.21696E-04   -0.20447E-04 10640   0.582E-03 0.586E-03
CGA:  49    -0.128337553844E+04   -0.22092E-04   -0.20577E-04 10640   0.576E-03 0.580E-03
CGA:  50    -0.128337556096E+04   -0.22519E-04   -0.20731E-04 10640   0.570E-03 0.574E-03
CGA:  51    -0.128337558394E+04   -0.22979E-04   -0.20909E-04 10640   0.565E-03 0.568E-03
CGA:  52    -0.128337560741E+04   -0.23473E-04   -0.21110E-04 10640   0.559E-03 0.562E-03
CGA:  53    -0.128337563142E+04   -0.24002E-04   -0.21337E-04 10640   0.553E-03 0.556E-03
CGA:  54    -0.128337565599E+04   -0.24572E-04   -0.21591E-04 10640   0.547E-03 0.550E-03
CGA:  55    -0.128337568117E+04   -0.25185E-04   -0.21875E-04 10640   0.541E-03 0.544E-03
CGA:  56    -0.128337570702E+04   -0.25845E-04   -0.22189E-04 10640   0.535E-03 0.538E-03
CGA:  57    -0.128337573357E+04   -0.26556E-04   -0.22536E-04 10640   0.529E-03 0.532E-03
CGA:  58    -0.128337576090E+04   -0.27321E-04   -0.22919E-04 10640   0.524E-03 0.527E-03
CGA:  59    -0.128337578905E+04   -0.28151E-04   -0.23341E-04 10640   0.518E-03 0.521E-03
CGA:  60    -0.128337581809E+04   -0.29046E-04   -0.23804E-04 10640   0.512E-03 0.515E-03
CGA:  61    -0.128337584811E+04   -0.30020E-04   -0.24315E-04 10640   0.505E-03 0.509E-03
CGA:  62    -0.128337587920E+04   -0.31083E-04   -0.24880E-04 10640   0.499E-03 0.502E-03
CGA:  63    -0.128337591144E+04   -0.32239E-04   -0.25501E-04 10640   0.493E-03 0.496E-03
CGA:  64    -0.128337594494E+04   -0.33507E-04   -0.26187E-04 10640   0.487E-03 0.490E-03
CGA:  65    -0.128337597984E+04   -0.34900E-04   -0.26946E-04 10640   0.480E-03 0.483E-03
CGA:  66    -0.128337601628E+04   -0.36438E-04   -0.27790E-04 10640   0.474E-03 0.477E-03
CGA:  67    -0.128337605442E+04   -0.38143E-04   -0.28729E-04 10640   0.467E-03 0.470E-03
CGA:  68    -0.128337609447E+04   -0.40045E-04   -0.29780E-04 10640   0.460E-03 0.463E-03
CGA:  69    -0.128337613664E+04   -0.42175E-04   -0.30960E-04 10640   0.453E-03 0.456E-03
CGA:  70    -0.128337618121E+04   -0.44570E-04   -0.32288E-04 10640   0.445E-03 0.449E-03
CGA:  71    -0.128337622851E+04   -0.47296E-04   -0.33799E-04 10640   0.437E-03 0.441E-03
CGA:  72    -0.128337627893E+04   -0.50417E-04   -0.35528E-04 10640   0.429E-03 0.433E-03
CGA:  73    -0.128337633295E+04   -0.54024E-04   -0.37524E-04 10640   0.421E-03 0.425E-03
CGA:  74    -0.128337639120E+04   -0.58246E-04   -0.39853E-04 10640   0.412E-03 0.417E-03
CGA:  75    -0.128337645445E+04   -0.63250E-04   -0.42607E-04 10640   0.403E-03 0.407E-03
CGA:  76    -0.128337652373E+04   -0.69279E-04   -0.45910E-04 10640   0.393E-03 0.398E-03
CGA:  77    -0.128337660041E+04   -0.76687E-04   -0.49950E-04 10640   0.382E-03 0.387E-03
CGA:  78    -0.128337668643E+04   -0.86017E-04   -0.55012E-04 10640   0.370E-03 0.376E-03
CGA:  79    -0.128337678461E+04   -0.98181E-04   -0.61574E-04 10640   0.357E-03 0.363E-03
CGA:  80    -0.128337689936E+04   -0.11475E-03   -0.70459E-04 10640   0.342E-03 0.349E-03
CGA:  81    -0.128337703822E+04   -0.13886E-03   -0.83310E-04 10640   0.324E-03 0.333E-03
CGA:  82    -0.128337721596E+04   -0.17774E-03   -0.10394E-03 10640   0.303E-03 0.313E-03
CGA:  83    -0.128337746955E+04   -0.25359E-03   -0.14419E-03 10640   0.273E-03 0.288E-03
CGA:  84    -0.128337784564E+04   -0.37608E-03   -0.22371E-02 10640   0.232E-03 0.252E-03
CGA:  85    -0.128337794436E+04   -0.98722E-04    0.67607E-02 10640   0.222E-03 0.227E-03
CGA:  86    -0.128337804020E+04   -0.95845E-04    0.12921E-02 10640   0.213E-03 0.217E-03
CGA:  87    -0.128337813301E+04   -0.92806E-04    0.74496E-03 10640   0.203E-03 0.208E-03
CGA:  88    -0.128337822295E+04   -0.89944E-04    0.49782E-03 10640   0.195E-03 0.199E-03
CGA:  89    -0.128337830991E+04   -0.86962E-04    0.38207E-03 10640   0.186E-03 0.190E-03
CGA:  90    -0.128337839410E+04   -0.84182E-04    0.29874E-03 10640   0.178E-03 0.182E-03
CGA:  91    -0.128337847537E+04   -0.81271E-04    0.25061E-03 10640   0.171E-03 0.174E-03
CGA:  92    -0.128337855399E+04   -0.78620E-04    0.20789E-03 10640   0.163E-03 0.167E-03
CGA:  93    -0.128337862976E+04   -0.75776E-04    0.18281E-03 10640   0.156E-03 0.160E-03
CGA:  94    -0.128337870306E+04   -0.73295E-04    0.15578E-03 10640   0.150E-03 0.153E-03
CGA:  95    -0.128337877356E+04   -0.70498E-04    0.14172E-03 10640   0.143E-03 0.146E-03
CGA:  96    -0.128337884180E+04   -0.68247E-04    0.12172E-03 10640   0.137E-03 0.140E-03
CGA:  97    -0.128337890724E+04   -0.65433E-04    0.11466E-03 10640   0.131E-03 0.134E-03
CGA:  98    -0.128337897076E+04   -0.63522E-04    0.97350E-04 10640   0.126E-03 0.128E-03
CGA:  99    -0.128337903131E+04   -0.60549E-04    0.96337E-04 10640   0.120E-03 0.123E-03
CGA: 100    -0.128337909049E+04   -0.59180E-04    0.78558E-04 10640   0.115E-03 0.117E-03
CGA: 101    -0.128337914626E+04   -0.55776E-04    0.84594E-04 10640   0.110E-03 0.112E-03
CGA: 102    -0.128337920157E+04   -0.55309E-04    0.63159E-04 10640   0.106E-03 0.108E-03
CGA: 103    -0.128337925256E+04   -0.50984E-04    0.79909E-04 10640   0.101E-03 0.103E-03
CGA: 104    -0.128337930459E+04   -0.52034E-04    0.50388E-04 10640   0.973E-04 0.980E-04
CGA: 105    -0.128337935052E+04   -0.45931E-04    0.90895E-04 10640   0.940E-04 0.932E-04
CGA: 106    -0.128337940011E+04   -0.49591E-04    0.40783E-04 10640   0.917E-04 0.880E-04
CGA: 107    -0.128337944018E+04   -0.40070E-04    0.31239E-03 10640   0.910E-04 0.819E-04
CGA: 108    -0.128337948859E+04   -0.48407E-04    0.37729E-04 10640   0.931E-04 0.740E-04
CGA: 109    -0.128337954643E+04   -0.57837E-04   -0.54080E-04 10640   0.436E-03 0.989E-05
CGA: 110    -0.128337980318E+04   -0.25675E-03    0.36052E-03 10640   0.194E-03 0.402E-03
CGA: 111    -0.128337984723E+04   -0.44052E-04   -0.42081E-04 10640   0.332E-03-0.146E-03
CGA: 112    -0.128337986752E+04   -0.20295E-04   -0.28753E-04 10640   0.504E-04 0.601E-04
CGA: 113    -0.128337989486E+04   -0.27334E-04   -0.25038E-04 10640   0.241E-03 0.112E-04
CGA: 114    -0.128338005666E+04   -0.16180E-03    0.18673E-03 10640   0.302E-03 0.242E-03
CGA: 115    -0.128338011161E+04   -0.54952E-04   -0.43753E-04 10640   0.129E-03-0.127E-03
CGA: 116    -0.128338015159E+04   -0.39974E-04   -0.34529E-04 10640   0.645E-04 0.230E-04
CGA: 117    -0.128338019046E+04   -0.38869E-04    0.13909E-03 10640   0.505E-04 0.275E-04
CGA: 118    -0.128338022735E+04   -0.36892E-04    0.12624E-03 10640   0.271E-04 0.551E-04
CGA: 119    -0.128338024186E+04   -0.14507E-04    0.27704E-04 10640   0.222E-04 0.213E-04
CGA: 120    -0.128338025393E+04   -0.12070E-04    0.19988E-04 10640   0.212E-04 0.209E-04
CGA: 121    -0.128338026731E+04   -0.13380E-04    0.80431E-05 10640   0.205E-04 0.199E-04
CGA: 122    -0.128338027850E+04   -0.11191E-04    0.17774E-04 10640   0.201E-04 0.188E-04
CGA: 123    -0.128338029058E+04   -0.12085E-04    0.95688E-05 10640   0.204E-04 0.172E-04
CGA: 124    -0.128338030057E+04   -0.99898E-05    0.11503E-03 10640   0.222E-04 0.148E-04
CGA: 125    -0.128338031154E+04   -0.10965E-04    0.85676E-04 10640   0.275E-04 0.101E-04
CGA: 126    -0.128338033439E+04   -0.22859E-04    0.25817E-04 10640   0.185E-04 0.372E-04
CGA: 127    -0.128338031992E+04    0.14477E-04   -0.10505E-04 10640   0.728E-03-0.346E-04
CGA: 128    -0.128338039255E+04   -0.72634E-04   -0.71927E-04 10640   0.147E-04-0.195E-05
CGA: 129    -0.128338040076E+04   -0.82041E-05   -0.10668E-04 10640   0.123E-03-0.796E-05
CGA: 130    -0.128338041765E+04   -0.16895E-04   -0.14437E-04 10640   0.144E-04-0.722E-05
CGA: 131    -0.128338041791E+04   -0.26014E-06   -0.24671E-05 10640   0.112E-04 0.928E-05
   2 F= -.12833804E+04 E0= -.12833804E+04  d E =-.503290E-02  mag=    47.0000
       N       E                     dE             d eps       ncg     rms          ort
SDA:   1    -0.128224059062E+04    0.11398E+01    0.00000E+00 10640   0.297E+01 0.000E+00
CGA:   2    -0.128302955548E+04   -0.78896E+00   -0.78886E+00 10640   0.142E+01-0.972E-03
CGA:   3    -0.128333673584E+04   -0.30718E+00   -0.30737E+00 10640   0.218E+00 0.441E-03
CGA:   4    -0.128337401430E+04   -0.37278E-01   -0.37316E-01 10640   0.446E-01 0.194E-03
CGA:   5    -0.128338319879E+04   -0.91845E-02   -0.91667E-02 10640   0.107E-01-0.933E-04
CGA:   6    -0.128338536935E+04   -0.21706E-02   -0.21994E-02 10640   0.374E-02 0.184E-03
CGA:   7    -0.128338616863E+04   -0.79928E-03   -0.74730E-03 10640   0.131E-02-0.307E-03
CGA:   8    -0.128338638664E+04   -0.21802E-03   -0.23505E-03 10640   0.433E-03 0.109E-03
CGA:   9    -0.128338654489E+04   -0.15824E-03   -0.15725E-03 10640   0.346E-03-0.852E-04
CGA:  10    -0.128338658858E+04   -0.43696E-04   -0.45309E-04 10640   0.138E-03 0.935E-05
CGA:  11    -0.128338662083E+04   -0.32251E-04   -0.32838E-04 10640   0.515E-04 0.553E-05
CGA:  12    -0.128338663880E+04   -0.17963E-04   -0.20630E-04 10640   0.159E-03-0.502E-04
CGA:  13    -0.128338664254E+04   -0.37406E-05   -0.12785E-04 10640   0.209E-04 0.361E-04
   3 F= -.12833866E+04 E0= -.12833866E+04  d E =-.622463E-02  mag=    47.0000
       N       E                     dE             d eps       ncg     rms          ort
SDA:   1    -0.127049991171E+04    0.12887E+02    0.00000E+00 10640   0.333E+02 0.000E+00
CGA:   2    -0.127938545905E+04   -0.88855E+01   -0.88853E+01 10640   0.159E+02-0.776E-02
CGA:   3    -0.128283026755E+04   -0.34448E+01   -0.34456E+01 10640   0.240E+01-0.720E-03
CGA:   4    -0.128324472467E+04   -0.41446E+00   -0.41466E+00 10640   0.493E+00 0.157E-02
CGA:   5    -0.128334602443E+04   -0.10130E+00   -0.10131E+00 10640   0.119E+00 0.143E-03
CGA:   6    -0.128337071949E+04   -0.24695E-01   -0.24652E-01 10640   0.469E-01-0.307E-03
CGA:   7    -0.128337913418E+04   -0.84147E-02   -0.81678E-02 10640   0.147E-01-0.216E-02
CGA:   8    -0.128338238787E+04   -0.32537E-02   -0.32387E-02 10640   0.565E-02-0.260E-03
CGA:   9    -0.128338411558E+04   -0.17277E-02   -0.17796E-02 10640   0.470E-02-0.129E-02
CGA:  10    -0.128338478776E+04   -0.67218E-03   -0.63100E-03 10640   0.158E-02-0.366E-03
CGA:  11    -0.128338526151E+04   -0.47376E-03   -0.52395E-03 10640   0.850E-03-0.611E-03
CGA:  12    -0.128338484495E+04    0.41657E-03   -0.43564E-03 10640   0.661E-02-0.154E-02
CGA:  13    -0.128338545522E+04   -0.61027E-03   -0.74389E-03 10640   0.820E-03 0.720E-03
CGA:  14    -0.128338569103E+04   -0.23582E-03   -0.23877E-03 10640   0.357E-03 0.811E-04
CGA:  15    -0.128338578583E+04   -0.94795E-04   -0.90769E-04 10640   0.258E-03-0.605E-04
CGA:  16    -0.128338579624E+04   -0.10412E-04   -0.27439E-04 10640   0.124E-03 0.103E-03
CGA:  17    -0.128338579423E+04    0.20065E-05   -0.14721E-04 10640   0.566E-04 0.835E-04
CGA:  18    -0.128338581211E+04   -0.17873E-04   -0.17202E-04 10640   0.309E-04 0.237E-04
CGA:  19    -0.128338581699E+04   -0.48830E-05   -0.76028E-05 10640   0.185E-04 0.262E-04
   4 F= -.12833858E+04 E0= -.12833858E+04  d E =0.825547E-03  mag=    47.0000
       N       E                     dE             d eps       ncg     rms          ort
SDA:   1    -0.123662566249E+04    0.46760E+02    0.00000E+00 10640   0.122E+03 0.000E+00
CGA:   2    -0.126874290278E+04   -0.32117E+02   -0.32117E+02 10640   0.579E+02-0.182E-01
CGA:   3    -0.128130145868E+04   -0.12559E+02   -0.12561E+02 10640   0.907E+01 0.491E-02
CGA:   4    -0.128283795857E+04   -0.15365E+01   -0.15374E+01 10640   0.191E+01-0.499E-03
CGA:   5    -0.128321829119E+04   -0.38033E+00   -0.38061E+00 10640   0.492E+00 0.698E-02
CGA:   6    -0.128331826902E+04   -0.99978E-01   -0.99563E-01 10640   0.184E+00-0.706E-02
CGA:   7    -0.128335350629E+04   -0.35237E-01   -0.34926E-01 10640   0.516E-01-0.488E-02
CGA:   8    -0.128336675409E+04   -0.13248E-01   -0.13296E-01 10640   0.259E-01-0.393E-02
CGA:   9    -0.128337294485E+04   -0.61908E-02   -0.62229E-02 10640   0.179E-01-0.447E-02
CGA:  10    -0.128337619241E+04   -0.32476E-02   -0.31278E-02 10640   0.650E-02-0.275E-02
CGA:  11    -0.128337777380E+04   -0.15814E-02   -0.20613E-02 10640   0.721E-02-0.389E-02
CGA:  12    -0.128337851430E+04   -0.74050E-03   -0.79191E-03 10640   0.127E-02 0.370E-03
CGA:  13    -0.128337896023E+04   -0.44593E-03   -0.48312E-03 10640   0.779E-03-0.337E-03
CGA:  14    -0.128337914044E+04   -0.18020E-03   -0.24753E-03 10640   0.131E-02-0.382E-03
CGA:  15    -0.128337924853E+04   -0.10809E-03   -0.25669E-03 10640   0.192E-02-0.125E-02
CGA:  16    -0.128337955024E+04   -0.30171E-03   -0.31176E-03 10640   0.749E-03 0.979E-04
CGA:  17    -0.128337973953E+04   -0.18929E-03   -0.18907E-03 10640   0.262E-03-0.848E-05
CGA:  18    -0.128337976069E+04   -0.21159E-04   -0.21549E-03 10640   0.142E-02-0.341E-03
CGA:  19    -0.128337991753E+04   -0.15684E-03   -0.15611E-03 10640   0.204E-03-0.110E-08
CGA:  20    -0.128337996190E+04   -0.44376E-04   -0.47590E-04 10640   0.806E-04 0.649E-04
CGA:  21    -0.128337922877E+04    0.73314E-03   -0.39514E-03 10640   0.597E-02-0.602E-03
CGA:  22    -0.128337983891E+04   -0.61014E-03   -0.70334E-03 10640   0.583E-03 0.264E-03
CGA:  23    -0.128338010688E+04   -0.26797E-03   -0.26528E-03 10640   0.237E-03-0.472E-04
CGA:  24    -0.128338015964E+04   -0.52764E-04   -0.38354E-04 10640   0.715E-04-0.456E-04
CGA:  25    -0.128338016881E+04   -0.91705E-05   -0.12743E-04 10640   0.307E-04 0.142E-04
CGA:  26    -0.128338018514E+04   -0.16328E-04   -0.15514E-04 10640   0.715E-04-0.207E-04
CGA:  27    -0.128338020291E+04   -0.17775E-04   -0.12976E-04 10640   0.264E-04-0.171E-04
CGA:  28    -0.128338021009E+04   -0.71723E-05   -0.15550E-04 10640   0.172E-03-0.255E-04
CGA:  29    -0.128338022585E+04   -0.15760E-04   -0.17573E-04 10640   0.174E-04 0.554E-05
CGA:  30    -0.128338024589E+04   -0.20041E-04    0.15422E-04 10640   0.236E-04-0.451E-05
CGA:  31    -0.128338024668E+04   -0.79706E-06   -0.25147E-05 10640   0.137E-04 0.573E-05
   5 F= -.12833802E+04 E0= -.12833802E+04  d E =0.557031E-02  mag=    47.0000
       N       E                     dE             d eps       ncg     rms          ort
SDA:   1    -0.127417088359E+04    0.92094E+01    0.00000E+00 10640   0.270E+02 0.000E+00
CGA:   2    -0.128003835780E+04   -0.58675E+01   -0.58697E+01 10640   0.117E+02 0.128E-01
CGA:   3    -0.128280933750E+04   -0.27710E+01   -0.27723E+01 10640   0.276E+01-0.159E-02
CGA:   4    -0.128322072166E+04   -0.41138E+00   -0.41116E+00 10640   0.469E+00 0.174E-01
CGA:   5    -0.128331251156E+04   -0.91790E-01   -0.91530E-01 10640   0.137E+00-0.230E-02
CGA:   6    -0.128333721558E+04   -0.24704E-01   -0.24892E-01 10640   0.417E-01 0.155E-02
CGA:   7    -0.128334642489E+04   -0.92093E-02   -0.89929E-02 10640   0.124E-01-0.141E-02
CGA:   8    -0.128334883314E+04   -0.24083E-02   -0.24090E-02 10640   0.531E-02 0.381E-04
CGA:   9    -0.128335018277E+04   -0.13496E-02   -0.13055E-02 10640   0.278E-02-0.413E-03
CGA:  10    -0.128335082359E+04   -0.64082E-03   -0.62637E-03 10640   0.131E-02-0.138E-03
CGA:  11    -0.128335121839E+04   -0.39480E-03   -0.38362E-03 10640   0.971E-03-0.340E-03
CGA:  12    -0.128335139505E+04   -0.17665E-03   -0.15897E-03 10640   0.478E-03-0.150E-03
CGA:  13    -0.128335155948E+04   -0.16444E-03   -0.18614E-03 10640   0.583E-03-0.171E-03
CGA:  14    -0.128335164415E+04   -0.84670E-04   -0.84056E-04 10640   0.426E-03-0.650E-05
CGA:  15    -0.128335182708E+04   -0.18293E-03   -0.19604E-03 10640   0.443E-03-0.102E-03
CGA:  16    -0.128335187369E+04   -0.46613E-04   -0.64103E-04 10640   0.275E-03 0.115E-03
CGA:  17    -0.128335194830E+04   -0.74611E-04   -0.81076E-04 10640   0.124E-03 0.643E-04
CGA:  18    -0.128335200394E+04   -0.55636E-04   -0.59804E-04 10640   0.267E-03-0.686E-04
CGA:  19    -0.128335200299E+04    0.94901E-06   -0.22525E-04 10640   0.604E-04 0.960E-04
   6 F= -.12833520E+04 E0= -.12833520E+04  d E =0.282437E-01  mag=    47.0000
       N       E                     dE             d eps       ncg     rms          ort
SDA:   1    -0.127185510740E+04    0.11497E+02    0.00000E+00 10640   0.360E+02 0.000E+00
CGA:   2    -0.127904074162E+04   -0.71856E+01   -0.71794E+01 10640   0.141E+02 0.306E-01
CGA:   3    -0.128255255274E+04   -0.35118E+01   -0.35134E+01 10640   0.381E+01 0.921E-02
CGA:   4    -0.128313247210E+04   -0.57992E+00   -0.57982E+00 10640   0.575E+00 0.867E-02
CGA:   5    -0.128324417779E+04   -0.11171E+00   -0.11196E+00 10640   0.169E+00 0.332E-02
CGA:   6    -0.128327623904E+04   -0.32061E-01   -0.31832E-01 10640   0.573E-01-0.251E-02
CGA:   7    -0.128328710028E+04   -0.10861E-01   -0.10906E-01 10640   0.138E-01 0.641E-03
CGA:   8    -0.128329061931E+04   -0.35190E-02   -0.34906E-02 10640   0.691E-02-0.998E-03
CGA:   9    -0.128329202325E+04   -0.14039E-02   -0.13888E-02 10640   0.336E-02-0.238E-03
CGA:  10    -0.128329289478E+04   -0.87153E-03   -0.86994E-03 10640   0.158E-02-0.306E-03
CGA:  11    -0.128329334446E+04   -0.44968E-03   -0.47346E-03 10640   0.127E-02-0.423E-03
CGA:  12    -0.128329358145E+04   -0.23699E-03   -0.22540E-03 10640   0.810E-03-0.335E-03
CGA:  13    -0.128329378456E+04   -0.20311E-03   -0.25287E-03 10640   0.903E-03-0.333E-03
CGA:  14    -0.128329392426E+04   -0.13970E-03   -0.22293E-03 10640   0.188E-02-0.604E-03
CGA:  15    -0.128329408443E+04   -0.16017E-03   -0.20401E-03 10640   0.420E-03 0.250E-03
CGA:  16    -0.128329419491E+04   -0.11048E-03   -0.11539E-03 10640   0.193E-03 0.133E-03
CGA:  17    -0.128329425649E+04   -0.61582E-04   -0.60490E-04 10640   0.232E-03-0.277E-04
CGA:  18    -0.128329426623E+04   -0.97395E-05   -0.23618E-04 10640   0.150E-03 0.886E-04
CGA:  19    -0.128329426459E+04    0.16393E-05   -0.15818E-04 10640   0.672E-04 0.914E-04
CGA:  20    -0.128329427875E+04   -0.14167E-04   -0.15089E-04 10640   0.360E-04 0.273E-04
CGA:  21    -0.128329429345E+04   -0.14694E-04   -0.14215E-04 10640   0.236E-04 0.194E-04
CGA:  22    -0.128329429651E+04   -0.30589E-05   -0.41971E-05 10640   0.199E-04 0.142E-04
   7 F= -.12832943E+04 E0= -.12832943E+04  d E =0.577065E-01  mag=    47.0000
       N       E                     dE             d eps       ncg     rms          ort
SDA:   1    -0.127962026458E+04    0.36740E+01    0.00000E+00 10640   0.111E+02 0.000E+00
CGA:   2    -0.128203544722E+04   -0.24152E+01   -0.24151E+01 10640   0.484E+01 0.533E-03
CGA:   3    -0.128317650725E+04   -0.11411E+01   -0.11410E+01 10640   0.115E+01-0.411E-02
CGA:   4    -0.128334745042E+04   -0.17094E+00   -0.17114E+00 10640   0.193E+00 0.436E-02
CGA:   5    -0.128338486987E+04   -0.37419E-01   -0.37328E-01 10640   0.577E-01-0.189E-02
CGA:   6    -0.128339501606E+04   -0.10146E-01   -0.10199E-01 10640   0.168E-01 0.999E-03
CGA:   7    -0.128339881386E+04   -0.37978E-02   -0.37863E-02 10640   0.503E-02-0.792E-03
CGA:   8    -0.128339981830E+04   -0.10044E-02   -0.10003E-02 10640   0.225E-02-0.148E-03
CGA:   9    -0.128340036669E+04   -0.54839E-03   -0.55566E-03 10640   0.126E-02-0.345E-03
CGA:  10    -0.128340064921E+04   -0.28252E-03   -0.29330E-03 10640   0.715E-03-0.274E-03
CGA:  11    -0.128340077912E+04   -0.12991E-03   -0.22565E-03 10640   0.129E-02-0.576E-03
CGA:  12    -0.128340089678E+04   -0.11766E-03   -0.13034E-03 10640   0.181E-03 0.921E-04
CGA:  13    -0.128340096365E+04   -0.66866E-04   -0.70246E-04 10640   0.109E-03-0.271E-04
CGA:  14    -0.128340099158E+04   -0.27931E-04   -0.31299E-04 10640   0.166E-03-0.360E-04
CGA:  15    -0.128340101470E+04   -0.23127E-04   -0.22174E-04 10640   0.791E-04-0.190E-04
CGA:  16    -0.128340103147E+04   -0.16763E-04   -0.16664E-04 10640   0.935E-04-0.113E-04
CGA:  17    -0.128340104959E+04   -0.18128E-04   -0.18030E-04 10640   0.666E-04-0.475E-05
CGA:  18    -0.128340106009E+04   -0.10500E-04   -0.11094E-04 10640   0.499E-04 0.848E-05
CGA:  19    -0.128340107116E+04   -0.11063E-04   -0.11576E-04 10640   0.444E-04 0.143E-04
CGA:  20    -0.128340107770E+04   -0.65489E-05   -0.86066E-05 10640   0.228E-04 0.231E-04
   8 F= -.12834011E+04 E0= -.12834011E+04  d E =-.106781E+00  mag=    47.0000
       N       E                     dE             d eps       ncg     rms          ort
SDA:   1    -0.128039428520E+04    0.30068E+01    0.00000E+00 10640   0.830E+01 0.000E+00
CGA:   2    -0.128236294431E+04   -0.19687E+01   -0.19687E+01 10640   0.386E+01 0.845E-04
CGA:   3    -0.128323542497E+04   -0.87248E+00   -0.87247E+00 10640   0.782E+00-0.475E-02
CGA:   4    -0.128335438536E+04   -0.11896E+00   -0.11916E+00 10640   0.145E+00 0.368E-02
CGA:   5    -0.128338277176E+04   -0.28386E-01   -0.28329E-01 10640   0.428E-01-0.192E-02
CGA:   6    -0.128339009369E+04   -0.73219E-02   -0.73745E-02 10640   0.125E-01 0.116E-02
CGA:   7    -0.128339301444E+04   -0.29207E-02   -0.29270E-02 10640   0.395E-02-0.875E-03
CGA:   8    -0.128339376761E+04   -0.75317E-03   -0.75240E-03 10640   0.175E-02-0.387E-04
CGA:   9    -0.128339419842E+04   -0.43081E-03   -0.43774E-03 10640   0.946E-03-0.210E-03
CGA:  10    -0.128339442186E+04   -0.22344E-03   -0.23451E-03 10640   0.561E-03-0.184E-03
CGA:  11    -0.128339453979E+04   -0.11793E-03   -0.14988E-03 10640   0.623E-03-0.298E-03
CGA:  12    -0.128339459946E+04   -0.59671E-04   -0.66604E-04 10640   0.124E-03 0.578E-04
CGA:  13    -0.128339464740E+04   -0.47936E-04   -0.48566E-04 10640   0.787E-04-0.477E-05
CGA:  14    -0.128339466540E+04   -0.17999E-04   -0.17913E-04 10640   0.708E-04 0.151E-04
CGA:  15    -0.128339469007E+04   -0.24672E-04   -0.24052E-04 10640   0.497E-04 0.114E-04
CGA:  16    -0.128339472040E+04   -0.30330E-04   -0.32807E-04 10640   0.133E-03-0.790E-05
CGA:  17    -0.128339472577E+04   -0.53704E-05   -0.12730E-04 10640   0.875E-04 0.534E-04
CGA:  18    -0.128339472967E+04   -0.39002E-05   -0.11922E-04 10640   0.553E-04 0.545E-04
CGA:  19    -0.128339470893E+04    0.20737E-04   -0.52178E-04 10640   0.671E-03-0.103E-03
CGA:  20    -0.128339473984E+04   -0.30911E-04   -0.55540E-04 10640   0.606E-04 0.132E-03
CGA:  21    -0.128339474132E+04   -0.14769E-05   -0.68808E-05 10640   0.314E-04 0.323E-04
CGA:  22    -0.128339458306E+04    0.15826E-03   -0.85271E-04 10640   0.171E-02-0.154E-03
CGA:  23    -0.128339469372E+04   -0.11066E-03   -0.16277E-03 10640   0.146E-03 0.150E-03
CGA:  24    -0.128339472767E+04   -0.33954E-04   -0.38797E-04 10640   0.562E-04 0.242E-04
CGA:  25    -0.128339475007E+04   -0.22400E-04   -0.13803E-04 10640   0.463E-04-0.381E-04
CGA:  26    -0.128339474626E+04    0.38098E-05   -0.29954E-05 10640   0.101E-04 0.190E-04
   9 F= -.12833947E+04 E0= -.12833947E+04  d E =0.633144E-02  mag=    47.0000
       N       E                     dE             d eps       ncg     rms          ort
SDA:   1    -0.126192443304E+04    0.21470E+02    0.00000E+00 10640   0.572E+02 0.000E+00
CGA:   2    -0.127630023367E+04   -0.14376E+02   -0.14379E+02 10640   0.272E+02 0.411E-02
CGA:   3    -0.128230220503E+04   -0.60020E+01   -0.60021E+01 10640   0.481E+01 0.682E-02
CGA:   4    -0.128307330360E+04   -0.77110E+00   -0.77242E+00 10640   0.968E+00-0.631E-02
CGA:   5    -0.128325906908E+04   -0.18577E+00   -0.18604E+00 10640   0.271E+00 0.558E-02
CGA:   6    -0.128330969749E+04   -0.50628E-01   -0.50179E-01 10640   0.936E-01-0.325E-02
CGA:   7    -0.128332835708E+04   -0.18660E-01   -0.18455E-01 10640   0.246E-01-0.112E-02
CGA:   8    -0.128333454192E+04   -0.61848E-02   -0.60464E-02 10640   0.124E-01-0.152E-02
CGA:   9    -0.128333741247E+04   -0.28705E-02   -0.27447E-02 10640   0.684E-02-0.124E-02
CGA:  10    -0.128333916039E+04   -0.17479E-02   -0.16695E-02 10640   0.347E-02-0.136E-02
CGA:  11    -0.128333996454E+04   -0.80415E-03   -0.74763E-03 10640   0.208E-02-0.979E-03
CGA:  12    -0.128334042983E+04   -0.46529E-03   -0.42919E-03 10640   0.182E-02-0.995E-03
CGA:  13    -0.128334071830E+04   -0.28847E-03   -0.26860E-03 10640   0.110E-02-0.505E-03
CGA:  14    -0.128334089835E+04   -0.18005E-03   -0.55411E-03 10640   0.412E-02-0.991E-03
CGA:  15    -0.128334129943E+04   -0.40108E-03   -0.46366E-03 10640   0.754E-03 0.294E-03
CGA:  16    -0.128334146943E+04   -0.17001E-03   -0.18322E-03 10640   0.208E-03 0.132E-03
CGA:  17    -0.128334149861E+04   -0.29179E-04   -0.42866E-04 10640   0.127E-03 0.936E-04
CGA:  18    -0.128334149436E+04    0.42513E-05   -0.21340E-04 10640   0.794E-04 0.129E-03
  10 F= -.12833415E+04 E0= -.12833415E+04  d E =0.532519E-01  mag=    47.0000
       N       E                     dE             d eps       ncg     rms          ort
SDA:   1    -0.124801552569E+04    0.35326E+02    0.00000E+00 10640   0.984E+02 0.000E+00
CGA:   2    -0.127111065702E+04   -0.23095E+02   -0.23102E+02 10640   0.448E+02 0.475E-01
CGA:   3    -0.128143211507E+04   -0.10321E+02   -0.10325E+02 10640   0.853E+01 0.434E-03
CGA:   4    -0.128280610332E+04   -0.13740E+01   -0.13748E+01 10640   0.152E+01 0.191E-01
CGA:   5    -0.128312366324E+04   -0.31756E+00   -0.31766E+00 10640   0.399E+00-0.632E-03
CGA:   6    -0.128320258555E+04   -0.78922E-01   -0.78942E-01 10640   0.146E+00 0.171E-02
CGA:   7    -0.128323094640E+04   -0.28361E-01   -0.27957E-01 10640   0.441E-01-0.499E-02
CGA:   8    -0.128324066845E+04   -0.97220E-02   -0.96626E-02 10640   0.199E-01-0.128E-02
CGA:   9    -0.128324535011E+04   -0.46817E-02   -0.46468E-02 10640   0.111E-01-0.124E-02
CGA:  10    -0.128324795198E+04   -0.26019E-02   -0.25750E-02 10640   0.528E-02-0.137E-02
CGA:  11    -0.128324927799E+04   -0.13260E-02   -0.13728E-02 10640   0.348E-02-0.151E-02
CGA:  12    -0.128324984321E+04   -0.56521E-03   -0.53586E-03 10640   0.157E-02-0.559E-03
CGA:  13    -0.128325033329E+04   -0.49008E-03   -0.56430E-03 10640   0.163E-02-0.456E-03
CGA:  14    -0.128325053464E+04   -0.20135E-03   -0.21633E-03 10640   0.955E-03 0.176E-03
CGA:  15    -0.128325087703E+04   -0.34239E-03   -0.33241E-03 10640   0.622E-03 0.216E-03
CGA:  16    -0.128325100988E+04   -0.13285E-03   -0.14919E-03 10640   0.422E-03 0.218E-03
CGA:  17    -0.128325105154E+04   -0.41662E-04   -0.82483E-04 10640   0.218E-03 0.334E-03
CGA:  18    -0.128325106583E+04   -0.14295E-04   -0.30034E-04 10640   0.123E-03 0.128E-03
CGA:  19    -0.128325107166E+04   -0.58265E-05   -0.17404E-04 10640   0.971E-04 0.102E-03
CGA:  20    -0.128325107015E+04    0.15079E-05   -0.10856E-04 10640   0.865E-04 0.900E-04
  11 F= -.12832511E+04 E0= -.12832511E+04  d E =0.904242E-01  mag=    47.0000
       N       E                     dE             d eps       ncg     rms          ort
SDA:   1    -0.127338416754E+04    0.98669E+01    0.00000E+00 10640   0.279E+02 0.000E+00
CGA:   2    -0.127990416881E+04   -0.65200E+01   -0.65200E+01 10640   0.127E+02-0.400E-02
CGA:   3    -0.128283015032E+04   -0.29260E+01   -0.29260E+01 10640   0.243E+01 0.949E-04
CGA:   4    -0.128322588475E+04   -0.39573E+00   -0.39570E+00 10640   0.419E+00-0.117E-02
CGA:   5    -0.128331511916E+04   -0.89234E-01   -0.89285E-01 10640   0.983E-01 0.287E-02
CGA:   6    -0.128333759742E+04   -0.22478E-01   -0.22465E-01 10640   0.386E-01-0.362E-02
CGA:   7    -0.128334364872E+04   -0.60513E-02   -0.60682E-02 10640   0.117E-01 0.406E-03
CGA:   8    -0.128334653105E+04   -0.28823E-02   -0.28991E-02 10640   0.524E-02-0.928E-03
CGA:   9    -0.128334800668E+04   -0.14756E-02   -0.16097E-02 10640   0.416E-02-0.126E-02
CGA:  10    -0.128334865171E+04   -0.64503E-03   -0.63513E-03 10640   0.185E-02-0.302E-03
CGA:  11    -0.128334918268E+04   -0.53097E-03   -0.61437E-03 10640   0.136E-02-0.660E-03
CGA:  12    -0.128334722735E+04    0.19553E-02   -0.10118E-02 10640   0.205E-01-0.324E-02
CGA:  13    -0.128334931001E+04   -0.20827E-02   -0.23204E-02 10640   0.306E-02 0.162E-02
CGA:  14    -0.128335001196E+04   -0.70195E-03   -0.72956E-03 10640   0.128E-02 0.509E-03
CGA:  15    -0.128335035031E+04   -0.33834E-03   -0.33751E-03 10640   0.576E-03-0.165E-04
CGA:  16    -0.128335037754E+04   -0.27231E-04   -0.72163E-04 10640   0.287E-03 0.314E-03
CGA:  17    -0.128335038982E+04   -0.12279E-04   -0.36534E-04 10640   0.156E-03 0.179E-03
CGA:  18    -0.128335040954E+04   -0.19721E-04   -0.28780E-04 10640   0.112E-03 0.125E-03
CGA:  19    -0.128335041159E+04   -0.20505E-05   -0.14599E-04 10640   0.974E-04 0.102E-03
CGA:  20    -0.128335041246E+04   -0.87236E-06   -0.12129E-04 10640   0.885E-04 0.921E-04
CGA:  21    -0.128335041238E+04    0.76219E-07   -0.10389E-04 10640   0.823E-04 0.849E-04
  12 F= -.12833504E+04 E0= -.12833504E+04  d E =-.993422E-01  mag=    47.0000
       N       E                     dE             d eps       ncg     rms          ort
SDA:   1    -0.128115115844E+04    0.21993E+01    0.00000E+00 10640   0.608E+01 0.000E+00
CGA:   2    -0.128253967034E+04   -0.13885E+01   -0.13885E+01 10640   0.271E+01-0.304E-02
CGA:   3    -0.128317126495E+04   -0.63159E+00   -0.63159E+00 10640   0.547E+00 0.456E-03
CGA:   4    -0.128325983969E+04   -0.88575E-01   -0.88594E-01 10640   0.963E-01 0.287E-03
CGA:   5    -0.128327922498E+04   -0.19385E-01   -0.19428E-01 10640   0.247E-01 0.188E-02
CGA:   6    -0.128328427863E+04   -0.50536E-02   -0.50317E-02 10640   0.106E-01-0.890E-03
CGA:   7    -0.128328607789E+04   -0.17993E-02   -0.17969E-02 10640   0.285E-02-0.275E-04
CGA:   8    -0.128328684789E+04   -0.77001E-03   -0.77167E-03 10640   0.130E-02-0.311E-04
CGA:   9    -0.128328724602E+04   -0.39813E-03   -0.38717E-03 10640   0.757E-03 0.140E-03
CGA:  10    -0.128328748397E+04   -0.23795E-03   -0.23119E-03 10640   0.585E-03 0.137E-03
CGA:  11    -0.128328764243E+04   -0.15846E-03   -0.15840E-03 10640   0.345E-03 0.207E-03
CGA:  12    -0.128328786610E+04   -0.22367E-03   -0.19711E-03 10640   0.374E-03 0.134E-03
CGA:  13    -0.128328796979E+04   -0.10369E-03   -0.11178E-03 10640   0.264E-03 0.343E-03
CGA:  14    -0.128328803780E+04   -0.68004E-04   -0.66260E-04 10640   0.141E-03 0.130E-03
CGA:  15    -0.128328806063E+04   -0.22836E-04   -0.34393E-04 10640   0.104E-03 0.153E-03
CGA:  16    -0.128328807921E+04   -0.18579E-04   -0.21290E-04 10640   0.874E-04 0.913E-04
CGA:  17    -0.128328809360E+04   -0.14383E-04   -0.17314E-04 10640   0.811E-04 0.833E-04
CGA:  18    -0.128328810163E+04   -0.80375E-05   -0.13321E-04 10640   0.770E-04 0.784E-04
CGA:  19    -0.128328811152E+04   -0.98825E-05   -0.13663E-04 10640   0.732E-04 0.747E-04
CGA:  20    -0.128328811799E+04   -0.64762E-05   -0.11443E-04 10640   0.703E-04 0.716E-04
CGA:  21    -0.128328812534E+04   -0.73479E-05   -0.11446E-04 10640   0.677E-04 0.689E-04
CGA:  22    -0.128328813097E+04   -0.56252E-05   -0.10192E-04 10640   0.655E-04 0.665E-04
  13 F= -.12832881E+04 E0= -.12832881E+04  d E =0.622814E-01  mag=    47.0000
       N       E                     dE             d eps       ncg     rms          ort
SDA:   1    -0.124755660976E+04    0.35732E+02    0.00000E+00 10640   0.966E+02 0.000E+00
CGA:   2    -0.127122422614E+04   -0.23668E+02   -0.23665E+02 10640   0.454E+02 0.553E-01
CGA:   3    -0.128139033596E+04   -0.10166E+02   -0.10166E+02 10640   0.807E+01-0.169E-01
CGA:   4    -0.128271551638E+04   -0.13252E+01   -0.13263E+01 10640   0.148E+01 0.149E-01
CGA:   5    -0.128303005319E+04   -0.31454E+00   -0.31454E+00 10640   0.364E+00 0.399E-02
CGA:   6    -0.128310696440E+04   -0.76911E-01   -0.76908E-01 10640   0.139E+00-0.306E-02
CGA:   7    -0.128313205680E+04   -0.25092E-01   -0.24939E-01 10640   0.452E-01-0.464E-02
CGA:   8    -0.128314245325E+04   -0.10396E-01   -0.10487E-01 10640   0.214E-01-0.304E-02
CGA:   9    -0.128314728660E+04   -0.48333E-02   -0.48542E-02 10640   0.116E-01-0.618E-03
CGA:  10    -0.128315028370E+04   -0.29971E-02   -0.31880E-02 10640   0.848E-02-0.278E-02
CGA:  11    -0.128315166714E+04   -0.13834E-02   -0.13815E-02 10640   0.330E-02-0.683E-03
CGA:  12    -0.128315273996E+04   -0.10728E-02   -0.13038E-02 10640   0.360E-02-0.110E-02
CGA:  13    -0.128315344082E+04   -0.70086E-03   -0.72401E-03 10640   0.335E-02-0.328E-03
CGA:  14    -0.128315428371E+04   -0.84289E-03   -0.81666E-03 10640   0.195E-02 0.687E-03
CGA:  15    -0.128315498086E+04   -0.69715E-03   -0.65576E-03 10640   0.124E-02 0.890E-03
CGA:  16    -0.128315538570E+04   -0.40484E-03   -0.40990E-03 10640   0.638E-03 0.627E-03
CGA:  17    -0.128315546609E+04   -0.80387E-04   -0.10329E-03 10640   0.346E-03 0.313E-03
CGA:  18    -0.128315552831E+04   -0.62228E-04   -0.85079E-04 10640   0.235E-03 0.343E-03
CGA:  19    -0.128315556580E+04   -0.37491E-04   -0.44241E-04 10640   0.201E-03 0.168E-03
CGA:  20    -0.128315557083E+04   -0.50301E-05   -0.23740E-04 10640   0.173E-03 0.173E-03
CGA:  21    -0.128315558602E+04   -0.15182E-04   -0.26441E-04 10640   0.162E-03 0.166E-03
CGA:  22    -0.128315559898E+04   -0.12962E-04   -0.23861E-04 10640   0.153E-03 0.156E-03
CGA:  23    -0.128315561203E+04   -0.13053E-04   -0.22701E-04 10640   0.145E-03 0.148E-03
CGA:  24    -0.128315562515E+04   -0.13114E-04   -0.21697E-04 10640   0.138E-03 0.141E-03
CGA:  25    -0.128315563795E+04   -0.12800E-04   -0.20644E-04 10640   0.132E-03 0.135E-03
CGA:  26    -0.128315565116E+04   -0.13217E-04   -0.20072E-04 10640   0.127E-03 0.130E-03
CGA:  27    -0.128315566426E+04   -0.13094E-04   -0.19317E-04 10640   0.122E-03 0.125E-03
CGA:  28    -0.128315567777E+04   -0.13514E-04   -0.18908E-04 10640   0.118E-03 0.120E-03
CGA:  29    -0.128315569129E+04   -0.13524E-04   -0.18354E-04 10640   0.114E-03 0.116E-03
CGA:  30    -0.128315570516E+04   -0.13868E-04   -0.18017E-04 10640   0.110E-03 0.112E-03
CGA:  31    -0.128315571907E+04   -0.13912E-04   -0.17571E-04 10640   0.107E-03 0.108E-03
CGA:  32    -0.128315573324E+04   -0.14162E-04   -0.17265E-04 10640   0.103E-03 0.105E-03
CGA:  33    -0.128315574741E+04   -0.14177E-04   -0.16873E-04 10640   0.999E-04 0.102E-03
CGA:  34    -0.128315576174E+04   -0.14331E-04   -0.16579E-04 10640   0.968E-04 0.983E-04
CGA:  35    -0.128315577603E+04   -0.14288E-04   -0.16210E-04 10640   0.938E-04 0.953E-04
CGA:  36    -0.128315579038E+04   -0.14351E-04   -0.15915E-04 10640   0.909E-04 0.923E-04
CGA:  37    -0.128315580462E+04   -0.14236E-04   -0.15549E-04 10640   0.881E-04 0.895E-04
CGA:  38    -0.128315581883E+04   -0.14214E-04   -0.15247E-04 10640   0.854E-04 0.867E-04
CGA:  39    -0.128315583285E+04   -0.14020E-04   -0.14873E-04 10640   0.827E-04 0.840E-04
CGA:  40    -0.128315584677E+04   -0.13920E-04   -0.14560E-04 10640   0.801E-04 0.814E-04
CGA:  41    -0.128315586042E+04   -0.13645E-04   -0.14170E-04 10640   0.776E-04 0.789E-04
CGA:  42    -0.128315587390E+04   -0.13479E-04   -0.13846E-04 10640   0.752E-04 0.764E-04
CGA:  43    -0.128315588702E+04   -0.13126E-04   -0.13438E-04 10640   0.728E-04 0.740E-04
CGA:  44    -0.128315589993E+04   -0.12909E-04   -0.13106E-04 10640   0.705E-04 0.717E-04
CGA:  45    -0.128315591242E+04   -0.12487E-04   -0.12680E-04 10640   0.683E-04 0.694E-04
CGA:  46    -0.128315592466E+04   -0.12238E-04   -0.12349E-04 10640   0.662E-04 0.672E-04
CGA:  47    -0.128315593641E+04   -0.11756E-04   -0.11907E-04 10640   0.641E-04 0.651E-04
CGA:  48    -0.128315594791E+04   -0.11495E-04   -0.11583E-04 10640   0.620E-04 0.630E-04
CGA:  49    -0.128315595887E+04   -0.10963E-04   -0.11130E-04 10640   0.601E-04 0.610E-04
CGA:  50    -0.128315596958E+04   -0.10710E-04   -0.10822E-04 10640   0.582E-04 0.591E-04
CGA:  51    -0.128315597972E+04   -0.10140E-04   -0.10361E-04 10640   0.564E-04 0.573E-04
CGA:  52    -0.128315598963E+04   -0.99092E-05   -0.10076E-04 10640   0.546E-04 0.555E-04
  14 F= -.12831560E+04 E0= -.12831560E+04  d E =0.132141E+00  mag=    47.0000
       N       E                     dE             d eps       ncg     rms          ort
SDA:   1    -0.126549726372E+04    0.17659E+02    0.00000E+00 10640   0.518E+02 0.000E+00
CGA:   2    -0.127692982577E+04   -0.11433E+02   -0.11433E+02 10640   0.223E+02 0.653E-02
CGA:   3    -0.128225599492E+04   -0.53262E+01   -0.53244E+01 10640   0.482E+01 0.188E-01
CGA:   4    -0.128301556070E+04   -0.75957E+00   -0.75979E+00 10640   0.811E+00 0.955E-02
CGA:   5    -0.128317922657E+04   -0.16367E+00   -0.16361E+00 10640   0.234E+00 0.353E-02
CGA:   6    -0.128322104898E+04   -0.41822E-01   -0.41825E-01 10640   0.839E-01 0.106E-02
CGA:   7    -0.128323761388E+04   -0.16565E-01   -0.16591E-01 10640   0.217E-01-0.216E-02
CGA:   8    -0.128324266183E+04   -0.50480E-02   -0.50548E-02 10640   0.869E-02-0.996E-04
CGA:   9    -0.128324498716E+04   -0.23253E-02   -0.24910E-02 10640   0.698E-02-0.165E-02
CGA:  10    -0.128324592559E+04   -0.93843E-03   -0.94443E-03 10640   0.209E-02 0.242E-03
CGA:  11    -0.128324653318E+04   -0.60759E-03   -0.60743E-03 10640   0.102E-02 0.117E-05
CGA:  12    -0.128324673910E+04   -0.20592E-03   -0.35016E-03 10640   0.276E-02-0.982E-03
CGA:  13    -0.128324692541E+04   -0.18631E-03   -0.23839E-03 10640   0.306E-03 0.456E-03
CGA:  14    -0.128324696978E+04   -0.44371E-04   -0.52033E-04 10640   0.224E-03 0.148E-03
CGA:  15    -0.128324706671E+04   -0.96926E-04   -0.11523E-03 10640   0.348E-03-0.122E-03
CGA:  16    -0.128324712013E+04   -0.53418E-04   -0.55794E-04 10640   0.161E-03 0.562E-04
CGA:  17    -0.128324718084E+04   -0.60713E-04   -0.71632E-04 10640   0.199E-03-0.602E-04
CGA:  18    -0.128324720655E+04   -0.25713E-04   -0.25847E-04 10640   0.197E-03 0.531E-04
CGA:  19    -0.128324733379E+04   -0.12723E-03   -0.11855E-03 10640   0.420E-03 0.286E-04
CGA:  20    -0.128324745154E+04   -0.11776E-03   -0.16749E-03 10640   0.916E-03-0.410E-03
CGA:  21    -0.128324753620E+04   -0.84658E-04   -0.99607E-04 10640   0.180E-03 0.127E-03
CGA:  22    -0.128324759850E+04   -0.62296E-04   -0.68001E-04 10640   0.554E-04-0.530E-04
CGA:  23    -0.128324762614E+04   -0.27643E-04    0.81595E-05 10640   0.612E-04-0.172E-05
CGA:  24    -0.128324746705E+04    0.15909E-03   -0.87031E-04 10640   0.114E-02-0.199E-03
CGA:  25    -0.128324769064E+04   -0.22358E-03   -0.19132E-03 10640   0.490E-03-0.128E-03
CGA:  26    -0.128324776229E+04   -0.71652E-04   -0.74457E-04 10640   0.286E-04 0.128E-04
CGA:  27    -0.128324776720E+04   -0.49115E-05   -0.60498E-05 10640   0.194E-04 0.609E-05
  15 F= -.12832478E+04 E0= -.12832478E+04  d E =-.917776E-01  mag=    47.0000
       N       E                     dE             d eps       ncg     rms          ort
SDA:   1    -0.126896428565E+04    0.14283E+02    0.00000E+00 10640   0.375E+02 0.000E+00
CGA:   2    -0.127872042077E+04   -0.97561E+01   -0.97568E+01 10640   0.177E+02-0.497E-02
CGA:   3    -0.128260746490E+04   -0.38870E+01   -0.38881E+01 10640   0.278E+01 0.833E-02
CGA:   4    -0.128308564588E+04   -0.47818E+00   -0.47839E+00 10640   0.564E+00 0.611E-03
CGA:   5    -0.128319968609E+04   -0.11404E+00   -0.11442E+00 10640   0.137E+00 0.313E-02
CGA:   6    -0.128322880623E+04   -0.29120E-01   -0.28857E-01 10640   0.549E-01-0.189E-02
CGA:   7    -0.128323799298E+04   -0.91867E-02   -0.91822E-02 10640   0.153E-01 0.176E-03
CGA:   8    -0.128324204637E+04   -0.40534E-02   -0.39761E-02 10640   0.708E-02-0.997E-03
CGA:   9    -0.128324371784E+04   -0.16715E-02   -0.16503E-02 10640   0.407E-02-0.243E-03
CGA:  10    -0.128324463972E+04   -0.92188E-03   -0.87936E-03 10640   0.185E-02-0.403E-03
CGA:  11    -0.128324507911E+04   -0.43939E-03   -0.42576E-03 10640   0.762E-03-0.201E-03
CGA:  12    -0.128324526941E+04   -0.19030E-03   -0.18427E-03 10640   0.581E-03-0.125E-03
CGA:  13    -0.128324538714E+04   -0.11773E-03   -0.11729E-03 10640   0.289E-03-0.627E-05
CGA:  14    -0.128324549838E+04   -0.11124E-03   -0.23832E-03 10640   0.127E-02-0.247E-03
CGA:  15    -0.128324560513E+04   -0.10675E-03   -0.14823E-03 10640   0.302E-03 0.189E-03
CGA:  16    -0.128324569154E+04   -0.86406E-04   -0.87186E-04 10640   0.106E-03 0.998E-05
CGA:  17    -0.128324576794E+04   -0.76400E-04    0.22039E-03 10640   0.146E-03-0.526E-05
CGA:  18    -0.128324579836E+04   -0.30427E-04   -0.32583E-04 10640   0.915E-04 0.233E-04
CGA:  19    -0.128324582085E+04   -0.22489E-04   -0.24608E-04 10640   0.924E-04 0.235E-04
CGA:  20    -0.128324592459E+04   -0.10374E-03    0.44095E-04 10640   0.846E-04 0.352E-04
CGA:  21    -0.128324602990E+04   -0.10531E-03    0.43041E-04 10640   0.158E-03-0.139E-04
CGA:  22    -0.128324618819E+04   -0.15830E-03    0.22953E-04 10640   0.207E-03-0.222E-04
CGA:  23    -0.128324631902E+04   -0.13083E-03    0.17016E-03 10640   0.445E-03-0.240E-03
CGA:  24    -0.128324640235E+04   -0.83330E-04   -0.68881E-04 10640   0.173E-03-0.882E-04
CGA:  25    -0.128324507886E+04    0.13235E-02   -0.71664E-03 10640   0.117E-01-0.937E-03
CGA:  26    -0.128324609707E+04   -0.10182E-02   -0.11372E-02 10640   0.110E-02 0.427E-03
CGA:  27    -0.128324643375E+04   -0.33668E-03   -0.35971E-03 10640   0.302E-03 0.104E-03
CGA:  28    -0.128324652749E+04   -0.93746E-04   -0.68931E-04 10640   0.164E-03-0.774E-04
CGA:  29    -0.128324652735E+04    0.14097E-06   -0.14246E-04 10640   0.541E-04 0.369E-04
  16 F= -.12832465E+04 E0= -.12832465E+04  d E =0.123985E-02  mag=    47.0000
       N       E                     dE             d eps       ncg     rms          ort
SDA:   1    -0.125295065983E+04    0.30296E+02    0.00000E+00 10640   0.865E+02 0.000E+00
CGA:   2    -0.127255101554E+04   -0.19600E+02   -0.19615E+02 10640   0.384E+02 0.117E+00
CGA:   3    -0.128158424264E+04   -0.90332E+01   -0.90431E+01 10640   0.782E+01 0.248E-01
CGA:   4    -0.128282658842E+04   -0.12423E+01   -0.12412E+01 10640   0.134E+01 0.290E-01
CGA:   5    -0.128310211308E+04   -0.27552E+00   -0.27565E+00 10640   0.389E+00 0.151E-02
CGA:   6    -0.128317157889E+04   -0.69466E-01   -0.69203E-01 10640   0.146E+00-0.188E-02
CGA:   7    -0.128319854852E+04   -0.26970E-01   -0.26741E-01 10640   0.358E-01 0.108E-03
CGA:   8    -0.128320821947E+04   -0.96709E-02   -0.94097E-02 10640   0.156E-01-0.195E-02
CGA:   9    -0.128321172297E+04   -0.35035E-02   -0.35282E-02 10640   0.798E-02 0.228E-03
CGA:  10    -0.128321394030E+04   -0.22173E-02   -0.20485E-02 10640   0.491E-02-0.130E-02
CGA:  11    -0.128321487402E+04   -0.93372E-03   -0.86611E-03 10640   0.180E-02-0.395E-03
CGA:  12    -0.128321539163E+04   -0.51761E-03   -0.49389E-03 10640   0.112E-02-0.334E-03
CGA:  13    -0.128321571341E+04   -0.32178E-03   -0.30991E-03 10640   0.139E-02-0.447E-03
CGA:  14    -0.128321589315E+04   -0.17974E-03   -0.17121E-03 10640   0.706E-03-0.540E-04
CGA:  15    -0.128321602823E+04   -0.13507E-03   -0.15846E-03 10640   0.619E-03 0.191E-03
CGA:  16    -0.128321622816E+04   -0.19993E-03   -0.19843E-03 10640   0.442E-03-0.170E-04
CGA:  17    -0.128321633483E+04   -0.10668E-03   -0.10706E-03 10640   0.370E-03 0.247E-05
CGA:  18    -0.128321635533E+04   -0.20492E-04   -0.56454E-04 10640   0.190E-03 0.190E-03
CGA:  19    -0.128321639504E+04   -0.39711E-04   -0.43803E-04 10640   0.129E-03 0.409E-04
CGA:  20    -0.128321642592E+04   -0.30880E-04   -0.33355E-04 10640   0.516E-04 0.219E-04
CGA:  21    -0.128321643111E+04   -0.51952E-05   -0.10847E-04 10640   0.348E-04 0.401E-04
CGA:  22    -0.128321646220E+04   -0.31086E-04   -0.29191E-04 10640   0.862E-04 0.301E-05
CGA:  23    -0.128321646755E+04   -0.53511E-05   -0.14709E-04 10640   0.437E-04 0.512E-04
CGA:  24    -0.128321642293E+04    0.44622E-04   -0.69798E-04 10640   0.513E-03-0.907E-04
CGA:  25    -0.128321649535E+04   -0.72425E-04   -0.90058E-04 10640   0.122E-03 0.818E-04
CGA:  26    -0.128321649862E+04   -0.32636E-05   -0.10681E-03 10640   0.724E-03-0.277E-03
CGA:  27    -0.128321652002E+04   -0.21402E-04   -0.78780E-04 10640   0.166E-03 0.198E-03
CGA:  28    -0.128321654659E+04   -0.26574E-04   -0.38276E-04 10640   0.667E-04 0.569E-04
CGA:  29    -0.128321406356E+04    0.24830E-02   -0.13698E-02 10640   0.187E-01-0.130E-02
CGA:  30    -0.128321578650E+04   -0.17229E-02   -0.20772E-02 10640   0.237E-02 0.101E-02
CGA:  31    -0.128321650715E+04   -0.72065E-03   -0.73251E-03 10640   0.605E-03 0.342E-04
CGA:  32    -0.128321669179E+04   -0.18464E-03   -0.10230E-03 10640   0.109E-03-0.174E-03
CGA:  33    -0.128321668375E+04    0.80399E-05   -0.83246E-05 10640   0.329E-04 0.324E-04
  17 F= -.12832167E+04 E0= -.12832167E+04  d E =0.298436E-01  mag=    47.0000
       N       E                     dE             d eps       ncg     rms          ort
SDA:   1    -0.127403594831E+04    0.91807E+01    0.00000E+00 10640   0.270E+02 0.000E+00
CGA:   2    -0.128005171294E+04   -0.60158E+01   -0.60173E+01 10640   0.118E+02 0.187E-01
CGA:   3    -0.128283566517E+04   -0.27840E+01   -0.27866E+01 10640   0.251E+01 0.710E-02
CGA:   4    -0.128323274340E+04   -0.39708E+00   -0.39744E+00 10640   0.414E+00 0.272E-02
CGA:   5    -0.128331854098E+04   -0.85798E-01   -0.85892E-01 10640   0.116E+00 0.519E-03
CGA:   6    -0.128333989607E+04   -0.21355E-01   -0.21185E-01 10640   0.430E-01-0.128E-03
CGA:   7    -0.128334806085E+04   -0.81648E-02   -0.79723E-02 10640   0.112E-01-0.684E-03
CGA:   8    -0.128335067255E+04   -0.26117E-02   -0.25910E-02 10640   0.452E-02-0.634E-04
CGA:   9    -0.128335209314E+04   -0.14206E-02   -0.12778E-02 10640   0.357E-02-0.832E-03
CGA:  10    -0.128335262766E+04   -0.53452E-03   -0.52298E-03 10640   0.113E-02-0.324E-04
CGA:  11    -0.128335306931E+04   -0.44165E-03   -0.42179E-03 10640   0.735E-03-0.347E-03
CGA:  12    -0.128335311432E+04   -0.45015E-04   -0.33452E-03 10640   0.514E-02-0.128E-02
CGA:  13    -0.128335348520E+04   -0.37087E-03   -0.52810E-03 10640   0.507E-03 0.511E-03
CGA:  14    -0.128335362269E+04   -0.13749E-03   -0.14732E-03 10640   0.314E-03 0.613E-04
CGA:  15    -0.128335375798E+04   -0.13530E-03   -0.11184E-03 10640   0.507E-03-0.237E-03
CGA:  16    -0.128335377246E+04   -0.14480E-04   -0.50794E-04 10640   0.872E-04 0.118E-03
CGA:  17    -0.128335378936E+04   -0.16894E-04   -0.22172E-04 10640   0.749E-04 0.277E-04
CGA:  18    -0.128335386878E+04   -0.79418E-04    0.49332E-03 10640   0.163E-03-0.715E-04
CGA:  19    -0.128335387453E+04   -0.57525E-05   -0.20088E-04 10640   0.514E-04 0.546E-04
CGA:  20    -0.128335390342E+04   -0.28888E-04   -0.31566E-04 10640   0.794E-04-0.310E-04
CGA:  21    -0.128335397539E+04   -0.71969E-04    0.75751E-04 10640   0.217E-03-0.695E-04
CGA:  22    -0.128335397037E+04    0.50184E-05   -0.16207E-04 10640   0.300E-04 0.706E-04
  18 F= -.12833540E+04 E0= -.12833540E+04  d E =-.137287E+00  mag=    47.0000
       N       E                     dE             d eps       ncg     rms          ort
SDA:   1    -0.127781667735E+04    0.55373E+01    0.00000E+00 10640   0.148E+02 0.000E+00
CGA:   2    -0.128146508899E+04   -0.36484E+01   -0.36479E+01 10640   0.690E+01-0.286E-02
CGA:   3    -0.128298251639E+04   -0.15174E+01   -0.15176E+01 10640   0.129E+01-0.138E-02
CGA:   4    -0.128319496804E+04   -0.21245E+00   -0.21279E+00 10640   0.243E+00 0.168E-02
CGA:   5    -0.128324360111E+04   -0.48633E-01   -0.48657E-01 10640   0.652E-01 0.218E-03
CGA:   6    -0.128325565977E+04   -0.12059E-01   -0.11992E-01 10640   0.248E-01-0.307E-03
CGA:   7    -0.128326078910E+04   -0.51293E-02   -0.49586E-02 10640   0.748E-02-0.149E-02
CGA:   8    -0.128326251477E+04   -0.17257E-02   -0.17204E-02 10640   0.343E-02-0.694E-04
CGA:   9    -0.128326358897E+04   -0.10742E-02   -0.10855E-02 10640   0.342E-02-0.807E-03
CGA:  10    -0.128326413542E+04   -0.54645E-03   -0.52386E-03 10640   0.146E-02-0.206E-03
CGA:  11    -0.128326466986E+04   -0.53444E-03   -0.63357E-03 10640   0.155E-02-0.619E-03
CGA:  12    -0.128326293860E+04    0.17313E-02   -0.95071E-03 10640   0.211E-01-0.355E-02
CGA:  13    -0.128326501581E+04   -0.20772E-02   -0.24104E-02 10640   0.291E-02 0.166E-02
CGA:  14    -0.128326575629E+04   -0.74048E-03   -0.78158E-03 10640   0.123E-02 0.475E-03
CGA:  15    -0.128326610021E+04   -0.34391E-03   -0.33139E-03 10640   0.764E-03-0.124E-03
CGA:  16    -0.128326615114E+04   -0.50930E-04   -0.10391E-03 10640   0.342E-03 0.303E-03
CGA:  17    -0.128326615169E+04   -0.55324E-06   -0.51357E-04 10640   0.184E-03 0.242E-03
CGA:  18    -0.128326620621E+04   -0.54518E-04   -0.54884E-04 10640   0.167E-03 0.390E-04
CGA:  19    -0.128326620554E+04    0.66611E-06   -0.23653E-04 10640   0.717E-04 0.128E-03
  19 F= -.12832662E+04 E0= -.12832662E+04  d E =0.877648E-01  mag=    47.0000
       N       E                     dE             d eps       ncg     rms          ort
SDA:   1    -0.126017009106E+04    0.23096E+02    0.00000E+00 10640   0.650E+02 0.000E+00
CGA:   2    -0.127512592437E+04   -0.14956E+02   -0.14957E+02 10640   0.290E+02 0.254E-01
CGA:   3    -0.128178618144E+04   -0.66603E+01   -0.66612E+01 10640   0.597E+01-0.788E-03
CGA:   4    -0.128275398300E+04   -0.96780E+00   -0.96906E+00 10640   0.103E+01 0.940E-02
CGA:   5    -0.128296806376E+04   -0.21408E+00   -0.21429E+00 10640   0.258E+00 0.370E-02
CGA:   6    -0.128302067993E+04   -0.52616E-01   -0.52476E-01 10640   0.102E+00-0.199E-02
CGA:   7    -0.128303926228E+04   -0.18582E-01   -0.18415E-01 10640   0.318E-01-0.160E-02
CGA:   8    -0.128304714318E+04   -0.78809E-02   -0.78622E-02 10640   0.159E-01-0.149E-02
CGA:   9    -0.128305100435E+04   -0.38612E-02   -0.38624E-02 10640   0.924E-02 0.167E-03
CGA:  10    -0.128305366416E+04   -0.26598E-02   -0.26810E-02 10640   0.651E-02-0.874E-03
CGA:  11    -0.128305536530E+04   -0.17011E-02   -0.17157E-02 10640   0.454E-02-0.539E-03
CGA:  12    -0.128305684569E+04   -0.14804E-02   -0.16156E-02 10640   0.628E-02-0.112E-02
CGA:  13    -0.128305818217E+04   -0.13365E-02   -0.13423E-02 10640   0.511E-02-0.518E-03
CGA:  14    -0.128306008591E+04   -0.19037E-02   -0.18698E-02 10640   0.449E-02 0.200E-03
CGA:  15    -0.128306155896E+04   -0.14730E-02   -0.14548E-02 10640   0.376E-02 0.499E-03
CGA:  16    -0.128306258792E+04   -0.10290E-02   -0.10458E-02 10640   0.168E-02 0.539E-03
CGA:  17    -0.128306306030E+04   -0.47238E-03   -0.48875E-03 10640   0.835E-03 0.668E-03
CGA:  18    -0.128306327866E+04   -0.21836E-03   -0.25280E-03 10640   0.442E-03 0.561E-03
CGA:  19    -0.128306336372E+04   -0.85059E-04   -0.96774E-04 10640   0.338E-03 0.211E-03
CGA:  20    -0.128306341077E+04   -0.47051E-04   -0.83892E-04 10640   0.202E-03 0.354E-03
CGA:  21    -0.128306344039E+04   -0.29614E-04   -0.40451E-04 10640   0.173E-03 0.164E-03
CGA:  22    -0.128306347796E+04   -0.37575E-04   -0.41230E-04 10640   0.164E-03 0.143E-03
CGA:  23    -0.128306349255E+04   -0.14588E-04   -0.27197E-04 10640   0.145E-03 0.132E-03
CGA:  24    -0.128306352845E+04   -0.35903E-04   -0.36553E-04 10640   0.143E-03 0.120E-03
CGA:  25    -0.128306354052E+04   -0.12068E-04   -0.22861E-04 10640   0.126E-03 0.111E-03
CGA:  26    -0.128306357797E+04   -0.37448E-04   -0.34916E-04 10640   0.133E-03 0.101E-03
CGA:  27    -0.128306358841E+04   -0.10446E-04   -0.20054E-04 10640   0.112E-03 0.934E-04
CGA:  28    -0.128306362855E+04   -0.40138E-04   -0.34894E-04 10640   0.135E-03 0.832E-04
CGA:  29    -0.128306363786E+04   -0.93133E-05   -0.18356E-04 10640   0.101E-03 0.783E-04
CGA:  30    -0.128306368072E+04   -0.42855E-04   -0.35425E-04 10640   0.142E-03 0.697E-04
CGA:  31    -0.128306369005E+04   -0.93282E-05   -0.17692E-04 10640   0.908E-04 0.665E-04
CGA:  32    -0.128306371958E+04   -0.29532E-04   -0.30946E-04 10640   0.143E-03 0.115E-03
CGA:  33    -0.128306375496E+04   -0.35381E-04   -0.35505E-04 10640   0.252E-03-0.309E-04
CGA:  34    -0.128306384823E+04   -0.93266E-04   -0.72295E-04 10640   0.349E-03 0.172E-03
CGA:  35    -0.128306386906E+04   -0.20830E-04   -0.32088E-04 10640   0.627E-04 0.719E-04
CGA:  36    -0.128306388026E+04   -0.11204E-04   -0.13978E-04 10640   0.100E-03 0.484E-04
CGA:  37    -0.128306390851E+04   -0.28247E-04   -0.41419E-04 10640   0.499E-03-0.758E-04
CGA:  38    -0.128306394034E+04   -0.31837E-04   -0.44740E-04 10640   0.582E-04 0.828E-04
CGA:  39    -0.128306394894E+04   -0.86002E-05   -0.11520E-04 10640   0.823E-04 0.415E-04
CGA:  40    -0.128306396705E+04   -0.18105E-04   -0.47127E-04 10640   0.737E-03-0.859E-04
CGA:  41    -0.128306401743E+04   -0.50386E-04   -0.65815E-04 10640   0.542E-04 0.961E-04
CGA:  42    -0.128306402457E+04   -0.71372E-05   -0.10037E-04 10640   0.689E-04 0.357E-04
CGA:  43    -0.128306402645E+04   -0.18795E-05   -0.53486E-04 10640   0.105E-02-0.961E-04
CGA:  44    -0.128306410237E+04   -0.75921E-04   -0.94423E-04 10640   0.492E-04 0.107E-03
CGA:  45    -0.128306410840E+04   -0.60282E-05   -0.89195E-05 10640   0.581E-04 0.306E-04
CGA:  46    -0.128306409896E+04    0.94448E-05   -0.54377E-04 10640   0.119E-02-0.934E-04
CGA:  47    -0.128306418785E+04   -0.88891E-04   -0.10875E-03 10640   0.427E-04 0.104E-03
CGA:  48    -0.128306419295E+04   -0.51008E-05   -0.79202E-05 10640   0.499E-04 0.261E-04
CGA:  49    -0.128306418848E+04    0.44667E-05   -0.46303E-04 10640   0.980E-03-0.773E-04
CGA:  50    -0.128306426126E+04   -0.72781E-04   -0.90556E-04 10640   0.360E-04 0.860E-04
CGA:  51    -0.128306426528E+04   -0.40203E-05   -0.68214E-05 10640   0.430E-04 0.232E-04
CGA:  52    -0.128306425880E+04    0.64822E-05   -0.41707E-04 10640   0.917E-03-0.706E-04
CGA:  53    -0.128306432647E+04   -0.67669E-04   -0.85095E-04 10640   0.310E-04 0.781E-04
CGA:  54    -0.128306432896E+04   -0.24941E-05   -0.55400E-05 10640   0.352E-04 0.207E-04
CGA:  55    -0.128306427785E+04    0.51111E-04   -0.52504E-04 10640   0.160E-02-0.870E-04
CGA:  56    -0.128306440350E+04   -0.12565E-03   -0.15055E-03 10640   0.265E-04 0.968E-04
CGA:  57    -0.128306440381E+04   -0.30217E-06   -0.40128E-05 10640   0.252E-04 0.179E-04
CGA:  58    -0.128306437503E+04    0.28779E-04   -0.20856E-04 10640   0.146E-02-0.486E-04
CGA:  59    -0.128306448435E+04   -0.10932E-03   -0.13985E-03 10640   0.185E-04 0.634E-04
CGA:  60    -0.128306448252E+04    0.18303E-05   -0.34894E-05 10640   0.198E-04 0.129E-04
CGA:  61    -0.128306417963E+04    0.30289E-03   -0.16338E-03 10640   0.490E-02-0.122E-03
CGA:  62    -0.128306457346E+04   -0.39383E-03   -0.47461E-03 10640   0.182E-04 0.161E-03
CGA:  63    -0.128306456697E+04    0.64848E-05   -0.18958E-05 10640   0.961E-05 0.938E-05
CGA:  64    -0.128306457804E+04   -0.11065E-04   -0.10187E-04 10640   0.152E-04 0.820E-05
CGA:  65    -0.128306458084E+04   -0.28018E-05   -0.32304E-05 10640   0.170E-04 0.602E-06
CGA:  66    -0.128306461231E+04   -0.31467E-04   -0.24977E-04 10640   0.163E-04 0.134E-04
CGA:  67    -0.128306461088E+04    0.14272E-05   -0.24005E-05 10640   0.703E-05 0.479E-05
  20 F= -.12830646E+04 E0= -.12830646E+04  d E =0.201595E+00  mag=    47.0000
       N       E                     dE             d eps       ncg     rms          ort
SDA:   1    -0.127717872916E+04    0.58859E+01    0.00000E+00 10640   0.177E+02 0.000E+00
CGA:   2    -0.128096126246E+04   -0.37825E+01   -0.37817E+01 10640   0.726E+01 0.839E-01
CGA:   3    -0.128273668437E+04   -0.17754E+01   -0.17781E+01 10640   0.166E+01 0.130E-01
CGA:   4    -0.128300212418E+04   -0.26544E+00   -0.26590E+00 10640   0.267E+00 0.439E-02
CGA:   5    -0.128305768427E+04   -0.55560E-01   -0.55873E-01 10640   0.722E-01 0.794E-03
CGA:   6    -0.128307120738E+04   -0.13523E-01   -0.13527E-01 10640   0.275E-01 0.271E-03
CGA:   7    -0.128307642988E+04   -0.52225E-02   -0.50435E-02 10640   0.735E-02-0.353E-03
CGA:   8    -0.128307819629E+04   -0.17664E-02   -0.17682E-02 10640   0.286E-02 0.229E-04
CGA:   9    -0.128307911158E+04   -0.91529E-03   -0.85777E-03 10640   0.192E-02-0.153E-03
CGA:  10    -0.128307945340E+04   -0.34182E-03   -0.36907E-03 10640   0.930E-03 0.702E-04
CGA:  11    -0.128307978003E+04   -0.32664E-03   -0.30974E-03 10640   0.547E-03-0.536E-04
CGA:  12    -0.128308002172E+04   -0.24168E-03   -0.21633E-03 10640   0.861E-03-0.128E-03
CGA:  13    -0.128308018938E+04   -0.16766E-03   -0.15395E-03 10640   0.574E-03-0.347E-04
CGA:  14    -0.128308039203E+04   -0.20265E-03   -0.21517E-03 10640   0.591E-03 0.640E-04
CGA:  15    -0.128308065374E+04   -0.26171E-03   -0.23694E-03 10640   0.904E-03-0.114E-03
CGA:  16    -0.128308078427E+04   -0.13053E-03   -0.15080E-03 10640   0.570E-03 0.581E-04
CGA:  17    -0.128308082924E+04   -0.44970E-04   -0.98459E-04 10640   0.336E-03 0.139E-03
CGA:  18    -0.128308090579E+04   -0.76551E-04   -0.91272E-04 10640   0.271E-03 0.470E-04
CGA:  19    -0.128308098533E+04   -0.79542E-04   -0.70848E-04 10640   0.192E-03-0.311E-04
CGA:  20    -0.128308097923E+04    0.61016E-05   -0.23794E-04 10640   0.144E-03 0.829E-04
CGA:  21    -0.128308096749E+04    0.11742E-04   -0.25551E-04 10640   0.890E-04 0.104E-03
CGA:  22    -0.128308086636E+04    0.10113E-03   -0.11365E-03 10640   0.222E-02-0.264E-03
CGA:  23    -0.128308099264E+04   -0.12628E-03   -0.23202E-03 10640   0.130E-03 0.282E-03
CGA:  24    -0.128308100446E+04   -0.11821E-04   -0.24214E-04 10640   0.644E-04 0.392E-04
CGA:  25    -0.128308103791E+04   -0.33450E-04   -0.52630E-04 10640   0.246E-03-0.120E-03
CGA:  26    -0.128308103431E+04    0.36033E-05   -0.28451E-04 10640   0.666E-04 0.895E-04
CGA:  27    -0.128308103997E+04   -0.56617E-05   -0.15167E-04 10640   0.356E-04 0.327E-04
CGA:  28    -0.128308097193E+04    0.68032E-04   -0.55233E-04 10640   0.822E-03-0.207E-03
CGA:  29    -0.128308100878E+04   -0.36849E-04   -0.10165E-03 10640   0.178E-03 0.189E-03
CGA:  30    -0.128308105901E+04   -0.50225E-04   -0.56228E-04 10640   0.681E-04 0.303E-04
CGA:  31    -0.128307755682E+04    0.35022E-02   -0.19447E-02 10640   0.292E-01-0.152E-02
CGA:  32    -0.128308039763E+04   -0.28408E-02   -0.32734E-02 10640   0.169E-02 0.188E-02
CGA:  33    -0.128308093859E+04   -0.54096E-03   -0.60274E-03 10640   0.662E-03 0.140E-03
CGA:  34    -0.128308115757E+04   -0.21898E-03   -0.12050E-03 10640   0.950E-04-0.168E-03
CGA:  35    -0.128308114929E+04    0.82803E-05   -0.92612E-05 10640   0.226E-04 0.297E-04
  21 F= -.12830811E+04 E0= -.12830811E+04  d E =-.165384E-01  mag=    47.0000
       N       E                     dE             d eps       ncg     rms          ort
SDA:   1    -0.127713699522E+04    0.59442E+01    0.00000E+00 10640   0.153E+02 0.000E+00
CGA:   2    -0.128104984509E+04   -0.39128E+01   -0.39112E+01 10640   0.719E+01 0.637E-02
CGA:   3    -0.128260014136E+04   -0.15503E+01   -0.15513E+01 10640   0.128E+01 0.108E-01
CGA:   4    -0.128281740587E+04   -0.21726E+00   -0.21794E+00 10640   0.246E+00 0.135E-02
CGA:   5    -0.128286802324E+04   -0.50617E-01   -0.51208E-01 10640   0.540E-01 0.170E-02
CGA:   6    -0.128288050376E+04   -0.12481E-01   -0.12289E-01 10640   0.210E-01-0.579E-03
CGA:   7    -0.128288412778E+04   -0.36240E-02   -0.35876E-02 10640   0.748E-02 0.232E-04
CGA:   8    -0.128288588070E+04   -0.17529E-02   -0.17361E-02 10640   0.327E-02-0.435E-04
CGA:   9    -0.128288680203E+04   -0.92134E-03   -0.96538E-03 10640   0.179E-02 0.194E-03
CGA:  10    -0.128288729883E+04   -0.49680E-03   -0.53460E-03 10640   0.125E-02 0.163E-03
CGA:  11    -0.128288758091E+04   -0.28208E-03   -0.33633E-03 10640   0.777E-03 0.211E-03
CGA:  12    -0.128288790222E+04   -0.32130E-03   -0.33633E-03 10640   0.907E-03 0.123E-03
CGA:  13    -0.128288810882E+04   -0.20660E-03   -0.28436E-03 10640   0.692E-03 0.362E-03
CGA:  14    -0.128288841298E+04   -0.30416E-03   -0.35293E-03 10640   0.457E-03 0.437E-03
CGA:  15    -0.128288857230E+04   -0.15932E-03   -0.16494E-03 10640   0.328E-03 0.507E-04
CGA:  16    -0.128288861025E+04   -0.37954E-04   -0.74173E-04 10640   0.194E-03 0.138E-03
CGA:  17    -0.128288866123E+04   -0.50975E-04   -0.75909E-04 10640   0.153E-03 0.140E-03
CGA:  18    -0.128288871405E+04   -0.52825E-04   -0.52116E-04 10640   0.229E-03-0.694E-05
CGA:  19    -0.128288874321E+04   -0.29164E-04   -0.56585E-04 10640   0.168E-03 0.153E-03
CGA:  20    -0.128288876490E+04   -0.21688E-04   -0.30926E-04 10640   0.832E-04 0.378E-04
CGA:  21    -0.128288879329E+04   -0.28392E-04   -0.34358E-04 10640   0.969E-04 0.747E-04
CGA:  22    -0.128288880865E+04   -0.15360E-04   -0.21556E-04 10640   0.747E-04 0.327E-04
CGA:  23    -0.128288882698E+04   -0.18327E-04   -0.28351E-04 10640   0.800E-04 0.839E-04
CGA:  24    -0.128288884732E+04   -0.20338E-04   -0.22503E-04 10640   0.837E-04 0.187E-04
CGA:  25    -0.128288886573E+04   -0.18411E-04   -0.28446E-04 10640   0.757E-04 0.864E-04
CGA:  26    -0.128288887599E+04   -0.10254E-04   -0.15367E-04 10640   0.517E-04 0.281E-04
CGA:  27    -0.128288888393E+04   -0.79401E-05   -0.16515E-04 10640   0.573E-04 0.596E-04
CGA:  28    -0.128288889810E+04   -0.14176E-04   -0.16029E-04 10640   0.538E-04 0.207E-04
CGA:  29    -0.128288890974E+04   -0.11638E-04   -0.18860E-04 10640   0.487E-04 0.672E-04
CGA:  30    -0.128288891496E+04   -0.52177E-05   -0.97251E-05 10640   0.349E-04 0.282E-04
  22 F= -.12828889E+04 E0= -.12828889E+04  d E =0.192234E+00  mag=    47.0000
       N       E                     dE             d eps       ncg     rms          ort
SDA:   1    -0.126855094843E+04    0.14338E+02    0.00000E+00 10640   0.423E+02 0.000E+00
CGA:   2    -0.127758759359E+04   -0.90366E+01   -0.90387E+01 10640   0.178E+02 0.194E-01
CGA:   3    -0.128189736831E+04   -0.43098E+01   -0.43115E+01 10640   0.407E+01 0.985E-02
CGA:   4    -0.128254055393E+04   -0.64319E+00   -0.64462E+00 10640   0.648E+00 0.107E-01
CGA:   5    -0.128267570519E+04   -0.13515E+00   -0.13530E+00 10640   0.173E+00 0.142E-02
CGA:   6    -0.128270892921E+04   -0.33224E-01   -0.33237E-01 10640   0.642E-01 0.332E-03
CGA:   7    -0.128272071311E+04   -0.11784E-01   -0.11736E-01 10640   0.178E-01-0.261E-03
CGA:   8    -0.128272496754E+04   -0.42544E-02   -0.42282E-02 10640   0.794E-02-0.369E-03
CGA:   9    -0.128272669574E+04   -0.17282E-02   -0.17697E-02 10640   0.403E-02 0.563E-03
CGA:  10    -0.128272773743E+04   -0.10417E-02   -0.10534E-02 10640   0.211E-02 0.212E-03
CGA:  11    -0.128272822852E+04   -0.49109E-03   -0.51934E-03 10640   0.991E-03 0.446E-03
CGA:  12    -0.128272853633E+04   -0.30780E-03   -0.31790E-03 10640   0.624E-03 0.349E-03
CGA:  13    -0.128272871441E+04   -0.17808E-03   -0.20167E-03 10640   0.426E-03 0.443E-03
CGA:  14    -0.128272879049E+04   -0.76087E-04   -0.92657E-04 10640   0.309E-03 0.230E-03
CGA:  15    -0.128272883427E+04   -0.43778E-04   -0.59249E-04 10640   0.292E-03 0.164E-03
CGA:  16    -0.128272887034E+04   -0.36069E-04   -0.51142E-04 10640   0.266E-03 0.142E-03
CGA:  17    -0.128272893618E+04   -0.65840E-04   -0.86503E-04 10640   0.232E-03 0.360E-03
CGA:  18    -0.128272896333E+04   -0.27147E-04   -0.39602E-04 10640   0.210E-03 0.121E-03
CGA:  19    -0.128272898860E+04   -0.25270E-04   -0.36732E-04 10640   0.196E-03 0.124E-03
CGA:  20    -0.128272900837E+04   -0.19768E-04   -0.32296E-04 10640   0.177E-03 0.127E-03
CGA:  21    -0.128272903512E+04   -0.26755E-04   -0.34553E-04 10640   0.178E-03 0.122E-03
CGA:  22    -0.128272905044E+04   -0.15313E-04   -0.27557E-04 10640   0.157E-03 0.122E-03
CGA:  23    -0.128272907681E+04   -0.26369E-04   -0.31951E-04 10640   0.159E-03 0.119E-03
CGA:  24    -0.128272908931E+04   -0.12507E-04   -0.23952E-04 10640   0.141E-03 0.117E-03
CGA:  25    -0.128272911418E+04   -0.24867E-04   -0.29114E-04 10640   0.142E-03 0.115E-03
CGA:  26    -0.128272912495E+04   -0.10773E-04   -0.21158E-04 10640   0.128E-03 0.112E-03
CGA:  27    -0.128272914767E+04   -0.22716E-04   -0.26245E-04 10640   0.127E-03 0.110E-03
CGA:  28    -0.128272915736E+04   -0.96947E-05   -0.18953E-04 10640   0.117E-03 0.107E-03
CGA:  29    -0.128272917761E+04   -0.20250E-04   -0.23471E-04 10640   0.115E-03 0.105E-03
CGA:  30    -0.128272918666E+04   -0.90431E-05   -0.17193E-04 10640   0.108E-03 0.102E-03
CGA:  31    -0.128272920435E+04   -0.17692E-04   -0.20869E-04 10640   0.105E-03 0.998E-04
CGA:  32    -0.128272921298E+04   -0.86359E-05   -0.15757E-04 10640   0.998E-04 0.972E-04
CGA:  33    -0.128272922816E+04   -0.15174E-04   -0.18471E-04 10640   0.965E-04 0.947E-04
CGA:  34    -0.128272923651E+04   -0.83547E-05   -0.14556E-04 10640   0.928E-04 0.921E-04
CGA:  35    -0.128272924932E+04   -0.12805E-04   -0.16305E-04 10640   0.897E-04 0.896E-04
CGA:  36    -0.128272925740E+04   -0.80862E-05   -0.13506E-04 10640   0.867E-04 0.871E-04
CGA:  37    -0.128272926812E+04   -0.10717E-04   -0.14411E-04 10640   0.840E-04 0.847E-04
[...]
       N       E                     dE             d eps       ncg     rms          ort
SDA:   1    -0.127243719988E+04    0.10755E+02    0.00000E+00 10640   0.356E+02 0.000E+00
CGA:   2    -0.127924531370E+04   -0.68081E+01   -0.68066E+01 10640   0.128E+02 0.250E-01
CGA:   3    -0.128251619618E+04   -0.32709E+01   -0.32722E+01 10640   0.367E+01 0.939E-02
CGA:   4    -0.128309037372E+04   -0.57418E+00   -0.57510E+00 10640   0.494E+00 0.817E-02
CGA:   5    -0.128319825160E+04   -0.10788E+00   -0.10780E+00 10640   0.128E+00-0.106E-02
CGA:   6    -0.128322474089E+04   -0.26489E-01   -0.26562E-01 10640   0.457E-01 0.113E-02
CGA:   7    -0.128323314379E+04   -0.84029E-02   -0.82308E-02 10640   0.145E-01-0.159E-02
CGA:   8    -0.128323602193E+04   -0.28781E-02   -0.29021E-02 10640   0.492E-02 0.347E-03
CGA:   9    -0.128323772906E+04   -0.17071E-02   -0.17992E-02 10640   0.400E-02-0.117E-02
CGA:  10    -0.128323828231E+04   -0.55324E-03   -0.55201E-03 10640   0.171E-02-0.326E-05
CGA:  11    -0.128323884795E+04   -0.56565E-03   -0.61998E-03 10640   0.128E-02-0.642E-03
CGA:  12    -0.128323169779E+04    0.71502E-02   -0.38718E-02 10640   0.484E-01-0.561E-02
CGA:  13    -0.128323761947E+04   -0.59217E-02   -0.63576E-02 10640   0.737E-02 0.200E-02
CGA:  14    -0.128323973399E+04   -0.21145E-02   -0.20790E-02 10640   0.292E-02-0.156E-03
CGA:  15    -0.128324027286E+04   -0.53887E-03   -0.58122E-03 10640   0.118E-02 0.156E-03
CGA:  16    -0.128324056926E+04   -0.29639E-03   -0.31368E-03 10640   0.563E-03 0.801E-04
CGA:  17    -0.128324067454E+04   -0.10528E-03   -0.13215E-03 10640   0.268E-03 0.113E-03
CGA:  18    -0.128324076765E+04   -0.93112E-04   -0.93984E-04 10640   0.107E-03 0.569E-05
CGA:  19    -0.128324077119E+04   -0.35384E-05   -0.17383E-04 10640   0.567E-04 0.494E-04
CGA:  20    -0.128324077567E+04   -0.44763E-05   -0.15410E-04 10640   0.378E-04 0.456E-04
CGA:  21    -0.128324080821E+04   -0.32544E-04    0.19045E-03 10640   0.116E-03-0.157E-04
CGA:  22    -0.128324082386E+04   -0.15643E-04   -0.16946E-04 10640   0.160E-03 0.771E-05
CGA:  23    -0.128324082252E+04    0.13315E-05   -0.17187E-04 10640   0.690E-04 0.610E-04
CGA:  24    -0.128324082107E+04    0.14577E-05   -0.10410E-04 10640   0.486E-04 0.423E-04
CGA:  25    -0.128324086468E+04   -0.43612E-04    0.47078E-04 10640   0.117E-03-0.270E-04
CGA:  26    -0.128324086521E+04   -0.53579E-06   -0.94720E-05 10640   0.151E-04 0.306E-04
  44 F= -.12832409E+04 E0= -.12832409E+04  d E =-.488854E-01  mag=    47.0000
       N       E                     dE             d eps       ncg     rms          ort
SDA:   1    -0.128181360859E+04    0.14273E+01    0.00000E+00 10640   0.493E+01 0.000E+00
CGA:   2    -0.128275355766E+04   -0.93995E+00   -0.94001E+00 10640   0.178E+01 0.299E-02
CGA:   3    -0.128320810123E+04   -0.45454E+00   -0.45459E+00 10640   0.507E+00-0.606E-03
CGA:   4    -0.128328747176E+04   -0.79371E-01   -0.79559E-01 10640   0.678E-01 0.128E-02
CGA:   5    -0.128330259223E+04   -0.15120E-01   -0.15072E-01 10640   0.165E-01-0.457E-03
CGA:   6    -0.128330625295E+04   -0.36607E-02   -0.37003E-02 10640   0.441E-02 0.426E-03
CGA:   7    -0.128330726202E+04   -0.10091E-02   -0.99132E-03 10640   0.157E-02-0.180E-03
CGA:   8    -0.128330751821E+04   -0.25619E-03   -0.27549E-03 10640   0.581E-03 0.154E-03
CGA:   9    -0.128330767769E+04   -0.15948E-03   -0.16180E-03 10640   0.251E-03 0.460E-04
CGA:  10    -0.128330776122E+04   -0.83532E-04   -0.83724E-04 10640   0.213E-03-0.281E-04
CGA:  11    -0.128330778194E+04   -0.20714E-04   -0.27754E-04 10640   0.720E-04 0.455E-04
CGA:  12    -0.128330778510E+04   -0.31640E-05   -0.10806E-04 10640   0.455E-04 0.447E-04
CGA:  13    -0.128330779813E+04   -0.13030E-04   -0.13031E-04 10640   0.558E-04-0.439E-06
CGA:  14    -0.128330780190E+04   -0.37681E-05   -0.77965E-05 10640   0.224E-04 0.278E-04
  45 F= -.12833078E+04 E0= -.12833078E+04  d E =-.669367E-01  mag=    47.0000
       N       E                     dE             d eps       ncg     rms          ort
SDA:   1    -0.128324442621E+04    0.63372E-01    0.00000E+00 10640   0.173E+00 0.000E+00
CGA:   2    -0.128328228578E+04   -0.37860E-01   -0.37902E-01 10640   0.736E-01 0.914E-03
CGA:   3    -0.128329976938E+04   -0.17484E-01   -0.17482E-01 10640   0.164E-01-0.693E-04
CGA:   4    -0.128330240249E+04   -0.26331E-02   -0.26344E-02 10640   0.271E-02 0.173E-04
CGA:   5    -0.128330305626E+04   -0.65376E-03   -0.64738E-03 10640   0.855E-03-0.305E-03
CGA:   6    -0.128330316680E+04   -0.11055E-03   -0.12232E-03 10640   0.246E-03 0.122E-03
CGA:   7    -0.128330321880E+04   -0.52001E-04   -0.53624E-04 10640   0.814E-04 0.261E-04
CGA:   8    -0.128330323504E+04   -0.16240E-04   -0.17789E-04 10640   0.404E-04 0.293E-04
CGA:   9    -0.128330324655E+04   -0.11507E-04   -0.12156E-04 10640   0.295E-04 0.244E-04
CGA:  10    -0.128330321741E+04    0.29138E-04   -0.35917E-04 10640   0.601E-03-0.669E-04
CGA:  11    -0.128330327043E+04   -0.53017E-04   -0.64780E-04 10640   0.729E-04 0.642E-04
CGA:  12    -0.128330328144E+04   -0.11011E-04   -0.12858E-04 10640   0.173E-04 0.146E-04
CGA:  13    -0.128330328224E+04   -0.80348E-06   -0.27775E-05 10640   0.138E-04 0.135E-04
  46 F= -.12833033E+04 E0= -.12833033E+04  d E =0.451965E-02  mag=    47.0000
       N       E                     dE             d eps       ncg     rms          ort
SDA:   1    -0.127696199374E+04    0.63413E+01    0.00000E+00 10640   0.166E+02 0.000E+00
CGA:   2    -0.128121063952E+04   -0.42486E+01   -0.42489E+01 10640   0.775E+01 0.149E-01
CGA:   3    -0.128288278306E+04   -0.16721E+01   -0.16722E+01 10640   0.146E+01-0.500E-02
CGA:   4    -0.128311899856E+04   -0.23622E+00   -0.23590E+00 10640   0.303E+00 0.151E-02
CGA:   5    -0.128317640065E+04   -0.57402E-01   -0.57234E-01 10640   0.836E-01-0.281E-02
CGA:   6    -0.128319164686E+04   -0.15246E-01   -0.15235E-01 10640   0.285E-01 0.134E-03
CGA:   7    -0.128319776947E+04   -0.61226E-02   -0.60928E-02 10640   0.843E-02-0.743E-03
CGA:   8    -0.128319975889E+04   -0.19894E-02   -0.19895E-02 10640   0.449E-02 0.226E-04
CGA:   9    -0.128320112841E+04   -0.13695E-02   -0.14694E-02 10640   0.502E-02-0.130E-02
CGA:  10    -0.128320191380E+04   -0.78539E-03   -0.77213E-03 10640   0.246E-02-0.346E-03
CGA:  11    -0.128320274718E+04   -0.83338E-03   -0.11908E-02 10640   0.437E-02-0.134E-02
CGA:  12    -0.128320342366E+04   -0.67648E-03   -0.70780E-03 10640   0.152E-02 0.310E-03
CGA:  13    -0.128320379641E+04   -0.37275E-03   -0.38112E-03 10640   0.777E-03 0.325E-03
CGA:  14    -0.128320430774E+04   -0.51133E-03   -0.49559E-03 10640   0.149E-02 0.555E-04
CGA:  15    -0.128320456700E+04   -0.25926E-03   -0.29307E-03 10640   0.722E-03 0.381E-03
CGA:  16    -0.128320490169E+04   -0.33469E-03   -0.31668E-03 10640   0.111E-02 0.216E-03
CGA:  17    -0.128320537907E+04   -0.47738E-03   -0.49009E-03 10640   0.192E-02-0.191E-03
CGA:  18    -0.128320578808E+04   -0.40900E-03   -0.41308E-03 10640   0.237E-02 0.238E-03
CGA:  19    -0.128320632192E+04   -0.53385E-03   -0.55360E-03 10640   0.207E-02 0.240E-03
CGA:  20    -0.128320693940E+04   -0.61747E-03   -0.61758E-03 10640   0.170E-02-0.542E-03
CGA:  21    -0.128320714872E+04   -0.20932E-03   -0.20740E-03 10640   0.969E-03-0.669E-04
CGA:  22    -0.128320725523E+04   -0.10651E-03   -0.13055E-03 10640   0.563E-03 0.173E-03
CGA:  23    -0.128320734946E+04   -0.94226E-04   -0.10374E-03 10640   0.272E-03 0.828E-04
CGA:  24    -0.128320741519E+04   -0.65735E-04   -0.64504E-04 10640   0.217E-03-0.296E-04
CGA:  25    -0.128320742180E+04   -0.66120E-05   -0.19766E-04 10640   0.155E-03 0.866E-04
CGA:  26    -0.128320742114E+04    0.66871E-06   -0.18480E-04 10640   0.105E-03 0.119E-03
CGA:  27    -0.128320744265E+04   -0.21515E-04   -0.22509E-04 10640   0.695E-04 0.461E-04
CGA:  28    -0.128320744873E+04   -0.60767E-05   -0.13485E-04 10640   0.448E-04 0.737E-04
  47 F= -.12832074E+04 E0= -.12832074E+04  d E =0.958335E-01  mag=    47.0000
       N       E                     dE             d eps       ncg     rms          ort
SDA:   1    -0.127510614334E+04    0.81013E+01    0.00000E+00 10640   0.247E+02 0.000E+00
CGA:   2    -0.128017809419E+04   -0.50720E+01   -0.50724E+01 10640   0.982E+01 0.190E-01
CGA:   3    -0.128257992417E+04   -0.24018E+01   -0.24015E+01 10640   0.248E+01 0.103E-01
CGA:   4    -0.128296636556E+04   -0.38644E+00   -0.38632E+00 10640   0.395E+00 0.562E-02
CGA:   5    -0.128304609285E+04   -0.79727E-01   -0.79726E-01 10640   0.108E+00 0.476E-04
CGA:   6    -0.128306738172E+04   -0.21289E-01   -0.21250E-01 10640   0.392E-01-0.134E-02
CGA:   7    -0.128307478180E+04   -0.74001E-02   -0.74021E-02 10640   0.101E-01 0.117E-03
CGA:   8    -0.128307719555E+04   -0.24138E-02   -0.24110E-02 10640   0.446E-02 0.155E-03
CGA:   9    -0.128307844494E+04   -0.12494E-02   -0.12701E-02 10640   0.340E-02-0.337E-03
CGA:  10    -0.128307907216E+04   -0.62722E-03   -0.63378E-03 10640   0.149E-02 0.317E-03
CGA:  11    -0.128307964980E+04   -0.57763E-03   -0.93294E-03 10640   0.348E-02-0.102E-02
CGA:  12    -0.128308001824E+04   -0.36845E-03   -0.43847E-03 10640   0.872E-03 0.625E-03
CGA:  13    -0.128308028833E+04   -0.27009E-03   -0.26682E-03 10640   0.529E-03 0.125E-03
CGA:  14    -0.128308052348E+04   -0.23515E-03   -0.22515E-03 10640   0.866E-03 0.699E-04
CGA:  15    -0.128308080801E+04   -0.28453E-03   -0.27285E-03 10640   0.690E-03 0.313E-03
CGA:  16    -0.128308119525E+04   -0.38724E-03   -0.37990E-03 10640   0.131E-02 0.334E-04
CGA:  17    -0.128308158487E+04   -0.38962E-03   -0.39008E-03 10640   0.126E-02-0.432E-04
CGA:  18    -0.128308196724E+04   -0.38237E-03   -0.38567E-03 10640   0.195E-02-0.931E-04
CGA:  19    -0.128308247332E+04   -0.50608E-03   -0.51605E-03 10640   0.147E-02-0.403E-03
CGA:  20    -0.128308271030E+04   -0.23698E-03   -0.21755E-03 10640   0.855E-03-0.295E-03
CGA:  21    -0.128308286620E+04   -0.15590E-03   -0.32518E-03 10640   0.173E-02-0.804E-03
CGA:  22    -0.128308310753E+04   -0.24133E-03   -0.24095E-03 10640   0.372E-03 0.306E-05
CGA:  23    -0.128308323075E+04   -0.12321E-03   -0.11978E-03 10640   0.242E-03 0.560E-04
CGA:  24    -0.128308329865E+04   -0.67899E-04   -0.18107E-03 10640   0.157E-02-0.289E-03
CGA:  25    -0.128308343696E+04   -0.13832E-03   -0.16776E-03 10640   0.171E-03 0.173E-03
CGA:  26    -0.128308336813E+04    0.68830E-04   -0.16107E-03 10640   0.196E-02-0.398E-03
CGA:  27    -0.128308358893E+04   -0.22080E-03   -0.24836E-03 10640   0.140E-03 0.166E-03
CGA:  28    -0.128308363131E+04   -0.42378E-04   -0.42313E-04 10640   0.120E-03-0.461E-05
CGA:  29    -0.128308365531E+04   -0.23998E-04   -0.24621E-04 10640   0.527E-04 0.785E-05
CGA:  30    -0.128308371281E+04   -0.57501E-04    0.10445E-04 10640   0.679E-04 0.189E-04
CGA:  31    -0.128308379224E+04   -0.79424E-04    0.27029E-04 10640   0.472E-04 0.539E-04
CGA:  32    -0.128308378837E+04    0.38651E-05   -0.32162E-05 10640   0.251E-04 0.322E-04
  48 F= -.12830838E+04 E0= -.12830838E+04  d E =0.123660E+00  mag=    47.0000
       N       E                     dE             d eps       ncg     rms          ort
SDA:   1    -0.127848437418E+04    0.45994E+01    0.00000E+00 10640   0.153E+02 0.000E+00
CGA:   2    -0.128141269411E+04   -0.29283E+01   -0.29294E+01 10640   0.547E+01 0.632E-02
CGA:   3    -0.128282475455E+04   -0.14121E+01   -0.14121E+01 10640   0.152E+01 0.664E-02
CGA:   4    -0.128306112793E+04   -0.23637E+00   -0.23697E+00 10640   0.215E+00 0.524E-02
CGA:   5    -0.128310706826E+04   -0.45940E-01   -0.45947E-01 10640   0.542E-01 0.204E-03
CGA:   6    -0.128311904109E+04   -0.11973E-01   -0.11966E-01 10640   0.187E-01-0.145E-03
CGA:   7    -0.128312240084E+04   -0.33597E-02   -0.33521E-02 10640   0.582E-02-0.693E-04
CGA:   8    -0.128312386501E+04   -0.14642E-02   -0.14664E-02 10640   0.377E-02-0.119E-02
CGA:   9    -0.128312438455E+04   -0.51955E-03   -0.54044E-03 10640   0.136E-02 0.301E-03
CGA:  10    -0.128312483110E+04   -0.44655E-03   -0.45741E-03 10640   0.946E-03-0.170E-03
CGA:  11    -0.128312506968E+04   -0.23857E-03   -0.29205E-03 10640   0.168E-02-0.524E-03
CGA:  12    -0.128312521222E+04   -0.14254E-03   -0.17286E-03 10640   0.315E-03 0.203E-03
CGA:  13    -0.128312509120E+04    0.12102E-03   -0.34081E-03 10640   0.218E-02-0.646E-03
CGA:  14    -0.128312551922E+04   -0.42802E-03   -0.43649E-03 10640   0.649E-03 0.103E-03
CGA:  15    -0.128312561234E+04   -0.93124E-04   -0.10003E-03 10640   0.959E-04 0.532E-04
CGA:  16    -0.128312567234E+04   -0.60003E-04    0.24629E-03 10640   0.710E-04 0.351E-04
CGA:  17    -0.128312557731E+04    0.95033E-04   -0.66232E-04 10640   0.204E-02-0.187E-03
CGA:  18    -0.128312597173E+04   -0.39442E-03   -0.31673E-03 10640   0.465E-03-0.223E-03
CGA:  19    -0.128312603855E+04   -0.66824E-04   -0.84832E-04 10640   0.660E-04 0.660E-04
CGA:  20    -0.128312606843E+04   -0.29884E-04   -0.27213E-04 10640   0.984E-04-0.251E-04
CGA:  21    -0.128312404950E+04    0.20189E-02   -0.11114E-02 10640   0.832E-02-0.871E-03
CGA:  22    -0.128312528536E+04   -0.12359E-02   -0.14389E-02 10640   0.301E-02 0.366E-03
CGA:  23    -0.128312623160E+04   -0.94624E-03   -0.91775E-03 10640   0.697E-03-0.527E-04
CGA:  24    -0.128312628293E+04   -0.51326E-04   -0.91435E-04 10640   0.147E-03 0.641E-04
CGA:  25    -0.128312634059E+04   -0.57667E-04   -0.48315E-04 10640   0.683E-04-0.207E-04
CGA:  26    -0.128312636569E+04   -0.25096E-04   -0.15899E-04 10640   0.549E-04-0.198E-04
CGA:  27    -0.128312636642E+04   -0.73348E-06   -0.59776E-05 10640   0.197E-04 0.954E-05
  49 F= -.12831264E+04 E0= -.12831264E+04  d E =-.425781E-01  mag=    47.0000
       N       E                     dE             d eps       ncg     rms          ort
SDA:   1    -0.128292052087E+04    0.20584E+00    0.00000E+00 10640   0.715E+00 0.000E+00
CGA:   2    -0.128305679911E+04   -0.13628E+00   -0.13651E+00 10640   0.255E+00 0.856E-03
CGA:   3    -0.128312283423E+04   -0.66035E-01   -0.65886E-01 10640   0.724E-01-0.556E-03
CGA:   4    -0.128313420894E+04   -0.11375E-01   -0.11279E-01 10640   0.104E-01-0.167E-03
CGA:   5    -0.128313651238E+04   -0.23034E-02   -0.22013E-02 10640   0.301E-02-0.270E-03
CGA:   6    -0.128313703948E+04   -0.52709E-03   -0.54197E-03 10640   0.107E-02 0.441E-04
CGA:   7    -0.128313724868E+04   -0.20920E-03   -0.19972E-03 10640   0.292E-03-0.251E-04
CGA:   8    -0.128313727728E+04   -0.28603E-04   -0.50362E-04 10640   0.835E-04 0.618E-04
CGA:   9    -0.128313733051E+04   -0.53235E-04   -0.55988E-04 10640   0.170E-03-0.675E-04
CGA:  10    -0.128313734874E+04   -0.18231E-04   -0.26465E-04 10640   0.331E-04 0.231E-04
CGA:  11    -0.128313740308E+04   -0.54337E-04    0.20574E-04 10640   0.137E-03-0.492E-04
CGA:  12    -0.128313739353E+04    0.95503E-05   -0.11064E-04 10640   0.275E-04 0.499E-04
  50 F= -.12831374E+04 E0= -.12831374E+04  d E =-.110271E-01  mag=    47.0000
       N       E                     dE             d eps       ncg     rms          ort
SDA:   1    -0.128240964648E+04    0.72776E+00    0.00000E+00 10640   0.226E+01 0.000E+00
CGA:   2    -0.128285498503E+04   -0.44534E+00   -0.44587E+00 10640   0.845E+00 0.291E-02
CGA:   3    -0.128306646998E+04   -0.21148E+00   -0.21131E+00 10640   0.230E+00-0.141E-02
CGA:   4    -0.128310237056E+04   -0.35901E-01   -0.35836E-01 10640   0.376E-01 0.817E-04
CGA:   5    -0.128310993898E+04   -0.75684E-02   -0.73614E-02 10640   0.118E-01-0.924E-03
CGA:   6    -0.128311186167E+04   -0.19227E-02   -0.19489E-02 10640   0.370E-02 0.146E-03
CGA:   7    -0.128311268725E+04   -0.82559E-03   -0.80556E-03 10640   0.979E-03-0.108E-03
CGA:   8    -0.128311285545E+04   -0.16820E-03   -0.19489E-03 10640   0.340E-03 0.147E-03
CGA:   9    -0.128311301952E+04   -0.16407E-03   -0.21449E-03 10640   0.956E-03-0.295E-03
CGA:  10    -0.128311310048E+04   -0.80955E-04   -0.11033E-03 10640   0.193E-03 0.112E-03
CGA:  11    -0.128311317894E+04   -0.78465E-04   -0.10552E-03 10640   0.498E-03-0.235E-03
CGA:  12    -0.128311323098E+04   -0.52036E-04   -0.70676E-04 10640   0.118E-03 0.793E-04
CGA:  13    -0.128311325879E+04   -0.27816E-04   -0.27316E-04 10640   0.472E-04-0.292E-05
CGA:  14    -0.128311327062E+04   -0.11827E-04   -0.13387E-04 10640   0.444E-04 0.230E-04
CGA:  15    -0.128311333067E+04   -0.60047E-04    0.42096E-04 10640   0.360E-04 0.423E-04
CGA:  16    -0.128311334314E+04   -0.12475E-04   -0.12539E-04 10640   0.297E-04 0.927E-05
CGA:  17    -0.128311334315E+04   -0.86984E-08   -0.45748E-04 10640   0.655E-03-0.528E-04
CGA:  18    -0.128311340744E+04   -0.64294E-04   -0.69517E-04 10640   0.625E-04 0.198E-04
CGA:  19    -0.128311341070E+04   -0.32505E-05   -0.10352E-04 10640   0.262E-04 0.318E-04
CGA:  20    -0.128311330051E+04    0.11018E-03   -0.44687E-04 10640   0.148E-02-0.116E-03
CGA:  21    -0.128311340041E+04   -0.99901E-04   -0.14797E-03 10640   0.719E-04 0.150E-03
CGA:  22    -0.128311340798E+04   -0.75704E-05   -0.14188E-04 10640   0.411E-04 0.272E-04
CGA:  23    -0.128311343096E+04   -0.22978E-04   -0.27696E-04 10640   0.877E-04-0.605E-04
CGA:  24    -0.128311343126E+04   -0.29965E-06   -0.99463E-05 10640   0.266E-04 0.323E-04
  51 F= -.12831134E+04 E0= -.12831134E+04  d E =0.239623E-01  mag=    47.0000
       N       E                     dE             d eps       ncg     rms          ort
SDA:   1    -0.127247539977E+04    0.10638E+02    0.00000E+00 10640   0.330E+02 0.000E+00
CGA:   2    -0.127901046292E+04   -0.65351E+01   -0.65315E+01 10640   0.126E+02 0.557E-01
CGA:   3    -0.128216358836E+04   -0.31531E+01   -0.31587E+01 10640   0.342E+01 0.578E-02
CGA:   4    -0.128269260300E+04   -0.52901E+00   -0.53016E+00 10640   0.480E+00 0.239E-01
CGA:   5    -0.128279694173E+04   -0.10434E+00   -0.10436E+00 10640   0.119E+00-0.227E-03
CGA:   6    -0.128282283367E+04   -0.25892E-01   -0.26155E-01 10640   0.363E-01 0.235E-02
CGA:   7    -0.128283092212E+04   -0.80885E-02   -0.78162E-02 10640   0.130E-01-0.202E-02
CGA:   8    -0.128283317687E+04   -0.22547E-02   -0.23667E-02 10640   0.474E-02 0.808E-03
CGA:   9    -0.128283443869E+04   -0.12618E-02   -0.12948E-02 10640   0.213E-02 0.441E-03
CGA:  10    -0.128283495437E+04   -0.51568E-03   -0.54813E-03 10640   0.117E-02 0.352E-03
CGA:  11    -0.128283518679E+04   -0.23242E-03   -0.27849E-03 10640   0.486E-03 0.386E-03
CGA:  12    -0.128283535961E+04   -0.17282E-03   -0.18102E-03 10640   0.355E-03 0.217E-03
CGA:  13    -0.128283551594E+04   -0.15633E-03   -0.15749E-03 10640   0.380E-03 0.125E-03
CGA:  14    -0.128283559555E+04   -0.79616E-04   -0.10910E-03 10640   0.251E-03 0.283E-03
CGA:  15    -0.128283566341E+04   -0.67854E-04   -0.70872E-04 10640   0.159E-03 0.107E-03
CGA:  16    -0.128283577306E+04   -0.10965E-03   -0.11429E-03 10640   0.492E-03-0.246E-04
CGA:  17    -0.128283582466E+04   -0.51605E-04   -0.64876E-04 10640   0.419E-03 0.803E-04
CGA:  18    -0.128283587366E+04   -0.49000E-04   -0.65445E-04 10640   0.419E-03 0.925E-04
CGA:  19    -0.128283603562E+04   -0.16196E-03   -0.16210E-03 10640   0.744E-03-0.139E-04
CGA:  20    -0.128283617134E+04   -0.13572E-03   -0.10817E-03 10640   0.502E-03-0.185E-03
CGA:  21    -0.128283625038E+04   -0.79037E-04   -0.68427E-04 10640   0.592E-03-0.983E-04
CGA:  22    -0.128283630398E+04   -0.53601E-04   -0.61835E-04 10640   0.475E-03 0.472E-04
CGA:  23    -0.128283634990E+04   -0.45921E-04   -0.60103E-04 10640   0.268E-03 0.832E-04
CGA:  24    -0.128283639638E+04   -0.46480E-04   -0.45733E-04 10640   0.192E-03-0.827E-05
CGA:  25    -0.128283644734E+04   -0.50962E-04   -0.58528E-04 10640   0.331E-03-0.162E-03
CGA:  26    -0.128283647293E+04   -0.25587E-04   -0.34752E-04 10640   0.694E-04 0.569E-04
CGA:  27    -0.128283650572E+04   -0.32794E-04   -0.37052E-04 10640   0.137E-03-0.217E-04
CGA:  28    -0.128283652877E+04   -0.23051E-04   -0.29665E-04 10640   0.232E-03-0.147E-03
CGA:  29    -0.128283655439E+04   -0.25616E-04   -0.33470E-04 10640   0.942E-04 0.615E-04
CGA:  30    -0.128283658527E+04   -0.30878E-04   -0.30966E-04 10640   0.160E-04 0.132E-04
