       N       E                     dE             d eps       ncg     rms          ort
DAV:   1     0.102735462696E+05    0.10274E+05   -0.42542E+05 10640   0.155E+03
DAV:   2    -0.119888377555E+03   -0.10393E+05   -0.98086E+04 10640   0.474E+02
DAV:   3    -0.152272292674E+04   -0.14028E+04   -0.13093E+04 10640   0.182E+02
DAV:   4    -0.160417331334E+04   -0.81450E+02   -0.79267E+02 10640   0.461E+01
DAV:   5    -0.160650224202E+04   -0.23289E+01   -0.23216E+01 10640   0.833E+00
SDA:   6    -0.727874129607E+03    0.87863E+03   -0.23216E+01 10640   0.292E+04 0.000E+00
CGA:   7    -0.112784898801E+04   -0.39997E+03   -0.39697E+03 10640   0.123E+04-0.209E+02
CGA:   8    -0.115678369388E+04   -0.28935E+02   -0.64518E+02 10640   0.111E+04-0.671E+03
CGA:   9    -0.117204680454E+04   -0.15263E+02   -0.51086E+02 10640   0.134E+04-0.899E+03
CGA:  10    -0.117394318657E+04   -0.18964E+01   -0.66707E+02 10640   0.145E+04-0.992E+03
CGA:  11    -0.118619572015E+04   -0.12253E+02   -0.65558E+02 10640   0.151E+04-0.132E+04
CGA:  12    -0.119052618140E+04   -0.43305E+01   -0.69943E+02 10640   0.151E+04-0.126E+04
CGA:  13    -0.120706416697E+04   -0.16538E+02   -0.63076E+02 10640   0.122E+04-0.124E+04
CGA:  14    -0.122452908699E+04   -0.17465E+02   -0.46646E+02 10640   0.697E+03-0.799E+03
CGA:  15    -0.123706303210E+04   -0.12534E+02   -0.24898E+02 10640   0.305E+03-0.344E+03
CGA:  16    -0.124985228847E+04   -0.12789E+02   -0.86071E+01 10640   0.541E+02 0.643E+02
CGA:  17    -0.125449227889E+04   -0.46400E+01   -0.46871E+01 10640   0.150E+03-0.197E+01
CGA:  18    -0.126938434750E+04   -0.14892E+02   -0.14519E+02 10640   0.134E+03 0.966E+00
CGA:  19    -0.127192657166E+04   -0.25422E+01   -0.41286E+01 10640   0.526E+02-0.498E+02
CGA:  20    -0.127270906354E+04   -0.78249E+00   -0.71181E+00 10640   0.262E+02 0.146E+01
CGA:  21    -0.127336421616E+04   -0.65515E+00   -0.80466E+00 10640   0.262E+02-0.497E+01
CGA:  22    -0.127444231130E+04   -0.10781E+01   -0.12698E+01 10640   0.558E+02-0.226E+01
CGA:  23    -0.127671446236E+04   -0.22722E+01   -0.21736E+01 10640   0.249E+02-0.714E+00
CGA:  24    -0.127760031649E+04   -0.88585E+00   -0.95944E+00 10640   0.117E+02-0.213E+01
CGA:  25    -0.127828165651E+04   -0.68134E+00   -0.74095E+00 10640   0.112E+02-0.558E+00
CGA:  26    -0.127940884511E+04   -0.11272E+01   -0.11278E+01 10640   0.920E+01-0.213E+00
CGA:  27    -0.128020303727E+04   -0.79419E+00   -0.80088E+00 10640   0.441E+01-0.267E+00
CGA:  28    -0.128097503065E+04   -0.77199E+00   -0.76145E+00 10640   0.503E+01 0.792E-02
CGA:  29    -0.128182922109E+04   -0.85419E+00   -0.86940E+00 10640   0.244E+01-0.392E+00
CGA:  30    -0.128218549291E+04   -0.35627E+00   -0.36620E+00 10640   0.149E+01-0.252E+00
CGA:  31    -0.128260307955E+04   -0.41759E+00   -0.59408E+00 10640   0.121E+01-0.476E+00
CGA:  32    -0.128274839637E+04   -0.14532E+00   -0.15411E+00 10640   0.714E+00-0.161E+00
CGA:  33    -0.128293292682E+04   -0.18453E+00   -0.20392E+00 10640   0.600E+00-0.931E-01
CGA:  34    -0.128301827672E+04   -0.85350E-01   -0.85323E-01 10640   0.219E+00 0.300E-03
CGA:  35    -0.128307855287E+04   -0.60276E-01   -0.56812E-01 10640   0.153E+00 0.310E-01
CGA:  36    -0.128311339802E+04   -0.34845E-01   -0.33293E-01 10640   0.715E-01 0.399E-01
CGA:  37    -0.128312756453E+04   -0.14167E-01   -0.14072E-01 10640   0.357E-01 0.350E-01
CGA:  38    -0.128313452120E+04   -0.69567E-02   -0.73830E-02 10640   0.223E-01 0.290E-01
CGA:  39    -0.128313812295E+04   -0.36017E-02   -0.35300E-02 10640   0.135E-01 0.130E-01
CGA:  40    -0.128313961445E+04   -0.14915E-02   -0.17457E-02 10640   0.103E-01 0.106E-01
CGA:  41    -0.128314073176E+04   -0.11173E-02   -0.13228E-02 10640   0.841E-02 0.898E-02
CGA:  42    -0.128314141066E+04   -0.67890E-03   -0.96122E-03 10640   0.726E-02 0.774E-02
CGA:  43    -0.128314191345E+04   -0.50279E-03   -0.78257E-03 10640   0.642E-02 0.680E-02
CGA:  44    -0.128314226953E+04   -0.35608E-03   -0.64124E-03 10640   0.577E-02 0.607E-02
CGA:  45    -0.128314253266E+04   -0.26312E-03   -0.54170E-03 10640   0.526E-02 0.549E-02
CGA:  46    -0.128314272806E+04   -0.19540E-03   -0.46467E-03 10640   0.483E-02 0.502E-02
CGA:  47    -0.128314287410E+04   -0.14604E-03   -0.40406E-03 10640   0.447E-02 0.464E-02
CGA:  48    -0.128314298340E+04   -0.10930E-03   -0.35527E-03 10640   0.417E-02 0.431E-02
CGA:  49    -0.128314306505E+04   -0.81643E-04   -0.31532E-03 10640   0.391E-02 0.403E-02
CGA:  50    -0.128314312564E+04   -0.60595E-04   -0.28211E-03 10640   0.368E-02 0.378E-02
CGA:  51    -0.128314317011E+04   -0.44467E-04   -0.25418E-03 10640   0.348E-02 0.357E-02
CGA:  52    -0.128314320216E+04   -0.32051E-04   -0.23043E-03 10640   0.330E-02 0.338E-02
CGA:  53    -0.128314322462E+04   -0.22464E-04   -0.21006E-03 10640   0.314E-02 0.322E-02
CGA:  54    -0.128314323968E+04   -0.15063E-04   -0.19245E-03 10640   0.300E-02 0.307E-02
CGA:  55    -0.128314324910E+04   -0.94126E-05   -0.17715E-03 10640   0.288E-02 0.293E-02
CGA:  56    -0.128314325418E+04   -0.50854E-05   -0.16376E-03 10640   0.276E-02 0.281E-02
CGA:  57    -0.128314325593E+04   -0.17498E-05   -0.15191E-03 10640   0.266E-02 0.271E-02
CGA:  58    -0.128314325511E+04    0.81889E-06   -0.14136E-03 10640   0.256E-02 0.261E-02
CGA:  59    -0.128314325233E+04    0.27804E-05   -0.13193E-03 10640   0.248E-02 0.252E-02
CGA:  60    -0.128314324807E+04    0.42616E-05   -0.12345E-03 10640   0.240E-02 0.243E-02
CGA:  61    -0.128314324271E+04    0.53634E-05   -0.11579E-03 10640   0.232E-02 0.236E-02
CGA:  62    -0.128314323655E+04    0.61589E-05   -0.10884E-03 10640   0.226E-02 0.229E-02
CGA:  63    -0.128314322983E+04    0.67139E-05   -0.10252E-03 10640   0.219E-02 0.222E-02
CGA:  64    -0.128314322276E+04    0.70773E-05   -0.96751E-04 10640   0.213E-02 0.216E-02
CGA:  65    -0.128314321547E+04    0.72920E-05   -0.91462E-04 10640   0.208E-02 0.211E-02
CGA:  66    -0.128314320808E+04    0.73899E-05   -0.86600E-04 10640   0.203E-02 0.205E-02
CGA:  67    -0.128314320068E+04    0.73958E-05   -0.82116E-04 10640   0.198E-02 0.200E-02
CGA:  68    -0.128314319335E+04    0.73318E-05   -0.77970E-04 10640   0.194E-02 0.196E-02
CGA:  69    -0.128314318614E+04    0.72128E-05   -0.74126E-04 10640   0.190E-02 0.192E-02
CGA:  70    -0.128314317908E+04    0.70540E-05   -0.70553E-04 10640   0.186E-02 0.188E-02
CGA:  71    -0.128314317222E+04    0.68645E-05   -0.67226E-04 10640   0.182E-02 0.184E-02
CGA:  72    -0.128314316557E+04    0.66514E-05   -0.64120E-04 10640   0.179E-02 0.180E-02
CGA:  73    -0.128314315914E+04    0.64248E-05   -0.61215E-04 10640   0.175E-02 0.177E-02
CGA:  74    -0.128314315295E+04    0.61866E-05   -0.58493E-04 10640   0.172E-02 0.174E-02
CGA:  75    -0.128314314701E+04    0.59426E-05   -0.55938E-04 10640   0.169E-02 0.171E-02
CGA:  76    -0.128314314132E+04    0.56958E-05   -0.53537E-04 10640   0.166E-02 0.168E-02
CGA:  77    -0.128314313587E+04    0.54498E-05   -0.51276E-04 10640   0.164E-02 0.165E-02
CGA:  78    -0.128314313066E+04    0.52051E-05   -0.49145E-04 10640   0.161E-02 0.162E-02
CGA:  79    -0.128314312569E+04    0.49657E-05   -0.47133E-04 10640   0.159E-02 0.160E-02
CGA:  80    -0.128314312096E+04    0.47305E-05   -0.45232E-04 10640   0.157E-02 0.158E-02
CGA:  81    -0.128314311646E+04    0.45016E-05   -0.43433E-04 10640   0.154E-02 0.155E-02
CGA:  82    -0.128314311218E+04    0.42784E-05   -0.41729E-04 10640   0.152E-02 0.153E-02
CGA:  83    -0.128314310812E+04    0.40639E-05   -0.40113E-04 10640   0.150E-02 0.151E-02
CGA:  84    -0.128314310426E+04    0.38564E-05   -0.38579E-04 10640   0.148E-02 0.149E-02
CGA:  85    -0.128314310061E+04    0.36554E-05   -0.37122E-04 10640   0.147E-02 0.147E-02
CGA:  86    -0.128314309714E+04    0.34637E-05   -0.35737E-04 10640   0.145E-02 0.146E-02
CGA:  87    -0.128314309387E+04    0.32777E-05   -0.34419E-04 10640   0.143E-02 0.144E-02
CGA:  88    -0.128314309077E+04    0.31005E-05   -0.33163E-04 10640   0.142E-02 0.142E-02
CGA:  89    -0.128314308784E+04    0.29311E-05   -0.31967E-04 10640   0.140E-02 0.141E-02
CGA:  90    -0.128314308507E+04    0.27685E-05   -0.30826E-04 10640   0.139E-02 0.139E-02
CGA:  91    -0.128314308245E+04    0.26123E-05   -0.29737E-04 10640   0.137E-02 0.138E-02
CGA:  92    -0.128314307999E+04    0.24645E-05   -0.28696E-04 10640   0.136E-02 0.137E-02
CGA:  93    -0.128314307767E+04    0.23221E-05   -0.27703E-04 10640   0.135E-02 0.135E-02
CGA:  94    -0.128314307548E+04    0.21876E-05   -0.26752E-04 10640   0.133E-02 0.134E-02
CGA:  95    -0.128314307342E+04    0.20589E-05   -0.25842E-04 10640   0.132E-02 0.133E-02
CGA:  96    -0.128314307149E+04    0.19362E-05   -0.24971E-04 10640   0.131E-02 0.132E-02
CGA:  97    -0.128314306967E+04    0.18194E-05   -0.24137E-04 10640   0.130E-02 0.130E-02
CGA:  98    -0.128314306796E+04    0.17079E-05   -0.23338E-04 10640   0.129E-02 0.129E-02
CGA:  99    -0.128314306636E+04    0.16027E-05   -0.22571E-04 10640   0.128E-02 0.128E-02
CGA: 100    -0.128314306485E+04    0.15018E-05   -0.21835E-04 10640   0.127E-02 0.127E-02
CGA: 101    -0.128314306345E+04    0.14067E-05   -0.21129E-04 10640   0.126E-02 0.126E-02
CGA: 102    -0.128314306213E+04    0.13164E-05   -0.20451E-04 10640   0.125E-02 0.125E-02
CGA: 103    -0.128314306090E+04    0.12304E-05   -0.19799E-04 10640   0.124E-02 0.124E-02
CGA: 104    -0.128314305975E+04    0.11496E-05   -0.19173E-04 10640   0.123E-02 0.124E-02
CGA: 105    -0.128314305868E+04    0.10710E-05   -0.18571E-04 10640   0.122E-02 0.123E-02
CGA: 106    -0.128314305768E+04    0.99827E-06   -0.17992E-04 10640   0.122E-02 0.122E-02
CGA: 107    -0.128314305675E+04    0.92931E-06   -0.17434E-04 10640   0.121E-02 0.121E-02
CGA: 108    -0.128314305589E+04    0.86271E-06   -0.16898E-04 10640   0.120E-02 0.120E-02
CGA: 109    -0.128314305509E+04    0.80084E-06   -0.16381E-04 10640   0.119E-02 0.120E-02
CGA: 110    -0.128314305435E+04    0.74302E-06   -0.15883E-04 10640   0.119E-02 0.119E-02
CGA: 111    -0.128314305366E+04    0.68637E-06   -0.15403E-04 10640   0.118E-02 0.118E-02
CGA: 112    -0.128314305303E+04    0.63356E-06   -0.14940E-04 10640   0.117E-02 0.118E-02
CGA: 113    -0.128314305244E+04    0.58435E-06   -0.14493E-04 10640   0.117E-02 0.117E-02
CGA: 114    -0.128314305190E+04    0.53706E-06   -0.14062E-04 10640   0.116E-02 0.116E-02
CGA: 115    -0.128314305141E+04    0.49397E-06   -0.13647E-04 10640   0.115E-02 0.116E-02
CGA: 116    -0.128314305096E+04    0.45156E-06   -0.13245E-04 10640   0.115E-02 0.115E-02
CGA: 117    -0.128314305055E+04    0.41171E-06   -0.12858E-04 10640   0.114E-02 0.115E-02
CGA: 118    -0.128314305017E+04    0.37554E-06   -0.12483E-04 10640   0.114E-02 0.114E-02
CGA: 119    -0.128314304983E+04    0.34091E-06   -0.12122E-04 10640   0.113E-02 0.114E-02
CGA: 120    -0.128314304952E+04    0.30769E-06   -0.11772E-04 10640   0.113E-02 0.113E-02
CGA: 121    -0.128314304925E+04    0.27691E-06   -0.11434E-04 10640   0.112E-02 0.113E-02
CGA: 122    -0.128314304900E+04    0.24779E-06   -0.11107E-04 10640   0.112E-02 0.112E-02
CGA: 123    -0.128314304878E+04    0.22041E-06   -0.10791E-04 10640   0.111E-02 0.112E-02
CGA: 124    -0.128314304858E+04    0.19480E-06   -0.10485E-04 10640   0.111E-02 0.111E-02
CGA: 125    -0.128314304841E+04    0.17137E-06   -0.10189E-04 10640   0.111E-02 0.111E-02
   1 F= -.12831430E+04 E0= -.12831430E+04  d E =-.128314E+04  mag=    47.0000
       N       E                     dE             d eps       ncg     rms          ort
SDA:   1    -0.128314539033E+04   -0.23417E-02    0.00000E+00 10640   0.525E-02 0.000E+00
CGA:   2    -0.128314622392E+04   -0.83359E-03   -0.35715E-03 10640   0.204E-02 0.253E-02
CGA:   3    -0.128314644949E+04   -0.22557E-03   -0.16818E-03 10640   0.159E-02 0.245E-02
CGA:   4    -0.128314652498E+04   -0.75490E-04   -0.64594E-04 10640   0.140E-02 0.148E-02
CGA:   5    -0.128314659054E+04   -0.65563E-04   -0.56525E-04 10640   0.126E-02 0.132E-02
CGA:   6    -0.128314664766E+04   -0.57118E-04   -0.50107E-04 10640   0.115E-02 0.120E-02
CGA:   7    -0.128314669748E+04   -0.49815E-04   -0.44733E-04 10640   0.106E-02 0.110E-02
CGA:   8    -0.128314674112E+04   -0.43646E-04   -0.40229E-04 10640   0.990E-03 0.102E-02
CGA:   9    -0.128314677965E+04   -0.38527E-04   -0.36468E-04 10640   0.928E-03 0.957E-03
CGA:  10    -0.128314681397E+04   -0.34316E-04   -0.33330E-04 10640   0.876E-03 0.901E-03
CGA:  11    -0.128314684483E+04   -0.30859E-04   -0.30704E-04 10640   0.831E-03 0.852E-03
CGA:  12    -0.128314687285E+04   -0.28020E-04   -0.28497E-04 10640   0.792E-03 0.811E-03
CGA:  13    -0.128314689853E+04   -0.25684E-04   -0.26633E-04 10640   0.758E-03 0.774E-03
CGA:  14    -0.128314692228E+04   -0.23754E-04   -0.25049E-04 10640   0.728E-03 0.743E-03
CGA:  15    -0.128314694444E+04   -0.22155E-04   -0.23696E-04 10640   0.702E-03 0.715E-03
CGA:  16    -0.128314696527E+04   -0.20829E-04   -0.22535E-04 10640   0.678E-03 0.690E-03
CGA:  17    -0.128314698500E+04   -0.19728E-04   -0.21536E-04 10640   0.657E-03 0.667E-03
CGA:  18    -0.128314700381E+04   -0.18810E-04   -0.20670E-04 10640   0.638E-03 0.647E-03
CGA:  19    -0.128314702186E+04   -0.18048E-04   -0.19919E-04 10640   0.621E-03 0.630E-03
CGA:  20    -0.128314703927E+04   -0.17418E-04   -0.19267E-04 10640   0.606E-03 0.613E-03
CGA:  21    -0.128314705617E+04   -0.16897E-04   -0.18698E-04 10640   0.591E-03 0.598E-03
CGA:  22    -0.128314707264E+04   -0.16469E-04   -0.18201E-04 10640   0.578E-03 0.585E-03
CGA:  23    -0.128314708876E+04   -0.16123E-04   -0.17768E-04 10640   0.567E-03 0.573E-03
CGA:  24    -0.128314710461E+04   -0.15846E-04   -0.17390E-04 10640   0.556E-03 0.561E-03
CGA:  25    -0.128314712024E+04   -0.15628E-04   -0.17060E-04 10640   0.545E-03 0.551E-03
CGA:  26    -0.128314713570E+04   -0.15464E-04   -0.16775E-04 10640   0.536E-03 0.541E-03
CGA:  27    -0.128314715105E+04   -0.15348E-04   -0.16528E-04 10640   0.527E-03 0.532E-03
CGA:  28    -0.128314716632E+04   -0.15270E-04   -0.16314E-04 10640   0.519E-03 0.523E-03
CGA:  29    -0.128314718155E+04   -0.15229E-04   -0.16132E-04 10640   0.511E-03 0.515E-03
CGA:  30    -0.128314719677E+04   -0.15223E-04   -0.15979E-04 10640   0.504E-03 0.507E-03
CGA:  31    -0.128314721202E+04   -0.15247E-04   -0.15852E-04 10640   0.497E-03 0.500E-03
CGA:  32    -0.128314722731E+04   -0.15297E-04   -0.15749E-04 10640   0.490E-03 0.493E-03
CGA:  33    -0.128314724269E+04   -0.15375E-04   -0.15667E-04 10640   0.484E-03 0.487E-03
CGA:  34    -0.128314725816E+04   -0.15475E-04   -0.15607E-04 10640   0.478E-03 0.481E-03
CGA:  35    -0.128314727376E+04   -0.15597E-04   -0.15566E-04 10640   0.472E-03 0.475E-03
CGA:  36    -0.128314728950E+04   -0.15742E-04   -0.15544E-04 10640   0.466E-03 0.469E-03
CGA:  37    -0.128314730541E+04   -0.15907E-04   -0.15539E-04 10640   0.460E-03 0.463E-03
CGA:  38    -0.128314732150E+04   -0.16091E-04   -0.15551E-04 10640   0.455E-03 0.458E-03
CGA:  39    -0.128314733780E+04   -0.16295E-04   -0.15580E-04 10640   0.450E-03 0.453E-03
CGA:  40    -0.128314735432E+04   -0.16520E-04   -0.15625E-04 10640   0.445E-03 0.447E-03
CGA:  41    -0.128314737108E+04   -0.16764E-04   -0.15686E-04 10640   0.440E-03 0.442E-03
CGA:  42    -0.128314738810E+04   -0.17024E-04   -0.15762E-04 10640   0.435E-03 0.437E-03
CGA:  43    -0.128314740541E+04   -0.17307E-04   -0.15854E-04 10640   0.430E-03 0.432E-03
CGA:  44    -0.128314742302E+04   -0.17611E-04   -0.15962E-04 10640   0.425E-03 0.428E-03
CGA:  45    -0.128314744096E+04   -0.17934E-04   -0.16085E-04 10640   0.420E-03 0.423E-03
CGA:  46    -0.128314745923E+04   -0.18278E-04   -0.16224E-04 10640   0.416E-03 0.418E-03
CGA:  47    -0.128314747788E+04   -0.18647E-04   -0.16381E-04 10640   0.411E-03 0.413E-03
CGA:  48    -0.128314749692E+04   -0.19039E-04   -0.16555E-04 10640   0.406E-03 0.409E-03
CGA:  49    -0.128314751638E+04   -0.19459E-04   -0.16747E-04 10640   0.402E-03 0.404E-03
CGA:  50    -0.128314753628E+04   -0.19905E-04   -0.16958E-04 10640   0.397E-03 0.399E-03
CGA:  51    -0.128314755666E+04   -0.20379E-04   -0.17188E-04 10640   0.392E-03 0.395E-03
CGA:  52    -0.128314757755E+04   -0.20887E-04   -0.17439E-04 10640   0.388E-03 0.390E-03
CGA:  53    -0.128314759898E+04   -0.21428E-04   -0.17712E-04 10640   0.383E-03 0.385E-03
CGA:  54    -0.128314762098E+04   -0.22006E-04   -0.18010E-04 10640   0.378E-03 0.381E-03
CGA:  55    -0.128314764361E+04   -0.22628E-04   -0.18334E-04 10640   0.373E-03 0.376E-03
CGA:  56    -0.128314766690E+04   -0.23291E-04   -0.18684E-04 10640   0.369E-03 0.371E-03
CGA:  57    -0.128314769091E+04   -0.24007E-04   -0.19067E-04 10640   0.364E-03 0.366E-03
CGA:  58    -0.128314771569E+04   -0.24776E-04   -0.19482E-04 10640   0.359E-03 0.361E-03
CGA:  59    -0.128314774130E+04   -0.25610E-04   -0.19935E-04 10640   0.354E-03 0.356E-03
CGA:  60    -0.128314776781E+04   -0.26510E-04   -0.20427E-04 10640   0.348E-03 0.351E-03
CGA:  61    -0.128314779529E+04   -0.27488E-04   -0.20965E-04 10640   0.343E-03 0.346E-03
CGA:  62    -0.128314782385E+04   -0.28555E-04   -0.21555E-04 10640   0.338E-03 0.341E-03
CGA:  63    -0.128314785357E+04   -0.29719E-04   -0.22200E-04 10640   0.332E-03 0.335E-03
CGA:  64    -0.128314788457E+04   -0.31001E-04   -0.22912E-04 10640   0.327E-03 0.330E-03
CGA:  65    -0.128314791698E+04   -0.32414E-04   -0.23698E-04 10640   0.321E-03 0.324E-03
CGA:  66    -0.128314795096E+04   -0.33978E-04   -0.24568E-04 10640   0.315E-03 0.318E-03
CGA:  67    -0.128314798669E+04   -0.35725E-04   -0.25541E-04 10640   0.309E-03 0.312E-03
CGA:  68    -0.128314802437E+04   -0.37683E-04   -0.26630E-04 10640   0.303E-03 0.306E-03
CGA:  69    -0.128314806426E+04   -0.39893E-04   -0.27856E-04 10640   0.296E-03 0.299E-03
CGA:  70    -0.128314810667E+04   -0.42406E-04   -0.29248E-04 10640   0.289E-03 0.292E-03
CGA:  71    -0.128314815197E+04   -0.45298E-04   -0.30844E-04 10640   0.282E-03 0.285E-03
CGA:  72    -0.128314820062E+04   -0.48654E-04   -0.32691E-04 10640   0.274E-03 0.278E-03
CGA:  73    -0.128314825323E+04   -0.52607E-04   -0.34858E-04 10640   0.266E-03 0.270E-03
CGA:  74    -0.128314831055E+04   -0.57320E-04   -0.37428E-04 10640   0.257E-03 0.262E-03
CGA:  75    -0.128314837360E+04   -0.63057E-04   -0.40543E-04 10640   0.248E-03 0.253E-03
CGA:  76    -0.128314844382E+04   -0.70216E-04   -0.44410E-04 10640   0.238E-03 0.243E-03
CGA:  77    -0.128314852324E+04   -0.79421E-04   -0.49356E-04 10640   0.227E-03 0.232E-03
CGA:  78    -0.128314861499E+04   -0.91755E-04   -0.55949E-04 10640   0.214E-03 0.220E-03
CGA:  79    -0.128314872433E+04   -0.10934E-03   -0.65308E-04 10640   0.200E-03 0.207E-03
CGA:  80    -0.128314886116E+04   -0.13683E-03   -0.79919E-04 10640   0.182E-03 0.191E-03
CGA:  81    -0.128314904886E+04   -0.18769E-03   -0.10708E-03 10640   0.159E-03 0.170E-03
CGA:  82    -0.128314931319E+04   -0.26434E-03   -0.12739E-02 10640   0.129E-03 0.143E-03
CGA:  83    -0.128314971190E+04   -0.39871E-03   -0.10530E-02 10640   0.865E-04 0.105E-03
CGA:  84    -0.128314979898E+04   -0.87076E-04    0.30781E-03 10640   0.805E-04 0.812E-04
CGA:  85    -0.128315002892E+04   -0.22994E-03   -0.53718E-05 10640   0.170E-02-0.146E-04
CGA:  86    -0.128315065672E+04   -0.62780E-03   -0.45035E-03 10640   0.771E-03-0.113E-03
CGA:  87    -0.128315071321E+04   -0.56489E-04   -0.79260E-04 10640   0.267E-03 0.284E-04
CGA:  88    -0.128315062554E+04    0.87669E-04   -0.29103E-04 10640   0.585E-03 0.147E-04
CGA:  89    -0.128314541963E+04    0.52059E-02   -0.18048E-04 10640   0.435E-01 0.251E-02
CGA:  90    -0.128312159979E+04    0.23820E-01   -0.68131E-02 10640   0.156E+00 0.186E-01
CGA:  91    -0.128228053016E+04    0.84107E+00   -0.11491E-01 10640   0.631E+01 0.180E+00
CGA:  92    -0.128245786982E+04   -0.17734E+00   -0.17627E+01 10640   0.231E+01 0.571E+00
CGA:  93    -0.128094440132E+04    0.15135E+01   -0.38761E+00 10640   0.734E+01 0.117E+01
CGA:  94    -0.128081283559E+04    0.13157E+00   -0.19233E+01 10640   0.799E+01 0.275E+01
CGA:  95    -0.128047928809E+04    0.33355E+00   -0.25824E+01 10640   0.651E+01 0.344E+01
CGA:  96    -0.128016512345E+04    0.31416E+00   -0.18804E+01 10640   0.778E+01 0.523E+01
CGA:  97    -0.128208861424E+04   -0.19235E+01   -0.27343E+01 10640   0.254E+01 0.129E+01
CGA:  98    -0.128207324919E+04    0.15365E-01   -0.65740E+00 10640   0.294E+01 0.872E+00
CGA:  99    -0.128150115278E+04    0.57210E+00   -0.68663E+00 10640   0.405E+01 0.239E+01
CGA: 100    -0.128203478274E+04   -0.53363E+00   -0.10572E+01 10640   0.280E+01 0.990E+00
CGA: 101    -0.128209694578E+04   -0.62163E-01   -0.73798E+00 10640   0.171E+01 0.114E+01
CGA: 102    -0.128188644981E+04    0.21050E+00   -0.39660E+00 10640   0.273E+01 0.129E+01
CGA: 103    -0.128258295299E+04   -0.69650E+00   -0.82941E+00 10640   0.132E+01-0.105E+00
CGA: 104    -0.128274313605E+04   -0.16018E+00   -0.24699E+00 10640   0.506E+00-0.232E+00
CGA: 105    -0.128250761638E+04    0.23552E+00   -0.38966E+00 10640   0.605E+01-0.874E+00
CGA: 106    -0.128299457964E+04   -0.48696E+00   -0.72315E+00 10640   0.647E+00-0.149E+01
CGA: 107    -0.128307206530E+04   -0.77486E-01   -0.71089E-01 10640   0.112E+00 0.591E-01
CGA: 108    -0.128310907122E+04   -0.37006E-01   -0.37899E-01 10640   0.818E-01-0.944E-03
CGA: 109    -0.128312936481E+04   -0.20294E-01   -0.21482E-01 10640   0.291E-01-0.571E-03
CGA: 110    -0.128313621833E+04   -0.68535E-02   -0.69285E-02 10640   0.159E-01 0.598E-03
CGA: 111    -0.128314279839E+04   -0.65801E-02   -0.65405E-02 10640   0.244E-01-0.221E-02
CGA: 112    -0.128314845051E+04   -0.56521E-02   -0.51996E-02 10640   0.303E-02-0.409E-03
CGA: 113    -0.128314890142E+04   -0.45091E-03   -0.54246E-03 10640   0.160E-02 0.461E-03
CGA: 114    -0.128314953878E+04   -0.63736E-03   -0.63876E-03 10640   0.171E-02 0.734E-04
CGA: 115    -0.128314994922E+04   -0.41044E-03   -0.38407E-03 10640   0.861E-03-0.214E-04
CGA: 116    -0.128315020852E+04   -0.25930E-03   -0.23909E-03 10640   0.531E-03-0.129E-03
CGA: 117    -0.128315034332E+04   -0.13480E-03   -0.91281E-04 10640   0.373E-03-0.212E-03
CGA: 118    -0.128315042346E+04   -0.80145E-04   -0.67673E-04 10640   0.323E-03-0.152E-03
CGA: 119    -0.128315043089E+04   -0.74299E-05   -0.17788E-04 10640   0.227E-03 0.464E-04
CGA: 120    -0.128315043623E+04   -0.53407E-05   -0.27799E-04 10640   0.180E-03 0.961E-04
CGA: 121    -0.128315044925E+04   -0.13020E-04   -0.33783E-04 10640   0.156E-03 0.104E-03
CGA: 122    -0.128315050779E+04   -0.58535E-04   -0.84142E-04 10640   0.704E-03-0.123E-03
CGA: 123    -0.128315055226E+04   -0.44473E-04   -0.71916E-04 10640   0.518E-04 0.118E-03
CGA: 124    -0.128315055605E+04   -0.37921E-05   -0.83917E-05 10640   0.359E-04 0.243E-04
CGA: 125    -0.128315057481E+04   -0.18759E-04   -0.18368E-04 10640   0.563E-04 0.153E-04
CGA: 126    -0.128315058899E+04   -0.14182E-04   -0.14971E-04 10640   0.164E-04 0.851E-05
CGA: 127    -0.128315059077E+04   -0.17743E-05   -0.23957E-05 10640   0.508E-05 0.351E-05
   2 F= -.12831506E+04 E0= -.12831506E+04  d E =-.754236E-02  mag=    47.0000
       N       E                     dE             d eps       ncg     rms          ort
SDA:   1    -0.128305591802E+04    0.94671E-01    0.00000E+00 10640   0.427E+00 0.000E+00
CGA:   2    -0.128313820737E+04   -0.82289E-01   -0.82048E-01 10640   0.159E+00-0.202E-02
CGA:   3    -0.128317596713E+04   -0.37760E-01   -0.37870E-01 10640   0.522E-01 0.185E-02
CGA:   4    -0.128318371875E+04   -0.77516E-02   -0.76640E-02 10640   0.894E-02-0.606E-03
CGA:   5    -0.128318502521E+04   -0.13065E-02   -0.14070E-02 10640   0.203E-02 0.794E-03
CGA:   6    -0.128318554912E+04   -0.52392E-03   -0.51568E-03 10640   0.769E-03-0.167E-03
CGA:   7    -0.128318563830E+04   -0.89176E-04   -0.10903E-03 10640   0.187E-03 0.159E-03
CGA:   8    -0.128318569400E+04   -0.55700E-04   -0.55104E-04 10640   0.922E-04-0.201E-04
CGA:   9    -0.128318509320E+04    0.60080E-03   -0.32384E-03 10640   0.387E-02-0.504E-03
CGA:  10    -0.128318542557E+04   -0.33237E-03   -0.48930E-03 10640   0.644E-03 0.440E-03
CGA:  11    -0.128318559306E+04   -0.16748E-03   -0.16137E-03 10640   0.273E-03-0.237E-04
CGA:  12    -0.128318562394E+04   -0.30883E-04   -0.46130E-04 10640   0.885E-04 0.529E-04
CGA:  13    -0.128318564468E+04   -0.20746E-04   -0.23706E-04 10640   0.413E-04 0.131E-04
CGA:  14    -0.128318568739E+04   -0.42707E-04    0.40811E-03 10640   0.685E-04-0.249E-04
CGA:  15    -0.128318568035E+04    0.70456E-05   -0.45171E-05 10640   0.174E-04 0.311E-04
   3 F= -.12831857E+04 E0= -.12831857E+04  d E =-.350896E-01  mag=    47.0000
       N       E                     dE             d eps       ncg     rms          ort
SDA:   1    -0.127693069808E+04    0.62550E+01    0.00000E+00 10640   0.203E+02 0.000E+00
CGA:   2    -0.128094346102E+04   -0.40128E+01   -0.40085E+01 10640   0.756E+01 0.207E-01
CGA:   3    -0.128281188924E+04   -0.18684E+01   -0.18718E+01 10640   0.214E+01 0.918E-02
CGA:   4    -0.128313729670E+04   -0.32541E+00   -0.32488E+00 10640   0.364E+00 0.895E-02
CGA:   5    -0.128320498221E+04   -0.67686E-01   -0.68156E-01 10640   0.990E-01 0.327E-02
CGA:   6    -0.128322422397E+04   -0.19242E-01   -0.19075E-01 10640   0.324E-01-0.113E-02
CGA:   7    -0.128323054554E+04   -0.63216E-02   -0.64178E-02 10640   0.853E-02 0.740E-03
CGA:   8    -0.128323270258E+04   -0.21570E-02   -0.20896E-02 10640   0.469E-02-0.622E-03
CGA:   9    -0.128323357259E+04   -0.87001E-03   -0.88477E-03 10640   0.199E-02 0.121E-03
CGA:  10    -0.128323404634E+04   -0.47375E-03   -0.50434E-03 10640   0.725E-03 0.347E-03
CGA:  11    -0.128323430688E+04   -0.26053E-03   -0.26400E-03 10640   0.401E-03 0.166E-03
CGA:  12    -0.128323436986E+04   -0.62980E-04   -0.96107E-04 10640   0.229E-03 0.245E-03
CGA:  13    -0.128323448621E+04   -0.11636E-03   -0.17469E-03 10640   0.105E-02-0.133E-03
CGA:  14    -0.128323452005E+04   -0.33834E-04   -0.98733E-04 10640   0.189E-03 0.262E-03
CGA:  15    -0.128323452330E+04   -0.32508E-05   -0.28992E-04 10640   0.137E-03 0.123E-03
CGA:  16    -0.128323456816E+04   -0.44857E-04   -0.86679E-04 10640   0.119E-02-0.136E-03
CGA:  17    -0.128323460139E+04   -0.33233E-04   -0.95870E-04 10640   0.106E-03 0.250E-03
CGA:  18    -0.128323459310E+04    0.82832E-05   -0.97718E-05 10640   0.741E-04 0.728E-04
CGA:  19    -0.128323465235E+04   -0.59249E-04   -0.45192E-04 10640   0.130E-03 0.466E-04
CGA:  20    -0.128323464882E+04    0.35293E-05   -0.11439E-04 10640   0.585E-04 0.628E-04
   4 F= -.12832346E+04 E0= -.12832346E+04  d E =-.489685E-01  mag=    47.0000
       N       E                     dE             d eps       ncg     rms          ort
SDA:   1    -0.128283946974E+04    0.39518E+00    0.00000E+00 10640   0.140E+01 0.000E+00
CGA:   2    -0.128309812397E+04   -0.25865E+00   -0.25892E+00 10640   0.519E+00 0.321E-02
CGA:   3    -0.128321962273E+04   -0.12150E+00   -0.12133E+00 10640   0.202E+00-0.311E-02
CGA:   4    -0.128324817864E+04   -0.28556E-01   -0.28572E-01 10640   0.285E-01 0.981E-03
CGA:   5    -0.128325396307E+04   -0.57844E-02   -0.56810E-02 10640   0.803E-02-0.115E-02
CGA:   6    -0.128325533817E+04   -0.13751E-02   -0.13944E-02 10640   0.230E-02 0.204E-03
CGA:   7    -0.128325588988E+04   -0.55171E-03   -0.53956E-03 10640   0.869E-03-0.242E-03
CGA:   8    -0.128325601262E+04   -0.12274E-03   -0.12859E-03 10640   0.253E-03 0.544E-04
CGA:   9    -0.128325610145E+04   -0.88833E-04   -0.93643E-04 10640   0.168E-03-0.612E-04
CGA:  10    -0.128325620185E+04   -0.10040E-03    0.39470E-04 10640   0.857E-04-0.540E-05
CGA:  11    -0.128325625998E+04   -0.58130E-04    0.40877E-04 10640   0.498E-04-0.918E-05
CGA:  12    -0.128325630872E+04   -0.48734E-04    0.60880E-05 10640   0.347E-04-0.361E-05
CGA:  13    -0.128325634687E+04   -0.38154E-04    0.38132E-05 10640   0.261E-04 0.118E-05
CGA:  14    -0.128325636463E+04   -0.17756E-04    0.18414E-04 10640   0.173E-04 0.583E-05
CGA:  15    -0.128325639699E+04   -0.32363E-04    0.16213E-05 10640   0.111E-04 0.707E-05
CGA:  16    -0.128325640970E+04   -0.12707E-04    0.45249E-05 10640   0.681E-05 0.727E-05
CGA:  17    -0.128325640957E+04    0.12220E-06   -0.72641E-06 10640   0.428E-05 0.506E-05
   5 F= -.12832564E+04 E0= -.12832564E+04  d E =-.217608E-01  mag=    47.0000
       N       E                     dE             d eps       ncg     rms          ort
SDA:   1    -0.128317228998E+04    0.84120E-01    0.00000E+00 10640   0.287E+00 0.000E+00
CGA:   2    -0.128322814244E+04   -0.55852E-01   -0.55919E-01 10640   0.109E+00 0.112E-02
CGA:   3    -0.128325492231E+04   -0.26780E-01   -0.26765E-01 10640   0.368E-01-0.151E-02
CGA:   4    -0.128325992846E+04   -0.50061E-02   -0.50323E-02 10640   0.574E-02 0.298E-03
CGA:   5    -0.128326118943E+04   -0.12610E-02   -0.12322E-02 10640   0.209E-02-0.804E-03
CGA:   6    -0.128326145578E+04   -0.26635E-03   -0.27925E-03 10640   0.502E-03 0.145E-03
CGA:   7    -0.128326158805E+04   -0.13227E-03   -0.13262E-03 10640   0.178E-03-0.703E-04
CGA:   8    -0.128326162994E+04   -0.41884E-04   -0.46209E-04 10640   0.157E-03-0.720E-04
CGA:   9    -0.128326164672E+04   -0.16781E-04   -0.16187E-04 10640   0.716E-04-0.804E-05
CGA:  10    -0.128326169341E+04   -0.46688E-04    0.19437E-04 10640   0.467E-04-0.121E-04
CGA:  11    -0.128326174050E+04   -0.47093E-04    0.30955E-05 10640   0.498E-04-0.208E-04
CGA:  12    -0.128326177441E+04   -0.33908E-04    0.21571E-05 10640   0.343E-04-0.907E-05
CGA:  13    -0.128326178840E+04   -0.13994E-04    0.10946E-03 10640   0.420E-04-0.121E-04
CGA:  14    -0.128326181413E+04   -0.25734E-04    0.34199E-05 10640   0.335E-04-0.124E-04
CGA:  15    -0.128326183868E+04   -0.24543E-04    0.24734E-05 10640   0.388E-04-0.111E-04
CGA:  16    -0.128326186134E+04   -0.22661E-04    0.38940E-05 10640   0.365E-04-0.107E-04
CGA:  17    -0.128326188135E+04   -0.20013E-04    0.56530E-05 10640   0.300E-04-0.138E-04
CGA:  18    -0.128326189277E+04   -0.11415E-04    0.85016E-05 10640   0.287E-04-0.123E-04
CGA:  19    -0.128326189322E+04   -0.45638E-06   -0.13868E-05 10640   0.165E-04 0.578E-05
   6 F= -.12832619E+04 E0= -.12832619E+04  d E =-.548365E-02  mag=    47.0000
       N       E                     dE             d eps       ncg     rms          ort
SDA:   1    -0.128182490055E+04    0.14370E+01    0.00000E+00 10640   0.416E+01 0.000E+00
CGA:   2    -0.128276247512E+04   -0.93757E+00   -0.93757E+00 10640   0.182E+01 0.738E-03
CGA:   3    -0.128318734833E+04   -0.42487E+00   -0.42488E+00 10640   0.405E+00-0.222E-02
CGA:   4    -0.128324751034E+04   -0.60162E-01   -0.60240E-01 10640   0.793E-01 0.210E-02
CGA:   5    -0.128326234081E+04   -0.14830E-01   -0.14765E-01 10640   0.240E-01-0.191E-02
CGA:   6    -0.128326635600E+04   -0.40152E-02   -0.40485E-02 10640   0.638E-02 0.766E-03
CGA:   7    -0.128326803318E+04   -0.16772E-02   -0.17187E-02 10640   0.230E-02-0.939E-03
CGA:   8    -0.128326839633E+04   -0.36315E-03   -0.36677E-03 10640   0.899E-03 0.115E-03
CGA:   9    -0.128326866487E+04   -0.26853E-03   -0.37105E-03 10640   0.130E-02-0.583E-03
CGA:  10    -0.128326883186E+04   -0.16699E-03   -0.16982E-03 10640   0.306E-03 0.326E-04
CGA:  11    -0.128326862704E+04    0.20482E-03   -0.22916E-03 10640   0.349E-02-0.853E-03
CGA:  12    -0.128326896703E+04   -0.33999E-03   -0.37792E-03 10640   0.522E-03 0.287E-03
CGA:  13    -0.128326909311E+04   -0.12608E-03   -0.12488E-03 10640   0.663E-04-0.628E-04
CGA:  14    -0.128326912667E+04   -0.33562E-04    0.34124E-04 10640   0.299E-04 0.226E-04
CGA:  15    -0.128326916753E+04   -0.40864E-04    0.42337E-05 10640   0.264E-04 0.190E-04
CGA:  16    -0.128326918319E+04   -0.15658E-04    0.13200E-04 10640   0.243E-04 0.109E-04
CGA:  17    -0.128326921872E+04   -0.35525E-04    0.35462E-05 10640   0.188E-04 0.235E-04
CGA:  18    -0.128326923777E+04   -0.19058E-04    0.20044E-05 10640   0.134E-04 0.130E-04
CGA:  19    -0.128326925048E+04   -0.12703E-04    0.16354E-05 10640   0.132E-04 0.119E-04
CGA:  20    -0.128326926705E+04   -0.16574E-04    0.97761E-06 10640   0.143E-04 0.100E-04
CGA:  21    -0.128326924339E+04    0.23659E-04   -0.13952E-04 10640   0.767E-03-0.376E-04
CGA:  22    -0.128326935341E+04   -0.11002E-03   -0.78544E-04 10640   0.215E-04-0.949E-04
CGA:  23    -0.128326935265E+04    0.76619E-06   -0.19323E-05 10640   0.737E-05 0.855E-05
   7 F= -.12832694E+04 E0= -.12832694E+04  d E =-.745942E-02  mag=    47.0000
       N       E                     dE             d eps       ncg     rms          ort
SDA:   1    -0.127949691550E+04    0.37724E+01    0.00000E+00 10640   0.124E+02 0.000E+00
CGA:   2    -0.128185599823E+04   -0.23591E+01   -0.23527E+01 10640   0.442E+01 0.288E-01
CGA:   3    -0.128296533116E+04   -0.11093E+01   -0.11117E+01 10640   0.136E+01 0.514E-02
CGA:   4    -0.128316913571E+04   -0.20380E+00   -0.20338E+00 10640   0.212E+00 0.103E-01
CGA:   5    -0.128320960340E+04   -0.40468E-01   -0.40976E-01 10640   0.556E-01 0.283E-02
CGA:   6    -0.128322110716E+04   -0.11504E-01   -0.11455E-01 10640   0.182E-01-0.269E-03
CGA:   7    -0.128322461259E+04   -0.35054E-02   -0.35937E-02 10640   0.465E-02 0.574E-03
CGA:   8    -0.128322587521E+04   -0.12626E-02   -0.12145E-02 10640   0.277E-02-0.460E-03
CGA:   9    -0.128322627689E+04   -0.40169E-03   -0.45093E-03 10640   0.106E-02 0.295E-03
CGA:  10    -0.128322645445E+04   -0.17755E-03   -0.23788E-03 10640   0.427E-03 0.428E-03
CGA:  11    -0.128322654183E+04   -0.87382E-04   -0.11843E-03 10640   0.294E-03 0.224E-03
CGA:  12    -0.128322656165E+04   -0.19816E-04   -0.41533E-04 10640   0.176E-03 0.116E-03
CGA:  13    -0.128322659707E+04   -0.35423E-04   -0.52652E-04 10640   0.145E-03 0.164E-03
CGA:  14    -0.128322662247E+04   -0.25404E-04   -0.31193E-04 10640   0.147E-03 0.582E-04
CGA:  15    -0.128322662977E+04   -0.73009E-05   -0.33097E-04 10640   0.104E-03 0.173E-03
CGA:  16    -0.128322663048E+04   -0.71018E-06   -0.13743E-04 10640   0.814E-04 0.767E-04
CGA:  17    -0.128322664595E+04   -0.15467E-04   -0.19375E-04 10640   0.793E-04 0.701E-04
CGA:  18    -0.128322664578E+04    0.16827E-06   -0.10498E-04 10640   0.709E-04 0.672E-04
CGA:  19    -0.128322665586E+04   -0.10075E-04   -0.14857E-04 10640   0.681E-04 0.651E-04
CGA:  20    -0.128322665791E+04   -0.20535E-05   -0.10153E-04 10640   0.638E-04 0.622E-04
CGA:  21    -0.128322666641E+04   -0.85028E-05   -0.12810E-04 10640   0.611E-04 0.596E-04
   8 F= -.12832267E+04 E0= -.12832267E+04  d E =0.426862E-01  mag=    47.0000
       N       E                     dE             d eps       ncg     rms          ort
SDA:   1    -0.128221692841E+04    0.10097E+01    0.00000E+00 10640   0.363E+01 0.000E+00
CGA:   2    -0.128288067223E+04   -0.66374E+00   -0.66385E+00 10640   0.129E+01 0.521E-02
CGA:   3    -0.128319588348E+04   -0.31521E+00   -0.31517E+00 10640   0.482E+00-0.392E-02
CGA:   4    -0.128326513005E+04   -0.69247E-01   -0.69179E-01 10640   0.685E-01 0.108E-02
CGA:   5    -0.128327854293E+04   -0.13413E-01   -0.13282E-01 10640   0.196E-01-0.219E-02
CGA:   6    -0.128328205466E+04   -0.35117E-02   -0.35305E-02 10640   0.572E-02 0.332E-03
CGA:   7    -0.128328338188E+04   -0.13272E-02   -0.13159E-02 10640   0.201E-02-0.550E-03
CGA:   8    -0.128328366289E+04   -0.28100E-03   -0.29306E-03 10640   0.579E-03 0.147E-03
CGA:   9    -0.128328386891E+04   -0.20602E-03   -0.24043E-03 10640   0.510E-03-0.236E-03
CGA:  10    -0.128328406159E+04   -0.19268E-03    0.13318E-03 10640   0.283E-03-0.695E-04
CGA:  11    -0.128328419503E+04   -0.13344E-03    0.31002E-03 10640   0.120E-03-0.401E-04
CGA:  12    -0.128328428705E+04   -0.92016E-04    0.16177E-04 10640   0.585E-04 0.814E-05
CGA:  13    -0.128328433886E+04   -0.51809E-04    0.11663E-04 10640   0.329E-04 0.856E-05
CGA:  14    -0.128328437193E+04   -0.33069E-04    0.61522E-05 10640   0.194E-04 0.935E-05
CGA:  15    -0.128328440370E+04   -0.31774E-04    0.19896E-05 10640   0.118E-04 0.627E-05
CGA:  16    -0.128328443066E+04   -0.26957E-04    0.78554E-06 10640   0.726E-05 0.565E-05
CGA:  17    -0.128328444776E+04   -0.17108E-04    0.60585E-06 10640   0.501E-05 0.481E-05
CGA:  18    -0.128328445298E+04   -0.52168E-05    0.56880E-06 10640   0.309E-05 0.236E-05
   9 F= -.12832845E+04 E0= -.12832845E+04  d E =-.577866E-01  mag=    47.0000
       N       E                     dE             d eps       ncg     rms          ort
SDA:   1    -0.128309603142E+04    0.18842E+00    0.00000E+00 10640   0.665E+00 0.000E+00
CGA:   2    -0.128321865104E+04   -0.12262E+00   -0.12274E+00 10640   0.230E+00 0.215E-02
CGA:   3    -0.128327711813E+04   -0.58467E-01   -0.58486E-01 10640   0.830E-01-0.261E-02
CGA:   4    -0.128328879476E+04   -0.11677E-01   -0.11701E-01 10640   0.122E-01 0.399E-03
CGA:   5    -0.128329138436E+04   -0.25896E-02   -0.25482E-02 10640   0.406E-02-0.123E-02
CGA:   6    -0.128329196927E+04   -0.58491E-03   -0.60432E-03 10640   0.104E-02 0.270E-03
CGA:   7    -0.128329225748E+04   -0.28821E-03   -0.29619E-03 10640   0.460E-03-0.243E-03
CGA:   8    -0.128329231489E+04   -0.57410E-04   -0.59001E-04 10640   0.174E-03 0.234E-04
CGA:   9    -0.128329236762E+04   -0.52730E-04   -0.68854E-04 10640   0.204E-03-0.113E-03
CGA:  10    -0.128329074480E+04    0.16228E-02   -0.87756E-03 10640   0.129E-01-0.149E-02
CGA:  11    -0.128329229262E+04   -0.15478E-02   -0.17376E-02 10640   0.156E-02 0.671E-03
CGA:  12    -0.128329257362E+04   -0.28100E-03   -0.25109E-03 10640   0.101E-03-0.109E-03
CGA:  13    -0.128329258274E+04   -0.91237E-05   -0.14061E-04 10640   0.219E-04 0.191E-04
CGA:  14    -0.128329259336E+04   -0.10616E-04   -0.10824E-04 10640   0.253E-04-0.115E-04
CGA:  15    -0.128329261729E+04   -0.23927E-04    0.26996E-04 10640   0.413E-04-0.186E-04
CGA:  16    -0.128329261656E+04    0.72307E-06   -0.36008E-05 10640   0.813E-05 0.140E-04
  10 F= -.12832926E+04 E0= -.12832926E+04  d E =-.816358E-02  mag=    47.0000
       N       E                     dE             d eps       ncg     rms          ort
SDA:   1    -0.128314366950E+04    0.14895E+00    0.00000E+00 10640   0.515E+00 0.000E+00
CGA:   2    -0.128324184090E+04   -0.98171E-01   -0.98352E-01 10640   0.178E+00 0.104E-02
CGA:   3    -0.128328872132E+04   -0.46880E-01   -0.46736E-01 10640   0.530E-01-0.155E-02
CGA:   4    -0.128329648856E+04   -0.77672E-02   -0.78127E-02 10640   0.892E-02 0.294E-03
CGA:   5    -0.128329834990E+04   -0.18613E-02   -0.17718E-02 10640   0.287E-02-0.597E-03
CGA:   6    -0.128329876206E+04   -0.41217E-03   -0.44519E-03 10640   0.773E-03 0.196E-03
CGA:   7    -0.128329900729E+04   -0.24523E-03   -0.23567E-03 10640   0.374E-03-0.212E-03
CGA:   8    -0.128329905418E+04   -0.46896E-04   -0.49100E-04 10640   0.158E-03 0.152E-04
CGA:   9    -0.128329911083E+04   -0.56646E-04   -0.68690E-04 10640   0.258E-03-0.124E-03
CGA:  10    -0.128329918946E+04   -0.78630E-04   -0.71009E-04 10640   0.235E-03-0.151E-03
CGA:  11    -0.128329920708E+04   -0.17622E-04   -0.23142E-04 10640   0.254E-04 0.250E-04
CGA:  12    -0.128329899142E+04    0.21566E-03   -0.11617E-03 10640   0.168E-02-0.163E-03
CGA:  13    -0.128329936820E+04   -0.37678E-03   -0.32068E-03 10640   0.200E-03-0.148E-03
CGA:  14    -0.128329936482E+04    0.33819E-05   -0.17099E-04 10640   0.291E-04 0.455E-04
  11 F= -.12832994E+04 E0= -.12832994E+04  d E =-.674825E-02  mag=    47.0000
       N       E                     dE             d eps       ncg     rms          ort
SDA:   1    -0.128050503378E+04    0.27943E+01    0.00000E+00 10640   0.940E+01 0.000E+00
CGA:   2    -0.128224344089E+04   -0.17384E+01   -0.17290E+01 10640   0.331E+01 0.483E-01
CGA:   3    -0.128305746382E+04   -0.81402E+00   -0.81639E+00 10640   0.120E+01 0.460E-02
CGA:   4    -0.128323210836E+04   -0.17464E+00   -0.17438E+00 10640   0.177E+00 0.724E-02
CGA:   5    -0.128326446250E+04   -0.32354E-01   -0.32935E-01 10640   0.459E-01 0.279E-02
CGA:   6    -0.128327400092E+04   -0.95384E-02   -0.94753E-02 10640   0.151E-01-0.347E-03
CGA:   7    -0.128327684862E+04   -0.28477E-02   -0.29403E-02 10640   0.411E-02 0.445E-03
CGA:   8    -0.128327784050E+04   -0.99188E-03   -0.94055E-03 10640   0.195E-02-0.253E-03
CGA:   9    -0.128327822976E+04   -0.38926E-03   -0.40264E-03 10640   0.817E-03 0.722E-04
CGA:  10    -0.128327834831E+04   -0.11854E-03   -0.17468E-03 10640   0.280E-03 0.286E-03
CGA:  11    -0.128327838464E+04   -0.36331E-04   -0.74993E-04 10640   0.145E-03 0.198E-03
CGA:  12    -0.128327840130E+04   -0.16660E-04   -0.31103E-04 10640   0.104E-03 0.855E-04
CGA:  13    -0.128327840861E+04   -0.73124E-05   -0.19210E-04 10640   0.920E-04 0.625E-04
CGA:  14    -0.128327840789E+04    0.71596E-06   -0.12932E-04 10640   0.736E-04 0.606E-04
CGA:  15    -0.128327841124E+04   -0.33469E-05   -0.13384E-04 10640   0.679E-04 0.581E-04
  12 F= -.12832784E+04 E0= -.12832784E+04  d E =0.209536E-01  mag=    47.0000
       N       E                     dE             d eps       ncg     rms          ort
SDA:   1    -0.128153532746E+04    0.17431E+01    0.00000E+00 10640   0.617E+01 0.000E+00
CGA:   2    -0.128264975830E+04   -0.11144E+01   -0.11132E+01 10640   0.217E+01 0.136E-01
CGA:   3    -0.128317996292E+04   -0.53020E+00   -0.53018E+00 10640   0.839E+00-0.432E-02
CGA:   4    -0.128330104788E+04   -0.12108E+00   -0.12076E+00 10640   0.115E+00 0.445E-02
CGA:   5    -0.128332342577E+04   -0.22378E-01   -0.22120E-01 10640   0.321E-01-0.216E-02
CGA:   6    -0.128332936146E+04   -0.59357E-02   -0.59918E-02 10640   0.967E-02 0.564E-03
CGA:   7    -0.128333156840E+04   -0.22069E-02   -0.21562E-02 10640   0.316E-02-0.604E-03
CGA:   8    -0.128333204543E+04   -0.47703E-03   -0.50136E-03 10640   0.951E-03 0.197E-03
CGA:   9    -0.128333238112E+04   -0.33569E-03   -0.34836E-03 10640   0.683E-03-0.237E-03
CGA:  10    -0.128333224607E+04    0.13505E-03   -0.36927E-03 10640   0.442E-02-0.118E-02
CGA:  11    -0.128333270320E+04   -0.45713E-03   -0.47880E-03 10640   0.601E-03 0.110E-03
CGA:  12    -0.128333286628E+04   -0.16308E-03   -0.16386E-03 10640   0.220E-03 0.204E-04
CGA:  13    -0.128333048521E+04    0.23811E-02   -0.12906E-02 10640   0.204E-01-0.171E-02
CGA:  14    -0.128333240772E+04   -0.19225E-02   -0.22182E-02 10640   0.167E-02 0.102E-02
CGA:  15    -0.128333290272E+04   -0.49500E-03   -0.47434E-03 10640   0.104E-02-0.778E-04
CGA:  16    -0.128333307502E+04   -0.17230E-03   -0.17103E-03 10640   0.234E-03-0.861E-06
CGA:  17    -0.128333312004E+04   -0.45017E-04   -0.52825E-04 10640   0.827E-04 0.285E-04
CGA:  18    -0.128333316394E+04   -0.43899E-04   -0.37933E-04 10640   0.203E-03-0.758E-04
CGA:  19    -0.128333317066E+04   -0.67259E-05   -0.20721E-04 10640   0.212E-04 0.374E-04
  13 F= -.12833332E+04 E0= -.12833332E+04  d E =-.547594E-01  mag=    47.0000
       N       E                     dE             d eps       ncg     rms          ort
SDA:   1    -0.128331061963E+04    0.22544E-01    0.00000E+00 10640   0.913E-01 0.000E+00
CGA:   2    -0.128332763649E+04   -0.17017E-01   -0.17074E-01 10640   0.319E-01 0.250E-03
CGA:   3    -0.128333597345E+04   -0.83370E-02   -0.81957E-02 10640   0.111E-01-0.779E-03
CGA:   4    -0.128333754018E+04   -0.15667E-02   -0.15882E-02 10640   0.169E-02 0.912E-04
CGA:   5    -0.128333793730E+04   -0.39712E-03   -0.36037E-03 10640   0.549E-03-0.177E-03
CGA:   6    -0.128333799099E+04   -0.53694E-04   -0.74547E-04 10640   0.139E-03 0.824E-04
CGA:   7    -0.128333804764E+04   -0.56649E-04   -0.52475E-04 10640   0.105E-03-0.641E-04
CGA:   8    -0.128333806907E+04   -0.21434E-04   -0.22888E-04 10640   0.216E-03-0.906E-04
CGA:   9    -0.128333809010E+04   -0.21026E-04   -0.26332E-04 10640   0.490E-04 0.200E-04
CGA:  10    -0.128333802821E+04    0.61889E-04   -0.58718E-04 10640   0.662E-03-0.168E-03
CGA:  11    -0.128333812649E+04   -0.98283E-04   -0.10751E-03 10640   0.176E-03 0.378E-04
CGA:  12    -0.128333816473E+04   -0.38241E-04   -0.34132E-04 10640   0.312E-04-0.185E-04
CGA:  13    -0.128333817187E+04   -0.71369E-05   -0.66033E-05 10640   0.145E-04-0.342E-05
  14 F= -.12833382E+04 E0= -.12833382E+04  d E =-.500121E-02  mag=    47.0000
       N       E                     dE             d eps       ncg     rms          ort
SDA:   1    -0.128223996862E+04    0.10982E+01    0.00000E+00 10640   0.357E+01 0.000E+00
CGA:   2    -0.128293446478E+04   -0.69450E+00   -0.69353E+00 10640   0.139E+01-0.104E-02
CGA:   3    -0.128325981036E+04   -0.32535E+00   -0.32572E+00 10640   0.468E+00 0.260E-02
CGA:   4    -0.128332862832E+04   -0.68818E-01   -0.68818E-01 10640   0.704E-01 0.157E-03
CGA:   5    -0.128334137011E+04   -0.12742E-01   -0.13050E-01 10640   0.175E-01 0.198E-02
CGA:   6    -0.128334513264E+04   -0.37625E-02   -0.37166E-02 10640   0.602E-02-0.338E-03
CGA:   7    -0.128334619626E+04   -0.10636E-02   -0.11076E-02 10640   0.162E-02 0.307E-03
CGA:   8    -0.128334666152E+04   -0.46526E-03   -0.44349E-03 10640   0.102E-02-0.313E-03
CGA:   9    -0.128334681957E+04   -0.15805E-03   -0.16108E-03 10640   0.403E-03 0.245E-04
CGA:  10    -0.128334687440E+04   -0.54830E-04   -0.76095E-04 10640   0.151E-03 0.156E-03
CGA:  11    -0.128334689533E+04   -0.20931E-04   -0.34316E-04 10640   0.869E-04 0.893E-04
CGA:  12    -0.128334690602E+04   -0.10685E-04   -0.15430E-04 10640   0.596E-04 0.370E-04
CGA:  13    -0.128334691981E+04   -0.13787E-04   -0.18224E-04 10640   0.375E-04 0.522E-04
CGA:  14    -0.128334692257E+04   -0.27634E-05   -0.63679E-05 10640   0.283E-04 0.288E-04
  15 F= -.12833469E+04 E0= -.12833469E+04  d E =-.875070E-02  mag=    47.0000
       N       E                     dE             d eps       ncg     rms          ort
SDA:   1    -0.128041161839E+04    0.29353E+01    0.00000E+00 10640   0.101E+02 0.000E+00
CGA:   2    -0.128222972007E+04   -0.18181E+01   -0.18145E+01 10640   0.353E+01 0.197E-01
CGA:   3    -0.128309641416E+04   -0.86669E+00   -0.86690E+00 10640   0.136E+01-0.300E-02
CGA:   4    -0.128329369695E+04   -0.19728E+00   -0.19675E+00 10640   0.187E+00 0.971E-02
CGA:   5    -0.128332948315E+04   -0.35786E-01   -0.35535E-01 10640   0.523E-01-0.325E-02
CGA:   6    -0.128333910757E+04   -0.96244E-02   -0.97172E-02 10640   0.155E-01 0.136E-02
CGA:   7    -0.128334270875E+04   -0.36012E-02   -0.35617E-02 10640   0.515E-02-0.996E-03
CGA:   8    -0.128334347861E+04   -0.76986E-03   -0.80188E-03 10640   0.157E-02 0.353E-03
CGA:   9    -0.128334401220E+04   -0.53359E-03   -0.55807E-03 10640   0.105E-02-0.318E-03
CGA:  10    -0.128334425199E+04   -0.23979E-03   -0.37706E-03 10640   0.189E-02-0.727E-03
CGA:  11    -0.128334448115E+04   -0.22916E-03   -0.23162E-03 10640   0.413E-03 0.204E-04
CGA:  12    -0.128334462016E+04   -0.13901E-03   -0.15284E-03 10640   0.322E-03-0.133E-03
CGA:  13    -0.128334474791E+04   -0.12775E-03    0.30836E-03 10640   0.295E-03-0.933E-04
CGA:  14    -0.128334481750E+04   -0.69589E-04   -0.76082E-04 10640   0.248E-03-0.676E-04
CGA:  15    -0.128334496906E+04   -0.15156E-03    0.56990E-04 10640   0.154E-03 0.221E-04
CGA:  16    -0.128334500607E+04   -0.37006E-04   -0.11065E-03 10640   0.788E-03-0.190E-03
CGA:  17    -0.128334517170E+04   -0.16563E-03   -0.13702E-03 10640   0.328E-03-0.241E-03
CGA:  18    -0.128334518573E+04   -0.14033E-04   -0.26626E-04 10640   0.781E-04 0.750E-04
CGA:  19    -0.128334518530E+04    0.43588E-06   -0.67830E-05 10640   0.241E-04 0.351E-04
  16 F= -.12833452E+04 E0= -.12833452E+04  d E =0.173727E-02  mag=    47.0000
       N       E                     dE             d eps       ncg     rms          ort
SDA:   1    -0.128231755946E+04    0.10276E+01    0.00000E+00 10640   0.357E+01 0.000E+00
CGA:   2    -0.128298333357E+04   -0.66577E+00   -0.66525E+00 10640   0.132E+01-0.434E-02
CGA:   3    -0.128329914325E+04   -0.31581E+00   -0.31590E+00 10640   0.473E+00 0.552E-02
CGA:   4    -0.128336806175E+04   -0.68919E-01   -0.68890E-01 10640   0.683E-01-0.798E-03
CGA:   5    -0.128337997050E+04   -0.11909E-01   -0.12100E-01 10640   0.170E-01 0.276E-02
CGA:   6    -0.128338382292E+04   -0.38524E-02   -0.38307E-02 10640   0.607E-02-0.724E-03
CGA:   7    -0.128338480967E+04   -0.98676E-03   -0.10226E-02 10640   0.144E-02 0.530E-03
CGA:   8    -0.128338522619E+04   -0.41651E-03   -0.42625E-03 10640   0.876E-03-0.318E-03
CGA:   9    -0.128338535826E+04   -0.13207E-03   -0.13279E-03 10640   0.363E-03 0.156E-04
CGA:  10    -0.128338540715E+04   -0.48890E-04   -0.59871E-04 10640   0.133E-03 0.140E-03
CGA:  11    -0.128338542014E+04   -0.12996E-04   -0.23071E-04 10640   0.655E-04 0.903E-04
CGA:  12    -0.128338542611E+04   -0.59671E-05   -0.94881E-05 10640   0.374E-04 0.407E-04
  17 F= -.12833854E+04 E0= -.12833854E+04  d E =-.402408E-01  mag=    47.0000
       N       E                     dE             d eps       ncg     rms          ort
SDA:   1    -0.128283539065E+04    0.55003E+00    0.00000E+00 10640   0.173E+01 0.000E+00
CGA:   2    -0.128317534806E+04   -0.33996E+00   -0.33984E+00 10640   0.700E+00-0.357E-02
CGA:   3    -0.128333461522E+04   -0.15927E+00   -0.15925E+00 10640   0.238E+00 0.285E-02
CGA:   4    -0.128336943880E+04   -0.34824E-01   -0.34802E-01 10640   0.352E-01-0.232E-03
CGA:   5    -0.128337567806E+04   -0.62393E-02   -0.63165E-02 10640   0.834E-02 0.207E-02
CGA:   6    -0.128337761823E+04   -0.19402E-02   -0.19414E-02 10640   0.303E-02-0.318E-03
CGA:   7    -0.128337811168E+04   -0.49346E-03   -0.50778E-03 10640   0.778E-03 0.345E-03
CGA:   8    -0.128337835641E+04   -0.24473E-03   -0.26998E-03 10640   0.642E-03-0.257E-03
CGA:   9    -0.128337843288E+04   -0.76469E-04   -0.77551E-04 10640   0.320E-03 0.286E-04
CGA:  10    -0.128337846210E+04   -0.29219E-04   -0.42955E-04 10640   0.165E-03 0.155E-03
CGA:  11    -0.128337847293E+04   -0.10830E-04   -0.25024E-04 10640   0.797E-04 0.129E-03
CGA:  12    -0.128337848522E+04   -0.12291E-04   -0.13968E-04 10640   0.449E-04 0.528E-04
CGA:  13    -0.128337848720E+04   -0.19797E-05   -0.54090E-05 10640   0.373E-04 0.403E-04
  18 F= -.12833785E+04 E0= -.12833785E+04  d E =0.693891E-02  mag=    47.0000
       N       E                     dE             d eps       ncg     rms          ort
SDA:   1    -0.128099831944E+04    0.23802E+01    0.00000E+00 10640   0.816E+01 0.000E+00
CGA:   2    -0.128247069165E+04   -0.14724E+01   -0.14720E+01 10640   0.289E+01 0.280E-02
CGA:   3    -0.128317663826E+04   -0.70595E+00   -0.70594E+00 10640   0.111E+01-0.356E-02
CGA:   4    -0.128333712244E+04   -0.16048E+00   -0.16044E+00 10640   0.151E+00 0.536E-02
CGA:   5    -0.128336615813E+04   -0.29036E-01   -0.29011E-01 10640   0.429E-01-0.386E-02
CGA:   6    -0.128337387797E+04   -0.77198E-02   -0.77376E-02 10640   0.122E-01 0.162E-02
CGA:   7    -0.128337680096E+04   -0.29230E-02   -0.29670E-02 10640   0.431E-02-0.117E-02
CGA:   8    -0.128337739647E+04   -0.59551E-03   -0.61192E-03 10640   0.124E-02 0.408E-03
CGA:   9    -0.128337781521E+04   -0.41875E-03   -0.46481E-03 10640   0.838E-03-0.312E-03
CGA:  10    -0.128337577812E+04    0.20371E-02   -0.11022E-02 10640   0.142E-01-0.265E-02
CGA:  11    -0.128337749903E+04   -0.17209E-02   -0.18794E-02 10640   0.253E-02 0.743E-03
CGA:  12    -0.128337821192E+04   -0.71290E-03   -0.69400E-03 10640   0.116E-02-0.189E-03
CGA:  13    -0.128337846575E+04   -0.25383E-03   -0.25989E-03 10640   0.514E-03 0.555E-04
CGA:  14    -0.128337855874E+04   -0.92997E-04   -0.10350E-03 10640   0.167E-03 0.677E-04
CGA:  15    -0.128337863436E+04   -0.75613E-04   -0.11346E-03 10640   0.373E-03-0.146E-03
CGA:  16    -0.128337863769E+04   -0.33307E-05   -0.35135E-04 10640   0.783E-04 0.124E-03
CGA:  17    -0.128337864423E+04   -0.65408E-05   -0.13577E-04 10640   0.393E-04 0.335E-04
CGA:  18    -0.128337868345E+04   -0.39222E-04    0.15963E-03 10640   0.653E-04-0.396E-04
CGA:  19    -0.128337867988E+04    0.35751E-05   -0.51670E-05 10640   0.242E-04 0.349E-04
  19 F= -.12833787E+04 E0= -.12833787E+04  d E =-.192680E-03  mag=    47.0000
       N       E                     dE             d eps       ncg     rms          ort
SDA:   1    -0.128212040466E+04    0.12583E+01    0.00000E+00 10640   0.427E+01 0.000E+00
CGA:   2    -0.128291864830E+04   -0.79824E+00   -0.79735E+00 10640   0.159E+01-0.205E-02
CGA:   3    -0.128330040826E+04   -0.38176E+00   -0.38206E+00 10640   0.571E+00 0.453E-02
CGA:   4    -0.128338379829E+04   -0.83390E-01   -0.83364E-01 10640   0.810E-01-0.763E-03
CGA:   5    -0.128339814522E+04   -0.14347E-01   -0.14606E-01 10640   0.205E-01 0.243E-02
CGA:   6    -0.128340268954E+04   -0.45443E-02   -0.44896E-02 10640   0.716E-02-0.703E-03
CGA:   7    -0.128340388229E+04   -0.11928E-02   -0.12461E-02 10640   0.173E-02 0.516E-03
CGA:   8    -0.128340436623E+04   -0.48394E-03   -0.47698E-03 10640   0.955E-03-0.279E-03
CGA:   9    -0.128340452089E+04   -0.15466E-03   -0.15778E-03 10640   0.378E-03 0.386E-04
CGA:  10    -0.128340458048E+04   -0.59588E-04   -0.72169E-04 10640   0.128E-03 0.136E-03
CGA:  11    -0.128340459927E+04   -0.18790E-04   -0.27802E-04 10640   0.667E-04 0.806E-04
CGA:  12    -0.128340460563E+04   -0.63582E-05   -0.10313E-04 10640   0.403E-04 0.355E-04
  20 F= -.12834046E+04 E0= -.12834046E+04  d E =-.259257E-01  mag=    47.0000
       N       E                     dE             d eps       ncg     rms          ort
SDA:   1    -0.128263419333E+04    0.77041E+00    0.00000E+00 10640   0.225E+01 0.000E+00
CGA:   2    -0.128310751155E+04   -0.47332E+00   -0.47314E+00 10640   0.989E+00-0.310E-02
CGA:   3    -0.128332682113E+04   -0.21931E+00   -0.21938E+00 10640   0.300E+00 0.215E-02
CGA:   4    -0.128336999287E+04   -0.43172E-01   -0.43130E-01 10640   0.468E-01-0.343E-03
CGA:   5    -0.128337850921E+04   -0.85163E-02   -0.86259E-02 10640   0.114E-01 0.181E-02
CGA:   6    -0.128338103917E+04   -0.25300E-02   -0.25190E-02 10640   0.387E-02-0.354E-03
CGA:   7    -0.128338171079E+04   -0.67162E-03   -0.69048E-03 10640   0.104E-02 0.327E-03
CGA:   8    -0.128338202394E+04   -0.31315E-03   -0.32766E-03 10640   0.797E-03-0.277E-03
CGA:   9    -0.128338211538E+04   -0.91448E-04   -0.97577E-04 10640   0.339E-03 0.821E-04
CGA:  10    -0.128338215503E+04   -0.39646E-04   -0.54598E-04 10640   0.178E-03 0.161E-03
CGA:  11    -0.128338217940E+04   -0.24373E-04   -0.35201E-04 10640   0.833E-04 0.108E-03
CGA:  12    -0.128338220594E+04   -0.26536E-04   -0.24418E-04 10640   0.532E-04 0.328E-04
CGA:  13    -0.128338221230E+04   -0.63558E-05   -0.11098E-04 10640   0.391E-04 0.574E-04
  21 F= -.12833822E+04 E0= -.12833822E+04  d E =0.223933E-01  mag=    47.0000
       N       E                     dE             d eps       ncg     rms          ort
SDA:   1    -0.128051313661E+04    0.28691E+01    0.00000E+00 10640   0.956E+01 0.000E+00
CGA:   2    -0.128229849365E+04   -0.17854E+01   -0.17845E+01 10640   0.357E+01 0.321E-02
CGA:   3    -0.128316685812E+04   -0.86836E+00   -0.86829E+00 10640   0.128E+01-0.186E-02
CGA:   4    -0.128334973440E+04   -0.18288E+00   -0.18270E+00 10640   0.178E+00 0.575E-02
CGA:   5    -0.128338400686E+04   -0.34272E-01   -0.34178E-01 10640   0.502E-01-0.329E-02
CGA:   6    -0.128339321942E+04   -0.92126E-02   -0.92545E-02 10640   0.145E-01 0.149E-02
CGA:   7    -0.128339662033E+04   -0.34009E-02   -0.34162E-02 10640   0.497E-02-0.122E-02
CGA:   8    -0.128339734616E+04   -0.72583E-03   -0.74510E-03 10640   0.149E-02 0.373E-03
CGA:   9    -0.128339785555E+04   -0.50939E-03   -0.58881E-03 10640   0.122E-02-0.518E-03
CGA:  10    -0.128339789925E+04   -0.43699E-04   -0.41960E-03 10640   0.306E-02-0.123E-02
CGA:  11    -0.128339826782E+04   -0.36857E-03   -0.37946E-03 10640   0.670E-03 0.102E-03
CGA:  12    -0.128339846560E+04   -0.19777E-03   -0.20162E-03 10640   0.276E-03-0.639E-04
CGA:  13    -0.128339682802E+04    0.16376E-02   -0.88407E-03 10640   0.165E-01-0.159E-02
CGA:  14    -0.128339832419E+04   -0.14962E-02   -0.16847E-02 10640   0.116E-02 0.798E-03
CGA:  15    -0.128339862007E+04   -0.29588E-03   -0.28644E-03 10640   0.619E-03-0.523E-04
CGA:  16    -0.128339875798E+04   -0.13791E-03   -0.12940E-03 10640   0.199E-03-0.445E-04
CGA:  17    -0.128339879580E+04   -0.37819E-04   -0.41066E-04 10640   0.565E-04 0.190E-04
CGA:  18    -0.128339778657E+04    0.10092E-02   -0.54913E-03 10640   0.804E-02-0.551E-03
CGA:  19    -0.128339863419E+04   -0.84762E-03   -0.96300E-03 10640   0.947E-03 0.298E-03
CGA:  20    -0.128339888266E+04   -0.24847E-03   -0.21382E-03 10640   0.350E-03-0.753E-04
CGA:  21    -0.128339892292E+04   -0.40262E-04   -0.52535E-04 10640   0.789E-04 0.258E-04
CGA:  22    -0.128339894107E+04   -0.18143E-04   -0.22714E-04 10640   0.506E-04 0.128E-04
CGA:  23    -0.128339897468E+04   -0.33611E-04   -0.25560E-04 10640   0.108E-03-0.460E-04
CGA:  24    -0.128339897528E+04   -0.60331E-06   -0.11106E-04 10640   0.174E-04 0.214E-04
  22 F= -.12833990E+04 E0= -.12833990E+04  d E =-.167630E-01  mag=    47.0000
       N       E                     dE             d eps       ncg     rms          ort
SDA:   1    -0.128260102268E+04    0.79795E+00    0.00000E+00 10640   0.244E+01 0.000E+00
CGA:   2    -0.128311366832E+04   -0.51265E+00   -0.51216E+00 10640   0.106E+01-0.121E-02
CGA:   3    -0.128335743799E+04   -0.24377E+00   -0.24396E+00 10640   0.301E+00 0.188E-02
CGA:   4    -0.128340107340E+04   -0.43635E-01   -0.43442E-01 10640   0.479E-01-0.133E-02
CGA:   5    -0.128340958911E+04   -0.85157E-02   -0.87825E-02 10640   0.124E-01 0.973E-03
CGA:   6    -0.128341229940E+04   -0.27103E-02   -0.26093E-02 10640   0.409E-02-0.364E-03
CGA:   7    -0.128341298163E+04   -0.68223E-03   -0.74303E-03 10640   0.106E-02 0.221E-03
CGA:   8    -0.128341329267E+04   -0.31104E-03   -0.27762E-03 10640   0.587E-03-0.156E-03
CGA:   9    -0.128341337801E+04   -0.85336E-04   -0.94434E-04 10640   0.213E-03 0.357E-04
CGA:  10    -0.128341342472E+04   -0.46711E-04   -0.54246E-04 10640   0.730E-04 0.382E-04
CGA:  11    -0.128341346027E+04   -0.35554E-04   -0.35080E-04 10640   0.841E-04-0.237E-04
CGA:  12    -0.128341345664E+04    0.36285E-05   -0.47194E-05 10640   0.489E-04 0.243E-04
  23 F= -.12834135E+04 E0= -.12834135E+04  d E =-.144814E-01  mag=    47.0000
       N       E                     dE             d eps       ncg     rms          ort
SDA:   1    -0.128112877128E+04    0.22847E+01    0.00000E+00 10640   0.594E+01 0.000E+00
CGA:   2    -0.128268833874E+04   -0.15596E+01   -0.15593E+01 10640   0.281E+01-0.204E-02
CGA:   3    -0.128330489929E+04   -0.61656E+00   -0.61647E+00 10640   0.430E+00-0.184E-02
CGA:   4    -0.128338012354E+04   -0.75224E-01   -0.75150E-01 10640   0.867E-01-0.415E-03
CGA:   5    -0.128339790681E+04   -0.17783E-01   -0.17902E-01 10640   0.188E-01 0.737E-03
CGA:   6    -0.128340268031E+04   -0.47735E-02   -0.47116E-02 10640   0.587E-02-0.553E-03
CGA:   7    -0.128340377984E+04   -0.10995E-02   -0.11098E-02 10640   0.205E-02 0.745E-04
CGA:   8    -0.128340433171E+04   -0.55187E-03   -0.52263E-03 10640   0.122E-02-0.307E-03
CGA:   9    -0.128340459711E+04   -0.26540E-03   -0.25487E-03 10640   0.563E-03-0.107E-03
CGA:  10    -0.128340475449E+04   -0.15738E-03   -0.15229E-03 10640   0.361E-03-0.126E-03
CGA:  11    -0.128340484032E+04   -0.85834E-04   -0.75317E-04 10640   0.301E-03-0.159E-03
CGA:  12    -0.128340481592E+04    0.24406E-04   -0.10960E-03 10640   0.140E-02-0.419E-03
CGA:  13    -0.128340494328E+04   -0.12736E-03   -0.15555E-03 10640   0.280E-03 0.123E-03
CGA:  14    -0.128340503433E+04   -0.91050E-04   -0.90752E-04 10640   0.100E-03-0.789E-05
CGA:  15    -0.128340505079E+04   -0.16463E-04   -0.20346E-04 10640   0.580E-04 0.309E-04
CGA:  16    -0.128340506567E+04   -0.14886E-04   -0.16510E-04 10640   0.243E-04 0.147E-04
CGA:  17    -0.128340508748E+04   -0.21805E-04    0.44889E-04 10640   0.252E-04 0.769E-05
CGA:  18    -0.128340508638E+04    0.10983E-05   -0.37019E-05 10640   0.137E-04 0.227E-04
  24 F= -.12834051E+04 E0= -.12834051E+04  d E =0.837026E-02  mag=    47.0000
       N       E                     dE             d eps       ncg     rms          ort
SDA:   1    -0.127889195945E+04    0.45131E+01    0.00000E+00 10640   0.116E+02 0.000E+00
CGA:   2    -0.128199152242E+04   -0.30996E+01   -0.30994E+01 10640   0.554E+01-0.447E-02
CGA:   3    -0.128319452225E+04   -0.12030E+01   -0.12029E+01 10640   0.832E+00-0.375E-02
CGA:   4    -0.128333967209E+04   -0.14515E+00   -0.14504E+00 10640   0.172E+00-0.113E-02
CGA:   5    -0.128337429375E+04   -0.34622E-01   -0.34747E-01 10640   0.401E-01 0.151E-02
CGA:   6    -0.128338326409E+04   -0.89703E-02   -0.88853E-02 10640   0.164E-01-0.131E-02
CGA:   7    -0.128338583017E+04   -0.25661E-02   -0.25753E-02 10640   0.452E-02 0.129E-03
CGA:   8    -0.128338709392E+04   -0.12637E-02   -0.12649E-02 10640   0.210E-02-0.555E-03
CGA:   9    -0.128338767292E+04   -0.57899E-03   -0.59744E-03 10640   0.131E-02-0.372E-03
CGA:  10    -0.128338797054E+04   -0.29762E-03   -0.29630E-03 10640   0.121E-02-0.548E-03
CGA:  11    -0.128338810560E+04   -0.13506E-03   -0.11899E-03 10640   0.346E-03-0.147E-03
CGA:  12    -0.128338818464E+04   -0.79039E-04   -0.13683E-03 10640   0.119E-02-0.324E-03
CGA:  13    -0.128338832184E+04   -0.13720E-03   -0.13080E-03 10640   0.155E-03-0.339E-04
CGA:  14    -0.128338834316E+04   -0.21327E-04   -0.27396E-04 10640   0.572E-04 0.663E-04
CGA:  15    -0.128338838766E+04   -0.44492E-04    0.66540E-03 10640   0.604E-04 0.268E-04
CGA:  16    -0.128338803443E+04    0.35322E-03   -0.19151E-03 10640   0.276E-02-0.356E-03
CGA:  17    -0.128338826534E+04   -0.23091E-03   -0.28324E-03 10640   0.425E-03 0.147E-03
CGA:  18    -0.128338851736E+04   -0.25202E-03   -0.26396E-03 10640   0.337E-03-0.996E-04
CGA:  19    -0.128338855631E+04   -0.38947E-04   -0.36756E-04 10640   0.150E-03-0.615E-05
CGA:  20    -0.128338858702E+04   -0.30715E-04   -0.35314E-04 10640   0.854E-04 0.210E-04
CGA:  21    -0.128338861884E+04   -0.31818E-04   -0.22223E-04 10640   0.707E-04-0.433E-04
CGA:  22    -0.128338862746E+04   -0.86212E-05   -0.89853E-05 10640   0.160E-04 0.131E-05
  25 F= -.12833886E+04 E0= -.12833886E+04  d E =0.164589E-01  mag=    47.0000
       N       E                     dE             d eps       ncg     rms          ort
SDA:   1    -0.127649352006E+04    0.68951E+01    0.00000E+00 10640   0.180E+02 0.000E+00
CGA:   2    -0.128118940351E+04   -0.46959E+01   -0.46959E+01 10640   0.851E+01-0.213E-02
CGA:   3    -0.128306508585E+04   -0.18757E+01   -0.18756E+01 10640   0.131E+01-0.448E-02
CGA:   4    -0.128329126449E+04   -0.22618E+00   -0.22617E+00 10640   0.266E+00-0.606E-03
CGA:   5    -0.128334555186E+04   -0.54287E-01   -0.54475E-01 10640   0.626E-01 0.121E-02
CGA:   6    -0.128335950406E+04   -0.13952E-01   -0.13773E-01 10640   0.240E-01-0.119E-02
CGA:   7    -0.128336350624E+04   -0.40022E-02   -0.39737E-02 10640   0.706E-02-0.419E-04
CGA:   8    -0.128336538176E+04   -0.18755E-02   -0.18115E-02 10640   0.313E-02-0.616E-03
CGA:   9    -0.128336623985E+04   -0.85810E-03   -0.83065E-03 10640   0.192E-02-0.423E-03
CGA:  10    -0.128336670218E+04   -0.46233E-03   -0.40197E-03 10640   0.120E-02-0.545E-03
CGA:  11    -0.128336691481E+04   -0.21263E-03   -0.18589E-03 10640   0.344E-03-0.205E-03
CGA:  12    -0.128336712328E+04   -0.20847E-03    0.62343E-03 10640   0.208E-03-0.605E-04
CGA:  13    -0.128336714497E+04   -0.21686E-04   -0.28955E-04 10640   0.908E-04 0.427E-04
CGA:  14    -0.128336714935E+04   -0.43834E-05   -0.99100E-04 10640   0.551E-03-0.165E-03
CGA:  15    -0.128336733465E+04   -0.18529E-03   -0.17158E-03 10640   0.438E-03-0.283E-03
CGA:  16    -0.128336732860E+04    0.60459E-05   -0.34421E-04 10640   0.646E-04 0.147E-03
  26 F= -.12833673E+04 E0= -.12833673E+04  d E =0.212989E-01  mag=    47.0000
       N       E                     dE             d eps       ncg     rms          ort
SDA:   1    -0.127482788864E+04    0.85394E+01    0.00000E+00 10640   0.225E+02 0.000E+00
CGA:   2    -0.128062435313E+04   -0.57965E+01   -0.57964E+01 10640   0.106E+02-0.428E-02
CGA:   3    -0.128297484854E+04   -0.23505E+01   -0.23504E+01 10640   0.166E+01-0.650E-02
CGA:   4    -0.128325816589E+04   -0.28332E+00   -0.28346E+00 10640   0.331E+00 0.817E-03
CGA:   5    -0.128332664895E+04   -0.68483E-01   -0.68553E-01 10640   0.779E-01 0.651E-03
CGA:   6    -0.128334360939E+04   -0.16960E-01   -0.16970E-01 10640   0.279E-01 0.201E-03
CGA:   7    -0.128334894409E+04   -0.53347E-02   -0.51595E-02 10640   0.956E-02-0.147E-02
CGA:   8    -0.128335089989E+04   -0.19558E-02   -0.19599E-02 10640   0.346E-02 0.699E-04
CGA:   9    -0.128335207659E+04   -0.11767E-02   -0.12426E-02 10640   0.313E-02-0.103E-02
CGA:  10    -0.128335242723E+04   -0.35064E-03   -0.33883E-03 10640   0.111E-02-0.754E-04
CGA:  11    -0.128335272430E+04   -0.29707E-03   -0.29249E-03 10640   0.638E-03-0.225E-03
CGA:  12    -0.128335287084E+04   -0.14654E-03   -0.14834E-03 10640   0.132E-02-0.607E-03
CGA:  13    -0.128335293973E+04   -0.68892E-04   -0.11699E-03 10640   0.182E-03 0.246E-03
CGA:  14    -0.128335296041E+04   -0.20677E-04   -0.32155E-04 10640   0.120E-03 0.884E-04
CGA:  15    -0.128335300915E+04   -0.48740E-04   -0.48860E-04 10640   0.131E-03-0.526E-04
CGA:  16    -0.128335301728E+04   -0.81314E-05   -0.99177E-05 10640   0.125E-03 0.130E-04
CGA:  17    -0.128335302887E+04   -0.11591E-04   -0.17736E-04 10640   0.100E-03 0.450E-04
CGA:  18    -0.128335306065E+04   -0.31778E-04   -0.32037E-04 10640   0.716E-04 0.112E-04
CGA:  19    -0.128335225643E+04    0.80422E-03   -0.43694E-03 10640   0.746E-02-0.659E-03
CGA:  20    -0.128335286170E+04   -0.60527E-03   -0.72649E-03 10640   0.726E-03 0.395E-03
CGA:  21    -0.128335310010E+04   -0.23840E-03   -0.24738E-03 10640   0.173E-03 0.712E-04
CGA:  22    -0.128335317902E+04   -0.78922E-04   -0.47373E-04 10640   0.345E-03-0.162E-03
CGA:  23    -0.128335317870E+04    0.31704E-06   -0.26890E-04 10640   0.363E-04 0.777E-04
  27 F= -.12833532E+04 E0= -.12833532E+04  d E =0.141499E-01  mag=    47.0000
       N       E                     dE             d eps       ncg     rms          ort
SDA:   1    -0.127444908332E+04    0.89041E+01    0.00000E+00 10640   0.234E+02 0.000E+00
CGA:   2    -0.128050840282E+04   -0.60593E+01   -0.60594E+01 10640   0.111E+02-0.255E-02
CGA:   3    -0.128295012179E+04   -0.24417E+01   -0.24416E+01 10640   0.174E+01-0.626E-02
CGA:   4    -0.128324444374E+04   -0.29432E+00   -0.29464E+00 10640   0.356E+00 0.199E-02
CGA:   5    -0.128331652044E+04   -0.72077E-01   -0.72069E-01 10640   0.900E-01-0.232E-03
CGA:   6    -0.128333439827E+04   -0.17878E-01   -0.17938E-01 10640   0.318E-01 0.612E-03
CGA:   7    -0.128334091375E+04   -0.65155E-02   -0.62613E-02 10640   0.956E-02-0.158E-02
CGA:   8    -0.128334300363E+04   -0.20899E-02   -0.20925E-02 10640   0.380E-02 0.407E-04
CGA:   9    -0.128334421155E+04   -0.12079E-02   -0.11765E-02 10640   0.326E-02-0.912E-03
CGA:  10    -0.128334465347E+04   -0.44192E-03   -0.41535E-03 10640   0.103E-02-0.145E-03
CGA:  11    -0.128334497685E+04   -0.32337E-03   -0.32225E-03 10640   0.638E-03-0.321E-03
CGA:  12    -0.128334512265E+04   -0.14580E-03   -0.14542E-03 10640   0.150E-02-0.626E-03
CGA:  13    -0.128334519874E+04   -0.76094E-04   -0.13507E-03 10640   0.189E-03 0.249E-03
CGA:  14    -0.128334522194E+04   -0.23199E-04   -0.36234E-04 10640   0.126E-03 0.837E-04
CGA:  15    -0.128334527503E+04   -0.53091E-04   -0.50953E-04 10640   0.136E-03-0.662E-04
CGA:  16    -0.128334527911E+04   -0.40812E-05   -0.13894E-04 10640   0.434E-04 0.474E-04
CGA:  17    -0.128334529287E+04   -0.13761E-04   -0.14359E-04 10640   0.413E-04 0.108E-04
CGA:  18    -0.128334464457E+04    0.64830E-03   -0.35223E-03 10640   0.602E-02-0.466E-03
CGA:  19    -0.128334512569E+04   -0.48112E-03   -0.60786E-03 10640   0.668E-03 0.335E-03
CGA:  20    -0.128334532273E+04   -0.19705E-03   -0.20730E-03 10640   0.108E-03 0.455E-04
CGA:  21    -0.128334537402E+04   -0.51286E-04   -0.27353E-04 10640   0.173E-03-0.875E-04
CGA:  22    -0.128334537007E+04    0.39472E-05   -0.13595E-04 10640   0.197E-04 0.426E-04
  28 F= -.12833454E+04 E0= -.12833454E+04  d E =0.780863E-02  mag=    47.0000
       N       E                     dE             d eps       ncg     rms          ort
SDA:   1    -0.127489490588E+04    0.84505E+01    0.00000E+00 10640   0.222E+02 0.000E+00
CGA:   2    -0.128063587289E+04   -0.57410E+01   -0.57412E+01 10640   0.105E+02-0.842E-03
CGA:   3    -0.128296388925E+04   -0.23280E+01   -0.23278E+01 10640   0.163E+01-0.518E-02
CGA:   4    -0.128324308296E+04   -0.27919E+00   -0.27943E+00 10640   0.325E+00 0.827E-03
CGA:   5    -0.128331060568E+04   -0.67523E-01   -0.67502E-01 10640   0.783E-01-0.126E-03
CGA:   6    -0.128332698639E+04   -0.16381E-01   -0.16446E-01 10640   0.293E-01 0.471E-03
CGA:   7    -0.128333242559E+04   -0.54392E-02   -0.51893E-02 10640   0.948E-02-0.114E-02
CGA:   8    -0.128333449662E+04   -0.20710E-02   -0.20558E-02 10640   0.347E-02-0.719E-04
CGA:   9    -0.128333566032E+04   -0.11637E-02   -0.11336E-02 10640   0.236E-02-0.581E-03
CGA:  10    -0.128333609829E+04   -0.43797E-03   -0.39498E-03 10640   0.106E-02-0.236E-03
CGA:  11    -0.128333642863E+04   -0.33034E-03   -0.31115E-03 10640   0.688E-03-0.455E-03
CGA:  12    -0.128333651965E+04   -0.91018E-04   -0.79199E-04 10640   0.351E-03-0.707E-04
CGA:  13    -0.128333663905E+04   -0.11940E-03   -0.12490E-03 10640   0.312E-03-0.145E-03
CGA:  14    -0.128333671657E+04   -0.77527E-04   -0.82761E-04 10640   0.312E-03-0.581E-04
CGA:  15    -0.128333681706E+04   -0.10049E-03   -0.11460E-03 10640   0.497E-03-0.165E-03
CGA:  16    -0.128333685053E+04   -0.33465E-04   -0.59857E-04 10640   0.115E-03 0.107E-03
CGA:  17    -0.128333686897E+04   -0.18438E-04   -0.26140E-04 10640   0.453E-04 0.454E-04
CGA:  18    -0.128333687694E+04   -0.79774E-05   -0.10972E-04 10640   0.288E-04 0.171E-04
  29 F= -.12833369E+04 E0= -.12833369E+04  d E =0.849313E-02  mag=    47.0000
       N       E                     dE             d eps       ncg     rms          ort
SDA:   1    -0.127565305744E+04    0.76838E+01    0.00000E+00 10640   0.200E+02 0.000E+00
CGA:   2    -0.128089870689E+04   -0.52456E+01   -0.52454E+01 10640   0.954E+01-0.543E-02
CGA:   3    -0.128299247959E+04   -0.20938E+01   -0.20939E+01 10640   0.145E+01-0.328E-02
CGA:   4    -0.128324405964E+04   -0.25158E+00   -0.25135E+00 10640   0.294E+00-0.208E-02
CGA:   5    -0.128330436061E+04   -0.60301E-01   -0.60539E-01 10640   0.665E-01 0.236E-02
CGA:   6    -0.128332007865E+04   -0.15718E-01   -0.15565E-01 10640   0.245E-01-0.208E-02
CGA:   7    -0.128332399609E+04   -0.39174E-02   -0.39571E-02 10640   0.775E-02 0.373E-03
CGA:   8    -0.128332599864E+04   -0.20026E-02   -0.19625E-02 10640   0.373E-02-0.848E-03
CGA:   9    -0.128332695395E+04   -0.95531E-03   -0.95060E-03 10640   0.226E-02-0.581E-03
CGA:  10    -0.128332741706E+04   -0.46311E-03   -0.43750E-03 10640   0.109E-02-0.393E-03
CGA:  11    -0.128332767645E+04   -0.25939E-03   -0.25742E-03 10640   0.584E-03-0.353E-03
CGA:  12    -0.128332777954E+04   -0.10309E-03   -0.16542E-03 10640   0.141E-02-0.484E-03
CGA:  13    -0.128332788613E+04   -0.10659E-03   -0.13538E-03 10640   0.195E-03 0.150E-03
CGA:  14    -0.128332793752E+04   -0.51395E-04   -0.53750E-04 10640   0.119E-03 0.636E-04
CGA:  15    -0.128332797739E+04   -0.39865E-04   -0.38670E-04 10640   0.162E-03-0.303E-04
CGA:  16    -0.128332798937E+04   -0.11986E-04   -0.17650E-04 10640   0.129E-03 0.414E-04
CGA:  17    -0.128332799310E+04   -0.37261E-05   -0.14360E-04 10640   0.621E-04 0.570E-04
CGA:  18    -0.128332799859E+04   -0.54943E-05   -0.11814E-04 10640   0.689E-04 0.468E-04
CGA:  19    -0.128332801129E+04   -0.12695E-04   -0.29313E-04 10640   0.454E-03-0.100E-03
CGA:  20    -0.128332803362E+04   -0.22333E-04   -0.35813E-04 10640   0.239E-04 0.729E-04
CGA:  21    -0.128332803269E+04    0.92975E-06   -0.20117E-05 10640   0.159E-04 0.158E-04
  30 F= -.12833280E+04 E0= -.12833280E+04  d E =0.884425E-02  mag=    47.0000
       N       E                     dE             d eps       ncg     rms          ort
SDA:   1    -0.127654183523E+04    0.67862E+01    0.00000E+00 10640   0.176E+02 0.000E+00
CGA:   2    -0.128119236870E+04   -0.46505E+01   -0.46505E+01 10640   0.839E+01-0.727E-02
CGA:   3    -0.128302411975E+04   -0.18318E+01   -0.18318E+01 10640   0.129E+01-0.192E-02
CGA:   4    -0.128324441864E+04   -0.22030E+00   -0.22009E+00 10640   0.272E+00-0.285E-02
CGA:   5    -0.128329706574E+04   -0.52647E-01   -0.52808E-01 10640   0.704E-01 0.299E-02
CGA:   6    -0.128331114166E+04   -0.14076E-01   -0.13962E-01 10640   0.281E-01-0.206E-02
CGA:   7    -0.128331596418E+04   -0.48225E-02   -0.48234E-02 10640   0.687E-02 0.696E-04
CGA:   8    -0.128331786248E+04   -0.18983E-02   -0.19232E-02 10640   0.341E-02-0.720E-03
CGA:   9    -0.128331867133E+04   -0.80885E-03   -0.82049E-03 10640   0.235E-02-0.532E-03
CGA:  10    -0.128331912752E+04   -0.45619E-03   -0.44431E-03 10640   0.105E-02-0.492E-03
CGA:  11    -0.128331935782E+04   -0.23030E-03   -0.24347E-03 10640   0.488E-03-0.273E-03
CGA:  12    -0.128331939078E+04   -0.32963E-04   -0.18832E-03 10640   0.207E-02-0.567E-03
CGA:  13    -0.128331953940E+04   -0.14862E-03   -0.18757E-03 10640   0.208E-03 0.235E-03
CGA:  14    -0.128331957559E+04   -0.36191E-04   -0.42575E-04 10640   0.130E-03 0.907E-04
CGA:  15    -0.128331961701E+04   -0.41419E-04   -0.41389E-04 10640   0.101E-03-0.931E-06
CGA:  16    -0.128331962452E+04   -0.75123E-05   -0.13642E-04 10640   0.666E-04 0.543E-04
  31 F= -.12833196E+04 E0= -.12833196E+04  d E =0.840817E-02  mag=    47.0000
       N       E                     dE             d eps       ncg     rms          ort
SDA:   1    -0.127728009361E+04    0.60395E+01    0.00000E+00 10640   0.159E+02 0.000E+00
CGA:   2    -0.128138647392E+04   -0.41064E+01   -0.41064E+01 10640   0.749E+01-0.279E-02
CGA:   3    -0.128305401515E+04   -0.16675E+01   -0.16675E+01 10640   0.115E+01-0.508E-02
CGA:   4    -0.128325267387E+04   -0.19866E+00   -0.19868E+00 10640   0.228E+00 0.141E-03
CGA:   5    -0.128330041920E+04   -0.47745E-01   -0.47770E-01 10640   0.507E-01 0.987E-03
CGA:   6    -0.128331270644E+04   -0.12287E-01   -0.12292E-01 10640   0.156E-01-0.584E-03
CGA:   7    -0.128331583031E+04   -0.31239E-02   -0.31022E-02 10640   0.611E-02-0.646E-03
CGA:   8    -0.128331708043E+04   -0.12501E-02   -0.12450E-02 10640   0.258E-02-0.250E-03
CGA:   9    -0.128331784352E+04   -0.76309E-03   -0.83376E-03 10640   0.168E-02-0.661E-03
CGA:  10    -0.128331813968E+04   -0.29616E-03   -0.29623E-03 10640   0.854E-03-0.273E-03
CGA:  11    -0.128331830066E+04   -0.16099E-03   -0.15867E-03 10640   0.357E-03-0.156E-03
CGA:  12    -0.128331833403E+04   -0.33369E-04   -0.16604E-03 10640   0.135E-02-0.397E-03
CGA:  13    -0.128331841978E+04   -0.85743E-04   -0.12289E-03 10640   0.200E-03 0.234E-03
CGA:  14    -0.128331844794E+04   -0.28167E-04   -0.36796E-04 10640   0.123E-03 0.988E-04
CGA:  15    -0.128331848386E+04   -0.35918E-04   -0.36020E-04 10640   0.689E-04 0.242E-05
CGA:  16    -0.128331848673E+04   -0.28719E-05   -0.83855E-05 10640   0.511E-04 0.465E-04
  32 F= -.12833185E+04 E0= -.12833185E+04  d E =0.113779E-02  mag=    47.0000
       N       E                     dE             d eps       ncg     rms          ort
SDA:   1    -0.127792291299E+04    0.53956E+01    0.00000E+00 10640   0.143E+02 0.000E+00
CGA:   2    -0.128158455545E+04   -0.36616E+01   -0.36618E+01 10640   0.671E+01-0.569E-02
CGA:   3    -0.128308438073E+04   -0.14998E+01   -0.14998E+01 10640   0.103E+01-0.330E-02
CGA:   4    -0.128326290661E+04   -0.17853E+00   -0.17852E+00 10640   0.203E+00-0.219E-03
CGA:   5    -0.128330548436E+04   -0.42578E-01   -0.42598E-01 10640   0.441E-01 0.144E-02
CGA:   6    -0.128331662393E+04   -0.11140E-01   -0.11160E-01 10640   0.120E-01-0.722E-03
CGA:   7    -0.128331933281E+04   -0.27089E-02   -0.27104E-02 10640   0.433E-02-0.373E-03
CGA:   8    -0.128332029532E+04   -0.96250E-03   -0.96352E-03 10640   0.243E-02-0.220E-03
CGA:   9    -0.128332088003E+04   -0.58472E-03   -0.60444E-03 10640   0.139E-02-0.526E-03
CGA:  10    -0.128332109735E+04   -0.21731E-03   -0.21806E-03 10640   0.456E-03 0.297E-04
CGA:  11    -0.128332120495E+04   -0.10760E-03   -0.20763E-03 10640   0.982E-03-0.455E-03
CGA:  12    -0.128332127289E+04   -0.67937E-04   -0.97845E-04 10640   0.162E-03 0.221E-03
CGA:  13    -0.128332129500E+04   -0.22110E-04   -0.28141E-04 10640   0.687E-04 0.683E-04
CGA:  14    -0.128332131798E+04   -0.22980E-04   -0.23120E-04 10640   0.794E-04-0.124E-04
CGA:  15    -0.128332131814E+04   -0.16469E-06   -0.56739E-05 10640   0.733E-04 0.396E-04
  33 F= -.12833213E+04 E0= -.12833213E+04  d E =-.283141E-02  mag=    47.0000
       N       E                     dE             d eps       ncg     rms          ort
SDA:   1    -0.127842133947E+04    0.49000E+01    0.00000E+00 10640   0.129E+02 0.000E+00
CGA:   2    -0.128175527318E+04   -0.33339E+01   -0.33341E+01 10640   0.610E+01-0.440E-02
CGA:   3    -0.128311191394E+04   -0.13566E+01   -0.13567E+01 10640   0.938E+00-0.462E-02
CGA:   4    -0.128327324642E+04   -0.16133E+00   -0.16136E+00 10640   0.187E+00 0.658E-03
CGA:   5    -0.128331200497E+04   -0.38759E-01   -0.38762E-01 10640   0.442E-01 0.668E-03
CGA:   6    -0.128332151930E+04   -0.95143E-02   -0.95137E-02 10640   0.162E-01 0.277E-03
CGA:   7    -0.128332451966E+04   -0.30004E-02   -0.29637E-02 10640   0.585E-02-0.119E-02
CGA:   8    -0.128332562755E+04   -0.11079E-02   -0.11086E-02 10640   0.195E-02 0.131E-03
CGA:   9    -0.128332628098E+04   -0.65343E-03   -0.77741E-03 10640   0.186E-02-0.687E-03
CGA:  10    -0.128332646445E+04   -0.18347E-03   -0.18142E-03 10640   0.751E-03-0.267E-04
CGA:  11    -0.128332663566E+04   -0.17121E-03   -0.17277E-03 10640   0.408E-03-0.906E-04
CGA:  12    -0.128332671544E+04   -0.79780E-04   -0.86878E-04 10640   0.545E-03-0.282E-03
CGA:  13    -0.128332674759E+04   -0.32156E-04   -0.49489E-04 10640   0.107E-03 0.138E-03
CGA:  14    -0.128332675901E+04   -0.11418E-04   -0.17041E-04 10640   0.720E-04 0.661E-04
CGA:  15    -0.128332676361E+04   -0.45999E-05   -0.39419E-04 10640   0.653E-03-0.102E-03
CGA:  16    -0.128332679350E+04   -0.29888E-04   -0.48499E-04 10640   0.394E-04 0.126E-03
CGA:  17    -0.128332679155E+04    0.19481E-05   -0.24982E-05 10640   0.212E-04 0.272E-04
  34 F= -.12833268E+04 E0= -.12833268E+04  d E =-.547341E-02  mag=    47.0000
       N       E                     dE             d eps       ncg     rms          ort
SDA:   1    -0.127880838406E+04    0.45184E+01    0.00000E+00 10640   0.119E+02 0.000E+00
CGA:   2    -0.128188204004E+04   -0.30737E+01   -0.30737E+01 10640   0.562E+01-0.140E-02
CGA:   3    -0.128313111823E+04   -0.12491E+01   -0.12491E+01 10640   0.868E+00-0.697E-02
CGA:   4    -0.128327953798E+04   -0.14842E+00   -0.14848E+00 10640   0.174E+00 0.179E-02
CGA:   5    -0.128331553311E+04   -0.35995E-01   -0.35996E-01 10640   0.428E-01-0.433E-03
CGA:   6    -0.128332420669E+04   -0.86736E-02   -0.86751E-02 10640   0.158E-01 0.721E-03
CGA:   7    -0.128332725395E+04   -0.30473E-02   -0.30225E-02 10640   0.560E-02-0.145E-02
CGA:   8    -0.128332831901E+04   -0.10651E-02   -0.10650E-02 10640   0.196E-02 0.176E-04
CGA:   9    -0.128332893293E+04   -0.61392E-03   -0.71542E-03 10640   0.183E-02-0.636E-03
CGA:  10    -0.128332916094E+04   -0.22801E-03   -0.21986E-03 10640   0.758E-03-0.229E-03
CGA:  11    -0.128332933782E+04   -0.17688E-03   -0.26149E-03 10640   0.631E-03-0.462E-03
CGA:  12    -0.128332946035E+04   -0.12253E-03   -0.12382E-03 10640   0.147E-03 0.545E-04
CGA:  13    -0.128332948373E+04   -0.23382E-04   -0.26279E-04 10640   0.699E-04 0.532E-04
CGA:  14    -0.128332952531E+04   -0.41583E-04   -0.38746E-04 10640   0.647E-04 0.146E-04
CGA:  15    -0.128332953265E+04   -0.73335E-05   -0.10767E-04 10640   0.374E-04 0.389E-04
  35 F= -.12833295E+04 E0= -.12833295E+04  d E =-.274110E-02  mag=    47.0000
       N       E                     dE             d eps       ncg     rms          ort
SDA:   1    -0.127909830204E+04    0.42312E+01    0.00000E+00 10640   0.109E+02 0.000E+00
CGA:   2    -0.128202866447E+04   -0.29304E+01   -0.29305E+01 10640   0.520E+01-0.383E-02
CGA:   3    -0.128315176499E+04   -0.11231E+01   -0.11231E+01 10640   0.760E+00-0.576E-02
CGA:   4    -0.128328537181E+04   -0.13361E+00   -0.13361E+00 10640   0.155E+00 0.636E-04
[...]
CGA:  12    -0.128331594891E+04   -0.19864E-03   -0.22143E-03 10640   0.758E-03-0.355E-03
CGA:  13    -0.128331603935E+04   -0.90436E-04   -0.86555E-04 10640   0.643E-03-0.234E-03
CGA:  14    -0.128331597353E+04    0.65823E-04   -0.40598E-03 10640   0.428E-02-0.696E-03
CGA:  15    -0.128331670532E+04   -0.73179E-03   -0.65312E-03 10640   0.716E-03-0.699E-03
CGA:  16    -0.128331677185E+04   -0.66531E-04   -0.81085E-04 10640   0.963E-04 0.119E-03
CGA:  17    -0.128331677895E+04   -0.70975E-05   -0.13346E-04 10640   0.514E-04 0.466E-04
CGA:  18    -0.128331662705E+04    0.15190E-03   -0.86970E-04 10640   0.212E-02-0.215E-03
CGA:  19    -0.128331695503E+04   -0.32799E-03   -0.28889E-03 10640   0.346E-03-0.119E-03
CGA:  20    -0.128331703299E+04   -0.77953E-04   -0.78090E-04 10640   0.141E-03 0.139E-05
CGA:  21    -0.128331706198E+04   -0.28987E-04   -0.27000E-04 10640   0.478E-04-0.818E-05
CGA:  22    -0.128331710969E+04   -0.47714E-04    0.32454E-04 10640   0.727E-04-0.583E-05
CGA:  23    -0.128331718581E+04   -0.76122E-04    0.29431E-04 10640   0.138E-03-0.237E-04
CGA:  24    -0.128331726304E+04   -0.77226E-04    0.21414E-02 10640   0.157E-03-0.524E-04
CGA:  25    -0.128331746063E+04   -0.19759E-03    0.13771E-04 10640   0.175E-03-0.659E-04
CGA:  26    -0.128331756075E+04   -0.10012E-03    0.10687E-03 10640   0.156E-03-0.716E-04
CGA:  27    -0.128331769005E+04   -0.12930E-03    0.26801E-04 10640   0.213E-03-0.993E-04
CGA:  28    -0.128331771743E+04   -0.27382E-04   -0.27453E-04 10640   0.593E-04 0.888E-06
CGA:  29    -0.128331772040E+04   -0.29712E-05   -0.10186E-04 10640   0.304E-04 0.319E-04
  53 F= -.12833177E+04 E0= -.12833177E+04  d E =-.145604E-01  mag=    47.0000
       N       E                     dE             d eps       ncg     rms          ort
SDA:   1    -0.126907712634E+04    0.14241E+02    0.00000E+00 10640   0.410E+02 0.000E+00
CGA:   2    -0.127826886166E+04   -0.91917E+01   -0.92021E+01 10640   0.180E+02 0.139E-01
CGA:   3    -0.128249737187E+04   -0.42285E+01   -0.42299E+01 10640   0.380E+01 0.353E-02
CGA:   4    -0.128308396364E+04   -0.58659E+00   -0.58701E+00 10640   0.718E+00 0.937E-02
CGA:   5    -0.128322160353E+04   -0.13764E+00   -0.13722E+00 10640   0.206E+00-0.206E-02
CGA:   6    -0.128325953839E+04   -0.37935E-01   -0.37751E-01 10640   0.657E-01-0.112E-02
CGA:   7    -0.128327294452E+04   -0.13406E-01   -0.13266E-01 10640   0.191E-01-0.870E-03
CGA:   8    -0.128327728676E+04   -0.43422E-02   -0.41710E-02 10640   0.102E-01-0.155E-02
CGA:   9    -0.128327930029E+04   -0.20135E-02   -0.19820E-02 10640   0.422E-02-0.247E-03
CGA:  10    -0.128328079425E+04   -0.14940E-02   -0.16598E-02 10640   0.502E-02-0.201E-02
CGA:  11    -0.128328134154E+04   -0.54729E-03   -0.42613E-03 10640   0.217E-02-0.739E-03
CGA:  12    -0.128328186703E+04   -0.52549E-03   -0.49759E-03 10640   0.198E-02-0.578E-03
CGA:  13    -0.128328220344E+04   -0.33641E-03   -0.25497E-03 10640   0.134E-02-0.585E-03
CGA:  14    -0.128328252876E+04   -0.32532E-03   -0.35917E-03 10640   0.163E-02-0.461E-03
CGA:  15    -0.128328267876E+04   -0.14999E-03   -0.15123E-03 10640   0.107E-02 0.775E-05
CGA:  16    -0.128328292717E+04   -0.24841E-03   -0.24949E-03 10640   0.988E-03 0.133E-04
CGA:  17    -0.128328309883E+04   -0.17166E-03   -0.16291E-03 10640   0.435E-03-0.653E-04
CGA:  18    -0.128328314139E+04   -0.42559E-04   -0.58691E-04 10640   0.271E-03 0.109E-03
CGA:  19    -0.128328316072E+04   -0.19333E-04   -0.42557E-04 10640   0.163E-03 0.145E-03
CGA:  20    -0.128328319289E+04   -0.32167E-04   -0.33616E-04 10640   0.942E-04 0.208E-04
CGA:  21    -0.128328319431E+04   -0.14232E-05   -0.12378E-04 10640   0.498E-04 0.698E-04
  54 F= -.12832832E+04 E0= -.12832832E+04  d E =0.345261E-01  mag=    47.0000
       N       E                     dE             d eps       ncg     rms          ort
SDA:   1    -0.126924701567E+04    0.14036E+02    0.00000E+00 10640   0.419E+02 0.000E+00
CGA:   2    -0.127826019440E+04   -0.90132E+01   -0.90146E+01 10640   0.175E+02 0.175E-01
CGA:   3    -0.128248777301E+04   -0.42276E+01   -0.42278E+01 10640   0.400E+01 0.419E-02
CGA:   4    -0.128310697978E+04   -0.61921E+00   -0.62022E+00 10640   0.701E+00-0.453E-03
CGA:   5    -0.128324352050E+04   -0.13654E+00   -0.13666E+00 10640   0.187E+00 0.353E-02
CGA:   6    -0.128328104984E+04   -0.37529E-01   -0.37440E-01 10640   0.641E-01-0.186E-02
CGA:   7    -0.128329380562E+04   -0.12756E-01   -0.12697E-01 10640   0.190E-01-0.127E-02
CGA:   8    -0.128329847016E+04   -0.46645E-02   -0.46868E-02 10640   0.119E-01-0.252E-02
CGA:   9    -0.128330088554E+04   -0.24154E-02   -0.24026E-02 10640   0.649E-02-0.129E-02
CGA:  10    -0.128330265885E+04   -0.17733E-02   -0.19854E-02 10640   0.604E-02-0.210E-02
CGA:  11    -0.128330369294E+04   -0.10341E-02   -0.10519E-02 10640   0.413E-02-0.178E-02
CGA:  12    -0.128330418911E+04   -0.49617E-03   -0.16227E-02 10640   0.100E-01-0.366E-02
CGA:  13    -0.128330555058E+04   -0.13615E-02   -0.13875E-02 10640   0.285E-02 0.231E-03
CGA:  14    -0.128330619598E+04   -0.64540E-03   -0.65381E-03 10640   0.981E-03 0.254E-03
CGA:  15    -0.128330655020E+04   -0.35422E-03   -0.33622E-03 10640   0.656E-03 0.303E-03
CGA:  16    -0.128330678804E+04   -0.23783E-03   -0.23809E-03 10640   0.588E-03-0.143E-04
CGA:  17    -0.128330691427E+04   -0.12623E-03   -0.13080E-03 10640   0.263E-03 0.141E-03
CGA:  18    -0.128330699703E+04   -0.82763E-04   -0.83106E-04 10640   0.238E-03 0.114E-03
CGA:  19    -0.128330713557E+04   -0.13854E-03   -0.15963E-03 10640   0.713E-03-0.105E-03
CGA:  20    -0.128330722556E+04   -0.89985E-04   -0.76472E-04 10640   0.105E-02-0.190E-03
CGA:  21    -0.128330737529E+04   -0.14974E-03   -0.11567E-03 10640   0.106E-02-0.318E-03
CGA:  22    -0.128330748373E+04   -0.10844E-03   -0.28944E-03 10640   0.248E-02-0.140E-02
CGA:  23    -0.128330787489E+04   -0.39115E-03   -0.37364E-03 10640   0.868E-03-0.145E-03
CGA:  24    -0.128330821422E+04   -0.33933E-03   -0.35767E-03 10640   0.357E-03-0.101E-03
CGA:  25    -0.128330564010E+04    0.25741E-02   -0.13911E-02 10640   0.277E-01-0.212E-02
CGA:  26    -0.128330823421E+04   -0.25941E-02   -0.27628E-02 10640   0.135E-02 0.470E-03
CGA:  27    -0.128330847221E+04   -0.23800E-03   -0.28829E-03 10640   0.481E-03 0.195E-03
CGA:  28    -0.128330858000E+04   -0.10778E-03   -0.12889E-03 10640   0.217E-03 0.951E-04
CGA:  29    -0.128330863337E+04   -0.53374E-04   -0.57931E-04 10640   0.956E-04 0.206E-04
CGA:  30    -0.128330866955E+04   -0.36183E-04   -0.33295E-04 10640   0.588E-04-0.247E-04
CGA:  31    -0.128330866768E+04    0.18698E-05   -0.48166E-05 10640   0.286E-04 0.210E-04
  55 F= -.12833087E+04 E0= -.12833087E+04  d E =-.254734E-01  mag=    47.0000
       N       E                     dE             d eps       ncg     rms          ort
SDA:   1    -0.128175317714E+04    0.15555E+01    0.00000E+00 10640   0.412E+01 0.000E+00
CGA:   2    -0.128279159706E+04   -0.10384E+01   -0.10386E+01 10640   0.193E+01 0.147E-02
CGA:   3    -0.128321490709E+04   -0.42331E+00   -0.42328E+00 10640   0.358E+00-0.243E-02
CGA:   4    -0.128327076191E+04   -0.55855E-01   -0.55912E-01 10640   0.763E-01 0.163E-02
CGA:   5    -0.128328498965E+04   -0.14228E-01   -0.14169E-01 10640   0.219E-01-0.436E-03
CGA:   6    -0.128328881136E+04   -0.38217E-02   -0.38701E-02 10640   0.652E-02 0.306E-03
CGA:   7    -0.128329035481E+04   -0.15435E-02   -0.15110E-02 10640   0.194E-02-0.258E-03
CGA:   8    -0.128329082941E+04   -0.47460E-03   -0.46515E-03 10640   0.109E-02-0.962E-04
CGA:   9    -0.128329110377E+04   -0.27436E-03   -0.26290E-03 10640   0.714E-03-0.130E-03
CGA:  10    -0.128329126809E+04   -0.16432E-03   -0.16188E-03 10640   0.361E-03-0.300E-04
CGA:  11    -0.128329139189E+04   -0.12381E-03   -0.19264E-03 10640   0.111E-02-0.307E-03
CGA:  12    -0.128329148864E+04   -0.96747E-04   -0.11919E-03 10640   0.207E-03 0.101E-03
CGA:  13    -0.128329157463E+04   -0.85986E-04   -0.88723E-04 10640   0.193E-03-0.456E-04
CGA:  14    -0.128329158478E+04   -0.10153E-04   -0.11215E-03 10640   0.135E-02-0.250E-03
CGA:  15    -0.128329171425E+04   -0.12947E-03   -0.15592E-03 10640   0.173E-03 0.116E-03
CGA:  16    -0.128329179266E+04   -0.78414E-04   -0.84307E-04 10640   0.177E-03-0.552E-04
CGA:  17    -0.128329181768E+04   -0.25013E-04   -0.20469E-04 10640   0.107E-03-0.253E-04
CGA:  18    -0.128329130173E+04    0.51595E-03   -0.27829E-03 10640   0.448E-02-0.381E-03
CGA:  19    -0.128329197455E+04   -0.67282E-03   -0.64463E-03 10640   0.624E-03-0.358E-04
CGA:  20    -0.128329211905E+04   -0.14450E-03   -0.15122E-03 10640   0.194E-03 0.198E-04
CGA:  21    -0.128329216126E+04   -0.42217E-04   -0.37072E-04 10640   0.806E-04-0.127E-04
CGA:  22    -0.128329217999E+04   -0.18723E-04   -0.20611E-04 10640   0.454E-04 0.675E-05
CGA:  23    -0.128329220671E+04   -0.26723E-04   -0.26271E-04 10640   0.138E-03-0.450E-04
CGA:  24    -0.128329221401E+04   -0.73023E-05   -0.15788E-04 10640   0.179E-04 0.202E-04
  56 F= -.12832922E+04 E0= -.12832922E+04  d E =0.164537E-01  mag=    47.0000
       N       E                     dE             d eps       ncg     rms          ort
SDA:   1    -0.122895751921E+04    0.54335E+02    0.00000E+00 10640   0.150E+03 0.000E+00
CGA:   2    -0.126481573954E+04   -0.35858E+02   -0.35949E+02 10640   0.685E+02 0.346E+00
CGA:   3    -0.128046365374E+04   -0.15648E+02   -0.15642E+02 10640   0.129E+02 0.323E+00
CGA:   4    -0.128252605435E+04   -0.20624E+01   -0.20582E+01 10640   0.249E+01 0.872E-01
CGA:   5    -0.128302195371E+04   -0.49590E+00   -0.49490E+00 10640   0.695E+00 0.242E-02
CGA:   6    -0.128315616680E+04   -0.13421E+00   -0.13341E+00 10640   0.227E+00 0.166E-02
CGA:   7    -0.128320585222E+04   -0.49685E-01   -0.48499E-01 10640   0.639E-01-0.568E-02
CGA:   8    -0.128322181305E+04   -0.15961E-01   -0.15569E-01 10640   0.306E-01-0.201E-02
CGA:   9    -0.128322992841E+04   -0.81154E-02   -0.76382E-02 10640   0.172E-01-0.289E-02
CGA:  10    -0.128323428486E+04   -0.43564E-02   -0.39645E-02 10640   0.795E-02-0.244E-02
CGA:  11    -0.128323635162E+04   -0.20668E-02   -0.17907E-02 10640   0.459E-02-0.190E-02
CGA:  12    -0.128323739109E+04   -0.10395E-02   -0.83344E-03 10640   0.266E-02-0.128E-02
CGA:  13    -0.128323804692E+04   -0.65583E-03   -0.60310E-03 10640   0.214E-02-0.687E-03
CGA:  14    -0.128323863996E+04   -0.59305E-03   -0.55998E-03 10640   0.311E-02-0.955E-03
CGA:  15    -0.128323908735E+04   -0.44738E-03   -0.40846E-03 10640   0.139E-02-0.262E-03
CGA:  16    -0.128323952828E+04   -0.44094E-03   -0.43748E-03 10640   0.152E-02-0.106E-03
CGA:  17    -0.128323973132E+04   -0.20303E-03   -0.21262E-03 10640   0.534E-03 0.429E-04
CGA:  18    -0.128323975115E+04   -0.19830E-04   -0.80789E-04 10640   0.332E-03 0.279E-03
CGA:  19    -0.128323977301E+04   -0.21857E-04   -0.49093E-04 10640   0.168E-03 0.132E-03
CGA:  20    -0.128323977202E+04    0.98931E-06   -0.31532E-04 10640   0.996E-04 0.155E-03
CGA:  21    -0.128323976462E+04    0.73919E-05   -0.10090E-04 10640   0.735E-04 0.753E-04
  57 F= -.12832398E+04 E0= -.12832398E+04  d E =0.524494E-01  mag=    47.0000
       N       E                     dE             d eps       ncg     rms          ort
SDA:   1    -0.125186571955E+04    0.31374E+02    0.00000E+00 10640   0.879E+02 0.000E+00
CGA:   2    -0.127254238918E+04   -0.20677E+02   -0.20687E+02 10640   0.398E+02 0.516E-01
CGA:   3    -0.128171370475E+04   -0.91713E+01   -0.91752E+01 10640   0.764E+01 0.875E-02
CGA:   4    -0.128292686100E+04   -0.12132E+01   -0.12127E+01 10640   0.145E+01 0.112E-01
CGA:   5    -0.128321295624E+04   -0.28610E+00   -0.28652E+00 10640   0.391E+00 0.407E-02
CGA:   6    -0.128328978041E+04   -0.76824E-01   -0.76539E-01 10640   0.130E+00-0.239E-02
CGA:   7    -0.128331653115E+04   -0.26751E-01   -0.26544E-01 10640   0.356E-01-0.242E-02
CGA:   8    -0.128332527992E+04   -0.87488E-02   -0.86754E-02 10640   0.183E-01-0.210E-02
CGA:   9    -0.128332940179E+04   -0.41219E-02   -0.40257E-02 10640   0.105E-01-0.204E-02
CGA:  10    -0.128333166738E+04   -0.22656E-02   -0.22237E-02 10640   0.425E-02-0.106E-02
CGA:  11    -0.128333285386E+04   -0.11865E-02   -0.14170E-02 10640   0.532E-02-0.241E-02
CGA:  12    -0.128333336659E+04   -0.51273E-03   -0.56411E-03 10640   0.843E-03 0.316E-03
CGA:  13    -0.128333370812E+04   -0.34153E-03   -0.44009E-03 10640   0.105E-02-0.447E-03
CGA:  14    -0.128333398670E+04   -0.27858E-03   -0.27046E-03 10640   0.668E-03-0.310E-03
CGA:  15    -0.128333409162E+04   -0.10492E-03   -0.97572E-04 10640   0.356E-03-0.974E-04
CGA:  16    -0.128333390428E+04    0.18735E-03   -0.33646E-03 10640   0.492E-02-0.633E-03
CGA:  17    -0.128333469973E+04   -0.79545E-03   -0.70560E-03 10640   0.524E-03-0.504E-03
CGA:  18    -0.128333474725E+04   -0.47522E-04   -0.61941E-04 10640   0.108E-03 0.817E-04
CGA:  19    -0.128333477406E+04   -0.26813E-04   -0.27610E-04 10640   0.782E-04 0.101E-04
CGA:  20    -0.128333485321E+04   -0.79153E-04    0.22947E-04 10640   0.962E-04 0.279E-04
CGA:  21    -0.128333494406E+04   -0.90846E-04    0.11491E-03 10640   0.117E-03 0.325E-04
CGA:  22    -0.128333504298E+04   -0.98925E-04    0.38038E-03 10640   0.873E-04 0.666E-04
CGA:  23    -0.128333510039E+04   -0.57401E-04    0.12501E-03 10640   0.104E-03-0.250E-04
CGA:  24    -0.128333512446E+04   -0.24071E-04   -0.24399E-04 10640   0.792E-04-0.110E-04
CGA:  25    -0.128333514133E+04   -0.16877E-04   -0.16427E-04 10640   0.633E-04-0.669E-05
CGA:  26    -0.128333519496E+04   -0.53624E-04    0.15172E-04 10640   0.534E-04 0.251E-04
CGA:  27    -0.128333524326E+04   -0.48301E-04    0.11601E-03 10640   0.626E-04-0.174E-05
CGA:  28    -0.128333529336E+04   -0.50108E-04    0.22486E-04 10640   0.653E-04 0.119E-04
CGA:  29    -0.128333534968E+04   -0.56319E-04    0.51362E-04 10640   0.624E-04-0.868E-05
CGA:  30    -0.128333541233E+04   -0.62651E-04    0.83529E-05 10640   0.712E-04 0.831E-05
CGA:  31    -0.128333546812E+04   -0.55787E-04    0.71114E-04 10640   0.617E-04-0.216E-04
CGA:  32    -0.128333549361E+04   -0.25489E-04    0.31563E-02 10640   0.330E-04-0.150E-04
CGA:  33    -0.128333553346E+04   -0.39849E-04    0.21823E-05 10640   0.365E-04-0.217E-04
CGA:  34    -0.128333553160E+04    0.18606E-05   -0.25862E-05 10640   0.124E-04 0.198E-04
  58 F= -.12833355E+04 E0= -.12833355E+04  d E =-.957670E-01  mag=    47.0000
       N       E                     dE             d eps       ncg     rms          ort
SDA:   1    -0.125508383184E+04    0.28252E+02    0.00000E+00 10640   0.737E+02 0.000E+00
CGA:   2    -0.127442336007E+04   -0.19340E+02   -0.19339E+02 10640   0.349E+02-0.174E-01
CGA:   3    -0.128208241880E+04   -0.76591E+01   -0.76606E+01 10640   0.531E+01 0.922E-03
CGA:   4    -0.128300180165E+04   -0.91938E+00   -0.91954E+00 10640   0.108E+01-0.394E-03
CGA:   5    -0.128322559090E+04   -0.22379E+00   -0.22399E+00 10640   0.254E+00 0.374E-02
CGA:   6    -0.128328304790E+04   -0.57457E-01   -0.57279E-01 10640   0.936E-01-0.451E-02
CGA:   7    -0.128329974630E+04   -0.16698E-01   -0.16499E-01 10640   0.304E-01-0.236E-02
CGA:   8    -0.128330692928E+04   -0.71830E-02   -0.71568E-02 10640   0.130E-01-0.168E-02
CGA:   9    -0.128331062300E+04   -0.36937E-02   -0.38751E-02 10640   0.102E-01-0.308E-02
CGA:  10    -0.128331205755E+04   -0.14346E-02   -0.13573E-02 10640   0.344E-02-0.878E-03
CGA:  11    -0.128331301847E+04   -0.96092E-03   -0.11554E-02 10640   0.231E-02-0.173E-02
CGA:  12    -0.128331347122E+04   -0.45274E-03   -0.44044E-03 10640   0.829E-03-0.175E-03
CGA:  13    -0.128331360571E+04   -0.13449E-03   -0.13644E-03 10640   0.254E-03 0.262E-04
CGA:  14    -0.128331371980E+04   -0.11409E-03   -0.13573E-03 10640   0.326E-03-0.825E-04
CGA:  15    -0.128331389551E+04   -0.17572E-03    0.58987E-04 10640   0.269E-03-0.814E-04
CGA:  16    -0.128331390780E+04   -0.12286E-04   -0.12985E-03 10640   0.796E-03-0.314E-03
CGA:  17    -0.128331408476E+04   -0.17696E-03   -0.16608E-03 10640   0.447E-03-0.141E-03
CGA:  18    -0.128331413244E+04   -0.47683E-04   -0.54650E-04 10640   0.114E-03 0.534E-04
CGA:  19    -0.128331414806E+04   -0.15613E-04   -0.20554E-04 10640   0.850E-04 0.435E-04
CGA:  20    -0.128331418239E+04   -0.34329E-04   -0.34552E-04 10640   0.685E-04-0.886E-05
CGA:  21    -0.128331419837E+04   -0.15981E-04   -0.15753E-04 10640   0.640E-04-0.171E-04
CGA:  22    -0.128331420529E+04   -0.69238E-05   -0.83233E-05 10640   0.442E-04 0.143E-04
  59 F= -.12833142E+04 E0= -.12833142E+04  d E =0.213263E-01  mag=    47.0000
       N       E                     dE             d eps       ncg     rms          ort
SDA:   1    -0.120156624775E+04    0.81748E+02    0.00000E+00 10640   0.226E+03 0.000E+00
CGA:   2    -0.125547996582E+04   -0.53914E+02   -0.53929E+02 10640   0.103E+03 0.376E+00
CGA:   3    -0.127911523897E+04   -0.23635E+02   -0.23638E+02 10640   0.187E+02 0.373E-01
CGA:   4    -0.128218349203E+04   -0.30683E+01   -0.30747E+01 10640   0.354E+01 0.188E-01
CGA:   5    -0.128291000923E+04   -0.72652E+00   -0.72613E+00 10640   0.967E+00 0.390E-02
CGA:   6    -0.128309726578E+04   -0.18726E+00   -0.18700E+00 10640   0.379E+00-0.827E-02
CGA:   7    -0.128316703846E+04   -0.69773E-01   -0.69090E-01 10640   0.109E+00-0.905E-02
CGA:   8    -0.128319357114E+04   -0.26533E-01   -0.26588E-01 10640   0.552E-01-0.896E-02
CGA:   9    -0.128320553919E+04   -0.11968E-01   -0.11929E-01 10640   0.293E-01-0.446E-02
CGA:  10    -0.128321286346E+04   -0.73243E-02   -0.76849E-02 10640   0.192E-01-0.857E-02
CGA:  11    -0.128321566832E+04   -0.28049E-02   -0.26542E-02 10640   0.666E-02-0.295E-02
CGA:  12    -0.128321715944E+04   -0.14911E-02   -0.25006E-02 10640   0.984E-02-0.503E-02
CGA:  13    -0.128321834290E+04   -0.11835E-02   -0.12844E-02 10640   0.226E-02 0.856E-03
CGA:  14    -0.128321891261E+04   -0.56971E-03   -0.57037E-03 10640   0.981E-03 0.436E-04
CGA:  15    -0.128321914374E+04   -0.23113E-03   -0.23486E-03 10640   0.639E-03 0.320E-03
CGA:  16    -0.128321939467E+04   -0.25093E-03   -0.24397E-03 10640   0.318E-03 0.165E-03
CGA:  17    -0.128321960187E+04   -0.20720E-03   -0.26785E-03 10640   0.107E-02-0.145E-03
CGA:  18    -0.128321961952E+04   -0.17656E-04   -0.43820E-04 10640   0.793E-03 0.136E-03
CGA:  19    -0.128321964557E+04   -0.26045E-04   -0.65350E-04 10640   0.435E-03 0.212E-03
CGA:  20    -0.128321970216E+04   -0.56593E-04   -0.72027E-04 10640   0.619E-03 0.129E-03
CGA:  21    -0.128321988548E+04   -0.18332E-03   -0.17933E-03 10640   0.909E-03-0.196E-03
CGA:  22    -0.128321999060E+04   -0.10513E-03   -0.65465E-04 10640   0.857E-03-0.289E-03
CGA:  23    -0.128322009234E+04   -0.10174E-03   -0.69177E-04 10640   0.106E-02-0.278E-03
CGA:  24    -0.128322019515E+04   -0.10281E-03   -0.80331E-04 10640   0.117E-02-0.195E-03
CGA:  25    -0.128322029764E+04   -0.10249E-03   -0.85459E-04 10640   0.707E-03-0.131E-03
CGA:  26    -0.128322036676E+04   -0.69121E-04   -0.53291E-04 10640   0.360E-03-0.122E-03
CGA:  27    -0.128322041050E+04   -0.43732E-04   -0.33419E-04 10640   0.309E-03-0.106E-03
CGA:  28    -0.128322042347E+04   -0.12977E-04   -0.16537E-04 10640   0.271E-03 0.262E-04
CGA:  29    -0.128322042366E+04   -0.18633E-06   -0.17164E-04 10640   0.182E-03 0.120E-03
CGA:  30    -0.128322041557E+04    0.80926E-05   -0.12687E-04 10640   0.126E-03 0.144E-03
CGA:  31    -0.128322041801E+04   -0.24393E-05   -0.11332E-04 10640   0.800E-04 0.935E-04
  60 F= -.12832204E+04 E0= -.12832204E+04  d E =0.937873E-01  mag=    47.0000
       N       E                     dE             d eps       ncg     rms          ort
SDA:   1    -0.126603968293E+04    0.17181E+02    0.00000E+00 10640   0.496E+02 0.000E+00
CGA:   2    -0.127729987295E+04   -0.11260E+02   -0.11259E+02 10640   0.218E+02 0.250E-01
CGA:   3    -0.128246489744E+04   -0.51650E+01   -0.51635E+01 10640   0.432E+01 0.111E-01
CGA:   4    -0.128315715691E+04   -0.69226E+00   -0.69232E+00 10640   0.769E+00 0.253E-02
CGA:   5    -0.128331364156E+04   -0.15648E+00   -0.15637E+00 10640   0.200E+00 0.547E-02
