       N       E                     dE             d eps       ncg     rms          rms(c)
DAV:   1     0.829848785589E+04    0.82985E+04   -0.23585E+05 34308   0.219E+03
DAV:   2     0.121673099786E+04   -0.70818E+04   -0.66555E+04 33696   0.635E+02
DAV:   3    -0.317330490030E+03   -0.15341E+04   -0.13427E+04 35916   0.272E+02
DAV:   4    -0.471013314540E+03   -0.15368E+03   -0.15107E+03 36828   0.834E+01
DAV:   5    -0.473559443745E+03   -0.25461E+01   -0.25357E+01 36888   0.121E+01    0.109E+02
DAV:   6    -0.537693864963E+03   -0.64134E+02   -0.98183E+02 45564   0.124E+02    0.145E+02
DAV:   7    -0.413865242801E+03    0.12383E+03   -0.30244E+02 38532   0.108E+02    0.730E+01
DAV:   8    -0.408767167712E+03    0.50981E+01   -0.16893E+02 41292   0.524E+01    0.697E+01
DAV:   9    -0.418879621517E+03   -0.10112E+02   -0.95980E+01 36996   0.672E+01    0.720E+01
DAV:  10    -0.406526705469E+03    0.12353E+02   -0.58152E+01 37320   0.363E+01    0.414E+01
DAV:  11    -0.402289076169E+03    0.42376E+01   -0.29408E+01 37008   0.232E+01    0.311E+01
DAV:  12    -0.401574843140E+03    0.71423E+00   -0.49698E+00 37584   0.176E+01    0.215E+01
DAV:  13    -0.402359210056E+03   -0.78437E+00   -0.20090E+00 37884   0.973E+00    0.180E+01
DAV:  14    -0.403116762274E+03   -0.75755E+00   -0.11684E+00 38772   0.464E+00    0.146E+01
DAV:  15    -0.404331999266E+03   -0.12152E+01   -0.11360E+00 41928   0.928E+00    0.932E+00
DAV:  16    -0.404184474691E+03    0.14752E+00   -0.11459E+00 38088   0.975E+00    0.704E+00
DAV:  17    -0.404262037873E+03   -0.77563E-01   -0.60739E-01 37872   0.433E+00    0.322E+00
DAV:  18    -0.404268795007E+03   -0.67571E-02   -0.14755E-01 40944   0.191E+00    0.226E+00
DAV:  19    -0.404252376310E+03    0.16419E-01   -0.53844E-02 41292   0.170E+00    0.189E+00
DAV:  20    -0.404241010310E+03    0.11366E-01   -0.23218E-02 39252   0.135E+00    0.149E+00
DAV:  21    -0.404234447044E+03    0.65633E-02   -0.21317E-02 40464   0.938E-01    0.114E+00
DAV:  22    -0.404226748638E+03    0.76984E-02   -0.94890E-03 44280   0.867E-01    0.859E-01
DAV:  23    -0.404223300434E+03    0.34482E-02   -0.11894E-02 38916   0.615E-01    0.597E-01
DAV:  24    -0.404222165664E+03    0.11348E-02   -0.70881E-03 42696   0.451E-01    0.442E-01
DAV:  25    -0.404221443434E+03    0.72223E-03   -0.29922E-03 37596   0.316E-01    0.310E-01
DAV:  26    -0.404221138982E+03    0.30445E-03   -0.17273E-03 38832   0.277E-01    0.205E-01
DAV:  27    -0.404221012002E+03    0.12698E-03   -0.10339E-03 41808   0.220E-01    0.129E-01
DAV:  28    -0.404221087439E+03   -0.75437E-04   -0.11258E-03 37800   0.117E-01    0.936E-02
DAV:  29    -0.404221111625E+03   -0.24186E-04   -0.11366E-04 37584   0.865E-02    0.598E-02
DAV:  30    -0.404221159350E+03   -0.47726E-04   -0.91247E-05 38808   0.593E-02    0.419E-02
DAV:  31    -0.404221224974E+03   -0.65624E-04   -0.98947E-05 37164   0.456E-02    0.350E-02
DAV:  32    -0.404221303605E+03   -0.78630E-04   -0.42813E-05 33888   0.450E-02    0.292E-02
DAV:  33    -0.404221376496E+03   -0.72892E-04   -0.61593E-05 35832   0.478E-02    0.286E-02
DAV:  34    -0.404221424207E+03   -0.47711E-04   -0.57759E-05 37020   0.382E-02    0.264E-02
DAV:  35    -0.404221467641E+03   -0.43434E-04   -0.39011E-05 30984   0.527E-02    0.243E-02
DAV:  36    -0.404221496128E+03   -0.28486E-04   -0.98526E-05 38076   0.670E-02    0.222E-02
DAV:  37    -0.404221516278E+03   -0.20150E-04   -0.83255E-05 35556   0.272E-02    0.177E-02
DAV:  38    -0.404221521278E+03   -0.50004E-05   -0.14115E-05 25056   0.102E-02
   1 F= -.40422152E+03 E0= -.40422152E+03  d E =-.404222E+03  mag=     1.0000
       N       E                     dE             d eps       ncg     rms          rms(c)
DAV:   1    -0.404233124079E+03   -0.11608E-01   -0.94086E-03 49944   0.105E+00    0.640E-02
DAV:   2    -0.404233639576E+03   -0.51550E-03   -0.52982E-03 36192   0.127E-01    0.428E-02
DAV:   3    -0.404233649971E+03   -0.10395E-04   -0.19136E-04 35988   0.648E-02    0.331E-02
DAV:   4    -0.404233646171E+03    0.38007E-05   -0.21812E-05 27528   0.372E-02
   2 F= -.40423365E+03 E0= -.40423365E+03  d E =-.121249E-01  mag=     1.0000
       N       E                     dE             d eps       ncg     rms          rms(c)
DAV:   1    -0.403769568552E+03    0.46408E+00   -0.14990E+01 49884   0.414E+01    0.291E+00
DAV:   2    -0.404614893741E+03   -0.84533E+00   -0.86468E+00 36120   0.544E+00    0.202E+00
DAV:   3    -0.404626192490E+03   -0.11299E-01   -0.37095E-01 36624   0.302E+00    0.135E+00
DAV:   4    -0.404619116829E+03    0.70757E-02   -0.39690E-02 37632   0.169E+00    0.926E-01
DAV:   5    -0.404623314650E+03   -0.41978E-02   -0.22912E-02 38292   0.957E-01    0.887E-01
DAV:   6    -0.404619327912E+03    0.39867E-02   -0.14081E-02 36804   0.830E-01    0.216E-01
DAV:   7    -0.404619388099E+03   -0.60187E-04   -0.25218E-03 38256   0.267E-01    0.128E-01
DAV:   8    -0.404619305013E+03    0.83086E-04   -0.67680E-04 36660   0.155E-01    0.601E-02
DAV:   9    -0.404619277645E+03    0.27368E-04   -0.12109E-04 38568   0.686E-02    0.416E-02
DAV:  10    -0.404619269102E+03    0.85421E-05   -0.95382E-05 36504   0.740E-02
   3 F= -.40461927E+03 E0= -.40461927E+03  d E =-.385623E+00  mag=     1.0000
       N       E                     dE             d eps       ncg     rms          rms(c)
DAV:   1    -0.403296840270E+03    0.13224E+01   -0.39319E+01 48000   0.563E+01    0.447E+00
DAV:   2    -0.405017528410E+03   -0.17207E+01   -0.17465E+01 36900   0.888E+00    0.353E+00
DAV:   3    -0.405036983774E+03   -0.19455E-01   -0.11665E+00 36684   0.531E+00    0.209E+00
DAV:   4    -0.405020019367E+03    0.16964E-01   -0.10926E-01 37788   0.224E+00    0.141E+00
DAV:   5    -0.405028004517E+03   -0.79852E-02   -0.42365E-02 37500   0.139E+00    0.130E+00
DAV:   6    -0.405020403413E+03    0.76011E-02   -0.31042E-02 37176   0.121E+00    0.386E-01
DAV:   7    -0.405020310606E+03    0.92807E-04   -0.64320E-03 39012   0.445E-01    0.216E-01
DAV:   8    -0.405020098641E+03    0.21197E-03   -0.19226E-03 36648   0.262E-01    0.988E-02
DAV:   9    -0.405020048182E+03    0.50460E-04   -0.29081E-04 37776   0.107E-01    0.716E-02
DAV:  10    -0.405020030763E+03    0.17419E-04   -0.22075E-04 36828   0.120E-01    0.500E-02
DAV:  11    -0.405020019793E+03    0.10970E-04   -0.88136E-05 36648   0.661E-02    0.204E-02
DAV:  12    -0.405020022441E+03   -0.26478E-05   -0.23880E-05 23004   0.228E-02
   4 F= -.40502002E+03 E0= -.40502002E+03  d E =-.400753E+00  mag=     1.0000
       N       E                     dE             d eps       ncg     rms          rms(c)
DAV:   1    -0.405067196163E+03   -0.47176E-01   -0.25624E+01 37728   0.205E+01    0.144E+00
DAV:   2    -0.405271834472E+03   -0.20464E+00   -0.21578E+00 38364   0.398E+00    0.125E+00
DAV:   3    -0.405271948565E+03   -0.11409E-03   -0.12540E-01 36816   0.193E+00    0.862E-01
DAV:   4    -0.405268198637E+03    0.37499E-02   -0.14730E-02 37764   0.998E-01    0.560E-01
DAV:   5    -0.405268579623E+03   -0.38099E-03   -0.96821E-03 39432   0.740E-01    0.547E-01
DAV:   6    -0.405266836646E+03    0.17430E-02   -0.87916E-03 37224   0.641E-01    0.132E-01
DAV:   7    -0.405266884893E+03   -0.48247E-04   -0.19307E-03 36840   0.218E-01    0.909E-02
DAV:   8    -0.405266853977E+03    0.30915E-04   -0.54498E-04 37692   0.132E-01    0.508E-02
DAV:   9    -0.405266842474E+03    0.11504E-04   -0.11101E-04 36564   0.609E-02    0.340E-02
DAV:  10    -0.405266852127E+03   -0.96537E-05   -0.60579E-05 34716   0.586E-02
   5 F= -.40526685E+03 E0= -.40526685E+03  d E =-.246830E+00  mag=     1.0000
       N       E                     dE             d eps       ncg     rms          rms(c)
DAV:   1    -0.404778645487E+03    0.48820E+00   -0.33936E+01 42996   0.395E+01    0.222E+00
DAV:   2    -0.405434966285E+03   -0.65632E+00   -0.68122E+00 37284   0.557E+00    0.141E+00
DAV:   3    -0.405441998050E+03   -0.70318E-02   -0.19988E-01 37056   0.230E+00    0.107E+00
DAV:   4    -0.405438682121E+03    0.33159E-02   -0.34432E-02 38160   0.141E+00    0.773E-01
DAV:   5    -0.405438455337E+03    0.22678E-03   -0.13704E-02 40920   0.809E-01    0.566E-01
DAV:   6    -0.405437175319E+03    0.12800E-02   -0.10883E-02 36900   0.741E-01    0.232E-01
DAV:   7    -0.405437156081E+03    0.19238E-04   -0.29662E-03 37716   0.322E-01    0.123E-01
DAV:   8    -0.405437154948E+03    0.11325E-05   -0.90340E-04 38028   0.179E-01    0.769E-02
DAV:   9    -0.405437152864E+03    0.20841E-05   -0.23231E-04 36828   0.885E-02    0.522E-02
DAV:  10    -0.405437193447E+03   -0.40583E-04   -0.95767E-05 39444   0.715E-02    0.354E-02
DAV:  11    -0.405437214581E+03   -0.21134E-04   -0.65813E-05 36492   0.586E-02    0.271E-02
DAV:  12    -0.405437226158E+03   -0.11577E-04   -0.19046E-05 22380   0.277E-02    0.229E-02
DAV:  13    -0.405437242893E+03   -0.16735E-04   -0.68161E-06 20652   0.215E-02    0.198E-02
DAV:  14    -0.405437268944E+03   -0.26051E-04   -0.14875E-05 26700   0.313E-02    0.153E-02
DAV:  15    -0.405437285347E+03   -0.16404E-04   -0.23478E-05 28584   0.257E-02    0.124E-02
DAV:  16    -0.405437292948E+03   -0.76007E-05   -0.14081E-05 24816   0.155E-02
   6 F= -.40543729E+03 E0= -.40543729E+03  d E =-.170441E+00  mag=     1.0000
       N       E                     dE             d eps       ncg     rms          rms(c)
DAV:   1    -0.404065813367E+03    0.13715E+01   -0.43839E+01 45648   0.597E+01    0.334E+00
DAV:   2    -0.405475143199E+03   -0.14093E+01   -0.14689E+01 37452   0.816E+00    0.216E+00
DAV:   3    -0.405497453036E+03   -0.22310E-01   -0.53138E-01 37116   0.364E+00    0.170E+00
DAV:   4    -0.405484553389E+03    0.12900E-01   -0.67525E-02 37320   0.202E+00    0.111E+00
DAV:   5    -0.405485708221E+03   -0.11548E-02   -0.36408E-02 38448   0.120E+00    0.913E-01
DAV:   6    -0.405481117159E+03    0.45911E-02   -0.24250E-02 36732   0.116E+00    0.307E-01
DAV:   7    -0.405481184999E+03   -0.67840E-04   -0.52252E-03 38172   0.367E-01    0.156E-01
DAV:   8    -0.405481202924E+03   -0.17925E-04   -0.18853E-03 36252   0.242E-01    0.101E-01
DAV:   9    -0.405481147901E+03    0.55023E-04   -0.33345E-04 36876   0.119E-01    0.597E-02
DAV:  10    -0.405481169539E+03   -0.21638E-04   -0.16389E-04 38364   0.862E-02    0.411E-02
DAV:  11    -0.405481181299E+03   -0.11760E-04   -0.92806E-05 36576   0.710E-02    0.257E-02
DAV:  12    -0.405481189857E+03   -0.85582E-05   -0.19425E-05 22164   0.282E-02
   7 F= -.40548119E+03 E0= -.40548119E+03  d E =-.438969E-01  mag=     1.0000
       N       E                     dE             d eps       ncg     rms          rms(c)
DAV:   1    -0.405039872578E+03    0.44131E+00   -0.10246E+01 47784   0.370E+01    0.195E+00
DAV:   2    -0.405542617167E+03   -0.50274E+00   -0.52554E+00 37140   0.453E+00    0.113E+00
DAV:   3    -0.405548322333E+03   -0.57052E-02   -0.11413E-01 38400   0.137E+00    0.839E-01
DAV:   4    -0.405547581699E+03    0.74063E-03   -0.18101E-02 37536   0.989E-01    0.665E-01
DAV:   5    -0.405547153982E+03    0.42772E-03   -0.10653E-02 38532   0.693E-01    0.364E-01
DAV:   6    -0.405546612574E+03    0.54141E-03   -0.52457E-03 39096   0.513E-01    0.167E-01
DAV:   7    -0.405546536005E+03    0.76569E-04   -0.13588E-03 37308   0.231E-01    0.796E-02
DAV:   8    -0.405546524533E+03    0.11472E-04   -0.35336E-04 36684   0.106E-01    0.509E-02
DAV:   9    -0.405546513626E+03    0.10907E-04   -0.82155E-05 35856   0.620E-02    0.325E-02
DAV:  10    -0.405546516184E+03   -0.25574E-05   -0.50954E-05 36120   0.456E-02
   8 F= -.40554652E+03 E0= -.40554652E+03  d E =-.653263E-01  mag=     1.0000
       N       E                     dE             d eps       ncg     rms          rms(c)
DAV:   1    -0.405526123349E+03    0.20390E-01   -0.20135E+00 44208   0.898E+00    0.487E-01
DAV:   2    -0.405559308247E+03   -0.33185E-01   -0.34280E-01 36816   0.132E+00    0.326E-01
DAV:   3    -0.405559603018E+03   -0.29477E-03   -0.91564E-03 38064   0.434E-01    0.266E-01
DAV:   4    -0.405559380372E+03    0.22265E-03   -0.14193E-03 38928   0.279E-01    0.191E-01
DAV:   5    -0.405559307632E+03    0.72740E-04   -0.77454E-04 41508   0.210E-01    0.127E-01
DAV:   6    -0.405559232458E+03    0.75174E-04   -0.68497E-04 36900   0.189E-01    0.462E-02
DAV:   7    -0.405559239607E+03   -0.71493E-05   -0.19097E-04 37884   0.807E-02    0.276E-02
DAV:   8    -0.405559239383E+03    0.22355E-06   -0.42786E-05 32808   0.409E-02
   9 F= -.40555924E+03 E0= -.40555924E+03  d E =-.127232E-01  mag=     1.0000
       N       E                     dE             d eps       ncg     rms          rms(c)
DAV:   1    -0.405452275667E+03    0.10696E+00   -0.75344E+00 44484   0.179E+01    0.923E-01
DAV:   2    -0.405581859401E+03   -0.12958E+00   -0.13260E+00 37368   0.257E+00    0.546E-01
DAV:   3    -0.405582440343E+03   -0.58094E-03   -0.26339E-02 37080   0.741E-01    0.403E-01
DAV:   4    -0.405582100187E+03    0.34016E-03   -0.50588E-03 39312   0.579E-01    0.317E-01
DAV:   5    -0.405581783593E+03    0.31659E-03   -0.26960E-03 39744   0.342E-01    0.190E-01
DAV:   6    -0.405581713081E+03    0.70512E-04   -0.17865E-03 38040   0.278E-01    0.965E-02
DAV:   7    -0.405581719242E+03   -0.61615E-05   -0.45524E-04 37404   0.123E-01    0.480E-02
DAV:   8    -0.405581725184E+03   -0.59416E-05   -0.99648E-05 36696   0.618E-02
  10 F= -.40558173E+03 E0= -.40558173E+03  d E =-.224858E-01  mag=     1.0000
       N       E                     dE             d eps       ncg     rms          rms(c)
DAV:   1    -0.405210499072E+03    0.37122E+00   -0.11378E+01 45660   0.321E+01    0.163E+00
DAV:   2    -0.405584876469E+03   -0.37438E+00   -0.38549E+00 36768   0.421E+00    0.987E-01
DAV:   3    -0.405590133302E+03   -0.52568E-02   -0.10423E-01 36888   0.151E+00    0.724E-01
DAV:   4    -0.405588811883E+03    0.13214E-02   -0.15514E-02 38460   0.104E+00    0.534E-01
DAV:   5    -0.405588386161E+03    0.42572E-03   -0.58834E-03 42456   0.457E-01    0.210E-01
DAV:   6    -0.405588620763E+03   -0.23460E-03   -0.31021E-03 37860   0.354E-01    0.171E-01
DAV:   7    -0.405588503010E+03    0.11775E-03   -0.10746E-03 36492   0.215E-01    0.721E-02
DAV:   8    -0.405588490515E+03    0.12495E-04   -0.17711E-04 36984   0.814E-02    0.489E-02
DAV:   9    -0.405588484421E+03    0.60938E-05   -0.72002E-05 33876   0.534E-02
  11 F= -.40558848E+03 E0= -.40558848E+03  d E =-.675924E-02  mag=     1.0000
       N       E                     dE             d eps       ncg     rms          rms(c)
DAV:   1    -0.405413076190E+03    0.17541E+00   -0.38852E+00 48228   0.234E+01    0.116E+00
DAV:   2    -0.405602207781E+03   -0.18913E+00   -0.19726E+00 38700   0.286E+00    0.684E-01
DAV:   3    -0.405603860359E+03   -0.16526E-02   -0.37628E-02 38196   0.967E-01    0.505E-01
DAV:   4    -0.405603120291E+03    0.74007E-03   -0.59246E-03 37356   0.664E-01    0.378E-01
DAV:   5    -0.405602873637E+03    0.24665E-03   -0.32927E-03 38196   0.359E-01    0.240E-01
DAV:   6    -0.405602749658E+03    0.12398E-03   -0.21541E-03 37428   0.340E-01    0.130E-01
DAV:   7    -0.405602692522E+03    0.57135E-04   -0.60897E-04 37092   0.169E-01    0.463E-02
DAV:   8    -0.405602691629E+03    0.89375E-06   -0.12297E-04 36360   0.631E-02    0.306E-02
DAV:   9    -0.405602687058E+03    0.45702E-05   -0.33211E-05 30552   0.403E-02
  12 F= -.40560269E+03 E0= -.40560269E+03  d E =-.142026E-01  mag=     1.0000
       N       E                     dE             d eps       ncg     rms          rms(c)
DAV:   1    -0.405578328586E+03    0.24363E-01   -0.10935E+00 45324   0.801E+00    0.403E-01
DAV:   2    -0.405602999885E+03   -0.24671E-01   -0.25405E-01 38004   0.110E+00    0.245E-01
DAV:   3    -0.405603166657E+03   -0.16677E-03   -0.54646E-03 36804   0.350E-01    0.182E-01
DAV:   4    -0.405603066665E+03    0.99993E-04   -0.88709E-04 38496   0.245E-01    0.135E-01
DAV:   5    -0.405603008554E+03    0.58111E-04   -0.49813E-04 39780   0.141E-01    0.803E-02
DAV:   6    -0.405603002736E+03    0.58173E-05   -0.33719E-04 37836   0.113E-01    0.457E-02
DAV:   7    -0.405602998011E+03    0.47255E-05   -0.81148E-05 34656   0.541E-02
  13 F= -.40560300E+03 E0= -.40560300E+03  d E =-.310953E-03  mag=     1.0000
       N       E                     dE             d eps       ncg     rms          rms(c)
DAV:   1    -0.405586840999E+03    0.16162E-01   -0.72729E-01 45612   0.677E+00    0.334E-01
DAV:   2    -0.405604147319E+03   -0.17306E-01   -0.17685E-01 37644   0.906E-01    0.191E-01
DAV:   3    -0.405604191663E+03   -0.44344E-04   -0.23689E-03 38280   0.205E-01    0.137E-01
DAV:   4    -0.405604174915E+03    0.16748E-04   -0.51547E-04 38412   0.191E-01    0.114E-01
DAV:   5    -0.405604125037E+03    0.49878E-04   -0.31941E-04 39096   0.137E-01    0.589E-02
DAV:   6    -0.405604121804E+03    0.32331E-05   -0.19366E-04 37848   0.870E-02    0.308E-02
DAV:   7    -0.405604121798E+03    0.62864E-08   -0.48440E-05 33084   0.409E-02
  14 F= -.40560412E+03 E0= -.40560412E+03  d E =-.112379E-02  mag=     1.0000
       N       E                     dE             d eps       ncg     rms          rms(c)
DAV:   1    -0.405437392347E+03    0.16673E+00   -0.71814E+00 45576   0.211E+01    0.104E+00
DAV:   2    -0.405606687810E+03   -0.16930E+00   -0.17197E+00 37512   0.282E+00    0.561E-01
DAV:   3    -0.405607236441E+03   -0.54863E-03   -0.22400E-02 38904   0.540E-01    0.396E-01
DAV:   4    -0.405607334298E+03   -0.97857E-04   -0.50448E-03 38940   0.609E-01    0.344E-01
DAV:   5    -0.405606729259E+03    0.60504E-03   -0.29638E-03 38652   0.434E-01    0.129E-01
DAV:   6    -0.405606778164E+03   -0.48905E-04   -0.13434E-03 38196   0.211E-01    0.933E-02
DAV:   7    -0.405606750067E+03    0.28097E-04   -0.36238E-04 36420   0.116E-01    0.428E-02
DAV:   8    -0.405606742003E+03    0.80642E-05   -0.51259E-05 32580   0.401E-02
  15 F= -.40560674E+03 E0= -.40560674E+03  d E =-.262020E-02  mag=     1.0000
       N       E                     dE             d eps       ncg     rms          rms(c)
DAV:   1    -0.405267454583E+03    0.33930E+00   -0.11289E+01 46152   0.298E+01    0.150E+00
DAV:   2    -0.405603934642E+03   -0.33648E+00   -0.34326E+00 36792   0.390E+00    0.879E-01
DAV:   3    -0.405607432153E+03   -0.34975E-02   -0.72260E-02 37404   0.129E+00    0.674E-01
DAV:   4    -0.405606398000E+03    0.10342E-02   -0.12775E-02 39024   0.837E-01    0.505E-01
DAV:   5    -0.405606032808E+03    0.36519E-03   -0.54097E-03 40308   0.505E-01    0.354E-01
DAV:   6    -0.405605527072E+03    0.50574E-03   -0.43144E-03 36744   0.542E-01    0.135E-01
DAV:   7    -0.405605543347E+03   -0.16275E-04   -0.10279E-03 36744   0.186E-01    0.572E-02
DAV:   8    -0.405605540884E+03    0.24638E-05   -0.19890E-04 36552   0.706E-02    0.369E-02
DAV:   9    -0.405605531101E+03    0.97828E-05   -0.53751E-05 33432   0.497E-02
  16 F= -.40560553E+03 E0= -.40560553E+03  d E =0.121090E-02  mag=     1.0000
       N       E                     dE             d eps       ncg     rms          rms(c)
DAV:   1    -0.405535330066E+03    0.70211E-01   -0.19768E+00 45924   0.145E+01    0.725E-01
DAV:   2    -0.405611527129E+03   -0.76197E-01   -0.78802E-01 36972   0.184E+00    0.427E-01
DAV:   3    -0.405612282988E+03   -0.75586E-03   -0.15698E-02 37488   0.592E-01    0.328E-01
DAV:   4    -0.405612067442E+03    0.21555E-03   -0.26208E-03 38352   0.402E-01    0.250E-01
DAV:   5    -0.405612000408E+03    0.67035E-04   -0.14026E-03 40140   0.245E-01    0.167E-01
DAV:   6    -0.405611879692E+03    0.12072E-03   -0.92789E-04 36972   0.253E-01    0.604E-02
DAV:   7    -0.405611880224E+03   -0.53269E-06   -0.21330E-04 36996   0.868E-02    0.271E-02
DAV:   8    -0.405611879289E+03    0.93498E-06   -0.47033E-05 32700   0.345E-02
  17 F= -.40561188E+03 E0= -.40561188E+03  d E =-.634819E-02  mag=     1.0000
       N       E                     dE             d eps       ncg     rms          rms(c)
DAV:   1    -0.405607740465E+03    0.41398E-02   -0.17384E-01 46056   0.405E+00    0.198E-01
DAV:   2    -0.405613655737E+03   -0.59153E-02   -0.61085E-02 36924   0.510E-01    0.116E-01
DAV:   3    -0.405613720592E+03   -0.64855E-04   -0.13844E-03 37272   0.154E-01    0.894E-02
DAV:   4    -0.405613709215E+03    0.11376E-04   -0.22470E-04 37368   0.114E-01    0.710E-02
DAV:   5    -0.405613702873E+03    0.63420E-05   -0.12038E-04 37584   0.714E-02    0.446E-02
DAV:   6    -0.405613693985E+03    0.88889E-05   -0.73020E-05 35292   0.695E-02
  18 F= -.40561369E+03 E0= -.40561369E+03  d E =-.181470E-02  mag=     1.0000
