       N       E                     dE             d eps       ncg     rms          ort
DAV:   1     0.281587054032E+04    0.28159E+04   -0.29223E+05  2880   0.140E+03
DAV:   2    -0.972349881964E+03   -0.37882E+04   -0.36553E+04  2880   0.312E+02
DAV:   3    -0.122899992780E+04   -0.25665E+03   -0.25455E+03  2880   0.848E+01
DAV:   4    -0.123199018847E+04   -0.29903E+01   -0.29802E+01  2880   0.973E+00
DAV:   5    -0.123203853180E+04   -0.48343E-01   -0.48244E-01  2880   0.114E+00
SDA:   6    -0.876583818574E+03    0.35545E+03   -0.48244E-01  2880   0.611E+03 0.000E+00
CGA:   7    -0.985638421427E+03   -0.10905E+03   -0.10940E+03  2880   0.521E+02 0.951E+01
CGA:   8    -0.996708885954E+03   -0.11070E+02   -0.10988E+02  2880   0.203E+02 0.505E+01
CGA:   9    -0.100116996937E+04   -0.44611E+01   -0.45094E+01  2880   0.199E+02-0.767E+01
CGA:  10    -0.100232630927E+04   -0.11563E+01   -0.10417E+01  2880   0.146E+02-0.230E+01
CGA:  11    -0.100370091381E+04   -0.13746E+01   -0.15421E+01  2880   0.507E+01-0.154E+01
CGA:  12    -0.100449239775E+04   -0.79148E+00   -0.10333E+01  2880   0.728E+01-0.378E+01
CGA:  13    -0.100476878419E+04   -0.27639E+00   -0.70121E+00  2880   0.275E+01-0.201E+01
CGA:  14    -0.100511844947E+04   -0.34967E+00   -0.25183E+00  2880   0.589E+00-0.178E+00
CGA:  15    -0.100521791975E+04   -0.99470E-01   -0.99781E-01  2880   0.302E+00 0.474E-01
CGA:  16    -0.100526614178E+04   -0.48222E-01   -0.46380E-01  2880   0.285E+00-0.122E-01
CGA:  17    -0.100528969838E+04   -0.23557E-01   -0.25455E-01  2880   0.113E+00-0.127E-01
CGA:  18    -0.100530331989E+04   -0.13622E-01   -0.14069E-01  2880   0.476E-01-0.178E-02
CGA:  19    -0.100530665993E+04   -0.33400E-02   -0.33004E-02  2880   0.273E-01 0.112E-02
CGA:  20    -0.100531043297E+04   -0.37730E-02   -0.38320E-02  2880   0.210E-01 0.188E-02
CGA:  21    -0.100531376718E+04   -0.33342E-02   -0.33271E-02  2880   0.296E-01-0.413E-03
CGA:  22    -0.100531616393E+04   -0.23968E-02   -0.23593E-02  2880   0.679E-02 0.198E-03
CGA:  23    -0.100531672118E+04   -0.55724E-03   -0.63086E-03  2880   0.416E-02 0.104E-02
CGA:  24    -0.100531700763E+04   -0.28645E-03   -0.33254E-03  2880   0.169E-02 0.519E-03
CGA:  25    -0.100531753533E+04   -0.52771E-03   -0.56812E-03  2880   0.568E-02-0.300E-03
CGA:  26    -0.100531775830E+04   -0.22297E-03   -0.24464E-03  2880   0.237E-02 0.339E-03
CGA:  27    -0.100531781896E+04   -0.60656E-04   -0.10026E-03  2880   0.111E-02 0.357E-03
CGA:  28    -0.100531784802E+04   -0.29064E-04   -0.60648E-04  2880   0.681E-03 0.338E-03
CGA:  29    -0.100531787863E+04   -0.30611E-04   -0.42760E-04  2880   0.429E-03 0.139E-03
CGA:  30    -0.100531795183E+04   -0.73198E-04   -0.73512E-04  2880   0.163E-02-0.223E-03
CGA:  31    -0.100531803901E+04   -0.87181E-04   -0.81152E-04  2880   0.171E-03-0.631E-04
CGA:  32    -0.100531809782E+04   -0.58806E-04    0.36282E-04  2880   0.116E-03 0.740E-05
CGA:  33    -0.100531814158E+04   -0.43763E-04   -0.50795E-04  2880   0.313E-03-0.222E-04
CGA:  34    -0.100531817482E+04   -0.33244E-04   -0.23867E-04  2880   0.148E-03-0.847E-04
CGA:  35    -0.100531818955E+04   -0.14730E-04   -0.10356E-04  2880   0.435E-04-0.627E-04
CGA:  36    -0.100531818887E+04    0.68811E-06   -0.10404E-05  2880   0.374E-04 0.172E-04
   1 F= -.10053182E+04 E0= -.10053024E+04  d E =-.100532E+04  mag=     1.0000
       N       E                     dE             d eps       ncg     rms          ort
SDA:   1    -0.100531727175E+04    0.91780E-03    0.00000E+00  2880   0.315E-02 0.000E+00
CGA:   2    -0.100531775961E+04   -0.48786E-03   -0.49977E-03  2880   0.469E-02-0.533E-03
CGA:   3    -0.100531813456E+04   -0.37495E-03   -0.36960E-03  2880   0.200E-02-0.148E-03
CGA:   4    -0.100531822320E+04   -0.88639E-04   -0.11626E-03  2880   0.368E-03 0.395E-03
CGA:   5    -0.100531823863E+04   -0.15435E-04   -0.24426E-04  2880   0.188E-03 0.119E-03
CGA:   6    -0.100531827185E+04   -0.33214E-04   -0.33191E-04  2880   0.134E-03 0.367E-05
CGA:   7    -0.100531828846E+04   -0.16610E-04   -0.15638E-04  2880   0.143E-03-0.758E-04
CGA:   8    -0.100531828938E+04   -0.92502E-06   -0.51764E-05  2880   0.293E-04 0.465E-04
   2 F= -.10053183E+04 E0= -.10053025E+04  d E =-.100516E-03  mag=     0.9991
       N       E                     dE             d eps       ncg     rms          ort
SDA:   1    -0.100531812097E+04    0.16748E-03    0.00000E+00  2880   0.220E-02 0.000E+00
CGA:   2    -0.100531821356E+04   -0.92582E-04   -0.98019E-04  2880   0.325E-03 0.703E-04
CGA:   3    -0.100531828897E+04   -0.75414E-04   -0.99621E-04  2880   0.448E-03-0.130E-03
CGA:   4    -0.100531830720E+04   -0.18226E-04   -0.20979E-04  2880   0.232E-03 0.616E-04
CGA:   5    -0.100531831687E+04   -0.96709E-05   -0.14169E-04  2880   0.537E-04 0.701E-04
   3 F= -.10053183E+04 E0= -.10053025E+04  d E =-.274858E-04  mag=     0.9991
