       N       E                     dE             d eps       ncg     rms          rms(c)
DAV:   1     0.310008654912E+04    0.31001E+04   -0.25757E+05 11544   0.130E+03
DAV:   2    -0.598712222331E+03   -0.36988E+04   -0.35660E+04 14112   0.297E+02
DAV:   3    -0.865686648575E+03   -0.26697E+03   -0.26525E+03 13992   0.845E+01
DAV:   4    -0.869108387502E+03   -0.34217E+01   -0.34086E+01 14088   0.103E+01
DAV:   5    -0.869168864224E+03   -0.60477E-01   -0.60324E-01 14304   0.126E+00    0.987E+01
DAV:   6    -0.771012530824E+03    0.98156E+02   -0.41141E+02 12912   0.321E+01    0.502E+01
DAV:   7    -0.780415243927E+03   -0.94027E+01   -0.22308E+01 13128   0.781E+00    0.163E+01
DAV:   8    -0.785294168071E+03   -0.48789E+01   -0.24190E+00 13524   0.275E+00    0.787E+00
DAV:   9    -0.787788467233E+03   -0.24943E+01   -0.14726E+00 14088   0.189E+00    0.387E+00
DAV:  10    -0.788317372185E+03   -0.52890E+00   -0.31835E-01 13200   0.980E-01    0.114E+00
DAV:  11    -0.788390625872E+03   -0.73254E-01   -0.43127E-02 13980   0.378E-01    0.624E-01
DAV:  12    -0.788401526218E+03   -0.10900E-01   -0.60790E-03 13392   0.152E-01    0.286E-01
DAV:  13    -0.788403768719E+03   -0.22425E-02   -0.12771E-03 13908   0.727E-02    0.101E-01
DAV:  14    -0.788404234689E+03   -0.46597E-03   -0.41945E-04 13272   0.438E-02    0.440E-02
DAV:  15    -0.788404256483E+03   -0.21794E-04   -0.75205E-05 13656   0.238E-02    0.302E-02
DAV:  16    -0.788404258521E+03   -0.20386E-05   -0.21853E-05 10512   0.154E-02
   1 F= -.78840426E+03 E0= -.78840426E+03  d E =-.788404E+03  mag=    -0.0045
       N       E                     dE             d eps       ncg     rms          rms(c)
DAV:   1    -0.788404304811E+03   -0.48328E-04   -0.28296E-03 12384   0.972E-02    0.159E-02
DAV:   2    -0.788404308635E+03   -0.38240E-05   -0.69810E-05 14448   0.154E-02    0.735E-03
DAV:   3    -0.788404306642E+03    0.19927E-05   -0.17782E-06  7692   0.410E-03    0.431E-03
DAV:   4    -0.788404304530E+03    0.21116E-05   -0.19650E-06  9384   0.610E-03
   2 F= -.78840430E+03 E0= -.78840430E+03  d E =-.460093E-04  mag=    -0.0001
       N       E                     dE             d eps       ncg     rms          rms(c)
DAV:   1    -0.788404352345E+03   -0.45703E-04   -0.13585E-01 11904   0.658E-01    0.835E-02
DAV:   2    -0.788404619913E+03   -0.26757E-03   -0.29870E-03 13512   0.897E-02    0.365E-02
DAV:   3    -0.788404599040E+03    0.20872E-04   -0.34812E-05 13884   0.136E-02    0.212E-02
DAV:   4    -0.788404589414E+03    0.96267E-05   -0.33927E-05 13380   0.142E-02
   3 F= -.78840459E+03 E0= -.78840459E+03  d E =-.284883E-03  mag=    -0.0000
       N       E                     dE             d eps       ncg     rms          rms(c)
DAV:   1    -0.787885634409E+03    0.51896E+00   -0.37765E+01 11904   0.116E+01    0.407E+00
DAV:   2    -0.787981507374E+03   -0.95873E-01   -0.14149E+00 14148   0.212E+00    0.154E+00
DAV:   3    -0.787938844247E+03    0.42663E-01   -0.34732E-02 14376   0.578E-01    0.636E-01
DAV:   4    -0.787921914300E+03    0.16930E-01   -0.28775E-02 14184   0.565E-01    0.196E-01
DAV:   5    -0.787919218427E+03    0.26959E-02   -0.15170E-02 14280   0.357E-01    0.172E-01
DAV:   6    -0.787918607569E+03    0.61086E-03   -0.27162E-03 14256   0.111E-01    0.103E-01
DAV:   7    -0.787917641254E+03    0.96632E-03   -0.12833E-03 14424   0.114E-01    0.401E-02
DAV:   8    -0.787917501028E+03    0.14023E-03   -0.57319E-04 14520   0.723E-02    0.424E-02
DAV:   9    -0.787917506879E+03   -0.58508E-05   -0.38050E-04 14160   0.399E-02    0.360E-02
DAV:  10    -0.787917496566E+03    0.10313E-04   -0.15652E-05 10356   0.118E-02    0.228E-02
DAV:  11    -0.787917490979E+03    0.55865E-05   -0.21458E-05 11316   0.125E-02
   4 F= -.78791749E+03 E0= -.78791749E+03  d E =0.487098E+00  mag=     0.0000
       N       E                     dE             d eps       ncg     rms          rms(c)
DAV:   1    -0.788076379352E+03   -0.15888E+00   -0.95861E+01 11592   0.183E+01    0.751E+00
DAV:   2    -0.788315073685E+03   -0.23869E+00   -0.38456E+00 14184   0.349E+00    0.271E+00
DAV:   3    -0.788194456158E+03    0.12062E+00   -0.84862E-02 14352   0.904E-01    0.138E+00
DAV:   4    -0.788129305247E+03    0.65151E-01   -0.88579E-02 14136   0.110E+00    0.334E-01
DAV:   5    -0.788121887035E+03    0.74182E-02   -0.56969E-02 14460   0.729E-01    0.292E-01
DAV:   6    -0.788120518389E+03    0.13686E-02   -0.13587E-02 14280   0.249E-01    0.221E-01
DAV:   7    -0.788118916144E+03    0.16022E-02   -0.21850E-03 13968   0.101E-01    0.107E-01
DAV:   8    -0.788117598823E+03    0.13173E-02   -0.11961E-03 14568   0.193E-01    0.641E-02
DAV:   9    -0.788117546337E+03    0.52486E-04   -0.12157E-03 14424   0.974E-02    0.606E-02
DAV:  10    -0.788117568386E+03   -0.22049E-04   -0.65240E-04 13896   0.497E-02    0.581E-02
DAV:  11    -0.788117551610E+03    0.16776E-04   -0.41370E-05 13992   0.122E-02    0.375E-02
DAV:  12    -0.788117535616E+03    0.15994E-04   -0.41128E-05 13440   0.172E-02    0.144E-02
DAV:  13    -0.788117535601E+03    0.14908E-07   -0.13267E-05  7896   0.689E-03
   5 F= -.78811754E+03 E0= -.78811754E+03  d E =-.200045E+00  mag=    -0.0000
       N       E                     dE             d eps       ncg     rms          rms(c)
DAV:   1    -0.788406369059E+03   -0.28883E+00   -0.18756E+01 11904   0.816E+00    0.316E+00
DAV:   2    -0.788451798693E+03   -0.45430E-01   -0.74059E-01 14256   0.157E+00    0.121E+00
DAV:   3    -0.788426332532E+03    0.25466E-01   -0.18965E-02 14340   0.484E-01    0.524E-01
DAV:   4    -0.788415331197E+03    0.11001E-01   -0.17323E-02 14124   0.498E-01    0.147E-01
DAV:   5    -0.788413867806E+03    0.14634E-02   -0.11339E-02 14340   0.316E-01    0.147E-01
DAV:   6    -0.788413626245E+03    0.24156E-03   -0.22875E-03 14172   0.921E-02    0.116E-01
DAV:   7    -0.788413122570E+03    0.50367E-03   -0.75102E-04 14280   0.607E-02    0.439E-02
DAV:   8    -0.788412882331E+03    0.24024E-03   -0.30932E-04 14604   0.824E-02    0.401E-02
DAV:   9    -0.788412872720E+03    0.96112E-05   -0.36967E-04 14196   0.440E-02    0.280E-02
DAV:  10    -0.788412874560E+03   -0.18398E-05   -0.54774E-05 13308   0.138E-02
   6 F= -.78841287E+03 E0= -.78841287E+03  d E =-.295339E+00  mag=     0.0000
       N       E                     dE             d eps       ncg     rms          rms(c)
DAV:   1    -0.788415123069E+03   -0.22503E-02   -0.33347E-02 11928   0.335E-01    0.111E-01
DAV:   2    -0.788415209870E+03   -0.86801E-04   -0.10798E-03 14328   0.556E-02    0.367E-02
DAV:   3    -0.788415193078E+03    0.16792E-04   -0.25568E-05 12516   0.121E-02    0.164E-02
DAV:   4    -0.788415189147E+03    0.39306E-05   -0.14781E-05  9648   0.834E-03
   7 F= -.78841519E+03 E0= -.78841519E+03  d E =-.231459E-02  mag=     0.0000
       N       E                     dE             d eps       ncg     rms          rms(c)
DAV:   1    -0.788420669532E+03   -0.54765E-02   -0.27519E-01 11640   0.954E-01    0.249E-01
DAV:   2    -0.788421254284E+03   -0.58475E-03   -0.72296E-03 14196   0.144E-01    0.791E-02
DAV:   3    -0.788421162806E+03    0.91478E-04   -0.17681E-04 14400   0.316E-02    0.383E-02
DAV:   4    -0.788421142884E+03    0.19923E-04   -0.88722E-05 14160   0.198E-02    0.165E-02
DAV:   5    -0.788421142165E+03    0.71830E-06   -0.15010E-05  9672   0.919E-03
   8 F= -.78842114E+03 E0= -.78842114E+03  d E =-.595302E-02  mag=     0.0000
       N       E                     dE             d eps       ncg     rms          rms(c)
DAV:   1    -0.788426515840E+03   -0.53730E-02   -0.23696E-01 11592   0.849E-01    0.132E-01
DAV:   2    -0.788426955015E+03   -0.43918E-03   -0.50637E-03 13872   0.115E-01    0.472E-02
DAV:   3    -0.788426918095E+03    0.36920E-04   -0.86615E-05 14316   0.217E-02    0.264E-02
DAV:   4    -0.788426906907E+03    0.11188E-04   -0.52647E-05 14016   0.161E-02    0.103E-02
DAV:   5    -0.788426906626E+03    0.28095E-06   -0.84835E-06  8400   0.675E-03
   9 F= -.78842691E+03 E0= -.78842691E+03  d E =-.576446E-02  mag=     0.0000
       N       E                     dE             d eps       ncg     rms          rms(c)
DAV:   1    -0.788443227576E+03   -0.16321E-01   -0.61854E+00 11520   0.422E+00    0.438E-01
DAV:   2    -0.788454800053E+03   -0.11572E-01   -0.12980E-01 13704   0.555E-01    0.218E-01
DAV:   3    -0.788454071669E+03    0.72838E-03   -0.16308E-03 14280   0.855E-02    0.135E-01
DAV:   4    -0.788453722573E+03    0.34910E-03   -0.13011E-03 13848   0.816E-02    0.464E-02
DAV:   5    -0.788453726378E+03   -0.38049E-05   -0.28238E-04 13800   0.329E-02    0.289E-02
DAV:   6    -0.788453727483E+03   -0.11052E-05   -0.88312E-05 13332   0.188E-02
  10 F= -.78845373E+03 E0= -.78845373E+03  d E =-.268209E-01  mag=     0.0000
       N       E                     dE             d eps       ncg     rms          rms(c)
DAV:   1    -0.788445239917E+03    0.84865E-02   -0.20637E+01 11520   0.772E+00    0.978E-01
DAV:   2    -0.788485286042E+03   -0.40046E-01   -0.45144E-01 13656   0.103E+00    0.427E-01
DAV:   3    -0.788482289541E+03    0.29965E-02   -0.55990E-03 14304   0.167E-01    0.253E-01
DAV:   4    -0.788480986503E+03    0.13030E-02   -0.51910E-03 13848   0.168E-01    0.808E-02
DAV:   5    -0.788481001643E+03   -0.15140E-04   -0.11398E-03 13944   0.703E-02    0.578E-02
DAV:   6    -0.788480986596E+03    0.15047E-04   -0.31073E-04 13596   0.357E-02    0.277E-02
DAV:   7    -0.788480975459E+03    0.11137E-04   -0.22916E-05 12540   0.155E-02    0.172E-02
DAV:   8    -0.788480967587E+03    0.78723E-05   -0.14929E-05 11064   0.145E-02
  11 F= -.78848097E+03 E0= -.78848097E+03  d E =-.272401E-01  mag=     0.0000
       N       E                     dE             d eps       ncg     rms          rms(c)
DAV:   1    -0.788461183556E+03    0.19792E-01   -0.64695E+00 11520   0.438E+00    0.692E-01
DAV:   2    -0.788473946706E+03   -0.12763E-01   -0.14593E-01 13896   0.605E-01    0.271E-01
DAV:   3    -0.788472712365E+03    0.12343E-02   -0.20308E-03 14376   0.104E-01    0.148E-01
DAV:   4    -0.788472243351E+03    0.46901E-03   -0.17003E-03 14040   0.963E-02    0.444E-02
DAV:   5    -0.788472243926E+03   -0.57488E-06   -0.38153E-04 14160   0.425E-02    0.339E-02
DAV:   6    -0.788472236156E+03    0.77700E-05   -0.76841E-05 13608   0.181E-02
  12 F= -.78847224E+03 E0= -.78847224E+03  d E =0.873143E-02  mag=    -0.0000
       N       E                     dE             d eps       ncg     rms          rms(c)
DAV:   1    -0.788470942303E+03    0.13016E-02   -0.13602E-01 11544   0.687E-01    0.218E-01
DAV:   2    -0.788471200521E+03   -0.25822E-03   -0.38182E-03 14400   0.109E-01    0.619E-02
DAV:   3    -0.788471138423E+03    0.62098E-04   -0.14512E-04 14472   0.309E-02    0.303E-02
DAV:   4    -0.788471127644E+03    0.10778E-04   -0.54839E-05 14112   0.172E-02    0.169E-02
DAV:   5    -0.788471127098E+03    0.54635E-06   -0.89292E-06  8568   0.920E-03
  13 F= -.78847113E+03 E0= -.78847113E+03  d E =0.110906E-02  mag=    -0.0000
       N       E                     dE             d eps       ncg     rms          rms(c)
DAV:   1    -0.788472551231E+03   -0.14236E-02   -0.54714E-02 11568   0.404E-01    0.655E-02
DAV:   2    -0.788472655295E+03   -0.10406E-03   -0.12380E-03 13896   0.563E-02    0.260E-02
DAV:   3    -0.788472644183E+03    0.11112E-04   -0.19202E-05 11964   0.103E-02    0.146E-02
DAV:   4    -0.788472640462E+03    0.37211E-05   -0.16907E-05 10644   0.957E-03
  14 F= -.78847264E+03 E0= -.78847264E+03  d E =-.151336E-02  mag=    -0.0000
       N       E                     dE             d eps       ncg     rms          rms(c)
DAV:   1    -0.788477893961E+03   -0.52498E-02   -0.19911E+00 11520   0.238E+00    0.261E-01
DAV:   2    -0.788481678522E+03   -0.37846E-02   -0.43019E-02 13632   0.317E-01    0.135E-01
DAV:   3    -0.788481403256E+03    0.27527E-03   -0.54455E-04 14208   0.483E-02    0.832E-02
DAV:   4    -0.788481264241E+03    0.13902E-03   -0.52825E-04 13920   0.523E-02    0.270E-02
DAV:   5    -0.788481265895E+03   -0.16538E-05   -0.11489E-04 13608   0.212E-02    0.192E-02
DAV:   6    -0.788481264962E+03    0.93255E-06   -0.36273E-05 12408   0.122E-02
  15 F= -.78848126E+03 E0= -.78848126E+03  d E =-.862450E-02  mag=     0.0000
       N       E                     dE             d eps       ncg     rms          rms(c)
DAV:   1    -0.788480228737E+03    0.10372E-02   -0.60520E+00 11520   0.420E+00    0.491E-01
DAV:   2    -0.788491922882E+03   -0.11694E-01   -0.13222E-01 13584   0.566E-01    0.232E-01
DAV:   3    -0.788491058030E+03    0.86485E-03   -0.16937E-03 14160   0.851E-02    0.141E-01
DAV:   4    -0.788490644310E+03    0.41372E-03   -0.14582E-03 13848   0.879E-02    0.445E-02
DAV:   5    -0.788490650980E+03   -0.66695E-05   -0.32609E-04 13776   0.356E-02    0.313E-02
DAV:   6    -0.788490648668E+03    0.23122E-05   -0.97595E-05 13548   0.198E-02
  16 F= -.78849065E+03 E0= -.78849065E+03  d E =-.938371E-02  mag=    -0.0000
       N       E                     dE             d eps       ncg     rms          rms(c)
DAV:   1    -0.788485668487E+03    0.49825E-02   -0.11990E+00 11520   0.189E+00    0.333E-01
DAV:   2    -0.788488086155E+03   -0.24177E-02   -0.28028E-02 13608   0.264E-01    0.125E-01
DAV:   3    -0.788487811864E+03    0.27429E-03   -0.40598E-04 14304   0.454E-02    0.672E-02
DAV:   4    -0.788487711295E+03    0.10057E-03   -0.35032E-04 13920   0.430E-02    0.197E-02
DAV:   5    -0.788487712460E+03   -0.11652E-05   -0.79012E-05 13896   0.188E-02
  17 F= -.78848771E+03 E0= -.78848771E+03  d E =0.293621E-02  mag=     0.0000
       N       E                     dE             d eps       ncg     rms          rms(c)
DAV:   1    -0.788487202790E+03    0.50851E-03   -0.12592E-01 11544   0.636E-01    0.158E-01
DAV:   2    -0.788487500690E+03   -0.29790E-03   -0.36139E-03 14016   0.101E-01    0.581E-02
DAV:   3    -0.788487451365E+03    0.49325E-04   -0.74789E-05 14400   0.215E-02    0.278E-02
DAV:   4    -0.788487437030E+03    0.14336E-04   -0.47100E-05 14064   0.162E-02    0.100E-02
DAV:   5    -0.788487435762E+03    0.12673E-05   -0.98834E-06  7800   0.899E-03
  18 F= -.78848744E+03 E0= -.78848744E+03  d E =0.276698E-03  mag=     0.0000
       N       E                     dE             d eps       ncg     rms          rms(c)
DAV:   1    -0.788488074871E+03   -0.63784E-03   -0.25762E-02 11544   0.282E-01    0.402E-02
DAV:   2    -0.788488125283E+03   -0.50412E-04   -0.57548E-04 13632   0.388E-02    0.169E-02
DAV:   3    -0.788488120896E+03    0.43877E-05   -0.77672E-06  9180   0.606E-03    0.970E-03
DAV:   4    -0.788488119062E+03    0.18333E-05   -0.69672E-06  7032   0.615E-03
  19 F= -.78848812E+03 E0= -.78848812E+03  d E =-.683300E-03  mag=     0.0000
       N       E                     dE             d eps       ncg     rms          rms(c)
DAV:   1    -0.788489964592E+03   -0.18437E-02   -0.57939E-01 11520   0.134E+00    0.163E-01
DAV:   2    -0.788491088998E+03   -0.11244E-02   -0.12792E-02 13752   0.183E-01    0.762E-02
DAV:   3    -0.788491012202E+03    0.76796E-04   -0.17619E-04 14304   0.276E-02    0.461E-02
DAV:   4    -0.788490976014E+03    0.36188E-04   -0.14482E-04 14088   0.283E-02    0.159E-02
DAV:   5    -0.788490975212E+03    0.80230E-06   -0.28832E-05 11616   0.119E-02
  20 F= -.78849098E+03 E0= -.78849098E+03  d E =-.285615E-02  mag=    -0.0000
       N       E                     dE             d eps       ncg     rms          rms(c)
DAV:   1    -0.788491676005E+03   -0.69999E-03   -0.79516E-01 11520   0.163E+00    0.253E-01
DAV:   2    -0.788493284153E+03   -0.16081E-02   -0.18399E-02 13680   0.230E-01    0.102E-01
DAV:   3    -0.788493149232E+03    0.13492E-03   -0.27992E-04 14448   0.374E-02    0.575E-02
DAV:   4    -0.788493096897E+03    0.52334E-04   -0.21825E-04 13992   0.358E-02    0.184E-02
DAV:   5    -0.788493095943E+03    0.95421E-06   -0.44840E-05 13368   0.155E-02
  21 F= -.78849310E+03 E0= -.78849310E+03  d E =-.212073E-02  mag=    -0.0000
       N       E                     dE             d eps       ncg     rms          rms(c)
DAV:   1    -0.788491528559E+03    0.15683E-02   -0.24476E-01 11520   0.901E-01    0.198E-01
DAV:   2    -0.788492044127E+03   -0.51557E-03   -0.63828E-03 13920   0.136E-01    0.749E-02
DAV:   3    -0.788491966552E+03    0.77575E-04   -0.12865E-04 14400   0.249E-02    0.376E-02
DAV:   4    -0.788491939793E+03    0.26759E-04   -0.85542E-05 14040   0.213E-02    0.112E-02
DAV:   5    -0.788491938946E+03    0.84735E-06   -0.17112E-05  9348   0.101E-02
  22 F= -.78849194E+03 E0= -.78849194E+03  d E =0.115700E-02  mag=     0.0000
       N       E                     dE             d eps       ncg     rms          rms(c)
DAV:   1    -0.788491709698E+03    0.23009E-03   -0.98970E-02 11520   0.588E-01    0.142E-01
DAV:   2    -0.788491949194E+03   -0.23950E-03   -0.28050E-03 13944   0.914E-02    0.493E-02
DAV:   3    -0.788491913821E+03    0.35373E-04   -0.50547E-05 14280   0.172E-02    0.236E-02
DAV:   4    -0.788491902676E+03    0.11145E-04   -0.34779E-05 13008   0.136E-02    0.715E-03
DAV:   5    -0.788491902250E+03    0.42594E-06   -0.73722E-06  7200   0.706E-03
  23 F= -.78849190E+03 E0= -.78849190E+03  d E =0.366958E-04  mag=    -0.0000
