       N       E                     dE             d eps       ncg     rms          ort
DAV:   1     0.845690544976E+04    0.84569E+04   -0.38155E+05  6370   0.178E+03
DAV:   2     0.360606513295E+03   -0.80963E+04   -0.74422E+04  6370   0.459E+02
DAV:   3    -0.839133305818E+03   -0.11997E+04   -0.11725E+04  6370   0.196E+02
DAV:   4    -0.899748443456E+03   -0.60615E+02   -0.57297E+02  6370   0.441E+01
DAV:   5    -0.901956511140E+03   -0.22081E+01   -0.21553E+01  6370   0.718E+00
SDA:   6    -0.381555822653E+03    0.52040E+03   -0.21553E+01  6370   0.343E+04 0.000E+00
CGA:   7    -0.669489325332E+03   -0.28793E+03   -0.35500E+03  6370   0.396E+04-0.433E+03
CGA:   8    -0.630321057850E+03    0.39168E+02   -0.15909E+03  6370   0.232E+04-0.106E+04
CGA:   9    -0.681245103616E+03   -0.50924E+02   -0.36482E+02  6370   0.173E+04-0.101E+04
CGA:  10    -0.648668911049E+03    0.32576E+02   -0.46024E+02  6370   0.233E+04-0.740E+03
CGA:  11    -0.692876442130E+03   -0.44208E+02   -0.23317E+02  6370   0.199E+04 0.171E+04
CGA:  12    -0.733500834405E+03   -0.40624E+02   -0.62254E+02  6370   0.704E+03-0.782E+03
CGA:  13    -0.742527611107E+03   -0.90268E+01   -0.20436E+02  6370   0.129E+04-0.623E+03
CGA:  14    -0.710278156460E+03    0.32249E+02   -0.55266E+02  6370   0.231E+04-0.114E+04
CGA:  15    -0.711482911103E+03   -0.12048E+01   -0.82817E+02  6370   0.159E+04-0.126E+04
CGA:  16    -0.750038732836E+03   -0.38556E+02   -0.37357E+02  6370   0.919E+03-0.105E+04
CGA:  17    -0.721798154055E+03    0.28241E+02   -0.38016E+02  6370   0.213E+04-0.978E+03
CGA:  18    -0.715330889234E+03    0.64673E+01   -0.80927E+02  6370   0.192E+04-0.135E+04
CGA:  19    -0.706306534619E+03    0.90244E+01   -0.75314E+02  6370   0.204E+04-0.949E+03
CGA:  20    -0.728756330982E+03   -0.22450E+02   -0.32416E+02  6370   0.194E+04-0.684E+03
CGA:  21    -0.747610867049E+03   -0.18855E+02   -0.33752E+02  6370   0.802E+03-0.317E+03
CGA:  22    -0.762644992518E+03   -0.15034E+02   -0.20084E+02  6370   0.713E+03-0.872E+03
CGA:  23    -0.761077735887E+03    0.15673E+01   -0.19019E+02  6370   0.789E+03-0.643E+03
CGA:  24    -0.750993620605E+03    0.10084E+02   -0.21422E+02  6370   0.149E+04-0.106E+04
CGA:  25    -0.739242978161E+03    0.11751E+02   -0.50209E+02  6370   0.152E+04-0.969E+03
CGA:  26    -0.731067354890E+03    0.81756E+01   -0.45317E+02  6370   0.252E+04-0.174E+04
CGA:  27    -0.711559622942E+03    0.19508E+02   -0.75641E+02  6370   0.286E+04-0.197E+04
CGA:  28    -0.677922141841E+03    0.33637E+02   -0.93658E+02  6370   0.409E+04-0.268E+04
CGA:  29    -0.654286176057E+03    0.23636E+02   -0.12809E+03  6370   0.457E+04-0.351E+04
CGA:  30    -0.656132578424E+03   -0.18464E+01   -0.14492E+03  6370   0.391E+04-0.371E+04
CGA:  31    -0.654445139713E+03    0.16874E+01   -0.12282E+03  6370   0.523E+04-0.507E+04
CGA:  32    -0.631151682928E+03    0.23293E+02   -0.18033E+03  6370   0.345E+04-0.273E+04
CGA:  33    -0.652348385992E+03   -0.21197E+02   -0.10082E+03  6370   0.448E+04-0.473E+04
CGA:  34    -0.670934812255E+03   -0.18586E+02   -0.12608E+03  6370   0.482E+04-0.519E+04
CGA:  35    -0.639417751245E+03    0.31517E+02   -0.14677E+03  6370   0.531E+04-0.455E+04
CGA:  36    -0.638329362900E+03    0.10884E+01   -0.16986E+03  6370   0.394E+04-0.332E+04
CGA:  37    -0.650249985400E+03   -0.11921E+02   -0.11544E+03  6370   0.535E+04-0.515E+04
CGA:  38    -0.641219593721E+03    0.90304E+01   -0.16133E+03  6370   0.401E+04-0.378E+04
CGA:  39    -0.653984263066E+03   -0.12765E+02   -0.11096E+03  6370   0.541E+04-0.520E+04
CGA:  40    -0.659292666395E+03   -0.53084E+01   -0.15368E+03  6370   0.529E+04-0.457E+04
CGA:  41    -0.648679789270E+03    0.10613E+02   -0.14009E+03  6370   0.485E+04-0.446E+04
CGA:  42    -0.664605223044E+03   -0.15925E+02   -0.12978E+03  6370   0.363E+04-0.374E+04
CGA:  43    -0.696386179714E+03   -0.31781E+02   -0.83377E+02  6370   0.394E+04-0.418E+04
CGA:  44    -0.714947104946E+03   -0.18561E+02   -0.90061E+02  6370   0.395E+04-0.403E+04
CGA:  45    -0.728477425925E+03   -0.13530E+02   -0.79546E+02  6370   0.340E+04-0.351E+04
CGA:  46    -0.730055727763E+03   -0.15783E+01   -0.66106E+02  6370   0.378E+04-0.389E+04
CGA:  47    -0.731760992870E+03   -0.17053E+01   -0.68427E+02  6370   0.395E+04-0.393E+04
CGA:  48    -0.730331900463E+03    0.14291E+01   -0.73598E+02  6370   0.348E+04-0.342E+04
CGA:  49    -0.747656500784E+03   -0.17325E+02   -0.56976E+02  6370   0.273E+04-0.348E+04
CGA:  50    -0.758395130152E+03   -0.10739E+02   -0.41851E+02  6370   0.195E+04-0.247E+04
CGA:  51    -0.769641630380E+03   -0.11247E+02   -0.25548E+02  6370   0.812E+03-0.129E+04
CGA:  52    -0.775420375663E+03   -0.57787E+01   -0.92307E+01  6370   0.170E+03-0.389E+03
CGA:  53    -0.776728309078E+03   -0.13079E+01   -0.14291E+01  6370   0.477E+01-0.554E+01
CGA:  54    -0.776803633236E+03   -0.75324E-01   -0.76057E-01  6370   0.354E+01-0.284E-01
CGA:  55    -0.777774008322E+03   -0.97038E+00   -0.13492E+00  6370   0.309E+02 0.665E+00
CGA:  56    -0.777713723425E+03    0.60285E-01   -0.79572E+00  6370   0.478E+02-0.574E+02
CGA:  57    -0.778248725760E+03   -0.53500E+00   -0.87035E+00  6370   0.138E+02-0.163E+02
CGA:  58    -0.778440143860E+03   -0.19142E+00   -0.19010E+00  6370   0.190E+01 0.366E-01
CGA:  59    -0.778538640632E+03   -0.98497E-01   -0.10023E+00  6370   0.305E+01 0.480E-01
CGA:  60    -0.778727781525E+03   -0.18914E+00   -0.19086E+00  6370   0.427E+01 0.308E+00
CGA:  61    -0.778897015211E+03   -0.16923E+00   -0.16900E+00  6370   0.206E+01-0.240E-01
CGA:  62    -0.778978960944E+03   -0.81946E-01   -0.86114E-01  6370   0.121E+01 0.273E-01
CGA:  63    -0.779072694779E+03   -0.93734E-01   -0.93085E-01  6370   0.170E+01 0.322E-01
CGA:  64    -0.779163691578E+03   -0.90997E-01   -0.92844E-01  6370   0.129E+01 0.883E-01
CGA:  65    -0.779231497685E+03   -0.67806E-01   -0.68823E-01  6370   0.813E+00 0.244E-01
CGA:  66    -0.779263803819E+03   -0.32306E-01   -0.31324E-01  6370   0.497E+00 0.584E-02
CGA:  67    -0.779304957404E+03   -0.41154E-01   -0.41081E-01  6370   0.651E+00 0.150E-02
CGA:  68    -0.779329240298E+03   -0.24283E-01   -0.23271E-01  6370   0.362E+00 0.857E-02
CGA:  69    -0.779349732717E+03   -0.20492E-01   -0.20450E-01  6370   0.239E+00-0.497E-02
CGA:  70    -0.779359014061E+03   -0.92813E-02   -0.89990E-02  6370   0.235E+00 0.908E-03
CGA:  71    -0.779374308084E+03   -0.15294E-01   -0.15328E-01  6370   0.185E+00-0.339E-02
CGA:  72    -0.779386674303E+03   -0.12366E-01   -0.12815E-01  6370   0.361E+00-0.265E-01
CGA:  73    -0.779395460245E+03   -0.87859E-02   -0.10184E-01  6370   0.977E-01-0.108E-01
CGA:  74    -0.779399138480E+03   -0.36782E-02   -0.37632E-02  6370   0.650E-01 0.225E-03
CGA:  75    -0.779401088015E+03   -0.19495E-02   -0.19072E-02  6370   0.684E-01 0.688E-03
CGA:  76    -0.779405547985E+03   -0.44600E-02   -0.44326E-02  6370   0.586E-01 0.208E-02
CGA:  77    -0.779407994510E+03   -0.24465E-02   -0.24705E-02  6370   0.873E-01 0.231E-03
CGA:  78    -0.779410526329E+03   -0.25318E-02   -0.24012E-02  6370   0.230E-01 0.260E-02
CGA:  79    -0.779411803119E+03   -0.12768E-02   -0.12768E-02  6370   0.301E-01-0.436E-03
CGA:  80    -0.779412487421E+03   -0.68430E-03   -0.69859E-03  6370   0.193E-01-0.319E-03
CGA:  81    -0.779414499706E+03   -0.20123E-02   -0.20176E-02  6370   0.371E-01-0.117E-03
CGA:  82    -0.779415305462E+03   -0.80576E-03   -0.78412E-03  6370   0.237E-01 0.730E-03
CGA:  83    -0.779416260973E+03   -0.95551E-03   -0.95854E-03  6370   0.141E-01 0.566E-04
CGA:  84    -0.779416616140E+03   -0.35517E-03   -0.35814E-03  6370   0.143E-01-0.598E-04
CGA:  85    -0.779417299433E+03   -0.68329E-03   -0.68343E-03  6370   0.111E-01 0.105E-04
CGA:  86    -0.779417765404E+03   -0.46597E-03   -0.46416E-03  6370   0.218E-01-0.760E-04
SDA:  87    -0.779418507861E+03   -0.74246E-03   -0.74053E-03  6370   0.111E-01-0.344E-04
CGA:  88    -0.779418843579E+03   -0.33572E-03   -0.33608E-03  6370   0.353E-02-0.870E-05
CGA:  89    -0.779418939237E+03   -0.95658E-04   -0.95314E-04  6370   0.321E-02-0.602E-05
CGA:  90    -0.779419308187E+03   -0.36895E-03   -0.37130E-03  6370   0.576E-02-0.363E-04
CGA:  91    -0.779419905621E+03   -0.59743E-03   -0.60019E-03  6370   0.496E-02-0.562E-04
CGA:  92    -0.779420144988E+03   -0.23937E-03   -0.23888E-03  6370   0.568E-02-0.510E-04
CGA:  93    -0.779420282887E+03   -0.13790E-03   -0.13858E-03  6370   0.256E-02-0.253E-04
CGA:  94    -0.779420533663E+03   -0.25078E-03   -0.25171E-03  6370   0.291E-02-0.207E-04
CGA:  95    -0.779420773243E+03   -0.23958E-03   -0.24014E-03  6370   0.454E-02-0.173E-04
CGA:  96    -0.779420866072E+03   -0.92830E-04   -0.93300E-04  6370   0.161E-02-0.910E-05
CGA:  97    -0.779420991065E+03   -0.12499E-03   -0.12516E-03  6370   0.136E-02-0.514E-05
CGA:  98    -0.779421138685E+03   -0.14762E-03   -0.14766E-03  6370   0.199E-02-0.134E-05
CGA:  99    -0.779421206668E+03   -0.67983E-04   -0.68041E-04  6370   0.226E-02 0.327E-05
CGA: 100    -0.779421295130E+03   -0.88463E-04   -0.88453E-04  6370   0.725E-03 0.616E-05
CGA: 101    -0.779421394152E+03   -0.99022E-04   -0.97571E-04  6370   0.157E-02 0.181E-04
CGA: 102    -0.779421533603E+03   -0.13945E-03   -0.13875E-03  6370   0.234E-02 0.257E-04
CGA: 103    -0.779421583695E+03   -0.50092E-04   -0.50298E-04  6370   0.828E-03 0.798E-05
CGA: 104    -0.779421630933E+03   -0.47238E-04   -0.47244E-04  6370   0.722E-03 0.243E-05
CGA: 105    -0.779421760893E+03   -0.12996E-03   -0.13077E-03  6370   0.840E-03-0.636E-05
CGA: 106    -0.779421794876E+03   -0.33983E-04   -0.33799E-04  6370   0.585E-03-0.478E-05
CGA: 107    -0.779421806840E+03   -0.11964E-04   -0.11911E-04  6370   0.177E-03-0.299E-05
CGA: 108    -0.779421832036E+03   -0.25196E-04   -0.26127E-04  6370   0.313E-03-0.109E-04
CGA: 109    -0.779421851464E+03   -0.19428E-04   -0.19429E-04  6370   0.126E-03-0.930E-05
CGA: 110    -0.779421854273E+03   -0.28084E-05   -0.27762E-05  6370   0.723E-04-0.929E-06
   1 F= -.77942185E+03 E0= -.77939716E+03  d E =-.779422E+03  mag=    65.0000
