       N       E                     dE             d eps       ncg     rms          ort
DAV:   1     0.102728359826E+05    0.10273E+05   -0.42432E+05 10640   0.155E+03
DAV:   2    -0.117812237289E+03   -0.10391E+05   -0.98088E+04 10640   0.474E+02
DAV:   3    -0.152252252484E+04   -0.14047E+04   -0.13102E+04 10640   0.181E+02
DAV:   4    -0.160440989376E+04   -0.81887E+02   -0.79668E+02 10640   0.461E+01
DAV:   5    -0.160675930821E+04   -0.23494E+01   -0.23422E+01 10640   0.836E+00
SDA:   6    -0.725610273829E+03    0.88115E+03   -0.23422E+01 10640   0.296E+04 0.000E+00
CGA:   7    -0.110854896101E+04   -0.38294E+03   -0.38491E+03 10640   0.179E+04-0.411E+02
CGA:   8    -0.113621150963E+04   -0.27663E+02   -0.96059E+02 10640   0.152E+04-0.110E+04
CGA:   9    -0.114879512986E+04   -0.12584E+02   -0.71736E+02 10640   0.231E+04-0.171E+04
CGA:  10    -0.112976465378E+04    0.19030E+02   -0.12759E+03 10640   0.271E+04-0.183E+04
CGA:  11    -0.113664131634E+04   -0.68767E+01   -0.13395E+03 10640   0.325E+04-0.294E+04
CGA:  12    -0.110325069314E+04    0.33391E+02   -0.17977E+03 10640   0.391E+04-0.302E+04
CGA:  13    -0.110663227302E+04   -0.33816E+01   -0.20134E+03 10640   0.432E+04-0.406E+04
CGA:  14    -0.108037779071E+04    0.26254E+02   -0.23857E+03 10640   0.464E+04-0.402E+04
CGA:  15    -0.111045222002E+04   -0.30074E+02   -0.23601E+03 10640   0.450E+04-0.476E+04
CGA:  16    -0.111332215044E+04   -0.28699E+01   -0.23666E+03 10640   0.404E+04-0.394E+04
CGA:  17    -0.116806875072E+04   -0.54747E+02   -0.18926E+03 10640   0.310E+04-0.381E+04
CGA:  18    -0.120186504341E+04   -0.33796E+02   -0.13929E+03 10640   0.208E+04-0.254E+04
CGA:  19    -0.124364513344E+04   -0.41780E+02   -0.78387E+02 10640   0.691E+03-0.118E+04
CGA:  20    -0.126044942049E+04   -0.16804E+02   -0.21380E+02 10640   0.790E+02-0.165E+03
CGA:  21    -0.126416740400E+04   -0.37180E+01   -0.37449E+01 10640   0.442E+02-0.129E-01
CGA:  22    -0.126991412935E+04   -0.57467E+01   -0.57340E+01 10640   0.858E+02 0.490E+00
CGA:  23    -0.127677836577E+04   -0.68642E+01   -0.66059E+01 10640   0.164E+02 0.227E+01
CGA:  24    -0.127772418251E+04   -0.94582E+00   -0.10126E+01 10640   0.894E+01-0.780E+00
CGA:  25    -0.127899163837E+04   -0.12675E+01   -0.12301E+01 10640   0.100E+02 0.661E+00
CGA:  26    -0.127985981580E+04   -0.86818E+00   -0.93715E+00 10640   0.407E+01-0.121E-01
CGA:  27    -0.128039081325E+04   -0.53100E+00   -0.53057E+00 10640   0.426E+01-0.222E+00
CGA:  28    -0.128112941053E+04   -0.73860E+00   -0.77007E+00 10640   0.318E+01-0.678E+00
CGA:  29    -0.128153237651E+04   -0.40297E+00   -0.41223E+00 10640   0.247E+01-0.425E+00
CGA:  30    -0.128207343598E+04   -0.54106E+00   -0.69456E+00 10640   0.375E+01-0.837E+00
CGA:  31    -0.128238086399E+04   -0.30743E+00   -0.30710E+00 10640   0.993E+00-0.388E+00
CGA:  32    -0.128272213375E+04   -0.34127E+00   -0.45974E+00 10640   0.150E+01-0.262E+00
CGA:  33    -0.128289494848E+04   -0.17281E+00   -0.17321E+00 10640   0.455E+00-0.111E+00
CGA:  34    -0.128299099678E+04   -0.96048E-01   -0.92157E-01 10640   0.361E+00 0.560E-01
CGA:  35    -0.128307625587E+04   -0.85259E-01   -0.80094E-01 10640   0.191E+00 0.119E+00
CGA:  36    -0.128312034804E+04   -0.44092E-01   -0.42855E-01 10640   0.109E+00 0.106E+00
CGA:  37    -0.128314157399E+04   -0.21226E-01   -0.20069E-01 10640   0.577E-01 0.442E-01
CGA:  38    -0.128315568725E+04   -0.14113E-01   -0.13598E-01 10640   0.406E-01 0.578E-01
CGA:  39    -0.128316088159E+04   -0.51943E-02   -0.57191E-02 10640   0.275E-01 0.285E-01
CGA:  40    -0.128316385552E+04   -0.29739E-02   -0.36347E-02 10640   0.234E-01 0.250E-01
CGA:  41    -0.128316608071E+04   -0.22252E-02   -0.29270E-02 10640   0.205E-01 0.218E-01
CGA:  42    -0.128316773673E+04   -0.16560E-02   -0.23940E-02 10640   0.181E-01 0.192E-01
CGA:  43    -0.128316898719E+04   -0.12505E-02   -0.19923E-02 10640   0.162E-01 0.171E-01
CGA:  44    -0.128316993846E+04   -0.95127E-03   -0.16796E-02 10640   0.146E-01 0.153E-01
CGA:  45    -0.128317066830E+04   -0.72984E-03   -0.14334E-02 10640   0.132E-01 0.139E-01
CGA:  46    -0.128317123230E+04   -0.56400E-03   -0.12365E-02 10640   0.121E-01 0.126E-01
CGA:  47    -0.128317167070E+04   -0.43840E-03   -0.10767E-02 10640   0.112E-01 0.116E-01
CGA:  48    -0.128317201296E+04   -0.34225E-03   -0.94552E-03 10640   0.103E-01 0.107E-01
CGA:  49    -0.128317228084E+04   -0.26788E-03   -0.83642E-03 10640   0.959E-02 0.994E-02
CGA:  50    -0.128317249067E+04   -0.20983E-03   -0.74474E-03 10640   0.895E-02 0.926E-02
CGA:  51    -0.128317265480E+04   -0.16413E-03   -0.66697E-03 10640   0.839E-02 0.866E-02
CGA:  52    -0.128317278269E+04   -0.12789E-03   -0.60042E-03 10640   0.789E-02 0.814E-02
CGA:  53    -0.128317288166E+04   -0.98968E-04   -0.54304E-03 10640   0.745E-02 0.767E-02
CGA:  54    -0.128317295740E+04   -0.75742E-04   -0.49322E-03 10640   0.705E-02 0.725E-02
CGA:  55    -0.128317301442E+04   -0.57013E-04   -0.44968E-03 10640   0.669E-02 0.687E-02
CGA:  56    -0.128317305627E+04   -0.41858E-04   -0.41143E-03 10640   0.637E-02 0.653E-02
CGA:  57    -0.128317308583E+04   -0.29556E-04   -0.37764E-03 10640   0.608E-02 0.622E-02
CGA:  58    -0.128317310538E+04   -0.19548E-04   -0.34766E-03 10640   0.581E-02 0.594E-02
CGA:  59    -0.128317311678E+04   -0.11396E-04   -0.32093E-03 10640   0.557E-02 0.568E-02
CGA:  60    -0.128317312153E+04   -0.47553E-05   -0.29701E-03 10640   0.534E-02 0.545E-02
CGA:  61    -0.128317312088E+04    0.65362E-06   -0.27553E-03 10640   0.514E-02 0.524E-02
CGA:  62    -0.128317311583E+04    0.50478E-05   -0.25616E-03 10640   0.495E-02 0.504E-02
CGA:  63    -0.128317310722E+04    0.86071E-05   -0.23864E-03 10640   0.478E-02 0.486E-02
CGA:  64    -0.128317309575E+04    0.11476E-04   -0.22276E-03 10640   0.462E-02 0.470E-02
CGA:  65    -0.128317308197E+04    0.13775E-04   -0.20831E-03 10640   0.447E-02 0.454E-02
CGA:  66    -0.128317306638E+04    0.15596E-04   -0.19513E-03 10640   0.433E-02 0.440E-02
CGA:  67    -0.128317304935E+04    0.17023E-04   -0.18308E-03 10640   0.420E-02 0.427E-02
CGA:  68    -0.128317303123E+04    0.18119E-04   -0.17204E-03 10640   0.408E-02 0.414E-02
CGA:  69    -0.128317301229E+04    0.18940E-04   -0.16189E-03 10640   0.397E-02 0.403E-02
CGA:  70    -0.128317299276E+04    0.19530E-04   -0.15255E-03 10640   0.387E-02 0.392E-02
CGA:  71    -0.128317297284E+04    0.19929E-04   -0.14394E-03 10640   0.377E-02 0.382E-02
CGA:  72    -0.128317295267E+04    0.20167E-04   -0.13598E-03 10640   0.368E-02 0.373E-02
CGA:  73    -0.128317293240E+04    0.20273E-04   -0.12861E-03 10640   0.360E-02 0.364E-02
CGA:  74    -0.128317291213E+04    0.20267E-04   -0.12178E-03 10640   0.352E-02 0.356E-02
CGA:  75    -0.128317289196E+04    0.20167E-04   -0.11543E-03 10640   0.344E-02 0.348E-02
CGA:  76    -0.128317287197E+04    0.19993E-04   -0.10952E-03 10640   0.337E-02 0.340E-02
CGA:  77    -0.128317285221E+04    0.19755E-04   -0.10401E-03 10640   0.330E-02 0.334E-02
CGA:  78    -0.128317283275E+04    0.19467E-04   -0.98874E-04 10640   0.324E-02 0.327E-02
CGA:  79    -0.128317281361E+04    0.19138E-04   -0.94069E-04 10640   0.318E-02 0.321E-02
CGA:  80    -0.128317279483E+04    0.18776E-04   -0.89573E-04 10640   0.312E-02 0.315E-02
CGA:  81    -0.128317277644E+04    0.18389E-04   -0.85358E-04 10640   0.307E-02 0.310E-02
CGA:  82    -0.128317275846E+04    0.17983E-04   -0.81403E-04 10640   0.302E-02 0.304E-02
CGA:  83    -0.128317274090E+04    0.17564E-04   -0.77687E-04 10640   0.297E-02 0.300E-02
CGA:  84    -0.128317272376E+04    0.17134E-04   -0.74191E-04 10640   0.293E-02 0.295E-02
CGA:  85    -0.128317270707E+04    0.16697E-04   -0.70899E-04 10640   0.288E-02 0.290E-02
CGA:  86    -0.128317269081E+04    0.16257E-04   -0.67796E-04 10640   0.284E-02 0.286E-02
CGA:  87    -0.128317267499E+04    0.15817E-04   -0.64867E-04 10640   0.280E-02 0.282E-02
CGA:  88    -0.128317265961E+04    0.15378E-04   -0.62100E-04 10640   0.277E-02 0.278E-02
CGA:  89    -0.128317264467E+04    0.14941E-04   -0.59484E-04 10640   0.273E-02 0.275E-02
CGA:  90    -0.128317263016E+04    0.14510E-04   -0.57008E-04 10640   0.270E-02 0.271E-02
CGA:  91    -0.128317261608E+04    0.14084E-04   -0.54662E-04 10640   0.266E-02 0.268E-02
CGA:  92    -0.128317260241E+04    0.13666E-04   -0.52438E-04 10640   0.263E-02 0.265E-02
CGA:  93    -0.128317258916E+04    0.13256E-04   -0.50327E-04 10640   0.260E-02 0.262E-02
CGA:  94    -0.128317257630E+04    0.12853E-04   -0.48323E-04 10640   0.258E-02 0.259E-02
CGA:  95    -0.128317256385E+04    0.12459E-04   -0.46418E-04 10640   0.255E-02 0.256E-02
CGA:  96    -0.128317255177E+04    0.12075E-04   -0.44607E-04 10640   0.252E-02 0.254E-02
CGA:  97    -0.128317254007E+04    0.11699E-04   -0.42882E-04 10640   0.250E-02 0.251E-02
CGA:  98    -0.128317252874E+04    0.11332E-04   -0.41241E-04 10640   0.248E-02 0.249E-02
CGA:  99    -0.128317251776E+04    0.10977E-04   -0.39676E-04 10640   0.245E-02 0.246E-02
CGA: 100    -0.128317250713E+04    0.10631E-04   -0.38183E-04 10640   0.243E-02 0.244E-02
CGA: 101    -0.128317249684E+04    0.10294E-04   -0.36759E-04 10640   0.241E-02 0.242E-02
CGA: 102    -0.128317248687E+04    0.99670E-05   -0.35399E-04 10640   0.239E-02 0.240E-02
CGA: 103    -0.128317247722E+04    0.96499E-05   -0.34100E-04 10640   0.237E-02 0.238E-02
CGA: 104    -0.128317246788E+04    0.93420E-05   -0.32858E-04 10640   0.235E-02 0.236E-02
CGA: 105    -0.128317245883E+04    0.90446E-05   -0.31670E-04 10640   0.234E-02 0.234E-02
CGA: 106    -0.128317245008E+04    0.87554E-05   -0.30534E-04 10640   0.232E-02 0.233E-02
CGA: 107    -0.128317244160E+04    0.84753E-05   -0.29446E-04 10640   0.230E-02 0.231E-02
CGA: 108    -0.128317243340E+04    0.82049E-05   -0.28404E-04 10640   0.229E-02 0.229E-02
CGA: 109    -0.128317242546E+04    0.79416E-05   -0.27405E-04 10640   0.227E-02 0.228E-02
CGA: 110    -0.128317241777E+04    0.76885E-05   -0.26448E-04 10640   0.226E-02 0.226E-02
CGA: 111    -0.128317241033E+04    0.74421E-05   -0.25530E-04 10640   0.224E-02 0.225E-02
CGA: 112    -0.128317240312E+04    0.72047E-05   -0.24649E-04 10640   0.223E-02 0.224E-02
CGA: 113    -0.128317239615E+04    0.69738E-05   -0.23803E-04 10640   0.222E-02 0.222E-02
CGA: 114    -0.128317238940E+04    0.67522E-05   -0.22991E-04 10640   0.220E-02 0.221E-02
CGA: 115    -0.128317238286E+04    0.65363E-05   -0.22211E-04 10640   0.219E-02 0.220E-02
CGA: 116    -0.128317237653E+04    0.63282E-05   -0.21462E-04 10640   0.218E-02 0.219E-02
CGA: 117    -0.128317237040E+04    0.61273E-05   -0.20741E-04 10640   0.217E-02 0.218E-02
CGA: 118    -0.128317236447E+04    0.59331E-05   -0.20049E-04 10640   0.216E-02 0.216E-02
CGA: 119    -0.128317235873E+04    0.57440E-05   -0.19382E-04 10640   0.215E-02 0.215E-02
CGA: 120    -0.128317235316E+04    0.55628E-05   -0.18741E-04 10640   0.214E-02 0.214E-02
CGA: 121    -0.128317234778E+04    0.53862E-05   -0.18124E-04 10640   0.213E-02 0.213E-02
CGA: 122    -0.128317234256E+04    0.52170E-05   -0.17530E-04 10640   0.212E-02 0.212E-02
CGA: 123    -0.128317233751E+04    0.50517E-05   -0.16958E-04 10640   0.211E-02 0.211E-02
CGA: 124    -0.128317233262E+04    0.48930E-05   -0.16406E-04 10640   0.210E-02 0.211E-02
CGA: 125    -0.128317232788E+04    0.47395E-05   -0.15875E-04 10640   0.209E-02 0.210E-02
CGA: 126    -0.128317232329E+04    0.45906E-05   -0.15363E-04 10640   0.208E-02 0.209E-02
CGA: 127    -0.128317231884E+04    0.44470E-05   -0.14870E-04 10640   0.208E-02 0.208E-02
CGA: 128    -0.128317231453E+04    0.43083E-05   -0.14394E-04 10640   0.207E-02 0.207E-02
CGA: 129    -0.128317231036E+04    0.41732E-05   -0.13935E-04 10640   0.206E-02 0.207E-02
CGA: 130    -0.128317230631E+04    0.40434E-05   -0.13492E-04 10640   0.206E-02 0.206E-02
CGA: 131    -0.128317230240E+04    0.39175E-05   -0.13065E-04 10640   0.205E-02 0.205E-02
CGA: 132    -0.128317229860E+04    0.37962E-05   -0.12652E-04 10640   0.204E-02 0.204E-02
CGA: 133    -0.128317229492E+04    0.36792E-05   -0.12254E-04 10640   0.204E-02 0.204E-02
CGA: 134    -0.128317229136E+04    0.35647E-05   -0.11870E-04 10640   0.203E-02 0.203E-02
CGA: 135    -0.128317228790E+04    0.34548E-05   -0.11498E-04 10640   0.202E-02 0.203E-02
CGA: 136    -0.128317228455E+04    0.33481E-05   -0.11140E-04 10640   0.202E-02 0.202E-02
CGA: 137    -0.128317228131E+04    0.32450E-05   -0.10794E-04 10640   0.201E-02 0.201E-02
CGA: 138    -0.128317227816E+04    0.31457E-05   -0.10459E-04 10640   0.201E-02 0.201E-02
CGA: 139    -0.128317227511E+04    0.30495E-05   -0.10135E-04 10640   0.200E-02 0.200E-02
   1 F= -.12831723E+04 E0= -.12831723E+04  d E =-.128317E+04  mag=    47.0000
       N       E                     dE             d eps       ncg     rms          ort
SDA:   1    -0.128317061487E+04    0.16633E-02    0.00000E+00 10640   0.230E-02 0.000E+00
CGA:   2    -0.128317065321E+04   -0.38331E-04   -0.31923E-04 10640   0.211E-02 0.222E-02
CGA:   3    -0.128317068399E+04   -0.30781E-04   -0.27197E-04 10640   0.198E-02 0.206E-02
CGA:   4    -0.128317070967E+04   -0.25686E-04   -0.23941E-04 10640   0.187E-02 0.193E-02
CGA:   5    -0.128317073170E+04   -0.22028E-04   -0.21549E-04 10640   0.179E-02 0.184E-02
CGA:   6    -0.128317075098E+04   -0.19276E-04   -0.19707E-04 10640   0.172E-02 0.176E-02
CGA:   7    -0.128317076811E+04   -0.17133E-04   -0.18238E-04 10640   0.166E-02 0.170E-02
CGA:   8    -0.128317078353E+04   -0.15416E-04   -0.17033E-04 10640   0.161E-02 0.164E-02
CGA:   9    -0.128317079753E+04   -0.14008E-04   -0.16019E-04 10640   0.157E-02 0.160E-02
CGA:  10    -0.128317081037E+04   -0.12832E-04   -0.15151E-04 10640   0.154E-02 0.156E-02
CGA:  11    -0.128317082220E+04   -0.11834E-04   -0.14395E-04 10640   0.151E-02 0.152E-02
CGA:  12    -0.128317083317E+04   -0.10975E-04   -0.13729E-04 10640   0.148E-02 0.149E-02
CGA:  13    -0.128317084340E+04   -0.10227E-04   -0.13133E-04 10640   0.145E-02 0.147E-02
CGA:  14    -0.128317085297E+04   -0.95683E-05   -0.12595E-04 10640   0.143E-02 0.144E-02
CGA:  15    -0.128317086195E+04   -0.89841E-05   -0.12106E-04 10640   0.141E-02 0.142E-02
CGA:  16    -0.128317087042E+04   -0.84611E-05   -0.11658E-04 10640   0.139E-02 0.140E-02
CGA:  17    -0.128317087841E+04   -0.79916E-05   -0.11244E-04 10640   0.137E-02 0.138E-02
CGA:  18    -0.128317088597E+04   -0.75634E-05   -0.10859E-04 10640   0.136E-02 0.137E-02
CGA:  19    -0.128317089314E+04   -0.71738E-05   -0.10500E-04 10640   0.134E-02 0.135E-02
CGA:  20    -0.128317089996E+04   -0.68186E-05   -0.10164E-04 10640   0.133E-02 0.134E-02
   2 F= -.12831709E+04 E0= -.12831709E+04  d E =0.137515E-02  mag=    47.0000
       N       E                     dE             d eps       ncg     rms          ort
SDA:   1    -0.128314402987E+04    0.26863E-01    0.00000E+00 10640   0.682E-01 0.000E+00
CGA:   2    -0.128315158340E+04   -0.75535E-02   -0.11135E-01 10640   0.404E-01 0.511E-01
CGA:   3    -0.128315937502E+04   -0.77916E-02   -0.82167E-02 10640   0.209E-01 0.276E-01
CGA:   4    -0.128316607610E+04   -0.67011E-02   -0.41068E-02 10640   0.718E-02 0.117E-01
CGA:   5    -0.128316868874E+04   -0.26126E-02   -0.18586E-02 10640   0.224E-02 0.378E-02
CGA:   6    -0.128316918718E+04   -0.49844E-03   -0.35081E-03 10640   0.138E-02 0.170E-02
CGA:   7    -0.128316945809E+04   -0.27091E-03   -0.19461E-03 10640   0.987E-03 0.114E-02
CGA:   8    -0.128316961148E+04   -0.15339E-03   -0.11706E-03 10640   0.795E-03 0.876E-03
CGA:   9    -0.128316972704E+04   -0.11556E-03   -0.90392E-04 10640   0.677E-03 0.730E-03
CGA:  10    -0.128316981909E+04   -0.92053E-04   -0.74042E-04 10640   0.602E-03 0.636E-03
CGA:  11    -0.128316989898E+04   -0.79891E-04   -0.65111E-04 10640   0.550E-03 0.574E-03
CGA:  12    -0.128316997225E+04   -0.73266E-04   -0.59898E-04 10640   0.512E-03 0.530E-03
CGA:  13    -0.128317004218E+04   -0.69931E-04   -0.56912E-04 10640   0.483E-03 0.497E-03
CGA:  14    -0.128317011100E+04   -0.68820E-04   -0.55420E-04 10640   0.460E-03 0.471E-03
CGA:  15    -0.128317018021E+04   -0.69217E-04   -0.54939E-04 10640   0.441E-03 0.451E-03
CGA:  16    -0.128317025097E+04   -0.70757E-04   -0.55211E-04 10640   0.424E-03 0.433E-03
CGA:  17    -0.128317032417E+04   -0.73200E-04   -0.56068E-04 10640   0.409E-03 0.417E-03
CGA:  18    -0.128317040058E+04   -0.76410E-04   -0.57406E-04 10640   0.395E-03 0.402E-03
CGA:  19    -0.128317048090E+04   -0.80323E-04   -0.59172E-04 10640   0.381E-03 0.388E-03
CGA:  20    -0.128317056585E+04   -0.84941E-04   -0.61352E-04 10640   0.367E-03 0.374E-03
CGA:  21    -0.128317065617E+04   -0.90322E-04   -0.63964E-04 10640   0.353E-03 0.360E-03
CGA:  22    -0.128317075274E+04   -0.96571E-04   -0.67057E-04 10640   0.338E-03 0.345E-03
CGA:  23    -0.128317085662E+04   -0.10388E-03   -0.70725E-04 10640   0.323E-03 0.331E-03
CGA:  24    -0.128317096911E+04   -0.11249E-03   -0.75087E-04 10640   0.307E-03 0.315E-03
CGA:  25    -0.128317109189E+04   -0.12277E-03   -0.80333E-04 10640   0.291E-03 0.299E-03
CGA:  26    -0.128317122723E+04   -0.13534E-03   -0.86781E-04 10640   0.273E-03 0.282E-03
CGA:  27    -0.128317137812E+04   -0.15089E-03   -0.94799E-04 10640   0.253E-03 0.263E-03
CGA:  28    -0.128317154904E+04   -0.17093E-03   -0.10518E-03 10640   0.232E-03 0.242E-03
CGA:  29    -0.128317174558E+04   -0.19654E-03   -0.11854E-03 10640   0.208E-03 0.219E-03
CGA:  30    -0.128317198195E+04   -0.23637E-03   -0.13981E-03 10640   0.184E-03 0.192E-03
CGA:  31    -0.128317216849E+04   -0.18655E-03   -0.12270E-03 10640   0.312E-03 0.135E-03
CGA:  32    -0.128317223888E+04   -0.70388E-04   -0.70390E-04 10640   0.321E-03-0.177E-04
CGA:  33    -0.128317255584E+04   -0.31696E-03   -0.21497E-03 10640   0.555E-03 0.203E-03
CGA:  34    -0.128317265071E+04   -0.94863E-04   -0.89715E-04 10640   0.189E-03-0.583E-04
CGA:  35    -0.128317270390E+04   -0.53198E-04   -0.49889E-04 10640   0.232E-03 0.648E-04
CGA:  36    -0.128317305681E+04   -0.35291E-03   -0.34192E-03 10640   0.924E-03 0.479E-06
CGA:  37    -0.128317357018E+04   -0.51336E-03   -0.49879E-03 10640   0.386E-03-0.223E-04
CGA:  38    -0.128317363275E+04   -0.62569E-04   -0.50846E-04 10640   0.402E-04-0.750E-04
CGA:  39    -0.128317363120E+04    0.15461E-05   -0.23091E-05 10640   0.141E-04 0.172E-04
   3 F= -.12831736E+04 E0= -.12831736E+04  d E =-.273124E-02  mag=    47.0000
       N       E                     dE             d eps       ncg     rms          ort
SDA:   1    -0.128286859822E+04    0.30503E+00    0.00000E+00 10640   0.840E+00 0.000E+00
CGA:   2    -0.128306300133E+04   -0.19440E+00   -0.19446E+00 10640   0.377E+00 0.155E-02
CGA:   3    -0.128315167881E+04   -0.88677E-01   -0.88625E-01 10640   0.735E-01-0.166E-02
CGA:   4    -0.128316339807E+04   -0.11719E-01   -0.11746E-01 10640   0.127E-01 0.262E-03
CGA:   5    -0.128316613711E+04   -0.27390E-02   -0.27256E-02 10640   0.341E-02-0.272E-03
CGA:   6    -0.128316669314E+04   -0.55603E-03   -0.58592E-03 10640   0.106E-02 0.360E-03
CGA:   7    -0.128316693872E+04   -0.24558E-03   -0.24270E-03 10640   0.366E-03-0.589E-04
CGA:   8    -0.128316698803E+04   -0.49310E-04   -0.57016E-04 10640   0.114E-03 0.878E-04
CGA:   9    -0.128316701115E+04   -0.23119E-04   -0.26345E-04 10640   0.496E-04 0.524E-04
CGA:  10    -0.128316703608E+04   -0.24928E-04   -0.26857E-04 10640   0.757E-04-0.154E-04
CGA:  11    -0.128316703476E+04    0.13123E-05   -0.32375E-05 10640   0.527E-04 0.240E-04
   4 F= -.12831670E+04 E0= -.12831670E+04  d E =0.659644E-02  mag=    47.0000
       N       E                     dE             d eps       ncg     rms          ort
SDA:   1    -0.128282454385E+04    0.34249E+00    0.00000E+00 10640   0.102E+01 0.000E+00
CGA:   2    -0.128306395762E+04   -0.23941E+00   -0.23942E+00 10640   0.462E+00-0.212E-02
CGA:   3    -0.128316874400E+04   -0.10479E+00   -0.10480E+00 10640   0.932E-01 0.308E-02
CGA:   4    -0.128318420353E+04   -0.15460E-01   -0.15412E-01 10640   0.168E-01-0.682E-03
CGA:   5    -0.128318741937E+04   -0.32158E-02   -0.32423E-02 10640   0.384E-02 0.769E-03
CGA:   6    -0.128318830349E+04   -0.88412E-03   -0.88311E-03 10640   0.162E-02-0.128E-03
CGA:   7    -0.128318856403E+04   -0.26054E-03   -0.26432E-03 10640   0.438E-03 0.674E-04
CGA:   8    -0.128318865379E+04   -0.89764E-04   -0.91793E-04 10640   0.153E-03 0.881E-04
CGA:   9    -0.128318871905E+04   -0.65251E-04   -0.84052E-04 10640   0.274E-03-0.798E-04
CGA:  10    -0.128318871852E+04    0.52725E-06   -0.20456E-04 10640   0.800E-04 0.132E-03
   5 F= -.12831887E+04 E0= -.12831887E+04  d E =-.216838E-01  mag=    47.0000
       N       E                     dE             d eps       ncg     rms          ort
SDA:   1    -0.128166183345E+04    0.15269E+01    0.00000E+00 10640   0.441E+01 0.000E+00
CGA:   2    -0.128274584781E+04   -0.10840E+01   -0.10839E+01 10640   0.203E+01 0.537E-02
CGA:   3    -0.128319852049E+04   -0.45267E+00   -0.45270E+00 10640   0.399E+00-0.976E-02
CGA:   4    -0.128326334680E+04   -0.64826E-01   -0.64887E-01 10640   0.746E-01 0.120E-02
CGA:   5    -0.128327866140E+04   -0.15315E-01   -0.15298E-01 10640   0.194E-01-0.128E-02
CGA:   6    -0.128328235582E+04   -0.36944E-02   -0.36886E-02 10640   0.740E-02-0.222E-03
CGA:   7    -0.128328369511E+04   -0.13393E-02   -0.13410E-02 10640   0.190E-02 0.635E-04
CGA:   8    -0.128328424536E+04   -0.55025E-03   -0.61153E-03 10640   0.147E-02-0.580E-03
CGA:   9    -0.128328440836E+04   -0.16300E-03   -0.16863E-03 10640   0.587E-03 0.108E-03
CGA:  10    -0.128328458826E+04   -0.17990E-03   -0.22615E-03 10640   0.673E-03-0.325E-03
CGA:  11    -0.128328474588E+04   -0.15762E-03   -0.16872E-03 10640   0.643E-03-0.407E-03
CGA:  12    -0.128328477339E+04   -0.27515E-04   -0.50526E-04 10640   0.727E-04 0.159E-03
CGA:  13    -0.128328477682E+04   -0.34258E-05   -0.81831E-05 10640   0.414E-04 0.374E-04
   6 F= -.12832848E+04 E0= -.12832848E+04  d E =-.960583E-01  mag=    47.0000
       N       E                     dE             d eps       ncg     rms          ort
SDA:   1    -0.127171685537E+04    0.11568E+02    0.00000E+00 10640   0.310E+02 0.000E+00
CGA:   2    -0.127956638353E+04   -0.78495E+01   -0.78507E+01 10640   0.146E+02-0.269E-01
CGA:   3    -0.128279739303E+04   -0.32310E+01   -0.32308E+01 10640   0.244E+01 0.173E-01
CGA:   4    -0.128320525278E+04   -0.40786E+00   -0.40796E+00 10640   0.484E+00 0.177E-02
CGA:   5    -0.128330175134E+04   -0.96499E-01   -0.96563E-01 10640   0.124E+00 0.551E-02
CGA:   6    -0.128332675880E+04   -0.25007E-01   -0.24963E-01 10640   0.503E-01-0.353E-02
CGA:   7    -0.128333564268E+04   -0.88839E-02   -0.88465E-02 10640   0.130E-01-0.123E-02
CGA:   8    -0.128333911078E+04   -0.34681E-02   -0.36016E-02 10640   0.641E-02-0.176E-02
CGA:   9    -0.128334056638E+04   -0.14556E-02   -0.15017E-02 10640   0.396E-02-0.783E-03
CGA:  10    -0.128334132574E+04   -0.75936E-03   -0.76122E-03 10640   0.174E-02-0.501E-03
CGA:  11    -0.128334173209E+04   -0.40635E-03   -0.42501E-03 10640   0.780E-03-0.291E-03
CGA:  12    -0.128334178332E+04   -0.51232E-04   -0.36966E-03 10640   0.365E-02-0.907E-03
CGA:  13    -0.128334208733E+04   -0.30401E-03   -0.34785E-03 10640   0.404E-03 0.319E-03
CGA:  14    -0.128334219373E+04   -0.10640E-03   -0.10516E-03 10640   0.218E-03 0.124E-03
CGA:  15    -0.128334227113E+04   -0.77393E-04   -0.81116E-04 10640   0.389E-03-0.680E-04
CGA:  16    -0.128334229947E+04   -0.28341E-04   -0.35712E-04 10640   0.358E-03 0.733E-04
CGA:  17    -0.128334231997E+04   -0.20498E-04   -0.38221E-04 10640   0.189E-03 0.128E-03
CGA:  18    -0.128334234795E+04   -0.27983E-04   -0.36688E-04 10640   0.237E-03 0.111E-03
CGA:  19    -0.128334239690E+04   -0.48952E-04   -0.77312E-04 10640   0.880E-03-0.257E-03
CGA:  20    -0.128334244645E+04   -0.49549E-04   -0.70129E-04 10640   0.577E-04 0.146E-03
CGA:  21    -0.128334244811E+04   -0.16624E-05   -0.61472E-05 10640   0.453E-04 0.362E-04
CGA:  22    -0.128334247067E+04   -0.22560E-04    0.24868E-04 10640   0.436E-04 0.342E-04
CGA:  23    -0.128334248148E+04   -0.10801E-04   -0.10179E-04 10640   0.502E-04 0.252E-04
CGA:  24    -0.128334250532E+04   -0.23846E-04    0.40849E-04 10640   0.605E-04 0.114E-04
CGA:  25    -0.128334253742E+04   -0.32103E-04    0.26716E-03 10640   0.461E-04 0.690E-04
CGA:  26    -0.128334254039E+04   -0.29684E-05   -0.52459E-05 10640   0.289E-04 0.236E-04
CGA:  27    -0.128334255517E+04   -0.14776E-04    0.12211E-04 10640   0.285E-04 0.258E-04
CGA:  28    -0.128334257040E+04   -0.15231E-04   -0.11394E-04 10640   0.452E-04 0.195E-04
CGA:  29    -0.128334259102E+04   -0.20623E-04    0.80195E-04 10640   0.615E-04-0.402E-05
CGA:  30    -0.128334261702E+04   -0.25997E-04    0.76775E-04 10640   0.597E-04 0.532E-04
CGA:  31    -0.128334261860E+04   -0.15812E-05   -0.48987E-05 10640   0.213E-04 0.250E-04
   7 F= -.12833426E+04 E0= -.12833426E+04  d E =-.578418E-01  mag=    47.0000
       N       E                     dE             d eps       ncg     rms          ort
SDA:   1    -0.128089499388E+04    0.24476E+01    0.00000E+00 10640   0.659E+01 0.000E+00
CGA:   2    -0.128256462175E+04   -0.16696E+01   -0.16694E+01 10640   0.311E+01 0.392E-02
CGA:   3    -0.128325443379E+04   -0.68981E+00   -0.68990E+00 10640   0.535E+00-0.727E-02
CGA:   4    -0.128334277290E+04   -0.88339E-01   -0.88390E-01 10640   0.101E+00 0.123E-02
CGA:   5    -0.128336424600E+04   -0.21473E-01   -0.21480E-01 10640   0.247E-01-0.118E-02
CGA:   6    -0.128336942363E+04   -0.51776E-02   -0.51800E-02 10640   0.938E-02-0.382E-03
CGA:   7    -0.128337102684E+04   -0.16032E-02   -0.15998E-02 10640   0.275E-02-0.895E-04
CGA:   8    -0.128337176169E+04   -0.73484E-03   -0.78944E-03 10640   0.170E-02-0.635E-03
CGA:   9    -0.128337205699E+04   -0.29531E-03   -0.29653E-03 10640   0.771E-03-0.643E-04
CGA:  10    -0.128336913768E+04    0.29193E-02   -0.15734E-02 10640   0.214E-01-0.339E-02
CGA:  11    -0.128337166962E+04   -0.25319E-02   -0.27322E-02 10640   0.406E-02 0.880E-03
CGA:  12    -0.128337248749E+04   -0.81787E-03   -0.80884E-03 10640   0.768E-03-0.467E-04
CGA:  13    -0.128337271259E+04   -0.22509E-03   -0.22655E-03 10640   0.449E-03 0.239E-04
CGA:  14    -0.128337277204E+04   -0.59452E-04   -0.79636E-04 10640   0.159E-03 0.109E-03
CGA:  15    -0.128337283699E+04   -0.64951E-04   -0.65504E-04 10640   0.658E-04 0.336E-04
CGA:  16    -0.128337286503E+04   -0.28042E-04   -0.28153E-04 10640   0.123E-03-0.213E-04
CGA:  17    -0.128337286789E+04   -0.28557E-05   -0.93411E-05 10640   0.867E-04 0.273E-04
   8 F= -.12833729E+04 E0= -.12833729E+04  d E =-.302493E-01  mag=    47.0000
       N       E                     dE             d eps       ncg     rms          ort
SDA:   1    -0.128025808805E+04    0.31148E+01    0.00000E+00 10640   0.801E+01 0.000E+00
CGA:   2    -0.128241468140E+04   -0.21566E+01   -0.21566E+01 10640   0.382E+01-0.671E-03
CGA:   3    -0.128323227304E+04   -0.81759E+00   -0.81750E+00 10640   0.610E+00-0.262E-02
CGA:   4    -0.128333455827E+04   -0.10229E+00   -0.10227E+00 10640   0.131E+00 0.122E-03
CGA:   5    -0.128335974828E+04   -0.25190E-01   -0.25215E-01 10640   0.349E-01 0.260E-03
CGA:   6    -0.128336651068E+04   -0.67624E-02   -0.66686E-02 10640   0.128E-01-0.801E-03
CGA:   7    -0.128336890647E+04   -0.23958E-02   -0.23973E-02 10640   0.311E-02 0.291E-04
CGA:   8    -0.128336984318E+04   -0.93671E-03   -0.94224E-03 10640   0.181E-02-0.502E-03
CGA:   9    -0.128337018789E+04   -0.34471E-03   -0.34126E-03 10640   0.910E-03-0.488E-04
CGA:  10    -0.128337047122E+04   -0.28333E-03   -0.35065E-03 10640   0.128E-02-0.625E-03
CGA:  11    -0.128337059970E+04   -0.12847E-03   -0.14909E-03 10640   0.242E-03 0.118E-03
CGA:  12    -0.128337067685E+04   -0.77155E-04   -0.77789E-04 10640   0.145E-03-0.660E-04
CGA:  13    -0.128337036255E+04    0.31430E-03   -0.17435E-03 10640   0.220E-02-0.341E-03
CGA:  14    -0.128337076198E+04   -0.39943E-03   -0.39165E-03 10640   0.882E-03-0.192E-04
CGA:  15    -0.128337092446E+04   -0.16248E-03   -0.16860E-03 10640   0.207E-03 0.210E-04
CGA:  16    -0.128337099759E+04   -0.73132E-04   -0.68282E-04 10640   0.118E-03-0.291E-04
CGA:  17    -0.128337100467E+04   -0.70741E-05   -0.14426E-04 10640   0.361E-04 0.219E-04
CGA:  18    -0.128337101411E+04   -0.94372E-05   -0.10845E-04 10640   0.398E-04 0.662E-05
CGA:  19    -0.128337103281E+04   -0.18705E-04   -0.17029E-04 10640   0.638E-04-0.188E-04
CGA:  20    -0.128337103296E+04   -0.14916E-06   -0.37255E-05 10640   0.610E-04 0.102E-04
   9 F= -.12833710E+04 E0= -.12833710E+04  d E =0.183493E-02  mag=    47.0000
       N       E                     dE             d eps       ncg     rms          ort
SDA:   1    -0.125045262386E+04    0.32918E+02    0.00000E+00 10640   0.876E+02 0.000E+00
CGA:   2    -0.127267316389E+04   -0.22221E+02   -0.22229E+02 10640   0.408E+02 0.524E-02
CGA:   3    -0.128180467998E+04   -0.91315E+01   -0.91381E+01 10640   0.665E+01 0.307E-01
CGA:   4    -0.128292891921E+04   -0.11242E+01   -0.11258E+01 10640   0.134E+01-0.288E-02
CGA:   5    -0.128319942300E+04   -0.27050E+00   -0.27107E+00 10640   0.335E+00 0.608E-02
CGA:   6    -0.128326962425E+04   -0.70201E-01   -0.69478E-01 10640   0.132E+00-0.475E-02
CGA:   7    -0.128329303321E+04   -0.23409E-01   -0.23083E-01 10640   0.366E-01-0.141E-02
CGA:   8    -0.128330268790E+04   -0.96547E-02   -0.94280E-02 10640   0.162E-01-0.223E-02
CGA:   9    -0.128330720010E+04   -0.45122E-02   -0.43823E-02 10640   0.101E-01-0.194E-02
CGA:  10    -0.128330934258E+04   -0.21425E-02   -0.19750E-02 10640   0.438E-02-0.127E-02
CGA:  11    -0.128331052240E+04   -0.11798E-02   -0.11182E-02 10640   0.227E-02-0.116E-02
CGA:  12    -0.128331104936E+04   -0.52696E-03   -0.48158E-03 10640   0.222E-02-0.837E-03
CGA:  13    -0.128331144251E+04   -0.39315E-03   -0.36020E-03 10640   0.105E-02-0.401E-03
CGA:  14    -0.128331172684E+04   -0.28433E-03   -0.76860E-03 10640   0.360E-02-0.876E-03
CGA:  15    -0.128331219608E+04   -0.46924E-03   -0.54273E-03 10640   0.859E-03 0.356E-03
CGA:  16    -0.128331241632E+04   -0.22024E-03   -0.22334E-03 10640   0.279E-03 0.272E-04
CGA:  17    -0.128331242208E+04   -0.57587E-05   -0.37972E-04 10640   0.135E-03 0.150E-03
CGA:  18    -0.128331243026E+04   -0.81845E-05   -0.23077E-04 10640   0.800E-04 0.901E-04
CGA:  19    -0.128331243746E+04   -0.71955E-05   -0.15830E-04 10640   0.646E-04 0.661E-04
  10 F= -.12833124E+04 E0= -.12833124E+04  d E =0.585955E-01  mag=    47.0000
       N       E                     dE             d eps       ncg     rms          ort
SDA:   1    -0.124271201581E+04    0.40600E+02    0.00000E+00 10640   0.107E+03 0.000E+00
CGA:   2    -0.127014788763E+04   -0.27436E+02   -0.27439E+02 10640   0.506E+02 0.869E-02
CGA:   3    -0.128132604698E+04   -0.11178E+02   -0.11182E+02 10640   0.817E+01 0.317E-02
CGA:   4    -0.128271438382E+04   -0.13883E+01   -0.13891E+01 10640   0.158E+01 0.310E-02
CGA:   5    -0.128305237827E+04   -0.33799E+00   -0.33818E+00 10640   0.350E+00 0.238E-02
CGA:   6    -0.128313948513E+04   -0.87107E-01   -0.86865E-01 10640   0.103E+00-0.519E-02
CGA:   7    -0.128316173251E+04   -0.22247E-01   -0.22030E-01 10640   0.395E-01-0.281E-02
CGA:   8    -0.128317048453E+04   -0.87520E-02   -0.85821E-02 10640   0.208E-01-0.257E-02
CGA:   9    -0.128317551813E+04   -0.50336E-02   -0.49709E-02 10640   0.983E-02-0.211E-02
CGA:  10    -0.128317818142E+04   -0.26633E-02   -0.27676E-02 10640   0.837E-02-0.347E-02
CGA:  11    -0.128317916650E+04   -0.98508E-03   -0.87407E-03 10640   0.237E-02-0.880E-03
CGA:  12    -0.128317980604E+04   -0.63954E-03   -0.64972E-03 10640   0.217E-02-0.363E-03
CGA:  13    -0.128318021543E+04   -0.40940E-03   -0.35603E-03 10640   0.151E-02-0.618E-03
CGA:  14    -0.128318060206E+04   -0.38662E-03   -0.42084E-03 10640   0.147E-02-0.305E-03
CGA:  15    -0.128318082296E+04   -0.22091E-03   -0.23262E-03 10640   0.976E-03 0.139E-03
CGA:  16    -0.128318111825E+04   -0.29528E-03   -0.29529E-03 10640   0.756E-03 0.564E-05
CGA:  17    -0.128318123290E+04   -0.11465E-03   -0.13068E-03 10640   0.361E-03 0.150E-03
CGA:  18    -0.128318127942E+04   -0.46517E-04   -0.70381E-04 10640   0.261E-03 0.217E-03
CGA:  19    -0.128318133081E+04   -0.51390E-04   -0.54076E-04 10640   0.168E-03 0.452E-04
CGA:  20    -0.128318134838E+04   -0.17572E-04   -0.30174E-04 10640   0.799E-04 0.114E-03
CGA:  21    -0.128318135491E+04   -0.65328E-05   -0.12104E-04 10640   0.561E-04 0.522E-04
  11 F= -.12831814E+04 E0= -.12831814E+04  d E =0.131083E+00  mag=    47.0000
       N       E                     dE             d eps       ncg     rms          ort
SDA:   1    -0.127311670814E+04    0.10065E+02    0.00000E+00 10640   0.270E+02 0.000E+00
CGA:   2    -0.127985901477E+04   -0.67423E+01   -0.67423E+01 10640   0.128E+02-0.102E-01
CGA:   3    -0.128269563080E+04   -0.28366E+01   -0.28370E+01 10640   0.219E+01 0.819E-02
CGA:   4    -0.128305617188E+04   -0.36054E+00   -0.36057E+00 10640   0.426E+00 0.199E-03
CGA:   5    -0.128314123000E+04   -0.85058E-01   -0.85171E-01 10640   0.112E+00 0.293E-02
CGA:   6    -0.128316327678E+04   -0.22047E-01   -0.21921E-01 10640   0.428E-01-0.269E-02
CGA:   7    -0.128317103796E+04   -0.77612E-02   -0.77277E-02 10640   0.108E-01-0.558E-03
CGA:   8    -0.128317398802E+04   -0.29501E-02   -0.30120E-02 10640   0.527E-02-0.131E-02
CGA:   9    -0.128317521029E+04   -0.12223E-02   -0.12393E-02 10640   0.315E-02-0.574E-03
CGA:  10    -0.128317590531E+04   -0.69501E-03   -0.70379E-03 10640   0.187E-02-0.774E-03
CGA:  11    -0.128317625413E+04   -0.34882E-03   -0.35301E-03 10640   0.770E-03-0.403E-03
CGA:  12    -0.128317639333E+04   -0.13920E-03   -0.30553E-03 10640   0.189E-02-0.626E-03
CGA:  13    -0.128317657196E+04   -0.17863E-03   -0.20301E-03 10640   0.332E-03 0.171E-03
CGA:  14    -0.128317667463E+04   -0.10267E-03   -0.10134E-03 10640   0.153E-03 0.396E-04
CGA:  15    -0.128317672363E+04   -0.48993E-04   -0.48034E-04 10640   0.180E-03 0.295E-04
CGA:  16    -0.128317675096E+04   -0.27336E-04   -0.35465E-04 10640   0.773E-04 0.957E-04
CGA:  17    -0.128317677423E+04   -0.23269E-04   -0.22499E-04 10640   0.658E-04 0.169E-04
CGA:  18    -0.128317680553E+04   -0.31300E-04   -0.28494E-04 10640   0.569E-04 0.255E-04
CGA:  19    -0.128317682251E+04   -0.16981E-04   -0.18221E-04 10640   0.492E-04 0.549E-04
CGA:  20    -0.128317668949E+04    0.13302E-03   -0.73296E-04 10640   0.191E-02-0.155E-03
CGA:  21    -0.128317685364E+04   -0.16415E-03   -0.20184E-03 10640   0.150E-03 0.114E-03
CGA:  22    -0.128317688832E+04   -0.34679E-04   -0.35016E-04 10640   0.779E-04 0.179E-05
CGA:  23    -0.128317691130E+04   -0.22980E-04   -0.22635E-04 10640   0.313E-04-0.240E-05
CGA:  24    -0.128317691286E+04   -0.15645E-05   -0.54550E-05 10640   0.261E-04 0.159E-04
CGA:  25    -0.128317692614E+04   -0.13275E-04   -0.17744E-04 10640   0.144E-03-0.168E-04
CGA:  26    -0.128317693072E+04   -0.45862E-05   -0.13254E-04 10640   0.176E-04 0.264E-04
  12 F= -.12831769E+04 E0= -.12831769E+04  d E =0.442419E-02  mag=    47.0000
       N       E                     dE             d eps       ncg     rms          ort
SDA:   1    -0.126969838420E+04    0.13479E+02    0.00000E+00 10640   0.349E+02 0.000E+00
CGA:   2    -0.127889654513E+04   -0.91982E+01   -0.91979E+01 10640   0.166E+02-0.804E-02
CGA:   3    -0.128251359964E+04   -0.36171E+01   -0.36191E+01 10640   0.256E+01 0.435E-02
CGA:   4    -0.128295411820E+04   -0.44052E+00   -0.44049E+00 10640   0.525E+00-0.761E-03
CGA:   5    -0.128306044526E+04   -0.10633E+00   -0.10662E+00 10640   0.127E+00 0.217E-02
CGA:   6    -0.128308775808E+04   -0.27313E-01   -0.26931E-01 10640   0.501E-01-0.256E-02
CGA:   7    -0.128309631865E+04   -0.85606E-02   -0.84853E-02 10640   0.138E-01-0.288E-03
CGA:   8    -0.128310001296E+04   -0.36943E-02   -0.36150E-02 10640   0.599E-02-0.944E-03
CGA:   9    -0.128310175135E+04   -0.17384E-02   -0.17067E-02 10640   0.385E-02-0.879E-03
CGA:  10    -0.128310252808E+04   -0.77673E-03   -0.70824E-03 10640   0.175E-02-0.544E-03
CGA:  11    -0.128310298988E+04   -0.46180E-03   -0.43991E-03 10640   0.869E-03-0.535E-03
CGA:  12    -0.128310318383E+04   -0.19395E-03   -0.18701E-03 10640   0.873E-03-0.321E-03
CGA:  13    -0.128310330870E+04   -0.12487E-03   -0.11567E-03 10640   0.347E-03-0.766E-04
CGA:  14    -0.128310345918E+04   -0.15049E-03   -0.20309E-03 10640   0.730E-03-0.168E-03
CGA:  15    -0.128310350045E+04   -0.41270E-04   -0.45773E-04 10640   0.461E-03 0.191E-04
CGA:  16    -0.128310355408E+04   -0.53626E-04   -0.69183E-04 10640   0.367E-03 0.835E-04
CGA:  17    -0.128310361538E+04   -0.61304E-04   -0.71933E-04 10640   0.189E-03 0.673E-04
CGA:  18    -0.128310364464E+04   -0.29258E-04   -0.33475E-04 10640   0.113E-03 0.254E-04
CGA:  19    -0.128310365069E+04   -0.60454E-05   -0.16391E-04 10640   0.818E-04 0.583E-04
CGA:  20    -0.128310365399E+04   -0.33003E-05   -0.10027E-04 10640   0.328E-04 0.389E-04
  13 F= -.12831037E+04 E0= -.12831037E+04  d E =0.732767E-01  mag=    47.0000
       N       E                     dE             d eps       ncg     rms          ort
SDA:   1    -0.123549474738E+04    0.47609E+02    0.00000E+00 10640   0.126E+03 0.000E+00
CGA:   2    -0.126763723238E+04   -0.32142E+02   -0.32144E+02 10640   0.593E+02 0.758E-02
CGA:   3    -0.128079750214E+04   -0.13160E+02   -0.13163E+02 10640   0.970E+01 0.133E-01
CGA:   4    -0.128242596837E+04   -0.16285E+01   -0.16303E+01 10640   0.195E+01-0.653E-02
CGA:   5    -0.128281959144E+04   -0.39362E+00   -0.39383E+00 10640   0.495E+00 0.949E-02
CGA:   6    -0.128292236143E+04   -0.10277E+00   -0.10226E+00 10640   0.195E+00-0.100E-01
CGA:   7    -0.128295686574E+04   -0.34504E-01   -0.34287E-01 10640   0.535E-01-0.182E-02
CGA:   8    -0.128297083135E+04   -0.13966E-01   -0.13984E-01 10640   0.251E-01-0.393E-02
CGA:   9    -0.128297731992E+04   -0.64886E-02   -0.65854E-02 10640   0.168E-01-0.400E-02
CGA:  10    -0.128298053598E+04   -0.32161E-02   -0.31065E-02 10640   0.676E-02-0.263E-02
CGA:  11    -0.128298224146E+04   -0.17055E-02   -0.19292E-02 10640   0.454E-02-0.280E-02
CGA:  12    -0.128298290640E+04   -0.66494E-03   -0.63011E-03 10640   0.296E-02-0.134E-02
CGA:  13    -0.128298347842E+04   -0.57203E-03   -0.57762E-03 10640   0.136E-02-0.368E-03
CGA:  14    -0.128298392087E+04   -0.44245E-03   -0.71052E-03 10640   0.308E-02-0.801E-03
CGA:  15    -0.128298418703E+04   -0.26615E-03   -0.35066E-03 10640   0.591E-03 0.522E-03
CGA:  16    -0.128298433524E+04   -0.14821E-03   -0.15509E-03 10640   0.285E-03 0.148E-03
CGA:  17    -0.128298439568E+04   -0.60437E-04   -0.66027E-04 10640   0.165E-03 0.675E-04
CGA:  18    -0.128298439003E+04    0.56482E-05   -0.19907E-04 10640   0.126E-03 0.153E-03
CGA:  19    -0.128298438809E+04    0.19426E-05   -0.12468E-04 10640   0.813E-04 0.918E-04
CGA:  20    -0.128298439442E+04   -0.63345E-05   -0.12768E-04 10640   0.644E-04 0.706E-04
  14 F= -.12829844E+04 E0= -.12829844E+04  d E =0.119260E+00  mag=    47.0000
       N       E                     dE             d eps       ncg     rms          ort
SDA:   1    -0.126550413691E+04    0.17480E+02    0.00000E+00 10640   0.478E+02 0.000E+00
CGA:   2    -0.127703187369E+04   -0.11528E+02   -0.11528E+02 10640   0.221E+02 0.845E-02
CGA:   3    -0.128206975441E+04   -0.50379E+01   -0.50380E+01 10640   0.398E+01 0.966E-03
CGA:   4    -0.128272031987E+04   -0.65057E+00   -0.65094E+00 10640   0.735E+00 0.445E-02
CGA:   5    -0.128287142250E+04   -0.15110E+00   -0.15116E+00 10640   0.187E+00 0.220E-02
CGA:   6    -0.128290980221E+04   -0.38380E-01   -0.38272E-01 10640   0.716E-01-0.364E-02
CGA:   7    -0.128292255982E+04   -0.12758E-01   -0.12695E-01 10640   0.192E-01-0.109E-02
CGA:   8    -0.128292762716E+04   -0.50673E-02   -0.51793E-02 10640   0.941E-02-0.246E-02
CGA:   9    -0.128292968448E+04   -0.20573E-02   -0.20690E-02 10640   0.463E-02-0.532E-03
CGA:  10    -0.128293091630E+04   -0.12318E-02   -0.14589E-02 10640   0.487E-02-0.223E-02
CGA:  11    -0.128293135995E+04   -0.44364E-03   -0.40043E-03 10640   0.175E-02-0.541E-03
CGA:  12    -0.128293166555E+04   -0.30561E-03   -0.29928E-03 10640   0.138E-02-0.155E-03
CGA:  13    -0.128293196585E+04   -0.30029E-03   -0.31571E-03 10640   0.118E-02-0.778E-03
CGA:  14    -0.128293214819E+04   -0.18234E-03   -0.19424E-03 10640   0.392E-03 0.179E-03
CGA:  15    -0.128293226077E+04   -0.11258E-03   -0.11367E-03 10640   0.257E-03-0.472E-04
CGA:  16    -0.128293230718E+04   -0.46401E-04   -0.48249E-04 10640   0.147E-03 0.110E-03
CGA:  17    -0.128293235758E+04   -0.50407E-04   -0.49794E-04 10640   0.866E-04 0.782E-04
CGA:  18    -0.128293182346E+04    0.53412E-03   -0.28804E-03 10640   0.777E-02-0.530E-03
CGA:  19    -0.128293244883E+04   -0.62538E-03   -0.70284E-03 10640   0.131E-03 0.278E-03
CGA:  20    -0.128293248231E+04   -0.33476E-04   -0.36253E-04 10640   0.697E-04 0.204E-04
CGA:  21    -0.128293251338E+04   -0.31068E-04   -0.27676E-04 10640   0.190E-03-0.651E-04
CGA:  22    -0.128293252267E+04   -0.92899E-05   -0.18363E-04 10640   0.304E-04 0.311E-04
CGA:  23    -0.128293254010E+04   -0.17435E-04   -0.20408E-04 10640   0.122E-03-0.151E-04
CGA:  24    -0.128293256299E+04   -0.22888E-04   -0.95147E-05 10640   0.137E-03-0.583E-04
CGA:  25    -0.128293259383E+04   -0.30838E-04   -0.14796E-04 10640   0.339E-03-0.962E-04
CGA:  26    -0.128293262275E+04   -0.28917E-04   -0.43439E-04 10640   0.983E-04 0.613E-04
CGA:  27    -0.128293265762E+04   -0.34870E-04   -0.34703E-04 10640   0.165E-04-0.303E-05
CGA:  28    -0.128293267067E+04   -0.13057E-04    0.17735E-04 10640   0.403E-04-0.555E-05
CGA:  29    -0.128293266464E+04    0.60279E-05   -0.23216E-04 10640   0.187E-03-0.580E-04
CGA:  30    -0.128293272384E+04   -0.59195E-04   -0.57464E-04 10640   0.915E-04-0.242E-04
CGA:  31    -0.128293272549E+04   -0.16536E-05   -0.88436E-05 10640   0.214E-04 0.274E-04
  15 F= -.12829327E+04 E0= -.12829327E+04  d E =0.516689E-01  mag=    47.0000
       N       E                     dE             d eps       ncg     rms          ort
SDA:   1    -0.126608180677E+04    0.16851E+02    0.00000E+00 10640   0.434E+02 0.000E+00
CGA:   2    -0.127764921017E+04   -0.11567E+02   -0.11568E+02 10640   0.206E+02-0.782E-02
CGA:   3    -0.128210244027E+04   -0.44532E+01   -0.44544E+01 10640   0.322E+01 0.465E-03
CGA:   4    -0.128265373394E+04   -0.55129E+00   -0.55127E+00 10640   0.681E+00-0.335E-02
CGA:   5    -0.128278688966E+04   -0.13316E+00   -0.13340E+00 10640   0.173E+00 0.321E-02
CGA:   6    -0.128282259251E+04   -0.35703E-01   -0.35206E-01 10640   0.665E-01-0.437E-02
CGA:   7    -0.128283463608E+04   -0.12044E-01   -0.11964E-01 10640   0.171E-01-0.406E-03
CGA:   8    -0.128283946285E+04   -0.48268E-02   -0.47748E-02 10640   0.846E-02-0.173E-02
CGA:   9    -0.128284159533E+04   -0.21325E-02   -0.20924E-02 10640   0.531E-02-0.117E-02
CGA:  10    -0.128284283443E+04   -0.12391E-02   -0.11552E-02 10640   0.299E-02-0.152E-02
CGA:  11    -0.128284345318E+04   -0.61875E-03   -0.58992E-03 10640   0.148E-02-0.102E-02
CGA:  12    -0.128284375879E+04   -0.30561E-03   -0.34882E-03 10640   0.190E-02-0.809E-03
CGA:  13    -0.128284395772E+04   -0.19894E-03   -0.21931E-03 10640   0.424E-03 0.112E-03
CGA:  14    -0.128284412203E+04   -0.16431E-03   -0.16365E-03 10640   0.212E-03 0.942E-05
CGA:  15    -0.128284418165E+04   -0.59621E-04   -0.60670E-04 10640   0.148E-03 0.521E-04
CGA:  16    -0.128284423571E+04   -0.54063E-04   -0.53974E-04 10640   0.124E-03-0.158E-04
CGA:  17    -0.128284427521E+04   -0.39501E-04   -0.45405E-04 10640   0.207E-03-0.536E-04
CGA:  18    -0.128284430263E+04   -0.27417E-04   -0.24741E-04 10640   0.120E-03-0.311E-04
CGA:  19    -0.128284436475E+04   -0.62114E-04    0.10552E-02 10640   0.208E-03-0.163E-04
CGA:  20    -0.128284447372E+04   -0.10898E-03    0.19114E-02 10640   0.180E-03-0.774E-04
CGA:  21    -0.128284454655E+04   -0.72829E-04    0.21585E-03 10640   0.192E-03-0.292E-04
CGA:  22    -0.128284467381E+04   -0.12726E-03    0.75621E-04 10640   0.163E-03-0.986E-04
CGA:  23    -0.128284469521E+04   -0.21397E-04   -0.22458E-04 10640   0.571E-04 0.696E-05
CGA:  24    -0.128284470448E+04   -0.92714E-05   -0.11797E-04 10640   0.184E-04 0.271E-04
  16 F= -.12828447E+04 E0= -.12828447E+04  d E =0.880210E-01  mag=    47.0000
       N       E                     dE             d eps       ncg     rms          ort
SDA:   1    -0.126207269565E+04    0.20772E+02    0.00000E+00 10640   0.572E+02 0.000E+00
CGA:   2    -0.127574276013E+04   -0.13670E+02   -0.13671E+02 10640   0.262E+02 0.926E-02
CGA:   3    -0.128177243807E+04   -0.60297E+01   -0.60306E+01 10640   0.480E+01 0.621E-02
CGA:   4    -0.128255904359E+04   -0.78661E+00   -0.78689E+00 10640   0.866E+00-0.165E-02
CGA:   5    -0.128273940023E+04   -0.18036E+00   -0.18059E+00 10640   0.209E+00 0.501E-02
CGA:   6    -0.128278616035E+04   -0.46760E-01   -0.46524E-01 10640   0.787E-01-0.558E-02
CGA:   7    -0.128279928854E+04   -0.13128E-01   -0.13220E-01 10640   0.220E-01 0.143E-02
CGA:   8    -0.128280510040E+04   -0.58119E-02   -0.58118E-02 10640   0.103E-01-0.182E-02
CGA:   9    -0.128280768198E+04   -0.25816E-02   -0.25942E-02 10640   0.592E-02-0.912E-03
CGA:  10    -0.128280898176E+04   -0.12998E-02   -0.12810E-02 10640   0.299E-02-0.799E-03
CGA:  11    -0.128280971689E+04   -0.73513E-03   -0.77495E-03 10640   0.184E-02-0.985E-03
CGA:  12    -0.128281002840E+04   -0.31152E-03   -0.30786E-03 10640   0.107E-02-0.311E-03
CGA:  13    -0.128281029476E+04   -0.26636E-03   -0.26817E-03 10640   0.596E-03-0.456E-04
CGA:  14    -0.128281052692E+04   -0.23216E-03   -0.32154E-03 10640   0.153E-02-0.299E-03
CGA:  15    -0.128281063676E+04   -0.10984E-03   -0.15840E-03 10640   0.291E-03 0.284E-03
CGA:  16    -0.128281070909E+04   -0.72338E-04   -0.76549E-04 10640   0.190E-03 0.892E-04
CGA:  17    -0.128281078035E+04   -0.71254E-04   -0.74210E-04 10640   0.335E-03-0.913E-04
CGA:  18    -0.128281077999E+04    0.35571E-06   -0.13419E-04 10640   0.333E-03 0.712E-04
CGA:  19    -0.128281077840E+04    0.15954E-05   -0.30128E-04 10640   0.181E-03 0.172E-03
CGA:  20    -0.128281082729E+04   -0.48889E-04   -0.48003E-04 10640   0.741E-04 0.548E-04
CGA:  21    -0.128281083859E+04   -0.11307E-04   -0.78718E-04 10640   0.584E-03-0.120E-03
CGA:  22    -0.128281088312E+04   -0.44524E-04   -0.65336E-04 10640   0.110E-03 0.126E-03
CGA:  23    -0.128281092745E+04   -0.44329E-04   -0.44993E-04 10640   0.122E-03-0.104E-04
CGA:  24    -0.128281087957E+04    0.47879E-04   -0.69472E-04 10640   0.107E-02-0.329E-03
CGA:  25    -0.128281096573E+04   -0.86160E-04   -0.12276E-03 10640   0.200E-03 0.210E-03
CGA:  26    -0.128281102863E+04   -0.62907E-04   -0.63469E-04 10640   0.105E-03 0.328E-04
CGA:  27    -0.128281105928E+04   -0.30651E-04   -0.44376E-04 10640   0.329E-03-0.170E-03
CGA:  28    -0.128281106918E+04   -0.98997E-05   -0.29139E-04 10640   0.530E-04 0.984E-04
  17 F= -.12828111E+04 E0= -.12828111E+04  d E =0.336353E-01  mag=    47.0000
       N       E                     dE             d eps       ncg     rms          ort
SDA:   1    -0.127795016296E+04    0.48609E+01    0.00000E+00 10640   0.138E+02 0.000E+00
CGA:   2    -0.128115502907E+04   -0.32049E+01   -0.32048E+01 10640   0.628E+01-0.201E-02
CGA:   3    -0.128261366952E+04   -0.14586E+01   -0.14588E+01 10640   0.122E+01 0.105E-02
CGA:   4    -0.128280803959E+04   -0.19437E+00   -0.19452E+00 10640   0.219E+00 0.177E-02
CGA:   5    -0.128285162022E+04   -0.43581E-01   -0.43675E-01 10640   0.591E-01 0.176E-02
CGA:   6    -0.128286317112E+04   -0.11551E-01   -0.11496E-01 10640   0.212E-01-0.840E-03
CGA:   7    -0.128286717410E+04   -0.40030E-02   -0.39918E-02 10640   0.536E-02-0.149E-03
CGA:   8    -0.128286865010E+04   -0.14760E-02   -0.15054E-02 10640   0.298E-02-0.869E-03
CGA:   9    -0.128286912976E+04   -0.47966E-03   -0.48933E-03 10640   0.115E-02 0.180E-03
CGA:  10    -0.128286951636E+04   -0.38660E-03   -0.42385E-03 10640   0.808E-03-0.379E-03
CGA:  11    -0.128286962126E+04   -0.10490E-03   -0.10665E-03 10640   0.331E-03 0.312E-04
CGA:  12    -0.128286972260E+04   -0.10134E-03   -0.11596E-03 10640   0.288E-03-0.168E-03
CGA:  13    -0.128286979411E+04   -0.71505E-04   -0.71337E-04 10640   0.770E-04-0.228E-04
CGA:  14    -0.128286980792E+04   -0.13811E-04   -0.15101E-04 10640   0.441E-04 0.311E-04
CGA:  15    -0.128286969683E+04    0.11109E-03   -0.64512E-04 10640   0.108E-02-0.158E-03
CGA:  16    -0.128286983424E+04   -0.13741E-03   -0.17031E-03 10640   0.193E-03 0.111E-03
CGA:  17    -0.128286990698E+04   -0.72747E-04   -0.56888E-04 10640   0.151E-03-0.888E-04
CGA:  18    -0.128286991198E+04   -0.49929E-05   -0.10942E-04 10640   0.793E-04 0.198E-04
CGA:  19    -0.128286991541E+04   -0.34305E-05   -0.10876E-04 10640   0.449E-04 0.249E-04
CGA:  20    -0.128286993766E+04   -0.22249E-04   -0.19503E-04 10640   0.481E-04-0.365E-04
CGA:  21    -0.128286995680E+04   -0.19148E-04   -0.18076E-04 10640   0.102E-03-0.406E-04
CGA:  22    -0.128286996190E+04   -0.50940E-05   -0.95471E-05 10640   0.699E-05 0.147E-04
  18 F= -.12828700E+04 E0= -.12828700E+04  d E =-.588927E-01  mag=    47.0000
       N       E                     dE             d eps       ncg     rms          ort
SDA:   1    -0.127503846376E+04    0.78315E+01    0.00000E+00 10640   0.207E+02 0.000E+00
CGA:   2    -0.128035223283E+04   -0.53138E+01   -0.53137E+01 10640   0.984E+01-0.374E-02
CGA:   3    -0.128250912347E+04   -0.21569E+01   -0.21574E+01 10640   0.166E+01 0.211E-02
CGA:   4    -0.128277947267E+04   -0.27035E+00   -0.27042E+00 10640   0.348E+00-0.378E-03
CGA:   5    -0.128284480926E+04   -0.65337E-01   -0.65650E-01 10640   0.947E-01 0.281E-02
CGA:   6    -0.128286311045E+04   -0.18301E-01   -0.18056E-01 10640   0.325E-01-0.166E-02
CGA:   7    -0.128286957213E+04   -0.64617E-02   -0.64249E-02 10640   0.815E-02-0.216E-03
CGA:   8    -0.128287183056E+04   -0.22584E-02   -0.22106E-02 10640   0.435E-02-0.859E-03
CGA:   9    -0.128287265169E+04   -0.82112E-03   -0.82208E-03 10640   0.193E-02 0.176E-04
CGA:  10    -0.128287325984E+04   -0.60815E-03   -0.60371E-03 10640   0.117E-02-0.500E-03
CGA:  11    -0.128287343976E+04   -0.17993E-03   -0.17272E-03 10640   0.438E-03-0.590E-04
CGA:  12    -0.128287358145E+04   -0.14169E-03   -0.15856E-03 10640   0.440E-03-0.249E-03
CGA:  13    -0.128287363939E+04   -0.57939E-04   -0.67914E-04 10640   0.127E-03 0.618E-04
CGA:  14    -0.128287368206E+04   -0.42668E-04   -0.41917E-04 10640   0.128E-03-0.377E-04
CGA:  15    -0.128287369721E+04   -0.15150E-04   -0.18541E-04 10640   0.920E-04 0.328E-04
CGA:  16    -0.128287372333E+04   -0.26122E-04   -0.27540E-04 10640   0.754E-04 0.217E-04
CGA:  17    -0.128287374536E+04   -0.22036E-04   -0.46886E-04 10640   0.430E-03-0.123E-03
CGA:  18    -0.128287377220E+04   -0.26839E-04   -0.43244E-04 10640   0.742E-04 0.795E-04
CGA:  19    -0.128287379349E+04   -0.21288E-04   -0.21563E-04 10640   0.370E-04 0.501E-05
CGA:  20    -0.128287381894E+04   -0.25447E-04    0.68237E-04 10640   0.105E-03-0.337E-04
CGA:  21    -0.128287382092E+04   -0.19808E-05   -0.86226E-05 10640   0.200E-04 0.312E-04
  19 F= -.12828738E+04 E0= -.12828738E+04  d E =-.385902E-02  mag=    47.0000
       N       E                     dE             d eps       ncg     rms          ort
SDA:   1    -0.126590970952E+04    0.16964E+02    0.00000E+00 10640   0.462E+02 0.000E+00
CGA:   2    -0.127722439965E+04   -0.11315E+02   -0.11315E+02 10640   0.216E+02-0.400E-02
CGA:   3    -0.128208749693E+04   -0.48631E+01   -0.48634E+01 10640   0.384E+01 0.840E-02
CGA:   4    -0.128271535572E+04   -0.62786E+00   -0.62841E+00 10640   0.725E+00-0.528E-02
CGA:   5    -0.128286204780E+04   -0.14669E+00   -0.14702E+00 10640   0.177E+00 0.710E-02
CGA:   6    -0.128290073233E+04   -0.38685E-01   -0.38422E-01 10640   0.653E-01-0.566E-02
CGA:   7    -0.128291215182E+04   -0.11419E-01   -0.11482E-01 10640   0.169E-01 0.107E-02
CGA:   8    -0.128291693748E+04   -0.47857E-02   -0.48407E-02 10640   0.937E-02-0.238E-02
CGA:   9    -0.128291875087E+04   -0.18134E-02   -0.18037E-02 10640   0.465E-02-0.250E-03
CGA:  10    -0.128291995228E+04   -0.12014E-02   -0.12103E-02 10640   0.265E-02-0.983E-03
CGA:  11    -0.128292048436E+04   -0.53208E-03   -0.52813E-03 10640   0.141E-02-0.679E-03
CGA:  12    -0.128292077502E+04   -0.29067E-03   -0.30668E-03 10640   0.101E-02-0.474E-03
CGA:  13    -0.128292096687E+04   -0.19184E-03   -0.28457E-03 10640   0.146E-02-0.571E-03
CGA:  14    -0.128292115685E+04   -0.18998E-03   -0.19704E-03 10640   0.473E-03 0.560E-04
CGA:  15    -0.128292126532E+04   -0.10847E-03   -0.11228E-03 10640   0.131E-03 0.117E-03
CGA:  16    -0.128292133594E+04   -0.70620E-04   -0.83837E-04 10640   0.437E-03-0.529E-04
CGA:  17    -0.128292134851E+04   -0.12569E-04   -0.22671E-04 10640   0.351E-03 0.538E-04
CGA:  18    -0.128292135843E+04   -0.99213E-05   -0.27013E-04 10640   0.141E-03 0.880E-04
CGA:  19    -0.128292136716E+04   -0.87358E-05   -0.16457E-04 10640   0.133E-03 0.482E-04
CGA:  20    -0.128292140872E+04   -0.41557E-04   -0.40996E-04 10640   0.282E-03-0.363E-04
CGA:  21    -0.128292146011E+04   -0.51389E-04   -0.30863E-04 10640   0.396E-03-0.221E-03
CGA:  22    -0.128292154962E+04   -0.89511E-04   -0.88246E-04 10640   0.173E-03-0.720E-04
CGA:  23    -0.128292159200E+04   -0.42378E-04   -0.47945E-04 10640   0.156E-03-0.561E-04
CGA:  24    -0.128292165446E+04   -0.62458E-04    0.59286E-04 10640   0.131E-03-0.689E-04
CGA:  25    -0.128292171101E+04   -0.56547E-04    0.15342E-04 10640   0.546E-04 0.249E-04
CGA:  26    -0.128292170235E+04    0.86578E-05   -0.39641E-04 10640   0.640E-03-0.132E-03
CGA:  27    -0.128292178915E+04   -0.86803E-04   -0.75025E-04 10640   0.536E-04-0.791E-04
CGA:  28    -0.128292179067E+04   -0.15148E-05   -0.46397E-05 10640   0.137E-04 0.201E-04
  20 F= -.12829218E+04 E0= -.12829218E+04  d E =-.479697E-01  mag=    47.0000
       N       E                     dE             d eps       ncg     rms          ort
SDA:   1    -0.127736526218E+04    0.55565E+01    0.00000E+00 10640   0.155E+02 0.000E+00
CGA:   2    -0.128107612946E+04   -0.37109E+01   -0.37109E+01 10640   0.719E+01-0.536E-02
CGA:   3    -0.128272113904E+04   -0.16450E+01   -0.16451E+01 10640   0.131E+01 0.326E-02
CGA:   4    -0.128293490654E+04   -0.21377E+00   -0.21378E+00 10640   0.241E+00-0.912E-04
CGA:   5    -0.128298328912E+04   -0.48383E-01   -0.48476E-01 10640   0.630E-01 0.292E-02
CGA:   6    -0.128299576471E+04   -0.12476E-01   -0.12413E-01 10640   0.252E-01-0.158E-02
CGA:   7    -0.128300015096E+04   -0.43862E-02   -0.43782E-02 10640   0.612E-02-0.102E-03
CGA:   8    -0.128300186477E+04   -0.17138E-02   -0.17737E-02 10640   0.316E-02-0.967E-03
CGA:   9    -0.128300247618E+04   -0.61142E-03   -0.61154E-03 10640   0.143E-02 0.474E-04
CGA:  10    -0.128300288528E+04   -0.40909E-03   -0.44440E-03 10640   0.118E-02-0.479E-03
CGA:  11    -0.128300299214E+04   -0.10686E-03   -0.11437E-03 10640   0.428E-03 0.837E-04
CGA:  12    -0.128300308012E+04   -0.87979E-04   -0.88364E-04 10640   0.302E-03 0.998E-05
CGA:  13    -0.128300311779E+04   -0.37675E-04   -0.12902E-03 10640   0.118E-02-0.484E-03
CGA:  14    -0.128300319852E+04   -0.80724E-04   -0.11686E-03 10640   0.219E-03 0.260E-03
CGA:  15    -0.128300323355E+04   -0.35035E-04   -0.41610E-04 10640   0.881E-04 0.863E-04
CGA:  16    -0.128300326360E+04   -0.30051E-04   -0.31648E-04 10640   0.152E-03-0.539E-04
CGA:  17    -0.128300326541E+04   -0.18055E-05   -0.11628E-04 10640   0.444E-04 0.644E-04
  21 F= -.12830033E+04 E0= -.12830033E+04  d E =-.814747E-01  mag=    47.0000
       N       E                     dE             d eps       ncg     rms          ort
SDA:   1    -0.127070902845E+04    0.12294E+02    0.00000E+00 10640   0.323E+02 0.000E+00
CGA:   2    -0.127915421703E+04   -0.84452E+01   -0.84462E+01 10640   0.153E+02-0.218E-01
CGA:   3    -0.128249990472E+04   -0.33457E+01   -0.33457E+01 10640   0.248E+01 0.746E-02
CGA:   4    -0.128291606701E+04   -0.41616E+00   -0.41601E+00 10640   0.527E+00-0.580E-02
CGA:   5    -0.128301488701E+04   -0.98820E-01   -0.99019E-01 10640   0.140E+00 0.881E-02
CGA:   6    -0.128304228411E+04   -0.27397E-01   -0.27295E-01 10640   0.545E-01-0.484E-02
CGA:   7    -0.128305221834E+04   -0.99342E-02   -0.99139E-02 10640   0.137E-01-0.729E-03
CGA:   8    -0.128305572923E+04   -0.35109E-02   -0.35791E-02 10640   0.703E-02-0.127E-02
CGA:   9    -0.128305730134E+04   -0.15721E-02   -0.16165E-02 10640   0.459E-02-0.111E-02
CGA:  10    -0.128305816476E+04   -0.86342E-03   -0.86867E-03 10640   0.172E-02-0.575E-03
CGA:  11    -0.128305857519E+04   -0.41043E-03   -0.42655E-03 10640   0.736E-03-0.240E-03
CGA:  12    -0.128305835366E+04    0.22153E-03   -0.42283E-03 10640   0.674E-02-0.143E-02
CGA:  13    -0.128305884220E+04   -0.48854E-03   -0.59510E-03 10640   0.535E-03 0.723E-03
CGA:  14    -0.128305891360E+04   -0.71392E-04   -0.90927E-04 10640   0.284E-03 0.242E-03
CGA:  15    -0.128305899803E+04   -0.84437E-04   -0.84705E-04 10640   0.153E-03 0.110E-04
CGA:  16    -0.128305901790E+04   -0.19867E-04   -0.24845E-04 10640   0.952E-04 0.683E-04
CGA:  17    -0.128305902524E+04   -0.73413E-05   -0.16694E-04 10640   0.745E-04 0.896E-04
CGA:  18    -0.128305903952E+04   -0.14274E-04   -0.14882E-04 10640   0.562E-04 0.297E-04
CGA:  19    -0.128305904661E+04   -0.70974E-05   -0.11335E-04 10640   0.327E-04 0.564E-04
  22 F= -.12830590E+04 E0= -.12830590E+04  d E =-.557812E-01  mag=    47.0000
       N       E                     dE             d eps       ncg     rms          ort
SDA:   1    -0.125492077517E+04    0.28138E+02    0.00000E+00 10640   0.773E+02 0.000E+00
CGA:   2    -0.127361346011E+04   -0.18693E+02   -0.18692E+02 10640   0.356E+02 0.114E-01
CGA:   3    -0.128168153916E+04   -0.80681E+01   -0.80680E+01 10640   0.656E+01 0.203E-02
CGA:   4    -0.128274305451E+04   -0.10615E+01   -0.10625E+01 10640   0.125E+01 0.371E-02
CGA:   5    -0.128299195310E+04   -0.24890E+00   -0.24905E+00 10640   0.319E+00 0.116E-01
CGA:   6    -0.128305820271E+04   -0.66250E-01   -0.66201E-01 10640   0.115E+00-0.588E-02
CGA:   7    -0.128308012945E+04   -0.21927E-01   -0.21906E-01 10640   0.304E-01-0.789E-03
CGA:   8    -0.128308821283E+04   -0.80834E-02   -0.83280E-02 10640   0.172E-01-0.386E-02
CGA:   9    -0.128309131117E+04   -0.30983E-02   -0.30964E-02 10640   0.804E-02-0.151E-03
CGA:  10    -0.128309337175E+04   -0.20606E-02   -0.21336E-02 10640   0.455E-02-0.140E-02
CGA:  11    -0.128309412912E+04   -0.75737E-03   -0.75001E-03 10640   0.188E-02-0.388E-03
CGA:  12    -0.128309461074E+04   -0.48162E-03   -0.54030E-03 10640   0.132E-02-0.601E-03
CGA:  13    -0.128309486244E+04   -0.25170E-03   -0.27814E-03 10640   0.112E-02-0.301E-03
CGA:  14    -0.128309505785E+04   -0.19542E-03   -0.19543E-03 10640   0.538E-03 0.945E-04
CGA:  15    -0.128309520199E+04   -0.14413E-03   -0.14031E-03 10640   0.292E-03 0.270E-03
CGA:  16    -0.128309527945E+04   -0.77463E-04   -0.75236E-04 10640   0.207E-03 0.741E-04
CGA:  17    -0.128309530020E+04   -0.20753E-04   -0.35126E-04 10640   0.953E-04 0.154E-03
CGA:  18    -0.128309530863E+04   -0.84312E-05   -0.14155E-04 10640   0.716E-04 0.754E-04
CGA:  19    -0.128309531989E+04   -0.11256E-04   -0.13403E-04 10640   0.621E-04 0.644E-04
CGA:  20    -0.128309532484E+04   -0.49550E-05   -0.91377E-05 10640   0.568E-04 0.583E-04
CGA:  21    -0.128309533417E+04   -0.93299E-05   -0.10735E-04 10640   0.517E-04 0.535E-04
  23 F= -.12830953E+04 E0= -.12830953E+04  d E =-.362876E-01  mag=    47.0000
       N       E                     dE             d eps       ncg     rms          ort
SDA:   1    -0.128017397092E+04    0.29214E+01    0.00000E+00 10640   0.850E+01 0.000E+00
CGA:   2    -0.128212332304E+04   -0.19494E+01   -0.19494E+01 10640   0.382E+01-0.175E-02
CGA:   3    -0.128302125605E+04   -0.89793E+00   -0.89798E+00 10640   0.749E+00-0.338E-02
CGA:   4    -0.128314101356E+04   -0.11976E+00   -0.11974E+00 10640   0.133E+00-0.316E-03
CGA:   5    -0.128316743997E+04   -0.26426E-01   -0.26436E-01 10640   0.371E-01 0.971E-03
CGA:   6    -0.128317429073E+04   -0.68508E-02   -0.68292E-02 10640   0.147E-01-0.767E-03
CGA:   7    -0.128317687515E+04   -0.25844E-02   -0.25837E-02 10640   0.352E-02-0.424E-05
CGA:   8    -0.128317786986E+04   -0.99471E-03   -0.10928E-02 10640   0.252E-02-0.942E-03
CGA:   9    -0.128317816966E+04   -0.29980E-03   -0.30703E-03 10640   0.101E-02 0.161E-03
CGA:  10    -0.128317847513E+04   -0.30547E-03   -0.34002E-03 10640   0.728E-03-0.323E-03
CGA:  11    -0.128317837368E+04    0.10145E-03   -0.29662E-03 10640   0.315E-02-0.103E-02
CGA:  12    -0.128317866667E+04   -0.29300E-03   -0.33993E-03 10640   0.561E-03 0.379E-03
CGA:  13    -0.128317884868E+04   -0.18200E-03   -0.19114E-03 10640   0.353E-03-0.120E-03
CGA:  14    -0.128317890639E+04   -0.57711E-04   -0.56075E-04 10640   0.191E-03-0.541E-04
CGA:  15    -0.128317892822E+04   -0.21831E-04   -0.26457E-04 10640   0.112E-03 0.694E-04
CGA:  16    -0.128317895697E+04   -0.28757E-04   -0.29568E-04 10640   0.615E-04 0.245E-04
CGA:  17    -0.128317865383E+04    0.30314E-03   -0.16357E-03 10640   0.247E-02-0.343E-03
CGA:  18    -0.128317888268E+04   -0.22885E-03   -0.30347E-03 10640   0.402E-03 0.274E-03
CGA:  19    -0.128317904559E+04   -0.16291E-03   -0.15717E-03 10640   0.234E-03-0.127E-03
CGA:  20    -0.128317906416E+04   -0.18572E-04   -0.21728E-04 10640   0.746E-04 0.127E-04
CGA:  21    -0.128317906903E+04   -0.48683E-05   -0.10031E-04 10640   0.422E-04 0.204E-04
CGA:  22    -0.128317908214E+04   -0.13117E-04   -0.13273E-04 10640   0.377E-04 0.121E-05
CGA:  23    -0.128317909625E+04   -0.14110E-04   -0.12985E-04 10640   0.601E-04-0.402E-04
CGA:  24    -0.128317909796E+04   -0.17114E-05   -0.79305E-05 10640   0.191E-04 0.272E-04
  24 F= -.12831791E+04 E0= -.12831791E+04  d E =-.837638E-01  mag=    47.0000
       N       E                     dE             d eps       ncg     rms          ort
SDA:   1    -0.127996841814E+04    0.32107E+01    0.00000E+00 10640   0.862E+01 0.000E+00
CGA:   2    -0.128215566034E+04   -0.21872E+01   -0.21870E+01 10640   0.407E+01-0.226E-02
CGA:   3    -0.128305310634E+04   -0.89745E+00   -0.89726E+00 10640   0.721E+00-0.172E-02
CGA:   4    -0.128316709705E+04   -0.11399E+00   -0.11388E+00 10640   0.162E+00-0.171E-02
CGA:   5    -0.128319462024E+04   -0.27523E-01   -0.27685E-01 10640   0.474E-01 0.163E-02
CGA:   6    -0.128320333072E+04   -0.87105E-02   -0.85969E-02 10640   0.146E-01-0.858E-03
CGA:   7    -0.128320646239E+04   -0.31317E-02   -0.31122E-02 10640   0.386E-02-0.195E-03
CGA:   8    -0.128320744676E+04   -0.98437E-03   -0.95726E-03 10640   0.247E-02-0.490E-03
CGA:   9    -0.128320784887E+04   -0.40211E-03   -0.39900E-03 10640   0.955E-03-0.235E-04
CGA:  10    -0.128320818017E+04   -0.33130E-03   -0.35787E-03 10640   0.720E-03-0.326E-03
CGA:  11    -0.128320830122E+04   -0.12105E-03   -0.11246E-03 10640   0.424E-03-0.134E-03
CGA:  12    -0.128320839844E+04   -0.97221E-04   -0.14612E-03 10640   0.808E-03-0.387E-03
CGA:  13    -0.128320848310E+04   -0.84656E-04   -0.10061E-03 10640   0.207E-03 0.895E-04
CGA:  14    -0.128320853620E+04   -0.53099E-04   -0.53089E-04 10640   0.851E-04 0.316E-07
CGA:  15    -0.128320855689E+04   -0.20694E-04   -0.21939E-04 10640   0.549E-04 0.363E-04
CGA:  16    -0.128320858509E+04   -0.28198E-04   -0.28252E-04 10640   0.461E-04-0.978E-06
CGA:  17    -0.128320859850E+04   -0.13413E-04   -0.13404E-04 10640   0.485E-04 0.345E-05
CGA:  18    -0.128320860426E+04   -0.57542E-05   -0.89718E-05 10640   0.259E-04 0.260E-04
CGA:  19    -0.128320859419E+04    0.10067E-04   -0.27029E-04 10640   0.401E-03-0.490E-04
CGA:  20    -0.128320862392E+04   -0.29728E-04   -0.39328E-04 10640   0.241E-04 0.432E-04
CGA:  21    -0.128320862962E+04   -0.57055E-05   -0.60032E-05 10640   0.168E-04 0.335E-05
CGA:  22    -0.128320864193E+04   -0.12311E-04    0.79788E-04 10640   0.210E-04-0.850E-05
CGA:  23    -0.128320864252E+04   -0.58340E-06   -0.23710E-05 10640   0.782E-05 0.911E-05
  25 F= -.12832086E+04 E0= -.12832086E+04  d E =-.295446E-01  mag=    47.0000
       N       E                     dE             d eps       ncg     rms          ort
SDA:   1    -0.128184326150E+04    0.13654E+01    0.00000E+00 10640   0.364E+01 0.000E+00
CGA:   2    -0.128279526131E+04   -0.95200E+00   -0.95193E+00 10640   0.172E+01-0.227E-02
CGA:   3    -0.128316195108E+04   -0.36669E+00   -0.36656E+00 10640   0.333E+00-0.881E-03
CGA:   4    -0.128321275906E+04   -0.50808E-01   -0.50651E-01 10640   0.777E-01-0.190E-02
CGA:   5    -0.128322558947E+04   -0.12830E-01   -0.12958E-01 10640   0.199E-01 0.133E-02
CGA:   6    -0.128322958767E+04   -0.39982E-02   -0.39464E-02 10640   0.678E-02-0.650E-03
CGA:   7    -0.128323095037E+04   -0.13627E-02   -0.13497E-02 10640   0.218E-02-0.198E-03
CGA:   8    -0.128323141543E+04   -0.46506E-03   -0.45480E-03 10640   0.106E-02-0.191E-03
CGA:   9    -0.128323167772E+04   -0.26230E-03   -0.26393E-03 10640   0.657E-03-0.163E-03
CGA:  10    -0.128323182414E+04   -0.14642E-03   -0.14626E-03 10640   0.448E-03-0.128E-03
CGA:  11    -0.128323191058E+04   -0.86439E-04   -0.84264E-04 10640   0.217E-03-0.714E-04
CGA:  12    -0.128323201520E+04   -0.10462E-03    0.26879E-03 10640   0.131E-03-0.123E-04
CGA:  13    -0.128323205246E+04   -0.37253E-04   -0.37479E-04 10640   0.113E-03-0.644E-05
CGA:  14    -0.128323211891E+04   -0.66449E-04    0.86451E-04 10640   0.677E-04 0.140E-04
CGA:  15    -0.128323214473E+04   -0.25825E-04   -0.24813E-04 10640   0.417E-04 0.158E-04
CGA:  16    -0.128323216277E+04   -0.18037E-04   -0.19314E-04 10640   0.739E-04-0.118E-04
CGA:  17    -0.128323217102E+04   -0.82541E-05   -0.83294E-05 10640   0.339E-04-0.261E-06
  26 F= -.12832322E+04 E0= -.12832322E+04  d E =-.235285E-01  mag=    47.0000
       N       E                     dE             d eps       ncg     rms          ort
SDA:   1    -0.127666094506E+04    0.65712E+01    0.00000E+00 10640   0.194E+02 0.000E+00
CGA:   2    -0.128087941086E+04   -0.42185E+01   -0.42180E+01 10640   0.827E+01-0.133E-02
CGA:   3    -0.128280827589E+04   -0.19289E+01   -0.19288E+01 10640   0.199E+01-0.146E-02
CGA:   4    -0.128311871194E+04   -0.31044E+00   -0.31075E+00 10640   0.353E+00 0.108E-03
CGA:   5    -0.128318510794E+04   -0.66396E-01   -0.66611E-01 10640   0.920E-01 0.375E-02
CGA:   6    -0.128320310179E+04   -0.17994E-01   -0.17924E-01 10640   0.330E-01-0.121E-02
CGA:   7    -0.128320943483E+04   -0.63330E-02   -0.63280E-02 10640   0.103E-01-0.912E-04
CGA:   8    -0.128321160585E+04   -0.21710E-02   -0.21535E-02 10640   0.531E-02-0.505E-03
CGA:   9    -0.128321280072E+04   -0.11949E-02   -0.11933E-02 10640   0.284E-02-0.264E-03
CGA:  10    -0.128321352895E+04   -0.72823E-03   -0.72940E-03 10640   0.160E-02-0.402E-04
CGA:  11    -0.128321395722E+04   -0.42826E-03   -0.42823E-03 10640   0.981E-03-0.199E-05
CGA:  12    -0.128321425507E+04   -0.29785E-03   -0.47555E-03 10640   0.278E-02-0.742E-03
CGA:  13    -0.128321451272E+04   -0.25764E-03   -0.28953E-03 10640   0.485E-03 0.216E-03
CGA:  14    -0.128321467743E+04   -0.16472E-03   -0.16211E-03 10640   0.294E-03 0.427E-04
CGA:  15    -0.128321476391E+04   -0.86481E-04   -0.16661E-03 10640   0.158E-02-0.301E-03
CGA:  16    -0.128321489013E+04   -0.12622E-03   -0.15339E-03 10640   0.154E-03 0.167E-03
CGA:  17    -0.128321494238E+04   -0.52247E-04   -0.50960E-04 10640   0.148E-03 0.309E-04
CGA:  18    -0.128321490670E+04    0.35678E-04   -0.12041E-03 10640   0.175E-02-0.377E-03
CGA:  19    -0.128321505561E+04   -0.14891E-03   -0.18182E-03 10640   0.224E-03 0.193E-03
CGA:  20    -0.128321512409E+04   -0.68480E-04   -0.68330E-04 10640   0.106E-03 0.419E-04
CGA:  21    -0.128321510832E+04    0.15771E-04   -0.69179E-04 10640   0.120E-02-0.304E-03
CGA:  22    -0.128321519179E+04   -0.83473E-04   -0.11293E-03 10640   0.932E-04 0.159E-03
CGA:  23    -0.128321520834E+04   -0.16547E-04   -0.19578E-04 10640   0.685E-04 0.336E-04
CGA:  24    -0.128321507956E+04    0.12878E-03   -0.95240E-04 10640   0.120E-02-0.299E-03
CGA:  25    -0.128321521278E+04   -0.13322E-03   -0.15912E-03 10640   0.327E-03 0.151E-03
CGA:  26    -0.128321532385E+04   -0.11106E-03   -0.11107E-03 10640   0.322E-04-0.604E-05
CGA:  27    -0.128321534980E+04   -0.25951E-04    0.12918E-04 10640   0.652E-04-0.169E-04
CGA:  28    -0.128321535027E+04   -0.47006E-06   -0.53284E-05 10640   0.131E-04 0.224E-04
  27 F= -.12832154E+04 E0= -.12832153E+04  d E =0.168208E-01  mag=    47.0000
       N       E                     dE             d eps       ncg     rms          ort
SDA:   1    -0.128039202342E+04    0.28233E+01    0.00000E+00 10640   0.874E+01 0.000E+00
CGA:   2    -0.128222040581E+04   -0.18284E+01   -0.18283E+01 10640   0.362E+01 0.107E-03
CGA:   3    -0.128310624402E+04   -0.88584E+00   -0.88586E+00 10640   0.901E+00-0.129E-02
CGA:   4    -0.128323962316E+04   -0.13338E+00   -0.13345E+00 10640   0.162E+00 0.171E-02
CGA:   5    -0.128326750991E+04   -0.27887E-01   -0.27926E-01 10640   0.513E-01 0.413E-03
CGA:   6    -0.128327646336E+04   -0.89534E-02   -0.89654E-02 10640   0.146E-01 0.177E-03
CGA:   7    -0.128327972363E+04   -0.32603E-02   -0.32573E-02 10640   0.402E-02-0.769E-04
CGA:   8    -0.128328067319E+04   -0.94956E-03   -0.94062E-03 10640   0.239E-02-0.394E-03
CGA:   9    -0.128328108361E+04   -0.41042E-03   -0.41516E-03 10640   0.963E-03 0.738E-04
CGA:  10    -0.128328138572E+04   -0.30211E-03   -0.30388E-03 10640   0.565E-03-0.321E-04
CGA:  11    -0.128328156085E+04   -0.17513E-03   -0.20369E-03 10640   0.878E-03-0.246E-03
CGA:  12    -0.128328162986E+04   -0.69013E-04   -0.69941E-04 10640   0.436E-03 0.781E-05
CGA:  13    -0.128328168614E+04   -0.56283E-04   -0.60520E-04 10640   0.345E-03 0.364E-04
CGA:  14    -0.128328179656E+04   -0.11042E-03   -0.12192E-03 10640   0.481E-03-0.155E-03
CGA:  15    -0.128328184692E+04   -0.50356E-04   -0.39660E-04 10640   0.433E-03-0.106E-03
CGA:  16    -0.128328189467E+04   -0.47752E-04   -0.48897E-04 10640   0.396E-03 0.895E-05
CGA:  17    -0.128328194210E+04   -0.47431E-04   -0.55758E-04 10640   0.248E-03 0.769E-04
CGA:  18    -0.128328198455E+04   -0.42453E-04   -0.43199E-04 10640   0.134E-03 0.652E-05
CGA:  19    -0.128328201895E+04   -0.34393E-04   -0.37082E-04 10640   0.174E-03-0.749E-04
CGA:  20    -0.128328202443E+04   -0.54833E-05   -0.16357E-04 10640   0.500E-04 0.773E-04
  28 F= -.12832820E+04 E0= -.12832820E+04  d E =-.666742E-01  mag=    47.0000
       N       E                     dE             d eps       ncg     rms          ort
SDA:   1    -0.128306818832E+04    0.21383E+00    0.00000E+00 10640   0.575E+00 0.000E+00
CGA:   2    -0.128321329919E+04   -0.14511E+00   -0.14512E+00 10640   0.289E+00-0.233E-03
CGA:   3    -0.128326905614E+04   -0.55757E-01   -0.55731E-01 10640   0.822E-01-0.118E-02
CGA:   4    -0.128328014023E+04   -0.11084E-01   -0.11103E-01 10640   0.142E-01 0.341E-03
CGA:   5    -0.128328285144E+04   -0.27112E-02   -0.27120E-02 10640   0.346E-02 0.267E-04
CGA:   6    -0.128328351428E+04   -0.66284E-03   -0.66402E-03 10640   0.117E-02 0.521E-04
CGA:   7    -0.128328377796E+04   -0.26368E-03   -0.26457E-03 10640   0.522E-03-0.104E-03
CGA:   8    -0.128328388585E+04   -0.10789E-03   -0.10917E-03 10640   0.306E-03-0.875E-04
CGA:   9    -0.128328395591E+04   -0.70065E-04   -0.72215E-04 10640   0.211E-03-0.325E-04
CGA:  10    -0.128328401252E+04   -0.56608E-04   -0.61886E-04 10640   0.218E-03-0.482E-04
CGA:  11    -0.128328405557E+04   -0.43049E-04   -0.65736E-04 10640   0.405E-03-0.140E-03
CGA:  12    -0.128328409638E+04   -0.40813E-04   -0.43785E-04 10640   0.930E-04 0.245E-04
CGA:  13    -0.128328409589E+04    0.48471E-06   -0.79571E-04 10640   0.375E-03-0.138E-03
CGA:  14    -0.128328415741E+04   -0.61519E-04   -0.65517E-04 10640   0.102E-03 0.496E-04
CGA:  15    -0.128328417391E+04   -0.16497E-04   -0.17236E-04 10640   0.189E-04 0.728E-05
CGA:  16    -0.128328418051E+04   -0.65967E-05   -0.11806E-04 10640   0.760E-04-0.154E-04
CGA:  17    -0.128328419307E+04   -0.12562E-04   -0.10596E-04 10640   0.287E-04-0.158E-04
CGA:  18    -0.128328420052E+04   -0.74457E-05   -0.77427E-05 10640   0.206E-04-0.348E-05
  29 F= -.12832842E+04 E0= -.12832842E+04  d E =-.217609E-02  mag=    47.0000
       N       E                     dE             d eps       ncg     rms          ort
SDA:   1    -0.127263930141E+04    0.10645E+02    0.00000E+00 10640   0.283E+02 0.000E+00
CGA:   2    -0.127980793908E+04   -0.71686E+01   -0.71682E+01 10640   0.137E+02-0.276E-01
CGA:   3    -0.128258799312E+04   -0.27801E+01   -0.27911E+01 10640   0.322E+01 0.397E-01
CGA:   4    -0.128306513702E+04   -0.47714E+00   -0.47344E+00 10640   0.621E+00 0.110E-01
CGA:   5    -0.128318198814E+04   -0.11685E+00   -0.11709E+00 10640   0.164E+00 0.306E-03
CGA:   6    -0.128321222515E+04   -0.30237E-01   -0.30252E-01 10640   0.572E-01 0.645E-03
CGA:   7    -0.128322467691E+04   -0.12452E-01   -0.12363E-01 10640   0.218E-01-0.285E-02
CGA:   8    -0.128322949616E+04   -0.48193E-02   -0.47979E-02 10640   0.121E-01-0.157E-02
CGA:   9    -0.128323273661E+04   -0.32404E-02   -0.33110E-02 10640   0.922E-02-0.134E-02
CGA:  10    -0.128323523550E+04   -0.24989E-02   -0.27310E-02 10640   0.943E-02-0.265E-02
CGA:  11    -0.128323698021E+04   -0.17447E-02   -0.17662E-02 10640   0.549E-02-0.179E-02
CGA:  12    -0.128323848120E+04   -0.15010E-02   -0.17635E-02 10640   0.609E-02-0.178E-02
CGA:  13    -0.128323953187E+04   -0.10507E-02   -0.10438E-02 10640   0.483E-02-0.146E-02
CGA:  14    -0.128324057085E+04   -0.10390E-02   -0.10434E-02 10640   0.209E-02-0.164E-03
CGA:  15    -0.128324114560E+04   -0.57475E-03   -0.56925E-03 10640   0.109E-02 0.244E-03
CGA:  16    -0.128324138216E+04   -0.23657E-03   -0.25264E-03 10640   0.435E-03 0.300E-03
CGA:  17    -0.128324146286E+04   -0.80698E-04   -0.10326E-03 10640   0.252E-03 0.312E-03
CGA:  18    -0.128324148523E+04   -0.22370E-04   -0.39699E-04 10640   0.171E-03 0.178E-03
CGA:  19    -0.128324149829E+04   -0.13063E-04   -0.26649E-04 10640   0.139E-03 0.144E-03
CGA:  20    -0.128324150709E+04   -0.88009E-05   -0.20858E-04 10640   0.122E-03 0.126E-03
CGA:  21    -0.128324151178E+04   -0.46850E-05   -0.16569E-04 10640   0.110E-03 0.114E-03
CGA:  22    -0.128324151728E+04   -0.55015E-05   -0.15417E-04 10640   0.100E-03 0.104E-03
CGA:  23    -0.128324152099E+04   -0.37123E-05   -0.13230E-04 10640   0.930E-04 0.962E-04
CGA:  24    -0.128324152513E+04   -0.41359E-05   -0.12395E-04 10640   0.865E-04 0.894E-04
CGA:  25    -0.128324152866E+04   -0.35288E-05   -0.11183E-04 10640   0.809E-04 0.835E-04
CGA:  26    -0.128324153235E+04   -0.36935E-05   -0.10487E-04 10640   0.759E-04 0.783E-04
  30 F= -.12832415E+04 E0= -.12832415E+04  d E =0.426682E-01  mag=    47.0000
       N       E                     dE             d eps       ncg     rms          ort
SDA:   1    -0.126924941589E+04    0.13992E+02    0.00000E+00 10640   0.412E+02 0.000E+00
CGA:   2    -0.127812641890E+04   -0.88770E+01   -0.88766E+01 10640   0.172E+02 0.282E-01
CGA:   3    -0.128228094823E+04   -0.41545E+01   -0.41537E+01 10640   0.380E+01 0.194E-01
CGA:   4    -0.128288915704E+04   -0.60821E+00   -0.60851E+00 10640   0.674E+00 0.686E-03
CGA:   5    -0.128301980419E+04   -0.13065E+00   -0.13066E+00 10640   0.193E+00 0.283E-02
CGA:   6    -0.128305495031E+04   -0.35146E-01   -0.35090E-01 10640   0.761E-01-0.213E-02
CGA:   7    -0.128306931847E+04   -0.14368E-01   -0.14339E-01 10640   0.222E-01-0.192E-02
CGA:   8    -0.128307421554E+04   -0.48971E-02   -0.48971E-02 10640   0.102E-01 0.357E-04
CGA:   9    -0.128307726055E+04   -0.30450E-02   -0.32887E-02 10640   0.975E-02-0.211E-02
CGA:  10    -0.128307894360E+04   -0.16830E-02   -0.16846E-02 10640   0.470E-02-0.241E-03
CGA:  11    -0.128308046513E+04   -0.15215E-02   -0.16350E-02 10640   0.410E-02-0.790E-03
CGA:  12    -0.128308138095E+04   -0.91583E-03   -0.10337E-02 10640   0.513E-02-0.141E-02
CGA:  13    -0.128308218795E+04   -0.80700E-03   -0.80624E-03 10640   0.288E-02 0.216E-04
CGA:  14    -0.128308281687E+04   -0.62891E-03   -0.63237E-03 10640   0.247E-02 0.618E-03
CGA:  15    -0.128308357587E+04   -0.75900E-03   -0.75640E-03 10640   0.145E-02 0.811E-04
CGA:  16    -0.128308393410E+04   -0.35823E-03   -0.35439E-03 10640   0.113E-02 0.341E-03
CGA:  17    -0.128308413547E+04   -0.20138E-03   -0.23493E-03 10640   0.471E-03 0.580E-03
CGA:  18    -0.128308429892E+04   -0.16345E-03   -0.15692E-03 10640   0.410E-03 0.578E-04
CGA:  19    -0.128308434166E+04   -0.42745E-04   -0.62935E-04 10640   0.157E-03 0.219E-03
CGA:  20    -0.128308436299E+04   -0.21326E-04   -0.26858E-04 10640   0.112E-03 0.105E-03
CGA:  21    -0.128308441575E+04   -0.52761E-04   -0.40909E-04 10640   0.123E-03 0.801E-04
CGA:  22    -0.128308442040E+04   -0.46538E-05   -0.13803E-04 10640   0.860E-04 0.784E-04
CGA:  23    -0.128308445700E+04   -0.36597E-04   -0.28642E-04 10640   0.944E-04 0.712E-04
CGA:  24    -0.128308447016E+04   -0.13160E-04   -0.16112E-04 10640   0.908E-04 0.512E-04
CGA:  25    -0.128308449691E+04   -0.26745E-04   -0.25683E-04 10640   0.178E-03 0.181E-04
CGA:  26    -0.128308460348E+04   -0.10658E-03   -0.81055E-04 10640   0.563E-04 0.166E-03
CGA:  27    -0.128308461876E+04   -0.15272E-04   -0.14633E-04 10640   0.824E-04 0.258E-04
CGA:  28    -0.128308467752E+04   -0.58768E-04    0.44965E-03 10640   0.433E-04 0.105E-03
CGA:  29    -0.128308470538E+04   -0.27855E-04    0.14297E-04 10640   0.455E-04 0.317E-04
CGA:  30    -0.128308471532E+04   -0.99369E-05   -0.10231E-04 10640   0.519E-04 0.245E-04
CGA:  31    -0.128308474423E+04   -0.28911E-04    0.34345E-04 10640   0.767E-04 0.823E-05
CGA:  32    -0.128308479377E+04   -0.49539E-04    0.58624E-04 10640   0.576E-04 0.810E-04
CGA:  33    -0.128308479647E+04   -0.27008E-05   -0.61684E-05 10640   0.303E-04 0.268E-04
CGA:  34    -0.128308482025E+04   -0.23777E-04   -0.19574E-04 10640   0.132E-03 0.195E-04
CGA:  35    -0.128308483846E+04   -0.18211E-04   -0.46852E-04 10640   0.753E-03-0.249E-03
CGA:  36    -0.128308488067E+04   -0.42211E-04   -0.62130E-04 10640   0.433E-04 0.124E-03
CGA:  37    -0.128308488088E+04   -0.21565E-06   -0.40637E-05 10640   0.247E-04 0.245E-04
  31 F= -.12830849E+04 E0= -.12830849E+04  d E =0.156651E+00  mag=    47.0000
       N       E                     dE             d eps       ncg     rms          ort
SDA:   1    -0.128107270420E+04    0.20122E+01    0.00000E+00 10640   0.644E+01 0.000E+00
CGA:   2    -0.128237340111E+04   -0.13007E+01   -0.13006E+01 10640   0.253E+01-0.265E-02
CGA:   3    -0.128301143987E+04   -0.63804E+00   -0.63806E+00 10640   0.634E+00-0.191E-02
CGA:   4    -0.128311042845E+04   -0.98989E-01   -0.98868E-01 10640   0.957E-01-0.180E-02
CGA:   5    -0.128313006309E+04   -0.19635E-01   -0.19649E-01 10640   0.242E-01 0.744E-03
CGA:   6    -0.128313519333E+04   -0.51302E-02   -0.51268E-02 10640   0.916E-02-0.225E-03
CGA:   7    -0.128313670018E+04   -0.15068E-02   -0.15132E-02 10640   0.272E-02 0.125E-03
CGA:   8    -0.128313730422E+04   -0.60404E-03   -0.60352E-03 10640   0.137E-02-0.202E-03
CGA:   9    -0.128313761983E+04   -0.31560E-03   -0.32230E-03 10640   0.872E-03-0.202E-03
CGA:  10    -0.128313781189E+04   -0.19207E-03   -0.19695E-03 10640   0.462E-03-0.116E-03
CGA:  11    -0.128313793068E+04   -0.11879E-03   -0.17831E-03 10640   0.842E-03-0.271E-03
CGA:  12    -0.128313802982E+04   -0.99140E-04   -0.97450E-04 10640   0.216E-03-0.126E-04
CGA:  13    -0.128313810262E+04   -0.72793E-04   -0.99809E-04 10640   0.342E-03-0.113E-03
CGA:  14    -0.128313815392E+04   -0.51309E-04   -0.50686E-04 10640   0.128E-03-0.619E-05
CGA:  15    -0.128313817764E+04   -0.23716E-04   -0.24240E-04 10640   0.511E-04 0.119E-04
CGA:  16    -0.128313820951E+04   -0.31872E-04    0.30890E-04 10640   0.421E-04 0.360E-04
CGA:  17    -0.128313813054E+04    0.78974E-04   -0.45078E-04 10640   0.156E-02-0.114E-03
CGA:  18    -0.128313828380E+04   -0.15327E-03   -0.15930E-03 10640   0.134E-03 0.236E-04
CGA:  19    -0.128313832850E+04   -0.44697E-04   -0.38884E-04 10640   0.111E-03-0.456E-04
CGA:  20    -0.128313833485E+04   -0.63505E-05   -0.97721E-05 10640   0.464E-04 0.126E-04
  32 F= -.12831383E+04 E0= -.12831383E+04  d E =-.534540E-01  mag=    47.0000
[...]
       N       E                     dE             d eps       ncg     rms          ort
SDA:   1    -0.127953052451E+04    0.32548E+01    0.00000E+00 10640   0.915E+01 0.000E+00
CGA:   2    -0.128167273912E+04   -0.21422E+01   -0.21422E+01 10640   0.418E+01 0.263E-02
CGA:   3    -0.128262010029E+04   -0.94736E+00   -0.94724E+00 10640   0.936E+00-0.884E-02
CGA:   4    -0.128275192970E+04   -0.13183E+00   -0.13185E+00 10640   0.208E+00 0.107E-02
CGA:   5    -0.128278545102E+04   -0.33521E-01   -0.33394E-01 10640   0.643E-01-0.167E-02
CGA:   6    -0.128279698118E+04   -0.11530E-01   -0.11477E-01 10640   0.171E-01-0.907E-03
CGA:   7    -0.128280072440E+04   -0.37432E-02   -0.37405E-02 10640   0.567E-02-0.153E-03
CGA:   8    -0.128280195659E+04   -0.12322E-02   -0.12136E-02 10640   0.359E-02-0.902E-03
CGA:   9    -0.128280263193E+04   -0.67534E-03   -0.66767E-03 10640   0.195E-02-0.526E-03
CGA:  10    -0.128280311341E+04   -0.48149E-03   -0.54776E-03 10640   0.207E-02-0.699E-03
CGA:  11    -0.128280203386E+04    0.10795E-02   -0.90139E-03 10640   0.188E-01-0.449E-02
CGA:  12    -0.128280363082E+04   -0.15970E-02   -0.17531E-02 10640   0.228E-02 0.103E-02
CGA:  13    -0.128280415575E+04   -0.52493E-03   -0.53842E-03 10640   0.980E-03 0.461E-03
CGA:  14    -0.128280448396E+04   -0.32820E-03   -0.36007E-03 10640   0.161E-02-0.589E-03
CGA:  15    -0.128280456180E+04   -0.77844E-04   -0.14237E-03 10640   0.249E-03 0.394E-03
CGA:  16    -0.128280458225E+04   -0.20454E-04   -0.37381E-04 10640   0.174E-03 0.135E-03
CGA:  17    -0.128280468252E+04   -0.10027E-03    0.10238E-03 10640   0.183E-03 0.898E-05
CGA:  18    -0.128280471711E+04   -0.34597E-04   -0.38423E-04 10640   0.705E-04 0.950E-04
CGA:  19    -0.128280471363E+04    0.34857E-05   -0.50199E-05 10640   0.438E-04 0.511E-04
  44 F= -.12828047E+04 E0= -.12828047E+04  d E =-.194137E-01  mag=    47.0000
       N       E                     dE             d eps       ncg     rms          ort
SDA:   1    -0.128272065243E+04    0.84065E-01    0.00000E+00 10640   0.298E+00 0.000E+00
CGA:   2    -0.128278105258E+04   -0.60400E-01   -0.60380E-01 10640   0.115E+00-0.821E-03
CGA:   3    -0.128280911784E+04   -0.28065E-01   -0.28023E-01 10640   0.284E-01 0.205E-02
CGA:   4    -0.128281362916E+04   -0.45113E-02   -0.45508E-02 10640   0.428E-02 0.590E-03
CGA:   5    -0.128281446239E+04   -0.83323E-03   -0.84682E-03 10640   0.961E-03 0.486E-03
CGA:   6    -0.128281469606E+04   -0.23367E-03   -0.23374E-03 10640   0.424E-03 0.347E-04
CGA:   7    -0.128281475237E+04   -0.56307E-04   -0.61845E-04 10640   0.123E-03 0.696E-04
CGA:   8    -0.128281477903E+04   -0.26661E-04   -0.27448E-04 10640   0.480E-04 0.311E-04
CGA:   9    -0.128281479882E+04   -0.19792E-04   -0.20331E-04 10640   0.582E-04-0.433E-05
CGA:  10    -0.128281479580E+04    0.30198E-05   -0.30077E-05 10640   0.391E-04 0.367E-04
  45 F= -.12828148E+04 E0= -.12828148E+04  d E =-.100822E-01  mag=    47.0000
       N       E                     dE             d eps       ncg     rms          ort
SDA:   1    -0.128258017476E+04    0.23462E+00    0.00000E+00 10640   0.688E+00 0.000E+00
CGA:   2    -0.128275053021E+04   -0.17036E+00   -0.17038E+00 10640   0.321E+00-0.535E-03
CGA:   3    -0.128282265832E+04   -0.72128E-01   -0.72131E-01 10640   0.577E-01-0.308E-03
CGA:   4    -0.128283168924E+04   -0.90309E-02   -0.90482E-02 10640   0.126E-01 0.361E-03
CGA:   5    -0.128283388423E+04   -0.21950E-02   -0.21923E-02 10640   0.425E-02-0.822E-04
CGA:   6    -0.128283456799E+04   -0.68376E-03   -0.68338E-03 10640   0.128E-02-0.687E-05
CGA:   7    -0.128283483196E+04   -0.26397E-03   -0.26380E-03 10640   0.346E-03 0.395E-04
CGA:   8    -0.128283489110E+04   -0.59146E-04   -0.17244E-03 10640   0.121E-02-0.401E-03
CGA:   9    -0.128283498259E+04   -0.91492E-04   -0.11192E-03 10640   0.154E-03 0.168E-03
CGA:  10    -0.128283501097E+04   -0.28373E-04   -0.29702E-04 10640   0.597E-04 0.330E-04
CGA:  11    -0.128283504506E+04   -0.34098E-04    0.56829E-04 10640   0.463E-04-0.789E-06
CGA:  12    -0.128283506608E+04   -0.21012E-04    0.44644E-04 10640   0.356E-04 0.112E-04
CGA:  13    -0.128283506901E+04   -0.29341E-05   -0.28031E-04 10640   0.299E-03-0.588E-04
CGA:  14    -0.128283513552E+04   -0.66513E-04   -0.60959E-04 10640   0.278E-03-0.220E-03
CGA:  15    -0.128283514261E+04   -0.70908E-05   -0.20124E-04 10640   0.325E-04 0.843E-04
  46 F= -.12828351E+04 E0= -.12828351E+04  d E =-.203468E-01  mag=    47.0000
       N       E                     dE             d eps       ncg     rms          ort
SDA:   1    -0.123587430748E+04    0.46961E+02    0.00000E+00 10640   0.128E+03 0.000E+00
CGA:   2    -0.126711299743E+04   -0.31239E+02   -0.31203E+02 10640   0.609E+02 0.733E+00
CGA:   3    -0.128014612766E+04   -0.13033E+02   -0.13033E+02 10640   0.164E+02-0.740E+00
CGA:   4    -0.128218592238E+04   -0.20398E+01   -0.21040E+01 10640   0.333E+01-0.929E-01
CGA:   5    -0.128273985900E+04   -0.55394E+00   -0.55453E+00 10640   0.925E+00 0.109E-01
CGA:   6    -0.128290835676E+04   -0.16850E+00   -0.16844E+00 10640   0.280E+00 0.122E-02
CGA:   7    -0.128296828638E+04   -0.59930E-01   -0.60036E-01 10640   0.106E+00-0.127E-01
CGA:   8    -0.128298802622E+04   -0.19740E-01   -0.19678E-01 10640   0.422E-01-0.517E-02
CGA:   9    -0.128299806253E+04   -0.10036E-01   -0.10366E-01 10640   0.321E-01-0.630E-02
CGA:  10    -0.128300433600E+04   -0.62735E-02   -0.64837E-02 10640   0.186E-01-0.737E-02
CGA:  11    -0.128300813792E+04   -0.38019E-02   -0.44187E-02 10640   0.135E-01-0.630E-02
CGA:  12    -0.128301023932E+04   -0.21014E-02   -0.23744E-02 10640   0.113E-01-0.535E-02
CGA:  13    -0.128301189717E+04   -0.16578E-02   -0.22106E-02 10640   0.120E-01-0.525E-02
CGA:  14    -0.128301346709E+04   -0.15699E-02   -0.16532E-02 10640   0.717E-02-0.244E-02
CGA:  15    -0.128301553207E+04   -0.20650E-02   -0.26476E-02 10640   0.661E-02-0.244E-02
CGA:  16    -0.128301618895E+04   -0.65688E-03   -0.69628E-03 10640   0.293E-02 0.526E-03
CGA:  17    -0.128301679768E+04   -0.60872E-03   -0.63422E-03 10640   0.134E-02 0.811E-03
CGA:  18    -0.128301703262E+04   -0.23494E-03   -0.26443E-03 10640   0.598E-03 0.387E-03
CGA:  19    -0.128301706337E+04   -0.30748E-04   -0.87367E-04 10640   0.398E-03 0.498E-03
CGA:  20    -0.128301706354E+04   -0.17725E-06   -0.37476E-04 10640   0.254E-03 0.294E-03
CGA:  21    -0.128301706275E+04    0.79236E-06   -0.25295E-04 10640   0.205E-03 0.226E-03
CGA:  22    -0.128301705788E+04    0.48679E-05   -0.18138E-04 10640   0.179E-03 0.190E-03
CGA:  23    -0.128301705163E+04    0.62534E-05   -0.14449E-04 10640   0.162E-03 0.169E-03
CGA:  24    -0.128301704491E+04    0.67200E-05   -0.12123E-04 10640   0.149E-03 0.154E-03
CGA:  25    -0.128301703812E+04    0.67924E-05   -0.10479E-04 10640   0.139E-03 0.143E-03
  47 F= -.12830170E+04 E0= -.12830170E+04  d E =-.181896E+00  mag=    47.0000
       N       E                     dE             d eps       ncg     rms          ort
SDA:   1    -0.124775393514E+04    0.35263E+02    0.00000E+00 10640   0.100E+03 0.000E+00
CGA:   2    -0.127079096871E+04   -0.23037E+02   -0.23030E+02 10640   0.447E+02 0.128E+00
CGA:   3    -0.128103686717E+04   -0.10246E+02   -0.10243E+02 10640   0.983E+01 0.137E-01
CGA:   4    -0.128250509346E+04   -0.14682E+01   -0.14693E+01 10640   0.197E+01 0.595E-02
CGA:   5    -0.128285561270E+04   -0.35052E+00   -0.35052E+00 10640   0.581E+00 0.307E-02
CGA:   6    -0.128296280727E+04   -0.10719E+00   -0.10720E+00 10640   0.168E+00-0.186E-02
CGA:   7    -0.128300178849E+04   -0.38981E-01   -0.39383E-01 10640   0.506E-01-0.735E-02
CGA:   8    -0.128301306559E+04   -0.11277E-01   -0.11487E-01 10640   0.288E-01-0.396E-02
CGA:   9    -0.128301933478E+04   -0.62692E-02   -0.65618E-02 10640   0.176E-01-0.481E-02
CGA:  10    -0.128302322253E+04   -0.38878E-02   -0.46201E-02 10640   0.139E-01-0.582E-02
CGA:  11    -0.128302535176E+04   -0.21292E-02   -0.24728E-02 10640   0.931E-02-0.488E-02
CGA:  12    -0.128302667284E+04   -0.13211E-02   -0.23796E-02 10640   0.118E-01-0.542E-02
CGA:  13    -0.128302824822E+04   -0.15754E-02   -0.15892E-02 10640   0.412E-02 0.192E-03
CGA:  14    -0.128302936454E+04   -0.11163E-02   -0.10799E-02 10640   0.140E-02 0.702E-03
CGA:  15    -0.128302996153E+04   -0.59698E-03   -0.54170E-03 10640   0.106E-02 0.453E-03
CGA:  16    -0.128303029706E+04   -0.33553E-03   -0.33177E-03 10640   0.702E-03 0.170E-03
CGA:  17    -0.128303052360E+04   -0.22654E-03   -0.21666E-03 10640   0.441E-03 0.195E-03
CGA:  18    -0.128303070999E+04   -0.18639E-03   -0.18051E-03 10640   0.559E-03 0.548E-04
CGA:  19    -0.128303099786E+04   -0.28787E-03   -0.45137E-03 10640   0.184E-02-0.348E-03
CGA:  20    -0.128303135458E+04   -0.35672E-03   -0.34320E-03 10640   0.911E-03-0.212E-03
CGA:  21    -0.128303149212E+04   -0.13754E-03   -0.51153E-03 10640   0.253E-02-0.959E-03
CGA:  22    -0.128303184598E+04   -0.35386E-03   -0.36407E-03 10640   0.605E-03 0.915E-04
CGA:  23    -0.128303198808E+04   -0.14210E-03   -0.14255E-03 10640   0.909E-04 0.147E-04
CGA:  24    -0.128303152556E+04    0.46252E-03   -0.24915E-03 10640   0.656E-02-0.441E-03
CGA:  25    -0.128303218463E+04   -0.65907E-03   -0.65532E-03 10640   0.281E-03 0.274E-04
CGA:  26    -0.128303223737E+04   -0.52737E-04   -0.60965E-04 10640   0.126E-03 0.355E-04
CGA:  27    -0.128303227388E+04   -0.36509E-04   -0.37896E-04 10640   0.561E-04 0.818E-05
CGA:  28    -0.128303228269E+04   -0.88097E-05   -0.55124E-04 10640   0.637E-03-0.943E-04
CGA:  29    -0.128303234470E+04   -0.62009E-04   -0.78324E-04 10640   0.768E-04 0.511E-04
CGA:  30    -0.128303237441E+04   -0.29710E-04   -0.29319E-04 10640   0.765E-04-0.464E-05
CGA:  31    -0.128303239467E+04   -0.20261E-04   -0.20513E-04 10640   0.430E-04 0.163E-05
CGA:  32    -0.128303243764E+04   -0.42971E-04    0.63038E-04 10640   0.103E-03-0.919E-05
CGA:  33    -0.128303253344E+04   -0.95796E-04    0.43764E-04 10640   0.172E-03 0.131E-04
CGA:  34    -0.128303261575E+04   -0.82313E-04   -0.81907E-04 10640   0.338E-03-0.884E-04
CGA:  35    -0.128303267768E+04   -0.61930E-04   -0.52839E-04 10640   0.656E-04-0.328E-04
CGA:  36    -0.128303268119E+04   -0.35083E-05   -0.95542E-05 10640   0.179E-04 0.241E-04
  48 F= -.12830327E+04 E0= -.12830327E+04  d E =-.156431E-01  mag=    47.0000
       N       E                     dE             d eps       ncg     rms          ort
SDA:   1    -0.127318671110E+04    0.98460E+01    0.00000E+00 10640   0.321E+02 0.000E+00
CGA:   2    -0.127946055401E+04   -0.62738E+01   -0.62721E+01 10640   0.125E+02 0.488E-01
CGA:   3    -0.128240717482E+04   -0.29466E+01   -0.29521E+01 10640   0.415E+01 0.775E-02
CGA:   4    -0.128299154436E+04   -0.58437E+00   -0.57976E+00 10640   0.631E+00 0.455E-01
CGA:   5    -0.128311417023E+04   -0.12263E+00   -0.12275E+00 10640   0.167E+00-0.293E-03
CGA:   6    -0.128314804161E+04   -0.33871E-01   -0.33846E-01 10640   0.489E-01 0.470E-04
CGA:   7    -0.128315898662E+04   -0.10945E-01   -0.10782E-01 10640   0.158E-01-0.133E-02
CGA:   8    -0.128316222121E+04   -0.32346E-02   -0.31865E-02 10640   0.710E-02-0.343E-03
CGA:   9    -0.128316426999E+04   -0.20488E-02   -0.20064E-02 10640   0.471E-02-0.101E-02
CGA:  10    -0.128316533630E+04   -0.10663E-02   -0.10388E-02 10640   0.267E-02-0.383E-03
CGA:  11    -0.128316623855E+04   -0.90225E-03   -0.10114E-02 10640   0.354E-02-0.126E-02
CGA:  12    -0.128316670801E+04   -0.46946E-03   -0.39183E-03 10640   0.207E-02-0.654E-03
CGA:  13    -0.128316735109E+04   -0.64308E-03   -0.92916E-03 10640   0.409E-02-0.128E-02
CGA:  14    -0.128316802988E+04   -0.67879E-03   -0.67777E-03 10640   0.144E-02-0.271E-05
CGA:  15    -0.128316826456E+04   -0.23467E-03   -0.27218E-03 10640   0.489E-03 0.276E-03
CGA:  16    -0.128316841996E+04   -0.15541E-03   -0.16255E-03 10640   0.403E-03 0.176E-03
CGA:  17    -0.128316853510E+04   -0.11514E-03   -0.12755E-03 10640   0.182E-03 0.145E-03
CGA:  18    -0.128316857584E+04   -0.40734E-04   -0.52291E-04 10640   0.133E-03 0.113E-03
CGA:  19    -0.128316861797E+04   -0.42130E-04   -0.42576E-04 10640   0.283E-03-0.369E-04
CGA:  20    -0.128316866671E+04   -0.48741E-04   -0.52514E-04 10640   0.275E-03 0.720E-04
CGA:  21    -0.128316870840E+04   -0.41689E-04   -0.52107E-04 10640   0.177E-03 0.666E-04
CGA:  22    -0.128316881557E+04   -0.10717E-03   -0.12653E-03 10640   0.726E-03-0.748E-04
CGA:  23    -0.128316887237E+04   -0.56801E-04   -0.52575E-04 10640   0.795E-03-0.317E-04
CGA:  24    -0.128316894317E+04   -0.70793E-04   -0.76341E-04 10640   0.452E-03 0.202E-04
CGA:  25    -0.128316900953E+04   -0.66359E-04   -0.68454E-04 10640   0.492E-03 0.847E-05
CGA:  26    -0.128316910565E+04   -0.96128E-04   -0.82939E-04 10640   0.269E-03-0.118E-03
CGA:  27    -0.128316915323E+04   -0.47574E-04   -0.27330E-04 10640   0.136E-03-0.141E-03
CGA:  28    -0.128316918663E+04   -0.33406E-04   -0.33009E-04 10640   0.892E-04-0.133E-04
CGA:  29    -0.128316924712E+04   -0.60489E-04    0.28001E-04 10640   0.547E-04-0.314E-04
CGA:  30    -0.128316927662E+04   -0.29496E-04    0.89375E-05 10640   0.420E-04 0.889E-06
CGA:  31    -0.128316931797E+04   -0.41351E-04    0.72890E-05 10640   0.148E-04 0.108E-04
CGA:  32    -0.128316934134E+04   -0.23370E-04    0.19135E-05 10640   0.993E-05 0.202E-05
CGA:  33    -0.128316935301E+04   -0.11668E-04    0.16761E-05 10640   0.988E-05 0.260E-06
CGA:  34    -0.128316937430E+04   -0.21295E-04    0.47657E-06 10640   0.720E-05 0.408E-05
CGA:  35    -0.128316939060E+04   -0.16300E-04    0.70261E-06 10640   0.564E-05 0.333E-05
CGA:  36    -0.128316939558E+04   -0.49755E-05    0.97660E-05 10640   0.609E-05 0.585E-06
  49 F= -.12831694E+04 E0= -.12831694E+04  d E =-.136714E+00  mag=    47.0000
       N       E                     dE             d eps       ncg     rms          ort
SDA:   1    -0.128285785302E+04    0.31154E+00    0.00000E+00 10640   0.103E+01 0.000E+00
CGA:   2    -0.128307123232E+04   -0.21338E+00   -0.21334E+00 10640   0.421E+00-0.443E-03
CGA:   3    -0.128317211735E+04   -0.10089E+00   -0.10092E+00 10640   0.114E+00 0.974E-03
CGA:   4    -0.128318903950E+04   -0.16922E-01   -0.16845E-01 10640   0.194E-01-0.570E-03
CGA:   5    -0.128319254343E+04   -0.35039E-02   -0.35241E-02 10640   0.524E-02 0.285E-03
CGA:   6    -0.128319361832E+04   -0.10749E-02   -0.10651E-02 10640   0.168E-02-0.172E-03
CGA:   7    -0.128319389314E+04   -0.27482E-03   -0.29052E-03 10640   0.366E-03 0.212E-03
CGA:   8    -0.128319401475E+04   -0.12161E-03   -0.12554E-03 10640   0.221E-03-0.715E-04
CGA:   9    -0.128319404192E+04   -0.27170E-04   -0.30893E-04 10640   0.912E-04 0.474E-04
CGA:  10    -0.128319407223E+04   -0.30305E-04   -0.30614E-04 10640   0.572E-04-0.111E-04
CGA:  11    -0.128319396166E+04    0.11057E-03   -0.56262E-04 10640   0.934E-03-0.192E-03
CGA:  12    -0.128319403587E+04   -0.74209E-04   -0.10445E-03 10640   0.166E-03 0.169E-03
CGA:  13    -0.128319407619E+04   -0.40321E-04   -0.41977E-04 10640   0.600E-04 0.235E-04
CGA:  14    -0.128319409391E+04   -0.17724E-04   -0.29134E-04 10640   0.203E-03-0.786E-04
CGA:  15    -0.128319409834E+04   -0.44273E-05   -0.17013E-04 10640   0.303E-04 0.621E-04
  50 F= -.12831941E+04 E0= -.12831941E+04  d E =-.247028E-01  mag=    47.0000
       N       E                     dE             d eps       ncg     rms          ort
SDA:   1    -0.127922682543E+04    0.39673E+01    0.00000E+00 10640   0.115E+02 0.000E+00
CGA:   2    -0.128183335556E+04   -0.26065E+01   -0.26066E+01 10640   0.503E+01-0.613E-03
CGA:   3    -0.128302192394E+04   -0.11886E+01   -0.11887E+01 10640   0.102E+01 0.251E-02
CGA:   4    -0.128318297674E+04   -0.16105E+00   -0.16101E+00 10640   0.191E+00 0.228E-03
CGA:   5    -0.128321973906E+04   -0.36762E-01   -0.36803E-01 10640   0.529E-01 0.750E-03
CGA:   6    -0.128322974200E+04   -0.10003E-01   -0.99776E-02 10640   0.182E-01-0.323E-03
CGA:   7    -0.128323327405E+04   -0.35320E-02   -0.35395E-02 10640   0.453E-02 0.155E-03
CGA:   8    -0.128323451471E+04   -0.12407E-02   -0.12576E-02 10640   0.259E-02-0.660E-03
CGA:   9    -0.128323496223E+04   -0.44752E-03   -0.45031E-03 10640   0.104E-02 0.632E-04
CGA:  10    -0.128323530969E+04   -0.34746E-03   -0.38453E-03 10640   0.758E-03-0.332E-03
CGA:  11    -0.128323543757E+04   -0.12788E-03   -0.12690E-03 10640   0.442E-03-0.115E-03
CGA:  12    -0.128323553610E+04   -0.98530E-04   -0.99664E-04 10640   0.276E-03-0.937E-04
CGA:  13    -0.128323561095E+04   -0.74843E-04   -0.78128E-04 10640   0.220E-03-0.318E-04
CGA:  14    -0.128323568102E+04   -0.70070E-04   -0.72150E-04 10640   0.233E-03-0.195E-04
CGA:  15    -0.128323573124E+04   -0.50219E-04   -0.51175E-04 10640   0.133E-03 0.382E-04
CGA:  16    -0.128323579264E+04   -0.61404E-04   -0.69938E-04 10640   0.137E-03-0.467E-04
CGA:  17    -0.128323581125E+04   -0.18613E-04   -0.19261E-04 10640   0.983E-04 0.109E-04
CGA:  18    -0.128323584839E+04   -0.37137E-04   -0.54785E-04 10640   0.146E-03-0.732E-04
CGA:  19    -0.128323588661E+04   -0.38221E-04   -0.37745E-04 10640   0.673E-04-0.192E-04
CGA:  20    -0.128323589654E+04   -0.99317E-05   -0.10246E-04 10640   0.198E-04 0.309E-05
  51 F= -.12832359E+04 E0= -.12832359E+04  d E =-.417982E-01  mag=    47.0000
       N       E                     dE             d eps       ncg     rms          ort
SDA:   1    -0.125693830362E+04    0.26298E+02    0.00000E+00 10640   0.722E+02 0.000E+00
CGA:   2    -0.127425556778E+04   -0.17317E+02   -0.17319E+02 10640   0.337E+02 0.378E-01
CGA:   3    -0.128176331985E+04   -0.75078E+01   -0.75092E+01 10640   0.688E+01-0.592E-02
CGA:   4    -0.128280602045E+04   -0.10427E+01   -0.10405E+01 10640   0.133E+01 0.301E-01
CGA:   5    -0.128305955886E+04   -0.25354E+00   -0.25363E+00 10640   0.375E+00-0.167E-02
CGA:   6    -0.128312886277E+04   -0.69304E-01   -0.69402E-01 10640   0.113E+00 0.259E-02
CGA:   7    -0.128315428021E+04   -0.25417E-01   -0.25282E-01 10640   0.334E-01-0.380E-02
CGA:   8    -0.128316162748E+04   -0.73473E-02   -0.73146E-02 10640   0.161E-01-0.104E-02
CGA:   9    -0.128316547733E+04   -0.38498E-02   -0.38362E-02 10640   0.832E-02-0.141E-02
CGA:  10    -0.128316750453E+04   -0.20272E-02   -0.20392E-02 10640   0.401E-02-0.843E-03
CGA:  11    -0.128316853403E+04   -0.10295E-02   -0.10902E-02 10640   0.328E-02-0.128E-02
CGA:  12    -0.128316897382E+04   -0.43979E-03   -0.41888E-03 10640   0.118E-02-0.294E-03
CGA:  13    -0.128316940030E+04   -0.42648E-03   -0.62314E-03 10640   0.199E-02-0.606E-03
CGA:  14    -0.128316970573E+04   -0.30543E-03   -0.32741E-03 10640   0.655E-03 0.210E-03
CGA:  15    -0.128316988031E+04   -0.17458E-03   -0.17567E-03 10640   0.321E-03 0.493E-04
CGA:  16    -0.128316996949E+04   -0.89184E-04   -0.89786E-04 10640   0.224E-03 0.152E-03
CGA:  17    -0.128317003329E+04   -0.63798E-04   -0.71991E-04 10640   0.127E-03 0.179E-03
CGA:  18    -0.128317010750E+04   -0.74208E-04    0.14030E-03 10640   0.114E-03 0.581E-04
CGA:  19    -0.128317016174E+04   -0.54240E-04   -0.50280E-04 10640   0.851E-04 0.935E-04
CGA:  20    -0.128317020669E+04   -0.44955E-04    0.48295E-02 10640   0.790E-04 0.442E-04
CGA:  21    -0.128317021043E+04   -0.37398E-05   -0.10198E-04 10640   0.557E-04 0.480E-04
CGA:  22    -0.128317024575E+04   -0.35315E-04    0.30447E-04 10640   0.552E-04 0.479E-04
CGA:  23    -0.128317025743E+04   -0.11681E-04   -0.12747E-04 10640   0.569E-04 0.407E-04
CGA:  24    -0.128317029658E+04   -0.39153E-04    0.20912E-04 10640   0.698E-04 0.290E-04
CGA:  25    -0.128317029887E+04   -0.22879E-05   -0.78744E-05 10640   0.432E-04 0.392E-04
CGA:  26    -0.128317032368E+04   -0.24810E-04    0.34352E-04 10640   0.415E-04 0.402E-04
CGA:  27    -0.128317037356E+04   -0.49880E-04   -0.35273E-04 10640   0.124E-03 0.238E-04
CGA:  28    -0.128317040522E+04   -0.31664E-04   -0.26329E-04 10640   0.162E-03-0.791E-04
CGA:  29    -0.128317041595E+04   -0.10732E-04   -0.15751E-04 10640   0.298E-04 0.285E-04
CGA:  30    -0.128317042710E+04   -0.11143E-04   -0.10467E-04 10640   0.668E-04 0.209E-04
