       N       E                     dE             d eps       ncg     rms          ort
DAV:   1     0.102835933004E+05    0.10284E+05   -0.42418E+05 10640   0.155E+03
DAV:   2    -0.114665557841E+03   -0.10398E+05   -0.98146E+04 10640   0.474E+02
DAV:   3    -0.152214802547E+04   -0.14075E+04   -0.13112E+04 10640   0.182E+02
DAV:   4    -0.160442849751E+04   -0.82280E+02   -0.80031E+02 10640   0.462E+01
DAV:   5    -0.160680003344E+04   -0.23715E+01   -0.23641E+01 10640   0.840E+00
SDA:   6    -0.728476469155E+03    0.87832E+03   -0.23641E+01 10640   0.291E+04 0.000E+00
CGA:   7    -0.113143597480E+04   -0.40296E+03   -0.40013E+03 10640   0.116E+04-0.187E+02
CGA:   8    -0.115883338149E+04   -0.27397E+02   -0.61826E+02 10640   0.110E+04-0.640E+03
CGA:   9    -0.117353267921E+04   -0.14699E+02   -0.50569E+02 10640   0.128E+04-0.835E+03
CGA:  10    -0.117590682170E+04   -0.23741E+01   -0.63537E+02 10640   0.142E+04-0.968E+03
CGA:  11    -0.118699977935E+04   -0.11093E+02   -0.64399E+02 10640   0.150E+04-0.129E+04
CGA:  12    -0.119016047159E+04   -0.31607E+01   -0.70280E+02 10640   0.154E+04-0.127E+04
CGA:  13    -0.120652676491E+04   -0.16366E+02   -0.65028E+02 10640   0.126E+04-0.129E+04
CGA:  14    -0.122390241307E+04   -0.17376E+02   -0.48867E+02 10640   0.717E+03-0.809E+03
CGA:  15    -0.123769575989E+04   -0.13793E+02   -0.25446E+02 10640   0.300E+03-0.356E+03
CGA:  16    -0.125009534492E+04   -0.12400E+02   -0.82169E+01 10640   0.535E+02 0.659E+02
CGA:  17    -0.125476538629E+04   -0.46700E+01   -0.46002E+01 10640   0.142E+03-0.462E+00
CGA:  18    -0.126880393561E+04   -0.14039E+02   -0.14080E+02 10640   0.156E+03 0.271E+01
CGA:  19    -0.127128128223E+04   -0.24773E+01   -0.52238E+01 10640   0.905E+02-0.753E+02
CGA:  20    -0.127203478472E+04   -0.75350E+00   -0.68130E+00 10640   0.444E+02 0.220E+00
CGA:  21    -0.127251115073E+04   -0.47637E+00   -0.87160E+00 10640   0.399E+02-0.211E+02
CGA:  22    -0.127281415339E+04   -0.30300E+00   -0.44657E+00 10640   0.500E+02-0.696E+01
CGA:  23    -0.127356971497E+04   -0.75556E+00   -0.15305E+01 10640   0.702E+02-0.133E+02
CGA:  24    -0.127526622919E+04   -0.16965E+01   -0.15302E+01 10640   0.450E+02 0.237E+01
CGA:  25    -0.127645537966E+04   -0.11892E+01   -0.13954E+01 10640   0.199E+02-0.754E+01
CGA:  26    -0.127709460837E+04   -0.63923E+00   -0.76853E+00 10640   0.165E+02-0.210E+01
CGA:  27    -0.127794493146E+04   -0.85032E+00   -0.88003E+00 10640   0.155E+02-0.649E+00
CGA:  28    -0.127919729234E+04   -0.12524E+01   -0.12551E+01 10640   0.102E+02-0.426E+00
CGA:  29    -0.127985327859E+04   -0.65599E+00   -0.67141E+00 10640   0.655E+01-0.353E+00
CGA:  30    -0.128074277600E+04   -0.88950E+00   -0.87953E+00 10640   0.571E+01 0.216E-01
CGA:  31    -0.128164030477E+04   -0.89753E+00   -0.91189E+00 10640   0.335E+01-0.324E+00
CGA:  32    -0.128201844955E+04   -0.37814E+00   -0.37551E+00 10640   0.193E+01-0.586E-01
CGA:  33    -0.128246334448E+04   -0.44489E+00   -0.45763E+00 10640   0.129E+01-0.886E-01
CGA:  34    -0.128273966729E+04   -0.27632E+00   -0.32048E+00 10640   0.106E+01-0.281E+00
CGA:  35    -0.128291716418E+04   -0.17750E+00   -0.19568E+00 10640   0.539E+00-0.153E+00
CGA:  36    -0.128304284989E+04   -0.12569E+00   -0.14377E+00 10640   0.490E+00-0.895E-01
CGA:  37    -0.128311767551E+04   -0.74826E-01   -0.76554E-01 10640   0.190E+00-0.309E-01
CGA:  38    -0.128317472669E+04   -0.57051E-01   -0.58773E-01 10640   0.159E+00-0.716E-02
CGA:  39    -0.128320659074E+04   -0.31864E-01   -0.31351E-01 10640   0.529E-01 0.908E-02
CGA:  40    -0.128322039290E+04   -0.13802E-01   -0.12573E-01 10640   0.397E-01 0.160E-01
CGA:  41    -0.128323078772E+04   -0.10395E-01   -0.96528E-02 10640   0.162E-01 0.212E-01
CGA:  42    -0.128323389903E+04   -0.31113E-02   -0.28918E-02 10640   0.935E-02 0.878E-02
CGA:  43    -0.128323554113E+04   -0.16421E-02   -0.15590E-02 10640   0.661E-02 0.668E-02
CGA:  44    -0.128323659959E+04   -0.10585E-02   -0.10426E-02 10640   0.513E-02 0.541E-02
CGA:  45    -0.128323727890E+04   -0.67931E-03   -0.73419E-03 10640   0.428E-02 0.457E-02
CGA:  46    -0.128323776837E+04   -0.48947E-03   -0.57181E-03 10640   0.372E-02 0.395E-02
CGA:  47    -0.128323813405E+04   -0.36567E-03   -0.46534E-03 10640   0.332E-02 0.350E-02
CGA:  48    -0.128323842153E+04   -0.28748E-03   -0.39372E-03 10640   0.302E-02 0.316E-02
CGA:  49    -0.128323865506E+04   -0.23353E-03   -0.34136E-03 10640   0.278E-02 0.289E-02
CGA:  50    -0.128323885020E+04   -0.19514E-03   -0.30160E-03 10640   0.258E-02 0.267E-02
CGA:  51    -0.128323901698E+04   -0.16678E-03   -0.27029E-03 10640   0.241E-02 0.249E-02
CGA:  52    -0.128323916232E+04   -0.14534E-03   -0.24502E-03 10640   0.227E-02 0.233E-02
CGA:  53    -0.128323929114E+04   -0.12882E-03   -0.22419E-03 10640   0.214E-02 0.220E-02
CGA:  54    -0.128323940704E+04   -0.11590E-03   -0.20674E-03 10640   0.203E-02 0.208E-02
CGA:  55    -0.128323951270E+04   -0.10566E-03   -0.19192E-03 10640   0.194E-02 0.198E-02
CGA:  56    -0.128323961015E+04   -0.97450E-04   -0.17918E-03 10640   0.185E-02 0.189E-02
CGA:  57    -0.128323970098E+04   -0.90831E-04   -0.16812E-03 10640   0.177E-02 0.181E-02
CGA:  58    -0.128323978644E+04   -0.85460E-04   -0.15845E-03 10640   0.170E-02 0.173E-02
CGA:  59    -0.128323986751E+04   -0.81072E-04   -0.14993E-03 10640   0.164E-02 0.167E-02
CGA:  60    -0.128323994499E+04   -0.77481E-04   -0.14236E-03 10640   0.158E-02 0.161E-02
CGA:  61    -0.128324001953E+04   -0.74532E-04   -0.13562E-03 10640   0.152E-02 0.155E-02
CGA:  62    -0.128324009163E+04   -0.72107E-04   -0.12957E-03 10640   0.147E-02 0.150E-02
CGA:  63    -0.128324016174E+04   -0.70111E-04   -0.12412E-03 10640   0.143E-02 0.145E-02
CGA:  64    -0.128324023021E+04   -0.68467E-04   -0.11919E-03 10640   0.138E-02 0.140E-02
CGA:  65    -0.128324029732E+04   -0.67112E-04   -0.11471E-03 10640   0.134E-02 0.136E-02
CGA:  66    -0.128324036333E+04   -0.66004E-04   -0.11063E-03 10640   0.131E-02 0.132E-02
CGA:  67    -0.128324042842E+04   -0.65099E-04   -0.10689E-03 10640   0.127E-02 0.129E-02
CGA:  68    -0.128324049279E+04   -0.64370E-04   -0.10347E-03 10640   0.124E-02 0.125E-02
CGA:  69    -0.128324055658E+04   -0.63786E-04   -0.10032E-03 10640   0.120E-02 0.122E-02
CGA:  70    -0.128324061991E+04   -0.63328E-04   -0.97412E-04 10640   0.117E-02 0.119E-02
CGA:  71    -0.128324068289E+04   -0.62979E-04   -0.94730E-04 10640   0.114E-02 0.116E-02
CGA:  72    -0.128324074561E+04   -0.62723E-04   -0.92247E-04 10640   0.112E-02 0.113E-02
CGA:  73    -0.128324080816E+04   -0.62551E-04   -0.89947E-04 10640   0.109E-02 0.110E-02
CGA:  74    -0.128324087063E+04   -0.62464E-04   -0.87821E-04 10640   0.106E-02 0.107E-02
CGA:  75    -0.128324093308E+04   -0.62451E-04   -0.85852E-04 10640   0.104E-02 0.105E-02
CGA:  76    -0.128324099558E+04   -0.62505E-04   -0.84027E-04 10640   0.101E-02 0.102E-02
CGA:  77    -0.128324105820E+04   -0.62618E-04   -0.82336E-04 10640   0.990E-03 0.100E-02
CGA:  78    -0.128324112099E+04   -0.62789E-04   -0.80770E-04 10640   0.967E-03 0.978E-03
CGA:  79    -0.128324118400E+04   -0.63016E-04   -0.79322E-04 10640   0.945E-03 0.956E-03
CGA:  80    -0.128324124730E+04   -0.63297E-04   -0.77984E-04 10640   0.924E-03 0.934E-03
CGA:  81    -0.128324131093E+04   -0.63632E-04   -0.76753E-04 10640   0.903E-03 0.913E-03
CGA:  82    -0.128324137496E+04   -0.64022E-04   -0.75623E-04 10640   0.883E-03 0.893E-03
CGA:  83    -0.128324143942E+04   -0.64466E-04   -0.74589E-04 10640   0.863E-03 0.873E-03
CGA:  84    -0.128324150439E+04   -0.64966E-04   -0.73648E-04 10640   0.844E-03 0.854E-03
CGA:  85    -0.128324156991E+04   -0.65521E-04   -0.72796E-04 10640   0.825E-03 0.834E-03
CGA:  86    -0.128324163605E+04   -0.66141E-04   -0.72035E-04 10640   0.807E-03 0.816E-03
CGA:  87    -0.128324170287E+04   -0.66824E-04   -0.71359E-04 10640   0.788E-03 0.797E-03
CGA:  88    -0.128324177045E+04   -0.67577E-04   -0.70770E-04 10640   0.770E-03 0.779E-03
CGA:  89    -0.128324183885E+04   -0.68400E-04   -0.70265E-04 10640   0.753E-03 0.761E-03
CGA:  90    -0.128324190815E+04   -0.69298E-04   -0.69845E-04 10640   0.735E-03 0.744E-03
CGA:  91    -0.128324197843E+04   -0.70278E-04   -0.69508E-04 10640   0.718E-03 0.726E-03
CGA:  92    -0.128324204977E+04   -0.71344E-04   -0.69258E-04 10640   0.701E-03 0.709E-03
CGA:  93    -0.128324212228E+04   -0.72505E-04   -0.69094E-04 10640   0.684E-03 0.692E-03
CGA:  94    -0.128324219605E+04   -0.73770E-04   -0.69021E-04 10640   0.667E-03 0.675E-03
CGA:  95    -0.128324227119E+04   -0.75148E-04   -0.69041E-04 10640   0.650E-03 0.658E-03
CGA:  96    -0.128324234784E+04   -0.76650E-04   -0.69157E-04 10640   0.633E-03 0.641E-03
CGA:  97    -0.128324242613E+04   -0.78287E-04   -0.69374E-04 10640   0.616E-03 0.625E-03
CGA:  98    -0.128324250621E+04   -0.80078E-04   -0.69700E-04 10640   0.600E-03 0.608E-03
CGA:  99    -0.128324258825E+04   -0.82039E-04   -0.70141E-04 10640   0.583E-03 0.591E-03
CGA: 100    -0.128324267244E+04   -0.84192E-04   -0.70709E-04 10640   0.566E-03 0.574E-03
CGA: 101    -0.128324275900E+04   -0.86558E-04   -0.71411E-04 10640   0.549E-03 0.557E-03
CGA: 102    -0.128324284815E+04   -0.89156E-04   -0.72256E-04 10640   0.532E-03 0.540E-03
CGA: 103    -0.128324294018E+04   -0.92026E-04   -0.73264E-04 10640   0.515E-03 0.523E-03
CGA: 104    -0.128324303540E+04   -0.95216E-04   -0.74457E-04 10640   0.497E-03 0.506E-03
CGA: 105    -0.128324313415E+04   -0.98754E-04   -0.75850E-04 10640   0.479E-03 0.488E-03
CGA: 106    -0.128324323690E+04   -0.10275E-03   -0.77493E-04 10640   0.461E-03 0.470E-03
CGA: 107    -0.128324334414E+04   -0.10724E-03   -0.79412E-04 10640   0.443E-03 0.452E-03
CGA: 108    -0.128324345647E+04   -0.11233E-03   -0.81653E-04 10640   0.424E-03 0.433E-03
CGA: 109    -0.128324357461E+04   -0.11814E-03   -0.84276E-04 10640   0.404E-03 0.414E-03
CGA: 110    -0.128324369945E+04   -0.12484E-03   -0.87367E-04 10640   0.384E-03 0.394E-03
CGA: 111    -0.128324383208E+04   -0.13263E-03   -0.91032E-04 10640   0.363E-03 0.374E-03
CGA: 112    -0.128324397389E+04   -0.14181E-03   -0.95416E-04 10640   0.342E-03 0.352E-03
CGA: 113    -0.128324412671E+04   -0.15283E-03   -0.10076E-03 10640   0.319E-03 0.330E-03
CGA: 114    -0.128324429297E+04   -0.16626E-03   -0.10735E-03 10640   0.295E-03 0.306E-03
CGA: 115    -0.128324447601E+04   -0.18304E-03   -0.11568E-03 10640   0.269E-03 0.281E-03
CGA: 116    -0.128324468084E+04   -0.20483E-03   -0.12664E-03 10640   0.241E-03 0.254E-03
CGA: 117    -0.128324491412E+04   -0.23328E-03   -0.14115E-03 10640   0.210E-03 0.225E-03
CGA: 118    -0.128324519438E+04   -0.28026E-03   -0.16576E-03 10640   0.175E-03 0.191E-03
CGA: 119    -0.128324543980E+04   -0.24542E-03   -0.15151E-03 10640   0.249E-03 0.145E-03
CGA: 120    -0.128324550331E+04   -0.63508E-04   -0.62909E-04 10640   0.462E-03-0.543E-04
CGA: 121    -0.128324601089E+04   -0.50758E-03   -0.35901E-03 10640   0.139E-02 0.178E-03
CGA: 122    -0.128324638697E+04   -0.37608E-03   -0.38400E-03 10640   0.419E-03 0.669E-04
CGA: 123    -0.128324654988E+04   -0.16291E-03   -0.19776E-03 10640   0.120E-02-0.245E-03
CGA: 124    -0.128324662269E+04   -0.72816E-04   -0.10404E-03 10640   0.519E-04 0.147E-03
CGA: 125    -0.128324662587E+04   -0.31781E-05   -0.65618E-05 10640   0.210E-04 0.188E-04
CGA: 126    -0.128324663636E+04   -0.10491E-04   -0.10991E-04 10640   0.739E-04-0.532E-05
CGA: 127    -0.128324664607E+04   -0.97142E-05   -0.10476E-04 10640   0.187E-03 0.518E-05
CGA: 128    -0.128324668990E+04   -0.43829E-04   -0.46679E-04 10640   0.237E-03 0.430E-04
CGA: 129    -0.128324675125E+04   -0.61350E-04   -0.62483E-04 10640   0.132E-03-0.629E-05
CGA: 130    -0.128324678688E+04   -0.35623E-04   -0.39221E-04 10640   0.155E-03-0.139E-03
CGA: 131    -0.128324679338E+04   -0.65013E-05   -0.15311E-04 10640   0.360E-04 0.492E-04
   1 F= -.12832468E+04 E0= -.12832468E+04  d E =-.128325E+04  mag=    47.0000
       N       E                     dE             d eps       ncg     rms          ort
SDA:   1    -0.128324683806E+04   -0.51184E-04    0.00000E+00 10640   0.287E-02 0.000E+00
CGA:   2    -0.128324717580E+04   -0.33773E-03   -0.36645E-03 10640   0.981E-03 0.217E-03
CGA:   3    -0.128324745734E+04   -0.28154E-03   -0.28281E-03 10640   0.419E-03-0.109E-03
CGA:   4    -0.128324750415E+04   -0.46815E-04   -0.53200E-04 10640   0.634E-04 0.561E-04
CGA:   5    -0.128324751490E+04   -0.10753E-04   -0.11604E-04 10640   0.159E-04 0.947E-05
CGA:   6    -0.128324751676E+04   -0.18572E-05   -0.25543E-05 10640   0.633E-05 0.650E-05
   2 F= -.12832475E+04 E0= -.12832475E+04  d E =-.723383E-03  mag=    47.0000
       N       E                     dE             d eps       ncg     rms          ort
SDA:   1    -0.128324649295E+04    0.10220E-02    0.00000E+00 10640   0.658E-02 0.000E+00
CGA:   2    -0.128324812443E+04   -0.16315E-02   -0.16339E-02 10640   0.307E-02-0.145E-03
CGA:   3    -0.128324877147E+04   -0.64704E-03   -0.64766E-03 10640   0.584E-03 0.363E-04
CGA:   4    -0.128324888677E+04   -0.11530E-03   -0.11169E-03 10640   0.161E-03-0.841E-04
CGA:   5    -0.128324889482E+04   -0.80506E-05   -0.14495E-04 10640   0.420E-04 0.519E-04
   3 F= -.12832489E+04 E0= -.12832489E+04  d E =-.137806E-02  mag=    47.0000
       N       E                     dE             d eps       ncg     rms          ort
SDA:   1    -0.127506975150E+04    0.81791E+01    0.00000E+00 10640   0.216E+02 0.000E+00
CGA:   2    -0.128074937915E+04   -0.56796E+01   -0.56801E+01 10640   0.101E+02-0.517E-02
CGA:   3    -0.128278017282E+04   -0.20308E+01   -0.20301E+01 10640   0.221E+01-0.139E-01
CGA:   4    -0.128311090265E+04   -0.33073E+00   -0.33103E+00 10640   0.490E+00 0.514E-02
CGA:   5    -0.128319902273E+04   -0.88120E-01   -0.88077E-01 10640   0.127E+00-0.117E-02
CGA:   6    -0.128322282734E+04   -0.23805E-01   -0.23844E-01 10640   0.355E-01 0.185E-02
CGA:   7    -0.128323180170E+04   -0.89744E-02   -0.91179E-02 10640   0.144E-01-0.346E-02
CGA:   8    -0.128323427591E+04   -0.24742E-02   -0.24854E-02 10640   0.640E-02 0.520E-03
CGA:   9    -0.128323617903E+04   -0.19031E-02   -0.19709E-02 10640   0.395E-02-0.798E-03
CGA:  10    -0.128323714460E+04   -0.96557E-03   -0.10376E-02 10640   0.340E-02-0.858E-03
CGA:  11    -0.128323777345E+04   -0.62886E-03   -0.64167E-03 10640   0.179E-02-0.638E-03
CGA:  12    -0.128323824644E+04   -0.47299E-03   -0.50699E-03 10640   0.147E-02-0.269E-03
CGA:  13    -0.128323837970E+04   -0.13326E-03   -0.82108E-03 10640   0.823E-02-0.161E-02
CGA:  14    -0.128323905585E+04   -0.67615E-03   -0.80784E-03 10640   0.114E-02 0.921E-03
CGA:  15    -0.128323931014E+04   -0.25430E-03   -0.26549E-03 10640   0.581E-03 0.347E-03
CGA:  16    -0.128323951582E+04   -0.20568E-03   -0.21980E-03 10640   0.864E-03-0.287E-03
CGA:  17    -0.128323953114E+04   -0.15325E-04   -0.35428E-04 10640   0.711E-03 0.124E-03
CGA:  18    -0.128323953998E+04   -0.88345E-05   -0.55788E-04 10640   0.358E-03 0.283E-03
CGA:  19    -0.128323954478E+04   -0.47968E-05   -0.40164E-04 10640   0.313E-03 0.241E-03
CGA:  20    -0.128323956868E+04   -0.23901E-04   -0.16239E-03 10640   0.245E-02-0.462E-03
CGA:  21    -0.128323970909E+04   -0.14041E-03   -0.19156E-03 10640   0.978E-04 0.336E-03
CGA:  22    -0.128323970602E+04    0.30673E-05   -0.74460E-05 10640   0.610E-04 0.659E-04
CGA:  23    -0.128323972309E+04   -0.17070E-04   -0.15325E-04 10640   0.523E-04 0.530E-04
CGA:  24    -0.128323974720E+04   -0.24104E-04    0.12469E-03 10640   0.495E-04 0.483E-04
CGA:  25    -0.128323976096E+04   -0.13767E-04   -0.12403E-04 10640   0.483E-04 0.449E-04
CGA:  26    -0.128323978258E+04   -0.21612E-04    0.67706E-03 10640   0.481E-04 0.408E-04
CGA:  27    -0.128323979802E+04   -0.15446E-04   -0.13513E-04 10640   0.600E-04 0.327E-04
CGA:  28    -0.128323981233E+04   -0.14304E-04   -0.14193E-04 10640   0.874E-04 0.951E-05
CGA:  29    -0.128324004126E+04   -0.22893E-03   -0.12078E-03 10640   0.133E-03 0.501E-04
CGA:  30    -0.128324002782E+04    0.13438E-04   -0.82519E-05 10640   0.351E-04 0.625E-04
CGA:  31    -0.128324001936E+04    0.84609E-05   -0.22041E-05 10640   0.183E-04 0.305E-04
   4 F= -.12832400E+04 E0= -.12832400E+04  d E =0.887546E-02  mag=    47.0000
       N       E                     dE             d eps       ncg     rms          ort
SDA:   1    -0.127970278470E+04    0.35372E+01    0.00000E+00 10640   0.115E+02 0.000E+00
CGA:   2    -0.128198175172E+04   -0.22790E+01   -0.22788E+01 10640   0.434E+01-0.122E-02
CGA:   3    -0.128305664496E+04   -0.10749E+01   -0.10758E+01 10640   0.113E+01 0.624E-02
CGA:   4    -0.128323327776E+04   -0.17663E+00   -0.17731E+00 10640   0.178E+00 0.390E-02
CGA:   5    -0.128326950890E+04   -0.36231E-01   -0.36176E-01 10640   0.506E-01-0.401E-03
CGA:   6    -0.128327824996E+04   -0.87411E-02   -0.89141E-02 10640   0.171E-01 0.123E-02
CGA:   7    -0.128328182985E+04   -0.35799E-02   -0.34904E-02 10640   0.510E-02-0.707E-03
CGA:   8    -0.128328286826E+04   -0.10384E-02   -0.10364E-02 10640   0.205E-02-0.119E-04
CGA:   9    -0.128328338806E+04   -0.51980E-03   -0.51595E-03 10640   0.106E-02-0.601E-04
CGA:  10    -0.128328357959E+04   -0.19153E-03   -0.21001E-03 10640   0.380E-03 0.175E-03
CGA:  11    -0.128328369517E+04   -0.11558E-03   -0.11868E-03 10640   0.173E-03 0.852E-04
CGA:  12    -0.128328374354E+04   -0.48369E-04   -0.51942E-04 10640   0.107E-03 0.612E-04
CGA:  13    -0.128328310298E+04    0.64056E-03   -0.34654E-03 10640   0.495E-02-0.560E-03
CGA:  14    -0.128328357606E+04   -0.47308E-03   -0.59600E-03 10640   0.103E-02 0.312E-03
CGA:  15    -0.128328384036E+04   -0.26430E-03   -0.26904E-03 10640   0.299E-03 0.175E-04
CGA:  16    -0.128328392685E+04   -0.86490E-04   -0.79484E-04 10640   0.262E-03-0.275E-04
CGA:  17    -0.128328399771E+04   -0.70868E-04   -0.61995E-04 10640   0.822E-04-0.369E-04
CGA:  18    -0.128328398463E+04    0.13085E-04   -0.79589E-04 10640   0.615E-03-0.145E-03
CGA:  19    -0.128328405806E+04   -0.73432E-04   -0.87628E-04 10640   0.112E-03 0.391E-04
CGA:  20    -0.128328408406E+04   -0.25997E-04   -0.28142E-04 10640   0.411E-04 0.821E-05
CGA:  21    -0.128328409904E+04   -0.14978E-04   -0.13768E-04 10640   0.348E-04-0.684E-05
CGA:  22    -0.128328410631E+04   -0.72748E-05   -0.76569E-05 10640   0.204E-04 0.177E-05
CGA:  23    -0.128328412908E+04   -0.22771E-04    0.37769E-04 10640   0.666E-04-0.214E-04
CGA:  24    -0.128328412807E+04    0.10131E-05   -0.60623E-05 10640   0.105E-04 0.190E-04
   5 F= -.12832841E+04 E0= -.12832841E+04  d E =-.441087E-01  mag=    47.0000
       N       E                     dE             d eps       ncg     rms          ort
SDA:   1    -0.128297905032E+04    0.30508E+00    0.00000E+00 10640   0.105E+01 0.000E+00
CGA:   2    -0.128317857563E+04   -0.19953E+00   -0.19963E+00 10640   0.375E+00 0.591E-03
CGA:   3    -0.128327463186E+04   -0.96056E-01   -0.95928E-01 10640   0.109E+00-0.955E-03
CGA:   4    -0.128329162986E+04   -0.16998E-01   -0.16713E-01 10640   0.171E-01-0.108E-02
CGA:   5    -0.128329474602E+04   -0.31162E-02   -0.31324E-02 10640   0.529E-02 0.940E-04
CGA:   6    -0.128329579299E+04   -0.10470E-02   -0.98646E-03 10640   0.184E-02-0.292E-03
CGA:   7    -0.128329608270E+04   -0.28971E-03   -0.31277E-03 10640   0.376E-03 0.118E-03
CGA:   8    -0.128329617317E+04   -0.90472E-04   -0.93636E-04 10640   0.134E-03 0.237E-04
CGA:   9    -0.128329621003E+04   -0.36860E-04   -0.37732E-04 10640   0.703E-04 0.922E-05
CGA:  10    -0.128329628314E+04   -0.73113E-04    0.36830E-04 10640   0.100E-03-0.336E-04
CGA:  11    -0.128329630143E+04   -0.18290E-04   -0.19102E-04 10640   0.148E-03-0.112E-03
CGA:  12    -0.128329633890E+04   -0.37471E-04   -0.30643E-04 10640   0.133E-03-0.451E-04
CGA:  13    -0.128329633714E+04    0.17593E-05   -0.87964E-05 10640   0.549E-04 0.415E-04
   6 F= -.12832963E+04 E0= -.12832963E+04  d E =-.122091E-01  mag=    47.0000
       N       E                     dE             d eps       ncg     rms          ort
SDA:   1    -0.128326939018E+04    0.26949E-01    0.00000E+00 10640   0.862E-01 0.000E+00
CGA:   2    -0.128328710185E+04   -0.17712E-01   -0.17735E-01 10640   0.359E-01 0.225E-03
CGA:   3    -0.128329527086E+04   -0.81690E-02   -0.81476E-02 10640   0.116E-01-0.229E-03
CGA:   4    -0.128329711987E+04   -0.18490E-02   -0.17096E-02 10640   0.227E-02-0.842E-03
CGA:   5    -0.128329745950E+04   -0.33963E-03   -0.34767E-03 10640   0.488E-03 0.607E-04
CGA:   6    -0.128329758592E+04   -0.12642E-03   -0.12180E-03 10640   0.200E-03-0.850E-04
CGA:   7    -0.128329760755E+04   -0.21627E-04   -0.25553E-04 10640   0.512E-04 0.282E-04
CGA:   8    -0.128329762069E+04   -0.13142E-04   -0.13011E-04 10640   0.203E-04-0.200E-05
CGA:   9    -0.128329763321E+04   -0.12521E-04    0.21785E-04 10640   0.123E-04-0.246E-06
CGA:  10    -0.128329764518E+04   -0.11969E-04    0.23678E-05 10640   0.117E-04-0.175E-05
CGA:  11    -0.128329766769E+04   -0.22507E-04    0.48577E-06 10640   0.111E-04-0.436E-05
CGA:  12    -0.128329768181E+04   -0.14126E-04    0.38386E-06 10640   0.861E-05-0.157E-05
CGA:  13    -0.128329769335E+04   -0.11537E-04    0.60116E-06 10640   0.582E-05 0.773E-06
CGA:  14    -0.128329769812E+04   -0.47703E-05    0.27851E-05 10640   0.605E-05 0.991E-06
   7 F= -.12832977E+04 E0= -.12832977E+04  d E =-.136098E-02  mag=    47.0000
       N       E                     dE             d eps       ncg     rms          ort
SDA:   1    -0.128299888719E+04    0.29881E+00    0.00000E+00 10640   0.824E+00 0.000E+00
CGA:   2    -0.128319750228E+04   -0.19862E+00   -0.19867E+00 10640   0.368E+00 0.182E-02
CGA:   3    -0.128328105726E+04   -0.83555E-01   -0.83454E-01 10640   0.693E-01-0.228E-02
CGA:   4    -0.128329269785E+04   -0.11641E-01   -0.11597E-01 10640   0.135E-01-0.407E-03
CGA:   5    -0.128329557016E+04   -0.28723E-02   -0.28369E-02 10640   0.344E-02-0.657E-03
CGA:   6    -0.128329613628E+04   -0.56612E-03   -0.58500E-03 10640   0.115E-02 0.228E-03
CGA:   7    -0.128329641257E+04   -0.27629E-03   -0.26817E-03 10640   0.507E-03-0.199E-03
CGA:   8    -0.128329647937E+04   -0.66796E-04   -0.71151E-04 10640   0.166E-03 0.506E-04
CGA:   9    -0.128329652986E+04   -0.50495E-04   -0.97049E-04 10640   0.372E-03-0.167E-03
CGA:  10    -0.128329662753E+04   -0.97667E-04   -0.96476E-04 10640   0.213E-03-0.176E-03
CGA:  11    -0.128329663379E+04   -0.62602E-05   -0.11443E-04 10640   0.873E-04 0.319E-04
   8 F= -.12832966E+04 E0= -.12832966E+04  d E =0.106433E-02  mag=    47.0000
       N       E                     dE             d eps       ncg     rms          ort
SDA:   1    -0.128303349590E+04    0.26313E+00    0.00000E+00 10640   0.667E+00 0.000E+00
CGA:   2    -0.128321261036E+04   -0.17911E+00   -0.17909E+00 10640   0.319E+00 0.117E-02
CGA:   3    -0.128327924617E+04   -0.66636E-01   -0.66590E-01 10640   0.588E-01-0.118E-02
CGA:   4    -0.128328850959E+04   -0.92634E-02   -0.92174E-02 10640   0.133E-01-0.458E-03
CGA:   5    -0.128329085478E+04   -0.23452E-02   -0.23523E-02 10640   0.347E-02 0.124E-03
CGA:   6    -0.128329156368E+04   -0.70889E-03   -0.69820E-03 10640   0.131E-02-0.259E-03
CGA:   7    -0.128329174922E+04   -0.18554E-03   -0.19808E-03 10640   0.309E-03 0.170E-03
CGA:   8    -0.128329184833E+04   -0.99104E-04   -0.10269E-03 10640   0.201E-03-0.603E-04
CGA:   9    -0.128329188406E+04   -0.35737E-04   -0.36058E-04 10640   0.997E-04 0.218E-04
CGA:  10    -0.128329191794E+04   -0.33874E-04   -0.48135E-04 10640   0.173E-03-0.719E-04
CGA:  11    -0.128329195036E+04   -0.32417E-04   -0.31496E-04 10640   0.576E-04-0.141E-04
CGA:  12    -0.128329195295E+04   -0.25944E-05   -0.54126E-05 10640   0.186E-04 0.200E-04
   9 F= -.12832920E+04 E0= -.12832919E+04  d E =0.468084E-02  mag=    47.0000
       N       E                     dE             d eps       ncg     rms          ort
SDA:   1    -0.127839121330E+04    0.49007E+01    0.00000E+00 10640   0.125E+02 0.000E+00
CGA:   2    -0.128177923999E+04   -0.33880E+01   -0.33881E+01 10640   0.596E+01-0.282E-02
CGA:   3    -0.128303039924E+04   -0.12512E+01   -0.12512E+01 10640   0.103E+01-0.968E-03
CGA:   4    -0.128319133359E+04   -0.16093E+00   -0.16114E+00 10640   0.244E+00 0.354E-02
CGA:   5    -0.128323452234E+04   -0.43189E-01   -0.43088E-01 10640   0.680E-01-0.185E-02
CGA:   6    -0.128324662274E+04   -0.12100E-01   -0.12136E-01 10640   0.193E-01 0.866E-03
CGA:   7    -0.128325130813E+04   -0.46854E-02   -0.47079E-02 10640   0.596E-02-0.133E-02
CGA:   8    -0.128325243405E+04   -0.11259E-02   -0.11316E-02 10640   0.266E-02 0.280E-03
CGA:   9    -0.128325319918E+04   -0.76513E-03   -0.81292E-03 10640   0.215E-02-0.700E-03
CGA:  10    -0.128325348452E+04   -0.28534E-03   -0.28592E-03 10640   0.795E-03 0.149E-04
CGA:  11    -0.128325371958E+04   -0.23506E-03   -0.24592E-03 10640   0.421E-03-0.133E-03
CGA:  12    -0.128325377587E+04   -0.56289E-04   -0.15742E-03 10640   0.164E-02-0.461E-03
CGA:  13    -0.128325387337E+04   -0.97492E-04   -0.14098E-03 10640   0.206E-03 0.288E-03
CGA:  14    -0.128325390082E+04   -0.27459E-04   -0.35937E-04 10640   0.151E-03 0.101E-03
CGA:  15    -0.128325396040E+04   -0.59575E-04   -0.61343E-04 10640   0.143E-03-0.405E-04
CGA:  16    -0.128325397314E+04   -0.12737E-04   -0.15887E-04 10640   0.137E-03 0.398E-04
CGA:  17    -0.128325399152E+04   -0.18385E-04   -0.25594E-04 10640   0.120E-03 0.892E-04
CGA:  18    -0.128325402648E+04   -0.34960E-04   -0.45704E-04 10640   0.330E-03-0.675E-04
CGA:  19    -0.128325404287E+04   -0.16390E-04   -0.25880E-04 10640   0.306E-04 0.632E-04
CGA:  20    -0.128325404554E+04   -0.26665E-05   -0.43710E-05 10640   0.319E-04 0.165E-04
CGA:  21    -0.128325406059E+04   -0.15051E-04    0.40262E-04 10640   0.388E-04 0.117E-04
CGA:  22    -0.128325409259E+04   -0.32000E-04   -0.22641E-04 10640   0.208E-04 0.439E-04
CGA:  23    -0.128325410686E+04   -0.14271E-04   -0.10206E-05 10640   0.427E-03-0.164E-04
CGA:  24    -0.128325414253E+04   -0.35669E-04   -0.42164E-04 10640   0.200E-04 0.214E-04
CGA:  25    -0.128325414154E+04    0.98679E-06   -0.26670E-05 10640   0.148E-04 0.134E-04
CGA:  26    -0.128325415618E+04   -0.14638E-04    0.10350E-04 10640   0.201E-04 0.868E-05
CGA:  27    -0.128325415500E+04    0.11781E-05   -0.20957E-05 10640   0.114E-04 0.116E-04
  10 F= -.12832542E+04 E0= -.12832542E+04  d E =0.377979E-01  mag=    47.0000
       N       E                     dE             d eps       ncg     rms          ort
SDA:   1    -0.126850632562E+04    0.14748E+02    0.00000E+00 10640   0.376E+02 0.000E+00
CGA:   2    -0.127867999620E+04   -0.10174E+02   -0.10176E+02 10640   0.182E+02 0.156E-02
CGA:   3    -0.128244987596E+04   -0.37699E+01   -0.37659E+01 10640   0.342E+01 0.618E-02
CGA:   4    -0.128295913855E+04   -0.50926E+00   -0.51000E+00 10640   0.807E+00-0.107E-01
CGA:   5    -0.128309997161E+04   -0.14083E+00   -0.14081E+00 10640   0.205E+00 0.268E-02
CGA:   6    -0.128314052940E+04   -0.40558E-01   -0.40314E-01 10640   0.598E-01-0.130E-02
CGA:   7    -0.128315381062E+04   -0.13281E-01   -0.13202E-01 10640   0.182E-01-0.599E-03
CGA:   8    -0.128315774587E+04   -0.39352E-02   -0.38243E-02 10640   0.945E-02-0.817E-03
CGA:   9    -0.128315990533E+04   -0.21595E-02   -0.21029E-02 10640   0.423E-02-0.536E-03
CGA:  10    -0.128316128757E+04   -0.13822E-02   -0.14215E-02 10640   0.423E-02-0.160E-02
CGA:  11    -0.128316178969E+04   -0.50213E-03   -0.41455E-03 10640   0.139E-02-0.497E-03
CGA:  12    -0.128316215014E+04   -0.36045E-03   -0.35232E-03 10640   0.105E-02-0.219E-03
CGA:  13    -0.128316235963E+04   -0.20948E-03   -0.17139E-03 10640   0.893E-03-0.298E-03
CGA:  14    -0.128316259305E+04   -0.23342E-03   -0.26847E-03 10640   0.963E-03-0.342E-03
CGA:  15    -0.128316271069E+04   -0.11764E-03   -0.12190E-03 10640   0.789E-03 0.320E-04
CGA:  16    -0.128316295197E+04   -0.24128E-03   -0.24002E-03 10640   0.644E-03-0.673E-04
CGA:  17    -0.128316307786E+04   -0.12590E-03   -0.11763E-03 10640   0.354E-03-0.762E-04
CGA:  18    -0.128316312667E+04   -0.48806E-04   -0.63196E-04 10640   0.218E-03 0.133E-03
CGA:  19    -0.128316313764E+04   -0.10975E-04   -0.36411E-04 10640   0.938E-04 0.139E-03
CGA:  20    -0.128316315025E+04   -0.12605E-04   -0.18157E-04 10640   0.505E-04 0.550E-04
CGA:  21    -0.128316315256E+04   -0.23072E-05   -0.74129E-05 10640   0.354E-04 0.358E-04
  11 F= -.12831632E+04 E0= -.12831631E+04  d E =0.910024E-01  mag=    47.0000
       N       E                     dE             d eps       ncg     rms          ort
SDA:   1    -0.126722973253E+04    0.15933E+02    0.00000E+00 10640   0.508E+02 0.000E+00
CGA:   2    -0.127708181960E+04   -0.98521E+01   -0.98392E+01 10640   0.196E+02 0.252E-01
CGA:   3    -0.128174072370E+04   -0.46589E+01   -0.46647E+01 10640   0.661E+01 0.726E-01
CGA:   4    -0.128267974748E+04   -0.93902E+00   -0.92694E+00 10640   0.102E+01 0.927E-01
CGA:   5    -0.128286767138E+04   -0.18792E+00   -0.18815E+00 10640   0.291E+00-0.706E-03
CGA:   6    -0.128292288691E+04   -0.55216E-01   -0.55394E-01 10640   0.834E-01 0.354E-02
CGA:   7    -0.128294197484E+04   -0.19088E-01   -0.19011E-01 10640   0.267E-01-0.265E-02
CGA:   8    -0.128294694070E+04   -0.49659E-02   -0.49750E-02 10640   0.105E-01 0.237E-03
CGA:   9    -0.128294981752E+04   -0.28768E-02   -0.29106E-02 10640   0.679E-02-0.127E-02
CGA:  10    -0.128295084209E+04   -0.10246E-02   -0.10870E-02 10640   0.256E-02 0.929E-03
CGA:  11    -0.128295171011E+04   -0.86802E-03   -0.85460E-03 10640   0.119E-02 0.290E-03
CGA:  12    -0.128295215532E+04   -0.44521E-03   -0.44218E-03 10640   0.129E-02 0.335E-04
CGA:  13    -0.128295237688E+04   -0.22157E-03   -0.24427E-03 10640   0.739E-03 0.322E-03
CGA:  14    -0.128295269376E+04   -0.31688E-03   -0.30056E-03 10640   0.824E-03 0.210E-03
CGA:  15    -0.128295292212E+04   -0.22836E-03   -0.23544E-03 10640   0.649E-03 0.218E-03
CGA:  16    -0.128295309813E+04   -0.17601E-03   -0.18603E-03 10640   0.511E-03 0.383E-03
CGA:  17    -0.128295322461E+04   -0.12648E-03   -0.12622E-03 10640   0.481E-03-0.663E-04
CGA:  18    -0.128295328591E+04   -0.61299E-04   -0.73774E-04 10640   0.199E-03 0.166E-03
CGA:  19    -0.128295334120E+04   -0.55283E-04   -0.55935E-04 10640   0.249E-03 0.163E-04
CGA:  20    -0.128295295846E+04    0.38273E-03   -0.23224E-03 10640   0.539E-02-0.641E-03
CGA:  21    -0.128295342809E+04   -0.46963E-03   -0.64109E-03 10640   0.794E-03 0.562E-03
CGA:  22    -0.128295373775E+04   -0.30965E-03   -0.28373E-03 10640   0.906E-03-0.242E-03
CGA:  23    -0.128295389144E+04   -0.15369E-03   -0.12524E-03 10640   0.474E-03-0.124E-03
CGA:  24    -0.128295399675E+04   -0.10532E-03   -0.99258E-04 10640   0.416E-03-0.350E-04
CGA:  25    -0.128295408558E+04   -0.88822E-04   -0.73134E-04 10640   0.146E-03-0.725E-04
CGA:  26    -0.128295409244E+04   -0.68661E-05   -0.15382E-04 10640   0.739E-04 0.320E-04
CGA:  27    -0.128295410078E+04   -0.83328E-05   -0.14909E-04 10640   0.669E-04 0.304E-04
CGA:  28    -0.128295413753E+04   -0.36751E-04   -0.38152E-04 10640   0.127E-03-0.418E-04
CGA:  29    -0.128295414678E+04   -0.92538E-05   -0.18147E-04 10640   0.325E-04 0.389E-04
CGA:  30    -0.128295416113E+04   -0.14348E-04   -0.14208E-04 10640   0.350E-04-0.542E-05
CGA:  31    -0.128295416585E+04   -0.47173E-05   -0.62346E-05 10640   0.383E-04 0.104E-04
CGA:  32    -0.128295417876E+04   -0.12913E-04   -0.14206E-04 10640   0.425E-04 0.195E-04
CGA:  33    -0.128295419416E+04   -0.15403E-04   -0.18569E-04 10640   0.137E-03-0.358E-04
CGA:  34    -0.128295420052E+04   -0.63579E-05   -0.12833E-04 10640   0.145E-04 0.253E-04
CGA:  35    -0.128295418885E+04    0.11670E-04   -0.14825E-04 10640   0.374E-03-0.505E-04
CGA:  36    -0.128295422201E+04   -0.33158E-04   -0.42371E-04 10640   0.160E-04 0.376E-04
CGA:  37    -0.128295422122E+04    0.79194E-06   -0.16732E-05 10640   0.846E-05 0.953E-05
  12 F= -.12829542E+04 E0= -.12829542E+04  d E =0.208931E+00  mag=    47.0000
       N       E                     dE             d eps       ncg     rms          ort
SDA:   1    -0.127982856674E+04    0.31257E+01    0.00000E+00 10640   0.112E+02 0.000E+00
CGA:   2    -0.128187174495E+04   -0.20432E+01   -0.20422E+01 10640   0.408E+01 0.165E-01
CGA:   3    -0.128283208650E+04   -0.96034E+00   -0.95989E+00 10640   0.161E+01-0.113E-02
CGA:   4    -0.128306467097E+04   -0.23258E+00   -0.23199E+00 10640   0.227E+00-0.123E-01
CGA:   5    -0.128310487329E+04   -0.40202E-01   -0.40315E-01 10640   0.600E-01 0.183E-02
CGA:   6    -0.128311795885E+04   -0.13086E-01   -0.12831E-01 10640   0.189E-01-0.264E-02
CGA:   7    -0.128312124336E+04   -0.32845E-02   -0.34056E-02 10640   0.493E-02 0.106E-02
CGA:   8    -0.128312243626E+04   -0.11929E-02   -0.11682E-02 10640   0.225E-02-0.317E-03
CGA:   9    -0.128312296014E+04   -0.52388E-03   -0.51448E-03 10640   0.126E-02-0.175E-03
CGA:  10    -0.128312289046E+04    0.69673E-04   -0.79795E-03 10640   0.861E-02-0.222E-02
CGA:  11    -0.128312372044E+04   -0.82998E-03   -0.88265E-03 10640   0.106E-02 0.274E-03
CGA:  12    -0.128312407447E+04   -0.35403E-03   -0.36446E-03 10640   0.581E-03-0.349E-03
CGA:  13    -0.128312415651E+04   -0.82040E-04   -0.86923E-04 10640   0.265E-03 0.598E-04
CGA:  14    -0.128312330025E+04    0.85626E-03   -0.38074E-03 10640   0.627E-02-0.123E-02
CGA:  15    -0.128312431218E+04   -0.10119E-02   -0.10995E-02 10640   0.943E-03 0.508E-03
CGA:  16    -0.128312457788E+04   -0.26569E-03   -0.22010E-03 10640   0.407E-03-0.359E-03
CGA:  17    -0.128312458659E+04   -0.87181E-05   -0.29891E-04 10640   0.157E-03 0.980E-04
CGA:  18    -0.128312458482E+04    0.17769E-05   -0.17576E-04 10640   0.735E-04 0.826E-04
CGA:  19    -0.128312401809E+04    0.56672E-03   -0.30529E-03 10640   0.556E-02-0.428E-03
CGA:  20    -0.128312447936E+04   -0.46126E-03   -0.57608E-03 10640   0.668E-03 0.286E-03
CGA:  21    -0.128312466775E+04   -0.18840E-03   -0.18139E-03 10640   0.707E-04-0.241E-04
CGA:  22    -0.128312469251E+04   -0.24753E-04   -0.14414E-04 10640   0.597E-04-0.318E-04
CGA:  23    -0.128312469503E+04   -0.25202E-05   -0.66555E-05 10640   0.322E-04 0.131E-04
  13 F= -.12831247E+04 E0= -.12831247E+04  d E =-.170474E+00  mag=    47.0000
       N       E                     dE             d eps       ncg     rms          ort
SDA:   1    -0.128259481507E+04    0.52988E+00    0.00000E+00 10640   0.178E+01 0.000E+00
CGA:   2    -0.128293025422E+04   -0.33544E+00   -0.33594E+00 10640   0.675E+00 0.361E-02
CGA:   3    -0.128308950541E+04   -0.15925E+00   -0.15891E+00 10640   0.254E+00-0.166E-02
CGA:   4    -0.128312625260E+04   -0.36747E-01   -0.36106E-01 10640   0.363E-01-0.223E-02
CGA:   5    -0.128313278275E+04   -0.65302E-02   -0.65690E-02 10640   0.954E-02 0.229E-03
CGA:   6    -0.128313497297E+04   -0.21902E-02   -0.20640E-02 10640   0.318E-02-0.596E-03
CGA:   7    -0.128313543662E+04   -0.46365E-03   -0.53110E-03 10640   0.781E-03 0.286E-03
CGA:   8    -0.128313563481E+04   -0.19818E-03   -0.19624E-03 10640   0.328E-03-0.105E-04
CGA:   9    -0.128313573974E+04   -0.10494E-03   -0.99991E-04 10640   0.272E-03-0.564E-04
CGA:  10    -0.128313577100E+04   -0.31261E-04   -0.14013E-03 10640   0.176E-02-0.472E-03
CGA:  11    -0.128313593723E+04   -0.16623E-03   -0.17852E-03 10640   0.216E-03 0.442E-04
CGA:  12    -0.128313603083E+04   -0.93595E-04   -0.11795E-03 10640   0.354E-03-0.169E-03
CGA:  13    -0.128313604994E+04   -0.19111E-04   -0.45032E-04 10640   0.680E-04 0.969E-04
CGA:  14    -0.128313607785E+04   -0.27914E-04   -0.24569E-04 10640   0.469E-04-0.340E-04
CGA:  15    -0.128313610772E+04   -0.29863E-04    0.64441E-05 10640   0.756E-04-0.123E-04
CGA:  16    -0.128313545732E+04    0.65040E-03   -0.35129E-03 10640   0.372E-02-0.392E-03
CGA:  17    -0.128313611394E+04   -0.65662E-03   -0.63864E-03 10640   0.107E-02-0.330E-04
CGA:  18    -0.128313627285E+04   -0.15891E-03   -0.16319E-03 10640   0.148E-03 0.102E-04
CGA:  19    -0.128313627169E+04    0.11583E-05   -0.28254E-04 10640   0.737E-04 0.657E-04
CGA:  20    -0.128313630734E+04   -0.35645E-04   -0.37337E-04 10640   0.504E-04 0.647E-05
CGA:  21    -0.128313631047E+04   -0.31355E-05   -0.89898E-05 10640   0.250E-04 0.134E-04
  14 F= -.12831363E+04 E0= -.12831363E+04  d E =-.116154E-01  mag=    47.0000
       N       E                     dE             d eps       ncg     rms          ort
SDA:   1    -0.128302973141E+04    0.10658E+00    0.00000E+00 10640   0.301E+00 0.000E+00
CGA:   2    -0.128309571261E+04   -0.65981E-01   -0.66054E-01 10640   0.131E+00 0.260E-03
CGA:   3    -0.128312601067E+04   -0.30298E-01   -0.30179E-01 10640   0.357E-01-0.411E-03
CGA:   4    -0.128313121403E+04   -0.52034E-02   -0.50323E-02 10640   0.653E-02-0.447E-03
CGA:   5    -0.128313232585E+04   -0.11118E-02   -0.11514E-02 10640   0.159E-02 0.131E-03
CGA:   6    -0.128313271374E+04   -0.38789E-03   -0.35735E-03 10640   0.540E-03-0.113E-03
CGA:   7    -0.128313278560E+04   -0.71858E-04   -0.89226E-04 10640   0.131E-03 0.590E-04
CGA:   8    -0.128313283262E+04   -0.47027E-04   -0.41261E-04 10640   0.897E-04-0.327E-04
CGA:   9    -0.128313284730E+04   -0.14681E-04   -0.13919E-04 10640   0.435E-04-0.305E-05
CGA:  10    -0.128313185871E+04    0.98860E-03   -0.54085E-03 10640   0.538E-02-0.459E-03
CGA:  11    -0.128313270649E+04   -0.84779E-03   -0.89897E-03 10640   0.114E-02 0.870E-04
CGA:  12    -0.128313288904E+04   -0.18255E-03   -0.16843E-03 10640   0.254E-03-0.211E-04
CGA:  13    -0.128313293318E+04   -0.44142E-04   -0.67077E-04 10640   0.840E-04 0.493E-04
CGA:  14    -0.128313297713E+04   -0.43948E-04   -0.40968E-04 10640   0.851E-04-0.963E-05
CGA:  15    -0.128313297199E+04    0.51403E-05   -0.89051E-05 10640   0.249E-04 0.243E-04
  15 F= -.12831330E+04 E0= -.12831330E+04  d E =0.333848E-02  mag=    47.0000
       N       E                     dE             d eps       ncg     rms          ort
SDA:   1    -0.127801717233E+04    0.51158E+01    0.00000E+00 10640   0.143E+02 0.000E+00
CGA:   2    -0.128132695333E+04   -0.33098E+01   -0.33127E+01 10640   0.631E+01 0.723E-02
CGA:   3    -0.128280710154E+04   -0.14801E+01   -0.14804E+01 10640   0.128E+01 0.221E-03
CGA:   4    -0.128300740508E+04   -0.20030E+00   -0.20002E+00 10640   0.259E+00-0.501E-03
CGA:   5    -0.128305428301E+04   -0.46878E-01   -0.47009E-01 10640   0.735E-01 0.956E-03
CGA:   6    -0.128306834953E+04   -0.14067E-01   -0.13814E-01 10640   0.233E-01-0.777E-03
CGA:   7    -0.128307327683E+04   -0.49273E-02   -0.49047E-02 10640   0.594E-02-0.383E-04
CGA:   8    -0.128307492956E+04   -0.16527E-02   -0.15386E-02 10640   0.330E-02-0.430E-03
CGA:   9    -0.128307564844E+04   -0.71889E-03   -0.67612E-03 10640   0.170E-02-0.144E-03
CGA:  10    -0.128307630244E+04   -0.65400E-03   -0.56598E-03 10640   0.146E-02-0.593E-03
CGA:  11    -0.128307660511E+04   -0.30266E-03   -0.22548E-03 10640   0.819E-03-0.307E-03
CGA:  12    -0.128307690431E+04   -0.29920E-03   -0.27918E-03 10640   0.107E-02-0.452E-03
CGA:  13    -0.128307706078E+04   -0.15648E-03   -0.17488E-03 10640   0.432E-03 0.607E-04
CGA:  14    -0.128307717869E+04   -0.11791E-03   -0.11278E-03 10640   0.256E-03-0.241E-04
CGA:  15    -0.128307726130E+04   -0.82601E-04   -0.87615E-04 10640   0.127E-03 0.579E-04
CGA:  16    -0.128307733394E+04   -0.72647E-04   -0.74233E-04 10640   0.259E-03-0.468E-04
CGA:  17    -0.128307734808E+04   -0.14138E-04   -0.22439E-04 10640   0.187E-03 0.260E-04
CGA:  18    -0.128307736612E+04   -0.18043E-04   -0.30052E-04 10640   0.178E-03 0.414E-04
CGA:  19    -0.128307743088E+04   -0.64758E-04   -0.62759E-04 10640   0.186E-03-0.185E-04
CGA:  20    -0.128307749681E+04   -0.65930E-04   -0.52292E-04 10640   0.499E-03-0.145E-03
CGA:  21    -0.128307754113E+04   -0.44323E-04   -0.63114E-04 10640   0.120E-03 0.686E-04
CGA:  22    -0.128307758517E+04   -0.44038E-04   -0.42683E-04 10640   0.458E-04-0.174E-04
CGA:  23    -0.128307759927E+04   -0.14100E-04   -0.20877E-04 10640   0.237E-03-0.465E-04
CGA:  24    -0.128307762008E+04   -0.20803E-04   -0.25272E-04 10640   0.184E-04 0.164E-04
CGA:  25    -0.128307762167E+04   -0.15917E-05   -0.35380E-05 10640   0.106E-04 0.972E-05
  16 F= -.12830776E+04 E0= -.12830776E+04  d E =0.553503E-01  mag=    47.0000
       N       E                     dE             d eps       ncg     rms          ort
SDA:   1    -0.128143958360E+04    0.16380E+01    0.00000E+00 10640   0.425E+01 0.000E+00
CGA:   2    -0.128256246418E+04   -0.11229E+01   -0.11229E+01 10640   0.199E+01 0.107E-03
CGA:   3    -0.128297832275E+04   -0.41586E+00   -0.41583E+00 10640   0.381E+00-0.199E-02
CGA:   4    -0.128303928323E+04   -0.60960E-01   -0.61064E-01 10640   0.807E-01 0.815E-03
CGA:   5    -0.128305460383E+04   -0.15321E-01   -0.15105E-01 10640   0.220E-01-0.138E-02
CGA:   6    -0.128305866493E+04   -0.40611E-02   -0.40229E-02 10640   0.701E-02-0.215E-03
CGA:   7    -0.128306032406E+04   -0.16591E-02   -0.16015E-02 10640   0.223E-02-0.566E-03
CGA:   8    -0.128306079281E+04   -0.46874E-03   -0.46788E-03 10640   0.105E-02-0.535E-05
CGA:   9    -0.128306116074E+04   -0.36793E-03   -0.42850E-03 10640   0.192E-02-0.693E-03
CGA:  10    -0.128306134613E+04   -0.18539E-03   -0.20929E-03 10640   0.318E-03 0.116E-03
CGA:  11    -0.128306123998E+04    0.10614E-03   -0.29296E-03 10640   0.241E-02-0.721E-03
CGA:  12    -0.128306163471E+04   -0.39472E-03   -0.41702E-03 10640   0.556E-03 0.134E-03
CGA:  13    -0.128306173766E+04   -0.10296E-03   -0.94075E-04 10640   0.119E-03-0.505E-04
CGA:  14    -0.128306177388E+04   -0.36213E-04   -0.36387E-04 10640   0.112E-03-0.142E-04
CGA:  15    -0.128306188628E+04   -0.11240E-03    0.21217E-04 10640   0.121E-03 0.457E-05
CGA:  16    -0.128306200165E+04   -0.11537E-03    0.50385E-04 10640   0.584E-04 0.572E-04
CGA:  17    -0.128306207892E+04   -0.77265E-04    0.37090E-04 10640   0.334E-04 0.414E-04
CGA:  18    -0.128306209002E+04   -0.11103E-04   -0.11131E-04 10640   0.540E-04-0.391E-05
CGA:  19    -0.128306211151E+04   -0.21487E-04   -0.25933E-04 10640   0.119E-03-0.211E-04
CGA:  20    -0.128306211457E+04   -0.30682E-05   -0.96506E-05 10640   0.879E-04 0.315E-04
CGA:  21    -0.128306212649E+04   -0.11915E-04   -0.17494E-04 10640   0.761E-04 0.322E-04
CGA:  22    -0.128306214081E+04   -0.14316E-04   -0.72745E-04 10640   0.377E-03-0.157E-03
CGA:  23    -0.128306219705E+04   -0.56243E-04   -0.69145E-04 10640   0.782E-04 0.842E-04
CGA:  24    -0.128306222849E+04   -0.31444E-04   -0.31180E-04 10640   0.805E-04-0.679E-04
CGA:  25    -0.128306222723E+04    0.12612E-05   -0.60794E-05 10640   0.150E-04 0.291E-04
  17 F= -.12830622E+04 E0= -.12830622E+04  d E =0.153944E-01  mag=    47.0000
       N       E                     dE             d eps       ncg     rms          ort
SDA:   1    -0.127630801609E+04    0.67542E+01    0.00000E+00 10640   0.183E+02 0.000E+00
CGA:   2    -0.128082988170E+04   -0.45219E+01   -0.45221E+01 10640   0.840E+01-0.334E-02
CGA:   3    -0.128269209165E+04   -0.18622E+01   -0.18633E+01 10640   0.149E+01 0.137E-01
CGA:   4    -0.128294267592E+04   -0.25058E+00   -0.25104E+00 10640   0.281E+00 0.364E-02
CGA:   5    -0.128300168924E+04   -0.59013E-01   -0.59112E-01 10640   0.647E-01 0.128E-02
CGA:   6    -0.128301665169E+04   -0.14962E-01   -0.14878E-01 10640   0.235E-01-0.143E-02
CGA:   7    -0.128302094764E+04   -0.42960E-02   -0.42252E-02 10640   0.863E-02-0.673E-03
CGA:   8    -0.128302282776E+04   -0.18801E-02   -0.18749E-02 10640   0.366E-02-0.824E-04
CGA:   9    -0.128302407075E+04   -0.12430E-02   -0.13387E-02 10640   0.355E-02-0.102E-02
CGA:  10    -0.128302445363E+04   -0.38289E-03   -0.42109E-03 10640   0.148E-02 0.334E-03
CGA:  11    -0.128302487755E+04   -0.42392E-03   -0.42379E-03 10640   0.115E-02-0.131E-04
CGA:  12    -0.128302520585E+04   -0.32829E-03   -0.36247E-03 10640   0.232E-02-0.780E-03
CGA:  13    -0.128302536701E+04   -0.16116E-03   -0.24480E-03 10640   0.529E-03 0.497E-03
CGA:  14    -0.128302550467E+04   -0.13767E-03   -0.14497E-03 10640   0.363E-03 0.173E-03
CGA:  15    -0.128302561202E+04   -0.10735E-03   -0.25452E-03 10640   0.268E-02-0.564E-03
CGA:  16    -0.128302576717E+04   -0.15515E-03   -0.24758E-03 10640   0.383E-03 0.509E-03
CGA:  17    -0.128302582756E+04   -0.60391E-04   -0.76874E-04 10640   0.268E-03 0.163E-03
CGA:  18    -0.128302593431E+04   -0.10675E-03   -0.16215E-03 10640   0.889E-03-0.348E-03
CGA:  19    -0.128302599070E+04   -0.56390E-04   -0.96200E-04 10640   0.253E-03 0.244E-03
CGA:  20    -0.128302606152E+04   -0.70826E-04   -0.73884E-04 10640   0.166E-03 0.868E-04
CGA:  21    -0.128302583264E+04    0.22889E-03   -0.19167E-03 10640   0.477E-02-0.707E-03
CGA:  22    -0.128302617161E+04   -0.33897E-03   -0.44721E-03 10640   0.479E-03 0.571E-03
CGA:  23    -0.128302627901E+04   -0.10741E-03   -0.11682E-03 10640   0.276E-03 0.145E-03
CGA:  24    -0.128302637930E+04   -0.10029E-03   -0.11851E-03 10640   0.701E-03-0.363E-03
CGA:  25    -0.128302639970E+04   -0.20403E-04   -0.58187E-04 10640   0.119E-03 0.192E-03
CGA:  26    -0.128302640247E+04   -0.27649E-05   -0.15712E-04 10640   0.934E-04 0.770E-04
CGA:  27    -0.128302646094E+04   -0.58466E-04    0.65396E-04 10640   0.117E-03 0.117E-04
CGA:  28    -0.128302649112E+04   -0.30188E-04   -0.31683E-04 10640   0.521E-04 0.647E-04
CGA:  29    -0.128302649791E+04   -0.67899E-05   -0.97753E-05 10640   0.408E-04 0.398E-04
CGA:  30    -0.128302652959E+04   -0.31677E-04    0.10565E-04 10640   0.414E-04 0.315E-04
CGA:  31    -0.128302652829E+04    0.12988E-05   -0.40708E-05 10640   0.335E-04 0.335E-04
CGA:  32    -0.128302662543E+04   -0.97138E-04   -0.25100E-03 10640   0.313E-04 0.270E-04
CGA:  33    -0.128302663222E+04   -0.67940E-05   -0.89520E-05 10640   0.451E-04 0.126E-04
CGA:  34    -0.128302663098E+04    0.12394E-05   -0.30020E-04 10640   0.185E-02-0.823E-04
CGA:  35    -0.128302677072E+04   -0.13973E-03   -0.19177E-03 10640   0.192E-03 0.860E-04
CGA:  36    -0.128302683921E+04   -0.68493E-04   -0.68161E-04 10640   0.219E-04-0.820E-06
CGA:  37    -0.128302684360E+04   -0.43930E-05   -0.31421E-05 10640   0.890E-05-0.208E-05
  18 F= -.12830268E+04 E0= -.12830268E+04  d E =0.353836E-01  mag=    47.0000
       N       E                     dE             d eps       ncg     rms          ort
SDA:   1    -0.127049244511E+04    0.12534E+02    0.00000E+00 10640   0.340E+02 0.000E+00
CGA:   2    -0.127892770194E+04   -0.84353E+01   -0.84565E+01 10640   0.156E+02-0.115E-01
CGA:   3    -0.128234748667E+04   -0.34198E+01   -0.33605E+01 10640   0.303E+01 0.312E+00
CGA:   4    -0.128284177911E+04   -0.49429E+00   -0.49879E+00 10640   0.669E+00-0.271E-01
CGA:   5    -0.128295565912E+04   -0.11388E+00   -0.11309E+00 10640   0.173E+00 0.189E-01
CGA:   6    -0.128298992919E+04   -0.34270E-01   -0.34091E-01 10640   0.561E-01-0.797E-03
CGA:   7    -0.128300195096E+04   -0.12022E-01   -0.11940E-01 10640   0.167E-01-0.129E-03
CGA:   8    -0.128300570236E+04   -0.37514E-02   -0.36535E-02 10640   0.812E-02-0.232E-03
CGA:   9    -0.128300753295E+04   -0.18306E-02   -0.18474E-02 10640   0.373E-02 0.772E-04
CGA:  10    -0.128300857579E+04   -0.10428E-02   -0.10384E-02 10640   0.186E-02-0.942E-05
CGA:  11    -0.128300884466E+04   -0.26886E-03   -0.36479E-03 10640   0.736E-03 0.300E-03
CGA:  12    -0.128300905141E+04   -0.20676E-03   -0.23284E-03 10640   0.386E-03 0.112E-03
CGA:  13    -0.128300908832E+04   -0.36903E-04   -0.93929E-04 10640   0.239E-03 0.201E-03
CGA:  14    -0.128300915639E+04   -0.68076E-04   -0.76025E-04 10640   0.267E-03 0.492E-04
CGA:  15    -0.128300915227E+04    0.41260E-05   -0.51280E-04 10640   0.130E-03 0.177E-03
CGA:  16    -0.128300917993E+04   -0.27662E-04   -0.39059E-04 10640   0.977E-04 0.723E-04
CGA:  17    -0.128300917682E+04    0.31118E-05   -0.16478E-04 10640   0.829E-04 0.700E-04
CGA:  18    -0.128300919524E+04   -0.18420E-04   -0.25728E-04 10640   0.997E-04 0.586E-04
CGA:  19    -0.128300919383E+04    0.14078E-05   -0.13931E-04 10640   0.734E-04 0.532E-04
CGA:  20    -0.128300920881E+04   -0.14984E-04   -0.21078E-04 10640   0.938E-04 0.480E-04
CGA:  21    -0.128300920883E+04   -0.10637E-07   -0.12339E-04 10640   0.653E-04 0.447E-04
CGA:  22    -0.128300921731E+04   -0.84846E-05   -0.22393E-04 10640   0.905E-04 0.855E-04
CGA:  23    -0.128300923397E+04   -0.16656E-04   -0.17882E-04 10640   0.102E-03 0.657E-05
CGA:  24    -0.128300925168E+04   -0.17712E-04   -0.28850E-04 10640   0.847E-04 0.992E-04
CGA:  25    -0.128300925541E+04   -0.37296E-05   -0.10567E-04 10640   0.463E-04 0.279E-04
CGA:  26    -0.128300926548E+04   -0.10068E-04   -0.15616E-04 10640   0.716E-04 0.526E-04
CGA:  27    -0.128300927753E+04   -0.12059E-04   -0.12998E-04 10640   0.647E-04 0.554E-05
CGA:  28    -0.128300930018E+04   -0.22648E-04   -0.23292E-04 10640   0.595E-04 0.620E-04
CGA:  29    -0.128300930602E+04   -0.58420E-05   -0.89221E-05 10640   0.369E-04 0.159E-04
CGA:  30    -0.128300931681E+04   -0.10785E-04   -0.13086E-04 10640   0.472E-04 0.419E-04
CGA:  31    -0.128300932867E+04   -0.11862E-04   -0.11641E-04 10640   0.648E-04-0.257E-05
CGA:  32    -0.128300941203E+04   -0.83360E-04   -0.57547E-04 10640   0.887E-04 0.399E-04
CGA:  33    -0.128300940672E+04    0.53142E-05   -0.62947E-05 10640   0.237E-04 0.406E-04
  19 F= -.12830094E+04 E0= -.12830094E+04  d E =0.174369E-01  mag=    47.0000
       N       E                     dE             d eps       ncg     rms          ort
SDA:   1    -0.125338885830E+04    0.29621E+02    0.00000E+00 10640   0.821E+02 0.000E+00
CGA:   2    -0.127292467518E+04   -0.19536E+02   -0.19545E+02 10640   0.373E+02 0.599E-01
CGA:   3    -0.128141111046E+04   -0.84864E+01   -0.84926E+01 10640   0.723E+01-0.120E-01
CGA:   4    -0.128256899431E+04   -0.11579E+01   -0.11567E+01 10640   0.135E+01 0.591E-02
CGA:   5    -0.128283849241E+04   -0.26950E+00   -0.26981E+00 10640   0.377E+00 0.432E-02
CGA:   6    -0.128290837741E+04   -0.69885E-01   -0.69438E-01 10640   0.144E+00-0.413E-02
CGA:   7    -0.128293515879E+04   -0.26781E-01   -0.26637E-01 10640   0.385E-01-0.658E-03
CGA:   8    -0.128294500477E+04   -0.98460E-02   -0.97236E-02 10640   0.197E-01-0.299E-02
CGA:   9    -0.128294953624E+04   -0.45315E-02   -0.44492E-02 10640   0.111E-01-0.168E-02
CGA:  10    -0.128295249284E+04   -0.29566E-02   -0.29658E-02 10640   0.715E-02-0.280E-02
CGA:  11    -0.128295392878E+04   -0.14359E-02   -0.13688E-02 10640   0.460E-02-0.199E-02
CGA:  12    -0.128295491286E+04   -0.98408E-03   -0.10664E-02 10640   0.533E-02-0.247E-02
CGA:  13    -0.128295547604E+04   -0.56318E-03   -0.62328E-03 10640   0.147E-02 0.363E-03
CGA:  14    -0.128295601894E+04   -0.54290E-03   -0.54235E-03 10640   0.839E-03 0.787E-05
CGA:  15    -0.128295636362E+04   -0.34468E-03   -0.35223E-03 10640   0.106E-02-0.586E-04
CGA:  16    -0.128295657245E+04   -0.20883E-03   -0.20714E-03 10640   0.508E-03-0.234E-04
CGA:  17    -0.128295631870E+04    0.25376E-03   -0.58385E-03 10640   0.616E-02-0.956E-03
CGA:  18    -0.128295692294E+04   -0.60424E-03   -0.68836E-03 10640   0.109E-02 0.413E-03
CGA:  19    -0.128295724245E+04   -0.31951E-03   -0.32053E-03 10640   0.520E-03 0.225E-04
CGA:  20    -0.128295740169E+04   -0.15924E-03   -0.15426E-03 10640   0.517E-03-0.180E-03
CGA:  21    -0.128295749596E+04   -0.94264E-04   -0.94277E-04 10640   0.290E-03-0.504E-07
CGA:  22    -0.128295753970E+04   -0.43739E-04   -0.50436E-04 10640   0.163E-03 0.474E-04
CGA:  23    -0.128295759906E+04   -0.59366E-04   -0.59401E-04 10640   0.120E-03-0.840E-05
CGA:  24    -0.128295763651E+04   -0.37449E-04   -0.43571E-04 10640   0.260E-03-0.819E-04
CGA:  25    -0.128295765050E+04   -0.13985E-04   -0.30805E-04 10640   0.704E-04 0.874E-04
CGA:  26    -0.128295765611E+04   -0.56105E-05   -0.13598E-04 10640   0.511E-04 0.506E-04
CGA:  27    -0.128295736165E+04    0.29446E-03   -0.15861E-03 10640   0.348E-02-0.247E-03
CGA:  28    -0.128295767986E+04   -0.31822E-03   -0.39590E-03 10640   0.118E-03 0.203E-03
CGA:  29    -0.128295768949E+04   -0.96236E-05   -0.20464E-04 10640   0.547E-04 0.310E-04
CGA:  30    -0.128295772543E+04   -0.35943E-04   -0.40369E-04 10640   0.953E-04-0.509E-04
CGA:  31    -0.128295772920E+04   -0.37686E-05   -0.13766E-04 10640   0.365E-04 0.281E-04
CGA:  32    -0.128295774819E+04   -0.18993E-04   -0.18591E-04 10640   0.300E-04-0.443E-05
CGA:  33    -0.128295775347E+04   -0.52752E-05   -0.55606E-05 10640   0.259E-04 0.108E-05
CGA:  34    -0.128295776271E+04   -0.92408E-05   -0.10383E-04 10640   0.487E-04 0.141E-04
CGA:  35    -0.128295778010E+04   -0.17394E-04   -0.13589E-04 10640   0.493E-04-0.205E-04
CGA:  36    -0.128295778891E+04   -0.88132E-05   -0.88666E-05 10640   0.409E-04 0.349E-06
  20 F= -.12829578E+04 E0= -.12829577E+04  d E =0.516178E-01  mag=    47.0000
       N       E                     dE             d eps       ncg     rms          ort
SDA:   1    -0.128078067056E+04    0.21771E+01    0.00000E+00 10640   0.743E+01 0.000E+00
CGA:   2    -0.128223377415E+04   -0.14531E+01   -0.14521E+01 10640   0.272E+01-0.173E-02
CGA:   3    -0.128292197939E+04   -0.68821E+00   -0.68932E+00 10640   0.754E+00 0.497E-02
CGA:   4    -0.128303548658E+04   -0.11351E+00   -0.11433E+00 10640   0.121E+00 0.449E-02
CGA:   5    -0.128305822058E+04   -0.22734E-01   -0.22805E-01 10640   0.387E-01 0.335E-03
CGA:   6    -0.128306463640E+04   -0.64158E-02   -0.65690E-02 10640   0.117E-01 0.796E-03
CGA:   7    -0.128306730114E+04   -0.26647E-02   -0.26132E-02 10640   0.316E-02-0.317E-03
CGA:   8    -0.128306789821E+04   -0.59708E-03   -0.63208E-03 10640   0.122E-02 0.218E-03
CGA:   9    -0.128306824945E+04   -0.35123E-03   -0.34322E-03 10640   0.805E-03-0.803E-04
CGA:  10    -0.128306828656E+04   -0.37112E-04   -0.10234E-03 10640   0.284E-03 0.297E-03
CGA:  11    -0.128306828670E+04   -0.14310E-06   -0.46781E-04 10640   0.171E-03 0.207E-03
CGA:  12    -0.128306833031E+04   -0.43608E-04   -0.44371E-04 10640   0.206E-03 0.102E-04
CGA:  13    -0.128306832086E+04    0.94479E-05   -0.22499E-04 10640   0.931E-04 0.141E-03
  21 F= -.12830683E+04 E0= -.12830683E+04  d E =-.110532E+00  mag=    47.0000
       N       E                     dE             d eps       ncg     rms          ort
SDA:   1    -0.128251954741E+04    0.54878E+00    0.00000E+00 10640   0.167E+01 0.000E+00
CGA:   2    -0.128288440000E+04   -0.36485E+00   -0.36461E+00 10640   0.704E+00-0.264E-02
CGA:   3    -0.128305310934E+04   -0.16871E+00   -0.16892E+00 10640   0.150E+00 0.323E-02
CGA:   4    -0.128307701079E+04   -0.23901E-01   -0.23956E-01 10640   0.256E-01 0.377E-03
CGA:   5    -0.128308212443E+04   -0.51136E-02   -0.51804E-02 10640   0.624E-02 0.756E-03
CGA:   6    -0.128308356558E+04   -0.14412E-02   -0.14248E-02 10640   0.246E-02-0.246E-03
CGA:   7    -0.128308392898E+04   -0.36339E-03   -0.39326E-03 10640   0.583E-03 0.257E-03
CGA:   8    -0.128308411332E+04   -0.18435E-03   -0.18449E-03 10640   0.305E-03-0.174E-04
CGA:   9    -0.128308415710E+04   -0.43781E-04   -0.55507E-04 10640   0.145E-03 0.129E-03
CGA:  10    -0.128308417115E+04   -0.14051E-04   -0.29115E-04 10640   0.756E-04 0.113E-03
CGA:  11    -0.128308418539E+04   -0.14232E-04   -0.16515E-04 10640   0.453E-04 0.465E-04
CGA:  12    -0.128308418383E+04    0.15549E-05   -0.48354E-05 10640   0.385E-04 0.403E-04
  22 F= -.12830842E+04 E0= -.12830841E+04  d E =-.158630E-01  mag=    47.0000
       N       E                     dE             d eps       ncg     rms          ort
SDA:   1    -0.128156300295E+04    0.15212E+01    0.00000E+00 10640   0.427E+01 0.000E+00
CGA:   2    -0.128257725342E+04   -0.10143E+01   -0.10142E+01 10640   0.192E+01-0.289E-02
CGA:   3    -0.128302328809E+04   -0.44603E+00   -0.44611E+00 10640   0.345E+00 0.283E-02
CGA:   4    -0.128308044970E+04   -0.57162E-01   -0.57168E-01 10640   0.645E-01 0.544E-04
CGA:   5    -0.128309358071E+04   -0.13131E-01   -0.13167E-01 10640   0.154E-01 0.878E-03
CGA:   6    -0.128309703164E+04   -0.34509E-02   -0.34418E-02 10640   0.596E-02-0.364E-03
CGA:   7    -0.128309806086E+04   -0.10292E-02   -0.10300E-02 10640   0.169E-02 0.211E-04
CGA:   8    -0.128309846941E+04   -0.40855E-03   -0.40855E-03 10640   0.777E-03-0.152E-05
CGA:   9    -0.128309869261E+04   -0.22320E-03   -0.23376E-03 10640   0.806E-03-0.171E-03
CGA:  10    -0.128309874764E+04   -0.55029E-04   -0.75733E-04 10640   0.289E-03 0.169E-03
CGA:  11    -0.128309877850E+04   -0.30861E-04   -0.43152E-04 10640   0.202E-03 0.108E-03
CGA:  12    -0.128309884217E+04   -0.63665E-04   -0.63657E-04 10640   0.125E-03-0.462E-05
CGA:  13    -0.128309886634E+04   -0.24170E-04   -0.24840E-04 10640   0.148E-03 0.238E-04
CGA:  14    -0.128309888173E+04   -0.15391E-04   -0.24222E-04 10640   0.963E-04 0.952E-04
CGA:  15    -0.128309889849E+04   -0.16759E-04   -0.17984E-04 10640   0.584E-04 0.320E-04
CGA:  16    -0.128309891644E+04   -0.17959E-04   -0.17783E-04 10640   0.288E-04 0.317E-04
CGA:  17    -0.128309891836E+04   -0.19140E-05   -0.39144E-05 10640   0.231E-04 0.228E-04
CGA:  18    -0.128309895052E+04   -0.32159E-04   -0.24151E-04 10640   0.868E-04 0.920E-05
CGA:  19    -0.128309895236E+04   -0.18413E-05   -0.13332E-04 10640   0.226E-04 0.758E-04
  23 F= -.12830990E+04 E0= -.12830989E+04  d E =-.147685E-01  mag=    47.0000
       N       E                     dE             d eps       ncg     rms          ort
SDA:   1    -0.123795243339E+04    0.45147E+02    0.00000E+00 10640   0.123E+03 0.000E+00
CGA:   2    -0.126815629390E+04   -0.30204E+02   -0.30204E+02 10640   0.564E+02 0.627E-01
CGA:   3    -0.128088929448E+04   -0.12733E+02   -0.12734E+02 10640   0.102E+02 0.168E-01
CGA:   4    -0.128252095244E+04   -0.16317E+01   -0.16345E+01 10640   0.215E+01-0.868E-02
CGA:   5    -0.128291089853E+04   -0.38995E+00   -0.39011E+00 10640   0.649E+00 0.182E-01
CGA:   6    -0.128302544628E+04   -0.11455E+00   -0.11413E+00 10640   0.230E+00-0.861E-02
CGA:   7    -0.128307079989E+04   -0.45354E-01   -0.45137E-01 10640   0.670E-01-0.545E-02
CGA:   8    -0.128308514017E+04   -0.14340E-01   -0.14279E-01 10640   0.323E-01-0.386E-02
CGA:   9    -0.128309269047E+04   -0.75503E-02   -0.76234E-02 10640   0.179E-01-0.405E-02
CGA:  10    -0.128309672619E+04   -0.40357E-02   -0.41581E-02 10640   0.113E-01-0.378E-02
CGA:  11    -0.128309843873E+04   -0.17125E-02   -0.16561E-02 10640   0.408E-02-0.111E-02
CGA:  12    -0.128309914207E+04   -0.70335E-03   -0.18624E-02 10640   0.114E-01-0.423E-02
CGA:  13    -0.128310013141E+04   -0.98934E-03   -0.11641E-02 10640   0.191E-02 0.126E-02
CGA:  14    -0.128310058576E+04   -0.45435E-03   -0.46190E-03 10640   0.792E-03 0.346E-03
CGA:  15    -0.128310085676E+04   -0.27100E-03   -0.29948E-03 10640   0.163E-02-0.346E-03
CGA:  16    -0.128310092902E+04   -0.72257E-04   -0.10270E-03 10640   0.154E-02 0.227E-03
CGA:  17    -0.128310100481E+04   -0.75794E-04   -0.14604E-03 10640   0.640E-03 0.460E-03
CGA:  18    -0.128310107988E+04   -0.75067E-04   -0.10276E-03 10640   0.667E-03 0.262E-03
CGA:  19    -0.128310130644E+04   -0.22656E-03   -0.22794E-03 10640   0.787E-03-0.788E-04
CGA:  20    -0.128310142306E+04   -0.11662E-03   -0.96903E-04 10640   0.665E-03-0.242E-03
CGA:  21    -0.128310151518E+04   -0.92115E-04   -0.89711E-04 10640   0.129E-02-0.110E-03
CGA:  22    -0.128310170358E+04   -0.18841E-03   -0.18876E-03 10640   0.117E-02-0.338E-04
CGA:  23    -0.128310186862E+04   -0.16504E-03   -0.15289E-03 10640   0.805E-03-0.173E-03
CGA:  24    -0.128310175059E+04    0.11803E-03   -0.37154E-03 10640   0.360E-02-0.155E-02
CGA:  25    -0.128310220378E+04   -0.45319E-03   -0.46970E-03 10640   0.548E-03 0.177E-03
CGA:  26    -0.128310236117E+04   -0.15739E-03   -0.15453E-03 10640   0.365E-03 0.632E-04
CGA:  27    -0.128310240737E+04   -0.46207E-04   -0.55012E-04 10640   0.777E-04 0.974E-04
CGA:  28    -0.128310243397E+04   -0.26599E-04   -0.25129E-04 10640   0.100E-03 0.431E-04
CGA:  29    -0.128310244526E+04   -0.11292E-04   -0.13924E-04 10640   0.518E-04 0.312E-04
CGA:  30    -0.128310245255E+04   -0.72840E-05   -0.10585E-04 10640   0.492E-04 0.522E-04
CGA:  31    -0.128310246464E+04   -0.12089E-04   -0.11730E-04 10640   0.520E-04 0.158E-04
CGA:  32    -0.128310247752E+04   -0.12883E-04   -0.13792E-04 10640   0.377E-04 0.560E-04
CGA:  33    -0.128310247835E+04   -0.82536E-06   -0.38202E-05 10640   0.239E-04 0.261E-04
  24 F= -.12831025E+04 E0= -.12831023E+04  d E =-.352599E-02  mag=    47.0000
       N       E                     dE             d eps       ncg     rms          ort
SDA:   1    -0.126835264019E+04    0.14750E+02    0.00000E+00 10640   0.469E+02 0.000E+00
CGA:   2    -0.127770552714E+04   -0.93529E+01   -0.93540E+01 10640   0.178E+02 0.712E-01
CGA:   3    -0.128214093957E+04   -0.44354E+01   -0.44354E+01 10640   0.473E+01-0.150E-01
CGA:   4    -0.128287262815E+04   -0.73169E+00   -0.73109E+00 10640   0.758E+00-0.840E-02
CGA:   5    -0.128302207642E+04   -0.14945E+00   -0.14941E+00 10640   0.210E+00-0.324E-02
CGA:   6    -0.128306196557E+04   -0.39889E-01   -0.39841E-01 10640   0.747E-01-0.233E-02
CGA:   7    -0.128307649326E+04   -0.14528E-01   -0.14510E-01 10640   0.220E-01-0.151E-02
CGA:   8    -0.128308113340E+04   -0.46401E-02   -0.46547E-02 10640   0.123E-01-0.164E-02
CGA:   9    -0.128308375135E+04   -0.26179E-02   -0.26592E-02 10640   0.740E-02-0.164E-02
CGA:  10    -0.128308516064E+04   -0.14093E-02   -0.30198E-02 10640   0.169E-01-0.614E-02
CGA:  11    -0.128308700946E+04   -0.18488E-02   -0.18716E-02 10640   0.317E-02 0.236E-03
CGA:  12    -0.128308797987E+04   -0.97042E-03   -0.12149E-02 10640   0.335E-02-0.151E-02
CGA:  13    -0.128308839895E+04   -0.41908E-03   -0.48185E-03 10640   0.352E-02-0.127E-02
CGA:  14    -0.128308892518E+04   -0.52623E-03   -0.85944E-03 10640   0.386E-02-0.202E-02
CGA:  15    -0.128308971674E+04   -0.79156E-03   -0.78983E-03 10640   0.187E-02-0.534E-04
CGA:  16    -0.128309004706E+04   -0.33031E-03   -0.33014E-03 10640   0.617E-03 0.222E-06
CGA:  17    -0.128309026036E+04   -0.21331E-03   -0.21779E-03 10640   0.441E-03-0.384E-04
CGA:  18    -0.128309036898E+04   -0.10861E-03   -0.12588E-03 10640   0.805E-03-0.256E-03
CGA:  19    -0.128309044856E+04   -0.79585E-04   -0.87327E-04 10640   0.169E-03 0.590E-04
CGA:  20    -0.128309020014E+04    0.24842E-03   -0.15174E-03 10640   0.282E-02-0.443E-03
CGA:  21    -0.128309064750E+04   -0.44736E-03   -0.46304E-03 10640   0.930E-03 0.614E-04
CGA:  22    -0.128309079713E+04   -0.14963E-03   -0.15734E-03 10640   0.153E-03 0.327E-04
CGA:  23    -0.128309084298E+04   -0.45847E-04   -0.44269E-04 10640   0.148E-03-0.130E-04
CGA:  24    -0.128309089954E+04   -0.56564E-04   -0.73500E-04 10640   0.405E-03-0.114E-03
CGA:  25    -0.128309092798E+04   -0.28444E-04   -0.44807E-04 10640   0.979E-04 0.565E-04
CGA:  26    -0.128309096629E+04   -0.38309E-04   -0.38695E-04 10640   0.789E-04 0.920E-05
CGA:  27    -0.128309092298E+04    0.43309E-04   -0.70054E-04 10640   0.154E-02-0.266E-03
CGA:  28    -0.128309104058E+04   -0.11760E-03   -0.15253E-03 10640   0.127E-03 0.119E-03
CGA:  29    -0.128309107188E+04   -0.31305E-04   -0.36136E-04 10640   0.850E-04 0.378E-04
CGA:  30    -0.128309110744E+04   -0.35552E-04   -0.31026E-04 10640   0.844E-04-0.435E-04
CGA:  31    -0.128309111150E+04   -0.40607E-05   -0.84622E-05 10640   0.164E-04 0.159E-04
CGA:  32    -0.128309112212E+04   -0.10621E-04   -0.15129E-04 10640   0.130E-03-0.112E-04
CGA:  33    -0.128309115087E+04   -0.28751E-04   -0.19343E-04 10640   0.421E-04-0.394E-04
CGA:  34    -0.128309115667E+04   -0.57975E-05   -0.71267E-05 10640   0.106E-04 0.101E-04
CGA:  35    -0.128309111761E+04    0.39056E-04   -0.22163E-04 10640   0.774E-03-0.354E-04
CGA:  36    -0.128309123163E+04   -0.11402E-03   -0.95191E-04 10640   0.308E-04-0.323E-04
CGA:  37    -0.128309123002E+04    0.16136E-05   -0.40930E-05 10640   0.935E-05 0.113E-04
  25 F= -.12830912E+04 E0= -.12830912E+04  d E =0.112483E-01  mag=    47.0000
       N       E                     dE             d eps       ncg     rms          ort
SDA:   1    -0.128133540750E+04    0.17558E+01    0.00000E+00 10640   0.604E+01 0.000E+00
CGA:   2    -0.128252663131E+04   -0.11912E+01   -0.11892E+01 10640   0.223E+01 0.107E-02
CGA:   3    -0.128309023665E+04   -0.56361E+00   -0.56559E+00 10640   0.593E+00 0.522E-02
CGA:   4    -0.128318193926E+04   -0.91703E-01   -0.92749E-01 10640   0.877E-01 0.319E-02
CGA:   5    -0.128320002997E+04   -0.18091E-01   -0.18420E-01 10640   0.224E-01 0.100E-02
CGA:   6    -0.128320466269E+04   -0.46327E-02   -0.46812E-02 10640   0.797E-02 0.159E-03
CGA:   7    -0.128320612753E+04   -0.14648E-02   -0.14716E-02 10640   0.219E-02 0.341E-04
CGA:   8    -0.128320667835E+04   -0.55082E-03   -0.52715E-03 10640   0.101E-02-0.908E-04
CGA:   9    -0.128320680338E+04   -0.12503E-03   -0.17984E-03 10640   0.430E-03 0.184E-03
CGA:  10    -0.128320682751E+04   -0.24124E-04   -0.82898E-04 10640   0.160E-03 0.193E-03
CGA:  11    -0.128320681544E+04    0.12068E-04   -0.32039E-04 10640   0.932E-04 0.140E-03
CGA:  12    -0.128320680914E+04    0.63010E-05   -0.12479E-04 10640   0.620E-04 0.618E-04
  26 F= -.12832068E+04 E0= -.12832068E+04  d E =-.115579E+00  mag=    47.0000
       N       E                     dE             d eps       ncg     rms          ort
SDA:   1    -0.128254690290E+04    0.65991E+00    0.00000E+00 10640   0.211E+01 0.000E+00
CGA:   2    -0.128298638015E+04   -0.43948E+00   -0.43865E+00 10640   0.847E+00-0.364E-02
CGA:   3    -0.128318863698E+04   -0.20226E+00   -0.20293E+00 10640   0.223E+00 0.415E-02
CGA:   4    -0.128322134389E+04   -0.32707E-01   -0.33051E-01 10640   0.402E-01 0.150E-02
CGA:   5    -0.128322808510E+04   -0.67412E-02   -0.69416E-02 10640   0.121E-01 0.101E-02
CGA:   6    -0.128323023676E+04   -0.21517E-02   -0.21838E-02 10640   0.360E-02 0.176E-03
CGA:   7    -0.128323098729E+04   -0.75053E-03   -0.76264E-03 10640   0.114E-02 0.829E-04
CGA:   8    -0.128323122604E+04   -0.23875E-03   -0.23511E-03 10640   0.543E-03-0.225E-04
CGA:   9    -0.128323130843E+04   -0.82394E-04   -0.10118E-03 10640   0.195E-03 0.123E-03
CGA:  10    -0.128323131920E+04   -0.10769E-04   -0.36899E-04 10640   0.984E-04 0.144E-03
CGA:  11    -0.128323131749E+04    0.17055E-05   -0.12514E-04 10640   0.646E-04 0.713E-04
  27 F= -.12832313E+04 E0= -.12832312E+04  d E =-.245084E-01  mag=    47.0000
       N       E                     dE             d eps       ncg     rms          ort
SDA:   1    -0.128307373541E+04    0.15758E+00    0.00000E+00 10640   0.460E+00 0.000E+00
CGA:   2    -0.128318399032E+04   -0.11025E+00   -0.11019E+00 10640   0.212E+00-0.914E-03
CGA:   3    -0.128322933328E+04   -0.45343E-01   -0.45412E-01 10640   0.530E-01 0.791E-03
CGA:   4    -0.128323677598E+04   -0.74427E-02   -0.74448E-02 10640   0.110E-01 0.230E-04
CGA:   5    -0.128323855506E+04   -0.17791E-02   -0.18326E-02 10640   0.271E-02 0.432E-03
CGA:   6    -0.128323906348E+04   -0.50842E-03   -0.52451E-03 10640   0.807E-03 0.167E-03
CGA:   7    -0.128323923969E+04   -0.17620E-03   -0.18041E-03 10640   0.301E-03 0.614E-04
CGA:   8    -0.128323930175E+04   -0.62065E-04   -0.64375E-04 10640   0.136E-03 0.303E-04
CGA:   9    -0.128323932199E+04   -0.20238E-04   -0.26877E-04 10640   0.622E-04 0.718E-04
CGA:  10    -0.128323932920E+04   -0.72138E-05   -0.10944E-04 10640   0.362E-04 0.407E-04
  28 F= -.12832393E+04 E0= -.12832393E+04  d E =-.801171E-02  mag=    47.0000
       N       E                     dE             d eps       ncg     rms          ort
SDA:   1    -0.127407945809E+04    0.91599E+01    0.00000E+00 10640   0.245E+02 0.000E+00
CGA:   2    -0.128029498848E+04   -0.62155E+01   -0.62156E+01 10640   0.118E+02 0.778E-02
CGA:   3    -0.128271175231E+04   -0.24168E+01   -0.24158E+01 10640   0.286E+01 0.164E-02
CGA:   4    -0.128312109643E+04   -0.40934E+00   -0.40840E+00 10640   0.568E+00-0.142E-02
CGA:   5    -0.128322314975E+04   -0.10205E+00   -0.10235E+00 10640   0.149E+00 0.342E-02
CGA:   6    -0.128325017188E+04   -0.27022E-01   -0.27074E-01 10640   0.512E-01 0.107E-02
CGA:   7    -0.128326073889E+04   -0.10567E-01   -0.10500E-01 10640   0.192E-01-0.176E-02
CGA:   8    -0.128326470962E+04   -0.39707E-02   -0.39394E-02 10640   0.835E-02-0.114E-02
CGA:   9    -0.128326700467E+04   -0.22951E-02   -0.23326E-02 10640   0.570E-02-0.641E-03
CGA:  10    -0.128326845434E+04   -0.14497E-02   -0.14977E-02 10640   0.504E-02-0.110E-02
CGA:  11    -0.128326941775E+04   -0.96341E-03   -0.95908E-03 10640   0.272E-02-0.612E-03
CGA:  12    -0.128327019475E+04   -0.77700E-03   -0.84658E-03 10640   0.288E-02-0.623E-03
CGA:  13    -0.128327083965E+04   -0.64490E-03   -0.75237E-03 10640   0.394E-02-0.126E-02
CGA:  14    -0.128327143551E+04   -0.59587E-03   -0.60737E-03 10640   0.210E-02-0.610E-03
CGA:  15    -0.128327197816E+04   -0.54265E-03   -0.54107E-03 10640   0.136E-02 0.149E-04
CGA:  16    -0.128327232031E+04   -0.34215E-03   -0.33965E-03 10640   0.907E-03-0.294E-03
CGA:  17    -0.128327242034E+04   -0.10002E-03   -0.11198E-03 10640   0.360E-03 0.123E-03
CGA:  18    -0.128327245425E+04   -0.33913E-04   -0.53886E-04 10640   0.217E-03 0.167E-03
CGA:  19    -0.128327248687E+04   -0.32624E-04   -0.46336E-04 10640   0.126E-03 0.137E-03
CGA:  20    -0.128327252107E+04   -0.34197E-04   -0.33861E-04 10640   0.143E-03 0.117E-04
CGA:  21    -0.128327252858E+04   -0.75095E-05   -0.20306E-04 10640   0.814E-04 0.114E-03
  29 F= -.12832725E+04 E0= -.12832725E+04  d E =-.331994E-01  mag=    47.0000
       N       E                     dE             d eps       ncg     rms          ort
SDA:   1    -0.126450612649E+04    0.18766E+02    0.00000E+00 10640   0.587E+02 0.000E+00
CGA:   2    -0.127632134089E+04   -0.11815E+02   -0.11821E+02 10640   0.228E+02 0.103E+00
CGA:   3    -0.128187105905E+04   -0.55497E+01   -0.55503E+01 10640   0.626E+01-0.248E-01
CGA:   4    -0.128281912790E+04   -0.94807E+00   -0.95421E+00 10640   0.102E+01-0.468E-02
CGA:   5    -0.128301907139E+04   -0.19994E+00   -0.19970E+00 10640   0.277E+00-0.339E-02
CGA:   6    -0.128307480571E+04   -0.55734E-01   -0.55637E-01 10640   0.975E-01-0.580E-02
CGA:   7    -0.128309440850E+04   -0.19603E-01   -0.19562E-01 10640   0.311E-01-0.218E-02
CGA:   8    -0.128310175073E+04   -0.73422E-02   -0.74307E-02 10640   0.201E-01-0.366E-02
CGA:   9    -0.128310626663E+04   -0.45159E-02   -0.46565E-02 10640   0.137E-01-0.344E-02
CGA:  10    -0.128310956279E+04   -0.32962E-02   -0.44025E-02 10640   0.165E-01-0.672E-02
CGA:  11    -0.128311156111E+04   -0.19983E-02   -0.23373E-02 10640   0.115E-01-0.724E-02
CGA:  12    -0.128311260405E+04   -0.10429E-02   -0.32762E-02 10640   0.159E-01-0.827E-02
CGA:  13    -0.128311534355E+04   -0.27395E-02   -0.27793E-02 10640   0.690E-02 0.553E-03
CGA:  14    -0.128311659917E+04   -0.12556E-02   -0.13287E-02 10640   0.242E-02 0.126E-02
CGA:  15    -0.128311724609E+04   -0.64692E-03   -0.66116E-03 10640   0.127E-02 0.142E-02
CGA:  16    -0.128311753371E+04   -0.28761E-03   -0.28868E-03 10640   0.116E-02 0.849E-04
CGA:  17    -0.128311768526E+04   -0.15155E-03   -0.20283E-03 10640   0.464E-03 0.667E-03
CGA:  18    -0.128311768777E+04   -0.25138E-05   -0.45122E-04 10640   0.271E-03 0.306E-03
CGA:  19    -0.128311769845E+04   -0.10671E-04   -0.34859E-04 10640   0.219E-03 0.239E-03
CGA:  20    -0.128311770557E+04   -0.71196E-05   -0.27220E-04 10640   0.188E-03 0.201E-03
CGA:  21    -0.128311770814E+04   -0.25710E-05   -0.21261E-04 10640   0.166E-03 0.176E-03
CGA:  22    -0.128311770872E+04   -0.58371E-06   -0.17613E-04 10640   0.150E-03 0.157E-03
CGA:  23    -0.128311770789E+04    0.82542E-06   -0.14806E-04 10640   0.136E-03 0.142E-03
CGA:  24    -0.128311770619E+04    0.17054E-05   -0.12653E-04 10640   0.125E-03 0.130E-03
CGA:  25    -0.128311770392E+04    0.22654E-05   -0.10948E-04 10640   0.116E-03 0.120E-03
  30 F= -.12831177E+04 E0= -.12831177E+04  d E =0.154825E+00  mag=    47.0000
       N       E                     dE             d eps       ncg     rms          ort
SDA:   1    -0.127923013310E+04    0.38876E+01    0.00000E+00 10640   0.133E+02 0.000E+00
CGA:   2    -0.128181097651E+04   -0.25808E+01   -0.25810E+01 10640   0.491E+01-0.133E-01
CGA:   3    -0.128304002326E+04   -0.12290E+01   -0.12279E+01 10640   0.137E+01 0.167E-01
CGA:   4    -0.128325041394E+04   -0.21039E+00   -0.21072E+00 10640   0.207E+00 0.796E-02
CGA:   5    -0.128329149387E+04   -0.41080E-01   -0.41052E-01 10640   0.578E-01 0.353E-02
CGA:   6    -0.128330262391E+04   -0.11130E-01   -0.11130E-01 10640   0.194E-01 0.822E-03
CGA:   7    -0.128330641988E+04   -0.37960E-02   -0.37946E-02 10640   0.513E-02 0.352E-03
CGA:   8    -0.128330764001E+04   -0.12201E-02   -0.12316E-02 10640   0.252E-02-0.239E-03
CGA:   9    -0.128330808859E+04   -0.44858E-03   -0.45036E-03 10640   0.917E-03 0.445E-03
CGA:  10    -0.128330828224E+04   -0.19366E-03   -0.19754E-03 10640   0.352E-03 0.483E-03
CGA:  11    -0.128330832805E+04   -0.45804E-04   -0.54232E-04 10640   0.207E-03 0.229E-03
CGA:  12    -0.128330834700E+04   -0.18953E-04   -0.27998E-04 10640   0.158E-03 0.169E-03
CGA:  13    -0.128330836191E+04   -0.14910E-04   -0.21690E-04 10640   0.129E-03 0.139E-03
CGA:  14    -0.128330836944E+04   -0.75262E-05   -0.15351E-04 10640   0.113E-03 0.120E-03
CGA:  15    -0.128330837551E+04   -0.60771E-05   -0.13003E-04 10640   0.100E-03 0.106E-03
CGA:  16    -0.128330837937E+04   -0.38537E-05   -0.10664E-04 10640   0.914E-04 0.957E-04
  31 F= -.12833084E+04 E0= -.12833084E+04  d E =-.190675E+00  mag=    47.0000
       N       E                     dE             d eps       ncg     rms          ort
SDA:   1    -0.128264053616E+04    0.66784E+00    0.00000E+00 10640   0.223E+01 0.000E+00
CGA:   2    -0.128308090343E+04   -0.44037E+00   -0.44048E+00 10640   0.833E+00-0.352E-02
CGA:   3    -0.128328867036E+04   -0.20777E+00   -0.20742E+00 10640   0.221E+00 0.407E-02
CGA:   4    -0.128332270199E+04   -0.34032E-01   -0.34072E-01 10640   0.353E-01 0.182E-02
CGA:   5    -0.128332961636E+04   -0.69144E-02   -0.68984E-02 10640   0.970E-02 0.855E-03
CGA:   6    -0.128333143526E+04   -0.18189E-02   -0.18151E-02 10640   0.316E-02 0.507E-03
CGA:   7    -0.128333208149E+04   -0.64623E-03   -0.64167E-03 10640   0.822E-03 0.268E-03
CGA:   8    -0.128333229641E+04   -0.21492E-03   -0.21076E-03 10640   0.404E-03 0.703E-04
CGA:   9    -0.128333235169E+04   -0.55271E-04   -0.63114E-04 10640   0.177E-03 0.220E-03
CGA:  10    -0.128333237512E+04   -0.23438E-04   -0.26689E-04 10640   0.991E-04 0.120E-03
CGA:  11    -0.128333238157E+04   -0.64443E-05   -0.11672E-04 10640   0.818E-04 0.893E-04
  32 F= -.12833324E+04 E0= -.12833324E+04  d E =-.240022E-01  mag=    47.0000
       N       E                     dE             d eps       ncg     rms          ort
SDA:   1    -0.128315859897E+04    0.17378E+00    0.00000E+00 10640   0.540E+00 0.000E+00
CGA:   2    -0.128327524663E+04   -0.11665E+00   -0.11661E+00 10640   0.220E+00 0.883E-03
CGA:   3    -0.128332838770E+04   -0.53141E-01   -0.53203E-01 10640   0.491E-01-0.971E-03
CGA:   4    -0.128333639421E+04   -0.80065E-02   -0.80021E-02 10640   0.862E-02-0.353E-03
CGA:   5    -0.128333814946E+04   -0.17553E-02   -0.17539E-02 10640   0.199E-02 0.500E-04
CGA:   6    -0.128333852381E+04   -0.37434E-03   -0.37166E-03 10640   0.593E-03 0.325E-03
CGA:   7    -0.128333865379E+04   -0.12998E-03   -0.12881E-03 10640   0.188E-03 0.127E-03
CGA:   8    -0.128333869379E+04   -0.39998E-04   -0.40201E-04 10640   0.894E-04 0.102E-03
CGA:   9    -0.128333871118E+04   -0.17396E-04   -0.16828E-04 10640   0.550E-04 0.542E-04
CGA:  10    -0.128333873215E+04   -0.20963E-04   -0.16935E-04 10640   0.613E-04 0.310E-04
CGA:  11    -0.128333873249E+04   -0.34694E-06   -0.46242E-05 10640   0.350E-04 0.391E-04
  33 F= -.12833387E+04 E0= -.12833387E+04  d E =-.635093E-02  mag=    47.0000
       N       E                     dE             d eps       ncg     rms          ort
SDA:   1    -0.128310674302E+04    0.23199E+00    0.00000E+00 10640   0.645E+00 0.000E+00
CGA:   2    -0.128326609618E+04   -0.15935E+00   -0.15923E+00 10640   0.291E+00 0.181E-02
CGA:   3    -0.128333034354E+04   -0.64247E-01   -0.64307E-01 10640   0.571E-01-0.151E-02
CGA:   4    -0.128334002607E+04   -0.96825E-02   -0.96706E-02 10640   0.113E-01-0.101E-02
CGA:   5    -0.128334222563E+04   -0.21996E-02   -0.21985E-02 10640   0.251E-02 0.697E-04
CGA:   6    -0.128334274023E+04   -0.51460E-03   -0.51128E-03 10640   0.821E-03 0.168E-03
CGA:   7    -0.128334290392E+04   -0.16370E-03   -0.16326E-03 10640   0.247E-03 0.128E-03
CGA:   8    -0.128334296941E+04   -0.65485E-04   -0.62275E-04 10640   0.114E-03 0.915E-04
CGA:   9    -0.128334303313E+04   -0.63718E-04   -0.63109E-04 10640   0.143E-03 0.246E-05
CGA:  10    -0.128334305754E+04   -0.24417E-04   -0.25352E-04 10640   0.881E-04 0.425E-04
CGA:  11    -0.128334307899E+04   -0.21447E-04   -0.21704E-04 10640   0.645E-04 0.497E-04
CGA:  12    -0.128334309449E+04   -0.15501E-04   -0.15308E-04 10640   0.668E-04 0.453E-05
CGA:  13    -0.128334310340E+04   -0.89114E-05   -0.10862E-04 10640   0.300E-04 0.435E-04
  34 F= -.12833431E+04 E0= -.12833431E+04  d E =-.437091E-02  mag=    47.0000
       N       E                     dE             d eps       ncg     rms          ort
SDA:   1    -0.128268574226E+04    0.65735E+00    0.00000E+00 10640   0.186E+01 0.000E+00
CGA:   2    -0.128312084283E+04   -0.43510E+00   -0.43498E+00 10640   0.823E+00 0.303E-02
CGA:   3    -0.128331144138E+04   -0.19060E+00   -0.19074E+00 10640   0.162E+00-0.414E-02
CGA:   4    -0.128333842089E+04   -0.26980E-01   -0.26936E-01 10640   0.301E-01-0.151E-02
CGA:   5    -0.128334451397E+04   -0.60931E-02   -0.60916E-02 10640   0.692E-02 0.148E-03
CGA:   6    -0.128334604312E+04   -0.15291E-02   -0.15269E-02 10640   0.241E-02 0.940E-04
CGA:   7    -0.128334649330E+04   -0.45018E-03   -0.45202E-03 10640   0.760E-03 0.176E-03
CGA:   8    -0.128334671710E+04   -0.22381E-03   -0.22139E-03 10640   0.416E-03 0.315E-04
CGA:   9    -0.128334686957E+04   -0.15246E-03   -0.17385E-03 10640   0.561E-03-0.106E-03
CGA:  10    -0.128334695301E+04   -0.83447E-04   -0.82961E-04 10640   0.328E-03-0.475E-04
CGA:  11    -0.128334703535E+04   -0.82332E-04   -0.80762E-04 10640   0.222E-03 0.242E-04
CGA:  12    -0.128334709765E+04   -0.62301E-04   -0.62910E-04 10640   0.277E-03-0.126E-04
CGA:  13    -0.128334715516E+04   -0.57511E-04   -0.57276E-04 10640   0.174E-03 0.404E-04
CGA:  14    -0.128334718119E+04   -0.26031E-04   -0.31169E-04 10640   0.125E-03 0.867E-04
CGA:  15    -0.128334721182E+04   -0.30633E-04   -0.33178E-04 10640   0.724E-04 0.742E-04
CGA:  16    -0.128334692610E+04    0.28572E-03   -0.15402E-03 10640   0.347E-02-0.337E-03
CGA:  17    -0.128334722712E+04   -0.30102E-03   -0.35956E-03 10640   0.128E-03 0.227E-03
CGA:  18    -0.128334724545E+04   -0.18331E-04   -0.22608E-04 10640   0.453E-04 0.213E-04
CGA:  19    -0.128334726349E+04   -0.18041E-04   -0.17553E-04 10640   0.350E-04-0.186E-04
CGA:  20    -0.128334726587E+04   -0.23796E-05   -0.34229E-05 10640   0.253E-04 0.543E-05
  35 F= -.12833473E+04 E0= -.12833473E+04  d E =-.416247E-02  mag=    47.0000
       N       E                     dE             d eps       ncg     rms          ort
SDA:   1    -0.126840532437E+04    0.14942E+02    0.00000E+00 10640   0.476E+02 0.000E+00
CGA:   2    -0.127780439339E+04   -0.93991E+01   -0.94193E+01 10640   0.175E+02 0.654E-02
CGA:   3    -0.128222733301E+04   -0.44229E+01   -0.44255E+01 10640   0.452E+01 0.274E-01
CGA:   4    -0.128294266658E+04   -0.71533E+00   -0.71782E+00 10640   0.730E+00 0.832E-02
CGA:   5    -0.128309042464E+04   -0.14776E+00   -0.14786E+00 10640   0.189E+00 0.127E-02
CGA:   6    -0.128312893922E+04   -0.38515E-01   -0.38385E-01 10640   0.692E-01-0.991E-03
CGA:   7    -0.128314249886E+04   -0.13560E-01   -0.13305E-01 10640   0.203E-01-0.212E-02
CGA:   8    -0.128314712911E+04   -0.46303E-02   -0.45609E-02 10640   0.972E-02-0.937E-03
CGA:   9    -0.128314938693E+04   -0.22578E-02   -0.22460E-02 10640   0.527E-02-0.194E-03
CGA:  10    -0.128315086551E+04   -0.14786E-02   -0.14718E-02 10640   0.338E-02-0.531E-03
CGA:  11    -0.128315162780E+04   -0.76229E-03   -0.76422E-03 10640   0.179E-02 0.450E-04
CGA:  12    -0.128315210311E+04   -0.47531E-03   -0.12722E-02 10640   0.821E-02-0.198E-02
[...]
CGA:   4    -0.128319216008E+04   -0.50660E+00   -0.51467E+00 10640   0.564E+00-0.292E-01
CGA:   5    -0.128328837584E+04   -0.96216E-01   -0.96277E-01 10640   0.149E+00 0.269E-02
CGA:   6    -0.128331853254E+04   -0.30157E-01   -0.30032E-01 10640   0.421E-01-0.743E-03
CGA:   7    -0.128332726271E+04   -0.87302E-02   -0.86929E-02 10640   0.143E-01-0.264E-03
CGA:   8    -0.128332999673E+04   -0.27340E-02   -0.26609E-02 10640   0.537E-02-0.474E-03
CGA:   9    -0.128333136634E+04   -0.13696E-02   -0.13414E-02 10640   0.297E-02-0.406E-03
CGA:  10    -0.128333208151E+04   -0.71517E-03   -0.68735E-03 10640   0.185E-02-0.377E-03
CGA:  11    -0.128333250369E+04   -0.42218E-03   -0.40503E-03 10640   0.967E-03-0.248E-03
CGA:  12    -0.128333279226E+04   -0.28857E-03   -0.31702E-03 10640   0.141E-02-0.457E-03
CGA:  13    -0.128333298371E+04   -0.19145E-03   -0.15275E-03 10640   0.718E-03-0.340E-03
CGA:  14    -0.128333320248E+04   -0.21876E-03   -0.28943E-03 10640   0.136E-02-0.329E-03
CGA:  15    -0.128333335777E+04   -0.15530E-03   -0.11235E-03 10640   0.865E-03-0.251E-03
CGA:  16    -0.128333358002E+04   -0.22225E-03   -0.22189E-03 10640   0.130E-02-0.276E-03
CGA:  17    -0.128333366983E+04   -0.89808E-04   -0.97400E-04 10640   0.621E-03 0.364E-04
CGA:  18    -0.128333370261E+04   -0.32778E-04   -0.60023E-04 10640   0.345E-03 0.129E-03
CGA:  19    -0.128333373142E+04   -0.28813E-04   -0.50390E-04 10640   0.267E-03 0.123E-03
CGA:  20    -0.128333377389E+04   -0.42466E-04   -0.49470E-04 10640   0.146E-03 0.464E-04
CGA:  21    -0.128333380149E+04   -0.27604E-04   -0.27184E-04 10640   0.126E-03-0.378E-05
CGA:  22    -0.128333380266E+04   -0.11677E-05   -0.12054E-04 10640   0.110E-03 0.621E-04
CGA:  23    -0.128333379578E+04    0.68754E-05   -0.11742E-04 10640   0.606E-04 0.966E-04
  43 F= -.12833338E+04 E0= -.12833338E+04  d E =-.192137E+00  mag=    47.0000
       N       E                     dE             d eps       ncg     rms          ort
SDA:   1    -0.128289233385E+04    0.44147E+00    0.00000E+00 10640   0.124E+01 0.000E+00
CGA:   2    -0.128319117604E+04   -0.29884E+00   -0.29885E+00 10640   0.567E+00 0.647E-03
CGA:   3    -0.128332112246E+04   -0.12995E+00   -0.12993E+00 10640   0.103E+00-0.140E-02
CGA:   4    -0.128333771005E+04   -0.16588E-01   -0.16588E-01 10640   0.206E-01-0.264E-04
CGA:   5    -0.128334169446E+04   -0.39844E-02   -0.39724E-02 10640   0.609E-02-0.232E-03
CGA:   6    -0.128334267613E+04   -0.98167E-03   -0.99542E-03 10640   0.196E-02 0.193E-03
CGA:   7    -0.128334309249E+04   -0.41636E-03   -0.41566E-03 10640   0.544E-03-0.224E-04
CGA:   8    -0.128334322732E+04   -0.13483E-03   -0.13624E-03 10640   0.348E-03-0.696E-04
CGA:   9    -0.128334327930E+04   -0.51979E-04   -0.53670E-04 10640   0.127E-03 0.300E-04
CGA:  10    -0.128334327603E+04    0.32651E-05   -0.10760E-03 10640   0.574E-03-0.201E-03
CGA:  11    -0.128334335126E+04   -0.75225E-04   -0.87196E-04 10640   0.849E-04 0.112E-03
CGA:  12    -0.128334338125E+04   -0.29990E-04   -0.34848E-04 10640   0.118E-03-0.540E-04
CGA:  13    -0.128334338477E+04   -0.35232E-05   -0.10626E-04 10640   0.290E-04 0.425E-04
  44 F= -.12833434E+04 E0= -.12833434E+04  d E =-.958899E-02  mag=    47.0000
       N       E                     dE             d eps       ncg     rms          ort
SDA:   1    -0.127011488361E+04    0.13228E+02    0.00000E+00 10640   0.358E+02 0.000E+00
CGA:   2    -0.127891394649E+04   -0.87991E+01   -0.87988E+01 10640   0.168E+02 0.353E-01
CGA:   3    -0.128264939907E+04   -0.37355E+01   -0.37340E+01 10640   0.344E+01-0.325E-01
CGA:   4    -0.128314484526E+04   -0.49545E+00   -0.49896E+00 10640   0.751E+00-0.703E-02
CGA:   5    -0.128327420223E+04   -0.12936E+00   -0.12921E+00 10640   0.211E+00 0.845E-03
CGA:   6    -0.128331287524E+04   -0.38673E-01   -0.38670E-01 10640   0.612E-01 0.417E-03
CGA:   7    -0.128332648012E+04   -0.13605E-01   -0.13582E-01 10640   0.200E-01-0.250E-02
CGA:   8    -0.128333027612E+04   -0.37960E-02   -0.37703E-02 10640   0.839E-02-0.704E-03
CGA:   9    -0.128333239392E+04   -0.21178E-02   -0.21576E-02 10640   0.479E-02-0.104E-02
CGA:  10    -0.128333346126E+04   -0.10673E-02   -0.11153E-02 10640   0.377E-02-0.135E-02
CGA:  11    -0.128333403110E+04   -0.56984E-03   -0.54951E-03 10640   0.126E-02-0.685E-03
CGA:  12    -0.128333436207E+04   -0.33097E-03   -0.40323E-03 10640   0.103E-02-0.447E-03
CGA:  13    -0.128333452816E+04   -0.16609E-03   -0.24063E-03 10640   0.187E-02-0.600E-03
CGA:  14    -0.128333467620E+04   -0.14804E-03   -0.19094E-03 10640   0.393E-03 0.305E-03
CGA:  15    -0.128333476037E+04   -0.84167E-04   -0.91208E-04 10640   0.242E-03 0.184E-03
CGA:  16    -0.128333483350E+04   -0.73136E-04   -0.73710E-04 10640   0.193E-03 0.197E-04
CGA:  17    -0.128333484801E+04   -0.14510E-04   -0.27361E-04 10640   0.138E-03 0.123E-03
CGA:  18    -0.128333485385E+04   -0.58351E-05   -0.15347E-04 10640   0.735E-04 0.807E-04
CGA:  19    -0.128333488348E+04   -0.29633E-04   -0.24569E-04 10640   0.516E-04 0.454E-04
CGA:  20    -0.128333488428E+04   -0.79954E-06   -0.57313E-05 10640   0.428E-04 0.417E-04
CGA:  21    -0.128333490156E+04   -0.17276E-04   -0.13582E-04 10640   0.410E-04 0.390E-04
CGA:  22    -0.128333490568E+04   -0.41201E-05   -0.65371E-05 10640   0.387E-04 0.351E-04
CGA:  23    -0.128333493136E+04   -0.25679E-04   -0.18871E-04 10640   0.746E-04 0.255E-04
CGA:  24    -0.128333493358E+04   -0.22223E-05   -0.67105E-05 10640   0.322E-04 0.304E-04
  45 F= -.12833349E+04 E0= -.12833349E+04  d E =0.845119E-02  mag=    47.0000
       N       E                     dE             d eps       ncg     rms          ort
SDA:   1    -0.126922880639E+04    0.14106E+02    0.00000E+00 10640   0.364E+02 0.000E+00
CGA:   2    -0.127896369929E+04   -0.97349E+01   -0.97351E+01 10640   0.174E+02-0.840E-02
CGA:   3    -0.128271423455E+04   -0.37505E+01   -0.37506E+01 10640   0.267E+01-0.794E-02
CGA:   4    -0.128316706602E+04   -0.45283E+00   -0.45276E+00 10640   0.584E+00-0.215E-03
CGA:   5    -0.128327748671E+04   -0.11042E+00   -0.11051E+00 10640   0.167E+00 0.244E-02
CGA:   6    -0.128330656226E+04   -0.29076E-01   -0.28990E-01 10640   0.629E-01-0.131E-02
CGA:   7    -0.128331872065E+04   -0.12158E-01   -0.12100E-01 10640   0.167E-01-0.214E-02
CGA:   8    -0.128332256789E+04   -0.38472E-02   -0.38610E-02 10640   0.806E-02-0.668E-03
CGA:   9    -0.128332448274E+04   -0.19148E-02   -0.19639E-02 10640   0.557E-02-0.143E-02
CGA:  10    -0.128332549885E+04   -0.10161E-02   -0.10165E-02 10640   0.221E-02-0.750E-03
CGA:  11    -0.128332602498E+04   -0.52613E-03   -0.61625E-03 10640   0.201E-02-0.891E-03
CGA:  12    -0.128332624377E+04   -0.21879E-03   -0.19378E-03 10640   0.751E-03-0.381E-03
CGA:  13    -0.128332645063E+04   -0.20686E-03   -0.22926E-03 10640   0.702E-03-0.147E-03
CGA:  14    -0.128332654412E+04   -0.93490E-04   -0.92499E-04 10640   0.475E-03-0.151E-04
CGA:  15    -0.128332666379E+04   -0.11967E-03   -0.11726E-03 10640   0.307E-03 0.968E-04
CGA:  16    -0.128332672552E+04   -0.61735E-04   -0.65140E-04 10640   0.193E-03 0.645E-04
CGA:  17    -0.128332677192E+04   -0.46392E-04   -0.47977E-04 10640   0.123E-03 0.734E-04
CGA:  18    -0.128332678033E+04   -0.84105E-05   -0.19224E-04 10640   0.601E-04 0.959E-04
  46 F= -.12833268E+04 E0= -.12833268E+04  d E =0.815325E-02  mag=    47.0000
       N       E                     dE             d eps       ncg     rms          ort
SDA:   1    -0.124711113081E+04    0.36216E+02    0.00000E+00 10640   0.101E+03 0.000E+00
CGA:   2    -0.127068532768E+04   -0.23574E+02   -0.23573E+02 10640   0.476E+02 0.493E-01
CGA:   3    -0.128088096564E+04   -0.10196E+02   -0.10196E+02 10640   0.126E+02 0.185E+00
CGA:   4    -0.128256106964E+04   -0.16801E+01   -0.16438E+01 10640   0.240E+01 0.890E-01
CGA:   5    -0.128298750947E+04   -0.42644E+00   -0.42693E+00 10640   0.652E+00 0.800E-02
CGA:   6    -0.128311266232E+04   -0.12515E+00   -0.12515E+00 10640   0.190E+00 0.147E-02
CGA:   7    -0.128315342141E+04   -0.40759E-01   -0.40821E-01 10640   0.749E-01-0.870E-02
CGA:   8    -0.128316598560E+04   -0.12564E-01   -0.12499E-01 10640   0.267E-01-0.179E-02
CGA:   9    -0.128317274594E+04   -0.67603E-02   -0.69190E-02 10640   0.163E-01-0.267E-02
CGA:  10    -0.128317590013E+04   -0.31542E-02   -0.31668E-02 10640   0.898E-02-0.200E-02
CGA:  11    -0.128317789960E+04   -0.19995E-02   -0.21296E-02 10640   0.490E-02-0.214E-02
CGA:  12    -0.128317874563E+04   -0.84603E-03   -0.86950E-03 10640   0.304E-02-0.113E-02
CGA:  13    -0.128317934918E+04   -0.60355E-03   -0.71858E-03 10640   0.310E-02-0.122E-02
CGA:  14    -0.128317972766E+04   -0.37848E-03   -0.37539E-03 10640   0.161E-02-0.202E-03
CGA:  15    -0.128318023929E+04   -0.51164E-03   -0.48705E-03 10640   0.964E-03 0.224E-03
CGA:  16    -0.128318044995E+04   -0.21066E-03   -0.21770E-03 10640   0.697E-03 0.284E-03
CGA:  17    -0.128318058608E+04   -0.13613E-03   -0.15526E-03 10640   0.280E-03 0.383E-03
CGA:  18    -0.128318062307E+04   -0.36992E-04   -0.44694E-04 10640   0.158E-03 0.130E-03
CGA:  19    -0.128318063373E+04   -0.10664E-04   -0.27866E-04 10640   0.118E-03 0.179E-03
CGA:  20    -0.128318063810E+04   -0.43647E-05   -0.13415E-04 10640   0.914E-04 0.922E-04
CGA:  21    -0.128318064138E+04   -0.32783E-05   -0.10875E-04 10640   0.838E-04 0.866E-04
  47 F= -.12831806E+04 E0= -.12831806E+04  d E =0.146139E+00  mag=    47.0000
       N       E                     dE             d eps       ncg     rms          ort
SDA:   1    -0.127701309867E+04    0.61675E+01    0.00000E+00 10640   0.207E+02 0.000E+00
CGA:   2    -0.128101050698E+04   -0.39974E+01   -0.39974E+01 10640   0.752E+01 0.120E-01
CGA:   3    -0.128290509443E+04   -0.18946E+01   -0.18943E+01 10640   0.220E+01-0.199E-02
CGA:   4    -0.128323933016E+04   -0.33424E+00   -0.33452E+00 10640   0.339E+00 0.101E-01
CGA:   5    -0.128330469059E+04   -0.65360E-01   -0.65346E-01 10640   0.111E+00-0.276E-02
CGA:   6    -0.128332256731E+04   -0.17877E-01   -0.17946E-01 10640   0.354E-01 0.213E-02
CGA:   7    -0.128332945479E+04   -0.68875E-02   -0.68910E-02 10640   0.972E-02 0.875E-03
CGA:   8    -0.128333172854E+04   -0.22737E-02   -0.23269E-02 10640   0.567E-02-0.138E-02
CGA:   9    -0.128333252132E+04   -0.79278E-03   -0.81312E-03 10640   0.181E-02 0.686E-03
CGA:  10    -0.128333309189E+04   -0.57057E-03   -0.56134E-03 10640   0.984E-03 0.115E-03
CGA:  11    -0.128333290052E+04    0.19138E-03   -0.65611E-03 10640   0.856E-02-0.198E-02
CGA:  12    -0.128333350958E+04   -0.60906E-03   -0.76063E-03 10640   0.725E-03 0.120E-02
CGA:  13    -0.128333361130E+04   -0.10172E-03   -0.12037E-03 10640   0.395E-03 0.271E-03
CGA:  14    -0.128333373620E+04   -0.12490E-03   -0.22076E-03 10640   0.882E-03-0.490E-03
CGA:  15    -0.128333379285E+04   -0.56648E-04   -0.90223E-04 10640   0.242E-03 0.285E-03
CGA:  16    -0.128333384156E+04   -0.48706E-04   -0.53516E-04 10640   0.118E-03 0.100E-03
CGA:  17    -0.128333391718E+04   -0.75622E-04    0.26457E-03 10640   0.123E-03-0.184E-04
CGA:  18    -0.128333396145E+04   -0.44273E-04    0.28108E-01 10640   0.158E-03 0.282E-04
CGA:  19    -0.128333399151E+04   -0.30052E-04   -0.33487E-04 10640   0.174E-03 0.841E-04
CGA:  20    -0.128333320038E+04    0.79112E-03   -0.42622E-03 10640   0.106E-01-0.887E-03
CGA:  21    -0.128333402198E+04   -0.82160E-03   -0.91607E-03 10640   0.432E-03 0.378E-03
CGA:  22    -0.128333410001E+04   -0.78028E-04   -0.95976E-04 10640   0.182E-03 0.116E-03
CGA:  23    -0.128333418223E+04   -0.82224E-04   -0.93038E-04 10640   0.576E-03-0.263E-03
CGA:  24    -0.128333419422E+04   -0.11988E-04   -0.47297E-04 10640   0.713E-04 0.128E-03
CGA:  25    -0.128333419428E+04   -0.51939E-07   -0.94386E-05 10640   0.496E-04 0.390E-04
CGA:  26    -0.128333424738E+04   -0.53102E-04    0.14249E-04 10640   0.105E-03-0.125E-04
CGA:  27    -0.128333427529E+04   -0.27911E-04   -0.30098E-04 10640   0.111E-03-0.484E-04
CGA:  28    -0.128333427865E+04   -0.33611E-05   -0.90018E-05 10640   0.114E-03 0.295E-04
CGA:  29    -0.128333435600E+04   -0.77354E-04   -0.11357E-03 10640   0.561E-03-0.829E-04
CGA:  30    -0.128333446843E+04   -0.11242E-03   -0.75005E-04 10640   0.166E-03-0.169E-03
CGA:  31    -0.128333450273E+04   -0.34306E-04   -0.31796E-04 10640   0.505E-04-0.365E-04
CGA:  32    -0.128333450045E+04    0.22808E-05   -0.26675E-05 10640   0.144E-04 0.183E-04
  48 F= -.12833345E+04 E0= -.12833345E+04  d E =-.153859E+00  mag=    47.0000
       N       E                     dE             d eps       ncg     rms          ort
SDA:   1    -0.128297421567E+04    0.36029E+00    0.00000E+00 10640   0.104E+01 0.000E+00
CGA:   2    -0.128321786729E+04   -0.24365E+00   -0.24372E+00 10640   0.457E+00 0.110E-02
CGA:   3    -0.128332224162E+04   -0.10437E+00   -0.10427E+00 10640   0.997E-01-0.147E-02
CGA:   4    -0.128333756743E+04   -0.15326E-01   -0.15269E-01 10640   0.215E-01-0.336E-03
CGA:   5    -0.128334115956E+04   -0.35921E-02   -0.35804E-02 10640   0.638E-02-0.699E-04
CGA:   6    -0.128334218941E+04   -0.10298E-02   -0.10506E-02 10640   0.178E-02 0.170E-03
CGA:   7    -0.128334257285E+04   -0.38345E-03   -0.39032E-03 10640   0.488E-03 0.997E-04
CGA:   8    -0.128334270728E+04   -0.13443E-03   -0.13298E-03 10640   0.334E-03-0.660E-04
CGA:   9    -0.128334277137E+04   -0.64093E-04   -0.62549E-04 10640   0.169E-03-0.243E-04
CGA:  10    -0.128334231379E+04    0.45759E-03   -0.20588E-03 10640   0.426E-02-0.638E-03
CGA:  11    -0.128334274675E+04   -0.43296E-03   -0.47016E-03 10640   0.810E-03 0.178E-03
CGA:  12    -0.128334288931E+04   -0.14257E-03   -0.15152E-03 10640   0.143E-03 0.657E-04
CGA:  13    -0.128334295036E+04   -0.61050E-04   -0.10447E-03 10640   0.430E-03-0.119E-03
CGA:  14    -0.128334296386E+04   -0.13499E-04   -0.41190E-04 10640   0.730E-04 0.120E-03
CGA:  15    -0.128334297582E+04   -0.11954E-04   -0.14880E-04 10640   0.400E-04 0.186E-04
CGA:  16    -0.128334302229E+04   -0.46476E-04    0.15443E-04 10640   0.490E-04-0.376E-04
CGA:  17    -0.128334301846E+04    0.38339E-05   -0.33616E-05 10640   0.209E-04 0.300E-04
  49 F= -.12833430E+04 E0= -.12833430E+04  d E =-.851801E-02  mag=    47.0000
       N       E                     dE             d eps       ncg     rms          ort
SDA:   1    -0.128013987890E+04    0.32031E+01    0.00000E+00 10640   0.829E+01 0.000E+00
CGA:   2    -0.128235760297E+04   -0.22177E+01   -0.22177E+01 10640   0.387E+01-0.958E-03
CGA:   3    -0.128318293625E+04   -0.82533E+00   -0.82532E+00 10640   0.653E+00-0.618E-03
CGA:   4    -0.128329612608E+04   -0.11319E+00   -0.11305E+00 10640   0.130E+00-0.122E-02
CGA:   5    -0.128332246200E+04   -0.26336E-01   -0.26387E-01 10640   0.286E-01 0.709E-03
CGA:   6    -0.128332902595E+04   -0.65640E-02   -0.65495E-02 10640   0.109E-01-0.300E-03
CGA:   7    -0.128333085426E+04   -0.18283E-02   -0.18244E-02 10640   0.386E-02-0.332E-04
CGA:   8    -0.128333172017E+04   -0.86591E-03   -0.85295E-03 10640   0.194E-02-0.286E-03
CGA:   9    -0.128333221612E+04   -0.49595E-03   -0.50419E-03 10640   0.162E-02-0.502E-03
CGA:  10    -0.128333249793E+04   -0.28182E-03   -0.26942E-03 10640   0.692E-03-0.310E-03
CGA:  11    -0.128333267777E+04   -0.17983E-03   -0.20260E-03 10640   0.481E-03-0.229E-03
CGA:  12    -0.128333276113E+04   -0.83369E-04   -0.80943E-04 10640   0.488E-03-0.150E-03
CGA:  13    -0.128333286131E+04   -0.10018E-03   -0.10898E-03 10640   0.374E-03-0.154E-03
CGA:  14    -0.128333290636E+04   -0.45045E-04   -0.16515E-03 10640   0.148E-02-0.321E-03
CGA:  15    -0.128333306897E+04   -0.16261E-03   -0.16353E-03 10640   0.252E-03 0.773E-05
CGA:  16    -0.128333311980E+04   -0.50829E-04   -0.54089E-04 10640   0.951E-04 0.495E-04
CGA:  17    -0.128333313192E+04   -0.12127E-04   -0.16924E-04 10640   0.308E-04 0.377E-04
CGA:  18    -0.128333314004E+04   -0.81158E-05   -0.92098E-05 10640   0.251E-04 0.196E-04
  50 F= -.12833331E+04 E0= -.12833331E+04  d E =0.987842E-02  mag=    47.0000
       N       E                     dE             d eps       ncg     rms          ort
SDA:   1    -0.125503590296E+04    0.28297E+02    0.00000E+00 10640   0.727E+02 0.000E+00
CGA:   2    -0.127457488362E+04   -0.19539E+02   -0.19539E+02 10640   0.342E+02 0.138E-02
CGA:   3    -0.128191423484E+04   -0.73394E+01   -0.73391E+01 10640   0.546E+01-0.106E-01
CGA:   4    -0.128286306332E+04   -0.94883E+00   -0.94864E+00 10640   0.112E+01-0.497E-02
CGA:   5    -0.128309099762E+04   -0.22793E+00   -0.22816E+00 10640   0.253E+00 0.484E-02
CGA:   6    -0.128315095395E+04   -0.59956E-01   -0.59857E-01 10640   0.904E-01-0.537E-02
CGA:   7    -0.128316767175E+04   -0.16718E-01   -0.16564E-01 10640   0.328E-01-0.213E-02
CGA:   8    -0.128317491462E+04   -0.72429E-02   -0.71850E-02 10640   0.172E-01-0.225E-02
CGA:   9    -0.128317896338E+04   -0.40488E-02   -0.40629E-02 10640   0.128E-01-0.355E-02
CGA:  10    -0.128318132303E+04   -0.23597E-02   -0.22952E-02 10640   0.562E-02-0.275E-02
CGA:  11    -0.128318260968E+04   -0.12866E-02   -0.16002E-02 10640   0.500E-02-0.272E-02
CGA:  12    -0.128318325251E+04   -0.64283E-03   -0.60559E-03 10640   0.370E-02-0.195E-02
CGA:  13    -0.128318394575E+04   -0.69324E-03   -0.92577E-03 10640   0.355E-02-0.148E-02
CGA:  14    -0.128318454958E+04   -0.60383E-03   -0.80797E-03 10640   0.634E-02-0.174E-02
CGA:  15    -0.128318530285E+04   -0.75328E-03   -0.69524E-03 10640   0.253E-02-0.113E-02
CGA:  16    -0.128318568856E+04   -0.38570E-03   -0.40437E-03 10640   0.176E-02 0.270E-03
CGA:  17    -0.128318600161E+04   -0.31305E-03   -0.33467E-03 10640   0.555E-03 0.242E-03
CGA:  18    -0.128318606972E+04   -0.68111E-04   -0.92029E-04 10640   0.276E-03 0.216E-03
CGA:  19    -0.128318606657E+04    0.31532E-05   -0.37045E-04 10640   0.184E-03 0.261E-03
CGA:  20    -0.128318606038E+04    0.61840E-05   -0.15454E-04 10640   0.117E-03 0.136E-03
  51 F= -.12831861E+04 E0= -.12831861E+04  d E =0.147080E+00  mag=    47.0000
       N       E                     dE             d eps       ncg     rms          ort
SDA:   1    -0.125820287624E+04    0.24983E+02    0.00000E+00 10640   0.745E+02 0.000E+00
CGA:   2    -0.127410386191E+04   -0.15901E+02   -0.15899E+02 10640   0.312E+02 0.139E-02
CGA:   3    -0.128118143769E+04   -0.70776E+01   -0.70776E+01 10640   0.909E+01 0.155E+00
CGA:   4    -0.128249847445E+04   -0.13170E+01   -0.13052E+01 10640   0.175E+01 0.504E-01
CGA:   5    -0.128279445470E+04   -0.29598E+00   -0.29665E+00 10640   0.474E+00-0.249E-03
CGA:   6    -0.128288346494E+04   -0.89010E-01   -0.88783E-01 10640   0.142E+00-0.629E-02
CGA:   7    -0.128291490097E+04   -0.31436E-01   -0.31450E-01 10640   0.469E-01-0.229E-02
CGA:   8    -0.128292466997E+04   -0.97690E-02   -0.97469E-02 10640   0.224E-01-0.295E-02
CGA:   9    -0.128292980025E+04   -0.51303E-02   -0.51790E-02 10640   0.127E-01-0.168E-02
CGA:  10    -0.128293269305E+04   -0.28928E-02   -0.29247E-02 10640   0.748E-02-0.106E-02
CGA:  11    -0.128293454214E+04   -0.18491E-02   -0.27293E-02 10640   0.135E-01-0.497E-02
CGA:  12    -0.128293580401E+04   -0.12619E-02   -0.13835E-02 10640   0.225E-02 0.103E-02
CGA:  13    -0.128293661807E+04   -0.81405E-03   -0.83838E-03 10640   0.165E-02-0.199E-03
CGA:  14    -0.128293522571E+04    0.13924E-02   -0.14242E-02 10640   0.268E-01-0.392E-02
CGA:  15    -0.128293767019E+04   -0.24445E-02   -0.27331E-02 10640   0.202E-02 0.211E-02
CGA:  16    -0.128293831473E+04   -0.64454E-03   -0.64087E-03 10640   0.140E-02 0.100E-03
CGA:  17    -0.128293865815E+04   -0.34343E-03   -0.32798E-03 10640   0.780E-03-0.425E-03
CGA:  18    -0.128293876076E+04   -0.10261E-03   -0.11193E-03 10640   0.464E-03 0.181E-03
CGA:  19    -0.128293891986E+04   -0.15910E-03   -0.15763E-03 10640   0.528E-03 0.683E-04
CGA:  20    -0.128293577151E+04    0.31483E-02   -0.16937E-02 10640   0.254E-01-0.297E-02
CGA:  21    -0.128293853111E+04   -0.27596E-02   -0.30548E-02 10640   0.408E-02 0.130E-02
CGA:  22    -0.128293981479E+04   -0.12837E-02   -0.12919E-02 10640   0.893E-03 0.582E-04
