       N       E                     dE             d eps       ncg     rms          ort
DAV:   1     0.102775279743E+05    0.10278E+05   -0.42455E+05 10640   0.155E+03
DAV:   2    -0.117444726918E+03   -0.10395E+05   -0.98105E+04 10640   0.474E+02
DAV:   3    -0.152287241325E+04   -0.14054E+04   -0.13110E+04 10640   0.181E+02
DAV:   4    -0.160496327187E+04   -0.82091E+02   -0.79871E+02 10640   0.462E+01
DAV:   5    -0.160733962128E+04   -0.23763E+01   -0.23687E+01 10640   0.839E+00
SDA:   6    -0.728238073579E+03    0.87910E+03   -0.23687E+01 10640   0.291E+04 0.000E+00
CGA:   7    -0.113443607735E+04   -0.40620E+03   -0.40281E+03 10640   0.108E+04-0.204E+02
CGA:   8    -0.115271982759E+04   -0.18284E+02   -0.62648E+02 10640   0.129E+04-0.674E+03
CGA:   9    -0.115773583637E+04   -0.50160E+01   -0.64406E+02 10640   0.192E+04-0.122E+04
CGA:  10    -0.114487480520E+04    0.12861E+02   -0.10240E+03 10640   0.237E+04-0.164E+04
CGA:  11    -0.114181308707E+04    0.30617E+01   -0.11928E+03 10640   0.301E+04-0.251E+04
CGA:  12    -0.110916856310E+04    0.32645E+02   -0.16476E+03 10640   0.386E+04-0.294E+04
CGA:  13    -0.110562665476E+04    0.35419E+01   -0.19826E+03 10640   0.430E+04-0.392E+04
CGA:  14    -0.107682878702E+04    0.28798E+02   -0.23173E+03 10640   0.523E+04-0.445E+04
CGA:  15    -0.108478514277E+04   -0.79564E+01   -0.26823E+03 10640   0.504E+04-0.491E+04
CGA:  16    -0.111980651234E+04   -0.35021E+02   -0.24116E+03 10640   0.452E+04-0.488E+04
CGA:  17    -0.117708132198E+04   -0.57275E+02   -0.19636E+03 10640   0.299E+04-0.376E+04
CGA:  18    -0.123275734708E+04   -0.55676E+02   -0.11335E+03 10640   0.111E+04-0.185E+04
CGA:  19    -0.125676025294E+04   -0.24003E+02   -0.35306E+02 10640   0.158E+03-0.334E+03
CGA:  20    -0.126213832508E+04   -0.53781E+01   -0.44110E+01 10640   0.254E+02 0.191E+02
CGA:  21    -0.126910532234E+04   -0.69670E+01   -0.68175E+01 10640   0.123E+03 0.143E+01
CGA:  22    -0.127674582843E+04   -0.76405E+01   -0.65019E+01 10640   0.225E+02 0.146E+02
CGA:  23    -0.127756802161E+04   -0.82219E+00   -0.87992E+00 10640   0.738E+01-0.195E+01
CGA:  24    -0.127846638127E+04   -0.89836E+00   -0.89514E+00 10640   0.140E+02-0.609E-01
CGA:  25    -0.127942319016E+04   -0.95681E+00   -0.96213E+00 10640   0.526E+01-0.379E+00
CGA:  26    -0.127988862435E+04   -0.46543E+00   -0.45889E+00 10640   0.369E+01-0.388E+00
CGA:  27    -0.128049176930E+04   -0.60314E+00   -0.64518E+00 10640   0.592E+01-0.643E+00
CGA:  28    -0.128082359358E+04   -0.33182E+00   -0.27506E+00 10640   0.185E+01-0.352E-01
CGA:  29    -0.128107264530E+04   -0.24905E+00   -0.25508E+00 10640   0.415E+01-0.346E+00
CGA:  30    -0.128144303263E+04   -0.37039E+00   -0.35913E+00 10640   0.393E+01-0.777E+00
CGA:  31    -0.128164252873E+04   -0.19950E+00   -0.16427E+00 10640   0.221E+01-0.135E+00
CGA:  32    -0.128176491498E+04   -0.12239E+00   -0.10103E+00 10640   0.156E+01-0.380E-01
CGA:  33    -0.128189513544E+04   -0.13022E+00   -0.12759E+00 10640   0.253E+01-0.236E+00
CGA:  34    -0.128209239191E+04   -0.19726E+00   -0.19492E+00 10640   0.252E+01-0.393E+00
CGA:  35    -0.128228412662E+04   -0.19173E+00   -0.18954E+00 10640   0.103E+01-0.377E+00
CGA:  36    -0.128237612285E+04   -0.91996E-01   -0.91371E-01 10640   0.589E+00-0.169E+00
CGA:  37    -0.128247124703E+04   -0.95124E-01   -0.10186E+00 10640   0.880E+00-0.684E-01
CGA:  38    -0.128257875847E+04   -0.10751E+00   -0.10708E+00 10640   0.376E+00 0.231E-03
CGA:  39    -0.128262352410E+04   -0.44766E-01   -0.44623E-01 10640   0.219E+00 0.286E-01
CGA:  40    -0.128266769254E+04   -0.44168E-01   -0.40364E-01 10640   0.202E+00 0.663E-01
CGA:  41    -0.128270467062E+04   -0.36978E-01   -0.35627E-01 10640   0.971E-01 0.750E-01
CGA:  42    -0.128272126999E+04   -0.16599E-01   -0.16350E-01 10640   0.592E-01 0.538E-01
CGA:  43    -0.128273183820E+04   -0.10568E-01   -0.94611E-02 10640   0.303E-01 0.268E-01
CGA:  44    -0.128273833058E+04   -0.64924E-02   -0.59932E-02 10640   0.223E-01 0.318E-01
CGA:  45    -0.128274173135E+04   -0.34008E-02   -0.31073E-02 10640   0.162E-01 0.165E-01
CGA:  46    -0.128274398298E+04   -0.22516E-02   -0.21208E-02 10640   0.138E-01 0.146E-01
CGA:  47    -0.128274564569E+04   -0.16627E-02   -0.16773E-02 10640   0.122E-01 0.129E-01
CGA:  48    -0.128274698589E+04   -0.13402E-02   -0.14140E-02 10640   0.109E-01 0.114E-01
CGA:  49    -0.128274804153E+04   -0.10556E-02   -0.11887E-02 10640   0.982E-02 0.103E-01
CGA:  50    -0.128274890049E+04   -0.85896E-03   -0.10221E-02 10640   0.893E-02 0.933E-02
CGA:  51    -0.128274960416E+04   -0.70367E-03   -0.88665E-03 10640   0.818E-02 0.852E-02
CGA:  52    -0.128275018824E+04   -0.58408E-03   -0.77739E-03 10640   0.754E-02 0.783E-02
CGA:  53    -0.128275067819E+04   -0.48996E-03   -0.68753E-03 10640   0.699E-02 0.724E-02
CGA:  54    -0.128275109365E+04   -0.41546E-03   -0.61299E-03 10640   0.651E-02 0.673E-02
CGA:  55    -0.128275144941E+04   -0.35576E-03   -0.55041E-03 10640   0.608E-02 0.628E-02
CGA:  56    -0.128275175689E+04   -0.30748E-03   -0.49737E-03 10640   0.571E-02 0.588E-02
CGA:  57    -0.128275202495E+04   -0.26807E-03   -0.45201E-03 10640   0.538E-02 0.553E-02
CGA:  58    -0.128275226062E+04   -0.23566E-03   -0.41294E-03 10640   0.508E-02 0.522E-02
CGA:  59    -0.128275246948E+04   -0.20887E-03   -0.37910E-03 10640   0.481E-02 0.494E-02
CGA:  60    -0.128275265593E+04   -0.18645E-03   -0.34951E-03 10640   0.458E-02 0.469E-02
CGA:  61    -0.128275282346E+04   -0.16753E-03   -0.32344E-03 10640   0.436E-02 0.446E-02
CGA:  62    -0.128275297491E+04   -0.15145E-03   -0.30035E-03 10640   0.416E-02 0.426E-02
CGA:  63    -0.128275311261E+04   -0.13770E-03   -0.27977E-03 10640   0.398E-02 0.407E-02
CGA:  64    -0.128275323846E+04   -0.12585E-03   -0.26135E-03 10640   0.382E-02 0.390E-02
CGA:  65    -0.128275335405E+04   -0.11559E-03   -0.24477E-03 10640   0.367E-02 0.374E-02
CGA:  66    -0.128275346071E+04   -0.10665E-03   -0.22980E-03 10640   0.353E-02 0.359E-02
CGA:  67    -0.128275355953E+04   -0.98824E-04   -0.21621E-03 10640   0.340E-02 0.346E-02
CGA:  68    -0.128275365147E+04   -0.91939E-04   -0.20385E-03 10640   0.328E-02 0.334E-02
CGA:  69    -0.128275373732E+04   -0.85854E-04   -0.19256E-03 10640   0.317E-02 0.322E-02
CGA:  70    -0.128275381777E+04   -0.80453E-04   -0.18221E-03 10640   0.307E-02 0.311E-02
CGA:  71    -0.128275389342E+04   -0.75641E-04   -0.17271E-03 10640   0.297E-02 0.301E-02
CGA:  72    -0.128275396475E+04   -0.71336E-04   -0.16395E-03 10640   0.288E-02 0.292E-02
CGA:  73    -0.128275403222E+04   -0.67472E-04   -0.15586E-03 10640   0.279E-02 0.283E-02
CGA:  74    -0.128275409622E+04   -0.63991E-04   -0.14837E-03 10640   0.271E-02 0.275E-02
CGA:  75    -0.128275415706E+04   -0.60844E-04   -0.14143E-03 10640   0.264E-02 0.267E-02
CGA:  76    -0.128275421505E+04   -0.57991E-04   -0.13497E-03 10640   0.257E-02 0.260E-02
CGA:  77    -0.128275427045E+04   -0.55401E-04   -0.12895E-03 10640   0.250E-02 0.253E-02
CGA:  78    -0.128275432349E+04   -0.53039E-04   -0.12334E-03 10640   0.244E-02 0.247E-02
CGA:  79    -0.128275437437E+04   -0.50880E-04   -0.11809E-03 10640   0.238E-02 0.241E-02
CGA:  80    -0.128275442327E+04   -0.48902E-04   -0.11318E-03 10640   0.232E-02 0.235E-02
CGA:  81    -0.128275447036E+04   -0.47087E-04   -0.10858E-03 10640   0.227E-02 0.229E-02
CGA:  82    -0.128275451577E+04   -0.45414E-04   -0.10426E-03 10640   0.221E-02 0.224E-02
CGA:  83    -0.128275455965E+04   -0.43872E-04   -0.10020E-03 10640   0.217E-02 0.219E-02
CGA:  84    -0.128275460209E+04   -0.42445E-04   -0.96375E-04 10640   0.212E-02 0.214E-02
CGA:  85    -0.128275464322E+04   -0.41124E-04   -0.92775E-04 10640   0.207E-02 0.210E-02
CGA:  86    -0.128275468311E+04   -0.39898E-04   -0.89380E-04 10640   0.203E-02 0.205E-02
CGA:  87    -0.128275472187E+04   -0.38759E-04   -0.86174E-04 10640   0.199E-02 0.201E-02
CGA:  88    -0.128275475957E+04   -0.37699E-04   -0.83146E-04 10640   0.195E-02 0.197E-02
CGA:  89    -0.128275479628E+04   -0.36709E-04   -0.80280E-04 10640   0.192E-02 0.193E-02
CGA:  90    -0.128275483206E+04   -0.35783E-04   -0.77568E-04 10640   0.188E-02 0.190E-02
CGA:  91    -0.128275486698E+04   -0.34915E-04   -0.74996E-04 10640   0.185E-02 0.186E-02
CGA:  92    -0.128275490108E+04   -0.34101E-04   -0.72557E-04 10640   0.181E-02 0.183E-02
CGA:  93    -0.128275493442E+04   -0.33339E-04   -0.70244E-04 10640   0.178E-02 0.180E-02
CGA:  94    -0.128275496704E+04   -0.32622E-04   -0.68046E-04 10640   0.175E-02 0.177E-02
CGA:  95    -0.128275499899E+04   -0.31947E-04   -0.65957E-04 10640   0.172E-02 0.174E-02
CGA:  96    -0.128275503030E+04   -0.31310E-04   -0.63969E-04 10640   0.169E-02 0.171E-02
CGA:  97    -0.128275506101E+04   -0.30707E-04   -0.62077E-04 10640   0.167E-02 0.168E-02
CGA:  98    -0.128275509114E+04   -0.30139E-04   -0.60274E-04 10640   0.164E-02 0.165E-02
CGA:  99    -0.128275512074E+04   -0.29598E-04   -0.58555E-04 10640   0.162E-02 0.163E-02
CGA: 100    -0.128275514983E+04   -0.29084E-04   -0.56914E-04 10640   0.159E-02 0.160E-02
CGA: 101    -0.128275517842E+04   -0.28594E-04   -0.55348E-04 10640   0.157E-02 0.158E-02
CGA: 102    -0.128275520655E+04   -0.28128E-04   -0.53851E-04 10640   0.154E-02 0.156E-02
CGA: 103    -0.128275523423E+04   -0.27682E-04   -0.52420E-04 10640   0.152E-02 0.153E-02
CGA: 104    -0.128275526147E+04   -0.27240E-04   -0.51043E-04 10640   0.150E-02 0.151E-02
CGA: 105    -0.128275528831E+04   -0.26840E-04   -0.49736E-04 10640   0.148E-02 0.149E-02
CGA: 106    -0.128275531477E+04   -0.26455E-04   -0.48484E-04 10640   0.146E-02 0.147E-02
CGA: 107    -0.128275534085E+04   -0.26086E-04   -0.47284E-04 10640   0.144E-02 0.145E-02
CGA: 108    -0.128275536658E+04   -0.25733E-04   -0.46134E-04 10640   0.142E-02 0.143E-02
CGA: 109    -0.128275539198E+04   -0.25393E-04   -0.45031E-04 10640   0.141E-02 0.141E-02
CGA: 110    -0.128275541704E+04   -0.25067E-04   -0.43973E-04 10640   0.139E-02 0.140E-02
CGA: 111    -0.128275544180E+04   -0.24753E-04   -0.42956E-04 10640   0.137E-02 0.138E-02
CGA: 112    -0.128275546625E+04   -0.24451E-04   -0.41981E-04 10640   0.135E-02 0.136E-02
CGA: 113    -0.128275549041E+04   -0.24161E-04   -0.41044E-04 10640   0.134E-02 0.135E-02
CGA: 114    -0.128275551429E+04   -0.23880E-04   -0.40143E-04 10640   0.132E-02 0.133E-02
CGA: 115    -0.128275553790E+04   -0.23609E-04   -0.39277E-04 10640   0.131E-02 0.132E-02
CGA: 116    -0.128275556125E+04   -0.23349E-04   -0.38443E-04 10640   0.129E-02 0.130E-02
CGA: 117    -0.128275558434E+04   -0.23098E-04   -0.37642E-04 10640   0.128E-02 0.129E-02
CGA: 118    -0.128275560720E+04   -0.22855E-04   -0.36870E-04 10640   0.126E-02 0.127E-02
CGA: 119    -0.128275562982E+04   -0.22620E-04   -0.36127E-04 10640   0.125E-02 0.126E-02
CGA: 120    -0.128275565221E+04   -0.22393E-04   -0.35411E-04 10640   0.124E-02 0.124E-02
CGA: 121    -0.128275567439E+04   -0.22175E-04   -0.34721E-04 10640   0.122E-02 0.123E-02
CGA: 122    -0.128275569635E+04   -0.21962E-04   -0.34057E-04 10640   0.121E-02 0.122E-02
CGA: 123    -0.128275571811E+04   -0.21759E-04   -0.33417E-04 10640   0.120E-02 0.121E-02
CGA: 124    -0.128275573967E+04   -0.21561E-04   -0.32799E-04 10640   0.119E-02 0.119E-02
CGA: 125    -0.128275576104E+04   -0.21371E-04   -0.32204E-04 10640   0.118E-02 0.118E-02
CGA: 126    -0.128275578222E+04   -0.21185E-04   -0.31629E-04 10640   0.116E-02 0.117E-02
CGA: 127    -0.128275580323E+04   -0.21008E-04   -0.31075E-04 10640   0.115E-02 0.116E-02
CGA: 128    -0.128275582407E+04   -0.20836E-04   -0.30540E-04 10640   0.114E-02 0.115E-02
CGA: 129    -0.128275584474E+04   -0.20670E-04   -0.30024E-04 10640   0.113E-02 0.114E-02
CGA: 130    -0.128275586525E+04   -0.20510E-04   -0.29526E-04 10640   0.112E-02 0.113E-02
CGA: 131    -0.128275588560E+04   -0.20356E-04   -0.29046E-04 10640   0.111E-02 0.112E-02
CGA: 132    -0.128275590581E+04   -0.20207E-04   -0.28582E-04 10640   0.110E-02 0.111E-02
CGA: 133    -0.128275592588E+04   -0.20064E-04   -0.28134E-04 10640   0.109E-02 0.110E-02
CGA: 134    -0.128275594580E+04   -0.19926E-04   -0.27701E-04 10640   0.108E-02 0.109E-02
CGA: 135    -0.128275596559E+04   -0.19792E-04   -0.27283E-04 10640   0.107E-02 0.108E-02
CGA: 136    -0.128275598526E+04   -0.19666E-04   -0.26881E-04 10640   0.106E-02 0.107E-02
CGA: 137    -0.128275600480E+04   -0.19541E-04   -0.26491E-04 10640   0.105E-02 0.106E-02
CGA: 138    -0.128275602423E+04   -0.19425E-04   -0.26115E-04 10640   0.104E-02 0.105E-02
CGA: 139    -0.128275604354E+04   -0.19311E-04   -0.25752E-04 10640   0.103E-02 0.104E-02
CGA: 140    -0.128275606274E+04   -0.19204E-04   -0.25402E-04 10640   0.103E-02 0.103E-02
CGA: 141    -0.128275608184E+04   -0.19101E-04   -0.25064E-04 10640   0.102E-02 0.102E-02
CGA: 142    -0.128275610084E+04   -0.19002E-04   -0.24737E-04 10640   0.101E-02 0.101E-02
CGA: 143    -0.128275611975E+04   -0.18908E-04   -0.24422E-04 10640   0.100E-02 0.100E-02
CGA: 144    -0.128275613857E+04   -0.18818E-04   -0.24118E-04 10640   0.992E-03 0.996E-03
CGA: 145    -0.128275615730E+04   -0.18734E-04   -0.23825E-04 10640   0.984E-03 0.988E-03
CGA: 146    -0.128275617596E+04   -0.18654E-04   -0.23542E-04 10640   0.977E-03 0.980E-03
CGA: 147    -0.128275619454E+04   -0.18578E-04   -0.23269E-04 10640   0.969E-03 0.973E-03
CGA: 148    -0.128275621304E+04   -0.18507E-04   -0.23006E-04 10640   0.961E-03 0.965E-03
CGA: 149    -0.128275623148E+04   -0.18441E-04   -0.22753E-04 10640   0.954E-03 0.957E-03
CGA: 150    -0.128275624986E+04   -0.18379E-04   -0.22510E-04 10640   0.946E-03 0.950E-03
CGA: 151    -0.128275626819E+04   -0.18322E-04   -0.22275E-04 10640   0.939E-03 0.943E-03
CGA: 152    -0.128275628645E+04   -0.18269E-04   -0.22049E-04 10640   0.932E-03 0.935E-03
CGA: 153    -0.128275630468E+04   -0.18222E-04   -0.21832E-04 10640   0.925E-03 0.928E-03
CGA: 154    -0.128275632285E+04   -0.18176E-04   -0.21623E-04 10640   0.918E-03 0.921E-03
CGA: 155    -0.128275634099E+04   -0.18138E-04   -0.21423E-04 10640   0.911E-03 0.914E-03
CGA: 156    -0.128275635909E+04   -0.18103E-04   -0.21231E-04 10640   0.904E-03 0.907E-03
CGA: 157    -0.128275637717E+04   -0.18073E-04   -0.21047E-04 10640   0.897E-03 0.900E-03
CGA: 158    -0.128275639521E+04   -0.18048E-04   -0.20871E-04 10640   0.890E-03 0.894E-03
CGA: 159    -0.128275641324E+04   -0.18027E-04   -0.20702E-04 10640   0.884E-03 0.887E-03
CGA: 160    -0.128275643125E+04   -0.18012E-04   -0.20542E-04 10640   0.877E-03 0.881E-03
CGA: 161    -0.128275644925E+04   -0.18001E-04   -0.20388E-04 10640   0.871E-03 0.874E-03
CGA: 162    -0.128275646725E+04   -0.17993E-04   -0.20241E-04 10640   0.864E-03 0.868E-03
CGA: 163    -0.128275648524E+04   -0.17993E-04   -0.20103E-04 10640   0.858E-03 0.861E-03
CGA: 164    -0.128275650324E+04   -0.17997E-04   -0.19972E-04 10640   0.852E-03 0.855E-03
CGA: 165    -0.128275652124E+04   -0.18004E-04   -0.19846E-04 10640   0.846E-03 0.849E-03
CGA: 166    -0.128275653926E+04   -0.18020E-04   -0.19730E-04 10640   0.840E-03 0.843E-03
CGA: 167    -0.128275655730E+04   -0.18038E-04   -0.19619E-04 10640   0.833E-03 0.837E-03
CGA: 168    -0.128275657536E+04   -0.18063E-04   -0.19515E-04 10640   0.827E-03 0.830E-03
CGA: 169    -0.128275659345E+04   -0.18092E-04   -0.19418E-04 10640   0.821E-03 0.824E-03
CGA: 170    -0.128275661158E+04   -0.18129E-04   -0.19328E-04 10640   0.816E-03 0.818E-03
CGA: 171    -0.128275662975E+04   -0.18170E-04   -0.19245E-04 10640   0.810E-03 0.813E-03
CGA: 172    -0.128275664797E+04   -0.18217E-04   -0.19169E-04 10640   0.804E-03 0.807E-03
CGA: 173    -0.128275666624E+04   -0.18269E-04   -0.19099E-04 10640   0.798E-03 0.801E-03
CGA: 174    -0.128275668457E+04   -0.18331E-04   -0.19037E-04 10640   0.792E-03 0.795E-03
CGA: 175    -0.128275670296E+04   -0.18395E-04   -0.18980E-04 10640   0.786E-03 0.789E-03
CGA: 176    -0.128275672143E+04   -0.18468E-04   -0.18931E-04 10640   0.781E-03 0.784E-03
CGA: 177    -0.128275673998E+04   -0.18548E-04   -0.18890E-04 10640   0.775E-03 0.778E-03
CGA: 178    -0.128275675861E+04   -0.18634E-04   -0.18854E-04 10640   0.769E-03 0.772E-03
CGA: 179    -0.128275677734E+04   -0.18727E-04   -0.18827E-04 10640   0.764E-03 0.767E-03
CGA: 180    -0.128275679617E+04   -0.18830E-04   -0.18806E-04 10640   0.758E-03 0.761E-03
CGA: 181    -0.128275681511E+04   -0.18936E-04   -0.18791E-04 10640   0.753E-03 0.755E-03
CGA: 182    -0.128275683416E+04   -0.19054E-04   -0.18786E-04 10640   0.747E-03 0.750E-03
CGA: 183    -0.128275685334E+04   -0.19180E-04   -0.18787E-04 10640   0.742E-03 0.744E-03
CGA: 184    -0.128275687265E+04   -0.19313E-04   -0.18796E-04 10640   0.736E-03 0.739E-03
CGA: 185    -0.128275689211E+04   -0.19456E-04   -0.18813E-04 10640   0.731E-03 0.733E-03
CGA: 186    -0.128275691172E+04   -0.19611E-04   -0.18838E-04 10640   0.725E-03 0.728E-03
CGA: 187    -0.128275693150E+04   -0.19773E-04   -0.18871E-04 10640   0.720E-03 0.722E-03
CGA: 188    -0.128275695144E+04   -0.19947E-04   -0.18912E-04 10640   0.714E-03 0.717E-03
CGA: 189    -0.128275697157E+04   -0.20129E-04   -0.18962E-04 10640   0.709E-03 0.711E-03
CGA: 190    -0.128275699190E+04   -0.20328E-04   -0.19022E-04 10640   0.703E-03 0.706E-03
CGA: 191    -0.128275701244E+04   -0.20536E-04   -0.19090E-04 10640   0.698E-03 0.700E-03
CGA: 192    -0.128275703319E+04   -0.20757E-04   -0.19168E-04 10640   0.692E-03 0.695E-03
CGA: 193    -0.128275705418E+04   -0.20992E-04   -0.19256E-04 10640   0.687E-03 0.689E-03
CGA: 194    -0.128275707543E+04   -0.21241E-04   -0.19355E-04 10640   0.681E-03 0.684E-03
CGA: 195    -0.128275709693E+04   -0.21507E-04   -0.19465E-04 10640   0.676E-03 0.678E-03
CGA: 196    -0.128275711872E+04   -0.21787E-04   -0.19586E-04 10640   0.670E-03 0.673E-03
CGA: 197    -0.128275714080E+04   -0.22084E-04   -0.19718E-04 10640   0.665E-03 0.667E-03
CGA: 198    -0.128275716321E+04   -0.22401E-04   -0.19865E-04 10640   0.659E-03 0.662E-03
CGA: 199    -0.128275718594E+04   -0.22737E-04   -0.20023E-04 10640   0.653E-03 0.656E-03
CGA: 200    -0.128275720903E+04   -0.23092E-04   -0.20195E-04 10640   0.648E-03 0.651E-03
   1 F= -.12827572E+04 E0= -.12827561E+04  d E =-.128276E+04  mag=    47.0000
       N       E                     dE             d eps       ncg     rms          ort
SDA:   1    -0.128276117535E+04   -0.39894E-02    0.00000E+00 10640   0.442E-02 0.000E+00
CGA:   2    -0.128276167492E+04   -0.49956E-03   -0.33753E-03 10640   0.265E-02 0.328E-02
CGA:   3    -0.128276241939E+04   -0.74448E-03   -0.45768E-03 10640   0.113E-02 0.152E-02
CGA:   4    -0.128276254763E+04   -0.12824E-03    0.55512E-03 10640   0.982E-03 0.105E-02
CGA:   5    -0.128276265672E+04   -0.10908E-03    0.73881E-03 10640   0.865E-03 0.917E-03
CGA:   6    -0.128276275197E+04   -0.95250E-04    0.84401E-03 10640   0.770E-03 0.812E-03
CGA:   7    -0.128276283652E+04   -0.84552E-04    0.84778E-03 10640   0.693E-03 0.728E-03
CGA:   8    -0.128276291252E+04   -0.75999E-04    0.79616E-03 10640   0.630E-03 0.658E-03
CGA:   9    -0.128276298157E+04   -0.69052E-04    0.73554E-03 10640   0.578E-03 0.602E-03
CGA:  10    -0.128276304494E+04   -0.63367E-04    0.68583E-03 10640   0.536E-03 0.555E-03
CGA:  11    -0.128276310363E+04   -0.58695E-04    0.65227E-03 10640   0.501E-03 0.517E-03
CGA:  12    -0.128276315847E+04   -0.54841E-04    0.63477E-03 10640   0.472E-03 0.486E-03
CGA:  13    -0.128276321013E+04   -0.51654E-04    0.62943E-03 10640   0.449E-03 0.460E-03
CGA:  14    -0.128276325913E+04   -0.49003E-04    0.63596E-03 10640   0.429E-03 0.438E-03
CGA:  15    -0.128276330592E+04   -0.46791E-04    0.64910E-03 10640   0.412E-03 0.420E-03
CGA:  16    -0.128276335085E+04   -0.44932E-04    0.66679E-03 10640   0.398E-03 0.405E-03
CGA:  17    -0.128276339421E+04   -0.43361E-04    0.68377E-03 10640   0.386E-03 0.392E-03
CGA:  18    -0.128276343623E+04   -0.42019E-04    0.69924E-03 10640   0.376E-03 0.381E-03
CGA:  19    -0.128276347710E+04   -0.40866E-04    0.70668E-03 10640   0.367E-03 0.371E-03
CGA:  20    -0.128276351696E+04   -0.39864E-04    0.70459E-03 10640   0.359E-03 0.363E-03
CGA:  21    -0.128276355595E+04   -0.38986E-04    0.68984E-03 10640   0.351E-03 0.355E-03
CGA:  22    -0.128276359416E+04   -0.38207E-04    0.66637E-03 10640   0.345E-03 0.348E-03
CGA:  23    -0.128276363167E+04   -0.37510E-04    0.63273E-03 10640   0.339E-03 0.342E-03
CGA:  24    -0.128276366855E+04   -0.36879E-04    0.59339E-03 10640   0.333E-03 0.336E-03
CGA:  25    -0.128276370485E+04   -0.36302E-04    0.55094E-03 10640   0.328E-03 0.331E-03
CGA:  26    -0.128276374062E+04   -0.35771E-04    0.50730E-03 10640   0.323E-03 0.326E-03
CGA:  27    -0.128276377590E+04   -0.35276E-04    0.46578E-03 10640   0.318E-03 0.321E-03
CGA:  28    -0.128276381071E+04   -0.34814E-04    0.42519E-03 10640   0.314E-03 0.316E-03
CGA:  29    -0.128276384509E+04   -0.34375E-04    0.38902E-03 10640   0.310E-03 0.312E-03
CGA:  30    -0.128276387904E+04   -0.33959E-04    0.35576E-03 10640   0.305E-03 0.308E-03
CGA:  31    -0.128276391261E+04   -0.33561E-04    0.32587E-03 10640   0.301E-03 0.303E-03
CGA:  32    -0.128276394579E+04   -0.33180E-04    0.29876E-03 10640   0.297E-03 0.299E-03
CGA:  33    -0.128276397860E+04   -0.32811E-04    0.27477E-03 10640   0.294E-03 0.296E-03
CGA:  34    -0.128276401105E+04   -0.32456E-04    0.25313E-03 10640   0.290E-03 0.292E-03
CGA:  35    -0.128276404316E+04   -0.32108E-04    0.23435E-03 10640   0.286E-03 0.288E-03
CGA:  36    -0.128276407493E+04   -0.31771E-04    0.21732E-03 10640   0.283E-03 0.284E-03
CGA:  37    -0.128276410638E+04   -0.31444E-04    0.20186E-03 10640   0.279E-03 0.281E-03
CGA:  38    -0.128276413750E+04   -0.31122E-04    0.18823E-03 10640   0.276E-03 0.278E-03
CGA:  39    -0.128276416831E+04   -0.30808E-04    0.17593E-03 10640   0.272E-03 0.274E-03
CGA:  40    -0.128276419881E+04   -0.30500E-04    0.16486E-03 10640   0.269E-03 0.271E-03
CGA:  41    -0.128276422900E+04   -0.30198E-04    0.15483E-03 10640   0.266E-03 0.268E-03
CGA:  42    -0.128276425891E+04   -0.29901E-04    0.14574E-03 10640   0.263E-03 0.264E-03
CGA:  43    -0.128276428851E+04   -0.29609E-04    0.13746E-03 10640   0.260E-03 0.261E-03
CGA:  44    -0.128276431784E+04   -0.29323E-04    0.12988E-03 10640   0.257E-03 0.258E-03
CGA:  45    -0.128276434688E+04   -0.29039E-04    0.12309E-03 10640   0.254E-03 0.255E-03
CGA:  46    -0.128276437564E+04   -0.28761E-04    0.11677E-03 10640   0.251E-03 0.252E-03
CGA:  47    -0.128276440412E+04   -0.28487E-04    0.11100E-03 10640   0.248E-03 0.249E-03
CGA:  48    -0.128276443234E+04   -0.28217E-04    0.10567E-03 10640   0.245E-03 0.246E-03
CGA:  49    -0.128276446029E+04   -0.27949E-04    0.10080E-03 10640   0.242E-03 0.243E-03
CGA:  50    -0.128276448798E+04   -0.27687E-04    0.96226E-04 10640   0.239E-03 0.241E-03
CGA:  51    -0.128276451540E+04   -0.27426E-04    0.92049E-04 10640   0.236E-03 0.238E-03
CGA:  52    -0.128276454257E+04   -0.27170E-04    0.88135E-04 10640   0.234E-03 0.235E-03
CGA:  53    -0.128276456949E+04   -0.26915E-04    0.84569E-04 10640   0.231E-03 0.232E-03
CGA:  54    -0.128276459615E+04   -0.26665E-04    0.81131E-04 10640   0.228E-03 0.230E-03
CGA:  55    -0.128276462257E+04   -0.26416E-04    0.78006E-04 10640   0.226E-03 0.227E-03
CGA:  56    -0.128276464874E+04   -0.26170E-04    0.75084E-04 10640   0.223E-03 0.225E-03
CGA:  57    -0.128276467467E+04   -0.25928E-04    0.72313E-04 10640   0.221E-03 0.222E-03
CGA:  58    -0.128276470036E+04   -0.25687E-04    0.69731E-04 10640   0.218E-03 0.220E-03
CGA:  59    -0.128276472580E+04   -0.25448E-04    0.67320E-04 10640   0.216E-03 0.217E-03
CGA:  60    -0.128276475102E+04   -0.25213E-04    0.64995E-04 10640   0.214E-03 0.215E-03
CGA:  61    -0.128276477600E+04   -0.24978E-04    0.62872E-04 10640   0.211E-03 0.212E-03
CGA:  62    -0.128276480074E+04   -0.24747E-04    0.60839E-04 10640   0.209E-03 0.210E-03
CGA:  63    -0.128276482526E+04   -0.24517E-04    0.58922E-04 10640   0.207E-03 0.208E-03
CGA:  64    -0.128276484955E+04   -0.24288E-04    0.57124E-04 10640   0.204E-03 0.205E-03
CGA:  65    -0.128276487361E+04   -0.24063E-04    0.55395E-04 10640   0.202E-03 0.203E-03
CGA:  66    -0.128276489745E+04   -0.23839E-04    0.53766E-04 10640   0.200E-03 0.201E-03
CGA:  67    -0.128276492107E+04   -0.23617E-04    0.52230E-04 10640   0.198E-03 0.199E-03
CGA:  68    -0.128276494446E+04   -0.23395E-04    0.50779E-04 10640   0.195E-03 0.197E-03
CGA:  69    -0.128276496764E+04   -0.23177E-04    0.49372E-04 10640   0.193E-03 0.194E-03
CGA:  70    -0.128276499060E+04   -0.22961E-04    0.48035E-04 10640   0.191E-03 0.192E-03
CGA:  71    -0.128276501335E+04   -0.22746E-04    0.46768E-04 10640   0.189E-03 0.190E-03
CGA:  72    -0.128276503588E+04   -0.22533E-04    0.45546E-04 10640   0.187E-03 0.188E-03
CGA:  73    -0.128276505820E+04   -0.22320E-04    0.44410E-04 10640   0.185E-03 0.186E-03
CGA:  74    -0.128276508031E+04   -0.22111E-04    0.43291E-04 10640   0.183E-03 0.184E-03
CGA:  75    -0.128276510221E+04   -0.21903E-04    0.42244E-04 10640   0.181E-03 0.182E-03
CGA:  76    -0.128276512391E+04   -0.21697E-04    0.41217E-04 10640   0.179E-03 0.180E-03
CGA:  77    -0.128276514540E+04   -0.21491E-04    0.40262E-04 10640   0.177E-03 0.178E-03
CGA:  78    -0.128276516669E+04   -0.21289E-04    0.39311E-04 10640   0.175E-03 0.176E-03
CGA:  79    -0.128276518778E+04   -0.21086E-04    0.38436E-04 10640   0.173E-03 0.174E-03
CGA:  80    -0.128276520866E+04   -0.20887E-04    0.37569E-04 10640   0.172E-03 0.172E-03
CGA:  81    -0.128276522935E+04   -0.20689E-04    0.36739E-04 10640   0.170E-03 0.171E-03
CGA:  82    -0.128276524984E+04   -0.20492E-04    0.35947E-04 10640   0.168E-03 0.169E-03
CGA:  83    -0.128276527014E+04   -0.20297E-04    0.35184E-04 10640   0.166E-03 0.167E-03
CGA:  84    -0.128276529025E+04   -0.20104E-04    0.34449E-04 10640   0.164E-03 0.165E-03
CGA:  85    -0.128276531016E+04   -0.19913E-04    0.33732E-04 10640   0.163E-03 0.163E-03
CGA:  86    -0.128276532988E+04   -0.19722E-04    0.33057E-04 10640   0.161E-03 0.162E-03
CGA:  87    -0.128276534941E+04   -0.19533E-04    0.32400E-04 10640   0.159E-03 0.160E-03
CGA:  88    -0.128276536876E+04   -0.19346E-04    0.31769E-04 10640   0.157E-03 0.158E-03
CGA:  89    -0.128276538792E+04   -0.19161E-04    0.31144E-04 10640   0.156E-03 0.157E-03
CGA:  90    -0.128276540690E+04   -0.18977E-04    0.30560E-04 10640   0.154E-03 0.155E-03
CGA:  91    -0.128276542569E+04   -0.18794E-04    0.29992E-04 10640   0.152E-03 0.153E-03
CGA:  92    -0.128276544431E+04   -0.18614E-04    0.29433E-04 10640   0.151E-03 0.152E-03
CGA:  93    -0.128276546274E+04   -0.18434E-04    0.28900E-04 10640   0.149E-03 0.150E-03
CGA:  94    -0.128276548100E+04   -0.18257E-04    0.28377E-04 10640   0.148E-03 0.148E-03
CGA:  95    -0.128276549908E+04   -0.18080E-04    0.27888E-04 10640   0.146E-03 0.147E-03
CGA:  96    -0.128276551698E+04   -0.17906E-04    0.27386E-04 10640   0.145E-03 0.145E-03
CGA:  97    -0.128276553472E+04   -0.17733E-04    0.26921E-04 10640   0.143E-03 0.144E-03
CGA:  98    -0.128276555228E+04   -0.17561E-04    0.26468E-04 10640   0.142E-03 0.142E-03
CGA:  99    -0.128276556967E+04   -0.17392E-04    0.26015E-04 10640   0.140E-03 0.141E-03
CGA: 100    -0.128276558689E+04   -0.17223E-04    0.25586E-04 10640   0.139E-03 0.139E-03
CGA: 101    -0.128276560395E+04   -0.17055E-04    0.25179E-04 10640   0.137E-03 0.138E-03
CGA: 102    -0.128276562084E+04   -0.16891E-04    0.24763E-04 10640   0.136E-03 0.136E-03
CGA: 103    -0.128276563756E+04   -0.16726E-04    0.24373E-04 10640   0.134E-03 0.135E-03
CGA: 104    -0.128276565413E+04   -0.16564E-04    0.23988E-04 10640   0.133E-03 0.134E-03
CGA: 105    -0.128276567053E+04   -0.16402E-04    0.23620E-04 10640   0.132E-03 0.132E-03
CGA: 106    -0.128276568677E+04   -0.16243E-04    0.23251E-04 10640   0.130E-03 0.131E-03
CGA: 107    -0.128276570286E+04   -0.16085E-04    0.22905E-04 10640   0.129E-03 0.130E-03
CGA: 108    -0.128276571879E+04   -0.15928E-04    0.22559E-04 10640   0.128E-03 0.128E-03
CGA: 109    -0.128276573456E+04   -0.15772E-04    0.22237E-04 10640   0.126E-03 0.127E-03
CGA: 110    -0.128276575018E+04   -0.15619E-04    0.21903E-04 10640   0.125E-03 0.126E-03
CGA: 111    -0.128276576564E+04   -0.15466E-04    0.21592E-04 10640   0.124E-03 0.124E-03
CGA: 112    -0.128276578096E+04   -0.15315E-04    0.21281E-04 10640   0.122E-03 0.123E-03
CGA: 113    -0.128276579612E+04   -0.15164E-04    0.20992E-04 10640   0.121E-03 0.122E-03
CGA: 114    -0.128276581114E+04   -0.15017E-04    0.20691E-04 10640   0.120E-03 0.120E-03
CGA: 115    -0.128276582601E+04   -0.14870E-04    0.20409E-04 10640   0.119E-03 0.119E-03
CGA: 116    -0.128276584073E+04   -0.14723E-04    0.20139E-04 10640   0.117E-03 0.118E-03
CGA: 117    -0.128276585531E+04   -0.14579E-04    0.19869E-04 10640   0.116E-03 0.117E-03
CGA: 118    -0.128276586975E+04   -0.14436E-04    0.19604E-04 10640   0.115E-03 0.116E-03
CGA: 119    -0.128276588404E+04   -0.14294E-04    0.19354E-04 10640   0.114E-03 0.114E-03
CGA: 120    -0.128276589819E+04   -0.14154E-04    0.19103E-04 10640   0.113E-03 0.113E-03
CGA: 121    -0.128276591221E+04   -0.14015E-04    0.18854E-04 10640   0.112E-03 0.112E-03
CGA: 122    -0.128276592608E+04   -0.13876E-04    0.18630E-04 10640   0.110E-03 0.111E-03
CGA: 123    -0.128276593983E+04   -0.13741E-04    0.18383E-04 10640   0.109E-03 0.110E-03
CGA: 124    -0.128276595343E+04   -0.13604E-04    0.18172E-04 10640   0.108E-03 0.109E-03
CGA: 125    -0.128276596690E+04   -0.13471E-04    0.17939E-04 10640   0.107E-03 0.108E-03
CGA: 126    -0.128276598024E+04   -0.13337E-04    0.17735E-04 10640   0.106E-03 0.107E-03
CGA: 127    -0.128276599344E+04   -0.13207E-04    0.17515E-04 10640   0.105E-03 0.105E-03
CGA: 128    -0.128276600652E+04   -0.13077E-04    0.17308E-04 10640   0.104E-03 0.104E-03
CGA: 129    -0.128276601947E+04   -0.12947E-04    0.17116E-04 10640   0.103E-03 0.103E-03
CGA: 130    -0.128276603229E+04   -0.12819E-04    0.16918E-04 10640   0.102E-03 0.102E-03
CGA: 131    -0.128276604498E+04   -0.12692E-04    0.16731E-04 10640   0.101E-03 0.101E-03
CGA: 132    -0.128276605754E+04   -0.12566E-04    0.16547E-04 10640   0.998E-04 0.100E-03
CGA: 133    -0.128276606999E+04   -0.12442E-04    0.16357E-04 10640   0.988E-04 0.992E-04
CGA: 134    -0.128276608231E+04   -0.12319E-04    0.16185E-04 10640   0.978E-04 0.983E-04
CGA: 135    -0.128276609450E+04   -0.12196E-04    0.16013E-04 10640   0.968E-04 0.973E-04
CGA: 136    -0.128276610658E+04   -0.12075E-04    0.15844E-04 10640   0.958E-04 0.963E-04
CGA: 137    -0.128276611853E+04   -0.11956E-04    0.15678E-04 10640   0.949E-04 0.953E-04
CGA: 138    -0.128276613037E+04   -0.11837E-04    0.15514E-04 10640   0.939E-04 0.944E-04
CGA: 139    -0.128276614209E+04   -0.11720E-04    0.15356E-04 10640   0.930E-04 0.934E-04
CGA: 140    -0.128276615369E+04   -0.11603E-04    0.15202E-04 10640   0.921E-04 0.925E-04
CGA: 141    -0.128276616518E+04   -0.11487E-04    0.15054E-04 10640   0.911E-04 0.916E-04
CGA: 142    -0.128276617655E+04   -0.11373E-04    0.14908E-04 10640   0.902E-04 0.907E-04
CGA: 143    -0.128276618781E+04   -0.11260E-04    0.14757E-04 10640   0.893E-04 0.898E-04
CGA: 144    -0.128276619896E+04   -0.11149E-04    0.14615E-04 10640   0.885E-04 0.889E-04
CGA: 145    -0.128276621000E+04   -0.11037E-04    0.14481E-04 10640   0.876E-04 0.880E-04
CGA: 146    -0.128276622093E+04   -0.10928E-04    0.14341E-04 10640   0.867E-04 0.872E-04
CGA: 147    -0.128276623175E+04   -0.10819E-04    0.14202E-04 10640   0.859E-04 0.863E-04
CGA: 148    -0.128276624246E+04   -0.10711E-04    0.14075E-04 10640   0.850E-04 0.854E-04
CGA: 149    -0.128276625306E+04   -0.10604E-04    0.13951E-04 10640   0.842E-04 0.846E-04
CGA: 150    -0.128276626356E+04   -0.10499E-04    0.13820E-04 10640   0.834E-04 0.838E-04
CGA: 151    -0.128276627395E+04   -0.10394E-04    0.13701E-04 10640   0.825E-04 0.829E-04
CGA: 152    -0.128276628425E+04   -0.10291E-04    0.13584E-04 10640   0.817E-04 0.821E-04
CGA: 153    -0.128276629443E+04   -0.10188E-04    0.13463E-04 10640   0.809E-04 0.813E-04
CGA: 154    -0.128276630452E+04   -0.10087E-04    0.13344E-04 10640   0.801E-04 0.805E-04
CGA: 155    -0.128276631451E+04   -0.99862E-05    0.13236E-04 10640   0.794E-04 0.797E-04
CGA: 156    -0.128276632439E+04   -0.98862E-05    0.13130E-04 10640   0.786E-04 0.790E-04
CGA: 157    -0.128276633418E+04   -0.97882E-05    0.13016E-04 10640   0.778E-04 0.782E-04
CGA: 158    -0.128276634387E+04   -0.96899E-05    0.12917E-04 10640   0.771E-04 0.774E-04
CGA: 159    -0.128276635346E+04   -0.95934E-05    0.12811E-04 10640   0.763E-04 0.767E-04
CGA: 160    -0.128276636296E+04   -0.94976E-05    0.12711E-04 10640   0.756E-04 0.759E-04
CGA: 161    -0.128276637236E+04   -0.94026E-05    0.12613E-04 10640   0.748E-04 0.752E-04
CGA: 162    -0.128276638167E+04   -0.93084E-05    0.12520E-04 10640   0.741E-04 0.745E-04
CGA: 163    -0.128276639089E+04   -0.92160E-05    0.12419E-04 10640   0.734E-04 0.737E-04
CGA: 164    -0.128276640001E+04   -0.91226E-05    0.12339E-04 10640   0.727E-04 0.730E-04
CGA: 165    -0.128276640904E+04   -0.90317E-05    0.12246E-04 10640   0.720E-04 0.723E-04
CGA: 166    -0.128276641799E+04   -0.89420E-05    0.12152E-04 10640   0.713E-04 0.716E-04
CGA: 167    -0.128276642684E+04   -0.88513E-05    0.12078E-04 10640   0.706E-04 0.709E-04
CGA: 168    -0.128276643560E+04   -0.87631E-05    0.11990E-04 10640   0.699E-04 0.703E-04
CGA: 169    -0.128276644428E+04   -0.86755E-05    0.11907E-04 10640   0.692E-04 0.696E-04
CGA: 170    -0.128276645286E+04   -0.85886E-05    0.11827E-04 10640   0.686E-04 0.689E-04
CGA: 171    -0.128276646137E+04   -0.85025E-05    0.11750E-04 10640   0.679E-04 0.682E-04
CGA: 172    -0.128276646978E+04   -0.84172E-05    0.11674E-04 10640   0.673E-04 0.676E-04
CGA: 173    -0.128276647812E+04   -0.83331E-05    0.11598E-04 10640   0.666E-04 0.669E-04
CGA: 174    -0.128276648637E+04   -0.82493E-05    0.11528E-04 10640   0.660E-04 0.663E-04
CGA: 175    -0.128276649453E+04   -0.81663E-05    0.11460E-04 10640   0.654E-04 0.657E-04
CGA: 176    -0.128276650262E+04   -0.80835E-05    0.11400E-04 10640   0.647E-04 0.650E-04
CGA: 177    -0.128276651062E+04   -0.80040E-05    0.11316E-04 10640   0.641E-04 0.644E-04
CGA: 178    -0.128276651854E+04   -0.79225E-05    0.11263E-04 10640   0.635E-04 0.638E-04
CGA: 179    -0.128276652639E+04   -0.78435E-05    0.11194E-04 10640   0.629E-04 0.632E-04
CGA: 180    -0.128276653415E+04   -0.77644E-05    0.11136E-04 10640   0.623E-04 0.626E-04
CGA: 181    -0.128276654184E+04   -0.76874E-05    0.11065E-04 10640   0.617E-04 0.620E-04
CGA: 182    -0.128276654945E+04   -0.76092E-05    0.11017E-04 10640   0.611E-04 0.614E-04
CGA: 183    -0.128276655698E+04   -0.75324E-05    0.10963E-04 10640   0.605E-04 0.608E-04
CGA: 184    -0.128276656444E+04   -0.74580E-05    0.10894E-04 10640   0.600E-04 0.603E-04
CGA: 185    -0.128276657182E+04   -0.73825E-05    0.10846E-04 10640   0.594E-04 0.597E-04
CGA: 186    -0.128276657913E+04   -0.73082E-05    0.10794E-04 10640   0.588E-04 0.591E-04
CGA: 187    -0.128276658636E+04   -0.72346E-05    0.10746E-04 10640   0.583E-04 0.586E-04
CGA: 188    -0.128276659352E+04   -0.71618E-05    0.10698E-04 10640   0.577E-04 0.580E-04
CGA: 189    -0.128276660061E+04   -0.70899E-05    0.10648E-04 10640   0.572E-04 0.575E-04
CGA: 190    -0.128276660763E+04   -0.70186E-05    0.10602E-04 10640   0.567E-04 0.569E-04
CGA: 191    -0.128276661458E+04   -0.69487E-05    0.10549E-04 10640   0.561E-04 0.564E-04
CGA: 192    -0.128276662146E+04   -0.68785E-05    0.10509E-04 10640   0.556E-04 0.559E-04
CGA: 193    -0.128276662827E+04   -0.68087E-05    0.10475E-04 10640   0.551E-04 0.553E-04
CGA: 194    -0.128276663501E+04   -0.67405E-05    0.10431E-04 10640   0.546E-04 0.548E-04
CGA: 195    -0.128276664168E+04   -0.66732E-05    0.10385E-04 10640   0.541E-04 0.543E-04
CGA: 196    -0.128276664829E+04   -0.66051E-05    0.10360E-04 10640   0.535E-04 0.538E-04
CGA: 197    -0.128276665483E+04   -0.65397E-05    0.10310E-04 10640   0.530E-04 0.533E-04
CGA: 198    -0.128276666130E+04   -0.64727E-05    0.10291E-04 10640   0.526E-04 0.528E-04
CGA: 199    -0.128276666771E+04   -0.64081E-05    0.10251E-04 10640   0.521E-04 0.523E-04
CGA: 200    -0.128276667405E+04   -0.63438E-05    0.10216E-04 10640   0.516E-04 0.518E-04
   2 F= -.12827667E+04 E0= -.12827658E+04  d E =-.946502E-02  mag=    47.0000
       N       E                     dE             d eps       ncg     rms          ort
SDA:   1    -0.128139605113E+04    0.13706E+01    0.00000E+00 10640   0.393E+01 0.000E+00
CGA:   2    -0.128244299194E+04   -0.10469E+01   -0.10228E+01 10640   0.166E+01 0.117E+00
CGA:   3    -0.128279652660E+04   -0.35353E+00   -0.37427E+00 10640   0.525E+00-0.128E+00
CGA:   4    -0.128286557250E+04   -0.69046E-01   -0.68054E-01 10640   0.871E-01 0.152E-01
CGA:   5    -0.128288302744E+04   -0.17455E-01   -0.23440E-01 10640   0.459E-01-0.319E-01
CGA:   6    -0.128288794310E+04   -0.49157E-02   -0.54381E-02 10640   0.183E-01-0.503E-02
CGA:   7    -0.128289076424E+04   -0.28211E-02   -0.27640E-02 10640   0.604E-02 0.724E-03
CGA:   8    -0.128289196833E+04   -0.12041E-02   -0.12004E-02 10640   0.278E-02 0.465E-04
CGA:   9    -0.128289257765E+04   -0.60932E-03   -0.86620E-03 10640   0.269E-02-0.121E-02
CGA:  10    -0.128289304745E+04   -0.46980E-03    0.19569E-03 10640   0.164E-02 0.494E-03
CGA:  11    -0.128289362491E+04   -0.57746E-03    0.28917E-03 10640   0.829E-03 0.537E-03
CGA:  12    -0.128289402003E+04   -0.39512E-03    0.92842E-04 10640   0.451E-03 0.492E-03
CGA:  13    -0.128289413508E+04   -0.11504E-03    0.14557E-03 10640   0.221E-03 0.254E-03
CGA:  14    -0.128289423013E+04   -0.95055E-04    0.12315E-04 10640   0.164E-03 0.188E-03
CGA:  15    -0.128289430439E+04   -0.74255E-04    0.83573E-05 10640   0.136E-03 0.149E-03
CGA:  16    -0.128289437186E+04   -0.67477E-04    0.58040E-05 10640   0.119E-03 0.127E-03
CGA:  17    -0.128289443341E+04   -0.61543E-04    0.46955E-05 10640   0.107E-03 0.113E-03
CGA:  18    -0.128289449055E+04   -0.57143E-04    0.40398E-05 10640   0.988E-04 0.103E-03
CGA:  19    -0.128289454414E+04   -0.53595E-04    0.36210E-05 10640   0.924E-04 0.957E-04
CGA:  20    -0.128289459473E+04   -0.50589E-04    0.33346E-05 10640   0.873E-04 0.899E-04
CGA:  21    -0.128289464271E+04   -0.47977E-04    0.31253E-05 10640   0.829E-04 0.851E-04
CGA:  22    -0.128289468835E+04   -0.45642E-04    0.29659E-05 10640   0.792E-04 0.811E-04
CGA:  23    -0.128289473187E+04   -0.43517E-04    0.28404E-05 10640   0.759E-04 0.776E-04
CGA:  24    -0.128289477343E+04   -0.41559E-04    0.27404E-05 10640   0.730E-04 0.745E-04
CGA:  25    -0.128289481317E+04   -0.39743E-04    0.26596E-05 10640   0.704E-04 0.717E-04
CGA:  26    -0.128289485122E+04   -0.38045E-04    0.25910E-05 10640   0.679E-04 0.691E-04
CGA:  27    -0.128289488767E+04   -0.36449E-04    0.25324E-05 10640   0.656E-04 0.667E-04
CGA:  28    -0.128289492261E+04   -0.34949E-04    0.24813E-05 10640   0.635E-04 0.646E-04
CGA:  29    -0.128289495615E+04   -0.33538E-04    0.24359E-05 10640   0.615E-04 0.625E-04
CGA:  30    -0.128289498836E+04   -0.32208E-04    0.23950E-05 10640   0.597E-04 0.606E-04
CGA:  31    -0.128289501931E+04   -0.30953E-04    0.23578E-05 10640   0.579E-04 0.587E-04
CGA:  32    -0.128289504908E+04   -0.29765E-04    0.23239E-05 10640   0.562E-04 0.570E-04
CGA:  33    -0.128289507772E+04   -0.28642E-04    0.22926E-05 10640   0.546E-04 0.554E-04
CGA:  34    -0.128289510529E+04   -0.27572E-04    0.22640E-05 10640   0.531E-04 0.538E-04
CGA:  35    -0.128289513185E+04   -0.26555E-04    0.22378E-05 10640   0.517E-04 0.523E-04
CGA:  36    -0.128289515743E+04   -0.25580E-04    0.22143E-05 10640   0.503E-04 0.509E-04
CGA:  37    -0.128289518208E+04   -0.24650E-04    0.21929E-05 10640   0.489E-04 0.496E-04
CGA:  38    -0.128289520583E+04   -0.23753E-04    0.21743E-05 10640   0.477E-04 0.483E-04
CGA:  39    -0.128289522872E+04   -0.22892E-04    0.21582E-05 10640   0.464E-04 0.470E-04
CGA:  40    -0.128289525078E+04   -0.22062E-04    0.21446E-05 10640   0.452E-04 0.458E-04
CGA:  41    -0.128289527204E+04   -0.21261E-04    0.21334E-05 10640   0.441E-04 0.446E-04
CGA:  42    -0.128289529253E+04   -0.20488E-04    0.21248E-05 10640   0.430E-04 0.435E-04
CGA:  43    -0.128289531227E+04   -0.19741E-04    0.21188E-05 10640   0.419E-04 0.424E-04
CGA:  44    -0.128289533129E+04   -0.19019E-04    0.21156E-05 10640   0.409E-04 0.414E-04
CGA:  45    -0.128289534961E+04   -0.18320E-04    0.21152E-05 10640   0.399E-04 0.404E-04
CGA:  46    -0.128289536726E+04   -0.17644E-04    0.21177E-05 10640   0.390E-04 0.394E-04
CGA:  47    -0.128289538425E+04   -0.16990E-04    0.21230E-05 10640   0.380E-04 0.385E-04
CGA:  48    -0.128289540061E+04   -0.16360E-04    0.21311E-05 10640   0.371E-04 0.376E-04
CGA:  49    -0.128289541636E+04   -0.15750E-04    0.21423E-05 10640   0.363E-04 0.367E-04
CGA:  50    -0.128289543152E+04   -0.15160E-04    0.21568E-05 10640   0.354E-04 0.358E-04
CGA:  51    -0.128289544611E+04   -0.14592E-04    0.21740E-05 10640   0.346E-04 0.350E-04
CGA:  52    -0.128289546015E+04   -0.14044E-04    0.21946E-05 10640   0.338E-04 0.342E-04
CGA:  53    -0.128289547367E+04   -0.13514E-04    0.22187E-05 10640   0.331E-04 0.335E-04
CGA:  54    -0.128289548667E+04   -0.13004E-04    0.22466E-05 10640   0.324E-04 0.327E-04
CGA:  55    -0.128289549918E+04   -0.12514E-04    0.22775E-05 10640   0.316E-04 0.320E-04
CGA:  56    -0.128289551122E+04   -0.12041E-04    0.23126E-05 10640   0.309E-04 0.313E-04
CGA:  57    -0.128289552281E+04   -0.11585E-04    0.23523E-05 10640   0.303E-04 0.306E-04
CGA:  58    -0.128289553396E+04   -0.11148E-04    0.23953E-05 10640   0.296E-04 0.299E-04
CGA:  59    -0.128289554468E+04   -0.10726E-04    0.24443E-05 10640   0.290E-04 0.293E-04
CGA:  60    -0.128289555500E+04   -0.10322E-04    0.24973E-05 10640   0.284E-04 0.287E-04
CGA:  61    -0.128289556494E+04   -0.99315E-05    0.25568E-05 10640   0.278E-04 0.281E-04
   3 F= -.12828956E+04 E0= -.12828951E+04  d E =-.128891E+00  mag=    47.0000
       N       E                     dE             d eps       ncg     rms          ort
SDA:   1    -0.127501598318E+04    0.78796E+01    0.00000E+00 10640   0.211E+02 0.000E+00
CGA:   2    -0.128067351251E+04   -0.56575E+01   -0.56446E+01 10640   0.910E+01 0.865E-01
CGA:   3    -0.128255342167E+04   -0.18799E+01   -0.18821E+01 10640   0.221E+01-0.312E-01
CGA:   4    -0.128291797048E+04   -0.36455E+00   -0.36484E+00 10640   0.422E+00-0.213E-02
CGA:   5    -0.128300238163E+04   -0.84411E-01   -0.87627E-01 10640   0.119E+00-0.379E-01
CGA:   6    -0.128302343551E+04   -0.21054E-01   -0.21166E-01 10640   0.428E-01-0.136E-02
CGA:   7    -0.128303254604E+04   -0.91105E-02   -0.97052E-02 10640   0.189E-01-0.598E-02
CGA:   8    -0.128303612665E+04   -0.35806E-02   -0.43312E-02 10640   0.177E-01-0.573E-02
CGA:   9    -0.128303844546E+04   -0.23188E-02   -0.37935E-02 10640   0.163E-01-0.890E-02
CGA:  10    -0.128304105187E+04   -0.26064E-02   -0.26502E-02 10640   0.846E-02-0.359E-02
CGA:  11    -0.128304150748E+04   -0.45560E-03   -0.28717E-02 10640   0.183E-01-0.846E-02
CGA:  12    -0.128304353731E+04   -0.20298E-02   -0.20679E-02 10640   0.337E-02 0.742E-03
CGA:  13    -0.128304418218E+04   -0.64487E-03   -0.63660E-03 10640   0.434E-03 0.449E-03
CGA:  14    -0.128304436550E+04   -0.18332E-03    0.29544E-03 10640   0.309E-03 0.314E-03
CGA:  15    -0.128304455222E+04   -0.18672E-03    0.30052E-04 10640   0.251E-03 0.220E-03
CGA:  16    -0.128304470456E+04   -0.15233E-03    0.24246E-04 10640   0.226E-03 0.197E-03
CGA:  17    -0.128304484660E+04   -0.14205E-03    0.20282E-04 10640   0.208E-03 0.184E-03
CGA:  18    -0.128304498004E+04   -0.13344E-03    0.17825E-04 10640   0.193E-03 0.173E-03
CGA:  19    -0.128304510103E+04   -0.12099E-03    0.17224E-04 10640   0.179E-03 0.164E-03
CGA:  20    -0.128304521837E+04   -0.11734E-03    0.14692E-04 10640   0.167E-03 0.155E-03
CGA:  21    -0.128304532308E+04   -0.10471E-03    0.14991E-04 10640   0.156E-03 0.147E-03
CGA:  22    -0.128304542576E+04   -0.10268E-03    0.12705E-04 10640   0.146E-03 0.140E-03
CGA:  23    -0.128304551689E+04   -0.91126E-04    0.13301E-04 10640   0.137E-03 0.133E-03
CGA:  24    -0.128304560647E+04   -0.89582E-04    0.11364E-04 10640   0.129E-03 0.127E-03
CGA:  25    -0.128304568607E+04   -0.79600E-04    0.12043E-04 10640   0.122E-03 0.121E-03
CGA:  26    -0.128304576415E+04   -0.78080E-04    0.10464E-04 10640   0.115E-03 0.115E-03
CGA:  27    -0.128304583390E+04   -0.69751E-04    0.11139E-04 10640   0.109E-03 0.110E-03
CGA:  28    -0.128304590202E+04   -0.68116E-04    0.98803E-05 10640   0.104E-03 0.104E-03
CGA:  29    -0.128304596331E+04   -0.61290E-04    0.10519E-04 10640   0.984E-04 0.996E-04
CGA:  30    -0.128304602285E+04   -0.59546E-04    0.95289E-05 10640   0.937E-04 0.950E-04
CGA:  31    -0.128304607683E+04   -0.53975E-04    0.10130E-04 10640   0.893E-04 0.908E-04
CGA:  32    -0.128304612901E+04   -0.52185E-04    0.93550E-05 10640   0.853E-04 0.868E-04
CGA:  33    -0.128304617662E+04   -0.47607E-04    0.99371E-05 10640   0.815E-04 0.830E-04
CGA:  34    -0.128304622246E+04   -0.45837E-04    0.93349E-05 10640   0.780E-04 0.794E-04
CGA:  35    -0.128304626450E+04   -0.42039E-04    0.99205E-05 10640   0.747E-04 0.761E-04
CGA:  36    -0.128304630483E+04   -0.40339E-04    0.94607E-05 10640   0.716E-04 0.730E-04
CGA:  37    -0.128304634199E+04   -0.37152E-04    0.10080E-04 10640   0.687E-04 0.700E-04
CGA:  38    -0.128304637754E+04   -0.35552E-04    0.97453E-05 10640   0.660E-04 0.672E-04
CGA:  39    -0.128304641039E+04   -0.32849E-04    0.10435E-04 10640   0.634E-04 0.646E-04
CGA:  40    -0.128304644175E+04   -0.31366E-04    0.10219E-04 10640   0.610E-04 0.621E-04
CGA:  41    -0.128304647081E+04   -0.29054E-04    0.11028E-04 10640   0.587E-04 0.598E-04
CGA:  42    -0.128304649850E+04   -0.27696E-04    0.10940E-04 10640   0.565E-04 0.575E-04
CGA:  43    -0.128304652421E+04   -0.25704E-04    0.11942E-04 10640   0.544E-04 0.554E-04
CGA:  44    -0.128304654868E+04   -0.24470E-04    0.12009E-04 10640   0.525E-04 0.534E-04
CGA:  45    -0.128304657142E+04   -0.22744E-04    0.13328E-04 10640   0.506E-04 0.515E-04
CGA:  46    -0.128304659305E+04   -0.21631E-04    0.13619E-04 10640   0.488E-04 0.497E-04
CGA:  47    -0.128304661319E+04   -0.20132E-04    0.15480E-04 10640   0.471E-04 0.479E-04
CGA:  48    -0.128304663232E+04   -0.19132E-04    0.16155E-04 10640   0.455E-04 0.463E-04
CGA:  49    -0.128304665014E+04   -0.17825E-04    0.19074E-04 10640   0.439E-04 0.447E-04
CGA:  50    -0.128304666707E+04   -0.16930E-04    0.20534E-04 10640   0.425E-04 0.432E-04
CGA:  51    -0.128304668286E+04   -0.15789E-04    0.25921E-04 10640   0.411E-04 0.417E-04
CGA:  52    -0.128304669785E+04   -0.14990E-04    0.29559E-04 10640   0.397E-04 0.404E-04
CGA:  53    -0.128304671184E+04   -0.13992E-04    0.43394E-04 10640   0.384E-04 0.390E-04
CGA:  54    -0.128304672512E+04   -0.13279E-04    0.57743E-04 10640   0.372E-04 0.378E-04
CGA:  55    -0.128304673753E+04   -0.12406E-04    0.17022E-03 10640   0.360E-04 0.366E-04
CGA:  56    -0.128304681140E+04   -0.73873E-04   -0.41895E-03 10640   0.292E-04 0.322E-04
CGA:  57    -0.128304683146E+04   -0.20062E-04   -0.14568E-04 10640   0.295E-04 0.271E-04
CGA:  58    -0.128304685547E+04   -0.24011E-04   -0.24901E-04 10640   0.252E-03-0.206E-05
CGA:  59    -0.128304695385E+04   -0.98375E-04   -0.90313E-04 10640   0.216E-03 0.152E-03
CGA:  60    -0.128304696019E+04   -0.63401E-05   -0.16563E-04 10640   0.153E-04 0.393E-04
   4 F= -.12830470E+04 E0= -.12830469E+04  d E =-.151395E+00  mag=    47.0000
       N       E                     dE             d eps       ncg     rms          ort
SDA:   1    -0.128159401078E+04    0.14529E+01    0.00000E+00 10640   0.386E+01 0.000E+00
CGA:   2    -0.128264798537E+04   -0.10540E+01   -0.10541E+01 10640   0.169E+01 0.860E-02
CGA:   3    -0.128299164643E+04   -0.34366E+00   -0.34336E+00 10640   0.382E+00-0.161E-01
CGA:   4    -0.128305618005E+04   -0.64534E-01   -0.64560E-01 10640   0.738E-01 0.113E-02
CGA:   5    -0.128307079992E+04   -0.14620E-01   -0.14252E-01 10640   0.194E-01-0.359E-02
CGA:   6    -0.128307452231E+04   -0.37224E-02   -0.36428E-02 10640   0.770E-02-0.809E-03
CGA:   7    -0.128307607518E+04   -0.15529E-02   -0.14998E-02 10640   0.252E-02-0.612E-03
CGA:   8    -0.128307680581E+04   -0.73063E-03   -0.78235E-03 10640   0.283E-02-0.971E-03
CGA:   9    -0.128307730992E+04   -0.50410E-03   -0.56241E-03 10640   0.290E-02-0.158E-02
CGA:  10    -0.128307780498E+04   -0.49507E-03   -0.46621E-03 10640   0.123E-02-0.222E-03
CGA:  11    -0.128307813675E+04   -0.33176E-03   -0.44624E-03 10640   0.193E-02-0.104E-02
CGA:  12    -0.128307833784E+04   -0.20109E-03   -0.22294E-03 10640   0.383E-03 0.132E-03
CGA:  13    -0.128307844613E+04   -0.10829E-03   -0.10771E-03 10640   0.111E-03-0.375E-04
CGA:  14    -0.128307854264E+04   -0.96510E-04    0.18981E-04 10640   0.826E-04 0.645E-04
CGA:  15    -0.128307863589E+04   -0.93251E-04    0.11126E-04 10640   0.678E-04 0.391E-04
CGA:  16    -0.128307874871E+04   -0.11282E-03    0.13447E-04 10640   0.611E-04 0.592E-04
CGA:  17    -0.128307878912E+04   -0.40413E-04    0.44473E-04 10640   0.597E-04 0.299E-04
CGA:  18    -0.128307886051E+04   -0.71385E-04    0.27715E-04 10640   0.477E-04 0.579E-04
CGA:  19    -0.128307890736E+04   -0.46855E-04    0.86429E-05 10640   0.430E-04 0.292E-04
CGA:  20    -0.128307893680E+04   -0.29443E-04    0.25719E-04 10640   0.685E-04 0.129E-04
CGA:  21    -0.128307901706E+04   -0.80258E-04    0.19886E-04 10640   0.371E-04 0.789E-04
CGA:  22    -0.128307904029E+04   -0.23229E-04    0.41082E-04 10640   0.571E-04 0.999E-05
CGA:  23    -0.128307909390E+04   -0.53612E-04    0.30462E-04 10640   0.348E-04 0.643E-04
CGA:  24    -0.128307910352E+04   -0.96137E-05   -0.96216E-05 10640   0.507E-04 0.594E-05
CGA:  25    -0.128307914646E+04   -0.42946E-04    0.27389E-04 10640   0.373E-04 0.510E-04
CGA:  26    -0.128307914320E+04    0.32657E-05   -0.28608E-04 10640   0.474E-03-0.653E-04
CGA:  27    -0.128307918321E+04   -0.40012E-04   -0.49880E-04 10640   0.326E-04 0.519E-04
CGA:  28    -0.128307919319E+04   -0.99792E-05   -0.99483E-05 10640   0.412E-04-0.171E-05
CGA:  29    -0.128307921799E+04   -0.24807E-04    0.64138E-04 10640   0.636E-04 0.251E-04
CGA:  30    -0.128307922687E+04   -0.88798E-05   -0.10456E-04 10640   0.182E-04 0.125E-04
CGA:  31    -0.128307924399E+04   -0.17112E-04   -0.16472E-04 10640   0.847E-04 0.900E-06
CGA:  32    -0.128307928056E+04   -0.36576E-04   -0.33554E-04 10640   0.132E-03 0.404E-04
CGA:  33    -0.128307935621E+04   -0.75651E-04   -0.72905E-04 10640   0.173E-03 0.345E-04
CGA:  34    -0.128307944265E+04   -0.86433E-04   -0.10157E-03 10640   0.283E-03-0.121E-03
CGA:  35    -0.128307946167E+04   -0.19020E-04   -0.32792E-04 10640   0.444E-04 0.672E-04
CGA:  36    -0.128307946465E+04   -0.29874E-05   -0.68612E-05 10640   0.123E-04 0.206E-04
   5 F= -.12830795E+04 E0= -.12830795E+04  d E =-.325045E-01  mag=    47.0000
       N       E                     dE             d eps       ncg     rms          ort
SDA:   1    -0.127625584431E+04    0.68236E+01    0.00000E+00 10640   0.172E+02 0.000E+00
CGA:   2    -0.128125336663E+04   -0.49975E+01   -0.49975E+01 10640   0.755E+01 0.321E-02
CGA:   3    -0.128274364616E+04   -0.14903E+01   -0.14940E+01 10640   0.147E+01-0.246E-01
CGA:   4    -0.128300483638E+04   -0.26119E+00   -0.26093E+00 10640   0.291E+00 0.485E-04
CGA:   5    -0.128306475639E+04   -0.59920E-01   -0.59676E-01 10640   0.651E-01-0.330E-02
CGA:   6    -0.128308086871E+04   -0.16112E-01   -0.16024E-01 10640   0.235E-01-0.298E-02
CGA:   7    -0.128308570110E+04   -0.48324E-02   -0.47629E-02 10640   0.905E-02-0.104E-02
CGA:   8    -0.128308835972E+04   -0.26586E-02   -0.27644E-02 10640   0.706E-02-0.229E-02
CGA:   9    -0.128308996705E+04   -0.16073E-02   -0.17946E-02 10640   0.620E-02-0.291E-02
CGA:  10    -0.128309092040E+04   -0.95335E-03   -0.14233E-02 10640   0.808E-02-0.423E-02
CGA:  11    -0.128309207928E+04   -0.11589E-02   -0.11328E-02 10640   0.255E-02-0.164E-03
CGA:  12    -0.128309280445E+04   -0.72517E-03   -0.72374E-03 10640   0.102E-02 0.124E-03
CGA:  13    -0.128309325164E+04   -0.44718E-03   -0.47552E-03 10640   0.127E-02-0.170E-03
CGA:  14    -0.128309354177E+04   -0.29013E-03   -0.28120E-03 10640   0.997E-03-0.446E-03
CGA:  15    -0.128309372582E+04   -0.18406E-03   -0.18406E-03 10640   0.585E-03-0.807E-05
CGA:  16    -0.128309394651E+04   -0.22068E-03   -0.23718E-03 10640   0.113E-02-0.138E-03
CGA:  17    -0.128309426594E+04   -0.31943E-03   -0.36046E-03 10640   0.150E-02-0.344E-03
CGA:  18    -0.128309459373E+04   -0.32778E-03   -0.34361E-03 10640   0.222E-02-0.512E-03
CGA:  19    -0.128309504673E+04   -0.45300E-03   -0.51433E-03 10640   0.193E-02-0.116E-02
CGA:  20    -0.128309535354E+04   -0.30681E-03   -0.36129E-03 10640   0.759E-03 0.477E-03
CGA:  21    -0.128309559066E+04   -0.23712E-03   -0.24352E-03 10640   0.218E-03 0.164E-03
CGA:  22    -0.128309563843E+04   -0.47773E-04   -0.56230E-04 10640   0.886E-04 0.103E-03
CGA:  23    -0.128309564478E+04   -0.63512E-05   -0.18042E-04 10640   0.399E-04 0.770E-04
   6 F= -.12830956E+04 E0= -.12830956E+04  d E =-.161801E-01  mag=    47.0000
       N       E                     dE             d eps       ncg     rms          ort
SDA:   1    -0.128221330188E+04    0.88234E+00    0.00000E+00 10640   0.245E+01 0.000E+00
CGA:   2    -0.128282210746E+04   -0.60881E+00   -0.60851E+00 10640   0.109E+01-0.121E-01
CGA:   3    -0.128305417678E+04   -0.23207E+00   -0.23277E+00 10640   0.214E+00 0.136E-01
CGA:   4    -0.128309106060E+04   -0.36884E-01   -0.37003E-01 10640   0.433E-01 0.121E-02
CGA:   5    -0.128309819051E+04   -0.71299E-02   -0.74847E-02 10640   0.942E-02 0.394E-02
CGA:   6    -0.128310027940E+04   -0.20889E-02   -0.21153E-02 10640   0.327E-02 0.501E-03
CGA:   7    -0.128310094109E+04   -0.66170E-03   -0.68130E-03 10640   0.925E-03 0.335E-03
CGA:   8    -0.128310115654E+04   -0.21545E-03   -0.22318E-03 10640   0.390E-03 0.222E-03
CGA:   9    -0.128310119506E+04   -0.38524E-04   -0.68891E-04 10640   0.191E-03 0.278E-03
CGA:  10    -0.128310118982E+04    0.52409E-05   -0.18263E-04 10640   0.133E-03 0.156E-03
CGA:  11    -0.128310118158E+04    0.82440E-05   -0.10818E-04 10640   0.111E-03 0.121E-03
   7 F= -.12831012E+04 E0= -.12831012E+04  d E =-.553680E-02  mag=    47.0000
       N       E                     dE             d eps       ncg     rms          ort
SDA:   1    -0.128286215559E+04    0.23903E+00    0.00000E+00 10640   0.684E+00 0.000E+00
CGA:   2    -0.128302790643E+04   -0.16575E+00   -0.16583E+00 10640   0.294E+00-0.407E-02
CGA:   3    -0.128309064850E+04   -0.62742E-01   -0.62786E-01 10640   0.621E-01 0.490E-02
CGA:   4    -0.128310190953E+04   -0.11261E-01   -0.11272E-01 10640   0.117E-01 0.269E-03
CGA:   5    -0.128310377683E+04   -0.18673E-02   -0.19663E-02 10640   0.209E-02 0.182E-02
CGA:   6    -0.128310425691E+04   -0.48008E-03   -0.48879E-03 10640   0.693E-03 0.534E-03
CGA:   7    -0.128310439542E+04   -0.13851E-03   -0.15161E-03 10640   0.248E-03 0.300E-03
CGA:   8    -0.128310442241E+04   -0.26991E-04   -0.45963E-04 10640   0.143E-03 0.219E-03
CGA:   9    -0.128310442717E+04   -0.47597E-05   -0.16060E-04 10640   0.101E-03 0.114E-03
   8 F= -.12831044E+04 E0= -.12831044E+04  d E =-.324559E-02  mag=    47.0000
       N       E                     dE             d eps       ncg     rms          ort
SDA:   1    -0.128287440202E+04    0.23002E+00    0.00000E+00 10640   0.570E+00 0.000E+00
CGA:   2    -0.128304011111E+04   -0.16571E+00   -0.16606E+00 10640   0.269E+00-0.381E-02
CGA:   3    -0.128308970411E+04   -0.49593E-01   -0.49687E-01 10640   0.513E-01 0.519E-02
CGA:   4    -0.128309831284E+04   -0.86087E-02   -0.85644E-02 10640   0.126E-01-0.107E-02
CGA:   5    -0.128310024716E+04   -0.19343E-02   -0.19854E-02 10640   0.261E-02 0.126E-02
CGA:   6    -0.128310079062E+04   -0.54346E-03   -0.54752E-03 10640   0.723E-03 0.414E-03
CGA:   7    -0.128310102388E+04   -0.23326E-03   -0.23212E-03 10640   0.314E-03 0.153E-04
CGA:   8    -0.128310102921E+04   -0.53353E-05   -0.30130E-04 10640   0.190E-03 0.226E-03
CGA:   9    -0.128310103847E+04   -0.92561E-05   -0.21142E-04 10640   0.111E-03 0.137E-03
CGA:  10    -0.128310105082E+04   -0.12355E-04   -0.16557E-04 10640   0.820E-04 0.929E-04
CGA:  11    -0.128310105501E+04   -0.41859E-05   -0.97395E-05 10640   0.716E-04 0.762E-04
   9 F= -.12831011E+04 E0= -.12831011E+04  d E =0.337216E-02  mag=    47.0000
       N       E                     dE             d eps       ncg     rms          ort
SDA:   1    -0.128174770735E+04    0.13533E+01    0.00000E+00 10640   0.341E+01 0.000E+00
CGA:   2    -0.128269470274E+04   -0.94700E+00   -0.94714E+00 10640   0.161E+01-0.108E-02
CGA:   3    -0.128302091635E+04   -0.32621E+00   -0.32623E+00 10640   0.264E+00-0.772E-03
CGA:   4    -0.128306639972E+04   -0.45483E-01   -0.45458E-01 10640   0.589E-01-0.145E-02
CGA:   5    -0.128307756004E+04   -0.11160E-01   -0.11157E-01 10640   0.139E-01 0.191E-02
CGA:   6    -0.128308055447E+04   -0.29944E-02   -0.30177E-02 10640   0.631E-02-0.104E-02
CGA:   7    -0.128308152908E+04   -0.97461E-03   -0.98215E-03 10640   0.163E-02 0.357E-03
CGA:   8    -0.128308200001E+04   -0.47092E-03   -0.45692E-03 10640   0.774E-03 0.182E-03
CGA:   9    -0.128308231609E+04   -0.31609E-03   -0.49476E-03 10640   0.190E-02-0.467E-03
CGA:  10    -0.128308250820E+04   -0.19210E-03   -0.22596E-03 10640   0.438E-03 0.370E-03
CGA:  11    -0.128308265561E+04   -0.14741E-03   -0.14916E-03 10640   0.316E-03-0.229E-04
CGA:  12    -0.128308277293E+04   -0.11733E-03   -0.15664E-03 10640   0.865E-03-0.127E-03
CGA:  13    -0.128308282136E+04   -0.48424E-04   -0.66793E-04 10640   0.817E-03 0.186E-03
CGA:  14    -0.128308292748E+04   -0.10612E-03   -0.13585E-03 10640   0.636E-03 0.347E-03
CGA:  15    -0.128308316195E+04   -0.23447E-03   -0.22752E-03 10640   0.637E-03 0.199E-03
CGA:  16    -0.128308334375E+04   -0.18180E-03   -0.18158E-03 10640   0.552E-03-0.117E-03
CGA:  17    -0.128308340864E+04   -0.64885E-04   -0.74100E-04 10640   0.527E-03 0.161E-03
CGA:  18    -0.128308346874E+04   -0.60106E-04   -0.85080E-04 10640   0.255E-03 0.267E-03
CGA:  19    -0.128308354193E+04   -0.73187E-04   -0.75412E-04 10640   0.200E-03-0.263E-04
CGA:  20    -0.128308354951E+04   -0.75803E-05   -0.17684E-04 10640   0.661E-04 0.860E-04
  10 F= -.12830835E+04 E0= -.12830835E+04  d E =0.175055E-01  mag=    47.0000
       N       E                     dE             d eps       ncg     rms          ort
SDA:   1    -0.128174168602E+04    0.13419E+01    0.00000E+00 10640   0.370E+01 0.000E+00
CGA:   2    -0.128261838063E+04   -0.87669E+00   -0.87694E+00 10640   0.169E+01-0.643E-02
CGA:   3    -0.128299231852E+04   -0.37394E+00   -0.37384E+00 10640   0.357E+00 0.514E-02
CGA:   4    -0.128304700918E+04   -0.54691E-01   -0.54799E-01 10640   0.702E-01 0.241E-02
CGA:   5    -0.128305998719E+04   -0.12978E-01   -0.13014E-01 10640   0.183E-01 0.199E-02
CGA:   6    -0.128306380367E+04   -0.38165E-02   -0.38171E-02 10640   0.639E-02-0.803E-03
CGA:   7    -0.128306497448E+04   -0.11708E-02   -0.11743E-02 10640   0.165E-02 0.371E-03
CGA:   8    -0.128306549589E+04   -0.52141E-03   -0.59221E-03 10640   0.155E-02-0.508E-03
CGA:   9    -0.128306563220E+04   -0.13631E-03   -0.15421E-03 10640   0.744E-03 0.280E-03
CGA:  10    -0.128306572716E+04   -0.94962E-04   -0.11827E-03 10640   0.420E-03 0.330E-03
CGA:  11    -0.128306581373E+04   -0.86570E-04   -0.94704E-04 10640   0.209E-03 0.178E-03
CGA:  12    -0.128306587606E+04   -0.62324E-04   -0.61487E-04 10640   0.196E-03 0.115E-03
CGA:  13    -0.128306589606E+04   -0.19998E-04   -0.26144E-04 10640   0.103E-03 0.929E-04
CGA:  14    -0.128306595110E+04   -0.55046E-04   -0.48130E-04 10640   0.118E-03 0.568E-04
CGA:  15    -0.128306591935E+04    0.31753E-04   -0.10289E-03 10640   0.169E-02-0.202E-03
CGA:  16    -0.128306601615E+04   -0.96802E-04   -0.14461E-03 10640   0.149E-03 0.324E-03
CGA:  17    -0.128306602220E+04   -0.60450E-05   -0.17083E-04 10640   0.850E-04 0.837E-04
CGA:  18    -0.128306606324E+04   -0.41040E-04    0.10500E-03 10640   0.680E-04 0.387E-04
CGA:  19    -0.128306608752E+04   -0.24286E-04   -0.23361E-04 10640   0.508E-04 0.641E-04
CGA:  20    -0.128306609645E+04   -0.89287E-05   -0.10019E-04 10640   0.415E-04 0.431E-04
CGA:  21    -0.128306611353E+04   -0.17079E-04   -0.13313E-04 10640   0.401E-04 0.376E-04
CGA:  22    -0.128306612244E+04   -0.89142E-05   -0.89791E-05 10640   0.402E-04 0.332E-04
CGA:  23    -0.128306613487E+04   -0.12430E-04   -0.11097E-04 10640   0.494E-04 0.265E-04
CGA:  24    -0.128306614485E+04   -0.99748E-05   -0.10275E-04 10640   0.544E-04 0.146E-04
CGA:  25    -0.128306616277E+04   -0.17918E-04   -0.17004E-04 10640   0.439E-04 0.663E-04
CGA:  26    -0.128306617274E+04   -0.99793E-05   -0.99853E-05 10640   0.552E-04 0.848E-05
CGA:  27    -0.128306621787E+04   -0.45129E-04   -0.31043E-04 10640   0.366E-04 0.569E-04
CGA:  28    -0.128306621563E+04    0.22469E-05   -0.24610E-05 10640   0.238E-04 0.272E-04
  11 F= -.12830662E+04 E0= -.12830662E+04  d E =0.173339E-01  mag=    47.0000
       N       E                     dE             d eps       ncg     rms          ort
SDA:   1    -0.128264455452E+04    0.42166E+00    0.00000E+00 10640   0.125E+01 0.000E+00
CGA:   2    -0.128291125670E+04   -0.26670E+00   -0.26673E+00 10640   0.512E+00 0.266E-02
CGA:   3    -0.128303370908E+04   -0.12245E+00   -0.12251E+00 10640   0.130E+00-0.452E-02
CGA:   4    -0.128305386019E+04   -0.20151E-01   -0.20129E-01 10640   0.216E-01-0.225E-03
CGA:   5    -0.128305856899E+04   -0.47088E-02   -0.47022E-02 10640   0.604E-02-0.160E-02
CGA:   6    -0.128305966551E+04   -0.10965E-02   -0.10963E-02 10640   0.191E-02 0.338E-06
CGA:   7    -0.128306015753E+04   -0.49203E-03   -0.53065E-03 10640   0.119E-02-0.673E-03
CGA:   8    -0.128306026222E+04   -0.10469E-03   -0.11446E-03 10640   0.449E-03 0.131E-03
CGA:   9    -0.128306038845E+04   -0.12623E-03   -0.13093E-03 10640   0.462E-03-0.109E-03
CGA:  10    -0.128306055933E+04   -0.17088E-03    0.37841E-03 10640   0.420E-03-0.213E-03
CGA:  11    -0.128306070322E+04   -0.14389E-03    0.57384E-04 10640   0.373E-03-0.353E-04
CGA:  12    -0.128306077592E+04   -0.72697E-04   -0.11120E-03 10640   0.822E-03-0.373E-03
CGA:  13    -0.128306095336E+04   -0.17744E-03   -0.16495E-03 10640   0.729E-03-0.474E-03
CGA:  14    -0.128306096654E+04   -0.13183E-04   -0.50031E-04 10640   0.104E-03 0.237E-03
CGA:  15    -0.128306096049E+04    0.60513E-05   -0.67143E-05 10640   0.523E-04 0.758E-04
  12 F= -.12830610E+04 E0= -.12830610E+04  d E =0.525514E-02  mag=    47.0000
       N       E                     dE             d eps       ncg     rms          ort
SDA:   1    -0.128282991511E+04    0.23105E+00    0.00000E+00 10640   0.628E+00 0.000E+00
CGA:   2    -0.128298245601E+04   -0.15254E+00   -0.15244E+00 10640   0.292E+00 0.305E-02
CGA:   3    -0.128304402575E+04   -0.61570E-01   -0.61583E-01 10640   0.777E-01-0.469E-02
CGA:   4    -0.128305523614E+04   -0.11210E-01   -0.11226E-01 10640   0.137E-01 0.352E-03
CGA:   5    -0.128305808453E+04   -0.28484E-02   -0.28512E-02 10640   0.361E-02-0.862E-03
CGA:   6    -0.128305874886E+04   -0.66433E-03   -0.66374E-03 10640   0.112E-02-0.683E-04
CGA:   7    -0.128305902745E+04   -0.27859E-03   -0.30432E-03 10640   0.684E-03-0.354E-03
CGA:   8    -0.128305909465E+04   -0.67209E-04   -0.70276E-04 10640   0.233E-03 0.541E-04
CGA:   9    -0.128305916454E+04   -0.69888E-04   -0.91591E-04 10640   0.364E-03-0.136E-03
CGA:  10    -0.128305924325E+04   -0.78702E-04   -0.84462E-04 10640   0.489E-03-0.298E-03
CGA:  11    -0.128305927173E+04   -0.28488E-04   -0.39331E-04 10640   0.300E-04 0.826E-04
CGA:  12    -0.128305927900E+04   -0.72661E-05   -0.11940E-04 10640   0.155E-03-0.351E-04
CGA:  13    -0.128305931058E+04   -0.31584E-04   -0.37758E-04 10640   0.365E-03-0.210E-03
CGA:  14    -0.128305932837E+04   -0.17786E-04   -0.27940E-04 10640   0.228E-04 0.742E-04
CGA:  15    -0.128305933113E+04   -0.27597E-05   -0.30322E-05 10640   0.143E-04 0.283E-05
  13 F= -.12830593E+04 E0= -.12830593E+04  d E =0.162936E-02  mag=    47.0000
       N       E                     dE             d eps       ncg     rms          ort
SDA:   1    -0.128294124775E+04    0.11808E+00    0.00000E+00 10640   0.304E+00 0.000E+00
CGA:   2    -0.128301572362E+04   -0.74476E-01   -0.74471E-01 10640   0.142E+00 0.158E-03
CGA:   3    -0.128304585758E+04   -0.30134E-01   -0.30140E-01 10640   0.337E-01-0.879E-03
CGA:   4    -0.128305054883E+04   -0.46912E-02   -0.47716E-02 10640   0.606E-02 0.132E-02
CGA:   5    -0.128305182415E+04   -0.12753E-02   -0.12753E-02 10640   0.154E-02-0.886E-04
CGA:   6    -0.128305210610E+04   -0.28195E-03   -0.28418E-03 10640   0.414E-03 0.143E-03
CGA:   7    -0.128305223525E+04   -0.12916E-03   -0.15296E-03 10640   0.330E-03-0.174E-03
CGA:   8    -0.128305225356E+04   -0.18308E-04   -0.22876E-04 10640   0.169E-03 0.515E-04
CGA:   9    -0.128305227003E+04   -0.16468E-04   -0.22471E-04 10640   0.912E-04 0.673E-04
CGA:  10    -0.128305228816E+04   -0.18136E-04   -0.19408E-04 10640   0.430E-04 0.266E-04
CGA:  11    -0.128305230445E+04   -0.16282E-04   -0.20937E-04 10640   0.112E-03-0.262E-04
CGA:  12    -0.128305231239E+04   -0.79404E-05   -0.11201E-04 10640   0.264E-04 0.308E-04
  14 F= -.12830523E+04 E0= -.12830523E+04  d E =0.701874E-02  mag=    47.0000
       N       E                     dE             d eps       ncg     rms          ort
SDA:   1    -0.128255948707E+04    0.49282E+00    0.00000E+00 10640   0.133E+01 0.000E+00
CGA:   2    -0.128286934390E+04   -0.30986E+00   -0.30998E+00 10640   0.639E+00-0.410E-02
CGA:   3    -0.128299985513E+04   -0.13051E+00   -0.13051E+00 10640   0.162E+00 0.260E-02
CGA:   4    -0.128302446873E+04   -0.24614E-01   -0.24747E-01 10640   0.270E-01 0.266E-02
CGA:   5    -0.128302999647E+04   -0.55277E-02   -0.55279E-02 10640   0.681E-02 0.958E-04
CGA:   6    -0.128303121968E+04   -0.12232E-02   -0.12355E-02 10640   0.199E-02 0.550E-03
CGA:   7    -0.128303180359E+04   -0.58391E-03   -0.69333E-03 10640   0.173E-02-0.908E-03
CGA:   8    -0.128303189622E+04   -0.92624E-04   -0.10774E-03 10640   0.789E-03 0.163E-03
CGA:   9    -0.128303195771E+04   -0.61493E-04   -0.87765E-04 10640   0.431E-03 0.258E-03
CGA:  10    -0.128303203103E+04   -0.73325E-04   -0.81269E-04 10640   0.220E-03 0.141E-03
CGA:  11    -0.128303209461E+04   -0.63575E-04   -0.68005E-04 10640   0.346E-03-0.118E-03
CGA:  12    -0.128303211513E+04   -0.20518E-04   -0.32233E-04 10640   0.845E-04 0.113E-03
CGA:  13    -0.128303213179E+04   -0.16669E-04   -0.17889E-04 10640   0.661E-04 0.371E-04
CGA:  14    -0.128303181400E+04    0.31780E-03   -0.17134E-03 10640   0.271E-02-0.418E-03
CGA:  15    -0.128303207893E+04   -0.26494E-03   -0.33471E-03 10640   0.589E-03 0.319E-03
CGA:  16    -0.128303220932E+04   -0.13039E-03   -0.13695E-03 10640   0.507E-04 0.514E-04
CGA:  17    -0.128303224872E+04   -0.39392E-04    0.11231E-03 10640   0.842E-04-0.106E-04
CGA:  18    -0.128303225265E+04   -0.39345E-05   -0.86975E-05 10640   0.463E-04 0.237E-04
  15 F= -.12830323E+04 E0= -.12830323E+04  d E =0.200597E-01  mag=    47.0000
       N       E                     dE             d eps       ncg     rms          ort
SDA:   1    -0.128264989291E+04    0.38236E+00    0.00000E+00 10640   0.101E+01 0.000E+00
CGA:   2    -0.128289539490E+04   -0.24550E+00   -0.24541E+00 10640   0.459E+00-0.126E-02
CGA:   3    -0.128299566058E+04   -0.10027E+00   -0.10047E+00 10640   0.922E-01 0.238E-02
CGA:   4    -0.128301056706E+04   -0.14906E-01   -0.14876E-01 10640   0.191E-01-0.197E-03
CGA:   5    -0.128301389804E+04   -0.33310E-02   -0.34149E-02 10640   0.459E-02 0.764E-03
CGA:   6    -0.128301491376E+04   -0.10157E-02   -0.99806E-03 10640   0.167E-02-0.221E-03
CGA:   7    -0.128301517342E+04   -0.25965E-03   -0.28117E-03 10640   0.404E-03 0.204E-03
CGA:   8    -0.128301527663E+04   -0.10321E-03   -0.10660E-03 10640   0.168E-03 0.787E-04
CGA:   9    -0.128301530671E+04   -0.30084E-04   -0.38328E-04 10640   0.832E-04 0.971E-04
CGA:  10    -0.128301531106E+04   -0.43427E-05   -0.11857E-04 10640   0.496E-04 0.581E-04
  16 F= -.12830153E+04 E0= -.12830153E+04  d E =0.169416E-01  mag=    47.0000
       N       E                     dE             d eps       ncg     rms          ort
SDA:   1    -0.128288181528E+04    0.13349E+00    0.00000E+00 10640   0.405E+00 0.000E+00
CGA:   2    -0.128296992773E+04   -0.88112E-01   -0.88142E-01 10640   0.172E+00 0.715E-03
CGA:   3    -0.128301015830E+04   -0.40231E-01   -0.40192E-01 10640   0.447E-01-0.153E-02
CGA:   4    -0.128301703077E+04   -0.68725E-02   -0.67498E-02 10640   0.831E-02-0.114E-02
CGA:   5    -0.128301852528E+04   -0.14945E-02   -0.14960E-02 10640   0.204E-02 0.306E-04
CGA:   6    -0.128301896425E+04   -0.43897E-03   -0.43337E-03 10640   0.715E-03-0.148E-03
CGA:   7    -0.128301908017E+04   -0.11592E-03   -0.11959E-03 10640   0.169E-03 0.554E-04
CGA:   8    -0.128301913730E+04   -0.57131E-04   -0.66441E-04 10640   0.178E-03-0.774E-04
CGA:   9    -0.128301916175E+04   -0.24451E-04   -0.24836E-04 10640   0.129E-03-0.572E-04
CGA:  10    -0.128301922492E+04   -0.63167E-04    0.25270E-04 10640   0.687E-04-0.224E-04
CGA:  11    -0.128301926352E+04   -0.38597E-04    0.20032E-04 10640   0.418E-04-0.469E-08
CGA:  12    -0.128301928483E+04   -0.21315E-04    0.28810E-03 10640   0.335E-04-0.250E-05
CGA:  13    -0.128301930965E+04   -0.24821E-04    0.68599E-05 10640   0.204E-04 0.326E-05
CGA:  14    -0.128301931536E+04   -0.57100E-05   -0.56925E-05 10640   0.129E-04 0.456E-05
  17 F= -.12830193E+04 E0= -.12830193E+04  d E =-.400430E-02  mag=    47.0000
       N       E                     dE             d eps       ncg     rms          ort
SDA:   1    -0.128296763192E+04    0.51678E-01    0.00000E+00 10640   0.128E+00 0.000E+00
CGA:   2    -0.128299892808E+04   -0.31296E-01   -0.31294E-01 10640   0.600E-01-0.287E-03
CGA:   3    -0.128301172941E+04   -0.12801E-01   -0.12815E-01 10640   0.118E-01 0.352E-03
CGA:   4    -0.128301355595E+04   -0.18265E-02   -0.18622E-02 10640   0.214E-02 0.390E-03
CGA:   5    -0.128301407109E+04   -0.51514E-03   -0.51179E-03 10640   0.654E-03-0.231E-03
CGA:   6    -0.128301418022E+04   -0.10913E-03   -0.10972E-03 10640   0.191E-03 0.111E-04
CGA:   7    -0.128301413271E+04    0.47512E-04   -0.12981E-03 10640   0.128E-02-0.414E-03
CGA:   8    -0.128301423201E+04   -0.99298E-04   -0.13666E-03 10640   0.190E-03 0.242E-03
CGA:   9    -0.128301427698E+04   -0.44975E-04   -0.44948E-04 10640   0.421E-04-0.387E-06
CGA:  10    -0.128301418083E+04    0.96154E-04   -0.43533E-04 10640   0.122E-02-0.178E-03
CGA:  11    -0.128301426537E+04   -0.84545E-04   -0.11576E-03 10640   0.980E-04 0.163E-03
CGA:  12    -0.128301429714E+04   -0.31763E-04   -0.31979E-04 10640   0.874E-04-0.362E-04
CGA:  13    -0.128301428729E+04    0.98473E-05   -0.26329E-04 10640   0.469E-03-0.185E-03
CGA:  14    -0.128301431189E+04   -0.24604E-04   -0.45180E-04 10640   0.713E-04 0.107E-03
CGA:  15    -0.128301432205E+04   -0.10158E-04   -0.13494E-04 10640   0.349E-04 0.261E-04
CGA:  16    -0.128301433513E+04   -0.13080E-04   -0.12933E-04 10640   0.302E-04-0.303E-04
CGA:  17    -0.128301433284E+04    0.22883E-05   -0.17287E-05 10640   0.123E-04 0.184E-04
  18 F= -.12830143E+04 E0= -.12830143E+04  d E =0.498252E-02  mag=    47.0000
       N       E                     dE             d eps       ncg     rms          ort
SDA:   1    -0.128157158484E+04    0.14428E+01    0.00000E+00 10640   0.369E+01 0.000E+00
CGA:   2    -0.128253172419E+04   -0.96014E+00   -0.96016E+00 10640   0.176E+01-0.237E-02
CGA:   3    -0.128289536017E+04   -0.36364E+00   -0.36370E+00 10640   0.332E+00 0.281E-02
CGA:   4    -0.128295021437E+04   -0.54854E-01   -0.54733E-01 10640   0.706E-01-0.157E-02
CGA:   5    -0.128296337302E+04   -0.13159E-01   -0.13223E-01 10640   0.165E-01 0.120E-02
CGA:   6    -0.128296720702E+04   -0.38340E-02   -0.37990E-02 10640   0.686E-02-0.179E-02
CGA:   7    -0.128296822082E+04   -0.10138E-02   -0.10456E-02 10640   0.167E-02 0.443E-03
CGA:   8    -0.128296871861E+04   -0.49779E-03   -0.50601E-03 10640   0.961E-03-0.185E-03
CGA:   9    -0.128296899449E+04   -0.27587E-03   -0.35158E-03 10640   0.135E-02-0.449E-03
CGA:  10    -0.128296913360E+04   -0.13911E-03   -0.12550E-03 10640   0.716E-03-0.177E-03
CGA:  11    -0.128296930563E+04   -0.17203E-03   -0.20972E-03 10640   0.118E-02-0.424E-03
CGA:  12    -0.128296948447E+04   -0.17884E-03   -0.16869E-03 10640   0.357E-03-0.908E-04
CGA:  13    -0.128296958009E+04   -0.95622E-04   -0.93633E-04 10640   0.159E-03 0.531E-04
CGA:  14    -0.128296965913E+04   -0.79033E-04   -0.85679E-04 10640   0.287E-03-0.307E-04
CGA:  15    -0.128296971731E+04   -0.58179E-04   -0.99359E-04 10640   0.488E-03-0.245E-03
CGA:  16    -0.128296977373E+04   -0.56420E-04   -0.65905E-04 10640   0.153E-03 0.722E-04
CGA:  17    -0.128296983693E+04   -0.63204E-04   -0.63866E-04 10640   0.111E-03-0.683E-05
CGA:  18    -0.128296982344E+04    0.13490E-04   -0.96442E-04 10640   0.792E-03-0.173E-03
CGA:  19    -0.128296991792E+04   -0.94480E-04   -0.96873E-04 10640   0.119E-03 0.164E-04
CGA:  20    -0.128296996299E+04   -0.45071E-04   -0.43370E-04 10640   0.645E-04 0.256E-04
CGA:  21    -0.128297001156E+04   -0.48572E-04    0.19582E-03 10640   0.678E-04-0.221E-04
CGA:  22    -0.128297002215E+04   -0.10589E-04   -0.10869E-04 10640   0.431E-04 0.539E-05
CGA:  23    -0.128297002655E+04   -0.43978E-05   -0.68134E-05 10640   0.294E-04 0.166E-04
CGA:  24    -0.128297005139E+04   -0.24843E-04    0.76282E-04 10640   0.429E-04 0.159E-04
CGA:  25    -0.128297006342E+04   -0.12030E-04   -0.14749E-04 10640   0.118E-03-0.451E-04
CGA:  26    -0.128297007349E+04   -0.10066E-04   -0.12568E-04 10640   0.103E-04 0.143E-04
CGA:  27    -0.128297007649E+04   -0.30043E-05   -0.30409E-05 10640   0.155E-04 0.266E-05
  19 F= -.12829701E+04 E0= -.12829701E+04  d E =0.442563E-01  mag=    47.0000
       N       E                     dE             d eps       ncg     rms          ort
SDA:   1    -0.128193580973E+04    0.10343E+01    0.00000E+00 10640   0.307E+01 0.000E+00
CGA:   2    -0.128258493198E+04   -0.64912E+00   -0.64901E+00 10640   0.133E+01-0.328E-03
CGA:   3    -0.128288671571E+04   -0.30178E+00   -0.30186E+00 10640   0.363E+00 0.579E-03
CGA:   4    -0.128293999107E+04   -0.53275E-01   -0.53532E-01 10640   0.573E-01 0.344E-02
CGA:   5    -0.128295205228E+04   -0.12061E-01   -0.11976E-01 10640   0.155E-01-0.146E-02
CGA:   6    -0.128295467283E+04   -0.26205E-02   -0.27087E-02 10640   0.418E-02 0.109E-02
CGA:   7    -0.128295582350E+04   -0.11507E-02   -0.11503E-02 10640   0.183E-02-0.720E-03
CGA:   8    -0.128295606878E+04   -0.24529E-03   -0.25920E-03 10640   0.630E-03 0.163E-03
CGA:   9    -0.128295625557E+04   -0.18678E-03   -0.18652E-03 10640   0.274E-03 0.144E-04
CGA:  10    -0.128295595537E+04    0.30020E-03   -0.30124E-03 10640   0.387E-02-0.735E-03
CGA:  11    -0.128295622297E+04   -0.26761E-03   -0.39877E-03 10640   0.564E-03 0.702E-03
CGA:  12    -0.128295635697E+04   -0.13399E-03   -0.13848E-03 10640   0.220E-03 0.575E-04
CGA:  13    -0.128295650351E+04   -0.14654E-03    0.46357E-03 10640   0.331E-03-0.140E-03
CGA:  14    -0.128295648919E+04    0.14322E-04   -0.20603E-04 10640   0.917E-04 0.160E-03
CGA:  15    -0.128295647751E+04    0.11681E-04   -0.62062E-05 10640   0.462E-04 0.795E-04
CGA:  16    -0.128295647994E+04   -0.24284E-05   -0.64118E-05 10640   0.264E-04 0.329E-04
  20 F= -.12829565E+04 E0= -.12829565E+04  d E =0.135966E-01  mag=    47.0000
       N       E                     dE             d eps       ncg     rms          ort
SDA:   1    -0.128238154816E+04    0.57493E+00    0.00000E+00 10640   0.185E+01 0.000E+00
CGA:   2    -0.128276569340E+04   -0.38415E+00   -0.38419E+00 10640   0.758E+00 0.920E-03
CGA:   3    -0.128294784086E+04   -0.18215E+00   -0.18202E+00 10640   0.195E+00-0.931E-03
CGA:   4    -0.128297804246E+04   -0.30202E-01   -0.29958E-01 10640   0.321E-01-0.808E-03
CGA:   5    -0.128298432355E+04   -0.62811E-02   -0.63603E-02 10640   0.770E-02 0.396E-03
CGA:   6    -0.128298608825E+04   -0.17647E-02   -0.17023E-02 10640   0.270E-02-0.318E-03
CGA:   7    -0.128298644343E+04   -0.35518E-03   -0.43192E-03 10640   0.611E-03 0.329E-03
CGA:   8    -0.128298665843E+04   -0.21500E-03   -0.20532E-03 10640   0.382E-03-0.104E-03
CGA:   9    -0.128298670826E+04   -0.49829E-04   -0.60525E-04 10640   0.168E-03 0.548E-04
CGA:  10    -0.128298675966E+04   -0.51398E-04   -0.50563E-04 10640   0.906E-04-0.746E-05
CGA:  11    -0.128298551060E+04    0.12491E-02   -0.67767E-03 10640   0.769E-02-0.725E-03
CGA:  12    -0.128298628563E+04   -0.77504E-03   -0.10050E-02 10640   0.148E-02 0.517E-03
CGA:  13    -0.128298672080E+04   -0.43517E-03   -0.38724E-03 10640   0.463E-03-0.118E-03
CGA:  14    -0.128298678488E+04   -0.64075E-04   -0.90136E-04 10640   0.161E-03 0.629E-04
CGA:  15    -0.128298682636E+04   -0.41487E-04   -0.49454E-04 10640   0.746E-04 0.236E-04
CGA:  16    -0.128298686024E+04   -0.33873E-04   -0.29768E-04 10640   0.737E-04-0.167E-04
CGA:  17    -0.128298685885E+04    0.13812E-05   -0.63967E-05 10640   0.269E-04 0.167E-04
  21 F= -.12829869E+04 E0= -.12829869E+04  d E =-.303789E-01  mag=    47.0000
       N       E                     dE             d eps       ncg     rms          ort
SDA:   1    -0.128273658828E+04    0.25027E+00    0.00000E+00 10640   0.696E+00 0.000E+00
CGA:   2    -0.128289000753E+04   -0.15342E+00   -0.15315E+00 10640   0.296E+00-0.877E-03
CGA:   3    -0.128295821427E+04   -0.68207E-01   -0.68277E-01 10640   0.694E-01 0.499E-03
CGA:   4    -0.128296935782E+04   -0.11144E-01   -0.11180E-01 10640   0.121E-01 0.126E-03
CGA:   5    -0.128297168387E+04   -0.23260E-02   -0.23904E-02 10640   0.274E-02 0.233E-03
CGA:   6    -0.128297227833E+04   -0.59446E-03   -0.61057E-03 10640   0.856E-03 0.661E-04
CGA:   7    -0.128297252838E+04   -0.25005E-03   -0.21633E-03 10640   0.405E-03-0.158E-03
CGA:   8    -0.128297255895E+04   -0.30568E-04   -0.50177E-04 10640   0.125E-03 0.667E-04
CGA:   9    -0.128297258717E+04   -0.28226E-04   -0.32572E-04 10640   0.735E-04 0.207E-04
CGA:  10    -0.128297261992E+04   -0.32752E-04   -0.28212E-04 10640   0.138E-03-0.480E-04
CGA:  11    -0.128297261961E+04    0.31792E-06   -0.12260E-04 10640   0.249E-04 0.385E-04
  22 F= -.12829726E+04 E0= -.12829726E+04  d E =0.142392E-01  mag=    47.0000
       N       E                     dE             d eps       ncg     rms          ort
SDA:   1    -0.128197712418E+04    0.99550E+00    0.00000E+00 10640   0.277E+01 0.000E+00
CGA:   2    -0.128260502879E+04   -0.62790E+00   -0.62825E+00 10640   0.118E+01 0.204E-02
CGA:   3    -0.128288220036E+04   -0.27717E+00   -0.27726E+00 10640   0.248E+00 0.485E-04
CGA:   4    -0.128292259933E+04   -0.40399E-01   -0.40789E-01 10640   0.437E-01 0.213E-02
CGA:   5    -0.128293213006E+04   -0.95307E-02   -0.93557E-02 10640   0.109E-01-0.116E-02
CGA:   6    -0.128293423378E+04   -0.21037E-02   -0.21837E-02 10640   0.329E-02 0.556E-03
CGA:   7    -0.128293511002E+04   -0.87625E-03   -0.80996E-03 10640   0.157E-02-0.577E-03
CGA:   8    -0.128293525700E+04   -0.14697E-03   -0.20293E-03 10640   0.496E-03 0.304E-03
CGA:   9    -0.128293535914E+04   -0.10215E-03   -0.12053E-03 10640   0.286E-03 0.141E-03
CGA:  10    -0.128293544520E+04   -0.86060E-04   -0.20072E-03 10640   0.178E-02-0.523E-03
CGA:  11    -0.128293552853E+04   -0.83322E-04   -0.16777E-03 10640   0.240E-03 0.358E-03
CGA:  12    -0.128293556664E+04   -0.38112E-04   -0.48974E-04 10640   0.124E-03 0.696E-04
CGA:  13    -0.128293508567E+04    0.48097E-03   -0.17639E-03 10640   0.535E-02-0.841E-03
CGA:  14    -0.128293548190E+04   -0.39623E-03   -0.56077E-03 10640   0.729E-03 0.708E-03
CGA:  15    -0.128293567570E+04   -0.19380E-03   -0.19925E-03 10640   0.183E-03 0.531E-04
CGA:  16    -0.128293517454E+04    0.50116E-03   -0.17935E-03 10640   0.862E-02-0.118E-02
[...]
  45 F= -.12830018E+04 E0= -.12830018E+04  d E =-.732142E-02  mag=    47.0000
       N       E                     dE             d eps       ncg     rms          ort
SDA:   1    -0.128289005003E+04    0.11172E+00    0.00000E+00 10640   0.348E+00 0.000E+00
CGA:   2    -0.128296089479E+04   -0.70845E-01   -0.70846E-01 10640   0.131E+00 0.427E-02
CGA:   3    -0.128299391799E+04   -0.33023E-01   -0.33176E-01 10640   0.380E-01-0.337E-02
CGA:   4    -0.128299994265E+04   -0.60247E-02   -0.59298E-02 10640   0.736E-02-0.204E-02
CGA:   5    -0.128300129415E+04   -0.13515E-02   -0.13453E-02 10640   0.202E-02-0.559E-03
CGA:   6    -0.128300170840E+04   -0.41425E-03   -0.42960E-03 10640   0.115E-02-0.571E-03
CGA:   7    -0.128300177678E+04   -0.68381E-04   -0.91684E-04 10640   0.311E-03 0.250E-03
CGA:   8    -0.128300178977E+04   -0.12992E-04   -0.30699E-04 10640   0.127E-03 0.149E-03
CGA:   9    -0.128300180501E+04   -0.15236E-04   -0.20891E-04 10640   0.680E-04 0.684E-04
CGA:  10    -0.128300184239E+04   -0.37380E-04    0.14506E-04 10640   0.518E-04 0.150E-05
CGA:  11    -0.128300184744E+04   -0.50547E-05   -0.36398E-04 10640   0.192E-03-0.630E-04
CGA:  12    -0.128300185363E+04   -0.61895E-05   -0.74809E-04 10640   0.124E-02-0.390E-03
CGA:  13    -0.128300192188E+04   -0.68250E-04   -0.95280E-04 10640   0.413E-04 0.187E-03
CGA:  14    -0.128300192184E+04    0.44947E-07   -0.29641E-05 10640   0.116E-04 0.196E-04
  46 F= -.12830019E+04 E0= -.12830019E+04  d E =-.146896E-03  mag=    47.0000
       N       E                     dE             d eps       ncg     rms          ort
SDA:   1    -0.128287078207E+04    0.13114E+00    0.00000E+00 10640   0.383E+00 0.000E+00
CGA:   2    -0.128295296711E+04   -0.82185E-01   -0.82141E-01 10640   0.154E+00 0.414E-02
CGA:   3    -0.128299085081E+04   -0.37884E-01   -0.38056E-01 10640   0.417E-01-0.439E-02
CGA:   4    -0.128299707503E+04   -0.62242E-02   -0.61869E-02 10640   0.764E-02-0.670E-03
CGA:   5    -0.128299870588E+04   -0.16309E-02   -0.16569E-02 10640   0.308E-02-0.153E-02
CGA:   6    -0.128299908213E+04   -0.37625E-03   -0.37760E-03 10640   0.792E-03 0.305E-04
CGA:   7    -0.128299923665E+04   -0.15452E-03   -0.15521E-03 10640   0.191E-03 0.913E-04
CGA:   8    -0.128299929151E+04   -0.54854E-04   -0.61751E-04 10640   0.233E-03-0.777E-04
CGA:   9    -0.128299931287E+04   -0.21366E-04   -0.19685E-04 10640   0.122E-03-0.263E-04
CGA:  10    -0.128299935913E+04   -0.46260E-04    0.18962E-03 10640   0.149E-03-0.454E-04
CGA:  11    -0.128299945451E+04   -0.95376E-04    0.62706E-05 10640   0.108E-03-0.845E-04
CGA:  12    -0.128299947964E+04   -0.25130E-04   -0.25592E-04 10640   0.443E-04-0.134E-04
CGA:  13    -0.128299948559E+04   -0.59462E-05   -0.62188E-05 10640   0.156E-04 0.629E-05
  47 F= -.12829995E+04 E0= -.12829995E+04  d E =0.243625E-02  mag=    47.0000
       N       E                     dE             d eps       ncg     rms          ort
SDA:   1    -0.128282175287E+04    0.17773E+00    0.00000E+00 10640   0.471E+00 0.000E+00
CGA:   2    -0.128293188966E+04   -0.11014E+00   -0.10999E+00 10640   0.208E+00 0.478E-02
CGA:   3    -0.128297919301E+04   -0.47303E-01   -0.47401E-01 10640   0.509E-01-0.447E-02
CGA:   4    -0.128298720362E+04   -0.80106E-02   -0.79402E-02 10640   0.977E-02-0.153E-02
CGA:   5    -0.128298913283E+04   -0.19292E-02   -0.19299E-02 10640   0.265E-02-0.675E-03
CGA:   6    -0.128298967304E+04   -0.54021E-03   -0.55302E-03 10640   0.139E-02-0.588E-03
CGA:   7    -0.128298978933E+04   -0.11630E-03   -0.13590E-03 10640   0.322E-03 0.252E-03
CGA:   8    -0.128298982537E+04   -0.36039E-04   -0.45425E-04 10640   0.157E-03 0.117E-03
CGA:   9    -0.128298987933E+04   -0.53952E-04   -0.64223E-04 10640   0.190E-03-0.987E-04
CGA:  10    -0.128298992464E+04   -0.45310E-04   -0.52284E-04 10640   0.167E-03-0.944E-04
CGA:  11    -0.128298998496E+04   -0.60328E-04    0.11437E-04 10640   0.113E-03-0.460E-04
CGA:  12    -0.128299002565E+04   -0.40685E-04    0.38507E-04 10640   0.639E-04 0.218E-04
CGA:  13    -0.128299003334E+04   -0.76915E-05   -0.93735E-05 10640   0.206E-04 0.206E-04
CGA:  14    -0.128299004501E+04   -0.11667E-04    0.40319E-04 10640   0.158E-04 0.995E-05
CGA:  15    -0.128299006564E+04   -0.20637E-04    0.19617E-05 10640   0.136E-04 0.679E-05
CGA:  16    -0.128299008555E+04   -0.19909E-04    0.12573E-05 10640   0.156E-04 0.126E-04
CGA:  17    -0.128299009186E+04   -0.63059E-05    0.14795E-03 10640   0.889E-05 0.368E-05
  48 F= -.12829901E+04 E0= -.12829901E+04  d E =0.939373E-02  mag=    47.0000
       N       E                     dE             d eps       ncg     rms          ort
SDA:   1    -0.128290784699E+04    0.82239E-01    0.00000E+00 10640   0.254E+00 0.000E+00
CGA:   2    -0.128295861009E+04   -0.50763E-01   -0.50763E-01 10640   0.102E+00-0.155E-02
CGA:   3    -0.128298164486E+04   -0.23035E-01   -0.23005E-01 10640   0.330E-01 0.117E-02
CGA:   4    -0.128298617901E+04   -0.45341E-02   -0.46417E-02 10640   0.470E-02 0.177E-02
CGA:   5    -0.128298717176E+04   -0.99275E-03   -0.99269E-03 10640   0.124E-02 0.396E-04
CGA:   6    -0.128298737021E+04   -0.19845E-03   -0.20691E-03 10640   0.309E-03 0.255E-03
CGA:   7    -0.128298745941E+04   -0.89202E-04   -0.17336E-03 10640   0.534E-03-0.313E-03
CGA:   8    -0.128298751057E+04   -0.51153E-04   -0.64514E-04 10640   0.915E-04 0.150E-03
CGA:   9    -0.128298752682E+04   -0.16248E-04   -0.17683E-04 10640   0.234E-04 0.260E-04
CGA:  10    -0.128298753091E+04   -0.40930E-05   -0.47383E-05 10640   0.143E-04 0.141E-04
  49 F= -.12829875E+04 E0= -.12829875E+04  d E =0.256095E-02  mag=    47.0000
       N       E                     dE             d eps       ncg     rms          ort
SDA:   1    -0.128294110500E+04    0.46422E-01    0.00000E+00 10640   0.150E+00 0.000E+00
CGA:   2    -0.128297257443E+04   -0.31469E-01   -0.31505E-01 10640   0.619E-01-0.241E-02
CGA:   3    -0.128298620633E+04   -0.13632E-01   -0.13581E-01 10640   0.168E-01 0.185E-02
CGA:   4    -0.128298874260E+04   -0.25363E-02   -0.25650E-02 10640   0.283E-02 0.605E-03
CGA:   5    -0.128298916499E+04   -0.42239E-03   -0.44815E-03 10640   0.604E-03 0.620E-03
CGA:   6    -0.128298928952E+04   -0.12453E-03   -0.12809E-03 10640   0.175E-03 0.194E-03
CGA:   7    -0.128298933482E+04   -0.45296E-04   -0.45071E-04 10640   0.645E-04 0.653E-04
CGA:   8    -0.128298934490E+04   -0.10077E-04   -0.12187E-04 10640   0.257E-04 0.390E-04
CGA:   9    -0.128298934710E+04   -0.22013E-05   -0.33041E-05 10640   0.156E-04 0.182E-04
  50 F= -.12829893E+04 E0= -.12829893E+04  d E =-.181619E-02  mag=    47.0000
       N       E                     dE             d eps       ncg     rms          ort
SDA:   1    -0.128297550790E+04    0.13837E-01    0.00000E+00 10640   0.372E-01 0.000E+00
CGA:   2    -0.128298508641E+04   -0.95785E-02   -0.97146E-02 10640   0.182E-01-0.167E-02
CGA:   3    -0.128298830014E+04   -0.32137E-02   -0.32124E-02 10640   0.323E-02 0.157E-02
CGA:   4    -0.128298878613E+04   -0.48598E-03   -0.51025E-03 10640   0.588E-03 0.631E-03
CGA:   5    -0.128298887445E+04   -0.88330E-04   -0.99096E-04 10640   0.168E-03 0.263E-03
CGA:   6    -0.128298889040E+04   -0.15944E-04   -0.25686E-04 10640   0.728E-04 0.132E-03
CGA:   7    -0.128298890011E+04   -0.97102E-05   -0.10921E-04 10640   0.372E-04 0.462E-04
  51 F= -.12829889E+04 E0= -.12829889E+04  d E =0.446987E-03  mag=    47.0000
       N       E                     dE             d eps       ncg     rms          ort
SDA:   1    -0.128276613289E+04    0.22276E+00    0.00000E+00 10640   0.768E+00 0.000E+00
CGA:   2    -0.128290139103E+04   -0.13526E+00   -0.13524E+00 10640   0.255E+00 0.321E-02
CGA:   3    -0.128296484063E+04   -0.63450E-01   -0.63606E-01 10640   0.107E+00-0.215E-02
CGA:   4    -0.128298052370E+04   -0.15683E-01   -0.15627E-01 10640   0.145E-01-0.193E-02
CGA:   5    -0.128298319525E+04   -0.26716E-02   -0.26757E-02 10640   0.380E-02-0.280E-03
CGA:   6    -0.128298404264E+04   -0.84739E-03   -0.88771E-03 10640   0.176E-02-0.636E-03
CGA:   7    -0.128298422401E+04   -0.18137E-03   -0.19557E-03 10640   0.364E-03 0.318E-03
CGA:   8    -0.128298428141E+04   -0.57397E-04   -0.61321E-04 10640   0.147E-03 0.118E-03
CGA:   9    -0.128298432721E+04   -0.45803E-04   -0.52377E-04 10640   0.167E-03-0.693E-04
CGA:  10    -0.128298433576E+04   -0.85459E-05   -0.92999E-05 10640   0.124E-03 0.102E-04
CGA:  11    -0.128298435003E+04   -0.14273E-04   -0.14777E-04 10640   0.754E-04 0.804E-05
CGA:  12    -0.128298438618E+04   -0.36155E-04    0.22444E-04 10640   0.538E-04 0.299E-05
CGA:  13    -0.128298442535E+04   -0.39165E-04    0.46543E-05 10640   0.471E-04-0.208E-04
CGA:  14    -0.128298444525E+04   -0.19898E-04    0.24758E-05 10640   0.457E-04-0.341E-05
CGA:  15    -0.128298444869E+04   -0.34408E-05   -0.42473E-05 10640   0.296E-04 0.111E-04
  52 F= -.12829844E+04 E0= -.12829844E+04  d E =0.445142E-02  mag=    47.0000
       N       E                     dE             d eps       ncg     rms          ort
SDA:   1    -0.128211311194E+04    0.87133E+00    0.00000E+00 10640   0.287E+01 0.000E+00
CGA:   2    -0.128266151916E+04   -0.54841E+00   -0.54863E+00 10640   0.109E+01-0.719E-02
CGA:   3    -0.128291673534E+04   -0.25522E+00   -0.25459E+00 10640   0.375E+00 0.855E-02
CGA:   4    -0.128296982127E+04   -0.53086E-01   -0.53310E-01 10640   0.544E-01 0.901E-02
CGA:   5    -0.128298039027E+04   -0.10569E-01   -0.10533E-01 10640   0.138E-01 0.172E-02
CGA:   6    -0.128298308063E+04   -0.26904E-02   -0.26615E-02 10640   0.360E-02 0.159E-02
CGA:   7    -0.128298414631E+04   -0.10657E-02   -0.11765E-02 10640   0.200E-02-0.891E-03
CGA:   8    -0.128298432077E+04   -0.17446E-03   -0.19099E-03 10640   0.702E-03 0.340E-03
CGA:   9    -0.128298442743E+04   -0.10667E-03   -0.11527E-03 10640   0.371E-03 0.261E-03
CGA:  10    -0.128298450303E+04   -0.75595E-04   -0.77523E-04 10640   0.162E-03 0.101E-03
CGA:  11    -0.128298450742E+04   -0.43940E-05   -0.17320E-04 10640   0.118E-03 0.149E-03
  53 F= -.12829845E+04 E0= -.12829845E+04  d E =-.587328E-04  mag=    47.0000
       N       E                     dE             d eps       ncg     rms          ort
SDA:   1    -0.128196116912E+04    0.10233E+01    0.00000E+00 10640   0.330E+01 0.000E+00
CGA:   2    -0.128263265979E+04   -0.67149E+00   -0.67172E+00 10640   0.127E+01-0.466E-02
CGA:   3    -0.128294390881E+04   -0.31125E+00   -0.31077E+00 10640   0.321E+00 0.550E-02
CGA:   4    -0.128299420115E+04   -0.50292E-01   -0.50306E-01 10640   0.554E-01 0.126E-02
CGA:   5    -0.128300429714E+04   -0.10096E-01   -0.10051E-01 10640   0.140E-01 0.329E-02
CGA:   6    -0.128300718714E+04   -0.28900E-02   -0.28895E-02 10640   0.508E-02 0.308E-04
CGA:   7    -0.128300812771E+04   -0.94056E-03   -0.93422E-03 10640   0.118E-02 0.437E-03
CGA:   8    -0.128300846761E+04   -0.33990E-03   -0.34487E-03 10640   0.584E-03-0.497E-04
CGA:   9    -0.128300852201E+04   -0.54395E-04   -0.69177E-04 10640   0.253E-03 0.291E-03
CGA:  10    -0.128300854559E+04   -0.23579E-04   -0.38828E-04 10640   0.139E-03 0.219E-03
CGA:  11    -0.128300856960E+04   -0.24010E-04   -0.23800E-04 10640   0.851E-04 0.751E-04
CGA:  12    -0.128300856673E+04    0.28702E-05   -0.50785E-05 10640   0.665E-04 0.729E-04
  54 F= -.12830086E+04 E0= -.12830086E+04  d E =-.240593E-01  mag=    47.0000
       N       E                     dE             d eps       ncg     rms          ort
SDA:   1    -0.128151309974E+04    0.14955E+01    0.00000E+00 10640   0.468E+01 0.000E+00
CGA:   2    -0.128249212925E+04   -0.97903E+00   -0.97887E+00 10640   0.182E+01 0.387E-02
CGA:   3    -0.128294395459E+04   -0.45183E+00   -0.45194E+00 10640   0.425E+00-0.227E-02
CGA:   4    -0.128301374272E+04   -0.69788E-01   -0.69784E-01 10640   0.744E-01-0.338E-02
CGA:   5    -0.128302877033E+04   -0.15028E-01   -0.14999E-01 10640   0.172E-01 0.778E-03
CGA:   6    -0.128303267136E+04   -0.39010E-02   -0.39727E-02 10640   0.755E-02-0.115E-02
CGA:   7    -0.128303374222E+04   -0.10709E-02   -0.10804E-02 10640   0.187E-02 0.579E-03
CGA:   8    -0.128303429386E+04   -0.55164E-03   -0.59377E-03 10640   0.117E-02-0.338E-03
CGA:   9    -0.128303456057E+04   -0.26670E-03   -0.36480E-03 10640   0.135E-02-0.482E-03
CGA:  10    -0.128303472377E+04   -0.16320E-03   -0.17204E-03 10640   0.791E-03-0.294E-03
CGA:  11    -0.128303473718E+04   -0.13405E-04   -0.36127E-03 10640   0.217E-02-0.882E-03
CGA:  12    -0.128303506519E+04   -0.32801E-03   -0.33949E-03 10640   0.527E-03 0.229E-03
CGA:  13    -0.128303522100E+04   -0.15581E-03   -0.17001E-03 10640   0.475E-03-0.163E-03
CGA:  14    -0.128303525304E+04   -0.32041E-04   -0.42755E-04 10640   0.264E-03 0.136E-03
CGA:  15    -0.128303528449E+04   -0.31450E-04   -0.41507E-04 10640   0.151E-03 0.122E-03
CGA:  16    -0.128303534210E+04   -0.57610E-04   -0.61555E-04 10640   0.136E-03-0.509E-04
CGA:  17    -0.128303536312E+04   -0.21014E-04   -0.24793E-04 10640   0.199E-03-0.551E-04
CGA:  18    -0.128303537327E+04   -0.10155E-04   -0.13228E-04 10640   0.165E-03 0.305E-04
CGA:  19    -0.128303539319E+04   -0.19921E-04   -0.23876E-04 10640   0.107E-03 0.492E-04
CGA:  20    -0.128303541345E+04   -0.20254E-04   -0.70043E-04 10640   0.475E-03-0.167E-03
CGA:  21    -0.128303548918E+04   -0.75730E-04   -0.76351E-04 10640   0.139E-03 0.127E-04
CGA:  22    -0.128303552825E+04   -0.39075E-04   -0.40719E-04 10640   0.463E-04-0.221E-04
CGA:  23    -0.128303552622E+04    0.20354E-05   -0.28852E-04 10640   0.434E-03-0.588E-04
CGA:  24    -0.128303558084E+04   -0.54619E-04   -0.47580E-04 10640   0.287E-04-0.517E-04
CGA:  25    -0.128303558034E+04    0.49821E-06   -0.20668E-05 10640   0.126E-04 0.167E-04
  55 F= -.12830356E+04 E0= -.12830356E+04  d E =-.270136E-01  mag=    47.0000
       N       E                     dE             d eps       ncg     rms          ort
SDA:   1    -0.125524780437E+04    0.27788E+02    0.00000E+00 10640   0.989E+02 0.000E+00
CGA:   2    -0.127220887355E+04   -0.16961E+02   -0.17085E+02 10640   0.339E+02 0.782E+00
CGA:   3    -0.128030238221E+04   -0.80935E+01   -0.81082E+01 10640   0.137E+02-0.627E+00
CGA:   4    -0.128224668160E+04   -0.19443E+01   -0.19906E+01 10640   0.186E+01 0.441E-01
CGA:   5    -0.128258781735E+04   -0.34114E+00   -0.34098E+00 10640   0.544E+00 0.417E-02
CGA:   6    -0.128269087846E+04   -0.10306E+00   -0.10288E+00 10640   0.175E+00-0.665E-02
CGA:   7    -0.128272545660E+04   -0.34578E-01   -0.34545E-01 10640   0.538E-01-0.150E-02
CGA:   8    -0.128273751122E+04   -0.12055E-01   -0.12123E-01 10640   0.241E-01-0.599E-02
CGA:   9    -0.128274286253E+04   -0.53513E-02   -0.54182E-02 10640   0.127E-01-0.180E-02
CGA:  10    -0.128274632619E+04   -0.34637E-02   -0.41467E-02 10640   0.143E-01-0.506E-02
CGA:  11    -0.128274806002E+04   -0.17338E-02   -0.16644E-02 10640   0.610E-02-0.215E-02
CGA:  12    -0.128274953288E+04   -0.14729E-02   -0.25371E-02 10640   0.118E-01-0.402E-02
CGA:  13    -0.128275149099E+04   -0.19581E-02   -0.18780E-02 10640   0.388E-02-0.104E-02
CGA:  14    -0.128275217938E+04   -0.68839E-03   -0.70852E-03 10640   0.137E-02 0.628E-03
CGA:  15    -0.128275281758E+04   -0.63819E-03   -0.61854E-03 10640   0.206E-02 0.120E-03
CGA:  16    -0.128275352644E+04   -0.70886E-03   -0.77515E-03 10640   0.217E-02-0.634E-03
CGA:  17    -0.128275388654E+04   -0.36010E-03   -0.35987E-03 10640   0.143E-02-0.573E-04
CGA:  18    -0.128275437963E+04   -0.49309E-03   -0.55051E-03 10640   0.278E-02-0.398E-03
CGA:  19    -0.128275470827E+04   -0.32864E-03   -0.10283E-02 10640   0.951E-02-0.274E-02
CGA:  20    -0.128275620816E+04   -0.14999E-02   -0.15111E-02 10640   0.291E-02 0.114E-03
CGA:  21    -0.128275698731E+04   -0.77915E-03   -0.78157E-03 10640   0.118E-02-0.394E-03
CGA:  22    -0.128275731131E+04   -0.32399E-03   -0.36522E-03 10640   0.181E-02-0.413E-03
CGA:  23    -0.128275755722E+04   -0.24591E-03   -0.24243E-03 10640   0.627E-03-0.572E-04
CGA:  24    -0.128275768505E+04   -0.12783E-03   -0.11795E-03 10640   0.419E-03-0.146E-03
CGA:  25    -0.128275774221E+04   -0.57161E-04   -0.16627E-03 10640   0.160E-02-0.421E-03
CGA:  26    -0.128275785909E+04   -0.11688E-03   -0.15355E-03 10640   0.188E-03 0.214E-03
CGA:  27    -0.128275788886E+04   -0.29776E-04   -0.36770E-04 10640   0.118E-03 0.772E-04
CGA:  28    -0.128275792731E+04   -0.38449E-04   -0.39063E-04 10640   0.108E-03 0.262E-04
CGA:  29    -0.128275794435E+04   -0.17034E-04   -0.21831E-04 10640   0.686E-04 0.523E-04
CGA:  30    -0.128275796997E+04   -0.25626E-04   -0.25648E-04 10640   0.124E-03 0.347E-04
CGA:  31    -0.128275799144E+04   -0.21465E-04   -0.48571E-04 10640   0.701E-03-0.194E-03
CGA:  32    -0.128275802957E+04   -0.38133E-04   -0.57271E-04 10640   0.405E-04 0.110E-03
CGA:  33    -0.128275803279E+04   -0.32178E-05   -0.53780E-05 10640   0.289E-04 0.160E-04
CGA:  34    -0.128275805501E+04   -0.22226E-04    0.37621E-04 10640   0.566E-04 0.234E-04
CGA:  35    -0.128275800362E+04    0.51395E-04   -0.44722E-04 10640   0.117E-02-0.176E-03
CGA:  36    -0.128275810241E+04   -0.98789E-04   -0.11767E-03 10640   0.668E-04 0.114E-03
CGA:  37    -0.128275812081E+04   -0.18407E-04   -0.17534E-04 10640   0.723E-04-0.376E-04
CGA:  38    -0.128275813323E+04   -0.12416E-04   -0.12610E-04 10640   0.230E-04 0.245E-05
CGA:  39    -0.128275815206E+04   -0.18827E-04    0.56271E-05 10640   0.239E-04 0.226E-04
CGA:  40    -0.128275816396E+04   -0.11903E-04   -0.15604E-04 10640   0.120E-03-0.931E-05
CGA:  41    -0.128275822264E+04   -0.58678E-04    0.22393E-04 10640   0.258E-03 0.423E-04
CGA:  42    -0.128275678142E+04    0.14412E-02   -0.79761E-03 10640   0.147E-01-0.133E-02
CGA:  43    -0.128275845007E+04   -0.16686E-02   -0.17632E-02 10640   0.497E-03 0.289E-03
CGA:  44    -0.128275853114E+04   -0.81066E-04   -0.59299E-04 10640   0.316E-04-0.574E-04
CGA:  45    -0.128275852745E+04    0.36836E-05   -0.32258E-05 10640   0.178E-04 0.198E-04
  56 F= -.12827585E+04 E0= -.12827585E+04  d E =0.277053E+00  mag=    47.0000
       N       E                     dE             d eps       ncg     rms          ort
SDA:   1    -0.127762917726E+04    0.51294E+01    0.00000E+00 10640   0.175E+02 0.000E+00
CGA:   2    -0.128104546756E+04   -0.34163E+01   -0.34224E+01 10640   0.640E+01-0.157E-01
CGA:   3    -0.128265187189E+04   -0.16064E+01   -0.16062E+01 10640   0.174E+01 0.719E-02
CGA:   4    -0.128292036995E+04   -0.26850E+00   -0.26935E+00 10640   0.286E+00-0.724E-02
CGA:   5    -0.128297523879E+04   -0.54869E-01   -0.55185E-01 10640   0.826E-01 0.253E-02
CGA:   6    -0.128299068745E+04   -0.15449E-01   -0.15331E-01 10640   0.281E-01-0.645E-03
CGA:   7    -0.128299621719E+04   -0.55297E-02   -0.55387E-02 10640   0.730E-02 0.878E-04
CGA:   8    -0.128299814248E+04   -0.19253E-02   -0.18927E-02 10640   0.376E-02-0.286E-03
CGA:   9    -0.128299908017E+04   -0.93769E-03   -0.93509E-03 10640   0.239E-02-0.162E-04
CGA:  10    -0.128299988533E+04   -0.80516E-03   -0.79209E-03 10640   0.226E-02-0.473E-03
CGA:  11    -0.128300031530E+04   -0.42996E-03   -0.43586E-03 10640   0.128E-02 0.530E-04
CGA:  12    -0.128300092512E+04   -0.60982E-03   -0.70397E-03 10640   0.230E-02-0.521E-03
CGA:  13    -0.128300123793E+04   -0.31281E-03   -0.31423E-03 10640   0.194E-02-0.749E-06
CGA:  14    -0.128300175276E+04   -0.51483E-03   -0.53162E-03 10640   0.147E-02 0.189E-03
CGA:  15    -0.128300216783E+04   -0.41507E-03   -0.41322E-03 10640   0.144E-02-0.347E-04
CGA:  16    -0.128300241686E+04   -0.24903E-03   -0.29284E-03 10640   0.696E-03 0.301E-03
CGA:  17    -0.128300250881E+04   -0.91949E-04   -0.14104E-03 10640   0.450E-03 0.280E-03
CGA:  18    -0.128300261048E+04   -0.10167E-03   -0.12634E-03 10640   0.230E-03 0.185E-03
CGA:  19    -0.128300265169E+04   -0.41212E-04   -0.58833E-04 10640   0.152E-03 0.121E-03
CGA:  20    -0.128300265114E+04    0.54322E-06   -0.18173E-04 10640   0.820E-04 0.946E-04
CGA:  21    -0.128300265639E+04   -0.52494E-05   -0.14040E-04 10640   0.567E-04 0.644E-04
