       N       E                     dE             d eps       ncg     rms          ort
DAV:   1     0.102857439459E+05    0.10286E+05   -0.42420E+05 10640   0.155E+03
DAV:   2    -0.113895266063E+03   -0.10400E+05   -0.98158E+04 10640   0.474E+02
DAV:   3    -0.152186879219E+04   -0.14080E+04   -0.13117E+04 10640   0.182E+02
DAV:   4    -0.160424664867E+04   -0.82378E+02   -0.80140E+02 10640   0.462E+01
DAV:   5    -0.160662104714E+04   -0.23744E+01   -0.23671E+01 10640   0.840E+00
SDA:   6    -0.728102907057E+03    0.87852E+03   -0.23671E+01 10640   0.291E+04 0.000E+00
CGA:   7    -0.113503437701E+04   -0.40693E+03   -0.40360E+03 10640   0.102E+04-0.203E+02
CGA:   8    -0.116227697919E+04   -0.27243E+02   -0.55552E+02 10640   0.102E+04-0.517E+03
CGA:   9    -0.117337135127E+04   -0.11094E+02   -0.47807E+02 10640   0.131E+04-0.780E+03
CGA:  10    -0.117189841274E+04    0.14729E+01   -0.64519E+02 10640   0.168E+04-0.112E+04
CGA:  11    -0.117627794851E+04   -0.43795E+01   -0.76901E+02 10640   0.186E+04-0.153E+04
CGA:  12    -0.118480165277E+04   -0.85237E+01   -0.82386E+02 10640   0.184E+04-0.168E+04
CGA:  13    -0.120489373017E+04   -0.20092E+02   -0.74804E+02 10640   0.130E+04-0.141E+04
CGA:  14    -0.122609910776E+04   -0.21205E+02   -0.47517E+02 10640   0.610E+03-0.769E+03
CGA:  15    -0.123824456109E+04   -0.12145E+02   -0.21030E+02 10640   0.242E+03-0.272E+03
CGA:  16    -0.125062782506E+04   -0.12383E+02   -0.86069E+01 10640   0.518E+02 0.444E+02
CGA:  17    -0.125884246122E+04   -0.82146E+01   -0.82221E+01 10640   0.190E+03 0.419E+00
CGA:  18    -0.127292834917E+04   -0.14086E+02   -0.12615E+02 10640   0.242E+02-0.112E+02
CGA:  19    -0.127405174873E+04   -0.11234E+01   -0.11973E+01 10640   0.168E+02-0.133E+01
CGA:  20    -0.127618894769E+04   -0.21372E+01   -0.21344E+01 10640   0.316E+02 0.572E+00
CGA:  21    -0.127794702846E+04   -0.17581E+01   -0.21223E+01 10640   0.933E+01-0.265E+01
CGA:  22    -0.127854625442E+04   -0.59923E+00   -0.65464E+00 10640   0.649E+01-0.561E+00
CGA:  23    -0.127965592503E+04   -0.11097E+01   -0.10615E+01 10640   0.552E+01 0.411E+00
CGA:  24    -0.128034486890E+04   -0.68894E+00   -0.69294E+00 10640   0.370E+01-0.168E+00
CGA:  25    -0.128101508503E+04   -0.67022E+00   -0.67629E+00 10640   0.410E+01-0.255E+00
CGA:  26    -0.128160483041E+04   -0.58975E+00   -0.59605E+00 10640   0.177E+01-0.433E+00
CGA:  27    -0.128200353104E+04   -0.39870E+00   -0.45802E+00 10640   0.237E+01-0.386E+00
CGA:  28    -0.128235265784E+04   -0.34913E+00   -0.36733E+00 10640   0.881E+00-0.377E+00
CGA:  29    -0.128258228189E+04   -0.22962E+00   -0.27943E+00 10640   0.117E+01-0.203E+00
CGA:  30    -0.128275805768E+04   -0.17578E+00   -0.18125E+00 10640   0.449E+00-0.126E+00
CGA:  31    -0.128285320039E+04   -0.95143E-01   -0.94343E-01 10640   0.282E+00 0.106E-01
CGA:  32    -0.128292140109E+04   -0.68201E-01   -0.64342E-01 10640   0.154E+00 0.628E-01
CGA:  33    -0.128295892010E+04   -0.37519E-01   -0.35913E-01 10640   0.775E-01 0.628E-01
CGA:  34    -0.128297648451E+04   -0.17564E-01   -0.17727E-01 10640   0.421E-01 0.496E-01
CGA:  35    -0.128298520987E+04   -0.87254E-02   -0.80923E-02 10640   0.249E-01 0.238E-01
CGA:  36    -0.128298937235E+04   -0.41625E-02   -0.41644E-02 10640   0.184E-01 0.188E-01
CGA:  37    -0.128299185045E+04   -0.24781E-02   -0.27526E-02 10640   0.148E-01 0.157E-01
CGA:  38    -0.128299354278E+04   -0.16923E-02   -0.20561E-02 10640   0.125E-01 0.134E-01
CGA:  39    -0.128299467886E+04   -0.11361E-02   -0.15821E-02 10640   0.109E-01 0.116E-01
CGA:  40    -0.128299551559E+04   -0.83673E-03   -0.12932E-02 10640   0.969E-02 0.102E-01
CGA:  41    -0.128299612807E+04   -0.61248E-03   -0.10723E-02 10640   0.872E-02 0.917E-02
CGA:  42    -0.128299659005E+04   -0.46198E-03   -0.90968E-03 10640   0.793E-02 0.830E-02
CGA:  43    -0.128299694191E+04   -0.35185E-03   -0.78249E-03 10640   0.726E-02 0.757E-02
CGA:  44    -0.128299721284E+04   -0.27094E-03   -0.68148E-03 10640   0.670E-02 0.697E-02
CGA:  45    -0.128299742314E+04   -0.21030E-03   -0.59962E-03 10640   0.622E-02 0.645E-02
CGA:  46    -0.128299758742E+04   -0.16427E-03   -0.53227E-03 10640   0.581E-02 0.601E-02
CGA:  47    -0.128299771635E+04   -0.12893E-03   -0.47608E-03 10640   0.545E-02 0.562E-02
CGA:  48    -0.128299781790E+04   -0.10155E-03   -0.42867E-03 10640   0.513E-02 0.528E-02
CGA:  49    -0.128299789806E+04   -0.80156E-04   -0.38826E-03 10640   0.485E-02 0.498E-02
CGA:  50    -0.128299796137E+04   -0.63308E-04   -0.35350E-03 10640   0.460E-02 0.472E-02
CGA:  51    -0.128299801133E+04   -0.49962E-04   -0.32336E-03 10640   0.437E-02 0.448E-02
CGA:  52    -0.128299805067E+04   -0.39337E-04   -0.29704E-03 10640   0.417E-02 0.427E-02
CGA:  53    -0.128299808151E+04   -0.30841E-04   -0.27391E-03 10640   0.399E-02 0.408E-02
CGA:  54    -0.128299810552E+04   -0.24017E-04   -0.25344E-03 10640   0.382E-02 0.390E-02
CGA:  55    -0.128299812405E+04   -0.18522E-04   -0.23524E-03 10640   0.367E-02 0.375E-02
CGA:  56    -0.128299813814E+04   -0.14092E-04   -0.21897E-03 10640   0.354E-02 0.360E-02
CGA:  57    -0.128299814865E+04   -0.10514E-04   -0.20436E-03 10640   0.341E-02 0.347E-02
CGA:  58    -0.128299815628E+04   -0.76263E-05   -0.19118E-03 10640   0.329E-02 0.335E-02
CGA:  59    -0.128299816157E+04   -0.52939E-05   -0.17925E-03 10640   0.319E-02 0.324E-02
CGA:  60    -0.128299816499E+04   -0.34164E-05   -0.16841E-03 10640   0.309E-02 0.314E-02
CGA:  61    -0.128299816690E+04   -0.19073E-05   -0.15852E-03 10640   0.300E-02 0.304E-02
CGA:  62    -0.128299816760E+04   -0.70687E-06   -0.14948E-03 10640   0.291E-02 0.295E-02
CGA:  63    -0.128299816736E+04    0.23917E-06   -0.14118E-03 10640   0.283E-02 0.287E-02
CGA:  64    -0.128299816638E+04    0.98076E-06   -0.13354E-03 10640   0.276E-02 0.280E-02
CGA:  65    -0.128299816483E+04    0.15528E-05   -0.12650E-03 10640   0.269E-02 0.272E-02
CGA:  66    -0.128299816285E+04    0.19855E-05   -0.11999E-03 10640   0.263E-02 0.266E-02
CGA:  67    -0.128299816054E+04    0.23028E-05   -0.11395E-03 10640   0.257E-02 0.259E-02
CGA:  68    -0.128299815802E+04    0.25263E-05   -0.10835E-03 10640   0.251E-02 0.254E-02
CGA:  69    -0.128299815534E+04    0.26714E-05   -0.10313E-03 10640   0.245E-02 0.248E-02
CGA:  70    -0.128299815259E+04    0.27539E-05   -0.98271E-04 10640   0.240E-02 0.243E-02
CGA:  71    -0.128299814981E+04    0.27824E-05   -0.93730E-04 10640   0.236E-02 0.238E-02
CGA:  72    -0.128299814704E+04    0.27698E-05   -0.89482E-04 10640   0.231E-02 0.233E-02
CGA:  73    -0.128299814432E+04    0.27226E-05   -0.85503E-04 10640   0.227E-02 0.229E-02
CGA:  74    -0.128299814167E+04    0.26473E-05   -0.81768E-04 10640   0.223E-02 0.225E-02
CGA:  75    -0.128299813912E+04    0.25510E-05   -0.78259E-04 10640   0.219E-02 0.221E-02
CGA:  76    -0.128299813668E+04    0.24384E-05   -0.74958E-04 10640   0.215E-02 0.217E-02
CGA:  77    -0.128299813437E+04    0.23124E-05   -0.71848E-04 10640   0.212E-02 0.213E-02
CGA:  78    -0.128299813219E+04    0.21765E-05   -0.68914E-04 10640   0.208E-02 0.210E-02
CGA:  79    -0.128299813016E+04    0.20336E-05   -0.66143E-04 10640   0.205E-02 0.207E-02
CGA:  80    -0.128299812827E+04    0.18885E-05   -0.63524E-04 10640   0.202E-02 0.204E-02
CGA:  81    -0.128299812653E+04    0.17391E-05   -0.61045E-04 10640   0.199E-02 0.201E-02
CGA:  82    -0.128299812494E+04    0.15913E-05   -0.58696E-04 10640   0.197E-02 0.198E-02
CGA:  83    -0.128299812350E+04    0.14423E-05   -0.56469E-04 10640   0.194E-02 0.195E-02
CGA:  84    -0.128299812220E+04    0.12955E-05   -0.54355E-04 10640   0.192E-02 0.193E-02
CGA:  85    -0.128299812105E+04    0.11520E-05   -0.52347E-04 10640   0.189E-02 0.190E-02
CGA:  86    -0.128299812004E+04    0.10108E-05   -0.50437E-04 10640   0.187E-02 0.188E-02
CGA:  87    -0.128299811916E+04    0.87437E-06   -0.48619E-04 10640   0.185E-02 0.186E-02
CGA:  88    -0.128299811842E+04    0.74139E-06   -0.46888E-04 10640   0.183E-02 0.184E-02
CGA:  89    -0.128299811781E+04    0.61444E-06   -0.45237E-04 10640   0.181E-02 0.182E-02
CGA:  90    -0.128299811732E+04    0.49032E-06   -0.43663E-04 10640   0.179E-02 0.180E-02
CGA:  91    -0.128299811694E+04    0.37334E-06   -0.42160E-04 10640   0.177E-02 0.178E-02
CGA:  92    -0.128299811668E+04    0.26090E-06   -0.40725E-04 10640   0.175E-02 0.176E-02
CGA:  93    -0.128299811653E+04    0.15446E-06   -0.39352E-04 10640   0.173E-02 0.174E-02
CGA:  94    -0.128299811648E+04    0.52998E-07   -0.38038E-04 10640   0.172E-02 0.172E-02
CGA:  95    -0.128299811652E+04   -0.43106E-07   -0.36781E-04 10640   0.170E-02 0.171E-02
CGA:  96    -0.128299811665E+04   -0.13229E-06   -0.35577E-04 10640   0.169E-02 0.169E-02
CGA:  97    -0.128299811687E+04   -0.21786E-06   -0.34423E-04 10640   0.167E-02 0.168E-02
CGA:  98    -0.128299811717E+04   -0.29664E-06   -0.33316E-04 10640   0.166E-02 0.166E-02
CGA:  99    -0.128299811754E+04   -0.37249E-06   -0.32254E-04 10640   0.164E-02 0.165E-02
CGA: 100    -0.128299811798E+04   -0.44161E-06   -0.31235E-04 10640   0.163E-02 0.164E-02
CGA: 101    -0.128299811849E+04   -0.50618E-06   -0.30255E-04 10640   0.162E-02 0.162E-02
CGA: 102    -0.128299811905E+04   -0.56743E-06   -0.29314E-04 10640   0.160E-02 0.161E-02
CGA: 103    -0.128299811968E+04   -0.62313E-06   -0.28410E-04 10640   0.159E-02 0.160E-02
CGA: 104    -0.128299812035E+04   -0.67583E-06   -0.27540E-04 10640   0.158E-02 0.159E-02
CGA: 105    -0.128299812108E+04   -0.72337E-06   -0.26702E-04 10640   0.157E-02 0.158E-02
CGA: 106    -0.128299812184E+04   -0.76913E-06   -0.25897E-04 10640   0.156E-02 0.156E-02
CGA: 107    -0.128299812265E+04   -0.80878E-06   -0.25120E-04 10640   0.155E-02 0.155E-02
CGA: 108    -0.128299812350E+04   -0.84669E-06   -0.24373E-04 10640   0.154E-02 0.154E-02
CGA: 109    -0.128299812438E+04   -0.88076E-06   -0.23652E-04 10640   0.153E-02 0.153E-02
CGA: 110    -0.128299812529E+04   -0.91165E-06   -0.22957E-04 10640   0.152E-02 0.153E-02
CGA: 111    -0.128299812623E+04   -0.93997E-06   -0.22286E-04 10640   0.151E-02 0.152E-02
CGA: 112    -0.128299812720E+04   -0.96404E-06   -0.21639E-04 10640   0.150E-02 0.151E-02
CGA: 113    -0.128299812818E+04   -0.98658E-06   -0.21015E-04 10640   0.149E-02 0.150E-02
CGA: 114    -0.128299812919E+04   -0.10069E-05   -0.20412E-04 10640   0.149E-02 0.149E-02
CGA: 115    -0.128299813021E+04   -0.10233E-05   -0.19829E-04 10640   0.148E-02 0.148E-02
CGA: 116    -0.128299813125E+04   -0.10393E-05   -0.19267E-04 10640   0.147E-02 0.147E-02
CGA: 117    -0.128299813230E+04   -0.10520E-05   -0.18723E-04 10640   0.146E-02 0.147E-02
CGA: 118    -0.128299813337E+04   -0.10626E-05   -0.18197E-04 10640   0.146E-02 0.146E-02
CGA: 119    -0.128299813444E+04   -0.10728E-05   -0.17689E-04 10640   0.145E-02 0.145E-02
CGA: 120    -0.128299813552E+04   -0.10791E-05   -0.17197E-04 10640   0.144E-02 0.145E-02
CGA: 121    -0.128299813660E+04   -0.10855E-05   -0.16721E-04 10640   0.144E-02 0.144E-02
CGA: 122    -0.128299813769E+04   -0.10897E-05   -0.16261E-04 10640   0.143E-02 0.143E-02
CGA: 123    -0.128299813879E+04   -0.10924E-05   -0.15815E-04 10640   0.142E-02 0.143E-02
CGA: 124    -0.128299813988E+04   -0.10944E-05   -0.15384E-04 10640   0.142E-02 0.142E-02
CGA: 125    -0.128299814097E+04   -0.10940E-05   -0.14966E-04 10640   0.141E-02 0.141E-02
CGA: 126    -0.128299814207E+04   -0.10934E-05   -0.14561E-04 10640   0.141E-02 0.141E-02
CGA: 127    -0.128299814316E+04   -0.10922E-05   -0.14169E-04 10640   0.140E-02 0.140E-02
CGA: 128    -0.128299814425E+04   -0.10880E-05   -0.13788E-04 10640   0.140E-02 0.140E-02
CGA: 129    -0.128299814533E+04   -0.10847E-05   -0.13420E-04 10640   0.139E-02 0.139E-02
CGA: 130    -0.128299814641E+04   -0.10800E-05   -0.13063E-04 10640   0.138E-02 0.139E-02
CGA: 131    -0.128299814749E+04   -0.10743E-05   -0.12716E-04 10640   0.138E-02 0.138E-02
CGA: 132    -0.128299814855E+04   -0.10677E-05   -0.12380E-04 10640   0.138E-02 0.138E-02
CGA: 133    -0.128299814962E+04   -0.10603E-05   -0.12054E-04 10640   0.137E-02 0.137E-02
CGA: 134    -0.128299815067E+04   -0.10530E-05   -0.11738E-04 10640   0.137E-02 0.137E-02
CGA: 135    -0.128299815171E+04   -0.10442E-05   -0.11431E-04 10640   0.136E-02 0.136E-02
CGA: 136    -0.128299815275E+04   -0.10355E-05   -0.11133E-04 10640   0.136E-02 0.136E-02
CGA: 137    -0.128299815377E+04   -0.10266E-05   -0.10844E-04 10640   0.135E-02 0.136E-02
CGA: 138    -0.128299815479E+04   -0.10155E-05   -0.10563E-04 10640   0.135E-02 0.135E-02
CGA: 139    -0.128299815580E+04   -0.10067E-05   -0.10290E-04 10640   0.135E-02 0.135E-02
CGA: 140    -0.128299815679E+04   -0.99534E-06   -0.10025E-04 10640   0.134E-02 0.134E-02
   1 F= -.12829982E+04 E0= -.12829982E+04  d E =-.128300E+04  mag=    47.0000
       N       E                     dE             d eps       ncg     rms          ort
SDA:   1    -0.128299846788E+04   -0.31209E-03    0.00000E+00 10640   0.102E-01 0.000E+00
CGA:   2    -0.128299981764E+04   -0.13498E-02   -0.94852E-03 10640   0.455E-02 0.619E-02
CGA:   3    -0.128300034646E+04   -0.52882E-03   -0.33898E-03 10640   0.326E-02 0.380E-02
CGA:   4    -0.128300066567E+04   -0.31921E-03   -0.21062E-03 10640   0.260E-02 0.289E-02
CGA:   5    -0.128300088728E+04   -0.22161E-03   -0.15187E-03 10640   0.217E-02 0.236E-02
CGA:   6    -0.128300105174E+04   -0.16445E-03   -0.11724E-03 10640   0.188E-02 0.201E-02
CGA:   7    -0.128300117914E+04   -0.12741E-03   -0.94497E-04 10640   0.165E-02 0.176E-02
CGA:   8    -0.128300128110E+04   -0.10196E-03   -0.78610E-04 10640   0.148E-02 0.156E-02
CGA:   9    -0.128300136486E+04   -0.83761E-04   -0.67041E-04 10640   0.135E-02 0.141E-02
CGA:  10    -0.128300143522E+04   -0.70362E-04   -0.58352E-04 10640   0.124E-02 0.129E-02
CGA:  11    -0.128300149548E+04   -0.60255E-04   -0.51662E-04 10640   0.115E-02 0.120E-02
CGA:  12    -0.128300154797E+04   -0.52487E-04   -0.46407E-04 10640   0.108E-02 0.112E-02
CGA:  13    -0.128300159439E+04   -0.46422E-04   -0.42211E-04 10640   0.102E-02 0.105E-02
CGA:  14    -0.128300163601E+04   -0.41622E-04   -0.38812E-04 10640   0.968E-03 0.993E-03
CGA:  15    -0.128300167379E+04   -0.37781E-04   -0.36025E-04 10640   0.923E-03 0.945E-03
CGA:  16    -0.128300170847E+04   -0.34681E-04   -0.33719E-04 10640   0.885E-03 0.903E-03
CGA:  17    -0.128300174063E+04   -0.32156E-04   -0.31790E-04 10640   0.851E-03 0.868E-03
CGA:  18    -0.128300177072E+04   -0.30090E-04   -0.30166E-04 10640   0.822E-03 0.836E-03
CGA:  19    -0.128300179911E+04   -0.28389E-04   -0.28788E-04 10640   0.796E-03 0.809E-03
CGA:  20    -0.128300182609E+04   -0.26984E-04   -0.27613E-04 10640   0.773E-03 0.784E-03
CGA:  21    -0.128300185191E+04   -0.25820E-04   -0.26605E-04 10640   0.752E-03 0.762E-03
CGA:  22    -0.128300187677E+04   -0.24857E-04   -0.25738E-04 10640   0.734E-03 0.743E-03
CGA:  23    -0.128300190083E+04   -0.24058E-04   -0.24989E-04 10640   0.717E-03 0.725E-03
CGA:  24    -0.128300192423E+04   -0.23399E-04   -0.24340E-04 10640   0.702E-03 0.709E-03
CGA:  25    -0.128300194708E+04   -0.22856E-04   -0.23778E-04 10640   0.688E-03 0.695E-03
CGA:  26    -0.128300196949E+04   -0.22413E-04   -0.23288E-04 10640   0.675E-03 0.681E-03
CGA:  27    -0.128300199155E+04   -0.22056E-04   -0.22863E-04 10640   0.663E-03 0.669E-03
CGA:  28    -0.128300201332E+04   -0.21769E-04   -0.22493E-04 10640   0.652E-03 0.658E-03
CGA:  29    -0.128300203487E+04   -0.21547E-04   -0.22172E-04 10640   0.642E-03 0.647E-03
CGA:  30    -0.128300205625E+04   -0.21380E-04   -0.21895E-04 10640   0.632E-03 0.637E-03
CGA:  31    -0.128300207751E+04   -0.21261E-04   -0.21655E-04 10640   0.623E-03 0.628E-03
CGA:  32    -0.128300209869E+04   -0.21184E-04   -0.21449E-04 10640   0.615E-03 0.619E-03
CGA:  33    -0.128300211983E+04   -0.21144E-04   -0.21275E-04 10640   0.606E-03 0.611E-03
CGA:  34    -0.128300214097E+04   -0.21140E-04   -0.21128E-04 10640   0.599E-03 0.603E-03
CGA:  35    -0.128300216214E+04   -0.21163E-04   -0.21005E-04 10640   0.591E-03 0.595E-03
CGA:  36    -0.128300218335E+04   -0.21215E-04   -0.20906E-04 10640   0.584E-03 0.588E-03
CGA:  37    -0.128300220464E+04   -0.21291E-04   -0.20828E-04 10640   0.577E-03 0.581E-03
CGA:  38    -0.128300222603E+04   -0.21389E-04   -0.20768E-04 10640   0.570E-03 0.574E-03
CGA:  39    -0.128300224754E+04   -0.21510E-04   -0.20727E-04 10640   0.564E-03 0.567E-03
CGA:  40    -0.128300226919E+04   -0.21648E-04   -0.20703E-04 10640   0.558E-03 0.561E-03
CGA:  41    -0.128300229099E+04   -0.21804E-04   -0.20693E-04 10640   0.551E-03 0.555E-03
CGA:  42    -0.128300231297E+04   -0.21979E-04   -0.20700E-04 10640   0.545E-03 0.549E-03
CGA:  43    -0.128300233514E+04   -0.22170E-04   -0.20721E-04 10640   0.539E-03 0.542E-03
CGA:  44    -0.128300235752E+04   -0.22376E-04   -0.20755E-04 10640   0.533E-03 0.537E-03
CGA:  45    -0.128300238012E+04   -0.22600E-04   -0.20803E-04 10640   0.528E-03 0.531E-03
CGA:  46    -0.128300240296E+04   -0.22838E-04   -0.20863E-04 10640   0.522E-03 0.525E-03
CGA:  47    -0.128300242605E+04   -0.23091E-04   -0.20937E-04 10640   0.516E-03 0.519E-03
CGA:  48    -0.128300244941E+04   -0.23359E-04   -0.21022E-04 10640   0.511E-03 0.514E-03
CGA:  49    -0.128300247305E+04   -0.23643E-04   -0.21120E-04 10640   0.505E-03 0.508E-03
CGA:  50    -0.128300249699E+04   -0.23942E-04   -0.21231E-04 10640   0.499E-03 0.502E-03
CGA:  51    -0.128300252125E+04   -0.24257E-04   -0.21354E-04 10640   0.494E-03 0.497E-03
CGA:  52    -0.128300254584E+04   -0.24587E-04   -0.21488E-04 10640   0.488E-03 0.491E-03
CGA:  53    -0.128300257077E+04   -0.24932E-04   -0.21635E-04 10640   0.483E-03 0.486E-03
CGA:  54    -0.128300259607E+04   -0.25297E-04   -0.21795E-04 10640   0.477E-03 0.480E-03
CGA:  55    -0.128300262175E+04   -0.25679E-04   -0.21969E-04 10640   0.472E-03 0.474E-03
CGA:  56    -0.128300264782E+04   -0.26079E-04   -0.22155E-04 10640   0.466E-03 0.469E-03
CGA:  57    -0.128300267433E+04   -0.26501E-04   -0.22357E-04 10640   0.460E-03 0.463E-03
CGA:  58    -0.128300270127E+04   -0.26945E-04   -0.22574E-04 10640   0.455E-03 0.458E-03
CGA:  59    -0.128300272868E+04   -0.27409E-04   -0.22803E-04 10640   0.449E-03 0.452E-03
CGA:  60    -0.128300275658E+04   -0.27899E-04   -0.23051E-04 10640   0.444E-03 0.446E-03
CGA:  61    -0.128300278499E+04   -0.28412E-04   -0.23314E-04 10640   0.438E-03 0.441E-03
CGA:  62    -0.128300281395E+04   -0.28954E-04   -0.23596E-04 10640   0.432E-03 0.435E-03
CGA:  63    -0.128300284347E+04   -0.29529E-04   -0.23898E-04 10640   0.426E-03 0.429E-03
CGA:  64    -0.128300287360E+04   -0.30131E-04   -0.24217E-04 10640   0.420E-03 0.423E-03
CGA:  65    -0.128300290437E+04   -0.30766E-04   -0.24557E-04 10640   0.415E-03 0.417E-03
CGA:  66    -0.128300293581E+04   -0.31441E-04   -0.24921E-04 10640   0.409E-03 0.412E-03
CGA:  67    -0.128300296797E+04   -0.32155E-04   -0.25310E-04 10640   0.403E-03 0.406E-03
CGA:  68    -0.128300300088E+04   -0.32910E-04   -0.25722E-04 10640   0.396E-03 0.399E-03
CGA:  69    -0.128300303459E+04   -0.33716E-04   -0.26165E-04 10640   0.390E-03 0.393E-03
CGA:  70    -0.128300306916E+04   -0.34569E-04   -0.26635E-04 10640   0.384E-03 0.387E-03
CGA:  71    -0.128300310464E+04   -0.35477E-04   -0.27137E-04 10640   0.378E-03 0.381E-03
CGA:  72    -0.128300314108E+04   -0.36446E-04   -0.27675E-04 10640   0.371E-03 0.374E-03
CGA:  73    -0.128300317857E+04   -0.37482E-04   -0.28250E-04 10640   0.364E-03 0.368E-03
CGA:  74    -0.128300321716E+04   -0.38589E-04   -0.28867E-04 10640   0.358E-03 0.361E-03
CGA:  75    -0.128300325693E+04   -0.39779E-04   -0.29529E-04 10640   0.351E-03 0.354E-03
CGA:  76    -0.128300329799E+04   -0.41054E-04   -0.30240E-04 10640   0.344E-03 0.347E-03
CGA:  77    -0.128300334041E+04   -0.42427E-04   -0.31004E-04 10640   0.337E-03 0.340E-03
CGA:  78    -0.128300338432E+04   -0.43907E-04   -0.31827E-04 10640   0.329E-03 0.333E-03
CGA:  79    -0.128300342983E+04   -0.45508E-04   -0.32717E-04 10640   0.322E-03 0.325E-03
CGA:  80    -0.128300347708E+04   -0.47247E-04   -0.33682E-04 10640   0.314E-03 0.318E-03
CGA:  81    -0.128300352620E+04   -0.49124E-04   -0.34721E-04 10640   0.306E-03 0.310E-03
CGA:  82    -0.128300357736E+04   -0.51163E-04   -0.35848E-04 10640   0.298E-03 0.302E-03
CGA:  83    -0.128300363077E+04   -0.53409E-04   -0.37085E-04 10640   0.289E-03 0.293E-03
CGA:  84    -0.128300368665E+04   -0.55873E-04   -0.38437E-04 10640   0.281E-03 0.285E-03
CGA:  85    -0.128300374523E+04   -0.58585E-04   -0.39921E-04 10640   0.271E-03 0.276E-03
CGA:  86    -0.128300380681E+04   -0.61585E-04   -0.41556E-04 10640   0.262E-03 0.267E-03
CGA:  87    -0.128300387174E+04   -0.64926E-04   -0.43370E-04 10640   0.252E-03 0.257E-03
CGA:  88    -0.128300394039E+04   -0.68651E-04   -0.45383E-04 10640   0.242E-03 0.247E-03
CGA:  89    -0.128300401322E+04   -0.72832E-04   -0.47633E-04 10640   0.231E-03 0.236E-03
CGA:  90    -0.128300409079E+04   -0.77565E-04   -0.50169E-04 10640   0.220E-03 0.225E-03
CGA:  91    -0.128300417374E+04   -0.82947E-04   -0.53039E-04 10640   0.208E-03 0.214E-03
CGA:  92    -0.128300426285E+04   -0.89117E-04   -0.56316E-04 10640   0.196E-03 0.202E-03
CGA:  93    -0.128300435910E+04   -0.96248E-04   -0.60087E-04 10640   0.182E-03 0.189E-03
CGA:  94    -0.128300446367E+04   -0.10456E-03   -0.64469E-04 10640   0.168E-03 0.175E-03
CGA:  95    -0.128300457800E+04   -0.11433E-03   -0.69605E-04 10640   0.153E-03 0.160E-03
CGA:  96    -0.128300470390E+04   -0.12590E-03   -0.75678E-04 10640   0.137E-03 0.145E-03
CGA:  97    -0.128300484350E+04   -0.13960E-03   -0.82893E-04 10640   0.119E-03 0.127E-03
CGA:  98    -0.128300499959E+04   -0.15610E-03   -0.91645E-04 10640   0.999E-04 0.109E-03
CGA:  99    -0.128300516851E+04   -0.16891E-03   -0.98635E-04 10640   0.804E-04 0.892E-04
CGA: 100    -0.128300538555E+04   -0.21704E-03   -0.23837E-03 10640   0.236E-03 0.532E-04
CGA: 101    -0.128300540537E+04   -0.19821E-04   -0.27282E-04 10640   0.599E-04 0.211E-04
CGA: 102    -0.128300550998E+04   -0.10461E-03   -0.88216E-04 10640   0.389E-03 0.208E-04
CGA: 103    -0.128300567922E+04   -0.16924E-03   -0.17650E-03 10640   0.293E-03 0.844E-04
CGA: 104    -0.128300570585E+04   -0.26635E-04   -0.78160E-04 10640   0.358E-03 0.180E-03
CGA: 105    -0.128300577631E+04   -0.70454E-04   -0.95710E-04 10640   0.191E-03 0.622E-04
CGA: 106    -0.128300579869E+04   -0.22382E-04   -0.49769E-04 10640   0.124E-03 0.659E-04
CGA: 107    -0.128300577686E+04    0.21823E-04   -0.24834E-04 10640   0.224E-03 0.939E-04
CGA: 108    -0.128300579537E+04   -0.18507E-04   -0.52443E-04 10640   0.176E-03 0.748E-04
CGA: 109    -0.128300576580E+04    0.29574E-04   -0.38137E-04 10640   0.243E-03 0.148E-03
CGA: 110    -0.128300579142E+04   -0.25618E-04   -0.55384E-04 10640   0.181E-03 0.878E-04
CGA: 111    -0.128300579109E+04    0.32873E-06   -0.44817E-04 10640   0.151E-03 0.126E-03
CGA: 112    -0.128300581533E+04   -0.24240E-04   -0.36746E-04 10640   0.827E-04 0.645E-04
CGA: 113    -0.128300583861E+04   -0.23286E-04   -0.29364E-04 10640   0.354E-04 0.363E-04
CGA: 114    -0.128300584593E+04   -0.73214E-05   -0.11552E-04 10640   0.216E-04 0.184E-04
   2 F= -.12830058E+04 E0= -.12830058E+04  d E =-.768914E-02  mag=    47.0000
       N       E                     dE             d eps       ncg     rms          ort
SDA:   1    -0.128300008094E+04    0.57577E-02    0.00000E+00 10640   0.394E-01 0.000E+00
CGA:   2    -0.128300800517E+04   -0.79242E-02   -0.79041E-02 10640   0.149E-01-0.109E-03
CGA:   3    -0.128301173637E+04   -0.37312E-02   -0.37323E-02 10640   0.352E-02 0.192E-05
CGA:   4    -0.128301231145E+04   -0.57508E-03   -0.56826E-03 10640   0.606E-03-0.354E-04
CGA:   5    -0.128301240754E+04   -0.96094E-04   -0.10811E-03 10640   0.137E-03 0.730E-04
CGA:   6    -0.128301244631E+04   -0.38762E-04   -0.37340E-04 10640   0.782E-04-0.149E-04
CGA:   7    -0.128301244686E+04   -0.55342E-06   -0.71171E-05 10640   0.266E-04 0.286E-04
   3 F= -.12830124E+04 E0= -.12830124E+04  d E =-.660092E-02  mag=    47.0000
       N       E                     dE             d eps       ncg     rms          ort
SDA:   1    -0.125169924250E+04    0.31313E+02    0.00000E+00 10640   0.104E+03 0.000E+00
CGA:   2    -0.127119157079E+04   -0.19492E+02   -0.19750E+02 10640   0.386E+02 0.467E-01
CGA:   3    -0.128036118301E+04   -0.91696E+01   -0.90177E+01 10640   0.132E+02-0.132E+00
CGA:   4    -0.128221945734E+04   -0.18583E+01   -0.19307E+01 10640   0.212E+01-0.184E+00
CGA:   5    -0.128259181386E+04   -0.37236E+00   -0.37076E+00 10640   0.579E+00 0.178E-01
CGA:   6    -0.128270421822E+04   -0.11240E+00   -0.11231E+00 10640   0.171E+00-0.278E-02
CGA:   7    -0.128274063587E+04   -0.36418E-01   -0.36321E-01 10640   0.558E-01-0.122E-02
CGA:   8    -0.128275242946E+04   -0.11794E-01   -0.11652E-01 10640   0.246E-01-0.207E-02
CGA:   9    -0.128275823794E+04   -0.58085E-02   -0.58225E-02 10640   0.119E-01 0.540E-03
CGA:  10    -0.128276198992E+04   -0.37520E-02   -0.37883E-02 10640   0.867E-02-0.940E-03
CGA:  11    -0.128276372920E+04   -0.17393E-02   -0.17592E-02 10640   0.434E-02 0.375E-03
CGA:  12    -0.128276550933E+04   -0.17801E-02   -0.19027E-02 10640   0.455E-02-0.857E-03
CGA:  13    -0.128276644948E+04   -0.94015E-03   -0.94331E-03 10640   0.367E-02 0.115E-03
CGA:  14    -0.128276774137E+04   -0.12919E-02   -0.12594E-02 10640   0.233E-02 0.513E-03
CGA:  15    -0.128276884037E+04   -0.10990E-02   -0.10155E-02 10640   0.164E-02 0.783E-03
CGA:  16    -0.128276966516E+04   -0.82479E-03   -0.80014E-03 10640   0.152E-02 0.275E-03
CGA:  17    -0.128277012916E+04   -0.46400E-03   -0.47451E-03 10640   0.878E-03 0.417E-03
CGA:  18    -0.128277065163E+04   -0.52247E-03   -0.52886E-03 10640   0.120E-02-0.601E-04
CGA:  19    -0.128277085215E+04   -0.20053E-03   -0.22504E-03 10640   0.796E-03 0.240E-03
CGA:  20    -0.128277123789E+04   -0.38573E-03   -0.39031E-03 10640   0.110E-02-0.612E-04
CGA:  21    -0.128277154871E+04   -0.31083E-03   -0.32731E-03 10640   0.150E-02-0.701E-03
CGA:  22    -0.128277169458E+04   -0.14586E-03   -0.20261E-03 10640   0.464E-03 0.347E-03
CGA:  23    -0.128277188882E+04   -0.19424E-03   -0.20487E-03 10640   0.285E-03-0.161E-03
CGA:  24    -0.128276995437E+04    0.19344E-02   -0.10434E-02 10640   0.159E-01-0.143E-02
CGA:  25    -0.128277163512E+04   -0.16807E-02   -0.18326E-02 10640   0.130E-02 0.551E-03
CGA:  26    -0.128277197284E+04   -0.33772E-03   -0.35983E-03 10640   0.913E-03 0.902E-04
CGA:  27    -0.128277221932E+04   -0.24647E-03   -0.22447E-03 10640   0.201E-03-0.779E-04
CGA:  28    -0.128277221412E+04    0.51918E-05   -0.24295E-04 10640   0.820E-04 0.823E-04
CGA:  29    -0.128277222201E+04   -0.78902E-05   -0.20832E-04 10640   0.570E-04 0.442E-04
CGA:  30    -0.128277228934E+04   -0.67321E-04    0.45590E-04 10640   0.324E-03-0.738E-04
CGA:  31    -0.128277227214E+04    0.17201E-04   -0.22532E-04 10640   0.402E-04 0.103E-03
CGA:  32    -0.128277226286E+04    0.92798E-05   -0.22567E-05 10640   0.165E-04 0.292E-04
   4 F= -.12827723E+04 E0= -.12827722E+04  d E =0.240184E+00  mag=    47.0000
       N       E                     dE             d eps       ncg     rms          ort
SDA:   1    -0.127062764152E+04    0.12145E+02    0.00000E+00 10640   0.400E+02 0.000E+00
CGA:   2    -0.127855000326E+04   -0.79224E+01   -0.79565E+01 10640   0.151E+02-0.430E-01
CGA:   3    -0.128227513931E+04   -0.37251E+01   -0.37231E+01 10640   0.386E+01 0.185E-01
CGA:   4    -0.128288129165E+04   -0.60615E+00   -0.61263E+00 10640   0.621E+00-0.262E-01
CGA:   5    -0.128300958617E+04   -0.12829E+00   -0.12798E+00 10640   0.154E+00 0.199E-03
CGA:   6    -0.128304241956E+04   -0.32833E-01   -0.32729E-01 10640   0.510E-01-0.983E-03
CGA:   7    -0.128305271342E+04   -0.10294E-01   -0.10158E-01 10640   0.151E-01-0.808E-03
CGA:   8    -0.128305665036E+04   -0.39369E-02   -0.38034E-02 10640   0.852E-02-0.142E-02
CGA:   9    -0.128305862809E+04   -0.19777E-02   -0.18930E-02 10640   0.511E-02-0.842E-03
CGA:  10    -0.128306016316E+04   -0.15351E-02   -0.15143E-02 10640   0.516E-02-0.196E-02
CGA:  11    -0.128306097170E+04   -0.80854E-03   -0.70951E-03 10640   0.245E-02-0.850E-03
CGA:  12    -0.128306156091E+04   -0.58921E-03   -0.13572E-02 10640   0.673E-02-0.233E-02
CGA:  13    -0.128306275859E+04   -0.11977E-02   -0.12173E-02 10640   0.183E-02 0.125E-03
CGA:  14    -0.128306306579E+04   -0.30720E-03   -0.34401E-03 10640   0.695E-03 0.237E-03
CGA:  15    -0.128306341909E+04   -0.35330E-03   -0.34419E-03 10640   0.675E-03 0.838E-04
CGA:  16    -0.128306349361E+04   -0.74524E-04   -0.12468E-03 10640   0.303E-03 0.287E-03
CGA:  17    -0.128306357301E+04   -0.79397E-04   -0.99386E-04 10640   0.244E-03 0.197E-03
CGA:  18    -0.128306345290E+04    0.12011E-03   -0.20818E-03 10640   0.469E-02-0.620E-03
CGA:  19    -0.128306378211E+04   -0.32921E-03   -0.46116E-03 10640   0.205E-03 0.554E-03
CGA:  20    -0.128306380264E+04   -0.20528E-04   -0.31234E-04 10640   0.107E-03 0.530E-04
CGA:  21    -0.128306362034E+04    0.18230E-03   -0.12086E-03 10640   0.449E-02-0.276E-03
CGA:  22    -0.128306410958E+04   -0.48925E-03   -0.57846E-03 10640   0.612E-03 0.217E-03
CGA:  23    -0.128306428194E+04   -0.17235E-03   -0.15105E-03 10640   0.287E-03-0.622E-04
CGA:  24    -0.128306431717E+04   -0.35231E-04   -0.42000E-04 10640   0.663E-04 0.176E-04
CGA:  25    -0.128306436074E+04   -0.43571E-04   -0.48501E-04 10640   0.304E-03-0.340E-04
CGA:  26    -0.128306442692E+04   -0.66180E-04   -0.50583E-04 10640   0.847E-04-0.404E-04
CGA:  27    -0.128306442409E+04    0.28269E-05   -0.10350E-04 10640   0.396E-04 0.340E-04
CGA:  28    -0.128306443365E+04   -0.95546E-05   -0.14193E-04 10640   0.655E-04 0.180E-04
CGA:  29    -0.128306454503E+04   -0.11138E-03    0.13310E-03 10640   0.208E-03 0.483E-05
CGA:  30    -0.128306444683E+04    0.98202E-04   -0.24819E-03 10640   0.217E-02-0.660E-03
CGA:  31    -0.128306467938E+04   -0.23255E-03   -0.32853E-03 10640   0.609E-03 0.266E-03
CGA:  32    -0.128306489268E+04   -0.21331E-03   -0.20868E-03 10640   0.267E-03-0.216E-04
CGA:  33    -0.128306491135E+04   -0.18673E-04   -0.35837E-04 10640   0.428E-04 0.484E-04
CGA:  34    -0.128306491492E+04   -0.35681E-05   -0.75282E-05 10640   0.180E-04 0.120E-04
   5 F= -.12830649E+04 E0= -.12830649E+04  d E =-.292652E+00  mag=    47.0000
       N       E                     dE             d eps       ncg     rms          ort
SDA:   1    -0.128293743367E+04    0.12748E+00    0.00000E+00 10640   0.426E+00 0.000E+00
CGA:   2    -0.128302258669E+04   -0.85153E-01   -0.85059E-01 10640   0.157E+00-0.327E-03
CGA:   3    -0.128306263501E+04   -0.40048E-01   -0.40040E-01 10640   0.383E-01-0.132E-03
CGA:   4    -0.128306897751E+04   -0.63425E-02   -0.62154E-02 10640   0.645E-02-0.473E-03
CGA:   5    -0.128307024119E+04   -0.12637E-02   -0.12878E-02 10640   0.153E-02 0.113E-03
CGA:   6    -0.128307064230E+04   -0.40111E-03   -0.36634E-03 10640   0.762E-03-0.199E-03
CGA:   7    -0.128307070578E+04   -0.63473E-04   -0.87872E-04 10640   0.166E-03 0.922E-04
CGA:   8    -0.128307074184E+04   -0.36059E-04   -0.38001E-04 10640   0.870E-04 0.106E-04
CGA:   9    -0.128306847459E+04    0.22673E-02   -0.12461E-02 10640   0.200E-01-0.120E-02
CGA:  10    -0.128307020173E+04   -0.17271E-02   -0.19633E-02 10640   0.191E-02 0.688E-03
CGA:  11    -0.128307074271E+04   -0.54098E-03   -0.54598E-03 10640   0.407E-03 0.141E-04
CGA:  12    -0.128307087917E+04   -0.13646E-03   -0.10423E-03 10640   0.376E-03-0.829E-04
CGA:  13    -0.128307088793E+04   -0.87567E-05   -0.45136E-04 10640   0.121E-03 0.781E-04
CGA:  14    -0.128307088309E+04    0.48350E-05   -0.15507E-04 10640   0.480E-04 0.417E-04
CGA:  15    -0.128307089623E+04   -0.13142E-04   -0.14058E-04 10640   0.332E-04 0.257E-05
CGA:  16    -0.128307090513E+04   -0.89015E-05   -0.60950E-05 10640   0.177E-04-0.730E-05
   6 F= -.12830709E+04 E0= -.12830709E+04  d E =-.599021E-02  mag=    47.0000
       N       E                     dE             d eps       ncg     rms          ort
SDA:   1    -0.128224491469E+04    0.82598E+00    0.00000E+00 10640   0.242E+01 0.000E+00
CGA:   2    -0.128278410006E+04   -0.53919E+00   -0.53902E+00 10640   0.102E+01-0.619E-03
CGA:   3    -0.128302022903E+04   -0.23613E+00   -0.23645E+00 10640   0.226E+00 0.187E-02
CGA:   4    -0.128305746518E+04   -0.37236E-01   -0.36985E-01 10640   0.423E-01-0.947E-03
CGA:   5    -0.128306565588E+04   -0.81907E-02   -0.82777E-02 10640   0.995E-02 0.405E-03
CGA:   6    -0.128306779453E+04   -0.21386E-02   -0.20732E-02 10640   0.366E-02-0.260E-03
CGA:   7    -0.128306844958E+04   -0.65505E-03   -0.67247E-03 10640   0.992E-03 0.747E-04
CGA:   8    -0.128306870383E+04   -0.25426E-03   -0.25211E-03 10640   0.484E-03-0.109E-04
CGA:   9    -0.128306889793E+04   -0.19410E-03   -0.18261E-03 10640   0.865E-03-0.289E-03
CGA:  10    -0.128306893273E+04   -0.34802E-04   -0.79905E-04 10640   0.123E-03 0.141E-03
CGA:  11    -0.128306896196E+04   -0.29230E-04   -0.33034E-04 10640   0.869E-04 0.220E-04
CGA:  12    -0.128306843967E+04    0.52229E-03   -0.13967E-03 10640   0.670E-02-0.682E-03
CGA:  13    -0.128306892253E+04   -0.48287E-03   -0.62871E-03 10640   0.559E-03 0.472E-03
CGA:  14    -0.128306908125E+04   -0.15872E-03   -0.16568E-03 10640   0.192E-03 0.471E-04
CGA:  15    -0.128306917248E+04   -0.91230E-04   -0.57418E-04 10640   0.463E-03-0.237E-03
CGA:  16    -0.128306916677E+04    0.57144E-05   -0.34152E-04 10640   0.481E-04 0.120E-03
   7 F= -.12830692E+04 E0= -.12830692E+04  d E =0.173837E-02  mag=    47.0000
       N       E                     dE             d eps       ncg     rms          ort
SDA:   1    -0.128290631090E+04    0.16286E+00    0.00000E+00 10640   0.495E+00 0.000E+00
CGA:   2    -0.128301052253E+04   -0.10421E+00   -0.10401E+00 10640   0.223E+00-0.114E-02
CGA:   3    -0.128305777358E+04   -0.47251E-01   -0.47310E-01 10640   0.706E-01 0.706E-03
CGA:   4    -0.128306819508E+04   -0.10421E-01   -0.10326E-01 10640   0.109E-01-0.454E-03
CGA:   5    -0.128307007973E+04   -0.18847E-02   -0.19977E-02 10640   0.238E-02 0.695E-03
CGA:   6    -0.128307065524E+04   -0.57551E-03   -0.56685E-03 10640   0.805E-03-0.720E-04
CGA:   7    -0.128307077117E+04   -0.11593E-03   -0.13569E-03 10640   0.217E-03 0.123E-03
CGA:   8    -0.128307085064E+04   -0.79470E-04   -0.78470E-04 10640   0.176E-03-0.705E-04
CGA:   9    -0.128307085600E+04   -0.53574E-05   -0.14600E-04 10640   0.928E-04 0.453E-04
CGA:  10    -0.128307085718E+04   -0.11809E-05   -0.12031E-04 10640   0.460E-04 0.507E-04
CGA:  11    -0.128307086871E+04   -0.11524E-04   -0.11651E-04 10640   0.372E-04 0.247E-05
CGA:  12    -0.128307086565E+04    0.30546E-05   -0.28868E-05 10640   0.175E-04 0.258E-04
   8 F= -.12830709E+04 E0= -.12830709E+04  d E =-.169889E-02  mag=    47.0000
       N       E                     dE             d eps       ncg     rms          ort
SDA:   1    -0.127269139176E+04    0.10379E+02    0.00000E+00 10640   0.327E+02 0.000E+00
CGA:   2    -0.127917826836E+04   -0.64869E+01   -0.64872E+01 10640   0.122E+02 0.887E-02
CGA:   3    -0.128221988886E+04   -0.30416E+01   -0.30425E+01 10640   0.327E+01 0.175E-01
CGA:   4    -0.128272320635E+04   -0.50332E+00   -0.50388E+00 10640   0.556E+00 0.169E-01
CGA:   5    -0.128282925848E+04   -0.10605E+00   -0.10613E+00 10640   0.162E+00 0.571E-03
CGA:   6    -0.128285793053E+04   -0.28672E-01   -0.28850E-01 10640   0.501E-01 0.259E-02
CGA:   7    -0.128286939659E+04   -0.11466E-01   -0.11382E-01 10640   0.144E-01-0.226E-02
CGA:   8    -0.128287235381E+04   -0.29572E-02   -0.29819E-02 10640   0.586E-02 0.618E-03
CGA:   9    -0.128287398306E+04   -0.16292E-02   -0.16312E-02 10640   0.350E-02-0.185E-03
CGA:  10    -0.128287459321E+04   -0.61014E-03   -0.65703E-03 10640   0.137E-02 0.741E-03
CGA:  11    -0.128287508049E+04   -0.48729E-03   -0.47593E-03 10640   0.710E-03 0.339E-03
CGA:  12    -0.128287537743E+04   -0.29694E-03   -0.28472E-03 10640   0.653E-03 0.183E-03
CGA:  13    -0.128287554338E+04   -0.16595E-03   -0.18014E-03 10640   0.425E-03 0.355E-03
CGA:  14    -0.128287569307E+04   -0.14969E-03   -0.14579E-03 10640   0.481E-03 0.444E-04
CGA:  15    -0.128287575379E+04   -0.60722E-04   -0.84759E-04 10640   0.230E-03 0.235E-03
CGA:  16    -0.128287585544E+04   -0.10164E-03   -0.96671E-04 10640   0.319E-03 0.188E-03
CGA:  17    -0.128287593459E+04   -0.79156E-04   -0.76677E-04 10640   0.532E-03-0.142E-03
CGA:  18    -0.128287601664E+04   -0.82043E-04   -0.79961E-04 10640   0.717E-03 0.140E-03
CGA:  19    -0.128287609514E+04   -0.78503E-04   -0.11023E-03 10640   0.227E-03 0.232E-03
CGA:  20    -0.128287622799E+04   -0.13285E-03   -0.12562E-03 10640   0.547E-03 0.386E-04
CGA:  21    -0.128287639298E+04   -0.16500E-03   -0.16515E-03 10640   0.472E-03 0.177E-03
CGA:  22    -0.128287645192E+04   -0.58937E-04   -0.85949E-04 10640   0.213E-03 0.215E-03
CGA:  23    -0.128287652791E+04   -0.75988E-04   -0.76511E-04 10640   0.268E-03 0.765E-04
CGA:  24    -0.128287664180E+04   -0.11389E-03   -0.14996E-03 10640   0.599E-03-0.241E-03
CGA:  25    -0.128287667084E+04   -0.29044E-04   -0.60699E-04 10640   0.140E-03 0.200E-03
CGA:  26    -0.128287668614E+04   -0.15299E-04   -0.24352E-04 10640   0.640E-04 0.738E-04
CGA:  27    -0.128287672659E+04   -0.40442E-04    0.27978E-04 10640   0.689E-04-0.132E-04
CGA:  28    -0.128287672783E+04   -0.12404E-05   -0.58197E-05 10640   0.368E-04 0.326E-04
   9 F= -.12828767E+04 E0= -.12828767E+04  d E =0.194138E+00  mag=    47.0000
       N       E                     dE             d eps       ncg     rms          ort
SDA:   1    -0.127666507622E+04    0.62117E+01    0.00000E+00 10640   0.210E+02 0.000E+00
CGA:   2    -0.128068580253E+04   -0.40207E+01   -0.40208E+01 10640   0.758E+01 0.178E-02
CGA:   3    -0.128260129765E+04   -0.19155E+01   -0.19151E+01 10640   0.230E+01 0.105E-01
CGA:   4    -0.128293996292E+04   -0.33867E+00   -0.33866E+00 10640   0.373E+00-0.583E-02
CGA:   5    -0.128300785649E+04   -0.67894E-01   -0.67890E-01 10640   0.106E+00 0.741E-03
CGA:   6    -0.128302873091E+04   -0.20874E-01   -0.20803E-01 10640   0.330E-01-0.262E-02
CGA:   7    -0.128303532729E+04   -0.65964E-02   -0.66091E-02 10640   0.795E-02 0.804E-03
CGA:   8    -0.128303738013E+04   -0.20528E-02   -0.20846E-02 10640   0.461E-02-0.891E-03
CGA:   9    -0.128303825920E+04   -0.87908E-03   -0.87847E-03 10640   0.213E-02-0.697E-04
CGA:  10    -0.128303877761E+04   -0.51840E-03   -0.11324E-02 10640   0.511E-02-0.193E-02
CGA:  11    -0.128303938302E+04   -0.60541E-03   -0.64048E-03 10640   0.108E-02 0.322E-03
CGA:  12    -0.128303967063E+04   -0.28761E-03   -0.29214E-03 10640   0.533E-03-0.201E-03
CGA:  13    -0.128303984052E+04   -0.16989E-03   -0.17283E-03 10640   0.449E-03-0.188E-04
CGA:  14    -0.128303979050E+04    0.50023E-04   -0.33114E-03 10640   0.411E-02-0.734E-03
CGA:  15    -0.128304016448E+04   -0.37398E-03   -0.41956E-03 10640   0.442E-03 0.287E-03
CGA:  16    -0.128304028949E+04   -0.12501E-03   -0.12493E-03 10640   0.196E-03 0.156E-04
CGA:  17    -0.128304034431E+04   -0.54823E-04   -0.54930E-04 10640   0.214E-03-0.100E-04
CGA:  18    -0.128304038740E+04   -0.43088E-04   -0.45649E-04 10640   0.114E-03 0.710E-04
CGA:  19    -0.128304042070E+04   -0.33296E-04   -0.33634E-04 10640   0.113E-03 0.823E-05
CGA:  20    -0.128304047321E+04   -0.52518E-04   -0.10193E-03 10640   0.550E-03-0.916E-04
CGA:  21    -0.128304052777E+04   -0.54551E-04   -0.71431E-04 10640   0.157E-03 0.109E-03
CGA:  22    -0.128304057519E+04   -0.47425E-04   -0.47589E-04 10640   0.477E-04 0.641E-05
CGA:  23    -0.128304058675E+04   -0.11560E-04   -0.30713E-04 10640   0.267E-03-0.564E-04
CGA:  24    -0.128304061437E+04   -0.27623E-04   -0.32252E-04 10640   0.289E-04 0.276E-04
CGA:  25    -0.128304044122E+04    0.17316E-03   -0.93278E-04 10640   0.136E-02-0.150E-03
CGA:  26    -0.128304060794E+04   -0.16672E-03   -0.18739E-03 10640   0.245E-03 0.575E-04
CGA:  27    -0.128304067682E+04   -0.68875E-04   -0.61214E-04 10640   0.102E-03-0.289E-04
CGA:  28    -0.128304068042E+04   -0.36025E-05   -0.10932E-04 10640   0.160E-04 0.202E-04
  10 F= -.12830407E+04 E0= -.12830407E+04  d E =-.163953E+00  mag=    47.0000
       N       E                     dE             d eps       ncg     rms          ort
SDA:   1    -0.128295516976E+04    0.85507E-01    0.00000E+00 10640   0.299E+00 0.000E+00
CGA:   2    -0.128301305918E+04   -0.57889E-01   -0.58006E-01 10640   0.117E+00 0.609E-03
CGA:   3    -0.128304091863E+04   -0.27859E-01   -0.27681E-01 10640   0.409E-01-0.935E-03
CGA:   4    -0.128304677740E+04   -0.58588E-02   -0.57993E-02 10640   0.596E-02-0.127E-03
CGA:   5    -0.128304802106E+04   -0.12437E-02   -0.11710E-02 10640   0.175E-02-0.330E-03
CGA:   6    -0.128304828884E+04   -0.26778E-03   -0.29074E-03 10640   0.435E-03 0.102E-03
CGA:   7    -0.128304841798E+04   -0.12914E-03   -0.12151E-03 10640   0.168E-03-0.591E-04
CGA:   8    -0.128304843711E+04   -0.19124E-04   -0.24292E-04 10640   0.586E-04 0.238E-04
CGA:   9    -0.128304849931E+04   -0.62205E-04    0.52353E-04 10640   0.585E-04-0.251E-04
CGA:  10    -0.128304855833E+04   -0.59016E-04    0.46512E-05 10640   0.585E-04-0.218E-04
CGA:  11    -0.128304861725E+04   -0.58920E-04    0.60364E-05 10640   0.623E-04-0.309E-04
CGA:  12    -0.128304863882E+04   -0.21568E-04   -0.20541E-04 10640   0.655E-04-0.226E-04
CGA:  13    -0.128304864250E+04   -0.36883E-05   -0.55377E-05 10640   0.292E-04 0.774E-05
  11 F= -.12830486E+04 E0= -.12830486E+04  d E =-.796209E-02  mag=    47.0000
       N       E                     dE             d eps       ncg     rms          ort
SDA:   1    -0.128265693840E+04    0.39170E+00    0.00000E+00 10640   0.124E+01 0.000E+00
CGA:   2    -0.128290739220E+04   -0.25045E+00   -0.25066E+00 10640   0.473E+00 0.164E-02
CGA:   3    -0.128302499148E+04   -0.11760E+00   -0.11741E+00 10640   0.129E+00-0.223E-02
CGA:   4    -0.128304451611E+04   -0.19525E-01   -0.19430E-01 10640   0.223E-01-0.364E-03
CGA:   5    -0.128304885057E+04   -0.43345E-02   -0.42339E-02 10640   0.666E-02-0.725E-03
CGA:   6    -0.128304992585E+04   -0.10753E-02   -0.11104E-02 10640   0.185E-02 0.246E-03
CGA:   7    -0.128305038915E+04   -0.46330E-03   -0.45624E-03 10640   0.525E-03-0.913E-04
CGA:   8    -0.128305049866E+04   -0.10952E-03   -0.11235E-03 10640   0.217E-03 0.338E-04
CGA:   9    -0.128305064925E+04   -0.15058E-03    0.53485E-03 10640   0.196E-03-0.456E-04
CGA:  10    -0.128305069494E+04   -0.45690E-04   -0.63706E-04 10640   0.400E-03-0.170E-03
CGA:  11    -0.128305080288E+04   -0.10795E-03   -0.79955E-04 10640   0.424E-03-0.250E-03
CGA:  12    -0.128305081028E+04   -0.74025E-05   -0.30571E-04 10640   0.400E-04 0.100E-03
  12 F= -.12830508E+04 E0= -.12830508E+04  d E =-.216778E-02  mag=    47.0000
       N       E                     dE             d eps       ncg     rms          ort
SDA:   1    -0.128299323943E+04    0.57563E-01    0.00000E+00 10640   0.160E+00 0.000E+00
CGA:   2    -0.128302818604E+04   -0.34947E-01   -0.34918E-01 10640   0.657E-01-0.413E-03
CGA:   3    -0.128304385219E+04   -0.15666E-01   -0.15689E-01 10640   0.139E-01 0.553E-03
CGA:   4    -0.128304616202E+04   -0.23098E-02   -0.23166E-02 10640   0.240E-02 0.608E-04
CGA:   5    -0.128304663025E+04   -0.46823E-03   -0.47902E-03 10640   0.495E-03 0.147E-03
CGA:   6    -0.128304677355E+04   -0.14330E-03   -0.14349E-03 10640   0.197E-03-0.380E-04
CGA:   7    -0.128304679859E+04   -0.25037E-04   -0.29333E-04 10640   0.592E-04 0.401E-04
CGA:   8    -0.128304681471E+04   -0.16122E-04   -0.40735E-04 10640   0.211E-03-0.797E-04
CGA:   9    -0.128304684289E+04   -0.28175E-04   -0.32398E-04 10640   0.263E-04 0.338E-04
CGA:  10    -0.128304685083E+04   -0.79393E-05   -0.79041E-05 10640   0.218E-04-0.277E-05
CGA:  11    -0.128304683837E+04    0.12452E-04   -0.17617E-04 10640   0.277E-03-0.478E-04
CGA:  12    -0.128304686406E+04   -0.25686E-04   -0.30324E-04 10640   0.520E-04 0.246E-04
CGA:  13    -0.128304677121E+04    0.92846E-04   -0.65274E-04 10640   0.625E-03-0.184E-03
CGA:  14    -0.128304686553E+04   -0.94319E-04   -0.11484E-03 10640   0.133E-03 0.135E-03
CGA:  15    -0.128304691683E+04   -0.51298E-04   -0.47179E-04 10640   0.163E-03-0.110E-03
CGA:  16    -0.128304691344E+04    0.33897E-05   -0.10942E-04 10640   0.245E-04 0.555E-04
  13 F= -.12830469E+04 E0= -.12830469E+04  d E =0.389684E-02  mag=    47.0000
       N       E                     dE             d eps       ncg     rms          ort
SDA:   1    -0.128251490871E+04    0.53201E+00    0.00000E+00 10640   0.145E+01 0.000E+00
CGA:   2    -0.128284642974E+04   -0.33152E+00   -0.33137E+00 10640   0.643E+00-0.206E-02
CGA:   3    -0.128298988285E+04   -0.14345E+00   -0.14375E+00 10640   0.154E+00 0.445E-02
CGA:   4    -0.128301330140E+04   -0.23419E-01   -0.23302E-01 10640   0.301E-01-0.877E-03
CGA:   5    -0.128301847061E+04   -0.51692E-02   -0.52739E-02 10640   0.735E-02 0.101E-02
CGA:   6    -0.128302008614E+04   -0.16155E-02   -0.15928E-02 10640   0.251E-02-0.314E-03
CGA:   7    -0.128302052973E+04   -0.44359E-03   -0.45954E-03 10640   0.635E-03 0.189E-03
CGA:   8    -0.128302068927E+04   -0.15955E-03   -0.16029E-03 10640   0.287E-03 0.202E-04
CGA:   9    -0.128302073807E+04   -0.48795E-04   -0.56216E-04 10640   0.114E-03 0.915E-04
CGA:  10    -0.128302076981E+04   -0.31741E-04   -0.34001E-04 10640   0.534E-04 0.546E-04
CGA:  11    -0.128302078029E+04   -0.10484E-04   -0.14248E-04 10640   0.330E-04 0.444E-04
CGA:  12    -0.128302078185E+04   -0.15545E-05   -0.44614E-05 10640   0.219E-04 0.231E-04
  14 F= -.12830208E+04 E0= -.12830208E+04  d E =0.261316E-01  mag=    47.0000
       N       E                     dE             d eps       ncg     rms          ort
SDA:   1    -0.128219328936E+04    0.82749E+00    0.00000E+00 10640   0.252E+01 0.000E+00
CGA:   2    -0.128270403734E+04   -0.51075E+00   -0.51087E+00 10640   0.969E+00 0.314E-02
CGA:   3    -0.128294823707E+04   -0.24420E+00   -0.24421E+00 10640   0.246E+00-0.471E-02
CGA:   4    -0.128298617434E+04   -0.37937E-01   -0.38017E-01 10640   0.385E-01 0.120E-02
CGA:   5    -0.128299454923E+04   -0.83749E-02   -0.83226E-02 10640   0.110E-01-0.184E-02
CGA:   6    -0.128299627381E+04   -0.17246E-02   -0.18062E-02 10640   0.302E-02 0.120E-02
CGA:   7    -0.128299706301E+04   -0.78920E-03   -0.78809E-03 10640   0.101E-02-0.282E-03
CGA:   8    -0.128299719204E+04   -0.12903E-03   -0.14980E-03 10640   0.336E-03 0.279E-03
CGA:   9    -0.128299728570E+04   -0.93658E-04   -0.94787E-04 10640   0.164E-03 0.814E-04
CGA:  10    -0.128299711761E+04    0.16809E-03   -0.20254E-03 10640   0.216E-02-0.489E-03
CGA:  11    -0.128299726376E+04   -0.14616E-03   -0.22487E-03 10640   0.376E-03 0.476E-03
CGA:  12    -0.128299733449E+04   -0.70729E-04   -0.80358E-04 10640   0.141E-03 0.108E-03
CGA:  13    -0.128299737670E+04   -0.42202E-04   -0.72660E-04 10640   0.546E-03-0.217E-03
CGA:  14    -0.128299738080E+04   -0.41056E-05   -0.40264E-04 10640   0.939E-04 0.189E-03
  15 F= -.12829974E+04 E0= -.12829974E+04  d E =0.234010E-01  mag=    47.0000
       N       E                     dE             d eps       ncg     rms          ort
SDA:   1    -0.128264700592E+04    0.35037E+00    0.00000E+00 10640   0.107E+01 0.000E+00
CGA:   2    -0.128287865718E+04   -0.23165E+00   -0.23158E+00 10640   0.438E+00-0.208E-02
CGA:   3    -0.128298312740E+04   -0.10447E+00   -0.10448E+00 10640   0.965E-01 0.199E-02
CGA:   4    -0.128299876491E+04   -0.15638E-01   -0.15741E-01 10640   0.167E-01 0.126E-02
CGA:   5    -0.128300209492E+04   -0.33300E-02   -0.33542E-02 10640   0.404E-02 0.573E-03
CGA:   6    -0.128300302100E+04   -0.92608E-03   -0.91994E-03 10640   0.187E-02-0.325E-03
CGA:   7    -0.128300329474E+04   -0.27374E-03   -0.27724E-03 10640   0.463E-03 0.486E-04
CGA:   8    -0.128300344066E+04   -0.14592E-03   -0.16634E-03 10640   0.373E-03-0.175E-03
CGA:   9    -0.128300347453E+04   -0.33868E-04   -0.37897E-04 10640   0.180E-03 0.528E-04
CGA:  10    -0.128300349418E+04   -0.19656E-04   -0.26985E-04 10640   0.743E-04 0.697E-04
CGA:  11    -0.128300350338E+04   -0.91959E-05   -0.13389E-04 10640   0.350E-04 0.415E-04
  16 F= -.12830035E+04 E0= -.12830035E+04  d E =-.612258E-02  mag=    47.0000
       N       E                     dE             d eps       ncg     rms          ort
SDA:   1    -0.128243259833E+04    0.57090E+00    0.00000E+00 10640   0.165E+01 0.000E+00
CGA:   2    -0.128279173199E+04   -0.35913E+00   -0.35914E+00 10640   0.683E+00 0.716E-03
CGA:   3    -0.128295629662E+04   -0.16456E+00   -0.16456E+00 10640   0.152E+00-0.134E-04
CGA:   4    -0.128298025160E+04   -0.23955E-01   -0.24054E-01 10640   0.265E-01 0.156E-02
CGA:   5    -0.128298575624E+04   -0.55046E-02   -0.54913E-02 10640   0.753E-02-0.827E-03
CGA:   6    -0.128298704935E+04   -0.12931E-02   -0.13080E-02 10640   0.238E-02 0.374E-03
CGA:   7    -0.128298764221E+04   -0.59285E-03   -0.60319E-03 10640   0.983E-03-0.441E-03
CGA:   8    -0.128298775255E+04   -0.11034E-03   -0.12269E-03 10640   0.327E-03 0.187E-03
CGA:   9    -0.128298782343E+04   -0.70877E-04   -0.73684E-04 10640   0.149E-03 0.105E-03
CGA:  10    -0.128298787791E+04   -0.54481E-04   -0.84056E-04 10640   0.466E-03-0.140E-03
CGA:  11    -0.128298789929E+04   -0.21376E-04   -0.39239E-04 10640   0.811E-04 0.127E-03
CGA:  12    -0.128298790743E+04   -0.81435E-05   -0.12245E-04 10640   0.507E-04 0.411E-04
CGA:  13    -0.128298793623E+04   -0.28797E-04    0.16452E-04 10640   0.553E-04-0.332E-05
CGA:  14    -0.128298794605E+04   -0.98268E-05   -0.10256E-04 10640   0.271E-04 0.281E-04
  17 F= -.12829879E+04 E0= -.12829879E+04  d E =0.155573E-01  mag=    47.0000
       N       E                     dE             d eps       ncg     rms          ort
SDA:   1    -0.128217265173E+04    0.81528E+00    0.00000E+00 10640   0.230E+01 0.000E+00
CGA:   2    -0.128268986988E+04   -0.51722E+00   -0.51720E+00 10640   0.973E+00 0.126E-02
CGA:   3    -0.128292061199E+04   -0.23074E+00   -0.23071E+00 10640   0.203E+00 0.739E-03
CGA:   4    -0.128295447884E+04   -0.33867E-01   -0.33793E-01 10640   0.365E-01-0.178E-02
CGA:   5    -0.128296212711E+04   -0.76483E-02   -0.76523E-02 10640   0.864E-02-0.633E-03
CGA:   6    -0.128296397510E+04   -0.18480E-02   -0.18525E-02 10640   0.358E-02-0.348E-03
CGA:   7    -0.128296450028E+04   -0.52518E-03   -0.53617E-03 10640   0.913E-03 0.224E-03
CGA:   8    -0.128296474903E+04   -0.24875E-03   -0.24720E-03 10640   0.373E-03 0.307E-04
CGA:   9    -0.128296488792E+04   -0.13889E-03   -0.14475E-03 10640   0.255E-03-0.347E-04
CGA:  10    -0.128296408829E+04    0.79963E-03   -0.43166E-03 10640   0.696E-02-0.941E-03
CGA:  11    -0.128296480213E+04   -0.71383E-03   -0.77519E-03 10640   0.888E-03 0.258E-03
CGA:  12    -0.128296498182E+04   -0.17969E-03   -0.20282E-03 10640   0.313E-03 0.148E-03
CGA:  13    -0.128296508521E+04   -0.10339E-03   -0.10153E-03 10640   0.270E-03-0.200E-04
CGA:  14    -0.128296511552E+04   -0.30305E-04   -0.45175E-04 10640   0.950E-04 0.801E-04
CGA:  15    -0.128296513115E+04   -0.15632E-04   -0.20446E-04 10640   0.548E-04 0.254E-04
CGA:  16    -0.128296515656E+04   -0.25417E-04   -0.34666E-04 10640   0.108E-03-0.609E-04
CGA:  17    -0.128296515185E+04    0.47187E-05   -0.10236E-04 10640   0.393E-04 0.578E-04
  18 F= -.12829652E+04 E0= -.12829652E+04  d E =0.227942E-01  mag=    47.0000
       N       E                     dE             d eps       ncg     rms          ort
SDA:   1    -0.128226683963E+04    0.69832E+00    0.00000E+00 10640   0.224E+01 0.000E+00
CGA:   2    -0.128271035137E+04   -0.44351E+00   -0.44376E+00 10640   0.850E+00 0.259E-02
CGA:   3    -0.128292247977E+04   -0.21213E+00   -0.21213E+00 10640   0.229E+00-0.390E-03
CGA:   4    -0.128295823042E+04   -0.35751E-01   -0.35804E-01 10640   0.339E-01 0.491E-03
CGA:   5    -0.128296542650E+04   -0.71961E-02   -0.71747E-02 10640   0.862E-02-0.197E-03
CGA:   6    -0.128296721383E+04   -0.17873E-02   -0.17865E-02 10640   0.288E-02-0.453E-06
CGA:   7    -0.128296770475E+04   -0.49092E-03   -0.51192E-03 10640   0.752E-03 0.171E-03
CGA:   8    -0.128296791126E+04   -0.20651E-03   -0.20423E-03 10640   0.411E-03-0.553E-04
CGA:   9    -0.128296795733E+04   -0.46071E-04   -0.60755E-04 10640   0.150E-03 0.109E-03
CGA:  10    -0.128296800774E+04   -0.50411E-04   -0.50708E-04 10640   0.963E-04 0.143E-04
CGA:  11    -0.128296801424E+04   -0.64984E-05   -0.64691E-04 10640   0.733E-03-0.179E-03
CGA:  12    -0.128296804435E+04   -0.30116E-04   -0.61573E-04 10640   0.837E-04 0.145E-03
CGA:  13    -0.128296804633E+04   -0.19791E-05   -0.10774E-04 10640   0.499E-04 0.475E-04
CGA:  14    -0.128296795811E+04    0.88225E-04   -0.54341E-04 10640   0.164E-02-0.177E-03
CGA:  15    -0.128296805042E+04   -0.92310E-04   -0.13670E-03 10640   0.684E-04 0.190E-03
CGA:  16    -0.128296805329E+04   -0.28725E-05   -0.87802E-05 10640   0.348E-04 0.301E-04
CGA:  17    -0.128296806959E+04   -0.16297E-04   -0.17793E-04 10640   0.278E-04-0.281E-04
CGA:  18    -0.128296785776E+04    0.21182E-03   -0.11413E-03 10640   0.158E-02-0.161E-03
CGA:  19    -0.128296799166E+04   -0.13390E-03   -0.20007E-03 10640   0.235E-03 0.159E-03
CGA:  20    -0.128296808306E+04   -0.91400E-04   -0.76606E-04 10640   0.721E-04-0.618E-04
CGA:  21    -0.128296808680E+04   -0.37367E-05   -0.63751E-05 10640   0.169E-04 0.675E-05
  19 F= -.12829681E+04 E0= -.12829681E+04  d E =-.293495E-02  mag=    47.0000
       N       E                     dE             d eps       ncg     rms          ort
SDA:   1    -0.128269764454E+04    0.27044E+00    0.00000E+00 10640   0.871E+00 0.000E+00
CGA:   2    -0.128288471710E+04   -0.18707E+00   -0.18652E+00 10640   0.356E+00-0.180E-02
CGA:   3    -0.128296880561E+04   -0.84089E-01   -0.84389E-01 10640   0.830E-01 0.138E-02
CGA:   4    -0.128298228688E+04   -0.13481E-01   -0.13427E-01 10640   0.150E-01-0.191E-03
CGA:   5    -0.128298486414E+04   -0.25773E-02   -0.27680E-02 10640   0.362E-02 0.757E-03
CGA:   6    -0.128298570098E+04   -0.83683E-03   -0.78640E-03 10640   0.151E-02-0.222E-03
CGA:   7    -0.128298593059E+04   -0.22962E-03   -0.24801E-03 10640   0.357E-03 0.774E-04
CGA:   8    -0.128298605353E+04   -0.12294E-03   -0.11454E-03 10640   0.229E-03-0.822E-04
CGA:   9    -0.128298611643E+04   -0.62891E-04   -0.56288E-04 10640   0.202E-03-0.794E-04
CGA:  10    -0.128298612034E+04   -0.39118E-05   -0.15219E-04 10640   0.846E-04 0.402E-04
CGA:  11    -0.128298611966E+04    0.67984E-06   -0.10100E-04 10640   0.440E-04 0.380E-04
  20 F= -.12829861E+04 E0= -.12829861E+04  d E =-.180329E-01  mag=    47.0000
       N       E                     dE             d eps       ncg     rms          ort
SDA:   1    -0.128285669570E+04    0.12942E+00    0.00000E+00 10640   0.450E+00 0.000E+00
CGA:   2    -0.128294276170E+04   -0.86066E-01   -0.85954E-01 10640   0.159E+00-0.590E-03
CGA:   3    -0.128298355017E+04   -0.40788E-01   -0.40771E-01 10640   0.474E-01-0.252E-03
CGA:   4    -0.128299061375E+04   -0.70636E-02   -0.70243E-02 10640   0.797E-02-0.189E-03
CGA:   5    -0.128299189661E+04   -0.12829E-02   -0.13522E-02 10640   0.203E-02 0.430E-03
CGA:   6    -0.128299234571E+04   -0.44910E-03   -0.44794E-03 10640   0.680E-03-0.836E-05
CGA:   7    -0.128299247364E+04   -0.12794E-03   -0.13388E-03 10640   0.156E-03 0.486E-04
CGA:   8    -0.128299219287E+04    0.28077E-03   -0.18497E-03 10640   0.340E-02-0.589E-03
CGA:   9    -0.128299248318E+04   -0.29031E-03   -0.36766E-03 10640   0.497E-03 0.324E-03
CGA:  10    -0.128299256823E+04   -0.85049E-04   -0.96124E-04 10640   0.834E-04 0.671E-04
CGA:  11    -0.128299260120E+04   -0.32972E-04   -0.33708E-04 10640   0.105E-03-0.331E-04
CGA:  12    -0.128299260105E+04    0.14741E-06   -0.48096E-05 10640   0.560E-04 0.192E-04
  21 F= -.12829926E+04 E0= -.12829926E+04  d E =-.648139E-02  mag=    47.0000
       N       E                     dE             d eps       ncg     rms          ort
SDA:   1    -0.128284697291E+04    0.14563E+00    0.00000E+00 10640   0.446E+00 0.000E+00
CGA:   2    -0.128294849294E+04   -0.10152E+00   -0.10151E+00 10640   0.189E+00 0.131E-04
CGA:   3    -0.128299287758E+04   -0.44385E-01   -0.44353E-01 10640   0.400E-01-0.475E-03
CGA:   4    -0.128299963113E+04   -0.67536E-02   -0.66842E-02 10640   0.757E-02-0.511E-03
CGA:   5    -0.128300089519E+04   -0.12641E-02   -0.13360E-02 10640   0.160E-02 0.623E-03
CGA:   6    -0.128300129727E+04   -0.40208E-03   -0.39900E-03 10640   0.672E-03-0.511E-04
CGA:   7    -0.128300140062E+04   -0.10335E-03   -0.11038E-03 10640   0.178E-03 0.610E-04
CGA:   8    -0.128300145651E+04   -0.55888E-04   -0.56084E-04 10640   0.111E-03-0.252E-04
CGA:   9    -0.128300151150E+04   -0.54991E-04    0.46398E-03 10640   0.766E-04-0.130E-04
CGA:  10    -0.128300150996E+04    0.15379E-05   -0.61122E-05 10640   0.396E-04 0.401E-04
  22 F= -.12830015E+04 E0= -.12830015E+04  d E =-.890891E-02  mag=    47.0000
       N       E                     dE             d eps       ncg     rms          ort
SDA:   1    -0.128284777874E+04    0.15373E+00    0.00000E+00 10640   0.483E+00 0.000E+00
CGA:   2    -0.128294678022E+04   -0.99001E-01   -0.98871E-01 10640   0.190E+00-0.218E-02
CGA:   3    -0.128299182924E+04   -0.45049E-01   -0.45112E-01 10640   0.494E-01 0.299E-02
CGA:   4    -0.128299952043E+04   -0.76912E-02   -0.77227E-02 10640   0.851E-02 0.326E-03
CGA:   5    -0.128300099596E+04   -0.14755E-02   -0.15193E-02 10640   0.217E-02 0.585E-03
CGA:   6    -0.128300151098E+04   -0.51503E-03   -0.50839E-03 10640   0.932E-03-0.218E-03
CGA:   7    -0.128300164919E+04   -0.13821E-03   -0.14301E-03 10640   0.220E-03 0.632E-04
CGA:   8    -0.128300172010E+04   -0.70903E-04   -0.78544E-04 10640   0.178E-03-0.838E-04
CGA:   9    -0.128300174734E+04   -0.27238E-04   -0.27211E-04 10640   0.998E-04-0.149E-04
CGA:  10    -0.128300175144E+04   -0.41076E-05   -0.10488E-04 10640   0.508E-04 0.476E-04
  23 F= -.12830018E+04 E0= -.12830018E+04  d E =-.241481E-03  mag=    47.0000
       N       E                     dE             d eps       ncg     rms          ort
SDA:   1    -0.128288424583E+04    0.11750E+00    0.00000E+00 10640   0.359E+00 0.000E+00
CGA:   2    -0.128295673355E+04   -0.72488E-01   -0.72562E-01 10640   0.141E+00 0.249E-02
CGA:   3    -0.128299182011E+04   -0.35087E-01   -0.35123E-01 10640   0.409E-01-0.256E-02
CGA:   4    -0.128299749096E+04   -0.56709E-02   -0.57458E-02 10640   0.647E-02 0.874E-03
CGA:   5    -0.128299898570E+04   -0.14947E-02   -0.14913E-02 10640   0.258E-02-0.112E-02
CGA:   6    -0.128299929760E+04   -0.31191E-03   -0.32381E-03 10640   0.648E-03 0.158E-03
CGA:   7    -0.128299941865E+04   -0.12104E-03   -0.12514E-03 10640   0.164E-03 0.958E-04
CGA:   8    -0.128299946542E+04   -0.46776E-04   -0.48604E-04 10640   0.148E-03-0.517E-04
CGA:   9    -0.128299946296E+04    0.24607E-05   -0.65191E-05 10640   0.904E-04 0.562E-04
  24 F= -.12829995E+04 E0= -.12829995E+04  d E =0.228848E-02  mag=    47.0000
       N       E                     dE             d eps       ncg     rms          ort
SDA:   1    -0.128268421413E+04    0.31525E+00    0.00000E+00 10640   0.858E+00 0.000E+00
CGA:   2    -0.128288058610E+04   -0.19637E+00   -0.19631E+00 10640   0.376E+00 0.325E-02
CGA:   3    -0.128296840212E+04   -0.87816E-01   -0.87913E-01 10640   0.822E-01-0.419E-02
CGA:   4    -0.128298089576E+04   -0.12494E-01   -0.12539E-01 10640   0.154E-01 0.861E-03
CGA:   5    -0.128298422852E+04   -0.33328E-02   -0.33471E-02 10640   0.524E-02-0.177E-02
CGA:   6    -0.128298491570E+04   -0.68719E-03   -0.70980E-03 10640   0.135E-02 0.420E-03
CGA:   7    -0.128298523573E+04   -0.32002E-03   -0.31966E-03 10640   0.372E-03 0.256E-04
CGA:   8    -0.128298534323E+04   -0.10751E-03   -0.13079E-03 10640   0.476E-03-0.167E-03
CGA:   9    -0.128298534992E+04   -0.66870E-05   -0.20640E-04 10640   0.287E-03 0.104E-03
CGA:  10    -0.128298536089E+04   -0.10966E-04   -0.25857E-04 10640   0.122E-03 0.113E-03
CGA:  11    -0.128298539723E+04   -0.36340E-04   -0.37915E-04 10640   0.188E-03-0.661E-04
CGA:  12    -0.128298548078E+04   -0.83551E-04    0.18027E-03 10640   0.164E-03-0.119E-03
CGA:  13    -0.128298547454E+04    0.62403E-05   -0.76813E-05 10640   0.533E-04 0.908E-04
  25 F= -.12829855E+04 E0= -.12829855E+04  d E =0.139884E-01  mag=    47.0000
       N       E                     dE             d eps       ncg     rms          ort
SDA:   1    -0.127058986991E+04    0.12396E+02    0.00000E+00 10640   0.396E+02 0.000E+00
CGA:   2    -0.127825018056E+04   -0.76603E+01   -0.76597E+01 10640   0.143E+02 0.385E-01
CGA:   3    -0.128190352023E+04   -0.36533E+01   -0.36500E+01 10640   0.380E+01 0.426E-01
CGA:   4    -0.128250723531E+04   -0.60372E+00   -0.60401E+00 10640   0.580E+00 0.461E-02
CGA:   5    -0.128262800332E+04   -0.12077E+00   -0.12066E+00 10640   0.143E+00 0.562E-02
CGA:   6    -0.128265919018E+04   -0.31187E-01   -0.31211E-01 10640   0.493E-01-0.721E-03
CGA:   7    -0.128266862294E+04   -0.94328E-02   -0.94361E-02 10640   0.150E-01-0.144E-02
CGA:   8    -0.128267196017E+04   -0.33372E-02   -0.33772E-02 10640   0.698E-02-0.919E-03
CGA:   9    -0.128267363465E+04   -0.16745E-02   -0.17352E-02 10640   0.444E-02-0.825E-03
CGA:  10    -0.128267442955E+04   -0.79491E-03   -0.79335E-03 10640   0.162E-02 0.238E-03
CGA:  11    -0.128267503740E+04   -0.60784E-03   -0.71926E-03 10640   0.152E-02-0.495E-03
CGA:  12    -0.128267526700E+04   -0.22960E-03   -0.22941E-03 10640   0.978E-03 0.177E-04
CGA:  13    -0.128267475182E+04    0.51517E-03   -0.92153E-03 10640   0.726E-02-0.200E-02
CGA:  14    -0.128267591805E+04   -0.11662E-02   -0.12238E-02 10640   0.160E-02 0.771E-03
CGA:  15    -0.128267627471E+04   -0.35666E-03   -0.34886E-03 10640   0.590E-03-0.178E-03
CGA:  16    -0.128267636050E+04   -0.85797E-04   -0.96902E-04 10640   0.234E-03 0.208E-03
CGA:  17    -0.128267644348E+04   -0.82971E-04   -0.80843E-04 10640   0.168E-03 0.104E-03
CGA:  18    -0.128267605903E+04    0.38445E-03   -0.28124E-03 10640   0.532E-02-0.729E-03
CGA:  19    -0.128267647429E+04   -0.41526E-03   -0.51979E-03 10640   0.527E-03 0.596E-03
CGA:  20    -0.128267659695E+04   -0.12266E-03   -0.13004E-03 10640   0.261E-03 0.143E-03
CGA:  21    -0.128267668004E+04   -0.83095E-04   -0.12759E-03 10640   0.103E-02-0.390E-03
CGA:  22    -0.128267673735E+04   -0.57311E-04   -0.93905E-04 10640   0.125E-03 0.201E-03
CGA:  23    -0.128267676556E+04   -0.28202E-04   -0.29697E-04 10640   0.104E-03 0.220E-04
CGA:  24    -0.128267684244E+04   -0.76879E-04    0.83576E-04 10640   0.953E-04-0.589E-04
CGA:  25    -0.128267684574E+04   -0.33095E-05   -0.10957E-04 10640   0.426E-04 0.515E-04
CGA:  26    -0.128267681301E+04    0.32734E-04   -0.25048E-04 10640   0.567E-03-0.820E-04
CGA:  27    -0.128267687858E+04   -0.65565E-04   -0.86164E-04 10640   0.185E-03 0.669E-04
CGA:  28    -0.128267697150E+04   -0.92928E-04   -0.90585E-04 10640   0.191E-03-0.174E-03
CGA:  29    -0.128267697843E+04   -0.69267E-05   -0.24142E-04 10640   0.595E-04 0.535E-04
CGA:  30    -0.128267698857E+04   -0.10139E-04   -0.15596E-04 10640   0.201E-04 0.236E-04
CGA:  31    -0.128267692536E+04    0.63211E-04   -0.34321E-04 10640   0.115E-02-0.122E-03
CGA:  32    -0.128267700533E+04   -0.79967E-04   -0.11394E-03 10640   0.920E-04 0.992E-04
CGA:  33    -0.128267704886E+04   -0.43532E-04   -0.43116E-04 10640   0.888E-04-0.300E-04
CGA:  34    -0.128267708144E+04   -0.32584E-04   -0.23851E-04 10640   0.475E-03-0.191E-03
CGA:  35    -0.128267708920E+04   -0.77621E-05   -0.43435E-04 10640   0.630E-04 0.104E-03
  26 F= -.12826771E+04 E0= -.12826771E+04  d E =0.308385E+00  mag=    47.0000
       N       E                     dE             d eps       ncg     rms          ort
SDA:   1    -0.126871214939E+04    0.13965E+02    0.00000E+00 10640   0.467E+02 0.000E+00
CGA:   2    -0.127763327232E+04   -0.89211E+01   -0.88986E+01 10640   0.172E+02 0.212E+00
CGA:   3    -0.128190315593E+04   -0.42699E+01   -0.42896E+01 10640   0.518E+01-0.153E-01
CGA:   4    -0.128268728237E+04   -0.78413E+00   -0.76851E+00 10640   0.742E+00 0.106E+00
CGA:   5    -0.128284449558E+04   -0.15721E+00   -0.15676E+00 10640   0.204E+00-0.743E-02
CGA:   6    -0.128288428029E+04   -0.39785E-01   -0.40034E-01 10640   0.605E-01 0.321E-02
CGA:   7    -0.128289780555E+04   -0.13525E-01   -0.13276E-01 10640   0.177E-01-0.179E-02
CGA:   8    -0.128290127096E+04   -0.34654E-02   -0.36055E-02 10640   0.685E-02 0.103E-02
CGA:   9    -0.128290350142E+04   -0.22305E-02   -0.21974E-02 10640   0.432E-02-0.746E-03
CGA:  10    -0.128290451346E+04   -0.10120E-02   -0.98324E-03 10640   0.238E-02-0.313E-03
CGA:  11    -0.128290531037E+04   -0.79691E-03   -0.86375E-03 10640   0.312E-02-0.131E-02
CGA:  12    -0.128290562103E+04   -0.31066E-03   -0.37016E-03 10640   0.728E-03 0.273E-03
CGA:  13    -0.128290585046E+04   -0.22943E-03   -0.23167E-03 10640   0.363E-03 0.568E-04
CGA:  14    -0.128290605767E+04   -0.20721E-03   -0.24179E-03 10640   0.103E-02-0.122E-03
CGA:  15    -0.128290618068E+04   -0.12301E-03   -0.10938E-03 10640   0.620E-03-0.793E-04
CGA:  16    -0.128290631987E+04   -0.13919E-03   -0.12306E-03 10640   0.839E-03-0.139E-03
CGA:  17    -0.128290650867E+04   -0.18880E-03   -0.16838E-03 10640   0.959E-03-0.303E-03
CGA:  18    -0.128290659794E+04   -0.89268E-04   -0.77911E-04 10640   0.706E-03-0.661E-04
CGA:  19    -0.128290668332E+04   -0.85386E-04   -0.93898E-04 10640   0.586E-03 0.423E-04
CGA:  20    -0.128290678790E+04   -0.10458E-03   -0.10691E-03 10640   0.460E-03 0.999E-05
CGA:  21    -0.128290686565E+04   -0.77757E-04   -0.72015E-04 10640   0.274E-03-0.435E-04
CGA:  22    -0.128290688941E+04   -0.23761E-04   -0.32617E-04 10640   0.211E-03 0.528E-04
CGA:  23    -0.128290689879E+04   -0.93725E-05   -0.27078E-04 10640   0.116E-03 0.988E-04
CGA:  24    -0.128290690397E+04   -0.51800E-05   -0.16640E-04 10640   0.556E-04 0.640E-04
CGA:  25    -0.128290672307E+04    0.18090E-03   -0.98855E-04 10640   0.221E-02-0.190E-03
CGA:  26    -0.128290685116E+04   -0.12809E-03   -0.22237E-03 10640   0.158E-03 0.258E-03
CGA:  27    -0.128290686789E+04   -0.16729E-04   -0.29246E-04 10640   0.635E-04 0.416E-04
CGA:  28    -0.128290690339E+04   -0.35508E-04   -0.39078E-04 10640   0.210E-03-0.105E-03
CGA:  29    -0.128290689863E+04    0.47643E-05   -0.19616E-04 10640   0.401E-04 0.680E-04
  27 F= -.12829069E+04 E0= -.12829069E+04  d E =-.229809E+00  mag=    47.0000
       N       E                     dE             d eps       ncg     rms          ort
SDA:   1    -0.128242218835E+04    0.48472E+00    0.00000E+00 10640   0.172E+01 0.000E+00
CGA:   2    -0.128275369801E+04   -0.33151E+00   -0.33084E+00 10640   0.611E+00-0.203E-02
CGA:   3    -0.128290924820E+04   -0.15555E+00   -0.15606E+00 10640   0.166E+00 0.283E-02
CGA:   4    -0.128293551321E+04   -0.26265E-01   -0.26434E-01 10640   0.241E-01 0.763E-03
CGA:   5    -0.128294049577E+04   -0.49826E-02   -0.50901E-02 10640   0.557E-02 0.605E-03
CGA:   6    -0.128294195594E+04   -0.14602E-02   -0.14201E-02 10640   0.196E-02-0.304E-03
CGA:   7    -0.128294223545E+04   -0.27951E-03   -0.31318E-03 10640   0.526E-03 0.168E-03
CGA:   8    -0.128294244551E+04   -0.21006E-03   -0.21361E-03 10640   0.689E-03-0.324E-03
CGA:   9    -0.128294248104E+04   -0.35529E-04   -0.77444E-04 10640   0.117E-03 0.168E-03
CGA:  10    -0.128294249937E+04   -0.18330E-04   -0.24551E-04 10640   0.500E-04 0.341E-04
CGA:  11    -0.128294251865E+04   -0.19283E-04   -0.19502E-04 10640   0.634E-04 0.543E-05
CGA:  12    -0.128294251740E+04    0.12509E-05   -0.77449E-05 10640   0.410E-04 0.391E-04
  28 F= -.12829425E+04 E0= -.12829425E+04  d E =-.356188E-01  mag=    47.0000
       N       E                     dE             d eps       ncg     rms          ort
SDA:   1    -0.128262224132E+04    0.32028E+00    0.00000E+00 10640   0.106E+01 0.000E+00
CGA:   2    -0.128283081423E+04   -0.20857E+00   -0.20834E+00 10640   0.385E+00-0.162E-02
CGA:   3    -0.128292802500E+04   -0.97211E-01   -0.97382E-01 10640   0.102E+00 0.243E-02
CGA:   4    -0.128294397981E+04   -0.15955E-01   -0.16179E-01 10640   0.151E-01 0.146E-02
CGA:   5    -0.128294718354E+04   -0.32037E-02   -0.32240E-02 10640   0.369E-02 0.216E-03
CGA:   6    -0.128294801578E+04   -0.83224E-03   -0.83494E-03 10640   0.132E-02 0.370E-04
CGA:   7    -0.128294829416E+04   -0.27838E-03   -0.26641E-03 10640   0.532E-03-0.121E-03
CGA:   8    -0.128294839632E+04   -0.10216E-03   -0.10147E-03 10640   0.205E-03-0.779E-05
CGA:   9    -0.128294842926E+04   -0.32939E-04   -0.39689E-04 10640   0.749E-04 0.736E-04
CGA:  10    -0.128294844358E+04   -0.14321E-04   -0.19192E-04 10640   0.439E-04 0.514E-04
CGA:  11    -0.128294844446E+04   -0.88346E-06   -0.55218E-05 10640   0.292E-04 0.303E-04
  29 F= -.12829484E+04 E0= -.12829484E+04  d E =-.592706E-02  mag=    47.0000
       N       E                     dE             d eps       ncg     rms          ort
SDA:   1    -0.128279565913E+04    0.15278E+00    0.00000E+00 10640   0.464E+00 0.000E+00
CGA:   2    -0.128289500565E+04   -0.99347E-01   -0.99297E-01 10640   0.186E+00-0.837E-03
CGA:   3    -0.128293962979E+04   -0.44624E-01   -0.44660E-01 10640   0.416E-01 0.141E-02
CGA:   4    -0.128294623661E+04   -0.66068E-02   -0.67252E-02 10640   0.687E-02 0.115E-02
CGA:   5    -0.128294777150E+04   -0.15349E-02   -0.15296E-02 10640   0.168E-02-0.125E-03
CGA:   6    -0.128294807583E+04   -0.30433E-03   -0.32017E-03 10640   0.472E-03 0.255E-03
CGA:   7    -0.128294823738E+04   -0.16155E-03   -0.19451E-03 10640   0.647E-03-0.315E-03
CGA:   8    -0.128294825835E+04   -0.20967E-04   -0.56300E-04 10640   0.126E-03 0.207E-03
CGA:   9    -0.128294826177E+04   -0.34249E-05   -0.15799E-04 10640   0.662E-04 0.797E-04
CGA:  10    -0.128294829415E+04   -0.32381E-04    0.10002E-02 10640   0.659E-04 0.117E-04
CGA:  11    -0.128294829222E+04    0.19359E-05   -0.69767E-05 10640   0.367E-04 0.584E-04
  30 F= -.12829483E+04 E0= -.12829483E+04  d E =0.152244E-03  mag=    47.0000
       N       E                     dE             d eps       ncg     rms          ort
SDA:   1    -0.128275352081E+04    0.19477E+00    0.00000E+00 10640   0.566E+00 0.000E+00
CGA:   2    -0.128288484489E+04   -0.13132E+00   -0.13133E+00 10640   0.250E+00-0.114E-02
CGA:   3    -0.128293938594E+04   -0.54541E-01   -0.54555E-01 10640   0.589E-01 0.202E-02
CGA:   4    -0.128294855410E+04   -0.91682E-02   -0.91672E-02 10640   0.123E-01 0.322E-04
CGA:   5    -0.128295064715E+04   -0.20931E-02   -0.21182E-02 10640   0.272E-02 0.518E-03
CGA:   6    -0.128295119755E+04   -0.55039E-03   -0.55421E-03 10640   0.783E-03 0.163E-03
CGA:   7    -0.128295136150E+04   -0.16396E-03   -0.16658E-03 10640   0.199E-03 0.151E-03
CGA:   8    -0.128295143272E+04   -0.71217E-04   -0.70830E-04 10640   0.128E-03 0.493E-05
CGA:   9    -0.128295144057E+04   -0.78547E-05   -0.15702E-04 10640   0.669E-04 0.768E-04
  31 F= -.12829514E+04 E0= -.12829514E+04  d E =-.314836E-02  mag=    47.0000
       N       E                     dE             d eps       ncg     rms          ort
SDA:   1    -0.127013922271E+04    0.12812E+02    0.00000E+00 10640   0.404E+02 0.000E+00
CGA:   2    -0.127798535694E+04   -0.78461E+01   -0.78386E+01 10640   0.165E+02-0.856E-01
CGA:   3    -0.128170724924E+04   -0.37219E+01   -0.37184E+01 10640   0.525E+01 0.108E+00
CGA:   4    -0.128249863356E+04   -0.79138E+00   -0.78670E+00 10640   0.793E+00 0.249E-01
CGA:   5    -0.128265120657E+04   -0.15257E+00   -0.15249E+00 10640   0.224E+00-0.564E-02
CGA:   6    -0.128269144668E+04   -0.40240E-01   -0.40384E-01 10640   0.635E-01 0.606E-02
CGA:   7    -0.128270550314E+04   -0.14056E-01   -0.14060E-01 10640   0.198E-01-0.331E-03
CGA:   8    -0.128270947947E+04   -0.39763E-02   -0.39811E-02 10640   0.779E-02 0.917E-03
CGA:   9    -0.128271155266E+04   -0.20732E-02   -0.20529E-02 10640   0.372E-02 0.466E-03
CGA:  10    -0.128271252657E+04   -0.97391E-03   -0.95376E-03 10640   0.183E-02 0.619E-03
CGA:  11    -0.128271309965E+04   -0.57308E-03   -0.55506E-03 10640   0.984E-03 0.366E-03
CGA:  12    -0.128271337378E+04   -0.27412E-03   -0.26854E-03 10640   0.512E-03 0.399E-03
CGA:  13    -0.128271356787E+04   -0.19410E-03   -0.18046E-03 10640   0.308E-03 0.371E-03
CGA:  14    -0.128271362944E+04   -0.61565E-04   -0.63560E-04 10640   0.205E-03 0.210E-03
CGA:  15    -0.128271376473E+04   -0.13529E-03   -0.10129E-03 10640   0.293E-03 0.121E-03
CGA:  16    -0.128271376177E+04    0.29636E-05   -0.22874E-04 10640   0.147E-03 0.171E-03
CGA:  17    -0.128271378745E+04   -0.25677E-04   -0.28914E-04 10640   0.134E-03 0.129E-03
CGA:  18    -0.128271389689E+04   -0.10944E-03   -0.76110E-04 10640   0.207E-03 0.952E-04
CGA:  19    -0.128271389242E+04    0.44696E-05   -0.15932E-04 10640   0.109E-03 0.127E-03
CGA:  20    -0.128271391070E+04   -0.18280E-04   -0.21496E-04 10640   0.102E-03 0.963E-04
CGA:  21    -0.128271404410E+04   -0.13341E-03   -0.95739E-04 10640   0.350E-03 0.514E-04
CGA:  22    -0.128271403966E+04    0.44471E-05   -0.24784E-04 10640   0.963E-04 0.152E-03
  32 F= -.12827140E+04 E0= -.12827140E+04  d E =0.237401E+00  mag=    47.0000
       N       E                     dE             d eps       ncg     rms          ort
SDA:   1    -0.127215999829E+04    0.10554E+02    0.00000E+00 10640   0.359E+02 0.000E+00
CGA:   2    -0.127899189949E+04   -0.68319E+01   -0.68318E+01 10640   0.129E+02 0.152E-01
CGA:   3    -0.128220589775E+04   -0.32140E+01   -0.32137E+01 10640   0.388E+01 0.233E-01
CGA:   4    -0.128279829661E+04   -0.59240E+00   -0.59325E+00 10640   0.571E+00 0.259E-01
CGA:   5    -0.128291342302E+04   -0.11513E+00   -0.11519E+00 10640   0.163E+00 0.162E-02
CGA:   6    -0.128294439927E+04   -0.30976E-01   -0.31006E-01 10640   0.538E-01 0.872E-03
CGA:   7    -0.128295502135E+04   -0.10622E-01   -0.10619E-01 10640   0.146E-01 0.171E-04
CGA:   8    -0.128295859591E+04   -0.35746E-02   -0.35974E-02 10640   0.752E-02-0.150E-02
CGA:   9    -0.128295986701E+04   -0.12711E-02   -0.12953E-02 10640   0.268E-02 0.615E-03
CGA:  10    -0.128296065068E+04   -0.78368E-03   -0.77502E-03 10640   0.101E-02 0.235E-03
CGA:  11    -0.128296088260E+04   -0.23192E-03   -0.23765E-03 10640   0.391E-03 0.373E-03
CGA:  12    -0.128296104456E+04   -0.16196E-03   -0.15762E-03 10640   0.276E-03 0.695E-04
CGA:  13    -0.128296114627E+04   -0.10171E-03   -0.98797E-04 10640   0.218E-03 0.413E-04
CGA:  14    -0.128296119836E+04   -0.52091E-04   -0.54091E-04 10640   0.133E-03 0.879E-04
CGA:  15    -0.128296124228E+04   -0.43918E-04   -0.44043E-04 10640   0.101E-03 0.979E-04
CGA:  16    -0.128296126867E+04   -0.26386E-04   -0.25884E-04 10640   0.864E-04 0.271E-04
CGA:  17    -0.128296130619E+04   -0.37521E-04   -0.35419E-04 10640   0.686E-04 0.243E-04
CGA:  18    -0.128296133483E+04   -0.28636E-04   -0.26145E-04 10640   0.385E-04 0.441E-04
CGA:  19    -0.128296136171E+04   -0.26887E-04    0.11035E-04 10640   0.309E-04 0.174E-04
CGA:  20    -0.128296137812E+04   -0.16407E-04   -0.14772E-04 10640   0.267E-04 0.190E-04
CGA:  21    -0.128296139438E+04   -0.16258E-04    0.15061E-04 10640   0.301E-04 0.621E-05
CGA:  22    -0.128296140358E+04   -0.92026E-05   -0.92188E-05 10640   0.175E-04 0.226E-04
  33 F= -.12829614E+04 E0= -.12829614E+04  d E =-.247364E+00  mag=    47.0000
       N       E                     dE             d eps       ncg     rms          ort
SDA:   1    -0.128278876521E+04    0.17263E+00    0.00000E+00 10640   0.637E+00 0.000E+00
CGA:   2    -0.128290923687E+04   -0.12047E+00   -0.12061E+00 10640   0.229E+00 0.262E-02
CGA:   3    -0.128296740875E+04   -0.58172E-01   -0.58185E-01 10640   0.703E-01-0.187E-02
CGA:   4    -0.128297775467E+04   -0.10346E-01   -0.10430E-01 10640   0.991E-02 0.927E-03
CGA:   5    -0.128297999613E+04   -0.22415E-02   -0.22193E-02 10640   0.373E-02-0.107E-02
CGA:   6    -0.128298043347E+04   -0.43735E-03   -0.47923E-03 10640   0.907E-03 0.440E-03
CGA:   7    -0.128298061482E+04   -0.18135E-03   -0.18832E-03 10640   0.240E-03 0.140E-03
CGA:   8    -0.128298068964E+04   -0.74819E-04   -0.81911E-04 10640   0.311E-03-0.114E-03
CGA:   9    -0.128298068420E+04    0.54357E-05   -0.90307E-05 10640   0.220E-03 0.801E-04
CGA:  10    -0.128298067610E+04    0.81008E-05   -0.13745E-04 10640   0.910E-04 0.123E-03
CGA:  11    -0.128298068781E+04   -0.11711E-04   -0.14100E-04 10640   0.276E-04 0.377E-04
CGA:  12    -0.128298070864E+04   -0.20826E-04    0.17551E-04 10640   0.129E-04 0.106E-04
CGA:  13    -0.128298071340E+04   -0.47589E-05   -0.44631E-05 10640   0.110E-04 0.858E-05
  34 F= -.12829807E+04 E0= -.12829807E+04  d E =-.193098E-01  mag=    47.0000
       N       E                     dE             d eps       ncg     rms          ort
SDA:   1    -0.128212797381E+04    0.85273E+00    0.00000E+00 10640   0.278E+01 0.000E+00
CGA:   2    -0.128267942893E+04   -0.55146E+00   -0.55147E+00 10640   0.104E+01 0.253E-02
CGA:   3    -0.128293985319E+04   -0.26042E+00   -0.26033E+00 10640   0.270E+00 0.181E-02
CGA:   4    -0.128298254617E+04   -0.42693E-01   -0.42776E-01 10640   0.410E-01 0.166E-02
CGA:   5    -0.128299164406E+04   -0.90979E-02   -0.91161E-02 10640   0.104E-01-0.132E-02
CGA:   6    -0.128299361729E+04   -0.19732E-02   -0.19839E-02 10640   0.281E-02 0.944E-03
CGA:   7    -0.128299437197E+04   -0.75468E-03   -0.77874E-03 10640   0.131E-02-0.512E-03
CGA:   8    -0.128299446173E+04   -0.89762E-04   -0.12882E-03 10640   0.487E-03 0.437E-03
CGA:   9    -0.128299451422E+04   -0.52487E-04   -0.76061E-04 10640   0.256E-03 0.267E-03
CGA:  10    -0.128299462695E+04   -0.11273E-03    0.27132E-03 10640   0.168E-03 0.571E-04
CGA:  11    -0.128299464031E+04   -0.13366E-04   -0.24664E-04 10640   0.845E-04 0.139E-03
CGA:  12    -0.128299463636E+04    0.39536E-05   -0.53988E-05 10640   0.638E-04 0.702E-04
  35 F= -.12829946E+04 E0= -.12829946E+04  d E =-.139230E-01  mag=    47.0000
       N       E                     dE             d eps       ncg     rms          ort
SDA:   1    -0.128290084576E+04    0.93795E-01    0.00000E+00 10640   0.290E+00 0.000E+00
CGA:   2    -0.128297101778E+04   -0.70172E-01   -0.70028E-01 10640   0.132E+00 0.270E-02
CGA:   3    -0.128299958271E+04   -0.28565E-01   -0.28636E-01 10640   0.315E-01-0.264E-02
CGA:   4    -0.128300440301E+04   -0.48203E-02   -0.48056E-02 10640   0.644E-02-0.400E-03
CGA:   5    -0.128300564286E+04   -0.12399E-02   -0.12427E-02 10640   0.186E-02-0.394E-03
CGA:   6    -0.128300600416E+04   -0.36130E-03   -0.37122E-03 10640   0.915E-03-0.413E-03
CGA:   7    -0.128300607121E+04   -0.67046E-04   -0.84071E-04 10640   0.245E-03 0.238E-03
CGA:   8    -0.128300608934E+04   -0.18136E-04   -0.29475E-04 10640   0.116E-03 0.125E-03
CGA:   9    -0.128300606253E+04    0.26809E-04   -0.87709E-04 10640   0.127E-02-0.199E-03
CGA:  10    -0.128300613460E+04   -0.72066E-04   -0.10034E-03 10640   0.960E-04 0.218E-03
CGA:  11    -0.128300614378E+04   -0.91837E-05   -0.12633E-04 10640   0.508E-04 0.377E-04
CGA:  12    -0.128300584963E+04    0.29416E-03   -0.15843E-03 10640   0.179E-02-0.362E-03
CGA:  13    -0.128300614511E+04   -0.29548E-03   -0.32592E-03 10640   0.477E-03 0.170E-03
CGA:  14    -0.128300622445E+04   -0.79338E-04   -0.77219E-04 10640   0.568E-04-0.948E-05
CGA:  15    -0.128300622403E+04    0.41192E-06   -0.61950E-05 10640   0.180E-04 0.284E-04
  36 F= -.12830062E+04 E0= -.12830062E+04  d E =-.115877E-01  mag=    47.0000
       N       E                     dE             d eps       ncg     rms          ort
SDA:   1    -0.126631482136E+04    0.16691E+02    0.00000E+00 10640   0.515E+02 0.000E+00
CGA:   2    -0.127681026460E+04   -0.10495E+02   -0.10501E+02 10640   0.201E+02 0.214E-01
CGA:   3    -0.128169520925E+04   -0.48849E+01   -0.48864E+01 10640   0.502E+01 0.111E-01
CGA:   4    -0.128250081783E+04   -0.80561E+00   -0.80680E+00 10640   0.803E+00-0.649E-03
CGA:   5    -0.128266811895E+04   -0.16730E+00   -0.16756E+00 10640   0.205E+00 0.240E-02
CGA:   6    -0.128270932348E+04   -0.41205E-01   -0.40950E-01 10640   0.787E-01-0.240E-02
CGA:   7    -0.128272383874E+04   -0.14515E-01   -0.14355E-01 10640   0.220E-01-0.136E-02
CGA:   8    -0.128272947791E+04   -0.56392E-02   -0.55788E-02 10640   0.107E-01-0.189E-02
[...]
CGA:   2    -0.128278641663E+04   -0.47480E+00   -0.47472E+00 10640   0.900E+00-0.200E-02
CGA:   3    -0.128300325669E+04   -0.21684E+00   -0.21688E+00 10640   0.218E+00 0.715E-02
CGA:   4    -0.128303669128E+04   -0.33435E-01   -0.33673E-01 10640   0.411E-01 0.263E-02
CGA:   5    -0.128304415662E+04   -0.74653E-02   -0.74487E-02 10640   0.122E-01-0.199E-03
CGA:   6    -0.128304626764E+04   -0.21110E-02   -0.21311E-02 10640   0.356E-02 0.336E-03
CGA:   7    -0.128304705988E+04   -0.79224E-03   -0.79523E-03 10640   0.872E-03 0.171E-03
CGA:   8    -0.128304724022E+04   -0.18033E-03   -0.18668E-03 10640   0.335E-03 0.211E-03
CGA:   9    -0.128304730361E+04   -0.63397E-04   -0.73929E-04 10640   0.153E-03 0.191E-03
CGA:  10    -0.128304732225E+04   -0.18637E-04   -0.25314E-04 10640   0.931E-04 0.103E-03
CGA:  11    -0.128304732676E+04   -0.45046E-05   -0.12200E-04 10640   0.762E-04 0.802E-04
  47 F= -.12830473E+04 E0= -.12830473E+04  d E =0.385250E-02  mag=    47.0000
       N       E                     dE             d eps       ncg     rms          ort
SDA:   1    -0.128147318475E+04    0.15741E+01    0.00000E+00 10640   0.417E+01 0.000E+00
CGA:   2    -0.128255466123E+04   -0.10815E+01   -0.10815E+01 10640   0.187E+01-0.122E-02
CGA:   3    -0.128295452239E+04   -0.39986E+00   -0.39987E+00 10640   0.354E+00 0.188E-02
CGA:   4    -0.128301502853E+04   -0.60506E-01   -0.60591E-01 10640   0.758E-01 0.202E-02
CGA:   5    -0.128302878910E+04   -0.13761E-01   -0.13760E-01 10640   0.204E-01 0.916E-04
CGA:   6    -0.128303214200E+04   -0.33529E-02   -0.34048E-02 10640   0.653E-02 0.113E-02
CGA:   7    -0.128303352970E+04   -0.13877E-02   -0.13930E-02 10640   0.162E-02 0.557E-03
CGA:   8    -0.128303397272E+04   -0.44302E-03   -0.43231E-03 10640   0.702E-03 0.305E-03
CGA:   9    -0.128303412297E+04   -0.15025E-03   -0.15861E-03 10640   0.312E-03 0.364E-03
CGA:  10    -0.128303421488E+04   -0.91904E-04   -0.84700E-04 10640   0.190E-03 0.121E-03
CGA:  11    -0.128303423358E+04   -0.18701E-04   -0.34654E-04 10640   0.122E-03 0.191E-03
CGA:  12    -0.128303423684E+04   -0.32606E-05   -0.13795E-04 10640   0.988E-04 0.107E-03
CGA:  13    -0.128303423956E+04   -0.27167E-05   -0.11261E-04 10640   0.882E-04 0.929E-04
  48 F= -.12830342E+04 E0= -.12830342E+04  d E =0.130872E-01  mag=    47.0000
       N       E                     dE             d eps       ncg     rms          ort
SDA:   1    -0.127264865373E+04    0.10386E+02    0.00000E+00 10640   0.296E+02 0.000E+00
CGA:   2    -0.127938669732E+04   -0.67380E+01   -0.67365E+01 10640   0.128E+02 0.468E-01
CGA:   3    -0.128235194168E+04   -0.29652E+01   -0.29637E+01 10640   0.258E+01 0.312E-01
CGA:   4    -0.128279191535E+04   -0.43997E+00   -0.44047E+00 10640   0.465E+00 0.173E-01
CGA:   5    -0.128288406512E+04   -0.92150E-01   -0.92156E-01 10640   0.123E+00 0.456E-02
CGA:   6    -0.128290740382E+04   -0.23339E-01   -0.23356E-01 10640   0.481E-01 0.193E-02
CGA:   7    -0.128291653652E+04   -0.91327E-02   -0.91257E-02 10640   0.148E-01-0.578E-03
CGA:   8    -0.128291979378E+04   -0.32573E-02   -0.32424E-02 10640   0.661E-02 0.614E-03
CGA:   9    -0.128292144929E+04   -0.16555E-02   -0.16290E-02 10640   0.334E-02 0.702E-03
CGA:  10    -0.128292222845E+04   -0.77916E-03   -0.76950E-03 10640   0.132E-02 0.120E-02
CGA:  11    -0.128292259622E+04   -0.36778E-03   -0.36499E-03 10640   0.674E-03 0.937E-03
CGA:  12    -0.128292273548E+04   -0.13926E-03   -0.13776E-03 10640   0.448E-03 0.426E-03
CGA:  13    -0.128292281957E+04   -0.84093E-04   -0.86714E-04 10640   0.381E-03 0.342E-03
CGA:  14    -0.128292287517E+04   -0.55603E-04   -0.64947E-04 10640   0.333E-03 0.309E-03
CGA:  15    -0.128292293091E+04   -0.55737E-04   -0.60624E-04 10640   0.302E-03 0.286E-03
CGA:  16    -0.128292297655E+04   -0.45639E-04   -0.52303E-04 10640   0.276E-03 0.266E-03
CGA:  17    -0.128292301836E+04   -0.41806E-04   -0.47806E-04 10640   0.256E-03 0.250E-03
CGA:  18    -0.128292306048E+04   -0.42122E-04   -0.45918E-04 10640   0.239E-03 0.234E-03
CGA:  19    -0.128292309390E+04   -0.33423E-04   -0.39723E-04 10640   0.223E-03 0.220E-03
CGA:  20    -0.128292313355E+04   -0.39645E-04   -0.41363E-04 10640   0.210E-03 0.207E-03
CGA:  21    -0.128292316185E+04   -0.28300E-04   -0.34237E-04 10640   0.198E-03 0.196E-03
CGA:  22    -0.128292319927E+04   -0.37422E-04   -0.37655E-04 10640   0.187E-03 0.185E-03
CGA:  23    -0.128292322419E+04   -0.24922E-04   -0.30209E-04 10640   0.177E-03 0.175E-03
CGA:  24    -0.128292325974E+04   -0.35547E-04   -0.34603E-04 10640   0.168E-03 0.165E-03
CGA:  25    -0.128292328213E+04   -0.22389E-04   -0.27017E-04 10640   0.159E-03 0.156E-03
CGA:  26    -0.128292331631E+04   -0.34189E-04   -0.32177E-04 10640   0.152E-03 0.148E-03
CGA:  27    -0.128292333641E+04   -0.20094E-04   -0.24269E-04 10640   0.144E-03 0.140E-03
CGA:  28    -0.128292336990E+04   -0.33489E-04   -0.30388E-04 10640   0.138E-03 0.132E-03
CGA:  29    -0.128292338758E+04   -0.17680E-04   -0.21733E-04 10640   0.131E-03 0.125E-03
CGA:  30    -0.128292342109E+04   -0.33517E-04   -0.29240E-04 10640   0.128E-03 0.118E-03
CGA:  31    -0.128292343607E+04   -0.14978E-04   -0.19295E-04 10640   0.119E-03 0.111E-03
CGA:  32    -0.128292347014E+04   -0.34065E-04   -0.28600E-04 10640   0.121E-03 0.104E-03
CGA:  33    -0.128292348238E+04   -0.12240E-04   -0.17045E-04 10640   0.109E-03 0.981E-04
CGA:  34    -0.128292351708E+04   -0.34702E-04   -0.28157E-04 10640   0.115E-03 0.913E-04
CGA:  35    -0.128292352711E+04   -0.10035E-04   -0.15189E-04 10640   0.986E-04 0.867E-04
CGA:  36    -0.128292356227E+04   -0.35155E-04   -0.27656E-04 10640   0.109E-03 0.810E-04
CGA:  37    -0.128292357079E+04   -0.85245E-05   -0.13722E-04 10640   0.890E-04 0.770E-04
CGA:  38    -0.128292360647E+04   -0.35680E-04   -0.27257E-04 10640   0.104E-03 0.719E-04
CGA:  39    -0.128292361381E+04   -0.73343E-05   -0.12476E-04 10640   0.800E-04 0.684E-04
CGA:  40    -0.128292365024E+04   -0.36435E-04   -0.27064E-04 10640   0.988E-04 0.636E-04
CGA:  41    -0.128292365655E+04   -0.63042E-05   -0.11386E-04 10640   0.715E-04 0.606E-04
CGA:  42    -0.128292369402E+04   -0.37478E-04   -0.27073E-04 10640   0.941E-04 0.562E-04
CGA:  43    -0.128292369944E+04   -0.54180E-05   -0.10415E-04 10640   0.633E-04 0.536E-04
CGA:  44    -0.128292373844E+04   -0.39000E-04   -0.27410E-04 10640   0.900E-04 0.493E-04
CGA:  45    -0.128292374306E+04   -0.46168E-05   -0.95492E-05 10640   0.555E-04 0.470E-04
CGA:  46    -0.128292378412E+04   -0.41061E-04   -0.28041E-04 10640   0.850E-04 0.431E-04
CGA:  47    -0.128292378801E+04   -0.38882E-05   -0.87135E-05 10640   0.480E-04 0.409E-04
CGA:  48    -0.128292380056E+04   -0.12554E-04   -0.13751E-04 10640   0.838E-04 0.561E-04
CGA:  49    -0.128292382026E+04   -0.19700E-04   -0.27292E-04 10640   0.342E-03-0.676E-04
CGA:  50    -0.128292383713E+04   -0.16864E-04   -0.26740E-04 10640   0.430E-04 0.707E-04
CGA:  51    -0.128292383964E+04   -0.25189E-05   -0.57399E-05 10640   0.494E-04 0.316E-04
CGA:  52    -0.128292376887E+04    0.70773E-04   -0.41008E-04 10640   0.223E-02-0.119E-03
CGA:  53    -0.128292392437E+04   -0.15550E-03   -0.18692E-03 10640   0.312E-04 0.114E-03
CGA:  54    -0.128292392750E+04   -0.31268E-05   -0.63083E-05 10640   0.401E-04 0.186E-04
CGA:  55    -0.128292393793E+04   -0.10434E-04   -0.24356E-04 10640   0.503E-03-0.551E-04
CGA:  56    -0.128292396398E+04   -0.26053E-04   -0.40965E-04 10640   0.249E-04 0.534E-04
CGA:  57    -0.128292396572E+04   -0.17354E-05   -0.46100E-05 10640   0.335E-04 0.154E-04
CGA:  58    -0.128292395273E+04    0.12991E-04   -0.28888E-04 10640   0.919E-03-0.806E-04
CGA:  59    -0.128292400742E+04   -0.54691E-04   -0.75015E-04 10640   0.214E-04 0.730E-04
CGA:  60    -0.128292400798E+04   -0.56706E-06   -0.32547E-05 10640   0.227E-04 0.125E-04
CGA:  61    -0.128292402440E+04   -0.16416E-04    0.77710E-04 10640   0.616E-04 0.170E-05
CGA:  62    -0.128292412975E+04   -0.10535E-03   -0.76128E-04 10640   0.641E-05 0.338E-04
CGA:  63    -0.128292413315E+04   -0.34015E-05   -0.36908E-05 10640   0.402E-04-0.160E-05
CGA:  64    -0.128292415710E+04   -0.23949E-04    0.91641E-03 10640   0.102E-03 0.153E-04
CGA:  65    -0.128292420024E+04   -0.43144E-04   -0.34685E-04 10640   0.130E-03-0.609E-04
CGA:  66    -0.128292421526E+04   -0.15013E-04   -0.12346E-04 10640   0.281E-05-0.878E-05
CGA:  67    -0.128292421506E+04    0.19934E-06   -0.23767E-06 10640   0.114E-05 0.154E-05
  49 F= -.12829242E+04 E0= -.12829242E+04  d E =0.110024E+00  mag=    47.0000
       N       E                     dE             d eps       ncg     rms          ort
SDA:   1    -0.127724908118E+04    0.56751E+01    0.00000E+00 10640   0.173E+02 0.000E+00
CGA:   2    -0.128087749795E+04   -0.36284E+01   -0.36316E+01 10640   0.710E+01 0.106E-01
CGA:   3    -0.128256268195E+04   -0.16852E+01   -0.16852E+01 10640   0.187E+01-0.662E-02
CGA:   4    -0.128284238419E+04   -0.27970E+00   -0.27948E+00 10640   0.341E+00-0.329E-03
CGA:   5    -0.128290264669E+04   -0.60263E-01   -0.60090E-01 10640   0.102E+00-0.972E-03
CGA:   6    -0.128292125962E+04   -0.18613E-01   -0.18327E-01 10640   0.309E-01-0.205E-02
CGA:   7    -0.128292760137E+04   -0.63418E-02   -0.63963E-02 10640   0.807E-02 0.548E-03
CGA:   8    -0.128292964174E+04   -0.20404E-02   -0.19981E-02 10640   0.447E-02-0.589E-03
CGA:   9    -0.128293050249E+04   -0.86076E-03   -0.86998E-03 10640   0.203E-02 0.982E-04
CGA:  10    -0.128293125425E+04   -0.75176E-03   -0.86485E-03 10640   0.290E-02-0.102E-02
CGA:  11    -0.128293166278E+04   -0.40852E-03   -0.38441E-03 10640   0.851E-03-0.132E-03
CGA:  12    -0.128293192083E+04   -0.25805E-03   -0.26798E-03 10640   0.919E-03-0.361E-03
CGA:  13    -0.128293207652E+04   -0.15569E-03   -0.15491E-03 10640   0.705E-03-0.689E-04
CGA:  14    -0.128293189363E+04    0.18289E-03   -0.63784E-03 10640   0.507E-02-0.122E-02
CGA:  15    -0.128293263667E+04   -0.74303E-03   -0.83207E-03 10640   0.919E-03 0.524E-03
CGA:  16    -0.128293286019E+04   -0.22353E-03   -0.20122E-03 10640   0.356E-03-0.171E-03
CGA:  17    -0.128293288584E+04   -0.25646E-04   -0.44102E-04 10640   0.161E-03 0.109E-03
CGA:  18    -0.128293288824E+04   -0.24010E-05   -0.26045E-04 10640   0.944E-04 0.125E-03
CGA:  19    -0.128293290479E+04   -0.16554E-04   -0.18962E-04 10640   0.793E-04 0.232E-04
CGA:  20    -0.128293290416E+04    0.63022E-06   -0.12059E-04 10640   0.457E-04 0.715E-04
  50 F= -.12829329E+04 E0= -.12829329E+04  d E =-.868911E-02  mag=    47.0000
       N       E                     dE             d eps       ncg     rms          ort
SDA:   1    -0.127920664830E+04    0.37263E+01    0.00000E+00 10640   0.112E+02 0.000E+00
CGA:   2    -0.128164105452E+04   -0.24344E+01   -0.24344E+01 10640   0.470E+01 0.435E-02
CGA:   3    -0.128274047155E+04   -0.10994E+01   -0.10995E+01 10640   0.116E+01-0.733E-02
CGA:   4    -0.128291627704E+04   -0.17581E+00   -0.17524E+00 10640   0.229E+00-0.437E-02
CGA:   5    -0.128295623450E+04   -0.39957E-01   -0.39985E-01 10640   0.616E-01 0.459E-04
CGA:   6    -0.128296831297E+04   -0.12078E-01   -0.11938E-01 10640   0.197E-01-0.203E-02
CGA:   7    -0.128297253098E+04   -0.42180E-02   -0.41865E-02 10640   0.591E-02-0.756E-03
CGA:   8    -0.128297401047E+04   -0.14795E-02   -0.14823E-02 10640   0.433E-02-0.131E-02
CGA:   9    -0.128297490900E+04   -0.89853E-03   -0.91676E-03 10640   0.305E-02-0.136E-02
CGA:  10    -0.128297505629E+04   -0.14729E-03   -0.11800E-02 10640   0.978E-02-0.338E-02
CGA:  11    -0.128297618076E+04   -0.11245E-02   -0.11208E-02 10640   0.184E-02-0.202E-04
CGA:  12    -0.128297675724E+04   -0.57648E-03   -0.61385E-03 10640   0.119E-02-0.545E-03
CGA:  13    -0.128297699453E+04   -0.23729E-03   -0.23896E-03 10640   0.715E-03-0.112E-03
CGA:  14    -0.128297717211E+04   -0.17758E-03   -0.27981E-03 10640   0.154E-02-0.636E-03
CGA:  15    -0.128297730766E+04   -0.13555E-03   -0.16594E-03 10640   0.262E-03 0.182E-03
CGA:  16    -0.128297738576E+04   -0.78101E-04   -0.78080E-04 10640   0.118E-03-0.644E-05
CGA:  17    -0.128297747009E+04   -0.84331E-04    0.43189E-04 10640   0.134E-03 0.207E-04
CGA:  18    -0.128297749632E+04   -0.26227E-04   -0.12839E-03 10640   0.839E-03-0.188E-03
CGA:  19    -0.128297762205E+04   -0.12573E-03   -0.11644E-03 10640   0.275E-03-0.567E-04
CGA:  20    -0.128297768263E+04   -0.60585E-04   -0.61432E-04 10640   0.636E-04 0.171E-04
CGA:  21    -0.128297772355E+04   -0.40917E-04    0.17800E-03 10640   0.276E-04 0.280E-04
CGA:  22    -0.128297773115E+04   -0.76008E-05   -0.89676E-05 10640   0.194E-04 0.221E-04
CGA:  23    -0.128297769291E+04    0.38244E-04   -0.22255E-04 10640   0.900E-03-0.484E-04
CGA:  24    -0.128297776736E+04   -0.74449E-04   -0.89074E-04 10640   0.506E-04 0.392E-04
CGA:  25    -0.128297776825E+04   -0.89503E-06   -0.77116E-05 10640   0.148E-04 0.194E-04
  51 F= -.12829778E+04 E0= -.12829778E+04  d E =-.448641E-01  mag=    47.0000
       N       E                     dE             d eps       ncg     rms          ort
SDA:   1    -0.128028076973E+04    0.26970E+01    0.00000E+00 10640   0.769E+01 0.000E+00
CGA:   2    -0.128207094345E+04   -0.17902E+01   -0.17902E+01 10640   0.336E+01 0.139E-02
CGA:   3    -0.128285158504E+04   -0.78064E+00   -0.78007E+00 10640   0.623E+00-0.387E-02
CGA:   4    -0.128295714273E+04   -0.10556E+00   -0.10544E+00 10640   0.116E+00-0.256E-03
CGA:   5    -0.128298170050E+04   -0.24558E-01   -0.24508E-01 10640   0.256E-01-0.229E-03
CGA:   6    -0.128298777339E+04   -0.60729E-02   -0.60823E-02 10640   0.759E-02 0.589E-04
CGA:   7    -0.128298951898E+04   -0.17456E-02   -0.16441E-02 10640   0.360E-02-0.507E-03
CGA:   8    -0.128299024170E+04   -0.72272E-03   -0.69289E-03 10640   0.169E-02-0.146E-03
CGA:   9    -0.128299087940E+04   -0.63769E-03   -0.63473E-03 10640   0.173E-02-0.664E-03
CGA:  10    -0.128299123178E+04   -0.35238E-03   -0.29081E-03 10640   0.127E-02-0.521E-03
CGA:  11    -0.128299157969E+04   -0.34791E-03   -0.36637E-03 10640   0.171E-02-0.857E-03
CGA:  12    -0.128299182032E+04   -0.24063E-03   -0.26623E-03 10640   0.607E-03 0.111E-03
CGA:  13    -0.128299200765E+04   -0.18733E-03   -0.18055E-03 10640   0.428E-03-0.678E-04
CGA:  14    -0.128299212962E+04   -0.12197E-03   -0.12326E-03 10640   0.222E-03 0.257E-04
CGA:  15    -0.128299220058E+04   -0.70961E-04   -0.68051E-04 10640   0.175E-03-0.356E-04
CGA:  16    -0.128299222705E+04   -0.26475E-04   -0.29968E-04 10640   0.838E-04 0.210E-04
CGA:  17    -0.128299226956E+04   -0.42504E-04   -0.42951E-04 10640   0.121E-03-0.561E-05
CGA:  18    -0.128299230484E+04   -0.35281E-04   -0.34178E-04 10640   0.185E-03-0.197E-04
CGA:  19    -0.128299236040E+04   -0.55562E-04   -0.55554E-04 10640   0.173E-03-0.808E-05
CGA:  20    -0.128299241806E+04   -0.57663E-04   -0.54955E-04 10640   0.282E-03-0.101E-03
CGA:  21    -0.128299245264E+04   -0.34580E-04   -0.37565E-04 10640   0.642E-04 0.139E-04
CGA:  22    -0.128299247477E+04   -0.22126E-04   -0.22266E-04 10640   0.247E-04 0.792E-05
CGA:  23    -0.128299208773E+04    0.38704E-03   -0.21043E-03 10640   0.352E-02-0.234E-03
CGA:  24    -0.128299240540E+04   -0.31766E-03   -0.37735E-03 10640   0.196E-03 0.139E-03
CGA:  25    -0.128299245378E+04   -0.48383E-04   -0.49295E-04 10640   0.158E-03 0.287E-05
CGA:  26    -0.128299248376E+04   -0.29979E-04   -0.36777E-04 10640   0.268E-04 0.192E-04
CGA:  27    -0.128299248924E+04   -0.54777E-05   -0.53971E-05 10640   0.106E-04-0.147E-06
CGA:  28    -0.128299248754E+04    0.16910E-05   -0.11557E-04 10640   0.119E-03-0.243E-04
CGA:  29    -0.128299248579E+04    0.17533E-05   -0.11443E-04 10640   0.204E-04 0.276E-04
  52 F= -.12829925E+04 E0= -.12829925E+04  d E =-.147175E-01  mag=    47.0000
       N       E                     dE             d eps       ncg     rms          ort
SDA:   1    -0.125992412911E+04    0.23068E+02    0.00000E+00 10640   0.744E+02 0.000E+00
CGA:   2    -0.127434113568E+04   -0.14417E+02   -0.13790E+02 10640   0.246E+02 0.540E+01
CGA:   3    -0.128116878522E+04   -0.68276E+01   -0.67338E+01 10640   0.765E+01 0.493E+00
CGA:   4    -0.128242670553E+04   -0.12579E+01   -0.12511E+01 10640   0.121E+01 0.111E+00
CGA:   5    -0.128266263182E+04   -0.23593E+00   -0.23650E+00 10640   0.334E+00 0.106E-01
CGA:   6    -0.128272544038E+04   -0.62809E-01   -0.63028E-01 10640   0.121E+00 0.215E-02
CGA:   7    -0.128274971427E+04   -0.24274E-01   -0.24177E-01 10640   0.386E-01-0.166E-03
CGA:   8    -0.128275774782E+04   -0.80335E-02   -0.79622E-02 10640   0.171E-01-0.402E-04
CGA:   9    -0.128276182570E+04   -0.40779E-02   -0.42226E-02 10640   0.787E-02 0.823E-03
CGA:  10    -0.128276410743E+04   -0.22817E-02   -0.23606E-02 10640   0.411E-02 0.615E-03
CGA:  11    -0.128276476597E+04   -0.65855E-03   -0.91062E-03 10640   0.190E-02 0.121E-02
CGA:  12    -0.128276532304E+04   -0.55707E-03   -0.66210E-03 10640   0.110E-02 0.770E-03
CGA:  13    -0.128276557668E+04   -0.25364E-03   -0.37138E-03 10640   0.808E-03 0.744E-03
CGA:  14    -0.128276565179E+04   -0.75114E-04   -0.14989E-03 10640   0.573E-03 0.366E-03
CGA:  15    -0.128276580055E+04   -0.14876E-03   -0.21234E-03 10640   0.414E-03 0.504E-03
CGA:  16    -0.128276592949E+04   -0.12894E-03   -0.13798E-03 10640   0.429E-03 0.218E-03
CGA:  17    -0.128276593161E+04   -0.21253E-05   -0.57964E-04 10640   0.290E-03 0.236E-03
CGA:  18    -0.128276604240E+04   -0.11078E-03   -0.10830E-03 10640   0.408E-03 0.200E-03
CGA:  19    -0.128276604359E+04   -0.11942E-05   -0.47883E-04 10640   0.249E-03 0.192E-03
CGA:  20    -0.128276606869E+04   -0.25097E-04   -0.72178E-04 10640   0.372E-03 0.308E-03
CGA:  21    -0.128276617416E+04   -0.10547E-03   -0.98911E-04 10640   0.757E-03-0.861E-04
CGA:  22    -0.128276632582E+04   -0.15167E-03   -0.17187E-03 10640   0.105E-02 0.470E-03
CGA:  23    -0.128276635000E+04   -0.24174E-04   -0.89024E-04 10640   0.173E-03 0.262E-03
CGA:  24    -0.128276634183E+04    0.81705E-05   -0.22040E-04 10640   0.179E-03 0.136E-03
CGA:  25    -0.128276645094E+04   -0.10911E-03   -0.14334E-03 10640   0.171E-02-0.714E-04
CGA:  26    -0.128276656846E+04   -0.11752E-03   -0.19005E-03 10640   0.372E-02 0.443E-03
CGA:  27    -0.128276692665E+04   -0.35819E-03   -0.63616E-03 10640   0.311E-03 0.135E-02
CGA:  28    -0.128276692212E+04    0.45327E-05   -0.35542E-04 10640   0.455E-04 0.169E-03
CGA:  29    -0.128276695665E+04   -0.34534E-04    0.29917E-04 10640   0.776E-04 0.500E-05
CGA:  30    -0.128276705965E+04   -0.10300E-03    0.13978E-04 10640   0.574E-04 0.439E-04
CGA:  31    -0.128276711049E+04   -0.50839E-04    0.19991E-04 10640   0.591E-04-0.431E-05
CGA:  32    -0.128276715111E+04   -0.40622E-04    0.40167E-04 10640   0.606E-04 0.716E-05
CGA:  33    -0.128276722247E+04   -0.71354E-04    0.14709E-04 10640   0.639E-04 0.407E-04
CGA:  34    -0.128276714890E+04    0.73569E-04   -0.55260E-04 10640   0.152E-02-0.231E-03
CGA:  35    -0.128276727557E+04   -0.12667E-03   -0.15498E-03 10640   0.645E-04 0.129E-03
CGA:  36    -0.128276727907E+04   -0.35056E-05   -0.81111E-05 10640   0.231E-04 0.223E-04
CGA:  37    -0.128276726388E+04    0.15196E-04   -0.32315E-04 10640   0.329E-03-0.658E-04
CGA:  38    -0.128276732699E+04   -0.63115E-04   -0.56831E-04 10640   0.148E-03-0.348E-04
CGA:  39    -0.128276734333E+04   -0.16334E-04   -0.20526E-04 10640   0.249E-04 0.227E-04
CGA:  40    -0.128276734512E+04   -0.17975E-05   -0.36368E-05 10640   0.105E-04 0.901E-05
CGA:  41    -0.128276733153E+04    0.13590E-04   -0.17668E-04 10640   0.421E-03-0.345E-04
CGA:  42    -0.128276737836E+04   -0.46830E-04   -0.48046E-04 10640   0.323E-04 0.589E-05
CGA:  43    -0.128276738434E+04   -0.59766E-05   -0.58654E-05 10640   0.170E-04-0.593E-06
  53 F= -.12827674E+04 E0= -.12827674E+04  d E =0.225101E+00  mag=    47.0000
       N       E                     dE             d eps       ncg     rms          ort
SDA:   1    -0.126099818548E+04    0.21769E+02    0.00000E+00 10640   0.738E+02 0.000E+00
CGA:   2    -0.127485014669E+04   -0.13852E+02   -0.13803E+02 10640   0.258E+02 0.459E+00
