       N       E                     dE             d eps       ncg     rms          rms(c)
DAV:   1     0.305037990222E+04    0.30504E+04   -0.25837E+05 73596   0.130E+03
DAV:   2    -0.613670851528E+03   -0.36641E+04   -0.35353E+04 89340   0.298E+02
DAV:   3    -0.871393515126E+03   -0.25772E+03   -0.25558E+03 89088   0.833E+01
DAV:   4    -0.874610534242E+03   -0.32170E+01   -0.32050E+01 89352   0.999E+00
DAV:   5    -0.874664848709E+03   -0.54314E-01   -0.54181E-01 91020   0.120E+00    0.989E+01
DAV:   6    -0.781970315430E+03    0.92695E+02   -0.39278E+02 83280   0.315E+01    0.507E+01
DAV:   7    -0.790573672720E+03   -0.86034E+01   -0.32500E+01 87408   0.967E+00    0.189E+01
DAV:   8    -0.793963569716E+03   -0.33899E+01   -0.44032E+00 90504   0.499E+00    0.989E+00
DAV:   9    -0.795923919826E+03   -0.19604E+01   -0.27473E+00 86916   0.303E+00    0.636E+00
DAV:  10    -0.796845122013E+03   -0.92120E+00   -0.95130E-01 87192   0.189E+00    0.486E+00
DAV:  11    -0.797047665712E+03   -0.20254E+00   -0.15637E+00 99420   0.194E+00    0.497E+00
DAV:  12    -0.797403111911E+03   -0.35545E+00   -0.41646E-01 89760   0.124E+00    0.554E+00
DAV:  13    -0.797287716036E+03    0.11540E+00   -0.24289E-01 85776   0.613E-01    0.294E+00
DAV:  14    -0.797310834015E+03   -0.23118E-01   -0.17479E-01101052   0.943E-01    0.157E+00
DAV:  15    -0.797330140458E+03   -0.19306E-01   -0.58737E-02 80808   0.455E-01    0.117E+00
DAV:  16    -0.797326457999E+03    0.36825E-02   -0.45522E-02 91356   0.321E-01    0.577E-01
DAV:  17    -0.797328553555E+03   -0.20956E-02   -0.17065E-02 84336   0.171E-01    0.613E-01
DAV:  18    -0.797328796617E+03   -0.24306E-03   -0.13543E-02 92568   0.126E-01    0.616E-01
DAV:  19    -0.797328110376E+03    0.68624E-03   -0.59612E-03 90420   0.118E-01    0.277E-01
DAV:  20    -0.797328320608E+03   -0.21023E-03   -0.62831E-04 82476   0.503E-02    0.189E-01
DAV:  21    -0.797328355349E+03   -0.34741E-04   -0.44135E-04 89052   0.318E-02    0.124E-01
DAV:  22    -0.797328398218E+03   -0.42869E-04   -0.16851E-04 85776   0.352E-02    0.925E-02
DAV:  23    -0.797328382104E+03    0.16115E-04   -0.13360E-04 90456   0.276E-02    0.454E-02
DAV:  24    -0.797328393920E+03   -0.11816E-04   -0.45718E-05 74508   0.144E-02    0.196E-02
DAV:  25    -0.797328396439E+03   -0.25193E-05   -0.97086E-06 45528   0.575E-03
   1 F= -.79732840E+03 E0= -.79731094E+03  d E =-.797328E+03  mag=     0.5413
       N       E                     dE             d eps       ncg     rms          rms(c)
DAV:   1    -0.797329177459E+03   -0.78354E-03   -0.19086E-02 76968   0.248E-01    0.159E-01
DAV:   2    -0.797329521404E+03   -0.34394E-03   -0.27387E-03101520   0.110E-01    0.482E-01
DAV:   3    -0.797329052384E+03    0.46902E-03   -0.12891E-03101148   0.819E-02    0.422E-02
DAV:   4    -0.797329212072E+03   -0.15969E-03   -0.46884E-04 79224   0.298E-02    0.124E-01
DAV:   5    -0.797329185397E+03    0.26674E-04   -0.18384E-04 73344   0.204E-02    0.633E-02
DAV:   6    -0.797329190901E+03   -0.55035E-05   -0.85872E-05 70392   0.144E-02
   2 F= -.79732919E+03 E0= -.79731172E+03  d E =-.794462E-03  mag=     0.5367
       N       E                     dE             d eps       ncg     rms          rms(c)
DAV:   1    -0.797329542472E+03   -0.35708E-03   -0.11878E-02 75600   0.199E-01    0.791E-02
DAV:   2    -0.797329594616E+03   -0.52143E-04   -0.72674E-04 93720   0.476E-02    0.159E-01
DAV:   3    -0.797329550594E+03    0.44022E-04   -0.33550E-04 94752   0.314E-02    0.347E-02
DAV:   4    -0.797329566375E+03   -0.15781E-04   -0.32155E-05 73728   0.139E-02    0.445E-02
DAV:   5    -0.797329562505E+03    0.38701E-05   -0.65919E-06 51804   0.963E-03
   3 F= -.79732956E+03 E0= -.79731200E+03  d E =-.371604E-03  mag=     0.5359
       N       E                     dE             d eps       ncg     rms          rms(c)
DAV:   1    -0.797329874060E+03   -0.30768E-03   -0.13478E-01 75264   0.672E-01    0.232E-01
DAV:   2    -0.797330644942E+03   -0.77088E-03   -0.10698E-02 93744   0.169E-01    0.655E-01
DAV:   3    -0.797329814743E+03    0.83020E-03   -0.52406E-03 95400   0.113E-01    0.830E-02
DAV:   4    -0.797330127529E+03   -0.31279E-03   -0.45524E-04 79380   0.486E-02    0.197E-01
DAV:   5    -0.797330063051E+03    0.64479E-04   -0.10485E-04 85392   0.330E-02    0.860E-02
DAV:   6    -0.797330087037E+03   -0.23987E-04   -0.71953E-04 81372   0.240E-02    0.133E-01
DAV:   7    -0.797330046382E+03    0.40656E-04   -0.25197E-04 69588   0.226E-02    0.208E-02
DAV:   8    -0.797330059307E+03   -0.12925E-04   -0.12043E-05 52932   0.770E-03    0.947E-03
DAV:   9    -0.797330059717E+03   -0.40996E-06   -0.26013E-06 41556   0.316E-03
   4 F= -.79733006E+03 E0= -.79731236E+03  d E =-.497212E-03  mag=     0.5345
       N       E                     dE             d eps       ncg     rms          rms(c)
DAV:   1    -0.797330395743E+03   -0.33644E-03   -0.52640E-01 74136   0.133E+00    0.432E-01
DAV:   2    -0.797334640319E+03   -0.42446E-02   -0.63502E-02 96144   0.369E-01    0.148E+00
DAV:   3    -0.797330084627E+03    0.45557E-02   -0.21040E-02 92112   0.242E-01    0.314E-01
DAV:   4    -0.797330854008E+03   -0.76938E-03   -0.19055E-03 80676   0.878E-02    0.179E-01
DAV:   5    -0.797331059527E+03   -0.20552E-03   -0.11257E-03 83148   0.494E-02    0.188E-01
DAV:   6    -0.797330991514E+03    0.68013E-04   -0.12953E-03 84096   0.414E-02    0.120E-01
DAV:   7    -0.797330984608E+03    0.69057E-05   -0.87766E-05 77892   0.230E-02
   5 F= -.79733098E+03 E0= -.79731330E+03  d E =-.924892E-03  mag=     0.5398
       N       E                     dE             d eps       ncg     rms          rms(c)
DAV:   1    -0.797330442355E+03    0.54916E-03   -0.95305E-01 73560   0.181E+00    0.612E-01
DAV:   2    -0.797341918095E+03   -0.11476E-01   -0.10736E-01101412   0.528E-01    0.230E+00
DAV:   3    -0.797330079687E+03    0.11838E-01   -0.25321E-02105768   0.346E-01    0.512E-01
DAV:   4    -0.797331298772E+03   -0.12191E-02   -0.56036E-03 84876   0.117E-01    0.162E-01
DAV:   5    -0.797331645153E+03   -0.34638E-03   -0.11443E-03 84048   0.634E-02    0.180E-01
DAV:   6    -0.797331592985E+03    0.52168E-04   -0.10582E-03 82068   0.441E-02    0.971E-02
DAV:   7    -0.797331664158E+03   -0.71173E-04   -0.18871E-04 79692   0.285E-02    0.192E-01
DAV:   8    -0.797331578092E+03    0.86066E-04   -0.56855E-04 82524   0.282E-02    0.780E-02
DAV:   9    -0.797331588064E+03   -0.99718E-05   -0.48667E-05 62664   0.126E-02
   6 F= -.79733159E+03 E0= -.79731397E+03  d E =-.603455E-03  mag=     0.5503
       N       E                     dE             d eps       ncg     rms          rms(c)
DAV:   1    -0.797331132799E+03    0.44529E-03   -0.60277E-01 73560   0.143E+00    0.555E-01
DAV:   2    -0.797337313543E+03   -0.61807E-02   -0.25518E-02103680   0.446E-01    0.159E+00
DAV:   3    -0.797331203434E+03    0.61101E-02   -0.67651E-03104172   0.300E-01    0.345E-01
DAV:   4    -0.797331818780E+03   -0.61535E-03   -0.46297E-03 86616   0.113E-01    0.284E-01
DAV:   5    -0.797331984872E+03   -0.16609E-03   -0.11124E-03 81000   0.638E-02    0.287E-01
DAV:   6    -0.797331832379E+03    0.15249E-03   -0.29526E-04 98196   0.513E-02    0.182E-01
DAV:   7    -0.797331813819E+03    0.18561E-04   -0.11622E-04 79920   0.290E-02    0.609E-02
DAV:   8    -0.797331815573E+03   -0.17540E-05   -0.42114E-05 80328   0.151E-02
   7 F= -.79733182E+03 E0= -.79731398E+03  d E =-.227509E-03  mag=     0.5369
       N       E                     dE             d eps       ncg     rms          rms(c)
DAV:   1    -0.797332853286E+03   -0.10395E-02   -0.24033E-01 73692   0.892E-01    0.393E-01
DAV:   2    -0.797335864007E+03   -0.30107E-02   -0.46631E-02 99732   0.297E-01    0.131E+00
DAV:   3    -0.797332290461E+03    0.35735E-02   -0.18482E-02 95400   0.211E-01    0.273E-01
DAV:   4    -0.797332999795E+03   -0.70933E-03   -0.15019E-03 80496   0.840E-02    0.196E-01
DAV:   5    -0.797333147972E+03   -0.14818E-03   -0.97311E-04 82596   0.487E-02    0.197E-01
DAV:   6    -0.797333049282E+03    0.98690E-04   -0.11854E-03 83208   0.397E-02    0.977E-02
DAV:   7    -0.797333066735E+03   -0.17453E-04   -0.72143E-05 76764   0.212E-02    0.577E-02
DAV:   8    -0.797333064139E+03    0.25963E-05   -0.16718E-04 67452   0.113E-02    0.504E-02
DAV:   9    -0.797333061313E+03    0.28259E-05   -0.39718E-05 51240   0.850E-03
   8 F= -.79733306E+03 E0= -.79731534E+03  d E =-.124574E-02  mag=     0.5362
       N       E                     dE             d eps       ncg     rms          rms(c)
DAV:   1    -0.797333147878E+03   -0.83740E-04   -0.19880E-01 73608   0.822E-01    0.289E-01
DAV:   2    -0.797335726960E+03   -0.25791E-02   -0.75012E-03 99648   0.241E-01    0.127E+00
DAV:   3    -0.797332806151E+03    0.29208E-02   -0.38179E-03100320   0.170E-01    0.130E-01
DAV:   4    -0.797333392354E+03   -0.58620E-03   -0.13913E-03 79908   0.593E-02    0.151E-01
DAV:   5    -0.797333392677E+03   -0.32305E-06   -0.24610E-04 80328   0.313E-02    0.743E-02
DAV:   6    -0.797333391117E+03    0.15596E-05   -0.96884E-05 80652   0.194E-02
   9 F= -.79733339E+03 E0= -.79731561E+03  d E =-.329805E-03  mag=     0.5434
       N       E                     dE             d eps       ncg     rms          rms(c)
DAV:   1    -0.797330061776E+03    0.33309E-02   -0.21363E+00 73440   0.270E+00    0.497E-01
DAV:   2    -0.797336693711E+03   -0.66319E-02   -0.60980E-02 88320   0.491E-01    0.140E+00
DAV:   3    -0.797333027878E+03    0.36658E-02   -0.12291E-02 90564   0.253E-01    0.184E-01
DAV:   4    -0.797333930129E+03   -0.90225E-03   -0.21507E-03 80796   0.965E-02    0.403E-01
DAV:   5    -0.797333705948E+03    0.22418E-03   -0.69585E-04 85752   0.630E-02    0.144E-01
DAV:   6    -0.797333875079E+03   -0.16913E-03   -0.14230E-03 83844   0.519E-02    0.319E-01
DAV:   7    -0.797333610681E+03    0.26440E-03   -0.40789E-04 86892   0.536E-02    0.678E-02
DAV:   8    -0.797333671362E+03   -0.60681E-04   -0.25968E-04 81816   0.208E-02    0.678E-02
DAV:   9    -0.797333665297E+03    0.60647E-05   -0.10611E-04 55212   0.122E-02    0.279E-02
DAV:  10    -0.797333666307E+03   -0.10101E-05   -0.69341E-06 45156   0.513E-03
  10 F= -.79733367E+03 E0= -.79731591E+03  d E =-.275190E-03  mag=     0.5312
       N       E                     dE             d eps       ncg     rms          rms(c)
DAV:   1    -0.797329899600E+03    0.37657E-02   -0.21041E+00 73440   0.269E+00    0.596E-01
DAV:   2    -0.797339978026E+03   -0.10078E-01   -0.66322E-02 89544   0.551E-01    0.183E+00
DAV:   3    -0.797333041538E+03    0.69365E-02   -0.23705E-02 97572   0.315E-01    0.501E-01
DAV:   4    -0.797333473077E+03   -0.43154E-03   -0.46510E-03 87312   0.128E-01    0.184E-01
DAV:   5    -0.797333475495E+03   -0.24178E-05   -0.72523E-04 82428   0.633E-02    0.115E-01
DAV:   6    -0.797333514132E+03   -0.38636E-04   -0.48864E-04 85812   0.475E-02    0.221E-01
DAV:   7    -0.797333449376E+03    0.64756E-04   -0.11946E-03 85212   0.435E-02    0.181E-01
DAV:   8    -0.797333416907E+03    0.32469E-04   -0.71473E-04 79104   0.317E-02    0.127E-01
DAV:   9    -0.797333407095E+03    0.98111E-05   -0.58355E-05 72624   0.184E-02
  11 F= -.79733341E+03 E0= -.79731542E+03  d E =0.259212E-03  mag=     0.5175
       N       E                     dE             d eps       ncg     rms          rms(c)
DAV:   1    -0.797332971552E+03    0.44535E-03   -0.70357E-01 73440   0.156E+00    0.519E-01
DAV:   2    -0.797340116659E+03   -0.71451E-02   -0.26121E-02 97980   0.426E-01    0.209E+00
DAV:   3    -0.797332498070E+03    0.76186E-02   -0.14903E-02100584   0.284E-01    0.194E-01
DAV:   4    -0.797334025838E+03   -0.15278E-02   -0.28201E-03 79092   0.983E-02    0.266E-01
DAV:   5    -0.797333916266E+03    0.10957E-03   -0.10389E-03 87120   0.583E-02    0.110E-01
DAV:   6    -0.797333975251E+03   -0.58985E-04   -0.32066E-04 84900   0.343E-02    0.188E-01
DAV:   7    -0.797333890763E+03    0.84488E-04   -0.79225E-05 86856   0.312E-02    0.439E-02
DAV:   8    -0.797333915122E+03   -0.24359E-04   -0.13613E-04 80316   0.155E-02    0.865E-02
DAV:   9    -0.797333899785E+03    0.15336E-04   -0.55709E-05 53832   0.112E-02    0.194E-02
DAV:  10    -0.797333901979E+03   -0.21941E-05   -0.21752E-05 42204   0.610E-03
  12 F= -.79733390E+03 E0= -.79731610E+03  d E =-.494884E-03  mag=     0.5375
       N       E                     dE             d eps       ncg     rms          rms(c)
DAV:   1    -0.797334207819E+03   -0.30803E-03   -0.10474E-01 73560   0.606E-01    0.193E-01
DAV:   2    -0.797334591009E+03   -0.38319E-03   -0.33387E-03 89148   0.113E-01    0.318E-01
DAV:   3    -0.797334426330E+03    0.16468E-03   -0.72420E-04105900   0.702E-02    0.170E-01
DAV:   4    -0.797334409537E+03    0.16793E-04   -0.39125E-04 83388   0.351E-02    0.111E-01
DAV:   5    -0.797334385686E+03    0.23851E-04   -0.14666E-04 86820   0.226E-02    0.362E-02
DAV:   6    -0.797334389955E+03   -0.42685E-05   -0.35193E-05 73896   0.140E-02
  13 F= -.79733439E+03 E0= -.79731663E+03  d E =-.487975E-03  mag=     0.5316
