       N       E                     dE             d eps       ncg     rms          ort
DAV:   1     0.570268002933E+04    0.57027E+04   -0.23073E+05  4256   0.174E+03
DAV:   2     0.918424738949E+01   -0.56935E+04   -0.51460E+04  4256   0.499E+02
DAV:   3    -0.789893242181E+03   -0.79908E+03   -0.76093E+03  4256   0.200E+02
DAV:   4    -0.823481488076E+03   -0.33588E+02   -0.33246E+02  4256   0.423E+01
DAV:   5    -0.823829594222E+03   -0.34811E+00   -0.34758E+00  4256   0.463E+00
SDA:   6    -0.295106782409E+03    0.52872E+03   -0.34758E+00  4256   0.179E+04 0.000E+00
CGA:   7    -0.559527720489E+03   -0.26442E+03   -0.26382E+03  4256   0.239E+03 0.859E+01
CGA:   8    -0.587099431693E+03   -0.27572E+02   -0.29298E+02  4256   0.364E+03-0.234E+02
CGA:   9    -0.603256063050E+03   -0.16157E+02   -0.23058E+02  4256   0.815E+02-0.538E+02
CGA:  10    -0.612610872183E+03   -0.93548E+01   -0.96762E+01  4256   0.695E+02 0.451E+00
CGA:  11    -0.620726472700E+03   -0.81156E+01   -0.80753E+01  4256   0.264E+02-0.467E-01
CGA:  12    -0.623443777794E+03   -0.27173E+01   -0.25039E+01  4256   0.937E+01 0.851E+00
CGA:  13    -0.624944773023E+03   -0.15010E+01   -0.14874E+01  4256   0.897E+01-0.368E+00
CGA:  14    -0.625302731931E+03   -0.35796E+00   -0.55124E+00  4256   0.387E+01-0.211E+01
CGA:  15    -0.625643317031E+03   -0.34059E+00   -0.34123E+00  4256   0.240E+01-0.118E+00
CGA:  16    -0.625928544907E+03   -0.28523E+00   -0.25779E+00  4256   0.150E+01-0.263E+00
CGA:  17    -0.626134998568E+03   -0.20645E+00   -0.16662E+00  4256   0.253E+01-0.137E+00
CGA:  18    -0.626285388599E+03   -0.15039E+00   -0.16551E+00  4256   0.234E+01-0.107E+01
CGA:  19    -0.626320646807E+03   -0.35258E-01   -0.22225E-01  4256   0.152E+01 0.862E+00
CGA:  20    -0.626440264396E+03   -0.11962E+00   -0.59863E-01  4256   0.269E+01 0.225E+01
CGA:  21    -0.626677403533E+03   -0.23714E+00   -0.26573E+00  4256   0.461E+01 0.105E+00
CGA:  22    -0.627392571056E+03   -0.71517E+00   -0.71145E+00  4256   0.649E+00 0.267E+00
CGA:  23    -0.627455424117E+03   -0.62853E-01   -0.72008E-01  4256   0.512E+00 0.173E-01
CGA:  24    -0.627633036696E+03   -0.17761E+00    0.18873E+00  4256   0.441E+00 0.199E+00
CGA:  25    -0.627706642426E+03   -0.73606E-01   -0.81089E-01  4256   0.493E+00 0.342E+00
CGA:  26    -0.627897258416E+03   -0.19062E+00    0.92996E-01  4256   0.147E+01 0.879E+00
CGA:  27    -0.628139647231E+03   -0.24239E+00   -0.25488E+00  4256   0.646E+01-0.249E+00
CGA:  28    -0.629634795146E+03   -0.14951E+01   -0.10612E+01  4256   0.753E+01 0.463E+01
CGA:  29    -0.630237093637E+03   -0.60230E+00   -0.69460E+00  4256   0.128E+01 0.803E-01
CGA:  30    -0.630482504899E+03   -0.24541E+00   -0.24062E+00  4256   0.439E+00 0.944E-01
CGA:  31    -0.630614903349E+03   -0.13240E+00   -0.10496E+00  4256   0.757E+00 0.266E+00
CGA:  32    -0.630736754677E+03   -0.12185E+00   -0.12342E+00  4256   0.688E+00-0.700E-01
CGA:  33    -0.630975840011E+03   -0.23909E+00   -0.12086E-01  4256   0.110E+01-0.424E+00
CGA:  34    -0.631072946161E+03   -0.97106E-01   -0.10244E+00  4256   0.487E+00-0.860E-01
CGA:  35    -0.631193031877E+03   -0.12009E+00   -0.12045E+00  4256   0.275E+00-0.599E-01
CGA:  36    -0.631228122680E+03   -0.35091E-01   -0.38450E-01  4256   0.123E+00-0.149E-01
CGA:  37    -0.631244872484E+03   -0.16750E-01   -0.16903E-01  4256   0.259E-01-0.556E-02
CGA:  38    -0.631251297603E+03   -0.64251E-02   -0.66186E-02  4256   0.384E-01-0.132E-01
CGA:  39    -0.631254525012E+03   -0.32274E-02   -0.29590E-02  4256   0.320E-02-0.263E-02
CGA:  40    -0.631257007494E+03   -0.24825E-02    0.51766E-03  4256   0.216E-02 0.723E-03
CGA:  41    -0.631259962365E+03   -0.29549E-02    0.25389E-03  4256   0.300E-02 0.352E-03
CGA:  42    -0.631265028275E+03   -0.50659E-02    0.21627E-03  4256   0.112E-02 0.878E-03
CGA:  43    -0.631267322403E+03   -0.22941E-02    0.78748E-04  4256   0.938E-03-0.126E-04
CGA:  44    -0.631269177661E+03   -0.18553E-02    0.36700E-04  4256   0.135E-02-0.105E-02
CGA:  45    -0.631269350352E+03   -0.17269E-03   -0.14608E-03  4256   0.547E-03-0.195E-03
CGA:  46    -0.631269620953E+03   -0.27060E-03    0.25773E-03  4256   0.153E-03 0.113E-03
CGA:  47    -0.631269791304E+03   -0.17035E-03    0.23332E-04  4256   0.201E-03 0.201E-04
CGA:  48    -0.631270055166E+03   -0.26386E-03    0.18795E-04  4256   0.538E-04 0.380E-04
CGA:  49    -0.631270138200E+03   -0.83033E-04    0.44029E-05  4256   0.950E-04-0.870E-05
CGA:  50    -0.631270317880E+03   -0.17968E-03    0.25323E-05  4256   0.587E-04 0.230E-06
CGA:  51    -0.631270494779E+03   -0.17690E-03    0.13162E-05  4256   0.129E-03-0.125E-04
CGA:  52    -0.631270893774E+03   -0.39900E-03    0.16518E-05  4256   0.128E-03-0.354E-04
CGA:  53    -0.631271176454E+03   -0.28268E-03    0.20477E-05  4256   0.344E-03-0.111E-03
CGA:  54    -0.631271180514E+03   -0.40596E-05   -0.21275E-04  4256   0.501E-04 0.980E-04
   1 F= -.63127118E+03 E0= -.63126440E+03  d E =-.631271E+03  mag=    41.0000
       N       E                     dE             d eps       ncg     rms          ort
SDA:   1    -0.631271098440E+03    0.78014E-04    0.00000E+00  4256   0.236E-02 0.000E+00
CGA:   2    -0.631271644668E+03   -0.54623E-03   -0.55059E-03  4256   0.158E-02-0.312E-03
CGA:   3    -0.631271863187E+03   -0.21852E-03   -0.21585E-03  4256   0.660E-03-0.438E-04
CGA:   4    -0.631271940002E+03   -0.76815E-04   -0.83643E-04  4256   0.111E-03 0.786E-04
CGA:   5    -0.631271947576E+03   -0.75742E-05   -0.12741E-04  4256   0.350E-04 0.471E-04
   2 F= -.63127195E+03 E0= -.63126512E+03  d E =-.767063E-03  mag=    41.0000
       N       E                     dE             d eps       ncg     rms          ort
SDA:   1    -0.631258813561E+03    0.13126E-01    0.00000E+00  4256   0.480E-01 0.000E+00
CGA:   2    -0.631269605794E+03   -0.10792E-01   -0.10780E-01  4256   0.221E-01 0.478E-03
CGA:   3    -0.631274044942E+03   -0.44391E-02   -0.44383E-02  4256   0.113E-01-0.424E-03
CGA:   4    -0.631275560861E+03   -0.15159E-02   -0.14901E-02  4256   0.245E-02-0.394E-03
CGA:   5    -0.631275958230E+03   -0.39737E-03   -0.39602E-03  4256   0.624E-03-0.440E-04
CGA:   6    -0.631276038375E+03   -0.80145E-04   -0.83004E-04  4256   0.227E-03 0.468E-04
CGA:   7    -0.631276069652E+03   -0.31276E-04   -0.33811E-04  4256   0.503E-04 0.462E-04
CGA:   8    -0.631276084445E+03   -0.14793E-04   -0.14491E-04  4256   0.243E-04 0.609E-05
CGA:   9    -0.631276090270E+03   -0.58249E-05   -0.79067E-05  4256   0.651E-04-0.216E-04
   3 F= -.63127609E+03 E0= -.63126929E+03  d E =-.414269E-02  mag=    41.0000
       N       E                     dE             d eps       ncg     rms          ort
SDA:   1    -0.630257217029E+03    0.10189E+01    0.00000E+00  4256   0.284E+01 0.000E+00
CGA:   2    -0.630911733005E+03   -0.65452E+00   -0.65419E+00  4256   0.131E+01 0.699E-02
CGA:   3    -0.631176229976E+03   -0.26450E+00   -0.26452E+00  4256   0.603E+00-0.413E-02
CGA:   4    -0.631253631713E+03   -0.77402E-01   -0.77262E-01  4256   0.140E+00-0.285E-02
CGA:   5    -0.631275962162E+03   -0.22330E-01   -0.22311E-01  4256   0.374E-01-0.361E-03
CGA:   6    -0.631281238099E+03   -0.52759E-02   -0.52936E-02  4256   0.157E-01 0.330E-03
CGA:   7    -0.631283675651E+03   -0.24376E-02   -0.24522E-02  4256   0.370E-02 0.457E-03
CGA:   8    -0.631284582339E+03   -0.90669E-03   -0.90527E-03  4256   0.178E-02 0.236E-04
CGA:   9    -0.631284845791E+03   -0.26345E-03   -0.26524E-03  4256   0.853E-03 0.465E-04
CGA:  10    -0.631285023334E+03   -0.17754E-03   -0.17678E-03  4256   0.309E-03 0.457E-04
CGA:  11    -0.631285084491E+03   -0.61157E-04   -0.61105E-04  4256   0.219E-03 0.390E-04
CGA:  12    -0.631285117172E+03   -0.32681E-04   -0.35964E-04  4256   0.660E-04 0.786E-04
CGA:  13    -0.631285120297E+03   -0.31251E-05   -0.88925E-05  4256   0.462E-04 0.670E-04
   4 F= -.63128512E+03 E0= -.63127836E+03  d E =-.903003E-02  mag=    41.0000
       N       E                     dE             d eps       ncg     rms          ort
SDA:   1    -0.631140484219E+03    0.14463E+00    0.00000E+00  4256   0.426E+00 0.000E+00
CGA:   2    -0.631232805630E+03   -0.92321E-01   -0.92363E-01  4256   0.192E+00-0.112E-02
CGA:   3    -0.631269215128E+03   -0.36409E-01   -0.36387E-01  4256   0.106E+00 0.154E-02
CGA:   4    -0.631282801311E+03   -0.13586E-01   -0.13631E-01  4256   0.221E-01 0.110E-02
CGA:   5    -0.631286597123E+03   -0.37958E-02   -0.37980E-02  4256   0.510E-02 0.359E-03
CGA:   6    -0.631287438155E+03   -0.84103E-03   -0.84084E-03  4256   0.225E-02-0.173E-04
CGA:   7    -0.631287784810E+03   -0.34665E-03   -0.34484E-03  4256   0.610E-03-0.865E-04
CGA:   8    -0.631287894626E+03   -0.10982E-03   -0.10888E-03  4256   0.205E-03 0.787E-04
CGA:   9    -0.631287921210E+03   -0.26584E-04   -0.29689E-04  4256   0.744E-04 0.674E-04
CGA:  10    -0.631287929351E+03   -0.81418E-05   -0.11312E-04  4256   0.295E-04 0.548E-04
   5 F= -.63128793E+03 E0= -.63128110E+03  d E =-.280905E-02  mag=    41.0000
       N       E                     dE             d eps       ncg     rms          ort
SDA:   1    -0.631273958046E+03    0.13963E-01    0.00000E+00  4256   0.379E-01 0.000E+00
CGA:   2    -0.631284424240E+03   -0.10466E-01   -0.10432E-01  4256   0.193E-01 0.304E-03
CGA:   3    -0.631287896647E+03   -0.34724E-02   -0.34751E-02  4256   0.786E-02-0.425E-03
CGA:   4    -0.631288804109E+03   -0.90746E-03   -0.89806E-03  4256   0.171E-02-0.159E-03
CGA:   5    -0.631289089581E+03   -0.28547E-03   -0.28551E-03  4256   0.477E-03-0.428E-04
CGA:   6    -0.631289151746E+03   -0.62166E-04   -0.63232E-04  4256   0.172E-03 0.317E-04
CGA:   7    -0.631289177614E+03   -0.25868E-04   -0.26599E-04  4256   0.356E-04 0.326E-04
CGA:   8    -0.631289185554E+03   -0.79402E-05   -0.76875E-05  4256   0.139E-04 0.167E-04
   6 F= -.63128919E+03 E0= -.63128233E+03  d E =-.125620E-02  mag=    41.0000
       N       E                     dE             d eps       ncg     rms          ort
SDA:   1    -0.630666486130E+03    0.62269E+00    0.00000E+00  4256   0.141E+01 0.000E+00
CGA:   2    -0.631186268993E+03   -0.51978E+00   -0.52011E+00  4256   0.478E+00-0.171E-02
CGA:   3    -0.631262957606E+03   -0.76689E-01   -0.76680E-01  4256   0.158E+00-0.105E-02
CGA:   4    -0.631282162679E+03   -0.19205E-01   -0.19163E-01  4256   0.443E-01-0.179E-03
CGA:   5    -0.631289716989E+03   -0.75543E-02   -0.75544E-02  4256   0.956E-02 0.160E-04
CGA:   6    -0.631291364152E+03   -0.16472E-02   -0.16472E-02  4256   0.418E-02 0.124E-03
CGA:   7    -0.631291941423E+03   -0.57727E-03   -0.58042E-03  4256   0.130E-02 0.827E-04
CGA:   8    -0.631292265343E+03   -0.32392E-03   -0.32797E-03  4256   0.630E-03-0.524E-04
CGA:   9    -0.631292369218E+03   -0.10388E-03   -0.10374E-03  4256   0.460E-03-0.461E-04
CGA:  10    -0.631292443016E+03   -0.73798E-04   -0.73817E-04  4256   0.120E-03 0.149E-04
CGA:  11    -0.631292473790E+03   -0.30774E-04   -0.28884E-04  4256   0.520E-04 0.312E-04
CGA:  12    -0.631292481100E+03   -0.73098E-05   -0.84536E-05  4256   0.199E-04 0.234E-04
   7 F= -.63129248E+03 E0= -.63128558E+03  d E =-.329555E-02  mag=    41.0000
       N       E                     dE             d eps       ncg     rms          ort
SDA:   1    -0.631025468692E+03    0.26701E+00    0.00000E+00  4256   0.780E+00 0.000E+00
CGA:   2    -0.631196120506E+03   -0.17065E+00   -0.17053E+00  4256   0.309E+00 0.245E-02
CGA:   3    -0.631266390137E+03   -0.70270E-01   -0.70317E-01  4256   0.134E+00-0.118E-02
CGA:   4    -0.631283727698E+03   -0.17338E-01   -0.17277E-01  4256   0.446E-01-0.694E-03
CGA:   5    -0.631290161099E+03   -0.64334E-02   -0.64210E-02  4256   0.970E-02-0.488E-03
CGA:   6    -0.631291857599E+03   -0.16965E-02   -0.16970E-02  4256   0.408E-02-0.189E-03
CGA:   7    -0.631292409780E+03   -0.55218E-03   -0.54856E-03  4256   0.116E-02-0.995E-04
CGA:   8    -0.631292666866E+03   -0.25709E-03   -0.25753E-03  4256   0.421E-03-0.896E-05
CGA:   9    -0.631292739084E+03   -0.72218E-04   -0.72264E-04  4256   0.252E-03 0.215E-04
CGA:  10    -0.631292776621E+03   -0.37537E-04   -0.38547E-04  4256   0.717E-04 0.337E-04
CGA:  11    -0.631292806156E+03   -0.29535E-04   -0.33059E-04  4256   0.996E-04-0.163E-04
CGA:  12    -0.631292814606E+03   -0.84498E-05   -0.90678E-05  4256   0.473E-04 0.797E-05
   8 F= -.63129281E+03 E0= -.63128598E+03  d E =-.333506E-03  mag=    41.0000
       N       E                     dE             d eps       ncg     rms          ort
SDA:   1    -0.631236467674E+03    0.56338E-01    0.00000E+00  4256   0.178E+00 0.000E+00
CGA:   2    -0.631273729101E+03   -0.37261E-01   -0.37277E-01  4256   0.730E-01-0.631E-03
CGA:   3    -0.631288691212E+03   -0.14962E-01   -0.14950E-01  4256   0.404E-01 0.512E-03
CGA:   4    -0.631293809764E+03   -0.51186E-02   -0.51589E-02  4256   0.962E-02 0.671E-03
CGA:   5    -0.631295382155E+03   -0.15724E-02   -0.15779E-02  4256   0.226E-02 0.269E-03
CGA:   6    -0.631295727076E+03   -0.34492E-03   -0.34812E-03  4256   0.896E-03 0.104E-03
CGA:   7    -0.631295863886E+03   -0.13681E-03   -0.13805E-03  4256   0.219E-03 0.383E-04
CGA:   8    -0.631295906464E+03   -0.42578E-04   -0.42224E-04  4256   0.789E-04 0.468E-04
CGA:   9    -0.631295918629E+03   -0.12166E-04   -0.13260E-04  4256   0.328E-04 0.276E-04
CGA:  10    -0.631295921666E+03   -0.30372E-05   -0.47869E-05  4256   0.133E-04 0.257E-04
   9 F= -.63129592E+03 E0= -.63128899E+03  d E =-.310706E-02  mag=    41.0000
       N       E                     dE             d eps       ncg     rms          ort
SDA:   1    -0.631285599929E+03    0.10319E-01    0.00000E+00  4256   0.264E-01 0.000E+00
CGA:   2    -0.631293581439E+03   -0.79815E-02   -0.79741E-02  4256   0.130E-01 0.513E-04
CGA:   3    -0.631295852701E+03   -0.22713E-02   -0.22713E-02  4256   0.463E-02-0.775E-04
CGA:   4    -0.631296358003E+03   -0.50530E-03   -0.50541E-03  4256   0.108E-02 0.582E-05
CGA:   5    -0.631296550408E+03   -0.19240E-03   -0.19257E-03  4256   0.245E-03-0.282E-04
CGA:   6    -0.631296595982E+03   -0.45575E-04   -0.45572E-04  4256   0.978E-04 0.153E-06
CGA:   7    -0.631296609179E+03   -0.13197E-04   -0.13151E-04  4256   0.369E-04-0.130E-05
CGA:   8    -0.631296614569E+03   -0.53898E-05   -0.55675E-05  4256   0.936E-05 0.980E-05
  10 F= -.63129661E+03 E0= -.63128967E+03  d E =-.692903E-03  mag=    41.0000
