       N       E                     dE             d eps       ncg     rms          rms(c)
DAV:   1     0.308337269276E+04    0.30834E+04   -0.25789E+05 73028   0.131E+03
DAV:   2    -0.594746413649E+03   -0.36781E+04   -0.35520E+04 87714   0.300E+02
DAV:   3    -0.864172605671E+03   -0.26943E+03   -0.26708E+03 88472   0.855E+01
DAV:   4    -0.867753332427E+03   -0.35807E+01   -0.35664E+01 87968   0.105E+01
DAV:   5    -0.867821622838E+03   -0.68290E-01   -0.68119E-01 89952   0.133E+00    0.992E+01
DAV:   6    -0.777512161254E+03    0.90309E+02   -0.45300E+02 84400   0.328E+01    0.536E+01
DAV:   7    -0.781391924527E+03   -0.38798E+01   -0.59247E+01 83668   0.119E+01    0.218E+01
DAV:   8    -0.788349702734E+03   -0.69578E+01   -0.50095E+01 94332   0.726E+00    0.127E+01
DAV:   9    -0.790199579433E+03   -0.18499E+01   -0.19105E+01 93752   0.545E+00    0.118E+01
DAV:  10    -0.790003856394E+03    0.19572E+00   -0.17759E+01 93944   0.362E+00    0.108E+01
DAV:  11    -0.789782945812E+03    0.22091E+00   -0.73418E+00 94240   0.197E+00    0.690E+00
DAV:  12    -0.790261632727E+03   -0.47869E+00   -0.13103E+00 89720   0.188E+00    0.565E+00
DAV:  13    -0.790390647915E+03   -0.12902E+00   -0.28916E+00101936   0.161E+00    0.481E+00
DAV:  14    -0.790622410976E+03   -0.23176E+00   -0.10552E+00 90064   0.153E+00    0.455E+00
DAV:  15    -0.790649580288E+03   -0.27169E-01   -0.33674E-01 87984   0.885E-01    0.413E+00
DAV:  16    -0.790624746732E+03    0.24834E-01   -0.23336E-01 95848   0.894E-01    0.370E+00
DAV:  17    -0.790586523542E+03    0.38223E-01   -0.47212E-01 99696   0.879E-01    0.245E+00
DAV:  18    -0.790590044390E+03   -0.35208E-02   -0.29632E-01 98288   0.864E-01    0.315E+00
DAV:  19    -0.790597985455E+03   -0.79411E-02   -0.42002E-02 86680   0.424E-01    0.241E+00
DAV:  20    -0.790603624714E+03   -0.56393E-02   -0.34623E-02 92800   0.423E-01    0.131E+00
DAV:  21    -0.790611812232E+03   -0.81875E-02   -0.51199E-02 89616   0.435E-01    0.924E-01
DAV:  22    -0.790613808475E+03   -0.19962E-02   -0.73218E-03 82744   0.147E-01    0.104E+00
DAV:  23    -0.790613532119E+03    0.27636E-03   -0.30230E-04 80240   0.388E-02    0.103E+00
DAV:  24    -0.790613291412E+03    0.24071E-03   -0.17697E-04 87408   0.378E-02    0.948E-01
DAV:  25    -0.790608836215E+03    0.44552E-02   -0.25400E-02101984   0.353E-01    0.657E-01
DAV:  26    -0.790611356879E+03   -0.25207E-02   -0.42376E-03 82616   0.131E-01    0.509E-01
DAV:  27    -0.790612166774E+03   -0.80989E-03   -0.13002E-03 91664   0.795E-02    0.345E-01
DAV:  28    -0.790613039062E+03   -0.87229E-03   -0.21163E-03 88408   0.102E-01    0.207E-01
DAV:  29    -0.790613219468E+03   -0.18041E-03   -0.76374E-04 89296   0.618E-02    0.105E-01
DAV:  30    -0.790613245367E+03   -0.25899E-04   -0.16739E-04 84536   0.273E-02    0.677E-02
DAV:  31    -0.790613251058E+03   -0.56917E-05   -0.19398E-05 61776   0.934E-03
   1 F= -.79061325E+03 E0= -.79059755E+03  d E =-.790613E+03  mag=     2.0003
       N       E                     dE             d eps       ncg     rms          rms(c)
DAV:   1    -0.790613289728E+03   -0.44361E-04   -0.17280E-02 74928   0.232E-01    0.250E-01
DAV:   2    -0.790614285001E+03   -0.99527E-03   -0.17227E-02110072   0.185E-01    0.887E-01
DAV:   3    -0.790612733919E+03    0.15511E-02   -0.89719E-03 98640   0.139E-01    0.139E-01
DAV:   4    -0.790613117822E+03   -0.38390E-03   -0.78581E-04 78056   0.457E-02    0.348E-02
DAV:   5    -0.790613180888E+03   -0.63066E-04   -0.71183E-05 78024   0.175E-02    0.378E-02
DAV:   6    -0.790613183450E+03   -0.25615E-05   -0.91102E-05 56968   0.118E-02
   2 F= -.79061318E+03 E0= -.79059754E+03  d E =0.676090E-04  mag=     2.0000
       N       E                     dE             d eps       ncg     rms          rms(c)
DAV:   1    -0.790613311825E+03   -0.13094E-03   -0.74683E-03 74068   0.150E-01    0.180E-01
DAV:   2    -0.790613710436E+03   -0.39861E-03   -0.83535E-03111288   0.131E-01    0.550E-01
DAV:   3    -0.790613093258E+03    0.61718E-03   -0.33789E-03101472   0.951E-02    0.120E-01
DAV:   4    -0.790613214261E+03   -0.12100E-03   -0.37203E-04 80592   0.296E-02    0.346E-02
DAV:   5    -0.790613252395E+03   -0.38133E-04   -0.88760E-05 76056   0.146E-02    0.373E-02
DAV:   6    -0.790613255466E+03   -0.30718E-05   -0.32816E-05 50704   0.882E-03
   3 F= -.79061326E+03 E0= -.79059746E+03  d E =-.440784E-05  mag=     2.0000
       N       E                     dE             d eps       ncg     rms          rms(c)
DAV:   1    -0.790613258076E+03   -0.56812E-05   -0.35739E-04 71083   0.340E-02    0.413E-02
DAV:   2    -0.790613302371E+03   -0.44295E-04   -0.62784E-04 89680   0.328E-02    0.164E-01
DAV:   3    -0.790613241799E+03    0.60572E-04   -0.26740E-04 80792   0.247E-02    0.306E-02
DAV:   4    -0.790613252701E+03   -0.10902E-04   -0.36797E-05 60912   0.815E-03    0.970E-03
DAV:   5    -0.790613256020E+03   -0.33193E-05   -0.55000E-06 41904   0.416E-03
   4 F= -.79061326E+03 E0= -.79059751E+03  d E =-.496176E-05  mag=     2.0000
