       N       E                     dE             d eps       ncg     rms          ort
DAV:   1     0.282580933512E+04    0.28258E+04   -0.29480E+05  2880   0.141E+03
DAV:   2    -0.970091867141E+03   -0.37959E+04   -0.36629E+04  2880   0.313E+02
DAV:   3    -0.122774075543E+04   -0.25765E+03   -0.25551E+03  2880   0.850E+01
DAV:   4    -0.123074894225E+04   -0.30082E+01   -0.29979E+01  2880   0.976E+00
DAV:   5    -0.123079755684E+04   -0.48615E-01   -0.48512E-01  2880   0.114E+00
SDA:   6    -0.873774653446E+03    0.35702E+03   -0.48512E-01  2880   0.632E+03 0.000E+00
CGA:   7    -0.982240466296E+03   -0.10847E+03   -0.10981E+03  2880   0.828E+02 0.241E+02
CGA:   8    -0.993442487497E+03   -0.11202E+02   -0.13169E+02  2880   0.266E+02 0.199E+02
CGA:   9    -0.997239311175E+03   -0.37968E+01   -0.47568E+01  2880   0.193E+02 0.576E+01
CGA:  10    -0.100051121178E+04   -0.32719E+01   -0.26989E+01  2880   0.172E+02-0.665E+01
CGA:  11    -0.100155975237E+04   -0.10485E+01   -0.11324E+01  2880   0.787E+01-0.199E+01
CGA:  12    -0.100284959778E+04   -0.12898E+01   -0.12885E+01  2880   0.520E+01-0.251E+01
CGA:  13    -0.100339439097E+04   -0.54479E+00   -0.52329E+00  2880   0.106E+01-0.141E+00
CGA:  14    -0.100357521435E+04   -0.18082E+00   -0.18122E+00  2880   0.167E+01 0.200E-01
CGA:  15    -0.100378308314E+04   -0.20787E+00   -0.20723E+00  2880   0.280E+00-0.246E-01
CGA:  16    -0.100384228193E+04   -0.59199E-01   -0.59564E-01  2880   0.426E+00-0.108E-01
CGA:  17    -0.100388497409E+04   -0.42692E-01   -0.42176E-01  2880   0.720E-01 0.109E-02
CGA:  18    -0.100389976093E+04   -0.14787E-01   -0.14734E-01  2880   0.114E+00 0.281E-02
CGA:  19    -0.100391467995E+04   -0.14919E-01   -0.15073E-01  2880   0.459E-01 0.186E-02
CGA:  20    -0.100392179846E+04   -0.71185E-02   -0.70735E-02  2880   0.310E-01-0.252E-03
CGA:  21    -0.100392493669E+04   -0.31382E-02   -0.32710E-02  2880   0.224E-01 0.165E-02
CGA:  22    -0.100392926629E+04   -0.43296E-02   -0.43376E-02  2880   0.182E-01 0.807E-04
CGA:  23    -0.100393099472E+04   -0.17284E-02   -0.16138E-02  2880   0.108E-01-0.255E-03
CGA:  24    -0.100393215000E+04   -0.11553E-02   -0.25485E-02  2880   0.557E-01-0.203E-01
CGA:  25    -0.100393547315E+04   -0.33231E-02   -0.35730E-02  2880   0.818E-02-0.279E-02
CGA:  26    -0.100393628844E+04   -0.81529E-03   -0.83063E-03  2880   0.707E-02 0.677E-03
CGA:  27    -0.100393788373E+04   -0.15953E-02   -0.24192E-02  2880   0.338E-01-0.570E-02
CGA:  28    -0.100393957922E+04   -0.16955E-02   -0.18940E-02  2880   0.523E-02-0.278E-02
CGA:  29    -0.100393987597E+04   -0.29674E-03   -0.32475E-03  2880   0.166E-02 0.371E-03
CGA:  30    -0.100394027747E+04   -0.40151E-03   -0.49723E-03  2880   0.573E-02-0.801E-03
CGA:  31    -0.100394052003E+04   -0.24256E-03   -0.16372E-03  2880   0.650E-02 0.805E-03
CGA:  32    -0.100394088249E+04   -0.36247E-03   -0.27319E-03  2880   0.297E-02 0.295E-02
CGA:  33    -0.100394106444E+04   -0.18195E-03   -0.19265E-03  2880   0.155E-02 0.644E-03
CGA:  34    -0.100394118670E+04   -0.12227E-03   -0.12781E-03  2880   0.164E-02 0.131E-03
CGA:  35    -0.100394130206E+04   -0.11535E-03   -0.10450E-03  2880   0.106E-02-0.102E-03
CGA:  36    -0.100394136307E+04   -0.61011E-04   -0.52050E-04  2880   0.747E-03-0.786E-04
CGA:  37    -0.100394138763E+04   -0.24561E-04   -0.30211E-04  2880   0.460E-03 0.855E-04
CGA:  38    -0.100394139227E+04   -0.46459E-05   -0.16693E-04  2880   0.236E-03 0.140E-03
   1 F= -.10039414E+04 E0= -.10039239E+04  d E =-.100394E+04  mag=     1.0000
       N       E                     dE             d eps       ncg     rms          ort
SDA:   1    -0.100397016116E+04   -0.28774E-01    0.00000E+00  2880   0.214E-01 0.000E+00
CGA:   2    -0.100397157922E+04   -0.14181E-02   -0.14402E-02  2880   0.902E-02 0.784E-03
CGA:   3    -0.100397239999E+04   -0.82077E-03   -0.79726E-03  2880   0.489E-02-0.779E-03
CGA:   4    -0.100397313229E+04   -0.73229E-03   -0.73204E-03  2880   0.274E-02 0.380E-05
CGA:   5    -0.100397332271E+04   -0.19042E-03   -0.20454E-03  2880   0.506E-03 0.300E-03
CGA:   6    -0.100397336584E+04   -0.43128E-04   -0.48099E-04  2880   0.205E-03 0.159E-03
CGA:   7    -0.100397338503E+04   -0.19193E-04   -0.71504E-04  2880   0.147E-02-0.351E-03
CGA:   8    -0.100397342168E+04   -0.36656E-04   -0.56645E-04  2880   0.166E-03 0.220E-03
CGA:   9    -0.100397343317E+04   -0.11488E-04   -0.12552E-04  2880   0.496E-04 0.199E-04
CGA:  10    -0.100397344977E+04   -0.16599E-04    0.11441E-04  2880   0.717E-04-0.309E-04
CGA:  11    -0.100397344815E+04    0.16225E-05   -0.16931E-05  2880   0.214E-04 0.354E-04
   2 F= -.10039734E+04 E0= -.10039560E+04  d E =-.320559E-01  mag=     0.9982
       N       E                     dE             d eps       ncg     rms          ort
SDA:   1    -0.100280421823E+04    0.11692E+01    0.00000E+00  2880   0.121E+02 0.000E+00
CGA:   2    -0.100352627052E+04   -0.72205E+00   -0.89944E+00  2880   0.483E+01 0.340E+00
CGA:   3    -0.100393082831E+04   -0.40456E+00   -0.42025E+00  2880   0.381E+01 0.116E+00
CGA:   4    -0.100445438343E+04   -0.52356E+00   -0.51011E+00  2880   0.959E+00 0.359E+00
CGA:   5    -0.100453770852E+04   -0.83325E-01   -0.75058E-01  2880   0.285E+00-0.115E-01
CGA:   6    -0.100458711237E+04   -0.49404E-01   -0.49481E-01  2880   0.356E+00-0.205E-02
CGA:   7    -0.100460880832E+04   -0.21696E-01   -0.22633E-01  2880   0.438E-01 0.223E-02
CGA:   8    -0.100461495353E+04   -0.61452E-02   -0.61839E-02  2880   0.334E-01-0.153E-02
CGA:   9    -0.100461773854E+04   -0.27850E-02   -0.28103E-02  2880   0.225E-01 0.137E-02
CGA:  10    -0.100462088873E+04   -0.31502E-02   -0.31456E-02  2880   0.526E-02 0.377E-04
CGA:  11    -0.100462153515E+04   -0.64642E-03   -0.63616E-03  2880   0.652E-02 0.758E-03
CGA:  12    -0.100462256193E+04   -0.10268E-02   -0.10592E-02  2880   0.406E-02-0.998E-03
CGA:  13    -0.100462278507E+04   -0.22313E-03   -0.23819E-03  2880   0.113E-02 0.370E-03
CGA:  14    -0.100462296577E+04   -0.18070E-03   -0.18079E-03  2880   0.615E-03-0.439E-05
CGA:  15    -0.100462306665E+04   -0.10088E-03   -0.93417E-04  2880   0.256E-03 0.175E-03
CGA:  16    -0.100462309328E+04   -0.26631E-04   -0.70049E-04  2880   0.187E-02-0.435E-03
CGA:  17    -0.100462313487E+04   -0.41585E-04   -0.64026E-04  2880   0.146E-03 0.261E-03
CGA:  18    -0.100462313987E+04   -0.50091E-05   -0.86196E-05  2880   0.739E-04 0.589E-04
CGA:  19    -0.100462315081E+04   -0.10940E-04   -0.10658E-04  2880   0.791E-04-0.399E-04
CGA:  20    -0.100462315500E+04   -0.41878E-05   -0.50773E-05  2880   0.270E-04 0.192E-04
   3 F= -.10046232E+04 E0= -.10046057E+04  d E =-.649707E+00  mag=     0.9982
       N       E                     dE             d eps       ncg     rms          ort
SDA:   1    -0.100091638705E+04    0.37068E+01    0.00000E+00  2880   0.174E+02 0.000E+00
CGA:   2    -0.100256235215E+04   -0.16460E+01   -0.15419E+01  2880   0.198E+02-0.555E+01
CGA:   3    -0.100368694989E+04   -0.11246E+01   -0.97452E+00  2880   0.920E+01-0.332E+01
CGA:   4    -0.100452727478E+04   -0.84032E+00   -0.85751E+00  2880   0.401E+01-0.167E+01
CGA:   5    -0.100481658910E+04   -0.28931E+00   -0.29290E+00  2880   0.150E+01 0.366E-01
CGA:   6    -0.100494077986E+04   -0.12419E+00   -0.12009E+00  2880   0.134E+01 0.294E-01
CGA:   7    -0.100497188346E+04   -0.31104E-01   -0.26242E-01  2880   0.772E+00 0.215E+00
CGA:   8    -0.100500008764E+04   -0.28204E-01   -0.34449E-01  2880   0.112E+01-0.105E+00
CGA:   9    -0.100502201273E+04   -0.21925E-01   -0.21876E-01  2880   0.107E+01 0.516E-02
CGA:  10    -0.100504175240E+04   -0.19740E-01   -0.30918E-01  2880   0.978E+00-0.299E+00
CGA:  11    -0.100505686024E+04   -0.15108E-01   -0.24012E-01  2880   0.762E+00-0.199E+00
CGA:  12    -0.100508083405E+04   -0.23974E-01   -0.27120E-01  2880   0.733E+00-0.479E-01
CGA:  13    -0.100510797623E+04   -0.27142E-01   -0.19398E-01  2880   0.242E+00 0.199E+00
CGA:  14    -0.100511440348E+04   -0.64273E-02   -0.54513E-02  2880   0.725E-01 0.566E-01
CGA:  15    -0.100511696787E+04   -0.25644E-02   -0.25689E-02  2880   0.838E-01 0.360E-02
CGA:  16    -0.100512076196E+04   -0.37941E-02   -0.39210E-02  2880   0.198E+00 0.108E-02
CGA:  17    -0.100512808056E+04   -0.73186E-02   -0.75922E-02  2880   0.224E+00 0.643E-03
CGA:  18    -0.100513332887E+04   -0.52483E-02   -0.57529E-02  2880   0.927E-01-0.161E-01
CGA:  19    -0.100513557090E+04   -0.22420E-02   -0.21883E-02  2880   0.483E-01-0.476E-02
CGA:  20    -0.100513732031E+04   -0.17494E-02   -0.17081E-02  2880   0.466E-01-0.352E-02
CGA:  21    -0.100513896506E+04   -0.16448E-02   -0.16470E-02  2880   0.322E-01-0.129E-02
CGA:  22    -0.100513993042E+04   -0.96536E-03   -0.98742E-03  2880   0.255E-01 0.136E-02
CGA:  23    -0.100514121948E+04   -0.12891E-02   -0.13138E-02  2880   0.388E-01 0.191E-02
CGA:  24    -0.100514288876E+04   -0.16693E-02   -0.16793E-02  2880   0.262E-01 0.108E-02
CGA:  25    -0.100514368887E+04   -0.80011E-03   -0.78240E-03  2880   0.106E-01-0.141E-02
CGA:  26    -0.100514417586E+04   -0.48699E-03   -0.46285E-03  2880   0.124E-01-0.191E-02
CGA:  27    -0.100514473291E+04   -0.55705E-03   -0.55183E-03  2880   0.143E-01-0.134E-02
CGA:  28    -0.100514511608E+04   -0.38317E-03   -0.39664E-03  2880   0.771E-02 0.486E-03
CGA:  29    -0.100514537101E+04   -0.25493E-03   -0.28055E-03  2880   0.700E-02 0.115E-02
CGA:  30    -0.100514572375E+04   -0.35275E-03   -0.36341E-03  2880   0.646E-02 0.107E-02
CGA:  31    -0.100514599864E+04   -0.27488E-03   -0.27357E-03  2880   0.311E-02-0.116E-03
SDA:  32    -0.100514615423E+04   -0.15559E-03   -0.15101E-03  2880   0.309E-02-0.877E-03
CGA:  33    -0.100514631255E+04   -0.15832E-03   -0.15942E-03  2880   0.997E-03 0.384E-03
CGA:  34    -0.100514639475E+04   -0.82200E-04   -0.40178E-04  2880   0.629E-02-0.121E-02
CGA:  35    -0.100514673034E+04   -0.33559E-03   -0.36794E-03  2880   0.594E-03 0.845E-03
CGA:  36    -0.100514679170E+04   -0.61359E-04   -0.61133E-04  2880   0.370E-03-0.408E-04
CGA:  37    -0.100514681651E+04   -0.24812E-04   -0.26514E-04  2880   0.210E-03 0.839E-04
CGA:  38    -0.100514686429E+04   -0.47774E-04   -0.51512E-04  2880   0.630E-03-0.370E-04
CGA:  39    -0.100514691637E+04   -0.52086E-04   -0.51984E-04  2880   0.711E-03-0.109E-03
CGA:  40    -0.100514693684E+04   -0.20467E-04   -0.25033E-04  2880   0.338E-03 0.865E-04
CGA:  41    -0.100514694415E+04   -0.73105E-05   -0.12891E-04  2880   0.156E-03 0.896E-04
CGA:  42    -0.100514695449E+04   -0.10341E-04   -0.11021E-04  2880   0.158E-03 0.178E-04
CGA:  43    -0.100514685656E+04    0.97926E-04   -0.54176E-04  2880   0.172E-02-0.711E-03
CGA:  44    -0.100514697861E+04   -0.12205E-03   -0.13103E-03  2880   0.166E-03 0.321E-03
CGA:  45    -0.100514700069E+04   -0.22072E-04   -0.21922E-04  2880   0.121E-03 0.157E-04
CGA:  46    -0.100514700323E+04   -0.25479E-05   -0.63100E-05  2880   0.567E-04 0.683E-04
   4 F= -.10051470E+04 E0= -.10051297E+04  d E =-.523848E+00  mag=     0.9982
       N       E                     dE             d eps       ncg     rms          ort
SDA:   1    -0.100256509536E+04    0.25819E+01    0.00000E+00  2880   0.141E+02 0.000E+00
CGA:   2    -0.100386543945E+04   -0.13003E+01   -0.91258E+00  2880   0.123E+02-0.101E+02
CGA:   3    -0.100431744380E+04   -0.45200E+00   -0.67093E+00  2880   0.500E+01-0.275E+01
CGA:   4    -0.100500496453E+04   -0.68752E+00   -0.69026E+00  2880   0.210E+01 0.146E+00
CGA:   5    -0.100520488154E+04   -0.19992E+00   -0.18687E+00  2880   0.101E+01-0.319E+00
CGA:   6    -0.100528879265E+04   -0.83911E-01   -0.83733E-01  2880   0.417E+00-0.577E-01
CGA:   7    -0.100533687416E+04   -0.48082E-01   -0.47863E-01  2880   0.173E+00 0.963E-02
CGA:   8    -0.100534990494E+04   -0.13031E-01   -0.13117E-01  2880   0.617E-01-0.143E-02
CGA:   9    -0.100535593515E+04   -0.60302E-02   -0.60269E-02  2880   0.438E-01-0.623E-03
CGA:  10    -0.100536204322E+04   -0.61081E-02   -0.61698E-02  2880   0.197E-01-0.185E-02
CGA:  11    -0.100536337182E+04   -0.13286E-02   -0.13843E-02  2880   0.753E-02 0.184E-02
CGA:  12    -0.100536411730E+04   -0.74548E-03   -0.74792E-03  2880   0.324E-02 0.184E-03
CGA:  13    -0.100536478319E+04   -0.66589E-03   -0.61751E-03  2880   0.335E-02 0.545E-03
CGA:  14    -0.100536521693E+04   -0.43374E-03   -0.44492E-03  2880   0.390E-02-0.121E-02
CGA:  15    -0.100536538334E+04   -0.16641E-03   -0.17107E-03  2880   0.104E-02 0.140E-03
CGA:  16    -0.100536540745E+04   -0.24103E-04   -0.44130E-04  2880   0.481E-03 0.316E-03
CGA:  17    -0.100536542991E+04   -0.22467E-04   -0.32345E-04  2880   0.249E-03 0.208E-03
CGA:  18    -0.100536545894E+04   -0.29025E-04   -0.28751E-04  2880   0.397E-03-0.181E-04
CGA:  19    -0.100536548985E+04   -0.30909E-04   -0.31016E-04  2880   0.573E-03 0.870E-05
CGA:  20    -0.100536550894E+04   -0.19099E-04   -0.21086E-04  2880   0.191E-03 0.333E-04
CGA:  21    -0.100536552455E+04   -0.15609E-04   -0.12828E-04  2880   0.173E-03-0.956E-04
CGA:  22    -0.100536554507E+04   -0.20519E-04    0.13282E-04  2880   0.271E-03-0.217E-03
CGA:  23    -0.100536555014E+04   -0.50716E-05   -0.11902E-04  2880   0.851E-04 0.144E-03
   5 F= -.10053656E+04 E0= -.10053488E+04  d E =-.218547E+00  mag=     0.9983
       N       E                     dE             d eps       ncg     rms          ort
SDA:   1    -0.100346801740E+04    0.18975E+01    0.00000E+00  2880   0.123E+02 0.000E+00
CGA:   2    -0.100412052718E+04   -0.65251E+00   -0.69560E+00  2880   0.636E+01-0.117E+01
CGA:   3    -0.100458750248E+04   -0.46698E+00   -0.46091E+00  2880   0.800E+01-0.567E+00
CGA:   4    -0.100521064411E+04   -0.62314E+00   -0.62315E+00  2880   0.212E+01-0.210E-02
CGA:   5    -0.100534715781E+04   -0.13651E+00   -0.13243E+00  2880   0.705E+00-0.794E-01
CGA:   6    -0.100541194725E+04   -0.64789E-01   -0.67182E-01  2880   0.366E+00-0.103E+00
CGA:   7    -0.100544886309E+04   -0.36916E-01   -0.36432E-01  2880   0.194E+00 0.997E-02
CGA:   8    -0.100546165184E+04   -0.12789E-01   -0.13034E-01  2880   0.443E-01 0.833E-02
CGA:   9    -0.100546583038E+04   -0.41785E-02   -0.41705E-02  2880   0.219E-01 0.121E-02
CGA:  10    -0.100546897128E+04   -0.31409E-02   -0.30162E-02  2880   0.191E-01 0.249E-02
CGA:  11    -0.100547105013E+04   -0.20789E-02   -0.21028E-02  2880   0.903E-02-0.236E-02
CGA:  12    -0.100547161197E+04   -0.56183E-03   -0.57112E-03  2880   0.272E-02 0.593E-03
CGA:  13    -0.100547218030E+04   -0.56834E-03   -0.56461E-03  2880   0.279E-02 0.291E-04
CGA:  14    -0.100547235078E+04   -0.17048E-03   -0.18467E-03  2880   0.981E-03 0.501E-03
CGA:  15    -0.100547254834E+04   -0.19757E-03   -0.29212E-03  2880   0.240E-02-0.581E-03
CGA:  16    -0.100547264221E+04   -0.93863E-04   -0.11235E-03  2880   0.297E-03 0.369E-03
CGA:  17    -0.100547266479E+04   -0.22584E-04   -0.24398E-04  2880   0.170E-03 0.687E-04
CGA:  18    -0.100547267929E+04   -0.14495E-04   -0.16119E-04  2880   0.105E-03 0.869E-04
CGA:  19    -0.100547269407E+04   -0.14784E-04   -0.26147E-04  2880   0.485E-03-0.743E-04
CGA:  20    -0.100547272456E+04   -0.30488E-04   -0.26133E-04  2880   0.126E-03-0.965E-04
CGA:  21    -0.100547272265E+04    0.19053E-05   -0.28319E-05  2880   0.592E-04 0.655E-04
   6 F= -.10054727E+04 E0= -.10054566E+04  d E =-.107173E+00  mag=     0.9971
       N       E                     dE             d eps       ncg     rms          ort
SDA:   1    -0.100223642718E+04    0.32363E+01    0.00000E+00  2880   0.146E+02 0.000E+00
CGA:   2    -0.100363802424E+04   -0.14016E+01   -0.89232E+00  2880   0.105E+02-0.855E+01
CGA:   3    -0.100411450818E+04   -0.47648E+00   -0.58764E+00  2880   0.568E+01-0.103E+01
CGA:   4    -0.100502471530E+04   -0.91021E+00   -0.88398E+00  2880   0.548E+01 0.430E+00
CGA:   5    -0.100530003911E+04   -0.27532E+00   -0.34779E+00  2880   0.179E+01-0.140E+00
CGA:   6    -0.100539016505E+04   -0.90126E-01   -0.88691E-01  2880   0.460E+00-0.158E-01
CGA:   7    -0.100544554755E+04   -0.55382E-01   -0.59755E-01  2880   0.523E+00-0.872E-01
CGA:   8    -0.100547403052E+04   -0.28483E-01   -0.28379E-01  2880   0.269E+00-0.777E-02
CGA:   9    -0.100549065915E+04   -0.16629E-01   -0.16643E-01  2880   0.587E-01-0.190E-02
CGA:  10    -0.100549664325E+04   -0.59841E-02   -0.59510E-02  2880   0.262E-01 0.439E-02
CGA:  11    -0.100549853627E+04   -0.18930E-02   -0.19080E-02  2880   0.189E-01 0.459E-03
CGA:  12    -0.100550220656E+04   -0.36703E-02   -0.38172E-02  2880   0.102E-01-0.135E-02
CGA:  13    -0.100550282606E+04   -0.61950E-03   -0.63240E-03  2880   0.371E-02 0.810E-03
CGA:  14    -0.100550329832E+04   -0.47226E-03   -0.47866E-03  2880   0.580E-02-0.268E-03
CGA:  15    -0.100550389195E+04   -0.59364E-03   -0.60865E-03  2880   0.142E-02-0.788E-03
CGA:  16    -0.100550401574E+04   -0.12379E-03   -0.12251E-03  2880   0.156E-02 0.274E-03
CGA:  17    -0.100550415681E+04   -0.14107E-03   -0.14743E-03  2880   0.295E-03 0.421E-03
CGA:  18    -0.100550417988E+04   -0.23072E-04   -0.27047E-04  2880   0.174E-03 0.178E-03
CGA:  19    -0.100550421999E+04   -0.40109E-04    0.34370E-04  2880   0.123E-03 0.105E-03
CGA:  20    -0.100550423297E+04   -0.12981E-04   -0.12427E-04  2880   0.996E-04 0.725E-04
CGA:  21    -0.100550425269E+04   -0.19717E-04    0.86183E-04  2880   0.886E-04 0.491E-04
CGA:  22    -0.100550429260E+04   -0.39913E-04   -0.51921E-04  2880   0.289E-03-0.406E-04
CGA:  23    -0.100550429193E+04    0.66587E-06   -0.28085E-05  2880   0.149E-03 0.378E-04
   7 F= -.10055043E+04 E0= -.10054898E+04  d E =-.315693E-01  mag=     0.9981
       N       E                     dE             d eps       ncg     rms          ort
SDA:   1    -0.100449520128E+04    0.10091E+01    0.00000E+00  2880   0.852E+01 0.000E+00
CGA:   2    -0.100510658516E+04   -0.61138E+00   -0.35141E+00  2880   0.930E+00 0.168E+01
CGA:   3    -0.100519379091E+04   -0.87206E-01   -0.87840E-01  2880   0.224E+01-0.251E-02
CGA:   4    -0.100538075818E+04   -0.18697E+00   -0.18705E+00  2880   0.243E+01 0.600E-02
CGA:   5    -0.100544816849E+04   -0.67410E-01   -0.73550E-01  2880   0.486E+00-0.157E+00
CGA:   6    -0.100546609698E+04   -0.17928E-01   -0.16829E-01  2880   0.305E+00 0.151E-01
CGA:   7    -0.100548415796E+04   -0.18061E-01   -0.18129E-01  2880   0.336E+00-0.100E-01
CGA:   8    -0.100550047790E+04   -0.16320E-01   -0.16174E-01  2880   0.201E+00-0.768E-02
CGA:   9    -0.100551007362E+04   -0.95957E-02   -0.95507E-02  2880   0.117E+00 0.297E-02
CGA:  10    -0.100551408537E+04   -0.40117E-02   -0.39544E-02  2880   0.584E-01 0.931E-02
CGA:  11    -0.100551728745E+04   -0.32021E-02   -0.33020E-02  2880   0.658E-01 0.396E-02
CGA:  12    -0.100552004445E+04   -0.27570E-02   -0.27575E-02  2880   0.344E-01 0.297E-02
CGA:  13    -0.100552127829E+04   -0.12338E-02   -0.12592E-02  2880   0.200E-01-0.126E-02
CGA:  14    -0.100552273040E+04   -0.14521E-02   -0.14511E-02  2880   0.420E-01-0.157E-02
CGA:  15    -0.100552475992E+04   -0.20295E-02   -0.20296E-02  2880   0.255E-01-0.474E-03
CGA:  16    -0.100552534232E+04   -0.58240E-03   -0.60540E-03  2880   0.517E-02 0.717E-03
CGA:  17    -0.100552551351E+04   -0.17119E-03   -0.18220E-03  2880   0.454E-02 0.242E-03
CGA:  18    -0.100552596006E+04   -0.44655E-03   -0.45203E-03  2880   0.127E-01-0.234E-03
CGA:  19    -0.100552650025E+04   -0.54018E-03   -0.51496E-03  2880   0.656E-02-0.867E-03
CGA:  20    -0.100552666392E+04   -0.16368E-03   -0.15131E-03  2880   0.198E-02-0.312E-03
CGA:  21    -0.100552672050E+04   -0.56572E-04   -0.61577E-04  2880   0.158E-02 0.120E-03
CGA:  22    -0.100552677358E+04   -0.53079E-04   -0.65325E-04  2880   0.161E-02 0.456E-03
CGA:  23    -0.100552684274E+04   -0.69165E-04   -0.83068E-04  2880   0.133E-02 0.565E-03
CGA:  24    -0.100552692716E+04   -0.84415E-04   -0.87120E-04  2880   0.901E-03 0.186E-03
CGA:  25    -0.100552698082E+04   -0.53668E-04   -0.49719E-04  2880   0.436E-03-0.288E-03
CGA:  26    -0.100552700188E+04   -0.21057E-04   -0.21675E-04  2880   0.714E-03-0.577E-04
CGA:  27    -0.100552702395E+04   -0.22065E-04   -0.26610E-04  2880   0.457E-03 0.232E-03
CGA:  28    -0.100552703624E+04   -0.12294E-04   -0.18132E-04  2880   0.169E-03 0.185E-03
CGA:  29    -0.100552705676E+04   -0.20525E-04   -0.22542E-04  2880   0.468E-03-0.576E-04
CGA:  30    -0.100552707197E+04   -0.15205E-04   -0.22996E-04  2880   0.735E-03-0.599E-03
CGA:  31    -0.100552711110E+04   -0.39131E-04   -0.37918E-04  2880   0.236E-03-0.120E-03
CGA:  32    -0.100552711598E+04   -0.48752E-05   -0.79389E-05  2880   0.116E-03 0.142E-03
   8 F= -.10055271E+04 E0= -.10055131E+04  d E =-.228240E-01  mag=     0.9988
       N       E                     dE             d eps       ncg     rms          ort
SDA:   1    -0.100536500951E+04    0.16210E+00    0.00000E+00  2880   0.770E+00 0.000E+00
CGA:   2    -0.100541933576E+04   -0.54326E-01   -0.53102E-01  2880   0.463E+00 0.732E-01
CGA:   3    -0.100549650075E+04   -0.77165E-01   -0.77384E-01  2880   0.483E+00-0.313E-02
CGA:   4    -0.100552608016E+04   -0.29579E-01   -0.29605E-01  2880   0.510E-01 0.369E-02
CGA:   5    -0.100553617541E+04   -0.10095E-01   -0.97594E-02  2880   0.172E-01 0.234E-02
CGA:   6    -0.100553934166E+04   -0.31662E-02   -0.32232E-02  2880   0.932E-02-0.476E-03
CGA:   7    -0.100553994852E+04   -0.60685E-03   -0.59238E-03  2880   0.495E-02-0.149E-02
CGA:   8    -0.100554043311E+04   -0.48459E-03   -0.46590E-03  2880   0.207E-02 0.495E-03
CGA:   9    -0.100554059406E+04   -0.16095E-03   -0.16354E-03  2880   0.476E-03 0.468E-03
CGA:  10    -0.100554074197E+04   -0.14791E-03   -0.18246E-03  2880   0.162E-02-0.147E-03
CGA:  11    -0.100554076713E+04   -0.25166E-04   -0.32849E-04  2880   0.575E-03 0.124E-03
CGA:  12    -0.100554077680E+04   -0.96673E-05   -0.15127E-04  2880   0.232E-03 0.851E-04
CGA:  13    -0.100554079373E+04   -0.16930E-04   -0.16959E-04  2880   0.480E-03 0.777E-06
CGA:  14    -0.100554083433E+04   -0.40599E-04   -0.51086E-04  2880   0.812E-03-0.431E-03
CGA:  15    -0.100554087740E+04   -0.43073E-04   -0.41890E-04  2880   0.249E-03-0.442E-04
CGA:  16    -0.100554087764E+04   -0.23657E-06   -0.75689E-05  2880   0.102E-03 0.149E-03
   9 F= -.10055409E+04 E0= -.10055263E+04  d E =-.137617E-01  mag=     0.9983
       N       E                     dE             d eps       ncg     rms          ort
SDA:   1    -0.100518363461E+04    0.35724E+00    0.00000E+00  2880   0.113E+01 0.000E+00
CGA:   2    -0.100530491762E+04   -0.12128E+00   -0.12030E+00  2880   0.159E+01 0.233E-01
CGA:   3    -0.100548633299E+04   -0.18142E+00   -0.18191E+00  2880   0.718E+00-0.929E-02
CGA:   4    -0.100552483425E+04   -0.38501E-01   -0.40942E-01  2880   0.878E-01 0.696E-02
CGA:   5    -0.100554612338E+04   -0.21289E-01   -0.21464E-01  2880   0.240E-01-0.116E-02
CGA:   6    -0.100554867860E+04   -0.25552E-02   -0.25382E-02  2880   0.127E-01 0.538E-03
CGA:   7    -0.100555015440E+04   -0.14758E-02   -0.14362E-02  2880   0.359E-02 0.171E-02
CGA:   8    -0.100555075335E+04   -0.59895E-03   -0.74997E-03  2880   0.903E-02-0.159E-02
CGA:   9    -0.100555093642E+04   -0.18307E-03   -0.17782E-03  2880   0.400E-02-0.102E-03
CGA:  10    -0.100555101316E+04   -0.76736E-04   -0.98577E-04  2880   0.139E-02 0.279E-03
CGA:  11    -0.100555105759E+04   -0.44436E-04   -0.61809E-04  2880   0.161E-02 0.377E-03
CGA:  12    -0.100555115397E+04   -0.96380E-04   -0.10963E-03  2880   0.109E-02 0.458E-03
CGA:  13    -0.100555121067E+04   -0.56698E-04   -0.56633E-04  2880   0.472E-03-0.952E-05
CGA:  14    -0.100555126281E+04   -0.52135E-04   -0.66537E-04  2880   0.133E-02-0.239E-03
CGA:  15    -0.100555130920E+04   -0.46394E-04   -0.51228E-04  2880   0.140E-03 0.952E-04
CGA:  16    -0.100555134119E+04   -0.31989E-04    0.20316E-04  2880   0.863E-04 0.386E-04
CGA:  17    -0.100555136366E+04   -0.22476E-04    0.18470E-04  2880   0.607E-04 0.458E-04
CGA:  18    -0.100555136245E+04    0.12189E-05   -0.13823E-05  2880   0.373E-04 0.439E-04
  10 F= -.10055514E+04 E0= -.10055368E+04  d E =-.104848E-01  mag=     0.9983
       N       E                     dE             d eps       ncg     rms          ort
SDA:   1    -0.100349998655E+04    0.20514E+01    0.00000E+00  2880   0.894E+01 0.000E+00
CGA:   2    -0.100408875161E+04   -0.58877E+00   -0.59496E+00  2880   0.642E+01 0.465E-01
CGA:   3    -0.100491583057E+04   -0.82708E+00   -0.87821E+00  2880   0.939E+01-0.624E+00
CGA:   4    -0.100536543888E+04   -0.44961E+00   -0.47942E+00  2880   0.108E+01 0.930E-01
CGA:   5    -0.100545548357E+04   -0.90045E-01   -0.89333E-01  2880   0.529E+00 0.893E-01
CGA:   6    -0.100550831026E+04   -0.52827E-01   -0.53689E-01  2880   0.364E+00-0.368E-01
CGA:   7    -0.100553522651E+04   -0.26916E-01   -0.26914E-01  2880   0.124E+00 0.284E-03
CGA:   8    -0.100554760728E+04   -0.12381E-01   -0.12393E-01  2880   0.288E-01 0.784E-03
CGA:   9    -0.100555119189E+04   -0.35846E-02   -0.34596E-02  2880   0.228E-01 0.325E-02
CGA:  10    -0.100555405729E+04   -0.28654E-02   -0.29290E-02  2880   0.220E-01-0.199E-02
CGA:  11    -0.100555529858E+04   -0.12413E-02   -0.12355E-02  2880   0.265E-02-0.238E-03
CGA:  12    -0.100555584754E+04   -0.54896E-03   -0.54385E-03  2880   0.672E-02 0.340E-04
CGA:  13    -0.100555634793E+04   -0.50039E-03   -0.48751E-03  2880   0.132E-02-0.786E-03
CGA:  14    -0.100555645004E+04   -0.10211E-03   -0.10215E-03  2880   0.497E-03 0.471E-03
CGA:  15    -0.100555651007E+04   -0.60030E-04   -0.59758E-04  2880   0.285E-03 0.358E-03
CGA:  16    -0.100555656220E+04   -0.52131E-04    0.31792E-03  2880   0.201E-03 0.175E-03
CGA:  17    -0.100555657951E+04   -0.17309E-04   -0.17423E-04  2880   0.204E-03 0.825E-04
CGA:  18    -0.100555653235E+04    0.47157E-04   -0.44446E-04  2880   0.252E-02-0.446E-03
CGA:  19    -0.100555659686E+04   -0.64505E-04   -0.92240E-04  2880   0.319E-03 0.205E-03
CGA:  20    -0.100555664792E+04   -0.51057E-04   -0.51522E-04  2880   0.254E-03 0.959E-04
CGA:  21    -0.100555668646E+04   -0.38543E-04   -0.29246E-04  2880   0.291E-03-0.146E-03
CGA:  22    -0.100555668892E+04   -0.24559E-05   -0.89608E-05  2880   0.267E-04 0.524E-04
  11 F= -.10055567E+04 E0= -.10055424E+04  d E =-.532647E-02  mag=     0.9987
       N       E                     dE             d eps       ncg     rms          ort
SDA:   1    -0.100137027886E+04    0.41864E+01    0.00000E+00  2880   0.104E+02 0.000E+00
CGA:   2    -0.100331944542E+04   -0.19492E+01   -0.25216E+01  2880   0.364E+02-0.337E+01
CGA:   3    -0.100446991068E+04   -0.11505E+01   -0.11634E+01  2880   0.871E+01-0.172E+01
CGA:   4    -0.100493871933E+04   -0.46881E+00   -0.64632E+00  2880   0.426E+01 0.328E+00
CGA:   5    -0.100507560474E+04   -0.13689E+00   -0.17051E+00  2880   0.288E+01-0.119E+01
CGA:   6    -0.100523362448E+04   -0.15802E+00   -0.10823E+00  2880   0.347E+01 0.767E+00
CGA:   7    -0.100535901822E+04   -0.12539E+00   -0.12330E+00  2880   0.181E+01-0.274E+00
CGA:   8    -0.100539931177E+04   -0.40294E-01   -0.53849E-01  2880   0.115E+01-0.406E+00
CGA:   9    -0.100542549668E+04   -0.26185E-01   -0.35059E-01  2880   0.143E+01-0.184E+00
CGA:  10    -0.100547331357E+04   -0.47817E-01   -0.47885E-01  2880   0.510E+00-0.629E-02
CGA:  11    -0.100548795963E+04   -0.14646E-01   -0.16933E-01  2880   0.290E+00-0.419E-01
CGA:  12    -0.100550111782E+04   -0.13158E-01   -0.12144E-01  2880   0.277E+00 0.247E-01
CGA:  13    -0.100551367477E+04   -0.12557E-01   -0.14266E-01  2880   0.205E+00-0.167E-01
CGA:  14    -0.100552318767E+04   -0.95129E-02   -0.97422E-02  2880   0.201E+00-0.684E-02
CGA:  15    -0.100553404493E+04   -0.10857E-01   -0.10934E-01  2880   0.785E-01-0.307E-02
CGA:  16    -0.100553674352E+04   -0.26986E-02   -0.27662E-02  2880   0.360E-01 0.533E-03
CGA:  17    -0.100553918879E+04   -0.24453E-02   -0.24048E-02  2880   0.428E-01 0.469E-03
CGA:  18    -0.100554147029E+04   -0.22815E-02   -0.22629E-02  2880   0.288E-01-0.168E-02
CGA:  19    -0.100554317515E+04   -0.17049E-02   -0.16541E-02  2880   0.315E-01-0.239E-02
CGA:  20    -0.100554463629E+04   -0.14611E-02   -0.14556E-02  2880   0.140E-01-0.491E-03
CGA:  21    -0.100554509424E+04   -0.45795E-03   -0.52705E-03  2880   0.816E-02 0.122E-02
CGA:  22    -0.100554550421E+04   -0.40997E-03   -0.46185E-03  2880   0.591E-02 0.171E-02
CGA:  23    -0.100554577875E+04   -0.27454E-03   -0.30051E-03  2880   0.234E-02 0.480E-03
CGA:  24    -0.100554600424E+04   -0.22549E-03   -0.22693E-03  2880   0.418E-02-0.182E-03
CGA:  25    -0.100554620383E+04   -0.19959E-03   -0.20684E-03  2880   0.254E-02 0.254E-03
CGA:  26    -0.100554629705E+04   -0.93218E-04   -0.10661E-03  2880   0.158E-02 0.326E-03
CGA:  27    -0.100554641339E+04   -0.11633E-03   -0.11573E-03  2880   0.133E-02-0.347E-04
CGA:  28    -0.100554650539E+04   -0.92004E-04   -0.80581E-04  2880   0.111E-02-0.777E-03
CGA:  29    -0.100554656928E+04   -0.63889E-04   -0.64081E-04  2880   0.288E-03 0.235E-05
CGA:  30    -0.100554632101E+04    0.24827E-03   -0.13766E-03  2880   0.983E-02-0.942E-03
CGA:  31    -0.100554661477E+04   -0.29376E-03   -0.34229E-03  2880   0.479E-03 0.812E-03
CGA:  32    -0.100554663669E+04   -0.21922E-04   -0.27882E-04  2880   0.119E-03 0.808E-04
CGA:  33    -0.100554662091E+04    0.15781E-04   -0.41024E-04  2880   0.191E-02-0.340E-03
CGA:  34    -0.100554667029E+04   -0.49382E-04   -0.67285E-04  2880   0.117E-03 0.153E-03
CGA:  35    -0.100554667821E+04   -0.79200E-05   -0.87753E-05  2880   0.423E-04 0.136E-04
  12 F= -.10055467E+04 E0= -.10055333E+04  d E =0.100107E-01  mag=     0.9998
       N       E                     dE             d eps       ncg     rms          ort
SDA:   1    -0.100417250421E+04    0.13742E+01    0.00000E+00  2880   0.452E+01 0.000E+00
CGA:   2    -0.100457697182E+04   -0.40447E+00   -0.41490E+00  2880   0.616E+01-0.826E-01
CGA:   3    -0.100536951179E+04   -0.79254E+00   -0.79494E+00  2880   0.173E+01-0.152E+00
CGA:   4    -0.100546957789E+04   -0.10007E+00   -0.12209E+00  2880   0.459E+00-0.776E-01
CGA:   5    -0.100554859593E+04   -0.79018E-01   -0.79588E-01  2880   0.125E+00-0.731E-02
CGA:   6    -0.100555949546E+04   -0.10900E-01   -0.10733E-01  2880   0.626E-01-0.198E-02
CGA:   7    -0.100556604191E+04   -0.65464E-02   -0.65010E-02  2880   0.544E-01-0.266E-02
CGA:   8    -0.100556986199E+04   -0.38201E-02   -0.37906E-02  2880   0.771E-02 0.222E-02
CGA:   9    -0.100557133297E+04   -0.14710E-02   -0.14514E-02  2880   0.456E-02 0.323E-03
CGA:  10    -0.100557187236E+04   -0.53938E-03   -0.54286E-03  2880   0.231E-02 0.474E-03
CGA:  11    -0.100557240795E+04   -0.53559E-03   -0.68191E-03  2880   0.246E-02-0.992E-03
CGA:  12    -0.100557249730E+04   -0.89350E-04   -0.95190E-04  2880   0.126E-02 0.811E-04
CGA:  13    -0.100557255382E+04   -0.56518E-04   -0.82937E-04  2880   0.670E-03 0.434E-03
CGA:  14    -0.100557260275E+04   -0.48938E-04   -0.63847E-04  2880   0.342E-03 0.296E-03
CGA:  15    -0.100557265518E+04   -0.52422E-04   -0.51856E-04  2880   0.460E-03-0.408E-04
CGA:  16    -0.100557268507E+04   -0.29894E-04   -0.32156E-04  2880   0.370E-03 0.563E-04
CGA:  17    -0.100557270163E+04   -0.16565E-04   -0.19605E-04  2880   0.139E-03 0.460E-04
CGA:  18    -0.100557270984E+04   -0.82076E-05   -0.29509E-04  2880   0.623E-03-0.281E-03
CGA:  19    -0.100557274707E+04   -0.37227E-04   -0.37568E-04  2880   0.103E-03 0.482E-06
CGA:  20    -0.100557275305E+04   -0.59812E-05   -0.73663E-05  2880   0.530E-04 0.321E-04
  13 F= -.10055728E+04 E0= -.10055589E+04  d E =-.260748E-01  mag=     0.9993
       N       E                     dE             d eps       ncg     rms          ort
SDA:   1    -0.100544262966E+04    0.13012E+00    0.00000E+00  2880   0.121E+01 0.000E+00
CGA:   2    -0.100549101598E+04   -0.48386E-01   -0.53798E-01  2880   0.281E+00-0.109E+00
CGA:   3    -0.100554320487E+04   -0.52189E-01   -0.52508E-01  2880   0.309E+00-0.366E-02
CGA:   4    -0.100556263190E+04   -0.19427E-01   -0.19427E-01  2880   0.563E-01-0.233E-02
CGA:   5    -0.100556779664E+04   -0.51647E-02   -0.52120E-02  2880   0.333E-01 0.313E-02
CGA:   6    -0.100557093815E+04   -0.31415E-02   -0.31490E-02  2880   0.130E-01-0.265E-03
CGA:   7    -0.100557245951E+04   -0.15214E-02   -0.15160E-02  2880   0.896E-02 0.454E-03
CGA:   8    -0.100557323752E+04   -0.77801E-03   -0.75005E-03  2880   0.305E-02-0.109E-02
CGA:   9    -0.100557346080E+04   -0.22328E-03   -0.22767E-03  2880   0.125E-02 0.193E-03
CGA:  10    -0.100557366078E+04   -0.19999E-03   -0.20531E-03  2880   0.160E-02-0.112E-03
CGA:  11    -0.100557372314E+04   -0.62352E-04   -0.79319E-04  2880   0.188E-03 0.318E-03
CGA:  12    -0.100557374432E+04   -0.21181E-04   -0.21613E-04  2880   0.298E-03 0.508E-04
CGA:  13    -0.100557360319E+04    0.14112E-03   -0.16576E-03  2880   0.350E-02-0.915E-03
CGA:  14    -0.100557372410E+04   -0.12091E-03   -0.15558E-03  2880   0.891E-03 0.413E-03
CGA:  15    -0.100557378900E+04   -0.64892E-04   -0.75049E-04  2880   0.178E-03 0.262E-03
CGA:  16    -0.100557380176E+04   -0.12769E-04   -0.14831E-04  2880   0.123E-03 0.399E-04
CGA:  17    -0.100557380814E+04   -0.63768E-05   -0.98936E-05  2880   0.695E-04 0.754E-04
CGA:  18    -0.100557382356E+04   -0.15417E-04    0.44513E-03  2880   0.739E-04-0.532E-05
CGA:  19    -0.100557384513E+04   -0.21572E-04    0.86087E-05  2880   0.590E-04-0.431E-05
CGA:  20    -0.100557384509E+04    0.36620E-07   -0.22353E-05  2880   0.280E-04 0.325E-04
  14 F= -.10055738E+04 E0= -.10055598E+04  d E =-.109204E-02  mag=     0.9992
       N       E                     dE             d eps       ncg     rms          ort
SDA:   1    -0.100552076573E+04    0.53079E-01    0.00000E+00  2880   0.230E+00 0.000E+00
CGA:   2    -0.100553517140E+04   -0.14406E-01   -0.14204E-01  2880   0.164E+00 0.565E-02
CGA:   3    -0.100556485638E+04   -0.29685E-01   -0.29402E-01  2880   0.101E+00 0.332E-02
CGA:   4    -0.100557192196E+04   -0.70656E-02   -0.71728E-02  2880   0.196E-01-0.242E-02
CGA:   5    -0.100557392886E+04   -0.20069E-02   -0.20062E-02  2880   0.201E-01 0.254E-03
CGA:   6    -0.100557539070E+04   -0.14618E-02   -0.14373E-02  2880   0.409E-02-0.838E-03
CGA:   7    -0.100557588214E+04   -0.49144E-03   -0.48481E-03  2880   0.134E-02 0.286E-03
CGA:   8    -0.100557599043E+04   -0.10828E-03   -0.11669E-03  2880   0.380E-03 0.411E-03
CGA:   9    -0.100557612020E+04   -0.12977E-03   -0.16140E-03  2880   0.881E-03-0.142E-03
CGA:  10    -0.100557613357E+04   -0.13373E-04   -0.15459E-04  2880   0.305E-03 0.218E-04
CGA:  11    -0.100557614155E+04   -0.79785E-05   -0.91285E-05  2880   0.164E-03 0.124E-04
CGA:  12    -0.100557615930E+04   -0.17749E-04   -0.17726E-04  2880   0.522E-03-0.847E-04
CGA:  13    -0.100557618478E+04   -0.25477E-04   -0.24121E-04  2880   0.881E-04-0.302E-04
CGA:  14    -0.100557618460E+04    0.17270E-06   -0.31259E-05  2880   0.434E-04 0.520E-04
  15 F= -.10055762E+04 E0= -.10055622E+04  d E =-.233951E-02  mag=     0.9993
       N       E                     dE             d eps       ncg     rms          ort
SDA:   1    -0.100549414801E+04    0.82037E-01    0.00000E+00  2880   0.224E+00 0.000E+00
CGA:   2    -0.100552725547E+04   -0.33107E-01   -0.33088E-01  2880   0.468E+00 0.672E-03
CGA:   3    -0.100556761233E+04   -0.40357E-01   -0.40316E-01  2880   0.485E-01-0.353E-02
CGA:   4    -0.100557281120E+04   -0.51989E-02   -0.52220E-02  2880   0.347E-01-0.218E-02
CGA:   5    -0.100557639270E+04   -0.35815E-02   -0.35863E-02  2880   0.112E-01-0.656E-03
CGA:   6    -0.100557692246E+04   -0.52976E-03   -0.58077E-03  2880   0.376E-02 0.113E-02
CGA:   7    -0.100557744759E+04   -0.52513E-03   -0.51159E-03  2880   0.911E-03 0.541E-03
CGA:   8    -0.100557761010E+04   -0.16251E-03   -0.26419E-03  2880   0.540E-02-0.663E-03
CGA:   9    -0.100557775306E+04   -0.14295E-03   -0.17164E-03  2880   0.142E-03 0.320E-03
CGA:  10    -0.100557777400E+04   -0.20944E-04   -0.20406E-04  2880   0.294E-03 0.153E-04
CGA:  11    -0.100557780906E+04   -0.35059E-04   -0.57288E-04  2880   0.610E-03-0.312E-03
CGA:  12    -0.100557781713E+04   -0.80684E-05   -0.20855E-04  2880   0.138E-03 0.171E-03
  16 F= -.10055778E+04 E0= -.10055639E+04  d E =-.163252E-02  mag=     0.9994
       N       E                     dE             d eps       ncg     rms          ort
SDA:   1    -0.100450480172E+04    0.10730E+01    0.00000E+00  2880   0.299E+01 0.000E+00
CGA:   2    -0.100490035739E+04   -0.39556E+00   -0.38382E+00  2880   0.483E+01 0.319E+00
CGA:   3    -0.100544030365E+04   -0.53995E+00   -0.53941E+00  2880   0.883E+00-0.207E+00
CGA:   4    -0.100549685864E+04   -0.56555E-01   -0.55497E-01  2880   0.388E+00 0.646E-02
CGA:   5    -0.100555443076E+04   -0.57572E-01   -0.58072E-01  2880   0.231E+00-0.103E-01
CGA:   6    -0.100556635850E+04   -0.11928E-01   -0.12290E-01  2880   0.358E-01 0.133E-02
CGA:   7    -0.100557157295E+04   -0.52144E-02   -0.52178E-02  2880   0.447E-01-0.404E-03
CGA:   8    -0.100557486620E+04   -0.32933E-02   -0.33556E-02  2880   0.732E-02 0.232E-02
CGA:   9    -0.100557574744E+04   -0.88124E-03   -0.89399E-03  2880   0.822E-02-0.912E-03
CGA:  10    -0.100557643818E+04   -0.69074E-03   -0.69075E-03  2880   0.285E-02-0.219E-04
CGA:  11    -0.100557675347E+04   -0.31529E-03   -0.31697E-03  2880   0.249E-02-0.211E-03
CGA:  12    -0.100557691622E+04   -0.16275E-03   -0.17982E-03  2880   0.585E-03 0.714E-03
CGA:  13    -0.100557695977E+04   -0.43551E-04   -0.50321E-04  2880   0.356E-03 0.198E-03
CGA:  14    -0.100557705721E+04   -0.97436E-04   -0.20884E-03  2880   0.218E-02-0.329E-03
CGA:  15    -0.100557713222E+04   -0.75007E-04   -0.87713E-04  2880   0.242E-03 0.151E-03
CGA:  16    -0.100557715768E+04   -0.25466E-04   -0.24901E-04  2880   0.213E-03-0.366E-04
CGA:  17    -0.100557716300E+04   -0.53179E-05   -0.10486E-04  2880   0.108E-03 0.966E-04
  17 F= -.10055772E+04 E0= -.10055629E+04  d E =0.654124E-03  mag=     0.9993
       N       E                     dE             d eps       ncg     rms          ort
SDA:   1    -0.100485190685E+04    0.72525E+00    0.00000E+00  2880   0.229E+01 0.000E+00
CGA:   2    -0.100505875724E+04   -0.20685E+00   -0.20438E+00  2880   0.315E+01-0.834E-01
CGA:   3    -0.100550201567E+04   -0.44326E+00   -0.44463E+00  2880   0.323E+00-0.244E-01
CGA:   4    -0.100554558897E+04   -0.43573E-01   -0.43643E-01  2880   0.358E+00-0.525E-03
CGA:   5    -0.100556523350E+04   -0.19645E-01   -0.19867E-01  2880   0.868E-01-0.275E-02
CGA:   6    -0.100557485201E+04   -0.96185E-02   -0.96062E-02  2880   0.497E-01 0.164E-03
CGA:   7    -0.100557763567E+04   -0.27837E-02   -0.27661E-02  2880   0.173E-01 0.730E-04
CGA:   8    -0.100557930547E+04   -0.16698E-02   -0.16682E-02  2880   0.139E-01-0.784E-03
CGA:   9    -0.100558078562E+04   -0.14801E-02   -0.14719E-02  2880   0.425E-02 0.105E-02
CGA:  10    -0.100558094637E+04   -0.16075E-03   -0.19252E-03  2880   0.127E-02 0.542E-03
CGA:  11    -0.100558134996E+04   -0.40359E-03   -0.39498E-03  2880   0.258E-02 0.484E-04
CGA:  12    -0.100558149575E+04   -0.14579E-03   -0.12772E-03  2880   0.427E-03-0.313E-03
CGA:  13    -0.100558154598E+04   -0.50228E-04   -0.46740E-04  2880   0.188E-03 0.188E-03
CGA:  14    -0.100558158305E+04   -0.37074E-04   -0.34713E-04  2880   0.194E-03 0.111E-03
CGA:  15    -0.100558159100E+04   -0.79511E-05   -0.33381E-04  2880   0.187E-02-0.400E-03
CGA:  16    -0.100558162906E+04   -0.38059E-04   -0.56325E-04  2880   0.555E-04 0.208E-03
CGA:  17    -0.100558162802E+04    0.10381E-05   -0.17714E-05  2880   0.364E-04 0.356E-04
  18 F= -.10055816E+04 E0= -.10055674E+04  d E =-.446502E-02  mag=     0.9995
       N       E                     dE             d eps       ncg     rms          ort
SDA:   1    -0.100505859055E+04    0.52304E+00    0.00000E+00  2880   0.140E+01 0.000E+00
CGA:   2    -0.100529209125E+04   -0.23350E+00   -0.22458E+00  2880   0.255E+01 0.130E+00
CGA:   3    -0.100550941348E+04   -0.21732E+00   -0.21893E+00  2880   0.438E+00 0.201E-02
CGA:   4    -0.100554381492E+04   -0.34401E-01   -0.34684E-01  2880   0.174E+00-0.373E-03
CGA:   5    -0.100557264427E+04   -0.28829E-01   -0.29125E-01  2880   0.102E+00-0.475E-02
CGA:   6    -0.100557784637E+04   -0.52021E-02   -0.51068E-02  2880   0.198E-01-0.163E-02
CGA:   7    -0.100558021664E+04   -0.23703E-02   -0.23463E-02  2880   0.119E-01 0.177E-02
CGA:   8    -0.100558183274E+04   -0.16161E-02   -0.16215E-02  2880   0.622E-02-0.454E-03
CGA:   9    -0.100558229236E+04   -0.45962E-03   -0.46881E-03  2880   0.287E-02 0.345E-03
CGA:  10    -0.100558259975E+04   -0.30738E-03   -0.30512E-03  2880   0.225E-02-0.509E-03
CGA:  11    -0.100558286863E+04   -0.26889E-03   -0.28431E-03  2880   0.121E-02-0.326E-03
CGA:  12    -0.100558295921E+04   -0.90575E-04   -0.91298E-04  2880   0.669E-03 0.321E-04
CGA:  13    -0.100558297833E+04   -0.19122E-04   -0.34185E-04  2880   0.167E-03 0.266E-03
CGA:  14    -0.100558298865E+04   -0.10322E-04   -0.15137E-04  2880   0.178E-03 0.124E-03
CGA:  15    -0.100558286716E+04    0.12149E-03   -0.69447E-04  2880   0.747E-02-0.667E-03
CGA:  16    -0.100558306436E+04   -0.19720E-03   -0.23693E-03  2880   0.626E-04 0.403E-03
CGA:  17    -0.100558306275E+04    0.16045E-05   -0.17354E-05  2880   0.320E-04 0.389E-04
  19 F= -.10055831E+04 E0= -.10055690E+04  d E =-.143473E-02  mag=     0.9994
       N       E                     dE             d eps       ncg     rms          ort
SDA:   1    -0.100548858529E+04    0.94479E-01    0.00000E+00  2880   0.716E+00 0.000E+00
CGA:   2    -0.100551729775E+04   -0.28712E-01   -0.30711E-01  2880   0.204E+00-0.256E-01
CGA:   3    -0.100556800841E+04   -0.50711E-01   -0.50231E-01  2880   0.117E+00 0.361E-02
CGA:   4    -0.100557616369E+04   -0.81553E-02   -0.75760E-02  2880   0.202E-01 0.642E-02
CGA:   5    -0.100558011896E+04   -0.39553E-02   -0.40490E-02  2880   0.368E-01-0.120E-02
CGA:   6    -0.100558193526E+04   -0.18163E-02   -0.18599E-02  2880   0.280E-02 0.535E-03
CGA:   7    -0.100558226052E+04   -0.32526E-03   -0.32450E-03  2880   0.372E-02 0.119E-03
CGA:   8    -0.100558263043E+04   -0.36991E-03   -0.36883E-03  2880   0.170E-02-0.938E-04
CGA:   9    -0.100558269496E+04   -0.64526E-04   -0.78682E-04  2880   0.317E-03 0.259E-03
CGA:  10    -0.100558273546E+04   -0.40507E-04   -0.40324E-04  2880   0.591E-03 0.343E-04
CGA:  11    -0.100558280253E+04   -0.67065E-04   -0.12272E-03  2880   0.964E-03-0.677E-03
CGA:  12    -0.100558283182E+04   -0.29288E-04   -0.47589E-04  2880   0.345E-03 0.304E-03
CGA:  13    -0.100558284855E+04   -0.16733E-04   -0.25621E-04  2880   0.851E-04 0.183E-03
CGA:  14    -0.100558285633E+04   -0.77798E-05   -0.78792E-05  2880   0.891E-04 0.833E-05
  20 F= -.10055829E+04 E0= -.10055687E+04  d E =0.206425E-03  mag=     0.9993
       N       E                     dE             d eps       ncg     rms          ort
SDA:   1    -0.100549405212E+04    0.88796E-01    0.00000E+00  2880   0.445E+00 0.000E+00
CGA:   2    -0.100551804805E+04   -0.23996E-01   -0.23458E-01  2880   0.237E+00-0.221E-02
CGA:   3    -0.100557068689E+04   -0.52639E-01   -0.52884E-01  2880   0.130E+00-0.241E-02
CGA:   4    -0.100557856990E+04   -0.78830E-02   -0.81936E-02  2880   0.213E-01-0.319E-02
CGA:   5    -0.100558334527E+04   -0.47754E-02   -0.46302E-02  2880   0.342E-02 0.120E-02
CGA:   6    -0.100558383241E+04   -0.48714E-03   -0.52184E-03  2880   0.678E-02-0.994E-03
CGA:   7    -0.100558414287E+04   -0.31045E-03   -0.31350E-03  2880   0.292E-02 0.577E-04
CGA:   8    -0.100558423303E+04   -0.90159E-04   -0.11423E-03  2880   0.891E-03 0.419E-03
CGA:   9    -0.100558426673E+04   -0.33702E-04   -0.44602E-04  2880   0.428E-03 0.172E-03
CGA:  10    -0.100558429961E+04   -0.32887E-04   -0.35841E-04  2880   0.486E-03 0.954E-04
CGA:  11    -0.100558432636E+04   -0.26742E-04   -0.32167E-04  2880   0.207E-03 0.119E-03
CGA:  12    -0.100558434108E+04   -0.14726E-04   -0.15507E-04  2880   0.213E-03 0.195E-04
CGA:  13    -0.100558420318E+04    0.13790E-03   -0.90969E-04  2880   0.140E-02-0.767E-03
CGA:  14    -0.100558432640E+04   -0.12322E-03   -0.12886E-03  2880   0.493E-03 0.327E-03
CGA:  15    -0.100558434094E+04   -0.14541E-04   -0.27848E-04  2880   0.136E-03 0.209E-03
CGA:  16    -0.100558436067E+04   -0.19723E-04   -0.19969E-04  2880   0.126E-03 0.845E-04
CGA:  17    -0.100558413523E+04    0.22543E-03   -0.59695E-04  2880   0.955E-02-0.782E-03
CGA:  18    -0.100558440142E+04   -0.26618E-03   -0.31543E-03  2880   0.139E-03 0.309E-03
CGA:  19    -0.100558440489E+04   -0.34719E-05   -0.71935E-05  2880   0.393E-04 0.535E-04
  21 F= -.10055844E+04 E0= -.10055702E+04  d E =-.154856E-02  mag=     0.9994
