       N       E                     dE             d eps       ncg     rms          ort
DAV:   1     0.281351146589E+04    0.28135E+04   -0.29399E+05  2880   0.141E+03
DAV:   2    -0.972615396714E+03   -0.37861E+04   -0.36520E+04  2880   0.312E+02
DAV:   3    -0.122905843175E+04   -0.25644E+03   -0.25435E+03  2880   0.848E+01
DAV:   4    -0.123205017678E+04   -0.29917E+01   -0.29815E+01  2880   0.974E+00
DAV:   5    -0.123209852654E+04   -0.48350E-01   -0.48249E-01  2880   0.114E+00
SDA:   6    -0.877041392580E+03    0.35506E+03   -0.48249E-01  2880   0.607E+03 0.000E+00
CGA:   7    -0.985888667811E+03   -0.10885E+03   -0.10902E+03  2880   0.571E+02 0.585E+01
CGA:   8    -0.996590311003E+03   -0.10702E+02   -0.10825E+02  2880   0.278E+02 0.449E+01
CGA:   9    -0.100059072503E+04   -0.40004E+01   -0.45392E+01  2880   0.164E+02 0.253E+01
CGA:  10    -0.100288548678E+04   -0.22948E+01   -0.25393E+01  2880   0.799E+01 0.132E+00
CGA:  11    -0.100436873916E+04   -0.14833E+01   -0.14916E+01  2880   0.340E+01 0.478E+00
CGA:  12    -0.100486230614E+04   -0.49357E+00   -0.50393E+00  2880   0.388E+01-0.461E-01
CGA:  13    -0.100517347694E+04   -0.31117E+00   -0.32149E+00  2880   0.872E+00-0.217E+00
CGA:  14    -0.100526000015E+04   -0.86523E-01   -0.86670E-01  2880   0.844E+00-0.200E-01
CGA:  15    -0.100538638330E+04   -0.12638E+00   -0.11517E+00  2880   0.220E+00-0.276E-01
CGA:  16    -0.100541141064E+04   -0.25027E-01   -0.24633E-01  2880   0.222E+00 0.133E-02
CGA:  17    -0.100543244339E+04   -0.21033E-01   -0.20986E-01  2880   0.102E+00-0.657E-03
CGA:  18    -0.100544152411E+04   -0.90807E-02   -0.87717E-02  2880   0.729E-01 0.594E-03
CGA:  19    -0.100544869361E+04   -0.71695E-02   -0.72742E-02  2880   0.369E-01 0.877E-03
CGA:  20    -0.100545176273E+04   -0.30691E-02   -0.30759E-02  2880   0.261E-01 0.251E-02
CGA:  21    -0.100545428514E+04   -0.25224E-02   -0.25912E-02  2880   0.198E-01 0.110E-02
CGA:  22    -0.100545638864E+04   -0.21035E-02   -0.21065E-02  2880   0.187E-01-0.303E-03
CGA:  23    -0.100545790701E+04   -0.15184E-02   -0.15183E-02  2880   0.812E-02-0.307E-03
CGA:  24    -0.100545861818E+04   -0.71117E-03   -0.72944E-03  2880   0.705E-02 0.302E-03
CGA:  25    -0.100545918060E+04   -0.56243E-03   -0.57354E-03  2880   0.308E-02 0.342E-03
CGA:  26    -0.100545952774E+04   -0.34713E-03   -0.34903E-03  2880   0.421E-02 0.542E-04
CGA:  27    -0.100545993966E+04   -0.41192E-03   -0.41570E-03  2880   0.235E-02 0.127E-03
CGA:  28    -0.100546010716E+04   -0.16750E-03   -0.17084E-03  2880   0.138E-02 0.386E-04
CGA:  29    -0.100546022900E+04   -0.12184E-03   -0.12213E-03  2880   0.920E-03 0.204E-04
CGA:  30    -0.100546029107E+04   -0.62065E-04   -0.71996E-04  2880   0.793E-03 0.201E-03
CGA:  31    -0.100546033710E+04   -0.46030E-04   -0.64916E-04  2880   0.477E-03 0.310E-03
CGA:  32    -0.100546037830E+04   -0.41208E-04   -0.50899E-04  2880   0.456E-03 0.185E-03
CGA:  33    -0.100546048233E+04   -0.10402E-03   -0.99940E-04  2880   0.684E-03 0.124E-03
CGA:  34    -0.100546054890E+04   -0.66568E-04   -0.41933E-04  2880   0.456E-03 0.580E-03
CGA:  35    -0.100546059866E+04   -0.49766E-04   -0.49530E-04  2880   0.116E-03-0.114E-04
CGA:  36    -0.100546063362E+04   -0.34958E-04    0.25608E-04  2880   0.795E-04 0.922E-04
CGA:  37    -0.100546065818E+04   -0.24561E-04    0.18495E-04  2880   0.753E-04 0.443E-04
CGA:  38    -0.100546067172E+04   -0.13538E-04   -0.12579E-04  2880   0.199E-03 0.229E-04
CGA:  39    -0.100546077906E+04   -0.10734E-03    0.24645E-04  2880   0.378E-03 0.597E-03
CGA:  40    -0.100546082671E+04   -0.47648E-04   -0.48341E-04  2880   0.619E-03-0.201E-03
CGA:  41    -0.100546084662E+04   -0.19915E-04   -0.28601E-04  2880   0.129E-03 0.114E-03
CGA:  42    -0.100546086619E+04   -0.19570E-04   -0.19159E-04  2880   0.234E-03 0.904E-04
CGA:  43    -0.100546089514E+04   -0.28950E-04   -0.43419E-04  2880   0.115E-02-0.226E-03
CGA:  44    -0.100546093174E+04   -0.36597E-04   -0.48691E-04  2880   0.116E-03 0.144E-03
CGA:  45    -0.100546094168E+04   -0.99418E-05   -0.11913E-04  2880   0.144E-03 0.735E-04
CGA:  46    -0.100546091870E+04    0.22983E-04   -0.55044E-04  2880   0.307E-02-0.292E-03
CGA:  47    -0.100546102305E+04   -0.10436E-03   -0.12555E-03  2880   0.848E-04 0.195E-03
CGA:  48    -0.100546102565E+04   -0.25943E-05   -0.56900E-05  2880   0.625E-04 0.497E-04
CGA:  49    -0.100546100349E+04    0.22161E-04   -0.17229E-04  2880   0.266E-02-0.112E-03
CGA:  50    -0.100546109284E+04   -0.89353E-04   -0.10898E-03  2880   0.116E-04 0.477E-04
CGA:  51    -0.100546109393E+04   -0.10903E-05   -0.15555E-05  2880   0.140E-04 0.562E-05
CGA:  52    -0.100546109804E+04   -0.41139E-05   -0.13015E-04  2880   0.206E-03-0.183E-04
   1 F= -.10054611E+04 E0= -.10054450E+04  d E =-.100546E+04  mag=     1.0000
       N       E                     dE             d eps       ncg     rms          ort
SDA:   1    -0.100532595692E+04    0.13514E+00    0.00000E+00  2880   0.263E+01 0.000E+00
CGA:   2    -0.100543436300E+04   -0.10841E+00   -0.15263E+00  2880   0.537E+00-0.123E+01
CGA:   3    -0.100545552847E+04   -0.21165E-01   -0.22867E-01  2880   0.278E-01-0.141E-01
CGA:   4    -0.100545783396E+04   -0.23055E-02   -0.24185E-02  2880   0.858E-02-0.552E-03
CGA:   5    -0.100546033487E+04   -0.25009E-02   -0.25221E-02  2880   0.518E-02-0.230E-03
CGA:   6    -0.100546066248E+04   -0.32761E-03   -0.32535E-03  2880   0.167E-02-0.946E-04
CGA:   7    -0.100546087376E+04   -0.21128E-03   -0.22362E-03  2880   0.101E-02 0.195E-03
CGA:   8    -0.100546103249E+04   -0.15873E-03   -0.15147E-03  2880   0.323E-03-0.128E-03
CGA:   9    -0.100546104716E+04   -0.14669E-04   -0.22428E-04  2880   0.635E-04 0.677E-04
CGA:  10    -0.100546105568E+04   -0.85212E-05   -0.99509E-05  2880   0.634E-04 0.241E-04
CGA:  11    -0.100546106574E+04   -0.10059E-04   -0.34048E-04  2880   0.340E-03-0.118E-03
CGA:  12    -0.100546107237E+04   -0.66237E-05   -0.16898E-04  2880   0.516E-04 0.702E-04
   2 F= -.10054611E+04 E0= -.10054450E+04  d E =0.256796E-04  mag=     1.0000
       N       E                     dE             d eps       ncg     rms          ort
SDA:   1    -0.100545912124E+04    0.19445E-02    0.00000E+00  2880   0.300E-01 0.000E+00
CGA:   2    -0.100546046349E+04   -0.13423E-02   -0.14421E-02  2880   0.313E-02-0.169E-02
CGA:   3    -0.100546081064E+04   -0.34715E-03   -0.35963E-03  2880   0.274E-02 0.223E-03
CGA:   4    -0.100546129709E+04   -0.48644E-03   -0.48374E-03  2880   0.973E-03-0.323E-03
CGA:   5    -0.100546134136E+04   -0.44270E-04   -0.57405E-04  2880   0.235E-03 0.121E-03
CGA:   6    -0.100546137503E+04   -0.33670E-04   -0.35117E-04  2880   0.193E-03 0.403E-04
CGA:   7    -0.100546140884E+04   -0.33810E-04   -0.32572E-04  2880   0.605E-04-0.566E-04
CGA:   8    -0.100546140927E+04   -0.42979E-06   -0.24748E-05  2880   0.221E-04 0.191E-04
   3 F= -.10054614E+04 E0= -.10054453E+04  d E =-.336903E-03  mag=     1.0000
