       N       E                     dE             d eps       ncg     rms          ort
DAV:   1     0.283895421470E+04    0.28390E+04   -0.29258E+05  2880   0.140E+03
DAV:   2    -0.971001475934E+03   -0.38100E+04   -0.36749E+04  2880   0.313E+02
DAV:   3    -0.123122766833E+04   -0.26023E+03   -0.25858E+03  2880   0.852E+01
DAV:   4    -0.123428412381E+04   -0.30565E+01   -0.30459E+01  2880   0.982E+00
DAV:   5    -0.123433431264E+04   -0.50189E-01   -0.50080E-01  2880   0.116E+00
SDA:   6    -0.873389259284E+03    0.36095E+03   -0.50080E-01  2880   0.619E+03 0.000E+00
CGA:   7    -0.986336450716E+03   -0.11295E+03   -0.11276E+03  2880   0.442E+02-0.265E+01
CGA:   8    -0.999506405104E+03   -0.13170E+02   -0.13143E+02  2880   0.105E+02 0.222E+00
CGA:   9    -0.100335196474E+04   -0.38456E+01   -0.38469E+01  2880   0.402E+01-0.131E-01
CGA:  10    -0.100462609074E+04   -0.12741E+01   -0.12779E+01  2880   0.869E+00-0.323E-01
CGA:  11    -0.100496075728E+04   -0.33467E+00   -0.33485E+00  2880   0.190E+00-0.872E-03
CGA:  12    -0.100502628231E+04   -0.65525E-01   -0.65509E-01  2880   0.434E-01 0.104E-03
CGA:  13    -0.100504270814E+04   -0.16426E-01   -0.16550E-01  2880   0.999E-02-0.848E-03
CGA:  14    -0.100504643544E+04   -0.37273E-02   -0.36481E-02  2880   0.218E-02 0.590E-03
CGA:  15    -0.100504739225E+04   -0.95681E-03   -0.92580E-03  2880   0.542E-03 0.199E-03
CGA:  16    -0.100504767352E+04   -0.28127E-03   -0.37755E-03  2880   0.400E-03-0.252E-03
CGA:  17    -0.100504773869E+04   -0.65162E-04   -0.65130E-04  2880   0.159E-03 0.577E-06
CGA:  18    -0.100504776746E+04   -0.28772E-04   -0.32061E-04  2880   0.646E-04 0.447E-04
CGA:  19    -0.100504778102E+04   -0.13561E-04   -0.16017E-04  2880   0.336E-04 0.318E-04
CGA:  20    -0.100504779110E+04   -0.10078E-04   -0.10820E-04  2880   0.149E-04 0.144E-04
CGA:  21    -0.100504779835E+04   -0.72489E-05   -0.77892E-05  2880   0.902E-05-0.527E-05
   1 F= -.10050478E+04 E0= -.10050478E+04  d E =-.100505E+04  mag=    -0.0000
       N       E                     dE             d eps       ncg     rms          ort
SDA:   1    -0.100504725696E+04    0.53414E-03    0.00000E+00  2880   0.179E-02 0.000E+00
CGA:   2    -0.100504789803E+04   -0.64107E-03   -0.64231E-03  2880   0.453E-03-0.134E-04
CGA:   3    -0.100504801223E+04   -0.11421E-03   -0.11418E-03  2880   0.670E-04-0.154E-05
CGA:   4    -0.100504802854E+04   -0.16308E-04   -0.16581E-04  2880   0.987E-05 0.125E-04
CGA:   5    -0.100504803226E+04   -0.37186E-05   -0.36468E-05  2880   0.317E-05 0.169E-05
   2 F= -.10050480E+04 E0= -.10050480E+04  d E =-.233914E-03  mag=    -0.0000
       N       E                     dE             d eps       ncg     rms          ort
SDA:   1    -0.100504744927E+04    0.57928E-03    0.00000E+00  2880   0.121E-02 0.000E+00
CGA:   2    -0.100504786762E+04   -0.41836E-03   -0.41832E-03  2880   0.318E-03 0.100E-05
CGA:   3    -0.100504794661E+04   -0.78982E-04   -0.78811E-04  2880   0.433E-04-0.308E-05
CGA:   4    -0.100504795850E+04   -0.11896E-04   -0.12005E-04  2880   0.628E-05 0.543E-05
CGA:   5    -0.100504796099E+04   -0.24825E-05   -0.24677E-05  2880   0.198E-05 0.297E-06
   3 F= -.10050480E+04 E0= -.10050480E+04  d E =0.712759E-04  mag=    -0.0000
       N       E                     dE             d eps       ncg     rms          ort
SDA:   1    -0.100504629460E+04    0.16639E-02    0.00000E+00  2880   0.255E-02 0.000E+00
CGA:   2    -0.100504720705E+04   -0.91245E-03   -0.91263E-03  2880   0.599E-03-0.412E-05
CGA:   3    -0.100504735722E+04   -0.15017E-03   -0.15027E-03  2880   0.871E-04 0.135E-05
CGA:   4    -0.100504738161E+04   -0.24387E-04   -0.24588E-04  2880   0.127E-04 0.562E-05
CGA:   5    -0.100504738665E+04   -0.50364E-05   -0.50817E-05  2880   0.424E-05-0.748E-06
   4 F= -.10050474E+04 E0= -.10050474E+04  d E =0.574339E-03  mag=    -0.0000
       N       E                     dE             d eps       ncg     rms          ort
SDA:   1    -0.100504670098E+04    0.68063E-03    0.00000E+00  2880   0.475E-03 0.000E+00
CGA:   2    -0.100504687615E+04   -0.17517E-03   -0.17540E-03  2880   0.913E-04-0.514E-05
CGA:   3    -0.100504689809E+04   -0.21943E-04   -0.22238E-04  2880   0.128E-04 0.365E-05
CGA:   4    -0.100504690138E+04   -0.32904E-05   -0.33722E-05  2880   0.171E-05 0.117E-05
   5 F= -.10050469E+04 E0= -.10050469E+04  d E =0.485266E-03  mag=     0.0000
       N       E                     dE             d eps       ncg     rms          ort
SDA:   1    -0.100503156351E+04    0.15335E-01    0.00000E+00  2880   0.262E-01 0.000E+00
CGA:   2    -0.100504105155E+04   -0.94880E-02   -0.94892E-02  2880   0.516E-02-0.330E-04
CGA:   3    -0.100504237550E+04   -0.13240E-02   -0.13259E-02  2880   0.772E-03 0.260E-04
CGA:   4    -0.100504257168E+04   -0.19618E-03   -0.19621E-03  2880   0.106E-03 0.389E-06
CGA:   5    -0.100504260594E+04   -0.34260E-04   -0.34258E-04  2880   0.215E-04-0.417E-05
CGA:   6    -0.100504261337E+04   -0.74347E-05   -0.73906E-05  2880   0.566E-05 0.127E-05
   6 F= -.10050426E+04 E0= -.10050426E+04  d E =0.428801E-02  mag=    -0.0000
       N       E                     dE             d eps       ncg     rms          ort
SDA:   1    -0.100504026029E+04    0.23456E-02    0.00000E+00  2880   0.546E-02 0.000E+00
CGA:   2    -0.100504223266E+04   -0.19724E-02   -0.19724E-02  2880   0.133E-02-0.282E-07
CGA:   3    -0.100504256557E+04   -0.33291E-03   -0.33308E-03  2880   0.198E-03 0.218E-05
CGA:   4    -0.100504262769E+04   -0.62123E-04   -0.61952E-04  2880   0.381E-04-0.114E-04
CGA:   5    -0.100504263867E+04   -0.10983E-04   -0.11002E-04  2880   0.869E-05 0.919E-06
CGA:   6    -0.100504264143E+04   -0.27612E-05   -0.27811E-05  2880   0.219E-05 0.151E-05
   7 F= -.10050426E+04 E0= -.10050426E+04  d E =-.280603E-04  mag=     0.0000
       N       E                     dE             d eps       ncg     rms          ort
SDA:   1    -0.100504264508E+04   -0.64084E-05    0.00000E+00  2880   0.237E-02 0.000E+00
CGA:   2    -0.100504349274E+04   -0.84766E-03   -0.84760E-03  2880   0.510E-03 0.567E-05
CGA:   3    -0.100504362308E+04   -0.13034E-03   -0.12963E-03  2880   0.850E-04-0.761E-05
CGA:   4    -0.100504364510E+04   -0.22020E-04   -0.22333E-04  2880   0.110E-04 0.414E-05
CGA:   5    -0.100504364852E+04   -0.34191E-05   -0.34688E-05  2880   0.254E-05 0.130E-05
   8 F= -.10050436E+04 E0= -.10050436E+04  d E =-.100708E-02  mag=    -0.0000
