       N       E                     dE             d eps       ncg     rms          rms(c)
DAV:   1     0.103667202343E+05    0.10367E+05   -0.37713E+05 31990   0.141E+03
DAV:   2     0.520581389590E+03   -0.98461E+04   -0.92930E+04 31410   0.452E+02
DAV:   3    -0.854555993484E+03   -0.13751E+04   -0.12722E+04 34700   0.172E+02
DAV:   4    -0.937771670084E+03   -0.83216E+02   -0.80924E+02 39130   0.445E+01
DAV:   5    -0.940279532513E+03   -0.25079E+01   -0.25002E+01 38390   0.835E+00    0.189E+02
DAV:   6    -0.424053573545E+03    0.51623E+03   -0.12071E+03 38900   0.766E+01    0.903E+01
DAV:   7    -0.655090647379E+03   -0.23104E+03   -0.38756E+02 39940   0.592E+01    0.741E+01
DAV:   8    -0.688435191027E+03   -0.33345E+02   -0.50081E+01 41200   0.185E+01    0.499E+01
DAV:   9    -0.738402237607E+03   -0.49967E+02   -0.43287E+01 39420   0.142E+01    0.336E+01
DAV:  10    -0.776194248721E+03   -0.37792E+02   -0.42732E+01 41450   0.159E+01    0.311E+01
DAV:  11    -0.791788819122E+03   -0.15595E+02   -0.25121E+01 39530   0.995E+00    0.151E+01
DAV:  12    -0.794895483789E+03   -0.31067E+01   -0.60028E+00 40110   0.673E+00    0.932E+00
DAV:  13    -0.795877792970E+03   -0.98231E+00   -0.18361E+00 39110   0.380E+00    0.547E+00
DAV:  14    -0.796354780973E+03   -0.47699E+00   -0.60112E-01 36970   0.206E+00    0.323E+00
DAV:  15    -0.796545785281E+03   -0.19100E+00   -0.22193E-01 35690   0.114E+00    0.172E+00
DAV:  16    -0.796581709210E+03   -0.35924E-01   -0.64045E-02 35250   0.803E-01    0.111E+00
DAV:  17    -0.796590814951E+03   -0.91057E-02   -0.18039E-02 35330   0.429E-01    0.680E-01
DAV:  18    -0.796597936365E+03   -0.71214E-02   -0.65721E-03 36980   0.235E-01    0.527E-01
DAV:  19    -0.796603093445E+03   -0.51571E-02   -0.38092E-03 38460   0.164E-01    0.403E-01
DAV:  20    -0.796606835708E+03   -0.37423E-02   -0.25638E-03 38870   0.134E-01    0.349E-01
DAV:  21    -0.796610431173E+03   -0.35955E-02   -0.23690E-03 39480   0.131E-01    0.305E-01
DAV:  22    -0.796614228223E+03   -0.37971E-02   -0.32025E-03 41520   0.158E-01    0.255E-01
DAV:  23    -0.796617503324E+03   -0.32751E-02   -0.47156E-03 40770   0.185E-01    0.212E-01
DAV:  24    -0.796619557345E+03   -0.20540E-02   -0.39304E-03 39210   0.135E-01    0.158E-01
DAV:  25    -0.796620749113E+03   -0.11918E-02   -0.17497E-03 38180   0.967E-02    0.114E-01
DAV:  26    -0.796621439573E+03   -0.69046E-03   -0.12804E-03 38900   0.859E-02    0.824E-02
DAV:  27    -0.796621825660E+03   -0.38609E-03   -0.86000E-04 38580   0.641E-02    0.629E-02
DAV:  28    -0.796622031756E+03   -0.20610E-03   -0.32844E-04 35110   0.342E-02    0.506E-02
DAV:  29    -0.796622144993E+03   -0.11324E-03   -0.10273E-04 33700   0.283E-02    0.406E-02
DAV:  30    -0.796622215968E+03   -0.70976E-04   -0.14706E-04 36270   0.292E-02    0.341E-02
DAV:  31    -0.796622264481E+03   -0.48512E-04   -0.81706E-05 28360   0.180E-02    0.286E-02
DAV:  32    -0.796622298159E+03   -0.33679E-04   -0.27049E-05 25230   0.135E-02    0.241E-02
DAV:  33    -0.796622329966E+03   -0.31807E-04   -0.47153E-05 32690   0.188E-02    0.185E-02
DAV:  34    -0.796622350463E+03   -0.20497E-04   -0.55702E-05 30540   0.166E-02    0.149E-02
DAV:  35    -0.796622361802E+03   -0.11339E-04   -0.22266E-05 21260   0.927E-03    0.110E-02
DAV:  36    -0.796622366193E+03   -0.43909E-05   -0.61912E-06 18140   0.548E-03
   1 F= -.79662237E+03 E0= -.79662237E+03  d E =-.796622E+03  mag=    47.0005
       N       E                     dE             d eps       ncg     rms          rms(c)
DAV:   1    -0.796622416240E+03   -0.54437E-04   -0.82976E-05 32100   0.273E-02    0.761E-03
DAV:   2    -0.796622417859E+03   -0.16189E-05   -0.83706E-06 17900   0.609E-03    0.691E-03
DAV:   3    -0.796622418440E+03   -0.58099E-06   -0.86497E-07 16520   0.266E-03    0.600E-03
DAV:   4    -0.796622419324E+03   -0.88420E-06   -0.44402E-07 16520   0.192E-03
   2 F= -.79662242E+03 E0= -.79662242E+03  d E =-.531304E-04  mag=    46.9999
       N       E                     dE             d eps       ncg     rms          rms(c)
DAV:   1    -0.796618750036E+03    0.36684E-02   -0.90239E-01 34880   0.283E+00    0.320E-01
DAV:   2    -0.796626549098E+03   -0.77991E-02   -0.80547E-02 33320   0.545E-01    0.252E-01
DAV:   3    -0.796626881137E+03   -0.33204E-03   -0.22742E-03 38340   0.132E-01    0.123E-01
DAV:   4    -0.796626855448E+03    0.25690E-04   -0.21786E-04 42420   0.497E-02    0.102E-01
DAV:   5    -0.796626842422E+03    0.13025E-04   -0.15659E-04 39780   0.380E-02    0.331E-02
DAV:   6    -0.796626852131E+03   -0.97093E-05   -0.35541E-05 29240   0.170E-02
   3 F= -.79662685E+03 E0= -.79662685E+03  d E =-.443281E-02  mag=    47.0000
       N       E                     dE             d eps       ncg     rms          rms(c)
DAV:   1    -0.796622781721E+03    0.40607E-02   -0.15869E-01 35080   0.124E+00    0.161E-01
DAV:   2    -0.796624685819E+03   -0.19041E-02   -0.20337E-02 34500   0.275E-01    0.168E-01
DAV:   3    -0.796624750154E+03   -0.64335E-04   -0.88620E-04 40770   0.782E-02    0.804E-02
DAV:   4    -0.796624741680E+03    0.84738E-05   -0.89576E-05 41500   0.281E-02
   4 F= -.79662474E+03 E0= -.79662474E+03  d E =0.211045E-02  mag=    47.0000
       N       E                     dE             d eps       ncg     rms          rms(c)
DAV:   1    -0.796623003843E+03    0.17463E-02   -0.50552E-02 35430   0.757E-01    0.104E-01
DAV:   2    -0.796623737558E+03   -0.73372E-03   -0.76364E-03 34010   0.163E-01    0.909E-02
DAV:   3    -0.796623767019E+03   -0.29460E-04   -0.26948E-04 40100   0.456E-02    0.387E-02
DAV:   4    -0.796623763438E+03    0.35802E-05   -0.22250E-05 25290   0.160E-02
   5 F= -.79662376E+03 E0= -.79662376E+03  d E =0.978242E-03  mag=    47.0000
       N       E                     dE             d eps       ncg     rms          rms(c)
DAV:   1    -0.796623325842E+03    0.44118E-03   -0.15232E-02 35600   0.433E-01    0.584E-02
DAV:   2    -0.796623556647E+03   -0.23081E-03   -0.23539E-03 33330   0.874E-02    0.407E-02
DAV:   3    -0.796623568407E+03   -0.11760E-04   -0.63287E-05 30740   0.220E-02    0.182E-02
DAV:   4    -0.796623568268E+03    0.13875E-06   -0.62531E-06 17520   0.867E-03
   6 F= -.79662357E+03 E0= -.79662357E+03  d E =0.195170E-03  mag=    47.0000
       N       E                     dE             d eps       ncg     rms          rms(c)
DAV:   1    -0.796624003816E+03   -0.43541E-03   -0.13187E-02 35360   0.340E-01    0.398E-02
DAV:   2    -0.796624117331E+03   -0.11352E-03   -0.11610E-03 33240   0.641E-02    0.272E-02
DAV:   3    -0.796624122820E+03   -0.54891E-05   -0.29130E-05 26260   0.148E-02    0.145E-02
DAV:   4    -0.796624122831E+03   -0.10579E-07   -0.33483E-06 16520   0.609E-03
   7 F= -.79662412E+03 E0= -.79662412E+03  d E =-.554563E-03  mag=    47.0000
       N       E                     dE             d eps       ncg     rms          rms(c)
DAV:   1    -0.796625320679E+03   -0.11979E-02   -0.19787E-02 34950   0.400E-01    0.474E-02
DAV:   2    -0.796625487177E+03   -0.16650E-03   -0.16958E-03 33200   0.751E-02    0.290E-02
DAV:   3    -0.796625495478E+03   -0.83013E-05   -0.35652E-05 27400   0.148E-02    0.166E-02
DAV:   4    -0.796625495678E+03   -0.19936E-06   -0.42050E-06 16650   0.688E-03
   8 F= -.79662550E+03 E0= -.79662550E+03  d E =-.137285E-02  mag=    47.0000
       N       E                     dE             d eps       ncg     rms          rms(c)
DAV:   1    -0.796627570525E+03   -0.20750E-02   -0.34314E-02 34330   0.507E-01    0.572E-02
DAV:   2    -0.796627810684E+03   -0.24016E-03   -0.24848E-03 33290   0.952E-02    0.390E-02
DAV:   3    -0.796627822366E+03   -0.11682E-04   -0.65984E-05 34360   0.213E-02    0.218E-02
DAV:   4    -0.796627822170E+03    0.19536E-06   -0.58441E-06 17800   0.864E-03
   9 F= -.79662782E+03 E0= -.79662782E+03  d E =-.232649E-02  mag=    47.0000
       N       E                     dE             d eps       ncg     rms          rms(c)
DAV:   1    -0.796630021693E+03   -0.21993E-02   -0.48217E-02 34360   0.682E-01    0.850E-02
DAV:   2    -0.796630546399E+03   -0.52471E-03   -0.53882E-03 33290   0.132E-01    0.498E-02
DAV:   3    -0.796630574065E+03   -0.27666E-04   -0.13842E-04 37740   0.284E-02    0.290E-02
DAV:   4    -0.796630573507E+03    0.55751E-06   -0.10308E-05 19810   0.107E-02
  10 F= -.79663057E+03 E0= -.79663057E+03  d E =-.275134E-02  mag=    47.0000
       N       E                     dE             d eps       ncg     rms          rms(c)
DAV:   1    -0.796631117101E+03   -0.54304E-03   -0.36390E-02 35710   0.704E-01    0.913E-02
DAV:   2    -0.796631709728E+03   -0.59263E-03   -0.61559E-03 33470   0.139E-01    0.571E-02
DAV:   3    -0.796631744262E+03   -0.34533E-04   -0.18802E-04 37640   0.327E-02    0.315E-02
DAV:   4    -0.796631742652E+03    0.16097E-05   -0.13266E-05 20730   0.116E-02
  11 F= -.79663174E+03 E0= -.79663174E+03  d E =-.116914E-02  mag=    47.0000
       N       E                     dE             d eps       ncg     rms          rms(c)
DAV:   1    -0.796632032221E+03   -0.28796E-03   -0.34093E-03 35310   0.174E-01    0.235E-02
DAV:   2    -0.796632064192E+03   -0.31971E-04   -0.32167E-04 33660   0.349E-02    0.190E-02
DAV:   3    -0.796632065808E+03   -0.16154E-05   -0.83137E-06 18880   0.839E-03    0.939E-03
DAV:   4    -0.796632066192E+03   -0.38417E-06   -0.12108E-06 16520   0.364E-03
  12 F= -.79663207E+03 E0= -.79663207E+03  d E =-.323540E-03  mag=    47.0000
       N       E                     dE             d eps       ncg     rms          rms(c)
DAV:   1    -0.796629023880E+03    0.30419E-02   -0.93419E-02 35010   0.106E+00    0.133E-01
DAV:   2    -0.796630320262E+03   -0.12964E-02   -0.13762E-02 34130   0.218E-01    0.102E-01
DAV:   3    -0.796630385887E+03   -0.65625E-04   -0.53143E-04 40540   0.582E-02    0.541E-02
DAV:   4    -0.796630377678E+03    0.82091E-05   -0.46612E-05 32790   0.210E-02
  13 F= -.79663038E+03 E0= -.79663038E+03  d E =0.168851E-02  mag=    47.0000
       N       E                     dE             d eps       ncg     rms          rms(c)
DAV:   1    -0.796628383188E+03    0.20027E-02   -0.45652E-02 35440   0.780E-01    0.106E-01
DAV:   2    -0.796629136908E+03   -0.75372E-03   -0.78656E-03 33860   0.158E-01    0.715E-02
DAV:   3    -0.796629179122E+03   -0.42214E-04   -0.24584E-04 38370   0.392E-02    0.350E-02
DAV:   4    -0.796629175498E+03    0.36248E-05   -0.18743E-05 24520   0.144E-02
  14 F= -.79662918E+03 E0= -.79662918E+03  d E =0.120218E-02  mag=    47.0000
       N       E                     dE             d eps       ncg     rms          rms(c)
DAV:   1    -0.796628238007E+03    0.94112E-03   -0.24082E-03 34080   0.141E-01    0.197E-02
DAV:   2    -0.796628258857E+03   -0.20850E-04   -0.22350E-04 33590   0.288E-02    0.136E-02
DAV:   3    -0.796628260019E+03   -0.11617E-05   -0.78616E-06 18360   0.719E-03    0.901E-03
DAV:   4    -0.796628260188E+03   -0.16889E-06   -0.13541E-06 16520   0.373E-03
  15 F= -.79662826E+03 E0= -.79662826E+03  d E =0.915310E-03  mag=    47.0000
       N       E                     dE             d eps       ncg     rms          rms(c)
DAV:   1    -0.796618557378E+03    0.97026E-02   -0.17953E-01 34040   0.118E+00    0.133E-01
DAV:   2    -0.796619863249E+03   -0.13059E-02   -0.13784E-02 33490   0.230E-01    0.998E-02
DAV:   3    -0.796619923368E+03   -0.60118E-04   -0.44793E-04 41060   0.561E-02    0.523E-02
DAV:   4    -0.796619917166E+03    0.62018E-05   -0.36476E-05 30750   0.212E-02
  16 F= -.79661992E+03 E0= -.79661992E+03  d E =0.834302E-02  mag=    47.0000
       N       E                     dE             d eps       ncg     rms          rms(c)
DAV:   1    -0.796606149973E+03    0.13773E-01   -0.21316E+00 34620   0.436E+00    0.487E-01
DAV:   2    -0.796623515712E+03   -0.17366E-01   -0.17866E-01 33160   0.806E-01    0.346E-01
DAV:   3    -0.796624307975E+03   -0.79226E-03   -0.43694E-03 38600   0.182E-01    0.169E-01
DAV:   4    -0.796624244951E+03    0.63025E-04   -0.42261E-04 42200   0.702E-02    0.135E-01
DAV:   5    -0.796624222243E+03    0.22708E-04   -0.28124E-04 41610   0.515E-02    0.428E-02
DAV:   6    -0.796624241678E+03   -0.19435E-04   -0.72942E-05 36440   0.236E-02    0.243E-02
DAV:   7    -0.796624243124E+03   -0.14458E-05   -0.11671E-05 18170   0.986E-03
  17 F= -.79662424E+03 E0= -.79662424E+03  d E =-.432596E-02  mag=    47.0000
       N       E                     dE             d eps       ncg     rms          rms(c)
DAV:   1    -0.796623695325E+03    0.54635E-03   -0.29347E-02 34840   0.558E-01    0.730E-02
DAV:   2    -0.796624082009E+03   -0.38668E-03   -0.41432E-03 34500   0.122E-01    0.668E-02
DAV:   3    -0.796624099713E+03   -0.17704E-04   -0.18286E-04 38460   0.345E-02    0.336E-02
DAV:   4    -0.796624097061E+03    0.26519E-05   -0.14020E-05 21640   0.129E-02
  18 F= -.79662410E+03 E0= -.79662410E+03  d E =0.146062E-03  mag=    47.0000
       N       E                     dE             d eps       ncg     rms          rms(c)
DAV:   1    -0.796622300830E+03    0.17989E-02   -0.28842E-01 35060   0.166E+00    0.183E-01
DAV:   2    -0.796624838536E+03   -0.25377E-02   -0.25907E-02 32350   0.298E-01    0.966E-02
DAV:   3    -0.796624959071E+03   -0.12054E-03   -0.48759E-04 38840   0.475E-02    0.542E-02
DAV:   4    -0.796624951630E+03    0.74417E-05   -0.38530E-05 24140   0.157E-02
  19 F= -.79662495E+03 E0= -.79662495E+03  d E =-.854568E-03  mag=    47.0000
       N       E                     dE             d eps       ncg     rms          rms(c)
DAV:   1    -0.796601047647E+03    0.23911E-01   -0.30149E+00 35040   0.532E+00    0.584E-01
DAV:   2    -0.796626639227E+03   -0.25592E-01   -0.26073E-01 31470   0.946E-01    0.310E-01
DAV:   3    -0.796627856108E+03   -0.12169E-02   -0.46654E-03 39260   0.149E-01    0.172E-01
DAV:   4    -0.796627786454E+03    0.69655E-04   -0.41591E-04 42570   0.512E-02    0.105E-01
DAV:   5    -0.796627834241E+03   -0.47787E-04   -0.16185E-04 43230   0.374E-02    0.333E-02
DAV:   6    -0.796627846798E+03   -0.12557E-04   -0.48350E-05 32880   0.227E-02    0.233E-02
DAV:   7    -0.796627847562E+03   -0.76411E-06   -0.62794E-06 17120   0.107E-02
  20 F= -.79662785E+03 E0= -.79662785E+03  d E =-.289593E-02  mag=    47.0000
       N       E                     dE             d eps       ncg     rms          rms(c)
DAV:   1    -0.796385974956E+03    0.24187E+00   -0.28724E+01 35310   0.164E+01    0.180E+00
DAV:   2    -0.796622636970E+03   -0.23666E+00   -0.24135E+00 31540   0.288E+00    0.956E-01
DAV:   3    -0.796634250891E+03   -0.11614E-01   -0.43783E-02 39090   0.462E-01    0.522E-01
DAV:   4    -0.796633534935E+03    0.71596E-03   -0.38460E-03 42620   0.153E-01    0.318E-01
DAV:   5    -0.796633910196E+03   -0.37526E-03   -0.15161E-03 43450   0.112E-01    0.101E-01
DAV:   6    -0.796634022413E+03   -0.11222E-03   -0.47653E-04 42910   0.677E-02    0.663E-02
DAV:   7    -0.796634022556E+03   -0.14369E-06   -0.49120E-05 34270   0.298E-02
  21 F= -.79663402E+03 E0= -.79663402E+03  d E =-.617499E-02  mag=    47.0000
       N       E                     dE             d eps       ncg     rms          rms(c)
DAV:   1    -0.796624941142E+03    0.90813E-02   -0.10322E+00 35160   0.316E+00    0.363E-01
DAV:   2    -0.796635080481E+03   -0.10139E-01   -0.10439E-01 33170   0.594E-01    0.208E-01
DAV:   3    -0.796635567642E+03   -0.48716E-03   -0.24615E-03 38960   0.117E-01    0.118E-01
DAV:   4    -0.796635540218E+03    0.27424E-04   -0.21178E-04 44930   0.412E-02    0.791E-02
DAV:   5    -0.796635542223E+03   -0.20051E-05   -0.11710E-04 41040   0.331E-02    0.320E-02
DAV:   6    -0.796635550881E+03   -0.86585E-05   -0.29800E-05 26920   0.185E-02
  22 F= -.79663555E+03 E0= -.79663555E+03  d E =-.152832E-02  mag=    47.0000
       N       E                     dE             d eps       ncg     rms          rms(c)
DAV:   1    -0.796634850227E+03    0.69200E-03   -0.12539E-01 35040   0.109E+00    0.123E-01
DAV:   2    -0.796635924108E+03   -0.10739E-02   -0.10906E-02 32030   0.194E-01    0.659E-02
DAV:   3    -0.796635981292E+03   -0.57184E-04   -0.20371E-04 38300   0.314E-02    0.370E-02
DAV:   4    -0.796635980782E+03    0.50996E-06   -0.15178E-05 19030   0.107E-02
  23 F= -.79663598E+03 E0= -.79663598E+03  d E =-.429900E-03  mag=    47.0000
       N       E                     dE             d eps       ncg     rms          rms(c)
DAV:   1    -0.796615054192E+03    0.20927E-01   -0.25849E+00 35210   0.496E+00    0.544E-01
DAV:   2    -0.796636876147E+03   -0.21822E-01   -0.22236E-01 31460   0.873E-01    0.286E-01
DAV:   3    -0.796637942929E+03   -0.10668E-02   -0.39658E-03 38580   0.136E-01    0.158E-01
DAV:   4    -0.796637883044E+03    0.59885E-04   -0.34810E-04 40280   0.438E-02    0.941E-02
DAV:   5    -0.796637926822E+03   -0.43778E-04   -0.12390E-04 39470   0.297E-02    0.285E-02
DAV:   6    -0.796637936637E+03   -0.98152E-05   -0.32963E-05 24430   0.178E-02
  24 F= -.79663794E+03 E0= -.79663794E+03  d E =-.195586E-02  mag=    47.0000
       N       E                     dE             d eps       ncg     rms          rms(c)
DAV:   1    -0.796361518871E+03    0.27641E+00   -0.32216E+01 35180   0.175E+01    0.192E+00
DAV:   2    -0.796631995040E+03   -0.27048E+00   -0.27550E+00 31400   0.308E+00    0.101E+00
DAV:   3    -0.796645244050E+03   -0.13249E-01   -0.49112E-02 38530   0.479E-01    0.551E-01
DAV:   4    -0.796644450868E+03    0.79318E-03   -0.42712E-03 40020   0.151E-01    0.328E-01
DAV:   5    -0.796644940055E+03   -0.48919E-03   -0.15088E-03 40540   0.102E-01    0.953E-02
DAV:   6    -0.796645052346E+03   -0.11229E-03   -0.42147E-04 41460   0.580E-02    0.601E-02
DAV:   7    -0.796645053254E+03   -0.90781E-06   -0.33784E-05 29720   0.273E-02
  25 F= -.79664505E+03 E0= -.79664505E+03  d E =-.711662E-02  mag=    47.0000
       N       E                     dE             d eps       ncg     rms          rms(c)
DAV:   1    -0.796448547461E+03    0.19650E+00   -0.23215E+01 35020   0.148E+01    0.161E+00
DAV:   2    -0.796643621110E+03   -0.19507E+00   -0.19906E+00 31530   0.261E+00    0.851E-01
DAV:   3    -0.796652858275E+03   -0.92372E-02   -0.35921E-02 38820   0.413E-01    0.467E-01
DAV:   4    -0.796652250441E+03    0.60783E-03   -0.31127E-03 40740   0.131E-01    0.281E-01
DAV:   5    -0.796652561676E+03   -0.31123E-03   -0.11541E-03 41130   0.919E-02    0.832E-02
DAV:   6    -0.796652647454E+03   -0.85779E-04   -0.35511E-04 42220   0.531E-02    0.530E-02
DAV:   7    -0.796652647454E+03    0.40745E-09   -0.28562E-05 27330   0.243E-02
  26 F= -.79665265E+03 E0= -.79665265E+03  d E =-.759420E-02  mag=    47.0000
       N       E                     dE             d eps       ncg     rms          rms(c)
DAV:   1    -0.796650409468E+03    0.22380E-02   -0.33909E-01 34880   0.186E+00    0.215E-01
DAV:   2    -0.796653708114E+03   -0.32986E-02   -0.34054E-02 33270   0.340E-01    0.123E-01
DAV:   3    -0.796653890073E+03   -0.18196E-03   -0.83222E-04 38910   0.677E-02    0.696E-02
DAV:   4    -0.796653881818E+03    0.82546E-05   -0.65652E-05 34870   0.221E-02
  27 F= -.79665388E+03 E0= -.79665388E+03  d E =-.123436E-02  mag=    47.0000
       N       E                     dE             d eps       ncg     rms          rms(c)
DAV:   1    -0.796649234387E+03    0.46557E-02   -0.61986E-01 35080   0.249E+00    0.280E-01
DAV:   2    -0.796654886026E+03   -0.56516E-02   -0.57804E-02 32780   0.442E-01    0.151E-01
DAV:   3    -0.796655179586E+03   -0.29356E-03   -0.11615E-03 39420   0.764E-02    0.862E-02
DAV:   4    -0.796655169577E+03    0.10009E-04   -0.10148E-04 39210   0.269E-02    0.534E-02
DAV:   5    -0.796655181085E+03   -0.11508E-04   -0.43300E-05 32600   0.208E-02    0.198E-02
DAV:   6    -0.796655184357E+03   -0.32715E-05   -0.12778E-05 17800   0.135E-02
  28 F= -.79665518E+03 E0= -.79665518E+03  d E =-.130254E-02  mag=    47.0000
       N       E                     dE             d eps       ncg     rms          rms(c)
DAV:   1    -0.796654098561E+03    0.10825E-02   -0.20475E-01 35170   0.140E+00    0.156E-01
DAV:   2    -0.796655870167E+03   -0.17716E-02   -0.17995E-02 31700   0.249E-01    0.819E-02
DAV:   3    -0.796655960127E+03   -0.89959E-04   -0.32351E-04 38530   0.390E-02    0.452E-02
DAV:   4    -0.796655956703E+03    0.34238E-05   -0.24877E-05 21150   0.125E-02
  29 F= -.79665596E+03 E0= -.79665596E+03  d E =-.772346E-03  mag=    47.0000
       N       E                     dE             d eps       ncg     rms          rms(c)
DAV:   1    -0.796505935542E+03    0.15002E+00   -0.17141E+01 35210   0.129E+01    0.143E+00
DAV:   2    -0.796656130100E+03   -0.15019E+00   -0.15290E+00 31400   0.229E+00    0.749E-01
DAV:   3    -0.796663532756E+03   -0.74027E-02   -0.27430E-02 38700   0.357E-01    0.411E-01
DAV:   4    -0.796663126144E+03    0.40661E-03   -0.23603E-03 40380   0.114E-01    0.246E-01
DAV:   5    -0.796663400722E+03   -0.27458E-03   -0.82722E-04 41410   0.780E-02    0.722E-02
DAV:   6    -0.796663463302E+03   -0.62580E-04   -0.24033E-04 42110   0.459E-02    0.465E-02
DAV:   7    -0.796663462887E+03    0.41579E-06   -0.19763E-05 25300   0.214E-02
  30 F= -.79666346E+03 E0= -.79666346E+03  d E =-.750618E-02  mag=    47.0000
       N       E                     dE             d eps       ncg     rms          rms(c)
DAV:   1    -0.796428981526E+03    0.23448E+00   -0.27927E+01 35030   0.162E+01    0.177E+00
DAV:   2    -0.796662858771E+03   -0.23388E+00   -0.23824E+00 31430   0.286E+00    0.931E-01
DAV:   3    -0.796674052689E+03   -0.11194E-01   -0.42783E-02 38590   0.447E-01    0.511E-01
DAV:   4    -0.796673350470E+03    0.70222E-03   -0.36779E-03 40130   0.140E-01    0.305E-01
DAV:   5    -0.796673741092E+03   -0.39062E-03   -0.13268E-03 40870   0.967E-02    0.882E-02
DAV:   6    -0.796673840497E+03   -0.99405E-04   -0.38517E-04 41630   0.551E-02    0.563E-02
DAV:   7    -0.796673840507E+03   -0.10463E-07   -0.29167E-05 28050   0.255E-02
  31 F= -.79667384E+03 E0= -.79667384E+03  d E =-.103776E-01  mag=    47.0000
       N       E                     dE             d eps       ncg     rms          rms(c)
DAV:   1    -0.796201481303E+03    0.47236E+00   -0.53201E+01 34980   0.225E+01    0.251E+00
DAV:   2    -0.796669035229E+03   -0.46755E+00   -0.47758E+00 32300   0.404E+00    0.133E+00
DAV:   3    -0.796691958924E+03   -0.22924E-01   -0.89759E-02 38990   0.654E-01    0.731E-01
DAV:   4    -0.796690628410E+03    0.13305E-02   -0.75761E-03 41550   0.206E-01    0.443E-01
DAV:   5    -0.796691324867E+03   -0.69646E-03   -0.28426E-03 41240   0.148E-01    0.135E-01
DAV:   6    -0.796691539663E+03   -0.21480E-03   -0.93331E-04 42490   0.867E-02    0.878E-02
DAV:   7    -0.796691540802E+03   -0.11390E-05   -0.11059E-04 40560   0.402E-02    0.494E-02
DAV:   8    -0.796691547382E+03   -0.65807E-05   -0.29764E-05 27980   0.219E-02
  32 F= -.79669155E+03 E0= -.79669155E+03  d E =-.177069E-01  mag=    47.0000
       N       E                     dE             d eps       ncg     rms          rms(c)
DAV:   1    -0.796655753852E+03    0.35787E-01   -0.27022E+00 35760   0.580E+00    0.717E-01
DAV:   2    -0.796693934053E+03   -0.38180E-01   -0.41049E-01 34250   0.117E+00    0.468E-01
DAV:   3    -0.796696251196E+03   -0.23171E-02   -0.14809E-02 39650   0.279E-01    0.269E-01
DAV:   4    -0.796696034496E+03    0.21670E-03   -0.12428E-03 45190   0.895E-02    0.176E-01
DAV:   5    -0.796695987172E+03    0.47324E-04   -0.83742E-04 38720   0.743E-02    0.741E-02
DAV:   6    -0.796696000297E+03   -0.13125E-04   -0.13604E-04 38780   0.418E-02    0.460E-02
DAV:   7    -0.796696005986E+03   -0.56891E-05   -0.77596E-05 37340   0.215E-02
  33 F= -.79669601E+03 E0= -.79669601E+03  d E =-.445860E-02  mag=    47.0000
       N       E                     dE             d eps       ncg     rms          rms(c)
DAV:   1    -0.796694957110E+03    0.10432E-02   -0.17059E-01 35700   0.151E+00    0.188E-01
DAV:   2    -0.796697543934E+03   -0.25868E-02   -0.28157E-02 34640   0.310E-01    0.125E-01
DAV:   3    -0.796697712720E+03   -0.16879E-03   -0.11280E-03 39940   0.773E-02    0.723E-02
DAV:   4    -0.796697695913E+03    0.16807E-04   -0.93661E-05 41770   0.253E-02    0.472E-02
DAV:   5    -0.796697693086E+03    0.28269E-05   -0.69770E-05 34890   0.212E-02
  34 F= -.79669769E+03 E0= -.79669769E+03  d E =-.168710E-02  mag=    47.0000
       N       E                     dE             d eps       ncg     rms          rms(c)
DAV:   1    -0.796695721147E+03    0.19748E-02   -0.34421E-01 34890   0.187E+00    0.220E-01
DAV:   2    -0.796699280078E+03   -0.35589E-02   -0.36881E-02 33290   0.352E-01    0.126E-01
DAV:   3    -0.796699479114E+03   -0.19904E-03   -0.93992E-04 38600   0.698E-02    0.722E-02
DAV:   4    -0.796699469488E+03    0.96257E-05   -0.74235E-05 36220   0.228E-02
  35 F= -.79669947E+03 E0= -.79669947E+03  d E =-.177640E-02  mag=    47.0000
       N       E                     dE             d eps       ncg     rms          rms(c)
DAV:   1    -0.796694564569E+03    0.49145E-02   -0.81414E-01 35040   0.284E+00    0.315E-01
DAV:   2    -0.796702040849E+03   -0.74763E-02   -0.76205E-02 32450   0.510E-01    0.168E-01
DAV:   3    -0.796702405329E+03   -0.36448E-03   -0.14142E-03 39730   0.825E-02    0.946E-02
DAV:   4    -0.796702392221E+03    0.13109E-04   -0.12341E-04 39850   0.299E-02    0.590E-02
DAV:   5    -0.796702408219E+03   -0.15998E-04   -0.49400E-05 33740   0.227E-02    0.209E-02
DAV:   6    -0.796702412557E+03   -0.43386E-05   -0.15258E-05 18390   0.147E-02
  36 F= -.79670241E+03 E0= -.79670241E+03  d E =-.294307E-02  mag=    47.0000
       N       E                     dE             d eps       ncg     rms          rms(c)
DAV:   1    -0.796685430398E+03    0.16978E-01   -0.25339E+00 35190   0.487E+00    0.537E-01
DAV:   2    -0.796707019321E+03   -0.21589E-01   -0.21989E-01 32500   0.871E-01    0.282E-01
DAV:   3    -0.796708054692E+03   -0.10354E-02   -0.40152E-03 39410   0.140E-01    0.156E-01
DAV:   4    -0.796707997892E+03    0.56801E-04   -0.34573E-04 43850   0.465E-02    0.960E-02
DAV:   5    -0.796708034005E+03   -0.36113E-04   -0.13796E-04 42720   0.347E-02    0.318E-02
DAV:   6    -0.796708045479E+03   -0.11474E-04   -0.43061E-05 31740   0.210E-02    0.227E-02
DAV:   7    -0.796708046511E+03   -0.10317E-05   -0.70255E-06 17070   0.101E-02
  37 F= -.79670805E+03 E0= -.79670805E+03  d E =-.563395E-02  mag=    47.0000
       N       E                     dE             d eps       ncg     rms          rms(c)
DAV:   1    -0.796617712550E+03    0.90333E-01   -0.10746E+01 34940   0.102E+01    0.114E+00
DAV:   2    -0.796714113066E+03   -0.96401E-01   -0.98286E-01 32500   0.183E+00    0.597E-01
DAV:   3    -0.796718882820E+03   -0.47698E-02   -0.18343E-02 38910   0.293E-01    0.329E-01
DAV:   4    -0.796718630997E+03    0.25182E-03   -0.15254E-03 41370   0.931E-02    0.199E-01
DAV:   5    -0.796718794600E+03   -0.16360E-03   -0.56860E-04 41130   0.660E-02    0.621E-02
DAV:   6    -0.796718840717E+03   -0.46117E-04   -0.18027E-04 42270   0.386E-02    0.410E-02
DAV:   7    -0.796718842800E+03   -0.20833E-05   -0.19969E-05 24690   0.187E-02
  38 F= -.79671884E+03 E0= -.79671884E+03  d E =-.107963E-01  mag=    47.0000
       N       E                     dE             d eps       ncg     rms          rms(c)
DAV:   1    -0.796683750039E+03    0.35091E-01   -0.33314E+00 35210   0.564E+00    0.675E-01
DAV:   2    -0.796717936096E+03   -0.34186E-01   -0.36552E-01 34080   0.114E+00    0.482E-01
DAV:   3    -0.796719858326E+03   -0.19222E-02   -0.13453E-02 40640   0.279E-01    0.262E-01
DAV:   4    -0.796719635179E+03    0.22315E-03   -0.11646E-03 44830   0.970E-02    0.188E-01
DAV:   5    -0.796719575377E+03    0.59802E-04   -0.92885E-04 38310   0.792E-02    0.760E-02
DAV:   6    -0.796719598375E+03   -0.22998E-04   -0.16733E-04 38880   0.429E-02    0.496E-02
DAV:   7    -0.796719608322E+03   -0.99473E-05   -0.88312E-05 37480   0.216E-02
  39 F= -.79671961E+03 E0= -.79671961E+03  d E =-.765522E-03  mag=    47.0000
       N       E                     dE             d eps       ncg     rms          rms(c)
DAV:   1    -0.796698972626E+03    0.20626E-01   -0.13572E+00 35400   0.410E+00    0.526E-01
DAV:   2    -0.796720195995E+03   -0.21223E-01   -0.22950E-01 34410   0.857E-01    0.350E-01
DAV:   3    -0.796721504958E+03   -0.13090E-02   -0.90592E-03 40130   0.215E-01    0.204E-01
DAV:   4    -0.796721369267E+03    0.13569E-03   -0.74060E-04 44580   0.694E-02    0.133E-01
DAV:   5    -0.796721333671E+03    0.35596E-04   -0.53505E-04 38450   0.599E-02    0.605E-02
DAV:   6    -0.796721340903E+03   -0.72327E-05   -0.80470E-05 36850   0.337E-02
  40 F= -.79672134E+03 E0= -.79672134E+03  d E =-.173258E-02  mag=    47.0000
       N       E                     dE             d eps       ncg     rms          rms(c)
DAV:   1    -0.796710471751E+03    0.10862E-01   -0.10527E+00 34950   0.300E+00    0.345E-01
DAV:   2    -0.796719107579E+03   -0.86358E-02   -0.89164E-02 33170   0.555E-01    0.209E-01
DAV:   3    -0.796719552534E+03   -0.44496E-03   -0.21781E-03 39160   0.112E-01    0.115E-01
DAV:   4    -0.796719522760E+03    0.29775E-04   -0.19479E-04 44080   0.419E-02    0.812E-02
DAV:   5    -0.796719529501E+03   -0.67416E-05   -0.12619E-04 41010   0.332E-02    0.327E-02
DAV:   6    -0.796719539070E+03   -0.95689E-05   -0.31445E-05 28830   0.188E-02
  41 F= -.79671954E+03 E0= -.79671954E+03  d E =0.180183E-02  mag=    47.0000
       N       E                     dE             d eps       ncg     rms          rms(c)
DAV:   1    -0.796686297392E+03    0.33232E-01   -0.27108E+00 35490   0.500E+00    0.601E-01
DAV:   2    -0.796713258069E+03   -0.26961E-01   -0.28648E-01 33750   0.977E-01    0.381E-01
DAV:   3    -0.796714759973E+03   -0.15019E-02   -0.96203E-03 39030   0.225E-01    0.221E-01
DAV:   4    -0.796714605152E+03    0.15482E-03   -0.78694E-04 44950   0.734E-02    0.145E-01
DAV:   5    -0.796714577967E+03    0.27185E-04   -0.56845E-04 39360   0.618E-02    0.623E-02
DAV:   6    -0.796714594070E+03   -0.16103E-04   -0.10649E-04 38570   0.353E-02    0.413E-02
DAV:   7    -0.796714601216E+03   -0.71462E-05   -0.54651E-05 31420   0.182E-02
  42 F= -.79671460E+03 E0= -.79671460E+03  d E =0.493785E-02  mag=    47.0000
       N       E                     dE             d eps       ncg     rms          rms(c)
DAV:   1    -0.796695263551E+03    0.19331E-01   -0.20339E+00 35300   0.469E+00    0.572E-01
DAV:   2    -0.796721407432E+03   -0.26144E-01   -0.27935E-01 33920   0.960E-01    0.377E-01
DAV:   3    -0.796722898590E+03   -0.14912E-02   -0.99147E-03 39560   0.226E-01    0.217E-01
DAV:   4    -0.796722746908E+03    0.15168E-03   -0.78247E-04 44090   0.725E-02    0.145E-01
DAV:   5    -0.796722720503E+03    0.26405E-04   -0.57774E-04 39080   0.637E-02    0.640E-02
DAV:   6    -0.796722734935E+03   -0.14432E-04   -0.10141E-04 37640   0.361E-02    0.418E-02
DAV:   7    -0.796722743235E+03   -0.82994E-05   -0.59273E-05 32040   0.188E-02
  43 F= -.79672274E+03 E0= -.79672274E+03  d E =-.814202E-02  mag=    47.0000
       N       E                     dE             d eps       ncg     rms          rms(c)
DAV:   1    -0.796586279625E+03    0.13646E+00   -0.15307E+01 34990   0.121E+01    0.135E+00
DAV:   2    -0.796725818751E+03   -0.13954E+00   -0.14299E+00 33020   0.224E+00    0.744E-01
DAV:   3    -0.796732334581E+03   -0.65158E-02   -0.30040E-02 39450   0.400E-01    0.415E-01
DAV:   4    -0.796731918834E+03    0.41575E-03   -0.25229E-03 45220   0.140E-01    0.273E-01
DAV:   5    -0.796731969644E+03   -0.50809E-04   -0.13188E-03 43520   0.115E-01    0.977E-02
DAV:   6    -0.796732058688E+03   -0.89044E-04   -0.42833E-04 43010   0.653E-02    0.585E-02
DAV:   7    -0.796732061471E+03   -0.27831E-05   -0.71593E-05 36700   0.268E-02
  44 F= -.79673206E+03 E0= -.79673206E+03  d E =-.931824E-02  mag=    47.0000
       N       E                     dE             d eps       ncg     rms          rms(c)
DAV:   1    -0.796653227054E+03    0.78832E-01   -0.85960E+00 35060   0.907E+00    0.103E+00
DAV:   2    -0.796731422253E+03   -0.78195E-01   -0.80285E-01 33010   0.165E+00    0.582E-01
DAV:   3    -0.796735486969E+03   -0.40647E-02   -0.17504E-02 38850   0.303E-01    0.320E-01
DAV:   4    -0.796735237152E+03    0.24982E-03   -0.14479E-03 45870   0.102E-01    0.206E-01
DAV:   5    -0.796735285437E+03   -0.48285E-04   -0.74938E-04 41750   0.813E-02    0.712E-02
DAV:   6    -0.796735330718E+03   -0.45282E-04   -0.22145E-04 42840   0.475E-02    0.451E-02
DAV:   7    -0.796735332682E+03   -0.19639E-05   -0.42315E-05 31130   0.210E-02
  45 F= -.79673533E+03 E0= -.79673533E+03  d E =-.327121E-02  mag=    47.0000
       N       E                     dE             d eps       ncg     rms          rms(c)
DAV:   1    -0.796693362771E+03    0.41968E-01   -0.41852E+00 34520   0.571E+00    0.637E-01
DAV:   2    -0.796724635539E+03   -0.31273E-01   -0.32046E-01 33210   0.106E+00    0.368E-01
DAV:   3    -0.796725994779E+03   -0.13592E-02   -0.68767E-03 39750   0.198E-01    0.207E-01
DAV:   4    -0.796725872877E+03    0.12190E-03   -0.63706E-04 44370   0.749E-02    0.145E-01
DAV:   5    -0.796725869599E+03    0.32773E-05   -0.41384E-04 43680   0.598E-02    0.543E-02
DAV:   6    -0.796725901406E+03   -0.31806E-04   -0.12853E-04 42260   0.336E-02    0.363E-02
DAV:   7    -0.796725905790E+03   -0.43843E-05   -0.20857E-05 22480   0.144E-02
  46 F= -.79672591E+03 E0= -.79672591E+03  d E =0.942689E-02  mag=    47.0000
       N       E                     dE             d eps       ncg     rms          rms(c)
DAV:   1    -0.796689648819E+03    0.36253E-01   -0.35969E+00 35050   0.596E+00    0.705E-01
DAV:   2    -0.796727076735E+03   -0.37428E-01   -0.39301E-01 33500   0.120E+00    0.532E-01
DAV:   3    -0.796728826655E+03   -0.17499E-02   -0.12903E-02 40030   0.293E-01    0.280E-01
DAV:   4    -0.796728613060E+03    0.21359E-03   -0.13439E-03 43630   0.117E-01    0.225E-01
DAV:   5    -0.796728505355E+03    0.10771E-03   -0.98290E-04 38680   0.862E-02    0.788E-02
DAV:   6    -0.796728546486E+03   -0.41131E-04   -0.24573E-04 37640   0.465E-02    0.532E-02
DAV:   7    -0.796728554072E+03   -0.75863E-05   -0.71338E-05 34240   0.203E-02
  47 F= -.79672855E+03 E0= -.79672855E+03  d E =-.264828E-02  mag=    47.0000
       N       E                     dE             d eps       ncg     rms          rms(c)
DAV:   1    -0.796700011608E+03    0.28535E-01   -0.28127E+00 34980   0.574E+00    0.698E-01
DAV:   2    -0.796736187754E+03   -0.36176E-01   -0.38098E-01 33540   0.115E+00    0.468E-01
DAV:   3    -0.796738099156E+03   -0.19114E-02   -0.12535E-02 40530   0.268E-01    0.255E-01
DAV:   4    -0.796737903337E+03    0.19582E-03   -0.11850E-03 44250   0.105E-01    0.187E-01
DAV:   5    -0.796737819643E+03    0.83694E-04   -0.79107E-04 38720   0.785E-02    0.700E-02
DAV:   6    -0.796737846708E+03   -0.27066E-04   -0.17907E-04 37730   0.439E-02    0.444E-02
DAV:   7    -0.796737852415E+03   -0.57065E-05   -0.65219E-05 33330   0.191E-02
  48 F= -.79673785E+03 E0= -.79673785E+03  d E =-.929834E-02  mag=    47.0000
       N       E                     dE             d eps       ncg     rms          rms(c)
DAV:   1    -0.796733355377E+03    0.44913E-02   -0.50518E-01 34590   0.217E+00    0.258E-01
DAV:   2    -0.796738025599E+03   -0.46702E-02   -0.49297E-02 33620   0.446E-01    0.257E-01
DAV:   3    -0.796738221813E+03   -0.19621E-03   -0.18905E-03 39870   0.122E-01    0.128E-01
DAV:   4    -0.796738206219E+03    0.15593E-04   -0.19581E-04 43170   0.469E-02    0.116E-01
DAV:   5    -0.796738191655E+03    0.14565E-04   -0.18996E-04 40040   0.385E-02    0.365E-02
DAV:   6    -0.796738195887E+03   -0.42327E-05   -0.32401E-05 28780   0.174E-02
  49 F= -.79673820E+03 E0= -.79673820E+03  d E =-.343473E-03  mag=    47.0000
       N       E                     dE             d eps       ncg     rms          rms(c)
DAV:   1    -0.796736376673E+03    0.18150E-02   -0.15043E-01 34620   0.129E+00    0.159E-01
DAV:   2    -0.796738247273E+03   -0.18706E-02   -0.19877E-02 33800   0.266E-01    0.119E-01
DAV:   3    -0.796738360441E+03   -0.11317E-03   -0.73781E-04 40020   0.677E-02    0.649E-02
DAV:   4    -0.796738352721E+03    0.77204E-05   -0.63355E-05 36540   0.246E-02
  50 F= -.79673835E+03 E0= -.79673835E+03  d E =-.156834E-03  mag=    47.0000
       N       E                     dE             d eps       ncg     rms          rms(c)
DAV:   1    -0.792556771586E+03    0.41816E+01   -0.21590E+02 35660   0.526E+01    0.714E+00
DAV:   2    -0.795753828834E+03   -0.31971E+01   -0.35322E+01 34270   0.112E+01    0.527E+00
DAV:   3    -0.795969343282E+03   -0.21551E+00   -0.15829E+00 40580   0.300E+00    0.282E+00
DAV:   4    -0.795944180817E+03    0.25162E-01   -0.14623E-01 41380   0.110E+00    0.199E+00
DAV:   5    -0.795936061609E+03    0.81192E-02   -0.97275E-02 38180   0.786E-01    0.829E-01
DAV:   6    -0.795938441671E+03   -0.23801E-02   -0.14640E-02 37860   0.426E-01    0.507E-01
DAV:   7    -0.795939485367E+03   -0.10437E-02   -0.89673E-03 41860   0.213E-01    0.312E-01
DAV:   8    -0.795940236949E+03   -0.75158E-03   -0.10540E-03 40750   0.106E-01    0.225E-01
DAV:   9    -0.795941014251E+03   -0.77730E-03   -0.78356E-04 41320   0.792E-02    0.157E-01
DAV:  10    -0.795941471231E+03   -0.45698E-03   -0.41738E-04 38630   0.544E-02    0.130E-01
DAV:  11    -0.795941834423E+03   -0.36319E-03   -0.22550E-04 40180   0.409E-02    0.115E-01
DAV:  12    -0.795942416985E+03   -0.58256E-03   -0.45626E-04 44220   0.657E-02    0.897E-02
DAV:  13    -0.795942856550E+03   -0.43957E-03   -0.85032E-04 42320   0.794E-02    0.655E-02
DAV:  14    -0.795943078429E+03   -0.22188E-03   -0.48615E-04 41700   0.518E-02    0.516E-02
DAV:  15    -0.795943172229E+03   -0.93800E-04   -0.15135E-04 33890   0.248E-02    0.367E-02
DAV:  16    -0.795943210392E+03   -0.38163E-04   -0.35748E-05 23590   0.123E-02    0.299E-02
DAV:  17    -0.795943242069E+03   -0.31678E-04   -0.21757E-05 28450   0.129E-02    0.237E-02
DAV:  18    -0.795943268372E+03   -0.26302E-04   -0.33971E-05 29620   0.147E-02    0.195E-02
DAV:  19    -0.795943285204E+03   -0.16832E-04   -0.24991E-05 23530   0.102E-02    0.164E-02
DAV:  20    -0.795943299380E+03   -0.14176E-04   -0.13307E-05 23450   0.106E-02    0.134E-02
DAV:  21    -0.795943310245E+03   -0.10865E-04   -0.28285E-05 29020   0.127E-02    0.102E-02
DAV:  22    -0.795943317901E+03   -0.76557E-05   -0.17736E-05 21820   0.757E-03
  51 F= -.79594332E+03 E0= -.79594332E+03  d E =0.795035E+00  mag=    47.0000
       N       E                     dE             d eps       ncg     rms          rms(c)
DAV:   1    -0.792197115008E+03    0.37462E+01   -0.27513E+02 35430   0.594E+01    0.791E+00
DAV:   2    -0.796435235513E+03   -0.42381E+01   -0.47358E+01 33960   0.128E+01    0.628E+00
DAV:   3    -0.796717710206E+03   -0.28247E+00   -0.20316E+00 40700   0.329E+00    0.331E+00
DAV:   4    -0.796685771299E+03    0.31939E-01   -0.18156E-01 40870   0.119E+00    0.258E+00
DAV:   5    -0.796673559903E+03    0.12211E-01   -0.14210E-01 38010   0.898E-01    0.972E-01
DAV:   6    -0.796676931827E+03   -0.33719E-02   -0.19918E-02 38180   0.526E-01    0.648E-01
DAV:   7    -0.796678370301E+03   -0.14385E-02   -0.15720E-02 42250   0.274E-01    0.353E-01
DAV:   8    -0.796679145194E+03   -0.77489E-03   -0.14462E-03 39960   0.131E-01    0.255E-01
DAV:   9    -0.796679989509E+03   -0.84432E-03   -0.12105E-03 40640   0.945E-02    0.175E-01
DAV:  10    -0.796680546746E+03   -0.55724E-03   -0.50042E-04 38780   0.645E-02    0.145E-01
DAV:  11    -0.796680988180E+03   -0.44143E-03   -0.33154E-04 40450   0.490E-02    0.124E-01
DAV:  12    -0.796681661037E+03   -0.67286E-03   -0.57929E-04 44030   0.713E-02    0.976E-02
DAV:  13    -0.796682161356E+03   -0.50032E-03   -0.94906E-04 42350   0.824E-02    0.734E-02
DAV:  14    -0.796682415295E+03   -0.25394E-03   -0.59619E-04 41550   0.637E-02    0.534E-02
DAV:  15    -0.796682533351E+03   -0.11806E-03   -0.26687E-04 36140   0.326E-02    0.374E-02
DAV:  16    -0.796682570758E+03   -0.37408E-04   -0.41747E-05 24660   0.131E-02    0.286E-02
DAV:  17    -0.796682593024E+03   -0.22265E-04   -0.18003E-05 25170   0.103E-02    0.224E-02
DAV:  18    -0.796682610213E+03   -0.17189E-04   -0.18464E-05 23970   0.129E-02    0.172E-02
DAV:  19    -0.796682621778E+03   -0.11565E-04   -0.25013E-05 26160   0.966E-03    0.145E-02
DAV:  20    -0.796682630338E+03   -0.85594E-05   -0.76817E-06 19030   0.777E-03
  52 F= -.79668263E+03 E0= -.79668263E+03  d E =-.739312E+00  mag=    47.0000
       N       E                     dE             d eps       ncg     rms          rms(c)
DAV:   1    -0.796670188190E+03    0.12434E-01   -0.33208E+00 35650   0.658E+00    0.830E-01
DAV:   2    -0.796719014344E+03   -0.48826E-01   -0.54285E-01 34780   0.136E+00    0.606E-01
DAV:   3    -0.796722453526E+03   -0.34392E-02   -0.23528E-02 40590   0.352E-01    0.340E-01
DAV:   4    -0.796722055763E+03    0.39776E-03   -0.21166E-03 43960   0.124E-01    0.239E-01
DAV:   5    -0.796721966442E+03    0.89321E-04   -0.15965E-03 38370   0.101E-01    0.102E-01
DAV:   6    -0.796721976207E+03   -0.97653E-05   -0.21977E-04 38620   0.571E-02    0.640E-02
DAV:   7    -0.796721987296E+03   -0.11089E-04   -0.16684E-04 41870   0.296E-02    0.354E-02
DAV:   8    -0.796721995372E+03   -0.80762E-05   -0.13923E-05 20640   0.131E-02
  53 F= -.79672200E+03 E0= -.79672200E+03  d E =-.393650E-01  mag=    47.0000
       N       E                     dE             d eps       ncg     rms          rms(c)
DAV:   1    -0.796651453885E+03    0.70533E-01   -0.64856E+00 35640   0.888E+00    0.109E+00
DAV:   2    -0.796733921283E+03   -0.82467E-01   -0.88656E-01 34000   0.178E+00    0.868E-01
DAV:   3    -0.796739074268E+03   -0.51530E-02   -0.34169E-02 40950   0.463E-01    0.462E-01
DAV:   4    -0.796738588433E+03    0.48584E-03   -0.33070E-03 44380   0.180E-01    0.368E-01
DAV:   5    -0.796738482844E+03    0.10559E-03   -0.27862E-03 40150   0.139E-01    0.137E-01
DAV:   6    -0.796738525141E+03   -0.42297E-04   -0.43139E-04 38950   0.716E-02    0.878E-02
DAV:   7    -0.796738546741E+03   -0.21599E-04   -0.30282E-04 40910   0.381E-02    0.495E-02
DAV:   8    -0.796738565244E+03   -0.18503E-04   -0.22620E-05 23150   0.172E-02    0.381E-02
DAV:   9    -0.796738587898E+03   -0.22654E-04   -0.24977E-05 24490   0.138E-02    0.278E-02
DAV:  10    -0.796738601737E+03   -0.13840E-04   -0.13846E-05 20320   0.103E-02    0.232E-02
DAV:  11    -0.796738613320E+03   -0.11583E-04   -0.80828E-06 18340   0.812E-03    0.200E-02
DAV:  12    -0.796738631420E+03   -0.18100E-04   -0.16779E-05 23260   0.127E-02    0.161E-02
DAV:  13    -0.796738644788E+03   -0.13369E-04   -0.34849E-05 28090   0.126E-02    0.124E-02
DAV:  14    -0.796738651708E+03   -0.69195E-05   -0.15209E-05 21670   0.927E-03
  54 F= -.79673865E+03 E0= -.79673865E+03  d E =-.166563E-01  mag=    47.0000
       N       E                     dE             d eps       ncg     rms          rms(c)
DAV:   1    -0.796736790806E+03    0.18540E-02   -0.28582E-01 35350   0.174E+00    0.206E-01
DAV:   2    -0.796739902713E+03   -0.31119E-02   -0.31531E-02 33090   0.326E-01    0.138E-01
DAV:   3    -0.796740056391E+03   -0.15368E-03   -0.69287E-04 39300   0.679E-02    0.721E-02
DAV:   4    -0.796740050304E+03    0.60863E-05   -0.63636E-05 36140   0.286E-02
  55 F= -.79674005E+03 E0= -.79674005E+03  d E =-.139860E-02  mag=    47.0000
       N       E                     dE             d eps       ncg     rms          rms(c)
DAV:   1    -0.796723235294E+03    0.16821E-01   -0.20780E+00 35140   0.449E+00    0.510E-01
DAV:   2    -0.796742587589E+03   -0.19352E-01   -0.19703E-01 32950   0.814E-01    0.300E-01
DAV:   3    -0.796743525086E+03   -0.93750E-03   -0.38998E-03 39980   0.143E-01    0.165E-01
DAV:   4    -0.796743478602E+03    0.46484E-04   -0.35495E-04 45490   0.562E-02    0.116E-01
DAV:   5    -0.796743513227E+03   -0.34625E-04   -0.19934E-04 45010   0.437E-02    0.400E-02
DAV:   6    -0.796743531131E+03   -0.17904E-04   -0.60022E-05 35850   0.244E-02    0.299E-02
DAV:   7    -0.796743536769E+03   -0.56382E-05   -0.11364E-05 18040   0.109E-02
  56 F= -.79674354E+03 E0= -.79674354E+03  d E =-.348646E-02  mag=    47.0000
       N       E                     dE             d eps       ncg     rms          rms(c)
DAV:   1    -0.796743156899E+03    0.37423E-03   -0.46290E-02 34900   0.644E-01    0.770E-02
DAV:   2    -0.796743586019E+03   -0.42912E-03   -0.43817E-03 33400   0.126E-01    0.671E-02
DAV:   3    -0.796743605866E+03   -0.19847E-04   -0.13095E-04 35700   0.310E-02    0.366E-02
DAV:   4    -0.796743606850E+03   -0.98403E-06   -0.11389E-05 21170   0.131E-02
  57 F= -.79674361E+03 E0= -.79674361E+03  d E =-.700813E-04  mag=    47.0000
