       N       E                     dE             d eps       ncg     rms          ort
DAV:   1     0.103915601899E+05    0.10392E+05   -0.42489E+05 10564   0.157E+03
DAV:   2    -0.800350713554E+02   -0.10472E+05   -0.98812E+04 10564   0.479E+02
DAV:   3    -0.151657090868E+04   -0.14365E+04   -0.13354E+04 10564   0.185E+02
DAV:   4    -0.160274097712E+04   -0.86170E+02   -0.83650E+02 10564   0.474E+01
DAV:   5    -0.160531393080E+04   -0.25730E+01   -0.25640E+01 10564   0.877E+00
SDA:   6    -0.737735361203E+03    0.86758E+03   -0.25640E+01 10564   0.288E+04 0.000E+00
CGA:   7    -0.113262597695E+04   -0.39489E+03   -0.39296E+03 10564   0.127E+04-0.205E+02
CGA:   8    -0.116974229256E+04   -0.37116E+02   -0.66041E+02 10564   0.852E+03-0.535E+03
CGA:   9    -0.120868679747E+04   -0.38945E+02   -0.40157E+02 10564   0.354E+03-0.875E+01
CGA:  10    -0.123273236084E+04   -0.24046E+02   -0.28508E+02 10564   0.348E+03-0.309E+02
CGA:  11    -0.125788382167E+04   -0.25151E+02   -0.27018E+02 10564   0.165E+03-0.116E+02
CGA:  12    -0.126741044316E+04   -0.95266E+01   -0.10736E+02 10564   0.579E+02-0.114E+02
CGA:  13    -0.127343968796E+04   -0.60292E+01   -0.61756E+01 10564   0.446E+02-0.340E+00
CGA:  14    -0.127725568768E+04   -0.38160E+01   -0.39116E+01 10564   0.136E+02-0.115E+01
CGA:  15    -0.127838083880E+04   -0.11252E+01   -0.11491E+01 10564   0.969E+01-0.447E+00
CGA:  16    -0.127958933674E+04   -0.12085E+01   -0.12080E+01 10564   0.398E+01-0.268E+00
CGA:  17    -0.128005695789E+04   -0.46762E+00   -0.46681E+00 10564   0.351E+01-0.197E+00
CGA:  18    -0.128052682767E+04   -0.46987E+00   -0.46710E+00 10564   0.304E+01-0.305E+00
CGA:  19    -0.128087644221E+04   -0.34961E+00   -0.34277E+00 10564   0.183E+01-0.351E+00
CGA:  20    -0.128129360736E+04   -0.41717E+00   -0.51553E+00 10564   0.344E+01-0.588E+00
CGA:  21    -0.128152695920E+04   -0.23335E+00   -0.21133E+00 10564   0.127E+01-0.429E+00
CGA:  22    -0.128177431317E+04   -0.24735E+00   -0.28625E+00 10564   0.232E+01-0.383E+00
CGA:  23    -0.128197007438E+04   -0.19576E+00   -0.18243E+00 10564   0.103E+01-0.288E+00
CGA:  24    -0.128205955766E+04   -0.89483E-01   -0.83418E-01 10564   0.554E+00-0.985E-01
CGA:  25    -0.128216694936E+04   -0.10739E+00   -0.11292E+00 10564   0.808E+00-0.813E-01
CGA:  26    -0.128222906125E+04   -0.62112E-01   -0.61064E-01 10564   0.299E+00-0.249E-01
CGA:  27    -0.128225730587E+04   -0.28245E-01   -0.28796E-01 10564   0.210E+00 0.109E-01
CGA:  28    -0.128228633060E+04   -0.29025E-01   -0.29581E-01 10564   0.261E+00 0.313E-01
CGA:  29    -0.128232263061E+04   -0.36300E-01   -0.37817E-01 10564   0.141E+00 0.566E-01
CGA:  30    -0.128233434959E+04   -0.11719E-01   -0.13976E-01 10564   0.668E-01 0.320E-01
CGA:  31    -0.128234248419E+04   -0.81346E-02   -0.92410E-02 10564   0.601E-01 0.314E-01
CGA:  32    -0.128235114032E+04   -0.86561E-02   -0.98083E-02 10564   0.464E-01 0.325E-01
CGA:  33    -0.128235635394E+04   -0.52136E-02   -0.53356E-02 10564   0.244E-01 0.414E-02
CGA:  34    -0.128236058965E+04   -0.42357E-02   -0.41130E-02 10564   0.204E-01 0.102E-01
CGA:  35    -0.128236452583E+04   -0.39362E-02   -0.40128E-02 10564   0.995E-02 0.155E-01
CGA:  36    -0.128236604944E+04   -0.15236E-02   -0.14976E-02 10564   0.998E-02 0.366E-02
CGA:  37    -0.128236892530E+04   -0.28759E-02   -0.25198E-02 10564   0.797E-02 0.865E-02
CGA:  38    -0.128236987405E+04   -0.94875E-03   -0.10129E-02 10564   0.616E-02 0.340E-02
CGA:  39    -0.128237160738E+04   -0.17333E-02   -0.15444E-02 10564   0.620E-02 0.603E-02
CGA:  40    -0.128237275492E+04   -0.11475E-02   -0.10903E-02 10564   0.601E-02 0.193E-02
CGA:  41    -0.128237531972E+04   -0.25648E-02   -0.20271E-02 10564   0.800E-02 0.483E-02
CGA:  42    -0.128237613271E+04   -0.81298E-03   -0.86223E-03 10564   0.516E-02 0.107E-02
CGA:  43    -0.128237768521E+04   -0.15525E-02   -0.14055E-02 10564   0.774E-02 0.160E-02
CGA:  44    -0.128238319677E+04   -0.55116E-02   -0.42193E-02 10564   0.100E-01 0.458E-02
CGA:  45    -0.128238498272E+04   -0.17860E-02   -0.18172E-02 10564   0.852E-02-0.252E-02
CGA:  46    -0.128238609973E+04   -0.11170E-02   -0.13514E-02 10564   0.159E-01-0.555E-02
CGA:  47    -0.128238732401E+04   -0.12243E-02   -0.12788E-02 10564   0.472E-02 0.561E-03
CGA:  48    -0.128238843772E+04   -0.11137E-02   -0.12631E-02 10564   0.494E-02-0.165E-02
CGA:  49    -0.128238983561E+04   -0.13979E-02    0.10237E-02 10564   0.497E-02 0.166E-02
CGA:  50    -0.128239273474E+04   -0.28991E-02    0.20925E-02 10564   0.337E-02 0.423E-02
CGA:  51    -0.128239327806E+04   -0.54332E-03   -0.10861E-02 10564   0.150E-01-0.361E-02
CGA:  52    -0.128239441939E+04   -0.11413E-02   -0.11283E-02 10564   0.239E-02-0.170E-03
CGA:  53    -0.128239084969E+04    0.35697E-02   -0.18440E-02 10564   0.860E-01-0.895E-02
CGA:  54    -0.128239721549E+04   -0.63658E-02   -0.64845E-02 10564   0.871E-02 0.588E-03
CGA:  55    -0.128239818992E+04   -0.97444E-03   -0.87453E-03 10564   0.167E-02-0.101E-02
CGA:  56    -0.128239900547E+04   -0.81555E-03    0.33099E-03 10564   0.106E-02 0.894E-03
CGA:  57    -0.128239962767E+04   -0.62220E-03    0.19867E-03 10564   0.134E-02 0.540E-03
CGA:  58    -0.128239974992E+04   -0.12225E-03   -0.53494E-03 10564   0.167E-01-0.200E-02
CGA:  59    -0.128240100580E+04   -0.12559E-02   -0.10935E-02 10564   0.124E-02-0.116E-02
CGA:  60    -0.128240162271E+04   -0.61691E-03    0.31629E-03 10564   0.133E-02 0.417E-03
CGA:  61    -0.128240287225E+04   -0.12495E-02    0.22030E-03 10564   0.862E-03 0.155E-02
CGA:  62    -0.128240336792E+04   -0.49567E-03    0.18181E-03 10564   0.923E-03 0.518E-03
CGA:  63    -0.128240392595E+04   -0.55803E-03    0.16747E-03 10564   0.136E-02 0.307E-03
CGA:  64    -0.128240521607E+04   -0.12901E-02    0.22050E-03 10564   0.118E-02 0.145E-02
CGA:  65    -0.128239965907E+04    0.55570E-02   -0.29894E-02 10564   0.102E+00-0.665E-02
CGA:  66    -0.128240799448E+04   -0.83354E-02   -0.82813E-02 10564   0.815E-02-0.167E-02
CGA:  67    -0.128240885577E+04   -0.86130E-03   -0.66429E-03 10564   0.860E-03-0.773E-03
CGA:  68    -0.128240953747E+04   -0.68169E-03    0.39915E-03 10564   0.221E-02 0.124E-03
CGA:  69    -0.128241231058E+04   -0.27731E-02    0.63717E-03 10564   0.242E-02 0.122E-02
CGA:  70    -0.128241261831E+04   -0.30773E-03   -0.22797E-03 10564   0.927E-03-0.341E-03
CGA:  71    -0.128241344260E+04   -0.82430E-03    0.20461E-03 10564   0.225E-02 0.194E-04
CGA:  72    -0.128241606305E+04   -0.26204E-02    0.46693E-03 10564   0.104E-02 0.153E-02
CGA:  73    -0.128241634124E+04   -0.27820E-03   -0.18915E-03 10564   0.199E-02-0.657E-03
CGA:  74    -0.128241653941E+04   -0.19816E-03   -0.17444E-03 10564   0.490E-03-0.105E-03
CGA:  75    -0.128241715275E+04   -0.61335E-03    0.58323E-04 10564   0.524E-03 0.371E-03
CGA:  76    -0.128241022894E+04    0.69238E-02   -0.37952E-02 10564   0.142E+00-0.478E-02
CGA:  77    -0.128241984698E+04   -0.96180E-02   -0.94167E-02 10564   0.472E-02-0.198E-02
CGA:  78    -0.128242030404E+04   -0.45706E-03   -0.41612E-03 10564   0.387E-03-0.942E-04
CGA:  79    -0.128242085640E+04   -0.55237E-03    0.21231E-03 10564   0.326E-02-0.258E-03
CGA:  80    -0.128242108826E+04   -0.23186E-03   -0.25211E-03 10564   0.368E-03 0.440E-04
CGA:  81    -0.128242151403E+04   -0.42576E-03    0.49050E-03 10564   0.308E-02-0.303E-03
CGA:  82    -0.128242180251E+04   -0.28848E-03   -0.25659E-03 10564   0.506E-03-0.791E-04
CGA:  83    -0.128242197025E+04   -0.16775E-03   -0.26882E-03 10564   0.914E-02-0.121E-02
CGA:  84    -0.128242257634E+04   -0.60609E-03   -0.66317E-03 10564   0.827E-03 0.128E-03
CGA:  85    -0.128242276653E+04   -0.19020E-03   -0.12188E-03 10564   0.521E-03-0.227E-03
CGA:  86    -0.128242351051E+04   -0.74397E-03    0.63701E-04 10564   0.581E-03 0.275E-03
CGA:  87    -0.128242373277E+04   -0.22226E-03   -0.13649E-03 10564   0.141E-02-0.437E-03
CGA:  88    -0.128242385175E+04   -0.11898E-03   -0.11399E-03 10564   0.316E-03-0.157E-04
CGA:  89    -0.128242422473E+04   -0.37298E-03    0.13230E-03 10564   0.149E-02-0.153E-03
CGA:  90    -0.128242607779E+04   -0.18531E-02    0.77500E-04 10564   0.738E-02-0.196E-03
CGA:  91    -0.128243462931E+04   -0.85515E-02    0.20010E-02 10564   0.272E-01-0.808E-02
CGA:  92    -0.128243676059E+04   -0.21313E-02   -0.19960E-02 10564   0.149E-02-0.714E-03
CGA:  93    -0.128243681785E+04   -0.57258E-04   -0.11640E-03 10564   0.150E-03 0.194E-03
CGA:  94    -0.128243678571E+04    0.32138E-04   -0.93311E-05 10564   0.114E-03 0.131E-03
CGA:  95    -0.128243676013E+04    0.25583E-04   -0.58136E-05 10564   0.964E-04 0.103E-03
CGA:  96    -0.128243673681E+04    0.23315E-04   -0.42403E-05 10564   0.894E-04 0.927E-04
CGA:  97    -0.128243671544E+04    0.21375E-04   -0.35570E-05 10564   0.848E-04 0.870E-04
CGA:  98    -0.128243669568E+04    0.19763E-04   -0.30952E-05 10564   0.813E-04 0.829E-04
CGA:  99    -0.128243667730E+04    0.18373E-04   -0.27483E-05 10564   0.786E-04 0.798E-04
CGA: 100    -0.128243666016E+04    0.17147E-04   -0.24730E-05 10564   0.763E-04 0.773E-04
CGA: 101    -0.128243664411E+04    0.16052E-04   -0.22466E-05 10564   0.744E-04 0.753E-04
CGA: 102    -0.128243662905E+04    0.15058E-04   -0.20553E-05 10564   0.728E-04 0.735E-04
CGA: 103    -0.128243661489E+04    0.14153E-04   -0.18907E-05 10564   0.714E-04 0.720E-04
CGA: 104    -0.128243660157E+04    0.13321E-04   -0.17468E-05 10564   0.702E-04 0.707E-04
CGA: 105    -0.128243658902E+04    0.12554E-04   -0.16195E-05 10564   0.691E-04 0.695E-04
CGA: 106    -0.128243657717E+04    0.11844E-04   -0.15059E-05 10564   0.681E-04 0.685E-04
CGA: 107    -0.128243656599E+04    0.11185E-04   -0.14035E-05 10564   0.672E-04 0.675E-04
CGA: 108    -0.128243655542E+04    0.10569E-04   -0.13109E-05 10564   0.663E-04 0.667E-04
CGA: 109    -0.128243654543E+04    0.99943E-05   -0.12265E-05 10564   0.656E-04 0.659E-04
   1 F= -.12824365E+04 E0= -.12824275E+04  d E =-.180615E-01  mag=    47.0000
