       N       E                     dE             d eps       ncg     rms          rms(c)
DAV:   1     0.306883184597E+04    0.30688E+04   -0.25833E+05 73632   0.131E+03
DAV:   2    -0.610380873662E+03   -0.36792E+04   -0.35466E+04 89592   0.297E+02
DAV:   3    -0.871945712558E+03   -0.26156E+03   -0.25989E+03 89088   0.838E+01
DAV:   4    -0.875215568674E+03   -0.32699E+01   -0.32578E+01 89472   0.101E+01
DAV:   5    -0.875271112342E+03   -0.55544E-01   -0.55407E-01 91152   0.121E+00    0.991E+01
DAV:   6    -0.779249567718E+03    0.96022E+02   -0.40695E+02 83580   0.320E+01    0.505E+01
DAV:   7    -0.788488686238E+03   -0.92391E+01   -0.22205E+01 83172   0.771E+00    0.163E+01
DAV:   8    -0.792430031197E+03   -0.39413E+01   -0.15727E+00 87300   0.244E+00    0.784E+00
DAV:   9    -0.794627482532E+03   -0.21975E+01   -0.10082E+00 87696   0.171E+00    0.382E+00
DAV:  10    -0.795121202492E+03   -0.49372E+00   -0.27485E-01 85404   0.918E-01    0.111E+00
DAV:  11    -0.795194036738E+03   -0.72834E-01   -0.42117E-02 85992   0.364E-01    0.607E-01
DAV:  12    -0.795203788477E+03   -0.97517E-02   -0.48571E-03 86712   0.138E-01    0.282E-01
DAV:  13    -0.795206287183E+03   -0.24987E-02   -0.14960E-03 86232   0.745E-02    0.917E-02
DAV:  14    -0.795206745867E+03   -0.45868E-03   -0.32522E-04 85020   0.361E-02    0.436E-02
DAV:  15    -0.795206783285E+03   -0.37418E-04   -0.51672E-05 86232   0.189E-02    0.283E-02
DAV:  16    -0.795206797385E+03   -0.14100E-04   -0.16996E-05 66060   0.116E-02    0.115E-02
DAV:  17    -0.795206798653E+03   -0.12685E-05   -0.77225E-06 61716   0.937E-03
   1 F= -.79520680E+03 E0= -.79520680E+03  d E =-.795207E+03  mag=    -0.0019
       N       E                     dE             d eps       ncg     rms          rms(c)
DAV:   1    -0.795215152584E+03   -0.83552E-02   -0.36830E-03 78168   0.973E-02    0.266E-02
DAV:   2    -0.795215157364E+03   -0.47803E-05   -0.87238E-05 89616   0.130E-02    0.939E-03
DAV:   3    -0.795215155261E+03    0.21033E-05   -0.22403E-06 48816   0.376E-03    0.505E-03
DAV:   4    -0.795215154507E+03    0.75413E-06   -0.24773E-06 45900   0.326E-03
   2 F= -.79521515E+03 E0= -.79521515E+03  d E =-.835585E-02  mag=    -0.0002
       N       E                     dE             d eps       ncg     rms          rms(c)
DAV:   1    -0.795407700883E+03   -0.19255E+00   -0.26059E+00 75120   0.258E+00    0.701E-01
DAV:   2    -0.795411307162E+03   -0.36063E-02   -0.59580E-02 89592   0.330E-01    0.227E-01
DAV:   3    -0.795410118913E+03    0.11882E-02   -0.16521E-03 91608   0.956E-02    0.118E-01
DAV:   4    -0.795409853110E+03    0.26580E-03   -0.12321E-03 89808   0.624E-02    0.448E-02
DAV:   5    -0.795409847572E+03    0.55388E-05   -0.22813E-04 89340   0.308E-02    0.406E-02
DAV:   6    -0.795409844750E+03    0.28220E-05   -0.16707E-05 69792   0.911E-03
   3 F= -.79540984E+03 E0= -.79540984E+03  d E =-.194690E+00  mag=    -0.0000
       N       E                     dE             d eps       ncg     rms          rms(c)
DAV:   1    -0.795680515677E+03   -0.27067E+00   -0.98466E+00 73464   0.508E+00    0.110E+00
DAV:   2    -0.795695090451E+03   -0.14575E-01   -0.22472E-01 89100   0.665E-01    0.440E-01
DAV:   3    -0.795690914231E+03    0.41762E-02   -0.59930E-03 91536   0.182E-01    0.235E-01
DAV:   4    -0.795689836730E+03    0.10775E-02   -0.45446E-03 90060   0.129E-01    0.844E-02
DAV:   5    -0.795689820122E+03    0.16607E-04   -0.93993E-04 89532   0.672E-02    0.714E-02
DAV:   6    -0.795689815164E+03    0.49582E-05   -0.93151E-05 89964   0.197E-02
   4 F= -.79568982E+03 E0= -.79568982E+03  d E =-.279970E+00  mag=    -0.0000
       N       E                     dE             d eps       ncg     rms          rms(c)
DAV:   1    -0.795838579032E+03   -0.14876E+00   -0.67060E+00 73452   0.438E+00    0.598E-01
DAV:   2    -0.795851321076E+03   -0.12742E-01   -0.16711E-01 88344   0.608E-01    0.403E-01
DAV:   3    -0.795848863234E+03    0.24578E-02   -0.32351E-03 89376   0.137E-01    0.223E-01
DAV:   4    -0.795847938243E+03    0.92499E-03   -0.32469E-03 87516   0.108E-01    0.746E-02
DAV:   5    -0.795847872526E+03    0.65717E-04   -0.54227E-04 92424   0.582E-02    0.350E-02
DAV:   6    -0.795847877417E+03   -0.48913E-05   -0.13302E-04 89064   0.217E-02    0.268E-02
DAV:   7    -0.795847869326E+03    0.80909E-05   -0.10505E-05 63216   0.997E-03
   5 F= -.79584787E+03 E0= -.79584787E+03  d E =-.158054E+00  mag=    -0.0000
       N       E                     dE             d eps       ncg     rms          rms(c)
DAV:   1    -0.795942058727E+03   -0.94181E-01   -0.11850E+01 73440   0.587E+00    0.103E+00
DAV:   2    -0.795965008969E+03   -0.22950E-01   -0.28156E-01 88200   0.772E-01    0.439E-01
DAV:   3    -0.795961339221E+03    0.36697E-02   -0.69874E-03 89400   0.198E-01    0.223E-01
DAV:   4    -0.795960495533E+03    0.84369E-03   -0.38146E-03 88980   0.115E-01    0.960E-02
DAV:   5    -0.795960455841E+03    0.39692E-04   -0.55689E-04 89292   0.501E-02    0.591E-02
DAV:   6    -0.795960463415E+03   -0.75739E-05   -0.87467E-05 89184   0.185E-02
   6 F= -.79596046E+03 E0= -.79596046E+03  d E =-.112594E+00  mag=    -0.0000
       N       E                     dE             d eps       ncg     rms          rms(c)
DAV:   1    -0.795997033026E+03   -0.36577E-01   -0.16980E+01 73440   0.711E+00    0.112E+00
DAV:   2    -0.796027195243E+03   -0.30162E-01   -0.37407E-01 89076   0.923E-01    0.455E-01
DAV:   3    -0.796023803133E+03    0.33921E-02   -0.99608E-03 90276   0.207E-01    0.260E-01
DAV:   4    -0.796022647173E+03    0.11560E-02   -0.41419E-03 89256   0.133E-01    0.111E-01
DAV:   5    -0.796022501979E+03    0.14519E-03   -0.71079E-04 91200   0.638E-02    0.526E-02
DAV:   6    -0.796022499614E+03    0.23643E-05   -0.28456E-04 88692   0.346E-02    0.378E-02
DAV:   7    -0.796022488633E+03    0.10981E-04   -0.19368E-05 74952   0.133E-02    0.217E-02
DAV:   8    -0.796022481876E+03    0.67567E-05   -0.12395E-05 70260   0.110E-02
   7 F= -.79602248E+03 E0= -.79602248E+03  d E =-.620185E-01  mag=     0.0000
       N       E                     dE             d eps       ncg     rms          rms(c)
DAV:   1    -0.795997794211E+03    0.24694E-01   -0.13734E+01 73440   0.647E+00    0.145E+00
DAV:   2    -0.796025499043E+03   -0.27705E-01   -0.33370E-01 89004   0.925E-01    0.469E-01
DAV:   3    -0.796022213250E+03    0.32858E-02   -0.92178E-03 90684   0.207E-01    0.240E-01
DAV:   4    -0.796021304782E+03    0.90847E-03   -0.32355E-03 90336   0.122E-01    0.101E-01
DAV:   5    -0.796021209482E+03    0.95301E-04   -0.61731E-04 90480   0.634E-02    0.528E-02
DAV:   6    -0.796021205527E+03    0.39550E-05   -0.21647E-04 89340   0.319E-02    0.363E-02
DAV:   7    -0.796021190689E+03    0.14838E-04   -0.19278E-05 75204   0.142E-02    0.164E-02
DAV:   8    -0.796021184851E+03    0.58374E-05   -0.12540E-05 70848   0.123E-02
   8 F= -.79602118E+03 E0= -.79602118E+03  d E =0.129702E-02  mag=    -0.0000
       N       E                     dE             d eps       ncg     rms          rms(c)
DAV:   1    -0.796033063411E+03   -0.11873E-01   -0.32933E+00 73440   0.310E+00    0.118E+00
DAV:   2    -0.796041513658E+03   -0.84502E-02   -0.11171E-01 89616   0.515E-01    0.428E-01
DAV:   3    -0.796039118106E+03    0.23956E-02   -0.25620E-03 91368   0.122E-01    0.191E-01
DAV:   4    -0.796038419876E+03    0.69823E-03   -0.16732E-03 88872   0.103E-01    0.607E-02
DAV:   5    -0.796038400733E+03    0.19143E-04   -0.60964E-04 92784   0.604E-02    0.459E-02
DAV:   6    -0.796038389618E+03    0.11114E-04   -0.84916E-05 88296   0.175E-02    0.312E-02
DAV:   7    -0.796038374163E+03    0.15455E-04   -0.29349E-05 75564   0.110E-02    0.149E-02
DAV:   8    -0.796038367194E+03    0.69691E-05   -0.11001E-05 71796   0.144E-02
   9 F= -.79603837E+03 E0= -.79603837E+03  d E =-.171823E-01  mag=     0.0000
       N       E                     dE             d eps       ncg     rms          rms(c)
DAV:   1    -0.796050161567E+03   -0.11787E-01   -0.76842E-01 73524   0.135E+00    0.382E-01
DAV:   2    -0.796051609480E+03   -0.14479E-02   -0.19326E-02 88308   0.189E-01    0.123E-01
DAV:   3    -0.796051255063E+03    0.35442E-03   -0.35636E-04 90696   0.458E-02    0.611E-02
DAV:   4    -0.796051140764E+03    0.11430E-03   -0.32829E-04 88080   0.413E-02    0.167E-02
DAV:   5    -0.796051141317E+03   -0.55284E-06   -0.88372E-05 89808   0.190E-02
  10 F= -.79605114E+03 E0= -.79605114E+03  d E =-.127741E-01  mag=    -0.0000
       N       E                     dE             d eps       ncg     rms          rms(c)
DAV:   1    -0.796058982067E+03   -0.78413E-02   -0.27826E+00 73440   0.283E+00    0.415E-01
DAV:   2    -0.796064096440E+03   -0.51144E-02   -0.60565E-02 87576   0.376E-01    0.167E-01
DAV:   3    -0.796063505173E+03    0.59127E-03   -0.84128E-04 91272   0.691E-02    0.981E-02
DAV:   4    -0.796063248042E+03    0.25713E-03   -0.85456E-04 88896   0.710E-02    0.303E-02
DAV:   5    -0.796063251594E+03   -0.35518E-05   -0.23199E-04 89496   0.315E-02    0.256E-02
DAV:   6    -0.796063245095E+03    0.64987E-05   -0.44844E-05 83796   0.139E-02
  11 F= -.79606325E+03 E0= -.79606325E+03  d E =-.121038E-01  mag=    -0.0000
       N       E                     dE             d eps       ncg     rms          rms(c)
DAV:   1    -0.796059528510E+03    0.37231E-02   -0.81345E+00 73440   0.513E+00    0.521E-01
DAV:   2    -0.796074684504E+03   -0.15156E-01   -0.17066E-01 86484   0.683E-01    0.269E-01
DAV:   3    -0.796073632196E+03    0.10523E-02   -0.20534E-03 91812   0.102E-01    0.169E-01
DAV:   4    -0.796073075197E+03    0.55700E-03   -0.18851E-03 88752   0.111E-01    0.543E-02
DAV:   5    -0.796073085378E+03   -0.10181E-04   -0.49559E-04 88752   0.457E-02    0.393E-02
DAV:   6    -0.796073075700E+03    0.96779E-05   -0.14228E-04 88452   0.253E-02    0.176E-02
DAV:   7    -0.796073071405E+03    0.42953E-05   -0.95402E-06 54204   0.102E-02
  12 F= -.79607307E+03 E0= -.79607307E+03  d E =-.982631E-02  mag=    -0.0000
       N       E                     dE             d eps       ncg     rms          rms(c)
DAV:   1    -0.794494937568E+03    0.15781E+01   -0.11663E+02 73440   0.185E+01    0.103E+01
DAV:   2    -0.794752035744E+03   -0.25710E+00   -0.40736E+00 90048   0.317E+00    0.269E+00
DAV:   3    -0.794639371461E+03    0.11266E+00   -0.14362E-01 90780   0.817E-01    0.114E+00
DAV:   4    -0.794602551285E+03    0.36820E-01   -0.69988E-02 89496   0.658E-01    0.495E-01
DAV:   5    -0.794600863037E+03    0.16882E-02   -0.27681E-02 91248   0.357E-01    0.358E-01
DAV:   6    -0.794599654580E+03    0.12085E-02   -0.28485E-03 90024   0.111E-01    0.135E-01
DAV:   7    -0.794598690372E+03    0.96421E-03   -0.12674E-03 90624   0.132E-01    0.590E-02
DAV:   8    -0.794598554774E+03    0.13560E-03   -0.93410E-04 93732   0.102E-01    0.446E-02
DAV:   9    -0.794598573968E+03   -0.19194E-04   -0.49242E-04 90120   0.443E-02    0.506E-02
DAV:  10    -0.794598566968E+03    0.69998E-05   -0.25374E-05 71520   0.921E-03
  13 F= -.79459857E+03 E0= -.79459857E+03  d E =0.147450E+01  mag=     0.0000
       N       E                     dE             d eps       ncg     rms          rms(c)
DAV:   1    -0.795706305541E+03   -0.11077E+01   -0.20957E+01 73440   0.746E+00    0.401E+00
DAV:   2    -0.795773809106E+03   -0.67504E-01   -0.10073E+00 89520   0.144E+00    0.207E+00
DAV:   3    -0.795748608732E+03    0.25200E-01   -0.28900E-02 90720   0.353E-01    0.145E+00
DAV:   4    -0.795735832633E+03    0.12776E-01   -0.27012E-02 88260   0.406E-01    0.172E-01
DAV:   5    -0.795736362645E+03   -0.53001E-03   -0.10029E-02 90492   0.177E-01    0.177E-01
DAV:   6    -0.795736235023E+03    0.12762E-03   -0.38127E-04 89040   0.353E-02    0.124E-01
DAV:   7    -0.795736035614E+03    0.19941E-03   -0.31594E-04 89508   0.366E-02    0.840E-02
DAV:   8    -0.795735942858E+03    0.92756E-04   -0.33114E-04 90504   0.520E-02    0.384E-02
DAV:   9    -0.795735934803E+03    0.80544E-05   -0.12586E-04 90252   0.253E-02    0.283E-02
DAV:  10    -0.795735933027E+03    0.17766E-05   -0.28166E-05 71592   0.989E-03
  14 F= -.79573593E+03 E0= -.79573593E+03  d E =-.113737E+01  mag=    -0.0000
       N       E                     dE             d eps       ncg     rms          rms(c)
DAV:   1    -0.795909128751E+03   -0.17319E+00   -0.17124E+00 75432   0.227E+00    0.106E+00
DAV:   2    -0.795913270977E+03   -0.41422E-02   -0.68569E-02 89820   0.420E-01    0.429E-01
DAV:   3    -0.795910930122E+03    0.23409E-02   -0.23885E-03 90480   0.115E-01    0.196E-01
DAV:   4    -0.795910245855E+03    0.68427E-03   -0.15315E-03 88896   0.106E-01    0.611E-02
DAV:   5    -0.795910232315E+03    0.13540E-04   -0.64021E-04 92832   0.594E-02    0.435E-02
DAV:   6    -0.795910220074E+03    0.12241E-04   -0.84275E-05 89016   0.172E-02    0.273E-02
DAV:   7    -0.795910208491E+03    0.11583E-04   -0.27655E-05 72456   0.926E-03    0.142E-02
DAV:   8    -0.795910201495E+03    0.69959E-05   -0.11204E-05 66696   0.135E-02
  15 F= -.79591020E+03 E0= -.79591020E+03  d E =-.174268E+00  mag=    -0.0000
       N       E                     dE             d eps       ncg     rms          rms(c)
DAV:   1    -0.796082099258E+03   -0.17189E+00   -0.95344E+00 73896   0.547E+00    0.232E+00
DAV:   2    -0.796106139056E+03   -0.24040E-01   -0.38656E-01 89916   0.990E-01    0.929E-01
DAV:   3    -0.796093546063E+03    0.12593E-01   -0.11346E-02 90780   0.256E-01    0.428E-01
DAV:   4    -0.796089369825E+03    0.41762E-02   -0.84889E-03 88056   0.254E-01    0.121E-01
DAV:   5    -0.796089254730E+03    0.11509E-03   -0.36599E-03 93468   0.148E-01    0.939E-02
DAV:   6    -0.796089207206E+03    0.47524E-04   -0.50869E-04 89532   0.410E-02    0.713E-02
DAV:   7    -0.796089149732E+03    0.57474E-04   -0.10036E-04 87504   0.183E-02    0.438E-02
DAV:   8    -0.796089088177E+03    0.61556E-04   -0.16241E-04 90576   0.379E-02    0.228E-02
DAV:   9    -0.796089087246E+03    0.93081E-06   -0.49684E-05 88740   0.158E-02
  16 F= -.79608909E+03 E0= -.79608909E+03  d E =-.178886E+00  mag=     0.0000
       N       E                     dE             d eps       ncg     rms          rms(c)
DAV:   1    -0.796091138306E+03   -0.20501E-02   -0.11721E-01 75720   0.608E-01    0.217E-01
DAV:   2    -0.796091385548E+03   -0.24724E-03   -0.38998E-03 90024   0.105E-01    0.746E-02
DAV:   3    -0.796091280405E+03    0.10514E-03   -0.11351E-04 91692   0.264E-02    0.341E-02
DAV:   4    -0.796091243773E+03    0.36633E-04   -0.79818E-05 88656   0.238E-02    0.112E-02
DAV:   5    -0.796091241693E+03    0.20794E-05   -0.28729E-05 78516   0.144E-02
  17 F= -.79609124E+03 E0= -.79609124E+03  d E =-.215445E-02  mag=     0.0000
       N       E                     dE             d eps       ncg     rms          rms(c)
DAV:   1    -0.796092747882E+03   -0.15041E-02   -0.42313E-01 73560   0.115E+00    0.294E-01
DAV:   2    -0.796093522251E+03   -0.77437E-03   -0.10478E-02 89904   0.168E-01    0.937E-02
DAV:   3    -0.796093367966E+03    0.15429E-03   -0.28126E-04 92544   0.379E-02    0.491E-02
DAV:   4    -0.796093321693E+03    0.46273E-04   -0.17805E-04 88992   0.296E-02    0.189E-02
DAV:   5    -0.796093320081E+03    0.16118E-05   -0.38665E-05 83064   0.151E-02
  18 F= -.79609332E+03 E0= -.79609332E+03  d E =-.207839E-02  mag=     0.0000
       N       E                     dE             d eps       ncg     rms          rms(c)
DAV:   1    -0.796094230201E+03   -0.90851E-03   -0.33347E-02 75528   0.327E-01    0.906E-02
DAV:   2    -0.796094297288E+03   -0.67087E-04   -0.92676E-04 89760   0.509E-02    0.330E-02
DAV:   3    -0.796094279256E+03    0.18031E-04   -0.20626E-05 77880   0.103E-02    0.154E-02
DAV:   4    -0.796094273179E+03    0.60771E-05   -0.16907E-05 69684   0.930E-03
  19 F= -.79609427E+03 E0= -.79609427E+03  d E =-.953098E-03  mag=    -0.0000
       N       E                     dE             d eps       ncg     rms          rms(c)
DAV:   1    -0.796094433198E+03   -0.15394E-03   -0.42089E-01 73440   0.115E+00    0.214E-01
DAV:   2    -0.796095161828E+03   -0.72863E-03   -0.94569E-03 89520   0.160E-01    0.842E-02
DAV:   3    -0.796095041325E+03    0.12050E-03   -0.17870E-04 91944   0.287E-02    0.443E-02
DAV:   4    -0.796094992174E+03    0.49151E-04   -0.14985E-04 88224   0.277E-02    0.132E-02
DAV:   5    -0.796094990653E+03    0.15203E-05   -0.35187E-05 80472   0.138E-02
  20 F= -.79609499E+03 E0= -.79609499E+03  d E =-.717474E-03  mag=     0.0000
       N       E                     dE             d eps       ncg     rms          rms(c)
DAV:   1    -0.796094411911E+03    0.58026E-03   -0.33324E-01 73488   0.103E+00    0.121E-01
DAV:   2    -0.796095009302E+03   -0.59739E-03   -0.69093E-03 88464   0.136E-01    0.530E-02
DAV:   3    -0.796094961198E+03    0.48104E-04   -0.83154E-05 91536   0.195E-02    0.326E-02
DAV:   4    -0.796094937796E+03    0.23401E-04   -0.91429E-05 85920   0.226E-02    0.970E-03
DAV:   5    -0.796094938454E+03   -0.65775E-06   -0.21046E-05 61236   0.928E-03
  21 F= -.79609494E+03 E0= -.79609494E+03  d E =0.521991E-04  mag=     0.0000
       N       E                     dE             d eps       ncg     rms          rms(c)
DAV:   1    -0.796091302196E+03    0.36356E-02   -0.14286E+00 73440   0.216E+00    0.268E-01
DAV:   2    -0.796094061928E+03   -0.27597E-02   -0.30960E-02 87288   0.296E-01    0.120E-01
DAV:   3    -0.796093862824E+03    0.19910E-03   -0.37214E-04 91920   0.451E-02    0.704E-02
DAV:   4    -0.796093769789E+03    0.93034E-04   -0.35551E-04 89136   0.483E-02    0.224E-02
DAV:   5    -0.796093768797E+03    0.99268E-06   -0.87657E-05 89280   0.218E-02
  22 F= -.79609377E+03 E0= -.79609377E+03  d E =0.116966E-02  mag=     0.0000
       N       E                     dE             d eps       ncg     rms          rms(c)
DAV:   1    -0.796086906987E+03    0.68628E-02   -0.31052E+00 73440   0.323E+00    0.481E-01
DAV:   2    -0.796093028061E+03   -0.61211E-02   -0.69176E-02 87456   0.449E-01    0.181E-01
DAV:   3    -0.796092482876E+03    0.54518E-03   -0.87749E-04 91776   0.703E-02    0.102E-01
DAV:   4    -0.796092232749E+03    0.25013E-03   -0.77797E-04 89136   0.740E-02    0.311E-02
DAV:   5    -0.796092232239E+03    0.51001E-06   -0.22532E-04 90936   0.340E-02    0.255E-02
DAV:   6    -0.796092225103E+03    0.71360E-05   -0.46371E-05 83640   0.144E-02
  23 F= -.79609223E+03 E0= -.79609223E+03  d E =0.154369E-02  mag=     0.0000
       N       E                     dE             d eps       ncg     rms          rms(c)
DAV:   1    -0.796094198741E+03   -0.19665E-02   -0.31880E-01 73464   0.100E+00    0.229E-01
DAV:   2    -0.796094798585E+03   -0.59984E-03   -0.76997E-03 89328   0.146E-01    0.789E-02
DAV:   3    -0.796094684555E+03    0.11403E-03   -0.17786E-04 92052   0.310E-02    0.399E-02
DAV:   4    -0.796094650949E+03    0.33606E-04   -0.10644E-04 89256   0.230E-02    0.144E-02
DAV:   5    -0.796094650833E+03    0.11617E-06   -0.24155E-05 74172   0.116E-02
  24 F= -.79609465E+03 E0= -.79609465E+03  d E =-.242573E-02  mag=     0.0000
       N       E                     dE             d eps       ncg     rms          rms(c)
DAV:   1    -0.796095752030E+03   -0.11011E-02   -0.27475E-01 73440   0.953E-01    0.193E-01
DAV:   2    -0.796096331034E+03   -0.57900E-03   -0.67391E-03 88824   0.138E-01    0.672E-02
DAV:   3    -0.796096254912E+03    0.76122E-04   -0.93752E-05 91920   0.235E-02    0.336E-02
DAV:   4    -0.796096227806E+03    0.27106E-04   -0.83538E-05 88656   0.221E-02    0.930E-03
DAV:   5    -0.796096227636E+03    0.16965E-06   -0.20981E-05 63852   0.109E-02
  25 F= -.79609623E+03 E0= -.79609623E+03  d E =-.157680E-02  mag=    -0.0000
       N       E                     dE             d eps       ncg     rms          rms(c)
DAV:   1    -0.796091389070E+03    0.48387E-02   -0.29848E+00 73440   0.317E+00    0.311E-01
DAV:   2    -0.796097185446E+03   -0.57964E-02   -0.63133E-02 85872   0.428E-01    0.157E-01
DAV:   3    -0.796096886089E+03    0.29936E-03   -0.69808E-04 91752   0.571E-02    0.982E-02
DAV:   4    -0.796096739269E+03    0.14682E-03   -0.65762E-04 89016   0.638E-02    0.319E-02
DAV:   5    -0.796096741658E+03   -0.23897E-05   -0.14117E-04 86256   0.259E-02    0.237E-02
DAV:   6    -0.796096741305E+03    0.35343E-06   -0.50383E-05 79560   0.154E-02
  26 F= -.79609674E+03 E0= -.79609674E+03  d E =-.513669E-03  mag=     0.0000
       N       E                     dE             d eps       ncg     rms          rms(c)
DAV:   1    -0.795964961551E+03    0.13178E+00   -0.52783E+01 73440   0.134E+01    0.186E+00
DAV:   2    -0.796070630553E+03   -0.10567E+00   -0.11780E+00 86544   0.186E+00    0.736E-01
DAV:   3    -0.796062848825E+03    0.77817E-02   -0.14761E-02 91812   0.273E-01    0.420E-01
DAV:   4    -0.796059440561E+03    0.34083E-02   -0.12540E-02 88368   0.278E-01    0.136E-01
DAV:   5    -0.796059396130E+03    0.44431E-04   -0.28495E-03 90216   0.123E-01    0.994E-02
DAV:   6    -0.796059330796E+03    0.65334E-04   -0.81847E-04 88896   0.606E-02    0.478E-02
DAV:   7    -0.796059291027E+03    0.39769E-04   -0.45617E-05 82176   0.288E-02    0.268E-02
DAV:   8    -0.796059269727E+03    0.21300E-04   -0.47772E-05 87192   0.270E-02    0.906E-03
DAV:   9    -0.796059267320E+03    0.24071E-05   -0.23837E-05 73632   0.142E-02
  27 F= -.79605927E+03 E0= -.79605927E+03  d E =0.374740E-01  mag=     0.0000
       N       E                     dE             d eps       ncg     rms          rms(c)
DAV:   1    -0.796084668616E+03   -0.25399E-01   -0.51309E+00 73440   0.411E+00    0.145E+00
DAV:   2    -0.796096844058E+03   -0.12175E-01   -0.18069E-01 90024   0.724E-01    0.551E-01
DAV:   3    -0.796091612391E+03    0.52317E-02   -0.48766E-03 90624   0.193E-01    0.234E-01
DAV:   4    -0.796089746747E+03    0.18656E-02   -0.33818E-03 88320   0.183E-01    0.720E-02
DAV:   5    -0.796089602572E+03    0.14417E-03   -0.16449E-03 92328   0.112E-01    0.634E-02
DAV:   6    -0.796089577912E+03    0.24660E-04   -0.29933E-04 90288   0.320E-02    0.535E-02
DAV:   7    -0.796089543131E+03    0.34782E-04   -0.31756E-05 79176   0.106E-02    0.357E-02
DAV:   8    -0.796089493313E+03    0.49817E-04   -0.13060E-04 90612   0.349E-02    0.187E-02
DAV:   9    -0.796089491938E+03    0.13751E-05   -0.35907E-05 86868   0.139E-02
  28 F= -.79608949E+03 E0= -.79608949E+03  d E =-.302246E-01  mag=     0.0000
       N       E                     dE             d eps       ncg     rms          rms(c)
DAV:   1    -0.796088540946E+03    0.95237E-03   -0.71562E+00 73440   0.495E+00    0.808E-01
DAV:   2    -0.796103221176E+03   -0.14680E-01   -0.16686E-01 87432   0.706E-01    0.320E-01
DAV:   3    -0.796101827876E+03    0.13933E-02   -0.23716E-03 91848   0.118E-01    0.171E-01
DAV:   4    -0.796101272264E+03    0.55561E-03   -0.19243E-03 89544   0.112E-01    0.552E-02
DAV:   5    -0.796101257999E+03    0.14265E-04   -0.49699E-04 91452   0.538E-02    0.456E-02
DAV:   6    -0.796101243062E+03    0.14937E-04   -0.11240E-04 87936   0.224E-02    0.259E-02
DAV:   7    -0.796101230462E+03    0.12600E-04   -0.46657E-06 62808   0.129E-02    0.136E-02
DAV:   8    -0.796101223149E+03    0.73126E-05   -0.13101E-05 64512   0.143E-02
  29 F= -.79610122E+03 E0= -.79610122E+03  d E =-.117312E-01  mag=    -0.0000
       N       E                     dE             d eps       ncg     rms          rms(c)
DAV:   1    -0.796101912914E+03   -0.68245E-03   -0.10626E-01 73488   0.606E-01    0.138E-01
DAV:   2    -0.796102121485E+03   -0.20857E-03   -0.25970E-03 90288   0.893E-02    0.448E-02
DAV:   3    -0.796102093462E+03    0.28023E-04   -0.60075E-05 92400   0.176E-02    0.239E-02
DAV:   4    -0.796102084275E+03    0.91873E-05   -0.38563E-05 83940   0.144E-02
  30 F= -.79610208E+03 E0= -.79610208E+03  d E =-.861126E-03  mag=    -0.0000
       N       E                     dE             d eps       ncg     rms          rms(c)
DAV:   1    -0.796102622819E+03   -0.52936E-03   -0.13881E-02 73896   0.223E-01    0.718E-02
DAV:   2    -0.796102658025E+03   -0.35206E-04   -0.47797E-04 89976   0.386E-02    0.244E-02
DAV:   3    -0.796102647202E+03    0.10823E-04   -0.94467E-06 60516   0.866E-03    0.111E-02
DAV:   4    -0.796102643304E+03    0.38979E-05   -0.94282E-06 58152   0.874E-03
  31 F= -.79610264E+03 E0= -.79610264E+03  d E =-.559029E-03  mag=     0.0000
