       N       E                     dE             d eps       ncg     rms          rms(c)
DAV:   1     0.343581959645E+04    0.34358E+04   -0.18846E+05 10404   0.128E+03
DAV:   2    -0.441459213087E+02   -0.34800E+04   -0.33386E+04 13080   0.229E+02
DAV:   3    -0.518540077240E+03   -0.47439E+03   -0.46934E+03 12840   0.926E+01
DAV:   4    -0.541388958113E+03   -0.22849E+02   -0.22669E+02 13164   0.226E+01
DAV:   5    -0.542562904501E+03   -0.11739E+01   -0.11720E+01 15132   0.501E+00    0.626E+01
DAV:   6    -0.525761268146E+03    0.16802E+02   -0.34089E+01 11628   0.679E+00    0.422E+01
DAV:   7    -0.524620368334E+03    0.11409E+01   -0.24418E+01 12564   0.563E+00    0.807E+00
DAV:   8    -0.524110280929E+03    0.51009E+00   -0.31745E+00 11868   0.236E+00    0.567E+00
DAV:   9    -0.524151965291E+03   -0.41684E-01   -0.32992E-01 13848   0.843E-01    0.169E+00
DAV:  10    -0.524153666454E+03   -0.17012E-02   -0.32542E-02 12684   0.271E-01    0.107E+00
DAV:  11    -0.524157477162E+03   -0.38107E-02   -0.47796E-03 12336   0.112E-01    0.698E-01
DAV:  12    -0.524160820709E+03   -0.33435E-02   -0.39783E-03 11124   0.104E-01    0.124E-01
DAV:  13    -0.524161209650E+03   -0.38894E-03   -0.60975E-04 15012   0.351E-02    0.149E-01
DAV:  14    -0.524161268341E+03   -0.58691E-04   -0.72984E-05 12492   0.119E-02    0.986E-02
DAV:  15    -0.524161358230E+03   -0.89889E-04   -0.61742E-05 10152   0.120E-02    0.533E-02
DAV:  16    -0.524161376168E+03   -0.17938E-04   -0.20546E-05  8916   0.690E-03    0.152E-02
DAV:  17    -0.524161382056E+03   -0.58878E-05   -0.91288E-06  6384   0.448E-03
   1 F= -.52416138E+03 E0= -.52415230E+03  d E =-.524161E+03  mag=     0.0048
       N       E                     dE             d eps       ncg     rms          rms(c)
DAV:   1    -0.524163342878E+03   -0.19667E-02   -0.42908E-03 10824   0.874E-02    0.674E-02
DAV:   2    -0.524163374290E+03   -0.31412E-04   -0.38370E-04 14748   0.284E-02    0.214E-02
DAV:   3    -0.524163371569E+03    0.27214E-05   -0.10407E-05  7380   0.555E-03    0.140E-02
DAV:   4    -0.524163370728E+03    0.84092E-06   -0.62563E-06  5868   0.385E-03
   2 F= -.52416337E+03 E0= -.52415429E+03  d E =-.198867E-02  mag=     0.0008
       N       E                     dE             d eps       ncg     rms          rms(c)
DAV:   1    -0.524176710118E+03   -0.13339E-01   -0.57099E-01 10560   0.100E+00    0.744E-01
DAV:   2    -0.524180838130E+03   -0.41280E-02   -0.49819E-02 14424   0.320E-01    0.236E-01
DAV:   3    -0.524180547853E+03    0.29028E-03   -0.16476E-03 13272   0.641E-02    0.159E-01
DAV:   4    -0.524180452585E+03    0.95268E-04   -0.36093E-04 12864   0.259E-02    0.709E-02
DAV:   5    -0.524180434665E+03    0.17919E-04   -0.75183E-05 12600   0.134E-02    0.412E-02
DAV:   6    -0.524180436752E+03   -0.20870E-05   -0.24243E-05  9480   0.742E-03
   3 F= -.52418044E+03 E0= -.52417138E+03  d E =-.170660E-01  mag=     0.0001
       N       E                     dE             d eps       ncg     rms          rms(c)
DAV:   1    -0.524186112625E+03   -0.56780E-02   -0.22385E+00 10464   0.184E+00    0.865E-01
DAV:   2    -0.524200784320E+03   -0.14672E-01   -0.16721E-01 14232   0.573E-01    0.385E-01
DAV:   3    -0.524200090085E+03    0.69423E-03   -0.33310E-03 12924   0.938E-02    0.311E-01
DAV:   4    -0.524199781358E+03    0.30873E-03   -0.85343E-04 12480   0.385E-02    0.185E-01
DAV:   5    -0.524199698492E+03    0.82865E-04   -0.33332E-04 13068   0.245E-02    0.708E-02
DAV:   6    -0.524199704420E+03   -0.59281E-05   -0.10712E-04 14196   0.133E-02    0.331E-02
DAV:   7    -0.524199702423E+03    0.19972E-05   -0.10209E-05  6528   0.482E-03
   4 F= -.52419970E+03 E0= -.52419066E+03  d E =-.192657E-01  mag=     0.0000
       N       E                     dE             d eps       ncg     rms          rms(c)
DAV:   1    -0.524200138513E+03   -0.43409E-03   -0.14328E+00 10488   0.151E+00    0.799E-01
DAV:   2    -0.524210672405E+03   -0.10534E-01   -0.11678E-01 14016   0.490E-01    0.316E-01
DAV:   3    -0.524210123860E+03    0.54854E-03   -0.22334E-03 12552   0.791E-02    0.260E-01
DAV:   4    -0.524209914846E+03    0.20901E-03   -0.70992E-04 12552   0.356E-02    0.151E-01
DAV:   5    -0.524209873547E+03    0.41299E-04   -0.20112E-04 13296   0.196E-02    0.543E-02
DAV:   6    -0.524209877899E+03   -0.43522E-05   -0.58551E-05 12564   0.100E-02
   5 F= -.52420988E+03 E0= -.52420083E+03  d E =-.101755E-01  mag=     0.0000
       N       E                     dE             d eps       ncg     rms          rms(c)
DAV:   1    -0.524191788709E+03    0.18085E-01   -0.35343E+00 10368   0.247E+00    0.143E+00
DAV:   2    -0.524219070076E+03   -0.27281E-01   -0.30994E-01 14664   0.811E-01    0.541E-01
DAV:   3    -0.524217574801E+03    0.14953E-02   -0.59077E-03 12492   0.128E-01    0.445E-01
DAV:   4    -0.524217117272E+03    0.45753E-03   -0.16976E-03 13176   0.554E-02    0.248E-01
DAV:   5    -0.524216980868E+03    0.13640E-03   -0.41266E-04 12120   0.299E-02    0.919E-02
DAV:   6    -0.524216991897E+03   -0.11029E-04   -0.23003E-04 13764   0.203E-02    0.573E-02
DAV:   7    -0.524216987843E+03    0.40539E-05   -0.40052E-05 10656   0.936E-03
   6 F= -.52421699E+03 E0= -.52420792E+03  d E =-.710994E-02  mag=    -0.0000
       N       E                     dE             d eps       ncg     rms          rms(c)
DAV:   1    -0.524140737544E+03    0.76254E-01   -0.85850E+00 10368   0.393E+00    0.263E+00
DAV:   2    -0.524210874438E+03   -0.70137E-01   -0.79866E-01 14928   0.132E+00    0.891E-01
DAV:   3    -0.524206398405E+03    0.44760E-02   -0.17562E-02 12564   0.220E-01    0.695E-01
DAV:   4    -0.524204940306E+03    0.14581E-02   -0.56499E-03 12960   0.103E-01    0.327E-01
DAV:   5    -0.524204739454E+03    0.20085E-03   -0.11254E-03 13284   0.525E-02    0.145E-01
DAV:   6    -0.524204796478E+03   -0.57024E-04   -0.40988E-04 13452   0.282E-02    0.131E-01
DAV:   7    -0.524204750753E+03    0.45725E-04   -0.16220E-04 11628   0.185E-02    0.820E-02
DAV:   8    -0.524204748992E+03    0.17608E-05   -0.37477E-05  9036   0.864E-03
   7 F= -.52420475E+03 E0= -.52419568E+03  d E =0.122389E-01  mag=    -0.0000
       N       E                     dE             d eps       ncg     rms          rms(c)
DAV:   1    -0.524199628362E+03    0.51224E-02   -0.33565E+00 10368   0.247E+00    0.167E+00
DAV:   2    -0.524226555632E+03   -0.26927E-01   -0.30650E-01 14640   0.825E-01    0.567E-01
DAV:   3    -0.524224743163E+03    0.18125E-02   -0.80211E-03 12948   0.149E-01    0.421E-01
DAV:   4    -0.524224123593E+03    0.61957E-03   -0.23959E-03 13044   0.678E-02    0.194E-01
DAV:   5    -0.524224046269E+03    0.77324E-04   -0.46448E-04 12828   0.338E-02    0.100E-01
DAV:   6    -0.524224069351E+03   -0.23082E-04   -0.16495E-04 13416   0.180E-02    0.883E-02
DAV:   7    -0.524224047355E+03    0.21996E-04   -0.80924E-05 10896   0.130E-02    0.528E-02
DAV:   8    -0.524224046904E+03    0.45104E-06   -0.16718E-05  6792   0.612E-03
   8 F= -.52422405E+03 E0= -.52421499E+03  d E =-.192979E-01  mag=    -0.0000
       N       E                     dE             d eps       ncg     rms          rms(c)
DAV:   1    -0.524224482458E+03   -0.43510E-03   -0.15479E-01 10416   0.500E-01    0.322E-01
DAV:   2    -0.524225674586E+03   -0.11921E-02   -0.13382E-02 14568   0.167E-01    0.111E-01
DAV:   3    -0.524225602307E+03    0.72279E-04   -0.33262E-04 13008   0.292E-02    0.868E-02
DAV:   4    -0.524225582076E+03    0.20231E-04   -0.99406E-05 12840   0.135E-02    0.471E-02
DAV:   5    -0.524225580051E+03    0.20247E-05   -0.16433E-05  7980   0.627E-03
   9 F= -.52422558E+03 E0= -.52421653E+03  d E =-.153315E-02  mag=     0.0000
