       N       E                     dE             d eps       ncg     rms          rms(c)
DAV:   1     0.431206939785E+04    0.43121E+04   -0.15662E+05  7632   0.149E+03
DAV:   2     0.365563551138E+03   -0.39465E+04   -0.38046E+04  7304   0.437E+02
DAV:   3    -0.324774460367E+03   -0.69034E+03   -0.65174E+03  9928   0.156E+02
DAV:   4    -0.379555657582E+03   -0.54781E+02   -0.54311E+02  9328   0.452E+01
DAV:   5    -0.380846878822E+03   -0.12912E+01   -0.12881E+01  9704   0.836E+00    0.713E+01
DAV:   6    -0.331252144678E+03    0.49595E+02   -0.42900E+02  9732   0.531E+01    0.430E+01
DAV:   7    -0.327338691465E+03    0.39135E+01   -0.20117E+02  9756   0.410E+01    0.283E+01
DAV:   8    -0.321590416799E+03    0.57483E+01   -0.35495E+01  9764   0.167E+01    0.859E+00
DAV:   9    -0.322075045430E+03   -0.48463E+00   -0.73294E+00  9840   0.709E+00    0.794E+00
DAV:  10    -0.321641967342E+03    0.43308E+00   -0.19392E+00  9736   0.434E+00    0.421E+00
DAV:  11    -0.321580080373E+03    0.61887E-01   -0.50425E-01  9848   0.200E+00    0.199E+00
DAV:  12    -0.321583395956E+03   -0.33156E-02   -0.10391E-01  9704   0.106E+00    0.113E+00
DAV:  13    -0.321582603295E+03    0.79266E-03   -0.39407E-02  9696   0.855E-01    0.531E-01
DAV:  14    -0.321582101482E+03    0.50181E-03   -0.77462E-03  9672   0.364E-01    0.208E-01
DAV:  15    -0.321582122448E+03   -0.20966E-04   -0.22732E-03  9760   0.132E-01    0.716E-02
DAV:  16    -0.321582216290E+03   -0.93842E-04   -0.27445E-04  9232   0.551E-02    0.469E-02
DAV:  17    -0.321582257505E+03   -0.41216E-04   -0.53265E-05  7600   0.289E-02    0.270E-02
DAV:  18    -0.321582275529E+03   -0.18024E-04   -0.31813E-05  7064   0.269E-02    0.170E-02
DAV:  19    -0.321582284316E+03   -0.87874E-05   -0.16368E-05  4864   0.178E-02
   1 F= -.32158228E+03 E0= -.32158033E+03  d E =-.321582E+03  mag=     0.0001
       N       E                     dE             d eps       ncg     rms          rms(c)
DAV:   1    -0.321582313561E+03   -0.38033E-04   -0.84086E-03  7440   0.396E-01    0.110E-01
DAV:   2    -0.321582370479E+03   -0.56917E-04   -0.20586E-03  8752   0.142E-01    0.570E-02
DAV:   3    -0.321582322260E+03    0.48219E-04   -0.44373E-04  9648   0.681E-02    0.423E-02
DAV:   4    -0.321582307484E+03    0.14776E-04   -0.79152E-05  8808   0.340E-02    0.183E-02
DAV:   5    -0.321582308514E+03   -0.10296E-05   -0.28542E-05  6536   0.257E-02
   2 F= -.32158231E+03 E0= -.32158036E+03  d E =-.241976E-04  mag=     0.0000
