       N       E                     dE             d eps       ncg     rms          rms(c)
DAV:   1     0.830365725029E+04    0.83037E+04   -0.23584E+05 34320   0.219E+03
DAV:   2     0.121802480451E+04   -0.70856E+04   -0.66589E+04 33696   0.635E+02
DAV:   3    -0.318073311723E+03   -0.15361E+04   -0.13458E+04 35856   0.272E+02
DAV:   4    -0.471762551057E+03   -0.15369E+03   -0.15111E+03 36840   0.833E+01
DAV:   5    -0.474319786210E+03   -0.25572E+01   -0.25462E+01 36792   0.121E+01    0.107E+02
DAV:   6    -0.488140001038E+03   -0.13820E+02   -0.82309E+02 45156   0.113E+02    0.113E+02
DAV:   7    -0.399148213874E+03    0.88992E+02   -0.30795E+02 36948   0.114E+02    0.392E+01
DAV:   8    -0.405185618192E+03   -0.60374E+01   -0.72466E+01 42168   0.294E+01    0.183E+01
DAV:   9    -0.407384299555E+03   -0.21987E+01   -0.26847E+01 37056   0.330E+01    0.174E+01
DAV:  10    -0.405692692366E+03    0.16916E+01   -0.10582E+01 37524   0.132E+01    0.785E+00
DAV:  11    -0.405826660555E+03   -0.13397E+00   -0.23168E+00 36852   0.724E+00    0.553E+00
DAV:  12    -0.405890531177E+03   -0.63871E-01   -0.89914E-01 36564   0.504E+00    0.311E+00
DAV:  13    -0.405894725967E+03   -0.41948E-02   -0.28050E-01 37104   0.395E+00    0.174E+00
DAV:  14    -0.405886852011E+03    0.78740E-02   -0.13482E-01 36540   0.287E+00    0.891E-01
DAV:  15    -0.405888199478E+03   -0.13475E-02   -0.31419E-02 36840   0.126E+00    0.440E-01
DAV:  16    -0.405889564098E+03   -0.13646E-02   -0.10442E-02 36948   0.711E-01    0.306E-01
DAV:  17    -0.405889789360E+03   -0.22526E-03   -0.53713E-03 36888   0.498E-01    0.179E-01
DAV:  18    -0.405889977600E+03   -0.18824E-03   -0.15286E-03 37116   0.241E-01    0.108E-01
DAV:  19    -0.405890053479E+03   -0.75879E-04   -0.59571E-04 36672   0.165E-01    0.811E-02
DAV:  20    -0.405890105001E+03   -0.51522E-04   -0.33243E-04 36600   0.119E-01    0.607E-02
DAV:  21    -0.405890145636E+03   -0.40636E-04   -0.93113E-05 37284   0.723E-02    0.378E-02
DAV:  22    -0.405890152440E+03   -0.68039E-05   -0.58241E-05 34188   0.601E-02
   1 F= -.40589015E+03 E0= -.40588082E+03  d E =-.405890E+03  mag=     0.9062
       N       E                     dE             d eps       ncg     rms          rms(c)
DAV:   1    -0.405890571416E+03   -0.42578E-03   -0.47313E-04 46752   0.234E-01    0.186E-02
DAV:   2    -0.405890595143E+03   -0.23728E-04   -0.23592E-04 36540   0.483E-02    0.216E-02
DAV:   3    -0.405890596182E+03   -0.10386E-05   -0.39229E-05 27360   0.399E-02    0.111E-02
DAV:   4    -0.405890596934E+03   -0.75232E-06   -0.74162E-06 18576   0.147E-02
   2 F= -.40589060E+03 E0= -.40588125E+03  d E =-.444494E-03  mag=     0.9061
       N       E                     dE             d eps       ncg     rms          rms(c)
DAV:   1    -0.405872366371E+03    0.18230E-01   -0.69414E-01 48780   0.912E+00    0.491E-01
DAV:   2    -0.405904907939E+03   -0.32542E-01   -0.33610E-01 36240   0.110E+00    0.293E-01
DAV:   3    -0.405905306712E+03   -0.39877E-03   -0.74308E-03 38016   0.338E-01    0.216E-01
DAV:   4    -0.405905293056E+03    0.13656E-04   -0.13470E-03 37584   0.331E-01    0.187E-01
DAV:   5    -0.405905211428E+03    0.81629E-04   -0.76992E-04 42396   0.206E-01    0.787E-02
DAV:   6    -0.405905201142E+03    0.10285E-04   -0.37705E-04 37740   0.137E-01    0.378E-02
DAV:   7    -0.405905200046E+03    0.10965E-05   -0.10401E-04 33768   0.651E-02    0.208E-02
DAV:   8    -0.405905198380E+03    0.16655E-05   -0.23746E-05 23016   0.317E-02
   3 F= -.40590520E+03 E0= -.40589579E+03  d E =-.146014E-01  mag=     0.9035
       N       E                     dE             d eps       ncg     rms          rms(c)
DAV:   1    -0.405827485509E+03    0.77715E-01   -0.25335E+00 47040   0.151E+01    0.853E-01
DAV:   2    -0.405923277175E+03   -0.95792E-01   -0.98416E-01 36192   0.192E+00    0.539E-01
DAV:   3    -0.405924506358E+03   -0.12292E-02   -0.25725E-02 36804   0.740E-01    0.408E-01
DAV:   4    -0.405924164744E+03    0.34161E-03   -0.53995E-03 37284   0.603E-01    0.319E-01
DAV:   5    -0.405924140320E+03    0.24423E-04   -0.28813E-03 42084   0.324E-01    0.186E-01
DAV:   6    -0.405924040767E+03    0.99553E-04   -0.17304E-03 37608   0.285E-01    0.808E-02
DAV:   7    -0.405924041083E+03   -0.31556E-06   -0.50598E-04 36960   0.132E-01    0.493E-02
DAV:   8    -0.405924031623E+03    0.94604E-05   -0.10061E-04 34620   0.659E-02    0.237E-02
DAV:   9    -0.405924029172E+03    0.24501E-05   -0.23364E-05 25596   0.377E-02
   4 F= -.40592403E+03 E0= -.40591457E+03  d E =-.188308E-01  mag=     0.9008
       N       E                     dE             d eps       ncg     rms          rms(c)
DAV:   1    -0.405907230582E+03    0.16801E-01   -0.17020E+00 44292   0.823E+00    0.470E-01
DAV:   2    -0.405937885526E+03   -0.30655E-01   -0.31397E-01 36624   0.122E+00    0.354E-01
DAV:   3    -0.405938283145E+03   -0.39762E-03   -0.11908E-02 36732   0.612E-01    0.271E-01
DAV:   4    -0.405937993916E+03    0.28923E-03   -0.20995E-03 37272   0.405E-01    0.188E-01
DAV:   5    -0.405937956126E+03    0.37790E-04   -0.93849E-04 41244   0.185E-01    0.106E-01
DAV:   6    -0.405937944028E+03    0.12098E-04   -0.61958E-04 37260   0.193E-01    0.582E-02
DAV:   7    -0.405937935784E+03    0.82433E-05   -0.19065E-04 36684   0.105E-01    0.289E-02
DAV:   8    -0.405937934885E+03    0.89918E-06   -0.50332E-05 31896   0.437E-02
   5 F= -.40593793E+03 E0= -.40592854E+03  d E =-.139057E-01  mag=     0.9021
       N       E                     dE             d eps       ncg     rms          rms(c)
DAV:   1    -0.405899198875E+03    0.38737E-01   -0.39916E+00 42276   0.117E+01    0.632E-01
DAV:   2    -0.405956706648E+03   -0.57508E-01   -0.59441E-01 36840   0.182E+00    0.458E-01
DAV:   3    -0.405957548099E+03   -0.84145E-03   -0.23766E-02 36960   0.885E-01    0.359E-01
DAV:   4    -0.405956896757E+03    0.65134E-03   -0.39252E-03 37956   0.548E-01    0.226E-01
DAV:   5    -0.405956747841E+03    0.14892E-03   -0.14851E-03 40560   0.229E-01    0.134E-01
DAV:   6    -0.405956757962E+03   -0.10122E-04   -0.10458E-03 37428   0.262E-01    0.870E-02
DAV:   7    -0.405956731693E+03    0.26269E-04   -0.37429E-04 36888   0.146E-01    0.394E-02
DAV:   8    -0.405956738933E+03   -0.72392E-05   -0.13657E-04 39036   0.590E-02    0.329E-02
DAV:   9    -0.405956736917E+03    0.20158E-05   -0.48571E-05 27972   0.442E-02
   6 F= -.40595674E+03 E0= -.40594742E+03  d E =-.188020E-01  mag=     0.9032
       N       E                     dE             d eps       ncg     rms          rms(c)
DAV:   1    -0.405867119922E+03    0.89619E-01   -0.43448E+00 44976   0.166E+01    0.843E-01
DAV:   2    -0.405969150906E+03   -0.10203E+00   -0.10530E+00 37344   0.229E+00    0.545E-01
DAV:   3    -0.405970814258E+03   -0.16634E-02   -0.34232E-02 36720   0.102E+00    0.457E-01
DAV:   4    -0.405969960302E+03    0.85396E-03   -0.72609E-03 38196   0.661E-01    0.294E-01
DAV:   5    -0.405969942331E+03    0.17972E-04   -0.27513E-03 40872   0.364E-01    0.235E-01
DAV:   6    -0.405969814305E+03    0.12803E-03   -0.22714E-03 38160   0.364E-01    0.109E-01
DAV:   7    -0.405969803281E+03    0.11025E-04   -0.73001E-04 37956   0.156E-01    0.586E-02
DAV:   8    -0.405969810608E+03   -0.73271E-05   -0.27273E-04 38772   0.933E-02    0.432E-02
DAV:   9    -0.405969804396E+03    0.62116E-05   -0.74589E-05 34860   0.659E-02
   7 F= -.40596980E+03 E0= -.40596066E+03  d E =-.130675E-01  mag=     0.9060
       N       E                     dE             d eps       ncg     rms          rms(c)
DAV:   1    -0.405961760659E+03    0.80499E-02   -0.55121E-01 45564   0.639E+00    0.322E-01
DAV:   2    -0.405977092330E+03   -0.15332E-01   -0.15838E-01 37212   0.879E-01    0.238E-01
DAV:   3    -0.405977302600E+03   -0.21027E-03   -0.56511E-03 36504   0.475E-01    0.201E-01
DAV:   4    -0.405977123643E+03    0.17896E-03   -0.13206E-03 37044   0.275E-01    0.123E-01
DAV:   5    -0.405977120405E+03    0.32382E-05   -0.48561E-04 42900   0.157E-01    0.846E-02
DAV:   6    -0.405977106164E+03    0.14241E-04   -0.42967E-04 37116   0.158E-01    0.412E-02
DAV:   7    -0.405977106723E+03   -0.55962E-06   -0.11187E-04 35964   0.622E-02    0.228E-02
DAV:   8    -0.405977107122E+03   -0.39882E-06   -0.34953E-05 24684   0.387E-02
   8 F= -.40597711E+03 E0= -.40596796E+03  d E =-.730273E-02  mag=     0.9028
       N       E                     dE             d eps       ncg     rms          rms(c)
DAV:   1    -0.405978949937E+03   -0.18432E-02   -0.18884E-01 44772   0.286E+00    0.151E-01
DAV:   2    -0.405982238252E+03   -0.32883E-02   -0.33664E-02 36828   0.420E-01    0.106E-01
DAV:   3    -0.405982279822E+03   -0.41570E-04   -0.11188E-03 36768   0.206E-01    0.865E-02
DAV:   4    -0.405982250444E+03    0.29378E-04   -0.24225E-04 35736   0.131E-01    0.582E-02
DAV:   5    -0.405982249336E+03    0.11084E-05   -0.97126E-05 37008   0.730E-02
   9 F= -.40598225E+03 E0= -.40597310E+03  d E =-.514221E-02  mag=     0.9014
       N       E                     dE             d eps       ncg     rms          rms(c)
DAV:   1    -0.405968451164E+03    0.13799E-01   -0.16906E+00 44508   0.867E+00    0.455E-01
DAV:   2    -0.405998148072E+03   -0.29697E-01   -0.30533E-01 36864   0.130E+00    0.328E-01
DAV:   3    -0.405998646061E+03   -0.49799E-03   -0.12986E-02 36768   0.698E-01    0.266E-01
DAV:   4    -0.405998277906E+03    0.36815E-03   -0.23730E-03 37788   0.395E-01    0.155E-01
DAV:   5    -0.405998260651E+03    0.17256E-04   -0.83800E-04 42660   0.202E-01    0.110E-01
DAV:   6    -0.405998238757E+03    0.21894E-04   -0.67503E-04 37128   0.215E-01    0.590E-02
DAV:   7    -0.405998233888E+03    0.48692E-05   -0.18240E-04 36708   0.933E-02    0.249E-02
DAV:   8    -0.405998238992E+03   -0.51046E-05   -0.64166E-05 36144   0.423E-02
  10 F= -.40599824E+03 E0= -.40598916E+03  d E =-.159897E-01  mag=     0.8977
       N       E                     dE             d eps       ncg     rms          rms(c)
DAV:   1    -0.405866490935E+03    0.13174E+00   -0.34857E+00 46140   0.211E+01    0.105E+00
DAV:   2    -0.406017832304E+03   -0.15134E+00   -0.15469E+00 37164   0.265E+00    0.627E-01
DAV:   3    -0.406020270292E+03   -0.24380E-02   -0.41098E-02 37092   0.110E+00    0.520E-01
DAV:   4    -0.406019413652E+03    0.85664E-03   -0.96406E-03 37188   0.721E-01    0.350E-01
DAV:   5    -0.406019588812E+03   -0.17516E-03   -0.36806E-03 41484   0.415E-01    0.260E-01
DAV:   6    -0.406019387145E+03    0.20167E-03   -0.28315E-03 37836   0.404E-01    0.103E-01
DAV:   7    -0.406019379099E+03    0.80459E-05   -0.71972E-04 37920   0.160E-01    0.556E-02
DAV:   8    -0.406019383045E+03   -0.39458E-05   -0.22850E-04 36960   0.945E-02    0.369E-02
DAV:   9    -0.406019377094E+03    0.59515E-05   -0.61193E-05 33696   0.597E-02
  11 F= -.40601938E+03 E0= -.40601025E+03  d E =-.211381E-01  mag=     0.8988
       N       E                     dE             d eps       ncg     rms          rms(c)
DAV:   1    -0.405998167073E+03    0.21216E-01   -0.11803E+00 45576   0.911E+00    0.453E-01
DAV:   2    -0.406028953363E+03   -0.30786E-01   -0.31851E-01 36612   0.124E+00    0.278E-01
DAV:   3    -0.406029395858E+03   -0.44250E-03   -0.90207E-03 37056   0.515E-01    0.230E-01
DAV:   4    -0.406029208519E+03    0.18734E-03   -0.19212E-03 38184   0.349E-01    0.157E-01
DAV:   5    -0.406029154214E+03    0.54305E-04   -0.68499E-04 42900   0.174E-01    0.933E-02
DAV:   6    -0.406029144067E+03    0.10147E-04   -0.48206E-04 37548   0.183E-01    0.543E-02
DAV:   7    -0.406029136400E+03    0.76669E-05   -0.14913E-04 36684   0.879E-02    0.235E-02
DAV:   8    -0.406029138897E+03   -0.24977E-05   -0.53591E-05 31536   0.382E-02
  12 F= -.40602914E+03 E0= -.40602011E+03  d E =-.976180E-02  mag=     0.8947
       N       E                     dE             d eps       ncg     rms          rms(c)
DAV:   1    -0.406020412965E+03    0.87234E-02   -0.14248E-01 46656   0.444E+00    0.218E-01
DAV:   2    -0.406026969023E+03   -0.65561E-02   -0.67377E-02 36528   0.549E-01    0.131E-01
DAV:   3    -0.406027093283E+03   -0.12426E-03   -0.20528E-03 36720   0.259E-01    0.111E-01
DAV:   4    -0.406027053753E+03    0.39530E-04   -0.45389E-04 36456   0.171E-01    0.716E-02
DAV:   5    -0.406027060875E+03   -0.71221E-05   -0.15326E-04 39276   0.823E-02    0.472E-02
DAV:   6    -0.406027056266E+03    0.46086E-05   -0.10988E-04 36588   0.876E-02    0.228E-02
DAV:   7    -0.406027055131E+03    0.11356E-05   -0.27657E-05 22968   0.341E-02
  13 F= -.40602706E+03 E0= -.40601802E+03  d E =0.208377E-02  mag=     0.8951
       N       E                     dE             d eps       ncg     rms          rms(c)
DAV:   1    -0.406021406070E+03    0.56502E-02   -0.25477E-01 45564   0.440E+00    0.217E-01
DAV:   2    -0.406028433965E+03   -0.70279E-02   -0.71413E-02 36216   0.574E-01    0.121E-01
DAV:   3    -0.406028506888E+03   -0.72924E-04   -0.14524E-03 37212   0.174E-01    0.936E-02
DAV:   4    -0.406028502063E+03    0.48251E-05   -0.37192E-04 37332   0.149E-01    0.772E-02
DAV:   5    -0.406028485026E+03    0.17037E-04   -0.15658E-04 41796   0.878E-02    0.376E-02
DAV:   6    -0.406028485449E+03   -0.42337E-06   -0.94498E-05 36480   0.676E-02
  14 F= -.40602849E+03 E0= -.40601942E+03  d E =-.143032E-02  mag=     0.8945
       N       E                     dE             d eps       ncg     rms          rms(c)
DAV:   1    -0.405938517863E+03    0.89967E-01   -0.43349E+00 45516   0.159E+01    0.790E-01
DAV:   2    -0.406033916309E+03   -0.95398E-01   -0.96892E-01 36456   0.215E+00    0.431E-01
DAV:   3    -0.406034637928E+03   -0.72162E-03   -0.17440E-02 38892   0.574E-01    0.323E-01
DAV:   4    -0.406034631194E+03    0.67334E-05   -0.45017E-03 37536   0.527E-01    0.279E-01
DAV:   5    -0.406034306462E+03    0.32473E-03   -0.19384E-03 41760   0.332E-01    0.109E-01
DAV:   6    -0.406034336771E+03   -0.30309E-04   -0.99447E-04 40392   0.218E-01    0.713E-02
DAV:   7    -0.406034331514E+03    0.52576E-05   -0.37512E-04 37212   0.123E-01    0.376E-02
DAV:   8    -0.406034330209E+03    0.13044E-05   -0.90047E-05 34644   0.519E-02
  15 F= -.40603433E+03 E0= -.40602519E+03  d E =-.584476E-02  mag=     0.8931
       N       E                     dE             d eps       ncg     rms          rms(c)
DAV:   1    -0.405843134478E+03    0.19120E+00   -0.73964E+00 45576   0.229E+01    0.112E+00
DAV:   2    -0.406032626260E+03   -0.18949E+00   -0.19309E+00 36312   0.300E+00    0.612E-01
DAV:   3    -0.406034193480E+03   -0.15672E-02   -0.34351E-02 38904   0.761E-01    0.453E-01
DAV:   4    -0.406034303942E+03   -0.11046E-03   -0.85877E-03 38532   0.718E-01    0.402E-01
DAV:   5    -0.406033730526E+03    0.57342E-03   -0.46040E-03 42000   0.491E-01    0.184E-01
DAV:   6    -0.406033709962E+03    0.20564E-04   -0.24086E-03 40620   0.326E-01    0.101E-01
DAV:   7    -0.406033700497E+03    0.94653E-05   -0.66396E-04 37308   0.150E-01    0.499E-02
DAV:   8    -0.406033697874E+03    0.26228E-05   -0.15029E-04 36588   0.736E-02    0.369E-02
DAV:   9    -0.406033690746E+03    0.71278E-05   -0.50421E-05 30288   0.597E-02
  16 F= -.40603369E+03 E0= -.40602466E+03  d E =0.639463E-03  mag=     0.8954
       N       E                     dE             d eps       ncg     rms          rms(c)
DAV:   1    -0.405998222908E+03    0.35475E-01   -0.10755E+00 45792   0.104E+01    0.502E-01
DAV:   2    -0.406035520750E+03   -0.37298E-01   -0.38670E-01 36864   0.132E+00    0.300E-01
DAV:   3    -0.406035990871E+03   -0.47012E-03   -0.95401E-03 36792   0.510E-01    0.247E-01
DAV:   4    -0.406035830511E+03    0.16036E-03   -0.24076E-03 37092   0.372E-01    0.178E-01
DAV:   5    -0.406035805442E+03    0.25069E-04   -0.10365E-03 43044   0.205E-01    0.117E-01
DAV:   6    -0.406035766182E+03    0.39260E-04   -0.67723E-04 37812   0.189E-01    0.499E-02
DAV:   7    -0.406035764053E+03    0.21288E-05   -0.17599E-04 36312   0.784E-02    0.276E-02
DAV:   8    -0.406035763982E+03    0.70868E-07   -0.46077E-05 29100   0.464E-02
  17 F= -.40603576E+03 E0= -.40602658E+03  d E =-.207324E-02  mag=     0.8926
       N       E                     dE             d eps       ncg     rms          rms(c)
DAV:   1    -0.406034623910E+03    0.11401E-02   -0.60807E-02 46428   0.266E+00    0.130E-01
DAV:   2    -0.406037060057E+03   -0.24361E-02   -0.25093E-02 36864   0.332E-01    0.792E-02
DAV:   3    -0.406037091580E+03   -0.31523E-04   -0.61891E-04 36972   0.134E-01    0.662E-02
DAV:   4    -0.406037079694E+03    0.11886E-04   -0.14237E-04 35556   0.973E-02    0.465E-02
DAV:   5    -0.406037076801E+03    0.28935E-05   -0.49615E-05 35124   0.478E-02
  18 F= -.40603708E+03 E0= -.40602790E+03  d E =-.131282E-02  mag=     0.8918
