       N       E                     dE             d eps       ncg     rms          rms(c)
DAV:   1     0.307061747638E+04    0.30706E+04   -0.25836E+05 73608   0.131E+03
DAV:   2    -0.610954233608E+03   -0.36816E+04   -0.35483E+04 89640   0.297E+02
DAV:   3    -0.872643696291E+03   -0.26169E+03   -0.26001E+03 88956   0.838E+01
DAV:   4    -0.875919509719E+03   -0.32758E+01   -0.32637E+01 89436   0.101E+01
DAV:   5    -0.875975071541E+03   -0.55562E-01   -0.55426E-01 91092   0.121E+00    0.990E+01
DAV:   6    -0.780115361486E+03    0.95860E+02   -0.40588E+02 83268   0.319E+01    0.502E+01
DAV:   7    -0.789375914752E+03   -0.92606E+01   -0.21929E+01 83148   0.766E+00    0.163E+01
DAV:   8    -0.793533314229E+03   -0.41574E+01   -0.16681E+00 86868   0.247E+00    0.781E+00
DAV:   9    -0.795752705048E+03   -0.22194E+01   -0.10356E+00 88356   0.170E+00    0.385E+00
DAV:  10    -0.796271230054E+03   -0.51853E+00   -0.29386E-01 84096   0.940E-01    0.112E+00
DAV:  11    -0.796343977851E+03   -0.72748E-01   -0.40671E-02 87660   0.355E-01    0.617E-01
DAV:  12    -0.796353639740E+03   -0.96619E-02   -0.50357E-03 85692   0.137E-01    0.274E-01
DAV:  13    -0.796355933092E+03   -0.22934E-02   -0.12912E-03 87312   0.695E-02    0.806E-02
DAV:  14    -0.796356308407E+03   -0.37531E-03   -0.28572E-04 84540   0.349E-02    0.445E-02
DAV:  15    -0.796356335841E+03   -0.27434E-04   -0.40704E-05 82548   0.174E-02    0.286E-02
DAV:  16    -0.796356345460E+03   -0.96194E-05   -0.15833E-05 61200   0.131E-02
   1 F= -.79635635E+03 E0= -.79635635E+03  d E =-.796356E+03  mag=    -0.0035
