       N       E                     dE             d eps       ncg     rms          rms(c)
DAV:   1     0.581245203019E+04    0.58125E+04   -0.20836E+05 16808   0.162E+03
DAV:   2     0.353268376472E+03   -0.54592E+04   -0.49380E+04 16584   0.492E+02
DAV:   3    -0.472996994365E+03   -0.82627E+03   -0.77494E+03 17656   0.201E+02
DAV:   4    -0.516905750233E+03   -0.43909E+02   -0.43330E+02 18376   0.471E+01
DAV:   5    -0.517441341493E+03   -0.53559E+00   -0.53433E+00 18072   0.563E+00    0.121E+02
DAV:   6    -0.451962074287E+03    0.65479E+02   -0.51644E+02 20544   0.877E+01    0.995E+01
DAV:   7    -0.428639696042E+03    0.23322E+02   -0.26311E+02 18352   0.952E+01    0.644E+01
DAV:   8    -0.448713433290E+03   -0.20074E+02   -0.32487E+02 20472   0.380E+01    0.528E+01
DAV:   9    -0.418437117950E+03    0.30276E+02   -0.15807E+01 20024   0.183E+01    0.277E+01
DAV:  10    -0.420001839704E+03   -0.15647E+01   -0.14630E+01 19080   0.203E+01    0.216E+01
DAV:  11    -0.417785067369E+03    0.22168E+01   -0.47066E+00 18888   0.123E+01    0.906E+00
DAV:  12    -0.418293319755E+03   -0.50825E+00   -0.22961E+00 18368   0.952E+00    0.112E+01
DAV:  13    -0.417814718412E+03    0.47860E+00   -0.12465E+00 18408   0.683E+00    0.378E+00
DAV:  14    -0.417827174195E+03   -0.12456E-01   -0.22799E-01 17584   0.225E+00    0.166E+00
DAV:  15    -0.417846016119E+03   -0.18842E-01   -0.63393E-02 18616   0.153E+00    0.173E+00
DAV:  16    -0.417838762154E+03    0.72540E-02   -0.36425E-02 18096   0.126E+00    0.792E-01
DAV:  17    -0.417840549012E+03   -0.17869E-02   -0.92512E-03 17704   0.510E-01    0.400E-01
DAV:  18    -0.417840720708E+03   -0.17170E-03   -0.27852E-03 17992   0.205E-01    0.269E-01
DAV:  19    -0.417840838964E+03   -0.11826E-03   -0.97345E-04 18128   0.239E-01    0.246E-01
DAV:  20    -0.417840758361E+03    0.80604E-04   -0.40427E-04 17824   0.167E-01    0.131E-01
DAV:  21    -0.417840893279E+03   -0.13492E-03   -0.27058E-04 17488   0.977E-02    0.787E-02
DAV:  22    -0.417840916561E+03   -0.23282E-04   -0.18027E-04 17584   0.105E-01    0.785E-02
DAV:  23    -0.417840904573E+03    0.11989E-04   -0.62780E-05 15920   0.606E-02    0.353E-02
DAV:  24    -0.417840908824E+03   -0.42519E-05   -0.17217E-05 12480   0.226E-02
   1 F= -.41784091E+03 E0= -.41783340E+03  d E =-.417841E+03  mag=    41.0003
       N       E                     dE             d eps       ncg     rms          rms(c)
DAV:   1    -0.417841447489E+03   -0.54292E-03   -0.41878E-03 23616   0.546E-01    0.580E-02
DAV:   2    -0.417841625887E+03   -0.17840E-03   -0.16674E-03 17872   0.999E-02    0.565E-02
DAV:   3    -0.417841638292E+03   -0.12404E-04   -0.14991E-04 16600   0.878E-02    0.562E-02
DAV:   4    -0.417841626586E+03    0.11706E-04   -0.23730E-05 13056   0.423E-02    0.145E-02
DAV:   5    -0.417841627215E+03   -0.62920E-06   -0.39184E-06  8960   0.106E-02
   2 F= -.41784163E+03 E0= -.41783412E+03  d E =-.718391E-03  mag=    41.0000
       N       E                     dE             d eps       ncg     rms          rms(c)
DAV:   1    -0.417823102907E+03    0.18524E-01   -0.59660E-01 23584   0.647E+00    0.659E-01
DAV:   2    -0.417847228436E+03   -0.24126E-01   -0.23537E-01 17728   0.108E+00    0.411E-01
DAV:   3    -0.417849213058E+03   -0.19846E-02   -0.10160E-02 17776   0.627E-01    0.539E-01
DAV:   4    -0.417848095357E+03    0.11177E-02   -0.22638E-03 17512   0.374E-01    0.166E-01
DAV:   5    -0.417848105693E+03   -0.10337E-04   -0.44121E-04 18680   0.816E-02    0.130E-01
DAV:   6    -0.417848155495E+03   -0.49801E-04   -0.27332E-04 18280   0.133E-01    0.149E-01
DAV:   7    -0.417848086370E+03    0.69125E-04   -0.14581E-04 17232   0.104E-01    0.398E-02
DAV:   8    -0.417848095055E+03   -0.86857E-05   -0.43122E-05 15024   0.377E-02
   3 F= -.41784810E+03 E0= -.41784062E+03  d E =-.646784E-02  mag=    41.0000
       N       E                     dE             d eps       ncg     rms          rms(c)
DAV:   1    -0.417816435019E+03    0.31651E-01   -0.11303E+00 22128   0.783E+00    0.791E-01
DAV:   2    -0.417851495503E+03   -0.35060E-01   -0.33977E-01 17712   0.133E+00    0.528E-01
DAV:   3    -0.417854594146E+03   -0.30986E-02   -0.17125E-02 17816   0.814E-01    0.704E-01
DAV:   4    -0.417852612446E+03    0.19817E-02   -0.36054E-03 17632   0.480E-01    0.197E-01
DAV:   5    -0.417852655863E+03   -0.43417E-04   -0.74101E-04 19240   0.113E-01    0.167E-01
DAV:   6    -0.417852672893E+03   -0.17029E-04   -0.42458E-04 18896   0.161E-01    0.161E-01
DAV:   7    -0.417852609205E+03    0.63688E-04   -0.19477E-04 19008   0.115E-01    0.518E-02
DAV:   8    -0.417852621259E+03   -0.12054E-04   -0.74668E-05 17672   0.530E-02    0.443E-02
DAV:   9    -0.417852615487E+03    0.57714E-05   -0.35309E-05 13768   0.456E-02
   4 F= -.41785262E+03 E0= -.41784517E+03  d E =-.452043E-02  mag=    41.0000
       N       E                     dE             d eps       ncg     rms          rms(c)
DAV:   1    -0.417848006953E+03    0.46143E-02   -0.40603E-01 20088   0.335E+00    0.315E-01
DAV:   2    -0.417854282720E+03   -0.62758E-02   -0.60867E-02 17656   0.594E-01    0.218E-01
DAV:   3    -0.417854744018E+03   -0.46130E-03   -0.29247E-03 17848   0.340E-01    0.277E-01
DAV:   4    -0.417854425046E+03    0.31897E-03   -0.63841E-04 18376   0.211E-01    0.771E-02
DAV:   5    -0.417854427831E+03   -0.27852E-05   -0.13859E-04 18600   0.542E-02    0.730E-02
DAV:   6    -0.417854419296E+03    0.85348E-05   -0.82708E-05 16392   0.708E-02
   5 F= -.41785442E+03 E0= -.41784699E+03  d E =-.180381E-02  mag=    41.0000
       N       E                     dE             d eps       ncg     rms          rms(c)
DAV:   1    -0.417818753430E+03    0.35674E-01   -0.31730E+00 19688   0.829E+00    0.760E-01
DAV:   2    -0.417857184967E+03   -0.38432E-01   -0.37123E-01 17792   0.154E+00    0.622E-01
DAV:   3    -0.417859564270E+03   -0.23793E-02   -0.21114E-02 17648   0.897E-01    0.699E-01
DAV:   4    -0.417857461192E+03    0.21031E-02   -0.39721E-03 18808   0.503E-01    0.198E-01
DAV:   5    -0.417857472890E+03   -0.11698E-04   -0.97130E-04 19224   0.148E-01    0.194E-01
DAV:   6    -0.417857382597E+03    0.90293E-04   -0.56667E-04 18456   0.181E-01    0.152E-01
DAV:   7    -0.417857324113E+03    0.58484E-04   -0.25295E-04 19360   0.108E-01    0.425E-02
DAV:   8    -0.417857341383E+03   -0.17270E-04   -0.10005E-04 18336   0.643E-02    0.536E-02
DAV:   9    -0.417857331254E+03    0.10129E-04   -0.40720E-05 14904   0.487E-02    0.153E-02
DAV:  10    -0.417857331592E+03   -0.33855E-06   -0.45227E-06  9104   0.101E-02
   6 F= -.41785733E+03 E0= -.41784992E+03  d E =-.291230E-02  mag=    41.0000
       N       E                     dE             d eps       ncg     rms          rms(c)
DAV:   1    -0.417845417101E+03    0.11914E-01   -0.65011E-01 21376   0.475E+00    0.458E-01
DAV:   2    -0.417858166143E+03   -0.12749E-01   -0.12205E-01 17752   0.877E-01    0.392E-01
DAV:   3    -0.417859034620E+03   -0.86848E-03   -0.76032E-03 17576   0.565E-01    0.429E-01
DAV:   4    -0.417858282322E+03    0.75230E-03   -0.13954E-03 18312   0.324E-01    0.123E-01
DAV:   5    -0.417858302273E+03   -0.19951E-04   -0.34824E-04 19456   0.817E-02    0.114E-01
DAV:   6    -0.417858287833E+03    0.14441E-04   -0.17361E-04 17696   0.103E-01    0.934E-02
DAV:   7    -0.417858272253E+03    0.15580E-04   -0.75106E-05 17024   0.665E-02    0.347E-02
DAV:   8    -0.417858276019E+03   -0.37662E-05   -0.36265E-05 13912   0.440E-02
   7 F= -.41785828E+03 E0= -.41785084E+03  d E =-.944426E-03  mag=    41.0000
