       N       E                     dE             d eps       ncg     rms          rms(c)
DAV:   1     0.462041504237E+04    0.46204E+04   -0.17728E+05 26844   0.181E+03
DAV:   2     0.555602811518E+03   -0.40648E+04   -0.38074E+04 27096   0.485E+02
DAV:   3    -0.322187102297E+03   -0.87779E+03   -0.75970E+03 28008   0.216E+02
DAV:   4    -0.404560249673E+03   -0.82373E+02   -0.80729E+02 29952   0.714E+01
DAV:   5    -0.406517263591E+03   -0.19570E+01   -0.19484E+01 29532   0.118E+01    0.605E-01
DAV:   6    -0.406592779503E+03   -0.75516E-01   -0.76574E-01 39864   0.215E+00    0.615E-01
DAV:   7    -0.406590419486E+03    0.23600E-02   -0.28263E-02 40638   0.106E+00    0.242E-01
DAV:   8    -0.406590456247E+03   -0.36761E-04   -0.41299E-03 37956   0.289E-01    0.153E-01
DAV:   9    -0.406590466436E+03   -0.10189E-04   -0.22501E-04 34818   0.849E-02    0.134E-01
DAV:  10    -0.406590456425E+03    0.10011E-04   -0.50059E-05 26292   0.555E-02    0.124E-01
DAV:  11    -0.406590446799E+03    0.96263E-05   -0.76714E-06 17022   0.140E-02
   1 F= -.40659045E+03 E0= -.40658152E+03  d E =-.406590E+03  mag=    -0.8801
       N       E                     dE             d eps       ncg     rms          rms(c)
DAV:   1    -0.406590524882E+03   -0.68457E-04   -0.32146E-02 27792   0.485E-01    0.144E-01
DAV:   2    -0.406590547221E+03   -0.22339E-04   -0.17291E-03 34938   0.289E-01    0.981E-02
DAV:   3    -0.406590427885E+03    0.11934E-03   -0.43274E-04 35676   0.215E-01    0.637E-02
DAV:   4    -0.406590419713E+03    0.81717E-05   -0.19879E-04 38982   0.764E-02    0.335E-02
DAV:   5    -0.406590415250E+03    0.44627E-05   -0.53365E-05 21804   0.778E-02
   2 F= -.40659042E+03 E0= -.40658152E+03  d E =0.315487E-04  mag=    -0.8799
