       N       E                     dE             d eps       ncg     rms          rms(c)
DAV:   1     0.826696800874E+04    0.82670E+04   -0.23534E+05 34308   0.219E+03
DAV:   2     0.116483123015E+04   -0.71021E+04   -0.66565E+04 33696   0.634E+02
DAV:   3    -0.386941242182E+03   -0.15518E+04   -0.13664E+04 35940   0.273E+02
DAV:   4    -0.544845739278E+03   -0.15790E+03   -0.15503E+03 36840   0.837E+01
DAV:   5    -0.547679210083E+03   -0.28335E+01   -0.28185E+01 36636   0.126E+01    0.105E+02
DAV:   6    -0.552234937260E+03   -0.45557E+01   -0.92158E+02 44748   0.116E+02    0.121E+02
DAV:   7    -0.439970486266E+03    0.11226E+03   -0.33316E+02 36768   0.119E+02    0.359E+01
DAV:   8    -0.441772864780E+03   -0.18024E+01   -0.72872E+01 40116   0.234E+01    0.107E+01
DAV:   9    -0.445156454577E+03   -0.33836E+01   -0.16667E+01 39480   0.218E+01    0.197E+01
DAV:  10    -0.442379191268E+03    0.27773E+01   -0.59859E+00 37548   0.158E+01    0.463E+00
DAV:  11    -0.442494831785E+03   -0.11564E+00   -0.14949E+00 37164   0.601E+00    0.479E+00
DAV:  12    -0.442432179438E+03    0.62652E-01   -0.11708E+00 36996   0.444E+00    0.266E+00
DAV:  13    -0.442459776660E+03   -0.27597E-01   -0.69232E-01 39384   0.342E+00    0.253E+00
DAV:  14    -0.442414637329E+03    0.45139E-01   -0.21297E-01 42960   0.241E+00    0.790E-01
DAV:  15    -0.442417746484E+03   -0.31092E-02   -0.67134E-02 38880   0.153E+00    0.920E-01
DAV:  16    -0.442413082867E+03    0.46636E-02   -0.39301E-02 39408   0.986E-01    0.295E-01
DAV:  17    -0.442413642185E+03   -0.55932E-03   -0.77568E-03 37932   0.586E-01    0.323E-01
DAV:  18    -0.442413076887E+03    0.56530E-03   -0.37643E-03 37392   0.425E-01    0.109E-01
DAV:  19    -0.442413179922E+03   -0.10304E-03   -0.12106E-03 39156   0.223E-01    0.122E-01
DAV:  20    -0.442413102435E+03    0.77487E-04   -0.68522E-04 39492   0.179E-01    0.455E-02
DAV:  21    -0.442413122755E+03   -0.20321E-04   -0.14719E-04 34968   0.792E-02    0.497E-02
DAV:  22    -0.442413116204E+03    0.65516E-05   -0.79611E-05 29796   0.639E-02
   1 F= -.44241312E+03 E0= -.44239633E+03  d E =-.335719E-01  mag=     0.3435
