       N       E                     dE             d eps       ncg     rms          ort
DAV:   1     0.826707767890E+04    0.82671E+04   -0.24586E+05  8424   0.238E+03
DAV:   2     0.879706997172E+03   -0.73874E+04   -0.69172E+04  8424   0.658E+02
DAV:   3    -0.735710931410E+03   -0.16154E+04   -0.14248E+04  8424   0.284E+02
DAV:   4    -0.894475404396E+03   -0.15876E+03   -0.15607E+03  8424   0.864E+01
DAV:   5    -0.897124849890E+03   -0.26494E+01   -0.26361E+01  8424   0.125E+01
SDA:   6    -0.190877733294E+03    0.70625E+03   -0.26361E+01  8424   0.632E+04 0.000E+00
CGA:   7    -0.336485569363E+03   -0.14561E+03   -0.37357E+03  8424   0.168E+05-0.342E+04
CGA:   8    -0.838402990791E+02    0.25265E+03   -0.86363E+03  8424   0.361E+05-0.170E+05
CGA:   9     0.323735712570E+04    0.33212E+04   -0.22872E+04  8424   0.141E+06-0.492E+05
CGA:  10     0.610217862465E+04    0.28648E+04   -0.10641E+05  8424   0.403E+05-0.275E+05
CGA:  11     0.278183974923E+04   -0.33203E+04   -0.18455E+04  8424   0.154E+06-0.229E+06
CGA:  12     0.565662054438E+04    0.28748E+04   -0.11183E+05  8424   0.255E+05-0.166E+05
CGA:  13     0.200735101658E+04   -0.36493E+04   -0.10237E+04  8424   0.608E+05-0.109E+06
CGA:  14     0.519961645514E+04    0.31923E+04   -0.37546E+04  8424   0.209E+05-0.107E+05
CGA:  15     0.267009352756E+04   -0.25295E+04   -0.62524E+03  8424   0.781E+05-0.131E+06
CGA:  16     0.519300000514E+04    0.25229E+04   -0.44701E+04  8424   0.192E+05-0.117E+05
CGA:  17     0.161168305073E+04   -0.35813E+04   -0.55554E+03  8424   0.918E+05-0.163E+06
CGA:  18     0.511021754131E+04    0.34985E+04   -0.52455E+04  8424   0.361E+05-0.197E+05
CGA:  19     0.350326810074E+04   -0.16069E+04   -0.11708E+04  8424   0.113E+06-0.104E+06
CGA:  20     0.480107242398E+04    0.12978E+04   -0.59383E+04  8424   0.230E+05-0.171E+05
CGA:  21     0.154338533361E+04   -0.32577E+04   -0.64595E+03  8424   0.377E+05-0.758E+05
CGA:  22     0.181950137022E+04    0.27612E+03   -0.14997E+04  8424   0.255E+06-0.197E+06
CGA:  23     0.426772407222E+04    0.24482E+04   -0.13933E+05  8424   0.193E+05-0.117E+05
CGA:  24    -0.385120909307E+03   -0.46528E+04   -0.43148E+03  8424   0.102E+05 0.334E+05
CGA:  25    -0.613611241333E+03   -0.22849E+03   -0.26835E+03  8424   0.737E+03 0.122E+04
CGA:  26    -0.652491539615E+03   -0.38880E+02   -0.22023E+02  8424   0.286E+03 0.600E+03
CGA:  27    -0.664365079169E+03   -0.11874E+02   -0.13977E+02  8424   0.947E+02 0.336E+02
CGA:  28    -0.677405835004E+03   -0.13041E+02   -0.15176E+02  8424   0.205E+03-0.376E+02
CGA:  29    -0.682928219369E+03   -0.55224E+01   -0.55333E+01  8424   0.747E+02-0.310E+01
CGA:  30    -0.685863516391E+03   -0.29353E+01   -0.35553E+01  8424   0.958E+02-0.196E+02
CGA:  31    -0.692222550901E+03   -0.63590E+01   -0.64543E+01  8424   0.331E+02 0.120E+02
CGA:  32    -0.694202355701E+03   -0.19798E+01   -0.15418E+01  8424   0.132E+02 0.123E+02
CGA:  33    -0.694716752133E+03   -0.51440E+00   -0.43570E+00  8424   0.925E+01-0.171E+01
CGA:  34    -0.694914682941E+03   -0.19793E+00   -0.24238E+00  8424   0.196E+02-0.918E+00
CGA:  35    -0.695498813912E+03   -0.58413E+00   -0.68028E+00  8424   0.312E+02 0.442E+01
CGA:  36    -0.695556194241E+03   -0.57380E-01   -0.67202E+00  8424   0.185E+02-0.356E+02
CGA:  37    -0.696458720090E+03   -0.90253E+00   -0.59116E+00  8424   0.708E+01 0.517E+01
CGA:  38    -0.696739448258E+03   -0.28073E+00   -0.23740E+00  8424   0.589E+01 0.100E+01
CGA:  39    -0.696942474907E+03   -0.20303E+00   -0.25614E+00  8424   0.443E+01-0.470E+00
CGA:  40    -0.697039012793E+03   -0.96538E-01   -0.10493E+00  8424   0.271E+01-0.287E+00
CGA:  41    -0.697200849804E+03   -0.16184E+00   -0.16311E+00  8424   0.411E+01 0.650E-01
CGA:  42    -0.697316026984E+03   -0.11518E+00   -0.88672E-01  8424   0.162E+01 0.111E+01
CGA:  43    -0.697374569413E+03   -0.58542E-01   -0.62088E-01  8424   0.177E+01-0.552E-01
CGA:  44    -0.697449128574E+03   -0.74559E-01   -0.78037E-01  8424   0.238E+01 0.386E-01
CGA:  45    -0.697500386494E+03   -0.51258E-01   -0.45026E-01  8424   0.108E+01 0.359E+00
CGA:  46    -0.697528757330E+03   -0.28371E-01   -0.29354E-01  8424   0.922E+00-0.657E-02
CGA:  47    -0.697557337199E+03   -0.28580E-01   -0.29749E-01  8424   0.118E+01-0.811E-02
CGA:  48    -0.697587783863E+03   -0.30447E-01   -0.32247E-01  8424   0.837E+00-0.826E-02
CGA:  49    -0.697610739404E+03   -0.22956E-01   -0.24921E-01  8424   0.705E+00-0.188E-01
CGA:  50    -0.697643466778E+03   -0.32727E-01   -0.33209E-01  8424   0.580E+00 0.177E-01
CGA:  51    -0.697663771759E+03   -0.20305E-01   -0.20487E-01  8424   0.320E+00-0.856E-02
CGA:  52    -0.697682900934E+03   -0.19129E-01   -0.19029E-01  8424   0.337E+00 0.720E-02
CGA:  53    -0.697698395783E+03   -0.15495E-01   -0.15615E-01  8424   0.162E+00 0.188E-02
CGA:  54    -0.697709032749E+03   -0.10637E-01   -0.10522E-01  8424   0.178E+00 0.915E-02
CGA:  55    -0.697722443921E+03   -0.13411E-01   -0.13192E-01  8424   0.133E+00 0.124E-01
CGA:  56    -0.697733797364E+03   -0.11353E-01   -0.11213E-01  8424   0.153E+00 0.413E-02
CGA:  57    -0.697748067238E+03   -0.14270E-01   -0.14765E-01  8424   0.135E+00-0.130E-01
CGA:  58    -0.697761234246E+03   -0.13167E-01   -0.14167E-01  8424   0.173E+00-0.171E-01
CGA:  59    -0.697772134726E+03   -0.10900E-01   -0.11021E-01  8424   0.101E+00-0.121E-01
CGA:  60    -0.697780141819E+03   -0.80071E-02   -0.80762E-02  8424   0.729E-01-0.371E-02
CGA:  61    -0.697786591618E+03   -0.64498E-02   -0.65195E-02  8424   0.639E-01-0.207E-02
CGA:  62    -0.697793550926E+03   -0.69593E-02   -0.69959E-02  8424   0.525E-01-0.741E-03
CGA:  63    -0.697798253903E+03   -0.47030E-02   -0.48255E-02  8424   0.467E-01-0.506E-02
CGA:  64    -0.697803541739E+03   -0.52878E-02   -0.78608E-02  8424   0.663E-01-0.218E-01
CGA:  65    -0.697805777263E+03   -0.22355E-02   -0.21764E-02  8424   0.455E-01-0.497E-02
CGA:  66    -0.697808369656E+03   -0.25924E-02   -0.25909E-02  8424   0.239E-01-0.161E-03
SDA:  67    -0.697809997108E+03   -0.16275E-02   -0.16376E-02  8424   0.201E-01 0.245E-02
CGA:  68    -0.697813180587E+03   -0.31835E-02   -0.30655E-02  8424   0.166E-01 0.149E-02
CGA:  69    -0.697818675194E+03   -0.54946E-02   -0.62248E-02  8424   0.625E-01-0.418E-02
CGA:  70    -0.697821070000E+03   -0.23948E-02   -0.23628E-02  8424   0.334E-01 0.181E-02
CGA:  71    -0.697822256544E+03   -0.11865E-02   -0.12077E-02  8424   0.125E-01 0.623E-03
CGA:  72    -0.697823097456E+03   -0.84091E-03   -0.84061E-03  8424   0.138E-01-0.173E-04
CGA:  73    -0.697823836670E+03   -0.73921E-03   -0.72379E-03  8424   0.791E-02-0.325E-03
CGA:  74    -0.697824245290E+03   -0.40862E-03   -0.39941E-03  8424   0.683E-02-0.218E-03
CGA:  75    -0.697824625920E+03   -0.38063E-03   -0.38187E-03  8424   0.505E-02 0.476E-04
CGA:  76    -0.697824825163E+03   -0.19924E-03   -0.20932E-03  8424   0.291E-02 0.263E-03
CGA:  77    -0.697824996245E+03   -0.17108E-03   -0.17904E-03  8424   0.321E-02 0.393E-03
CGA:  78    -0.697825174041E+03   -0.17780E-03   -0.18749E-03  8424   0.166E-02 0.365E-03
CGA:  79    -0.697825261990E+03   -0.87950E-04   -0.90317E-04  8424   0.138E-02 0.811E-04
CGA:  80    -0.697825387880E+03   -0.12589E-03   -0.12577E-03  8424   0.207E-02 0.690E-05
CGA:  81    -0.697825494264E+03   -0.10638E-03   -0.10571E-03  8424   0.134E-02-0.348E-04
CGA:  82    -0.697825589172E+03   -0.94908E-04   -0.94527E-04  8424   0.190E-02-0.149E-03
CGA:  83    -0.697825701436E+03   -0.11226E-03   -0.10926E-03  8424   0.132E-02-0.329E-03
CGA:  84    -0.697825751641E+03   -0.50205E-04   -0.45024E-04  8424   0.819E-03-0.165E-03
CGA:  85    -0.697825808421E+03   -0.56780E-04   -0.58204E-04  8424   0.129E-02-0.159E-03
CGA:  86    -0.697825866676E+03   -0.58255E-04   -0.54410E-04  8424   0.826E-03-0.198E-03
CGA:  87    -0.697825912595E+03   -0.45919E-04   -0.41880E-04  8424   0.865E-03-0.351E-03
CGA:  88    -0.697824090037E+03    0.18226E-02   -0.98407E-03  8424   0.165E-01-0.530E-02
CGA:  89    -0.697825367169E+03   -0.12771E-02   -0.13004E-02  8424   0.469E-02 0.223E-03
CGA:  90    -0.697825728343E+03   -0.36117E-03   -0.37180E-03  8424   0.241E-02 0.231E-03
CGA:  91    -0.697826140884E+03   -0.41254E-03   -0.41056E-03  8424   0.918E-03 0.507E-04
CGA:  92    -0.697826302427E+03   -0.16154E-03   -0.15636E-03  8424   0.450E-03 0.128E-03
CGA:  93    -0.697826369999E+03   -0.67572E-04   -0.67537E-04  8424   0.558E-03 0.107E-04
CGA:  94    -0.697826438955E+03   -0.68955E-04   -0.67762E-04  8424   0.333E-03-0.119E-03
CGA:  95    -0.697826476228E+03   -0.37273E-04   -0.38833E-04  8424   0.185E-03-0.763E-04
CGA:  96    -0.697826490593E+03   -0.14365E-04   -0.44149E-04  8424   0.434E-03-0.165E-03
CGA:  97    -0.697826513615E+03   -0.23022E-04   -0.23021E-04  8424   0.117E-03 0.215E-06
CGA:  98    -0.697826522480E+03   -0.88652E-05   -0.37850E-04  8424   0.448E-03-0.152E-03
CGA:  99    -0.697826547311E+03   -0.24831E-04   -0.27578E-04  8424   0.107E-03 0.342E-04
CGA: 100    -0.697826558401E+03   -0.11090E-04   -0.10089E-04  8424   0.318E-04-0.195E-04
CGA: 101    -0.697826568553E+03   -0.10152E-04    0.41277E-05  8424   0.185E-04-0.442E-05
CGA: 102    -0.697826579163E+03   -0.10610E-04    0.75375E-06  8424   0.271E-04-0.662E-05
CGA: 103    -0.697826595376E+03   -0.16213E-04    0.49025E-06  8424   0.213E-04-0.107E-05
CGA: 104    -0.697826611838E+03   -0.16462E-04    0.71886E-06  8424   0.108E-04 0.317E-05
CGA: 105    -0.697826621895E+03   -0.10057E-04    0.43438E-06  8424   0.353E-04-0.118E-04
CGA: 106    -0.697826623112E+03   -0.12174E-05   -0.14363E-05  8424   0.352E-05 0.226E-05
   1 F= -.69782662E+03 E0= -.69781881E+03  d E =-.697827E+03  mag=     1.9955
       N       E                     dE             d eps       ncg     rms          ort
SDA:   1    -0.697862793838E+03   -0.36172E-01    0.00000E+00  8424   0.144E-01 0.000E+00
CGA:   2    -0.697865231566E+03   -0.24377E-02   -0.24312E-02  8424   0.617E-02 0.169E-03
CGA:   3    -0.697866037999E+03   -0.80643E-03   -0.80600E-03  8424   0.693E-02-0.102E-03
CGA:   4    -0.697866597733E+03   -0.55973E-03   -0.55871E-03  8424   0.155E-02-0.133E-04
CGA:   5    -0.697866842743E+03   -0.24501E-03   -0.25174E-03  8424   0.649E-03-0.211E-03
CGA:   6    -0.697866888409E+03   -0.45666E-04   -0.49680E-04  8424   0.131E-03 0.911E-04
CGA:   7    -0.697866905776E+03   -0.17367E-04   -0.17643E-04  8424   0.650E-04 0.227E-04
CGA:   8    -0.697866915756E+03   -0.99799E-05   -0.16581E-04  8424   0.151E-03-0.755E-04
   2 F= -.69786692E+03 E0= -.69785910E+03  d E =-.402926E-01  mag=     1.9954
       N       E                     dE             d eps       ncg     rms          ort
SDA:   1    -0.693787328113E+03    0.40796E+01    0.00000E+00  8424   0.320E+02 0.000E+00
CGA:   2    -0.696343975432E+03   -0.25566E+01   -0.29311E+01  8424   0.116E+02 0.171E+01
CGA:   3    -0.697367219815E+03   -0.10232E+01   -0.96369E+00  8424   0.701E+01-0.118E+00
CGA:   4    -0.698343125742E+03   -0.97591E+00   -0.97163E+00  8424   0.222E+01 0.175E+00
CGA:   5    -0.698670849197E+03   -0.32772E+00   -0.33066E+00  8424   0.960E+00-0.108E+00
CGA:   6    -0.698781775068E+03   -0.11093E+00   -0.11110E+00  8424   0.208E+00 0.152E-01
CGA:   7    -0.698800468384E+03   -0.18693E-01   -0.18772E-01  8424   0.171E+00 0.160E-02
CGA:   8    -0.698815958035E+03   -0.15490E-01   -0.15544E-01  8424   0.317E-01 0.155E-03
CGA:   9    -0.698820598350E+03   -0.46403E-02   -0.46508E-02  8424   0.159E-01-0.549E-03
CGA:  10    -0.698822834911E+03   -0.22366E-02   -0.22497E-02  8424   0.856E-02-0.712E-03
CGA:  11    -0.698823413859E+03   -0.57895E-03   -0.60039E-03  8424   0.465E-02 0.386E-03
CGA:  12    -0.698823940973E+03   -0.52711E-03   -0.53440E-03  8424   0.128E-02 0.558E-03
CGA:  13    -0.698824239631E+03   -0.29866E-03   -0.33776E-03  8424   0.128E-02-0.349E-03
CGA:  14    -0.698824333579E+03   -0.93948E-04   -0.92393E-04  8424   0.634E-03-0.568E-04
CGA:  15    -0.698824373697E+03   -0.40119E-04   -0.43409E-04  8424   0.348E-03 0.590E-04
CGA:  16    -0.698824404283E+03   -0.30586E-04   -0.35449E-04  8424   0.169E-03 0.159E-03
CGA:  17    -0.698824418714E+03   -0.14431E-04   -0.17574E-04  8424   0.812E-04 0.611E-04
CGA:  18    -0.698824432028E+03   -0.13314E-04   -0.13321E-04  8424   0.683E-04-0.862E-05
CGA:  19    -0.698824436621E+03   -0.45922E-05   -0.48635E-05  8424   0.299E-04 0.650E-05
   3 F= -.69882444E+03 E0= -.69881631E+03  d E =-.957521E+00  mag=     1.9948
       N       E                     dE             d eps       ncg     rms          ort
SDA:   1    -0.690615991246E+03    0.82084E+01    0.00000E+00  8424   0.138E+03 0.000E+00
CGA:   2    -0.694978209988E+03   -0.43622E+01   -0.87437E+01  8424   0.242E+02-0.500E+01
CGA:   3    -0.696765384587E+03   -0.17872E+01   -0.15876E+01  8424   0.123E+02-0.107E+01
CGA:   4    -0.698402406015E+03   -0.16370E+01   -0.16171E+01  8424   0.615E+01 0.464E+00
CGA:   5    -0.698953521952E+03   -0.55112E+00   -0.57536E+00  8424   0.442E+01 0.306E+00
CGA:   6    -0.699209038747E+03   -0.25552E+00   -0.21888E+00  8424   0.106E+01 0.449E+00
CGA:   7    -0.699348837761E+03   -0.13980E+00   -0.14004E+00  8424   0.882E+00-0.957E-02
CGA:   8    -0.699392400415E+03   -0.43563E-01   -0.45011E-01  8424   0.296E+00-0.169E-01
CGA:   9    -0.699420279804E+03   -0.27879E-01   -0.27806E-01  8424   0.897E-01-0.425E-02
CGA:  10    -0.699427216342E+03   -0.69365E-02   -0.69805E-02  8424   0.862E-01 0.100E-02
CGA:  11    -0.699434131451E+03   -0.69151E-02   -0.69712E-02  8424   0.212E-01 0.102E-02
CGA:  12    -0.699436469414E+03   -0.23380E-02   -0.23446E-02  8424   0.208E-01-0.977E-03
CGA:  13    -0.699437735484E+03   -0.12661E-02   -0.12649E-02  8424   0.926E-02-0.186E-03
CGA:  14    -0.699438729324E+03   -0.99384E-03   -0.98835E-03  8424   0.437E-02 0.715E-03
CGA:  15    -0.699439015844E+03   -0.28652E-03   -0.29079E-03  8424   0.290E-02 0.759E-04
CGA:  16    -0.699439411722E+03   -0.39588E-03   -0.39290E-03  8424   0.134E-02 0.817E-04
CGA:  17    -0.699439519321E+03   -0.10760E-03   -0.10945E-03  8424   0.999E-03 0.835E-04
CGA:  18    -0.699439600374E+03   -0.81053E-04   -0.81730E-04  8424   0.423E-03 0.275E-04
CGA:  19    -0.699439667143E+03   -0.66769E-04   -0.63467E-04  8424   0.243E-03 0.685E-04
CGA:  20    -0.699439676562E+03   -0.94187E-05   -0.13465E-04  8424   0.930E-04 0.755E-04
   4 F= -.69943968E+03 E0= -.69943095E+03  d E =-.615240E+00  mag=     1.9943
       N       E                     dE             d eps       ncg     rms          ort
SDA:   1    -0.697864305255E+03    0.15754E+01    0.00000E+00  8424   0.503E+01 0.000E+00
CGA:   2    -0.698596176177E+03   -0.73187E+00   -0.71374E+00  8424   0.747E+01 0.344E+00
CGA:   3    -0.699290257782E+03   -0.69408E+00   -0.68841E+00  8424   0.194E+01-0.177E+00
CGA:   4    -0.699488638267E+03   -0.19838E+00   -0.19857E+00  8424   0.810E+00-0.145E-01
CGA:   5    -0.699559534256E+03   -0.70896E-01   -0.70627E-01  8424   0.417E+00-0.879E-02
CGA:   6    -0.699591722374E+03   -0.32188E-01   -0.32289E-01  8424   0.102E+00 0.820E-03
CGA:   7    -0.699604253907E+03   -0.12532E-01   -0.12509E-01  8424   0.556E-01 0.105E-02
CGA:   8    -0.699607813177E+03   -0.35593E-02   -0.35668E-02  8424   0.162E-01-0.151E-03
CGA:   9    -0.699610057106E+03   -0.22439E-02   -0.22686E-02  8424   0.107E-01-0.554E-03
CGA:  10    -0.699610929646E+03   -0.87254E-03   -0.87328E-03  8424   0.556E-02-0.886E-05
CGA:  11    -0.699611419953E+03   -0.49031E-03   -0.49377E-03  8424   0.186E-02 0.393E-03
CGA:  12    -0.699611716241E+03   -0.29629E-03   -0.28875E-03  8424   0.162E-02 0.157E-03
CGA:  13    -0.699611861007E+03   -0.14477E-03   -0.14682E-03  8424   0.897E-03 0.127E-03
CGA:  14    -0.699611975797E+03   -0.11479E-03   -0.11363E-03  8424   0.378E-03 0.606E-04
CGA:  15    -0.699612026276E+03   -0.50480E-04   -0.49191E-04  8424   0.382E-03 0.579E-04
CGA:  16    -0.699612065553E+03   -0.39277E-04   -0.39851E-04  8424   0.118E-03 0.528E-04
CGA:  17    -0.699612073638E+03   -0.80851E-05   -0.99845E-05  8424   0.543E-04 0.719E-04
   5 F= -.69961207E+03 E0= -.69960310E+03  d E =-.172397E+00  mag=     1.9946
       N       E                     dE             d eps       ncg     rms          ort
SDA:   1    -0.696298617065E+03    0.33134E+01    0.00000E+00  8424   0.878E+01 0.000E+00
CGA:   2    -0.698598142090E+03   -0.22995E+01   -0.22970E+01  8424   0.754E+01 0.284E-01
CGA:   3    -0.699108787399E+03   -0.51065E+00   -0.50614E+00  8424   0.394E+01-0.723E-01
CGA:   4    -0.699522258644E+03   -0.41347E+00   -0.41347E+00  8424   0.849E+00-0.189E-02
CGA:   5    -0.699633242469E+03   -0.11098E+00   -0.11067E+00  8424   0.301E+00 0.105E-01
CGA:   6    -0.699669000609E+03   -0.35758E-01   -0.35760E-01  8424   0.166E+00-0.292E-03
CGA:   7    -0.699678838505E+03   -0.98379E-02   -0.98514E-02  8424   0.501E-01 0.395E-03
CGA:   8    -0.699685748123E+03   -0.69096E-02   -0.68916E-02  8424   0.166E-01 0.529E-03
CGA:   9    -0.699688355369E+03   -0.26072E-02   -0.26199E-02  8424   0.101E-01-0.260E-03
CGA:  10    -0.699689173641E+03   -0.81827E-03   -0.82286E-03  8424   0.705E-02 0.146E-03
CGA:  11    -0.699689846762E+03   -0.67312E-03   -0.67815E-03  8424   0.274E-02 0.399E-03
CGA:  12    -0.699690360370E+03   -0.51361E-03   -0.52452E-03  8424   0.152E-02-0.149E-03
CGA:  13    -0.699690556448E+03   -0.19608E-03   -0.19113E-03  8424   0.679E-03 0.221E-03
CGA:  14    -0.699690635898E+03   -0.79450E-04   -0.79940E-04  8424   0.750E-03 0.542E-04
CGA:  15    -0.699690712284E+03   -0.76386E-04   -0.77487E-04  8424   0.175E-03 0.696E-04
CGA:  16    -0.699690750884E+03   -0.38600E-04   -0.37680E-04  8424   0.954E-04 0.104E-04
CGA:  17    -0.699690763647E+03   -0.12762E-04   -0.12585E-04  8424   0.556E-04 0.179E-04
CGA:  18    -0.699690769470E+03   -0.58233E-05   -0.58656E-05  8424   0.480E-04 0.144E-05
   6 F= -.69969077E+03 E0= -.69968160E+03  d E =-.786958E-01  mag=     1.9942
       N       E                     dE             d eps       ncg     rms          ort
SDA:   1    -0.696148244954E+03    0.35425E+01    0.00000E+00  8424   0.110E+02 0.000E+00
CGA:   2    -0.697770515409E+03   -0.16223E+01   -0.16495E+01  8424   0.148E+02-0.449E+00
CGA:   3    -0.698828718372E+03   -0.10582E+01   -0.10642E+01  8424   0.518E+01-0.138E+00
CGA:   4    -0.699414986838E+03   -0.58627E+00   -0.58603E+00  8424   0.174E+01 0.554E-01
CGA:   5    -0.699629773867E+03   -0.21479E+00   -0.21486E+00  8424   0.569E+00-0.688E-03
CGA:   6    -0.699669686879E+03   -0.39913E-01   -0.39988E-01  8424   0.329E+00-0.595E-03
CGA:   7    -0.699703372697E+03   -0.33686E-01   -0.33677E-01  8424   0.735E-01-0.373E-03
CGA:   8    -0.699712548941E+03   -0.91762E-02   -0.91437E-02  8424   0.284E-01 0.188E-02
CGA:   9    -0.699717252737E+03   -0.47038E-02   -0.47417E-02  8424   0.134E-01-0.751E-03
CGA:  10    -0.699718389411E+03   -0.11367E-02   -0.11460E-02  8424   0.104E-01 0.310E-03
CGA:  11    -0.699719390302E+03   -0.10009E-02   -0.10077E-02  8424   0.376E-02 0.357E-03
CGA:  12    -0.699720051933E+03   -0.66163E-03   -0.66209E-03  8424   0.163E-02-0.131E-04
CGA:  13    -0.699720346007E+03   -0.29407E-03   -0.28472E-03  8424   0.798E-03 0.150E-03
CGA:  14    -0.699720500222E+03   -0.15422E-03   -0.15847E-03  8424   0.706E-03-0.669E-04
CGA:  15    -0.699720543201E+03   -0.42979E-04   -0.46950E-04  8424   0.354E-03 0.811E-04
CGA:  16    -0.699720575146E+03   -0.31945E-04   -0.34239E-04  8424   0.134E-03 0.717E-04
CGA:  17    -0.699720601567E+03   -0.26420E-04   -0.44587E-04  8424   0.494E-03-0.114E-03
CGA:  18    -0.699720617562E+03   -0.15995E-04   -0.19593E-04  8424   0.601E-04 0.426E-04
CGA:  19    -0.699720620425E+03   -0.28630E-05   -0.43421E-05  8424   0.254E-04 0.274E-04
   7 F= -.69972062E+03 E0= -.69971133E+03  d E =-.298510E-01  mag=     1.9928
       N       E                     dE             d eps       ncg     rms          ort
SDA:   1    -0.699148231221E+03    0.57239E+00    0.00000E+00  8424   0.172E+01 0.000E+00
CGA:   2    -0.699483037527E+03   -0.33481E+00   -0.33537E+00  8424   0.145E+01-0.606E-02
CGA:   3    -0.699599459036E+03   -0.11642E+00   -0.11809E+00  8424   0.915E+00-0.194E-02
CGA:   4    -0.699697002912E+03   -0.97544E-01   -0.97590E-01  8424   0.245E+00 0.116E-02
CGA:   5    -0.699723688790E+03   -0.26686E-01   -0.26718E-01  8424   0.650E-01 0.320E-02
CGA:   6    -0.699732395542E+03   -0.87068E-02   -0.87202E-02  8424   0.377E-01-0.732E-03
CGA:   7    -0.699734781384E+03   -0.23858E-02   -0.23738E-02  8424   0.111E-01-0.522E-03
CGA:   8    -0.699736165847E+03   -0.13845E-02   -0.13841E-02  8424   0.419E-02 0.374E-04
CGA:   9    -0.699736744689E+03   -0.57884E-03   -0.58496E-03  8424   0.214E-02-0.262E-03
CGA:  10    -0.699736899484E+03   -0.15479E-03   -0.16039E-03  8424   0.117E-02 0.150E-03
CGA:  11    -0.699737009974E+03   -0.11049E-03   -0.11509E-03  8424   0.362E-03 0.197E-03
CGA:  12    -0.699737086457E+03   -0.76483E-04   -0.72173E-04  8424   0.147E-03 0.752E-04
CGA:  13    -0.699737108369E+03   -0.21912E-04   -0.21669E-04  8424   0.131E-03 0.451E-04
CGA:  14    -0.699737125528E+03   -0.17159E-04   -0.17268E-04  8424   0.983E-04 0.652E-05
CGA:  15    -0.699737137305E+03   -0.11777E-04   -0.11797E-04  8424   0.318E-04 0.128E-04
CGA:  16    -0.699737140080E+03   -0.27746E-05   -0.32931E-05  8424   0.174E-04 0.213E-04
   8 F= -.69973714E+03 E0= -.69972784E+03  d E =-.165197E-01  mag=     1.9925
       N       E                     dE             d eps       ncg     rms          ort
SDA:   1    -0.699387943099E+03    0.34919E+00    0.00000E+00  8424   0.929E+00 0.000E+00
CGA:   2    -0.699636684426E+03   -0.24874E+00   -0.24864E+00  8424   0.666E+00 0.505E-03
CGA:   3    -0.699692176258E+03   -0.55492E-01   -0.55823E-01  8424   0.449E+00 0.396E-03
CGA:   4    -0.699731906990E+03   -0.39731E-01   -0.39715E-01  8424   0.768E-01 0.133E-02
CGA:   5    -0.699743778969E+03   -0.11872E-01   -0.11901E-01  8424   0.305E-01-0.800E-03
CGA:   6    -0.699746361204E+03   -0.25822E-02   -0.25788E-02  8424   0.171E-01-0.897E-04
CGA:   7    -0.699747791438E+03   -0.14302E-02   -0.14183E-02  8424   0.451E-02-0.360E-03
CGA:   8    -0.699748381997E+03   -0.59056E-03   -0.59360E-03  8424   0.191E-02-0.172E-03
CGA:   9    -0.699748550936E+03   -0.16894E-03   -0.17055E-03  8424   0.125E-02 0.631E-04
CGA:  10    -0.699748657215E+03   -0.10628E-03   -0.11084E-03  8424   0.377E-03 0.149E-03
CGA:  11    -0.699748729104E+03   -0.71890E-04   -0.71040E-04  8424   0.233E-03 0.156E-04
CGA:  12    -0.699748749775E+03   -0.20670E-04   -0.22561E-04  8424   0.105E-03 0.776E-04
CGA:  13    -0.699748763364E+03   -0.13589E-04   -0.14119E-04  8424   0.787E-04 0.338E-04
CGA:  14    -0.699748779939E+03   -0.16575E-04   -0.16277E-04  8424   0.468E-04 0.709E-05
CGA:  15    -0.699748784538E+03   -0.45997E-05   -0.47288E-05  8424   0.331E-04 0.517E-05
   9 F= -.69974878E+03 E0= -.69973955E+03  d E =-.116445E-01  mag=     1.9928
       N       E                     dE             d eps       ncg     rms          ort
SDA:   1    -0.699346646532E+03    0.40213E+00    0.00000E+00  8424   0.109E+01 0.000E+00
CGA:   2    -0.699609501825E+03   -0.26286E+00   -0.26310E+00  8424   0.807E+00-0.197E-02
CGA:   3    -0.699683689350E+03   -0.74188E-01   -0.73598E-01  8424   0.570E+00-0.187E-02
CGA:   4    -0.699731737152E+03   -0.48048E-01   -0.47979E-01  8424   0.132E+00 0.910E-03
CGA:   5    -0.699746701484E+03   -0.14964E-01   -0.14962E-01  8424   0.386E-01-0.703E-03
CGA:   6    -0.699752232443E+03   -0.55310E-02   -0.55104E-02  8424   0.151E-01 0.700E-03
CGA:   7    -0.699753273486E+03   -0.10410E-02   -0.10346E-02  8424   0.684E-02-0.756E-04
CGA:   8    -0.699754127453E+03   -0.85397E-03   -0.86127E-03  8424   0.277E-02-0.660E-03
CGA:   9    -0.699754384448E+03   -0.25699E-03   -0.25895E-03  8424   0.102E-02 0.159E-03
CGA:  10    -0.699754485207E+03   -0.10076E-03   -0.10317E-03  8424   0.708E-03 0.122E-03
CGA:  11    -0.699754557860E+03   -0.72653E-04   -0.75028E-04  8424   0.213E-03 0.121E-03
CGA:  12    -0.699754602832E+03   -0.44971E-04   -0.42413E-04  8424   0.160E-03 0.452E-04
CGA:  13    -0.699754616153E+03   -0.13321E-04   -0.15060E-04  8424   0.780E-04 0.454E-04
CGA:  14    -0.699754628173E+03   -0.12020E-04   -0.11900E-04  8424   0.444E-04 0.264E-04
CGA:  15    -0.699754637816E+03   -0.96429E-05   -0.91466E-05  8424   0.248E-04 0.125E-04
  10 F= -.69975464E+03 E0= -.69974539E+03  d E =-.585328E-02  mag=     1.9928
       N       E                     dE             d eps       ncg     rms          ort
SDA:   1    -0.698419703098E+03    0.13349E+01    0.00000E+00  8424   0.343E+01 0.000E+00
CGA:   2    -0.699324272122E+03   -0.90457E+00   -0.90512E+00  8424   0.192E+01-0.381E-02
CGA:   3    -0.699633275654E+03   -0.30900E+00   -0.30912E+00  8424   0.957E+00-0.126E-02
CGA:   4    -0.699693254957E+03   -0.59979E-01   -0.60943E-01  8424   0.390E+00-0.907E-02
CGA:   5    -0.699731211527E+03   -0.37957E-01   -0.37987E-01  8424   0.106E+00 0.782E-03
CGA:   6    -0.699745108894E+03   -0.13897E-01   -0.13876E-01  8424   0.306E-01 0.171E-02
CGA:   7    -0.699748565084E+03   -0.34562E-02   -0.34505E-02  8424   0.222E-01-0.556E-03
CGA:   8    -0.699750110961E+03   -0.15459E-02   -0.15301E-02  8424   0.730E-02-0.405E-03
CGA:   9    -0.699750994014E+03   -0.88305E-03   -0.88102E-03  8424   0.240E-02 0.341E-03
CGA:  10    -0.699751414536E+03   -0.42052E-03   -0.41790E-03  8424   0.133E-02 0.525E-04
CGA:  11    -0.699751537059E+03   -0.12252E-03   -0.12657E-03  8424   0.107E-02 0.153E-03
CGA:  12    -0.699751645744E+03   -0.10868E-03   -0.11174E-03  8424   0.391E-03 0.121E-03
CGA:  13    -0.699751721011E+03   -0.75267E-04   -0.73959E-04  8424   0.252E-03 0.242E-04
CGA:  14    -0.699751745961E+03   -0.24950E-04   -0.26276E-04  8424   0.174E-03 0.614E-04
CGA:  15    -0.699751758752E+03   -0.12791E-04   -0.16085E-04  8424   0.601E-04 0.737E-04
CGA:  16    -0.699751771599E+03   -0.12847E-04   -0.11913E-04  8424   0.248E-04 0.408E-04
CGA:  17    -0.699751775624E+03   -0.40249E-05   -0.38702E-05  8424   0.459E-04 0.396E-05
  11 F= -.69975178E+03 E0= -.69974252E+03  d E =0.286219E-02  mag=     1.9933
       N       E                     dE             d eps       ncg     rms          ort
SDA:   1    -0.699440674375E+03    0.31110E+00    0.00000E+00  8424   0.960E+00 0.000E+00
CGA:   2    -0.699644105626E+03   -0.20343E+00   -0.20360E+00  8424   0.490E+00-0.190E-02
CGA:   3    -0.699720426287E+03   -0.76321E-01   -0.76346E-01  8424   0.379E+00-0.620E-03
CGA:   4    -0.699743588470E+03   -0.23162E-01   -0.23388E-01  8424   0.125E+00-0.323E-02
CGA:   5    -0.699757087960E+03   -0.13499E-01   -0.13512E-01  8424   0.337E-01 0.487E-03
CGA:   6    -0.699761473665E+03   -0.43857E-02   -0.43763E-02  8424   0.101E-01 0.105E-02
CGA:   7    -0.699762441725E+03   -0.96806E-03   -0.97219E-03  8424   0.742E-02 0.146E-03
CGA:   8    -0.699763040589E+03   -0.59886E-03   -0.59616E-03  8424   0.172E-02-0.829E-04
CGA:   9    -0.699763282083E+03   -0.24149E-03   -0.23888E-03  8424   0.830E-03 0.113E-03
CGA:  10    -0.699763389653E+03   -0.10757E-03   -0.10796E-03  8424   0.865E-03-0.105E-03
CGA:  11    -0.699763445152E+03   -0.55499E-04   -0.54208E-04  8424   0.262E-03-0.282E-04
CGA:  12    -0.699763476142E+03   -0.30990E-04   -0.30748E-04  8424   0.133E-03 0.482E-04
CGA:  13    -0.699763494327E+03   -0.18185E-04   -0.18170E-04  8424   0.201E-03-0.158E-04
CGA:  14    -0.699763507218E+03   -0.12892E-04   -0.12754E-04  8424   0.575E-04-0.329E-05
CGA:  15    -0.699763508990E+03   -0.17712E-05   -0.28218E-05  8424   0.428E-04 0.163E-04
  12 F= -.69976351E+03 E0= -.69975425E+03  d E =-.117334E-01  mag=     1.9930
       N       E                     dE             d eps       ncg     rms          ort
SDA:   1    -0.699689806854E+03    0.73700E-01    0.00000E+00  8424   0.248E+00 0.000E+00
CGA:   2    -0.699718000888E+03   -0.28194E-01   -0.28201E-01  8424   0.340E+00-0.481E-03
CGA:   3    -0.699749818248E+03   -0.31817E-01   -0.31826E-01  8424   0.805E-01-0.155E-03
CGA:   4    -0.699761481525E+03   -0.11663E-01   -0.11725E-01  8424   0.303E-01-0.164E-02
CGA:   5    -0.699764828915E+03   -0.33474E-02   -0.33455E-02  8424   0.671E-02 0.699E-03
CGA:   6    -0.699765917806E+03   -0.10889E-02   -0.10900E-02  8424   0.331E-02-0.242E-04
CGA:   7    -0.699766114940E+03   -0.19713E-03   -0.19750E-03  8424   0.125E-02-0.232E-05
CGA:   8    -0.699766249083E+03   -0.13414E-03   -0.13451E-03  8424   0.328E-03 0.140E-03
CGA:   9    -0.699766310344E+03   -0.61261E-04   -0.62993E-04  8424   0.186E-03-0.278E-04
CGA:  10    -0.699766334144E+03   -0.23800E-04   -0.23837E-04  8424   0.105E-03-0.157E-05
CGA:  11    -0.699766342817E+03   -0.86733E-05   -0.85278E-05  8424   0.846E-04-0.455E-05
CGA:  12    -0.699766352658E+03   -0.98412E-05   -0.19655E-04  8424   0.154E-03-0.755E-04
  13 F= -.69976635E+03 E0= -.69975709E+03  d E =-.284367E-02  mag=     1.9929
       N       E                     dE             d eps       ncg     rms          ort
SDA:   1    -0.699703707863E+03    0.62635E-01    0.00000E+00  8424   0.212E+00 0.000E+00
CGA:   2    -0.699729971799E+03   -0.26264E-01   -0.26273E-01  8424   0.268E+00-0.517E-03
CGA:   3    -0.699751014144E+03   -0.21042E-01   -0.21064E-01  8424   0.728E-01-0.639E-03
CGA:   4    -0.699764089326E+03   -0.13075E-01   -0.13106E-01  8424   0.211E-01-0.495E-03
CGA:   5    -0.699766637787E+03   -0.25485E-02   -0.25473E-02  8424   0.912E-02 0.295E-03
CGA:   6    -0.699767294830E+03   -0.65704E-03   -0.66432E-03  8424   0.429E-02 0.154E-03
CGA:   7    -0.699767697130E+03   -0.40230E-03   -0.40211E-03  8424   0.102E-02-0.119E-04
CGA:   8    -0.699767827485E+03   -0.13036E-03   -0.12892E-03  8424   0.326E-03 0.119E-03
CGA:   9    -0.699767871242E+03   -0.43757E-04   -0.44009E-04  8424   0.435E-03-0.420E-04
CGA:  10    -0.699767900214E+03   -0.28972E-04   -0.28563E-04  8424   0.915E-04-0.105E-04
CGA:  11    -0.699767906784E+03   -0.65700E-05   -0.73058E-05  8424   0.696E-04 0.234E-04
  14 F= -.69976791E+03 E0= -.69975864E+03  d E =-.155413E-02  mag=     1.9927
       N       E                     dE             d eps       ncg     rms          ort
SDA:   1    -0.699557699068E+03    0.21020E+00    0.00000E+00  8424   0.539E+00 0.000E+00
CGA:   2    -0.699694302400E+03   -0.13660E+00   -0.13662E+00  8424   0.520E+00-0.377E-03
CGA:   3    -0.699734406699E+03   -0.40104E-01   -0.40576E-01  8424   0.268E+00-0.260E-02
CGA:   4    -0.699756338427E+03   -0.21932E-01   -0.21783E-01  8424   0.826E-01-0.122E-02
CGA:   5    -0.699765348025E+03   -0.90096E-02   -0.90172E-02  8424   0.173E-01 0.130E-02
CGA:   6    -0.699768158069E+03   -0.28100E-02   -0.28235E-02  8424   0.106E-01-0.283E-03
CGA:   7    -0.699768759068E+03   -0.60100E-03   -0.59652E-03  8424   0.299E-02-0.113E-03
CGA:   8    -0.699769132190E+03   -0.37312E-03   -0.37118E-03  8424   0.984E-03 0.159E-03
CGA:   9    -0.699769292691E+03   -0.16050E-03   -0.16601E-03  8424   0.545E-03-0.119E-03
CGA:  10    -0.699769334495E+03   -0.41803E-04   -0.43347E-04  8424   0.311E-03 0.603E-04
CGA:  11    -0.699769363352E+03   -0.28858E-04   -0.29486E-04  8424   0.150E-03 0.208E-04
CGA:  12    -0.699769392407E+03   -0.29055E-04   -0.38939E-04  8424   0.206E-03-0.760E-04
CGA:  13    -0.699769402872E+03   -0.10465E-04   -0.11202E-04  8424   0.689E-04 0.107E-04
CGA:  14    -0.699769408625E+03   -0.57525E-05   -0.62582E-05  8424   0.247E-04 0.167E-04
CGA:  15    -0.699769355902E+03    0.52723E-04   -0.28572E-04  8424   0.860E-03-0.125E-03
CGA:  16    -0.699769400631E+03   -0.44729E-04   -0.51528E-04  8424   0.183E-03 0.381E-04
CGA:  17    -0.699769411317E+03   -0.10687E-04   -0.13162E-04  8424   0.776E-04 0.186E-04
CGA:  18    -0.699769427379E+03   -0.16061E-04   -0.15618E-04  8424   0.270E-04-0.342E-04
CGA:  19    -0.699769427458E+03   -0.79133E-07   -0.86346E-06  8424   0.122E-04 0.568E-05
  15 F= -.69976943E+03 E0= -.69976016E+03  d E =-.152067E-02  mag=     1.9927
       N       E                     dE             d eps       ncg     rms          ort
SDA:   1    -0.699603096293E+03    0.16633E+00    0.00000E+00  8424   0.465E+00 0.000E+00
CGA:   2    -0.699695466976E+03   -0.92371E-01   -0.92367E-01  8424   0.542E+00 0.393E-03
CGA:   3    -0.699730739009E+03   -0.35272E-01   -0.36061E-01  8424   0.220E+00-0.996E-02
CGA:   4    -0.699760524890E+03   -0.29786E-01   -0.29773E-01  8424   0.447E-01 0.618E-05
CGA:   5    -0.699766011814E+03   -0.54869E-02   -0.54953E-02  8424   0.258E-01 0.452E-04
CGA:   6    -0.699767753118E+03   -0.17413E-02   -0.17378E-02  8424   0.906E-02 0.878E-04
CGA:   7    -0.699768809664E+03   -0.10565E-02   -0.10428E-02  8424   0.255E-02-0.260E-03
CGA:   8    -0.699769116558E+03   -0.30689E-03   -0.30562E-03  8424   0.152E-02-0.331E-04
CGA:   9    -0.699769232484E+03   -0.11593E-03   -0.11084E-03  8424   0.677E-03-0.609E-04
CGA:  10    -0.699769311120E+03   -0.78636E-04   -0.78394E-04  8424   0.247E-03-0.685E-05
CGA:  11    -0.699769333520E+03   -0.22400E-04   -0.24933E-04  8424   0.120E-03 0.466E-04
CGA:  12    -0.699769345129E+03   -0.11609E-04   -0.13232E-04  8424   0.762E-04 0.266E-04
CGA:  13    -0.699769361500E+03   -0.16371E-04   -0.17670E-04  8424   0.105E-03-0.328E-04
CGA:  14    -0.699769364615E+03   -0.31149E-05   -0.28692E-05  8424   0.431E-04-0.244E-05
  16 F= -.69976936E+03 E0= -.69976010E+03  d E =0.628433E-04  mag=     1.9930
       N       E                     dE             d eps       ncg     rms          ort
SDA:   1    -0.699721930661E+03    0.47431E-01    0.00000E+00  8424   0.135E+00 0.000E+00
CGA:   2    -0.699753112192E+03   -0.31182E-01   -0.31255E-01  8424   0.901E-01-0.843E-03
CGA:   3    -0.699762616113E+03   -0.95039E-02   -0.95707E-02  8424   0.638E-01 0.936E-03
CGA:   4    -0.699767196961E+03   -0.45808E-02   -0.46009E-02  8424   0.194E-01 0.775E-03
CGA:   5    -0.699769315458E+03   -0.21185E-02   -0.21089E-02  8424   0.546E-02-0.319E-03
CGA:   6    -0.699770041176E+03   -0.72572E-03   -0.72670E-03  8424   0.172E-02 0.231E-03
CGA:   7    -0.699770186998E+03   -0.14582E-03   -0.14178E-03  8424   0.114E-02-0.699E-04
CGA:   8    -0.699770299724E+03   -0.11273E-03   -0.11034E-03  8424   0.273E-03-0.663E-04
CGA:   9    -0.699770328716E+03   -0.28992E-04   -0.29797E-04  8424   0.113E-03 0.424E-04
CGA:  10    -0.699770341060E+03   -0.12344E-04   -0.13267E-04  8424   0.780E-04 0.285E-04
CGA:  11    -0.699770349685E+03   -0.86257E-05   -0.89813E-05  8424   0.330E-04 0.883E-05
  17 F= -.69977035E+03 E0= -.69976105E+03  d E =-.985071E-03  mag=     1.9927
       N       E                     dE             d eps       ncg     rms          ort
SDA:   1    -0.699758950159E+03    0.11391E-01    0.00000E+00  8424   0.371E-01 0.000E+00
CGA:   2    -0.699765709966E+03   -0.67598E-02   -0.67731E-02  8424   0.251E-01-0.262E-03
CGA:   3    -0.699767887825E+03   -0.21779E-02   -0.21890E-02  8424   0.195E-01 0.349E-03
CGA:   4    -0.699769823766E+03   -0.19359E-02   -0.19426E-02  8424   0.552E-02 0.157E-03
CGA:   5    -0.699770501975E+03   -0.67821E-03   -0.67696E-03  8424   0.170E-02-0.259E-03
CGA:   6    -0.699770672268E+03   -0.17029E-03   -0.17179E-03  8424   0.776E-03 0.703E-04
CGA:   7    -0.699770720845E+03   -0.48577E-04   -0.51554E-04  8424   0.254E-03 0.487E-04
CGA:   8    -0.699770759238E+03   -0.38393E-04   -0.39266E-04  8424   0.110E-03-0.374E-04
CGA:   9    -0.699770764573E+03   -0.53345E-05   -0.66646E-05  8424   0.403E-04 0.256E-04
  18 F= -.69977076E+03 E0= -.69976146E+03  d E =-.414887E-03  mag=     1.9928
       N       E                     dE             d eps       ncg     rms          ort
SDA:   1    -0.699754516856E+03    0.16242E-01    0.00000E+00  8424   0.467E-01 0.000E+00
CGA:   2    -0.699761754432E+03   -0.72376E-02   -0.72448E-02  8424   0.765E-01-0.266E-03
CGA:   3    -0.699767439462E+03   -0.56850E-02   -0.56755E-02  8424   0.171E-01 0.225E-04
CGA:   4    -0.699770120087E+03   -0.26806E-02   -0.26883E-02  8424   0.429E-02-0.200E-03
CGA:   5    -0.699770650822E+03   -0.53074E-03   -0.52935E-03  8424   0.109E-02 0.281E-03
CGA:   6    -0.699770821300E+03   -0.17048E-03   -0.16948E-03  8424   0.526E-03 0.379E-04
CGA:   7    -0.699770850310E+03   -0.29010E-04   -0.32958E-04  8424   0.194E-03 0.647E-04
CGA:   8    -0.699770869205E+03   -0.18895E-04   -0.20037E-04  8424   0.642E-04 0.431E-04
CGA:   9    -0.699770880554E+03   -0.11349E-04   -0.21349E-04  8424   0.179E-03-0.647E-04
CGA:  10    -0.699770885710E+03   -0.51561E-05   -0.78792E-05  8424   0.365E-04 0.338E-04
  19 F= -.69977089E+03 E0= -.69976157E+03  d E =-.121137E-03  mag=     1.9927
       N       E                     dE             d eps       ncg     rms          ort
SDA:   1    -0.699764659926E+03    0.62206E-02    0.00000E+00  8424   0.186E-01 0.000E+00
CGA:   2    -0.699767486678E+03   -0.28268E-02   -0.28218E-02  8424   0.274E-01 0.149E-03
CGA:   3    -0.699769569789E+03   -0.20831E-02   -0.20736E-02  8424   0.764E-02-0.285E-03
CGA:   4    -0.699770704623E+03   -0.11348E-02   -0.11466E-02  8424   0.284E-02-0.339E-03
CGA:   5    -0.699770930652E+03   -0.22603E-03   -0.23268E-03  8424   0.878E-03 0.191E-03
CGA:   6    -0.699770992969E+03   -0.62317E-04   -0.68049E-04  8424   0.403E-03 0.129E-03
CGA:   7    -0.699771042132E+03   -0.49163E-04   -0.49466E-04  8424   0.813E-04 0.386E-04
CGA:   8    -0.699771052757E+03   -0.10625E-04   -0.10539E-04  8424   0.392E-04 0.227E-04
CGA:   9    -0.699771057779E+03   -0.50219E-05   -0.49957E-05  8424   0.345E-04-0.183E-05
  20 F= -.69977106E+03 E0= -.69976175E+03  d E =-.172069E-03  mag=     1.9928
       N       E                     dE             d eps       ncg     rms          ort
SDA:   1    -0.699120304377E+03    0.65075E+00    0.00000E+00  8424   0.165E+01 0.000E+00
CGA:   2    -0.699558469533E+03   -0.43817E+00   -0.43805E+00  8424   0.953E+00 0.592E-03
CGA:   3    -0.699695669865E+03   -0.13720E+00   -0.13794E+00  8424   0.684E+00-0.213E-01
CGA:   4    -0.699734310717E+03   -0.38641E-01   -0.39259E-01  8424   0.177E+00-0.625E-02
CGA:   5    -0.699753560565E+03   -0.19250E-01   -0.19256E-01  8424   0.534E-01 0.147E-02
CGA:   6    -0.699760759568E+03   -0.71990E-02   -0.71986E-02  8424   0.164E-01-0.769E-04
CGA:   7    -0.699762345986E+03   -0.15864E-02   -0.15934E-02  8424   0.111E-01 0.360E-03
CGA:   8    -0.699763182392E+03   -0.83641E-03   -0.84086E-03  8424   0.336E-02 0.407E-04
CGA:   9    -0.699763675592E+03   -0.49320E-03   -0.50060E-03  8424   0.147E-02-0.223E-03
CGA:  10    -0.699763818832E+03   -0.14324E-03   -0.14412E-03  8424   0.982E-03 0.730E-04
CGA:  11    -0.699763893830E+03   -0.74998E-04   -0.78725E-04  8424   0.400E-03 0.933E-04
CGA:  12    -0.699763974228E+03   -0.80398E-04   -0.86214E-04  8424   0.305E-03-0.710E-04
CGA:  13    -0.699763991575E+03   -0.17346E-04   -0.18683E-04  8424   0.144E-03 0.303E-04
CGA:  14    -0.699764006438E+03   -0.14863E-04   -0.15431E-04  8424   0.766E-04 0.297E-04
CGA:  15    -0.699764024219E+03   -0.17781E-04   -0.18879E-04  8424   0.382E-04-0.124E-04
CGA:  16    -0.699764026021E+03   -0.18023E-05   -0.23851E-05  8424   0.238E-04 0.128E-04
  21 F= -.69976403E+03 E0= -.69975469E+03  d E =0.703176E-02  mag=     1.9928
       N       E                     dE             d eps       ncg     rms          ort
SDA:   1    -0.699279847964E+03    0.48418E+00    0.00000E+00  8424   0.128E+01 0.000E+00
CGA:   2    -0.699602980605E+03   -0.32313E+00   -0.32346E+00  8424   0.933E+00-0.274E-02
CGA:   3    -0.699687277510E+03   -0.84297E-01   -0.85221E-01  8424   0.731E+00 0.445E-02
CGA:   4    -0.699746788323E+03   -0.59511E-01   -0.59347E-01  8424   0.123E+00 0.990E-03
CGA:   5    -0.699763151619E+03   -0.16363E-01   -0.16379E-01  8424   0.455E-01-0.127E-02
CGA:   6    -0.699767772331E+03   -0.46207E-02   -0.46171E-02  8424   0.277E-01-0.105E-03
CGA:   7    -0.699769653502E+03   -0.18812E-02   -0.18787E-02  8424   0.720E-02-0.255E-03
CGA:   8    -0.699770607337E+03   -0.95383E-03   -0.95608E-03  8424   0.281E-02-0.122E-03
CGA:   9    -0.699770894201E+03   -0.28686E-03   -0.28889E-03  8424   0.163E-02 0.148E-03
CGA:  10    -0.699771022552E+03   -0.12835E-03   -0.13159E-03  8424   0.703E-03 0.799E-04
CGA:  11    -0.699771140820E+03   -0.11827E-03   -0.12753E-03  8424   0.571E-03-0.160E-03
CGA:  12    -0.699771171982E+03   -0.31162E-04   -0.32733E-04  8424   0.256E-03 0.360E-04
CGA:  13    -0.699771195350E+03   -0.23368E-04   -0.24779E-04  8424   0.111E-03 0.574E-04
CGA:  14    -0.699771221093E+03   -0.25743E-04   -0.32028E-04  8424   0.177E-03-0.517E-04
CGA:  15    -0.699771225490E+03   -0.43969E-05   -0.35987E-05  8424   0.873E-04-0.980E-05
  22 F= -.69977123E+03 E0= -.69976193E+03  d E =-.719947E-02  mag=     1.9929
       N       E                     dE             d eps       ncg     rms          ort
SDA:   1    -0.699754251132E+03    0.16970E-01    0.00000E+00  8424   0.112E+00 0.000E+00
CGA:   2    -0.699760127120E+03   -0.58760E-02   -0.58537E-02  8424   0.436E-01 0.594E-03
CGA:   3    -0.699767172095E+03   -0.70450E-02   -0.70536E-02  8424   0.151E-01-0.183E-03
CGA:   4    -0.699770095532E+03   -0.29234E-02   -0.28929E-02  8424   0.545E-02 0.376E-03
CGA:   5    -0.699770718598E+03   -0.62307E-03   -0.62147E-03  8424   0.353E-02-0.300E-03
CGA:   6    -0.699770941230E+03   -0.22263E-03   -0.22439E-03  8424   0.122E-02 0.360E-04
CGA:   7    -0.699771046374E+03   -0.10514E-03   -0.10876E-03  8424   0.248E-03 0.135E-03
CGA:   8    -0.699771087417E+03   -0.41043E-04   -0.41447E-04  8424   0.247E-03-0.109E-04
CGA:   9    -0.699771098058E+03   -0.10640E-04   -0.11719E-04  8424   0.591E-04 0.164E-04
CGA:  10    -0.699771102779E+03   -0.47213E-05   -0.52927E-05  8424   0.427E-04 0.208E-04
  23 F= -.69977110E+03 E0= -.69976180E+03  d E =0.122711E-03  mag=     1.9928
       N       E                     dE             d eps       ncg     rms          ort
SDA:   1    -0.699765918871E+03    0.51792E-02    0.00000E+00  8424   0.330E-01 0.000E+00
CGA:   2    -0.699767836556E+03   -0.19177E-02   -0.19293E-02  8424   0.158E-01-0.374E-04
CGA:   3    -0.699769870571E+03   -0.20340E-02   -0.20266E-02  8424   0.584E-02 0.336E-03
CGA:   4    -0.699770852440E+03   -0.98187E-03   -0.10095E-02  8424   0.364E-02-0.450E-03
CGA:   5    -0.699771190329E+03   -0.33789E-03   -0.34002E-03  8424   0.789E-03 0.240E-03
CGA:   6    -0.699771259547E+03   -0.69218E-04   -0.70069E-04  8424   0.557E-03 0.311E-04
CGA:   7    -0.699771315228E+03   -0.55681E-04   -0.55667E-04  8424   0.116E-03-0.138E-05
CGA:   8    -0.699771329760E+03   -0.14532E-04   -0.23139E-04  8424   0.262E-03-0.931E-04
CGA:   9    -0.699771337922E+03   -0.81616E-05   -0.10859E-04  8424   0.381E-04 0.380E-04
  24 F= -.69977134E+03 E0= -.69976203E+03  d E =-.235143E-03  mag=     1.9928
       N       E                     dE             d eps       ncg     rms          ort
SDA:   1    -0.699770286166E+03    0.10436E-02    0.00000E+00  8424   0.355E-02 0.000E+00
CGA:   2    -0.699770614119E+03   -0.32795E-03   -0.32919E-03  8424   0.412E-02 0.942E-04
CGA:   3    -0.699771136147E+03   -0.52203E-03   -0.52206E-03  8424   0.979E-03-0.389E-05
CGA:   4    -0.699771288655E+03   -0.15251E-03   -0.15493E-03  8424   0.371E-03-0.467E-04
CGA:   5    -0.699771317137E+03   -0.28482E-04   -0.28471E-04  8424   0.193E-03-0.919E-06
CGA:   6    -0.699771330149E+03   -0.13012E-04   -0.13638E-04  8424   0.465E-04 0.171E-04
CGA:   7    -0.699771336939E+03   -0.67896E-05   -0.14025E-04  8424   0.752E-04-0.422E-04
  25 F= -.69977134E+03 E0= -.69976203E+03  d E =0.982836E-06  mag=     1.9928
       N       E                     dE             d eps       ncg     rms          ort
SDA:   1    -0.699761698219E+03    0.96319E-02    0.00000E+00  8424   0.305E-01 0.000E+00
CGA:   2    -0.699767126476E+03   -0.54283E-02   -0.54450E-02  8424   0.210E-01-0.258E-03
CGA:   3    -0.699768764314E+03   -0.16378E-02   -0.16456E-02  8424   0.149E-01 0.258E-03
CGA:   4    -0.699770510110E+03   -0.17458E-02   -0.17454E-02  8424   0.396E-02 0.142E-03
CGA:   5    -0.699770982943E+03   -0.47283E-03   -0.47365E-03  8424   0.127E-02-0.150E-03
CGA:   6    -0.699771111076E+03   -0.12813E-03   -0.12901E-03  8424   0.562E-03 0.116E-03
CGA:   7    -0.699771148894E+03   -0.37819E-04   -0.39712E-04  8424   0.188E-03 0.392E-04
CGA:   8    -0.699771174883E+03   -0.25988E-04   -0.48383E-04  8424   0.425E-03-0.172E-03
CGA:   9    -0.699771189841E+03   -0.14958E-04   -0.18687E-04  8424   0.790E-04 0.512E-04
CGA:  10    -0.699771193530E+03   -0.36896E-05   -0.53054E-05  8424   0.224E-04 0.302E-04
  26 F= -.69977119E+03 E0= -.69976187E+03  d E =0.143409E-03  mag=     1.9928
       N       E                     dE             d eps       ncg     rms          ort
SDA:   1    -0.699767098406E+03    0.40914E-02    0.00000E+00  8424   0.205E-01 0.000E+00
CGA:   2    -0.699768591366E+03   -0.14930E-02   -0.14949E-02  8424   0.147E-01-0.251E-04
CGA:   3    -0.699770195128E+03   -0.16038E-02   -0.16033E-02  8424   0.448E-02 0.215E-03
CGA:   4    -0.699771072275E+03   -0.87715E-03   -0.89233E-03  8424   0.211E-02-0.172E-03
CGA:   5    -0.699771255209E+03   -0.18293E-03   -0.18674E-03  8424   0.479E-03 0.196E-03
CGA:   6    -0.699771326270E+03   -0.71061E-04   -0.72611E-04  8424   0.522E-03-0.554E-04
CGA:   7    -0.699771354011E+03   -0.27741E-04   -0.26385E-04  8424   0.927E-04-0.249E-04
CGA:   8    -0.699771364247E+03   -0.10236E-04   -0.10192E-04  8424   0.663E-04 0.693E-05
CGA:   9    -0.699771367279E+03   -0.30323E-05   -0.36874E-05  8424   0.198E-04 0.112E-04
  27 F= -.69977137E+03 E0= -.69976205E+03  d E =-.173749E-03  mag=     1.9928
