       N       E                     dE             d eps       ncg     rms          rms(c)
DAV:   1     0.826574222056E+04    0.82657E+04   -0.23541E+05 34332   0.218E+03
DAV:   2     0.116592663637E+04   -0.70998E+04   -0.66550E+04 33696   0.634E+02
DAV:   3    -0.386210005759E+03   -0.15521E+04   -0.13667E+04 35988   0.273E+02
DAV:   4    -0.544388928113E+03   -0.15818E+03   -0.15532E+03 36828   0.838E+01
DAV:   5    -0.547210684266E+03   -0.28218E+01   -0.28067E+01 36744   0.126E+01    0.105E+02
DAV:   6    -0.562747570474E+03   -0.15537E+02   -0.97601E+02 44988   0.120E+02    0.134E+02
DAV:   7    -0.465193729182E+03    0.97554E+02   -0.36682E+02 37428   0.126E+02    0.773E+01
DAV:   8    -0.454363505453E+03    0.10830E+02   -0.17339E+02 41688   0.465E+01    0.561E+01
DAV:   9    -0.477458431218E+03   -0.23095E+02   -0.79271E+01 38292   0.636E+01    0.947E+01
DAV:  10    -0.451999769575E+03    0.25459E+02   -0.62721E+01 38712   0.414E+01    0.506E+01
DAV:  11    -0.453593067483E+03   -0.15933E+01   -0.39318E+01 37788   0.321E+01    0.552E+01
DAV:  12    -0.444835503715E+03    0.87576E+01   -0.25888E+01 37500   0.244E+01    0.237E+01
DAV:  13    -0.442229282003E+03    0.26062E+01   -0.67019E+00 38388   0.187E+01    0.177E+01
DAV:  14    -0.441741414298E+03    0.48787E+00   -0.46848E+00 42276   0.899E+00    0.132E+01
DAV:  15    -0.441798035847E+03   -0.56622E-01   -0.24521E+00 41448   0.614E+00    0.119E+01
DAV:  16    -0.441745147033E+03    0.52889E-01   -0.18824E+00 39948   0.457E+00    0.976E+00
DAV:  17    -0.441703268975E+03    0.41878E-01   -0.81237E-01 40644   0.570E+00    0.807E+00
DAV:  18    -0.441796392715E+03   -0.93124E-01   -0.17080E+00 42348   0.600E+00    0.658E+00
DAV:  19    -0.441741070819E+03    0.55322E-01   -0.11653E+00 39504   0.517E+00    0.675E+00
DAV:  20    -0.441668206353E+03    0.72864E-01   -0.97422E-01 37104   0.316E+00    0.577E+00
DAV:  21    -0.441594755890E+03    0.73450E-01   -0.31698E-01 38436   0.241E+00    0.411E+00
DAV:  22    -0.441551036273E+03    0.43720E-01   -0.11567E-01 41772   0.176E+00    0.313E+00
DAV:  23    -0.441524931628E+03    0.26105E-01   -0.91780E-02 42984   0.135E+00    0.242E+00
DAV:  24    -0.441526920481E+03   -0.19889E-02   -0.18091E-02 37524   0.631E-01    0.210E+00
DAV:  25    -0.441524216771E+03    0.27037E-02   -0.16044E-02 42120   0.860E-01    0.162E+00
DAV:  26    -0.441520705062E+03    0.35117E-02   -0.30162E-02 43524   0.101E+00    0.117E+00
DAV:  27    -0.441519311587E+03    0.13935E-02   -0.21992E-02 45852   0.780E-01    0.870E-01
DAV:  28    -0.441517171194E+03    0.21404E-02   -0.90531E-03 42792   0.653E-01    0.629E-01
DAV:  29    -0.441516406293E+03    0.76490E-03   -0.37019E-03 37500   0.372E-01    0.507E-01
DAV:  30    -0.441516306364E+03    0.99929E-04   -0.29892E-03 39408   0.333E-01    0.447E-01
DAV:  31    -0.441515859404E+03    0.44696E-03   -0.16285E-03 39540   0.245E-01    0.316E-01
DAV:  32    -0.441515751151E+03    0.10825E-03   -0.68224E-04 42996   0.139E-01    0.235E-01
DAV:  33    -0.441515754392E+03   -0.32415E-05   -0.30379E-04 41748   0.938E-02    0.209E-01
DAV:  34    -0.441515791008E+03   -0.36616E-04   -0.13808E-04 35424   0.622E-02    0.199E-01
DAV:  35    -0.441515806836E+03   -0.15827E-04   -0.21773E-05 22212   0.157E-02    0.209E-01
DAV:  36    -0.441515738810E+03    0.68025E-04   -0.13497E-04 34644   0.808E-02    0.195E-01
DAV:  37    -0.441515724075E+03    0.14735E-04   -0.12708E-04 33648   0.657E-02    0.170E-01
DAV:  38    -0.441515668122E+03    0.55953E-04   -0.84939E-05 30840   0.565E-02    0.169E-01
DAV:  39    -0.441515629021E+03    0.39101E-04   -0.38734E-05 23172   0.390E-02    0.161E-01
DAV:  40    -0.441515588268E+03    0.40753E-04   -0.26269E-05 21420   0.241E-02    0.153E-01
DAV:  41    -0.441515558569E+03    0.29698E-04   -0.25238E-05 21648   0.271E-02    0.142E-01
DAV:  42    -0.441515460514E+03    0.98055E-04   -0.51841E-05 26172   0.335E-02    0.128E-01
DAV:  43    -0.441515403379E+03    0.57135E-04   -0.78311E-05 26040   0.306E-02    0.103E-01
DAV:  44    -0.441515383393E+03    0.19987E-04   -0.93195E-05 26784   0.325E-02    0.715E-02
DAV:  45    -0.441515428481E+03   -0.45088E-04   -0.65668E-05 22620   0.233E-02    0.375E-02
DAV:  46    -0.441515467680E+03   -0.39199E-04   -0.15825E-05 21852   0.152E-02    0.251E-02
DAV:  47    -0.441515478337E+03   -0.10657E-04   -0.67474E-06 18252   0.790E-03    0.315E-02
DAV:  48    -0.441515475369E+03    0.29681E-05   -0.20728E-06 18156   0.841E-03
   1 F= -.44151548E+03 E0= -.44149734E+03  d E =-.441515E+03  mag=     0.0299
       N       E                     dE             d eps       ncg     rms          rms(c)
DAV:   1    -0.441518410344E+03   -0.29320E-02   -0.30031E-03 47220   0.510E-01    0.452E-02
DAV:   2    -0.441518561206E+03   -0.15086E-03   -0.14307E-03 37500   0.109E-01    0.885E-02
DAV:   3    -0.441518526362E+03    0.34844E-04   -0.65484E-04 35544   0.101E-01    0.414E-02
DAV:   4    -0.441518529355E+03   -0.29934E-05   -0.69069E-05 25068   0.372E-02
   2 F= -.44151853E+03 E0= -.44150041E+03  d E =-.305399E-02  mag=     0.0523
       N       E                     dE             d eps       ncg     rms          rms(c)
DAV:   1    -0.441461058275E+03    0.57468E-01   -0.45708E+00 46764   0.198E+01    0.109E+00
DAV:   2    -0.441619941377E+03   -0.15888E+00   -0.16116E+00 36420   0.251E+00    0.838E-01
DAV:   3    -0.441624612524E+03   -0.46711E-02   -0.82786E-02 37056   0.164E+00    0.879E-01
DAV:   4    -0.441619721124E+03    0.48914E-02   -0.24577E-02 38736   0.103E+00    0.442E-01
DAV:   5    -0.441620506950E+03   -0.78583E-03   -0.11136E-02 42996   0.642E-01    0.503E-01
DAV:   6    -0.441619958309E+03    0.54864E-03   -0.13208E-02 39828   0.529E-01    0.333E-01
DAV:   7    -0.441619445682E+03    0.51263E-03   -0.78217E-03 40212   0.391E-01    0.163E-01
DAV:   8    -0.441619435416E+03    0.10266E-04   -0.18362E-03 39864   0.214E-01    0.133E-01
DAV:   9    -0.441619406061E+03    0.29355E-04   -0.57053E-04 40260   0.153E-01    0.938E-02
DAV:  10    -0.441619430688E+03   -0.24627E-04   -0.10317E-04 33696   0.516E-02    0.971E-02
DAV:  11    -0.441619425636E+03    0.50524E-05   -0.15466E-05 19740   0.219E-02
   3 F= -.44161943E+03 E0= -.44160172E+03  d E =-.100896E+00  mag=     0.2532
       N       E                     dE             d eps       ncg     rms          rms(c)
DAV:   1    -0.441219821645E+03    0.39961E+00   -0.16113E+01 45888   0.346E+01    0.217E+00
DAV:   2    -0.441762173393E+03   -0.54235E+00   -0.54035E+00 36156   0.518E+00    0.222E+00
DAV:   3    -0.441766033692E+03   -0.38603E-02   -0.50296E-01 36576   0.368E+00    0.176E+00
DAV:   4    -0.441751115612E+03    0.14918E-01   -0.16495E-01 38388   0.179E+00    0.995E-01
DAV:   5    -0.441749588941E+03    0.15267E-02   -0.46454E-02 38880   0.102E+00    0.819E-01
DAV:   6    -0.441751790431E+03   -0.22015E-02   -0.41059E-02 40644   0.989E-01    0.849E-01
DAV:   7    -0.441748389663E+03    0.34008E-02   -0.28997E-02 40740   0.978E-01    0.363E-01
DAV:   8    -0.441748223536E+03    0.16613E-03   -0.67238E-03 39588   0.539E-01    0.280E-01
DAV:   9    -0.441747915715E+03    0.30782E-03   -0.39512E-03 42504   0.392E-01    0.149E-01
DAV:  10    -0.441747887209E+03    0.28506E-04   -0.10237E-03 42696   0.201E-01    0.101E-01
DAV:  11    -0.441747897860E+03   -0.10651E-04   -0.53510E-04 39612   0.163E-01    0.850E-02
DAV:  12    -0.441747887167E+03    0.10693E-04   -0.21079E-04 35400   0.106E-01    0.584E-02
DAV:  13    -0.441747931641E+03   -0.44474E-04   -0.14972E-04 35544   0.897E-02    0.619E-02
DAV:  14    -0.441747931879E+03   -0.23801E-06   -0.15634E-04 35556   0.856E-02    0.304E-02
DAV:  15    -0.441747943049E+03   -0.11170E-04   -0.43131E-05 22980   0.459E-02    0.259E-02
DAV:  16    -0.441747943634E+03   -0.58464E-06   -0.23346E-05 21588   0.375E-02
   4 F= -.44174794E+03 E0= -.44173228E+03  d E =-.128518E+00  mag=     0.6968
       N       E                     dE             d eps       ncg     rms          rms(c)
DAV:   1    -0.441669623493E+03    0.78320E-01   -0.88656E+00 43464   0.198E+01    0.114E+00
DAV:   2    -0.441834001096E+03   -0.16438E+00   -0.16523E+00 37176   0.331E+00    0.137E+00
DAV:   3    -0.441833308389E+03    0.69271E-03   -0.20113E-01 37272   0.220E+00    0.106E+00
DAV:   4    -0.441829550209E+03    0.37582E-02   -0.66738E-02 39144   0.105E+00    0.673E-01
DAV:   5    -0.441827759710E+03    0.17905E-02   -0.14792E-02 39852   0.733E-01    0.399E-01
DAV:   6    -0.441828770319E+03   -0.10106E-02   -0.94847E-03 41796   0.620E-01    0.502E-01
DAV:   7    -0.441827312022E+03    0.14583E-02   -0.77205E-03 40932   0.602E-01    0.158E-01
DAV:   8    -0.441827344935E+03   -0.32913E-04   -0.15293E-03 41124   0.268E-01    0.139E-01
DAV:   9    -0.441827247028E+03    0.97907E-04   -0.79320E-04 40548   0.201E-01    0.688E-02
DAV:  10    -0.441827232736E+03    0.14292E-04   -0.21588E-04 42384   0.851E-02    0.415E-02
DAV:  11    -0.441827229334E+03    0.34016E-05   -0.12376E-04 33960   0.753E-02    0.351E-02
DAV:  12    -0.441827222957E+03    0.63769E-05   -0.49716E-05 25236   0.497E-02
   5 F= -.44182722E+03 E0= -.44181157E+03  d E =-.792793E-01  mag=     0.6944
       N       E                     dE             d eps       ncg     rms          rms(c)
DAV:   1    -0.441653273058E+03    0.17396E+00   -0.23345E+01 40356   0.274E+01    0.146E+00
DAV:   2    -0.441935968790E+03   -0.28270E+00   -0.28938E+00 36684   0.442E+00    0.162E+00
DAV:   3    -0.441939975312E+03   -0.40065E-02   -0.31828E-01 36900   0.279E+00    0.149E+00
DAV:   4    -0.441929808077E+03    0.10167E-01   -0.11659E-01 38424   0.139E+00    0.779E-01
DAV:   5    -0.441927838607E+03    0.19695E-02   -0.25221E-02 40380   0.951E-01    0.551E-01
DAV:   6    -0.441928214699E+03   -0.37609E-03   -0.15434E-02 41400   0.742E-01    0.557E-01
DAV:   7    -0.441926585766E+03    0.16289E-02   -0.13387E-02 42000   0.812E-01    0.249E-01
DAV:   8    -0.441926406717E+03    0.17905E-03   -0.30176E-03 40332   0.339E-01    0.159E-01
DAV:   9    -0.441926309301E+03    0.97416E-04   -0.14762E-03 42420   0.260E-01    0.915E-02
DAV:  10    -0.441926269971E+03    0.39330E-04   -0.47709E-04 42300   0.118E-01    0.530E-02
DAV:  11    -0.441926266423E+03    0.35483E-05   -0.19169E-04 37044   0.916E-02    0.431E-02
DAV:  12    -0.441926255140E+03    0.11283E-04   -0.62860E-05 29016   0.543E-02    0.242E-02
DAV:  13    -0.441926257086E+03   -0.19453E-05   -0.48295E-05 24564   0.485E-02
   6 F= -.44192626E+03 E0= -.44191046E+03  d E =-.990341E-01  mag=     0.6540
       N       E                     dE             d eps       ncg     rms          rms(c)
DAV:   1    -0.441548758393E+03    0.37750E+00   -0.16291E+01 45720   0.356E+01    0.183E+00
DAV:   2    -0.441984523471E+03   -0.43577E+00   -0.44105E+00 36648   0.503E+00    0.187E+00
DAV:   3    -0.441996658011E+03   -0.12135E-01   -0.42991E-01 36936   0.338E+00    0.181E+00
DAV:   4    -0.441979401847E+03    0.17256E-01   -0.14842E-01 38112   0.166E+00    0.859E-01
DAV:   5    -0.441978787784E+03    0.61406E-03   -0.40259E-02 41292   0.977E-01    0.750E-01
DAV:   6    -0.441978320627E+03    0.46716E-03   -0.23011E-02 41124   0.785E-01    0.548E-01
DAV:   7    -0.441977068286E+03    0.12523E-02   -0.14208E-02 40704   0.844E-01    0.303E-01
DAV:   8    -0.441976715386E+03    0.35290E-03   -0.38236E-03 40548   0.375E-01    0.156E-01
DAV:   9    -0.441976680426E+03    0.34960E-04   -0.16824E-03 42168   0.288E-01    0.113E-01
DAV:  10    -0.441976624000E+03    0.56426E-04   -0.61959E-04 39720   0.167E-01    0.674E-02
DAV:  11    -0.441976607569E+03    0.16431E-04   -0.26220E-04 35496   0.111E-01    0.504E-02
DAV:  12    -0.441976591925E+03    0.15644E-04   -0.10779E-04 32808   0.717E-02    0.288E-02
DAV:  13    -0.441976589769E+03    0.21560E-05   -0.61757E-05 32412   0.512E-02
   7 F= -.44197659E+03 E0= -.44196065E+03  d E =-.503327E-01  mag=     0.6229
       N       E                     dE             d eps       ncg     rms          rms(c)
DAV:   1    -0.441889754305E+03    0.86838E-01   -0.37481E+00 46788   0.190E+01    0.937E-01
DAV:   2    -0.442010129808E+03   -0.12038E+00   -0.12284E+00 36684   0.253E+00    0.852E-01
DAV:   3    -0.442015092990E+03   -0.49632E-02   -0.94700E-02 36900   0.183E+00    0.951E-01
DAV:   4    -0.442009449550E+03    0.56434E-02   -0.28064E-02 38856   0.985E-01    0.370E-01
DAV:   5    -0.442010026921E+03   -0.57737E-03   -0.11835E-02 43332   0.503E-01    0.453E-01
DAV:   6    -0.442009592406E+03    0.43451E-03   -0.99906E-03 41328   0.425E-01    0.279E-01
DAV:   7    -0.442009236317E+03    0.35609E-03   -0.36607E-03 42012   0.405E-01    0.132E-01
DAV:   8    -0.442009173136E+03    0.63181E-04   -0.70243E-04 39456   0.164E-01    0.633E-02
DAV:   9    -0.442009174593E+03   -0.14564E-05   -0.31938E-04 39984   0.121E-01    0.550E-02
DAV:  10    -0.442009159389E+03    0.15203E-04   -0.11737E-04 31488   0.732E-02    0.267E-02
DAV:  11    -0.442009157877E+03    0.15126E-05   -0.44171E-05 25020   0.475E-02
   8 F= -.44200916E+03 E0= -.44199323E+03  d E =-.325681E-01  mag=     0.6119
       N       E                     dE             d eps       ncg     rms          rms(c)
DAV:   1    -0.441987127117E+03    0.22032E-01   -0.12181E+00 46800   0.108E+01    0.546E-01
DAV:   2    -0.442027795389E+03   -0.40668E-01   -0.41284E-01 36240   0.136E+00    0.458E-01
DAV:   3    -0.442029751136E+03   -0.19557E-02   -0.29666E-02 36948   0.108E+00    0.563E-01
DAV:   4    -0.442027832480E+03    0.19187E-02   -0.92613E-03 39060   0.610E-01    0.213E-01
DAV:   5    -0.442028050574E+03   -0.21809E-03   -0.38850E-03 43824   0.285E-01    0.261E-01
DAV:   6    -0.442027977938E+03    0.72636E-04   -0.34587E-03 42216   0.254E-01    0.176E-01
DAV:   7    -0.442027815507E+03    0.16243E-03   -0.12245E-03 40752   0.236E-01    0.664E-02
DAV:   8    -0.442027808811E+03    0.66959E-05   -0.19605E-04 37332   0.842E-02    0.384E-02
DAV:   9    -0.442027804742E+03    0.40687E-05   -0.92571E-05 30924   0.659E-02
   9 F= -.44202780E+03 E0= -.44201187E+03  d E =-.186469E-01  mag=     0.6049
       N       E                     dE             d eps       ncg     rms          rms(c)
DAV:   1    -0.441866923109E+03    0.16089E+00   -0.10942E+01 44640   0.245E+01    0.126E+00
DAV:   2    -0.442082233001E+03   -0.21531E+00   -0.21617E+00 36876   0.368E+00    0.132E+00
DAV:   3    -0.442087694157E+03   -0.54612E-02   -0.20023E-01 36696   0.258E+00    0.119E+00
DAV:   4    -0.442078251332E+03    0.94428E-02   -0.35989E-02 39132   0.124E+00    0.471E-01
DAV:   5    -0.442079319591E+03   -0.10683E-02   -0.16681E-02 41280   0.709E-01    0.593E-01
DAV:   6    -0.442078786946E+03    0.53264E-03   -0.24083E-02 41292   0.621E-01    0.466E-01
DAV:   7    -0.442077763622E+03    0.10233E-02   -0.10514E-02 40464   0.530E-01    0.163E-01
DAV:   8    -0.442077733048E+03    0.30573E-04   -0.13154E-03 39516   0.209E-01    0.100E-01
DAV:   9    -0.442077711694E+03    0.21355E-04   -0.64688E-04 38400   0.178E-01    0.705E-02
DAV:  10    -0.442077683645E+03    0.28049E-04   -0.16823E-04 35412   0.880E-02    0.331E-02
DAV:  11    -0.442077684876E+03   -0.12315E-05   -0.79972E-05 29028   0.670E-02
  10 F= -.44207768E+03 E0= -.44206179E+03  d E =-.498801E-01  mag=     0.5944
       N       E                     dE             d eps       ncg     rms          rms(c)
DAV:   1    -0.441710992108E+03    0.36669E+00   -0.13122E+01 47280   0.350E+01    0.172E+00
DAV:   2    -0.442112214364E+03   -0.40122E+00   -0.40929E+00 37332   0.454E+00    0.138E+00
DAV:   3    -0.442133249408E+03   -0.21035E-01   -0.31797E-01 37344   0.292E+00    0.196E+00
DAV:   4    -0.442112262323E+03    0.20987E-01   -0.16527E-01 39276   0.161E+00    0.793E-01
DAV:   5    -0.442111349341E+03    0.91298E-03   -0.31473E-02 41232   0.868E-01    0.637E-01
DAV:   6    -0.442111624321E+03   -0.27498E-03   -0.14410E-02 41448   0.713E-01    0.508E-01
DAV:   7    -0.442110305187E+03    0.13191E-02   -0.10682E-02 40392   0.761E-01    0.238E-01
DAV:   8    -0.442110168979E+03    0.13621E-03   -0.28542E-03 40620   0.312E-01    0.151E-01
DAV:   9    -0.442110084801E+03    0.84178E-04   -0.11111E-03 41112   0.223E-01    0.842E-02
DAV:  10    -0.442110050712E+03    0.34089E-04   -0.34370E-04 37332   0.125E-01    0.516E-02
DAV:  11    -0.442110043653E+03    0.70595E-05   -0.15227E-04 35076   0.836E-02    0.464E-02
DAV:  12    -0.442110033640E+03    0.10012E-04   -0.10579E-04 29280   0.752E-02    0.294E-02
DAV:  13    -0.442110029205E+03    0.44353E-05   -0.42100E-05 26616   0.405E-02
  11 F= -.44211003E+03 E0= -.44209414E+03  d E =-.323443E-01  mag=     0.5469
       N       E                     dE             d eps       ncg     rms          rms(c)
DAV:   1    -0.441947754502E+03    0.16228E+00   -0.36822E+00 49200   0.227E+01    0.111E+00
DAV:   2    -0.442113541029E+03   -0.16579E+00   -0.17103E+00 37260   0.268E+00    0.727E-01
DAV:   3    -0.442120169087E+03   -0.66281E-02   -0.73849E-02 37092   0.169E+00    0.977E-01
DAV:   4    -0.442114255838E+03    0.59132E-02   -0.28361E-02 39132   0.104E+00    0.392E-01
DAV:   5    -0.442115901425E+03   -0.16456E-02   -0.12200E-02 42336   0.646E-01    0.557E-01
DAV:   6    -0.442114421082E+03    0.14803E-02   -0.13068E-02 41832   0.580E-01    0.253E-01
DAV:   7    -0.442114264203E+03    0.15688E-03   -0.48912E-03 41508   0.352E-01    0.162E-01
DAV:   8    -0.442114163309E+03    0.10089E-03   -0.14531E-03 40584   0.200E-01    0.728E-02
DAV:   9    -0.442114152901E+03    0.10408E-04   -0.33842E-04 37092   0.116E-01    0.561E-02
DAV:  10    -0.442114135254E+03    0.17647E-04   -0.13219E-04 31812   0.844E-02    0.284E-02
DAV:  11    -0.442114131132E+03    0.41213E-05   -0.35877E-05 25320   0.399E-02
  12 F= -.44211413E+03 E0= -.44209815E+03  d E =-.410193E-02  mag=     0.5727
       N       E                     dE             d eps       ncg     rms          rms(c)
DAV:   1    -0.442100878025E+03    0.13257E-01   -0.23101E-01 48900   0.576E+00    0.281E-01
DAV:   2    -0.442111406954E+03   -0.10529E-01   -0.10766E-01 36240   0.681E-01    0.203E-01
DAV:   3    -0.442112000422E+03   -0.59347E-03   -0.70177E-03 37104   0.508E-01    0.295E-01
DAV:   4    -0.442111491269E+03    0.50915E-03   -0.28382E-03 39408   0.308E-01    0.109E-01
DAV:   5    -0.442111547178E+03   -0.55909E-04   -0.10011E-03 38772   0.140E-01    0.131E-01
DAV:   6    -0.442111502053E+03    0.45126E-04   -0.68940E-04 40836   0.118E-01    0.603E-02
DAV:   7    -0.442111493786E+03    0.82666E-05   -0.20436E-04 36696   0.104E-01    0.411E-02
DAV:   8    -0.442111485126E+03    0.86601E-05   -0.52666E-05 26424   0.510E-02
  13 F= -.44211149E+03 E0= -.44209554E+03  d E =0.264601E-02  mag=     0.5825
       N       E                     dE             d eps       ncg     rms          rms(c)
DAV:   1    -0.442105145871E+03    0.63479E-02   -0.35663E-01 46080   0.483E+00    0.230E-01
DAV:   2    -0.442112888692E+03   -0.77428E-02   -0.78362E-02 36228   0.626E-01    0.164E-01
DAV:   3    -0.442113291903E+03   -0.40321E-03   -0.50916E-03 37092   0.390E-01    0.257E-01
DAV:   4    -0.442112922762E+03    0.36914E-03   -0.23086E-03 39132   0.240E-01    0.880E-02
DAV:   5    -0.442112968820E+03   -0.46058E-04   -0.65662E-04 40884   0.129E-01    0.112E-01
DAV:   6    -0.442112924195E+03    0.44625E-04   -0.50910E-04 40668   0.117E-01    0.572E-02
DAV:   7    -0.442112912939E+03    0.11257E-04   -0.15940E-04 36504   0.918E-02    0.328E-02
DAV:   8    -0.442112909255E+03    0.36834E-05   -0.36586E-05 24240   0.413E-02
  14 F= -.44211291E+03 E0= -.44209696E+03  d E =-.142413E-02  mag=     0.5873
       N       E                     dE             d eps       ncg     rms          rms(c)
DAV:   1    -0.441990778548E+03    0.12213E+00   -0.55688E+00 46764   0.197E+01    0.944E-01
DAV:   2    -0.442118915194E+03   -0.12814E+00   -0.13004E+00 36408   0.249E+00    0.514E-01
DAV:   3    -0.442121524996E+03   -0.26098E-02   -0.32465E-02 39276   0.893E-01    0.568E-01
DAV:   4    -0.442120295572E+03    0.12294E-02   -0.13594E-02 38592   0.707E-01    0.349E-01
DAV:   5    -0.442121534914E+03   -0.12393E-02   -0.13995E-02 43560   0.530E-01    0.524E-01
DAV:   6    -0.442120048622E+03    0.14863E-02   -0.12037E-02 42528   0.509E-01    0.150E-01
DAV:   7    -0.442120066676E+03   -0.18054E-04   -0.17766E-03 42216   0.272E-01    0.125E-01
DAV:   8    -0.442119989743E+03    0.76933E-04   -0.65087E-04 40128   0.174E-01    0.450E-02
DAV:   9    -0.442119987694E+03    0.20491E-05   -0.13816E-04 36684   0.714E-02    0.350E-02
DAV:  10    -0.442119985493E+03    0.22010E-05   -0.68982E-05 26688   0.628E-02
  15 F= -.44211999E+03 E0= -.44210401E+03  d E =-.707624E-02  mag=     0.5774
       N       E                     dE             d eps       ncg     rms          rms(c)
DAV:   1    -0.441841250155E+03    0.27874E+00   -0.99406E+00 47676   0.290E+01    0.141E+00
DAV:   2    -0.442121211262E+03   -0.27996E+00   -0.28440E+00 36924   0.358E+00    0.803E-01
DAV:   3    -0.442127747633E+03   -0.65364E-02   -0.73203E-02 38880   0.153E+00    0.102E+00
DAV:   4    -0.442122734815E+03    0.50128E-02   -0.34772E-02 38808   0.105E+00    0.490E-01
DAV:   5    -0.442124825076E+03   -0.20903E-02   -0.19736E-02 42912   0.700E-01    0.638E-01
DAV:   6    -0.442122701883E+03    0.21232E-02   -0.23319E-02 42516   0.675E-01    0.266E-01
DAV:   7    -0.442122542646E+03    0.15924E-03   -0.47517E-03 42324   0.359E-01    0.174E-01
DAV:   8    -0.442122416688E+03    0.12596E-03   -0.14949E-03 39672   0.243E-01    0.813E-02
DAV:   9    -0.442122398525E+03    0.18163E-04   -0.34108E-04 37608   0.116E-01    0.553E-02
DAV:  10    -0.442122389587E+03    0.89382E-05   -0.17138E-04 34344   0.981E-02    0.418E-02
DAV:  11    -0.442122376551E+03    0.13036E-04   -0.52936E-05 28344   0.532E-02    0.173E-02
DAV:  12    -0.442122381698E+03   -0.51471E-05   -0.47788E-05 24240   0.475E-02
  16 F= -.44212238E+03 E0= -.44210633E+03  d E =-.239621E-02  mag=     0.5827
       N       E                     dE             d eps       ncg     rms          rms(c)
DAV:   1    -0.442016288466E+03    0.10609E+00   -0.25541E+00 49656   0.185E+01    0.873E-01
DAV:   2    -0.442121663415E+03   -0.10537E+00   -0.10877E+00 36516   0.216E+00    0.480E-01
DAV:   3    -0.442123718116E+03   -0.20547E-02   -0.26240E-02 40968   0.706E-01    0.508E-01
DAV:   4    -0.442122950333E+03    0.76778E-03   -0.11458E-02 38232   0.610E-01    0.346E-01
DAV:   5    -0.442124013753E+03   -0.10634E-02   -0.11480E-02 44172   0.499E-01    0.480E-01
DAV:   6    -0.442122704378E+03    0.13094E-02   -0.82235E-03 42492   0.471E-01    0.124E-01
DAV:   7    -0.442122747339E+03   -0.42960E-04   -0.13460E-03 40704   0.243E-01    0.120E-01
DAV:   8    -0.442122666891E+03    0.80447E-04   -0.56814E-04 39144   0.152E-01    0.367E-02
DAV:   9    -0.442122669168E+03   -0.22772E-05   -0.12858E-04 37140   0.692E-02    0.372E-02
DAV:  10    -0.442122662806E+03    0.63622E-05   -0.63769E-05 26628   0.578E-02
  17 F= -.44212266E+03 E0= -.44210663E+03  d E =-.281108E-03  mag=     0.5856
       N       E                     dE             d eps       ncg     rms          rms(c)
DAV:   1    -0.442104232489E+03    0.18437E-01   -0.41847E-01 50700   0.829E+00    0.398E-01
DAV:   2    -0.442125801269E+03   -0.21569E-01   -0.22303E-01 36432   0.942E-01    0.232E-01
DAV:   3    -0.442126479282E+03   -0.67801E-03   -0.72020E-03 38028   0.453E-01    0.284E-01
DAV:   4    -0.442126053415E+03    0.42587E-03   -0.23384E-03 38304   0.360E-01    0.140E-01
DAV:   5    -0.442126211094E+03   -0.15768E-03   -0.87269E-04 43344   0.215E-01    0.163E-01
DAV:   6    -0.442126033951E+03    0.17714E-03   -0.77368E-04 42336   0.220E-01    0.414E-02
DAV:   7    -0.442126044378E+03   -0.10427E-04   -0.17507E-04 37056   0.718E-02    0.426E-02
DAV:   8    -0.442126035446E+03    0.89319E-05   -0.10415E-04 27624   0.584E-02    0.195E-02
DAV:   9    -0.442126034948E+03    0.49881E-06   -0.34074E-05 18972   0.258E-02
  18 F= -.44212603E+03 E0= -.44211003E+03  d E =-.337214E-02  mag=     0.5833
