       N       E                     dE             d eps       ncg     rms          rms(c)
DAV:   1     0.103754845170E+05    0.10375E+05   -0.37694E+05 32020   0.141E+03
DAV:   2     0.525299000414E+03   -0.98502E+04   -0.92954E+04 31380   0.452E+02
DAV:   3    -0.853460965175E+03   -0.13788E+04   -0.12749E+04 34790   0.173E+02
DAV:   4    -0.937896238343E+03   -0.84435E+02   -0.82065E+02 39260   0.447E+01
DAV:   5    -0.940414717485E+03   -0.25185E+01   -0.25111E+01 38450   0.837E+00    0.189E+02
DAV:   6    -0.425115618004E+03    0.51530E+03   -0.12073E+03 38830   0.768E+01    0.912E+01
DAV:   7    -0.659686080062E+03   -0.23457E+03   -0.39753E+02 39930   0.609E+01    0.760E+01
DAV:   8    -0.689884995575E+03   -0.30199E+02   -0.52157E+01 41130   0.190E+01    0.503E+01
DAV:   9    -0.738512687720E+03   -0.48628E+02   -0.43038E+01 39800   0.146E+01    0.367E+01
DAV:  10    -0.773037094606E+03   -0.34524E+02   -0.39576E+01 41420   0.155E+01    0.323E+01
DAV:  11    -0.791399971359E+03   -0.18363E+02   -0.28523E+01 39680   0.110E+01    0.200E+01
DAV:  12    -0.793816073827E+03   -0.24161E+01   -0.75008E+00 41250   0.813E+00    0.127E+01
DAV:  13    -0.795673014412E+03   -0.18569E+01   -0.30689E+00 40780   0.476E+00    0.661E+00
DAV:  14    -0.796274866148E+03   -0.60185E+00   -0.74653E-01 36850   0.223E+00    0.415E+00
DAV:  15    -0.796583602627E+03   -0.30874E+00   -0.34718E-01 37780   0.178E+00    0.259E+00
DAV:  16    -0.796662337646E+03   -0.78735E-01   -0.13344E-01 35800   0.113E+00    0.129E+00
DAV:  17    -0.796680040599E+03   -0.17703E-01   -0.40904E-02 33420   0.559E-01    0.898E-01
DAV:  18    -0.796686877093E+03   -0.68365E-02   -0.70561E-03 38470   0.254E-01    0.673E-01
DAV:  19    -0.796694730163E+03   -0.78531E-02   -0.57872E-03 40270   0.224E-01    0.487E-01
DAV:  20    -0.796699766249E+03   -0.50361E-02   -0.48057E-03 39050   0.188E-01    0.383E-01
DAV:  21    -0.796702552219E+03   -0.27860E-02   -0.27882E-03 39140   0.132E-01    0.325E-01
DAV:  22    -0.796705724093E+03   -0.31719E-02   -0.21132E-03 42160   0.122E-01    0.283E-01
DAV:  23    -0.796709671363E+03   -0.39473E-02   -0.49330E-03 43150   0.185E-01    0.229E-01
DAV:  24    -0.796712473884E+03   -0.28025E-02   -0.59106E-03 41560   0.178E-01    0.190E-01
DAV:  25    -0.796714109604E+03   -0.16357E-02   -0.30495E-03 39950   0.116E-01    0.148E-01
DAV:  26    -0.796714945030E+03   -0.83543E-03   -0.11741E-03 36950   0.646E-02    0.120E-01
DAV:  27    -0.796715535080E+03   -0.59005E-03   -0.59955E-04 41880   0.617E-02    0.999E-02
DAV:  28    -0.796716026758E+03   -0.49168E-03   -0.11189E-03 42220   0.795E-02    0.844E-02
DAV:  29    -0.796716383640E+03   -0.35688E-03   -0.76062E-04 39500   0.521E-02    0.713E-02
DAV:  30    -0.796716605672E+03   -0.22203E-03   -0.23878E-04 34770   0.323E-02    0.596E-02
DAV:  31    -0.796716812377E+03   -0.20670E-03   -0.31505E-04 42950   0.436E-02    0.485E-02
DAV:  32    -0.796716958946E+03   -0.14657E-03   -0.40844E-04 40700   0.448E-02    0.431E-02
DAV:  33    -0.796717061952E+03   -0.10301E-03   -0.25225E-04 35960   0.318E-02    0.326E-02
DAV:  34    -0.796717119095E+03   -0.57143E-04   -0.13820E-04 33170   0.227E-02    0.260E-02
DAV:  35    -0.796717151871E+03   -0.32776E-04   -0.72258E-05 31650   0.174E-02    0.177E-02
DAV:  36    -0.796717170792E+03   -0.18921E-04   -0.45100E-05 27890   0.138E-02    0.135E-02
DAV:  37    -0.796717181427E+03   -0.10636E-04   -0.19977E-05 22430   0.817E-03    0.113E-02
DAV:  38    -0.796717186352E+03   -0.49250E-05   -0.48176E-06 17840   0.524E-03
   1 F= -.79671719E+03 E0= -.79671719E+03  d E =-.796717E+03  mag=    46.9997
       N       E                     dE             d eps       ncg     rms          rms(c)
DAV:   1    -0.796716505635E+03    0.67579E-03   -0.66421E-02 35800   0.797E-01    0.888E-02
DAV:   2    -0.796717107903E+03   -0.60227E-03   -0.61038E-03 31950   0.146E-01    0.463E-02
DAV:   3    -0.796717136135E+03   -0.28231E-04   -0.10930E-04 33440   0.229E-02    0.258E-02
DAV:   4    -0.796717135072E+03    0.10630E-05   -0.84037E-06 16630   0.842E-03
   2 F= -.79671714E+03 E0= -.79671714E+03  d E =0.512806E-04  mag=    47.0000
       N       E                     dE             d eps       ncg     rms          rms(c)
DAV:   1    -0.789617910392E+03    0.70992E+01   -0.74402E+02 35240   0.839E+01    0.963E+00
DAV:   2    -0.796400762681E+03   -0.67829E+01   -0.69001E+01 31460   0.155E+01    0.524E+00
DAV:   3    -0.796714749158E+03   -0.31399E+00   -0.12668E+00 39260   0.246E+00    0.275E+00
DAV:   4    -0.796698420557E+03    0.16329E-01   -0.99042E-02 41030   0.720E-01    0.172E+00
DAV:   5    -0.796706564656E+03   -0.81441E-02   -0.36491E-02 44630   0.583E-01    0.586E-01
DAV:   6    -0.796709909208E+03   -0.33446E-02   -0.13310E-02 43050   0.356E-01    0.338E-01
DAV:   7    -0.796709751442E+03    0.15777E-03   -0.16622E-03 42440   0.177E-01    0.177E-01
DAV:   8    -0.796709730894E+03    0.20548E-04   -0.50235E-04 41950   0.819E-02    0.688E-02
DAV:   9    -0.796709771710E+03   -0.40816E-04   -0.17848E-04 39490   0.323E-02    0.411E-02
DAV:  10    -0.796709787111E+03   -0.15401E-04   -0.27205E-05 25610   0.179E-02    0.322E-02
DAV:  11    -0.796709800407E+03   -0.13296E-04   -0.10308E-05 18580   0.973E-03    0.277E-02
DAV:  12    -0.796709827423E+03   -0.27017E-04   -0.16394E-05 23710   0.135E-02    0.226E-02
DAV:  13    -0.796709852149E+03   -0.24726E-04   -0.60906E-05 32500   0.172E-02    0.167E-02
DAV:  14    -0.796709865742E+03   -0.13593E-04   -0.29563E-05 23680   0.122E-02    0.128E-02
DAV:  15    -0.796709872468E+03   -0.67257E-05   -0.14684E-05 22350   0.870E-03
   3 F= -.79670987E+03 E0= -.79670987E+03  d E =0.726260E-02  mag=    47.0000
       N       E                     dE             d eps       ncg     rms          rms(c)
DAV:   1    -0.788947802550E+03    0.77621E+01   -0.81766E+02 35390   0.880E+01    0.101E+01
DAV:   2    -0.796360610723E+03   -0.74128E+01   -0.75403E+01 31450   0.162E+01    0.544E+00
DAV:   3    -0.796705123167E+03   -0.34451E+00   -0.13805E+00 39230   0.258E+00    0.288E+00
DAV:   4    -0.796687314374E+03    0.17809E-01   -0.10885E-01 41140   0.761E-01    0.180E+00
DAV:   5    -0.796696524352E+03   -0.92100E-02   -0.40216E-02 45200   0.618E-01    0.615E-01
DAV:   6    -0.796700125489E+03   -0.36011E-02   -0.14545E-02 42960   0.379E-01    0.357E-01
DAV:   7    -0.796699944558E+03    0.18093E-03   -0.18491E-03 42540   0.187E-01    0.185E-01
DAV:   8    -0.796699921867E+03    0.22691E-04   -0.55605E-04 41730   0.854E-02    0.710E-02
DAV:   9    -0.796699964961E+03   -0.43094E-04   -0.19216E-04 39750   0.340E-02    0.431E-02
DAV:  10    -0.796699981280E+03   -0.16319E-04   -0.30992E-05 26670   0.194E-02    0.335E-02
DAV:  11    -0.796699995140E+03   -0.13860E-04   -0.11248E-05 18830   0.102E-02    0.285E-02
DAV:  12    -0.796700022297E+03   -0.27157E-04   -0.15448E-05 23150   0.128E-02    0.236E-02
DAV:  13    -0.796700049344E+03   -0.27047E-04   -0.59319E-05 32490   0.177E-02    0.176E-02
DAV:  14    -0.796700064584E+03   -0.15239E-04   -0.33239E-05 24830   0.130E-02    0.140E-02
DAV:  15    -0.796700072270E+03   -0.76867E-05   -0.15771E-05 23660   0.936E-03
   4 F= -.79670007E+03 E0= -.79670007E+03  d E =0.980020E-02  mag=    47.0000
       N       E                     dE             d eps       ncg     rms          rms(c)
DAV:   1    -0.788645158044E+03    0.80549E+01   -0.85355E+02 35500   0.898E+01    0.103E+01
DAV:   2    -0.796336090091E+03   -0.76909E+01   -0.78261E+01 31450   0.165E+01    0.556E+00
DAV:   3    -0.796695498290E+03   -0.35941E+00   -0.14443E+00 39120   0.264E+00    0.294E+00
DAV:   4    -0.796677274173E+03    0.18224E-01   -0.11261E-01 41030   0.768E-01    0.184E+00
DAV:   5    -0.796686486954E+03   -0.92128E-02   -0.41405E-02 44390   0.622E-01    0.617E-01
DAV:   6    -0.796690332911E+03   -0.38460E-02   -0.15029E-02 43040   0.375E-01    0.360E-01
DAV:   7    -0.796690144986E+03    0.18792E-03   -0.18978E-03 42540   0.190E-01    0.188E-01
DAV:   8    -0.796690113090E+03    0.31897E-04   -0.56871E-04 42580   0.879E-02    0.731E-02
DAV:   9    -0.796690152960E+03   -0.39870E-04   -0.19701E-04 41480   0.363E-02    0.434E-02
DAV:  10    -0.796690166591E+03   -0.13631E-04   -0.31967E-05 27340   0.207E-02    0.319E-02
DAV:  11    -0.796690178914E+03   -0.12323E-04   -0.11201E-05 18840   0.101E-02    0.268E-02
DAV:  12    -0.796690201208E+03   -0.22294E-04   -0.11812E-05 20160   0.110E-02    0.225E-02
DAV:  13    -0.796690224822E+03   -0.23614E-04   -0.44594E-05 31380   0.156E-02    0.173E-02
DAV:  14    -0.796690238461E+03   -0.13639E-04   -0.26424E-05 24170   0.119E-02    0.136E-02
DAV:  15    -0.796690246100E+03   -0.76396E-05   -0.15237E-05 23400   0.976E-03
   5 F= -.79669025E+03 E0= -.79669025E+03  d E =0.982617E-02  mag=    47.0000
       N       E                     dE             d eps       ncg     rms          rms(c)
DAV:   1    -0.788495261347E+03    0.81950E+01   -0.85875E+02 35390   0.902E+01    0.104E+01
DAV:   2    -0.796322075683E+03   -0.78268E+01   -0.79650E+01 31450   0.167E+01    0.559E+00
DAV:   3    -0.796685811425E+03   -0.36374E+00   -0.14837E+00 39040   0.266E+00    0.297E+00
DAV:   4    -0.796667556671E+03    0.18255E-01   -0.11412E-01 41110   0.764E-01    0.186E+00
DAV:   5    -0.796676620218E+03   -0.90635E-02   -0.41462E-02 43660   0.629E-01    0.616E-01
DAV:   6    -0.796680560998E+03   -0.39408E-02   -0.15351E-02 42990   0.377E-01    0.361E-01
DAV:   7    -0.796680361925E+03    0.19907E-03   -0.19327E-03 42660   0.193E-01    0.189E-01
DAV:   8    -0.796680323879E+03    0.38046E-04   -0.57301E-04 42520   0.883E-02    0.728E-02
DAV:   9    -0.796680361262E+03   -0.37384E-04   -0.19575E-04 41690   0.359E-02    0.419E-02
DAV:  10    -0.796680373398E+03   -0.12135E-04   -0.30770E-05 27270   0.206E-02    0.305E-02
DAV:  11    -0.796680383942E+03   -0.10544E-04   -0.10301E-05 18670   0.989E-03    0.252E-02
DAV:  12    -0.796680402793E+03   -0.18852E-04   -0.10211E-05 19140   0.991E-03    0.212E-02
DAV:  13    -0.796680422574E+03   -0.19780E-04   -0.32217E-05 30210   0.133E-02    0.166E-02
DAV:  14    -0.796680434772E+03   -0.12199E-04   -0.22141E-05 23820   0.113E-02    0.132E-02
DAV:  15    -0.796680441884E+03   -0.71114E-05   -0.15342E-05 23440   0.960E-03
   6 F= -.79668044E+03 E0= -.79668044E+03  d E =0.980422E-02  mag=    47.0000
       N       E                     dE             d eps       ncg     rms          rms(c)
DAV:   1    -0.789800112312E+03    0.68803E+01   -0.71894E+02 35080   0.827E+01    0.947E+00
DAV:   2    -0.796375204282E+03   -0.65751E+01   -0.66875E+01 31440   0.152E+01    0.507E+00
DAV:   3    -0.796680278711E+03   -0.30507E+00   -0.12386E+00 38930   0.242E+00    0.270E+00
DAV:   4    -0.796664522120E+03    0.15757E-01   -0.96617E-02 40680   0.698E-01    0.167E+00
DAV:   5    -0.796672652673E+03   -0.81306E-02   -0.33992E-02 42150   0.548E-01    0.532E-01
DAV:   6    -0.796675834667E+03   -0.31820E-02   -0.11857E-02 43000   0.311E-01    0.306E-01
DAV:   7    -0.796675723505E+03    0.11116E-03   -0.13435E-03 42560   0.163E-01    0.169E-01
DAV:   8    -0.796675686706E+03    0.36800E-04   -0.43306E-04 44730   0.809E-02    0.639E-02
DAV:   9    -0.796675710412E+03   -0.23707E-04   -0.15506E-04 42120   0.344E-02    0.355E-02
DAV:  10    -0.796675716602E+03   -0.61893E-05   -0.22360E-05 24220   0.189E-02
   7 F= -.79667572E+03 E0= -.79667572E+03  d E =0.472528E-02  mag=    47.0000
       N       E                     dE             d eps       ncg     rms          rms(c)
DAV:   1    -0.792780457260E+03    0.38953E+01   -0.41127E+02 35120   0.623E+01    0.712E+00
DAV:   2    -0.796455547697E+03   -0.36751E+01   -0.37227E+01 32980   0.117E+01    0.470E+00
DAV:   3    -0.796631133183E+03   -0.17559E+00   -0.85710E-01 37530   0.241E+00    0.226E+00
DAV:   4    -0.796627696045E+03    0.34371E-02   -0.73333E-02 42110   0.923E-01    0.186E+00
DAV:   5    -0.796629574638E+03   -0.18786E-02   -0.43638E-02 42850   0.628E-01    0.573E-01
DAV:   6    -0.796634137012E+03   -0.45624E-02   -0.11346E-02 41050   0.279E-01    0.322E-01
DAV:   7    -0.796634548663E+03   -0.41165E-03   -0.17042E-03 39480   0.120E-01    0.204E-01
DAV:   8    -0.796634994757E+03   -0.44609E-03   -0.49251E-04 41270   0.746E-02    0.154E-01
DAV:   9    -0.796635451984E+03   -0.45723E-03   -0.43983E-04 41220   0.606E-02    0.126E-01
DAV:  10    -0.796635748058E+03   -0.29607E-03   -0.24627E-04 39020   0.386E-02    0.111E-01
DAV:  11    -0.796636171770E+03   -0.42371E-03   -0.24749E-04 42730   0.416E-02    0.970E-02
DAV:  12    -0.796636761411E+03   -0.58964E-03   -0.82916E-04 43550   0.785E-02    0.763E-02
DAV:  13    -0.796637158650E+03   -0.39724E-03   -0.12145E-03 42340   0.856E-02    0.581E-02
DAV:  14    -0.796637397849E+03   -0.23920E-03   -0.51549E-04 40200   0.453E-02    0.456E-02
DAV:  15    -0.796637478533E+03   -0.80684E-04   -0.86137E-05 30000   0.177E-02    0.368E-02
DAV:  16    -0.796637515862E+03   -0.37329E-04   -0.28751E-05 24480   0.112E-02    0.305E-02
DAV:  17    -0.796637557177E+03   -0.41315E-04   -0.61230E-05 33890   0.192E-02    0.228E-02
DAV:  18    -0.796637586294E+03   -0.29117E-04   -0.55192E-05 30390   0.148E-02    0.200E-02
DAV:  19    -0.796637604762E+03   -0.18468E-04   -0.20476E-05 23430   0.939E-03    0.173E-02
DAV:  20    -0.796637621791E+03   -0.17029E-04   -0.22092E-05 28370   0.115E-02    0.144E-02
DAV:  21    -0.796637635480E+03   -0.13689E-04   -0.44239E-05 32510   0.147E-02    0.118E-02
DAV:  22    -0.796637645878E+03   -0.10398E-04   -0.30928E-05 25180   0.106E-02    0.944E-03
DAV:  23    -0.796637651394E+03   -0.55157E-05   -0.92753E-06 20830   0.564E-03
   8 F= -.79663765E+03 E0= -.79663765E+03  d E =0.380652E-01  mag=    47.0000
       N       E                     dE             d eps       ncg     rms          rms(c)
DAV:   1    -0.794804586615E+03    0.18331E+01   -0.18817E+02 34940   0.426E+01    0.489E+00
DAV:   2    -0.796561412352E+03   -0.17568E+01   -0.17905E+01 33340   0.820E+00    0.364E+00
DAV:   3    -0.796640686949E+03   -0.79275E-01   -0.50002E-01 38580   0.198E+00    0.172E+00
DAV:   4    -0.796637726884E+03    0.29601E-02   -0.47680E-02 42310   0.759E-01    0.146E+00
DAV:   5    -0.796636086850E+03    0.16400E-02   -0.30011E-02 40920   0.504E-01    0.466E-01
DAV:   6    -0.796638556941E+03   -0.24701E-02   -0.66777E-03 38220   0.205E-01    0.236E-01
DAV:   7    -0.796638764228E+03   -0.20729E-03   -0.14304E-03 39210   0.913E-02    0.142E-01
DAV:   8    -0.796638917508E+03   -0.15328E-03   -0.22482E-04 40810   0.557E-02    0.102E-01
DAV:   9    -0.796639061674E+03   -0.14417E-03   -0.19109E-04 40780   0.423E-02    0.737E-02
DAV:  10    -0.796639141511E+03   -0.79837E-04   -0.92992E-05 36310   0.267E-02    0.617E-02
DAV:  11    -0.796639231792E+03   -0.90281E-04   -0.58503E-05 33730   0.212E-02    0.541E-02
DAV:  12    -0.796639345343E+03   -0.11355E-03   -0.88853E-05 35800   0.264E-02    0.444E-02
DAV:  13    -0.796639449606E+03   -0.10426E-03   -0.15669E-04 38150   0.343E-02    0.345E-02
DAV:  14    -0.796639513014E+03   -0.63408E-04   -0.15387E-04 36100   0.298E-02    0.283E-02
DAV:  15    -0.796639544369E+03   -0.31355E-04   -0.63747E-05 28100   0.159E-02    0.197E-02
DAV:  16    -0.796639557839E+03   -0.13470E-04   -0.16167E-05 20100   0.807E-03    0.159E-02
DAV:  17    -0.796639567993E+03   -0.10154E-04   -0.96388E-06 20550   0.814E-03    0.129E-02
DAV:  18    -0.796639575733E+03   -0.77397E-05   -0.16043E-05 23360   0.891E-03
   9 F= -.79663958E+03 E0= -.79663958E+03  d E =-.192434E-02  mag=    47.0000
       N       E                     dE             d eps       ncg     rms          rms(c)
DAV:   1    -0.795090830906E+03    0.15487E+01   -0.81865E+01 34470   0.314E+01    0.453E+00
DAV:   2    -0.796485539109E+03   -0.13947E+01   -0.14586E+01 33540   0.649E+00    0.286E+00
DAV:   3    -0.796557362353E+03   -0.71823E-01   -0.46524E-01 38980   0.156E+00    0.159E+00
DAV:   4    -0.796552181260E+03    0.51811E-02   -0.44560E-02 44220   0.594E-01    0.112E+00
DAV:   5    -0.796551170120E+03    0.10111E-02   -0.26541E-02 39960   0.460E-01    0.452E-01
DAV:   6    -0.796552106903E+03   -0.93678E-03   -0.53468E-03 40290   0.257E-01    0.268E-01
DAV:   7    -0.796552511370E+03   -0.40447E-03   -0.19767E-03 40250   0.115E-01    0.169E-01
DAV:   8    -0.796552796787E+03   -0.28542E-03   -0.37591E-04 40980   0.602E-02    0.124E-01
DAV:   9    -0.796553074515E+03   -0.27773E-03   -0.24682E-04 40670   0.411E-02    0.928E-02
DAV:  10    -0.796553247464E+03   -0.17295E-03   -0.14239E-04 36140   0.308E-02    0.803E-02
DAV:  11    -0.796553430380E+03   -0.18292E-03   -0.12562E-04 37480   0.314E-02    0.688E-02
DAV:  12    -0.796553629644E+03   -0.19926E-03   -0.20819E-04 39630   0.397E-02    0.531E-02
DAV:  13    -0.796553780360E+03   -0.15072E-03   -0.31268E-04 41330   0.459E-02    0.432E-02
DAV:  14    -0.796553858247E+03   -0.77887E-04   -0.19844E-04 37280   0.292E-02    0.298E-02
DAV:  15    -0.796553890662E+03   -0.32415E-04   -0.50023E-05 24710   0.131E-02    0.238E-02
DAV:  16    -0.796553905314E+03   -0.14652E-04   -0.11490E-05 19400   0.752E-03    0.198E-02
DAV:  17    -0.796553922033E+03   -0.16718E-04   -0.16511E-05 21200   0.129E-02    0.159E-02
DAV:  18    -0.796553933627E+03   -0.11594E-04   -0.34134E-05 25750   0.979E-03    0.134E-02
DAV:  19    -0.796553941970E+03   -0.83433E-05   -0.92746E-06 19300   0.749E-03
  10 F= -.79655394E+03 E0= -.79655394E+03  d E =0.856338E-01  mag=    47.0000
       N       E                     dE             d eps       ncg     rms          rms(c)
DAV:   1    -0.792846085410E+03    0.37078E+01   -0.21470E+02 34350   0.502E+01    0.716E+00
DAV:   2    -0.796313760724E+03   -0.34677E+01   -0.36059E+01 34160   0.111E+01    0.665E+00
DAV:   3    -0.796428409638E+03   -0.11465E+00   -0.15735E+00 41640   0.343E+00    0.304E+00
DAV:   4    -0.796413159685E+03    0.15250E-01   -0.14077E-01 42370   0.118E+00    0.238E+00
DAV:   5    -0.796405552636E+03    0.76070E-02   -0.94717E-02 37970   0.703E-01    0.109E+00
DAV:   6    -0.796410464361E+03   -0.49117E-02   -0.19946E-02 40670   0.415E-01    0.514E-01
DAV:   7    -0.796411385472E+03   -0.92111E-03   -0.63923E-03 39460   0.210E-01    0.350E-01
DAV:   8    -0.796412500293E+03   -0.11148E-02   -0.13242E-03 38970   0.127E-01    0.246E-01
DAV:   9    -0.796413590717E+03   -0.10904E-02   -0.10159E-03 40200   0.946E-02    0.168E-01
DAV:  10    -0.796414189915E+03   -0.59920E-03   -0.61212E-04 37200   0.570E-02    0.144E-01
DAV:  11    -0.796414675093E+03   -0.48518E-03   -0.28392E-04 41330   0.461E-02    0.123E-01
DAV:  12    -0.796415250549E+03   -0.57546E-03   -0.44603E-04 43420   0.635E-02    0.952E-02
DAV:  13    -0.796415697491E+03   -0.44694E-03   -0.65770E-04 41170   0.703E-02    0.816E-02
DAV:  14    -0.796415955418E+03   -0.25793E-03   -0.44969E-04 38940   0.472E-02    0.679E-02
DAV:  15    -0.796416093262E+03   -0.13784E-03   -0.16868E-04 34800   0.286E-02    0.524E-02
DAV:  16    -0.796416195830E+03   -0.10257E-03   -0.97760E-05 34740   0.259E-02    0.422E-02
DAV:  17    -0.796416288497E+03   -0.92667E-04   -0.17367E-04 39520   0.355E-02    0.320E-02
DAV:  18    -0.796416345391E+03   -0.56894E-04   -0.13690E-04 35010   0.231E-02    0.272E-02
DAV:  19    -0.796416369622E+03   -0.24232E-04   -0.32029E-05 22630   0.104E-02    0.212E-02
DAV:  20    -0.796416388691E+03   -0.19069E-04   -0.13383E-05 20940   0.102E-02    0.186E-02
DAV:  21    -0.796416406322E+03   -0.17631E-04   -0.37509E-05 31280   0.146E-02    0.158E-02
DAV:  22    -0.796416418085E+03   -0.11762E-04   -0.27425E-05 24780   0.101E-02    0.138E-02
DAV:  23    -0.796416424718E+03   -0.66335E-05   -0.72193E-06 19750   0.631E-03
  11 F= -.79641642E+03 E0= -.79641642E+03  d E =0.137517E+00  mag=    47.0000
       N       E                     dE             d eps       ncg     rms          rms(c)
DAV:   1    -0.796426765700E+03   -0.10348E-01   -0.71213E+00 35230   0.978E+00    0.125E+00
DAV:   2    -0.796537123179E+03   -0.11036E+00   -0.11654E+00 33520   0.192E+00    0.797E-01
DAV:   3    -0.796543534258E+03   -0.64111E-02   -0.35190E-02 38530   0.431E-01    0.462E-01
DAV:   4    -0.796543119923E+03    0.41434E-03   -0.33566E-03 44190   0.147E-01    0.316E-01
DAV:   5    -0.796543164145E+03   -0.44222E-04   -0.20478E-03 38990   0.124E-01    0.128E-01
DAV:   6    -0.796543243635E+03   -0.79490E-04   -0.45544E-04 41980   0.777E-02    0.798E-02
DAV:   7    -0.796543265409E+03   -0.21774E-04   -0.17429E-04 41420   0.372E-02    0.471E-02
DAV:   8    -0.796543283031E+03   -0.17623E-04   -0.25748E-05 27820   0.200E-02    0.342E-02
DAV:   9    -0.796543302844E+03   -0.19813E-04   -0.26198E-05 26610   0.122E-02    0.247E-02
DAV:  10    -0.796543312385E+03   -0.95410E-05   -0.97844E-06 19070   0.903E-03
  12 F= -.79654331E+03 E0= -.79654331E+03  d E =-.126888E+00  mag=    47.0000
       N       E                     dE             d eps       ncg     rms          rms(c)
DAV:   1    -0.788902223476E+03    0.76411E+01   -0.40645E+02 34520   0.688E+01    0.112E+01
DAV:   2    -0.795672010087E+03   -0.67698E+01   -0.70605E+01 33500   0.147E+01    0.628E+00
DAV:   3    -0.795994103125E+03   -0.32209E+00   -0.21886E+00 39030   0.343E+00    0.356E+00
DAV:   4    -0.795967274594E+03    0.26829E-01   -0.23220E-01 41680   0.136E+00    0.236E+00
DAV:   5    -0.795957631604E+03    0.96430E-02   -0.10119E-01 38990   0.844E-01    0.103E+00
DAV:   6    -0.795964428634E+03   -0.67970E-02   -0.26933E-02 37240   0.530E-01    0.636E-01
DAV:   7    -0.795965777892E+03   -0.13493E-02   -0.87977E-03 39320   0.258E-01    0.365E-01
DAV:   8    -0.795967072077E+03   -0.12942E-02   -0.16321E-03 41380   0.119E-01    0.261E-01
DAV:   9    -0.795968278929E+03   -0.12069E-02   -0.10589E-03 40240   0.897E-02    0.192E-01
DAV:  10    -0.795968992887E+03   -0.71396E-03   -0.64787E-04 39170   0.634E-02    0.165E-01
DAV:  11    -0.795969592813E+03   -0.59993E-03   -0.37010E-04 41110   0.528E-02    0.143E-01
DAV:  12    -0.795970538380E+03   -0.94557E-03   -0.82845E-04 43490   0.852E-02    0.111E-01
DAV:  13    -0.795971257238E+03   -0.71886E-03   -0.14017E-03 42170   0.980E-02    0.896E-02
DAV:  14    -0.795971620700E+03   -0.36346E-03   -0.68166E-04 41460   0.596E-02    0.654E-02
DAV:  15    -0.795971795456E+03   -0.17476E-03   -0.25706E-04 35760   0.348E-02    0.536E-02
DAV:  16    -0.795971887426E+03   -0.91970E-04   -0.11736E-04 32210   0.214E-02    0.407E-02
DAV:  17    -0.795971959660E+03   -0.72235E-04   -0.72177E-05 32120   0.218E-02    0.342E-02
DAV:  18    -0.795972010094E+03   -0.50434E-04   -0.76444E-05 32400   0.188E-02    0.280E-02
DAV:  19    -0.795972050003E+03   -0.39909E-04   -0.53491E-05 29530   0.171E-02    0.243E-02
DAV:  20    -0.795972084073E+03   -0.34070E-04   -0.59773E-05 31730   0.182E-02    0.198E-02
DAV:  21    -0.795972107822E+03   -0.23749E-04   -0.82627E-05 34520   0.226E-02    0.152E-02
DAV:  22    -0.795972128561E+03   -0.20739E-04   -0.58444E-05 25120   0.135E-02    0.123E-02
DAV:  23    -0.795972134270E+03   -0.57091E-05   -0.64256E-06 18130   0.555E-03
  13 F= -.79597213E+03 E0= -.79597213E+03  d E =0.571178E+00  mag=    47.0000
       N       E                     dE             d eps       ncg     rms          rms(c)
DAV:   1    -0.793180609456E+03    0.27915E+01   -0.22178E+02 34420   0.528E+01    0.702E+00
DAV:   2    -0.796561827001E+03   -0.33812E+01   -0.35639E+01 33900   0.113E+01    0.624E+00
DAV:   3    -0.796701730297E+03   -0.13990E+00   -0.12864E+00 41200   0.305E+00    0.304E+00
DAV:   4    -0.796690046261E+03    0.11684E-01   -0.13057E-01 43050   0.114E+00    0.263E+00
DAV:   5    -0.796679683297E+03    0.10363E-01   -0.10471E-01 37600   0.814E-01    0.918E-01
DAV:   6    -0.796683790785E+03   -0.41075E-02   -0.19904E-02 38420   0.397E-01    0.510E-01
DAV:   7    -0.796684448342E+03   -0.65756E-03   -0.80335E-03 38660   0.200E-01    0.323E-01
DAV:   8    -0.796685061068E+03   -0.61273E-03   -0.94737E-04 40360   0.110E-01    0.224E-01
DAV:   9    -0.796685818637E+03   -0.75757E-03   -0.86466E-04 41240   0.888E-02    0.163E-01
DAV:  10    -0.796686282023E+03   -0.46339E-03   -0.46003E-04 38360   0.572E-02    0.136E-01
DAV:  11    -0.796686736100E+03   -0.45408E-03   -0.31602E-04 41630   0.461E-02    0.118E-01
DAV:  12    -0.796687276335E+03   -0.54024E-03   -0.42508E-04 42470   0.569E-02    0.973E-02
DAV:  13    -0.796687754951E+03   -0.47862E-03   -0.72279E-04 41870   0.726E-02    0.763E-02
DAV:  14    -0.796688050216E+03   -0.29526E-03   -0.71308E-04 40430   0.624E-02    0.608E-02
DAV:  15    -0.796688197136E+03   -0.14692E-03   -0.29696E-04 36820   0.323E-02    0.440E-02
DAV:  16    -0.796688257832E+03   -0.60696E-04   -0.57162E-05 26080   0.148E-02    0.357E-02
DAV:  17    -0.796688310641E+03   -0.52809E-04   -0.45771E-05 32020   0.182E-02    0.297E-02
DAV:  18    -0.796688356898E+03   -0.46257E-04   -0.89130E-05 35560   0.223E-02    0.256E-02
DAV:  19    -0.796688385266E+03   -0.28368E-04   -0.50945E-05 25760   0.135E-02    0.215E-02
DAV:  20    -0.796688410428E+03   -0.25162E-04   -0.31168E-05 28810   0.176E-02    0.181E-02
DAV:  21    -0.796688429957E+03   -0.19529E-04   -0.84676E-05 31440   0.174E-02    0.136E-02
DAV:  22    -0.796688442819E+03   -0.12862E-04   -0.32931E-05 24280   0.103E-02    0.101E-02
DAV:  23    -0.796688447478E+03   -0.46593E-05   -0.65174E-06 18880   0.522E-03
  14 F= -.79668845E+03 E0= -.79668845E+03  d E =-.716313E+00  mag=    47.0000
       N       E                     dE             d eps       ncg     rms          rms(c)
DAV:   1    -0.796656937028E+03    0.31506E-01   -0.29535E+00 35050   0.558E+00    0.637E-01
DAV:   2    -0.796687790749E+03   -0.30854E-01   -0.31590E-01 33310   0.104E+00    0.360E-01
DAV:   3    -0.796689458866E+03   -0.16681E-02   -0.76462E-03 39600   0.208E-01    0.203E-01
DAV:   4    -0.796689406035E+03    0.52830E-04   -0.61456E-04 44190   0.728E-02    0.138E-01
DAV:   5    -0.796689420545E+03   -0.14509E-04   -0.37425E-04 43140   0.609E-02    0.576E-02
DAV:   6    -0.796689448757E+03   -0.28213E-04   -0.96332E-05 39980   0.322E-02    0.301E-02
DAV:   7    -0.796689453059E+03   -0.43020E-05   -0.22985E-05 22780   0.144E-02
  15 F= -.79668945E+03 E0= -.79668945E+03  d E =-.100558E-02  mag=    47.0000
       N       E                     dE             d eps       ncg     rms          rms(c)
DAV:   1    -0.794786365729E+03    0.19031E+01   -0.15136E+02 34710   0.392E+01    0.498E+00
DAV:   2    -0.796460607783E+03   -0.16742E+01   -0.17373E+01 33460   0.764E+00    0.309E+00
DAV:   3    -0.796544964002E+03   -0.84356E-01   -0.50625E-01 38330   0.168E+00    0.166E+00
DAV:   4    -0.796538697371E+03    0.62666E-02   -0.50417E-02 44290   0.638E-01    0.121E+00
DAV:   5    -0.796538178314E+03    0.51906E-03   -0.27864E-02 38850   0.463E-01    0.438E-01
DAV:   6    -0.796539267802E+03   -0.10895E-02   -0.69633E-03 40830   0.268E-01    0.297E-01
DAV:   7    -0.796539558035E+03   -0.29023E-03   -0.19309E-03 40240   0.115E-01    0.174E-01
DAV:   8    -0.796539840197E+03   -0.28216E-03   -0.33016E-04 40160   0.572E-02    0.131E-01
DAV:   9    -0.796540152753E+03   -0.31256E-03   -0.27500E-04 40220   0.445E-02    0.960E-02
DAV:  10    -0.796540339065E+03   -0.18631E-03   -0.17676E-04 37170   0.317E-02    0.829E-02
DAV:  11    -0.796540515278E+03   -0.17621E-03   -0.10203E-04 37070   0.279E-02    0.734E-02
DAV:  12    -0.796540775370E+03   -0.26009E-03   -0.23461E-04 42210   0.443E-02    0.579E-02
DAV:  13    -0.796540975663E+03   -0.20029E-03   -0.40537E-04 41750   0.510E-02    0.466E-02
DAV:  14    -0.796541085337E+03   -0.10967E-03   -0.22567E-04 38320   0.340E-02    0.346E-02
DAV:  15    -0.796541136521E+03   -0.51184E-04   -0.80071E-05 31370   0.182E-02    0.254E-02
DAV:  16    -0.796541159160E+03   -0.22640E-04   -0.26994E-05 23370   0.107E-02    0.194E-02
DAV:  17    -0.796541174732E+03   -0.15572E-04   -0.18905E-05 27730   0.102E-02    0.151E-02
DAV:  18    -0.796541183710E+03   -0.89773E-05   -0.13306E-05 20390   0.742E-03
  16 F= -.79654118E+03 E0= -.79654118E+03  d E =0.148269E+00  mag=    47.0000
       N       E                     dE             d eps       ncg     rms          rms(c)
DAV:   1    -0.793609896905E+03    0.29313E+01   -0.18177E+02 34600   0.478E+01    0.648E+00
DAV:   2    -0.796391711881E+03   -0.27818E+01   -0.29445E+01 33810   0.102E+01    0.562E+00
DAV:   3    -0.796504975094E+03   -0.11326E+00   -0.11286E+00 41580   0.283E+00    0.275E+00
DAV:   4    -0.796491012883E+03    0.13962E-01   -0.11641E-01 43290   0.105E+00    0.233E+00
DAV:   5    -0.796480566062E+03    0.10447E-01   -0.93873E-02 38260   0.734E-01    0.865E-01
DAV:   6    -0.796483794252E+03   -0.32282E-02   -0.16904E-02 38190   0.377E-01    0.481E-01
DAV:   7    -0.796484292089E+03   -0.49784E-03   -0.75469E-03 40430   0.210E-01    0.306E-01
DAV:   8    -0.796484802632E+03   -0.51054E-03   -0.80441E-04 39840   0.101E-01    0.211E-01
DAV:   9    -0.796485472535E+03   -0.66990E-03   -0.77817E-04 41190   0.816E-02    0.147E-01
DAV:  10    -0.796485854542E+03   -0.38201E-03   -0.38984E-04 37560   0.489E-02    0.120E-01
DAV:  11    -0.796486155714E+03   -0.30117E-03   -0.18770E-04 40390   0.355E-02    0.106E-01
DAV:  12    -0.796486609058E+03   -0.45334E-03   -0.31693E-04 43370   0.503E-02    0.878E-02
DAV:  13    -0.796487010619E+03   -0.40156E-03   -0.56452E-04 42360   0.648E-02    0.692E-02
DAV:  14    -0.796487266727E+03   -0.25611E-03   -0.54677E-04 41210   0.561E-02    0.570E-02
DAV:  15    -0.796487401127E+03   -0.13440E-03   -0.24486E-04 36520   0.328E-02    0.404E-02
DAV:  16    -0.796487466285E+03   -0.65158E-04   -0.86714E-05 32050   0.191E-02    0.303E-02
DAV:  17    -0.796487505102E+03   -0.38818E-04   -0.45863E-05 29470   0.149E-02    0.248E-02
DAV:  18    -0.796487529459E+03   -0.24357E-04   -0.31641E-05 29390   0.133E-02    0.204E-02
DAV:  19    -0.796487544277E+03   -0.14818E-04   -0.22371E-05 23030   0.929E-03    0.163E-02
DAV:  20    -0.796487558136E+03   -0.13859E-04   -0.15003E-05 24160   0.107E-02    0.135E-02
DAV:  21    -0.796487568943E+03   -0.10806E-04   -0.28970E-05 28040   0.109E-02    0.109E-02
DAV:  22    -0.796487575791E+03   -0.68482E-05   -0.13916E-05 21670   0.788E-03
  17 F= -.79648758E+03 E0= -.79648758E+03  d E =0.536079E-01  mag=    47.0000
       N       E                     dE             d eps       ncg     rms          rms(c)
DAV:   1    -0.796239910098E+03    0.24766E+00   -0.27641E+01 35160   0.190E+01    0.252E+00
DAV:   2    -0.796666138620E+03   -0.42623E+00   -0.45402E+00 33580   0.377E+00    0.161E+00
DAV:   3    -0.796689763751E+03   -0.23625E-01   -0.15222E-01 39120   0.914E-01    0.912E-01
DAV:   4    -0.796687698470E+03    0.20653E-02   -0.15569E-02 44350   0.325E-01    0.612E-01
DAV:   5    -0.796687197494E+03    0.50098E-03   -0.94586E-03 38040   0.269E-01    0.260E-01
DAV:   6    -0.796687404856E+03   -0.20736E-03   -0.19315E-03 39160   0.151E-01    0.151E-01
DAV:   7    -0.796687478213E+03   -0.73357E-04   -0.71225E-04 40450   0.709E-02    0.937E-02
DAV:   8    -0.796687544026E+03   -0.65813E-04   -0.10790E-04 37810   0.330E-02    0.658E-02
DAV:   9    -0.796687611343E+03   -0.67317E-04   -0.73238E-05 37320   0.225E-02    0.452E-02
DAV:  10    -0.796687648179E+03   -0.36836E-04   -0.34650E-05 27600   0.155E-02    0.389E-02
DAV:  11    -0.796687683630E+03   -0.35451E-04   -0.22072E-05 25450   0.136E-02    0.339E-02
DAV:  12    -0.796687724226E+03   -0.40596E-04   -0.30726E-05 30500   0.148E-02    0.279E-02
DAV:  13    -0.796687770017E+03   -0.45792E-04   -0.77983E-05 36340   0.235E-02    0.213E-02
DAV:  14    -0.796687794847E+03   -0.24830E-04   -0.56013E-05 28820   0.153E-02    0.177E-02
DAV:  15    -0.796687806977E+03   -0.12129E-04   -0.15777E-05 21580   0.946E-03    0.126E-02
DAV:  16    -0.796687814158E+03   -0.71817E-05   -0.14294E-05 22450   0.759E-03
  18 F= -.79668781E+03 E0= -.79668781E+03  d E =-.200238E+00  mag=    47.0000
       N       E                     dE             d eps       ncg     rms          rms(c)
DAV:   1    -0.796612032939E+03    0.75774E-01   -0.56603E+00 34930   0.855E+00    0.114E+00
DAV:   2    -0.796700740320E+03   -0.88707E-01   -0.94498E-01 33640   0.172E+00    0.759E-01
DAV:   3    -0.796705564045E+03   -0.48237E-02   -0.32730E-02 39630   0.426E-01    0.422E-01
DAV:   4    -0.796705073269E+03    0.49078E-03   -0.34288E-03 43970   0.164E-01    0.298E-01
DAV:   5    -0.796704919096E+03    0.15417E-03   -0.22280E-03 38980   0.127E-01    0.118E-01
DAV:   6    -0.796704961688E+03   -0.42592E-04   -0.43682E-04 38550   0.718E-02    0.739E-02
DAV:   7    -0.796704979430E+03   -0.17742E-04   -0.17003E-04 39330   0.322E-02    0.446E-02
DAV:   8    -0.796704995439E+03   -0.16009E-04   -0.20701E-05 25160   0.153E-02    0.341E-02
DAV:   9    -0.796705013421E+03   -0.17981E-04   -0.19472E-05 22960   0.122E-02    0.250E-02
DAV:  10    -0.796705023668E+03   -0.10248E-04   -0.11862E-05 19980   0.874E-03    0.206E-02
DAV:  11    -0.796705033874E+03   -0.10206E-04   -0.58938E-06 17420   0.703E-03    0.184E-02
DAV:  12    -0.796705046188E+03   -0.12314E-04   -0.12061E-05 20910   0.793E-03    0.156E-02
DAV:  13    -0.796705060241E+03   -0.14053E-04   -0.17417E-05 26600   0.126E-02    0.128E-02
DAV:  14    -0.796705070193E+03   -0.99519E-05   -0.37961E-05 26970   0.110E-02
  19 F= -.79670507E+03 E0= -.79670507E+03  d E =-.172560E-01  mag=    47.0000
       N       E                     dE             d eps       ncg     rms          rms(c)
DAV:   1    -0.796613322962E+03    0.91737E-01   -0.51413E+00 35310   0.782E+00    0.101E+00
DAV:   2    -0.796684493787E+03   -0.71171E-01   -0.74966E-01 33500   0.154E+00    0.635E-01
DAV:   3    -0.796688400813E+03   -0.39070E-02   -0.23697E-02 38390   0.352E-01    0.356E-01
DAV:   4    -0.796688071665E+03    0.32915E-03   -0.22703E-03 44820   0.128E-01    0.247E-01
DAV:   5    -0.796687994697E+03    0.76968E-04   -0.13482E-03 38720   0.985E-02    0.961E-02
DAV:   6    -0.796688036923E+03   -0.42225E-04   -0.30225E-04 39700   0.582E-02    0.622E-02
DAV:   7    -0.796688048268E+03   -0.11346E-04   -0.10646E-04 39050   0.265E-02    0.377E-02
DAV:   8    -0.796688059524E+03   -0.11256E-04   -0.13617E-05 21860   0.127E-02    0.276E-02
DAV:   9    -0.796688072196E+03   -0.12672E-04   -0.14064E-05 20530   0.101E-02    0.213E-02
DAV:  10    -0.796688080207E+03   -0.80106E-05   -0.90099E-06 19070   0.751E-03
  20 F= -.79668808E+03 E0= -.79668808E+03  d E =0.169900E-01  mag=    47.0000
       N       E                     dE             d eps       ncg     rms          rms(c)
DAV:   1    -0.792763197160E+03    0.39249E+01   -0.20811E+02 34950   0.524E+01    0.717E+00
DAV:   2    -0.795993562898E+03   -0.32304E+01   -0.34238E+01 33670   0.109E+01    0.500E+00
DAV:   3    -0.796156637247E+03   -0.16307E+00   -0.12084E+00 41460   0.285E+00    0.265E+00
DAV:   4    -0.796139689559E+03    0.16948E-01   -0.12830E-01 42140   0.106E+00    0.193E+00
DAV:   5    -0.796130352034E+03    0.93375E-02   -0.79659E-02 38490   0.706E-01    0.794E-01
DAV:   6    -0.796133954690E+03   -0.36027E-02   -0.16037E-02 35440   0.381E-01    0.464E-01
DAV:   7    -0.796134400894E+03   -0.44620E-03   -0.64632E-03 40890   0.211E-01    0.279E-01
DAV:   8    -0.796134813059E+03   -0.41217E-03   -0.76281E-04 40740   0.938E-02    0.190E-01
DAV:   9    -0.796135281762E+03   -0.46870E-03   -0.63559E-04 41040   0.755E-02    0.126E-01
DAV:  10    -0.796135529547E+03   -0.24779E-03   -0.29481E-04 37060   0.432E-02    0.978E-02
DAV:  11    -0.796135704939E+03   -0.17539E-03   -0.11064E-04 36740   0.290E-02    0.868E-02
DAV:  12    -0.796135975070E+03   -0.27013E-03   -0.16320E-04 38970   0.363E-02    0.725E-02
DAV:  13    -0.796136244886E+03   -0.26982E-03   -0.32147E-04 42580   0.501E-02    0.581E-02
DAV:  14    -0.796136413020E+03   -0.16813E-03   -0.29400E-04 39230   0.403E-02    0.486E-02
DAV:  15    -0.796136507572E+03   -0.94552E-04   -0.13281E-04 34730   0.272E-02    0.358E-02
DAV:  16    -0.796136566318E+03   -0.58746E-04   -0.90626E-05 33840   0.214E-02    0.266E-02
DAV:  17    -0.796136603787E+03   -0.37469E-04   -0.63979E-05 32880   0.176E-02    0.205E-02
DAV:  18    -0.796136624017E+03   -0.20230E-04   -0.30914E-05 25030   0.112E-02    0.178E-02
DAV:  19    -0.796136633023E+03   -0.90054E-05   -0.86774E-06 19010   0.652E-03
  21 F= -.79613663E+03 E0= -.79613663E+03  d E =0.551447E+00  mag=    47.0000
       N       E                     dE             d eps       ncg     rms          rms(c)
DAV:   1    -0.794174965191E+03    0.19617E+01   -0.15779E+02 35650   0.458E+01    0.620E+00
DAV:   2    -0.796588715876E+03   -0.24138E+01   -0.25810E+01 33720   0.911E+00    0.392E+00
DAV:   3    -0.796724331033E+03   -0.13562E+00   -0.82236E-01 38940   0.210E+00    0.218E+00
DAV:   4    -0.796711456311E+03    0.12875E-01   -0.84613E-02 42790   0.802E-01    0.157E+00
DAV:   5    -0.796706913956E+03    0.45424E-02   -0.50854E-02 38610   0.587E-01    0.612E-01
DAV:   6    -0.796708823860E+03   -0.19099E-02   -0.11494E-02 39310   0.378E-01    0.402E-01
DAV:   7    -0.796709107392E+03   -0.28353E-03   -0.47972E-03 41190   0.177E-01    0.215E-01
DAV:   8    -0.796709328656E+03   -0.22126E-03   -0.54205E-04 39080   0.762E-02    0.141E-01
DAV:   9    -0.796709576952E+03   -0.24830E-03   -0.39491E-04 39360   0.544E-02    0.948E-02
DAV:  10    -0.796709714117E+03   -0.13716E-03   -0.14719E-04 36930   0.346E-02    0.747E-02
DAV:  11    -0.796709818994E+03   -0.10488E-03   -0.73928E-05 33690   0.246E-02    0.659E-02
DAV:  12    -0.796709963434E+03   -0.14444E-03   -0.94710E-05 35880   0.268E-02    0.553E-02
DAV:  13    -0.796710117765E+03   -0.15433E-03   -0.17131E-04 37550   0.362E-02    0.456E-02
DAV:  14    -0.796710221871E+03   -0.10411E-03   -0.18368E-04 36740   0.332E-02    0.360E-02
DAV:  15    -0.796710280169E+03   -0.58299E-04   -0.98055E-05 32900   0.228E-02    0.269E-02
DAV:  16    -0.796710312778E+03   -0.32608E-04   -0.53993E-05 28540   0.156E-02    0.200E-02
DAV:  17    -0.796710331591E+03   -0.18814E-04   -0.26612E-05 25980   0.114E-02    0.157E-02
DAV:  18    -0.796710342731E+03   -0.11139E-04   -0.16411E-05 22260   0.917E-03    0.129E-02
DAV:  19    -0.796710350033E+03   -0.73020E-05   -0.10242E-05 19730   0.747E-03
  22 F= -.79671035E+03 E0= -.79671035E+03  d E =-.573717E+00  mag=    47.0000
       N       E                     dE             d eps       ncg     rms          rms(c)
DAV:   1    -0.796700439210E+03    0.99035E-02   -0.92947E-01 35160   0.356E+00    0.448E-01
DAV:   2    -0.796714563484E+03   -0.14124E-01   -0.15067E-01 33590   0.709E-01    0.283E-01
DAV:   3    -0.796715389780E+03   -0.82630E-03   -0.50033E-03 38360   0.161E-01    0.160E-01
DAV:   4    -0.796715310410E+03    0.79370E-04   -0.45950E-04 44890   0.588E-02    0.110E-01
DAV:   5    -0.796715283020E+03    0.27389E-04   -0.28076E-04 38440   0.463E-02    0.422E-02
DAV:   6    -0.796715290747E+03   -0.77262E-05   -0.60673E-05 36250   0.277E-02
  23 F= -.79671529E+03 E0= -.79671529E+03  d E =-.494071E-02  mag=    47.0000
       N       E                     dE             d eps       ncg     rms          rms(c)
DAV:   1    -0.796677762932E+03    0.37520E-01   -0.31357E+00 34890   0.594E+00    0.702E-01
DAV:   2    -0.796713054723E+03   -0.35292E-01   -0.36630E-01 33530   0.114E+00    0.503E-01
DAV:   3    -0.796714990404E+03   -0.19357E-02   -0.10722E-02 39680   0.275E-01    0.255E-01
DAV:   4    -0.796714903985E+03    0.86419E-04   -0.10520E-03 43170   0.113E-01    0.211E-01
DAV:   5    -0.796714857538E+03    0.46447E-04   -0.73921E-04 40800   0.794E-02    0.699E-02
DAV:   6    -0.796714899214E+03   -0.41677E-04   -0.17813E-04 38740   0.401E-02    0.400E-02
DAV:   7    -0.796714904286E+03   -0.50718E-05   -0.50991E-05 31820   0.163E-02
  24 F= -.79671490E+03 E0= -.79671490E+03  d E =0.386460E-03  mag=    47.0000
       N       E                     dE             d eps       ncg     rms          rms(c)
DAV:   1    -0.796493878849E+03    0.22102E+00   -0.19498E+01 35450   0.139E+01    0.160E+00
DAV:   2    -0.796687224655E+03   -0.19335E+00   -0.19812E+00 33270   0.263E+00    0.917E-01
DAV:   3    -0.796697409894E+03   -0.10185E-01   -0.46446E-02 38100   0.503E-01    0.506E-01
DAV:   4    -0.796696968867E+03    0.44103E-03   -0.39109E-03 44150   0.180E-01    0.356E-01
DAV:   5    -0.796697109414E+03   -0.14055E-03   -0.22660E-03 40260   0.140E-01    0.138E-01
DAV:   6    -0.796697319472E+03   -0.21006E-03   -0.72796E-04 41480   0.830E-02    0.922E-02
DAV:   7    -0.796697365440E+03   -0.45968E-04   -0.16710E-04 39220   0.374E-02    0.644E-02
DAV:   8    -0.796697427163E+03   -0.61723E-04   -0.43955E-05 31470   0.221E-02    0.528E-02
DAV:   9    -0.796697494822E+03   -0.67659E-04   -0.56640E-05 34040   0.198E-02    0.440E-02
DAV:  10    -0.796697540415E+03   -0.45593E-04   -0.36484E-05 26770   0.150E-02    0.393E-02
DAV:  11    -0.796697592054E+03   -0.51639E-04   -0.33392E-05 29550   0.172E-02    0.339E-02
DAV:  12    -0.796697657085E+03   -0.65031E-04   -0.10877E-04 37380   0.291E-02    0.246E-02
DAV:  13    -0.796697700055E+03   -0.42970E-04   -0.14409E-04 36210   0.278E-02    0.203E-02
DAV:  14    -0.796697724000E+03   -0.23945E-04   -0.49372E-05 27770   0.138E-02    0.145E-02
DAV:  15    -0.796697731945E+03   -0.79450E-05   -0.98790E-06 19390   0.646E-03
  25 F= -.79669773E+03 E0= -.79669773E+03  d E =0.171723E-01  mag=    47.0000
       N       E                     dE             d eps       ncg     rms          rms(c)
DAV:   1    -0.792329767380E+03    0.43680E+01   -0.22547E+02 35040   0.561E+01    0.768E+00
DAV:   2    -0.795899931274E+03   -0.35702E+01   -0.38182E+01 33590   0.115E+01    0.469E+00
DAV:   3    -0.796101696297E+03   -0.20177E+00   -0.13137E+00 39520   0.266E+00    0.261E+00
DAV:   4    -0.796081972664E+03    0.19724E-01   -0.12766E-01 42800   0.101E+00    0.183E+00
DAV:   5    -0.796072306471E+03    0.96662E-02   -0.71135E-02 38130   0.702E-01    0.759E-01
DAV:   6    -0.796075231072E+03   -0.29246E-02   -0.17309E-02 37720   0.423E-01    0.445E-01
DAV:   7    -0.796075618724E+03   -0.38765E-03   -0.59893E-03 40120   0.196E-01    0.258E-01
DAV:   8    -0.796075946308E+03   -0.32758E-03   -0.74946E-04 38980   0.816E-02    0.167E-01
DAV:   9    -0.796076311542E+03   -0.36523E-03   -0.50140E-04 38220   0.596E-02    0.113E-01
DAV:  10    -0.796076511587E+03   -0.20005E-03   -0.21010E-04 37810   0.378E-02    0.904E-02
DAV:  11    -0.796076656742E+03   -0.14516E-03   -0.94561E-05 34560   0.274E-02    0.820E-02
DAV:  12    -0.796076878801E+03   -0.22206E-03   -0.13227E-04 37950   0.328E-02    0.695E-02
DAV:  13    -0.796077129975E+03   -0.25117E-03   -0.27577E-04 42180   0.467E-02    0.584E-02
DAV:  14    -0.796077301999E+03   -0.17202E-03   -0.29498E-04 40190   0.416E-02    0.468E-02
DAV:  15    -0.796077405693E+03   -0.10369E-03   -0.16263E-04 35640   0.324E-02    0.348E-02
DAV:  16    -0.796077466908E+03   -0.61216E-04   -0.12078E-04 33190   0.227E-02    0.261E-02
DAV:  17    -0.796077500588E+03   -0.33680E-04   -0.49312E-05 26830   0.138E-02    0.198E-02
DAV:  18    -0.796077516832E+03   -0.16244E-04   -0.18165E-05 22790   0.888E-03    0.168E-02
DAV:  19    -0.796077528368E+03   -0.11535E-04   -0.93053E-06 20540   0.887E-03    0.140E-02
DAV:  20    -0.796077539034E+03   -0.10666E-04   -0.25409E-05 27320   0.119E-02    0.121E-02
DAV:  21    -0.796077546678E+03   -0.76436E-05   -0.16646E-05 22480   0.767E-03
  26 F= -.79607755E+03 E0= -.79607755E+03  d E =0.620185E+00  mag=    47.0000
       N       E                     dE             d eps       ncg     rms          rms(c)
DAV:   1    -0.795658584904E+03    0.41895E+00   -0.60167E+01 35340   0.286E+01    0.371E+00
DAV:   2    -0.796587163975E+03   -0.92858E+00   -0.99907E+00 33670   0.574E+00    0.274E+00
DAV:   3    -0.796639201675E+03   -0.52038E-01   -0.33910E-01 41020   0.140E+00    0.147E+00
DAV:   4    -0.796634056286E+03    0.51454E-02   -0.37464E-02 43490   0.563E-01    0.116E+00
DAV:   5    -0.796631439361E+03    0.26169E-02   -0.24694E-02 38180   0.417E-01    0.400E-01
DAV:   6    -0.796632252822E+03   -0.81346E-03   -0.53890E-03 37510   0.233E-01    0.261E-01
DAV:   7    -0.796632367949E+03   -0.11513E-03   -0.19845E-03 39240   0.103E-01    0.146E-01
DAV:   8    -0.796632481087E+03   -0.11314E-03   -0.21760E-04 39690   0.483E-02    0.101E-01
DAV:   9    -0.796632610092E+03   -0.12900E-03   -0.17391E-04 39890   0.385E-02    0.710E-02
DAV:  10    -0.796632689631E+03   -0.79539E-04   -0.80835E-05 33840   0.250E-02    0.587E-02
DAV:  11    -0.796632762222E+03   -0.72591E-04   -0.50711E-05 30020   0.191E-02    0.511E-02
DAV:  12    -0.796632862338E+03   -0.10012E-03   -0.68408E-05 36380   0.234E-02    0.427E-02
DAV:  13    -0.796632965188E+03   -0.10285E-03   -0.15913E-04 39000   0.341E-02    0.342E-02
DAV:  14    -0.796633027951E+03   -0.62762E-04   -0.13333E-04 35960   0.266E-02    0.271E-02
DAV:  15    -0.796633060940E+03   -0.32989E-04   -0.56626E-05 27990   0.166E-02    0.192E-02
DAV:  16    -0.796633077254E+03   -0.16314E-04   -0.28216E-05 24740   0.109E-02    0.144E-02
DAV:  17    -0.796633086065E+03   -0.88110E-05   -0.11476E-05 21790   0.744E-03
  27 F= -.79663309E+03 E0= -.79663309E+03  d E =-.555539E+00  mag=    47.0000
       N       E                     dE             d eps       ncg     rms          rms(c)
DAV:   1    -0.796324312669E+03    0.30876E+00   -0.24009E+01 34970   0.183E+01    0.235E+00
DAV:   2    -0.796703212076E+03   -0.37890E+00   -0.40686E+00 33760   0.367E+00    0.154E+00
DAV:   3    -0.796725761679E+03   -0.22550E-01   -0.14130E-01 39680   0.872E-01    0.862E-01
DAV:   4    -0.796723566860E+03    0.21948E-02   -0.13629E-02 43840   0.324E-01    0.601E-01
DAV:   5    -0.796722669893E+03    0.89697E-03   -0.88109E-03 38390   0.248E-01    0.235E-01
DAV:   6    -0.796722894751E+03   -0.22486E-03   -0.17858E-03 38390   0.146E-01    0.141E-01
DAV:   7    -0.796722941403E+03   -0.46652E-04   -0.73833E-04 40170   0.663E-02    0.852E-02
DAV:   8    -0.796722980231E+03   -0.38828E-04   -0.82808E-05 36470   0.287E-02    0.574E-02
DAV:   9    -0.796723028093E+03   -0.47861E-04   -0.61406E-05 35280   0.215E-02    0.412E-02
DAV:  10    -0.796723057041E+03   -0.28948E-04   -0.28233E-05 25960   0.146E-02    0.346E-02
DAV:  11    -0.796723079517E+03   -0.22477E-04   -0.14197E-05 21260   0.108E-02    0.309E-02
DAV:  12    -0.796723113566E+03   -0.34049E-04   -0.19580E-05 26370   0.134E-02    0.265E-02
DAV:  13    -0.796723153855E+03   -0.40289E-04   -0.70420E-05 33660   0.199E-02    0.206E-02
DAV:  14    -0.796723180173E+03   -0.26318E-04   -0.55237E-05 28160   0.159E-02    0.172E-02
DAV:  15    -0.796723195074E+03   -0.14901E-04   -0.23669E-05 26790   0.118E-02    0.124E-02
DAV:  16    -0.796723203574E+03   -0.84995E-05   -0.17866E-05 21970   0.838E-03
  28 F= -.79672320E+03 E0= -.79672320E+03  d E =-.901175E-01  mag=    47.0000
       N       E                     dE             d eps       ncg     rms          rms(c)
DAV:   1    -0.796723596321E+03   -0.40125E-03   -0.13467E-01 34460   0.103E+00    0.122E-01
DAV:   2    -0.796724675180E+03   -0.10789E-02   -0.11199E-02 33370   0.213E-01    0.138E-01
DAV:   3    -0.796724703857E+03   -0.28677E-04   -0.35039E-04 37080   0.553E-02    0.733E-02
DAV:   4    -0.796724704778E+03   -0.92138E-06   -0.34989E-05 32300   0.211E-02
  29 F= -.79672470E+03 E0= -.79672470E+03  d E =-.150120E-02  mag=    47.0000
       N       E                     dE             d eps       ncg     rms          rms(c)
DAV:   1    -0.796691777246E+03    0.32927E-01   -0.46624E+00 34450   0.591E+00    0.682E-01
DAV:   2    -0.796725152541E+03   -0.33375E-01   -0.34429E-01 33300   0.118E+00    0.732E-01
DAV:   3    -0.796726075593E+03   -0.92305E-03   -0.96235E-03 35400   0.288E-01    0.388E-01
DAV:   4    -0.796726083335E+03   -0.77419E-05   -0.10823E-03 42430   0.116E-01    0.359E-01
DAV:   5    -0.796725981759E+03    0.10158E-03   -0.10473E-03 41360   0.961E-02    0.103E-01
DAV:   6    -0.796726031004E+03   -0.49245E-04   -0.25048E-04 42220   0.448E-02    0.545E-02
DAV:   7    -0.796726038196E+03   -0.71917E-05   -0.49438E-05 31590   0.197E-02
  30 F= -.79672604E+03 E0= -.79672604E+03  d E =-.133342E-02  mag=    47.0000
       N       E                     dE             d eps       ncg     rms          rms(c)
DAV:   1    -0.796711753601E+03    0.14277E-01   -0.15978E+00 35180   0.385E+00    0.444E-01
DAV:   2    -0.796726496384E+03   -0.14743E-01   -0.14886E-01 32410   0.719E-01    0.244E-01
DAV:   3    -0.796727262528E+03   -0.76614E-03   -0.31010E-03 39420   0.132E-01    0.134E-01
DAV:   4    -0.796727259171E+03    0.33573E-05   -0.25040E-04 43320   0.496E-02    0.978E-02
DAV:   5    -0.796727301038E+03   -0.41867E-04   -0.15000E-04 42870   0.404E-02    0.437E-02
DAV:   6    -0.796727330450E+03   -0.29412E-04   -0.55519E-05 32680   0.236E-02    0.342E-02
DAV:   7    -0.796727342106E+03   -0.11655E-04   -0.15164E-05 19030   0.122E-02    0.281E-02
DAV:   8    -0.796727363145E+03   -0.21039E-04   -0.11706E-05 19070   0.110E-02    0.241E-02
DAV:   9    -0.796727382393E+03   -0.19248E-04   -0.24791E-05 26040   0.110E-02    0.203E-02
DAV:  10    -0.796727396447E+03   -0.14054E-04   -0.13428E-05 21250   0.920E-03    0.175E-02
DAV:  11    -0.796727409568E+03   -0.13120E-04   -0.17962E-05 24000   0.109E-02    0.136E-02
DAV:  12    -0.796727419045E+03   -0.94772E-05   -0.31378E-05 29810   0.184E-02
  31 F= -.79672742E+03 E0= -.79672742E+03  d E =-.138085E-02  mag=    47.0000
       N       E                     dE             d eps       ncg     rms          rms(c)
DAV:   1    -0.795968859485E+03    0.75855E+00   -0.74245E+01 34950   0.254E+01    0.292E+00
DAV:   2    -0.796619936889E+03   -0.65108E+00   -0.67451E+00 33530   0.517E+00    0.315E+00
DAV:   3    -0.796638429386E+03   -0.18492E-01   -0.21303E-01 39020   0.133E+00    0.158E+00
DAV:   4    -0.796638954959E+03   -0.52557E-03   -0.21611E-02 42600   0.519E-01    0.148E+00
DAV:   5    -0.796636157002E+03    0.27980E-02   -0.21665E-02 42060   0.438E-01    0.457E-01
DAV:   6    -0.796637118027E+03   -0.96102E-03   -0.50004E-03 42100   0.201E-01    0.214E-01
DAV:   7    -0.796637175814E+03   -0.57787E-04   -0.13455E-03 42210   0.937E-02    0.145E-01
DAV:   8    -0.796637266444E+03   -0.90630E-04   -0.17354E-04 40540   0.464E-02    0.100E-01
DAV:   9    -0.796637408100E+03   -0.14166E-03   -0.14955E-04 42320   0.373E-02    0.738E-02
DAV:  10    -0.796637511627E+03   -0.10353E-03   -0.97353E-05 37460   0.248E-02    0.617E-02
DAV:  11    -0.796637596745E+03   -0.85118E-04   -0.59296E-05 31290   0.189E-02    0.547E-02
DAV:  12    -0.796637715911E+03   -0.11917E-03   -0.93065E-05 37880   0.285E-02    0.444E-02
DAV:  13    -0.796637820729E+03   -0.10482E-03   -0.21020E-04 41550   0.402E-02    0.331E-02
DAV:  14    -0.796637880854E+03   -0.60125E-04   -0.15942E-04 37670   0.280E-02    0.261E-02
DAV:  15    -0.796637907892E+03   -0.27038E-04   -0.51825E-05 26960   0.151E-02    0.178E-02
DAV:  16    -0.796637919203E+03   -0.11311E-04   -0.19289E-05 22300   0.840E-03    0.129E-02
DAV:  17    -0.796637924682E+03   -0.54793E-05   -0.51883E-06 17710   0.570E-03
  32 F= -.79663792E+03 E0= -.79663792E+03  d E =0.894944E-01  mag=    47.0000
       N       E                     dE             d eps       ncg     rms          rms(c)
DAV:   1    -0.796210015682E+03    0.42790E+00   -0.39256E+01 35150   0.207E+01    0.254E+00
DAV:   2    -0.796698978808E+03   -0.48896E+00   -0.51589E+00 33530   0.424E+00    0.227E+00
DAV:   3    -0.796722546210E+03   -0.23567E-01   -0.17190E-01 38240   0.109E+00    0.118E+00
DAV:   4    -0.796721370248E+03    0.11760E-02   -0.18367E-02 43620   0.452E-01    0.103E+00
DAV:   5    -0.796720270757E+03    0.10995E-02   -0.15271E-02 41740   0.361E-01    0.334E-01
DAV:   6    -0.796720725497E+03   -0.45474E-03   -0.29994E-03 41600   0.169E-01    0.177E-01
DAV:   7    -0.796720813785E+03   -0.88288E-04   -0.11997E-03 41880   0.790E-02    0.105E-01
DAV:   8    -0.796720867957E+03   -0.54172E-04   -0.12268E-04 40190   0.390E-02    0.715E-02
DAV:   9    -0.796720933547E+03   -0.65590E-04   -0.87681E-05 39890   0.291E-02    0.519E-02
DAV:  10    -0.796720977797E+03   -0.44251E-04   -0.43039E-05 28950   0.180E-02    0.422E-02
DAV:  11    -0.796721016253E+03   -0.38455E-04   -0.29362E-05 25290   0.139E-02    0.358E-02
DAV:  12    -0.796721063684E+03   -0.47431E-04   -0.33135E-05 30690   0.173E-02    0.300E-02
DAV:  13    -0.796721104215E+03   -0.40531E-04   -0.61877E-05 34080   0.203E-02    0.227E-02
DAV:  14    -0.796721129124E+03   -0.24908E-04   -0.58985E-05 31320   0.197E-02    0.178E-02
DAV:  15    -0.796721141895E+03   -0.12772E-04   -0.36017E-05 23930   0.119E-02    0.117E-02
DAV:  16    -0.796721146322E+03   -0.44273E-05   -0.63451E-06 18300   0.546E-03
  33 F= -.79672115E+03 E0= -.79672115E+03  d E =-.832216E-01  mag=    47.0000
       N       E                     dE             d eps       ncg     rms          rms(c)
DAV:   1    -0.796709124687E+03    0.12017E-01   -0.10275E+00 35760   0.393E+00    0.492E-01
DAV:   2    -0.796727624448E+03   -0.18500E-01   -0.19630E-01 33580   0.786E-01    0.332E-01
DAV:   3    -0.796728765489E+03   -0.11410E-02   -0.64514E-03 40580   0.196E-01    0.184E-01
DAV:   4    -0.796728702350E+03    0.63138E-04   -0.60511E-04 43900   0.731E-02    0.133E-01
DAV:   5    -0.796728687972E+03    0.14379E-04   -0.39021E-04 40590   0.573E-02    0.534E-02
DAV:   6    -0.796728700204E+03   -0.12232E-04   -0.72962E-05 36650   0.314E-02    0.297E-02
DAV:   7    -0.796728702980E+03   -0.27760E-05   -0.33015E-05 27720   0.146E-02
  34 F= -.79672870E+03 E0= -.79672870E+03  d E =-.755666E-02  mag=    47.0000
       N       E                     dE             d eps       ncg     rms          rms(c)
DAV:   1    -0.796722467404E+03    0.62328E-02   -0.76801E-01 34960   0.284E+00    0.341E-01
DAV:   2    -0.796730990846E+03   -0.85234E-02   -0.88850E-02 33450   0.575E-01    0.327E-01
DAV:   3    -0.796731322735E+03   -0.33189E-03   -0.28191E-03 39660   0.150E-01    0.165E-01
DAV:   4    -0.796731311048E+03    0.11687E-04   -0.31894E-04 43420   0.598E-02    0.148E-01
DAV:   5    -0.796731297928E+03    0.13120E-04   -0.27703E-04 40990   0.464E-02    0.457E-02
DAV:   6    -0.796731306896E+03   -0.89675E-05   -0.56049E-05 35480   0.221E-02
  35 F= -.79673131E+03 E0= -.79673131E+03  d E =-.260392E-02  mag=    47.0000
       N       E                     dE             d eps       ncg     rms          rms(c)
DAV:   1    -0.796726977325E+03    0.43206E-02   -0.69895E-01 34380   0.220E+00    0.262E-01
DAV:   2    -0.796731633283E+03   -0.46560E-02   -0.47738E-02 33590   0.453E-01    0.315E-01
DAV:   3    -0.796731692988E+03   -0.59704E-04   -0.13571E-03 35450   0.113E-01    0.172E-01
DAV:   4    -0.796731703784E+03   -0.10796E-04   -0.15788E-04 41520   0.437E-02    0.157E-01
DAV:   5    -0.796731689480E+03    0.14303E-04   -0.17402E-04 41940   0.396E-02    0.465E-02
DAV:   6    -0.796731698303E+03   -0.88230E-05   -0.39538E-05 32900   0.184E-02
  36 F= -.79673170E+03 E0= -.79673170E+03  d E =-.391408E-03  mag=    47.0000
       N       E                     dE             d eps       ncg     rms          rms(c)
DAV:   1    -0.796729755257E+03    0.19342E-02   -0.22951E-01 35230   0.145E+00    0.170E-01
DAV:   2    -0.796731898935E+03   -0.21437E-02   -0.21639E-02 33100   0.274E-01    0.108E-01
DAV:   3    -0.796732004488E+03   -0.10555E-03   -0.46980E-04 39130   0.535E-02    0.593E-02
DAV:   4    -0.796732002163E+03    0.23257E-05   -0.40383E-05 28710   0.228E-02
  37 F= -.79673200E+03 E0= -.79673200E+03  d E =-.303859E-03  mag=    47.0000
       N       E                     dE             d eps       ncg     rms          rms(c)
DAV:   1    -0.796725870910E+03    0.61336E-02   -0.66898E-01 35090   0.247E+00    0.280E-01
DAV:   2    -0.796731878154E+03   -0.60072E-02   -0.61518E-02 33350   0.473E-01    0.193E-01
DAV:   3    -0.796732168844E+03   -0.29069E-03   -0.15007E-03 38810   0.104E-01    0.101E-01
DAV:   4    -0.796732157739E+03    0.11105E-04   -0.14707E-04 42440   0.422E-02    0.820E-02
DAV:   5    -0.796732162310E+03   -0.45712E-05   -0.10491E-04 40360   0.317E-02    0.304E-02
DAV:   6    -0.796732173947E+03   -0.11638E-04   -0.27687E-05 24640   0.155E-02    0.222E-02
DAV:   7    -0.796732177925E+03   -0.39781E-05   -0.82509E-06 17200   0.809E-03
  38 F= -.79673218E+03 E0= -.79673218E+03  d E =-.175763E-03  mag=    47.0000
       N       E                     dE             d eps       ncg     rms          rms(c)
DAV:   1    -0.796711167835E+03    0.21006E-01   -0.21055E+00 35560   0.454E+00    0.510E-01
DAV:   2    -0.796731422655E+03   -0.20255E-01   -0.20727E-01 33220   0.864E-01    0.357E-01
DAV:   3    -0.796732379204E+03   -0.95655E-03   -0.48907E-03 39110   0.187E-01    0.181E-01
DAV:   4    -0.796732343864E+03    0.35340E-04   -0.48061E-04 42460   0.758E-02    0.151E-01
DAV:   5    -0.796732339940E+03    0.39236E-05   -0.30609E-04 43230   0.551E-02    0.481E-02
DAV:   6    -0.796732365817E+03   -0.25877E-04   -0.78201E-05 36550   0.255E-02    0.284E-02
DAV:   7    -0.796732368691E+03   -0.28742E-05   -0.14334E-05 19070   0.115E-02
  39 F= -.79673237E+03 E0= -.79673237E+03  d E =-.190766E-03  mag=    47.0000
       N       E                     dE             d eps       ncg     rms          rms(c)
DAV:   1    -0.796719828585E+03    0.12537E-01   -0.12133E+00 35540   0.350E+00    0.402E-01
DAV:   2    -0.796732034446E+03   -0.12206E-01   -0.12413E-01 33220   0.658E-01    0.241E-01
DAV:   3    -0.796732652371E+03   -0.61792E-03   -0.27729E-03 39910   0.132E-01    0.126E-01
DAV:   4    -0.796732631535E+03    0.20836E-04   -0.25256E-04 43290   0.514E-02    0.959E-02
DAV:   5    -0.796732636779E+03   -0.52440E-05   -0.14122E-04 43040   0.370E-02    0.324E-02
DAV:   6    -0.796732649187E+03   -0.12408E-04   -0.36404E-05 28510   0.194E-02    0.229E-02
DAV:   7    -0.796732650974E+03   -0.17863E-05   -0.10656E-05 17580   0.969E-03
  40 F= -.79673265E+03 E0= -.79673265E+03  d E =-.282282E-03  mag=    47.0000
       N       E                     dE             d eps       ncg     rms          rms(c)
DAV:   1    -0.796713683003E+03    0.18966E-01   -0.19160E+00 35610   0.432E+00    0.491E-01
DAV:   2    -0.796731924623E+03   -0.18242E-01   -0.18454E-01 32660   0.805E-01    0.265E-01
DAV:   3    -0.796732832117E+03   -0.90749E-03   -0.37938E-03 40400   0.146E-01    0.143E-01
DAV:   4    -0.796732804634E+03    0.27483E-04   -0.32216E-04 44940   0.535E-02    0.993E-02
DAV:   5    -0.796732820556E+03   -0.15922E-04   -0.15198E-04 45080   0.409E-02    0.348E-02
DAV:   6    -0.796732835129E+03   -0.14573E-04   -0.46959E-05 33330   0.226E-02    0.231E-02
DAV:   7    -0.796732836353E+03   -0.12245E-05   -0.90056E-06 17600   0.107E-02
  41 F= -.79673284E+03 E0= -.79673284E+03  d E =-.185380E-03  mag=    47.0000
       N       E                     dE             d eps       ncg     rms          rms(c)
DAV:   1    -0.796688601911E+03    0.44233E-01   -0.46303E+00 35340   0.661E+00    0.741E-01
DAV:   2    -0.796730910166E+03   -0.42308E-01   -0.42754E-01 31690   0.124E+00    0.387E-01
DAV:   3    -0.796732937150E+03   -0.20270E-02   -0.83600E-03 39650   0.208E-01    0.208E-01
DAV:   4    -0.796732872999E+03    0.64151E-04   -0.66981E-04 44760   0.736E-02    0.144E-01
DAV:   5    -0.796732919745E+03   -0.46745E-04   -0.30863E-04 44970   0.582E-02    0.500E-02
DAV:   6    -0.796732952659E+03   -0.32914E-04   -0.10662E-04 41680   0.322E-02    0.313E-02
DAV:   7    -0.796732954047E+03   -0.13876E-05   -0.12366E-05 19800   0.142E-02
  42 F= -.79673295E+03 E0= -.79673295E+03  d E =-.117693E-03  mag=    47.0000
       N       E                     dE             d eps       ncg     rms          rms(c)
DAV:   1    -0.796646316075E+03    0.86637E-01   -0.82649E+00 35610   0.916E+00    0.104E+00
DAV:   2    -0.796728385414E+03   -0.82069E-01   -0.82975E-01 31710   0.170E+00    0.525E-01
DAV:   3    -0.796732616139E+03   -0.42307E-02   -0.16634E-02 39310   0.284E-01    0.286E-01
DAV:   4    -0.796732541810E+03    0.74329E-04   -0.12801E-03 45490   0.917E-02    0.190E-01
DAV:   5    -0.796732668134E+03   -0.12632E-03   -0.49887E-04 44940   0.735E-02    0.648E-02
DAV:   6    -0.796732723960E+03   -0.55825E-04   -0.18181E-04 43170   0.433E-02    0.415E-02
DAV:   7    -0.796732726552E+03   -0.25923E-05   -0.23777E-05 24520   0.198E-02
  43 F= -.79673273E+03 E0= -.79673273E+03  d E =0.227495E-03  mag=    47.0000
       N       E                     dE             d eps       ncg     rms          rms(c)
DAV:   1    -0.796634454732E+03    0.98269E-01   -0.97268E+00 35170   0.977E+00    0.111E+00
DAV:   2    -0.796727408850E+03   -0.92954E-01   -0.94050E-01 32500   0.182E+00    0.591E-01
DAV:   3    -0.796732077142E+03   -0.46683E-02   -0.19350E-02 39720   0.323E-01    0.317E-01
DAV:   4    -0.796731948906E+03    0.12824E-03   -0.15284E-03 44770   0.114E-01    0.218E-01
DAV:   5    -0.796732039292E+03   -0.90385E-04   -0.75187E-04 45590   0.906E-02    0.787E-02
DAV:   6    -0.796732112283E+03   -0.72991E-04   -0.25418E-04 43060   0.520E-02    0.469E-02
DAV:   7    -0.796732115564E+03   -0.32812E-05   -0.37554E-05 30120   0.226E-02
  44 F= -.79673212E+03 E0= -.79673212E+03  d E =0.610988E-03  mag=    47.0000
       N       E                     dE             d eps       ncg     rms          rms(c)
DAV:   1    -0.796694205304E+03    0.37907E-01   -0.34069E+00 35630   0.598E+00    0.685E-01
DAV:   2    -0.796730804565E+03   -0.36599E-01   -0.37202E-01 32920   0.113E+00    0.427E-01
DAV:   3    -0.796732594668E+03   -0.17901E-02   -0.82327E-03 39240   0.223E-01    0.222E-01
DAV:   4    -0.796732529817E+03    0.64851E-04   -0.74364E-04 43470   0.892E-02    0.175E-01
DAV:   5    -0.796732540296E+03   -0.10479E-04   -0.41076E-04 44070   0.650E-02    0.554E-02
DAV:   6    -0.796732575903E+03   -0.35607E-04   -0.11672E-04 42440   0.335E-02    0.348E-02
DAV:   7    -0.796732577906E+03   -0.20030E-05   -0.18362E-05 21630   0.143E-02
  45 F= -.79673258E+03 E0= -.79673258E+03  d E =-.462343E-03  mag=    47.0000
       N       E                     dE             d eps       ncg     rms          rms(c)
DAV:   1    -0.796447044961E+03    0.28553E+00   -0.29374E+01 35320   0.167E+01    0.188E+00
DAV:   2    -0.796719330790E+03   -0.27229E+00   -0.27486E+00 31510   0.313E+00    0.950E-01
DAV:   3    -0.796732435093E+03   -0.13104E-01   -0.53299E-02 39680   0.512E-01    0.516E-01
DAV:   4    -0.796732013265E+03    0.42183E-03   -0.40561E-03 45150   0.173E-01    0.341E-01
DAV:   5    -0.796732328905E+03   -0.31564E-03   -0.17747E-03 45730   0.139E-01    0.117E-01
DAV:   6    -0.796732496377E+03   -0.16747E-03   -0.62484E-04 43450   0.805E-02    0.693E-02
DAV:   7    -0.796732492429E+03    0.39481E-05   -0.74764E-05 36530   0.349E-02
  46 F= -.79673249E+03 E0= -.79673249E+03  d E =0.854768E-04  mag=    47.0000
       N       E                     dE             d eps       ncg     rms          rms(c)
DAV:   1    -0.796701588550E+03    0.30908E-01   -0.22037E+00 35210   0.510E+00    0.634E-01
DAV:   2    -0.796729703668E+03   -0.28115E-01   -0.28805E-01 33350   0.994E-01    0.504E-01
DAV:   3    -0.796731160193E+03   -0.14565E-02   -0.80642E-03 39970   0.246E-01    0.252E-01
DAV:   4    -0.796731132930E+03    0.27263E-04   -0.86149E-04 43620   0.103E-01    0.220E-01
DAV:   5    -0.796731108660E+03    0.24270E-04   -0.62692E-04 41950   0.763E-02    0.661E-02
DAV:   6    -0.796731145205E+03   -0.36545E-04   -0.13984E-04 39980   0.343E-02    0.390E-02
DAV:   7    -0.796731150950E+03   -0.57447E-05   -0.35935E-05 29170   0.160E-02
  47 F= -.79673115E+03 E0= -.79673115E+03  d E =0.134148E-02  mag=    47.0000
       N       E                     dE             d eps       ncg     rms          rms(c)
DAV:   1    -0.796687188119E+03    0.43957E-01   -0.48848E+00 35590   0.673E+00    0.762E-01
DAV:   2    -0.796731081419E+03   -0.43893E-01   -0.44601E-01 32890   0.126E+00    0.427E-01
DAV:   3    -0.796733215436E+03   -0.21340E-02   -0.96638E-03 40310   0.242E-01    0.229E-01
DAV:   4    -0.796733123954E+03    0.91483E-04   -0.84984E-04 44330   0.944E-02    0.166E-01
DAV:   5    -0.796733128771E+03   -0.48170E-05   -0.47690E-04 44240   0.695E-02    0.602E-02
DAV:   6    -0.796733173633E+03   -0.44862E-04   -0.14623E-04 42630   0.362E-02    0.358E-02
DAV:   7    -0.796733176800E+03   -0.31670E-05   -0.21379E-05 23210   0.154E-02
  48 F= -.79673318E+03 E0= -.79673318E+03  d E =-.202585E-02  mag=    47.0000
       N       E                     dE             d eps       ncg     rms          rms(c)
DAV:   1    -0.796728121795E+03    0.50518E-02   -0.52397E-01 34750   0.217E+00    0.262E-01
DAV:   2    -0.796732897158E+03   -0.47754E-02   -0.49110E-02 33430   0.444E-01    0.276E-01
DAV:   3    -0.796733056298E+03   -0.15914E-03   -0.15438E-03 38240   0.118E-01    0.140E-01
DAV:   4    -0.796733062889E+03   -0.65908E-05   -0.15880E-04 43290   0.435E-02    0.127E-01
DAV:   5    -0.796733052913E+03    0.99761E-05   -0.16123E-04 41250   0.385E-02    0.370E-02
DAV:   6    -0.796733058780E+03   -0.58675E-05   -0.30759E-05 29350   0.169E-02
  49 F= -.79673306E+03 E0= -.79673306E+03  d E =0.118020E-03  mag=    47.0000
       N       E                     dE             d eps       ncg     rms          rms(c)
DAV:   1    -0.796727509498E+03    0.55434E-02   -0.56359E-01 35290   0.234E+00    0.262E-01
DAV:   2    -0.796732945996E+03   -0.54365E-02   -0.55382E-02 32970   0.440E-01    0.145E-01
DAV:   3    -0.796733212446E+03   -0.26645E-03   -0.12214E-03 39620   0.815E-02    0.805E-02
DAV:   4    -0.796733201217E+03    0.11230E-04   -0.94684E-05 38990   0.277E-02    0.555E-02
DAV:   5    -0.796733205349E+03   -0.41322E-05   -0.54970E-05 33700   0.236E-02
  50 F= -.79673321E+03 E0= -.79673321E+03  d E =-.146568E-03  mag=    47.0000
       N       E                     dE             d eps       ncg     rms          rms(c)
DAV:   1    -0.795442529080E+03    0.12907E+01   -0.12473E+02 34330   0.333E+01    0.396E+00
DAV:   2    -0.796533861240E+03   -0.10913E+01   -0.11186E+01 33330   0.657E+00    0.361E+00
DAV:   3    -0.796578914465E+03   -0.45053E-01   -0.32427E-01 37950   0.166E+00    0.177E+00
DAV:   4    -0.796578818877E+03    0.95588E-04   -0.31930E-02 43050   0.653E-01    0.163E+00
DAV:   5    -0.796576485599E+03    0.23333E-02   -0.28069E-02 42430   0.508E-01    0.492E-01
DAV:   6    -0.796578049811E+03   -0.15642E-02   -0.64382E-03 41750   0.229E-01    0.245E-01
DAV:   7    -0.796578123610E+03   -0.73798E-04   -0.16341E-03 41780   0.107E-01    0.157E-01
DAV:   8    -0.796578232767E+03   -0.10916E-03   -0.21909E-04 40830   0.525E-02    0.112E-01
DAV:   9    -0.796578403421E+03   -0.17065E-03   -0.21233E-04 42700   0.447E-02    0.816E-02
DAV:  10    -0.796578514298E+03   -0.11088E-03   -0.11542E-04 37170   0.284E-02    0.672E-02
DAV:  11    -0.796578611371E+03   -0.97073E-04   -0.73861E-05 34520   0.211E-02    0.592E-02
DAV:  12    -0.796578751891E+03   -0.14052E-03   -0.10605E-04 37840   0.317E-02    0.479E-02
DAV:  13    -0.796578872605E+03   -0.12071E-03   -0.22669E-04 41870   0.428E-02    0.359E-02
DAV:  14    -0.796578940343E+03   -0.67738E-04   -0.17871E-04 37850   0.313E-02    0.282E-02
DAV:  15    -0.796578971090E+03   -0.30748E-04   -0.57616E-05 26900   0.160E-02    0.194E-02
DAV:  16    -0.796578983280E+03   -0.12189E-04   -0.18600E-05 21610   0.893E-03    0.142E-02
DAV:  17    -0.796578990173E+03   -0.68930E-05   -0.76316E-06 19500   0.660E-03
  51 F= -.79657899E+03 E0= -.79657899E+03  d E =0.154215E+00  mag=    47.0000
       N       E                     dE             d eps       ncg     rms          rms(c)
DAV:   1    -0.796314882830E+03    0.26410E+00   -0.35514E+01 35160   0.193E+01    0.233E+00
DAV:   2    -0.796698731886E+03   -0.38385E+00   -0.40525E+00 33560   0.392E+00    0.219E+00
DAV:   3    -0.796716896122E+03   -0.18164E-01   -0.14289E-01 39490   0.102E+00    0.114E+00
DAV:   4    -0.796715660022E+03    0.12361E-02   -0.15260E-02 43580   0.405E-01    0.996E-01
DAV:   5    -0.796714757502E+03    0.90252E-03   -0.14475E-02 41510   0.337E-01    0.313E-01
DAV:   6    -0.796714979857E+03   -0.22235E-03   -0.27003E-03 40830   0.163E-01    0.179E-01
DAV:   7    -0.796715041028E+03   -0.61172E-04   -0.12647E-03 41570   0.807E-02    0.106E-01
DAV:   8    -0.796715096358E+03   -0.55330E-04   -0.11204E-04 39390   0.379E-02    0.748E-02
DAV:   9    -0.796715165940E+03   -0.69582E-04   -0.91148E-05 39910   0.311E-02    0.537E-02
DAV:  10    -0.796715214129E+03   -0.48189E-04   -0.47196E-05 30150   0.200E-02    0.430E-02
DAV:  11    -0.796715250743E+03   -0.36614E-04   -0.32461E-05 24680   0.142E-02    0.364E-02
DAV:  12    -0.796715305655E+03   -0.54912E-04   -0.42230E-05 31210   0.208E-02    0.297E-02
DAV:  13    -0.796715346013E+03   -0.40358E-04   -0.78522E-05 33370   0.211E-02    0.231E-02
DAV:  14    -0.796715368427E+03   -0.22413E-04   -0.45697E-05 27770   0.170E-02    0.180E-02
DAV:  15    -0.796715379531E+03   -0.11105E-04   -0.27490E-05 24630   0.112E-02    0.116E-02
DAV:  16    -0.796715384375E+03   -0.48439E-05   -0.84555E-06 18930   0.660E-03
  52 F= -.79671538E+03 E0= -.79671538E+03  d E =-.136394E+00  mag=    47.0000
       N       E                     dE             d eps       ncg     rms          rms(c)
DAV:   1    -0.796716537776E+03   -0.11582E-02   -0.79638E-01 34720   0.275E+00    0.335E-01
DAV:   2    -0.796724318756E+03   -0.77810E-02   -0.80513E-02 33380   0.558E-01    0.337E-01
DAV:   3    -0.796724625690E+03   -0.30693E-03   -0.25779E-03 38970   0.148E-01    0.170E-01
DAV:   4    -0.796724632687E+03   -0.69975E-05   -0.28423E-04 43650   0.587E-02    0.156E-01
DAV:   5    -0.796724612234E+03    0.20453E-04   -0.25743E-04 41890   0.491E-02    0.456E-02
DAV:   6    -0.796724622951E+03   -0.10716E-04   -0.52390E-05 35990   0.221E-02    0.243E-02
DAV:   7    -0.796724625026E+03   -0.20749E-05   -0.16582E-05 18360   0.112E-02
  53 F= -.79672463E+03 E0= -.79672463E+03  d E =-.924065E-02  mag=    47.0000
       N       E                     dE             d eps       ncg     rms          rms(c)
DAV:   1    -0.796696496020E+03    0.28127E-01   -0.40531E+00 34350   0.584E+00    0.715E-01
DAV:   2    -0.796731876210E+03   -0.35380E-01   -0.36265E-01 33330   0.120E+00    0.776E-01
DAV:   3    -0.796732943824E+03   -0.10676E-02   -0.10731E-02 37070   0.307E-01    0.405E-01
DAV:   4    -0.796733038619E+03   -0.94796E-04   -0.11732E-03 42960   0.120E-01    0.372E-01
DAV:   5    -0.796732937656E+03    0.10096E-03   -0.11154E-03 42410   0.104E-01    0.104E-01
DAV:   6    -0.796732989514E+03   -0.51858E-04   -0.25416E-04 42190   0.468E-02    0.533E-02
DAV:   7    -0.796732998692E+03   -0.91780E-05   -0.59383E-05 33660   0.212E-02
  54 F= -.79673300E+03 E0= -.79673300E+03  d E =-.837367E-02  mag=    47.0000
       N       E                     dE             d eps       ncg     rms          rms(c)
DAV:   1    -0.796732310569E+03    0.67894E-03   -0.10573E-01 34640   0.880E-01    0.103E-01
DAV:   2    -0.796733078829E+03   -0.76826E-03   -0.77412E-03 33330   0.173E-01    0.982E-02
DAV:   3    -0.796733108450E+03   -0.29622E-04   -0.19506E-04 35000   0.403E-02    0.541E-02
DAV:   4    -0.796733117227E+03   -0.87763E-05   -0.19955E-05 25250   0.178E-02
  55 F= -.79673312E+03 E0= -.79673312E+03  d E =-.118535E-03  mag=    47.0000
       N       E                     dE             d eps       ncg     rms          rms(c)
DAV:   1    -0.796729670384E+03    0.34381E-02   -0.55393E-01 34760   0.192E+00    0.201E-01
DAV:   2    -0.796733009100E+03   -0.33387E-02   -0.34009E-02 33220   0.357E-01    0.140E-01
DAV:   3    -0.796733116093E+03   -0.10699E-03   -0.69551E-04 38720   0.692E-02    0.753E-02
DAV:   4    -0.796733106355E+03    0.97382E-05   -0.76180E-05 37370   0.309E-02
  56 F= -.79673311E+03 E0= -.79673311E+03  d E =0.108716E-04  mag=    47.0000
       N       E                     dE             d eps       ncg     rms          rms(c)
DAV:   1    -0.796732720461E+03    0.39563E-03   -0.80552E-02 34480   0.783E-01    0.956E-02
DAV:   2    -0.796733333054E+03   -0.61259E-03   -0.62861E-03 33380   0.164E-01    0.112E-01
DAV:   3    -0.796733343264E+03   -0.10210E-04   -0.19470E-04 35390   0.434E-02    0.584E-02
DAV:   4    -0.796733344974E+03   -0.17095E-05   -0.17948E-05 25270   0.158E-02
  57 F= -.79673334E+03 E0= -.79673334E+03  d E =-.238619E-03  mag=    47.0000
