       N       E                     dE             d eps       ncg     rms          ort
DAV:   1     0.282618666360E+04    0.28262E+04   -0.29398E+05  2880   0.141E+03
DAV:   2    -0.971604642894E+03   -0.37978E+04   -0.36634E+04  2880   0.313E+02
DAV:   3    -0.122946647243E+04   -0.25786E+03   -0.25574E+03  2880   0.850E+01
DAV:   4    -0.123247934078E+04   -0.30129E+01   -0.30026E+01  2880   0.977E+00
DAV:   5    -0.123252821293E+04   -0.48872E-01   -0.48768E-01  2880   0.115E+00
SDA:   6    -0.876469544274E+03    0.35606E+03   -0.48768E-01  2880   0.613E+03 0.000E+00
CGA:   7    -0.985946791105E+03   -0.10948E+03   -0.10976E+03  2880   0.562E+02 0.789E+01
CGA:   8    -0.997227695048E+03   -0.11281E+02   -0.11282E+02  2880   0.271E+02 0.800E+00
CGA:   9    -0.100144784289E+04   -0.42201E+01   -0.45526E+01  2880   0.106E+02 0.355E+01
CGA:  10    -0.100329260763E+04   -0.18448E+01   -0.19095E+01  2880   0.658E+01-0.214E+00
CGA:  11    -0.100467471465E+04   -0.13821E+01   -0.17835E+01  2880   0.879E+01-0.380E+01
CGA:  12    -0.100505145459E+04   -0.37674E+00   -0.89901E+00  2880   0.295E+01-0.126E+01
CGA:  13    -0.100540313140E+04   -0.35168E+00   -0.26276E+00  2880   0.120E+01 0.423E+00
CGA:  14    -0.100546609962E+04   -0.62968E-01   -0.67932E-01  2880   0.820E+00-0.192E+00
CGA:  15    -0.100551939203E+04   -0.53292E-01   -0.59386E-01  2880   0.646E+00-0.543E-01
CGA:  16    -0.100556882410E+04   -0.49432E-01   -0.57932E-01  2880   0.761E+00-0.409E-01
CGA:  17    -0.100560852451E+04   -0.39700E-01   -0.41426E-01  2880   0.317E+00-0.224E-01
CGA:  18    -0.100562527794E+04   -0.16753E-01   -0.14330E-01  2880   0.126E+00 0.377E-01
CGA:  19    -0.100563432870E+04   -0.90508E-02   -0.89624E-02  2880   0.121E+00-0.692E-02
CGA:  20    -0.100564188570E+04   -0.75570E-02   -0.70462E-02  2880   0.905E-01-0.163E-02
CGA:  21    -0.100564754180E+04   -0.56561E-02   -0.59956E-02  2880   0.963E-01-0.434E-02
CGA:  22    -0.100565268554E+04   -0.51437E-02   -0.51351E-02  2880   0.542E-01 0.254E-02
CGA:  23    -0.100565505290E+04   -0.23674E-02   -0.24463E-02  2880   0.208E-01-0.507E-03
CGA:  24    -0.100565632540E+04   -0.12725E-02   -0.12285E-02  2880   0.179E-01-0.779E-03
CGA:  25    -0.100565754005E+04   -0.12147E-02   -0.11906E-02  2880   0.133E-01-0.766E-03
CGA:  26    -0.100565821233E+04   -0.67228E-03   -0.73722E-03  2880   0.106E-01 0.512E-03
CGA:  27    -0.100565874669E+04   -0.53436E-03   -0.63581E-03  2880   0.616E-02 0.175E-02
CGA:  28    -0.100565897956E+04   -0.23287E-03   -0.30525E-03  2880   0.198E-02 0.873E-03
CGA:  29    -0.100565910640E+04   -0.12684E-03   -0.13514E-03  2880   0.178E-02 0.153E-03
CGA:  30    -0.100565929724E+04   -0.19083E-03   -0.19113E-03  2880   0.257E-02-0.682E-05
CGA:  31    -0.100565943822E+04   -0.14098E-03   -0.16084E-03  2880   0.227E-02 0.349E-03
CGA:  32    -0.100565953448E+04   -0.96261E-04   -0.13534E-03  2880   0.140E-02 0.722E-03
CGA:  33    -0.100565958075E+04   -0.46268E-04   -0.75009E-04  2880   0.531E-03 0.455E-03
CGA:  34    -0.100565961980E+04   -0.39048E-04   -0.42282E-04  2880   0.598E-03 0.725E-04
CGA:  35    -0.100565970216E+04   -0.82363E-04   -0.14593E-03  2880   0.389E-02-0.563E-03
CGA:  36    -0.100565988037E+04   -0.17821E-03   -0.18659E-03  2880   0.124E-03 0.339E-04
CGA:  37    -0.100565989692E+04   -0.16544E-04   -0.15991E-04  2880   0.778E-04 0.272E-04
CGA:  38    -0.100565992467E+04   -0.27757E-04    0.14495E-04  2880   0.469E-04 0.518E-04
CGA:  39    -0.100565993619E+04   -0.11520E-04   -0.10821E-04  2880   0.841E-04 0.547E-05
CGA:  40    -0.100565994819E+04   -0.11996E-04   -0.11645E-04  2880   0.634E-04 0.366E-04
CGA:  41    -0.100565991564E+04    0.32550E-04   -0.50135E-04  2880   0.965E-03-0.230E-03
CGA:  42    -0.100565999636E+04   -0.80722E-04   -0.79113E-04  2880   0.766E-04-0.397E-04
CGA:  43    -0.100565999514E+04    0.12244E-05   -0.25841E-05  2880   0.252E-04 0.387E-04
   1 F= -.10056600E+04 E0= -.10056445E+04  d E =-.100566E+04  mag=     1.0000
       N       E                     dE             d eps       ncg     rms          ort
SDA:   1    -0.100566056809E+04   -0.57172E-03    0.00000E+00  2880   0.237E-02 0.000E+00
CGA:   2    -0.100566075836E+04   -0.19027E-03   -0.16023E-03  2880   0.347E-03-0.570E-03
CGA:   3    -0.100566078181E+04   -0.23452E-04   -0.24443E-04  2880   0.931E-04 0.337E-04
CGA:   4    -0.100566078889E+04   -0.70860E-05   -0.83110E-05  2880   0.499E-04 0.316E-04
CGA:   5    -0.100566080676E+04   -0.17863E-04    0.29011E-04  2880   0.184E-04 0.291E-04
CGA:   6    -0.100566080812E+04   -0.13638E-05   -0.15194E-05  2880   0.135E-04 0.433E-05
   2 F= -.10056608E+04 E0= -.10056452E+04  d E =-.812982E-03  mag=     0.9954
       N       E                     dE             d eps       ncg     rms          ort
SDA:   1    -0.100564333671E+04    0.17470E-01    0.00000E+00  2880   0.942E-01 0.000E+00
CGA:   2    -0.100567120143E+04   -0.27865E-01   -0.27478E-01  2880   0.743E-01 0.246E-02
CGA:   3    -0.100567782707E+04   -0.66256E-02   -0.66362E-02  2880   0.225E-01 0.139E-02
CGA:   4    -0.100568054020E+04   -0.27131E-02   -0.27121E-02  2880   0.100E-01-0.556E-03
CGA:   5    -0.100568147890E+04   -0.93870E-03   -0.91708E-03  2880   0.480E-02-0.635E-03
CGA:   6    -0.100568196487E+04   -0.48597E-03   -0.49446E-03  2880   0.723E-03 0.576E-03
CGA:   7    -0.100568211208E+04   -0.14721E-03   -0.14944E-03  2880   0.576E-03-0.392E-04
CGA:   8    -0.100568220246E+04   -0.90381E-04   -0.98401E-04  2880   0.548E-03-0.155E-03
CGA:   9    -0.100568221591E+04   -0.13454E-04   -0.19292E-04  2880   0.156E-03 0.698E-04
CGA:  10    -0.100568221890E+04   -0.29851E-05   -0.77920E-05  2880   0.986E-04 0.575E-04
CGA:  11    -0.100568222823E+04   -0.93362E-05   -0.11169E-04  2880   0.114E-03 0.463E-04
CGA:  12    -0.100568224926E+04   -0.21027E-04   -0.21918E-04  2880   0.108E-03-0.855E-04
CGA:  13    -0.100568225441E+04   -0.51444E-05   -0.58683E-05  2880   0.247E-04 0.105E-04
   3 F= -.10056823E+04 E0= -.10056667E+04  d E =-.214463E-01  mag=     0.9951
       N       E                     dE             d eps       ncg     rms          ort
SDA:   1    -0.100552939897E+04    0.15285E+00    0.00000E+00  2880   0.689E+00 0.000E+00
CGA:   2    -0.100560476633E+04   -0.75367E-01   -0.76084E-01  2880   0.503E+00 0.502E-01
CGA:   3    -0.100568973529E+04   -0.84969E-01   -0.85331E-01  2880   0.212E+00-0.512E-02
CGA:   4    -0.100571045783E+04   -0.20723E-01   -0.20921E-01  2880   0.679E-01 0.138E-02
CGA:   5    -0.100571641511E+04   -0.59573E-02   -0.59088E-02  2880   0.256E-01-0.149E-02
CGA:   6    -0.100571999941E+04   -0.35843E-02   -0.35565E-02  2880   0.102E-01 0.960E-03
CGA:   7    -0.100572112421E+04   -0.11248E-02   -0.11218E-02  2880   0.396E-02-0.381E-03
CGA:   8    -0.100572151277E+04   -0.38856E-03   -0.39163E-03  2880   0.178E-02 0.196E-03
CGA:   9    -0.100572181772E+04   -0.30495E-03   -0.30022E-03  2880   0.100E-02 0.100E-03
CGA:  10    -0.100572193816E+04   -0.12044E-03   -0.11940E-03  2880   0.640E-03-0.204E-03
CGA:  11    -0.100572201686E+04   -0.78704E-04   -0.78550E-04  2880   0.293E-03 0.154E-05
CGA:  12    -0.100572203500E+04   -0.18136E-04   -0.22002E-04  2880   0.924E-04 0.851E-04
CGA:  13    -0.100572206690E+04   -0.31898E-04   -0.31597E-04  2880   0.804E-04 0.217E-05
CGA:  14    -0.100572207495E+04   -0.80569E-05   -0.82556E-05  2880   0.415E-04 0.791E-05
CGA:  15    -0.100572192023E+04    0.15472E-03   -0.84668E-04  2880   0.249E-02-0.277E-03
CGA:  16    -0.100572205006E+04   -0.12983E-03   -0.13684E-03  2880   0.390E-03 0.179E-04
CGA:  17    -0.100572207011E+04   -0.20054E-04   -0.30819E-04  2880   0.431E-04 0.854E-04
CGA:  18    -0.100572207198E+04   -0.18658E-05   -0.43409E-05  2880   0.318E-04 0.194E-04
   4 F= -.10057221E+04 E0= -.10057065E+04  d E =-.398176E-01  mag=     0.9949
       N       E                     dE             d eps       ncg     rms          ort
SDA:   1    -0.100534909319E+04    0.37298E+00    0.00000E+00  2880   0.347E+01 0.000E+00
CGA:   2    -0.100547635958E+04   -0.12727E+00   -0.33523E+00  2880   0.195E+01-0.879E+00
CGA:   3    -0.100567208037E+04   -0.19572E+00   -0.19058E+00  2880   0.472E+00-0.128E-01
CGA:   4    -0.100572217022E+04   -0.50090E-01   -0.45793E-01  2880   0.196E+00 0.168E-01
CGA:   5    -0.100574324948E+04   -0.21079E-01   -0.20351E-01  2880   0.867E-01-0.834E-03
CGA:   6    -0.100575938987E+04   -0.16140E-01   -0.16133E-01  2880   0.419E-01 0.152E-02
CGA:   7    -0.100576271110E+04   -0.33212E-02   -0.32880E-02  2880   0.796E-02-0.277E-03
CGA:   8    -0.100576357491E+04   -0.86381E-03   -0.87460E-03  2880   0.456E-02 0.249E-03
CGA:   9    -0.100576430671E+04   -0.73180E-03   -0.73468E-03  2880   0.327E-02 0.119E-03
CGA:  10    -0.100576471652E+04   -0.40982E-03   -0.39472E-03  2880   0.110E-02-0.296E-03
CGA:  11    -0.100576482842E+04   -0.11189E-03   -0.11612E-03  2880   0.589E-03 0.660E-04
CGA:  12    -0.100576489956E+04   -0.71148E-04   -0.75068E-04  2880   0.273E-03 0.798E-04
CGA:  13    -0.100576495846E+04   -0.58900E-04   -0.64975E-04  2880   0.719E-03-0.142E-03
CGA:  14    -0.100576498015E+04   -0.21688E-04   -0.31070E-04  2880   0.447E-04 0.643E-04
CGA:  15    -0.100576498304E+04   -0.28911E-05   -0.43989E-05  2880   0.443E-04 0.208E-04
CGA:  16    -0.100576499094E+04   -0.79006E-05   -0.32495E-04  2880   0.337E-03-0.719E-04
CGA:  17    -0.100576500422E+04   -0.13277E-04   -0.17065E-04  2880   0.571E-04 0.302E-04
CGA:  18    -0.100576500776E+04   -0.35443E-05   -0.55326E-05  2880   0.188E-04 0.251E-04
   5 F= -.10057650E+04 E0= -.10057495E+04  d E =-.429358E-01  mag=     0.9961
       N       E                     dE             d eps       ncg     rms          ort
SDA:   1    -0.100449521907E+04    0.12698E+01    0.00000E+00  2880   0.166E+02 0.000E+00
CGA:   2    -0.100502174816E+04   -0.52653E+00   -0.13946E+01  2880   0.446E+01-0.284E+01
CGA:   3    -0.100551454698E+04   -0.49280E+00   -0.39818E+00  2880   0.112E+01-0.396E+00
CGA:   4    -0.100566558259E+04   -0.15104E+00   -0.14751E+00  2880   0.955E+00-0.143E+00
CGA:   5    -0.100574724067E+04   -0.81658E-01   -0.78557E-01  2880   0.383E+00-0.503E-02
CGA:   6    -0.100578697082E+04   -0.39730E-01   -0.38085E-01  2880   0.762E-01 0.206E-02
CGA:   7    -0.100579478501E+04   -0.78142E-02   -0.80472E-02  2880   0.483E-01 0.204E-04
CGA:   8    -0.100580096344E+04   -0.61784E-02   -0.62002E-02  2880   0.272E-01 0.823E-03
CGA:   9    -0.100580341672E+04   -0.24533E-02   -0.24845E-02  2880   0.114E-01 0.257E-03
CGA:  10    -0.100580491348E+04   -0.14968E-02   -0.14875E-02  2880   0.435E-02-0.882E-03
CGA:  11    -0.100580533765E+04   -0.42417E-03   -0.43434E-03  2880   0.216E-02 0.316E-03
CGA:  12    -0.100580561300E+04   -0.27535E-03   -0.27979E-03  2880   0.126E-02 0.207E-03
CGA:  13    -0.100580576924E+04   -0.15625E-03   -0.15672E-03  2880   0.969E-03 0.294E-05
CGA:  14    -0.100580588467E+04   -0.11542E-03   -0.11744E-03  2880   0.301E-03 0.112E-03
CGA:  15    -0.100580593884E+04   -0.54171E-04   -0.99144E-04  2880   0.135E-02-0.286E-03
CGA:  16    -0.100580598938E+04   -0.50540E-04   -0.63338E-04  2880   0.785E-04 0.115E-03
CGA:  17    -0.100580599099E+04   -0.16090E-05   -0.50309E-05  2880   0.379E-04 0.418E-04
   6 F= -.10058060E+04 E0= -.10057904E+04  d E =-.409832E-01  mag=     0.9978
       N       E                     dE             d eps       ncg     rms          ort
SDA:   1    -0.100441376265E+04    0.13922E+01    0.00000E+00  2880   0.102E+02 0.000E+00
CGA:   2    -0.100489569851E+04   -0.48194E+00   -0.79282E+00  2880   0.431E+01-0.139E+01
CGA:   3    -0.100553753091E+04   -0.64183E+00   -0.64974E+00  2880   0.167E+01-0.849E-01
CGA:   4    -0.100571393045E+04   -0.17640E+00   -0.15206E+00  2880   0.446E+00-0.485E-01
CGA:   5    -0.100577530607E+04   -0.61376E-01   -0.61431E-01  2880   0.296E+00-0.528E-02
CGA:   6    -0.100580471852E+04   -0.29412E-01   -0.29011E-01  2880   0.970E-01-0.249E-02
CGA:   7    -0.100581437188E+04   -0.96534E-02   -0.97755E-02  2880   0.338E-01 0.632E-03
CGA:   8    -0.100581815681E+04   -0.37849E-02   -0.38133E-02  2880   0.134E-01 0.140E-02
CGA:   9    -0.100582021408E+04   -0.20573E-02   -0.20640E-02  2880   0.118E-01-0.441E-03
CGA:  10    -0.100582153968E+04   -0.13256E-02   -0.13246E-02  2880   0.304E-02-0.832E-04
CGA:  11    -0.100582182693E+04   -0.28725E-03   -0.28959E-03  2880   0.165E-02 0.970E-05
CGA:  12    -0.100582216863E+04   -0.34170E-03   -0.33221E-03  2880   0.110E-02 0.122E-03
CGA:  13    -0.100582227138E+04   -0.10274E-03   -0.10644E-03  2880   0.367E-03 0.808E-04
CGA:  14    -0.100582235490E+04   -0.83520E-04   -0.87254E-04  2880   0.657E-03-0.422E-04
CGA:  15    -0.100582241835E+04   -0.63455E-04   -0.61941E-04  2880   0.116E-03-0.585E-04
CGA:  16    -0.100582242085E+04   -0.24977E-05   -0.63841E-05  2880   0.422E-04 0.535E-04
   7 F= -.10058224E+04 E0= -.10058069E+04  d E =-.164299E-01  mag=     0.9973
       N       E                     dE             d eps       ncg     rms          ort
SDA:   1    -0.100369265637E+04    0.21298E+01    0.00000E+00  2880   0.196E+02 0.000E+00
CGA:   2    -0.100466071081E+04   -0.96805E+00   -0.14222E+01  2880   0.637E+01-0.484E+01
CGA:   3    -0.100534303983E+04   -0.68233E+00   -0.76816E+00  2880   0.385E+01-0.141E+01
CGA:   4    -0.100569003663E+04   -0.34700E+00   -0.34045E+00  2880   0.694E+00-0.279E+00
CGA:   5    -0.100574635287E+04   -0.56316E-01   -0.52273E-01  2880   0.285E+00-0.591E-02
CGA:   6    -0.100578960910E+04   -0.43256E-01   -0.42527E-01  2880   0.170E+00 0.166E-01
CGA:   7    -0.100580787925E+04   -0.18270E-01   -0.18365E-01  2880   0.893E-01-0.533E-04
CGA:   8    -0.100581659286E+04   -0.87136E-02   -0.86440E-02  2880   0.251E-01 0.455E-03
CGA:   9    -0.100581998104E+04   -0.33882E-02   -0.33689E-02  2880   0.142E-01 0.978E-03
CGA:  10    -0.100582145316E+04   -0.14721E-02   -0.14815E-02  2880   0.683E-02 0.434E-03
CGA:  11    -0.100582258122E+04   -0.11281E-02   -0.11463E-02  2880   0.433E-02-0.465E-03
CGA:  12    -0.100582292826E+04   -0.34704E-03   -0.35249E-03  2880   0.159E-02 0.143E-03
CGA:  13    -0.100582316825E+04   -0.23999E-03   -0.23733E-03  2880   0.961E-03 0.102E-03
CGA:  14    -0.100582330170E+04   -0.13345E-03   -0.13222E-03  2880   0.524E-03 0.160E-03
CGA:  15    -0.100582337293E+04   -0.71228E-04   -0.71221E-04  2880   0.330E-03-0.306E-05
CGA:  16    -0.100582343603E+04   -0.63103E-04   -0.63475E-04  2880   0.294E-03-0.719E-05
CGA:  17    -0.100582346346E+04   -0.27432E-04   -0.26082E-04  2880   0.970E-04-0.415E-04
CGA:  18    -0.100582346782E+04   -0.43543E-05   -0.61792E-05  2880   0.282E-04 0.363E-04
   8 F= -.10058235E+04 E0= -.10058078E+04  d E =-.104697E-02  mag=     0.9992
       N       E                     dE             d eps       ncg     rms          ort
SDA:   1    -0.100573849771E+04    0.84966E-01    0.00000E+00  2880   0.377E+00 0.000E+00
CGA:   2    -0.100577017130E+04   -0.31674E-01   -0.30373E-01  2880   0.239E+00-0.124E-02
CGA:   3    -0.100582029691E+04   -0.50126E-01   -0.50197E-01  2880   0.653E-01-0.946E-03
CGA:   4    -0.100582693847E+04   -0.66416E-02   -0.66424E-02  2880   0.262E-01-0.172E-03
CGA:   5    -0.100582958615E+04   -0.26477E-02   -0.26732E-02  2880   0.164E-01 0.960E-03
CGA:   6    -0.100583141759E+04   -0.18314E-02   -0.18371E-02  2880   0.228E-02 0.249E-03
CGA:   7    -0.100583187646E+04   -0.45887E-03   -0.49663E-03  2880   0.337E-02-0.403E-03
CGA:   8    -0.100583205916E+04   -0.18270E-03   -0.18274E-03  2880   0.707E-03-0.272E-05
CGA:   9    -0.100583210892E+04   -0.49765E-04   -0.55924E-04  2880   0.518E-03 0.148E-03
CGA:  10    -0.100583215172E+04   -0.42797E-04   -0.48575E-04  2880   0.202E-03 0.140E-03
CGA:  11    -0.100583217779E+04   -0.26074E-04   -0.26519E-04  2880   0.198E-03 0.309E-04
CGA:  12    -0.100583220043E+04   -0.22634E-04   -0.22750E-04  2880   0.108E-03 0.622E-05
CGA:  13    -0.100583221610E+04   -0.15673E-04   -0.22340E-04  2880   0.220E-03-0.783E-04
CGA:  14    -0.100583223007E+04   -0.13972E-04   -0.12933E-04  2880   0.377E-04-0.192E-04
CGA:  15    -0.100583223160E+04   -0.15299E-05   -0.25472E-05  2880   0.152E-04 0.238E-04
   9 F= -.10058322E+04 E0= -.10058166E+04  d E =-.876379E-02  mag=     0.9988
       N       E                     dE             d eps       ncg     rms          ort
SDA:   1    -0.100578409907E+04    0.48131E-01    0.00000E+00  2880   0.253E+00 0.000E+00
CGA:   2    -0.100580207832E+04   -0.17979E-01   -0.17100E-01  2880   0.110E+00 0.327E-02
CGA:   3    -0.100582818950E+04   -0.26111E-01   -0.26244E-01  2880   0.614E-01-0.119E-02
CGA:   4    -0.100583243383E+04   -0.42443E-02   -0.42608E-02  2880   0.176E-01-0.782E-03
CGA:   5    -0.100583425773E+04   -0.18239E-02   -0.18287E-02  2880   0.751E-02 0.570E-03
CGA:   6    -0.100583539103E+04   -0.11333E-02   -0.11176E-02  2880   0.182E-02 0.481E-03
CGA:   7    -0.100583560057E+04   -0.20955E-03   -0.20699E-03  2880   0.190E-02-0.320E-03
CGA:   8    -0.100583579430E+04   -0.19372E-03   -0.19550E-03  2880   0.420E-03-0.179E-03
CGA:   9    -0.100583581760E+04   -0.23306E-04   -0.28401E-04  2880   0.269E-03 0.125E-03
CGA:  10    -0.100583584342E+04   -0.25814E-04   -0.29355E-04  2880   0.873E-04 0.125E-03
CGA:  11    -0.100583585592E+04   -0.12501E-04   -0.12693E-04  2880   0.864E-04 0.154E-04
CGA:  12    -0.100583586724E+04   -0.11321E-04   -0.11312E-04  2880   0.457E-04 0.240E-04
CGA:  13    -0.100583587396E+04   -0.67247E-05   -0.68515E-05  2880   0.620E-04-0.200E-04
CGA:  14    -0.100583588244E+04   -0.84787E-05    0.20839E-04  2880   0.513E-04-0.350E-04
  10 F= -.10058359E+04 E0= -.10058202E+04  d E =-.365084E-02  mag=     0.9984
       N       E                     dE             d eps       ncg     rms          ort
SDA:   1    -0.100534489692E+04    0.49098E+00    0.00000E+00  2880   0.138E+01 0.000E+00
CGA:   2    -0.100556519259E+04   -0.22030E+00   -0.21240E+00  2880   0.174E+01 0.139E+00
CGA:   3    -0.100578125784E+04   -0.21607E+00   -0.21604E+00  2880   0.298E+00 0.820E-02
CGA:   4    -0.100580910101E+04   -0.27843E-01   -0.26929E-01  2880   0.157E+00-0.112E-01
CGA:   5    -0.100582946927E+04   -0.20368E-01   -0.20394E-01  2880   0.608E-01-0.133E-02
CGA:   6    -0.100583477371E+04   -0.53044E-02   -0.53304E-02  2880   0.131E-01 0.738E-03
CGA:   7    -0.100583652720E+04   -0.17535E-02   -0.17592E-02  2880   0.104E-01-0.356E-03
CGA:   8    -0.100583781729E+04   -0.12901E-02   -0.12832E-02  2880   0.127E-02 0.414E-03
CGA:   9    -0.100583803438E+04   -0.21710E-03   -0.22436E-03  2880   0.207E-02-0.136E-03
CGA:  10    -0.100583827847E+04   -0.24409E-03   -0.24258E-03  2880   0.292E-03 0.906E-04
CGA:  11    -0.100583831597E+04   -0.37501E-04   -0.37227E-04  2880   0.242E-03 0.421E-04
CGA:  12    -0.100583836530E+04   -0.49330E-04   -0.51503E-04  2880   0.328E-03-0.322E-04
CGA:  13    -0.100583838299E+04   -0.17691E-04   -0.20032E-04  2880   0.714E-04 0.470E-04
CGA:  14    -0.100583838645E+04   -0.34594E-05   -0.44961E-05  2880   0.358E-04 0.164E-04
CGA:  15    -0.100583839004E+04   -0.35882E-05   -0.16178E-04  2880   0.194E-03-0.497E-04
CGA:  16    -0.100583840448E+04   -0.14440E-04   -0.14283E-04  2880   0.279E-04-0.549E-05
CGA:  17    -0.100583840422E+04    0.26474E-06   -0.10058E-05  2880   0.983E-05 0.145E-04
  11 F= -.10058384E+04 E0= -.10058227E+04  d E =-.252177E-02  mag=     0.9983
       N       E                     dE             d eps       ncg     rms          ort
SDA:   1    -0.100464058381E+04    0.11978E+01    0.00000E+00  2880   0.291E+01 0.000E+00
CGA:   2    -0.100526321956E+04   -0.62264E+00   -0.69043E+00  2880   0.778E+01-0.497E+00
CGA:   3    -0.100566340930E+04   -0.40019E+00   -0.42016E+00  2880   0.110E+01-0.179E+00
CGA:   4    -0.100572593542E+04   -0.62526E-01   -0.60521E-01  2880   0.442E+00 0.272E-02
CGA:   5    -0.100579001303E+04   -0.64078E-01   -0.63951E-01  2880   0.381E+00 0.250E-02
CGA:   6    -0.100581080689E+04   -0.20794E-01   -0.20996E-01  2880   0.656E-01-0.401E-02
CGA:   7    -0.100581633501E+04   -0.55281E-02   -0.55282E-02  2880   0.588E-01-0.469E-03
CGA:   8    -0.100582245288E+04   -0.61179E-02   -0.61235E-02  2880   0.290E-01 0.103E-02
CGA:   9    -0.100582443078E+04   -0.19779E-02   -0.19929E-02  2880   0.106E-01 0.387E-03
CGA:  10    -0.100582537944E+04   -0.94866E-03   -0.93704E-03  2880   0.537E-02-0.605E-03
CGA:  11    -0.100582610068E+04   -0.72124E-03   -0.73911E-03  2880   0.677E-02-0.497E-03
CGA:  12    -0.100582651002E+04   -0.40934E-03   -0.41475E-03  2880   0.139E-02 0.161E-03
CGA:  13    -0.100582660220E+04   -0.92181E-04   -0.99740E-04  2880   0.111E-02 0.191E-03
CGA:  14    -0.100582673981E+04   -0.13761E-03   -0.13708E-03  2880   0.634E-03 0.266E-03
CGA:  15    -0.100582679140E+04   -0.51591E-04   -0.53890E-04  2880   0.335E-03 0.550E-04
CGA:  16    -0.100582686103E+04   -0.69633E-04   -0.77319E-04  2880   0.501E-03-0.715E-04
CGA:  17    -0.100582689252E+04   -0.31483E-04   -0.25930E-04  2880   0.114E-03-0.128E-03
CGA:  18    -0.100582690194E+04   -0.94225E-05   -0.14451E-04  2880   0.385E-03-0.822E-04
CGA:  19    -0.100582691323E+04   -0.11288E-04   -0.16487E-04  2880   0.457E-04 0.729E-04
CGA:  20    -0.100582691467E+04   -0.14439E-05   -0.30618E-05  2880   0.397E-04 0.315E-04
  12 F= -.10058269E+04 E0= -.10058114E+04  d E =0.114895E-01  mag=     0.9979
       N       E                     dE             d eps       ncg     rms          ort
SDA:   1    -0.100568418384E+04    0.14273E+00    0.00000E+00  2880   0.691E+00 0.000E+00
CGA:   2    -0.100573472667E+04   -0.50543E-01   -0.49473E-01  2880   0.383E+00-0.641E-02
CGA:   3    -0.100582047100E+04   -0.85744E-01   -0.85454E-01  2880   0.103E+00 0.229E-02
CGA:   4    -0.100582951683E+04   -0.90458E-02   -0.88941E-02  2880   0.453E-01-0.936E-03
CGA:   5    -0.100583502963E+04   -0.55128E-02   -0.55187E-02  2880   0.248E-01-0.581E-03
CGA:   6    -0.100583772627E+04   -0.26966E-02   -0.26945E-02  2880   0.328E-02-0.351E-03
CGA:   7    -0.100583827330E+04   -0.54704E-03   -0.53149E-03  2880   0.352E-02 0.303E-03
CGA:   8    -0.100583861391E+04   -0.34060E-03   -0.34063E-03  2880   0.644E-03-0.320E-04
CGA:   9    -0.100583872003E+04   -0.10613E-03   -0.10815E-03  2880   0.787E-03-0.393E-04
CGA:  10    -0.100583881745E+04   -0.97411E-04   -0.10183E-03  2880   0.436E-03-0.231E-03
CGA:  11    -0.100583883938E+04   -0.21936E-04   -0.24228E-04  2880   0.114E-03 0.557E-04
CGA:  12    -0.100583885012E+04   -0.10736E-04   -0.12260E-04  2880   0.670E-04 0.707E-04
CGA:  13    -0.100583886037E+04   -0.10250E-04   -0.11136E-04  2880   0.165E-03-0.182E-04
CGA:  14    -0.100583886919E+04   -0.88225E-05   -0.99751E-05  2880   0.907E-04 0.325E-04
  13 F= -.10058389E+04 E0= -.10058233E+04  d E =-.119545E-01  mag=     0.9986
       N       E                     dE             d eps       ncg     rms          ort
SDA:   1    -0.100580976658E+04    0.29094E-01    0.00000E+00  2880   0.300E+00 0.000E+00
CGA:   2    -0.100582371001E+04   -0.13943E-01   -0.15318E-01  2880   0.526E-01-0.153E-01
CGA:   3    -0.100583623334E+04   -0.12523E-01   -0.12392E-01  2880   0.402E-01 0.903E-03
CGA:   4    -0.100583961325E+04   -0.33799E-02   -0.33468E-02  2880   0.965E-02 0.331E-03
CGA:   5    -0.100584063512E+04   -0.10219E-02   -0.10182E-02  2880   0.529E-02-0.400E-03
CGA:   6    -0.100584138942E+04   -0.75430E-03   -0.75362E-03  2880   0.164E-02 0.960E-05
CGA:   7    -0.100584152680E+04   -0.13738E-03   -0.13557E-03  2880   0.682E-03-0.807E-04
CGA:   8    -0.100584160997E+04   -0.83169E-04   -0.81132E-04  2880   0.130E-03 0.192E-03
CGA:   9    -0.100584165324E+04   -0.43273E-04   -0.51748E-04  2880   0.407E-03-0.439E-04
CGA:  10    -0.100584166620E+04   -0.12965E-04   -0.13478E-04  2880   0.179E-03 0.668E-05
CGA:  11    -0.100584167267E+04   -0.64649E-05   -0.72098E-05  2880   0.769E-04 0.825E-05
  14 F= -.10058417E+04 E0= -.10058261E+04  d E =-.280348E-02  mag=     0.9988
       N       E                     dE             d eps       ncg     rms          ort
SDA:   1    -0.100577807820E+04    0.63588E-01    0.00000E+00  2880   0.366E+00 0.000E+00
CGA:   2    -0.100579930434E+04   -0.21226E-01   -0.21838E-01  2880   0.141E+00-0.459E-02
CGA:   3    -0.100583475016E+04   -0.35446E-01   -0.35395E-01  2880   0.532E-01 0.255E-03
CGA:   4    -0.100583984899E+04   -0.50988E-02   -0.51495E-02  2880   0.105E-01 0.691E-03
CGA:   5    -0.100584185436E+04   -0.20054E-02   -0.20350E-02  2880   0.109E-01-0.451E-03
CGA:   6    -0.100584248035E+04   -0.62600E-03   -0.63827E-03  2880   0.101E-02 0.254E-03
CGA:   7    -0.100584269983E+04   -0.21948E-03   -0.20299E-03  2880   0.831E-03 0.211E-03
CGA:   8    -0.100584278143E+04   -0.81595E-04   -0.78345E-04  2880   0.300E-03-0.815E-04
CGA:   9    -0.100584282405E+04   -0.42622E-04   -0.42726E-04  2880   0.170E-03-0.347E-05
CGA:  10    -0.100584284755E+04   -0.23499E-04   -0.27615E-04  2880   0.351E-03-0.100E-03
CGA:  11    -0.100584285851E+04   -0.10966E-04   -0.14390E-04  2880   0.286E-04 0.396E-04
CGA:  12    -0.100584286001E+04   -0.15020E-05   -0.23818E-05  2880   0.264E-04 0.192E-04
  15 F= -.10058429E+04 E0= -.10058273E+04  d E =-.118735E-02  mag=     0.9990
       N       E                     dE             d eps       ncg     rms          ort
SDA:   1    -0.100510127395E+04    0.74158E+00    0.00000E+00  2880   0.187E+01 0.000E+00
CGA:   2    -0.100544527766E+04   -0.34400E+00   -0.37512E+00  2880   0.509E+01-0.324E+00
CGA:   3    -0.100574606393E+04   -0.30079E+00   -0.30688E+00  2880   0.713E+00-0.290E-01
CGA:   4    -0.100578133980E+04   -0.35276E-01   -0.38648E-01  2880   0.303E+00-0.451E-01
CGA:   5    -0.100582723625E+04   -0.45896E-01   -0.45892E-01  2880   0.172E+00-0.295E-04
CGA:   6    -0.100583520526E+04   -0.79690E-02   -0.84366E-02  2880   0.366E-01-0.508E-02
CGA:   7    -0.100584035540E+04   -0.51501E-02   -0.51435E-02  2880   0.328E-01 0.409E-04
CGA:   8    -0.100584307675E+04   -0.27214E-02   -0.27312E-02  2880   0.115E-01 0.320E-03
CGA:   9    -0.100584403592E+04   -0.95917E-03   -0.96819E-03  2880   0.338E-02 0.108E-03
CGA:  10    -0.100584448649E+04   -0.45057E-03   -0.45874E-03  2880   0.499E-02-0.424E-03
CGA:  11    -0.100584494544E+04   -0.45895E-03   -0.45846E-03  2880   0.106E-02-0.517E-04
CGA:  12    -0.100584499314E+04   -0.47695E-04   -0.57465E-04  2880   0.535E-03 0.155E-03
CGA:  13    -0.100584507362E+04   -0.80486E-04   -0.77397E-04  2880   0.517E-03 0.220E-03
CGA:  14    -0.100584512950E+04   -0.55875E-04   -0.55940E-04  2880   0.200E-03-0.265E-05
CGA:  15    -0.100584516979E+04   -0.40296E-04   -0.41717E-04  2880   0.922E-04-0.145E-04
CGA:  16    -0.100584519027E+04   -0.20477E-04    0.14590E-03  2880   0.693E-04-0.143E-05
CGA:  17    -0.100584520191E+04   -0.11644E-04   -0.13224E-04  2880   0.643E-04-0.204E-04
CGA:  18    -0.100584520674E+04   -0.48242E-05   -0.46130E-05  2880   0.289E-04-0.120E-04
  16 F= -.10058452E+04 E0= -.10058297E+04  d E =-.234672E-02  mag=     0.9991
       N       E                     dE             d eps       ncg     rms          ort
SDA:   1    -0.100183887520E+04    0.40063E+01    0.00000E+00  2880   0.117E+02 0.000E+00
CGA:   2    -0.100378101258E+04   -0.19421E+01   -0.17521E+01  2880   0.604E+01 0.367E+01
CGA:   3    -0.100403313133E+04   -0.25212E+00   -0.18280E+01  2880   0.332E+02-0.875E+01
CGA:   4    -0.100543609988E+04   -0.14030E+01   -0.23476E+01  2880   0.158E+01-0.195E+01
CGA:   5    -0.100548556665E+04   -0.49467E-01   -0.19599E+00  2880   0.883E+01-0.759E+01
CGA:   6    -0.100568480425E+04   -0.19924E+00   -0.53627E+00  2880   0.130E+01-0.186E+01
CGA:   7    -0.100577797105E+04   -0.93167E-01   -0.58849E-01  2880   0.134E+00 0.323E+00
CGA:   8    -0.100578681221E+04   -0.88412E-02   -0.80183E-02  2880   0.109E+00 0.110E-01
CGA:   9    -0.100580619508E+04   -0.19383E-01   -0.19428E-01  2880   0.392E+00-0.104E-02
CGA:  10    -0.100582356095E+04   -0.17366E-01   -0.17705E-01  2880   0.161E+00-0.495E-02
CGA:  11    -0.100582936389E+04   -0.58029E-02   -0.62774E-02  2880   0.618E-01-0.922E-02
CGA:  12    -0.100583220623E+04   -0.28423E-02   -0.29295E-02  2880   0.330E-01-0.786E-03
CGA:  13    -0.100583377102E+04   -0.15648E-02   -0.16044E-02  2880   0.216E-01 0.596E-03
CGA:  14    -0.100583540678E+04   -0.16358E-02   -0.16693E-02  2880   0.269E-01 0.119E-02
CGA:  15    -0.100583708022E+04   -0.16734E-02   -0.17048E-02  2880   0.147E-01 0.893E-03
CGA:  16    -0.100583781744E+04   -0.73722E-03   -0.72116E-03  2880   0.632E-02-0.250E-03
CGA:  17    -0.100583827410E+04   -0.45666E-03   -0.43986E-03  2880   0.668E-02-0.737E-03
CGA:  18    -0.100583875190E+04   -0.47780E-03   -0.46865E-03  2880   0.585E-02-0.705E-03
CGA:  19    -0.100583900192E+04   -0.25002E-03   -0.24114E-03  2880   0.243E-02-0.164E-03
CGA:  20    -0.100583914280E+04   -0.14088E-03   -0.14428E-03  2880   0.286E-02 0.882E-04
CGA:  21    -0.100583941012E+04   -0.26732E-03   -0.26706E-03  2880   0.338E-02 0.412E-03
CGA:  22    -0.100583956361E+04   -0.15350E-03   -0.16932E-03  2880   0.652E-03 0.326E-03
CGA:  23    -0.100583959574E+04   -0.32128E-04   -0.34985E-04  2880   0.468E-03 0.723E-04
CGA:  24    -0.100583966740E+04   -0.71660E-04   -0.71067E-04  2880   0.947E-03 0.101E-04
CGA:  25    -0.100583972484E+04   -0.57436E-04   -0.54749E-04  2880   0.252E-03-0.903E-04
CGA:  26    -0.100583973981E+04   -0.14973E-04   -0.13523E-04  2880   0.160E-03-0.557E-04
CGA:  27    -0.100583974870E+04   -0.88910E-05   -0.89674E-05  2880   0.141E-03 0.485E-05
  17 F= -.10058397E+04 E0= -.10058242E+04  d E =0.545804E-02  mag=     0.9988
       N       E                     dE             d eps       ncg     rms          ort
SDA:   1    -0.100439787525E+04    0.14419E+01    0.00000E+00  2880   0.379E+01 0.000E+00
CGA:   2    -0.100499435559E+04   -0.59648E+00   -0.67616E+00  2880   0.100E+02-0.696E+00
CGA:   3    -0.100561664957E+04   -0.62229E+00   -0.62321E+00  2880   0.211E+01 0.210E-01
CGA:   4    -0.100572001339E+04   -0.10336E+00   -0.10317E+00  2880   0.545E+00-0.438E-01
CGA:   5    -0.100578818754E+04   -0.68174E-01   -0.67325E-01  2880   0.637E+00 0.165E-01
CGA:   6    -0.100582906482E+04   -0.40877E-01   -0.41266E-01  2880   0.120E+00 0.180E-02
CGA:   7    -0.100583653393E+04   -0.74691E-02   -0.73502E-02  2880   0.588E-01-0.228E-02
CGA:   8    -0.100584441624E+04   -0.78823E-02   -0.79406E-02  2880   0.582E-01-0.114E-02
CGA:   9    -0.100584799239E+04   -0.35761E-02   -0.35849E-02  2880   0.141E-01 0.972E-03
CGA:  10    -0.100584908564E+04   -0.10932E-02   -0.10968E-02  2880   0.738E-02 0.544E-04
CGA:  11    -0.100584980762E+04   -0.72198E-03   -0.72348E-03  2880   0.682E-02-0.218E-03
CGA:  12    -0.100585054698E+04   -0.73936E-03   -0.73091E-03  2880   0.369E-02 0.334E-03
CGA:  13    -0.100585076709E+04   -0.22010E-03   -0.22230E-03  2880   0.889E-03 0.871E-04
CGA:  14    -0.100585089450E+04   -0.12742E-03   -0.16985E-03  2880   0.281E-02-0.430E-03
CGA:  15    -0.100585099013E+04   -0.95629E-04   -0.90585E-04  2880   0.263E-02-0.177E-03
CGA:  16    -0.100585106575E+04   -0.75618E-04   -0.82086E-04  2880   0.573E-03 0.896E-04
CGA:  17    -0.100585107865E+04   -0.12902E-04   -0.19540E-04  2880   0.308E-03 0.117E-03
CGA:  18    -0.100585109094E+04   -0.12290E-04   -0.17550E-04  2880   0.353E-03 0.142E-03
CGA:  19    -0.100585111757E+04   -0.26633E-04   -0.30465E-04  2880   0.253E-03 0.166E-03
CGA:  20    -0.100585113751E+04   -0.19932E-04   -0.20493E-04  2880   0.122E-03 0.205E-04
CGA:  21    -0.100585115209E+04   -0.14580E-04   -0.17169E-04  2880   0.205E-03-0.523E-04
CGA:  22    -0.100585115730E+04   -0.52089E-05   -0.45422E-05  2880   0.143E-03-0.155E-04
  18 F= -.10058512E+04 E0= -.10058357E+04  d E =-.114086E-01  mag=     0.9986
       N       E                     dE             d eps       ncg     rms          ort
SDA:   1    -0.100535869044E+04    0.49246E+00    0.00000E+00  2880   0.168E+01 0.000E+00
CGA:   2    -0.100551438445E+04   -0.15569E+00   -0.16067E+00  2880   0.188E+01-0.189E+00
CGA:   3    -0.100578990700E+04   -0.27552E+00   -0.27403E+00  2880   0.352E+00 0.171E-01
CGA:   4    -0.100581354247E+04   -0.23635E-01   -0.23403E-01  2880   0.175E+00-0.624E-02
CGA:   5    -0.100584209537E+04   -0.28553E-01   -0.28800E-01  2880   0.463E-01-0.298E-02
CGA:   6    -0.100584569318E+04   -0.35978E-02   -0.36188E-02  2880   0.225E-01 0.133E-02
CGA:   7    -0.100584798789E+04   -0.22947E-02   -0.22851E-02  2880   0.111E-01 0.654E-03
CGA:   8    -0.100584941323E+04   -0.14253E-02   -0.13983E-02  2880   0.369E-02 0.720E-03
CGA:   9    -0.100584978789E+04   -0.37466E-03   -0.37758E-03  2880   0.314E-02-0.424E-03
CGA:  10    -0.100585024891E+04   -0.46102E-03   -0.54998E-03  2880   0.145E-02-0.808E-03
CGA:  11    -0.100585032603E+04   -0.77126E-04   -0.81729E-04  2880   0.916E-03 0.239E-03
CGA:  12    -0.100585044672E+04   -0.12068E-03   -0.11583E-03  2880   0.317E-03 0.329E-03
CGA:  13    -0.100585048653E+04   -0.39809E-04   -0.39863E-04  2880   0.279E-03 0.263E-04
CGA:  14    -0.100585052128E+04   -0.34752E-04   -0.33426E-04  2880   0.137E-03 0.817E-04
CGA:  15    -0.100585054398E+04   -0.22703E-04   -0.25459E-04  2880   0.274E-03-0.571E-04
CGA:  16    -0.100585055907E+04   -0.15090E-04   -0.16547E-04  2880   0.200E-03-0.236E-03
CGA:  17    -0.100585057394E+04   -0.14867E-04   -0.15620E-04  2880   0.762E-04 0.374E-04
CGA:  18    -0.100585057637E+04   -0.24312E-05   -0.47668E-05  2880   0.334E-04 0.528E-04
  19 F= -.10058506E+04 E0= -.10058351E+04  d E =0.580926E-03  mag=     0.9991
       N       E                     dE             d eps       ncg     rms          ort
SDA:   1    -0.100563547230E+04    0.21510E+00    0.00000E+00  2880   0.774E+00 0.000E+00
CGA:   2    -0.100570651005E+04   -0.71038E-01   -0.71145E-01  2880   0.638E+00 0.360E-01
CGA:   3    -0.100583124524E+04   -0.12474E+00   -0.12880E+00  2880   0.146E+00-0.433E-01
CGA:   4    -0.100584187675E+04   -0.10632E-01   -0.10851E-01  2880   0.629E-01 0.232E-02
CGA:   5    -0.100585062421E+04   -0.87475E-02   -0.87022E-02  2880   0.217E-01 0.107E-02
CGA:   6    -0.100585271167E+04   -0.20875E-02   -0.20870E-02  2880   0.691E-02-0.302E-03
CGA:   7    -0.100585348842E+04   -0.77675E-03   -0.77380E-03  2880   0.424E-02 0.208E-03
CGA:   8    -0.100585408702E+04   -0.59861E-03   -0.60881E-03  2880   0.136E-02-0.282E-03
CGA:   9    -0.100585418319E+04   -0.96165E-04   -0.99830E-04  2880   0.532E-03 0.158E-03
CGA:  10    -0.100585429235E+04   -0.10916E-03   -0.10176E-03  2880   0.252E-03 0.104E-03
CGA:  11    -0.100585434342E+04   -0.51071E-04   -0.50871E-04  2880   0.199E-03 0.200E-05
CGA:  12    -0.100585436640E+04   -0.22983E-04   -0.23112E-04  2880   0.141E-03-0.168E-04
CGA:  13    -0.100585438394E+04   -0.17530E-04   -0.17926E-04  2880   0.513E-04-0.135E-04
CGA:  14    -0.100585439252E+04   -0.85871E-05   -0.84245E-05  2880   0.374E-04 0.209E-05
  20 F= -.10058544E+04 E0= -.10058389E+04  d E =-.381615E-02  mag=     0.9989
       N       E                     dE             d eps       ncg     rms          ort
SDA:   1    -0.100584290973E+04    0.11474E-01    0.00000E+00  2880   0.323E-01 0.000E+00
CGA:   2    -0.100584820613E+04   -0.52964E-02   -0.53031E-02  2880   0.519E-01-0.245E-03
CGA:   3    -0.100585351010E+04   -0.53040E-02   -0.53058E-02  2880   0.509E-02-0.885E-05
CGA:   4    -0.100585424296E+04   -0.73286E-03   -0.73068E-03  2880   0.376E-02 0.380E-04
CGA:   5    -0.100585456456E+04   -0.32160E-03   -0.33028E-03  2880   0.114E-02 0.310E-03
CGA:   6    -0.100585469816E+04   -0.13359E-03   -0.13321E-03  2880   0.354E-03-0.105E-03
CGA:   7    -0.100585476755E+04   -0.69393E-04   -0.70394E-04  2880   0.972E-04-0.101E-04
CGA:   8    -0.100585478010E+04   -0.12547E-04   -0.13267E-04  2880   0.156E-03-0.316E-04
CGA:   9    -0.100585478467E+04   -0.45781E-05   -0.67674E-05  2880   0.713E-04 0.406E-04
  21 F= -.10058548E+04 E0= -.10058393E+04  d E =-.392152E-03  mag=     0.9988
       N       E                     dE             d eps       ncg     rms          ort
SDA:   1    -0.100569826523E+04    0.15651E+00    0.00000E+00  2880   0.391E+00 0.000E+00
CGA:   2    -0.100578498450E+04   -0.86719E-01   -0.85804E-01  2880   0.650E+00 0.804E-02
CGA:   3    -0.100584120044E+04   -0.56216E-01   -0.56285E-01  2880   0.585E-01-0.187E-02
CGA:   4    -0.100584984428E+04   -0.86438E-02   -0.86737E-02  2880   0.394E-01-0.781E-03
CGA:   5    -0.100585362204E+04   -0.37778E-02   -0.37867E-02  2880   0.143E-01 0.350E-03
CGA:   6    -0.100585484678E+04   -0.12247E-02   -0.12265E-02  2880   0.346E-02-0.225E-03
CGA:   7    -0.100585543224E+04   -0.58545E-03   -0.57026E-03  2880   0.255E-02 0.277E-03
CGA:   8    -0.100585567930E+04   -0.24706E-03   -0.24104E-03  2880   0.629E-03-0.213E-03
CGA:   9    -0.100585575482E+04   -0.75527E-04   -0.74059E-04  2880   0.289E-03 0.112E-03
CGA:  10    -0.100585581793E+04   -0.63108E-04   -0.75927E-04  2880   0.656E-03-0.122E-03
CGA:  11    -0.100585583666E+04   -0.18734E-04   -0.21457E-04  2880   0.292E-03 0.411E-04
CGA:  12    -0.100585584298E+04   -0.63157E-05   -0.10479E-04  2880   0.798E-04 0.471E-04
  22 F= -.10058558E+04 E0= -.10058404E+04  d E =-.105831E-02  mag=     0.9988
       N       E                     dE             d eps       ncg     rms          ort
SDA:   1    -0.100385443112E+04    0.20014E+01    0.00000E+00  2880   0.471E+01 0.000E+00
CGA:   2    -0.100535801179E+04   -0.15036E+01   -0.15212E+01  2880   0.518E+01-0.769E-01
CGA:   3    -0.100564232201E+04   -0.28431E+00   -0.33341E+00  2880   0.906E+00-0.442E+00
CGA:   4    -0.100577388053E+04   -0.13156E+00   -0.13075E+00  2880   0.530E+00 0.149E-01
CGA:   5    -0.100581615120E+04   -0.42271E-01   -0.38185E-01  2880   0.922E-01 0.186E-01
CGA:   6    -0.100583172524E+04   -0.15574E-01   -0.15693E-01  2880   0.951E-01-0.264E-02
CGA:   7    -0.100583922393E+04   -0.74987E-02   -0.75997E-02  2880   0.108E-01 0.139E-02
CGA:   8    -0.100584126674E+04   -0.20428E-02   -0.20322E-02  2880   0.145E-01 0.900E-04
CGA:   9    -0.100584263297E+04   -0.13662E-02   -0.13660E-02  2880   0.372E-02-0.137E-03
CGA:  10    -0.100584299466E+04   -0.36168E-03   -0.36604E-03  2880   0.200E-02 0.200E-03
CGA:  11    -0.100584336907E+04   -0.37442E-03   -0.39178E-03  2880   0.287E-02-0.275E-03
CGA:  12    -0.100584360054E+04   -0.23147E-03   -0.23590E-03  2880   0.485E-03 0.155E-03
CGA:  13    -0.100584364445E+04   -0.43908E-04   -0.46537E-04  2880   0.425E-03 0.838E-04
CGA:  14    -0.100584373992E+04   -0.95471E-04   -0.10434E-03  2880   0.464E-03-0.100E-03
CGA:  15    -0.100584376494E+04   -0.25018E-04   -0.25985E-04  2880   0.128E-03 0.174E-04
CGA:  16    -0.100584377131E+04   -0.63735E-05   -0.78120E-05  2880   0.597E-04 0.219E-04
  23 F= -.10058438E+04 E0= -.10058284E+04  d E =0.120717E-01  mag=     0.9987
       N       E                     dE             d eps       ncg     rms          ort
SDA:   1    -0.100540754159E+04    0.43622E+00    0.00000E+00  2880   0.118E+01 0.000E+00
CGA:   2    -0.100564083702E+04   -0.23330E+00   -0.24873E+00  2880   0.261E+01-0.157E+00
CGA:   3    -0.100578761798E+04   -0.14678E+00   -0.15435E+00  2880   0.417E+00-0.551E-01
CGA:   4    -0.100582493310E+04   -0.37315E-01   -0.37042E-01  2880   0.197E+00-0.296E-02
CGA:   5    -0.100583994914E+04   -0.15016E-01   -0.15177E-01  2880   0.115E+00 0.914E-03
CGA:   6    -0.100585310076E+04   -0.13152E-01   -0.13160E-01  2880   0.458E-01 0.108E-02
CGA:   7    -0.100585575354E+04   -0.26528E-02   -0.25650E-02  2880   0.119E-01-0.564E-03
CGA:   8    -0.100585803002E+04   -0.22765E-02   -0.22698E-02  2880   0.131E-01 0.475E-04
CGA:   9    -0.100585877618E+04   -0.74616E-03   -0.77715E-03  2880   0.205E-02 0.371E-03
CGA:  10    -0.100585903947E+04   -0.26329E-03   -0.26372E-03  2880   0.255E-02-0.500E-04
CGA:  11    -0.100585931477E+04   -0.27530E-03   -0.27455E-03  2880   0.159E-02-0.154E-03
CGA:  12    -0.100585946315E+04   -0.14839E-03   -0.14951E-03  2880   0.589E-03 0.724E-04
CGA:  13    -0.100585949959E+04   -0.36438E-04   -0.38059E-04  2880   0.235E-03 0.250E-04
CGA:  14    -0.100585956053E+04   -0.60942E-04   -0.55368E-04  2880   0.291E-03 0.489E-04
CGA:  15    -0.100585958087E+04   -0.20333E-04   -0.21735E-04  2880   0.478E-04 0.245E-04
CGA:  16    -0.100585959541E+04   -0.14544E-04    0.13420E-04  2880   0.217E-04 0.330E-04
CGA:  17    -0.100585960154E+04   -0.61328E-05    0.53811E-05  2880   0.150E-04 0.140E-04
  24 F= -.10058596E+04 E0= -.10058442E+04  d E =-.158302E-01  mag=     0.9989
       N       E                     dE             d eps       ncg     rms          ort
SDA:   1    -0.100577779973E+04    0.81796E-01    0.00000E+00  2880   0.227E+00 0.000E+00
CGA:   2    -0.100581426885E+04   -0.36469E-01   -0.36404E-01  2880   0.355E+00-0.290E-04
CGA:   3    -0.100585163414E+04   -0.37365E-01   -0.37454E-01  2880   0.291E-01 0.383E-02
CGA:   4    -0.100585787006E+04   -0.62359E-02   -0.63079E-02  2880   0.297E-01-0.801E-03
CGA:   5    -0.100585955205E+04   -0.16820E-02   -0.16705E-02  2880   0.340E-02 0.588E-03
CGA:   6    -0.100586019719E+04   -0.64514E-03   -0.62974E-03  2880   0.239E-02 0.243E-03
CGA:   7    -0.100586045849E+04   -0.26130E-03   -0.25857E-03  2880   0.130E-02-0.145E-03
CGA:   8    -0.100586054728E+04   -0.88790E-04   -0.91340E-04  2880   0.336E-03 0.557E-04
CGA:   9    -0.100586062535E+04   -0.78068E-04   -0.79190E-04  2880   0.493E-03-0.113E-04
CGA:  10    -0.100586066781E+04   -0.42455E-04   -0.37478E-04  2880   0.167E-03-0.112E-03
CGA:  11    -0.100586067883E+04   -0.11018E-04   -0.12244E-04  2880   0.685E-04 0.443E-04
CGA:  12    -0.100586068138E+04   -0.25532E-05   -0.52054E-05  2880   0.367E-04 0.435E-04
  25 F= -.10058607E+04 E0= -.10058453E+04  d E =-.107984E-02  mag=     0.9990
       N       E                     dE             d eps       ncg     rms          ort
SDA:   1    -0.100583200185E+04    0.28677E-01    0.00000E+00  2880   0.109E+00 0.000E+00
CGA:   2    -0.100584121121E+04   -0.92094E-02   -0.95342E-02  2880   0.940E-01-0.695E-03
CGA:   3    -0.100585808598E+04   -0.16875E-01   -0.16867E-01  2880   0.158E-01 0.139E-03
CGA:   4    -0.100585997878E+04   -0.18928E-02   -0.18929E-02  2880   0.758E-02-0.138E-03
CGA:   5    -0.100586082719E+04   -0.84841E-03   -0.85042E-03  2880   0.440E-02 0.169E-03
CGA:   6    -0.100586121149E+04   -0.38430E-03   -0.38335E-03  2880   0.611E-03-0.756E-04
CGA:   7    -0.100586132645E+04   -0.11497E-03   -0.11036E-03  2880   0.488E-03 0.742E-04
CGA:   8    -0.100586138102E+04   -0.54567E-04   -0.51846E-04  2880   0.233E-03-0.924E-04
CGA:   9    -0.100586139841E+04   -0.17388E-04   -0.18412E-04  2880   0.428E-04 0.374E-04
CGA:  10    -0.100586141600E+04   -0.17592E-04   -0.21610E-04  2880   0.670E-04-0.129E-04
CGA:  11    -0.100586141842E+04   -0.24161E-05   -0.27018E-05  2880   0.244E-04 0.334E-05
  26 F= -.10058614E+04 E0= -.10058460E+04  d E =-.737038E-03  mag=     0.9990
