       N       E                     dE             d eps       ncg     rms          rms(c)
DAV:   1     0.305211719848E+04    0.30521E+04   -0.25834E+05 73572   0.130E+03
DAV:   2    -0.613696694942E+03   -0.36658E+04   -0.35374E+04 89544   0.298E+02
DAV:   3    -0.871494185233E+03   -0.25780E+03   -0.25565E+03 88944   0.833E+01
DAV:   4    -0.874710526897E+03   -0.32163E+01   -0.32043E+01 89472   0.999E+00
DAV:   5    -0.874764710431E+03   -0.54184E-01   -0.54049E-01 90960   0.120E+00    0.989E+01
DAV:   6    -0.781937877214E+03    0.92827E+02   -0.39477E+02 83652   0.316E+01    0.505E+01
DAV:   7    -0.790590598060E+03   -0.86527E+01   -0.25933E+01 84816   0.908E+00    0.185E+01
DAV:   8    -0.793906742496E+03   -0.33161E+01   -0.82634E+00103356   0.560E+00    0.118E+01
DAV:   9    -0.795933697310E+03   -0.20270E+01   -0.62023E+00 93600   0.332E+00    0.866E+00
DAV:  10    -0.796371804358E+03   -0.43811E+00   -0.43852E+00 96420   0.290E+00    0.643E+00
DAV:  11    -0.796930882713E+03   -0.55908E+00   -0.40979E+00 99348   0.245E+00    0.442E+00
DAV:  12    -0.797229242806E+03   -0.29836E+00   -0.96158E-01 92772   0.146E+00    0.374E+00
DAV:  13    -0.797259696003E+03   -0.30453E-01   -0.18576E+00 99204   0.132E+00    0.254E+00
DAV:  14    -0.797356794549E+03   -0.97099E-01   -0.27885E-01 92172   0.113E+00    0.275E+00
DAV:  15    -0.797341011463E+03    0.15783E-01   -0.54810E-01100320   0.673E-01    0.290E+00
DAV:  16    -0.797334483465E+03    0.65280E-02   -0.19871E-01 94668   0.436E-01    0.306E+00
DAV:  17    -0.797318757553E+03    0.15726E-01   -0.20311E-02 90372   0.344E-01    0.200E+00
DAV:  18    -0.797299720217E+03    0.19037E-01   -0.47766E-02102912   0.479E-01    0.697E-01
DAV:  19    -0.797306409476E+03   -0.66893E-02   -0.19187E-02 85464   0.249E-01    0.797E-01
DAV:  20    -0.797307396423E+03   -0.98695E-03   -0.15392E-03 83304   0.797E-02    0.778E-01
DAV:  21    -0.797308222972E+03   -0.82655E-03   -0.35422E-04 88476   0.271E-02    0.832E-01
DAV:  22    -0.797302851966E+03    0.53710E-02   -0.62778E-03 97968   0.161E-01    0.723E-01
DAV:  23    -0.797303267766E+03   -0.41580E-03   -0.11943E-02 90564   0.128E-01    0.227E-01
DAV:  24    -0.797303624516E+03   -0.35675E-03   -0.16622E-03 86256   0.933E-02    0.175E-01
DAV:  25    -0.797303754334E+03   -0.12982E-03   -0.10217E-03 91764   0.664E-02    0.214E-01
DAV:  26    -0.797303804341E+03   -0.50007E-04   -0.68518E-04 96300   0.492E-02    0.234E-01
DAV:  27    -0.797303709345E+03    0.94996E-04   -0.18532E-04 77520   0.297E-02    0.137E-01
DAV:  28    -0.797304028699E+03   -0.31935E-03   -0.19995E-04 90180   0.232E-02    0.324E-01
DAV:  29    -0.797303598770E+03    0.42993E-03   -0.35593E-04 89796   0.417E-02    0.120E-01
DAV:  30    -0.797303735361E+03   -0.13659E-03   -0.15104E-04 74580   0.271E-02    0.683E-02
DAV:  31    -0.797303723859E+03    0.11502E-04   -0.24724E-05 63540   0.114E-02    0.217E-02
DAV:  32    -0.797303729842E+03   -0.59833E-05   -0.82673E-06 47256   0.596E-03
   1 F= -.79730373E+03 E0= -.79728367E+03  d E =-.797304E+03  mag=    -0.5956
       N       E                     dE             d eps       ncg     rms          rms(c)
DAV:   1    -0.797304579045E+03   -0.85519E-03   -0.17764E-02 75624   0.246E-01    0.162E-01
DAV:   2    -0.797308312790E+03   -0.37337E-02   -0.21474E-02110964   0.142E-01    0.117E+00
DAV:   3    -0.797303723595E+03    0.45892E-02   -0.18277E-02100632   0.125E-01    0.983E-02
DAV:   4    -0.797304619018E+03   -0.89542E-03   -0.58189E-04 78396   0.413E-02    0.166E-01
DAV:   5    -0.797304636724E+03   -0.17706E-04   -0.35173E-05 76716   0.162E-02    0.165E-01
DAV:   6    -0.797304610303E+03    0.26421E-04   -0.12719E-05 56592   0.539E-03    0.159E-01
DAV:   7    -0.797304613239E+03   -0.29361E-05   -0.42991E-05 54624   0.816E-03
   2 F= -.79730461E+03 E0= -.79728471E+03  d E =-.883397E-03  mag=    -0.6029
       N       E                     dE             d eps       ncg     rms          rms(c)
DAV:   1    -0.797305385087E+03   -0.77478E-03   -0.19073E-02 75528   0.251E-01    0.314E-01
DAV:   2    -0.797321482792E+03   -0.16098E-01   -0.12546E-01116868   0.274E-01    0.247E+00
DAV:   3    -0.797305698609E+03    0.15784E-01   -0.36273E-02 95436   0.216E-01    0.104E+00
DAV:   4    -0.797303347182E+03    0.23514E-02   -0.22258E-02 78660   0.112E-01    0.245E-01
DAV:   5    -0.797304947500E+03   -0.16003E-02   -0.14156E-03 77856   0.831E-02    0.132E-01
DAV:   6    -0.797305090006E+03   -0.14251E-03   -0.40178E-04 87108   0.416E-02    0.919E-02
DAV:   7    -0.797305091310E+03   -0.13035E-05   -0.13518E-04 82332   0.222E-02    0.478E-02
DAV:   8    -0.797305083681E+03    0.76290E-05   -0.49466E-05 58668   0.120E-02
   3 F= -.79730508E+03 E0= -.79728490E+03  d E =-.470442E-03  mag=    -0.6022
       N       E                     dE             d eps       ncg     rms          rms(c)
DAV:   1    -0.797306133325E+03   -0.10420E-02   -0.18740E-01 74448   0.798E-01    0.262E-01
DAV:   2    -0.797316239928E+03   -0.10107E-01   -0.61183E-02104040   0.252E-01    0.188E+00
DAV:   3    -0.797304236789E+03    0.12003E-01   -0.54448E-02100524   0.201E-01    0.154E-01
DAV:   4    -0.797306442882E+03   -0.22061E-02   -0.12578E-03 78744   0.637E-02    0.252E-01
DAV:   5    -0.797306348143E+03    0.94738E-04   -0.25082E-04 83004   0.279E-02    0.205E-01
DAV:   6    -0.797306114128E+03    0.23401E-03   -0.48382E-04 87168   0.305E-02    0.773E-02
DAV:   7    -0.797306197997E+03   -0.83869E-04   -0.18254E-04 76908   0.247E-02    0.513E-02
DAV:   8    -0.797306206227E+03   -0.82298E-05   -0.39768E-05 70908   0.153E-02
   4 F= -.79730621E+03 E0= -.79728594E+03  d E =-.112255E-02  mag=    -0.6091
       N       E                     dE             d eps       ncg     rms          rms(c)
DAV:   1    -0.797307815536E+03   -0.16175E-02   -0.74911E-01 73584   0.159E+00    0.724E-01
DAV:   2    -0.797375152200E+03   -0.67337E-01   -0.44848E-01112992   0.713E-01    0.382E+00
DAV:   3    -0.797301290963E+03    0.73861E-01   -0.21615E-01109140   0.510E-01    0.508E-01
DAV:   4    -0.797308318468E+03   -0.70275E-02   -0.63746E-03 79248   0.131E-01    0.555E-01
DAV:   5    -0.797307297965E+03    0.10205E-02   -0.18408E-03 88116   0.520E-02    0.333E-01
DAV:   6    -0.797306929775E+03    0.36819E-03   -0.20404E-03 89976   0.682E-02    0.232E-01
DAV:   7    -0.797307083283E+03   -0.15351E-03   -0.73160E-04 82332   0.567E-02    0.880E-02
DAV:   8    -0.797307117094E+03   -0.33811E-04   -0.36370E-04 89604   0.353E-02    0.110E-01
DAV:   9    -0.797307088462E+03    0.28631E-04   -0.10010E-04 80616   0.216E-02    0.502E-02
DAV:  10    -0.797307090099E+03   -0.16367E-05   -0.10020E-04 78828   0.153E-02    0.482E-02
DAV:  11    -0.797307087203E+03    0.28966E-05   -0.54203E-05 55260   0.117E-02
   5 F= -.79730709E+03 E0= -.79728691E+03  d E =-.880976E-03  mag=    -0.6256
       N       E                     dE             d eps       ncg     rms          rms(c)
DAV:   1    -0.797306255775E+03    0.83432E-03   -0.22671E+00 73440   0.279E+00    0.984E-01
DAV:   2    -0.797391618795E+03   -0.85363E-01   -0.60964E-01107520   0.933E-01    0.403E+00
DAV:   3    -0.797305990037E+03    0.85629E-01   -0.33857E-01107472   0.602E-01    0.129E+00
DAV:   4    -0.797309845059E+03   -0.38550E-02   -0.21972E-02 82884   0.268E-01    0.757E-01
DAV:   5    -0.797310526127E+03   -0.68107E-03   -0.22532E-03 86520   0.819E-02    0.793E-01
DAV:   6    -0.797309275548E+03    0.12506E-02   -0.13851E-03 90060   0.440E-02    0.693E-01
DAV:   7    -0.797308280059E+03    0.99549E-03   -0.12942E-02 97248   0.158E-01    0.768E-01
DAV:   8    -0.797307369223E+03    0.91084E-03   -0.91173E-03 90336   0.143E-01    0.259E-01
DAV:   9    -0.797307656951E+03   -0.28773E-03   -0.13596E-03 86316   0.683E-02    0.207E-01
DAV:  10    -0.797307428797E+03    0.22815E-03   -0.49286E-04 85548   0.487E-02    0.117E-01
DAV:  11    -0.797307482634E+03   -0.53837E-04   -0.57302E-04 86796   0.397E-02    0.148E-01
DAV:  12    -0.797307414632E+03    0.68002E-04   -0.10020E-04 82020   0.189E-02    0.755E-02
DAV:  13    -0.797307403048E+03    0.11584E-04   -0.93070E-05 72756   0.127E-02    0.336E-02
DAV:  14    -0.797307409472E+03   -0.64237E-05   -0.12373E-05 50472   0.749E-03
   6 F= -.79730741E+03 E0= -.79728732E+03  d E =-.322269E-03  mag=    -0.6437
       N       E                     dE             d eps       ncg     rms          rms(c)
DAV:   1    -0.797304952063E+03    0.24510E-02   -0.11685E+00 73440   0.200E+00    0.665E-01
DAV:   2    -0.797320082955E+03   -0.15131E-01   -0.12856E-01 98040   0.537E-01    0.207E+00
DAV:   3    -0.797305513977E+03    0.14569E-01   -0.75236E-02105792   0.358E-01    0.349E-01
DAV:   4    -0.797306545566E+03   -0.10316E-02   -0.67401E-03 85200   0.142E-01    0.251E-01
DAV:   5    -0.797306451657E+03    0.93909E-04   -0.28323E-03 90864   0.781E-02    0.235E-01
DAV:   6    -0.797306379101E+03    0.72556E-04   -0.74050E-04 87456   0.424E-02    0.162E-01
DAV:   7    -0.797306605553E+03   -0.22645E-03   -0.42002E-04 79944   0.220E-02    0.245E-01
DAV:   8    -0.797306197967E+03    0.40759E-03   -0.13979E-03 81000   0.370E-02    0.127E-01
DAV:   9    -0.797306256739E+03   -0.58772E-04   -0.47796E-04 85896   0.326E-02    0.104E-01
DAV:  10    -0.797306275974E+03   -0.19235E-04   -0.36660E-04 76008   0.227E-02    0.782E-02
DAV:  11    -0.797306265673E+03    0.10301E-04   -0.13441E-04 68220   0.156E-02    0.499E-02
DAV:  12    -0.797306263467E+03    0.22055E-05   -0.31133E-05 51168   0.884E-03
   7 F= -.79730626E+03 E0= -.79728617E+03  d E =0.114600E-02  mag=    -0.6399
       N       E                     dE             d eps       ncg     rms          rms(c)
DAV:   1    -0.797308536704E+03   -0.22710E-02   -0.52602E-01 73440   0.133E+00    0.548E-01
DAV:   2    -0.797323866272E+03   -0.15330E-01   -0.11592E-01 96936   0.401E-01    0.233E+00
DAV:   3    -0.797307378688E+03    0.16488E-01   -0.12454E-01100536   0.307E-01    0.463E-01
DAV:   4    -0.797309477994E+03   -0.20993E-02   -0.10136E-02 80760   0.149E-01    0.291E-01
DAV:   5    -0.797310227017E+03   -0.74902E-03   -0.25076E-03 86556   0.772E-02    0.416E-01
DAV:   6    -0.797309637825E+03    0.58919E-03   -0.64366E-04 77244   0.414E-02    0.345E-01
DAV:   7    -0.797308910998E+03    0.72683E-03   -0.26811E-03 90660   0.630E-02    0.125E-01
DAV:   8    -0.797309155392E+03   -0.24439E-03   -0.96584E-04 79380   0.475E-02    0.110E-01
DAV:   9    -0.797309155866E+03   -0.47396E-06   -0.13728E-04 78348   0.265E-02    0.429E-02
DAV:  10    -0.797309160223E+03   -0.43568E-05   -0.11739E-04 72732   0.128E-02    0.506E-02
DAV:  11    -0.797309154981E+03    0.52421E-05   -0.22829E-05 52716   0.960E-03
   8 F= -.79730915E+03 E0= -.79728907E+03  d E =-.289151E-02  mag=    -0.6425
       N       E                     dE             d eps       ncg     rms          rms(c)
DAV:   1    -0.797309154383E+03    0.58400E-05   -0.15191E-01 73584   0.719E-01    0.233E-01
DAV:   2    -0.797314418124E+03   -0.52637E-02   -0.35025E-02105612   0.219E-01    0.135E+00
DAV:   3    -0.797308549633E+03    0.58685E-02   -0.29082E-02104556   0.167E-01    0.258E-01
DAV:   4    -0.797309326183E+03   -0.77655E-03   -0.13218E-03 80004   0.635E-02    0.808E-02
DAV:   5    -0.797309443830E+03   -0.11765E-03   -0.48863E-04 88176   0.264E-02    0.149E-01
DAV:   6    -0.797309324310E+03    0.11952E-03   -0.16355E-04 74532   0.185E-02    0.828E-02
DAV:   7    -0.797309295698E+03    0.28613E-04   -0.28967E-04 76392   0.182E-02    0.272E-02
DAV:   8    -0.797309314079E+03   -0.18381E-04   -0.24206E-05 61188   0.120E-02    0.181E-02
DAV:   9    -0.797309314690E+03   -0.61184E-06   -0.21931E-05 44520   0.696E-03
   9 F= -.79730931E+03 E0= -.79728928E+03  d E =-.159709E-03  mag=    -0.6449
       N       E                     dE             d eps       ncg     rms          rms(c)
DAV:   1    -0.797297880247E+03    0.11434E-01   -0.64139E+00 73440   0.466E+00    0.890E-01
DAV:   2    -0.797370223889E+03   -0.72344E-01   -0.55394E-01 92844   0.960E-01    0.382E+00
DAV:   3    -0.797305157540E+03    0.65066E-01   -0.32222E-01100248   0.544E-01    0.107E+00
DAV:   4    -0.797309416021E+03   -0.42585E-02   -0.18630E-02 82056   0.243E-01    0.508E-01
DAV:   5    -0.797312021247E+03   -0.26052E-02   -0.70957E-03 88704   0.977E-02    0.822E-01
DAV:   6    -0.797307969135E+03    0.40521E-02   -0.63623E-03 85296   0.121E-01    0.532E-01
DAV:   7    -0.797307403644E+03    0.56549E-03   -0.10486E-02 84216   0.104E-01    0.300E-01
DAV:   8    -0.797307953365E+03   -0.54972E-03   -0.49985E-03 87576   0.109E-01    0.318E-01
DAV:   9    -0.797307682437E+03    0.27093E-03   -0.15947E-03 85800   0.593E-02    0.118E-01
DAV:  10    -0.797307698504E+03   -0.16067E-04   -0.48122E-04 82872   0.413E-02    0.651E-02
DAV:  11    -0.797307701783E+03   -0.32788E-05   -0.25044E-04 88296   0.219E-02    0.492E-02
DAV:  12    -0.797307699196E+03    0.25869E-05   -0.29114E-05 52776   0.936E-03
  10 F= -.79730770E+03 E0= -.79728776E+03  d E =0.161549E-02  mag=    -0.6542
       N       E                     dE             d eps       ncg     rms          rms(c)
DAV:   1    -0.797296467371E+03    0.11234E-01   -0.68031E+00 73440   0.481E+00    0.978E-01
DAV:   2    -0.797347850598E+03   -0.51383E-01   -0.53756E-01 92052   0.102E+00    0.259E+00
DAV:   3    -0.797311595222E+03    0.36255E-01   -0.15740E-01102132   0.550E-01    0.127E+00
DAV:   4    -0.797306705746E+03    0.48895E-02   -0.15561E-02 86904   0.222E-01    0.392E-01
DAV:   5    -0.797306915401E+03   -0.20966E-03   -0.81831E-03 88896   0.147E-01    0.295E-01
DAV:   6    -0.797306997742E+03   -0.82341E-04   -0.33721E-03 88032   0.898E-02    0.184E-01
DAV:   7    -0.797307606025E+03   -0.60828E-03   -0.10077E-03 86988   0.471E-02    0.427E-01
DAV:   8    -0.797306685894E+03    0.92013E-03   -0.20820E-03 79176   0.558E-02    0.263E-01
DAV:   9    -0.797306571023E+03    0.11487E-03   -0.55449E-04 87168   0.470E-02    0.114E-01
DAV:  10    -0.797306731528E+03   -0.16050E-03   -0.39642E-04 75672   0.406E-02    0.570E-02
DAV:  11    -0.797306736652E+03   -0.51236E-05   -0.10637E-04 79668   0.140E-02    0.581E-02
DAV:  12    -0.797306729854E+03    0.67982E-05   -0.13160E-04 58968   0.127E-02    0.395E-02
DAV:  13    -0.797306727491E+03    0.23627E-05   -0.20292E-05 47796   0.651E-03
  11 F= -.79730673E+03 E0= -.79728682E+03  d E =0.971705E-03  mag=    -0.6534
       N       E                     dE             d eps       ncg     rms          rms(c)
DAV:   1    -0.797301520392E+03    0.52095E-02   -0.39722E+00 73440   0.370E+00    0.881E-01
DAV:   2    -0.797328912471E+03   -0.27392E-01   -0.27858E-01 90300   0.782E-01    0.215E+00
DAV:   3    -0.797306300543E+03    0.22612E-01   -0.39449E-02 99312   0.462E-01    0.400E-01
DAV:   4    -0.797308836772E+03   -0.25362E-02   -0.15202E-02 84348   0.198E-01    0.596E-01
DAV:   5    -0.797308857028E+03   -0.20256E-04   -0.13082E-02 86964   0.123E-01    0.450E-01
DAV:   6    -0.797309423468E+03   -0.56644E-03   -0.10162E-03 86472   0.538E-02    0.589E-01
DAV:   7    -0.797307389003E+03    0.20345E-02   -0.26972E-03 78612   0.653E-02    0.218E-01
DAV:   8    -0.797307603201E+03   -0.21420E-03   -0.55764E-03 90648   0.676E-02    0.287E-01
DAV:   9    -0.797307660499E+03   -0.57298E-04   -0.39886E-03 78336   0.685E-02    0.971E-02
DAV:  10    -0.797307650114E+03    0.10385E-04   -0.33988E-04 85200   0.304E-02    0.631E-02
DAV:  11    -0.797307655792E+03   -0.56781E-05   -0.23533E-04 71880   0.167E-02    0.511E-02
DAV:  12    -0.797307648598E+03    0.71938E-05   -0.49500E-05 54264   0.999E-03
  12 F= -.79730765E+03 E0= -.79728770E+03  d E =-.921107E-03  mag=    -0.6429
       N       E                     dE             d eps       ncg     rms          rms(c)
DAV:   1    -0.797308962768E+03   -0.13070E-02   -0.94481E-01 73440   0.181E+00    0.588E-01
DAV:   2    -0.797313945268E+03   -0.49825E-02   -0.73602E-02 95748   0.442E-01    0.153E+00
DAV:   3    -0.797310539267E+03    0.34060E-02   -0.54774E-02101148   0.268E-01    0.527E-01
DAV:   4    -0.797310904800E+03   -0.36553E-03   -0.12907E-02 89088   0.129E-01    0.452E-01
DAV:   5    -0.797310272787E+03    0.63201E-03   -0.18042E-03 87552   0.782E-02    0.135E-01
DAV:   6    -0.797310255383E+03    0.17404E-04   -0.11255E-03 90024   0.487E-02    0.905E-02
DAV:   7    -0.797310290106E+03   -0.34722E-04   -0.15188E-04 82620   0.273E-02    0.104E-01
DAV:   8    -0.797310301935E+03   -0.11829E-04   -0.43981E-05 64848   0.978E-03    0.111E-01
DAV:   9    -0.797310236964E+03    0.64971E-04   -0.18629E-04 73788   0.158E-02    0.379E-02
DAV:  10    -0.797310244687E+03   -0.77229E-05   -0.37998E-05 50400   0.942E-03
  13 F= -.79731024E+03 E0= -.79729023E+03  d E =-.259609E-02  mag=    -0.6387
       N       E                     dE             d eps       ncg     rms          rms(c)
DAV:   1    -0.797308440971E+03    0.17960E-02   -0.90523E-01 73440   0.175E+00    0.178E-01
DAV:   2    -0.797310209477E+03   -0.17685E-02   -0.19401E-02 86400   0.239E-01    0.126E-01
DAV:   3    -0.797310378326E+03   -0.16885E-03   -0.20678E-03101184   0.578E-02    0.287E-01
DAV:   4    -0.797310051732E+03    0.32659E-03   -0.13808E-03 97332   0.410E-02    0.778E-02
DAV:   5    -0.797310102968E+03   -0.51236E-04   -0.21337E-04 88164   0.251E-02    0.103E-01
DAV:   6    -0.797310143328E+03   -0.40360E-04   -0.43452E-05 66864   0.991E-03    0.136E-01
DAV:   7    -0.797310014957E+03    0.12837E-03   -0.52686E-04 78312   0.253E-02    0.678E-02
DAV:   8    -0.797310027234E+03   -0.12277E-04   -0.11624E-04 78648   0.190E-02    0.205E-02
DAV:   9    -0.797310034724E+03   -0.74898E-05   -0.14738E-05 53088   0.929E-03
  14 F= -.79731003E+03 E0= -.79729002E+03  d E =0.209963E-03  mag=    -0.6416
       N       E                     dE             d eps       ncg     rms          rms(c)
DAV:   1    -0.797307950620E+03    0.20766E-02   -0.75703E-01 73440   0.161E+00    0.591E-01
DAV:   2    -0.797321813547E+03   -0.13863E-01   -0.10700E-01103716   0.502E-01    0.205E+00
DAV:   3    -0.797306656867E+03    0.15157E-01   -0.29332E-02102612   0.354E-01    0.313E-01
DAV:   4    -0.797308736345E+03   -0.20795E-02   -0.72431E-03 80184   0.126E-01    0.271E-01
DAV:   5    -0.797309276221E+03   -0.53988E-03   -0.20352E-03 95796   0.718E-02    0.444E-01
DAV:   6    -0.797309220861E+03    0.55360E-04   -0.87662E-04 77460   0.400E-02    0.421E-01
DAV:   7    -0.797308460689E+03    0.76017E-03   -0.73177E-04 81408   0.345E-02    0.109E-01
DAV:   8    -0.797308621645E+03   -0.16096E-03   -0.30832E-04 80232   0.303E-02    0.806E-02
DAV:   9    -0.797308683648E+03   -0.62003E-04   -0.34162E-04 75072   0.288E-02    0.779E-02
DAV:  10    -0.797308672189E+03    0.11459E-04   -0.70647E-05 58188   0.139E-02    0.217E-02
DAV:  11    -0.797308674238E+03   -0.20490E-05   -0.20034E-05 47460   0.659E-03
  15 F= -.79730867E+03 E0= -.79728877E+03  d E =0.136049E-02  mag=    -0.6389
       N       E                     dE             d eps       ncg     rms          rms(c)
DAV:   1    -0.797309953470E+03   -0.12813E-02   -0.13454E-01 73440   0.674E-01    0.399E-01
DAV:   2    -0.797314071802E+03   -0.41183E-02   -0.50958E-02108756   0.310E-01    0.150E+00
DAV:   3    -0.797309697330E+03    0.43745E-02   -0.42631E-02109812   0.227E-01    0.463E-01
DAV:   4    -0.797309759145E+03   -0.61815E-04   -0.40140E-03 84612   0.840E-02    0.100E-01
DAV:   5    -0.797309930040E+03   -0.17090E-03   -0.80004E-04 82788   0.518E-02    0.139E-01
DAV:   6    -0.797309911957E+03    0.18084E-04   -0.49084E-04 89784   0.282E-02    0.117E-01
DAV:   7    -0.797309876516E+03    0.35440E-04   -0.34657E-05 67824   0.107E-02    0.906E-02
DAV:   8    -0.797309820535E+03    0.55982E-04   -0.18113E-04 75144   0.161E-02    0.272E-02
DAV:   9    -0.797309845969E+03   -0.25434E-04   -0.65084E-05 67608   0.133E-02    0.399E-02
DAV:  10    -0.797309843728E+03    0.22411E-05   -0.25823E-05 50592   0.825E-03
  16 F= -.79730984E+03 E0= -.79728989E+03  d E =-.116949E-02  mag=    -0.6355
       N       E                     dE             d eps       ncg     rms          rms(c)
DAV:   1    -0.797309770147E+03    0.75822E-04   -0.51679E-02 73488   0.419E-01    0.157E-01
DAV:   2    -0.797310541616E+03   -0.77147E-03   -0.88695E-03103884   0.130E-01    0.583E-01
DAV:   3    -0.797309835116E+03    0.70650E-03   -0.67847E-03108792   0.914E-02    0.202E-01
DAV:   4    -0.797309792989E+03    0.42126E-04   -0.71438E-04 84852   0.359E-02    0.345E-02
DAV:   5    -0.797309816803E+03   -0.23813E-04   -0.59189E-05 78816   0.146E-02    0.405E-02
DAV:   6    -0.797309823850E+03   -0.70472E-05   -0.46484E-05 50760   0.796E-03
  17 F= -.79730982E+03 E0= -.79728989E+03  d E =0.198777E-04  mag=    -0.6352
