       N       E                     dE             d eps       ncg     rms          rms(c)
DAV:   1     0.312077582311E+04    0.31208E+04   -0.25761E+05 73240   0.131E+03
DAV:   2    -0.588419571290E+03   -0.37092E+04   -0.35745E+04 88124   0.299E+02
DAV:   3    -0.865436202871E+03   -0.27702E+03   -0.27508E+03 88920   0.862E+01
DAV:   4    -0.869145397748E+03   -0.37092E+01   -0.36942E+01 88280   0.107E+01
DAV:   5    -0.869216797067E+03   -0.71399E-01   -0.71213E-01 90360   0.135E+00    0.987E+01
DAV:   6    -0.771257052039E+03    0.97960E+02   -0.41498E+02 81982   0.322E+01    0.507E+01
DAV:   7    -0.780623678663E+03   -0.93666E+01   -0.22139E+01 82648   0.781E+00    0.163E+01
DAV:   8    -0.785414004555E+03   -0.47903E+01   -0.22519E+00 86454   0.273E+00    0.793E+00
DAV:   9    -0.788027299657E+03   -0.26133E+01   -0.16076E+00 88400   0.195E+00    0.394E+00
DAV:  10    -0.788562361960E+03   -0.53506E+00   -0.34907E-01 83776   0.101E+00    0.112E+00
DAV:  11    -0.788634725056E+03   -0.72363E-01   -0.43069E-02 88696   0.382E-01    0.615E-01
DAV:  12    -0.788645525857E+03   -0.10801E-01   -0.64005E-03 84664   0.155E-01    0.289E-01
DAV:  13    -0.788647792649E+03   -0.22668E-02   -0.12717E-03 87656   0.731E-02    0.102E-01
DAV:  14    -0.788648291517E+03   -0.49887E-03   -0.47644E-04 82600   0.457E-02    0.435E-02
DAV:  15    -0.788648313775E+03   -0.22258E-04   -0.73159E-05 86616   0.240E-02    0.304E-02
DAV:  16    -0.788648318442E+03   -0.46666E-05   -0.25706E-05 67104   0.153E-02
   1 F= -.78864832E+03 E0= -.78864832E+03  d E =-.788648E+03  mag=    -0.0039
