       N       E                     dE             d eps       ncg     rms          rms(c)
DAV:   1     0.580986157788E+04    0.58099E+04   -0.20830E+05 16808   0.162E+03
DAV:   2     0.353268841677E+03   -0.54566E+04   -0.49359E+04 16584   0.492E+02
DAV:   3    -0.472856056912E+03   -0.82612E+03   -0.77498E+03 17664   0.201E+02
DAV:   4    -0.516547944032E+03   -0.43692E+02   -0.43120E+02 18288   0.470E+01
DAV:   5    -0.517080400807E+03   -0.53246E+00   -0.53117E+00 18016   0.562E+00    0.121E+02
DAV:   6    -0.452092807489E+03    0.64988E+02   -0.51566E+02 20600   0.878E+01    0.100E+02
DAV:   7    -0.428264556974E+03    0.23828E+02   -0.26505E+02 18400   0.960E+01    0.602E+01
DAV:   8    -0.445613310922E+03   -0.17349E+02   -0.22205E+02 20584   0.362E+01    0.500E+01
DAV:   9    -0.418164473092E+03    0.27449E+02   -0.25867E+01 19768   0.202E+01    0.233E+01
DAV:  10    -0.418468914848E+03   -0.30444E+00   -0.11840E+01 19400   0.164E+01    0.313E+01
DAV:  11    -0.417272643746E+03    0.11963E+01   -0.77885E+00 18448   0.130E+01    0.128E+01
DAV:  12    -0.417421512612E+03   -0.14887E+00   -0.16480E+00 17624   0.604E+00    0.118E+01
DAV:  13    -0.417325889390E+03    0.95623E-01   -0.28372E-01 17536   0.255E+00    0.896E+00
DAV:  14    -0.417704569642E+03   -0.37868E+00   -0.92743E-01 20048   0.216E+00    0.791E+00
DAV:  15    -0.417704618172E+03   -0.48530E-04   -0.20053E-01 19040   0.314E+00    0.345E+00
DAV:  16    -0.417711760759E+03   -0.71426E-02   -0.19646E-01 19096   0.295E+00    0.339E+00
DAV:  17    -0.417672173286E+03    0.39587E-01   -0.93184E-02 18392   0.194E+00    0.140E+00
DAV:  18    -0.417673586770E+03   -0.14135E-02   -0.20722E-02 18320   0.917E-01    0.106E+00
DAV:  19    -0.417671648963E+03    0.19378E-02   -0.11660E-02 18208   0.756E-01    0.662E-01
DAV:  20    -0.417671264204E+03    0.38476E-03   -0.35119E-03 18080   0.378E-01    0.391E-01
DAV:  21    -0.417671743725E+03   -0.47952E-03   -0.19955E-03 18888   0.305E-01    0.358E-01
DAV:  22    -0.417671513255E+03    0.23047E-03   -0.19023E-03 17992   0.367E-01    0.228E-01
DAV:  23    -0.417671483542E+03    0.29714E-04   -0.42676E-04 17760   0.177E-01    0.164E-01
DAV:  24    -0.417671457321E+03    0.26221E-04   -0.22461E-04 17456   0.123E-01    0.874E-02
DAV:  25    -0.417671446175E+03    0.11146E-04   -0.11267E-04 16944   0.930E-02    0.837E-02
DAV:  26    -0.417671451607E+03   -0.54318E-05   -0.48991E-05 15232   0.612E-02
   1 F= -.41767145E+03 E0= -.41766422E+03  d E =-.417671E+03  mag=    41.0010
       N       E                     dE             d eps       ncg     rms          rms(c)
DAV:   1    -0.417672813490E+03   -0.13673E-02   -0.10727E-02 23312   0.889E-01    0.924E-02
DAV:   2    -0.417673274872E+03   -0.46138E-03   -0.44511E-03 17648   0.153E-01    0.708E-02
DAV:   3    -0.417673316340E+03   -0.41468E-04   -0.30407E-04 16880   0.115E-01    0.849E-02
DAV:   4    -0.417673287049E+03    0.29292E-04   -0.65991E-05 14224   0.649E-02    0.229E-02
DAV:   5    -0.417673287890E+03   -0.84135E-06   -0.95401E-06  9488   0.132E-02
   2 F= -.41767329E+03 E0= -.41766607E+03  d E =-.183628E-02  mag=    41.0001
       N       E                     dE             d eps       ncg     rms          rms(c)
DAV:   1    -0.417622921406E+03    0.50366E-01   -0.15056E+00 23192   0.105E+01    0.108E+00
DAV:   2    -0.417686863180E+03   -0.63942E-01   -0.62068E-01 17544   0.177E+00    0.739E-01
DAV:   3    -0.417692710108E+03   -0.58469E-02   -0.33483E-02 17792   0.114E+00    0.971E-01
DAV:   4    -0.417688973000E+03    0.37371E-02   -0.71742E-03 17560   0.622E-01    0.273E-01
DAV:   5    -0.417689048344E+03   -0.75344E-04   -0.13405E-03 18504   0.145E-01    0.221E-01
DAV:   6    -0.417689135781E+03   -0.87437E-04   -0.70502E-04 18584   0.209E-01    0.234E-01
DAV:   7    -0.417688986069E+03    0.14971E-03   -0.34373E-04 18648   0.163E-01    0.728E-02
DAV:   8    -0.417689004874E+03   -0.18805E-04   -0.11937E-04 18264   0.625E-02    0.514E-02
DAV:   9    -0.417688999849E+03    0.50247E-05   -0.53559E-05 15240   0.581E-02
   3 F= -.41768900E+03 E0= -.41768183E+03  d E =-.157120E-01  mag=    41.0000
       N       E                     dE             d eps       ncg     rms          rms(c)
DAV:   1    -0.417618354432E+03    0.70650E-01   -0.21126E+00 22776   0.115E+01    0.117E+00
DAV:   2    -0.417694212309E+03   -0.75858E-01   -0.73404E-01 17616   0.195E+00    0.795E-01
DAV:   3    -0.417701000081E+03   -0.67878E-02   -0.39701E-02 17760   0.119E+00    0.102E+00
DAV:   4    -0.417696763594E+03    0.42365E-02   -0.80791E-03 17720   0.675E-01    0.293E-01
DAV:   5    -0.417696865153E+03   -0.10156E-03   -0.15295E-03 18824   0.166E-01    0.249E-01
DAV:   6    -0.417696908204E+03   -0.43050E-04   -0.81803E-04 18600   0.225E-01    0.242E-01
DAV:   7    -0.417696771831E+03    0.13637E-03   -0.38909E-04 18840   0.169E-01    0.763E-02
DAV:   8    -0.417696795771E+03   -0.23940E-04   -0.15459E-04 18512   0.728E-02    0.595E-02
DAV:   9    -0.417696787078E+03    0.86928E-05   -0.71526E-05 15608   0.658E-02
   4 F= -.41769679E+03 E0= -.41768968E+03  d E =-.778723E-02  mag=    41.0000
       N       E                     dE             d eps       ncg     rms          rms(c)
DAV:   1    -0.417690859231E+03    0.59365E-02   -0.64526E-01 19784   0.395E+00    0.367E-01
DAV:   2    -0.417699593108E+03   -0.87339E-02   -0.84835E-02 17800   0.710E-01    0.260E-01
DAV:   3    -0.417700173387E+03   -0.58028E-03   -0.40557E-03 17872   0.393E-01    0.313E-01
DAV:   4    -0.417699759016E+03    0.41437E-03   -0.88716E-04 18824   0.243E-01    0.940E-02
DAV:   5    -0.417699755183E+03    0.38332E-05   -0.19015E-04 19088   0.637E-02    0.847E-02
DAV:   6    -0.417699753445E+03    0.17373E-05   -0.12097E-04 17760   0.889E-02    0.813E-02
DAV:   7    -0.417699733762E+03    0.19684E-04   -0.56482E-05 16808   0.577E-02    0.170E-02
DAV:   8    -0.417699737578E+03   -0.38163E-05   -0.17746E-05 10552   0.249E-02
   5 F= -.41769974E+03 E0= -.41769267E+03  d E =-.295050E-02  mag=    41.0000
       N       E                     dE             d eps       ncg     rms          rms(c)
DAV:   1    -0.417654430660E+03    0.45303E-01   -0.45229E+00 19632   0.937E+00    0.856E-01
DAV:   2    -0.417703934749E+03   -0.49504E-01   -0.47954E-01 17888   0.175E+00    0.694E-01
DAV:   3    -0.417706752868E+03   -0.28181E-02   -0.26668E-02 17728   0.989E-01    0.758E-01
DAV:   4    -0.417704190808E+03    0.25621E-02   -0.50173E-03 19120   0.555E-01    0.221E-01
DAV:   5    -0.417704096334E+03    0.94473E-04   -0.11758E-03 19800   0.139E-01    0.181E-01
DAV:   6    -0.417704176368E+03   -0.80034E-04   -0.72133E-04 18728   0.217E-01    0.224E-01
DAV:   7    -0.417703986612E+03    0.18976E-03   -0.36468E-04 18848   0.154E-01    0.428E-02
DAV:   8    -0.417704013388E+03   -0.26776E-04   -0.11613E-04 18344   0.655E-02    0.574E-02
DAV:   9    -0.417704002041E+03    0.11347E-04   -0.54899E-05 15472   0.545E-02    0.196E-02
DAV:  10    -0.417704001763E+03    0.27764E-06   -0.54495E-06  9128   0.130E-02
   6 F= -.41770400E+03 E0= -.41769700E+03  d E =-.426418E-02  mag=    41.0000
       N       E                     dE             d eps       ncg     rms          rms(c)
DAV:   1    -0.417690432340E+03    0.13570E-01   -0.83512E-01 20856   0.497E+00    0.470E-01
DAV:   2    -0.417704395999E+03   -0.13964E-01   -0.13514E-01 18280   0.908E-01    0.382E-01
DAV:   3    -0.417705274135E+03   -0.87814E-03   -0.75946E-03 17536   0.548E-01    0.419E-01
DAV:   4    -0.417704518654E+03    0.75548E-03   -0.14844E-03 18536   0.326E-01    0.125E-01
DAV:   5    -0.417704503291E+03    0.15363E-04   -0.32662E-04 19520   0.652E-02    0.940E-02
DAV:   6    -0.417704547353E+03   -0.44062E-04   -0.19170E-04 18192   0.120E-01    0.124E-01
DAV:   7    -0.417704485792E+03    0.61562E-04   -0.10849E-04 17648   0.942E-02    0.229E-02
DAV:   8    -0.417704491721E+03   -0.59293E-05   -0.26731E-05 13656   0.257E-02
   7 F= -.41770449E+03 E0= -.41769745E+03  d E =-.489958E-03  mag=    41.0000
