       N       E                     dE             d eps       ncg     rms          rms(c)
DAV:   1     0.310405923943E+04    0.31041E+04   -0.25770E+05 11520   0.130E+03
DAV:   2    -0.597495232540E+03   -0.37016E+04   -0.35675E+04 14124   0.297E+02
DAV:   3    -0.864235348576E+03   -0.26674E+03   -0.26502E+03 13944   0.846E+01
DAV:   4    -0.867654093058E+03   -0.34187E+01   -0.34057E+01 14040   0.103E+01
DAV:   5    -0.867714723429E+03   -0.60630E-01   -0.60478E-01 14364   0.126E+00    0.987E+01
DAV:   6    -0.769876792001E+03    0.97838E+02   -0.40923E+02 13056   0.320E+01    0.506E+01
DAV:   7    -0.779573708679E+03   -0.96969E+01   -0.22508E+01 13008   0.781E+00    0.163E+01
DAV:   8    -0.784432032274E+03   -0.48583E+01   -0.24050E+00 13488   0.280E+00    0.789E+00
DAV:   9    -0.786836163896E+03   -0.24041E+01   -0.13240E+00 13896   0.187E+00    0.389E+00
DAV:  10    -0.787373207141E+03   -0.53704E+00   -0.33061E-01 13140   0.100E+00    0.114E+00
DAV:  11    -0.787445075848E+03   -0.71869E-01   -0.42724E-02 14016   0.382E-01    0.626E-01
DAV:  12    -0.787455805455E+03   -0.10730E-01   -0.63744E-03 13380   0.161E-01    0.288E-01
DAV:  13    -0.787458050795E+03   -0.22453E-02   -0.14233E-03 13812   0.825E-02    0.102E-01
DAV:  14    -0.787458456225E+03   -0.40543E-03   -0.45300E-04 13356   0.512E-02    0.447E-02
DAV:  15    -0.787458464042E+03   -0.78176E-05   -0.95168E-05 14952   0.283E-02
   1 F= -.78745846E+03 E0= -.78745846E+03  d E =-.787458E+03  mag=    -0.0081
       N       E                     dE             d eps       ncg     rms          rms(c)
DAV:   1    -0.787459134561E+03   -0.67834E-03   -0.45066E-05 13080   0.213E-02    0.143E-02
DAV:   2    -0.787459129010E+03    0.55507E-05   -0.14073E-05 10572   0.110E-02    0.969E-03
DAV:   3    -0.787459122968E+03    0.60425E-05   -0.42130E-06  9624   0.945E-03    0.605E-03
DAV:   4    -0.787459118047E+03    0.49211E-05   -0.51797E-06 10296   0.108E-02
   2 F= -.78745912E+03 E0= -.78745912E+03  d E =-.654005E-03  mag=     0.0005
       N       E                     dE             d eps       ncg     rms          rms(c)
DAV:   1    -0.787475036098E+03   -0.15913E-01   -0.89644E-03 12048   0.164E-01    0.617E-02
DAV:   2    -0.787475061246E+03   -0.25148E-04   -0.39707E-04 14028   0.323E-02    0.293E-02
DAV:   3    -0.787475052125E+03    0.91212E-05   -0.15050E-05 11904   0.867E-03    0.125E-02
DAV:   4    -0.787475049307E+03    0.28185E-05   -0.70088E-06  8568   0.541E-03
   3 F= -.78747505E+03 E0= -.78747505E+03  d E =-.159313E-01  mag=     0.0000
       N       E                     dE             d eps       ncg     rms          rms(c)
DAV:   1    -0.787529828194E+03   -0.54776E-01   -0.11839E-01 11904   0.596E-01    0.223E-01
DAV:   2    -0.787530152270E+03   -0.32408E-03   -0.51640E-03 14016   0.117E-01    0.107E-01
DAV:   3    -0.787530033941E+03    0.11833E-03   -0.20692E-04 14196   0.319E-02    0.452E-02
DAV:   4    -0.787529996691E+03    0.37250E-04   -0.83223E-05 13968   0.196E-02    0.156E-02
DAV:   5    -0.787529990304E+03    0.63878E-05   -0.19165E-05 12384   0.141E-02
   4 F= -.78752999E+03 E0= -.78752999E+03  d E =-.549410E-01  mag=     0.0000
       N       E                     dE             d eps       ncg     rms          rms(c)
DAV:   1    -0.787615484737E+03   -0.85488E-01   -0.36848E-01 11856   0.105E+00    0.373E-01
DAV:   2    -0.787616445123E+03   -0.96039E-03   -0.15268E-02 14016   0.201E-01    0.180E-01
DAV:   3    -0.787616106326E+03    0.33880E-03   -0.61116E-04 14184   0.552E-02    0.769E-02
DAV:   4    -0.787615998777E+03    0.10755E-03   -0.25053E-04 14004   0.341E-02    0.268E-02
DAV:   5    -0.787615979536E+03    0.19242E-04   -0.61050E-05 14904   0.249E-02    0.113E-02
DAV:   6    -0.787615979757E+03   -0.22144E-06   -0.26964E-05 12132   0.911E-03
   5 F= -.78761598E+03 E0= -.78761598E+03  d E =-.859895E-01  mag=     0.0000
       N       E                     dE             d eps       ncg     rms          rms(c)
DAV:   1    -0.787705534285E+03   -0.89555E-01   -0.58339E-01 11784   0.132E+00    0.398E-01
DAV:   2    -0.787706832762E+03   -0.12985E-02   -0.20828E-02 14016   0.234E-01    0.199E-01
DAV:   3    -0.787706420027E+03    0.41273E-03   -0.81312E-04 14208   0.637E-02    0.893E-02
DAV:   4    -0.787706284100E+03    0.13593E-03   -0.37599E-04 13968   0.397E-02    0.318E-02
DAV:   5    -0.787706256594E+03    0.27506E-04   -0.79460E-05 15360   0.292E-02    0.134E-02
DAV:   6    -0.787706256199E+03    0.39531E-06   -0.37468E-05 12732   0.111E-02
   6 F= -.78770626E+03 E0= -.78770626E+03  d E =-.902764E-01  mag=     0.0000
       N       E                     dE             d eps       ncg     rms          rms(c)
DAV:   1    -0.787830491580E+03   -0.12423E+00   -0.20666E+00 11520   0.247E+00    0.447E-01
DAV:   2    -0.787834117382E+03   -0.36258E-02   -0.54585E-02 14088   0.377E-01    0.265E-01
DAV:   3    -0.787833370863E+03    0.74652E-03   -0.16916E-03 14280   0.897E-02    0.144E-01
DAV:   4    -0.787833066787E+03    0.30408E-03   -0.11929E-03 14112   0.673E-02    0.541E-02
DAV:   5    -0.787832996565E+03    0.70221E-04   -0.18385E-04 15696   0.436E-02    0.237E-02
DAV:   6    -0.787832989942E+03    0.66230E-05   -0.10259E-04 13932   0.221E-02    0.191E-02
DAV:   7    -0.787832981902E+03    0.80404E-05   -0.89471E-06 10308   0.938E-03
   7 F= -.78783298E+03 E0= -.78783298E+03  d E =-.126726E+00  mag=     0.0000
       N       E                     dE             d eps       ncg     rms          rms(c)
DAV:   1    -0.787983979113E+03   -0.15099E+00   -0.83233E+00 11520   0.485E+00    0.856E-01
DAV:   2    -0.787998109079E+03   -0.14130E-01   -0.18494E-01 13944   0.664E-01    0.338E-01
DAV:   3    -0.787996294536E+03    0.18145E-02   -0.40596E-03 14256   0.133E-01    0.203E-01
DAV:   4    -0.787995494577E+03    0.79996E-03   -0.31732E-03 14160   0.125E-01    0.735E-02
DAV:   5    -0.787995440591E+03    0.53985E-04   -0.65299E-04 14208   0.560E-02    0.498E-02
DAV:   6    -0.787995404302E+03    0.36289E-04   -0.24641E-04 13896   0.337E-02    0.249E-02
DAV:   7    -0.787995388157E+03    0.16145E-04   -0.23489E-05 12372   0.163E-02    0.172E-02
DAV:   8    -0.787995374828E+03    0.13329E-04   -0.10258E-05 10884   0.164E-02    0.605E-03
DAV:   9    -0.787995371669E+03    0.31589E-05   -0.12066E-05 10296   0.108E-02
   8 F= -.78799537E+03 E0= -.78799537E+03  d E =-.162390E+00  mag=     0.0000
       N       E                     dE             d eps       ncg     rms          rms(c)
DAV:   1    -0.788112564457E+03   -0.11719E+00   -0.16237E+01 11520   0.681E+00    0.101E+00
DAV:   2    -0.788142130263E+03   -0.29566E-01   -0.36095E-01 13956   0.934E-01    0.462E-01
DAV:   3    -0.788139189472E+03    0.29408E-02   -0.71617E-03 14256   0.174E-01    0.273E-01
DAV:   4    -0.788137889132E+03    0.13003E-02   -0.50444E-03 13992   0.150E-01    0.982E-02
DAV:   5    -0.788137777799E+03    0.11133E-03   -0.83183E-04 14256   0.674E-02    0.568E-02
DAV:   6    -0.788137747993E+03    0.29806E-04   -0.37595E-04 13944   0.405E-02    0.310E-02
DAV:   7    -0.788137731480E+03    0.16513E-04   -0.43856E-05 13932   0.184E-02    0.199E-02
DAV:   8    -0.788137720497E+03    0.10983E-04   -0.13378E-05 11676   0.130E-02    0.762E-03
DAV:   9    -0.788137715582E+03    0.49152E-05   -0.61605E-06 10116   0.114E-02
   9 F= -.78813772E+03 E0= -.78813772E+03  d E =-.142344E+00  mag=    -0.0000
       N       E                     dE             d eps       ncg     rms          rms(c)
DAV:   1    -0.788087633497E+03    0.50087E-01   -0.21048E+01 11520   0.787E+00    0.248E+00
DAV:   2    -0.788131814440E+03   -0.44181E-01   -0.58990E-01 13920   0.121E+00    0.822E-01
DAV:   3    -0.788120586421E+03    0.11228E-01   -0.14333E-02 14280   0.274E-01    0.372E-01
DAV:   4    -0.788116627298E+03    0.39591E-02   -0.78156E-03 14052   0.237E-01    0.120E-01
DAV:   5    -0.788116426767E+03    0.20053E-03   -0.30576E-03 14376   0.133E-01    0.902E-02
DAV:   6    -0.788116339532E+03    0.87235E-04   -0.43800E-04 14208   0.427E-02    0.567E-02
DAV:   7    -0.788116222637E+03    0.11689E-03   -0.14810E-04 14244   0.375E-02    0.229E-02
DAV:   8    -0.788116180121E+03    0.42516E-04   -0.75270E-05 14160   0.390E-02    0.159E-02
DAV:   9    -0.788116179483E+03    0.63852E-06   -0.87736E-05 14184   0.223E-02
  10 F= -.78811618E+03 E0= -.78811618E+03  d E =0.215361E-01  mag=     0.0000
       N       E                     dE             d eps       ncg     rms          rms(c)
DAV:   1    -0.788208781779E+03   -0.92602E-01   -0.54351E+00 11904   0.384E+00    0.175E+00
DAV:   2    -0.788224603522E+03   -0.15822E-01   -0.22468E-01 13944   0.694E-01    0.765E-01
DAV:   3    -0.788218142342E+03    0.64612E-02   -0.71108E-03 14040   0.192E-01    0.325E-01
DAV:   4    -0.788216305019E+03    0.18373E-02   -0.37641E-03 13968   0.164E-01    0.104E-01
DAV:   5    -0.788216240797E+03    0.64222E-04   -0.15832E-03 14616   0.919E-02    0.672E-02
DAV:   6    -0.788216195001E+03    0.45795E-04   -0.20256E-04 14064   0.283E-02    0.383E-02
DAV:   7    -0.788216148659E+03    0.46342E-04   -0.97851E-05 14160   0.243E-02    0.131E-02
DAV:   8    -0.788216137322E+03    0.11337E-04   -0.24954E-05 12744   0.204E-02    0.132E-02
DAV:   9    -0.788216136770E+03    0.55188E-06   -0.33943E-05 12528   0.129E-02
  11 F= -.78821614E+03 E0= -.78821614E+03  d E =-.999573E-01  mag=    -0.0000
       N       E                     dE             d eps       ncg     rms          rms(c)
DAV:   1    -0.788219968859E+03   -0.38315E-02   -0.62678E-02 11760   0.442E-01    0.145E-01
DAV:   2    -0.788220114590E+03   -0.14573E-03   -0.21074E-03 13980   0.753E-02    0.581E-02
DAV:   3    -0.788220059327E+03    0.55263E-04   -0.51961E-05 14088   0.190E-02    0.243E-02
DAV:   4    -0.788220041070E+03    0.18256E-04   -0.36852E-05 13836   0.176E-02    0.733E-03
DAV:   5    -0.788220039626E+03    0.14440E-05   -0.14547E-05 10740   0.104E-02
  12 F= -.78822004E+03 E0= -.78822004E+03  d E =-.390286E-02  mag=    -0.0000
       N       E                     dE             d eps       ncg     rms          rms(c)
DAV:   1    -0.788230006880E+03   -0.99658E-02   -0.31040E-01 11592   0.940E-01    0.206E-01
DAV:   2    -0.788230651019E+03   -0.64414E-03   -0.76847E-03 13992   0.137E-01    0.770E-02
DAV:   3    -0.788230564376E+03    0.86643E-04   -0.14622E-04 14268   0.255E-02    0.383E-02
DAV:   4    -0.788230534004E+03    0.30372E-04   -0.91080E-05 14016   0.209E-02    0.122E-02
DAV:   5    -0.788230532646E+03    0.13573E-05   -0.19251E-05 11592   0.105E-02
  13 F= -.78823053E+03 E0= -.78823053E+03  d E =-.104930E-01  mag=    -0.0000
       N       E                     dE             d eps       ncg     rms          rms(c)
DAV:   1    -0.788235725031E+03   -0.51910E-02   -0.77562E-02 11712   0.462E-01    0.897E-02
DAV:   2    -0.788235878784E+03   -0.15375E-03   -0.17794E-03 13944   0.645E-02    0.318E-02
DAV:   3    -0.788235862682E+03    0.16102E-04   -0.29792E-05 13176   0.117E-02    0.164E-02
DAV:   4    -0.788235856507E+03    0.61750E-05   -0.18348E-05 11472   0.988E-03
  14 F= -.78823586E+03 E0= -.78823586E+03  d E =-.532386E-02  mag=     0.0000
       N       E                     dE             d eps       ncg     rms          rms(c)
DAV:   1    -0.788256530760E+03   -0.20668E-01   -0.18183E+00 11520   0.224E+00    0.306E-01
DAV:   2    -0.788259922399E+03   -0.33916E-02   -0.38928E-02 13800   0.301E-01    0.134E-01
DAV:   3    -0.788259640687E+03    0.28171E-03   -0.57647E-04 14232   0.495E-02    0.759E-02
DAV:   4    -0.788259513047E+03    0.12764E-03   -0.41553E-04 14160   0.458E-02    0.249E-02
DAV:   5    -0.788259509655E+03    0.33923E-05   -0.90309E-05 14040   0.209E-02
  15 F= -.78825951E+03 E0= -.78825951E+03  d E =-.236531E-01  mag=    -0.0000
       N       E                     dE             d eps       ncg     rms          rms(c)
DAV:   1    -0.788287062622E+03   -0.27550E-01   -0.95920E+00 11520   0.517E+00    0.519E-01
DAV:   2    -0.788304667428E+03   -0.17605E-01   -0.19997E-01 13776   0.682E-01    0.275E-01
DAV:   3    -0.788303488049E+03    0.11794E-02   -0.25076E-03 14208   0.979E-02    0.174E-01
DAV:   4    -0.788302790347E+03    0.69770E-03   -0.23226E-03 14136   0.110E-01    0.555E-02
DAV:   5    -0.788302795943E+03   -0.55958E-05   -0.53933E-04 13776   0.441E-02    0.406E-02
DAV:   6    -0.788302784677E+03    0.11266E-04   -0.15993E-04 13836   0.267E-02    0.189E-02
DAV:   7    -0.788302779796E+03    0.48813E-05   -0.16279E-05 10872   0.109E-02
  16 F= -.78830278E+03 E0= -.78830278E+03  d E =-.432701E-01  mag=    -0.0000
       N       E                     dE             d eps       ncg     rms          rms(c)
DAV:   1    -0.788245914745E+03    0.56870E-01   -0.85371E+00 11520   0.460E+00    0.170E+00
DAV:   2    -0.788267272428E+03   -0.21358E-01   -0.27827E-01 13920   0.711E-01    0.618E-01
DAV:   3    -0.788261459686E+03    0.58127E-02   -0.64059E-03 14112   0.167E-01    0.293E-01
DAV:   4    -0.788259679490E+03    0.17802E-02   -0.44724E-03 13848   0.151E-01    0.877E-02
DAV:   5    -0.788259668035E+03    0.11455E-04   -0.13775E-03 14592   0.714E-02    0.718E-02
DAV:   6    -0.788259620591E+03    0.47444E-04   -0.10029E-04 13992   0.199E-02    0.377E-02
DAV:   7    -0.788259582824E+03    0.37767E-04   -0.52736E-05 13896   0.202E-02    0.131E-02
DAV:   8    -0.788259572880E+03    0.99440E-05   -0.25992E-05 12960   0.185E-02
  17 F= -.78825957E+03 E0= -.78825957E+03  d E =0.432069E-01  mag=     0.0000
       N       E                     dE             d eps       ncg     rms          rms(c)
DAV:   1    -0.788303899596E+03   -0.44317E-01   -0.10711E+00 11520   0.150E+00    0.766E-01
DAV:   2    -0.788306630663E+03   -0.27311E-02   -0.39549E-02 13944   0.269E-01    0.265E-01
DAV:   3    -0.788305603236E+03    0.10274E-02   -0.10145E-03 14064   0.681E-02    0.113E-01
DAV:   4    -0.788305285070E+03    0.31817E-03   -0.59844E-04 13848   0.603E-02    0.335E-02
DAV:   5    -0.788305272570E+03    0.12501E-04   -0.23832E-04 14592   0.323E-02    0.249E-02
DAV:   6    -0.788305265887E+03    0.66825E-05   -0.19480E-05 11136   0.878E-03
  18 F= -.78830527E+03 E0= -.78830527E+03  d E =-.456930E-01  mag=    -0.0000
       N       E                     dE             d eps       ncg     rms          rms(c)
DAV:   1    -0.788313348447E+03   -0.80759E-02   -0.11779E-01 11556   0.491E-01    0.257E-01
DAV:   2    -0.788313659295E+03   -0.31085E-03   -0.44655E-03 13968   0.897E-02    0.891E-02
DAV:   3    -0.788313541057E+03    0.11824E-03   -0.13378E-04 13968   0.251E-02    0.349E-02
DAV:   4    -0.788313505490E+03    0.35567E-04   -0.61823E-05 13392   0.204E-02    0.120E-02
DAV:   5    -0.788313502291E+03    0.31996E-05   -0.26358E-05 12936   0.122E-02
  19 F= -.78831350E+03 E0= -.78831350E+03  d E =-.823640E-02  mag=    -0.0000
       N       E                     dE             d eps       ncg     rms          rms(c)
DAV:   1    -0.788317451489E+03   -0.39460E-02   -0.11479E+00 11520   0.155E+00    0.813E-01
DAV:   2    -0.788320445393E+03   -0.29939E-02   -0.40912E-02 13920   0.271E-01    0.274E-01
DAV:   3    -0.788319475314E+03    0.97008E-03   -0.13297E-03 14064   0.733E-02    0.106E-01
DAV:   4    -0.788319221606E+03    0.25371E-03   -0.52010E-04 13920   0.537E-02    0.407E-02
DAV:   5    -0.788319205302E+03    0.16304E-04   -0.20014E-04 14568   0.308E-02    0.255E-02
DAV:   6    -0.788319199551E+03    0.57513E-05   -0.25561E-05 11592   0.101E-02
  20 F= -.78831920E+03 E0= -.78831920E+03  d E =-.569726E-02  mag=     0.0000
       N       E                     dE             d eps       ncg     rms          rms(c)
DAV:   1    -0.788322232518E+03   -0.30272E-02   -0.97769E-02 11568   0.454E-01    0.237E-01
DAV:   2    -0.788322501728E+03   -0.26921E-03   -0.36747E-03 13944   0.764E-02    0.897E-02
DAV:   3    -0.788322402615E+03    0.99113E-04   -0.11982E-04 13776   0.207E-02    0.346E-02
DAV:   4    -0.788322380888E+03    0.21728E-04   -0.52871E-05 13344   0.157E-02    0.128E-02
DAV:   5    -0.788322380751E+03    0.13635E-06   -0.18005E-05 11184   0.765E-03
  21 F= -.78832238E+03 E0= -.78832238E+03  d E =-.318120E-02  mag=    -0.0000
       N       E                     dE             d eps       ncg     rms          rms(c)
DAV:   1    -0.788324200585E+03   -0.18197E-02   -0.57309E-02 11568   0.397E-01    0.115E-01
DAV:   2    -0.788324318611E+03   -0.11803E-03   -0.15149E-03 14088   0.574E-02    0.385E-02
DAV:   3    -0.788324290594E+03    0.28017E-04   -0.26553E-05 12960   0.125E-02    0.177E-02
DAV:   4    -0.788324280786E+03    0.98080E-05   -0.24200E-05 12648   0.123E-02
  22 F= -.78832428E+03 E0= -.78832428E+03  d E =-.190003E-02  mag=     0.0000
       N       E                     dE             d eps       ncg     rms          rms(c)
DAV:   1    -0.788326515480E+03   -0.22249E-02   -0.76952E-02 11568   0.468E-01    0.573E-02
DAV:   2    -0.788326655453E+03   -0.13997E-03   -0.16068E-03 13776   0.614E-02    0.251E-02
DAV:   3    -0.788326643996E+03    0.11456E-04   -0.19360E-05 12288   0.971E-03    0.151E-02
DAV:   4    -0.788326637962E+03    0.60348E-05   -0.20122E-05 12096   0.110E-02
  23 F= -.78832664E+03 E0= -.78832664E+03  d E =-.235718E-02  mag=     0.0000
       N       E                     dE             d eps       ncg     rms          rms(c)
DAV:   1    -0.788330134454E+03   -0.34905E-02   -0.19858E-01 11520   0.751E-01    0.755E-02
DAV:   2    -0.788330496264E+03   -0.36181E-03   -0.41131E-03 13752   0.983E-02    0.411E-02
DAV:   3    -0.788330473542E+03    0.22722E-04   -0.52155E-05 13896   0.147E-02    0.257E-02
DAV:   4    -0.788330460810E+03    0.12732E-04   -0.46469E-05 13512   0.159E-02    0.881E-03
DAV:   5    -0.788330460702E+03    0.10777E-06   -0.97234E-06  8520   0.621E-03
  24 F= -.78833046E+03 E0= -.78833046E+03  d E =-.382274E-02  mag=     0.0000
       N       E                     dE             d eps       ncg     rms          rms(c)
DAV:   1    -0.788336043302E+03   -0.55825E-02   -0.91575E+00 11520   0.511E+00    0.501E-01
DAV:   2    -0.788352887666E+03   -0.16844E-01   -0.19081E-01 13704   0.668E-01    0.274E-01
DAV:   3    -0.788351810151E+03    0.10775E-02   -0.23096E-03 14304   0.968E-02    0.175E-01
DAV:   4    -0.788351174770E+03    0.63538E-03   -0.22917E-03 14016   0.112E-01    0.574E-02
DAV:   5    -0.788351183268E+03   -0.84981E-05   -0.52295E-04 13608   0.427E-02    0.407E-02
DAV:   6    -0.788351175282E+03    0.79861E-05   -0.16745E-04 13776   0.258E-02    0.179E-02
DAV:   7    -0.788351171533E+03    0.37482E-05   -0.16773E-05 10512   0.938E-03
  25 F= -.78835117E+03 E0= -.78835117E+03  d E =-.207108E-01  mag=     0.0000
       N       E                     dE             d eps       ncg     rms          rms(c)
DAV:   1    -0.788343731552E+03    0.74437E-02   -0.24588E+00 11520   0.267E+00    0.624E-01
DAV:   2    -0.788348850915E+03   -0.51194E-02   -0.65383E-02 13920   0.406E-01    0.274E-01
DAV:   3    -0.788348001194E+03    0.84972E-03   -0.15262E-03 14304   0.840E-02    0.127E-01
DAV:   4    -0.788347720076E+03    0.28112E-03   -0.77489E-04 14088   0.638E-02    0.447E-02
DAV:   5    -0.788347690154E+03    0.29922E-04   -0.19063E-04 14568   0.399E-02    0.275E-02
DAV:   6    -0.788347686860E+03    0.32944E-05   -0.56879E-05 13896   0.157E-02
  26 F= -.78834769E+03 E0= -.78834769E+03  d E =0.348467E-02  mag=    -0.0000
       N       E                     dE             d eps       ncg     rms          rms(c)
DAV:   1    -0.788353929595E+03   -0.62394E-02   -0.10844E+00 11856   0.166E+00    0.759E-01
DAV:   2    -0.788356769722E+03   -0.28401E-02   -0.41484E-02 14064   0.292E-01    0.295E-01
DAV:   3    -0.788355519152E+03    0.12506E-02   -0.12672E-03 14088   0.801E-02    0.113E-01
DAV:   4    -0.788355189776E+03    0.32938E-03   -0.68346E-04 13896   0.677E-02    0.367E-02
DAV:   5    -0.788355173679E+03    0.16097E-04   -0.28272E-04 14568   0.375E-02    0.277E-02
DAV:   6    -0.788355166992E+03    0.66872E-05   -0.28866E-05 11736   0.103E-02
  27 F= -.78835517E+03 E0= -.78835517E+03  d E =-.748013E-02  mag=    -0.0000
       N       E                     dE             d eps       ncg     rms          rms(c)
DAV:   1    -0.788356262439E+03   -0.10888E-02   -0.96508E-02 11568   0.529E-01    0.111E-01
DAV:   2    -0.788356434782E+03   -0.17234E-03   -0.20829E-03 14040   0.723E-02    0.323E-02
DAV:   3    -0.788356413864E+03    0.20918E-04   -0.46288E-05 14112   0.152E-02    0.171E-02
DAV:   4    -0.788356407289E+03    0.65754E-05   -0.21490E-05 12672   0.105E-02
  28 F= -.78835641E+03 E0= -.78835641E+03  d E =-.124030E-02  mag=    -0.0000
       N       E                     dE             d eps       ncg     rms          rms(c)
DAV:   1    -0.788358380627E+03   -0.19668E-02   -0.75942E-02 11568   0.460E-01    0.124E-01
DAV:   2    -0.788358552432E+03   -0.17180E-03   -0.20421E-03 13824   0.695E-02    0.482E-02
DAV:   3    -0.788358526609E+03    0.25823E-04   -0.43686E-05 13704   0.145E-02    0.209E-02
DAV:   4    -0.788358519217E+03    0.73924E-05   -0.20147E-05 12000   0.105E-02
  29 F= -.78835852E+03 E0= -.78835852E+03  d E =-.211193E-02  mag=    -0.0000
       N       E                     dE             d eps       ncg     rms          rms(c)
DAV:   1    -0.788358983281E+03   -0.45667E-03   -0.26251E-02 11568   0.256E-01    0.125E-01
DAV:   2    -0.788359048793E+03   -0.65512E-04   -0.10479E-03 14040   0.473E-02    0.482E-02
DAV:   3    -0.788359014321E+03    0.34472E-04   -0.35840E-05 13656   0.143E-02    0.182E-02
DAV:   4    -0.788359004460E+03    0.98618E-05   -0.17236E-05 12132   0.124E-02
  30 F= -.78835900E+03 E0= -.78835900E+03  d E =-.485243E-03  mag=    -0.0000
       N       E                     dE             d eps       ncg     rms          rms(c)
DAV:   1    -0.788359365452E+03   -0.35113E-03   -0.10184E-02 11664   0.172E-01    0.284E-02
DAV:   2    -0.788359386369E+03   -0.20918E-04   -0.24136E-04 13896   0.242E-02    0.134E-02
DAV:   3    -0.788359383913E+03    0.24564E-05   -0.38427E-06  8088   0.457E-03    0.694E-03
DAV:   4    -0.788359382830E+03    0.10833E-05   -0.32260E-06  6984   0.443E-03
  31 F= -.78835938E+03 E0= -.78835938E+03  d E =-.378370E-03  mag=    -0.0000
       N       E                     dE             d eps       ncg     rms          rms(c)
DAV:   1    -0.788360556602E+03   -0.11727E-02   -0.14504E-01 11520   0.649E-01    0.722E-02
DAV:   2    -0.788360823167E+03   -0.26657E-03   -0.30127E-03 13704   0.847E-02    0.334E-02
DAV:   3    -0.788360803726E+03    0.19442E-04   -0.34190E-05 13800   0.121E-02    0.207E-02
DAV:   4    -0.788360793514E+03    0.10211E-04   -0.37917E-05 13584   0.144E-02    0.616E-03
DAV:   5    -0.788360793915E+03   -0.40016E-06   -0.88327E-06  8064   0.553E-03
  32 F= -.78836079E+03 E0= -.78836079E+03  d E =-.141109E-02  mag=    -0.0000
       N       E                     dE             d eps       ncg     rms          rms(c)
DAV:   1    -0.788361649468E+03   -0.85595E-03   -0.80696E-02 11520   0.484E-01    0.520E-02
DAV:   2    -0.788361802797E+03   -0.15333E-03   -0.17171E-03 13680   0.640E-02    0.271E-02
DAV:   3    -0.788361793143E+03    0.96545E-05   -0.19462E-05 12192   0.926E-03    0.165E-02
DAV:   4    -0.788361788399E+03    0.47440E-05   -0.19975E-05 11496   0.974E-03
  33 F= -.78836179E+03 E0= -.78836179E+03  d E =-.994484E-03  mag=    -0.0000
       N       E                     dE             d eps       ncg     rms          rms(c)
DAV:   1    -0.788322500423E+03    0.39293E-01   -0.23255E+01 11520   0.821E+00    0.119E+00
DAV:   2    -0.788366945696E+03   -0.44445E-01   -0.51149E-01 13680   0.109E+00    0.455E-01
DAV:   3    -0.788362818727E+03    0.41270E-02   -0.63460E-03 14376   0.172E-01    0.269E-01
DAV:   4    -0.788360955434E+03    0.18633E-02   -0.66193E-03 13920   0.191E-01    0.779E-02
DAV:   5    -0.788361025740E+03   -0.70306E-04   -0.16172E-03 13560   0.735E-02    0.660E-02
DAV:   6    -0.788360986477E+03    0.39263E-04   -0.27681E-04 13872   0.314E-02    0.316E-02
DAV:   7    -0.788360970434E+03    0.16043E-04   -0.14062E-05 11664   0.140E-02    0.179E-02
DAV:   8    -0.788360961842E+03    0.85912E-05   -0.19120E-05 12144   0.153E-02
  34 F= -.78836096E+03 E0= -.78836096E+03  d E =0.826556E-03  mag=    -0.0000
       N       E                     dE             d eps       ncg     rms          rms(c)
DAV:   1    -0.788322832111E+03    0.38138E-01   -0.60226E+00 11520   0.375E+00    0.206E+00
DAV:   2    -0.788337614958E+03   -0.14783E-01   -0.23034E-01 13920   0.689E-01    0.689E-01
DAV:   3    -0.788330560025E+03    0.70549E-02   -0.66547E-03 14232   0.187E-01    0.277E-01
DAV:   4    -0.788328332550E+03    0.22275E-02   -0.41204E-03 13872   0.174E-01    0.896E-02
DAV:   5    -0.788328202861E+03    0.12969E-03   -0.18487E-03 14664   0.104E-01    0.675E-02
DAV:   6    -0.788328161514E+03    0.41347E-04   -0.26724E-04 14160   0.310E-02    0.414E-02
DAV:   7    -0.788328104162E+03    0.57351E-04   -0.10603E-04 14016   0.232E-02    0.162E-02
DAV:   8    -0.788328081869E+03    0.22294E-04   -0.42672E-05 13584   0.287E-02    0.149E-02
DAV:   9    -0.788328079972E+03    0.18964E-05   -0.51432E-05 13824   0.176E-02
  35 F= -.78832808E+03 E0= -.78832808E+03  d E =0.328819E-01  mag=     0.0000
       N       E                     dE             d eps       ncg     rms          rms(c)
DAV:   1    -0.788370654712E+03   -0.42573E-01   -0.21905E+00 11664   0.231E+00    0.116E+00
DAV:   2    -0.788376829850E+03   -0.61751E-02   -0.90063E-02 13992   0.415E-01    0.454E-01
DAV:   3    -0.788374033084E+03    0.27968E-02   -0.30424E-03 14088   0.120E-01    0.169E-01
DAV:   4    -0.788373325376E+03    0.70771E-03   -0.14654E-03 13848   0.996E-02    0.613E-02
DAV:   5    -0.788373277684E+03    0.47692E-04   -0.61061E-04 14592   0.573E-02    0.405E-02
DAV:   6    -0.788373260676E+03    0.17008E-04   -0.80766E-05 14088   0.174E-02    0.240E-02
DAV:   7    -0.788373236520E+03    0.24156E-04   -0.46237E-05 13380   0.173E-02    0.864E-03
DAV:   8    -0.788373231119E+03    0.54014E-05   -0.13253E-05 11736   0.143E-02
  36 F= -.78837323E+03 E0= -.78837323E+03  d E =-.451511E-01  mag=     0.0000
       N       E                     dE             d eps       ncg     rms          rms(c)
DAV:   1    -0.788373608927E+03   -0.37241E-03   -0.30431E-02 11664   0.287E-01    0.114E-01
DAV:   2    -0.788373675922E+03   -0.66995E-04   -0.10508E-03 14088   0.489E-02    0.400E-02
DAV:   3    -0.788373642878E+03    0.33044E-04   -0.28189E-05 13008   0.126E-02    0.169E-02
DAV:   4    -0.788373630945E+03    0.11932E-04   -0.21295E-05 12060   0.133E-02    0.503E-03
DAV:   5    -0.788373630128E+03    0.81776E-06   -0.10301E-05  9972   0.836E-03
  37 F= -.78837363E+03 E0= -.78837363E+03  d E =-.399009E-03  mag=    -0.0000
       N       E                     dE             d eps       ncg     rms          rms(c)
DAV:   1    -0.788373796265E+03   -0.16532E-03   -0.18637E-02 11664   0.237E-01    0.356E-02
DAV:   2    -0.788373831458E+03   -0.35193E-04   -0.40485E-04 13848   0.318E-02    0.130E-02
DAV:   3    -0.788373827926E+03    0.35327E-05   -0.48970E-06  8844   0.535E-03    0.747E-03
DAV:   4    -0.788373826202E+03    0.17236E-05   -0.53772E-06  8256   0.605E-03
  38 F= -.78837383E+03 E0= -.78837383E+03  d E =-.196075E-03  mag=     0.0000
       N       E                     dE             d eps       ncg     rms          rms(c)
DAV:   1    -0.788374100866E+03   -0.27294E-03   -0.56829E-02 11520   0.412E-01    0.477E-02
DAV:   2    -0.788374208794E+03   -0.10793E-03   -0.12003E-03 13704   0.544E-02    0.218E-02
DAV:   3    -0.788374201588E+03    0.72068E-05   -0.14378E-05 11568   0.805E-03    0.131E-02
DAV:   4    -0.788374198257E+03    0.33307E-05   -0.12580E-05  9660   0.825E-03
  39 F= -.78837420E+03 E0= -.78837420E+03  d E =-.372055E-03  mag=    -0.0000
       N       E                     dE             d eps       ncg     rms          rms(c)
DAV:   1    -0.788374275837E+03   -0.74250E-04   -0.68475E-01 11520   0.143E+00    0.134E-01
DAV:   2    -0.788375565479E+03   -0.12896E-02   -0.14343E-02 13536   0.188E-01    0.739E-02
DAV:   3    -0.788375488627E+03    0.76852E-04   -0.15826E-04 14400   0.252E-02    0.470E-02
DAV:   4    -0.788375443814E+03    0.44812E-04   -0.15656E-04 13872   0.290E-02    0.146E-02
DAV:   5    -0.788375444930E+03   -0.11161E-05   -0.37373E-05 12480   0.118E-02
  40 F= -.78837544E+03 E0= -.78837544E+03  d E =-.124667E-02  mag=    -0.0000
       N       E                     dE             d eps       ncg     rms          rms(c)
DAV:   1    -0.788355929545E+03    0.19514E-01   -0.12539E+01 11520   0.617E+00    0.636E-01
DAV:   2    -0.788380155550E+03   -0.24226E-01   -0.26806E-01 13512   0.822E-01    0.325E-01
DAV:   3    -0.788378669679E+03    0.14859E-02   -0.30260E-03 14328   0.112E-01    0.202E-01
DAV:   4    -0.788377885796E+03    0.78388E-03   -0.27990E-03 13896   0.123E-01    0.613E-02
DAV:   5    -0.788377907176E+03   -0.21380E-04   -0.64109E-04 13632   0.492E-02    0.429E-02
DAV:   6    -0.788377905238E+03    0.19380E-05   -0.16290E-04 13728   0.259E-02    0.210E-02
DAV:   7    -0.788377901269E+03    0.39684E-05   -0.13333E-05  8880   0.966E-03
  41 F= -.78837790E+03 E0= -.78837790E+03  d E =-.245634E-02  mag=     0.0000
       N       E                     dE             d eps       ncg     rms          rms(c)
DAV:   1    -0.788376128993E+03    0.17762E-02   -0.18114E+00 11520   0.236E+00    0.313E-01
DAV:   2    -0.788379711989E+03   -0.35830E-02   -0.40112E-02 13560   0.320E-01    0.136E-01
DAV:   3    -0.788379443341E+03    0.26865E-03   -0.47879E-04 14424   0.467E-02    0.786E-02
DAV:   4    -0.788379330597E+03    0.11274E-03   -0.46627E-04 13824   0.476E-02    0.245E-02
DAV:   5    -0.788379330676E+03   -0.78766E-07   -0.89236E-05 13776   0.201E-02
  42 F= -.78837933E+03 E0= -.78837933E+03  d E =-.142941E-02  mag=    -0.0000
       N       E                     dE             d eps       ncg     rms          rms(c)
DAV:   1    -0.788378707919E+03    0.62268E-03   -0.52284E-01 11520   0.125E+00    0.153E-01
DAV:   2    -0.788379681175E+03   -0.97326E-03   -0.11065E-02 13656   0.166E-01    0.701E-02
DAV:   3    -0.788379604124E+03    0.77051E-04   -0.15165E-04 14352   0.253E-02    0.416E-02
DAV:   4    -0.788379569955E+03    0.34169E-04   -0.11865E-04 14136   0.244E-02    0.125E-02
DAV:   5    -0.788379571016E+03   -0.10604E-05   -0.26975E-05 12096   0.101E-02
  43 F= -.78837957E+03 E0= -.78837957E+03  d E =-.240340E-03  mag=    -0.0000
       N       E                     dE             d eps       ncg     rms          rms(c)
DAV:   1    -0.788379577817E+03   -0.78616E-05   -0.16481E-01 11520   0.721E-01    0.979E-02
DAV:   2    -0.788379888403E+03   -0.31059E-03   -0.35238E-03 13824   0.969E-02    0.401E-02
DAV:   3    -0.788379863223E+03    0.25180E-04   -0.47402E-05 14304   0.142E-02    0.236E-02
DAV:   4    -0.788379853221E+03    0.10002E-04   -0.42188E-05 13872   0.150E-02    0.730E-03
DAV:   5    -0.788379853562E+03   -0.34177E-06   -0.89468E-06  8352   0.613E-03
  44 F= -.78837985E+03 E0= -.78837985E+03  d E =-.282547E-03  mag=    -0.0000
       N       E                     dE             d eps       ncg     rms          rms(c)
DAV:   1    -0.788376707985E+03    0.31452E-02   -0.19724E+00 11520   0.248E+00    0.237E-01
DAV:   2    -0.788380504987E+03   -0.37970E-02   -0.41856E-02 13416   0.331E-01    0.130E-01
DAV:   3    -0.788380291803E+03    0.21318E-03   -0.45405E-04 14304   0.433E-02    0.821E-02
DAV:   4    -0.788380173581E+03    0.11822E-03   -0.45302E-04 13800   0.495E-02    0.264E-02
DAV:   5    -0.788380174850E+03   -0.12694E-05   -0.99932E-05 13560   0.205E-02
  45 F= -.78838017E+03 E0= -.78838017E+03  d E =-.321288E-03  mag=     0.0000
       N       E                     dE             d eps       ncg     rms          rms(c)
DAV:   1    -0.788250300013E+03    0.12987E+00   -0.60779E+01 11520   0.139E+01    0.159E+00
DAV:   2    -0.788371069734E+03   -0.12077E+00   -0.13409E+00 13464   0.188E+00    0.732E-01
DAV:   3    -0.788363122566E+03    0.79472E-02   -0.15724E-02 14352   0.267E-01    0.450E-01
DAV:   4    -0.788359129228E+03    0.39933E-02   -0.14700E-02 13872   0.295E-01    0.138E-01
DAV:   5    -0.788359218819E+03   -0.89591E-04   -0.35336E-03 13896   0.120E-01    0.102E-01
DAV:   6    -0.788359165608E+03    0.53211E-04   -0.86744E-04 13716   0.592E-02    0.475E-02
DAV:   7    -0.788359140028E+03    0.25580E-04   -0.58897E-05 14376   0.227E-02    0.283E-02
DAV:   8    -0.788359128300E+03    0.11728E-04   -0.29547E-05 13656   0.173E-02    0.782E-03
DAV:   9    -0.788359126938E+03    0.13622E-05   -0.10458E-05  9480   0.908E-03
  46 F= -.78835913E+03 E0= -.78835913E+03  d E =0.210479E-01  mag=     0.0000
       N       E                     dE             d eps       ncg     rms          rms(c)
DAV:   1    -0.788308646831E+03    0.50481E-01   -0.41086E+01 11520   0.113E+01    0.134E+00
DAV:   2    -0.788389173758E+03   -0.80527E-01   -0.89791E-01 13488   0.152E+00    0.605E-01
DAV:   3    -0.788383567830E+03    0.56059E-02   -0.10817E-02 14400   0.215E-01    0.370E-01
DAV:   4    -0.788380711766E+03    0.28561E-02   -0.10653E-02 13896   0.242E-01    0.116E-01
DAV:   5    -0.788380742653E+03   -0.30887E-04   -0.23849E-03 13896   0.991E-02    0.878E-02
DAV:   6    -0.788380699149E+03    0.43504E-04   -0.65231E-04 13776   0.525E-02    0.403E-02
DAV:   7    -0.788380680491E+03    0.18659E-04   -0.48161E-05 14280   0.196E-02    0.228E-02
DAV:   8    -0.788380672006E+03    0.84851E-05   -0.19333E-05 12384   0.144E-02
  47 F= -.78838067E+03 E0= -.78838067E+03  d E =-.215451E-01  mag=    -0.0000
       N       E                     dE             d eps       ncg     rms          rms(c)
DAV:   1    -0.788361829285E+03    0.18851E-01   -0.63091E+00 11520   0.447E+00    0.874E-01
DAV:   2    -0.788374489907E+03   -0.12661E-01   -0.14889E-01 13680   0.633E-01    0.288E-01
DAV:   3    -0.788372852713E+03    0.16372E-02   -0.22739E-03 14448   0.118E-01    0.153E-01
DAV:   4    -0.788372121601E+03    0.73111E-03   -0.18904E-03 14136   0.125E-01    0.452E-02
DAV:   5    -0.788372119007E+03    0.25944E-05   -0.71522E-04 14256   0.599E-02    0.495E-02
DAV:   6    -0.788372094422E+03    0.24584E-04   -0.86470E-05 13848   0.194E-02    0.330E-02
DAV:   7    -0.788372064231E+03    0.30192E-04   -0.93909E-06 10464   0.192E-02    0.159E-02
DAV:   8    -0.788372047439E+03    0.16792E-04   -0.31540E-05 13032   0.239E-02    0.731E-03
DAV:   9    -0.788372047619E+03   -0.17941E-06   -0.22396E-05 10872   0.127E-02
  48 F= -.78837205E+03 E0= -.78837205E+03  d E =0.862439E-02  mag=     0.0000
       N       E                     dE             d eps       ncg     rms          rms(c)
DAV:   1    -0.788372762842E+03   -0.71540E-03   -0.50415E+00 11520   0.402E+00    0.776E-01
DAV:   2    -0.788382919276E+03   -0.10156E-01   -0.11891E-01 13680   0.572E-01    0.260E-01
DAV:   3    -0.788381617798E+03    0.13015E-02   -0.17760E-03 14424   0.107E-01    0.138E-01
DAV:   4    -0.788381049639E+03    0.56816E-03   -0.14943E-03 14064   0.111E-01    0.394E-02
DAV:   5    -0.788381050854E+03   -0.12146E-05   -0.55949E-04 14280   0.526E-02    0.422E-02
DAV:   6    -0.788381031888E+03    0.18966E-04   -0.63406E-05 13704   0.165E-02    0.272E-02
DAV:   7    -0.788381010077E+03    0.21811E-04   -0.71302E-06 10272   0.156E-02    0.133E-02
DAV:   8    -0.788380997483E+03    0.12594E-04   -0.23364E-05 12120   0.208E-02    0.620E-03
DAV:   9    -0.788380997721E+03   -0.23793E-06   -0.16698E-05 10104   0.111E-02
  49 F= -.78838100E+03 E0= -.78838100E+03  d E =-.895010E-02  mag=    -0.0000
       N       E                     dE             d eps       ncg     rms          rms(c)
DAV:   1    -0.788381044813E+03   -0.47330E-04   -0.43322E-03 11904   0.120E-01    0.206E-02
DAV:   2    -0.788381053349E+03   -0.85356E-05   -0.96384E-05 13584   0.167E-02    0.752E-03
DAV:   3    -0.788381052558E+03    0.79086E-06   -0.13106E-06  7032   0.276E-03    0.411E-03
DAV:   4    -0.788381052264E+03    0.29415E-06   -0.11304E-06  6624   0.292E-03
  50 F= -.78838105E+03 E0= -.78838105E+03  d E =-.545429E-04  mag=     0.0000
