       N       E                     dE             d eps       ncg     rms          ort
DAV:   1     0.826182921872E+04    0.82618E+04   -0.24580E+05  8424   0.238E+03
DAV:   2     0.877051392384E+03   -0.73848E+04   -0.69136E+04  8424   0.658E+02
DAV:   3    -0.737185032774E+03   -0.16142E+04   -0.14249E+04  8424   0.284E+02
DAV:   4    -0.895859344259E+03   -0.15867E+03   -0.15595E+03  8424   0.862E+01
DAV:   5    -0.898534718322E+03   -0.26754E+01   -0.26612E+01  8424   0.125E+01
SDA:   6    -0.257516386202E+03    0.64102E+03   -0.26612E+01  8424   0.409E+04 0.000E+00
CGA:   7    -0.585827165262E+03   -0.32831E+03   -0.40984E+03  8424   0.532E+04-0.452E+03
CGA:   8    -0.585683638541E+03    0.14353E+00   -0.24448E+03  8424   0.103E+04-0.151E+04
CGA:   9    -0.559292628447E+03    0.26391E+02   -0.44408E+02  8424   0.225E+04-0.416E+03
CGA:  10    -0.634367230290E+03   -0.75075E+02   -0.43333E+02  8424   0.677E+03-0.113E+03
CGA:  11    -0.663707598511E+03   -0.29340E+02   -0.17009E+02  8424   0.221E+03 0.378E+03
CGA:  12    -0.672272483504E+03   -0.85649E+01   -0.14806E+02  8424   0.463E+03-0.657E+02
CGA:  13    -0.674139338031E+03   -0.18669E+01   -0.11845E+02  8424   0.595E+03-0.137E+03
CGA:  14    -0.684589947222E+03   -0.10451E+02   -0.11866E+02  8424   0.959E+02-0.754E+02
CGA:  15    -0.688220035912E+03   -0.36301E+01   -0.68060E+01  8424   0.130E+03-0.129E+01
CGA:  16    -0.683714925539E+03    0.45051E+01   -0.78237E+01  8424   0.806E+03 0.308E+02
CGA:  17    -0.677186976282E+03    0.65279E+01   -0.26217E+02  8424   0.265E+03-0.782E+03
CGA:  18    -0.688311157681E+03   -0.11124E+02   -0.20814E+02  8424   0.840E+02 0.166E+02
CGA:  19    -0.691109674678E+03   -0.27985E+01   -0.14835E+01  8424   0.621E+02 0.788E+02
CGA:  20    -0.693034696618E+03   -0.19250E+01   -0.95784E+00  8424   0.465E+02 0.637E+02
CGA:  21    -0.694288035282E+03   -0.12533E+01   -0.62284E+00  8424   0.297E+02 0.440E+02
CGA:  22    -0.695084260830E+03   -0.79623E+00   -0.46354E+00  8424   0.125E+02 0.187E+02
CGA:  23    -0.695830950762E+03   -0.74669E+00   -0.55472E+00  8424   0.133E+02 0.246E+01
CGA:  24    -0.697037214880E+03   -0.12063E+01   -0.13250E+01  8424   0.787E+01 0.138E+01
CGA:  25    -0.697361991698E+03   -0.32478E+00   -0.22473E+00  8424   0.680E+01 0.371E+01
CGA:  26    -0.697619902142E+03   -0.25791E+00   -0.14276E+00  8424   0.467E+01 0.809E+01
CGA:  27    -0.697824137271E+03   -0.20424E+00   -0.27685E+00  8424   0.103E+02-0.118E+00
CGA:  28    -0.698026796639E+03   -0.20266E+00   -0.11469E+00  8424   0.619E+01 0.777E+01
CGA:  29    -0.698168891384E+03   -0.14209E+00   -0.11019E+00  8424   0.184E+01 0.156E+01
CGA:  30    -0.698380544224E+03   -0.21165E+00   -0.21186E+00  8424   0.105E+02-0.155E-01
CGA:  31    -0.698450665532E+03   -0.70121E-01   -0.39122E-01  8424   0.103E+02 0.850E+01
CGA:  32    -0.698643846787E+03   -0.19318E+00   -0.40057E+00  8424   0.302E+01-0.165E+01
CGA:  33    -0.698876533708E+03   -0.23269E+00   -0.23520E+00  8424   0.248E+01-0.120E+00
CGA:  34    -0.699083141025E+03   -0.20661E+00   -0.20941E+00  8424   0.230E+01-0.248E+00
CGA:  35    -0.699245122651E+03   -0.16198E+00   -0.16242E+00  8424   0.581E+00 0.836E-01
CGA:  36    -0.699301161570E+03   -0.56039E-01   -0.57095E-01  8424   0.873E+00-0.466E-01
CGA:  37    -0.699359774927E+03   -0.58613E-01   -0.53395E-01  8424   0.549E+00-0.194E-01
CGA:  38    -0.699376963549E+03   -0.17189E-01   -0.19654E-01  8424   0.388E+00-0.140E-01
CGA:  39    -0.699408714007E+03   -0.31750E-01   -0.31462E-01  8424   0.574E+00 0.589E-01
CGA:  40    -0.699436585169E+03   -0.27871E-01   -0.19100E-01  8424   0.346E+00 0.294E+00
CGA:  41    -0.699472919091E+03   -0.36334E-01   -0.34799E-01  8424   0.217E+00 0.463E-01
CGA:  42    -0.699514780577E+03   -0.41861E-01   -0.36802E-01  8424   0.134E+00 0.642E-01
CGA:  43    -0.699554969988E+03   -0.40189E-01   -0.33733E-01  8424   0.164E+00 0.554E-01
CGA:  44    -0.699635390158E+03   -0.80420E-01   -0.68424E-01  8424   0.240E+00 0.446E-01
CGA:  45    -0.699671627822E+03   -0.36238E-01   -0.38830E-01  8424   0.287E+00-0.627E-01
CGA:  46    -0.699689123746E+03   -0.17496E-01   -0.17523E-01  8424   0.281E+00 0.864E-02
CGA:  47    -0.699704054728E+03   -0.14931E-01   -0.15627E-01  8424   0.144E+00 0.715E-03
CGA:  48    -0.699717869360E+03   -0.13815E-01   -0.13828E-01  8424   0.133E+00 0.669E-02
CGA:  49    -0.699728758958E+03   -0.10890E-01   -0.10956E-01  8424   0.122E+00 0.207E-02
CGA:  50    -0.699745197779E+03   -0.16439E-01   -0.16579E-01  8424   0.125E+00-0.422E-02
CGA:  51    -0.699753171424E+03   -0.79736E-02   -0.79623E-02  8424   0.770E-01-0.261E-02
CGA:  52    -0.699764368112E+03   -0.11197E-01   -0.11099E-01  8424   0.104E+00 0.942E-03
CGA:  53    -0.699775917441E+03   -0.11549E-01   -0.11750E-01  8424   0.124E+00-0.117E-01
CGA:  54    -0.699788214050E+03   -0.12297E-01   -0.12838E-01  8424   0.111E+00-0.217E-01
CGA:  55    -0.699792687198E+03   -0.44731E-02   -0.45190E-02  8424   0.633E-01-0.442E-02
CGA:  56    -0.699797079570E+03   -0.43924E-02   -0.43691E-02  8424   0.601E-01-0.232E-02
CGA:  57    -0.699801262515E+03   -0.41829E-02   -0.41520E-02  8424   0.497E-01-0.217E-02
CGA:  58    -0.699805678478E+03   -0.44160E-02   -0.44009E-02  8424   0.635E-01-0.338E-02
CGA:  59    -0.699809347744E+03   -0.36693E-02   -0.35635E-02  8424   0.438E-01-0.161E-02
CGA:  60    -0.699811859080E+03   -0.25113E-02   -0.25068E-02  8424   0.393E-01-0.119E-02
CGA:  61    -0.699815311254E+03   -0.34522E-02   -0.34513E-02  8424   0.408E-01-0.121E-02
CGA:  62    -0.699817535941E+03   -0.22247E-02   -0.21096E-02  8424   0.266E-01-0.588E-03
CGA:  63    -0.699819854937E+03   -0.23190E-02   -0.23162E-02  8424   0.484E-01-0.175E-02
CGA:  64    -0.699822572908E+03   -0.27180E-02   -0.26164E-02  8424   0.417E-01-0.327E-03
CGA:  65    -0.699824147511E+03   -0.15746E-02   -0.15101E-02  8424   0.272E-01 0.129E-02
CGA:  66    -0.699825493421E+03   -0.13459E-02   -0.13417E-02  8424   0.309E-01 0.535E-03
CGA:  67    -0.699826813355E+03   -0.13199E-02   -0.13455E-02  8424   0.239E-01 0.625E-03
CGA:  68    -0.699827666420E+03   -0.85307E-03   -0.87963E-03  8424   0.181E-01 0.524E-03
CGA:  69    -0.699828620466E+03   -0.95405E-03   -0.97316E-03  8424   0.264E-01 0.758E-03
CGA:  70    -0.699829932622E+03   -0.13122E-02   -0.13392E-02  8424   0.241E-01 0.101E-02
SDA:  71    -0.699830803639E+03   -0.87102E-03   -0.90813E-03  8424   0.162E-01 0.370E-03
CGA:  72    -0.699833479223E+03   -0.26756E-02   -0.27540E-02  8424   0.185E-01-0.827E-03
CGA:  73    -0.699837663691E+03   -0.41845E-02   -0.41997E-02  8424   0.205E-01 0.301E-04
CGA:  74    -0.699839199549E+03   -0.15359E-02   -0.15355E-02  8424   0.119E-01 0.125E-03
CGA:  75    -0.699841363767E+03   -0.21642E-02   -0.20845E-02  8424   0.220E-02 0.928E-03
CGA:  76    -0.699841662507E+03   -0.29874E-03   -0.31223E-03  8424   0.103E-02-0.330E-03
CGA:  77    -0.699841811196E+03   -0.14869E-03   -0.21792E-03  8424   0.259E-02-0.446E-03
CGA:  78    -0.699841892087E+03   -0.80891E-04   -0.74770E-04  8424   0.994E-03-0.131E-03
CGA:  79    -0.699841935606E+03   -0.43520E-04   -0.45991E-04  8424   0.689E-03 0.489E-04
CGA:  80    -0.699841977964E+03   -0.42358E-04   -0.46866E-04  8424   0.494E-03 0.145E-03
CGA:  81    -0.699842003343E+03   -0.25379E-04   -0.30433E-04  8424   0.329E-03 0.116E-03
CGA:  82    -0.699842030665E+03   -0.27322E-04   -0.29582E-04  8424   0.284E-03 0.116E-03
CGA:  83    -0.699842049539E+03   -0.18874E-04   -0.20398E-04  8424   0.110E-03 0.388E-04
CGA:  84    -0.699841995927E+03    0.53612E-04   -0.34119E-04  8424   0.313E-02-0.278E-03
CGA:  85    -0.699842114557E+03   -0.11863E-03   -0.12739E-03  8424   0.243E-03 0.542E-04
CGA:  86    -0.699842126468E+03   -0.11910E-04   -0.19859E-04  8424   0.807E-04 0.104E-03
CGA:  87    -0.699842132159E+03   -0.56918E-05   -0.92605E-05  8424   0.585E-04 0.492E-04
CGA:  88    -0.699842127995E+03    0.41644E-05   -0.18881E-04  8424   0.102E-02-0.133E-03
CGA:  89    -0.699842165661E+03   -0.37666E-04   -0.39044E-04  8424   0.318E-04 0.114E-04
CGA:  90    -0.699842167801E+03   -0.21402E-05   -0.26501E-05  8424   0.104E-04 0.726E-05
   1 F= -.69984217E+03 E0= -.69983240E+03  d E =-.699842E+03  mag=     1.9918
       N       E                     dE             d eps       ncg     rms          ort
SDA:   1    -0.699842477968E+03   -0.31231E-03    0.00000E+00  8424   0.503E-02 0.000E+00
CGA:   2    -0.699842675727E+03   -0.19776E-03   -0.19903E-03  8424   0.350E-03-0.304E-04
CGA:   3    -0.699842718824E+03   -0.43097E-04   -0.43136E-04  8424   0.181E-03 0.172E-05
CGA:   4    -0.699842755306E+03   -0.36482E-04   -0.51841E-04  8424   0.242E-03-0.108E-03
CGA:   5    -0.699842773686E+03   -0.18380E-04   -0.18018E-04  8424   0.831E-04-0.503E-05
CGA:   6    -0.699842780673E+03   -0.69873E-05   -0.65530E-05  8424   0.401E-04-0.679E-05
   2 F= -.69984278E+03 E0= -.69983301E+03  d E =-.612872E-03  mag=     1.9918
       N       E                     dE             d eps       ncg     rms          ort
SDA:   1    -0.699769194036E+03    0.73580E-01    0.00000E+00  8424   0.266E+00 0.000E+00
CGA:   2    -0.699825109507E+03   -0.55915E-01   -0.55979E-01  8424   0.149E+00-0.100E-02
CGA:   3    -0.699842422773E+03   -0.17313E-01   -0.17285E-01  8424   0.131E+00-0.594E-03
CGA:   4    -0.699852084187E+03   -0.96614E-02   -0.96201E-02  8424   0.304E-01-0.876E-05
CGA:   5    -0.699856261185E+03   -0.41770E-02   -0.41769E-02  8424   0.926E-02-0.539E-04
CGA:   6    -0.699857324152E+03   -0.10630E-02   -0.10779E-02  8424   0.341E-02 0.651E-03
CGA:   7    -0.699857589707E+03   -0.26556E-03   -0.27553E-03  8424   0.172E-02 0.156E-03
CGA:   8    -0.699857775747E+03   -0.18604E-03   -0.18754E-03  8424   0.414E-03 0.467E-04
CGA:   9    -0.699857854301E+03   -0.78554E-04   -0.80424E-04  8424   0.428E-03-0.338E-04
CGA:  10    -0.699857881027E+03   -0.26726E-04   -0.25558E-04  8424   0.141E-03-0.166E-04
CGA:  11    -0.699857907401E+03   -0.26374E-04   -0.34550E-04  8424   0.215E-03-0.671E-04
CGA:  12    -0.699857920263E+03   -0.12862E-04   -0.11193E-04  8424   0.906E-04-0.424E-04
CGA:  13    -0.699857930203E+03   -0.99400E-05   -0.99181E-05  8424   0.119E-03-0.416E-04
CGA:  14    -0.699857938706E+03   -0.85035E-05   -0.12513E-04  8424   0.124E-03-0.693E-04
   3 F= -.69985794E+03 E0= -.69984817E+03  d E =-.151580E-01  mag=     1.9915
       N       E                     dE             d eps       ncg     rms          ort
SDA:   1    -0.699505805790E+03    0.35212E+00    0.00000E+00  8424   0.116E+01 0.000E+00
CGA:   2    -0.699711282628E+03   -0.20548E+00   -0.20521E+00  8424   0.111E+01 0.399E-02
CGA:   3    -0.699789461223E+03   -0.78179E-01   -0.77564E-01  8424   0.470E+00 0.199E-02
CGA:   4    -0.699852804698E+03   -0.63343E-01   -0.63341E-01  8424   0.140E+00-0.204E-02
CGA:   5    -0.699871068623E+03   -0.18264E-01   -0.18264E-01  8424   0.516E-01 0.619E-05
CGA:   6    -0.699875518253E+03   -0.44496E-02   -0.44905E-02  8424   0.289E-01 0.922E-03
CGA:   7    -0.699877734736E+03   -0.22165E-02   -0.22670E-02  8424   0.593E-02 0.924E-03
CGA:   8    -0.699878692008E+03   -0.95727E-03   -0.95518E-03  8424   0.214E-02 0.782E-04
CGA:   9    -0.699878937888E+03   -0.24588E-03   -0.24669E-03  8424   0.189E-02 0.456E-04
CGA:  10    -0.699879101833E+03   -0.16394E-03   -0.16364E-03  8424   0.670E-03-0.764E-05
CGA:  11    -0.699879205296E+03   -0.10346E-03   -0.10557E-03  8424   0.419E-03-0.699E-04
CGA:  12    -0.699879249725E+03   -0.44429E-04   -0.44119E-04  8424   0.339E-03-0.263E-04
CGA:  13    -0.699879274677E+03   -0.24952E-04   -0.25089E-04  8424   0.114E-03 0.248E-05
CGA:  14    -0.699879293875E+03   -0.19198E-04   -0.18940E-04  8424   0.514E-04 0.644E-05
CGA:  15    -0.699879297209E+03   -0.33340E-05   -0.44306E-05  8424   0.205E-04 0.235E-04
   4 F= -.69987930E+03 E0= -.69986955E+03  d E =-.213585E-01  mag=     1.9912
       N       E                     dE             d eps       ncg     rms          ort
SDA:   1    -0.699735168215E+03    0.14413E+00    0.00000E+00  8424   0.464E+00 0.000E+00
CGA:   2    -0.699814968942E+03   -0.79801E-01   -0.79827E-01  8424   0.579E+00-0.954E-03
CGA:   3    -0.699854165274E+03   -0.39196E-01   -0.39018E-01  8424   0.173E+00-0.716E-04
CGA:   4    -0.699879396635E+03   -0.25231E-01   -0.25253E-01  8424   0.567E-01-0.714E-03
CGA:   5    -0.699886426050E+03   -0.70294E-02   -0.70293E-02  8424   0.167E-01 0.176E-03
CGA:   6    -0.699888225034E+03   -0.17990E-02   -0.18108E-02  8424   0.111E-01 0.759E-03
CGA:   7    -0.699888942919E+03   -0.71788E-03   -0.74474E-03  8424   0.184E-02 0.453E-03
CGA:   8    -0.699889297834E+03   -0.35491E-03   -0.35759E-03  8424   0.890E-03-0.405E-04
CGA:   9    -0.699889374323E+03   -0.76489E-04   -0.78371E-04  8424   0.597E-03 0.561E-04
CGA:  10    -0.699889432686E+03   -0.58363E-04   -0.59680E-04  8424   0.217E-03 0.473E-04
CGA:  11    -0.699889472318E+03   -0.39632E-04   -0.42174E-04  8424   0.184E-03-0.424E-04
CGA:  12    -0.699889487502E+03   -0.15184E-04   -0.14727E-04  8424   0.132E-03-0.194E-04
CGA:  13    -0.699889497135E+03   -0.96328E-05   -0.98837E-05  8424   0.449E-04 0.639E-05
   5 F= -.69988950E+03 E0= -.69987978E+03  d E =-.101999E-01  mag=     1.9912
       N       E                     dE             d eps       ncg     rms          ort
SDA:   1    -0.699686958402E+03    0.20253E+00    0.00000E+00  8424   0.587E+00 0.000E+00
CGA:   2    -0.699816504312E+03   -0.12955E+00   -0.12963E+00  8424   0.508E+00-0.104E-02
CGA:   3    -0.699853031109E+03   -0.36527E-01   -0.36369E-01  8424   0.273E+00-0.159E-04
CGA:   4    -0.699885322661E+03   -0.32292E-01   -0.32283E-01  8424   0.582E-01-0.118E-02
CGA:   5    -0.699892850826E+03   -0.75282E-02   -0.75237E-02  8424   0.213E-01 0.519E-03
CGA:   6    -0.699895056591E+03   -0.22058E-02   -0.22175E-02  8424   0.128E-01 0.630E-03
CGA:   7    -0.699895910335E+03   -0.85374E-03   -0.86902E-03  8424   0.251E-02 0.269E-03
CGA:   8    -0.699896375530E+03   -0.46520E-03   -0.48767E-03  8424   0.150E-02-0.316E-03
CGA:   9    -0.699896479889E+03   -0.10436E-03   -0.10707E-03  8424   0.785E-03 0.656E-04
CGA:  10    -0.699896544985E+03   -0.65097E-04   -0.69171E-04  8424   0.242E-03 0.113E-03
CGA:  11    -0.699896593477E+03   -0.48491E-04   -0.47233E-04  8424   0.991E-04 0.240E-04
CGA:  12    -0.699896587613E+03    0.58632E-05   -0.59528E-04  8424   0.487E-03-0.154E-03
CGA:  13    -0.699896620266E+03   -0.32652E-04   -0.37106E-04  8424   0.114E-03 0.669E-04
CGA:  14    -0.699896625974E+03   -0.57082E-05   -0.90675E-05  8424   0.549E-04 0.484E-04
   6 F= -.69989663E+03 E0= -.69988688E+03  d E =-.712884E-02  mag=     1.9912
       N       E                     dE             d eps       ncg     rms          ort
SDA:   1    -0.699641080466E+03    0.25554E+00    0.00000E+00  8424   0.772E+00 0.000E+00
CGA:   2    -0.699781693293E+03   -0.14061E+00   -0.14059E+00  8424   0.829E+00 0.150E-03
CGA:   3    -0.699837334516E+03   -0.55641E-01   -0.55536E-01  8424   0.320E+00-0.373E-04
CGA:   4    -0.699884261048E+03   -0.46927E-01   -0.46936E-01  8424   0.802E-01-0.435E-03
CGA:   5    -0.699894238317E+03   -0.99773E-02   -0.99784E-02  8424   0.309E-01 0.204E-03
CGA:   6    -0.699897009201E+03   -0.27709E-02   -0.27824E-02  8424   0.185E-01 0.203E-03
CGA:   7    -0.699898440978E+03   -0.14318E-02   -0.14364E-02  8424   0.365E-02 0.689E-04
CGA:   8    -0.699899035852E+03   -0.59487E-03   -0.60771E-03  8424   0.197E-02-0.336E-03
CGA:   9    -0.699899204043E+03   -0.16819E-03   -0.16870E-03  8424   0.109E-02 0.142E-04
CGA:  10    -0.699899285107E+03   -0.81064E-04   -0.84677E-04  8424   0.392E-03 0.699E-04
CGA:  11    -0.699899342708E+03   -0.57602E-04   -0.56818E-04  8424   0.119E-03 0.695E-04
CGA:  12    -0.699899375454E+03   -0.32745E-04   -0.37209E-04  8424   0.156E-03-0.319E-04
CGA:  13    -0.699899382847E+03   -0.73936E-05   -0.79192E-05  8424   0.778E-04 0.821E-05
   7 F= -.69989938E+03 E0= -.69988962E+03  d E =-.275687E-02  mag=     1.9916
       N       E                     dE             d eps       ncg     rms          ort
SDA:   1    -0.699801097885E+03    0.98278E-01    0.00000E+00  8424   0.304E+00 0.000E+00
CGA:   2    -0.699863463638E+03   -0.62366E-01   -0.62296E-01  8424   0.158E+00 0.823E-03
CGA:   3    -0.699885682983E+03   -0.22219E-01   -0.22224E-01  8424   0.154E+00-0.530E-03
CGA:   4    -0.699895947214E+03   -0.10264E-01   -0.10252E-01  8424   0.350E-01 0.819E-04
CGA:   5    -0.699900336085E+03   -0.43889E-02   -0.43898E-02  8424   0.942E-02 0.428E-03
CGA:   6    -0.699901739419E+03   -0.14033E-02   -0.14087E-02  8424   0.288E-02-0.271E-03
CGA:   7    -0.699902011422E+03   -0.27200E-03   -0.26892E-03  8424   0.206E-02-0.954E-04
CGA:   8    -0.699902171554E+03   -0.16013E-03   -0.15738E-03  8424   0.560E-03-0.587E-04
CGA:   9    -0.699902260504E+03   -0.88950E-04   -0.91157E-04  8424   0.237E-03-0.516E-04
CGA:  10    -0.699902282071E+03   -0.21566E-04   -0.22593E-04  8424   0.958E-04 0.469E-04
CGA:  11    -0.699902291456E+03   -0.93856E-05   -0.10143E-04  8424   0.643E-04 0.203E-04
CGA:  12    -0.699902302035E+03   -0.10579E-04   -0.10557E-04  8424   0.284E-04 0.179E-05
CGA:  13    -0.699902302989E+03   -0.95443E-06   -0.83745E-05  8424   0.240E-03-0.458E-04
   8 F= -.69990230E+03 E0= -.69989247E+03  d E =-.292014E-02  mag=     1.9915
       N       E                     dE             d eps       ncg     rms          ort
SDA:   1    -0.699867605009E+03    0.34697E-01    0.00000E+00  8424   0.106E+00 0.000E+00
CGA:   2    -0.699890657988E+03   -0.23053E-01   -0.23041E-01  8424   0.544E-01 0.119E-03
CGA:   3    -0.699900020588E+03   -0.93626E-02   -0.93582E-02  8424   0.331E-01 0.735E-04
CGA:   4    -0.699902277809E+03   -0.22572E-02   -0.22573E-02  8424   0.138E-01 0.866E-04
CGA:   5    -0.699903692831E+03   -0.14150E-02   -0.14156E-02  8424   0.322E-02 0.127E-04
CGA:   6    -0.699904139093E+03   -0.44626E-03   -0.44694E-03  8424   0.105E-02-0.757E-04
CGA:   7    -0.699904253642E+03   -0.11455E-03   -0.11285E-03  8424   0.722E-03-0.875E-04
CGA:   8    -0.699904303266E+03   -0.49624E-04   -0.47585E-04  8424   0.239E-03-0.358E-04
CGA:   9    -0.699904333935E+03   -0.30669E-04   -0.30654E-04  8424   0.758E-04 0.141E-05
CGA:  10    -0.699904345404E+03   -0.11468E-04   -0.11278E-04  8424   0.280E-04 0.891E-05
CGA:  11    -0.699904350769E+03   -0.53656E-05   -0.54558E-05  8424   0.353E-04-0.197E-05
   9 F= -.69990435E+03 E0= -.69989448E+03  d E =-.204778E-02  mag=     1.9915
       N       E                     dE             d eps       ncg     rms          ort
SDA:   1    -0.699802225798E+03    0.10212E+00    0.00000E+00  8424   0.327E+00 0.000E+00
CGA:   2    -0.699855231922E+03   -0.53006E-01   -0.53008E-01  8424   0.355E+00-0.766E-04
CGA:   3    -0.699880152244E+03   -0.24920E-01   -0.24928E-01  8424   0.132E+00-0.240E-03
CGA:   4    -0.699901400345E+03   -0.21248E-01   -0.21268E-01  8424   0.342E-01-0.582E-03
CGA:   5    -0.699905522132E+03   -0.41218E-02   -0.41267E-02  8424   0.137E-01 0.626E-03
CGA:   6    -0.699906672760E+03   -0.11506E-02   -0.11538E-02  8424   0.718E-02 0.481E-04
CGA:   7    -0.699907293846E+03   -0.62109E-03   -0.61812E-03  8424   0.157E-02-0.927E-04
CGA:   8    -0.699907543537E+03   -0.24969E-03   -0.25509E-03  8424   0.848E-03-0.134E-03
CGA:   9    -0.699907612115E+03   -0.68578E-04   -0.67506E-04  8424   0.509E-03-0.289E-04
CGA:  10    -0.699907657210E+03   -0.45095E-04   -0.45251E-04  8424   0.157E-03 0.467E-05
CGA:  11    -0.699907676864E+03   -0.19653E-04   -0.19604E-04  8424   0.479E-04 0.367E-04
CGA:  12    -0.699907688172E+03   -0.11308E-04   -0.22450E-04  8424   0.202E-03-0.433E-04
CGA:  13    -0.699907697248E+03   -0.90766E-05   -0.92582E-05  8424   0.364E-04 0.180E-05
  10 F= -.69990770E+03 E0= -.69989779E+03  d E =-.334648E-02  mag=     1.9917
       N       E                     dE             d eps       ncg     rms          ort
SDA:   1    -0.699248299538E+03    0.65939E+00    0.00000E+00  8424   0.198E+01 0.000E+00
CGA:   2    -0.699645884688E+03   -0.39759E+00   -0.39717E+00  8424   0.109E+01 0.515E-02
CGA:   3    -0.699798051431E+03   -0.15217E+00   -0.15210E+00  8424   0.107E+01 0.755E-02
CGA:   4    -0.699874587782E+03   -0.76536E-01   -0.76409E-01  8424   0.237E+00-0.386E-03
CGA:   5    -0.699903819664E+03   -0.29232E-01   -0.29270E-01  8424   0.603E-01 0.306E-02
CGA:   6    -0.699912153850E+03   -0.83342E-02   -0.83359E-02  8424   0.198E-01-0.237E-03
CGA:   7    -0.699913990938E+03   -0.18371E-02   -0.18362E-02  8424   0.127E-01-0.104E-04
CGA:   8    -0.699915058847E+03   -0.10679E-02   -0.10628E-02  8424   0.367E-02-0.628E-04
CGA:   9    -0.699915632843E+03   -0.57400E-03   -0.57803E-03  8424   0.139E-02-0.136E-03
CGA:  10    -0.699915786694E+03   -0.15385E-03   -0.15503E-03  8424   0.920E-03 0.885E-04
CGA:  11    -0.699915865756E+03   -0.79062E-04   -0.81442E-04  8424   0.442E-03 0.518E-04
CGA:  12    -0.699915941414E+03   -0.75657E-04   -0.77230E-04  8424   0.222E-03-0.402E-04
CGA:  13    -0.699915964847E+03   -0.23434E-04   -0.23141E-04  8424   0.203E-03-0.216E-04
CGA:  14    -0.699915985939E+03   -0.21092E-04   -0.20697E-04  8424   0.113E-03-0.272E-04
CGA:  15    -0.699915999188E+03   -0.13248E-04   -0.13536E-04  8424   0.677E-04-0.247E-04
CGA:  16    -0.699916006063E+03   -0.68759E-05   -0.69450E-05  8424   0.729E-04-0.179E-04
  11 F= -.69991601E+03 E0= -.69990600E+03  d E =-.830882E-02  mag=     1.9915
       N       E                     dE             d eps       ncg     rms          ort
SDA:   1    -0.699801873718E+03    0.11413E+00    0.00000E+00  8424   0.376E+00 0.000E+00
CGA:   2    -0.699850489073E+03   -0.48615E-01   -0.48616E-01  8424   0.494E+00-0.447E-03
CGA:   3    -0.699893626670E+03   -0.43138E-01   -0.43126E-01  8424   0.124E+00-0.270E-03
CGA:   4    -0.699913802429E+03   -0.20176E-01   -0.20197E-01  8424   0.368E-01-0.563E-03
CGA:   5    -0.699917938820E+03   -0.41364E-02   -0.41475E-02  8424   0.113E-01 0.656E-03
CGA:   6    -0.699919353853E+03   -0.14150E-02   -0.14159E-02  8424   0.700E-02 0.208E-03
CGA:   7    -0.699919809790E+03   -0.45594E-03   -0.45609E-03  8424   0.163E-02-0.779E-05
CGA:   8    -0.699920067407E+03   -0.25762E-03   -0.26179E-03  8424   0.690E-03-0.113E-03
CGA:   9    -0.699920139238E+03   -0.71831E-04   -0.71888E-04  8424   0.388E-03 0.398E-05
CGA:  10    -0.699920169804E+03   -0.30566E-04   -0.31357E-04  8424   0.185E-03 0.175E-04
CGA:  11    -0.699920195604E+03   -0.25800E-04   -0.25698E-04  8424   0.597E-04 0.969E-05
CGA:  12    -0.699920207847E+03   -0.12243E-04   -0.18390E-04  8424   0.194E-03-0.364E-04
CGA:  13    -0.699920216172E+03   -0.83246E-05   -0.85139E-05  8424   0.260E-04 0.175E-05
  12 F= -.69992022E+03 E0= -.69991020E+03  d E =-.421011E-02  mag=     1.9914
       N       E                     dE             d eps       ncg     rms          ort
SDA:   1    -0.699908369804E+03    0.11838E-01    0.00000E+00  8424   0.395E-01 0.000E+00
CGA:   2    -0.699915190456E+03   -0.68207E-02   -0.68221E-02  8424   0.330E-01-0.504E-04
CGA:   3    -0.699917785637E+03   -0.25952E-02   -0.25980E-02  8424   0.181E-01 0.805E-04
CGA:   4    -0.699919930014E+03   -0.21444E-02   -0.21451E-02  8424   0.563E-02 0.109E-03
CGA:   5    -0.699920623715E+03   -0.69370E-03   -0.69332E-03  8424   0.164E-02-0.140E-03
CGA:   6    -0.699920814054E+03   -0.19034E-03   -0.19029E-03  8424   0.913E-03-0.598E-05
CGA:   7    -0.699920872669E+03   -0.58615E-04   -0.58667E-04  8424   0.237E-03 0.525E-06
CGA:   8    -0.699920907831E+03   -0.35162E-04   -0.35709E-04  8424   0.933E-04-0.194E-04
CGA:   9    -0.699920918684E+03   -0.10853E-04   -0.10898E-04  8424   0.632E-04-0.122E-04
CGA:  10    -0.699920923419E+03   -0.47349E-05   -0.45549E-05  8424   0.328E-04-0.447E-05
  13 F= -.69992092E+03 E0= -.69991091E+03  d E =-.707248E-03  mag=     1.9913
       N       E                     dE             d eps       ncg     rms          ort
SDA:   1    -0.699889881916E+03    0.31037E-01    0.00000E+00  8424   0.955E-01 0.000E+00
CGA:   2    -0.699909464432E+03   -0.19583E-01   -0.19595E-01  8424   0.731E-01-0.176E-03
CGA:   3    -0.699915558010E+03   -0.60936E-02   -0.60838E-02  8424   0.499E-01-0.116E-04
CGA:   4    -0.699921167594E+03   -0.56096E-02   -0.56108E-02  8424   0.925E-02 0.104E-03
CGA:   5    -0.699922377668E+03   -0.12101E-02   -0.12091E-02  8424   0.331E-02 0.136E-03
CGA:   6    -0.699922728291E+03   -0.35062E-03   -0.35208E-03  8424   0.168E-02 0.727E-04
CGA:   7    -0.699922852162E+03   -0.12387E-03   -0.12303E-03  8424   0.517E-03-0.158E-04
CGA:   8    -0.699922932024E+03   -0.79863E-04   -0.85504E-04  8424   0.314E-03-0.121E-03
CGA:   9    -0.699922952758E+03   -0.20734E-04   -0.20497E-04  8424   0.137E-03-0.636E-05
CGA:  10    -0.699922962358E+03   -0.95998E-05   -0.10585E-04  8424   0.466E-04 0.235E-04
  14 F= -.69992296E+03 E0= -.69991292E+03  d E =-.203894E-02  mag=     1.9912
       N       E                     dE             d eps       ncg     rms          ort
SDA:   1    -0.699794039646E+03    0.12891E+00    0.00000E+00  8424   0.350E+00 0.000E+00
CGA:   2    -0.699878145906E+03   -0.84106E-01   -0.84121E-01  8424   0.247E+00-0.171E-03
CGA:   3    -0.699903810299E+03   -0.25664E-01   -0.25664E-01  8424   0.198E+00 0.399E-04
CGA:   4    -0.699919863840E+03   -0.16054E-01   -0.16067E-01  8424   0.365E-01 0.267E-03
CGA:   5    -0.699924250038E+03   -0.43862E-02   -0.43863E-02  8424   0.122E-01 0.153E-03
CGA:   6    -0.699925805262E+03   -0.15552E-02   -0.15546E-02  8424   0.433E-02 0.896E-04
CGA:   7    -0.699926141386E+03   -0.33612E-03   -0.33250E-03  8424   0.232E-02-0.813E-04
CGA:   8    -0.699926413739E+03   -0.27235E-03   -0.27242E-03  8424   0.648E-03-0.161E-03
CGA:   9    -0.699926492304E+03   -0.78565E-04   -0.78335E-04  8424   0.340E-03 0.213E-04
CGA:  10    -0.699926519315E+03   -0.27011E-04   -0.28228E-04  8424   0.167E-03 0.308E-04
CGA:  11    -0.699926539110E+03   -0.19795E-04   -0.20009E-04  8424   0.586E-04 0.284E-04
CGA:  12    -0.699926553292E+03   -0.14182E-04   -0.14242E-04  8424   0.448E-04-0.717E-06
CGA:  13    -0.699926556980E+03   -0.36873E-05   -0.36992E-05  8424   0.277E-04 0.292E-06
  15 F= -.69992656E+03 E0= -.69991646E+03  d E =-.359462E-02  mag=     1.9908
       N       E                     dE             d eps       ncg     rms          ort
SDA:   1    -0.699789878675E+03    0.13667E+00    0.00000E+00  8424   0.393E+00 0.000E+00
CGA:   2    -0.699873233183E+03   -0.83355E-01   -0.83321E-01  8424   0.280E+00 0.288E-03
CGA:   3    -0.699901186864E+03   -0.27954E-01   -0.27948E-01  8424   0.220E+00-0.132E-03
CGA:   4    -0.699920841852E+03   -0.19655E-01   -0.19661E-01  8424   0.497E-01 0.621E-04
CGA:   5    -0.699926348355E+03   -0.55065E-02   -0.55059E-02  8424   0.137E-01 0.114E-03
CGA:   6    -0.699928287899E+03   -0.19395E-02   -0.19360E-02  8424   0.507E-02 0.166E-03
CGA:   7    -0.699928669316E+03   -0.38142E-03   -0.37690E-03  8424   0.255E-02-0.924E-04
CGA:   8    -0.699928977370E+03   -0.30805E-03   -0.30867E-03  8424   0.804E-03-0.208E-03
CGA:   9    -0.699929070839E+03   -0.93469E-04   -0.93416E-04  8424   0.395E-03 0.838E-05
CGA:  10    -0.699929101309E+03   -0.30470E-04   -0.31992E-04  8424   0.191E-03 0.372E-04
CGA:  11    -0.699929123518E+03   -0.22210E-04   -0.22600E-04  8424   0.601E-04 0.362E-04
CGA:  12    -0.699929140175E+03   -0.16657E-04   -0.17989E-04  8424   0.593E-04-0.100E-04
CGA:  13    -0.699929143789E+03   -0.36145E-05   -0.36871E-05  8424   0.290E-04 0.142E-05
  16 F= -.69992914E+03 E0= -.69991900E+03  d E =-.258681E-02  mag=     1.9906
       N       E                     dE             d eps       ncg     rms          ort
SDA:   1    -0.699910768320E+03    0.18372E-01    0.00000E+00  8424   0.509E-01 0.000E+00
CGA:   2    -0.699922504194E+03   -0.11736E-01   -0.11685E-01  8424   0.323E-01 0.461E-03
CGA:   3    -0.699926571222E+03   -0.40670E-02   -0.40668E-02  8424   0.244E-01-0.239E-03
CGA:   4    -0.699928296748E+03   -0.17255E-02   -0.17211E-02  8424   0.645E-02-0.101E-03
CGA:   5    -0.699928968353E+03   -0.67161E-03   -0.67476E-03  8424   0.170E-02 0.160E-03
CGA:   6    -0.699929239742E+03   -0.27139E-03   -0.27250E-03  8424   0.416E-03-0.341E-04
CGA:   7    -0.699929294977E+03   -0.55235E-04   -0.55156E-04  8424   0.210E-03 0.738E-05
CGA:   8    -0.699929310988E+03   -0.16011E-04   -0.16236E-04  8424   0.103E-03 0.443E-05
CGA:   9    -0.699929322786E+03   -0.11798E-04   -0.11770E-04  8424   0.388E-04-0.270E-05
CGA:  10    -0.699929329332E+03   -0.65462E-05   -0.81547E-05  8424   0.442E-04-0.173E-04
  17 F= -.69992933E+03 E0= -.69991919E+03  d E =-.185543E-03  mag=     1.9907
       N       E                     dE             d eps       ncg     rms          ort
SDA:   1    -0.699923399875E+03    0.59229E-02    0.00000E+00  8424   0.176E-01 0.000E+00
CGA:   2    -0.699925870093E+03   -0.24702E-02   -0.24699E-02  8424   0.212E-01 0.113E-04
CGA:   3    -0.699927556751E+03   -0.16867E-02   -0.16877E-02  8424   0.665E-02 0.213E-04
CGA:   4    -0.699928580535E+03   -0.10238E-02   -0.10232E-02  8424   0.213E-02 0.146E-04
CGA:   5    -0.699928825039E+03   -0.24450E-03   -0.24394E-03  8424   0.612E-03-0.511E-04
CGA:   6    -0.699928900805E+03   -0.75765E-04   -0.75842E-04  8424   0.425E-03-0.256E-04
CGA:   7    -0.699928924835E+03   -0.24030E-04   -0.24553E-04  8424   0.806E-04 0.791E-05
CGA:   8    -0.699928932599E+03   -0.77639E-05   -0.83238E-05  8424   0.253E-04 0.287E-04
  18 F= -.69992893E+03 E0= -.69991880E+03  d E =0.396734E-03  mag=     1.9908
       N       E                     dE             d eps       ncg     rms          ort
SDA:   1    -0.699911754213E+03    0.17171E-01    0.00000E+00  8424   0.527E-01 0.000E+00
CGA:   2    -0.699917548000E+03   -0.57938E-02   -0.57940E-02  8424   0.701E-01-0.840E-04
CGA:   3    -0.699925722562E+03   -0.81746E-02   -0.81743E-02  8424   0.134E-01-0.161E-03
CGA:   4    -0.699927808240E+03   -0.20857E-02   -0.20810E-02  8424   0.356E-02 0.121E-03
CGA:   5    -0.699928279469E+03   -0.47123E-03   -0.47146E-03  8424   0.116E-02-0.216E-04
CGA:   6    -0.699928437767E+03   -0.15830E-03   -0.15648E-03  8424   0.210E-03 0.120E-03
CGA:   7    -0.699928475365E+03   -0.37598E-04   -0.37577E-04  8424   0.156E-03 0.458E-06
CGA:   8    -0.699928485810E+03   -0.10445E-04   -0.10322E-04  8424   0.565E-04-0.230E-05
CGA:   9    -0.699928493161E+03   -0.73518E-05   -0.73327E-05  8424   0.243E-04 0.166E-05
  19 F= -.69992849E+03 E0= -.69991836E+03  d E =0.439437E-03  mag=     1.9907
       N       E                     dE             d eps       ncg     rms          ort
SDA:   1    -0.699906813366E+03    0.21672E-01    0.00000E+00  8424   0.596E-01 0.000E+00
CGA:   2    -0.699920486546E+03   -0.13673E-01   -0.13662E-01  8424   0.430E-01 0.949E-04
CGA:   3    -0.699924902642E+03   -0.44161E-02   -0.44170E-02  8424   0.352E-01-0.421E-04
CGA:   4    -0.699927890150E+03   -0.29875E-02   -0.29860E-02  8424   0.637E-02-0.417E-04
CGA:   5    -0.699928630109E+03   -0.73996E-03   -0.74098E-03  8424   0.203E-02 0.116E-03
CGA:   6    -0.699928885349E+03   -0.25524E-03   -0.25536E-03  8424   0.712E-03 0.936E-04
CGA:   7    -0.699928943788E+03   -0.58439E-04   -0.58059E-04  8424   0.401E-03-0.857E-05
CGA:   8    -0.699928993921E+03   -0.50133E-04   -0.50366E-04  8424   0.117E-03-0.473E-04
CGA:   9    -0.699929005767E+03   -0.11846E-04   -0.11858E-04  8424   0.718E-04 0.159E-05
CGA:  10    -0.699929010932E+03   -0.51649E-05   -0.55910E-05  8424   0.240E-04 0.938E-05
  20 F= -.69992901E+03 E0= -.69991887E+03  d E =-.517770E-03  mag=     1.9907
       N       E                     dE             d eps       ncg     rms          ort
SDA:   1    -0.696289512887E+03    0.36395E+01    0.00000E+00  8424   0.110E+02 0.000E+00
CGA:   2    -0.698116089647E+03   -0.18266E+01   -0.17862E+01  8424   0.976E+01 0.704E+00
CGA:   3    -0.698989308161E+03   -0.87322E+00   -0.85712E+00  8424   0.517E+01-0.305E-01
CGA:   4    -0.699669389567E+03   -0.68008E+00   -0.68080E+00  8424   0.140E+01-0.358E-01
CGA:   5    -0.699840927119E+03   -0.17154E+00   -0.17137E+00  8424   0.293E+00 0.254E-01
CGA:   6    -0.699888399751E+03   -0.47473E-01   -0.47441E-01  8424   0.947E-01 0.126E-02
CGA:   7    -0.699897605181E+03   -0.92054E-02   -0.92308E-02  8424   0.645E-01-0.456E-03
CGA:   8    -0.699902600647E+03   -0.49955E-02   -0.49807E-02  8424   0.228E-01-0.780E-03
CGA:   9    -0.699905480183E+03   -0.28795E-02   -0.28768E-02  8424   0.635E-02 0.275E-03
CGA:  10    -0.699906660204E+03   -0.11800E-02   -0.11616E-02  8424   0.273E-02 0.297E-03
CGA:  11    -0.699907122274E+03   -0.46207E-03   -0.45872E-03  8424   0.183E-02 0.834E-04
CGA:  12    -0.699907303045E+03   -0.18077E-03   -0.18065E-03  8424   0.143E-02-0.735E-05
CGA:  13    -0.699907448558E+03   -0.14551E-03   -0.14513E-03  8424   0.535E-03-0.207E-04
CGA:  14    -0.699907531070E+03   -0.82512E-04   -0.80756E-04  8424   0.234E-03 0.556E-04
CGA:  15    -0.699907572890E+03   -0.41820E-04   -0.40090E-04  8424   0.939E-04 0.544E-04
CGA:  16    -0.699907589744E+03   -0.16855E-04   -0.35899E-04  8424   0.605E-03-0.103E-03
CGA:  17    -0.699907610601E+03   -0.20857E-04   -0.23374E-04  8424   0.391E-04 0.258E-04
CGA:  18    -0.699907611008E+03   -0.40721E-06   -0.21884E-05  8424   0.193E-04 0.234E-04
  21 F= -.69990761E+03 E0= -.69989729E+03  d E =0.213999E-01  mag=     1.9888
       N       E                     dE             d eps       ncg     rms          ort
SDA:   1    -0.697582732680E+03    0.23249E+01    0.00000E+00  8424   0.700E+01 0.000E+00
CGA:   2    -0.698937943574E+03   -0.13552E+01   -0.13397E+01  8424   0.416E+01 0.191E+00
CGA:   3    -0.699442002614E+03   -0.50406E+00   -0.50240E+00  8424   0.417E+01-0.785E-01
CGA:   4    -0.699773035055E+03   -0.33103E+00   -0.33210E+00  8424   0.929E+00-0.415E-02
CGA:   5    -0.699884002884E+03   -0.11097E+00   -0.11100E+00  8424   0.231E+00 0.247E-02
CGA:   6    -0.699910801776E+03   -0.26799E-01   -0.26783E-01  8424   0.166E+00-0.820E-03
CGA:   7    -0.699921017960E+03   -0.10216E-01   -0.10265E-01  8424   0.352E-01-0.216E-03
CGA:   8    -0.699926247100E+03   -0.52291E-02   -0.52366E-02  8424   0.136E-01-0.249E-03
CGA:   9    -0.699927945579E+03   -0.16985E-02   -0.16970E-02  8424   0.774E-02 0.318E-03
CGA:  10    -0.699928492826E+03   -0.54725E-03   -0.55023E-03  8424   0.370E-02 0.407E-04
CGA:  11    -0.699929046039E+03   -0.55321E-03   -0.55835E-03  8424   0.127E-02-0.168E-03
CGA:  12    -0.699929262039E+03   -0.21600E-03   -0.21445E-03  8424   0.568E-03 0.267E-04
CGA:  13    -0.699929384882E+03   -0.12284E-03   -0.14325E-03  8424   0.492E-03-0.166E-03
CGA:  14    -0.699929424943E+03   -0.40062E-04   -0.40270E-04  8424   0.158E-03 0.144E-04
CGA:  15    -0.699929452863E+03   -0.27919E-04   -0.28018E-04  8424   0.158E-03-0.234E-05
CGA:  16    -0.699929468919E+03   -0.16056E-04   -0.15451E-04  8424   0.757E-04-0.191E-04
CGA:  17    -0.699929473698E+03   -0.47797E-05   -0.48461E-05  8424   0.335E-04 0.111E-05
  22 F= -.69992947E+03 E0= -.69991934E+03  d E =-.218627E-01  mag=     1.9907
       N       E                     dE             d eps       ncg     rms          ort
SDA:   1    -0.699855316694E+03    0.74152E-01    0.00000E+00  8424   0.255E+00 0.000E+00
CGA:   2    -0.699900952593E+03   -0.45636E-01   -0.45622E-01  8424   0.992E-01 0.229E-03
CGA:   3    -0.699918585020E+03   -0.17632E-01   -0.17629E-01  8424   0.951E-01 0.133E-04
CGA:   4    -0.699924839597E+03   -0.62546E-02   -0.62607E-02  8424   0.284E-01-0.109E-03
CGA:   5    -0.699928605345E+03   -0.37657E-02   -0.37654E-02  8424   0.727E-02 0.398E-04
CGA:   6    -0.699929574664E+03   -0.96932E-03   -0.96891E-03  8424   0.278E-02 0.777E-04
CGA:   7    -0.699929799414E+03   -0.22475E-03   -0.22331E-03  8424   0.140E-02-0.345E-04
CGA:   8    -0.699929933758E+03   -0.13434E-03   -0.13302E-03  8424   0.391E-03-0.460E-04
CGA:   9    -0.699929987907E+03   -0.54149E-04   -0.53652E-04  8424   0.158E-03 0.279E-04
CGA:  10    -0.699930005820E+03   -0.17913E-04   -0.17911E-04  8424   0.135E-03-0.248E-06
CGA:  11    -0.699930019054E+03   -0.13234E-04   -0.13140E-04  8424   0.380E-04-0.365E-05
CGA:  12    -0.699930023625E+03   -0.45714E-05   -0.45660E-05  8424   0.160E-04 0.688E-05
  23 F= -.69993002E+03 E0= -.69991984E+03  d E =-.549927E-03  mag=     1.9899
       N       E                     dE             d eps       ncg     rms          ort
SDA:   1    -0.699917695086E+03    0.12324E-01    0.00000E+00  8424   0.664E-01 0.000E+00
CGA:   2    -0.699922347503E+03   -0.46524E-02   -0.46573E-02  8424   0.409E-01 0.329E-04
CGA:   3    -0.699927547739E+03   -0.52002E-02   -0.51999E-02  8424   0.120E-01 0.107E-03
CGA:   4    -0.699929945901E+03   -0.23982E-02   -0.23985E-02  8424   0.410E-02-0.982E-05
CGA:   5    -0.699930414608E+03   -0.46871E-03   -0.46915E-03  8424   0.252E-02 0.336E-04
CGA:   6    -0.699930596330E+03   -0.18172E-03   -0.18329E-03  8424   0.795E-03 0.271E-04
CGA:   7    -0.699930686037E+03   -0.89707E-04   -0.89850E-04  8424   0.178E-03 0.111E-04
CGA:   8    -0.699930715549E+03   -0.29513E-04   -0.30479E-04  8424   0.105E-03-0.216E-04
CGA:   9    -0.699930722363E+03   -0.68134E-05   -0.66697E-05  8424   0.520E-04-0.276E-05
  24 F= -.69993072E+03 E0= -.69992055E+03  d E =-.698738E-03  mag=     1.9902
       N       E                     dE             d eps       ncg     rms          ort
SDA:   1    -0.699924554270E+03    0.61613E-02    0.00000E+00  8424   0.192E-01 0.000E+00
CGA:   2    -0.699928202873E+03   -0.36486E-02   -0.36506E-02  8424   0.117E-01-0.337E-04
CGA:   3    -0.699929957995E+03   -0.17551E-02   -0.17539E-02  8424   0.645E-02 0.483E-04
CGA:   4    -0.699930519575E+03   -0.56158E-03   -0.56167E-03  8424   0.354E-02-0.448E-05
CGA:   5    -0.699930800233E+03   -0.28066E-03   -0.28120E-03  8424   0.599E-03 0.105E-04
CGA:   6    -0.699930889772E+03   -0.89539E-04   -0.87875E-04  8424   0.125E-03 0.707E-04
CGA:   7    -0.699930912066E+03   -0.22293E-04   -0.22990E-04  8424   0.130E-03-0.173E-04
CGA:   8    -0.699930919310E+03   -0.72449E-05   -0.69361E-05  8424   0.370E-04-0.490E-05
  25 F= -.69993092E+03 E0= -.69992075E+03  d E =-.196948E-03  mag=     1.9902
       N       E                     dE             d eps       ncg     rms          ort
SDA:   1    -0.699853858040E+03    0.77054E-01    0.00000E+00  8424   0.227E+00 0.000E+00
CGA:   2    -0.699895223941E+03   -0.41366E-01   -0.41330E-01  8424   0.218E+00 0.448E-03
CGA:   3    -0.699911203255E+03   -0.15979E-01   -0.15968E-01  8424   0.104E+00 0.254E-04
CGA:   4    -0.699926508877E+03   -0.15306E-01   -0.15306E-01  8424   0.217E-01-0.116E-04
CGA:   5    -0.699929348210E+03   -0.28393E-02   -0.28376E-02  8424   0.973E-02 0.185E-03
CGA:   6    -0.699930093953E+03   -0.74574E-03   -0.75102E-03  8424   0.409E-02 0.129E-03
CGA:   7    -0.699930466561E+03   -0.37261E-03   -0.37472E-03  8424   0.111E-02 0.692E-04
CGA:   8    -0.699930636631E+03   -0.17007E-03   -0.17283E-03  8424   0.488E-03-0.825E-04
CGA:   9    -0.699930679077E+03   -0.42446E-04   -0.42556E-04  8424   0.293E-03 0.382E-05
CGA:  10    -0.699930702610E+03   -0.23532E-04   -0.24491E-04  8424   0.954E-04 0.259E-04
CGA:  11    -0.699930715619E+03   -0.13009E-04   -0.12864E-04  8424   0.290E-04 0.245E-04
CGA:  12    -0.699930723034E+03   -0.74148E-05   -0.67594E-05  8424   0.108E-04 0.977E-05
  26 F= -.69993072E+03 E0= -.69992055E+03  d E =0.196277E-03  mag=     1.9902
       N       E                     dE             d eps       ncg     rms          ort
SDA:   1    -0.699923109655E+03    0.76060E-02    0.00000E+00  8424   0.241E-01 0.000E+00
CGA:   2    -0.699927951547E+03   -0.48419E-02   -0.48408E-02  8424   0.134E-01 0.947E-05
CGA:   3    -0.699929507789E+03   -0.15562E-02   -0.15561E-02  8424   0.133E-01-0.339E-04
CGA:   4    -0.699930575902E+03   -0.10681E-02   -0.10671E-02  8424   0.227E-02-0.377E-04
CGA:   5    -0.699930913546E+03   -0.33764E-03   -0.33784E-03  8424   0.726E-03-0.739E-05
CGA:   6    -0.699930995186E+03   -0.81640E-04   -0.81613E-04  8424   0.386E-03-0.340E-05
CGA:   7    -0.699931020860E+03   -0.25673E-04   -0.26348E-04  8424   0.123E-03 0.122E-04
CGA:   8    -0.699931033678E+03   -0.12818E-04   -0.13157E-04  8424   0.277E-04 0.210E-04
CGA:   9    -0.699931040162E+03   -0.64842E-05   -0.63268E-05  8424   0.123E-04 0.209E-05
  27 F= -.69993104E+03 E0= -.69992088E+03  d E =-.317129E-03  mag=     1.9902
