       N       E                     dE             d eps       ncg     rms          rms(c)
DAV:   1     0.308022858684E+04    0.30802E+04   -0.25842E+05 73068   0.132E+03
DAV:   2    -0.603822141876E+03   -0.36841E+04   -0.35545E+04 87631   0.300E+02
DAV:   3    -0.871557861879E+03   -0.26774E+03   -0.26557E+03 88456   0.852E+01
DAV:   4    -0.875047092570E+03   -0.34892E+01   -0.34757E+01 87888   0.104E+01
DAV:   5    -0.875111159891E+03   -0.64067E-01   -0.63910E-01 89944   0.129E+00    0.988E+01
DAV:   6    -0.782434302606E+03    0.92677E+02   -0.39747E+02 83067   0.318E+01    0.510E+01
DAV:   7    -0.790974166277E+03   -0.85399E+01   -0.26679E+01 83536   0.886E+00    0.178E+01
DAV:   8    -0.794523388243E+03   -0.35492E+01   -0.94076E+00 95856   0.504E+00    0.951E+00
DAV:   9    -0.796194975124E+03   -0.16716E+01   -0.39353E+00 91600   0.333E+00    0.725E+00
DAV:  10    -0.796995969860E+03   -0.80099E+00   -0.51795E+00 90592   0.251E+00    0.575E+00
DAV:  11    -0.797326985230E+03   -0.33102E+00   -0.32428E+00 96832   0.207E+00    0.371E+00
DAV:  12    -0.797457400058E+03   -0.13041E+00   -0.52674E-01 88104   0.132E+00    0.213E+00
DAV:  13    -0.797518937002E+03   -0.61537E-01   -0.23772E-01 92880   0.912E-01    0.126E+00
DAV:  14    -0.797551522364E+03   -0.32585E-01   -0.17913E-01 88240   0.451E-01    0.283E+00
DAV:  15    -0.797548394335E+03    0.31280E-02   -0.19811E-02 93752   0.331E-01    0.267E+00
DAV:  16    -0.797535096922E+03    0.13297E-01   -0.21339E-01101584   0.498E-01    0.208E+00
DAV:  17    -0.797540578688E+03   -0.54818E-02   -0.26731E-02 88760   0.341E-01    0.177E+00
DAV:  18    -0.797539844881E+03    0.73381E-03   -0.14689E-02 81680   0.198E-01    0.138E+00
DAV:  19    -0.797538660659E+03    0.11842E-02   -0.15538E-02 93000   0.233E-01    0.470E-01
DAV:  20    -0.797540415873E+03   -0.17552E-02   -0.49596E-03 87808   0.129E-01    0.495E-01
DAV:  21    -0.797540683067E+03   -0.26719E-03   -0.50709E-04 92912   0.583E-02    0.407E-01
DAV:  22    -0.797540577798E+03    0.10527E-03   -0.13100E-03 98536   0.724E-02    0.826E-02
DAV:  23    -0.797540715602E+03   -0.13780E-03   -0.35166E-04 82536   0.330E-02    0.490E-02
DAV:  24    -0.797540732549E+03   -0.16947E-04   -0.40439E-05 64432   0.111E-02    0.485E-02
DAV:  25    -0.797540731734E+03    0.81562E-06   -0.31477E-05 65096   0.119E-02
   1 F= -.79754073E+03 E0= -.79752248E+03  d E =-.797541E+03  mag=     0.1634
       N       E                     dE             d eps       ncg     rms          rms(c)
DAV:   1    -0.797540739696E+03   -0.71468E-05   -0.74651E-03 75304   0.157E-01    0.195E-01
DAV:   2    -0.797541619415E+03   -0.87972E-03   -0.66514E-03110688   0.151E-01    0.762E-01
DAV:   3    -0.797540405465E+03    0.12139E-02   -0.36906E-03112000   0.115E-01    0.881E-02
DAV:   4    -0.797540666122E+03   -0.26066E-03   -0.33035E-04 83928   0.342E-02    0.598E-02
DAV:   5    -0.797540698436E+03   -0.32314E-04   -0.73640E-05 69512   0.151E-02    0.680E-02
DAV:   6    -0.797540687130E+03    0.11305E-04   -0.79907E-05 53536   0.120E-02    0.397E-02
DAV:   7    -0.797540687699E+03   -0.56876E-06   -0.11461E-05 46264   0.680E-03
   2 F= -.79754069E+03 E0= -.79752244E+03  d E =0.440346E-04  mag=     0.1686
       N       E                     dE             d eps       ncg     rms          rms(c)
DAV:   1    -0.797540769181E+03   -0.82051E-04   -0.40470E-03 74472   0.115E-01    0.145E-01
DAV:   2    -0.797541275383E+03   -0.50620E-03   -0.31973E-03111136   0.112E-01    0.604E-01
DAV:   3    -0.797540548773E+03    0.72661E-03   -0.25217E-03108616   0.874E-02    0.871E-02
DAV:   4    -0.797540722792E+03   -0.17402E-03   -0.21903E-04 79992   0.270E-02    0.242E-02
DAV:   5    -0.797540739739E+03   -0.16947E-04   -0.22703E-05 64808   0.978E-03    0.247E-02
DAV:   6    -0.797540739325E+03    0.41412E-06   -0.14880E-05 40928   0.597E-03
   3 F= -.79754074E+03 E0= -.79752250E+03  d E =-.759162E-05  mag=     0.1630
       N       E                     dE             d eps       ncg     rms          rms(c)
DAV:   1    -0.797540739464E+03    0.27554E-06   -0.64859E-05 69240   0.148E-02    0.116E-02
DAV:   2    -0.797540743344E+03   -0.38799E-05   -0.57079E-05 44152   0.849E-03    0.506E-02
DAV:   3    -0.797540738031E+03    0.53128E-05   -0.26112E-05 40080   0.640E-03    0.955E-03
DAV:   4    -0.797540739313E+03   -0.12823E-05   -0.82362E-06 39120   0.299E-03
   4 F= -.79754074E+03 E0= -.79752250E+03  d E =-.757959E-05  mag=     0.1631
