       N       E                     dE             d eps       ncg     rms          rms(c)
DAV:   1     0.305255582388E+04    0.30526E+04   -0.25830E+05 73560   0.130E+03
DAV:   2    -0.613801764405E+03   -0.36664E+04   -0.35374E+04 89472   0.298E+02
DAV:   3    -0.871807976563E+03   -0.25801E+03   -0.25587E+03 88992   0.833E+01
DAV:   4    -0.875029341041E+03   -0.32214E+01   -0.32094E+01 89436   0.100E+01
DAV:   5    -0.875083878474E+03   -0.54537E-01   -0.54401E-01 91008   0.120E+00    0.989E+01
DAV:   6    -0.782354291284E+03    0.92730E+02   -0.39423E+02 83016   0.316E+01    0.505E+01
DAV:   7    -0.790777148924E+03   -0.84229E+01   -0.28960E+01 85968   0.926E+00    0.183E+01
DAV:   8    -0.794184798086E+03   -0.34076E+01   -0.40560E+00 91896   0.457E+00    0.983E+00
DAV:   9    -0.795980468976E+03   -0.17957E+01   -0.35881E+00 91320   0.328E+00    0.655E+00
DAV:  10    -0.797077180614E+03   -0.10967E+01   -0.92884E-01 86364   0.174E+00    0.374E+00
DAV:  11    -0.797474901327E+03   -0.39772E+00   -0.18112E+00 96924   0.233E+00    0.461E+00
DAV:  12    -0.797578429027E+03   -0.10353E+00   -0.57000E-01 91164   0.114E+00    0.432E+00
DAV:  13    -0.797556240975E+03    0.22188E-01   -0.58626E-01 97032   0.902E-01    0.280E+00
DAV:  14    -0.797573280335E+03   -0.17039E-01   -0.12285E-01 94956   0.843E-01    0.202E+00
DAV:  15    -0.797588910446E+03   -0.15630E-01   -0.15879E-01 89496   0.531E-01    0.233E+00
DAV:  16    -0.797566944186E+03    0.21966E-01   -0.13186E-01 96732   0.514E-01    0.102E+00
DAV:  17    -0.797564042659E+03    0.29015E-02   -0.19650E-02 88308   0.265E-01    0.842E-01
DAV:  18    -0.797561500098E+03    0.25426E-02   -0.71415E-03113964   0.238E-01    0.522E-01
DAV:  19    -0.797561164148E+03    0.33595E-03   -0.50397E-03 82584   0.113E-01    0.315E-01
DAV:  20    -0.797561292190E+03   -0.12804E-03   -0.14607E-03 80844   0.671E-02    0.265E-01
DAV:  21    -0.797561276870E+03    0.15320E-04   -0.10166E-03 90372   0.589E-02    0.129E-01
DAV:  22    -0.797561389735E+03   -0.11286E-03   -0.59765E-04 89796   0.386E-02    0.155E-01
DAV:  23    -0.797561416717E+03   -0.26982E-04   -0.18399E-04 83364   0.273E-02    0.985E-02
DAV:  24    -0.797561427348E+03   -0.10631E-04   -0.11840E-04 91908   0.241E-02    0.641E-02
DAV:  25    -0.797561420073E+03    0.72757E-05   -0.54085E-05 79092   0.165E-02
   1 F= -.79756142E+03 E0= -.79754337E+03  d E =-.797561E+03  mag=     0.6027
       N       E                     dE             d eps       ncg     rms          rms(c)
DAV:   1    -0.797561627441E+03   -0.20009E-03   -0.55002E-03 75864   0.135E-01    0.127E-01
DAV:   2    -0.797561932439E+03   -0.30500E-03   -0.24846E-03108432   0.985E-02    0.406E-01
DAV:   3    -0.797561493766E+03    0.43867E-03   -0.11608E-03101196   0.724E-02    0.603E-02
DAV:   4    -0.797561595421E+03   -0.10165E-03   -0.18120E-04 76980   0.236E-02    0.282E-02
DAV:   5    -0.797561604912E+03   -0.94908E-05   -0.22784E-05 64236   0.111E-02
   2 F= -.79756160E+03 E0= -.79754356E+03  d E =-.184839E-03  mag=     0.6061
       N       E                     dE             d eps       ncg     rms          rms(c)
DAV:   1    -0.797561688873E+03   -0.93452E-04   -0.42147E-03 75672   0.119E-01    0.899E-02
DAV:   2    -0.797561852225E+03   -0.16335E-03   -0.15190E-03108552   0.709E-02    0.294E-01
DAV:   3    -0.797561608457E+03    0.24377E-03   -0.64597E-04 97728   0.524E-02    0.435E-02
DAV:   4    -0.797561669153E+03   -0.60696E-04   -0.11870E-04 76560   0.182E-02    0.307E-02
DAV:   5    -0.797561677293E+03   -0.81396E-05   -0.18325E-05 59544   0.102E-02
   3 F= -.79756168E+03 E0= -.79754365E+03  d E =-.723809E-04  mag=     0.6096
       N       E                     dE             d eps       ncg     rms          rms(c)
DAV:   1    -0.797561752098E+03   -0.82945E-04   -0.42304E-02 75528   0.380E-01    0.202E-01
DAV:   2    -0.797562624085E+03   -0.87199E-03   -0.76286E-03108168   0.165E-01    0.664E-01
DAV:   3    -0.797561474286E+03    0.11498E-02   -0.34287E-03 97644   0.118E-01    0.115E-01
DAV:   4    -0.797561692842E+03   -0.21856E-03   -0.45526E-04 76944   0.369E-02    0.339E-02
DAV:   5    -0.797561724926E+03   -0.32084E-04   -0.71766E-05 83076   0.191E-02    0.330E-02
DAV:   6    -0.797561723980E+03    0.94563E-06   -0.13775E-05 57504   0.100E-02
   4 F= -.79756172E+03 E0= -.79754369E+03  d E =-.466874E-04  mag=     0.6195
       N       E                     dE             d eps       ncg     rms          rms(c)
DAV:   1    -0.797561565248E+03    0.15968E-03   -0.17331E-01 75192   0.770E-01    0.149E-01
DAV:   2    -0.797562179209E+03   -0.61396E-03   -0.70628E-03 88656   0.150E-01    0.431E-01
DAV:   3    -0.797561706019E+03    0.47319E-03   -0.19355E-03 89304   0.811E-02    0.542E-02
DAV:   4    -0.797561821572E+03   -0.11555E-03   -0.36011E-04 78216   0.282E-02    0.795E-02
DAV:   5    -0.797561821359E+03    0.21241E-06   -0.24400E-04 71724   0.222E-02    0.598E-02
DAV:   6    -0.797561822870E+03   -0.15106E-05   -0.24275E-05 59988   0.125E-02
   5 F= -.79756182E+03 E0= -.79754369E+03  d E =-.988899E-04  mag=     0.6272
       N       E                     dE             d eps       ncg     rms          rms(c)
DAV:   1    -0.797560631288E+03    0.11901E-02   -0.59956E-01 74064   0.144E+00    0.404E-01
DAV:   2    -0.797564444102E+03   -0.38128E-02   -0.37643E-02 97440   0.353E-01    0.120E+00
DAV:   3    -0.797561224684E+03    0.32194E-02   -0.10606E-02102396   0.215E-01    0.227E-01
DAV:   4    -0.797561471506E+03   -0.24682E-03   -0.21331E-03 83580   0.748E-02    0.134E-01
DAV:   5    -0.797561494523E+03   -0.23018E-04   -0.28019E-04 82128   0.408E-02    0.971E-02
DAV:   6    -0.797561468134E+03    0.26389E-04   -0.36836E-04 86052   0.297E-02    0.717E-02
DAV:   7    -0.797561477959E+03   -0.98251E-05   -0.51617E-05 77316   0.170E-02
   6 F= -.79756148E+03 E0= -.79754336E+03  d E =0.344911E-03  mag=     0.6417
       N       E                     dE             d eps       ncg     rms          rms(c)
DAV:   1    -0.797561106047E+03    0.36209E-03   -0.53687E-01 73848   0.134E+00    0.728E-01
DAV:   2    -0.797571315667E+03   -0.10210E-01   -0.14892E-01104592   0.558E-01    0.245E+00
DAV:   3    -0.797559571950E+03    0.11744E-01   -0.85415E-02 96624   0.392E-01    0.448E-01
DAV:   4    -0.797560859408E+03   -0.12875E-02   -0.57912E-03 80016   0.141E-01    0.171E-01
DAV:   5    -0.797561139534E+03   -0.28013E-03   -0.12388E-03 79872   0.801E-02    0.145E-01
DAV:   6    -0.797561068793E+03    0.70741E-04   -0.33487E-04 91908   0.427E-02    0.661E-02
DAV:   7    -0.797561060440E+03    0.83531E-05   -0.24802E-04 87252   0.256E-02    0.452E-02
DAV:   8    -0.797561061422E+03   -0.98218E-06   -0.89397E-05 68556   0.182E-02
   7 F= -.79756106E+03 E0= -.79754300E+03  d E =0.416538E-03  mag=     0.6382
       N       E                     dE             d eps       ncg     rms          rms(c)
DAV:   1    -0.797562434887E+03   -0.13744E-02   -0.10294E-01 74688   0.580E-01    0.456E-01
DAV:   2    -0.797565883197E+03   -0.34483E-02   -0.43962E-02108000   0.346E-01    0.138E+00
DAV:   3    -0.797561508462E+03    0.43747E-02   -0.15451E-02 96744   0.248E-01    0.242E-01
DAV:   4    -0.797562156294E+03   -0.64783E-03   -0.28765E-03 79488   0.886E-02    0.155E-01
DAV:   5    -0.797562278691E+03   -0.12240E-03   -0.37709E-04 82488   0.488E-02    0.121E-01
DAV:   6    -0.797562226935E+03    0.51756E-04   -0.23210E-04 82992   0.283E-02    0.325E-02
DAV:   7    -0.797562232079E+03   -0.51444E-05   -0.35972E-05 77184   0.125E-02
   8 F= -.79756223E+03 E0= -.79754420E+03  d E =-.117066E-02  mag=     0.6333
       N       E                     dE             d eps       ncg     rms          rms(c)
DAV:   1    -0.797562226992E+03   -0.57047E-07   -0.53428E-02 74544   0.429E-01    0.823E-02
DAV:   2    -0.797562389991E+03   -0.16300E-03   -0.19662E-03 89040   0.777E-02    0.204E-01
DAV:   3    -0.797562299248E+03    0.90743E-04   -0.46314E-04 91812   0.390E-02    0.275E-02
DAV:   4    -0.797562325533E+03   -0.26285E-04   -0.85333E-05 75732   0.156E-02    0.442E-02
DAV:   5    -0.797562321056E+03    0.44771E-05   -0.30344E-05 51720   0.108E-02
   9 F= -.79756232E+03 E0= -.79754426E+03  d E =-.889766E-04  mag=     0.6334
       N       E                     dE             d eps       ncg     rms          rms(c)
DAV:   1    -0.797556807033E+03    0.55185E-02   -0.26262E+00 73440   0.301E+00    0.732E-01
DAV:   2    -0.797568367960E+03   -0.11561E-01   -0.14405E-01 93936   0.654E-01    0.188E+00
DAV:   3    -0.797560282319E+03    0.80856E-02   -0.26859E-02 90468   0.361E-01    0.447E-01
DAV:   4    -0.797561021833E+03   -0.73951E-03   -0.87451E-03 82092   0.155E-01    0.364E-01
DAV:   5    -0.797561026399E+03   -0.45667E-05   -0.14184E-03 81924   0.921E-02    0.194E-01
DAV:   6    -0.797560936009E+03    0.90390E-04   -0.11894E-03 85500   0.567E-02    0.141E-01
DAV:   7    -0.797560888249E+03    0.47761E-04   -0.24395E-04 82788   0.362E-02    0.528E-02
DAV:   8    -0.797560927667E+03   -0.39418E-04   -0.50282E-04 89328   0.240E-02    0.130E-01
DAV:   9    -0.797560884287E+03    0.43380E-04   -0.22263E-04 74088   0.235E-02    0.178E-02
DAV:  10    -0.797560894388E+03   -0.10101E-04   -0.23768E-05 58512   0.813E-03    0.183E-02
DAV:  11    -0.797560894689E+03   -0.30114E-06   -0.42078E-06 46128   0.414E-03
  10 F= -.79756089E+03 E0= -.79754277E+03  d E =0.142637E-02  mag=     0.6335
       N       E                     dE             d eps       ncg     rms          rms(c)
DAV:   1    -0.797556797879E+03    0.40965E-02   -0.26771E+00 73440   0.304E+00    0.448E-01
DAV:   2    -0.797563621614E+03   -0.68237E-02   -0.69922E-02 87888   0.480E-01    0.868E-01
DAV:   3    -0.797561712401E+03    0.19092E-02   -0.11252E-02 92952   0.198E-01    0.297E-01
DAV:   4    -0.797561876209E+03   -0.16381E-03   -0.25494E-03 79344   0.985E-02    0.319E-01
DAV:   5    -0.797561622085E+03    0.25412E-03   -0.11964E-03 91044   0.662E-02    0.115E-01
DAV:   6    -0.797561608680E+03    0.13406E-04   -0.62505E-04 88908   0.482E-02    0.128E-01
DAV:   7    -0.797561591518E+03    0.17162E-04   -0.36811E-04 80148   0.355E-02    0.106E-01
DAV:   8    -0.797561572080E+03    0.19438E-04   -0.13870E-04 88740   0.233E-02    0.360E-02
DAV:   9    -0.797561576967E+03   -0.48867E-05   -0.37558E-05 63180   0.130E-02
  11 F= -.79756158E+03 E0= -.79754339E+03  d E =-.682277E-03  mag=     0.6551
       N       E                     dE             d eps       ncg     rms          rms(c)
DAV:   1    -0.797558338345E+03    0.32337E-02   -0.19867E+00 73440   0.259E+00    0.130E+00
DAV:   2    -0.797591492715E+03   -0.33154E-01   -0.35021E-01105864   0.990E-01    0.370E+00
DAV:   3    -0.797558415945E+03    0.33077E-01   -0.67543E-01103524   0.686E-01    0.893E-01
DAV:   4    -0.797558823043E+03   -0.40710E-03   -0.18715E-02 78756   0.257E-01    0.626E-01
DAV:   5    -0.797557700735E+03    0.11223E-02   -0.10674E-02 88080   0.173E-01    0.349E-01
DAV:   6    -0.797558557011E+03   -0.85628E-03   -0.30210E-03 82272   0.919E-02    0.588E-01
DAV:   7    -0.797558798628E+03   -0.24162E-03   -0.40771E-04 83700   0.410E-02    0.623E-01
DAV:   8    -0.797557973701E+03    0.82493E-03   -0.46354E-03107892   0.136E-01    0.199E-01
DAV:   9    -0.797558138411E+03   -0.16471E-03   -0.17667E-03 80484   0.688E-02    0.207E-01
DAV:  10    -0.797558054332E+03    0.84079E-04   -0.60701E-04 78036   0.420E-02    0.648E-02
DAV:  11    -0.797558097705E+03   -0.43372E-04   -0.13648E-04 76788   0.242E-02    0.544E-02
DAV:  12    -0.797558106321E+03   -0.86167E-05   -0.47215E-05 76632   0.147E-02
  12 F= -.79755811E+03 E0= -.79753989E+03  d E =0.347065E-02  mag=     0.6235
       N       E                     dE             d eps       ncg     rms          rms(c)
DAV:   1    -0.797563183608E+03   -0.50859E-02   -0.78598E-01 73440   0.162E+00    0.112E+00
DAV:   2    -0.797580702326E+03   -0.17519E-01   -0.29880E-01109584   0.843E-01    0.248E+00
DAV:   3    -0.797563885366E+03    0.16817E-01   -0.46623E-02102432   0.527E-01    0.966E-01
DAV:   4    -0.797562038116E+03    0.18472E-02   -0.17262E-02 87432   0.234E-01    0.219E-01
DAV:   5    -0.797562887697E+03   -0.84958E-03   -0.37788E-03 83316   0.128E-01    0.373E-01
DAV:   6    -0.797562585862E+03    0.30184E-03   -0.10524E-03 94224   0.741E-02    0.183E-01
DAV:   7    -0.797562579324E+03    0.65384E-05   -0.71808E-04 80388   0.522E-02    0.131E-01
DAV:   8    -0.797562558405E+03    0.20919E-04   -0.99571E-04 83856   0.403E-02    0.138E-01
DAV:   9    -0.797562518400E+03    0.40004E-04   -0.37405E-04 80232   0.311E-02    0.350E-02
DAV:  10    -0.797562529821E+03   -0.11421E-04   -0.27095E-05 71112   0.949E-03    0.442E-02
DAV:  11    -0.797562525070E+03    0.47507E-05   -0.26930E-05 54540   0.817E-03
  13 F= -.79756253E+03 E0= -.79754440E+03  d E =-.441875E-02  mag=     0.6300
       N       E                     dE             d eps       ncg     rms          rms(c)
DAV:   1    -0.797561844772E+03    0.68505E-03   -0.37947E-01 73440   0.115E+00    0.174E-01
DAV:   2    -0.797562670049E+03   -0.82528E-03   -0.96525E-03 87660   0.172E-01    0.227E-01
DAV:   3    -0.797562569754E+03    0.10030E-03   -0.11810E-03 97824   0.625E-02    0.114E-01
DAV:   4    -0.797562553643E+03    0.16110E-04   -0.23382E-04 83244   0.338E-02    0.592E-02
DAV:   5    -0.797562542402E+03    0.11241E-04   -0.86533E-05 87876   0.212E-02    0.453E-02
DAV:   6    -0.797562538726E+03    0.36758E-05   -0.48756E-05 80436   0.171E-02
  14 F= -.79756254E+03 E0= -.79754433E+03  d E =-.136556E-04  mag=     0.6348
       N       E                     dE             d eps       ncg     rms          rms(c)
DAV:   1    -0.797560133436E+03    0.24090E-02   -0.37216E-01 73464   0.113E+00    0.446E-01
DAV:   2    -0.797564639802E+03   -0.45064E-02   -0.30863E-02107304   0.366E-01    0.141E+00
DAV:   3    -0.797560229413E+03    0.44104E-02   -0.17230E-02109560   0.244E-01    0.289E-01
DAV:   4    -0.797560465496E+03   -0.23608E-03   -0.18457E-03 84156   0.857E-02    0.931E-02
DAV:   5    -0.797560495179E+03   -0.29683E-04   -0.37500E-04 86208   0.420E-02    0.670E-02
DAV:   6    -0.797560481735E+03    0.13444E-04   -0.90653E-05 86508   0.229E-02    0.267E-02
DAV:   7    -0.797560483925E+03   -0.21899E-05   -0.75785E-05 82872   0.142E-02
  15 F= -.79756048E+03 E0= -.79754228E+03  d E =0.205480E-02  mag=     0.6210
       N       E                     dE             d eps       ncg     rms          rms(c)
DAV:   1    -0.797560371946E+03    0.10979E-03   -0.65315E-02 73584   0.475E-01    0.232E-01
DAV:   2    -0.797561560486E+03   -0.11885E-02   -0.61698E-03106416   0.174E-01    0.752E-01
DAV:   3    -0.797560296841E+03    0.12636E-02   -0.37740E-03111024   0.124E-01    0.789E-02
DAV:   4    -0.797560460563E+03   -0.16372E-03   -0.81542E-04 84024   0.449E-02    0.148E-01
DAV:   5    -0.797560410085E+03    0.50479E-04   -0.21494E-04 84756   0.263E-02    0.452E-02
DAV:   6    -0.797560416162E+03   -0.60778E-05   -0.92155E-05 76116   0.147E-02
  16 F= -.79756042E+03 E0= -.79754223E+03  d E =0.677626E-04  mag=     0.6303
       N       E                     dE             d eps       ncg     rms          rms(c)
DAV:   1    -0.797559991150E+03    0.41893E-03   -0.21236E-02 73776   0.272E-01    0.657E-02
DAV:   2    -0.797560061900E+03   -0.70750E-04   -0.77870E-04 88272   0.546E-02    0.140E-01
DAV:   3    -0.797560016105E+03    0.45794E-04   -0.20173E-04 89952   0.303E-02    0.255E-02
DAV:   4    -0.797560027250E+03   -0.11144E-04   -0.39383E-05 69528   0.127E-02    0.298E-02
DAV:   5    -0.797560025946E+03    0.13037E-05   -0.20477E-05 50436   0.832E-03
  17 F= -.79756003E+03 E0= -.79754183E+03  d E =0.390216E-03  mag=     0.6283
