       N       E                     dE             d eps       ncg     rms          rms(c)
DAV:   1     0.852174902105E+04    0.85217E+04   -0.36091E+05 27120   0.170E+03
DAV:   2     0.402801191966E+03   -0.81189E+04   -0.74589E+04 26344   0.458E+02
DAV:   3    -0.778501002643E+03   -0.11813E+04   -0.11543E+04 27824   0.195E+02
DAV:   4    -0.839070502337E+03   -0.60569E+02   -0.57174E+02 31128   0.442E+01
DAV:   5    -0.841364175668E+03   -0.22937E+01   -0.22265E+01 31960   0.709E+00    0.113E+02
DAV:   6    -0.716683218921E+03    0.12468E+03   -0.77136E+02 32976   0.644E+01    0.103E+02
DAV:   7    -0.751271262141E+03   -0.34588E+02   -0.13047E+02 30416   0.311E+01    0.539E+01
DAV:   8    -0.752425183281E+03   -0.11539E+01   -0.26268E+01 32536   0.156E+01    0.288E+01
DAV:   9    -0.755096245561E+03   -0.26711E+01   -0.46717E+00 30408   0.666E+00    0.149E+01
DAV:  10    -0.755776813955E+03   -0.68057E+00   -0.12964E+00 30640   0.250E+00    0.694E+00
DAV:  11    -0.755976227836E+03   -0.19941E+00   -0.36681E-01 29464   0.147E+00    0.274E+00
DAV:  12    -0.756013827205E+03   -0.37599E-01   -0.73058E-02 29088   0.609E-01    0.145E+00
DAV:  13    -0.756038157171E+03   -0.24330E-01   -0.15580E-02 29664   0.512E-01    0.953E-01
DAV:  14    -0.756063593723E+03   -0.25437E-01   -0.14762E-02 30496   0.391E-01    0.583E-01
DAV:  15    -0.756078266072E+03   -0.14672E-01   -0.71926E-03 30976   0.273E-01    0.511E-01
DAV:  16    -0.756090924262E+03   -0.12658E-01   -0.36346E-03 35040   0.214E-01    0.496E-01
DAV:  17    -0.756104444698E+03   -0.13520E-01   -0.34000E-03 31824   0.211E-01    0.480E-01
DAV:  18    -0.756147408434E+03   -0.42964E-01   -0.35255E-02 32584   0.846E-01    0.472E-01
DAV:  19    -0.756179590057E+03   -0.32182E-01   -0.37925E-02 31952   0.572E-01    0.458E-01
DAV:  20    -0.756197931653E+03   -0.18342E-01   -0.13053E-02 29488   0.290E-01    0.437E-01
DAV:  21    -0.756235889507E+03   -0.37958E-01   -0.26653E-02 33672   0.769E-01    0.446E-01
DAV:  22    -0.756252728882E+03   -0.16839E-01   -0.18809E-02 29296   0.283E-01    0.430E-01
DAV:  23    -0.756268935831E+03   -0.16207E-01   -0.38801E-03 33584   0.283E-01    0.432E-01
DAV:  24    -0.756283347174E+03   -0.14411E-01   -0.72039E-03 28848   0.264E-01    0.442E-01
DAV:  25    -0.756304422547E+03   -0.21075E-01   -0.92367E-03 32480   0.404E-01    0.444E-01
DAV:  26    -0.756327465926E+03   -0.23043E-01   -0.15931E-02 30952   0.448E-01    0.459E-01
DAV:  27    -0.756296708785E+03    0.30757E-01   -0.21404E-02 28624   0.678E-01    0.438E-01
DAV:  28    -0.756298791935E+03   -0.20832E-02   -0.29199E-03 27016   0.919E-02    0.444E-01
DAV:  29    -0.756288638476E+03    0.10153E-01   -0.15259E-03 33072   0.187E-01    0.449E-01
DAV:  30    -0.756347036819E+03   -0.58398E-01   -0.88434E-02 31728   0.147E+00    0.450E-01
DAV:  31    -0.756393284460E+03   -0.46248E-01   -0.59882E-01 32208   0.331E+00    0.715E-01
DAV:  32    -0.756498918360E+03   -0.10563E+00   -0.23835E-01 26904   0.862E-01    0.718E-01
DAV:  33    -0.756512258310E+03   -0.13340E-01   -0.81996E-03 29512   0.182E-01    0.711E-01
DAV:  34    -0.756513636104E+03   -0.13778E-02   -0.63910E-04 27848   0.676E-02    0.701E-01
DAV:  35    -0.756516276730E+03   -0.26406E-02   -0.16665E-04 32288   0.580E-02    0.675E-01
DAV:  36    -0.756533730165E+03   -0.17453E-01   -0.18145E-02 33064   0.598E-01    0.604E-01
DAV:  37    -0.756551653212E+03   -0.17923E-01   -0.11678E-02 32056   0.363E-01    0.388E-01
DAV:  38    -0.756557443346E+03   -0.57901E-02   -0.37943E-03 30416   0.203E-01    0.410E-01
DAV:  39    -0.756558960252E+03   -0.15169E-02   -0.16185E-03 32096   0.127E-01    0.399E-01
DAV:  40    -0.756561143305E+03   -0.21831E-02   -0.92927E-04 29632   0.684E-02    0.373E-01
DAV:  41    -0.756568210492E+03   -0.70672E-02   -0.93810E-04 32856   0.137E-01    0.341E-01
DAV:  42    -0.756570306997E+03   -0.20965E-02   -0.69419E-04 29272   0.586E-02    0.342E-01
DAV:  43    -0.756566817983E+03    0.34890E-02   -0.51160E-04 28760   0.974E-02    0.341E-01
DAV:  44    -0.756545436976E+03    0.21381E-01   -0.84642E-03 31920   0.405E-01    0.407E-01
DAV:  45    -0.756566776259E+03   -0.21339E-01   -0.96783E-03 30848   0.489E-01    0.370E-01
DAV:  46    -0.756582450651E+03   -0.15674E-01   -0.17715E-02 33776   0.526E-01    0.406E-01
DAV:  47    -0.756602404125E+03   -0.19953E-01   -0.83073E-02 31400   0.121E+00    0.552E-01
DAV:  48    -0.756617240382E+03   -0.14836E-01   -0.28256E-02 25968   0.463E-01    0.452E-01
DAV:  49    -0.756624209113E+03   -0.69687E-02   -0.98160E-03 32288   0.466E-01    0.284E-01
DAV:  50    -0.756628605478E+03   -0.43964E-02   -0.62171E-03 30736   0.208E-01    0.331E-01
DAV:  51    -0.756629187641E+03   -0.58216E-03   -0.10800E-03 28128   0.647E-02    0.353E-01
DAV:  52    -0.756628057186E+03    0.11305E-02   -0.49118E-04 28976   0.853E-02    0.339E-01
DAV:  53    -0.756628648990E+03   -0.59180E-03   -0.17286E-03 31376   0.184E-01    0.299E-01
DAV:  54    -0.756622711439E+03    0.59376E-02   -0.22505E-03 31104   0.178E-01    0.307E-01
DAV:  55    -0.756625368702E+03   -0.26573E-02   -0.16776E-03 28752   0.152E-01    0.299E-01
DAV:  56    -0.756622336636E+03    0.30321E-02   -0.74073E-04 27472   0.127E-01    0.311E-01
DAV:  57    -0.756624783117E+03   -0.24465E-02   -0.35121E-04 27976   0.885E-02    0.295E-01
DAV:  58    -0.756623350211E+03    0.14329E-02   -0.20244E-03 31032   0.191E-01    0.296E-01
DAV:  59    -0.756628526363E+03   -0.51762E-02   -0.59372E-03 32064   0.313E-01    0.335E-01
DAV:  60    -0.756631922565E+03   -0.33962E-02   -0.32238E-02 32496   0.754E-01    0.582E-01
DAV:  61    -0.756631415455E+03    0.50711E-03   -0.51345E-02 32760   0.785E-01    0.818E-01
DAV:  62    -0.756624288389E+03    0.71271E-02   -0.25847E-02 26776   0.496E-01    0.942E-01
DAV:  63    -0.756644823328E+03   -0.20535E-01   -0.62273E-03 26408   0.249E-01    0.773E-01
DAV:  64    -0.756652266963E+03   -0.74436E-02   -0.79809E-04 30928   0.907E-02    0.721E-01
DAV:  65    -0.756661827278E+03   -0.95603E-02   -0.25385E-03 31712   0.211E-01    0.689E-01
DAV:  66    -0.756648348558E+03    0.13479E-01   -0.19333E-02 31960   0.594E-01    0.919E-01
DAV:  67    -0.756662714047E+03   -0.14365E-01   -0.52794E-02 30920   0.112E+00    0.425E-01
DAV:  68    -0.756679166924E+03   -0.16453E-01   -0.89108E-03 26488   0.228E-01    0.334E-01
DAV:  69    -0.756684299946E+03   -0.51330E-02   -0.91342E-04 31344   0.104E-01    0.300E-01
DAV:  70    -0.756683757709E+03    0.54224E-03   -0.41115E-04 25352   0.478E-02    0.301E-01
DAV:  71    -0.756677362801E+03    0.63949E-02   -0.46980E-03 30920   0.334E-01    0.312E-01
DAV:  72    -0.756676611869E+03    0.75093E-03   -0.21674E-03 28632   0.917E-02    0.320E-01
DAV:  73    -0.756675771742E+03    0.84013E-03   -0.21065E-04 29160   0.554E-02    0.307E-01
DAV:  74    -0.756674648982E+03    0.11228E-02   -0.27603E-04 29624   0.480E-02    0.306E-01
DAV:  75    -0.756670703565E+03    0.39454E-02   -0.41875E-04 30408   0.865E-02    0.325E-01
DAV:  76    -0.756680224117E+03   -0.95206E-02   -0.22991E-03 30920   0.213E-01    0.237E-01
DAV:  77    -0.756680301160E+03   -0.77043E-04   -0.61210E-04 25448   0.414E-02    0.238E-01
DAV:  78    -0.756679197261E+03    0.11039E-02   -0.84332E-05 25624   0.423E-02    0.245E-01
DAV:  79    -0.756680466208E+03   -0.12689E-02   -0.64032E-05 25144   0.374E-02    0.233E-01
DAV:  80    -0.756686518478E+03   -0.60523E-02   -0.22574E-03 31856   0.222E-01    0.248E-01
DAV:  81    -0.756691225300E+03   -0.47068E-02   -0.41629E-03 33184   0.227E-01    0.265E-01
DAV:  82    -0.756691873364E+03   -0.64806E-03   -0.17291E-03 28080   0.935E-02    0.279E-01
DAV:  83    -0.756693432492E+03   -0.15591E-02   -0.24476E-04 27760   0.573E-02    0.276E-01
DAV:  84    -0.756695542506E+03   -0.21100E-02   -0.74470E-04 31728   0.103E-01    0.289E-01
DAV:  85    -0.756700684457E+03   -0.51420E-02   -0.36149E-03 31200   0.244E-01    0.313E-01
DAV:  86    -0.756701432197E+03   -0.74774E-03   -0.61432E-03 31992   0.271E-01    0.382E-01
DAV:  87    -0.756703984471E+03   -0.25523E-02   -0.24223E-03 26800   0.102E-01    0.387E-01
DAV:  88    -0.756705549990E+03   -0.15655E-02   -0.33290E-04 34312   0.712E-02    0.397E-01
DAV:  89    -0.756707190381E+03   -0.16404E-02   -0.54685E-04 28024   0.736E-02    0.403E-01
DAV:  90    -0.756707946063E+03   -0.75568E-03   -0.29744E-04 27048   0.365E-02    0.405E-01
DAV:  91    -0.756706860050E+03    0.10860E-02   -0.32393E-04 28928   0.806E-02    0.389E-01
DAV:  92    -0.756706822614E+03    0.37437E-04   -0.14854E-04 24128   0.245E-02    0.385E-01
DAV:  93    -0.756706844273E+03   -0.21659E-04   -0.26308E-06 16680   0.654E-03    0.384E-01
DAV:  94    -0.756707046849E+03   -0.20258E-03   -0.35156E-06 14760   0.992E-03    0.383E-01
DAV:  95    -0.756706281973E+03    0.76488E-03   -0.12158E-04 26368   0.527E-02    0.379E-01
DAV:  96    -0.756705890576E+03    0.39140E-03   -0.21230E-04 28200   0.700E-02    0.388E-01
DAV:  97    -0.756706532681E+03   -0.64210E-03   -0.61106E-05 23280   0.300E-02    0.386E-01
DAV:  98    -0.756706009419E+03    0.52326E-03   -0.17230E-05 17768   0.197E-02    0.385E-01
DAV:  99    -0.756706429626E+03   -0.42021E-03   -0.17299E-05 17512   0.219E-02    0.393E-01
DAV: 100    -0.756706745348E+03   -0.31572E-03   -0.50193E-05 25416   0.237E-02    0.405E-01
DAV: 101    -0.756716389570E+03   -0.96442E-02   -0.15959E-02 31576   0.587E-01    0.468E-01
DAV: 102    -0.756720803207E+03   -0.44136E-02   -0.55135E-03 26296   0.138E-01    0.492E-01
DAV: 103    -0.756721023684E+03   -0.22048E-03   -0.22657E-04 34776   0.450E-02    0.543E-01
DAV: 104    -0.756718187001E+03    0.28367E-02   -0.18923E-03 31944   0.190E-01    0.578E-01
DAV: 105    -0.756714065881E+03    0.41211E-02   -0.46214E-03 31992   0.239E-01    0.613E-01
DAV: 106    -0.756706370398E+03    0.76955E-02   -0.70246E-03 31664   0.302E-01    0.674E-01
DAV: 107    -0.756694371535E+03    0.11999E-01   -0.12885E-02 31536   0.424E-01    0.737E-01
DAV: 108    -0.756695156716E+03   -0.78518E-03   -0.67058E-03 25984   0.149E-01    0.722E-01
DAV: 109    -0.756695039020E+03    0.11770E-03   -0.29324E-04 26888   0.349E-02    0.717E-01
DAV: 110    -0.756695096166E+03   -0.57147E-04   -0.73066E-06 19720   0.941E-03    0.717E-01
DAV: 111    -0.756696063234E+03   -0.96707E-03   -0.16302E-02 31048   0.574E-01    0.759E-01
DAV: 112    -0.756692783093E+03    0.32801E-02   -0.92813E-03 29856   0.451E-01    0.801E-01
DAV: 113    -0.756686006240E+03    0.67769E-02   -0.52176E-03 32608   0.245E-01    0.831E-01
DAV: 114    -0.756683156726E+03    0.28495E-02   -0.21247E-03 29064   0.110E-01    0.837E-01
DAV: 115    -0.756681449735E+03    0.17070E-02   -0.38578E-04 28456   0.501E-02    0.831E-01
DAV: 116    -0.756673700333E+03    0.77494E-02   -0.31648E-03 31792   0.245E-01    0.821E-01
DAV: 117    -0.756672904153E+03    0.79618E-03   -0.16531E-03 28656   0.849E-02    0.811E-01
DAV: 118    -0.756670658960E+03    0.22452E-02   -0.58687E-04 33384   0.993E-02    0.806E-01
DAV: 119    -0.756667518273E+03    0.31407E-02   -0.16269E-03 30992   0.139E-01    0.801E-01
DAV: 120    -0.756665910344E+03    0.16079E-02   -0.12449E-03 30696   0.950E-02    0.801E-01
DAV: 121    -0.756617376509E+03    0.48534E-01   -0.60401E-02 30696   0.111E+00    0.995E-01
DAV: 122    -0.756629297269E+03   -0.11921E-01   -0.20221E-02 25568   0.271E-01    0.944E-01
DAV: 123    -0.756628534369E+03    0.76290E-03   -0.24707E-04 30416   0.439E-02    0.948E-01
DAV: 124    -0.756628787525E+03   -0.25316E-03   -0.32682E-05 21304   0.187E-02    0.946E-01
DAV: 125    -0.756632089749E+03   -0.33022E-02   -0.38692E-04 33312   0.850E-02    0.935E-01
DAV: 126    -0.756629133121E+03    0.29566E-02   -0.93083E-04 32864   0.130E-01    0.996E-01
DAV: 127    -0.756627552990E+03    0.15801E-02   -0.33224E-04 34368   0.453E-02    0.102E+00
DAV: 128    -0.756626632839E+03    0.92015E-03   -0.60212E-05 22848   0.234E-02    0.102E+00
DAV: 129    -0.756627034710E+03   -0.40187E-03   -0.50044E-05 22768   0.251E-02    0.101E+00
DAV: 130    -0.756636018247E+03   -0.89835E-02   -0.47971E-03 32192   0.312E-01    0.916E-01
DAV: 131    -0.756647300360E+03   -0.11282E-01   -0.10527E-02 32240   0.367E-01    0.833E-01
DAV: 132    -0.756655690925E+03   -0.83906E-02   -0.61575E-03 30432   0.221E-01    0.827E-01
DAV: 133    -0.756657237097E+03   -0.15462E-02   -0.17667E-03 25760   0.102E-01    0.841E-01
DAV: 134    -0.756655616993E+03    0.16201E-02   -0.21995E-04 30928   0.644E-02    0.850E-01
DAV: 135    -0.756653761847E+03    0.18551E-02   -0.27912E-04 29128   0.559E-02    0.850E-01
DAV: 136    -0.756623603455E+03    0.30158E-01   -0.34583E-02 32856   0.822E-01    0.752E-01
DAV: 137    -0.756634288915E+03   -0.10685E-01   -0.12702E-02 25616   0.255E-01    0.705E-01
DAV: 138    -0.756635284782E+03   -0.99587E-03   -0.51418E-04 31440   0.810E-02    0.703E-01
DAV: 139    -0.756635593791E+03   -0.30901E-03   -0.26029E-04 28176   0.441E-02    0.709E-01
DAV: 140    -0.756638206919E+03   -0.26131E-02   -0.31317E-04 29312   0.768E-02    0.705E-01
DAV: 141    -0.756645479898E+03   -0.72730E-02   -0.29147E-03 32096   0.228E-01    0.675E-01
DAV: 142    -0.756650668256E+03   -0.51884E-02   -0.25055E-03 31256   0.137E-01    0.663E-01
DAV: 143    -0.756654155573E+03   -0.34873E-02   -0.86553E-04 30600   0.932E-02    0.659E-01
DAV: 144    -0.756662700818E+03   -0.85452E-02   -0.46842E-03 32280   0.301E-01    0.636E-01
DAV: 145    -0.756668837413E+03   -0.61366E-02   -0.44573E-03 31856   0.173E-01    0.637E-01
DAV: 146    -0.756678942008E+03   -0.10105E-01   -0.11341E-01 31376   0.151E+00    0.658E-01
DAV: 147    -0.756707746697E+03   -0.28805E-01   -0.46501E-02 25656   0.381E-01    0.632E-01
DAV: 148    -0.756709810656E+03   -0.20640E-02   -0.78780E-04 29696   0.624E-02    0.632E-01
DAV: 149    -0.756710065571E+03   -0.25491E-03   -0.52716E-05 23144   0.164E-02    0.631E-01
DAV: 150    -0.756709960553E+03    0.10502E-03   -0.11791E-05 20488   0.125E-02    0.638E-01
DAV: 151    -0.756707170843E+03    0.27897E-02   -0.14174E-02 31848   0.555E-01    0.437E-01
DAV: 152    -0.756717241021E+03   -0.10070E-01   -0.90557E-03 29288   0.398E-01    0.423E-01
DAV: 153    -0.756718194741E+03   -0.95372E-03   -0.16066E-03 29600   0.156E-01    0.428E-01
DAV: 154    -0.756716223522E+03    0.19712E-02   -0.22108E-03 31528   0.185E-01    0.487E-01
DAV: 155    -0.756718479488E+03   -0.22560E-02   -0.16685E-03 28960   0.153E-01    0.518E-01
DAV: 156    -0.756723933640E+03   -0.54542E-02   -0.89276E-03 32016   0.374E-01    0.565E-01
DAV: 157    -0.756727606739E+03   -0.36731E-02   -0.40155E-03 29048   0.123E-01    0.566E-01
DAV: 158    -0.756729576283E+03   -0.19695E-02   -0.60759E-04 30328   0.104E-01    0.586E-01
DAV: 159    -0.756729038235E+03    0.53805E-03   -0.53046E-04 25224   0.743E-02    0.603E-01
DAV: 160    -0.756727028550E+03    0.20097E-02   -0.58841E-04 31432   0.105E-01    0.617E-01
DAV: 161    -0.756722767362E+03    0.42612E-02   -0.20906E-03 31936   0.177E-01    0.655E-01
DAV: 162    -0.756715518195E+03    0.72492E-02   -0.46766E-03 31744   0.258E-01    0.710E-01
DAV: 163    -0.756709780341E+03    0.57379E-02   -0.48105E-03 31680   0.215E-01    0.740E-01
DAV: 164    -0.756708204730E+03    0.15756E-02   -0.17731E-03 27152   0.878E-02    0.746E-01
DAV: 165    -0.756705913559E+03    0.22912E-02   -0.23396E-04 29368   0.586E-02    0.766E-01
DAV: 166    -0.756643377801E+03    0.62536E-01   -0.44009E-01 30528   0.302E+00    0.969E-01
DAV: 167    -0.756720084078E+03   -0.76706E-01   -0.14359E-01 25536   0.713E-01    0.802E-01
DAV: 168    -0.756723757695E+03   -0.36736E-02   -0.19200E-03 30808   0.984E-02    0.791E-01
DAV: 169    -0.756724071683E+03   -0.31399E-03   -0.19155E-04 28848   0.603E-02    0.785E-01
DAV: 170    -0.756729413042E+03   -0.53414E-02   -0.17420E-03 31168   0.179E-01    0.705E-01
DAV: 171    -0.756735672680E+03   -0.62596E-02   -0.35023E-03 31792   0.206E-01    0.618E-01
DAV: 172    -0.756734769349E+03    0.90333E-03   -0.34470E-03 29408   0.252E-01    0.700E-01
DAV: 173    -0.756735700907E+03   -0.93156E-03   -0.15165E-03 31968   0.103E-01    0.718E-01
DAV: 174    -0.756735242248E+03    0.45866E-03   -0.32196E-03 30272   0.253E-01    0.650E-01
DAV: 175    -0.756734636971E+03    0.60528E-03   -0.10541E-03 26696   0.650E-02    0.652E-01
DAV: 176    -0.756728460309E+03    0.61767E-02   -0.40386E-04 29360   0.912E-02    0.702E-01
DAV: 177    -0.756727836970E+03    0.62334E-03   -0.23982E-04 26392   0.343E-02    0.706E-01
DAV: 178    -0.756723683815E+03    0.41532E-02   -0.26983E-04 29760   0.737E-02    0.738E-01
DAV: 179    -0.756722243834E+03    0.14400E-02   -0.21191E-04 26472   0.299E-02    0.750E-01
DAV: 180    -0.756723525826E+03   -0.12820E-02   -0.33572E-05 20408   0.206E-02    0.738E-01
DAV: 181    -0.756724559915E+03   -0.10341E-02   -0.38350E-02 31368   0.904E-01    0.431E-01
DAV: 182    -0.756736712371E+03   -0.12152E-01   -0.12763E-02 27632   0.360E-01    0.479E-01
DAV: 183    -0.756727527588E+03    0.91848E-02   -0.78886E-03 32896   0.377E-01    0.692E-01
DAV: 184    -0.756718786526E+03    0.87411E-02   -0.63279E-03 30264   0.271E-01    0.822E-01
DAV: 185    -0.756716775098E+03    0.20114E-02   -0.20137E-03 26896   0.947E-02    0.864E-01
DAV: 186    -0.756694955061E+03    0.21820E-01   -0.12323E-01 31320   0.157E+00    0.669E-01
DAV: 187    -0.756708975128E+03   -0.14020E-01   -0.47112E-02 27416   0.349E-01    0.557E-01
DAV: 188    -0.756705302788E+03    0.36723E-02   -0.23650E-03 37696   0.214E-01    0.526E-01
DAV: 189    -0.756703541899E+03    0.17609E-02   -0.25704E-03 29960   0.122E-01    0.491E-01
DAV: 190    -0.756700129564E+03    0.34123E-02   -0.16649E-03 33424   0.179E-01    0.551E-01
DAV: 191    -0.756709897090E+03   -0.97675E-02   -0.54186E-02 31336   0.107E+00    0.476E-01
DAV: 192    -0.756728540943E+03   -0.18644E-01   -0.18872E-02 27296   0.282E-01    0.472E-01
DAV: 193    -0.756728513282E+03    0.27661E-04   -0.17894E-03 26600   0.120E-01    0.482E-01
DAV: 194    -0.756727433825E+03    0.10795E-02   -0.26292E-04 31368   0.534E-02    0.467E-01
DAV: 195    -0.756724215025E+03    0.32188E-02   -0.10594E-03 29984   0.128E-01    0.447E-01
DAV: 196    -0.756730359604E+03   -0.61446E-02   -0.40221E-03 30048   0.299E-01    0.391E-01
DAV: 197    -0.756726425318E+03    0.39343E-02   -0.18989E-03 29464   0.217E-01    0.457E-01
DAV: 198    -0.756726474348E+03   -0.49029E-04   -0.23802E-04 25000   0.281E-02    0.454E-01
DAV: 199    -0.756724236689E+03    0.22377E-02   -0.41389E-04 29928   0.931E-02    0.470E-01
DAV: 200    -0.756723359124E+03    0.87756E-03   -0.33556E-04 30376   0.442E-02
   1 F= -.75672336E+03 E0= -.75672336E+03  d E =-.756723E+03  mag=    64.9987
       N       E                     dE             d eps       ncg     rms          rms(c)
DAV:   1    -0.756736774732E+03   -0.12538E-01   -0.18631E-02 26984   0.343E-01    0.482E-01
DAV:   2    -0.756742792427E+03   -0.60177E-02   -0.46292E-03 32224   0.300E-01    0.307E-01
DAV:   3    -0.756745556992E+03   -0.27646E-02   -0.17258E-03 30896   0.152E-01    0.233E-01
DAV:   4    -0.756748201376E+03   -0.26444E-02   -0.83489E-04 30464   0.935E-02    0.214E-01
DAV:   5    -0.756750398047E+03   -0.21967E-02   -0.57535E-04 29304   0.709E-02    0.210E-01
DAV:   6    -0.756754842872E+03   -0.44448E-02   -0.12366E-03 32488   0.149E-01    0.203E-01
DAV:   7    -0.756763283267E+03   -0.84404E-02   -0.73412E-03 31464   0.333E-01    0.196E-01
DAV:   8    -0.756773661522E+03   -0.10378E-01   -0.15103E-02 32456   0.432E-01    0.191E-01
DAV:   9    -0.756778966556E+03   -0.53050E-02   -0.67206E-03 27728   0.151E-01    0.184E-01
DAV:  10    -0.756770447662E+03    0.85189E-02   -0.63756E-03 28952   0.326E-01    0.206E-01
DAV:  11    -0.756770975445E+03   -0.52778E-03   -0.14477E-03 26064   0.603E-02    0.196E-01
DAV:  12    -0.756765174517E+03    0.58009E-02   -0.18065E-03 32080   0.189E-01    0.218E-01
DAV:  13    -0.756751446192E+03    0.13728E-01   -0.11183E-02 31216   0.407E-01    0.252E-01
DAV:  14    -0.756758466128E+03   -0.70199E-02   -0.40966E-03 26608   0.215E-01    0.221E-01
DAV:  15    -0.756750532198E+03    0.79339E-02   -0.31163E-03 30352   0.254E-01    0.283E-01
DAV:  16    -0.756743116446E+03    0.74158E-02   -0.51415E-03 32728   0.223E-01    0.293E-01
DAV:  17    -0.756757220116E+03   -0.14104E-01   -0.28975E-02 31200   0.749E-01    0.356E-01
DAV:  18    -0.756762498811E+03   -0.52787E-02   -0.12608E-01 31968   0.134E+00    0.541E-01
DAV:  19    -0.756774998025E+03   -0.12499E-01   -0.87446E-02 32496   0.735E-01    0.686E-01
DAV:  20    -0.756787695503E+03   -0.12697E-01   -0.17429E-02 25816   0.252E-01    0.714E-01
DAV:  21    -0.756788586312E+03   -0.89081E-03   -0.28823E-04 31144   0.368E-02    0.706E-01
DAV:  22    -0.756792325283E+03   -0.37390E-02   -0.12360E-03 30752   0.156E-01    0.613E-01
DAV:  23    -0.756794915716E+03   -0.25904E-02   -0.12545E-03 34128   0.134E-01    0.552E-01
DAV:  24    -0.756798208769E+03   -0.32931E-02   -0.40302E-04 30360   0.639E-02    0.485E-01
DAV:  25    -0.756800778826E+03   -0.25701E-02   -0.79115E-04 31776   0.116E-01    0.475E-01
DAV:  26    -0.756797253733E+03    0.35251E-02   -0.23361E-04 28608   0.695E-02    0.513E-01
DAV:  27    -0.756795245979E+03    0.20078E-02   -0.45882E-04 32840   0.846E-02    0.524E-01
DAV:  28    -0.756793954679E+03    0.12913E-02   -0.22887E-04 26840   0.313E-02    0.539E-01
DAV:  29    -0.756798980153E+03   -0.50255E-02   -0.78280E-04 29944   0.122E-01    0.497E-01
DAV:  30    -0.756807690757E+03   -0.87106E-02   -0.12899E-03 32680   0.128E-01    0.447E-01
DAV:  31    -0.756817420266E+03   -0.97295E-02   -0.28479E-03 31848   0.216E-01    0.328E-01
DAV:  32    -0.756820037683E+03   -0.26174E-02   -0.49277E-03 32072   0.228E-01    0.262E-01
DAV:  33    -0.756822001777E+03   -0.19641E-02   -0.19458E-03 27408   0.783E-02    0.254E-01
DAV:  34    -0.756821924253E+03    0.77524E-04   -0.13303E-04 25216   0.278E-02    0.265E-01
DAV:  35    -0.756822430762E+03   -0.50651E-03   -0.76514E-05 25656   0.407E-02    0.276E-01
DAV:  36    -0.756819262678E+03    0.31681E-02   -0.85189E-04 30136   0.135E-01    0.291E-01
DAV:  37    -0.756821865596E+03   -0.26029E-02   -0.68367E-04 29712   0.127E-01    0.265E-01
DAV:  38    -0.756826005760E+03   -0.41402E-02   -0.36512E-03 31824   0.237E-01    0.247E-01
DAV:  39    -0.756831783272E+03   -0.57775E-02   -0.14425E-02 31752   0.439E-01    0.223E-01
DAV:  40    -0.756833707018E+03   -0.19237E-02   -0.56355E-03 26296   0.237E-01    0.222E-01
DAV:  41    -0.756829130647E+03    0.45764E-02   -0.28666E-03 32232   0.205E-01    0.232E-01
DAV:  42    -0.756826105926E+03    0.30247E-02   -0.32283E-03 31456   0.161E-01    0.187E-01
DAV:  43    -0.756817518845E+03    0.85871E-02   -0.71282E-03 31352   0.331E-01    0.238E-01
DAV:  44    -0.756819623716E+03   -0.21049E-02   -0.33138E-03 25560   0.102E-01    0.212E-01
DAV:  45    -0.756818506809E+03    0.11169E-02   -0.17966E-04 32192   0.542E-02    0.224E-01
DAV:  46    -0.756814950579E+03    0.35562E-02   -0.13480E-03 31304   0.138E-01    0.249E-01
DAV:  47    -0.756807101851E+03    0.78487E-02   -0.55383E-03 31584   0.266E-01    0.261E-01
DAV:  48    -0.756818464899E+03   -0.11363E-01   -0.19279E-02 30456   0.604E-01    0.210E-01
DAV:  49    -0.756826120628E+03   -0.76557E-02   -0.44231E-02 31544   0.705E-01    0.223E-01
DAV:  50    -0.756836887642E+03   -0.10767E-01   -0.23325E-02 30448   0.304E-01    0.240E-01
DAV:  51    -0.756840505735E+03   -0.36181E-02   -0.31098E-03 26296   0.101E-01    0.241E-01
DAV:  52    -0.756830077149E+03    0.10429E-01   -0.14337E-02 32520   0.517E-01    0.451E-01
DAV:  53    -0.756843897817E+03   -0.13821E-01   -0.48404E-03 28792   0.262E-01    0.278E-01
DAV:  54    -0.756843985486E+03   -0.87669E-04   -0.58959E-04 30680   0.711E-02    0.266E-01
DAV:  55    -0.756843615673E+03    0.36981E-03   -0.84060E-04 30928   0.103E-01    0.267E-01
DAV:  56    -0.756841921120E+03    0.16946E-02   -0.17379E-03 31056   0.137E-01    0.276E-01
DAV:  57    -0.756836936480E+03    0.49846E-02   -0.44094E-03 30768   0.229E-01    0.277E-01
DAV:  58    -0.756834391330E+03    0.25451E-02   -0.34819E-03 29896   0.130E-01    0.325E-01
DAV:  59    -0.756832490275E+03    0.19011E-02   -0.10558E-03 30416   0.102E-01    0.342E-01
DAV:  60    -0.756829237202E+03    0.32531E-02   -0.18228E-03 31432   0.128E-01    0.343E-01
DAV:  61    -0.756827875234E+03    0.13620E-02   -0.12154E-03 29056   0.741E-02    0.337E-01
DAV:  62    -0.756804442448E+03    0.23433E-01   -0.19364E-02 31592   0.577E-01    0.400E-01
DAV:  63    -0.756808776572E+03   -0.43341E-02   -0.88966E-03 26240   0.147E-01    0.373E-01
DAV:  64    -0.756813744600E+03   -0.49680E-02   -0.62155E-04 28600   0.851E-02    0.315E-01
DAV:  65    -0.756818484964E+03   -0.47404E-02   -0.89985E-04 30224   0.949E-02    0.268E-01
DAV:  66    -0.756823462511E+03   -0.49775E-02   -0.27698E-03 31096   0.182E-01    0.277E-01
DAV:  67    -0.756826701275E+03   -0.32388E-02   -0.29332E-03 31656   0.134E-01    0.299E-01
DAV:  68    -0.756831021546E+03   -0.43203E-02   -0.45452E-03 31912   0.250E-01    0.283E-01
DAV:  69    -0.756833220956E+03   -0.21994E-02   -0.27266E-03 26864   0.972E-02    0.313E-01
DAV:  70    -0.756833957155E+03   -0.73620E-03   -0.11283E-04 28312   0.310E-02    0.316E-01
DAV:  71    -0.756834186923E+03   -0.22977E-03   -0.86756E-05 23288   0.160E-02    0.319E-01
DAV:  72    -0.756831605009E+03    0.25819E-02   -0.78147E-04 29936   0.109E-01    0.310E-01
DAV:  73    -0.756832426335E+03   -0.82133E-03   -0.31329E-04 27136   0.631E-02    0.300E-01
DAV:  74    -0.756832463267E+03   -0.36932E-04   -0.21468E-05 20208   0.135E-02    0.300E-01
DAV:  75    -0.756832577570E+03   -0.11430E-03   -0.57543E-06 16192   0.101E-02    0.299E-01
DAV:  76    -0.756832530214E+03    0.47356E-04   -0.17602E-06 14160   0.550E-03    0.300E-01
DAV:  77    -0.756820336127E+03    0.12194E-01   -0.13232E-02 30952   0.467E-01    0.339E-01
DAV:  78    -0.756823671756E+03   -0.33356E-02   -0.43122E-03 25552   0.122E-01    0.297E-01
DAV:  79    -0.756823526062E+03    0.14569E-03   -0.73004E-05 27000   0.191E-02    0.300E-01
DAV:  80    -0.756824039474E+03   -0.51341E-03   -0.56198E-05 24696   0.308E-02    0.295E-01
DAV:  81    -0.756827901413E+03   -0.38619E-02   -0.49962E-03 30976   0.272E-01    0.277E-01
DAV:  82    -0.756823892806E+03    0.40086E-02   -0.66443E-02 30864   0.935E-01    0.395E-01
DAV:  83    -0.756837816330E+03   -0.13924E-01   -0.24846E-02 25568   0.244E-01    0.405E-01
DAV:  84    -0.756837100238E+03    0.71609E-03   -0.35731E-04 34888   0.642E-02    0.434E-01
DAV:  85    -0.756838538392E+03   -0.14382E-02   -0.20092E-04 28888   0.522E-02    0.417E-01
DAV:  86    -0.756839005501E+03   -0.46711E-03   -0.40282E-05 23712   0.150E-02    0.411E-01
DAV:  87    -0.756839228387E+03   -0.22289E-03   -0.26255E-04 30776   0.623E-02    0.397E-01
DAV:  88    -0.756839792276E+03   -0.56389E-03   -0.96572E-05 23816   0.262E-02    0.389E-01
DAV:  89    -0.756839704613E+03    0.87664E-04   -0.17926E-05 18976   0.162E-02    0.393E-01
DAV:  90    -0.756839742923E+03   -0.38310E-04   -0.22997E-04 29024   0.627E-02    0.386E-01
DAV:  91    -0.756840160616E+03   -0.41769E-03   -0.55209E-05 22160   0.221E-02    0.378E-01
DAV:  92    -0.756837506169E+03    0.26544E-02   -0.12460E-02 31160   0.425E-01    0.271E-01
DAV:  93    -0.756841404070E+03   -0.38979E-02   -0.38150E-03 27416   0.197E-01    0.206E-01
DAV:  94    -0.756839366333E+03    0.20377E-02   -0.14494E-03 31288   0.136E-01    0.218E-01
DAV:  95    -0.756841290431E+03   -0.19241E-02   -0.12774E-03 30160   0.162E-01    0.199E-01
DAV:  96    -0.756843201642E+03   -0.19112E-02   -0.76878E-03 31616   0.317E-01    0.207E-01
DAV:  97    -0.756845943748E+03   -0.27421E-02   -0.25479E-03 25688   0.106E-01    0.222E-01
DAV:  98    -0.756846466139E+03   -0.52239E-03   -0.18853E-04 30720   0.420E-02    0.222E-01
DAV:  99    -0.756847057104E+03   -0.59097E-03   -0.24760E-04 29736   0.434E-02    0.228E-01
DAV: 100    -0.756847497580E+03   -0.44048E-03   -0.11858E-04 24824   0.220E-02    0.233E-01
DAV: 101    -0.756847991458E+03   -0.49388E-03   -0.10895E-04 29488   0.380E-02    0.231E-01
DAV: 102    -0.756847061526E+03    0.92993E-03   -0.46192E-04 29224   0.902E-02    0.236E-01
DAV: 103    -0.756847970167E+03   -0.90864E-03   -0.61906E-04 29488   0.104E-01    0.236E-01
DAV: 104    -0.756848490495E+03   -0.52033E-03   -0.25232E-04 26640   0.266E-02    0.238E-01
DAV: 105    -0.756848835986E+03   -0.34549E-03   -0.59994E-05 25264   0.224E-02    0.242E-01
DAV: 106    -0.756849164664E+03   -0.32868E-03   -0.79564E-05 24440   0.245E-02    0.247E-01
DAV: 107    -0.756849768945E+03   -0.60428E-03   -0.52835E-04 30712   0.847E-02    0.249E-01
DAV: 108    -0.756850332458E+03   -0.56351E-03   -0.37867E-04 27872   0.328E-02    0.254E-01
DAV: 109    -0.756850527790E+03   -0.19533E-03   -0.40143E-05 21576   0.113E-02    0.258E-01
DAV: 110    -0.756850558793E+03   -0.31003E-04   -0.59160E-06 16216   0.519E-03    0.258E-01
DAV: 111    -0.756850521737E+03    0.37056E-04   -0.41648E-06 14944   0.768E-03    0.259E-01
DAV: 112    -0.756850537978E+03   -0.16241E-04   -0.30783E-06 14928   0.755E-03    0.260E-01
DAV: 113    -0.756850562219E+03   -0.24242E-04   -0.23864E-06 14096   0.445E-03    0.262E-01
DAV: 114    -0.756850497348E+03    0.64871E-04   -0.11388E-05 17176   0.129E-02    0.261E-01
DAV: 115    -0.756850475795E+03    0.21553E-04   -0.60278E-06 15576   0.477E-03    0.257E-01
DAV: 116    -0.756850482920E+03   -0.71248E-05   -0.13028E-06 14256   0.384E-03
   2 F= -.75685048E+03 E0= -.75685048E+03  d E =-.127124E+00  mag=    65.0000
       N       E                     dE             d eps       ncg     rms          rms(c)
DAV:   1    -0.756959666093E+03   -0.10919E+00   -0.27343E+00 26760   0.350E+00    0.801E-01
DAV:   2    -0.756972502145E+03   -0.12836E-01   -0.13898E-01 29504   0.676E-01    0.399E-01
DAV:   3    -0.756972390239E+03    0.11191E-03   -0.50373E-03 30256   0.170E-01    0.265E-01
DAV:   4    -0.756972324518E+03    0.65721E-04   -0.11414E-03 31264   0.813E-02    0.140E-01
DAV:   5    -0.756972544019E+03   -0.21950E-03   -0.36436E-04 32256   0.625E-02    0.773E-02
DAV:   6    -0.756972797880E+03   -0.25386E-03   -0.26310E-04 30032   0.391E-02    0.689E-02
DAV:   7    -0.756973024611E+03   -0.22673E-03   -0.71091E-05 28464   0.265E-02    0.622E-02
DAV:   8    -0.756973253990E+03   -0.22938E-03   -0.60404E-05 25704   0.229E-02    0.585E-02
DAV:   9    -0.756973758732E+03   -0.50474E-03   -0.25353E-04 32048   0.606E-02    0.530E-02
DAV:  10    -0.756974294592E+03   -0.53586E-03   -0.55543E-04 31272   0.707E-02    0.499E-02
DAV:  11    -0.756974789280E+03   -0.49469E-03   -0.50528E-04 30528   0.643E-02    0.441E-02
DAV:  12    -0.756975288127E+03   -0.49885E-03   -0.12800E-03 31904   0.136E-01    0.425E-02
DAV:  13    -0.756975883428E+03   -0.59530E-03   -0.17105E-03 30776   0.100E-01    0.371E-02
DAV:  14    -0.756976313386E+03   -0.42996E-03   -0.50876E-04 25424   0.394E-02    0.301E-02
DAV:  15    -0.756976406474E+03   -0.93087E-04   -0.23030E-05 23168   0.158E-02    0.259E-02
DAV:  16    -0.756976552068E+03   -0.14559E-03   -0.16614E-04 29784   0.442E-02    0.234E-02
DAV:  17    -0.756976510415E+03    0.41653E-04   -0.13546E-03 31896   0.135E-01    0.404E-02
DAV:  18    -0.756976966431E+03   -0.45602E-03   -0.83207E-04 27872   0.474E-02    0.270E-02
DAV:  19    -0.756977063846E+03   -0.97415E-04   -0.58696E-05 23888   0.262E-02    0.205E-02
DAV:  20    -0.756977099115E+03   -0.35268E-04   -0.11143E-04 27112   0.281E-02    0.147E-02
DAV:  21    -0.756977105363E+03   -0.62484E-05   -0.12372E-04 27480   0.346E-02    0.118E-02
DAV:  22    -0.756977153442E+03   -0.48079E-04   -0.88813E-05 23296   0.174E-02    0.813E-03
DAV:  23    -0.756977170314E+03   -0.16872E-04   -0.14161E-05 17048   0.746E-03    0.768E-03
DAV:  24    -0.756977172988E+03   -0.26735E-05   -0.34506E-06 15136   0.638E-03
   3 F= -.75697717E+03 E0= -.75697717E+03  d E =-.126690E+00  mag=    65.0000
       N       E                     dE             d eps       ncg     rms          rms(c)
DAV:   1    -0.756959314191E+03    0.17856E-01   -0.63063E+01 26864   0.178E+01    0.287E+00
DAV:   2    -0.757287564261E+03   -0.32825E+00   -0.34858E+00 28944   0.320E+00    0.147E+00
DAV:   3    -0.757288193628E+03   -0.62937E-03   -0.10069E-01 30248   0.702E-01    0.840E-01
DAV:   4    -0.757283170247E+03    0.50234E-02   -0.15090E-02 31248   0.272E-01    0.498E-01
DAV:   5    -0.757280973340E+03    0.21969E-02   -0.62164E-03 30552   0.215E-01    0.172E-01
DAV:   6    -0.757281128991E+03   -0.15565E-03   -0.26223E-03 30064   0.103E-01    0.115E-01
DAV:   7    -0.757281186942E+03   -0.57951E-04   -0.45617E-04 30472   0.494E-02    0.793E-02
DAV:   8    -0.757281214588E+03   -0.27646E-04   -0.48467E-05 26696   0.171E-02    0.528E-02
DAV:   9    -0.757281248028E+03   -0.33440E-04   -0.40627E-05 26016   0.196E-02    0.339E-02
DAV:  10    -0.757281291695E+03   -0.43667E-04   -0.34454E-05 26184   0.197E-02    0.235E-02
DAV:  11    -0.757281313988E+03   -0.22293E-04   -0.24978E-05 19808   0.110E-02    0.212E-02
DAV:  12    -0.757281345034E+03   -0.31046E-04   -0.90343E-06 16432   0.130E-02    0.184E-02
DAV:  13    -0.757281388994E+03   -0.43960E-04   -0.47743E-05 26152   0.239E-02    0.149E-02
DAV:  14    -0.757281421226E+03   -0.32232E-04   -0.51768E-05 24568   0.206E-02    0.122E-02
DAV:  15    -0.757281440812E+03   -0.19586E-04   -0.22152E-05 17928   0.111E-02    0.108E-02
DAV:  16    -0.757281452787E+03   -0.11975E-04   -0.59264E-06 14744   0.708E-03    0.974E-03
DAV:  17    -0.757281469558E+03   -0.16771E-04   -0.12332E-05 17200   0.131E-02    0.914E-03
DAV:  18    -0.757281485853E+03   -0.16295E-04   -0.22099E-05 20184   0.138E-02    0.859E-03
DAV:  19    -0.757281499994E+03   -0.14141E-04   -0.14606E-05 16904   0.109E-02    0.770E-03
DAV:  20    -0.757281515135E+03   -0.15141E-04   -0.16542E-05 18000   0.154E-02    0.724E-03
DAV:  21    -0.757281522776E+03   -0.76407E-05   -0.88274E-05 27040   0.332E-02
   4 F= -.75728152E+03 E0= -.75728152E+03  d E =-.304350E+00  mag=    65.0000
       N       E                     dE             d eps       ncg     rms          rms(c)
DAV:   1    -0.757134941087E+03    0.14657E+00   -0.31219E+01 28128   0.143E+01    0.241E+00
DAV:   2    -0.757392017925E+03   -0.25708E+00   -0.25793E+00 28624   0.263E+00    0.126E+00
DAV:   3    -0.757398684602E+03   -0.66667E-02   -0.74674E-02 29648   0.580E-01    0.645E-01
DAV:   4    -0.757396218310E+03    0.24663E-02   -0.83930E-03 31792   0.196E-01    0.389E-01
DAV:   5    -0.757394935694E+03    0.12826E-02   -0.38679E-03 32472   0.189E-01    0.143E-01
DAV:   6    -0.757395009563E+03   -0.73870E-04   -0.15104E-03 30512   0.765E-02    0.830E-02
DAV:   7    -0.757395022162E+03   -0.12599E-04   -0.34644E-04 29392   0.369E-02    0.521E-02
DAV:   8    -0.757395026597E+03   -0.44355E-05   -0.25797E-05 23080   0.138E-02
   5 F= -.75739503E+03 E0= -.75739503E+03  d E =-.113504E+00  mag=    65.0000
       N       E                     dE             d eps       ncg     rms          rms(c)
DAV:   1    -0.756478210208E+03    0.91681E+00   -0.72463E+01 30144   0.256E+01    0.455E+00
DAV:   2    -0.757401675644E+03   -0.92347E+00   -0.90361E+00 28552   0.479E+00    0.241E+00
DAV:   3    -0.757434634467E+03   -0.32959E-01   -0.26800E-01 29304   0.106E+00    0.115E+00
DAV:   4    -0.757429029147E+03    0.56053E-02   -0.26441E-02 33296   0.361E-01    0.703E-01
DAV:   5    -0.757425807717E+03    0.32214E-02   -0.89006E-03 32896   0.327E-01    0.259E-01
DAV:   6    -0.757426065013E+03   -0.25730E-03   -0.48323E-03 30696   0.151E-01    0.140E-01
DAV:   7    -0.757426139511E+03   -0.74498E-04   -0.87211E-04 29776   0.682E-02    0.797E-02
DAV:   8    -0.757426163666E+03   -0.24155E-04   -0.11158E-04 28688   0.260E-02    0.548E-02
DAV:   9    -0.757426193799E+03   -0.30133E-04   -0.48699E-05 27184   0.246E-02    0.341E-02
DAV:  10    -0.757426231762E+03   -0.37964E-04   -0.28233E-05 22520   0.220E-02    0.252E-02
DAV:  11    -0.757426264137E+03   -0.32375E-04   -0.36203E-05 24056   0.159E-02    0.228E-02
DAV:  12    -0.757426296023E+03   -0.31886E-04   -0.82064E-06 15720   0.120E-02    0.212E-02
DAV:  13    -0.757426354673E+03   -0.58650E-04   -0.29820E-05 21072   0.261E-02    0.191E-02
DAV:  14    -0.757426406831E+03   -0.52158E-04   -0.62146E-05 24808   0.247E-02    0.172E-02
DAV:  15    -0.757426447417E+03   -0.40587E-04   -0.32709E-05 19176   0.194E-02    0.155E-02
DAV:  16    -0.757426497778E+03   -0.50361E-04   -0.54612E-05 23520   0.329E-02    0.141E-02
DAV:  17    -0.757426546269E+03   -0.48491E-04   -0.14216E-04 29384   0.442E-02    0.129E-02
DAV:  18    -0.757426590877E+03   -0.44608E-04   -0.98604E-05 26384   0.269E-02    0.109E-02
DAV:  19    -0.757426617781E+03   -0.26904E-04   -0.24042E-05 18760   0.162E-02    0.950E-03
DAV:  20    -0.757426637456E+03   -0.19675E-04   -0.35628E-05 20240   0.274E-02    0.897E-03
DAV:  21    -0.757426656389E+03   -0.18933E-04   -0.68002E-05 24608   0.252E-02    0.770E-03
DAV:  22    -0.757426669559E+03   -0.13169E-04   -0.35590E-05 19824   0.224E-02    0.652E-03
DAV:  23    -0.757426679584E+03   -0.10025E-04   -0.34665E-05 20112   0.192E-02    0.525E-03
DAV:  24    -0.757426686679E+03   -0.70955E-05   -0.20301E-05 17416   0.124E-02
   6 F= -.75742669E+03 E0= -.75742669E+03  d E =-.316601E-01  mag=    65.0000
       N       E                     dE             d eps       ncg     rms          rms(c)
DAV:   1    -0.757186963775E+03    0.23972E+00   -0.25269E+01 29976   0.148E+01    0.301E+00
DAV:   2    -0.757479391710E+03   -0.29243E+00   -0.28998E+00 28936   0.282E+00    0.147E+00
DAV:   3    -0.757487562464E+03   -0.81708E-02   -0.91371E-02 29496   0.657E-01    0.777E-01
DAV:   4    -0.757484903707E+03    0.26588E-02   -0.10612E-02 33064   0.247E-01    0.438E-01
DAV:   5    -0.757483642497E+03    0.12612E-02   -0.33780E-03 31784   0.188E-01    0.153E-01
DAV:   6    -0.757483747438E+03   -0.10494E-03   -0.20912E-03 30304   0.100E-01    0.960E-02
DAV:   7    -0.757483773064E+03   -0.25626E-04   -0.29235E-04 29376   0.406E-02    0.582E-02
DAV:   8    -0.757483780149E+03   -0.70848E-05   -0.58641E-05 27208   0.182E-02
   7 F= -.75748378E+03 E0= -.75748378E+03  d E =-.570935E-01  mag=    65.0000
       N       E                     dE             d eps       ncg     rms          rms(c)
DAV:   1    -0.757403394761E+03    0.80378E-01   -0.10588E+01 29512   0.934E+00    0.162E+00
DAV:   2    -0.757519733928E+03   -0.11634E+00   -0.11567E+00 28680   0.175E+00    0.866E-01
DAV:   3    -0.757523625363E+03   -0.38914E-02   -0.36543E-02 29768   0.405E-01    0.433E-01
DAV:   4    -0.757522677462E+03    0.94790E-03   -0.42460E-03 32408   0.145E-01    0.268E-01
DAV:   5    -0.757522239164E+03    0.43830E-03   -0.13186E-03 32832   0.121E-01    0.101E-01
DAV:   6    -0.757522262542E+03   -0.23378E-04   -0.69315E-04 30968   0.607E-02    0.599E-02
DAV:   7    -0.757522286321E+03   -0.23779E-04   -0.15002E-04 29624   0.293E-02    0.393E-02
DAV:   8    -0.757522297658E+03   -0.11337E-04   -0.19521E-05 19752   0.108E-02    0.277E-02
DAV:   9    -0.757522314575E+03   -0.16917E-04   -0.10743E-05 18456   0.134E-02    0.192E-02
DAV:  10    -0.757522335715E+03   -0.21139E-04   -0.14146E-05 20088   0.130E-02    0.161E-02
DAV:  11    -0.757522348358E+03   -0.12644E-04   -0.95027E-06 16584   0.761E-03    0.152E-02
DAV:  12    -0.757522366112E+03   -0.17754E-04   -0.41214E-06 14744   0.956E-03    0.143E-02
DAV:  13    -0.757522391951E+03   -0.25839E-04   -0.15870E-05 19552   0.148E-02    0.133E-02
DAV:  14    -0.757522425641E+03   -0.33690E-04   -0.36875E-05 22192   0.221E-02    0.124E-02
DAV:  15    -0.757522460988E+03   -0.35347E-04   -0.63221E-05 25416   0.272E-02    0.105E-02
DAV:  16    -0.757522493806E+03   -0.32818E-04   -0.62945E-05 23520   0.256E-02    0.954E-03
DAV:  17    -0.757522521463E+03   -0.27657E-04   -0.46458E-05 22352   0.216E-02    0.843E-03
DAV:  18    -0.757522542483E+03   -0.21020E-04   -0.42730E-05 23040   0.249E-02    0.793E-03
DAV:  19    -0.757522561899E+03   -0.19415E-04   -0.58746E-05 22992   0.215E-02    0.694E-03
DAV:  20    -0.757522577256E+03   -0.15357E-04   -0.28363E-05 18536   0.158E-02    0.563E-03
DAV:  21    -0.757522586447E+03   -0.91914E-05   -0.17839E-05 17728   0.144E-02
   8 F= -.75752259E+03 E0= -.75752259E+03  d E =-.388063E-01  mag=    65.0000
       N       E                     dE             d eps       ncg     rms          rms(c)
DAV:   1    -0.757468226122E+03    0.54351E-01   -0.68831E+00 29568   0.765E+00    0.129E+00
DAV:   2    -0.757541941721E+03   -0.73716E-01   -0.73173E-01 28736   0.144E+00    0.657E-01
DAV:   3    -0.757544415607E+03   -0.24739E-02   -0.22571E-02 30072   0.324E-01    0.318E-01
DAV:   4    -0.757543818265E+03    0.59734E-03   -0.26764E-03 32312   0.114E-01    0.202E-01
DAV:   5    -0.757543632836E+03    0.18543E-03   -0.83928E-04 32528   0.831E-02    0.810E-02
DAV:   6    -0.757543637302E+03   -0.44660E-05   -0.29268E-04 30912   0.391E-02    0.417E-02
DAV:   7    -0.757543649025E+03   -0.11723E-04   -0.80405E-05 28224   0.199E-02    0.264E-02
DAV:   8    -0.757543651029E+03   -0.20037E-05   -0.87775E-06 16392   0.881E-03
   9 F= -.75754365E+03 E0= -.75754365E+03  d E =-.210646E-01  mag=    65.0000
       N       E                     dE             d eps       ncg     rms          rms(c)
DAV:   1    -0.757423599692E+03    0.12005E+00   -0.11000E+01 30272   0.105E+01    0.164E+00
DAV:   2    -0.757563295855E+03   -0.13970E+00   -0.13620E+00 28000   0.197E+00    0.872E-01
DAV:   3    -0.757569389759E+03   -0.60939E-02   -0.40491E-02 29592   0.424E-01    0.399E-01
DAV:   4    -0.757568908631E+03    0.48113E-03   -0.28788E-03 33384   0.110E-01    0.261E-01
DAV:   5    -0.757568511573E+03    0.39706E-03   -0.11304E-03 33256   0.120E-01    0.112E-01
DAV:   6    -0.757568582474E+03   -0.70901E-04   -0.61363E-04 31256   0.560E-02    0.464E-02
DAV:   7    -0.757568607010E+03   -0.24535E-04   -0.11971E-04 29392   0.243E-02    0.307E-02
DAV:   8    -0.757568622806E+03   -0.15796E-04   -0.11129E-05 17056   0.986E-03    0.227E-02
DAV:   9    -0.757568641873E+03   -0.19067E-04   -0.86164E-06 17392   0.117E-02    0.180E-02
DAV:  10    -0.757568662247E+03   -0.20374E-04   -0.11373E-05 17392   0.110E-02    0.157E-02
DAV:  11    -0.757568680391E+03   -0.18144E-04   -0.84648E-06 16768   0.965E-03    0.143E-02
DAV:  12    -0.757568710195E+03   -0.29805E-04   -0.16837E-05 18480   0.184E-02    0.129E-02
DAV:  13    -0.757568744679E+03   -0.34484E-04   -0.62977E-05 26392   0.284E-02    0.110E-02
DAV:  14    -0.757568771608E+03   -0.26929E-04   -0.50886E-05 22552   0.192E-02    0.931E-03
DAV:  15    -0.757568787817E+03   -0.16209E-04   -0.15345E-05 16872   0.102E-02    0.856E-03
DAV:  16    -0.757568798277E+03   -0.10460E-04   -0.61720E-06 14472   0.834E-03    0.790E-03
DAV:  17    -0.757568812328E+03   -0.14051E-04   -0.16322E-05 17976   0.173E-02    0.759E-03
DAV:  18    -0.757568826377E+03   -0.14048E-04   -0.42783E-05 22240   0.219E-02    0.695E-03
DAV:  19    -0.757568839468E+03   -0.13091E-04   -0.39317E-05 21296   0.199E-02    0.597E-03
DAV:  20    -0.757568851198E+03   -0.11730E-04   -0.23758E-05 17848   0.135E-02    0.478E-03
DAV:  21    -0.757568857166E+03   -0.59674E-05   -0.10662E-05 15544   0.122E-02
  10 F= -.75756886E+03 E0= -.75756886E+03  d E =-.252061E-01  mag=    65.0000
       N       E                     dE             d eps       ncg     rms          rms(c)
DAV:   1    -0.755604169652E+03    0.19647E+01   -0.19089E+02 27664   0.337E+01    0.101E+01
DAV:   2    -0.756825021628E+03   -0.12209E+01   -0.13031E+01 29392   0.657E+00    0.343E+00
DAV:   3    -0.756794995396E+03    0.30026E-01   -0.53494E-01 30552   0.177E+00    0.249E+00
DAV:   4    -0.756782856260E+03    0.12139E-01   -0.69546E-02 31152   0.623E-01    0.103E+00
DAV:   5    -0.756773865114E+03    0.89911E-02   -0.19285E-02 31120   0.392E-01    0.436E-01
DAV:   6    -0.756774138186E+03   -0.27307E-03   -0.12812E-02 30152   0.235E-01    0.263E-01
DAV:   7    -0.756774309344E+03   -0.17116E-03   -0.19044E-03 29312   0.894E-02    0.156E-01
DAV:   8    -0.756774407837E+03   -0.98494E-04   -0.43399E-04 29800   0.480E-02    0.945E-02
DAV:   9    -0.756774549410E+03   -0.14157E-03   -0.13026E-04 30168   0.337E-02    0.635E-02
DAV:  10    -0.756774675797E+03   -0.12639E-03   -0.87171E-05 28672   0.240E-02    0.516E-02
DAV:  11    -0.756774829068E+03   -0.15327E-03   -0.32253E-05 21296   0.240E-02    0.464E-02
DAV:  12    -0.756775042606E+03   -0.21354E-03   -0.97087E-05 29296   0.361E-02    0.430E-02
DAV:  13    -0.756775304350E+03   -0.26174E-03   -0.17254E-04 29752   0.496E-02    0.397E-02
DAV:  14    -0.756775708923E+03   -0.40457E-03   -0.68368E-04 32312   0.111E-01    0.373E-02
DAV:  15    -0.756776095725E+03   -0.38680E-03   -0.94951E-04 31768   0.951E-02    0.338E-02
DAV:  16    -0.756776414921E+03   -0.31920E-03   -0.45299E-04 28408   0.592E-02    0.292E-02
DAV:  17    -0.756776598199E+03   -0.18328E-03   -0.15156E-04 28464   0.337E-02    0.266E-02
DAV:  18    -0.756776760197E+03   -0.16200E-03   -0.18337E-04 29304   0.576E-02    0.267E-02
DAV:  19    -0.756776902815E+03   -0.14262E-03   -0.23407E-04 28544   0.420E-02    0.246E-02
DAV:  20    -0.756777036463E+03   -0.13365E-03   -0.29772E-04 30816   0.747E-02    0.240E-02
DAV:  21    -0.756777126521E+03   -0.90058E-04   -0.85738E-04 31352   0.105E-01    0.243E-02
DAV:  22    -0.756777328914E+03   -0.20239E-03   -0.63921E-04 30080   0.655E-02    0.184E-02
DAV:  23    -0.756777431634E+03   -0.10272E-03   -0.19730E-04 27496   0.494E-02    0.140E-02
DAV:  24    -0.756777517014E+03   -0.85380E-04   -0.17233E-04 25952   0.280E-02    0.119E-02
DAV:  25    -0.756777546250E+03   -0.29237E-04   -0.32619E-05 19856   0.195E-02    0.938E-03
DAV:  26    -0.756777564332E+03   -0.18082E-04   -0.37372E-05 19640   0.157E-02    0.818E-03
DAV:  27    -0.756777575596E+03   -0.11264E-04   -0.24780E-05 18912   0.179E-02    0.723E-03
DAV:  28    -0.756777587674E+03   -0.12078E-04   -0.30059E-05 19552   0.119E-02    0.644E-03
DAV:  29    -0.756777593717E+03   -0.60429E-05   -0.11232E-05 15808   0.146E-02
  11 F= -.75677759E+03 E0= -.75677759E+03  d E =0.791263E+00  mag=    65.0000
       N       E                     dE             d eps       ncg     rms          rms(c)
DAV:   1    -0.757361488449E+03   -0.58390E+00   -0.57175E+01 26160   0.130E+01    0.562E+00
DAV:   2    -0.757581108176E+03   -0.21962E+00   -0.27824E+00 30368   0.282E+00    0.259E+00
DAV:   3    -0.757547047844E+03    0.34060E-01   -0.13031E-01 30576   0.844E-01    0.211E+00
DAV:   4    -0.757538303824E+03    0.87440E-02   -0.20281E-02 30896   0.362E-01    0.134E+00
DAV:   5    -0.757532487802E+03    0.58160E-02   -0.17171E-02 31216   0.396E-01    0.379E-01
DAV:   6    -0.757533255969E+03   -0.76817E-03   -0.95943E-03 29672   0.225E-01    0.259E-01
DAV:   7    -0.757533280557E+03   -0.24588E-04   -0.92498E-04 29536   0.678E-02    0.134E-01
DAV:   8    -0.757533332144E+03   -0.51586E-04   -0.28207E-04 29432   0.396E-02    0.898E-02
DAV:   9    -0.757533464513E+03   -0.13237E-03   -0.12516E-04 30128   0.323E-02    0.564E-02
DAV:  10    -0.757533586834E+03   -0.12232E-03   -0.56153E-05 25072   0.227E-02    0.459E-02
DAV:  11    -0.757533713071E+03   -0.12624E-03   -0.30954E-05 20200   0.218E-02    0.432E-02
DAV:  12    -0.757533932190E+03   -0.21912E-03   -0.10793E-04 28960   0.412E-02    0.407E-02
DAV:  13    -0.757534282533E+03   -0.35034E-03   -0.42497E-04 30120   0.835E-02    0.390E-02
DAV:  14    -0.757534587296E+03   -0.30476E-03   -0.47799E-04 30104   0.650E-02    0.340E-02
DAV:  15    -0.757534920001E+03   -0.33271E-03   -0.59200E-04 30864   0.105E-01    0.328E-02
DAV:  16    -0.757535223048E+03   -0.30305E-03   -0.12260E-03 31352   0.122E-01    0.305E-02
DAV:  17    -0.757535537125E+03   -0.31408E-03   -0.95707E-04 30176   0.925E-02    0.266E-02
DAV:  18    -0.757535782447E+03   -0.24532E-03   -0.38823E-04 26952   0.424E-02    0.210E-02
DAV:  19    -0.757535887222E+03   -0.10478E-03   -0.10328E-04 26944   0.488E-02    0.196E-02
DAV:  20    -0.757535975066E+03   -0.87844E-04   -0.28420E-04 28936   0.542E-02    0.182E-02
DAV:  21    -0.757536023785E+03   -0.48718E-04   -0.40021E-04 30168   0.771E-02    0.180E-02
DAV:  22    -0.757536114574E+03   -0.90789E-04   -0.37374E-04 28472   0.515E-02    0.140E-02
DAV:  23    -0.757536175373E+03   -0.60799E-04   -0.11506E-04 25128   0.280E-02    0.104E-02
DAV:  24    -0.757536201764E+03   -0.26391E-04   -0.38824E-05 21416   0.189E-02    0.838E-03
DAV:  25    -0.757536216540E+03   -0.14776E-04   -0.33460E-05 18896   0.160E-02    0.723E-03
DAV:  26    -0.757536227619E+03   -0.11079E-04   -0.25361E-05 17152   0.820E-03    0.677E-03
DAV:  27    -0.757536229365E+03   -0.17463E-05   -0.49548E-06 15112   0.785E-03
  12 F= -.75753623E+03 E0= -.75753623E+03  d E =-.758636E+00  mag=    65.0000
       N       E                     dE             d eps       ncg     rms          rms(c)
DAV:   1    -0.757565028113E+03   -0.28800E-01   -0.81817E-01 26720   0.190E+00    0.687E-01
DAV:   2    -0.757568667500E+03   -0.36394E-02   -0.42572E-02 30048   0.378E-01    0.209E-01
DAV:   3    -0.757568315480E+03    0.35202E-03   -0.22153E-03 30824   0.114E-01    0.142E-01
DAV:   4    -0.757568253347E+03    0.62133E-04   -0.42641E-04 31024   0.450E-02    0.922E-02
DAV:   5    -0.757568219952E+03    0.33396E-04   -0.10443E-04 28440   0.247E-02    0.408E-02
DAV:   6    -0.757568220972E+03   -0.10205E-05   -0.48150E-05 27120   0.160E-02
  13 F= -.75756822E+03 E0= -.75756822E+03  d E =-.319916E-01  mag=    65.0000
       N       E                     dE             d eps       ncg     rms          rms(c)
DAV:   1    -0.757584372914E+03   -0.16153E-01   -0.35686E+00 27176   0.428E+00    0.135E+00
DAV:   2    -0.757602565380E+03   -0.18192E-01   -0.20400E-01 29904   0.832E-01    0.404E-01
DAV:   3    -0.757601724176E+03    0.84120E-03   -0.10014E-02 31000   0.240E-01    0.272E-01
DAV:   4    -0.757601505643E+03    0.21853E-03   -0.16271E-03 31168   0.871E-02    0.170E-01
DAV:   5    -0.757601378830E+03    0.12681E-03   -0.46024E-04 30256   0.521E-02    0.706E-02
DAV:   6    -0.757601386679E+03   -0.78495E-05   -0.18732E-04 30352   0.312E-02    0.540E-02
DAV:   7    -0.757601390091E+03   -0.34115E-05   -0.43784E-05 25888   0.144E-02
  14 F= -.75760139E+03 E0= -.75760139E+03  d E =-.331691E-01  mag=    65.0000
       N       E                     dE             d eps       ncg     rms          rms(c)
DAV:   1    -0.757605444345E+03   -0.40577E-02   -0.24314E-01 28280   0.124E+00    0.277E-01
DAV:   2    -0.757607077315E+03   -0.16330E-02   -0.17061E-02 29504   0.238E-01    0.114E-01
DAV:   3    -0.757607104386E+03   -0.27071E-04   -0.68340E-04 30616   0.605E-02    0.753E-02
DAV:   4    -0.757607091989E+03    0.12397E-04   -0.74870E-05 30128   0.195E-02    0.404E-02
DAV:   5    -0.757607087143E+03    0.48465E-05   -0.38377E-05 25544   0.181E-02
  15 F= -.75760709E+03 E0= -.75760709E+03  d E =-.569705E-02  mag=    65.0000
       N       E                     dE             d eps       ncg     rms          rms(c)
DAV:   1    -0.757579708843E+03    0.27383E-01   -0.54338E+00 28376   0.612E+00    0.109E+00
DAV:   2    -0.757620440636E+03   -0.40732E-01   -0.41905E-01 29256   0.115E+00    0.510E-01
DAV:   3    -0.757621568358E+03   -0.11277E-02   -0.15249E-02 30416   0.266E-01    0.297E-01
DAV:   4    -0.757621235409E+03    0.33295E-03   -0.12798E-03 32304   0.774E-02    0.171E-01
DAV:   5    -0.757620999296E+03    0.23611E-03   -0.85445E-04 32080   0.805E-02    0.638E-02
DAV:   6    -0.757621022834E+03   -0.23538E-04   -0.31282E-04 30888   0.385E-02    0.389E-02
DAV:   7    -0.757621029920E+03   -0.70858E-05   -0.86241E-05 27368   0.186E-02
  16 F= -.75762103E+03 E0= -.75762103E+03  d E =-.139428E-01  mag=    65.0000
       N       E                     dE             d eps       ncg     rms          rms(c)
DAV:   1    -0.757617451460E+03    0.35714E-02   -0.87773E-01 28320   0.246E+00    0.495E-01
DAV:   2    -0.757624003387E+03   -0.65519E-02   -0.67453E-02 29384   0.470E-01    0.219E-01
DAV:   3    -0.757624151269E+03   -0.14788E-03   -0.24185E-03 30424   0.114E-01    0.138E-01
DAV:   4    -0.757624104053E+03    0.47215E-04   -0.22855E-04 31680   0.335E-02    0.716E-02
DAV:   5    -0.757624079199E+03    0.24854E-04   -0.11645E-04 30264   0.320E-02    0.283E-02
DAV:   6    -0.757624091395E+03   -0.12196E-04   -0.54190E-05 28112   0.168E-02    0.201E-02
DAV:   7    -0.757624096726E+03   -0.53309E-05   -0.11213E-05 17336   0.749E-03
  17 F= -.75762410E+03 E0= -.75762410E+03  d E =-.306681E-02  mag=    65.0000
       N       E                     dE             d eps       ncg     rms          rms(c)
DAV:   1    -0.757617764583E+03    0.63268E-02   -0.84738E-01 29392   0.266E+00    0.468E-01
DAV:   2    -0.757626038860E+03   -0.82743E-02   -0.82238E-02 28864   0.501E-01    0.217E-01
DAV:   3    -0.757626294092E+03   -0.25523E-03   -0.24891E-03 30272   0.111E-01    0.111E-01
DAV:   4    -0.757626240842E+03    0.53251E-04   -0.24352E-04 32848   0.354E-02    0.690E-02
DAV:   5    -0.757626219906E+03    0.20936E-04   -0.86476E-05 29320   0.312E-02    0.277E-02
DAV:   6    -0.757626232095E+03   -0.12189E-04   -0.53546E-05 29008   0.170E-02    0.191E-02
DAV:   7    -0.757626237176E+03   -0.50815E-05   -0.86939E-06 16864   0.730E-03
  18 F= -.75762624E+03 E0= -.75762624E+03  d E =-.214045E-02  mag=    65.0000
       N       E                     dE             d eps       ncg     rms          rms(c)
DAV:   1    -0.757607921181E+03    0.18311E-01   -0.17222E+00 30552   0.409E+00    0.635E-01
DAV:   2    -0.757628982182E+03   -0.21061E-01   -0.20542E-01 27864   0.768E-01    0.330E-01
DAV:   3    -0.757629932872E+03   -0.95069E-03   -0.60942E-03 29536   0.161E-01    0.145E-01
DAV:   4    -0.757629863005E+03    0.69866E-04   -0.47277E-04 34072   0.453E-02    0.952E-02
DAV:   5    -0.757629834424E+03    0.28582E-04   -0.14915E-04 33000   0.440E-02    0.418E-02
DAV:   6    -0.757629853718E+03   -0.19294E-04   -0.75965E-05 29792   0.204E-02    0.192E-02
DAV:   7    -0.757629864488E+03   -0.10770E-04   -0.14085E-05 17064   0.982E-03    0.149E-02
DAV:   8    -0.757629873094E+03   -0.86061E-05   -0.42680E-06 14864   0.610E-03
  19 F= -.75762987E+03 E0= -.75762987E+03  d E =-.363592E-02  mag=    65.0000
       N       E                     dE             d eps       ncg     rms          rms(c)
DAV:   1    -0.757262304274E+03    0.36756E+00   -0.32191E+01 30232   0.167E+01    0.268E+00
DAV:   2    -0.757609716719E+03   -0.34741E+00   -0.33970E+00 28008   0.316E+00    0.136E+00
DAV:   3    -0.757622756874E+03   -0.13040E-01   -0.99211E-02 29328   0.664E-01    0.634E-01
DAV:   4    -0.757621103813E+03    0.16531E-02   -0.77132E-03 33624   0.184E-01    0.404E-01
DAV:   5    -0.757620003265E+03    0.11005E-02   -0.27539E-03 32992   0.186E-01    0.171E-01
DAV:   6    -0.757620169219E+03   -0.16595E-03   -0.16567E-03 31280   0.922E-02    0.735E-02
DAV:   7    -0.757620222780E+03   -0.53561E-04   -0.29288E-04 29408   0.396E-02    0.517E-02
DAV:   8    -0.757620260692E+03   -0.37912E-04   -0.36773E-05 26400   0.170E-02    0.369E-02
DAV:   9    -0.757620308468E+03   -0.47776E-04   -0.19869E-05 19912   0.171E-02    0.295E-02
DAV:  10    -0.757620361523E+03   -0.53055E-04   -0.27548E-05 21816   0.166E-02    0.259E-02
DAV:  11    -0.757620407585E+03   -0.46062E-04   -0.18077E-05 18480   0.134E-02    0.246E-02
DAV:  12    -0.757620487743E+03   -0.80158E-04   -0.35829E-05 22960   0.248E-02    0.233E-02
DAV:  13    -0.757620604507E+03   -0.11676E-03   -0.16551E-04 29584   0.470E-02    0.210E-02
DAV:  14    -0.757620718802E+03   -0.11430E-03   -0.23116E-04 29920   0.488E-02    0.184E-02
DAV:  15    -0.757620823487E+03   -0.10469E-03   -0.20733E-04 28456   0.493E-02    0.170E-02
DAV:  16    -0.757620913883E+03   -0.90396E-04   -0.17979E-04 28360   0.391E-02    0.151E-02
DAV:  17    -0.757620981709E+03   -0.67825E-04   -0.13743E-04 28136   0.428E-02    0.139E-02
DAV:  18    -0.757621036908E+03   -0.55199E-04   -0.20250E-04 27968   0.429E-02    0.129E-02
DAV:  19    -0.757621094048E+03   -0.57140E-04   -0.13189E-04 26424   0.300E-02    0.104E-02
DAV:  20    -0.757621128551E+03   -0.34502E-04   -0.54817E-05 23896   0.236E-02    0.881E-03
DAV:  21    -0.757621145600E+03   -0.17050E-04   -0.64625E-05 24728   0.258E-02    0.799E-03
DAV:  22    -0.757621160196E+03   -0.14595E-04   -0.71602E-05 24896   0.239E-02    0.708E-03
DAV:  23    -0.757621183041E+03   -0.22845E-04   -0.40273E-05 20368   0.114E-02    0.634E-03
DAV:  24    -0.757621185771E+03   -0.27299E-05   -0.26599E-06 14712   0.378E-03
  20 F= -.75762119E+03 E0= -.75762119E+03  d E =0.868732E-02  mag=    65.0000
       N       E                     dE             d eps       ncg     rms          rms(c)
DAV:   1    -0.757508905810E+03    0.11228E+00   -0.12258E+01 28960   0.930E+00    0.216E+00
DAV:   2    -0.757611495304E+03   -0.10259E+00   -0.10424E+00 28784   0.184E+00    0.926E-01
DAV:   3    -0.757611459300E+03    0.36005E-04   -0.32536E-02 29880   0.434E-01    0.563E-01
DAV:   4    -0.757610190705E+03    0.12686E-02   -0.45673E-03 32856   0.165E-01    0.290E-01
DAV:   5    -0.757609566123E+03    0.62458E-03   -0.13583E-03 31048   0.119E-01    0.105E-01
DAV:   6    -0.757609600325E+03   -0.34202E-04   -0.92483E-04 29624   0.681E-02    0.746E-02
DAV:   7    -0.757609612439E+03   -0.12114E-04   -0.14706E-04 29104   0.265E-02    0.450E-02
DAV:   8    -0.757609613262E+03   -0.82339E-06   -0.30679E-05 22824   0.136E-02
  21 F= -.75760961E+03 E0= -.75760961E+03  d E =0.115725E-01  mag=    65.0000
       N       E                     dE             d eps       ncg     rms          rms(c)
DAV:   1    -0.757436793147E+03    0.17282E+00   -0.19448E+01 30168   0.126E+01    0.214E+00
DAV:   2    -0.757633583526E+03   -0.19679E+00   -0.19406E+00 28400   0.240E+00    0.106E+00
DAV:   3    -0.757640310385E+03   -0.67269E-02   -0.57759E-02 29832   0.515E-01    0.500E-01
DAV:   4    -0.757639006028E+03    0.13044E-02   -0.58295E-03 33744   0.174E-01    0.313E-01
DAV:   5    -0.757638484826E+03    0.52120E-03   -0.16154E-03 32800   0.138E-01    0.118E-01
DAV:   6    -0.757638545464E+03   -0.60637E-04   -0.91359E-04 30840   0.687E-02    0.729E-02
DAV:   7    -0.757638560101E+03   -0.14637E-04   -0.15001E-04 28976   0.263E-02    0.470E-02
DAV:   8    -0.757638559969E+03    0.13196E-06   -0.17480E-05 18024   0.106E-02
  22 F= -.75763856E+03 E0= -.75763856E+03  d E =-.289467E-01  mag=    65.0000
       N       E                     dE             d eps       ncg     rms          rms(c)
DAV:   1    -0.757625420593E+03    0.13140E-01   -0.11948E+00 28408   0.281E+00    0.705E-01
DAV:   2    -0.757634598015E+03   -0.91774E-02   -0.95348E-02 28912   0.554E-01    0.301E-01
DAV:   3    -0.757634425684E+03    0.17233E-03   -0.32795E-03 30504   0.139E-01    0.195E-01
DAV:   4    -0.757634267438E+03    0.15825E-03   -0.48094E-04 32456   0.557E-02    0.945E-02
DAV:   5    -0.757634194352E+03    0.73086E-04   -0.16812E-04 29800   0.394E-02    0.336E-02
DAV:   6    -0.757634199628E+03   -0.52760E-05   -0.11264E-04 29440   0.228E-02    0.263E-02
DAV:   7    -0.757634200346E+03   -0.71773E-06   -0.11593E-05 15848   0.857E-03
  23 F= -.75763420E+03 E0= -.75763420E+03  d E =0.435962E-02  mag=    65.0000
       N       E                     dE             d eps       ncg     rms          rms(c)
DAV:   1    -0.757637229291E+03   -0.30297E-02   -0.36957E-01 27584   0.147E+00    0.463E-01
DAV:   2    -0.757639674952E+03   -0.24457E-02   -0.27500E-02 29440   0.308E-01    0.195E-01
DAV:   3    -0.757639477493E+03    0.19746E-03   -0.11285E-03 30656   0.851E-02    0.137E-01
DAV:   4    -0.757639417576E+03    0.59917E-04   -0.21688E-04 32160   0.385E-02    0.596E-02
DAV:   5    -0.757639389332E+03    0.28244E-04   -0.61779E-05 27832   0.253E-02    0.222E-02
DAV:   6    -0.757639391749E+03   -0.24176E-05   -0.49857E-05 27088   0.154E-02
  24 F= -.75763939E+03 E0= -.75763939E+03  d E =-.519140E-02  mag=    65.0000
