       N       E                     dE             d eps       ncg     rms          ort
DAV:   1     0.288728033667E+04    0.28873E+04   -0.21078E+05  2592   0.138E+03
DAV:   2    -0.726689353373E+03   -0.36140E+04   -0.34642E+04  2592   0.242E+02
DAV:   3    -0.120173541572E+04   -0.47505E+03   -0.46989E+03  2592   0.948E+01
DAV:   4    -0.122443876127E+04   -0.22703E+02   -0.22524E+02  2592   0.229E+01
DAV:   5    -0.122573125773E+04   -0.12925E+01   -0.12905E+01  2592   0.535E+00
SDA:   6    -0.109635374210E+04    0.12938E+03   -0.12905E+01  2592   0.671E+02 0.000E+00
CGA:   7    -0.111136151231E+04   -0.15008E+02   -0.15009E+02  2592   0.634E+01 0.111E+00
CGA:   8    -0.111321882711E+04   -0.18573E+01   -0.18477E+01  2592   0.149E+01 0.927E-01
CGA:   9    -0.111370623318E+04   -0.48741E+00   -0.48705E+00  2592   0.402E+00 0.285E-02
CGA:  10    -0.111385495701E+04   -0.14872E+00   -0.15020E+00  2592   0.115E+00-0.991E-02
CGA:  11    -0.111389336228E+04   -0.38405E-01   -0.38555E-01  2592   0.359E-01-0.127E-02
CGA:  12    -0.111390381344E+04   -0.10451E-01   -0.10430E-01  2592   0.802E-02 0.299E-03
CGA:  13    -0.111390678882E+04   -0.29754E-02   -0.30581E-02  2592   0.260E-02-0.559E-03
CGA:  14    -0.111390771100E+04   -0.92217E-03   -0.96319E-03  2592   0.743E-03-0.256E-03
CGA:  15    -0.111390791109E+04   -0.20009E-03   -0.19455E-03  2592   0.198E-03 0.121E-03
CGA:  16    -0.111390795417E+04   -0.43077E-04   -0.47453E-04  2592   0.663E-04 0.105E-03
CGA:  17    -0.111390796597E+04   -0.11803E-04   -0.13474E-04  2592   0.318E-04 0.399E-04
CGA:  18    -0.111390797065E+04   -0.46821E-05   -0.59822E-05  2592   0.195E-04 0.236E-04
   1 F= -.11139080E+04 E0= -.11139002E+04  d E =-.111391E+04  mag=     0.0079
       N       E                     dE             d eps       ncg     rms          ort
SDA:   1    -0.111390876767E+04   -0.80170E-03    0.00000E+00  2592   0.939E-03 0.000E+00
CGA:   2    -0.111390900719E+04   -0.23952E-03   -0.23902E-03  2592   0.220E-03 0.276E-04
CGA:   3    -0.111390907197E+04   -0.64776E-04   -0.63816E-04  2592   0.526E-04 0.218E-04
CGA:   4    -0.111390908987E+04   -0.17903E-04   -0.17615E-04  2592   0.141E-04 0.441E-05
CGA:   5    -0.111390909420E+04   -0.43282E-05   -0.42440E-05  2592   0.340E-05 0.242E-05
   2 F= -.11139091E+04 E0= -.11139013E+04  d E =-.112355E-02  mag=     0.0009
       N       E                     dE             d eps       ncg     rms          ort
SDA:   1    -0.111384678912E+04    0.62301E-01    0.00000E+00  2592   0.209E+00 0.000E+00
CGA:   2    -0.111390105574E+04   -0.54267E-01   -0.54266E-01  2592   0.504E-01-0.130E-04
CGA:   3    -0.111391624773E+04   -0.15192E-01   -0.15194E-01  2592   0.133E-01-0.504E-04
CGA:   4    -0.111392023850E+04   -0.39908E-02   -0.39947E-02  2592   0.342E-02-0.845E-04
CGA:   5    -0.111392125981E+04   -0.10213E-02   -0.10205E-02  2592   0.851E-03 0.176E-04
CGA:   6    -0.111392156584E+04   -0.30602E-03   -0.30553E-03  2592   0.231E-03 0.468E-05
CGA:   7    -0.111392164063E+04   -0.74791E-04   -0.74768E-04  2592   0.647E-04 0.316E-06
CGA:   8    -0.111392166280E+04   -0.22170E-04   -0.22295E-04  2592   0.185E-04-0.161E-05
CGA:   9    -0.111392166919E+04   -0.63964E-05   -0.64369E-05  2592   0.526E-05-0.468E-06
   3 F= -.11139217E+04 E0= -.11139139E+04  d E =-.125750E-01  mag=     0.0000
       N       E                     dE             d eps       ncg     rms          ort
SDA:   1    -0.111359442160E+04    0.32724E+00    0.00000E+00  2592   0.100E+01 0.000E+00
CGA:   2    -0.111384343995E+04   -0.24902E+00   -0.24906E+00  2592   0.232E+00 0.321E-03
CGA:   3    -0.111391296641E+04   -0.69526E-01   -0.69530E-01  2592   0.621E-01-0.165E-03
CGA:   4    -0.111393154758E+04   -0.18581E-01   -0.18584E-01  2592   0.159E-01-0.158E-03
CGA:   5    -0.111393631081E+04   -0.47632E-02   -0.47617E-02  2592   0.381E-02 0.622E-04
CGA:   6    -0.111393766159E+04   -0.13508E-02   -0.13498E-02  2592   0.106E-02 0.126E-04
CGA:   7    -0.111393799159E+04   -0.32999E-03   -0.33008E-03  2592   0.289E-03-0.350E-05
CGA:   8    -0.111393808808E+04   -0.96493E-04   -0.96487E-04  2592   0.767E-04 0.452E-07
CGA:   9    -0.111393811599E+04   -0.27907E-04   -0.27961E-04  2592   0.228E-04-0.727E-06
CGA:  10    -0.111393812420E+04   -0.82171E-05   -0.82991E-05  2592   0.699E-05-0.108E-05
   4 F= -.11139381E+04 E0= -.11139304E+04  d E =-.164550E-01  mag=     0.0000
       N       E                     dE             d eps       ncg     rms          ort
SDA:   1    -0.111374182945E+04    0.19629E+00    0.00000E+00  2592   0.566E+00 0.000E+00
CGA:   2    -0.111389209184E+04   -0.15026E+00   -0.15027E+00  2592   0.139E+00-0.569E-04
CGA:   3    -0.111393243872E+04   -0.40347E-01   -0.40348E-01  2592   0.366E-01 0.121E-03
CGA:   4    -0.111394371974E+04   -0.11281E-01   -0.11282E-01  2592   0.923E-02-0.614E-04
CGA:   5    -0.111394649384E+04   -0.27741E-02   -0.27737E-02  2592   0.233E-02 0.577E-04
CGA:   6    -0.111394729073E+04   -0.79689E-03   -0.79687E-03  2592   0.677E-03-0.491E-06
CGA:   7    -0.111394749511E+04   -0.20438E-03   -0.20435E-03  2592   0.177E-03 0.539E-05
CGA:   8    -0.111394755694E+04   -0.61824E-04   -0.61928E-04  2592   0.492E-04-0.214E-05
CGA:   9    -0.111394757487E+04   -0.17933E-04   -0.17940E-04  2592   0.137E-04-0.108E-06
CGA:  10    -0.111394758001E+04   -0.51422E-05   -0.51845E-05  2592   0.413E-05-0.554E-06
   5 F= -.11139476E+04 E0= -.11139399E+04  d E =-.945581E-02  mag=     0.0000
       N       E                     dE             d eps       ncg     rms          ort
SDA:   1    -0.111298597975E+04    0.96160E+00    0.00000E+00  2592   0.256E+01 0.000E+00
CGA:   2    -0.111370229876E+04   -0.71632E+00   -0.71634E+00  2592   0.632E+00 0.294E-03
CGA:   3    -0.111388513630E+04   -0.18284E+00   -0.18284E+00  2592   0.169E+00-0.107E-03
CGA:   4    -0.111393733227E+04   -0.52196E-01   -0.52197E-01  2592   0.400E-01-0.205E-03
CGA:   5    -0.111394975952E+04   -0.12427E-01   -0.12427E-01  2592   0.105E-01 0.657E-04
CGA:   6    -0.111395327006E+04   -0.35105E-02   -0.35104E-02  2592   0.303E-02 0.163E-05
CGA:   7    -0.111395416661E+04   -0.89655E-03   -0.89670E-03  2592   0.844E-03 0.175E-04
CGA:   8    -0.111395445067E+04   -0.28406E-03   -0.28431E-03  2592   0.231E-03-0.831E-05
CGA:   9    -0.111395453771E+04   -0.87042E-04   -0.87255E-04  2592   0.628E-04-0.289E-05
CGA:  10    -0.111395456071E+04   -0.22999E-04   -0.22999E-04  2592   0.165E-04-0.213E-07
CGA:  11    -0.111395456581E+04   -0.51006E-05   -0.51028E-05  2592   0.361E-05 0.676E-06
   6 F= -.11139546E+04 E0= -.11139469E+04  d E =-.698580E-02  mag=     0.0000
       N       E                     dE             d eps       ncg     rms          ort
SDA:   1    -0.111378071022E+04    0.17385E+00    0.00000E+00  2592   0.481E+00 0.000E+00
CGA:   2    -0.111391308493E+04   -0.13237E+00   -0.13238E+00  2592   0.116E+00-0.288E-05
CGA:   3    -0.111394738533E+04   -0.34300E-01   -0.34301E-01  2592   0.317E-01-0.467E-04
CGA:   4    -0.111395692807E+04   -0.95427E-02   -0.95432E-02  2592   0.806E-02 0.338E-04
CGA:   5    -0.111395935963E+04   -0.24316E-02   -0.24317E-02  2592   0.222E-02 0.115E-04
CGA:   6    -0.111396012649E+04   -0.76686E-03   -0.76714E-03  2592   0.612E-03-0.926E-05
CGA:   7    -0.111396032320E+04   -0.19671E-03   -0.19665E-03  2592   0.171E-03 0.581E-05
CGA:   8    -0.111396037934E+04   -0.56137E-04   -0.56152E-04  2592   0.493E-04-0.136E-05
CGA:   9    -0.111396039644E+04   -0.17102E-04   -0.17088E-04  2592   0.130E-04 0.367E-06
CGA:  10    -0.111396040153E+04   -0.50939E-05   -0.51893E-05  2592   0.449E-05-0.121E-05
   7 F= -.11139604E+04 E0= -.11139528E+04  d E =-.583572E-02  mag=     0.0000
       N       E                     dE             d eps       ncg     rms          ort
SDA:   1    -0.111388198801E+04    0.78408E-01    0.00000E+00  2592   0.217E+00 0.000E+00
CGA:   2    -0.111394086319E+04   -0.58875E-01   -0.58875E-01  2592   0.524E-01 0.234E-04
CGA:   3    -0.111395626788E+04   -0.15405E-01   -0.15406E-01  2592   0.139E-01 0.378E-04
CGA:   4    -0.111396053481E+04   -0.42669E-02   -0.42671E-02  2592   0.343E-02 0.280E-04
CGA:   5    -0.111396159654E+04   -0.10617E-02   -0.10616E-02  2592   0.905E-03-0.265E-04
CGA:   6    -0.111396189426E+04   -0.29771E-03   -0.29743E-03  2592   0.246E-03 0.146E-04
CGA:   7    -0.111396197155E+04   -0.77294E-04   -0.77293E-04  2592   0.706E-04-0.433E-06
CGA:   8    -0.111396199507E+04   -0.23515E-04   -0.23529E-04  2592   0.194E-04-0.685E-06
CGA:   9    -0.111396200182E+04   -0.67501E-05   -0.67180E-05  2592   0.487E-05 0.902E-06
   8 F= -.11139620E+04 E0= -.11139544E+04  d E =-.160029E-02  mag=    -0.0000
       N       E                     dE             d eps       ncg     rms          ort
SDA:   1    -0.111392957607E+04    0.32419E-01    0.00000E+00  2592   0.950E-01 0.000E+00
CGA:   2    -0.111395472228E+04   -0.25146E-01   -0.25143E-01  2592   0.235E-01-0.543E-04
CGA:   3    -0.111396175752E+04   -0.70352E-02   -0.70360E-02  2592   0.610E-02 0.387E-04
CGA:   4    -0.111396362260E+04   -0.18651E-02   -0.18654E-02  2592   0.154E-02 0.418E-04
CGA:   5    -0.111396409802E+04   -0.47541E-03   -0.47541E-03  2592   0.416E-03-0.167E-06
CGA:   6    -0.111396423735E+04   -0.13934E-03   -0.13937E-03  2592   0.118E-03-0.170E-05
CGA:   7    -0.111396427304E+04   -0.35687E-04   -0.35721E-04  2592   0.298E-04 0.401E-05
CGA:   8    -0.111396428374E+04   -0.10697E-04   -0.10718E-04  2592   0.889E-05-0.614E-06
CGA:   9    -0.111396428691E+04   -0.31692E-05   -0.31678E-05  2592   0.241E-05 0.318E-07
   9 F= -.11139643E+04 E0= -.11139566E+04  d E =-.228509E-02  mag=     0.0000
       N       E                     dE             d eps       ncg     rms          ort
SDA:   1    -0.111335422109E+04    0.61006E+00    0.00000E+00  2592   0.166E+01 0.000E+00
CGA:   2    -0.111380323442E+04   -0.44901E+00   -0.44902E+00  2592   0.414E+00 0.742E-04
CGA:   3    -0.111392359274E+04   -0.12036E+00   -0.12036E+00  2592   0.110E+00-0.145E-03
CGA:   4    -0.111395678269E+04   -0.33190E-01   -0.33191E-01  2592   0.264E-01 0.275E-04
CGA:   5    -0.111396500447E+04   -0.82218E-02   -0.82217E-02  2592   0.698E-02-0.193E-04
CGA:   6    -0.111396729874E+04   -0.22943E-02   -0.22941E-02  2592   0.199E-02 0.832E-05
CGA:   7    -0.111396791148E+04   -0.61274E-03   -0.61286E-03  2592   0.525E-03 0.146E-04
CGA:   8    -0.111396809134E+04   -0.17986E-03   -0.18000E-03  2592   0.145E-03-0.574E-05
CGA:   9    -0.111396814529E+04   -0.53941E-04   -0.53943E-04  2592   0.401E-04-0.966E-07
CGA:  10    -0.111396815982E+04   -0.14533E-04   -0.14560E-04  2592   0.120E-04-0.625E-06
CGA:  11    -0.111396816322E+04   -0.34050E-05   -0.34310E-05  2592   0.244E-05 0.792E-06
  10 F= -.11139682E+04 E0= -.11139606E+04  d E =-.387632E-02  mag=     0.0000
       N       E                     dE             d eps       ncg     rms          ort
SDA:   1    -0.111320783974E+04    0.76032E+00    0.00000E+00  2592   0.206E+01 0.000E+00
CGA:   2    -0.111376602220E+04   -0.55818E+00   -0.55820E+00  2592   0.504E+00 0.141E-03
CGA:   3    -0.111391408468E+04   -0.14806E+00   -0.14806E+00  2592   0.134E+00-0.249E-03
CGA:   4    -0.111395487517E+04   -0.40790E-01   -0.40793E-01  2592   0.320E-01 0.939E-05
CGA:   5    -0.111396499465E+04   -0.10119E-01   -0.10119E-01  2592   0.852E-02-0.315E-04
CGA:   6    -0.111396781651E+04   -0.28219E-02   -0.28218E-02  2592   0.244E-02 0.133E-04
CGA:   7    -0.111396857595E+04   -0.75944E-03   -0.75956E-03  2592   0.663E-03 0.614E-05
CGA:   8    -0.111396879950E+04   -0.22355E-03   -0.22355E-03  2592   0.176E-03-0.295E-06
CGA:   9    -0.111396886731E+04   -0.67811E-04   -0.67871E-04  2592   0.489E-04-0.114E-05
CGA:  10    -0.111396888508E+04   -0.17766E-04   -0.17798E-04  2592   0.145E-04-0.954E-06
CGA:  11    -0.111396888934E+04   -0.42655E-05   -0.42789E-05  2592   0.312E-05 0.401E-06
  11 F= -.11139689E+04 E0= -.11139613E+04  d E =-.726118E-03  mag=    -0.0000
       N       E                     dE             d eps       ncg     rms          ort
SDA:   1    -0.111363550913E+04    0.33338E+00    0.00000E+00  2592   0.930E+00 0.000E+00
CGA:   2    -0.111388131673E+04   -0.24581E+00   -0.24583E+00  2592   0.227E+00 0.109E-03
CGA:   3    -0.111394801903E+04   -0.66702E-01   -0.66714E-01  2592   0.606E-01 0.139E-03
CGA:   4    -0.111396653107E+04   -0.18512E-01   -0.18510E-01  2592   0.146E-01-0.927E-04
CGA:   5    -0.111397107406E+04   -0.45430E-02   -0.45435E-02  2592   0.387E-02 0.201E-04
CGA:   6    -0.111397236057E+04   -0.12865E-02   -0.12865E-02  2592   0.110E-02 0.203E-04
CGA:   7    -0.111397270373E+04   -0.34316E-03   -0.34318E-03  2592   0.296E-03 0.601E-06
CGA:   8    -0.111397280542E+04   -0.10168E-03   -0.10171E-03  2592   0.784E-04-0.159E-05
CGA:   9    -0.111397283472E+04   -0.29302E-04   -0.29277E-04  2592   0.215E-04 0.523E-06
CGA:  10    -0.111397284202E+04   -0.73028E-05   -0.72958E-05  2592   0.558E-05 0.145E-05
  12 F= -.11139728E+04 E0= -.11139653E+04  d E =-.395268E-02  mag=     0.0000
       N       E                     dE             d eps       ncg     rms          ort
SDA:   1    -0.111395603944E+04    0.16795E-01    0.00000E+00  2592   0.473E-01 0.000E+00
CGA:   2    -0.111396881553E+04   -0.12776E-01   -0.12777E-01  2592   0.109E-01 0.612E-05
CGA:   3    -0.111397232643E+04   -0.35109E-02   -0.35106E-02  2592   0.294E-02-0.335E-04
CGA:   4    -0.111397322440E+04   -0.89797E-03   -0.89778E-03  2592   0.812E-03-0.913E-05
CGA:   5    -0.111397346691E+04   -0.24250E-03   -0.24238E-03  2592   0.242E-03-0.452E-05
CGA:   6    -0.111397354692E+04   -0.80011E-04   -0.79996E-04  2592   0.642E-04 0.285E-05
CGA:   7    -0.111397356926E+04   -0.22341E-04   -0.22372E-04  2592   0.192E-04-0.179E-05
CGA:   8    -0.111397357494E+04   -0.56854E-05   -0.57051E-05  2592   0.467E-05 0.892E-06
  13 F= -.11139736E+04 E0= -.11139660E+04  d E =-.732923E-03  mag=     0.0000
       N       E                     dE             d eps       ncg     rms          ort
SDA:   1    -0.111396651702E+04    0.70522E-02    0.00000E+00  2592   0.208E-01 0.000E+00
CGA:   2    -0.111397209698E+04   -0.55800E-02   -0.55798E-02  2592   0.492E-02-0.618E-05
CGA:   3    -0.111397358738E+04   -0.14904E-02   -0.14901E-02  2592   0.132E-02-0.166E-04
CGA:   4    -0.111397398128E+04   -0.39390E-03   -0.39403E-03  2592   0.320E-03 0.462E-05
CGA:   5    -0.111397408167E+04   -0.10039E-03   -0.10039E-03  2592   0.865E-04-0.426E-06
CGA:   6    -0.111397411090E+04   -0.29232E-04   -0.29257E-04  2592   0.254E-04-0.163E-05
CGA:   7    -0.111397411854E+04   -0.76429E-05   -0.76478E-05  2592   0.667E-05 0.277E-06
  14 F= -.11139741E+04 E0= -.11139666E+04  d E =-.543600E-03  mag=    -0.0000
