       N       E                     dE             d eps       ncg     rms          rms(c)
DAV:   1     0.307261760868E+04    0.30726E+04   -0.25834E+05 73572   0.130E+03
DAV:   2    -0.610349390678E+03   -0.36830E+04   -0.35498E+04 89604   0.297E+02
DAV:   3    -0.872368706473E+03   -0.26202E+03   -0.26034E+03 89064   0.839E+01
DAV:   4    -0.875652458486E+03   -0.32838E+01   -0.32715E+01 89388   0.101E+01
DAV:   5    -0.875708285145E+03   -0.55827E-01   -0.55689E-01 91080   0.122E+00    0.991E+01
DAV:   6    -0.779738449886E+03    0.95970E+02   -0.40575E+02 82188   0.319E+01    0.503E+01
DAV:   7    -0.788902419345E+03   -0.91640E+01   -0.21903E+01 83064   0.767E+00    0.163E+01
DAV:   8    -0.793107877261E+03   -0.42055E+01   -0.16860E+00 85944   0.251E+00    0.783E+00
DAV:   9    -0.795377182034E+03   -0.22693E+01   -0.10848E+00 88548   0.174E+00    0.381E+00
DAV:  10    -0.795885475059E+03   -0.50829E+00   -0.29040E-01 83412   0.935E-01    0.114E+00
DAV:  11    -0.795959504247E+03   -0.74029E-01   -0.41128E-02 88152   0.359E-01    0.612E-01
DAV:  12    -0.795969731952E+03   -0.10228E-01   -0.54799E-03 84444   0.141E-01    0.275E-01
DAV:  13    -0.795972019222E+03   -0.22873E-02   -0.12108E-03 87948   0.650E-02    0.897E-02
DAV:  14    -0.795972474286E+03   -0.45506E-03   -0.31701E-04 82860   0.320E-02    0.414E-02
DAV:  15    -0.795972513512E+03   -0.39226E-04   -0.32714E-05 80184   0.155E-02    0.267E-02
DAV:  16    -0.795972530545E+03   -0.17033E-04   -0.17849E-05 61416   0.107E-02    0.113E-02
DAV:  17    -0.795972533967E+03   -0.34216E-05   -0.53496E-06 60240   0.612E-03
   1 F= -.79597253E+03 E0= -.79597253E+03  d E =-.795973E+03  mag=    -0.0014
       N       E                     dE             d eps       ncg     rms          rms(c)
DAV:   1    -0.795979529862E+03   -0.69993E-02   -0.47690E-03 77844   0.116E-01    0.238E-02
DAV:   2    -0.795979536429E+03   -0.65665E-05   -0.10643E-04 90720   0.161E-02    0.102E-02
DAV:   3    -0.795979534273E+03    0.21560E-05   -0.27559E-06 48204   0.409E-03    0.561E-03
DAV:   4    -0.795979533565E+03    0.70756E-06   -0.27563E-06 44196   0.341E-03
   2 F= -.79597953E+03 E0= -.79597953E+03  d E =-.699960E-02  mag=    -0.0001
       N       E                     dE             d eps       ncg     rms          rms(c)
DAV:   1    -0.796126250000E+03   -0.14672E+00   -0.30465E+00 74352   0.292E+00    0.592E-01
DAV:   2    -0.796130521970E+03   -0.42720E-02   -0.66504E-02 89424   0.402E-01    0.251E-01
DAV:   3    -0.796129311763E+03    0.12102E-02   -0.18135E-03 91464   0.977E-02    0.134E-01
DAV:   4    -0.796129025883E+03    0.28588E-03   -0.12665E-03 88980   0.674E-02    0.493E-02
DAV:   5    -0.796129025206E+03    0.67711E-06   -0.25393E-04 89340   0.329E-02    0.459E-02
DAV:   6    -0.796129025029E+03    0.17649E-06   -0.22972E-05 73500   0.922E-03
   3 F= -.79612903E+03 E0= -.79612903E+03  d E =-.149491E+00  mag=    -0.0000
       N       E                     dE             d eps       ncg     rms          rms(c)
DAV:   1    -0.796300293343E+03   -0.17127E+00   -0.99006E+00 73464   0.521E+00    0.724E-01
DAV:   2    -0.796315176491E+03   -0.14883E-01   -0.21542E-01 88644   0.695E-01    0.442E-01
DAV:   3    -0.796311871719E+03    0.33048E-02   -0.49162E-03 90300   0.151E-01    0.267E-01
DAV:   4    -0.796310636031E+03    0.12357E-02   -0.39877E-03 88776   0.119E-01    0.910E-02
DAV:   5    -0.796310616563E+03    0.19468E-04   -0.87982E-04 90816   0.622E-02    0.723E-02
DAV:   6    -0.796310621162E+03   -0.45991E-05   -0.12861E-04 88404   0.212E-02    0.441E-02
DAV:   7    -0.796310607058E+03    0.14104E-04   -0.26078E-05 77676   0.142E-02    0.273E-02
DAV:   8    -0.796310602950E+03    0.41082E-05   -0.13881E-05 68796   0.974E-03
   4 F= -.79631060E+03 E0= -.79631060E+03  d E =-.181578E+00  mag=    -0.0000
       N       E                     dE             d eps       ncg     rms          rms(c)
DAV:   1    -0.796379654567E+03   -0.69048E-01   -0.58566E+00 73440   0.394E+00    0.607E-01
DAV:   2    -0.796390461641E+03   -0.10807E-01   -0.13766E-01 88404   0.525E-01    0.325E-01
DAV:   3    -0.796388675814E+03    0.17858E-02   -0.33654E-03 89412   0.124E-01    0.177E-01
DAV:   4    -0.796388109244E+03    0.56657E-03   -0.17949E-03 88356   0.803E-02    0.669E-02
DAV:   5    -0.796388074299E+03    0.34945E-04   -0.37510E-04 90324   0.400E-02    0.331E-02
DAV:   6    -0.796388076743E+03   -0.24434E-05   -0.65712E-05 87648   0.160E-02
   5 F= -.79638808E+03 E0= -.79638808E+03  d E =-.774738E-01  mag=    -0.0000
       N       E                     dE             d eps       ncg     rms          rms(c)
DAV:   1    -0.796413420467E+03   -0.25346E-01   -0.75714E+00 73440   0.454E+00    0.847E-01
DAV:   2    -0.796426071376E+03   -0.12651E-01   -0.17142E-01 89388   0.610E-01    0.350E-01
DAV:   3    -0.796423887358E+03    0.21840E-02   -0.51842E-03 90288   0.151E-01    0.196E-01
DAV:   4    -0.796423159113E+03    0.72824E-03   -0.22453E-03 89136   0.964E-02    0.753E-02
DAV:   5    -0.796423097988E+03    0.61126E-04   -0.40089E-04 90816   0.458E-02    0.441E-02
DAV:   6    -0.796423087684E+03    0.10304E-04   -0.11449E-04 88812   0.240E-02    0.258E-02
DAV:   7    -0.796423077275E+03    0.10409E-04   -0.16662E-05 74892   0.144E-02    0.106E-02
DAV:   8    -0.796423075176E+03    0.20985E-05   -0.11122E-05 61656   0.891E-03
   6 F= -.79642308E+03 E0= -.79642308E+03  d E =-.349984E-01  mag=    -0.0000
       N       E                     dE             d eps       ncg     rms          rms(c)
DAV:   1    -0.796361143039E+03    0.61934E-01   -0.14679E+01 73440   0.631E+00    0.202E+00
DAV:   2    -0.796398150866E+03   -0.37008E-01   -0.44733E-01 89784   0.953E-01    0.710E-01
DAV:   3    -0.796391295151E+03    0.68557E-02   -0.13916E-02 90228   0.238E-01    0.331E-01
DAV:   4    -0.796389267836E+03    0.20273E-02   -0.45435E-03 88596   0.158E-01    0.139E-01
DAV:   5    -0.796389102317E+03    0.16552E-03   -0.15985E-03 90564   0.916E-02    0.766E-02
DAV:   6    -0.796389055616E+03    0.46701E-04   -0.31891E-04 89844   0.387E-02    0.436E-02
DAV:   7    -0.796389015095E+03    0.40521E-04   -0.59772E-05 90588   0.228E-02    0.177E-02
DAV:   8    -0.796389002630E+03    0.12464E-04   -0.27356E-05 79416   0.192E-02    0.680E-03
DAV:   9    -0.796389000671E+03    0.19598E-05   -0.18957E-05 69252   0.143E-02
   7 F= -.79638900E+03 E0= -.79638900E+03  d E =0.340745E-01  mag=    -0.0000
       N       E                     dE             d eps       ncg     rms          rms(c)
DAV:   1    -0.796435524362E+03   -0.46522E-01   -0.33037E+00 73440   0.286E+00    0.127E+00
DAV:   2    -0.796443685503E+03   -0.81611E-02   -0.11454E-01 89928   0.492E-01    0.426E-01
DAV:   3    -0.796440978675E+03    0.27068E-02   -0.34635E-03 90180   0.132E-01    0.183E-01
DAV:   4    -0.796440131206E+03    0.84747E-03   -0.16238E-03 88392   0.106E-01    0.650E-02
DAV:   5    -0.796440068460E+03    0.62746E-04   -0.66785E-04 92412   0.623E-02    0.433E-02
DAV:   6    -0.796440049825E+03    0.18634E-04   -0.10213E-04 90000   0.204E-02    0.265E-02
DAV:   7    -0.796440027811E+03    0.22014E-04   -0.38566E-05 84552   0.157E-02    0.104E-02
DAV:   8    -0.796440020791E+03    0.70197E-05   -0.12545E-05 73344   0.153E-02
   8 F= -.79644002E+03 E0= -.79644002E+03  d E =-.510201E-01  mag=     0.0000
       N       E                     dE             d eps       ncg     rms          rms(c)
DAV:   1    -0.796442729732E+03   -0.27019E-02   -0.22949E-01 74040   0.794E-01    0.215E-01
DAV:   2    -0.796443254691E+03   -0.52496E-03   -0.62266E-03 89352   0.118E-01    0.760E-02
DAV:   3    -0.796443168807E+03    0.85884E-04   -0.12353E-04 88968   0.255E-02    0.353E-02
DAV:   4    -0.796443145886E+03    0.22921E-04   -0.77355E-05 88068   0.178E-02    0.112E-02
DAV:   5    -0.796443145118E+03    0.76797E-06   -0.17590E-05 67920   0.969E-03
   9 F= -.79644315E+03 E0= -.79644315E+03  d E =-.312433E-02  mag=     0.0000
       N       E                     dE             d eps       ncg     rms          rms(c)
DAV:   1    -0.796443766950E+03   -0.62106E-03   -0.23804E+00 73440   0.257E+00    0.321E-01
DAV:   2    -0.796448062029E+03   -0.42951E-02   -0.49981E-02 88392   0.339E-01    0.155E-01
DAV:   3    -0.796447668626E+03    0.39340E-03   -0.66780E-04 91428   0.551E-02    0.919E-02
DAV:   4    -0.796447490071E+03    0.17855E-03   -0.65551E-04 88236   0.544E-02    0.292E-02
DAV:   5    -0.796447487743E+03    0.23280E-05   -0.12428E-04 90228   0.233E-02    0.187E-02
DAV:   6    -0.796447486906E+03    0.83754E-06   -0.37795E-05 76812   0.123E-02
  10 F= -.79644749E+03 E0= -.79644749E+03  d E =-.434179E-02  mag=     0.0000
       N       E                     dE             d eps       ncg     rms          rms(c)
DAV:   1    -0.796437463572E+03    0.10024E-01   -0.46300E+00 73440   0.377E+00    0.695E-01
DAV:   2    -0.796446815441E+03   -0.93519E-02   -0.10808E-01 87540   0.525E-01    0.249E-01
DAV:   3    -0.796445745496E+03    0.10699E-02   -0.14354E-03 91620   0.913E-02    0.133E-01
DAV:   4    -0.796445354036E+03    0.39146E-03   -0.13938E-03 88512   0.901E-02    0.391E-02
DAV:   5    -0.796445355095E+03   -0.10587E-05   -0.34256E-04 90096   0.401E-02    0.334E-02
DAV:   6    -0.796445346411E+03    0.86838E-05   -0.57095E-05 86820   0.145E-02
  11 F= -.79644535E+03 E0= -.79644535E+03  d E =0.214049E-02  mag=    -0.0000
       N       E                     dE             d eps       ncg     rms          rms(c)
DAV:   1    -0.796419391023E+03    0.25964E-01   -0.10694E+01 73440   0.569E+00    0.123E+00
DAV:   2    -0.796442320552E+03   -0.22930E-01   -0.27373E-01 89460   0.824E-01    0.490E-01
DAV:   3    -0.796438948559E+03    0.33720E-02   -0.48434E-03 90588   0.159E-01    0.243E-01
DAV:   4    -0.796437809647E+03    0.11389E-02   -0.35386E-03 88152   0.133E-01    0.797E-02
DAV:   5    -0.796437757794E+03    0.51853E-04   -0.86933E-04 90900   0.715E-02    0.537E-02
DAV:   6    -0.796437741796E+03    0.15998E-04   -0.16472E-04 89304   0.250E-02    0.291E-02
DAV:   7    -0.796437722151E+03    0.19645E-04   -0.13351E-05 70812   0.147E-02    0.138E-02
DAV:   8    -0.796437715078E+03    0.70735E-05   -0.24345E-05 79920   0.155E-02
  12 F= -.79643772E+03 E0= -.79643772E+03  d E =0.763133E-02  mag=     0.0000
       N       E                     dE             d eps       ncg     rms          rms(c)
DAV:   1    -0.796448806659E+03   -0.11085E-01   -0.22649E+00 73440   0.268E+00    0.937E-01
DAV:   2    -0.796453726940E+03   -0.49203E-02   -0.79275E-02 90576   0.475E-01    0.379E-01
DAV:   3    -0.796451492150E+03    0.22348E-02   -0.24482E-03 91188   0.115E-01    0.155E-01
DAV:   4    -0.796450822380E+03    0.66977E-03   -0.13754E-03 88584   0.963E-02    0.482E-02
DAV:   5    -0.796450775794E+03    0.46586E-04   -0.53027E-04 93588   0.623E-02    0.343E-02
DAV:   6    -0.796450773263E+03    0.25313E-05   -0.11744E-04 89292   0.192E-02    0.283E-02
DAV:   7    -0.796450760025E+03    0.13238E-04   -0.21092E-05 68700   0.865E-03    0.146E-02
DAV:   8    -0.796450752428E+03    0.75965E-05   -0.18093E-05 74640   0.137E-02
  13 F= -.79645075E+03 E0= -.79645075E+03  d E =-.130374E-01  mag=    -0.0000
       N       E                     dE             d eps       ncg     rms          rms(c)
DAV:   1    -0.796455570198E+03   -0.48102E-02   -0.64356E-01 73464   0.144E+00    0.414E-01
DAV:   2    -0.796456940153E+03   -0.13700E-02   -0.19162E-02 89868   0.236E-01    0.160E-01
DAV:   3    -0.796456526465E+03    0.41369E-03   -0.47128E-04 91236   0.507E-02    0.712E-02
DAV:   4    -0.796456395264E+03    0.13120E-03   -0.30069E-04 89304   0.431E-02    0.213E-02
DAV:   5    -0.796456391964E+03    0.33001E-05   -0.98017E-05 90888   0.242E-02
  14 F= -.79645639E+03 E0= -.79645639E+03  d E =-.563954E-02  mag=     0.0000
       N       E                     dE             d eps       ncg     rms          rms(c)
DAV:   1    -0.796456698934E+03   -0.30367E-03   -0.36611E-02 74256   0.346E-01    0.639E-02
DAV:   2    -0.796456776811E+03   -0.77878E-04   -0.90131E-04 88068   0.502E-02    0.272E-02
DAV:   3    -0.796456768401E+03    0.84106E-05   -0.14093E-05 66756   0.962E-03    0.139E-02
DAV:   4    -0.796456766114E+03    0.22867E-05   -0.13045E-05 53988   0.860E-03
  15 F= -.79645677E+03 E0= -.79645677E+03  d E =-.374150E-03  mag=     0.0000
       N       E                     dE             d eps       ncg     rms          rms(c)
DAV:   1    -0.796448060338E+03    0.87081E-02   -0.37674E+00 73440   0.349E+00    0.579E-01
DAV:   2    -0.796455695749E+03   -0.76354E-02   -0.86863E-02 87360   0.488E-01    0.216E-01
DAV:   3    -0.796454971394E+03    0.72435E-03   -0.11460E-03 91020   0.801E-02    0.121E-01
DAV:   4    -0.796454701717E+03    0.26968E-03   -0.12003E-03 88548   0.817E-02    0.407E-02
DAV:   5    -0.796454697652E+03    0.40650E-05   -0.25475E-04 89772   0.357E-02    0.296E-02
DAV:   6    -0.796454692580E+03    0.50725E-05   -0.68977E-05 85284   0.163E-02
  16 F= -.79645469E+03 E0= -.79645469E+03  d E =0.207353E-02  mag=    -0.0000
       N       E                     dE             d eps       ncg     rms          rms(c)
DAV:   1    -0.796445351496E+03    0.93462E-02   -0.42951E+00 73440   0.374E+00    0.810E-01
DAV:   2    -0.796454772044E+03   -0.94205E-02   -0.11115E-01 88656   0.560E-01    0.312E-01
DAV:   3    -0.796453510349E+03    0.12617E-02   -0.18531E-03 91536   0.102E-01    0.154E-01
DAV:   4    -0.796453112214E+03    0.39814E-03   -0.14927E-03 88392   0.869E-02    0.499E-02
DAV:   5    -0.796453094739E+03    0.17474E-04   -0.31017E-04 92880   0.441E-02    0.353E-02
DAV:   6    -0.796453090470E+03    0.42690E-05   -0.68249E-05 86724   0.160E-02
  17 F= -.79645309E+03 E0= -.79645309E+03  d E =0.160211E-02  mag=     0.0000
       N       E                     dE             d eps       ncg     rms          rms(c)
DAV:   1    -0.796455151772E+03   -0.20570E-02   -0.98925E-01 73440   0.185E+00    0.615E-01
DAV:   2    -0.796457595264E+03   -0.24435E-02   -0.34064E-02 90144   0.320E-01    0.229E-01
DAV:   3    -0.796456796597E+03    0.79867E-03   -0.90219E-04 91296   0.779E-02    0.985E-02
DAV:   4    -0.796456545774E+03    0.25082E-03   -0.56932E-04 89472   0.652E-02    0.323E-02
DAV:   5    -0.796456528385E+03    0.17389E-04   -0.21184E-04 92868   0.392E-02    0.250E-02
DAV:   6    -0.796456524763E+03    0.36216E-05   -0.34969E-05 71208   0.115E-02
  18 F= -.79645652E+03 E0= -.79645652E+03  d E =-.343429E-02  mag=     0.0000
       N       E                     dE             d eps       ncg     rms          rms(c)
DAV:   1    -0.796459142981E+03   -0.26146E-02   -0.20800E-01 75960   0.852E-01    0.310E-01
DAV:   2    -0.796459726785E+03   -0.58380E-03   -0.82191E-03 90384   0.160E-01    0.125E-01
DAV:   3    -0.796459507002E+03    0.21978E-03   -0.22459E-04 91008   0.414E-02    0.486E-02
DAV:   4    -0.796459447284E+03    0.59718E-04   -0.13480E-04 89832   0.336E-02    0.158E-02
DAV:   5    -0.796459441897E+03    0.53862E-05   -0.55370E-05 90384   0.214E-02
  19 F= -.79645944E+03 E0= -.79645944E+03  d E =-.291713E-02  mag=     0.0000
