       N       E                     dE             d eps       ncg     rms          rms(c)
DAV:   1     0.574488980782E+04    0.57449E+04   -0.20957E+05 16888   0.159E+03
DAV:   2     0.372684612111E+03   -0.53722E+04   -0.48715E+04 16616   0.481E+02
DAV:   3    -0.427335993029E+03   -0.80002E+03   -0.75115E+03 17688   0.194E+02
DAV:   4    -0.468871701901E+03   -0.41536E+02   -0.41070E+02 18688   0.453E+01
DAV:   5    -0.469387002379E+03   -0.51530E+00   -0.51431E+00 18104   0.552E+00    0.114E+02
DAV:   6    -0.386600154337E+03    0.82787E+02   -0.54095E+02 20488   0.908E+01    0.101E+02
DAV:   7    -0.382847777239E+03    0.37524E+01   -0.24279E+02 18472   0.768E+01    0.521E+01
DAV:   8    -0.377666728595E+03    0.51810E+01   -0.36437E+01 18760   0.249E+01    0.269E+01
DAV:   9    -0.379274990487E+03   -0.16083E+01   -0.92651E+00 18352   0.125E+01    0.203E+01
DAV:  10    -0.379587689979E+03   -0.31270E+00   -0.27197E+00 17584   0.482E+00    0.953E+00
DAV:  11    -0.379305576266E+03    0.28211E+00   -0.13436E+00 19704   0.530E+00    0.337E+00
DAV:  12    -0.379401041626E+03   -0.95465E-01   -0.20662E-01 17672   0.193E+00    0.238E+00
DAV:  13    -0.379413534085E+03   -0.12492E-01   -0.45003E-02 17760   0.821E-01    0.107E+00
DAV:  14    -0.379417793656E+03   -0.42596E-02   -0.99668E-03 18792   0.376E-01    0.637E-01
DAV:  15    -0.379418733599E+03   -0.93994E-03   -0.43293E-03 17920   0.201E-01    0.337E-01
DAV:  16    -0.379418463626E+03    0.26997E-03   -0.11642E-03 18352   0.112E-01    0.171E-01
DAV:  17    -0.379418554031E+03   -0.90405E-04   -0.42161E-04 17656   0.788E-02    0.707E-02
DAV:  18    -0.379418604493E+03   -0.50462E-04   -0.87095E-05 16936   0.382E-02    0.270E-02
DAV:  19    -0.379418620631E+03   -0.16138E-04   -0.32136E-05 13664   0.182E-02    0.193E-02
DAV:  20    -0.379418626527E+03   -0.58953E-05   -0.86785E-06 10096   0.999E-03
   1 F= -.37941863E+03 E0= -.37941863E+03  d E =-.379419E+03  mag=    54.9999
