       N       E                     dE             d eps       ncg     rms          ort
DAV:   1     0.293352730596E+04    0.29335E+04   -0.29296E+05  2880   0.140E+03
DAV:   2    -0.912491845419E+03   -0.38460E+04   -0.37040E+04  2880   0.313E+02
DAV:   3    -0.118430612030E+04   -0.27181E+03   -0.27003E+03  2880   0.868E+01
DAV:   4    -0.118765569044E+04   -0.33496E+01   -0.33379E+01  2880   0.102E+01
DAV:   5    -0.118771279937E+04   -0.57109E-01   -0.56991E-01  2880   0.122E+00
SDA:   6    -0.800522155052E+03    0.38719E+03   -0.56991E-01  2880   0.673E+03 0.000E+00
CGA:   7    -0.925012976801E+03   -0.12449E+03   -0.12425E+03  2880   0.505E+02-0.424E+01
CGA:   8    -0.939903517321E+03   -0.14891E+02   -0.14872E+02  2880   0.126E+02 0.171E+00
CGA:   9    -0.944508840199E+03   -0.46053E+01   -0.45915E+01  2880   0.475E+01 0.689E-01
CGA:  10    -0.946087221150E+03   -0.15784E+01   -0.15865E+01  2880   0.115E+01-0.625E-01
CGA:  11    -0.946512381981E+03   -0.42516E+00   -0.42653E+00  2880   0.266E+00-0.854E-02
CGA:  12    -0.946601573590E+03   -0.89192E-01   -0.88961E-01  2880   0.612E-01 0.199E-02
CGA:  13    -0.946625111408E+03   -0.23538E-01   -0.23774E-01  2880   0.154E-01-0.153E-02
CGA:  14    -0.946631055942E+03   -0.59445E-02   -0.59175E-02  2880   0.378E-02 0.170E-03
CGA:  15    -0.946632547537E+03   -0.14916E-02   -0.14463E-02  2880   0.886E-03 0.343E-03
CGA:  16    -0.946632998313E+03   -0.45078E-03   -0.52680E-03  2880   0.452E-03-0.261E-03
CGA:  17    -0.946633112435E+03   -0.11412E-03   -0.11590E-03  2880   0.122E-03-0.190E-04
CGA:  18    -0.946633141774E+03   -0.29340E-04   -0.29960E-04  2880   0.462E-04 0.356E-04
CGA:  19    -0.946633154568E+03   -0.12793E-04   -0.13698E-04  2880   0.179E-04 0.214E-04
CGA:  20    -0.946633160479E+03   -0.59111E-05   -0.61913E-05  2880   0.724E-05 0.858E-05
   1 F= -.94663316E+03 E0= -.94663316E+03  d E =-.946633E+03  mag=     0.0000
       N       E                     dE             d eps       ncg     rms          ort
SDA:   1    -0.947692340018E+03   -0.10592E+01    0.00000E+00  2880   0.223E-01 0.000E+00
CGA:   2    -0.947700764245E+03   -0.84242E-02   -0.84091E-02  2880   0.641E-02 0.126E-03
CGA:   3    -0.947702521902E+03   -0.17577E-02   -0.17577E-02  2880   0.115E-02-0.945E-04
CGA:   4    -0.947702884654E+03   -0.36275E-03   -0.36296E-03  2880   0.267E-03-0.463E-05
CGA:   5    -0.947702990995E+03   -0.10634E-03   -0.10726E-03  2880   0.847E-04-0.718E-05
CGA:   6    -0.947703020264E+03   -0.29269E-04   -0.29234E-04  2880   0.203E-04 0.449E-06
CGA:   7    -0.947703027077E+03   -0.68130E-05   -0.68084E-05  2880   0.421E-05 0.958E-07
   2 F= -.94770303E+03 E0= -.94770303E+03  d E =-.106987E+01  mag=     0.0000
       N       E                     dE             d eps       ncg     rms          ort
SDA:   1    -0.958328831601E+03   -0.10626E+02    0.00000E+00  2880   0.132E+02 0.000E+00
CGA:   2    -0.961786133501E+03   -0.34573E+01   -0.34884E+01  2880   0.411E+01 0.529E+00
CGA:   3    -0.963165536072E+03   -0.13794E+01   -0.13845E+01  2880   0.671E+00-0.104E+00
CGA:   4    -0.963374759462E+03   -0.20922E+00   -0.20904E+00  2880   0.166E+00 0.300E-02
CGA:   5    -0.963437454740E+03   -0.62695E-01   -0.62536E-01  2880   0.516E-01 0.135E-02
CGA:   6    -0.963457308347E+03   -0.19854E-01   -0.19849E-01  2880   0.134E-01 0.580E-06
CGA:   7    -0.963462137997E+03   -0.48296E-02   -0.48266E-02  2880   0.280E-02 0.506E-04
CGA:   8    -0.963463208179E+03   -0.10702E-02   -0.10716E-02  2880   0.597E-03-0.188E-04
CGA:   9    -0.963463430529E+03   -0.22235E-03   -0.22127E-03  2880   0.112E-03 0.162E-04
CGA:  10    -0.963463479218E+03   -0.48689E-04   -0.48536E-04  2880   0.211E-04 0.135E-05
CGA:  11    -0.963463488113E+03   -0.88956E-05   -0.88150E-05  2880   0.449E-05 0.830E-06
   3 F= -.96346349E+03 E0= -.96346349E+03  d E =-.157605E+02  mag=     0.0000
       N       E                     dE             d eps       ncg     rms          ort
SDA:   1    -0.963102625756E+03    0.36085E+00    0.00000E+00  2880   0.418E+02 0.000E+00
CGA:   2    -0.975378387761E+03   -0.12276E+02   -0.12337E+02  2880   0.133E+02 0.459E+00
CGA:   3    -0.979287224762E+03   -0.39088E+01   -0.38942E+01  2880   0.241E+01-0.118E+00
CGA:   4    -0.980026011595E+03   -0.73879E+00   -0.73898E+00  2880   0.680E+00 0.204E-02
CGA:   5    -0.980273649376E+03   -0.24764E+00   -0.24710E+00  2880   0.228E+00 0.123E-01
CGA:   6    -0.980365441421E+03   -0.91792E-01   -0.91788E-01  2880   0.629E-01 0.463E-04
CGA:   7    -0.980388229586E+03   -0.22788E-01   -0.22779E-01  2880   0.141E-01 0.316E-03
CGA:   8    -0.980393512429E+03   -0.52828E-02   -0.52839E-02  2880   0.297E-02-0.403E-04
CGA:   9    -0.980394664251E+03   -0.11518E-02   -0.11515E-02  2880   0.642E-03 0.520E-05
CGA:  10    -0.980394933319E+03   -0.26907E-03   -0.26820E-03  2880   0.147E-03 0.117E-04
CGA:  11    -0.980395001686E+03   -0.68367E-04   -0.69464E-04  2880   0.397E-04-0.929E-05
CGA:  12    -0.980395016500E+03   -0.14814E-04   -0.14691E-04  2880   0.847E-05 0.297E-05
CGA:  13    -0.980395021278E+03   -0.47777E-05   -0.64697E-05  2880   0.673E-05-0.476E-05
   4 F= -.98039502E+03 E0= -.98039502E+03  d E =-.169315E+02  mag=    -0.0000
       N       E                     dE             d eps       ncg     rms          ort
SDA:   1    -0.972500187716E+03    0.78948E+01    0.00000E+00  2880   0.410E+02 0.000E+00
CGA:   2    -0.986990695642E+03   -0.14491E+02   -0.14473E+02  2880   0.962E+01-0.642E+00
CGA:   3    -0.989455193980E+03   -0.24645E+01   -0.24674E+01  2880   0.181E+01 0.284E-01
CGA:   4    -0.989979255404E+03   -0.52406E+00   -0.52581E+00  2880   0.461E+00 0.110E-01
CGA:   5    -0.990152118650E+03   -0.17286E+00   -0.17270E+00  2880   0.148E+00 0.716E-02
CGA:   6    -0.990208715774E+03   -0.56597E-01   -0.56582E-01  2880   0.428E-01 0.560E-03
CGA:   7    -0.990223944961E+03   -0.15229E-01   -0.15231E-01  2880   0.951E-02 0.233E-03
CGA:   8    -0.990227423714E+03   -0.34788E-02   -0.34792E-02  2880   0.185E-02-0.109E-03
CGA:   9    -0.990228139884E+03   -0.71617E-03   -0.71624E-03  2880   0.378E-03-0.228E-05
CGA:  10    -0.990228292419E+03   -0.15253E-03   -0.15244E-03  2880   0.826E-04 0.223E-05
CGA:  11    -0.990228330277E+03   -0.37858E-04   -0.38463E-04  2880   0.199E-04-0.612E-05
CGA:  12    -0.990228336906E+03   -0.66288E-05   -0.66457E-05  2880   0.393E-05 0.235E-05
   5 F= -.99022834E+03 E0= -.99022834E+03  d E =-.983332E+01  mag=     0.0000
       N       E                     dE             d eps       ncg     rms          ort
SDA:   1    -0.987809704522E+03    0.24186E+01    0.00000E+00  2880   0.105E+02 0.000E+00
CGA:   2    -0.991704923930E+03   -0.38952E+01   -0.38951E+01  2880   0.195E+01-0.427E-01
CGA:   3    -0.992192345796E+03   -0.48742E+00   -0.48935E+00  2880   0.295E+00 0.217E-03
CGA:   4    -0.992275733619E+03   -0.83388E-01   -0.83387E-01  2880   0.585E-01 0.137E-03
CGA:   5    -0.992296285514E+03   -0.20552E-01   -0.20554E-01  2880   0.165E-01 0.834E-04
CGA:   6    -0.992302821045E+03   -0.65355E-02   -0.65334E-02  2880   0.539E-02 0.295E-04
CGA:   7    -0.992304774096E+03   -0.19531E-02   -0.19531E-02  2880   0.123E-02 0.485E-04
CGA:   8    -0.992305229084E+03   -0.45499E-03   -0.45522E-03  2880   0.231E-03-0.440E-04
CGA:   9    -0.992305310822E+03   -0.81738E-04   -0.81734E-04  2880   0.394E-04 0.788E-06
CGA:  10    -0.992305325834E+03   -0.15012E-04   -0.14967E-04  2880   0.797E-05 0.291E-05
CGA:  11    -0.992305329905E+03   -0.40716E-05   -0.66683E-05  2880   0.954E-05-0.625E-05
   6 F= -.99230533E+03 E0= -.99230533E+03  d E =-.207699E+01  mag=     0.0000
       N       E                     dE             d eps       ncg     rms          ort
SDA:   1    -0.989851208886E+03    0.24541E+01    0.00000E+00  2880   0.782E+01 0.000E+00
CGA:   2    -0.992771728192E+03   -0.29205E+01   -0.29204E+01  2880   0.156E+01-0.294E-01
CGA:   3    -0.993152734833E+03   -0.38101E+00   -0.38239E+00  2880   0.223E+00-0.130E-02
CGA:   4    -0.993216122692E+03   -0.63388E-01   -0.63387E-01  2880   0.395E-01 0.132E-03
CGA:   5    -0.993229523744E+03   -0.13401E-01   -0.13403E-01  2880   0.991E-02 0.554E-04
CGA:   6    -0.993233392462E+03   -0.38687E-02   -0.38695E-02  2880   0.335E-02-0.425E-04
CGA:   7    -0.993234627230E+03   -0.12348E-02   -0.12344E-02  2880   0.793E-03 0.596E-04
CGA:   8    -0.993234928777E+03   -0.30155E-03   -0.30176E-03  2880   0.151E-03-0.230E-04
CGA:   9    -0.993234981515E+03   -0.52738E-04   -0.52728E-04  2880   0.258E-04-0.186E-05
CGA:  10    -0.993234990737E+03   -0.92228E-05   -0.92273E-05  2880   0.483E-05 0.192E-05
   7 F= -.99323499E+03 E0= -.99323499E+03  d E =-.929661E+00  mag=    -0.0000
       N       E                     dE             d eps       ncg     rms          ort
SDA:   1    -0.988554313710E+03    0.46807E+01    0.00000E+00  2880   0.122E+02 0.000E+00
CGA:   2    -0.993145163669E+03   -0.45908E+01   -0.45900E+01  2880   0.245E+01-0.290E-01
CGA:   3    -0.993748193751E+03   -0.60303E+00   -0.60545E+00  2880   0.350E+00-0.628E-03
CGA:   4    -0.993843857004E+03   -0.95663E-01   -0.95732E-01  2880   0.572E-01 0.598E-03
CGA:   5    -0.993862610636E+03   -0.18754E-01   -0.18761E-01  2880   0.131E-01 0.123E-03
CGA:   6    -0.993867760178E+03   -0.51495E-02   -0.51514E-02  2880   0.446E-02-0.116E-03
CGA:   7    -0.993869427517E+03   -0.16673E-02   -0.16672E-02  2880   0.112E-02 0.773E-04
CGA:   8    -0.993869861474E+03   -0.43396E-03   -0.43408E-03  2880   0.213E-03-0.241E-04
CGA:   9    -0.993869939260E+03   -0.77786E-04   -0.77764E-04  2880   0.380E-04-0.656E-05
CGA:  10    -0.993869953818E+03   -0.14558E-04   -0.14578E-04  2880   0.784E-05-0.958E-06
CGA:  11    -0.993869957775E+03   -0.39566E-05   -0.45066E-05  2880   0.376E-05-0.258E-05
   8 F= -.99386996E+03 E0= -.99386996E+03  d E =-.634967E+00  mag=     0.0000
       N       E                     dE             d eps       ncg     rms          ort
SDA:   1    -0.984955668088E+03    0.89143E+01    0.00000E+00  2880   0.222E+02 0.000E+00
CGA:   2    -0.993031858908E+03   -0.80762E+01   -0.80759E+01  2880   0.432E+01-0.135E-01
CGA:   3    -0.994140568743E+03   -0.11087E+01   -0.11122E+01  2880   0.642E+00 0.416E-02
CGA:   4    -0.994309611276E+03   -0.16904E+00   -0.16912E+00  2880   0.103E+00 0.936E-03
CGA:   5    -0.994343606420E+03   -0.33995E-01   -0.34010E-01  2880   0.232E-01 0.250E-03
CGA:   6    -0.994353166664E+03   -0.95602E-02   -0.95617E-02  2880   0.793E-02-0.543E-04
CGA:   7    -0.994356226325E+03   -0.30597E-02   -0.30596E-02  2880   0.214E-02 0.139E-05
CGA:   8    -0.994357019198E+03   -0.79287E-03   -0.79286E-03  2880   0.389E-03-0.356E-04
CGA:   9    -0.994357162204E+03   -0.14301E-03   -0.14303E-03  2880   0.679E-04-0.689E-05
CGA:  10    -0.994357190749E+03   -0.28545E-04   -0.29023E-04  2880   0.176E-04-0.741E-05
CGA:  11    -0.994357196982E+03   -0.62337E-05   -0.62218E-05  2880   0.353E-05 0.535E-06
   9 F= -.99435720E+03 E0= -.99435720E+03  d E =-.487239E+00  mag=     0.0000
       N       E                     dE             d eps       ncg     rms          ort
SDA:   1    -0.970622668326E+03    0.23735E+02    0.00000E+00  2880   0.577E+02 0.000E+00
CGA:   2    -0.990733375794E+03   -0.20111E+02   -0.20114E+02  2880   0.116E+02-0.995E-01
CGA:   3    -0.993913111814E+03   -0.31797E+01   -0.31919E+01  2880   0.186E+01 0.474E-01
CGA:   4    -0.994425291619E+03   -0.51218E+00   -0.51385E+00  2880   0.381E+00 0.949E-02
CGA:   5    -0.994558146841E+03   -0.13286E+00   -0.13297E+00  2880   0.106E+00 0.338E-02
CGA:   6    -0.994603015236E+03   -0.44868E-01   -0.44812E-01  2880   0.342E-01 0.682E-03
CGA:   7    -0.994616022397E+03   -0.13007E-01   -0.13006E-01  2880   0.823E-02 0.306E-04
CGA:   8    -0.994618940168E+03   -0.29178E-02   -0.29172E-02  2880   0.140E-02-0.435E-04
CGA:   9    -0.994619457952E+03   -0.51778E-03   -0.51783E-03  2880   0.273E-03-0.100E-04
CGA:  10    -0.994619572310E+03   -0.11436E-03   -0.11520E-03  2880   0.693E-04-0.148E-04
CGA:  11    -0.994619599079E+03   -0.26769E-04   -0.26709E-04  2880   0.141E-04 0.163E-05
CGA:  12    -0.994619604798E+03   -0.57186E-05   -0.56900E-05  2880   0.270E-05 0.130E-05
  10 F= -.99461960E+03 E0= -.99461960E+03  d E =-.262408E+00  mag=     0.0000
       N       E                     dE             d eps       ncg     rms          ort
SDA:   1    -0.993583515235E+03    0.10361E+01    0.00000E+00  2880   0.273E+01 0.000E+00
CGA:   2    -0.994548992266E+03   -0.96548E+00   -0.96542E+00  2880   0.650E+00-0.138E-02
CGA:   3    -0.994716045332E+03   -0.16705E+00   -0.16711E+00  2880   0.991E-01 0.401E-04
CGA:   4    -0.994745897102E+03   -0.29852E-01   -0.29850E-01  2880   0.165E-01-0.135E-04
CGA:   5    -0.994751479736E+03   -0.55826E-02   -0.55833E-02  2880   0.447E-02 0.205E-04
CGA:   6    -0.994753182004E+03   -0.17023E-02   -0.17023E-02  2880   0.134E-02-0.121E-06
CGA:   7    -0.994753700356E+03   -0.51835E-03   -0.51839E-03  2880   0.342E-03-0.207E-05
CGA:   8    -0.994753826711E+03   -0.12635E-03   -0.12636E-03  2880   0.665E-04-0.548E-05
CGA:   9    -0.994753849966E+03   -0.23255E-04   -0.23259E-04  2880   0.128E-04 0.258E-06
CGA:  10    -0.994753855041E+03   -0.50749E-05   -0.50793E-05  2880   0.248E-05-0.165E-06
  11 F= -.99475386E+03 E0= -.99475386E+03  d E =-.134250E+00  mag=    -0.0000
       N       E                     dE             d eps       ncg     rms          ort
SDA:   1    -0.994742985800E+03    0.10864E-01    0.00000E+00  2880   0.580E-01 0.000E+00
CGA:   2    -0.994764398093E+03   -0.21412E-01   -0.21412E-01  2880   0.123E-01-0.162E-05
CGA:   3    -0.994767515687E+03   -0.31176E-02   -0.31212E-02  2880   0.180E-02 0.303E-04
CGA:   4    -0.994768020979E+03   -0.50529E-03   -0.50403E-03  2880   0.293E-03-0.145E-04
CGA:   5    -0.994768116743E+03   -0.95764E-04   -0.95563E-04  2880   0.683E-04-0.586E-05
CGA:   6    -0.994768139021E+03   -0.22278E-04   -0.22474E-04  2880   0.180E-04 0.785E-05
CGA:   7    -0.994768148593E+03   -0.95724E-05   -0.10174E-04  2880   0.939E-05-0.412E-05
  12 F= -.99476815E+03 E0= -.99476815E+03  d E =-.142936E-01  mag=     0.0000
       N       E                     dE             d eps       ncg     rms          ort
SDA:   1    -0.994546074576E+03    0.22206E+00    0.00000E+00  2880   0.608E+00 0.000E+00
CGA:   2    -0.994772878887E+03   -0.22680E+00   -0.22680E+00  2880   0.120E+00 0.200E-04
CGA:   3    -0.994803713833E+03   -0.30835E-01   -0.30840E-01  2880   0.169E-01 0.686E-04
CGA:   4    -0.994808108556E+03   -0.43947E-02   -0.43891E-02  2880   0.264E-02-0.567E-04
CGA:   5    -0.994808935095E+03   -0.82654E-03   -0.82616E-03  2880   0.511E-03-0.938E-05
CGA:   6    -0.994809125466E+03   -0.19037E-03   -0.18990E-03  2880   0.156E-03 0.225E-04
CGA:   7    -0.994809198505E+03   -0.73039E-04   -0.75080E-04  2880   0.613E-04-0.188E-04
CGA:   8    -0.994809215012E+03   -0.16507E-04   -0.16723E-04  2880   0.988E-05 0.452E-05
CGA:   9    -0.994809218497E+03   -0.34855E-05   -0.34985E-05  2880   0.206E-05 0.508E-06
  13 F= -.99480922E+03 E0= -.99480922E+03  d E =-.410699E-01  mag=    -0.0000
       N       E                     dE             d eps       ncg     rms          ort
SDA:   1    -0.994787554013E+03    0.21661E-01    0.00000E+00  2880   0.854E-01 0.000E+00
CGA:   2    -0.994819193973E+03   -0.31640E-01   -0.31640E-01  2880   0.166E-01 0.943E-05
CGA:   3    -0.994823531708E+03   -0.43377E-02   -0.43388E-02  2880   0.225E-02 0.996E-05
CGA:   4    -0.994824106642E+03   -0.57493E-03   -0.57393E-03  2880   0.360E-03-0.807E-05
CGA:   5    -0.994824216009E+03   -0.10937E-03   -0.10940E-03  2880   0.648E-04 0.473E-06
CGA:   6    -0.994824240022E+03   -0.24014E-04   -0.24015E-04  2880   0.197E-04 0.274E-05
CGA:   7    -0.994824249705E+03   -0.96831E-05   -0.10124E-04  2880   0.895E-05-0.360E-05
  14 F= -.99482425E+03 E0= -.99482425E+03  d E =-.150312E-01  mag=     0.0000
       N       E                     dE             d eps       ncg     rms          ort
SDA:   1    -0.991051949759E+03    0.37723E+01    0.00000E+00  2880   0.910E+01 0.000E+00
CGA:   2    -0.994416134739E+03   -0.33642E+01   -0.33642E+01  2880   0.177E+01 0.330E-02
CGA:   3    -0.994877314353E+03   -0.46118E+00   -0.46117E+00  2880   0.240E+00 0.225E-04
CGA:   4    -0.994938571849E+03   -0.61257E-01   -0.61269E-01  2880   0.383E-01 0.805E-04
CGA:   5    -0.994950597847E+03   -0.12026E-01   -0.12029E-01  2880   0.739E-02 0.514E-04
CGA:   6    -0.994953514204E+03   -0.29164E-02   -0.29160E-02  2880   0.250E-02 0.970E-05
CGA:   7    -0.994954550564E+03   -0.10364E-02   -0.10387E-02  2880   0.731E-03-0.424E-04
CGA:   8    -0.994954808268E+03   -0.25770E-03   -0.25774E-03  2880   0.123E-03 0.101E-04
CGA:   9    -0.994954857284E+03   -0.49016E-04   -0.49343E-04  2880   0.232E-04-0.101E-04
CGA:  10    -0.994954865198E+03   -0.79143E-05   -0.79199E-05  2880   0.424E-05-0.760E-06
  15 F= -.99495487E+03 E0= -.99495487E+03  d E =-.130615E+00  mag=    -0.0000
       N       E                     dE             d eps       ncg     rms          ort
SDA:   1    -0.985028732832E+03    0.99261E+01    0.00000E+00  2880   0.240E+02 0.000E+00
CGA:   2    -0.993519139794E+03   -0.84904E+01   -0.84911E+01  2880   0.465E+01 0.160E-01
CGA:   3    -0.994788687168E+03   -0.12695E+01   -0.12709E+01  2880   0.635E+00 0.532E-02
CGA:   4    -0.994956388364E+03   -0.16770E+00   -0.16788E+00  2880   0.112E+00 0.122E-02
CGA:   5    -0.994993462798E+03   -0.37074E-01   -0.37088E-01  2880   0.257E-01 0.359E-03
CGA:   6    -0.995004195391E+03   -0.10733E-01   -0.10732E-01  2880   0.861E-02-0.192E-04
CGA:   7    -0.995007638198E+03   -0.34428E-02   -0.34451E-02  2880   0.226E-02-0.591E-04
CGA:   8    -0.995008416344E+03   -0.77815E-03   -0.77849E-03  2880   0.366E-03 0.269E-04
CGA:   9    -0.995008559184E+03   -0.14284E-03   -0.14317E-03  2880   0.705E-04-0.120E-04
CGA:  10    -0.995008588308E+03   -0.29125E-04   -0.29895E-04  2880   0.190E-04-0.986E-05
CGA:  11    -0.995008594102E+03   -0.57932E-05   -0.58111E-05  2880   0.364E-05 0.186E-05
  16 F= -.99500859E+03 E0= -.99500859E+03  d E =-.537289E-01  mag=     0.0000
       N       E                     dE             d eps       ncg     rms          ort
SDA:   1    -0.994905522966E+03    0.10307E+00    0.00000E+00  2880   0.380E+00 0.000E+00
CGA:   2    -0.995040324621E+03   -0.13480E+00   -0.13480E+00  2880   0.916E-01-0.341E-04
CGA:   3    -0.995063862047E+03   -0.23537E-01   -0.23538E-01  2880   0.139E-01-0.328E-04
CGA:   4    -0.995068100291E+03   -0.42382E-02   -0.42354E-02  2880   0.237E-02-0.506E-04
CGA:   5    -0.995068887757E+03   -0.78747E-03   -0.78774E-03  2880   0.632E-03 0.119E-04
CGA:   6    -0.995069130293E+03   -0.24254E-03   -0.24249E-03  2880   0.186E-03 0.173E-05
CGA:   7    -0.995069204220E+03   -0.73927E-04   -0.74130E-04  2880   0.493E-04-0.502E-05
CGA:   8    -0.995069221584E+03   -0.17364E-04   -0.17366E-04  2880   0.908E-05-0.462E-06
CGA:   9    -0.995069225180E+03   -0.35962E-05   -0.36464E-05  2880   0.234E-05-0.108E-05
  17 F= -.99506923E+03 E0= -.99506923E+03  d E =-.606311E-01  mag=    -0.0000
       N       E                     dE             d eps       ncg     rms          ort
SDA:   1    -0.995068780287E+03    0.44130E-03    0.00000E+00  2880   0.217E-01 0.000E+00
CGA:   2    -0.995076587611E+03   -0.78073E-02   -0.78073E-02  2880   0.510E-02 0.439E-04
CGA:   3    -0.995077899852E+03   -0.13122E-02   -0.13115E-02  2880   0.776E-03-0.794E-05
CGA:   4    -0.995078135262E+03   -0.23541E-03   -0.23439E-03  2880   0.134E-03-0.196E-04
CGA:   5    -0.995078177120E+03   -0.41858E-04   -0.41932E-04  2880   0.328E-04 0.242E-05
CGA:   6    -0.995078189189E+03   -0.12068E-04   -0.12045E-04  2880   0.899E-05 0.238E-05
CGA:   7    -0.995078193819E+03   -0.46304E-05   -0.53563E-05  2880   0.597E-05-0.355E-05
  18 F= -.99507819E+03 E0= -.99507819E+03  d E =-.896864E-02  mag=    -0.0000
       N       E                     dE             d eps       ncg     rms          ort
SDA:   1    -0.994868680103E+03    0.20951E+00    0.00000E+00  2880   0.538E+00 0.000E+00
CGA:   2    -0.995066113545E+03   -0.19743E+00   -0.19743E+00  2880   0.119E+00 0.181E-03
CGA:   3    -0.995096497604E+03   -0.30384E-01   -0.30381E-01  2880   0.178E-01-0.370E-04
CGA:   4    -0.995101516603E+03   -0.50190E-02   -0.50106E-02  2880   0.286E-02-0.120E-03
CGA:   5    -0.995102451581E+03   -0.93498E-03   -0.93513E-03  2880   0.698E-03 0.821E-05
CGA:   6    -0.995102715691E+03   -0.26411E-03   -0.26350E-03  2880   0.207E-03 0.204E-04
CGA:   7    -0.995102806620E+03   -0.90930E-04   -0.92914E-04  2880   0.721E-04-0.225E-04
CGA:   8    -0.995102827529E+03   -0.20908E-04   -0.20954E-04  2880   0.115E-04 0.177E-05
CGA:   9    -0.995102831476E+03   -0.39474E-05   -0.39586E-05  2880   0.225E-05 0.826E-06
  19 F= -.99510283E+03 E0= -.99510283E+03  d E =-.246377E-01  mag=     0.0000
       N       E                     dE             d eps       ncg     rms          ort
SDA:   1    -0.995087855939E+03    0.14972E-01    0.00000E+00  2880   0.520E-01 0.000E+00
CGA:   2    -0.995107516275E+03   -0.19660E-01   -0.19660E-01  2880   0.103E-01 0.257E-04
CGA:   3    -0.995110119522E+03   -0.26032E-02   -0.26040E-02  2880   0.149E-02 0.734E-05
CGA:   4    -0.995110518266E+03   -0.39874E-03   -0.39659E-03  2880   0.239E-03-0.220E-04
CGA:   5    -0.995110590493E+03   -0.72226E-04   -0.72262E-04  2880   0.459E-04 0.683E-06
CGA:   6    -0.995110606132E+03   -0.15640E-04   -0.15733E-04  2880   0.128E-04 0.593E-05
CGA:   7    -0.995110613235E+03   -0.71026E-05   -0.97838E-05  2880   0.153E-04-0.833E-05
  20 F= -.99511061E+03 E0= -.99511061E+03  d E =-.778176E-02  mag=     0.0000
       N       E                     dE             d eps       ncg     rms          ort
SDA:   1    -0.994845588113E+03    0.26502E+00    0.00000E+00  2880   0.663E+00 0.000E+00
CGA:   2    -0.995096247037E+03   -0.25066E+00   -0.25066E+00  2880   0.128E+00 0.134E-03
CGA:   3    -0.995128981032E+03   -0.32734E-01   -0.32727E-01  2880   0.180E-01-0.316E-04
CGA:   4    -0.995133648920E+03   -0.46679E-02   -0.46628E-02  2880   0.283E-02-0.534E-04
CGA:   5    -0.995134518846E+03   -0.86993E-03   -0.87049E-03  2880   0.526E-03 0.125E-04
CGA:   6    -0.995134722105E+03   -0.20326E-03   -0.20281E-03  2880   0.170E-03 0.141E-04
CGA:   7    -0.995134799766E+03   -0.77661E-04   -0.80011E-04  2880   0.664E-04-0.221E-04
CGA:   8    -0.995134815828E+03   -0.16062E-04   -0.16642E-04  2880   0.111E-04 0.830E-05
CGA:   9    -0.995134819377E+03   -0.35492E-05   -0.36400E-05  2880   0.249E-05 0.146E-05
  21 F= -.99513482E+03 E0= -.99513482E+03  d E =-.242061E-01  mag=    -0.0000
       N       E                     dE             d eps       ncg     rms          ort
SDA:   1    -0.994745441672E+03    0.38937E+00    0.00000E+00  2880   0.963E+00 0.000E+00
CGA:   2    -0.995104662201E+03   -0.35922E+00   -0.35922E+00  2880   0.186E+00 0.805E-04
CGA:   3    -0.995152815420E+03   -0.48153E-01   -0.48135E-01  2880   0.252E-01-0.105E-03
CGA:   4    -0.995159256160E+03   -0.64407E-02   -0.64393E-02  2880   0.398E-02-0.131E-04
CGA:   5    -0.995160468133E+03   -0.12120E-02   -0.12138E-02  2880   0.710E-03 0.247E-04
CGA:   6    -0.995160746772E+03   -0.27864E-03   -0.27861E-03  2880   0.239E-03 0.234E-05
CGA:   7    -0.995160850006E+03   -0.10323E-03   -0.10420E-03  2880   0.799E-04-0.168E-04
CGA:   8    -0.995160872585E+03   -0.22579E-04   -0.23177E-04  2880   0.126E-04 0.874E-05
CGA:   9    -0.995160877612E+03   -0.50270E-05   -0.50296E-05  2880   0.265E-05 0.157E-06
  22 F= -.99516088E+03 E0= -.99516088E+03  d E =-.260582E-01  mag=    -0.0000
       N       E                     dE             d eps       ncg     rms          ort
SDA:   1    -0.987278113799E+03    0.78828E+01    0.00000E+00  2880   0.185E+02 0.000E+00
CGA:   2    -0.993838543298E+03   -0.65604E+01   -0.65615E+01  2880   0.379E+01 0.907E-02
CGA:   3    -0.994841394536E+03   -0.10029E+01   -0.10036E+01  2880   0.533E+00 0.212E-02
CGA:   4    -0.994984596994E+03   -0.14320E+00   -0.14330E+00  2880   0.891E-01 0.669E-03
CGA:   5    -0.995013812925E+03   -0.29216E-01   -0.29233E-01  2880   0.197E-01 0.249E-03
CGA:   6    -0.995021740816E+03   -0.79279E-02   -0.79296E-02  2880   0.668E-02-0.841E-04
CGA:   7    -0.995024354321E+03   -0.26135E-02   -0.26140E-02  2880   0.183E-02-0.382E-04
CGA:   8    -0.995025002963E+03   -0.64864E-03   -0.64908E-03  2880   0.317E-03 0.178E-04
CGA:   9    -0.995025122980E+03   -0.12002E-03   -0.12001E-03  2880   0.589E-04-0.164E-05
CGA:  10    -0.995025148844E+03   -0.25864E-04   -0.26827E-04  2880   0.179E-04-0.123E-04
CGA:  11    -0.995025153100E+03   -0.42557E-05   -0.44328E-05  2880   0.360E-05 0.248E-05
  23 F= -.99502515E+03 E0= -.99502515E+03  d E =0.135725E+00  mag=    -0.0000
       N       E                     dE             d eps       ncg     rms          ort
SDA:   1    -0.993587592171E+03    0.14376E+01    0.00000E+00  2880   0.381E+01 0.000E+00
CGA:   2    -0.994947557475E+03   -0.13600E+01   -0.13600E+01  2880   0.938E+00-0.301E-03
CGA:   3    -0.995185643715E+03   -0.23809E+00   -0.23813E+00  2880   0.141E+00 0.437E-04
CGA:   4    -0.995229550398E+03   -0.43907E-01   -0.43912E-01  2880   0.245E-01 0.992E-04
CGA:   5    -0.995237741470E+03   -0.81911E-02   -0.81911E-02  2880   0.670E-02-0.426E-06
CGA:   6    -0.995240285532E+03   -0.25441E-02   -0.25439E-02  2880   0.197E-02 0.800E-05
CGA:   7    -0.995241038767E+03   -0.75324E-03   -0.75319E-03  2880   0.494E-03 0.238E-05
CGA:   8    -0.995241222535E+03   -0.18377E-03   -0.18384E-03  2880   0.100E-03-0.890E-05
CGA:   9    -0.995241256302E+03   -0.33766E-04   -0.33826E-04  2880   0.191E-04 0.276E-05
CGA:  10    -0.995241264482E+03   -0.81802E-05   -0.82465E-05  2880   0.428E-05-0.119E-05
  24 F= -.99524126E+03 E0= -.99524126E+03  d E =-.216111E+00  mag=     0.0000
       N       E                     dE             d eps       ncg     rms          ort
SDA:   1    -0.995235609441E+03    0.56469E-02    0.00000E+00  2880   0.215E-01 0.000E+00
CGA:   2    -0.995243338285E+03   -0.77288E-02   -0.77293E-02  2880   0.479E-02 0.570E-04
CGA:   3    -0.995244587782E+03   -0.12495E-02   -0.12517E-02  2880   0.705E-03 0.214E-04
CGA:   4    -0.995244813742E+03   -0.22596E-03   -0.22256E-03  2880   0.142E-03-0.723E-04
CGA:   5    -0.995244850347E+03   -0.36605E-04   -0.36977E-04  2880   0.283E-04 0.542E-05
CGA:   6    -0.995244856555E+03   -0.62087E-05   -0.73021E-05  2880   0.800E-05 0.102E-04
  25 F= -.99524486E+03 E0= -.99524486E+03  d E =-.359207E-02  mag=    -0.0000
       N       E                     dE             d eps       ncg     rms          ort
SDA:   1    -0.995079028086E+03    0.16582E+00    0.00000E+00  2880   0.415E+00 0.000E+00
CGA:   2    -0.995230170937E+03   -0.15114E+00   -0.15114E+00  2880   0.874E-01 0.527E-03
CGA:   3    -0.995253426853E+03   -0.23256E-01   -0.23250E-01  2880   0.128E-01 0.638E-07
CGA:   4    -0.995256984858E+03   -0.35580E-02   -0.35361E-02  2880   0.210E-02-0.301E-03
CGA:   5    -0.995257632002E+03   -0.64714E-03   -0.64779E-03  2880   0.471E-03 0.211E-04
CGA:   6    -0.995257801058E+03   -0.16906E-03   -0.16858E-03  2880   0.133E-03 0.479E-04
CGA:   7    -0.995257873736E+03   -0.72678E-04   -0.91351E-04  2880   0.120E-03-0.672E-04
CGA:   8    -0.995257891866E+03   -0.18130E-04   -0.22591E-04  2880   0.114E-04 0.260E-04
CGA:   9    -0.995257894552E+03   -0.26859E-05   -0.31288E-05  2880   0.295E-05 0.354E-05
  26 F= -.99525789E+03 E0= -.99525789E+03  d E =-.130380E-01  mag=    -0.0000
       N       E                     dE             d eps       ncg     rms          ort
SDA:   1    -0.995244264154E+03    0.13628E-01    0.00000E+00  2880   0.287E-01 0.000E+00
CGA:   2    -0.995254542470E+03   -0.10278E-01   -0.10280E-01  2880   0.626E-02-0.107E-03
CGA:   3    -0.995256229031E+03   -0.16866E-02   -0.16847E-02  2880   0.940E-03-0.263E-04
CGA:   4    -0.995256455785E+03   -0.22675E-03   -0.23452E-03  2880   0.127E-03 0.857E-04
CGA:   5    -0.995256500742E+03   -0.44957E-04   -0.45078E-04  2880   0.340E-04 0.988E-05
CGA:   6    -0.995256512916E+03   -0.12174E-04   -0.29264E-04  2880   0.769E-04-0.370E-04
CGA:   7    -0.995256520994E+03   -0.80779E-05   -0.12597E-04  2880   0.107E-04 0.231E-04
  27 F= -.99525652E+03 E0= -.99525652E+03  d E =0.137356E-02  mag=     0.0000
       N       E                     dE             d eps       ncg     rms          ort
SDA:   1    -0.995253759977E+03    0.27529E-02    0.00000E+00  2880   0.113E-01 0.000E+00
CGA:   2    -0.995257984738E+03   -0.42248E-02   -0.42231E-02  2880   0.223E-02 0.460E-04
CGA:   3    -0.995258567693E+03   -0.58296E-03   -0.58254E-03  2880   0.317E-03-0.499E-05
CGA:   4    -0.995258659819E+03   -0.92126E-04   -0.90474E-04  2880   0.610E-04-0.326E-04
CGA:   5    -0.995258673718E+03   -0.13899E-04   -0.14281E-04  2880   0.936E-05 0.521E-05
CGA:   6    -0.995258675667E+03   -0.19488E-05   -0.23431E-05  2880   0.314E-05 0.395E-05
  28 F= -.99525868E+03 E0= -.99525868E+03  d E =-.215467E-02  mag=    -0.0000
       N       E                     dE             d eps       ncg     rms          ort
SDA:   1    -0.995243355683E+03    0.15318E-01    0.00000E+00  2880   0.454E-01 0.000E+00
CGA:   2    -0.995260409891E+03   -0.17054E-01   -0.17051E-01  2880   0.880E-02 0.715E-04
CGA:   3    -0.995262683714E+03   -0.22738E-02   -0.22716E-02  2880   0.120E-02-0.281E-04
CGA:   4    -0.995263004852E+03   -0.32114E-03   -0.31911E-03  2880   0.200E-03-0.316E-04
CGA:   5    -0.995263060659E+03   -0.55807E-04   -0.56118E-04  2880   0.333E-04 0.803E-05
CGA:   6    -0.995263072906E+03   -0.12247E-04   -0.12140E-04  2880   0.101E-04 0.419E-05
CGA:   7    -0.995263067489E+03    0.54171E-05   -0.14055E-04  2880   0.625E-04-0.214E-04
CGA:   8    -0.995263077316E+03   -0.98264E-05   -0.12125E-04  2880   0.666E-05 0.129E-04
  29 F= -.99526308E+03 E0= -.99526308E+03  d E =-.440165E-02  mag=    -0.0000
       N       E                     dE             d eps       ncg     rms          ort
SDA:   1    -0.995151937158E+03    0.11113E+00    0.00000E+00  2880   0.281E+00 0.000E+00
CGA:   2    -0.995257179784E+03   -0.10524E+00   -0.10524E+00  2880   0.550E-01 0.712E-04
CGA:   3    -0.995271265333E+03   -0.14086E-01   -0.14077E-01  2880   0.749E-02-0.802E-04
CGA:   4    -0.995273189583E+03   -0.19242E-02   -0.19223E-02  2880   0.117E-02-0.204E-04
CGA:   5    -0.995273540460E+03   -0.35088E-03   -0.35167E-03  2880   0.204E-03 0.168E-04
CGA:   6    -0.995273621313E+03   -0.80853E-04   -0.80840E-04  2880   0.693E-04 0.305E-06
CGA:   7    -0.995273652773E+03   -0.31460E-04   -0.33020E-04  2880   0.291E-04-0.123E-04
CGA:   8    -0.995273658366E+03   -0.55933E-05   -0.61202E-05  2880   0.574E-05 0.530E-05
  30 F= -.99527366E+03 E0= -.99527366E+03  d E =-.105811E-01  mag=    -0.0000
       N       E                     dE             d eps       ncg     rms          ort
SDA:   1    -0.991174441805E+03    0.40992E+01    0.00000E+00  2880   0.968E+01 0.000E+00
CGA:   2    -0.994750076142E+03   -0.35756E+01   -0.35754E+01  2880   0.189E+01 0.558E-02
CGA:   3    -0.995238119905E+03   -0.48804E+00   -0.48801E+00  2880   0.257E+00-0.712E-04
CGA:   4    -0.995304247705E+03   -0.66128E-01   -0.66143E-01  2880   0.416E-01 0.981E-04
CGA:   5    -0.995317151955E+03   -0.12904E-01   -0.12908E-01  2880   0.796E-02 0.135E-03
CGA:   6    -0.995320353360E+03   -0.32014E-02   -0.32027E-02  2880   0.280E-02-0.203E-04
CGA:   7    -0.995321507837E+03   -0.11545E-02   -0.11603E-02  2880   0.843E-03-0.770E-04
CGA:   8    -0.995321792637E+03   -0.28480E-03   -0.28467E-03  2880   0.138E-03 0.269E-04
CGA:   9    -0.995321848439E+03   -0.55802E-04   -0.56459E-04  2880   0.272E-04-0.119E-04
CGA:  10    -0.995321858607E+03   -0.10168E-04   -0.10601E-04  2880   0.701E-05-0.528E-05
CGA:  11    -0.995321860118E+03   -0.15111E-05   -0.16118E-05  2880   0.161E-05 0.157E-05
  31 F= -.99532186E+03 E0= -.99532186E+03  d E =-.482018E-01  mag=     0.0000
       N       E                     dE             d eps       ncg     rms          ort
SDA:   1    -0.993756682006E+03    0.15652E+01    0.00000E+00  2880   0.379E+01 0.000E+00
CGA:   2    -0.995058635784E+03   -0.13020E+01   -0.13020E+01  2880   0.756E+00-0.306E-02
CGA:   3    -0.995265590365E+03   -0.20695E+00   -0.20703E+00  2880   0.115E+00-0.202E-03
CGA:   4    -0.995296403611E+03   -0.30813E-01   -0.30844E-01  2880   0.170E-01 0.473E-03
CGA:   5    -0.995301992383E+03   -0.55888E-02   -0.55893E-02  2880   0.384E-02 0.771E-04
CGA:   6    -0.995303611758E+03   -0.16194E-02   -0.16280E-02  2880   0.131E-02-0.975E-04
CGA:   7    -0.995304101122E+03   -0.48936E-03   -0.48797E-03  2880   0.335E-03 0.333E-04
CGA:   8    -0.995304225212E+03   -0.12409E-03   -0.12393E-03  2880   0.569E-04 0.830E-05
CGA:   9    -0.995304247303E+03   -0.22091E-04   -0.22134E-04  2880   0.105E-04-0.112E-05
CGA:  10    -0.995304251773E+03   -0.44699E-05   -0.48465E-05  2880   0.352E-05-0.291E-05
  32 F= -.99530425E+03 E0= -.99530425E+03  d E =0.176083E-01  mag=     0.0000
       N       E                     dE             d eps       ncg     rms          ort
SDA:   1    -0.994873851420E+03    0.43040E+00    0.00000E+00  2880   0.106E+01 0.000E+00
CGA:   2    -0.995248120913E+03   -0.37427E+00   -0.37427E+00  2880   0.244E+00 0.345E-03
CGA:   3    -0.995311582209E+03   -0.63461E-01   -0.63462E-01  2880   0.378E-01 0.881E-04
CGA:   4    -0.995322981603E+03   -0.11399E-01   -0.11389E-01  2880   0.610E-02-0.235E-03
CGA:   5    -0.995325055308E+03   -0.20737E-02   -0.20737E-02  2880   0.166E-02-0.220E-04
CGA:   6    -0.995325670082E+03   -0.61477E-03   -0.61307E-03  2880   0.472E-03 0.596E-04
CGA:   7    -0.995325877402E+03   -0.20732E-03   -0.21039E-03  2880   0.148E-03-0.353E-04
CGA:   8    -0.995325924965E+03   -0.47563E-04   -0.47564E-04  2880   0.248E-04-0.170E-05
CGA:   9    -0.995325932767E+03   -0.78018E-05   -0.78608E-05  2880   0.435E-05 0.222E-05
  33 F= -.99532593E+03 E0= -.99532593E+03  d E =-.216810E-01  mag=     0.0000
       N       E                     dE             d eps       ncg     rms          ort
SDA:   1    -0.995283910032E+03    0.42015E-01    0.00000E+00  2880   0.969E-01 0.000E+00
CGA:   2    -0.995318575742E+03   -0.34666E-01   -0.34665E-01  2880   0.202E-01 0.144E-03
CGA:   3    -0.995323966421E+03   -0.53907E-02   -0.53916E-02  2880   0.315E-02 0.158E-04
CGA:   4    -0.995324891942E+03   -0.92552E-03   -0.91827E-03  2880   0.524E-03-0.121E-03
CGA:   5    -0.995325051606E+03   -0.15966E-03   -0.15986E-03  2880   0.122E-03 0.647E-05
CGA:   6    -0.995325094045E+03   -0.42440E-04   -0.42505E-04  2880   0.328E-04 0.175E-04
CGA:   7    -0.995325112466E+03   -0.18421E-04   -0.25731E-04  2880   0.388E-04-0.216E-04
CGA:   8    -0.995325118522E+03   -0.60557E-05   -0.74306E-05  2880   0.346E-05 0.799E-05
  34 F= -.99532512E+03 E0= -.99532512E+03  d E =0.814245E-03  mag=    -0.0000
       N       E                     dE             d eps       ncg     rms          ort
SDA:   1    -0.995210419709E+03    0.11469E+00    0.00000E+00  2880   0.281E+00 0.000E+00
CGA:   2    -0.995313632401E+03   -0.10321E+00   -0.10321E+00  2880   0.614E-01 0.311E-03
CGA:   3    -0.995329584312E+03   -0.15952E-01   -0.15946E-01  2880   0.928E-02-0.380E-04
CGA:   4    -0.995332174911E+03   -0.25906E-02   -0.25811E-02  2880   0.150E-02-0.143E-03
CGA:   5    -0.995332647951E+03   -0.47304E-03   -0.47323E-03  2880   0.343E-03 0.940E-05
CGA:   6    -0.995332774032E+03   -0.12608E-03   -0.12552E-03  2880   0.971E-04 0.249E-04
CGA:   7    -0.995332823368E+03   -0.49336E-04   -0.54574E-04  2880   0.559E-04-0.288E-04
CGA:   8    -0.995332833243E+03   -0.98752E-05   -0.10230E-04  2880   0.131E-04 0.390E-05
  35 F= -.99533283E+03 E0= -.99533283E+03  d E =-.771472E-02  mag=    -0.0000
       N       E                     dE             d eps       ncg     rms          ort
SDA:   1    -0.995231802817E+03    0.10102E+00    0.00000E+00  2880   0.237E+00 0.000E+00
CGA:   2    -0.995318152497E+03   -0.86350E-01   -0.86360E-01  2880   0.485E-01-0.355E-03
CGA:   3    -0.995331036478E+03   -0.12884E-01   -0.12884E-01  2880   0.742E-02-0.304E-04
CGA:   4    -0.995333008237E+03   -0.19718E-02   -0.19834E-02  2880   0.107E-02 0.170E-03
CGA:   5    -0.995333370370E+03   -0.36213E-03   -0.36214E-03  2880   0.270E-03 0.241E-05
CGA:   6    -0.995333487251E+03   -0.11688E-03   -0.12080E-03  2880   0.114E-03-0.344E-04
CGA:   7    -0.995333513444E+03   -0.26193E-04   -0.27559E-04  2880   0.262E-04 0.221E-04
CGA:   8    -0.995333520858E+03   -0.74141E-05   -0.80281E-05  2880   0.704E-05 0.775E-05
  36 F= -.99533352E+03 E0= -.99533352E+03  d E =-.687615E-03  mag=     0.0000
       N       E                     dE             d eps       ncg     rms          ort
SDA:   1    -0.995332321013E+03    0.11924E-02    0.00000E+00  2880   0.504E-02 0.000E+00
CGA:   2    -0.995334150595E+03   -0.18296E-02   -0.18289E-02  2880   0.115E-02 0.282E-04
CGA:   3    -0.995334447311E+03   -0.29672E-03   -0.29577E-03  2880   0.175E-03-0.111E-04
CGA:   4    -0.995334497928E+03   -0.50617E-04   -0.50100E-04  2880   0.323E-04-0.107E-04
CGA:   5    -0.995334506654E+03   -0.87268E-05   -0.87905E-05  2880   0.605E-05 0.144E-05
  37 F= -.99533451E+03 E0= -.99533451E+03  d E =-.985796E-03  mag=    -0.0000
       N       E                     dE             d eps       ncg     rms          ort
SDA:   1    -0.995304269624E+03    0.30228E-01    0.00000E+00  2880   0.798E-01 0.000E+00
CGA:   2    -0.995334343792E+03   -0.30074E-01   -0.30072E-01  2880   0.157E-01 0.503E-04
CGA:   3    -0.995338343180E+03   -0.39994E-02   -0.39981E-02  2880   0.228E-02-0.153E-04
CGA:   4    -0.995338951161E+03   -0.60798E-03   -0.60550E-03  2880   0.362E-03-0.402E-04
CGA:   5    -0.995339058822E+03   -0.10766E-03   -0.10775E-03  2880   0.690E-04 0.419E-05
CGA:   6    -0.995339083728E+03   -0.24906E-04   -0.24689E-04  2880   0.200E-04 0.715E-05
CGA:   7    -0.995339093345E+03   -0.96174E-05   -0.16417E-04  2880   0.308E-04-0.163E-04
  38 F= -.99533909E+03 E0= -.99533909E+03  d E =-.458669E-02  mag=    -0.0000
       N       E                     dE             d eps       ncg     rms          ort
SDA:   1    -0.995337668150E+03    0.14156E-02    0.00000E+00  2880   0.248E-02 0.000E+00
CGA:   2    -0.995338599995E+03   -0.93185E-03   -0.93233E-03  2880   0.499E-03-0.124E-04
CGA:   3    -0.995338728610E+03   -0.12861E-03   -0.12845E-03  2880   0.790E-04-0.209E-05
CGA:   4    -0.995338746564E+03   -0.17954E-04   -0.18722E-04  2880   0.101E-04 0.788E-05
CGA:   5    -0.995338749777E+03   -0.32131E-05   -0.32645E-05  2880   0.236E-05 0.134E-05
  39 F= -.99533875E+03 E0= -.99533875E+03  d E =0.343569E-03  mag=    -0.0000
       N       E                     dE             d eps       ncg     rms          ort
SDA:   1    -0.995338372423E+03    0.37414E-03    0.00000E+00  2880   0.325E-02 0.000E+00
CGA:   2    -0.995339587475E+03   -0.12151E-02   -0.12152E-02  2880   0.608E-03 0.145E-04
CGA:   3    -0.995339755631E+03   -0.16816E-03   -0.16681E-03  2880   0.887E-04-0.121E-04
CGA:   4    -0.995339777082E+03   -0.21450E-04   -0.21362E-04  2880   0.140E-04-0.667E-06
CGA:   5    -0.995339780754E+03   -0.36722E-05   -0.38001E-05  2880   0.235E-05 0.128E-05
  40 F= -.99533978E+03 E0= -.99533978E+03  d E =-.103098E-02  mag=    -0.0000
       N       E                     dE             d eps       ncg     rms          ort
SDA:   1    -0.995306357442E+03    0.33420E-01    0.00000E+00  2880   0.917E-01 0.000E+00
CGA:   2    -0.995339851365E+03   -0.33494E-01   -0.33494E-01  2880   0.184E-01 0.303E-04
CGA:   3    -0.995344628443E+03   -0.47771E-02   -0.47718E-02  2880   0.253E-02-0.463E-04
CGA:   4    -0.995345273735E+03   -0.64529E-03   -0.64384E-03  2880   0.385E-03-0.134E-04
CGA:   5    -0.995345387945E+03   -0.11421E-03   -0.11475E-03  2880   0.669E-04 0.902E-05
CGA:   6    -0.995345414577E+03   -0.26631E-04   -0.26615E-04  2880   0.226E-04 0.531E-06
CGA:   7    -0.995345425695E+03   -0.11118E-04   -0.13245E-04  2880   0.166E-04-0.957E-05
CGA:   8    -0.995345427028E+03   -0.13324E-05   -0.18113E-05  2880   0.631E-05 0.266E-05
  41 F= -.99534543E+03 E0= -.99534543E+03  d E =-.564627E-02  mag=     0.0000
       N       E                     dE             d eps       ncg     rms          ort
SDA:   1    -0.995125682069E+03    0.21974E+00    0.00000E+00  2880   0.535E+00 0.000E+00
CGA:   2    -0.995324871860E+03   -0.19919E+00   -0.19919E+00  2880   0.105E+00-0.683E-04
CGA:   3    -0.995351628478E+03   -0.26757E-01   -0.26746E-01  2880   0.145E-01-0.113E-03
CGA:   4    -0.995355338525E+03   -0.37100E-02   -0.37114E-02  2880   0.220E-02 0.145E-04
CGA:   5    -0.995356006509E+03   -0.66798E-03   -0.66863E-03  2880   0.390E-03 0.172E-04
CGA:   6    -0.995356161425E+03   -0.15492E-03   -0.15527E-03  2880   0.136E-03-0.630E-05
CGA:   7    -0.995356217829E+03   -0.56404E-04   -0.57195E-04  2880   0.450E-04-0.912E-05
CGA:   8    -0.995356230621E+03   -0.12791E-04   -0.12993E-04  2880   0.728E-05 0.551E-05
CGA:   9    -0.995356233568E+03   -0.29479E-05   -0.29463E-05  2880   0.158E-05 0.101E-06
  42 F= -.99535623E+03 E0= -.99535623E+03  d E =-.108065E-01  mag=    -0.0000
       N       E                     dE             d eps       ncg     rms          ort
SDA:   1    -0.989225281108E+03    0.61309E+01    0.00000E+00  2880   0.145E+02 0.000E+00
CGA:   2    -0.994494391289E+03   -0.52691E+01   -0.52696E+01  2880   0.288E+01 0.511E-02
CGA:   3    -0.995237618054E+03   -0.74323E+00   -0.74357E+00  2880   0.400E+00 0.929E-03
CGA:   4    -0.995340302190E+03   -0.10268E+00   -0.10273E+00  2880   0.630E-01 0.249E-03
CGA:   5    -0.995359928511E+03   -0.19626E-01   -0.19640E-01  2880   0.120E-01 0.151E-03
CGA:   6    -0.995364699212E+03   -0.47707E-02   -0.47708E-02  2880   0.410E-02-0.781E-05
CGA:   7    -0.995366392906E+03   -0.16937E-02   -0.16959E-02  2880   0.126E-02-0.767E-04
CGA:   8    -0.995366836333E+03   -0.44343E-03   -0.44388E-03  2880   0.216E-03 0.169E-04
CGA:   9    -0.995366919199E+03   -0.82865E-04   -0.82830E-04  2880   0.378E-04-0.603E-05
CGA:  10    -0.995366935050E+03   -0.15851E-04   -0.16380E-04  2880   0.112E-04-0.855E-05
CGA:  11    -0.995366937658E+03   -0.26079E-05   -0.27173E-05  2880   0.229E-05 0.151E-05
  43 F= -.99536694E+03 E0= -.99536694E+03  d E =-.107041E-01  mag=     0.0000
       N       E                     dE             d eps       ncg     rms          ort
SDA:   1    -0.994942568432E+03    0.42437E+00    0.00000E+00  2880   0.103E+01 0.000E+00
CGA:   2    -0.995313122036E+03   -0.37055E+00   -0.37056E+00  2880   0.245E+00 0.169E-03
CGA:   3    -0.995374747537E+03   -0.61626E-01   -0.61620E-01  2880   0.355E-01 0.341E-04
CGA:   4    -0.995384937234E+03   -0.10190E-01   -0.10188E-01  2880   0.597E-02-0.283E-04
CGA:   5    -0.995386906771E+03   -0.19695E-02   -0.19686E-02  2880   0.146E-02-0.269E-04
CGA:   6    -0.995387444493E+03   -0.53772E-03   -0.53765E-03  2880   0.441E-03 0.131E-04
CGA:   7    -0.995387616461E+03   -0.17197E-03   -0.17192E-03  2880   0.117E-03 0.239E-05
CGA:   8    -0.995387663185E+03   -0.46724E-04   -0.47046E-04  2880   0.268E-04-0.927E-05
CGA:   9    -0.995387671593E+03   -0.84074E-05   -0.84148E-05  2880   0.469E-05 0.272E-06
  44 F= -.99538767E+03 E0= -.99538767E+03  d E =-.207339E-01  mag=    -0.0000
       N       E                     dE             d eps       ncg     rms          ort
SDA:   1    -0.995341065212E+03    0.46598E-01    0.00000E+00  2880   0.112E+00 0.000E+00
CGA:   2    -0.995379807470E+03   -0.38742E-01   -0.38739E-01  2880   0.248E-01-0.134E-03
CGA:   3    -0.995386344739E+03   -0.65373E-02   -0.65405E-02  2880   0.401E-02 0.266E-04
CGA:   4    -0.995387446050E+03   -0.11013E-02   -0.11052E-02  2880   0.617E-03 0.470E-04
CGA:   5    -0.995387659080E+03   -0.21303E-03   -0.21292E-03  2880   0.161E-03-0.742E-05
CGA:   6    -0.995387723721E+03   -0.64641E-04   -0.65235E-04  2880   0.575E-04-0.108E-04
CGA:   7    -0.995387738884E+03   -0.15163E-04   -0.15807E-04  2880   0.121E-04 0.104E-04
CGA:   8    -0.995387743577E+03   -0.46926E-05   -0.47324E-05  2880   0.312E-05 0.181E-05
  45 F= -.99538774E+03 E0= -.99538774E+03  d E =-.719841E-04  mag=    -0.0000
       N       E                     dE             d eps       ncg     rms          ort
SDA:   1    -0.995357564416E+03    0.30174E-01    0.00000E+00  2880   0.752E-01 0.000E+00
CGA:   2    -0.995385259134E+03   -0.27695E-01   -0.27694E-01  2880   0.152E-01 0.159E-05
CGA:   3    -0.995389107203E+03   -0.38481E-02   -0.38426E-02  2880   0.217E-02-0.407E-04
CGA:   4    -0.995389652206E+03   -0.54500E-03   -0.54735E-03  2880   0.323E-03 0.175E-04
CGA:   5    -0.995389749588E+03   -0.97381E-04   -0.98057E-04  2880   0.568E-04 0.854E-05
CGA:   6    -0.995389774068E+03   -0.24480E-04   -0.24751E-04  2880   0.238E-04-0.557E-05
CGA:   7    -0.995389781867E+03   -0.77998E-05   -0.78093E-05  2880   0.620E-05 0.630E-06
  46 F= -.99538978E+03 E0= -.99538978E+03  d E =-.203829E-02  mag=     0.0000
       N       E                     dE             d eps       ncg     rms          ort
SDA:   1    -0.992693814912E+03    0.26960E+01    0.00000E+00  2880   0.630E+01 0.000E+00
CGA:   2    -0.995029015059E+03   -0.23352E+01   -0.23352E+01  2880   0.124E+01-0.490E-03
CGA:   3    -0.995343070100E+03   -0.31406E+00   -0.31408E+00  2880   0.171E+00-0.174E-03
CGA:   4    -0.995386828982E+03   -0.43759E-01   -0.43775E-01  2880   0.263E-01 0.122E-03
CGA:   5    -0.995394850989E+03   -0.80220E-02   -0.80261E-02  2880   0.476E-02 0.704E-04
CGA:   6    -0.995396727076E+03   -0.18761E-02   -0.18767E-02  2880   0.161E-02-0.194E-04
CGA:   7    -0.995397387394E+03   -0.66032E-03   -0.66210E-03  2880   0.496E-03-0.334E-04
CGA:   8    -0.995397561989E+03   -0.17460E-03   -0.17464E-03  2880   0.855E-04 0.111E-04
CGA:   9    -0.995397595458E+03   -0.33469E-04   -0.33553E-04  2880   0.154E-04-0.407E-05
CGA:  10    -0.995397601711E+03   -0.62521E-05   -0.65817E-05  2880   0.464E-05-0.384E-05
  47 F= -.99539760E+03 E0= -.99539760E+03  d E =-.781984E-02  mag=     0.0000
       N       E                     dE             d eps       ncg     rms          ort
SDA:   1    -0.987696994125E+03    0.77006E+01    0.00000E+00  2880   0.177E+02 0.000E+00
CGA:   2    -0.994285725671E+03   -0.65887E+01   -0.65886E+01  2880   0.359E+01 0.153E-01
CGA:   3    -0.995187088586E+03   -0.90136E+00   -0.90109E+00  2880   0.501E+00 0.508E-03
CGA:   4    -0.995318627449E+03   -0.13154E+00   -0.13155E+00  2880   0.803E-01-0.258E-04
CGA:   5    -0.995343772360E+03   -0.25145E-01   -0.25151E-01  2880   0.160E-01 0.115E-03
CGA:   6    -0.995350063484E+03   -0.62911E-02   -0.62885E-02  2880   0.556E-02 0.682E-04
CGA:   7    -0.995352356041E+03   -0.22926E-02   -0.23005E-02  2880   0.174E-02-0.143E-03
CGA:   8    -0.995352966881E+03   -0.61084E-03   -0.61083E-03  2880   0.295E-03 0.149E-04
CGA:   9    -0.995353077484E+03   -0.11060E-03   -0.11067E-03  2880   0.511E-04-0.502E-05
CGA:  10    -0.995353099192E+03   -0.21708E-04   -0.22992E-04  2880   0.159E-04-0.131E-04
CGA:  11    -0.995353102204E+03   -0.30120E-05   -0.32825E-05  2880   0.377E-05 0.311E-05
  48 F= -.99535310E+03 E0= -.99535310E+03  d E =0.444995E-01  mag=    -0.0000
       N       E                     dE             d eps       ncg     rms          ort
SDA:   1    -0.986277338642E+03    0.90758E+01    0.00000E+00  2880   0.211E+02 0.000E+00
CGA:   2    -0.994159123502E+03   -0.78818E+01   -0.78817E+01  2880   0.421E+01-0.486E-02
CGA:   3    -0.995206912443E+03   -0.10478E+01   -0.10488E+01  2880   0.592E+00 0.785E-03
CGA:   4    -0.995361188203E+03   -0.15428E+00   -0.15433E+00  2880   0.918E-01 0.645E-03
CGA:   5    -0.995389934314E+03   -0.28746E-01   -0.28743E-01  2880   0.177E-01-0.116E-03
CGA:   6    -0.995396894279E+03   -0.69600E-02   -0.69626E-02  2880   0.606E-02-0.587E-04
CGA:   7    -0.995399281883E+03   -0.23876E-02   -0.23828E-02  2880   0.172E-02 0.953E-04
CGA:   8    -0.995399968408E+03   -0.68652E-03   -0.69102E-03  2880   0.357E-03-0.932E-04
CGA:   9    -0.995400085819E+03   -0.11741E-03   -0.11742E-03  2880   0.530E-04 0.254E-05
CGA:  10    -0.995400105933E+03   -0.20114E-04   -0.20151E-04  2880   0.107E-04-0.134E-05
CGA:  11    -0.995400111058E+03   -0.51250E-05   -0.63976E-05  2880   0.669E-05-0.484E-05
  49 F= -.99540011E+03 E0= -.99540011E+03  d E =-.470089E-01  mag=    -0.0000
       N       E                     dE             d eps       ncg     rms          ort
SDA:   1    -0.992182889366E+03    0.32172E+01    0.00000E+00  2880   0.720E+01 0.000E+00
CGA:   2    -0.994842283835E+03   -0.26594E+01   -0.26594E+01  2880   0.152E+01-0.278E-02
CGA:   3    -0.995222969158E+03   -0.38069E+00   -0.38082E+00  2880   0.218E+00 0.264E-03
CGA:   4    -0.995282043003E+03   -0.59074E-01   -0.59102E-01  2880   0.346E-01 0.319E-03
CGA:   5    -0.995293237897E+03   -0.11195E-01   -0.11192E-01  2880   0.763E-02-0.113E-03
CGA:   6    -0.995296181468E+03   -0.29436E-02   -0.29449E-02  2880   0.253E-02-0.352E-04
CGA:   7    -0.995297133092E+03   -0.95162E-03   -0.94976E-03  2880   0.666E-03 0.701E-04
CGA:   8    -0.995297405934E+03   -0.27284E-03   -0.27481E-03  2880   0.141E-03-0.399E-04
CGA:   9    -0.995297452327E+03   -0.46393E-04   -0.46393E-04  2880   0.234E-04 0.428E-07
CGA:  10    -0.995297459984E+03   -0.76574E-05   -0.77226E-05  2880   0.392E-05 0.260E-05
  50 F= -.99529746E+03 E0= -.99529746E+03  d E =0.102651E+00  mag=    -0.0000
       N       E                     dE             d eps       ncg     rms          ort
SDA:   1    -0.992483552209E+03    0.28139E+01    0.00000E+00  2880   0.674E+01 0.000E+00
CGA:   2    -0.994978552818E+03   -0.24950E+01   -0.24950E+01  2880   0.140E+01 0.199E-02
CGA:   3    -0.995333435603E+03   -0.35488E+00   -0.35480E+00  2880   0.200E+00-0.426E-03
CGA:   4    -0.995387174951E+03   -0.53739E-01   -0.53727E-01  2880   0.322E-01-0.153E-03
CGA:   5    -0.995397439794E+03   -0.10265E-01   -0.10269E-01  2880   0.690E-02 0.114E-03
CGA:   6    -0.995400136910E+03   -0.26971E-02   -0.26960E-02  2880   0.231E-02 0.317E-04
CGA:   7    -0.995401078845E+03   -0.94193E-03   -0.94638E-03  2880   0.701E-03-0.849E-04
CGA:   8    -0.995401316496E+03   -0.23765E-03   -0.23775E-03  2880   0.114E-03 0.163E-04
CGA:   9    -0.995401359661E+03   -0.43165E-04   -0.43157E-04  2880   0.213E-04 0.713E-06
CGA:  10    -0.995401369459E+03   -0.97981E-05   -0.11454E-04  2880   0.109E-04-0.941E-05
  51 F= -.99540137E+03 E0= -.99540137E+03  d E =-.103909E+00  mag=    -0.0000
       N       E                     dE             d eps       ncg     rms          ort
SDA:   1    -0.995399520366E+03    0.18393E-02    0.00000E+00  2880   0.316E-02 0.000E+00
CGA:   2    -0.995400670782E+03   -0.11504E-02   -0.11504E-02  2880   0.671E-03 0.153E-04
CGA:   3    -0.995400837993E+03   -0.16721E-03   -0.16760E-03  2880   0.994E-04 0.340E-05
CGA:   4    -0.995400870836E+03   -0.32843E-04   -0.32273E-04  2880   0.236E-04-0.174E-04
CGA:   5    -0.995400876083E+03   -0.52473E-05   -0.53011E-05  2880   0.405E-05 0.655E-06
  52 F= -.99540088E+03 E0= -.99540088E+03  d E =0.493377E-03  mag=    -0.0000
       N       E                     dE             d eps       ncg     rms          ort
SDA:   1    -0.995382070880E+03    0.18800E-01    0.00000E+00  2880   0.397E-01 0.000E+00
CGA:   2    -0.995397324033E+03   -0.15253E-01   -0.15252E-01  2880   0.745E-02 0.254E-04
CGA:   3    -0.995399128466E+03   -0.18044E-02   -0.18047E-02  2880   0.111E-02 0.171E-05
CGA:   4    -0.995399424752E+03   -0.29629E-03   -0.29430E-03  2880   0.166E-03-0.273E-04
CGA:   5    -0.995399473352E+03   -0.48599E-04   -0.48578E-04  2880   0.281E-04-0.593E-06
CGA:   6    -0.995399482070E+03   -0.87183E-05   -0.88064E-05  2880   0.747E-05 0.469E-05
  53 F= -.99539948E+03 E0= -.99539948E+03  d E =0.139401E-02  mag=    -0.0000
       N       E                     dE             d eps       ncg     rms          ort
SDA:   1    -0.995344743571E+03    0.54730E-01    0.00000E+00  2880   0.116E+00 0.000E+00
CGA:   2    -0.995388830582E+03   -0.44087E-01   -0.44091E-01  2880   0.221E-01-0.129E-03
CGA:   3    -0.995394278671E+03   -0.54481E-02   -0.54542E-02  2880   0.327E-02 0.556E-04
CGA:   4    -0.995395112121E+03   -0.83345E-03   -0.83552E-03  2880   0.475E-03 0.221E-04
CGA:   5    -0.995395262823E+03   -0.15070E-03   -0.15036E-03  2880   0.888E-04-0.117E-04
CGA:   6    -0.995395295574E+03   -0.32750E-04   -0.32747E-04  2880   0.280E-04 0.839E-07
CGA:   7    -0.995395305071E+03   -0.94975E-05   -0.95179E-05  2880   0.710E-05 0.433E-05
  54 F= -.99539531E+03 E0= -.99539531E+03  d E =0.417700E-02  mag=    -0.0000
       N       E                     dE             d eps       ncg     rms          ort
SDA:   1    -0.994791964248E+03    0.60333E+00    0.00000E+00  2880   0.134E+01 0.000E+00
CGA:   2    -0.995310561718E+03   -0.51860E+00   -0.51863E+00  2880   0.249E+00-0.673E-03
CGA:   3    -0.995370877782E+03   -0.60316E-01   -0.60331E-01  2880   0.365E-01 0.727E-04
CGA:   4    -0.995380338318E+03   -0.94605E-02   -0.94696E-02  2880   0.533E-02 0.103E-03
CGA:   5    -0.995381976802E+03   -0.16385E-02   -0.16376E-02  2880   0.958E-03-0.253E-04
CGA:   6    -0.995382342482E+03   -0.36568E-03   -0.36624E-03  2880   0.327E-03-0.128E-04
CGA:   7    -0.995382463979E+03   -0.12150E-03   -0.12091E-03  2880   0.901E-04 0.180E-04
CGA:   8    -0.995382504773E+03   -0.40794E-04   -0.41525E-04  2880   0.217E-04-0.791E-05
CGA:   9    -0.995382511538E+03   -0.67641E-05   -0.67635E-05  2880   0.323E-05-0.663E-07
  55 F= -.99538251E+03 E0= -.99538251E+03  d E =0.127935E-01  mag=    -0.0000
       N       E                     dE             d eps       ncg     rms          ort
SDA:   1    -0.995277380291E+03    0.10512E+00    0.00000E+00  2880   0.244E+00 0.000E+00
CGA:   2    -0.995367719209E+03   -0.90339E-01   -0.90336E-01  2880   0.503E-01 0.140E-03
CGA:   3    -0.995380334748E+03   -0.12616E-01   -0.12610E-01  2880   0.739E-02-0.599E-04
CGA:   4    -0.995382312230E+03   -0.19775E-02   -0.19713E-02  2880   0.113E-02-0.818E-04
CGA:   5    -0.995382659879E+03   -0.34765E-03   -0.34789E-03  2880   0.224E-03 0.842E-05
CGA:   6    -0.995382742341E+03   -0.82462E-04   -0.82132E-04  2880   0.679E-04 0.123E-04
CGA:   7    -0.995382776375E+03   -0.34034E-04   -0.37467E-04  2880   0.385E-04-0.186E-04
CGA:   8    -0.995382784080E+03   -0.77049E-05   -0.78295E-05  2880   0.823E-05 0.184E-05
  56 F= -.99538278E+03 E0= -.99538278E+03  d E =-.272543E-03  mag=    -0.0000
       N       E                     dE             d eps       ncg     rms          ort
SDA:   1    -0.995214133835E+03    0.16864E+00    0.00000E+00  2880   0.399E+00 0.000E+00
CGA:   2    -0.995368085257E+03   -0.15395E+00   -0.15396E+00  2880   0.774E-01-0.109E-03
CGA:   3    -0.995386946835E+03   -0.18862E-01   -0.18858E-01  2880   0.112E-01-0.346E-04
CGA:   4    -0.995389912416E+03   -0.29656E-02   -0.29661E-02  2880   0.172E-02 0.643E-05
CGA:   5    -0.995390439435E+03   -0.52702E-03   -0.52723E-03  2880   0.326E-03 0.831E-05
CGA:   6    -0.995390565171E+03   -0.12574E-03   -0.12580E-03  2880   0.112E-03-0.120E-05
CGA:   7    -0.995390610796E+03   -0.45625E-04   -0.45978E-04  2880   0.354E-04-0.452E-05
CGA:   8    -0.995390622239E+03   -0.11443E-04   -0.11445E-04  2880   0.568E-05 0.310E-05
CGA:   9    -0.995390624518E+03   -0.22795E-05   -0.22761E-05  2880   0.111E-05 0.109E-06
  57 F= -.99539062E+03 E0= -.99539062E+03  d E =-.784044E-02  mag=     0.0000
       N       E                     dE             d eps       ncg     rms          ort
SDA:   1    -0.995386374473E+03    0.42478E-02    0.00000E+00  2880   0.103E-01 0.000E+00
CGA:   2    -0.995390104669E+03   -0.37302E-02   -0.37303E-02  2880   0.232E-02-0.752E-05
CGA:   3    -0.995390704559E+03   -0.59989E-03   -0.59998E-03  2880   0.356E-03 0.629E-06
CGA:   4    -0.995390802764E+03   -0.98205E-04   -0.98908E-04  2880   0.537E-04 0.979E-05
CGA:   5    -0.995390821864E+03   -0.19100E-04   -0.19100E-04  2880   0.150E-04 0.269E-06
CGA:   6    -0.995390828207E+03   -0.63436E-05   -0.65371E-05  2880   0.644E-05-0.222E-05
  58 F= -.99539083E+03 E0= -.99539083E+03  d E =-.203689E-03  mag=    -0.0000
       N       E                     dE             d eps       ncg     rms          ort
SDA:   1    -0.995389410203E+03    0.14117E-02    0.00000E+00  2880   0.295E-02 0.000E+00
CGA:   2    -0.995390463416E+03   -0.10532E-02   -0.10532E-02  2880   0.663E-03 0.315E-05
CGA:   3    -0.995390638844E+03   -0.17543E-03   -0.17564E-03  2880   0.104E-03 0.249E-05
CGA:   4    -0.995390670550E+03   -0.31706E-04   -0.31419E-04  2880   0.188E-04-0.681E-05
CGA:   5    -0.995390676323E+03   -0.57733E-05   -0.57684E-05  2880   0.462E-05-0.438E-06
  59 F= -.99539068E+03 E0= -.99539068E+03  d E =0.151884E-03  mag=     0.0000
