       N       E                     dE             d eps       ncg     rms          ort
DAV:   1     0.112462602679E+05    0.11246E+05   -0.46614E+05  8540   0.170E+03
DAV:   2     0.277009042179E+02   -0.11219E+05   -0.10203E+05  8540   0.487E+02
DAV:   3    -0.160846099803E+04   -0.16362E+04   -0.15506E+04  8540   0.198E+02
DAV:   4    -0.169258175117E+04   -0.84121E+02   -0.82911E+02  8540   0.457E+01
DAV:   5    -0.169365659634E+04   -0.10748E+01   -0.10715E+01  8540   0.558E+00
SDA:   6    -0.803705525559E+03    0.88995E+03   -0.10715E+01  8540   0.300E+04 0.000E+00
CGA:   7    -0.122390442954E+04   -0.42020E+03   -0.42012E+03  8540   0.551E+03-0.188E+02
CGA:   8    -0.127450158371E+04   -0.50597E+02   -0.66514E+02  8540   0.118E+03 0.619E+02
CGA:   9    -0.130006319297E+04   -0.25562E+02   -0.21073E+02  8540   0.634E+02-0.192E+02
CGA:  10    -0.130770290334E+04   -0.76397E+01   -0.83267E+01  8540   0.243E+03 0.573E+01
CGA:  11    -0.131410882679E+04   -0.64059E+01   -0.13308E+02  8540   0.430E+02-0.803E+02
CGA:  12    -0.131741585399E+04   -0.33070E+01   -0.22525E+01  8540   0.220E+02 0.132E+02
CGA:  13    -0.131851377018E+04   -0.10979E+01   -0.17971E+01  8540   0.982E+02-0.195E+02
CGA:  14    -0.132086162828E+04   -0.23479E+01   -0.90201E+01  8540   0.981E+01 0.151E+01
CGA:  15    -0.132171018970E+04   -0.84856E+00   -0.46537E+00  8540   0.609E+01 0.796E+01
CGA:  16    -0.132204530081E+04   -0.33511E+00   -0.17441E+00  8540   0.474E+01 0.544E+01
CGA:  17    -0.132229677637E+04   -0.25148E+00   -0.12737E+00  8540   0.393E+01 0.449E+01
CGA:  18    -0.132252404080E+04   -0.22726E+00   -0.11307E+00  8540   0.320E+01 0.381E+01
CGA:  19    -0.132278887210E+04   -0.26483E+00   -0.14588E+00  8540   0.187E+01 0.220E+01
CGA:  20    -0.132360287998E+04   -0.81401E+00   -0.10405E+01  8540   0.252E+01-0.543E+00
CGA:  21    -0.132363954830E+04   -0.36668E-01   -0.12178E+00  8540   0.618E+00-0.507E+00
CGA:  22    -0.132377049166E+04   -0.13094E+00   -0.12371E+00  8540   0.243E+00 0.763E-01
CGA:  23    -0.132385539864E+04   -0.84907E-01   -0.88564E-01  8540   0.631E-01-0.220E-01
CGA:  24    -0.132380863416E+04    0.46764E-01   -0.29535E-01  8540   0.420E+00-0.119E+00
CGA:  25    -0.132388829609E+04   -0.79662E-01   -0.80248E-01  8540   0.626E-01 0.100E-01
CGA:  26    -0.132391066406E+04   -0.22368E-01   -0.22788E-01  8540   0.141E-01-0.756E-02
CGA:  27    -0.132391398501E+04   -0.33209E-02   -0.32431E-02  8540   0.337E-02-0.189E-02
CGA:  28    -0.132391494937E+04   -0.96436E-03   -0.10039E-02  8540   0.139E-02-0.896E-03
CGA:  29    -0.132391520071E+04   -0.25135E-03   -0.26644E-03  8540   0.389E-03 0.365E-03
CGA:  30    -0.132391526487E+04   -0.64155E-04   -0.88659E-04  8540   0.136E-03 0.205E-03
CGA:  31    -0.132391533688E+04   -0.72013E-04   -0.76060E-04  8540   0.165E-03-0.145E-04
CGA:  32    -0.132391520146E+04    0.13542E-03   -0.15652E-03  8540   0.165E-02-0.376E-03
CGA:  33    -0.132391562064E+04   -0.41917E-03   -0.34628E-03  8540   0.464E-03-0.539E-03
CGA:  34    -0.132391569120E+04   -0.70563E-04   -0.20878E-03  8540   0.975E-03-0.418E-03
CGA:  35    -0.132391599911E+04   -0.30791E-03   -0.24096E-03  8540   0.592E-03-0.620E-03
CGA:  36    -0.132391599816E+04    0.94793E-06   -0.52402E-04  8540   0.771E-04 0.208E-03
