       N       E                     dE             d eps       ncg     rms          rms(c)
DAV:   1     0.112533728253E+05    0.11253E+05   -0.43002E+05 34790   0.160E+03
DAV:   2     0.309097438423E+02   -0.11222E+05   -0.10210E+05 34160   0.487E+02
DAV:   3    -0.160801186281E+04   -0.16389E+04   -0.15533E+04 36460   0.198E+02
DAV:   4    -0.169246217670E+04   -0.84450E+02   -0.83231E+02 39190   0.457E+01
DAV:   5    -0.169354366725E+04   -0.10815E+01   -0.10780E+01 37590   0.559E+00    0.146E+02
DAV:   6    -0.128368076098E+04    0.40986E+03   -0.81064E+02 40960   0.759E+01    0.119E+02
DAV:   7    -0.133402227734E+04   -0.50342E+02   -0.35179E+02 37010   0.647E+01    0.876E+01
DAV:   8    -0.130815517276E+04    0.25867E+02   -0.50134E+01 38830   0.231E+01    0.690E+01
DAV:   9    -0.131546954916E+04   -0.73144E+01   -0.50931E+01 37080   0.308E+01    0.665E+01
DAV:  10    -0.131911155653E+04   -0.36420E+01   -0.38237E+01 37490   0.186E+01    0.452E+01
DAV:  11    -0.132021581572E+04   -0.11043E+01   -0.94055E+00 37210   0.101E+01    0.273E+01
DAV:  12    -0.131892687749E+04    0.12889E+01   -0.12318E+01 41850   0.827E+00    0.202E+01
DAV:  13    -0.132160920565E+04   -0.26823E+01   -0.44919E+00 36240   0.478E+00    0.229E+01
DAV:  14    -0.132220747362E+04   -0.59827E+00   -0.42532E-01 36020   0.122E+00    0.241E+01
DAV:  15    -0.132217310924E+04    0.34364E-01   -0.49106E-02 36620   0.474E-01    0.245E+01
DAV:  16    -0.132184656699E+04    0.32654E+00   -0.61517E-02 36720   0.520E-01    0.259E+01
DAV:  17    -0.132334326901E+04   -0.14967E+01   -0.10248E+00 36560   0.222E+00    0.188E+01
DAV:  18    -0.132380449563E+04   -0.46123E+00   -0.20678E+00 39390   0.459E+00    0.131E+01
DAV:  19    -0.132343520912E+04    0.36929E+00   -0.10628E+00 41880   0.314E+00    0.126E+01
DAV:  20    -0.132352213401E+04   -0.86925E-01   -0.41287E-01 40920   0.178E+00    0.110E+01
DAV:  21    -0.132374541086E+04   -0.22328E+00   -0.89360E-02 35790   0.762E-01    0.160E+01
DAV:  22    -0.132374946747E+04   -0.40566E-02   -0.81340E-02 39180   0.148E+00    0.170E+01
DAV:  23    -0.132361269368E+04    0.13677E+00   -0.13478E-01 41670   0.167E+00    0.147E+01
DAV:  24    -0.132353142925E+04    0.81264E-01   -0.15566E-01 44330   0.167E+00    0.103E+01
DAV:  25    -0.132360654025E+04   -0.75111E-01   -0.10037E-01 41140   0.809E-01    0.786E+00
DAV:  26    -0.132395314265E+04   -0.34660E+00   -0.15465E-01 34910   0.129E+00    0.755E+00
DAV:  27    -0.132399327781E+04   -0.40135E-01   -0.17480E-02 37240   0.288E-01    0.730E+00
DAV:  28    -0.132402739969E+04   -0.34122E-01   -0.64115E-03 39390   0.250E-01    0.697E+00
DAV:  29    -0.132406279124E+04   -0.35392E-01   -0.10784E-02 41270   0.448E-01    0.611E+00
DAV:  30    -0.132406435167E+04   -0.15604E-02   -0.87571E-03 42060   0.246E-01    0.551E+00
DAV:  31    -0.132405865661E+04    0.56951E-02   -0.27926E-03 43670   0.188E-01    0.512E+00
DAV:  32    -0.132404921271E+04    0.94439E-02   -0.13516E-03 44690   0.197E-01    0.465E+00
DAV:  33    -0.132404233735E+04    0.68754E-02   -0.18394E-03 45520   0.149E-01    0.434E+00
DAV:  34    -0.132403532076E+04    0.70166E-02   -0.10301E-03 41290   0.176E-01    0.385E+00
DAV:  35    -0.132402701979E+04    0.83010E-02   -0.23904E-03 43560   0.233E-01    0.320E+00
DAV:  36    -0.132402056466E+04    0.64551E-02   -0.51139E-03 45070   0.291E-01    0.229E+00
DAV:  37    -0.132401805664E+04    0.25080E-02   -0.69053E-03 46460   0.225E-01    0.159E+00
DAV:  38    -0.132401751410E+04    0.54255E-03   -0.24049E-03 38150   0.783E-02    0.143E+00
DAV:  39    -0.132401730557E+04    0.20852E-03   -0.11146E-04 29120   0.179E-02    0.143E+00
DAV:  40    -0.132401723078E+04    0.74792E-04   -0.78089E-06 18870   0.753E-03    0.142E+00
DAV:  41    -0.132401735614E+04   -0.12536E-03   -0.21625E-05 20090   0.194E-02    0.143E+00
DAV:  42    -0.132401741307E+04   -0.56932E-04   -0.19127E-05 18750   0.978E-03    0.140E+00
DAV:  43    -0.132401741600E+04   -0.29348E-05   -0.29518E-05 19110   0.188E-02
   1 F= -.13240174E+04 E0= -.13240174E+04  d E =-.132402E+04  mag=   113.8397
       N       E                     dE             d eps       ncg     rms          rms(c)
DAV:   1    -0.132401885952E+04   -0.14465E-02   -0.69617E-03 46530   0.369E-01    0.120E+00
DAV:   2    -0.132402430396E+04   -0.54444E-02   -0.49519E-02 39870   0.655E-01    0.139E+00
DAV:   3    -0.132401518292E+04    0.91210E-02   -0.30174E-02 37930   0.570E-01    0.509E-01
DAV:   4    -0.132401738067E+04   -0.21978E-02   -0.25941E-03 38230   0.190E-01    0.306E-01
DAV:   5    -0.132401675386E+04    0.62681E-03   -0.10167E-03 36660   0.126E-01    0.203E-01
DAV:   6    -0.132401672445E+04    0.29411E-04   -0.43859E-04 34410   0.732E-02
   2 F= -.13240167E+04 E0= -.13240167E+04  d E =0.691557E-03  mag=   113.9952
       N       E                     dE             d eps       ncg     rms          rms(c)
DAV:   1    -0.132401796099E+04   -0.12071E-02   -0.51183E-03 45990   0.318E-01    0.610E-02
DAV:   2    -0.132401803538E+04   -0.74388E-04   -0.12375E-03 37380   0.599E-02    0.452E-02
DAV:   3    -0.132401806732E+04   -0.31937E-04   -0.67939E-05 21520   0.241E-02    0.287E-02
DAV:   4    -0.132401804258E+04    0.24735E-04   -0.58898E-06 18090   0.794E-03
   3 F= -.13240180E+04 E0= -.13240180E+04  d E =-.131813E-02  mag=   113.9991
       N       E                     dE             d eps       ncg     rms          rms(c)
DAV:   1    -0.132239530545E+04    0.16228E+01   -0.74219E+01 47370   0.359E+01    0.596E+00
DAV:   2    -0.132397080098E+04   -0.15755E+01   -0.14327E+01 36520   0.630E+00    0.378E+00
DAV:   3    -0.132401131467E+04   -0.40514E-01   -0.60133E-01 37030   0.196E+00    0.213E+00
DAV:   4    -0.132400091287E+04    0.10402E-01   -0.74076E-02 39390   0.823E-01    0.124E+00
DAV:   5    -0.132399967585E+04    0.12370E-02   -0.11329E-02 38420   0.352E-01    0.855E-01
DAV:   6    -0.132399616528E+04    0.35106E-02   -0.84711E-03 41730   0.325E-01    0.375E-01
DAV:   7    -0.132399709237E+04   -0.92708E-03   -0.42520E-03 40190   0.182E-01    0.240E-01
DAV:   8    -0.132399697361E+04    0.11876E-03   -0.87649E-04 36240   0.976E-02    0.985E-02
DAV:   9    -0.132399717431E+04   -0.20070E-03   -0.15182E-04 28410   0.369E-02    0.505E-02
DAV:  10    -0.132399705940E+04    0.11491E-03   -0.38486E-05 20820   0.212E-02    0.303E-02
DAV:  11    -0.132399707633E+04   -0.16936E-04   -0.24616E-05 19390   0.162E-02
   4 F= -.13239971E+04 E0= -.13239971E+04  d E =0.209662E-01  mag=   114.0000
       N       E                     dE             d eps       ncg     rms          rms(c)
DAV:   1    -0.132382411833E+04    0.17294E+00   -0.66358E+00 48940   0.125E+01    0.214E+00
DAV:   2    -0.132403619232E+04   -0.21207E+00   -0.18831E+00 38030   0.212E+00    0.125E+00
DAV:   3    -0.132404173226E+04   -0.55399E-02   -0.85174E-02 36970   0.696E-01    0.804E-01
DAV:   4    -0.132404217052E+04   -0.43827E-03   -0.92091E-03 39290   0.277E-01    0.443E-01
DAV:   5    -0.132404096858E+04    0.12019E-02   -0.12050E-03 38020   0.107E-01    0.316E-01
DAV:   6    -0.132404036315E+04    0.60543E-03   -0.10952E-03 43050   0.120E-01    0.135E-01
DAV:   7    -0.132404034801E+04    0.15143E-04   -0.53236E-04 39400   0.728E-02    0.860E-02
DAV:   8    -0.132404026312E+04    0.84886E-04   -0.13312E-04 27780   0.380E-02    0.347E-02
DAV:   9    -0.132404025018E+04    0.12940E-04   -0.29583E-05 19990   0.161E-02
   5 F= -.13240403E+04 E0= -.13240403E+04  d E =-.431738E-01  mag=   114.0000
       N       E                     dE             d eps       ncg     rms          rms(c)
DAV:   1    -0.132400779333E+04    0.32470E-01   -0.22850E+00 44340   0.556E+00    0.869E-01
DAV:   2    -0.132404501578E+04   -0.37222E-01   -0.37160E-01 37100   0.995E-01    0.470E-01
DAV:   3    -0.132404524400E+04   -0.22822E-03   -0.12098E-02 36660   0.243E-01    0.276E-01
DAV:   4    -0.132404544349E+04   -0.19949E-03   -0.10349E-03 38100   0.821E-02    0.176E-01
DAV:   5    -0.132404502070E+04    0.42280E-03   -0.28113E-04 31130   0.563E-02    0.125E-01
DAV:   6    -0.132404504355E+04   -0.22847E-04   -0.36084E-04 35240   0.622E-02
   6 F= -.13240450E+04 E0= -.13240450E+04  d E =-.479336E-02  mag=   114.0000
       N       E                     dE             d eps       ncg     rms          rms(c)
DAV:   1    -0.132361098911E+04    0.43403E+00   -0.33589E+01 41910   0.194E+01    0.302E+00
DAV:   2    -0.132403554201E+04   -0.42455E+00   -0.43899E+00 36620   0.356E+00    0.154E+00
DAV:   3    -0.132403883305E+04   -0.32910E-02   -0.11843E-01 36910   0.732E-01    0.800E-01
DAV:   4    -0.132403721222E+04    0.16208E-02   -0.92218E-03 39170   0.237E-01    0.590E-01
DAV:   5    -0.132403605627E+04    0.11560E-02   -0.35597E-03 40750   0.209E-01    0.449E-01
DAV:   6    -0.132403459513E+04    0.14611E-02   -0.48216E-03 41690   0.239E-01    0.249E-01
DAV:   7    -0.132403529909E+04   -0.70396E-03   -0.18220E-03 38590   0.118E-01    0.922E-02
DAV:   8    -0.132403499415E+04    0.30493E-03   -0.27559E-04 33560   0.473E-02    0.519E-02
DAV:   9    -0.132403503735E+04   -0.43197E-04   -0.26726E-05 20260   0.165E-02
   7 F= -.13240350E+04 E0= -.13240350E+04  d E =0.100062E-01  mag=   114.0000
       N       E                     dE             d eps       ncg     rms          rms(c)
DAV:   1    -0.132067281551E+04    0.33622E+01   -0.15156E+02 47300   0.509E+01    0.833E+00
DAV:   2    -0.132376903124E+04   -0.30962E+01   -0.28688E+01 37330   0.884E+00    0.501E+00
DAV:   3    -0.132384830488E+04   -0.79274E-01   -0.95496E-01 37200   0.215E+00    0.244E+00
DAV:   4    -0.132384170357E+04    0.66013E-02   -0.95403E-02 39170   0.836E-01    0.178E+00
DAV:   5    -0.132383613717E+04    0.55664E-02   -0.29936E-02 39710   0.556E-01    0.124E+00
DAV:   6    -0.132382888290E+04    0.72543E-02   -0.22928E-02 41820   0.531E-01    0.591E-01
DAV:   7    -0.132383053318E+04   -0.16503E-02   -0.95599E-03 40300   0.252E-01    0.193E-01
DAV:   8    -0.132383102462E+04   -0.49143E-03   -0.16177E-03 37250   0.974E-02    0.118E-01
DAV:   9    -0.132383094849E+04    0.76123E-04   -0.23653E-04 35030   0.449E-02    0.779E-02
DAV:  10    -0.132383085190E+04    0.96597E-04   -0.73058E-05 23720   0.285E-02    0.433E-02
DAV:  11    -0.132383094679E+04   -0.94899E-04   -0.40704E-05 20000   0.194E-02    0.250E-02
DAV:  12    -0.132383088029E+04    0.66508E-04   -0.19647E-05 18700   0.135E-02    0.966E-03
DAV:  13    -0.132383090228E+04   -0.21998E-04   -0.45806E-06 18390   0.453E-03
   8 F= -.13238309E+04 E0= -.13238309E+04  d E =0.204135E+00  mag=   114.0000
       N       E                     dE             d eps       ncg     rms          rms(c)
DAV:   1    -0.132324559715E+04    0.58528E+00   -0.25848E+01 49930   0.242E+01    0.404E+00
DAV:   2    -0.132399101850E+04   -0.74542E+00   -0.65915E+00 37960   0.415E+00    0.286E+00
DAV:   3    -0.132401722183E+04   -0.26203E-01   -0.40081E-01 36570   0.160E+00    0.181E+00
DAV:   4    -0.132401549284E+04    0.17290E-02   -0.48107E-02 39390   0.636E-01    0.899E-01
DAV:   5    -0.132401202147E+04    0.34714E-02   -0.79121E-03 38630   0.263E-01    0.640E-01
DAV:   6    -0.132401066359E+04    0.13579E-02   -0.70772E-03 40320   0.274E-01    0.386E-01
DAV:   7    -0.132400963660E+04    0.10270E-02   -0.33941E-03 40560   0.195E-01    0.194E-01
DAV:   8    -0.132400993238E+04   -0.29578E-03   -0.99838E-04 37280   0.865E-02    0.700E-02
DAV:   9    -0.132400989190E+04    0.40476E-04   -0.12906E-04 28950   0.301E-02
   9 F= -.13240099E+04 E0= -.13240099E+04  d E =-.178990E+00  mag=   114.0000
       N       E                     dE             d eps       ncg     rms          rms(c)
DAV:   1    -0.132396384188E+04    0.46091E-01   -0.19577E+00 48710   0.645E+00    0.109E+00
DAV:   2    -0.132402041084E+04   -0.56569E-01   -0.51246E-01 37910   0.110E+00    0.595E-01
DAV:   3    -0.132402177806E+04   -0.13672E-02   -0.18364E-02 36740   0.289E-01    0.336E-01
DAV:   4    -0.132402201104E+04   -0.23298E-03   -0.13649E-03 38620   0.900E-02    0.214E-01
DAV:   5    -0.132402153148E+04    0.47956E-03   -0.45239E-04 34430   0.659E-02    0.160E-01
DAV:   6    -0.132402157021E+04   -0.38729E-04   -0.61650E-04 37250   0.766E-02    0.103E-01
DAV:   7    -0.132402130648E+04    0.26373E-03   -0.29265E-04 32140   0.520E-02    0.482E-02
DAV:   8    -0.132402144512E+04   -0.13864E-03   -0.58300E-05 20740   0.239E-02    0.200E-02
DAV:   9    -0.132402144303E+04    0.20885E-05   -0.13009E-05 18390   0.856E-03
  10 F= -.13240214E+04 E0= -.13240214E+04  d E =-.115511E-01  mag=   114.0000
       N       E                     dE             d eps       ncg     rms          rms(c)
DAV:   1    -0.132398964897E+04    0.31796E-01   -0.12409E+00 47700   0.519E+00    0.854E-01
DAV:   2    -0.132402332553E+04   -0.33677E-01   -0.31060E-01 37220   0.889E-01    0.436E-01
DAV:   3    -0.132402414504E+04   -0.81952E-03   -0.99582E-03 37000   0.223E-01    0.249E-01
DAV:   4    -0.132402388879E+04    0.25625E-03   -0.94085E-04 37720   0.806E-02    0.170E-01
DAV:   5    -0.132402395654E+04   -0.67744E-04   -0.19201E-04 27340   0.467E-02    0.130E-01
DAV:   6    -0.132402367438E+04    0.28216E-03   -0.28206E-04 33050   0.622E-02    0.661E-02
DAV:   7    -0.132402388106E+04   -0.20669E-03   -0.13040E-04 26010   0.328E-02    0.294E-02
DAV:   8    -0.132402378633E+04    0.94729E-04   -0.26188E-05 18760   0.153E-02    0.136E-02
DAV:   9    -0.132402378626E+04    0.72177E-07   -0.55773E-06 17920   0.519E-03
  11 F= -.13240238E+04 E0= -.13240238E+04  d E =-.234323E-02  mag=   114.0000
       N       E                     dE             d eps       ncg     rms          rms(c)
DAV:   1    -0.132389365719E+04    0.13013E+00   -0.50298E+00 46230   0.101E+01    0.168E+00
DAV:   2    -0.132402039100E+04   -0.12673E+00   -0.11712E+00 36230   0.175E+00    0.825E-01
DAV:   3    -0.132402318085E+04   -0.27898E-02   -0.37984E-02 37000   0.438E-01    0.479E-01
DAV:   4    -0.132402227161E+04    0.90924E-03   -0.42499E-03 38950   0.173E-01    0.332E-01
DAV:   5    -0.132402248326E+04   -0.21165E-03   -0.46098E-04 35060   0.794E-02    0.244E-01
DAV:   6    -0.132402187125E+04    0.61202E-03   -0.63797E-04 41500   0.111E-01    0.928E-02
DAV:   7    -0.132402217446E+04   -0.30322E-03   -0.37169E-04 37970   0.487E-02    0.478E-02
DAV:   8    -0.132402206747E+04    0.10699E-03   -0.43720E-05 20180   0.228E-02    0.217E-02
DAV:   9    -0.132402208001E+04   -0.12541E-04   -0.83942E-06 17940   0.754E-03
  12 F= -.13240221E+04 E0= -.13240221E+04  d E =0.170625E-02  mag=   114.0000
       N       E                     dE             d eps       ncg     rms          rms(c)
DAV:   1    -0.132364979214E+04    0.37228E+00   -0.16691E+01 44430   0.167E+01    0.286E+00
DAV:   2    -0.132400764796E+04   -0.35786E+00   -0.33831E+00 35960   0.296E+00    0.138E+00
DAV:   3    -0.132401430144E+04   -0.66535E-02   -0.10007E-01 36950   0.674E-01    0.739E-01
DAV:   4    -0.132401266812E+04    0.16333E-02   -0.10788E-02 39150   0.261E-01    0.568E-01
DAV:   5    -0.132401266752E+04    0.60130E-06   -0.13665E-03 38080   0.138E-01    0.420E-01
DAV:   6    -0.132401113002E+04    0.15375E-02   -0.16889E-03 43390   0.180E-01    0.139E-01
DAV:   7    -0.132401159752E+04   -0.46751E-03   -0.10054E-03 38980   0.579E-02    0.528E-02
DAV:   8    -0.132401157138E+04    0.26146E-04   -0.50880E-05 21590   0.181E-02
  13 F= -.13240116E+04 E0= -.13240116E+04  d E =0.105086E-01  mag=   114.0000
       N       E                     dE             d eps       ncg     rms          rms(c)
DAV:   1    -0.131958679987E+04    0.44248E+01   -0.16441E+02 47760   0.569E+01    0.991E+00
DAV:   2    -0.132368291251E+04   -0.40961E+01   -0.37006E+01 37120   0.988E+00    0.624E+00
DAV:   3    -0.132377312875E+04   -0.90216E-01   -0.11726E+00 37500   0.250E+00    0.288E+00
DAV:   4    -0.132377177911E+04    0.13496E-02   -0.12625E-01 39430   0.967E-01    0.218E+00
DAV:   5    -0.132375974487E+04    0.12034E-01   -0.49583E-02 39280   0.656E-01    0.167E+00
DAV:   6    -0.132375349836E+04    0.62465E-02   -0.26519E-02 42270   0.570E-01    0.943E-01
DAV:   7    -0.132375032452E+04    0.31738E-02   -0.15905E-02 42060   0.448E-01    0.487E-01
DAV:   8    -0.132375177088E+04   -0.14464E-02   -0.50394E-03 38210   0.214E-01    0.164E-01
DAV:   9    -0.132375221928E+04   -0.44840E-03   -0.63416E-04 36090   0.608E-02    0.960E-02
DAV:  10    -0.132375200089E+04    0.21839E-03   -0.13545E-04 29630   0.318E-02    0.645E-02
DAV:  11    -0.132375209542E+04   -0.94534E-04   -0.78048E-05 21360   0.299E-02    0.339E-02
DAV:  12    -0.132375216800E+04   -0.72572E-04   -0.25713E-05 18920   0.144E-02    0.105E-02
DAV:  13    -0.132375211671E+04    0.51289E-04   -0.67576E-06 18300   0.541E-03    0.750E-03
DAV:  14    -0.132375212013E+04   -0.34207E-05   -0.14486E-06 18090   0.270E-03
  14 F= -.13237521E+04 E0= -.13237521E+04  d E =0.259451E+00  mag=   114.0000
       N       E                     dE             d eps       ncg     rms          rms(c)
DAV:   1    -0.132290614322E+04    0.84597E+00   -0.35731E+01 50220   0.294E+01    0.498E+00
DAV:   2    -0.132394690802E+04   -0.10408E+01   -0.90338E+00 37700   0.490E+00    0.294E+00
DAV:   3    -0.132398645760E+04   -0.39550E-01   -0.38342E-01 36950   0.149E+00    0.167E+00
DAV:   4    -0.132398327975E+04    0.31779E-02   -0.36785E-02 39670   0.569E-01    0.958E-01
DAV:   5    -0.132398248178E+04    0.79797E-03   -0.11040E-02 39060   0.295E-01    0.735E-01
DAV:   6    -0.132397946426E+04    0.30175E-02   -0.10610E-02 41840   0.325E-01    0.450E-01
DAV:   7    -0.132398028127E+04   -0.81701E-03   -0.46909E-03 40620   0.220E-01    0.223E-01
DAV:   8    -0.132397981110E+04    0.47017E-03   -0.97201E-04 37510   0.875E-02    0.795E-02
DAV:   9    -0.132397993117E+04   -0.12006E-03   -0.12158E-04 27960   0.305E-02    0.440E-02
DAV:  10    -0.132397995018E+04   -0.19016E-04   -0.43036E-05 19930   0.179E-02
  15 F= -.13239800E+04 E0= -.13239800E+04  d E =-.227830E+00  mag=   114.0000
       N       E                     dE             d eps       ncg     rms          rms(c)
DAV:   1    -0.132385051801E+04    0.12941E+00   -0.48369E+00 48960   0.106E+01    0.176E+00
DAV:   2    -0.132400101137E+04   -0.15049E+00   -0.13334E+00 37470   0.177E+00    0.962E-01
DAV:   3    -0.132400618467E+04   -0.51733E-02   -0.48998E-02 36580   0.474E-01    0.538E-01
DAV:   4    -0.132400536544E+04    0.81923E-03   -0.48703E-03 39680   0.178E-01    0.368E-01
DAV:   5    -0.132400537131E+04   -0.58707E-05   -0.13095E-03 37530   0.109E-01    0.276E-01
DAV:   6    -0.132400451818E+04    0.85313E-03   -0.11364E-03 42260   0.115E-01    0.127E-01
DAV:   7    -0.132400494140E+04   -0.42322E-03   -0.47026E-04 39360   0.630E-02    0.671E-02
DAV:   8    -0.132400472412E+04    0.21727E-03   -0.11226E-04 24870   0.325E-02    0.298E-02
DAV:   9    -0.132400475457E+04   -0.30447E-04   -0.16847E-05 18580   0.108E-02
  16 F= -.13240048E+04 E0= -.13240048E+04  d E =-.248044E-01  mag=   114.0000
       N       E                     dE             d eps       ncg     rms          rms(c)
DAV:   1    -0.132396331648E+04    0.41408E-01   -0.15893E+00 49280   0.635E+00    0.102E+00
DAV:   2    -0.132401283177E+04   -0.49515E-01   -0.43806E-01 36590   0.104E+00    0.515E-01
DAV:   3    -0.132401420352E+04   -0.13718E-02   -0.15796E-02 36900   0.270E-01    0.286E-01
DAV:   4    -0.132401385999E+04    0.34353E-03   -0.14798E-03 38290   0.961E-02    0.204E-01
DAV:   5    -0.132401387131E+04   -0.11315E-04   -0.34170E-04 31830   0.607E-02
  17 F= -.13240139E+04 E0= -.13240139E+04  d E =-.911674E-02  mag=   114.0000
       N       E                     dE             d eps       ncg     rms          rms(c)
DAV:   1    -0.132391867847E+04    0.95182E-01   -0.27287E+00 48860   0.867E+00    0.149E+00
DAV:   2    -0.132401930293E+04   -0.10062E+00   -0.87393E-01 36210   0.141E+00    0.710E-01
DAV:   3    -0.132402131071E+04   -0.20078E-02   -0.28462E-02 37470   0.331E-01    0.353E-01
DAV:   4    -0.132402152269E+04   -0.21198E-03   -0.19889E-03 38570   0.919E-02    0.274E-01
DAV:   5    -0.132402105785E+04    0.46484E-03   -0.33823E-04 33070   0.699E-02    0.207E-01
DAV:   6    -0.132402111213E+04   -0.54280E-04   -0.92325E-04 41930   0.109E-01    0.137E-01
DAV:   7    -0.132402072300E+04    0.38913E-03   -0.47312E-04 36630   0.640E-02    0.434E-02
DAV:   8    -0.132402090870E+04   -0.18570E-03   -0.44661E-05 19990   0.230E-02    0.228E-02
DAV:   9    -0.132402095080E+04   -0.42101E-04   -0.81881E-06 17980   0.873E-03
  18 F= -.13240210E+04 E0= -.13240210E+04  d E =-.707949E-02  mag=   114.0000
       N       E                     dE             d eps       ncg     rms          rms(c)
DAV:   1    -0.132397434550E+04    0.46563E-01   -0.20142E+00 45930   0.622E+00    0.107E+00
DAV:   2    -0.132402566485E+04   -0.51319E-01   -0.47157E-01 36610   0.107E+00    0.501E-01
DAV:   3    -0.132402659449E+04   -0.92964E-03   -0.13607E-02 37440   0.229E-01    0.247E-01
DAV:   4    -0.132402659555E+04   -0.10679E-05   -0.86521E-04 36730   0.546E-02    0.189E-01
DAV:   5    -0.132402641388E+04    0.18168E-03   -0.23274E-04 30840   0.572E-02    0.141E-01
DAV:   6    -0.132402649133E+04   -0.77451E-04   -0.53920E-04 38140   0.752E-02    0.984E-02
DAV:   7    -0.132402619079E+04    0.30054E-03   -0.20848E-04 29730   0.427E-02    0.232E-02
DAV:   8    -0.132402634784E+04   -0.15704E-03   -0.26735E-05 18580   0.142E-02    0.176E-02
DAV:   9    -0.132402635355E+04   -0.57170E-05   -0.59190E-06 17950   0.706E-03
  19 F= -.13240264E+04 E0= -.13240264E+04  d E =-.540275E-02  mag=   114.0000
       N       E                     dE             d eps       ncg     rms          rms(c)
DAV:   1    -0.132335329002E+04    0.67306E+00   -0.37322E+01 43230   0.228E+01    0.382E+00
DAV:   2    -0.132402664666E+04   -0.67336E+00   -0.64995E+00 36700   0.407E+00    0.195E+00
DAV:   3    -0.132403248552E+04   -0.58389E-02   -0.16487E-01 36990   0.833E-01    0.975E-01
DAV:   4    -0.132403242279E+04    0.62733E-04   -0.16569E-02 39210   0.307E-01    0.785E-01
DAV:   5    -0.132402958737E+04    0.28354E-02   -0.52905E-03 39120   0.234E-01    0.586E-01
DAV:   6    -0.132402812458E+04    0.14628E-02   -0.40567E-03 42420   0.249E-01    0.226E-01
DAV:   7    -0.132402785403E+04    0.27055E-03   -0.20521E-03 39370   0.936E-02    0.792E-02
DAV:   8    -0.132402822572E+04   -0.37169E-03   -0.16945E-04 31290   0.299E-02    0.448E-02
DAV:   9    -0.132402817199E+04    0.53730E-04   -0.17113E-05 18940   0.119E-02    0.252E-02
DAV:  10    -0.132402813720E+04    0.34795E-04   -0.98497E-06 18690   0.105E-02
  20 F= -.13240281E+04 E0= -.13240281E+04  d E =-.178364E-02  mag=   114.0000
       N       E                     dE             d eps       ncg     rms          rms(c)
DAV:   1    -0.132344633078E+04    0.58184E+00   -0.35074E+01 42800   0.210E+01    0.347E+00
DAV:   2    -0.132400488751E+04   -0.55856E+00   -0.54622E+00 37080   0.377E+00    0.184E+00
DAV:   3    -0.132401243034E+04   -0.75428E-02   -0.15539E-01 37500   0.831E-01    0.982E-01
DAV:   4    -0.132401206058E+04    0.36976E-03   -0.16874E-02 38940   0.331E-01    0.723E-01
DAV:   5    -0.132400937553E+04    0.26851E-02   -0.49964E-03 39010   0.222E-01    0.528E-01
DAV:   6    -0.132400860036E+04    0.77517E-03   -0.44020E-03 42400   0.236E-01    0.223E-01
DAV:   7    -0.132400809572E+04    0.50463E-03   -0.20870E-03 39630   0.108E-01    0.942E-02
DAV:   8    -0.132400855357E+04   -0.45785E-03   -0.28189E-04 35510   0.466E-02    0.577E-02
DAV:   9    -0.132400851108E+04    0.42494E-04   -0.33527E-05 20300   0.208E-02
  21 F= -.13240085E+04 E0= -.13240085E+04  d E =0.196261E-01  mag=   114.0000
       N       E                     dE             d eps       ncg     rms          rms(c)
DAV:   1    -0.132372074102E+04    0.28781E+00   -0.10503E+01 48190   0.156E+01    0.248E+00
DAV:   2    -0.132401988667E+04   -0.29915E+00   -0.27042E+00 37530   0.266E+00    0.129E+00
DAV:   3    -0.132402691234E+04   -0.70257E-02   -0.90534E-02 37150   0.641E-01    0.697E-01
DAV:   4    -0.132402621732E+04    0.69502E-03   -0.66801E-03 39600   0.187E-01    0.486E-01
DAV:   5    -0.132402611784E+04    0.99481E-04   -0.23098E-03 41220   0.152E-01    0.385E-01
DAV:   6    -0.132402495706E+04    0.11608E-02   -0.29479E-03 43320   0.184E-01    0.215E-01
DAV:   7    -0.132402534714E+04   -0.39007E-03   -0.11494E-03 39690   0.104E-01    0.745E-02
DAV:   8    -0.132402528317E+04    0.63964E-04   -0.23731E-04 34780   0.448E-02    0.460E-02
DAV:   9    -0.132402524117E+04    0.42006E-04   -0.25919E-05 19920   0.173E-02
  22 F= -.13240252E+04 E0= -.13240252E+04  d E =-.167301E-01  mag=   114.0000
       N       E                     dE             d eps       ncg     rms          rms(c)
DAV:   1    -0.132382789476E+04    0.19739E+00   -0.87024E+00 46680   0.127E+01    0.211E+00
DAV:   2    -0.132404319368E+04   -0.21530E+00   -0.19913E+00 36900   0.219E+00    0.109E+00
DAV:   3    -0.132404569791E+04   -0.25042E-02   -0.62241E-02 37260   0.536E-01    0.610E-01
DAV:   4    -0.132404613393E+04   -0.43602E-03   -0.60200E-03 39040   0.193E-01    0.438E-01
DAV:   5    -0.132404494261E+04    0.11913E-02   -0.13405E-03 39080   0.118E-01    0.325E-01
DAV:   6    -0.132404463194E+04    0.31067E-03   -0.14711E-03 43570   0.147E-01    0.161E-01
DAV:   7    -0.132404440336E+04    0.22858E-03   -0.84084E-04 40010   0.835E-02    0.789E-02
DAV:   8    -0.132404452957E+04   -0.12621E-03   -0.15686E-04 29790   0.396E-02    0.314E-02
DAV:   9    -0.132404454898E+04   -0.19408E-04   -0.24176E-05 19270   0.125E-02
  23 F= -.13240445E+04 E0= -.13240445E+04  d E =-.193078E-01  mag=   114.0000
       N       E                     dE             d eps       ncg     rms          rms(c)
DAV:   1    -0.132400485012E+04    0.39679E-01   -0.20258E+00 44100   0.577E+00    0.942E-01
DAV:   2    -0.132404692305E+04   -0.42073E-01   -0.39925E-01 37540   0.103E+00    0.481E-01
DAV:   3    -0.132404783151E+04   -0.90846E-03   -0.13015E-02 36840   0.240E-01    0.265E-01
DAV:   4    -0.132404787348E+04   -0.41969E-04   -0.94799E-04 38960   0.700E-02    0.186E-01
DAV:   5    -0.132404759382E+04    0.27965E-03   -0.36282E-04 30940   0.595E-02    0.155E-01
DAV:   6    -0.132404767915E+04   -0.85324E-04   -0.46098E-04 36630   0.729E-02    0.750E-02
DAV:   7    -0.132404747957E+04    0.19958E-03   -0.15100E-04 31550   0.331E-02    0.254E-02
DAV:   8    -0.132404756829E+04   -0.88722E-04   -0.35125E-05 19240   0.163E-02    0.185E-02
DAV:   9    -0.132404757162E+04   -0.33246E-05   -0.81173E-06 18270   0.793E-03
  24 F= -.13240476E+04 E0= -.13240476E+04  d E =-.302263E-02  mag=   114.0000
       N       E                     dE             d eps       ncg     rms          rms(c)
DAV:   1    -0.131987476769E+04    0.41728E+01   -0.15378E+02 47260   0.552E+01    0.947E+00
DAV:   2    -0.132361976717E+04   -0.37450E+01   -0.33643E+01 37270   0.952E+00    0.591E+00
DAV:   3    -0.132374102996E+04   -0.12126E+00   -0.12901E+00 37550   0.251E+00    0.273E+00
DAV:   4    -0.132373936951E+04    0.16604E-02   -0.85972E-02 40070   0.761E-01    0.176E+00
DAV:   5    -0.132372979561E+04    0.95739E-02   -0.22827E-02 41140   0.461E-01    0.125E+00
DAV:   6    -0.132372633020E+04    0.34654E-02   -0.23558E-02 41350   0.517E-01    0.816E-01
DAV:   7    -0.132372332723E+04    0.30030E-02   -0.18468E-02 40050   0.402E-01    0.434E-01
DAV:   8    -0.132372536400E+04   -0.20368E-02   -0.38318E-03 38070   0.198E-01    0.169E-01
DAV:   9    -0.132372546573E+04   -0.10173E-03   -0.60082E-04 36140   0.679E-02    0.818E-02
DAV:  10    -0.132372513907E+04    0.32666E-03   -0.13938E-04 29570   0.317E-02    0.503E-02
DAV:  11    -0.132372522325E+04   -0.84181E-04   -0.36367E-05 19220   0.171E-02    0.212E-02
DAV:  12    -0.132372524278E+04   -0.19529E-04   -0.16609E-05 18710   0.934E-03
  25 F= -.13237252E+04 E0= -.13237252E+04  d E =0.322329E+00  mag=   114.0000
       N       E                     dE             d eps       ncg     rms          rms(c)
DAV:   1    -0.132126682520E+04    0.24584E+01   -0.78178E+01 49760   0.445E+01    0.815E+00
DAV:   2    -0.132392495358E+04   -0.26581E+01   -0.23306E+01 37870   0.759E+00    0.540E+00
DAV:   3    -0.132402773427E+04   -0.10278E+00   -0.10211E+00 37530   0.228E+00    0.246E+00
DAV:   4    -0.132402818279E+04   -0.44853E-03   -0.83463E-02 39940   0.788E-01    0.155E+00
DAV:   5    -0.132402069600E+04    0.74868E-02   -0.24510E-02 39320   0.457E-01    0.115E+00
DAV:   6    -0.132401813016E+04    0.25658E-02   -0.22022E-02 40020   0.451E-01    0.807E-01
DAV:   7    -0.132401483189E+04    0.32983E-02   -0.13589E-02 40660   0.371E-01    0.389E-01
DAV:   8    -0.132401658080E+04   -0.17489E-02   -0.41190E-03 38500   0.198E-01    0.154E-01
DAV:   9    -0.132401666187E+04   -0.81066E-04   -0.57680E-04 35620   0.649E-02    0.703E-02
DAV:  10    -0.132401645168E+04    0.21019E-03   -0.14667E-04 30620   0.279E-02    0.486E-02
DAV:  11    -0.132401653115E+04   -0.79471E-04   -0.36887E-05 20380   0.203E-02    0.273E-02
DAV:  12    -0.132401660065E+04   -0.69502E-04   -0.16469E-05 18910   0.952E-03    0.141E-02
DAV:  13    -0.132401658637E+04    0.14277E-04   -0.48603E-06 18580   0.602E-03
  26 F= -.13240166E+04 E0= -.13240166E+04  d E =-.291344E+00  mag=   114.0000
       N       E                     dE             d eps       ncg     rms          rms(c)
DAV:   1    -0.132398020207E+04    0.36399E-01   -0.16976E+00 49130   0.692E+00    0.116E+00
DAV:   2    -0.132403900686E+04   -0.58805E-01   -0.52450E-01 38400   0.116E+00    0.580E-01
DAV:   3    -0.132404053865E+04   -0.15318E-02   -0.20397E-02 37530   0.310E-01    0.339E-01
DAV:   4    -0.132404073913E+04   -0.20049E-03   -0.14304E-03 39230   0.923E-02    0.211E-01
DAV:   5    -0.132404032670E+04    0.41243E-03   -0.51338E-04 36400   0.652E-02    0.170E-01
DAV:   6    -0.132404041632E+04   -0.89620E-04   -0.66869E-04 36940   0.829E-02    0.986E-02
DAV:   7    -0.132404017949E+04    0.23683E-03   -0.31678E-04 35810   0.563E-02    0.487E-02
DAV:   8    -0.132404028520E+04   -0.10571E-03   -0.68261E-05 21730   0.265E-02    0.273E-02
DAV:   9    -0.132404029972E+04   -0.14518E-04   -0.19213E-05 19070   0.125E-02
  27 F= -.13240403E+04 E0= -.13240403E+04  d E =-.237133E-01  mag=   114.0000
       N       E                     dE             d eps       ncg     rms          rms(c)
DAV:   1    -0.132391877977E+04    0.12151E+00   -0.36334E+00 49130   0.997E+00    0.162E+00
DAV:   2    -0.132404761278E+04   -0.12883E+00   -0.11360E+00 37430   0.166E+00    0.835E-01
DAV:   3    -0.132405084436E+04   -0.32316E-02   -0.43594E-02 37200   0.423E-01    0.448E-01
DAV:   4    -0.132405049407E+04    0.35029E-03   -0.31813E-03 39890   0.132E-01    0.320E-01
DAV:   5    -0.132405045008E+04    0.43987E-04   -0.10149E-03 38040   0.102E-01    0.248E-01
DAV:   6    -0.132404978129E+04    0.66879E-03   -0.11214E-03 40190   0.116E-01    0.136E-01
DAV:   7    -0.132405014278E+04   -0.36148E-03   -0.44122E-04 38610   0.632E-02    0.518E-02
DAV:   8    -0.132404998050E+04    0.16228E-03   -0.11377E-04 26200   0.307E-02    0.294E-02
DAV:   9    -0.132404998522E+04   -0.47248E-05   -0.18478E-05 18780   0.136E-02
  28 F= -.13240500E+04 E0= -.13240500E+04  d E =-.968550E-02  mag=   114.0000
       N       E                     dE             d eps       ncg     rms          rms(c)
DAV:   1    -0.132403536732E+04    0.14613E-01   -0.68310E-01 48260   0.393E+00    0.581E-01
DAV:   2    -0.132405321662E+04   -0.17849E-01   -0.16050E-01 37020   0.632E-01    0.316E-01
DAV:   3    -0.132405377422E+04   -0.55760E-03   -0.57793E-03 36920   0.158E-01    0.174E-01
DAV:   4    -0.132405350409E+04    0.27013E-03   -0.57073E-04 35920   0.600E-02    0.126E-01
DAV:   5    -0.132405366962E+04   -0.16553E-03   -0.14434E-04 23630   0.406E-02    0.894E-02
DAV:   6    -0.132405354205E+04    0.12756E-03   -0.11746E-04 25940   0.415E-02    0.346E-02
DAV:   7    -0.132405359024E+04   -0.48185E-04   -0.59269E-05 20280   0.198E-02
  29 F= -.13240536E+04 E0= -.13240536E+04  d E =-.360502E-02  mag=   114.0000
       N       E                     dE             d eps       ncg     rms          rms(c)
DAV:   1    -0.132376056293E+04    0.29298E+00   -0.12807E+01 46620   0.155E+01    0.236E+00
DAV:   2    -0.132404528536E+04   -0.28472E+00   -0.26136E+00 37000   0.260E+00    0.128E+00
DAV:   3    -0.132404931963E+04   -0.40343E-02   -0.75749E-02 37030   0.590E-01    0.663E-01
DAV:   4    -0.132404840639E+04    0.91324E-03   -0.63007E-03 40760   0.197E-01    0.479E-01
DAV:   5    -0.132404843432E+04   -0.27935E-04   -0.25316E-03 38780   0.164E-01    0.372E-01
DAV:   6    -0.132404716628E+04    0.12680E-02   -0.24116E-03 43470   0.179E-01    0.155E-01
DAV:   7    -0.132404752882E+04   -0.36254E-03   -0.85880E-04 39210   0.786E-02    0.624E-02
DAV:   8    -0.132404755294E+04   -0.24120E-04   -0.13276E-04 27710   0.345E-02
  30 F= -.13240476E+04 E0= -.13240476E+04  d E =0.603730E-02  mag=   114.0000
       N       E                     dE             d eps       ncg     rms          rms(c)
DAV:   1    -0.132396852179E+04    0.79007E-01   -0.37461E+00 46130   0.831E+00    0.131E+00
DAV:   2    -0.132404782313E+04   -0.79301E-01   -0.74070E-01 35960   0.142E+00    0.639E-01
DAV:   3    -0.132404902609E+04   -0.12030E-02   -0.23917E-02 37180   0.313E-01    0.321E-01
DAV:   4    -0.132404925387E+04   -0.22778E-03   -0.15992E-03 38590   0.843E-02    0.231E-01
DAV:   5    -0.132404883019E+04    0.42368E-03   -0.57060E-04 36450   0.815E-02    0.182E-01
DAV:   6    -0.132404890739E+04   -0.77202E-04   -0.74364E-04 38710   0.935E-02    0.102E-01
DAV:   7    -0.132404863394E+04    0.27345E-03   -0.23767E-04 35230   0.444E-02    0.255E-02
DAV:   8    -0.132404874144E+04   -0.10750E-03   -0.35473E-05 19250   0.158E-02    0.188E-02
DAV:   9    -0.132404877524E+04   -0.33792E-04   -0.73028E-06 18030   0.818E-03
  31 F= -.13240488E+04 E0= -.13240488E+04  d E =-.122230E-02  mag=   114.0000
       N       E                     dE             d eps       ncg     rms          rms(c)
DAV:   1    -0.132401103251E+04    0.37709E-01   -0.22154E+00 44240   0.588E+00    0.895E-01
DAV:   2    -0.132405072665E+04   -0.39694E-01   -0.37997E-01 36260   0.100E+00    0.475E-01
DAV:   3    -0.132405106171E+04   -0.33506E-03   -0.12127E-02 37020   0.225E-01    0.246E-01
DAV:   4    -0.132405123874E+04   -0.17703E-03   -0.95512E-04 37940   0.713E-02    0.177E-01
DAV:   5    -0.132405093576E+04    0.30298E-03   -0.37777E-04 30390   0.649E-02    0.143E-01
DAV:   6    -0.132405100898E+04   -0.73223E-04   -0.37277E-04 34910   0.687E-02    0.594E-02
DAV:   7    -0.132405081842E+04    0.19056E-03   -0.11316E-04 25180   0.264E-02    0.189E-02
DAV:   8    -0.132405086623E+04   -0.47803E-04   -0.18414E-05 18160   0.100E-02
  32 F= -.13240509E+04 E0= -.13240509E+04  d E =-.209099E-02  mag=   114.0000
       N       E                     dE             d eps       ncg     rms          rms(c)
DAV:   1    -0.132382641336E+04    0.22441E+00   -0.14760E+01 43320   0.138E+01    0.213E+00
DAV:   2    -0.132404121932E+04   -0.21481E+00   -0.21207E+00 35620   0.243E+00    0.106E+00
DAV:   3    -0.132404294784E+04   -0.17285E-02   -0.61966E-02 37120   0.505E-01    0.533E-01
DAV:   4    -0.132404311751E+04   -0.16968E-03   -0.53686E-03 39500   0.175E-01    0.410E-01
DAV:   5    -0.132404201768E+04    0.10998E-02   -0.17833E-03 38710   0.142E-01    0.311E-01
DAV:   6    -0.132404178568E+04    0.23200E-03   -0.16089E-03 43170   0.155E-01    0.115E-01
DAV:   7    -0.132404150713E+04    0.27856E-03   -0.66205E-04 38530   0.555E-02    0.407E-02
DAV:   8    -0.132404161721E+04   -0.11008E-03   -0.42034E-05 20000   0.158E-02    0.255E-02
DAV:   9    -0.132404163111E+04   -0.13904E-04   -0.84329E-06 18250   0.796E-03
  33 F= -.13240416E+04 E0= -.13240416E+04  d E =0.923511E-02  mag=   114.0000
       N       E                     dE             d eps       ncg     rms          rms(c)
DAV:   1    -0.132301936458E+04    0.10223E+01   -0.71465E+01 42040   0.287E+01    0.475E+00
DAV:   2    -0.132400866709E+04   -0.98930E+00   -0.99859E+00 35910   0.526E+00    0.233E+00
DAV:   3    -0.132401951044E+04   -0.10843E-01   -0.26185E-01 37120   0.102E+00    0.111E+00
DAV:   4    -0.132401761795E+04    0.18925E-02   -0.19554E-02 39830   0.303E-01    0.873E-01
DAV:   5    -0.132401432430E+04    0.32937E-02   -0.70654E-03 41510   0.292E-01    0.675E-01
DAV:   6    -0.132401293409E+04    0.13902E-02   -0.84215E-03 42050   0.332E-01    0.341E-01
DAV:   7    -0.132401212641E+04    0.80767E-03   -0.33259E-03 38420   0.151E-01    0.101E-01
DAV:   8    -0.132401276103E+04   -0.63461E-03   -0.40296E-04 35830   0.520E-02    0.713E-02
DAV:   9    -0.132401276441E+04   -0.33823E-05   -0.45746E-05 22560   0.255E-02
  34 F= -.13240128E+04 E0= -.13240128E+04  d E =0.288667E-01  mag=   114.0000
       N       E                     dE             d eps       ncg     rms          rms(c)
DAV:   1    -0.132379434593E+04    0.21842E+00   -0.87660E+00 46340   0.133E+01    0.220E+00
DAV:   2    -0.132401043395E+04   -0.21609E+00   -0.19883E+00 36350   0.228E+00    0.105E+00
DAV:   3    -0.132401441111E+04   -0.39772E-02   -0.59469E-02 37080   0.493E-01    0.504E-01
DAV:   4    -0.132401444349E+04   -0.32383E-04   -0.35214E-03 40000   0.107E-01    0.368E-01
DAV:   5    -0.132401365809E+04    0.78540E-03   -0.73005E-04 43500   0.110E-01    0.217E-01
DAV:   6    -0.132401348574E+04    0.17235E-03   -0.84393E-04 43490   0.107E-01    0.114E-01
DAV:   7    -0.132401358895E+04   -0.10322E-03   -0.46812E-04 37420   0.638E-02    0.562E-02
DAV:   8    -0.132401351802E+04    0.70938E-04   -0.70224E-05 21500   0.270E-02    0.280E-02
DAV:   9    -0.132401359054E+04   -0.72520E-04   -0.14134E-05 18450   0.127E-02    0.180E-02
DAV:  10    -0.132401353723E+04    0.53308E-04   -0.56338E-06 18110   0.844E-03    0.997E-03
DAV:  11    -0.132401355572E+04   -0.18495E-04   -0.23382E-06 17950   0.366E-03
  35 F= -.13240136E+04 E0= -.13240136E+04  d E =-.791316E-03  mag=   114.0000
       N       E                     dE             d eps       ncg     rms          rms(c)
DAV:   1    -0.132399306317E+04    0.20474E-01   -0.15123E+00 45350   0.496E+00    0.763E-01
DAV:   2    -0.132402097811E+04   -0.27915E-01   -0.26948E-01 37100   0.863E-01    0.401E-01
DAV:   3    -0.132402168653E+04   -0.70842E-03   -0.87719E-03 36990   0.201E-01    0.223E-01
DAV:   4    -0.132402142110E+04    0.26543E-03   -0.85713E-04 38460   0.761E-02    0.158E-01
DAV:   5    -0.132402155739E+04   -0.13629E-03   -0.23625E-04 28470   0.511E-02    0.116E-01
DAV:   6    -0.132402134547E+04    0.21192E-03   -0.25535E-04 33430   0.579E-02    0.445E-02
DAV:   7    -0.132402146734E+04   -0.12187E-03   -0.99562E-05 24620   0.238E-02    0.164E-02
DAV:   8    -0.132402145417E+04    0.13170E-04   -0.16617E-05 18580   0.103E-02
  36 F= -.13240215E+04 E0= -.13240215E+04  d E =-.789844E-02  mag=   114.0000
       N       E                     dE             d eps       ncg     rms          rms(c)
DAV:   1    -0.132392511926E+04    0.96348E-01   -0.54583E+00 44020   0.886E+00    0.143E+00
DAV:   2    -0.132401684403E+04   -0.91725E-01   -0.89260E-01 35610   0.156E+00    0.671E-01
DAV:   3    -0.132401830845E+04   -0.14644E-02   -0.24877E-02 37140   0.312E-01    0.316E-01
DAV:   4    -0.132401812883E+04    0.17961E-03   -0.15369E-03 39330   0.677E-02    0.239E-01
DAV:   5    -0.132401789286E+04    0.23597E-03   -0.31120E-04 36060   0.771E-02    0.135E-01
DAV:   6    -0.132401769467E+04    0.19820E-03   -0.53735E-04 40920   0.700E-02    0.828E-02
DAV:   7    -0.132401792320E+04   -0.22853E-03   -0.22558E-04 30460   0.435E-02    0.328E-02
DAV:   8    -0.132401783936E+04    0.83838E-04   -0.20550E-05 18650   0.142E-02    0.175E-02
DAV:   9    -0.132401782261E+04    0.16752E-04   -0.58435E-06 17990   0.738E-03
  37 F= -.13240178E+04 E0= -.13240178E+04  d E =0.363156E-02  mag=   114.0000
       N       E                     dE             d eps       ncg     rms          rms(c)
DAV:   1    -0.131947777710E+04    0.45401E+01   -0.12531E+02 47430   0.566E+01    0.104E+01
DAV:   2    -0.132376667756E+04   -0.42889E+01   -0.37927E+01 36740   0.956E+00    0.622E+00
DAV:   3    -0.132386915210E+04   -0.10247E+00   -0.12291E+00 37260   0.223E+00    0.260E+00
DAV:   4    -0.132386943002E+04   -0.27792E-03   -0.78438E-02 42510   0.557E-01    0.194E+00
DAV:   5    -0.132386080431E+04    0.86257E-02   -0.11152E-02 42420   0.372E-01    0.133E+00
DAV:   6    -0.132385453529E+04    0.62690E-02   -0.20034E-02 43470   0.544E-01    0.860E-01
DAV:   7    -0.132385531262E+04   -0.77733E-03   -0.14628E-02 39960   0.377E-01    0.271E-01
DAV:   8    -0.132385583104E+04   -0.51842E-03   -0.19312E-03 38070   0.128E-01    0.120E-01
DAV:   9    -0.132385571721E+04    0.11383E-03   -0.37189E-04 36790   0.534E-02    0.799E-02
DAV:  10    -0.132385569660E+04    0.20606E-04   -0.53885E-05 23290   0.284E-02
  38 F= -.13238557E+04 E0= -.13238557E+04  d E =0.162126E+00  mag=   114.0000
       N       E                     dE             d eps       ncg     rms          rms(c)
DAV:   1    -0.132251624086E+04    0.13395E+01   -0.42248E+01 50160   0.356E+01    0.584E+00
DAV:   2    -0.132394828549E+04   -0.14320E+01   -0.12379E+01 37950   0.579E+00    0.315E+00
DAV:   3    -0.132400025734E+04   -0.51972E-01   -0.51695E-01 37480   0.149E+00    0.149E+00
DAV:   4    -0.132400201210E+04   -0.17548E-02   -0.34034E-02 41160   0.426E-01    0.964E-01
DAV:   5    -0.132399780624E+04    0.42059E-02   -0.12492E-02 38960   0.354E-01    0.748E-01
DAV:   6    -0.132399608604E+04    0.17202E-02   -0.12257E-02 41240   0.365E-01    0.456E-01
DAV:   7    -0.132399451883E+04    0.15672E-02   -0.39244E-03 40350   0.203E-01    0.131E-01
DAV:   8    -0.132399540438E+04   -0.88555E-03   -0.11462E-03 38430   0.890E-02    0.944E-02
DAV:   9    -0.132399544660E+04   -0.42219E-04   -0.19225E-04 33940   0.411E-02
  39 F= -.13239954E+04 E0= -.13239954E+04  d E =-.139750E+00  mag=   114.0000
       N       E                     dE             d eps       ncg     rms          rms(c)
DAV:   1    -0.132397391994E+04    0.21484E-01   -0.12062E+00 48970   0.557E+00    0.906E-01
DAV:   2    -0.132401041264E+04   -0.36493E-01   -0.32729E-01 38070   0.956E-01    0.467E-01
DAV:   3    -0.132401168454E+04   -0.12719E-02   -0.13820E-02 37500   0.260E-01    0.275E-01
DAV:   4    -0.132401142149E+04    0.26306E-03   -0.11272E-03 39480   0.857E-02    0.174E-01
DAV:   5    -0.132401153687E+04   -0.11539E-03   -0.31004E-04 32260   0.573E-02    0.134E-01
DAV:   6    -0.132401128999E+04    0.24688E-03   -0.36523E-04 35610   0.628E-02    0.622E-02
DAV:   7    -0.132401143219E+04   -0.14220E-03   -0.12768E-04 31090   0.314E-02    0.221E-02
DAV:   8    -0.132401138952E+04    0.42671E-04   -0.37765E-05 18870   0.168E-02
  40 F= -.13240114E+04 E0= -.13240114E+04  d E =-.159429E-01  mag=   114.0000
       N       E                     dE             d eps       ncg     rms          rms(c)
DAV:   1    -0.132395207179E+04    0.59360E-01   -0.25512E+00 47200   0.760E+00    0.120E+00
DAV:   2    -0.132402112154E+04   -0.69050E-01   -0.63361E-01 37530   0.130E+00    0.614E-01
DAV:   3    -0.132402259115E+04   -0.14696E-02   -0.21554E-02 37140   0.310E-01    0.338E-01
DAV:   4    -0.132402252305E+04    0.68100E-04   -0.12768E-03 39870   0.699E-02    0.230E-01
DAV:   5    -0.132402228718E+04    0.23587E-03   -0.34786E-04 36190   0.694E-02    0.138E-01
DAV:   6    -0.132402209689E+04    0.19029E-03   -0.62041E-04 39030   0.826E-02    0.117E-01
DAV:   7    -0.132402230247E+04   -0.20559E-03   -0.31127E-04 33390   0.526E-02    0.292E-02
DAV:   8    -0.132402218434E+04    0.11813E-03   -0.28836E-05 19430   0.167E-02    0.161E-02
DAV:   9    -0.132402216640E+04    0.17937E-04   -0.85140E-06 18600   0.756E-03
  41 F= -.13240222E+04 E0= -.13240222E+04  d E =-.107769E-01  mag=   114.0000
       N       E                     dE             d eps       ncg     rms          rms(c)
DAV:   1    -0.132399807201E+04    0.24112E-01   -0.12947E+00 45500   0.488E+00    0.753E-01
DAV:   2    -0.132402594520E+04   -0.27873E-01   -0.26105E-01 36660   0.832E-01    0.385E-01
DAV:   3    -0.132402629653E+04   -0.35133E-03   -0.81079E-03 37140   0.181E-01    0.198E-01
DAV:   4    -0.132402627560E+04    0.20925E-04   -0.48456E-04 33320   0.399E-02
  42 F= -.13240263E+04 E0= -.13240263E+04  d E =-.410920E-02  mag=   114.0000
       N       E                     dE             d eps       ncg     rms          rms(c)
DAV:   1    -0.132388101461E+04    0.14528E+00   -0.71583E+00 44880   0.108E+01    0.173E+00
DAV:   2    -0.132402473262E+04   -0.14372E+00   -0.13627E+00 36800   0.187E+00    0.885E-01
DAV:   3    -0.132402614432E+04   -0.14117E-02   -0.39310E-02 37370   0.397E-01    0.465E-01
DAV:   4    -0.132402611675E+04    0.27570E-04   -0.26426E-03 39770   0.106E-01    0.342E-01
DAV:   5    -0.132402536951E+04    0.74723E-03   -0.98184E-04 42860   0.121E-01    0.243E-01
DAV:   6    -0.132402544199E+04   -0.72479E-04   -0.15837E-03 42410   0.135E-01    0.144E-01
DAV:   7    -0.132402503235E+04    0.40965E-03   -0.51940E-04 38020   0.672E-02    0.347E-02
DAV:   8    -0.132402520266E+04   -0.17031E-03   -0.42348E-05 20370   0.173E-02    0.230E-02
DAV:   9    -0.132402522415E+04   -0.21494E-04   -0.87614E-06 18440   0.832E-03
  43 F= -.13240252E+04 E0= -.13240252E+04  d E =0.105145E-02  mag=   114.0000
       N       E                     dE             d eps       ncg     rms          rms(c)
DAV:   1    -0.132398198738E+04    0.43215E-01   -0.27369E+00 43180   0.604E+00    0.976E-01
DAV:   2    -0.132402590494E+04   -0.43918E-01   -0.43379E-01 36550   0.108E+00    0.485E-01
DAV:   3    -0.132402639903E+04   -0.49408E-03   -0.12516E-02 37150   0.225E-01    0.251E-01
DAV:   4    -0.132402631996E+04    0.79070E-04   -0.83459E-04 38260   0.593E-02    0.180E-01
DAV:   5    -0.132402631683E+04    0.31243E-05   -0.22490E-04 30490   0.585E-02
  44 F= -.13240263E+04 E0= -.13240263E+04  d E =-.109268E-02  mag=   114.0000
       N       E                     dE             d eps       ncg     rms          rms(c)
DAV:   1    -0.132391698742E+04    0.10933E+00   -0.58232E+00 43930   0.951E+00    0.149E+00
DAV:   2    -0.132402414643E+04   -0.10716E+00   -0.10199E+00 36000   0.165E+00    0.754E-01
DAV:   3    -0.132402521985E+04   -0.10734E-02   -0.32304E-02 37170   0.374E-01    0.393E-01
DAV:   4    -0.132402557599E+04   -0.35614E-03   -0.29000E-03 39010   0.136E-01    0.292E-01
DAV:   5    -0.132402506636E+04    0.50963E-03   -0.69100E-04 36080   0.967E-02    0.211E-01
DAV:   6    -0.132402500420E+04    0.62155E-04   -0.73498E-04 42350   0.105E-01    0.740E-02
DAV:   7    -0.132402483938E+04    0.16482E-03   -0.29278E-04 37840   0.385E-02    0.288E-02
DAV:   8    -0.132402496792E+04   -0.12854E-03   -0.20006E-05 18820   0.125E-02    0.196E-02
DAV:   9    -0.132402496397E+04    0.39526E-05   -0.47593E-06 17990   0.739E-03
  45 F= -.13240250E+04 E0= -.13240250E+04  d E =0.135286E-02  mag=   114.0000
       N       E                     dE             d eps       ncg     rms          rms(c)
DAV:   1    -0.132349588983E+04    0.52908E+00   -0.29934E+01 43710   0.206E+01    0.341E+00
DAV:   2    -0.132401915969E+04   -0.52327E+00   -0.49622E+00 36210   0.364E+00    0.168E+00
DAV:   3    -0.132402701054E+04   -0.78508E-02   -0.14960E-01 37150   0.742E-01    0.788E-01
DAV:   4    -0.132402632388E+04    0.68666E-03   -0.98506E-03 40450   0.185E-01    0.592E-01
DAV:   5    -0.132402494096E+04    0.13829E-02   -0.22653E-03 41630   0.186E-01    0.391E-01
DAV:   6    -0.132402397030E+04    0.97066E-03   -0.41340E-03 43450   0.218E-01    0.262E-01
DAV:   7    -0.132402451516E+04   -0.54486E-03   -0.17184E-03 38030   0.125E-01    0.678E-02
DAV:   8    -0.132402440777E+04    0.10739E-03   -0.15506E-04 32810   0.307E-02    0.411E-02
DAV:   9    -0.132402433245E+04    0.75321E-04   -0.20249E-05 18940   0.155E-02    0.257E-02
DAV:  10    -0.132402435957E+04   -0.27118E-04   -0.10717E-05 18590   0.106E-02
  46 F= -.13240244E+04 E0= -.13240244E+04  d E =0.604401E-03  mag=   114.0000
       N       E                     dE             d eps       ncg     rms          rms(c)
DAV:   1    -0.132393001341E+04    0.94319E-01   -0.34413E+00 47160   0.893E+00    0.150E+00
DAV:   2    -0.132403280781E+04   -0.10279E+00   -0.92003E-01 37130   0.153E+00    0.752E-01
DAV:   3    -0.132403461105E+04   -0.18032E-02   -0.29765E-02 37410   0.358E-01    0.394E-01
DAV:   4    -0.132403463376E+04   -0.22707E-04   -0.19299E-03 39590   0.924E-02    0.276E-01
DAV:   5    -0.132403423066E+04    0.40310E-03   -0.33448E-04 36360   0.748E-02    0.178E-01
DAV:   6    -0.132403423882E+04   -0.81552E-05   -0.45010E-04 42100   0.856E-02
  47 F= -.13240342E+04 E0= -.13240342E+04  d E =-.987925E-02  mag=   114.0000
       N       E                     dE             d eps       ncg     rms          rms(c)
DAV:   1    -0.132402677940E+04    0.74513E-02   -0.44882E-01 44450   0.277E+00    0.445E-01
DAV:   2    -0.132403601709E+04   -0.92377E-02   -0.87103E-02 37250   0.489E-01    0.231E-01
DAV:   3    -0.132403604936E+04   -0.32275E-04   -0.28507E-03 37060   0.118E-01    0.131E-01
DAV:   4    -0.132403613899E+04   -0.89624E-04   -0.20877E-04 29440   0.353E-02    0.874E-02
DAV:   5    -0.132403601259E+04    0.12640E-03   -0.51666E-05 19950   0.270E-02    0.660E-02
DAV:   6    -0.132403603626E+04   -0.23676E-04   -0.90075E-05 23870   0.338E-02
  48 F= -.13240360E+04 E0= -.13240360E+04  d E =-.179745E-02  mag=   114.0000
       N       E                     dE             d eps       ncg     rms          rms(c)
DAV:   1    -0.132402096628E+04    0.15046E-01   -0.86462E-01 44910   0.380E+00    0.644E-01
DAV:   2    -0.132403976112E+04   -0.18795E-01   -0.17472E-01 36820   0.665E-01    0.310E-01
DAV:   3    -0.132403989139E+04   -0.13028E-03   -0.53010E-03 37190   0.148E-01    0.163E-01
DAV:   4    -0.132403994815E+04   -0.56759E-04   -0.36967E-04 31520   0.408E-02    0.119E-01
DAV:   5    -0.132403978257E+04    0.16559E-03   -0.86730E-05 22150   0.360E-02    0.885E-02
DAV:   6    -0.132403982172E+04   -0.39158E-04   -0.17162E-04 28740   0.462E-02
  49 F= -.13240398E+04 E0= -.13240398E+04  d E =-.378546E-02  mag=   114.0000
       N       E                     dE             d eps       ncg     rms          rms(c)
DAV:   1    -0.132393946834E+04    0.10031E+00   -0.56235E+00 44560   0.890E+00    0.157E+00
DAV:   2    -0.132404630438E+04   -0.10684E+00   -0.10029E+00 36500   0.156E+00    0.730E-01
DAV:   3    -0.132404777386E+04   -0.14695E-02   -0.29779E-02 37230   0.320E-01    0.347E-01
DAV:   4    -0.132404766943E+04    0.10444E-03   -0.19465E-03 39010   0.767E-02    0.265E-01
DAV:   5    -0.132404727902E+04    0.39041E-03   -0.32853E-04 35700   0.787E-02    0.163E-01
DAV:   6    -0.132404721547E+04    0.63545E-04   -0.58140E-04 41840   0.850E-02    0.898E-02
DAV:   7    -0.132404725665E+04   -0.41177E-04   -0.25812E-04 34360   0.476E-02
  50 F= -.13240473E+04 E0= -.13240473E+04  d E =-.743493E-02  mag=   114.0000
       N       E                     dE             d eps       ncg     rms          rms(c)
DAV:   1    -0.132314381753E+04    0.90340E+00   -0.54846E+01 44630   0.259E+01    0.470E+00
DAV:   2    -0.132404379970E+04   -0.89998E+00   -0.83730E+00 36510   0.458E+00    0.243E+00
DAV:   3    -0.132405962601E+04   -0.15826E-01   -0.25569E-01 37170   0.989E-01    0.110E+00
DAV:   4    -0.132405833353E+04    0.12925E-02   -0.20084E-02 39810   0.314E-01    0.804E-01
DAV:   5    -0.132405706775E+04    0.12658E-02   -0.58054E-03 39410   0.259E-01    0.610E-01
DAV:   6    -0.132405516928E+04    0.18985E-02   -0.67685E-03 41620   0.286E-01    0.339E-01
DAV:   7    -0.132405587336E+04   -0.70408E-03   -0.25771E-03 38520   0.137E-01    0.874E-02
DAV:   8    -0.132405592215E+04   -0.48790E-04   -0.33369E-04 36270   0.413E-02
  51 F= -.13240559E+04 E0= -.13240559E+04  d E =-.866550E-02  mag=   114.0000
       N       E                     dE             d eps       ncg     rms          rms(c)
DAV:   1    -0.132385274046E+04    0.20313E+00   -0.55234E+00 49130   0.123E+01    0.224E+00
DAV:   2    -0.132406483395E+04   -0.21209E+00   -0.18335E+00 36880   0.205E+00    0.108E+00
DAV:   3    -0.132407063931E+04   -0.58054E-02   -0.63100E-02 37420   0.486E-01    0.516E-01
DAV:   4    -0.132407081166E+04   -0.17234E-03   -0.40779E-03 39330   0.117E-01    0.369E-01
DAV:   5    -0.132407029641E+04    0.51525E-03   -0.60290E-04 42700   0.931E-02    0.243E-01
DAV:   6    -0.132407002002E+04    0.27639E-03   -0.88901E-04 43750   0.121E-01    0.154E-01
DAV:   7    -0.132406990109E+04    0.11893E-03   -0.58291E-04 38090   0.743E-02    0.562E-02
DAV:   8    -0.132407011572E+04   -0.21464E-03   -0.63440E-05 21530   0.274E-02    0.284E-02
DAV:   9    -0.132407004825E+04    0.67479E-04   -0.16640E-05 18840   0.131E-02    0.168E-02
DAV:  10    -0.132407005874E+04   -0.10499E-04   -0.40404E-06 18150   0.646E-03
  52 F= -.13240701E+04 E0= -.13240701E+04  d E =-.141366E-01  mag=   114.0000
       N       E                     dE             d eps       ncg     rms          rms(c)
DAV:   1    -0.132406286358E+04    0.71847E-02   -0.62181E-01 43850   0.292E+00    0.471E-01
DAV:   2    -0.132407326581E+04   -0.10402E-01   -0.10184E-01 37720   0.524E-01    0.234E-01
DAV:   3    -0.132407339272E+04   -0.12691E-03   -0.28876E-03 37190   0.110E-01    0.125E-01
DAV:   4    -0.132407337508E+04    0.17643E-04   -0.17058E-04 28230   0.264E-02
  53 F= -.13240734E+04 E0= -.13240734E+04  d E =-.331633E-02  mag=   114.0000
       N       E                     dE             d eps       ncg     rms          rms(c)
DAV:   1    -0.132404973625E+04    0.23656E-01   -0.11931E+00 45400   0.452E+00    0.767E-01
DAV:   2    -0.132407738892E+04   -0.27653E-01   -0.25827E-01 37120   0.783E-01    0.385E-01
DAV:   3    -0.132407775893E+04   -0.37001E-03   -0.75887E-03 37370   0.170E-01    0.207E-01
DAV:   4    -0.132407777013E+04   -0.11199E-04   -0.51920E-04 34220   0.473E-02    0.156E-01
DAV:   5    -0.132407761080E+04    0.15933E-03   -0.18157E-04 27740   0.512E-02    0.114E-01
DAV:   6    -0.132407766172E+04   -0.50917E-04   -0.31464E-04 35380   0.599E-02    0.626E-02
DAV:   7    -0.132407751336E+04    0.14836E-03   -0.97046E-05 23510   0.294E-02    0.152E-02
DAV:   8    -0.132407757709E+04   -0.63738E-04   -0.15133E-05 18280   0.866E-03    0.111E-02
DAV:   9    -0.132407757792E+04   -0.82394E-06   -0.26812E-06 17930   0.443E-03
  54 F= -.13240776E+04 E0= -.13240776E+04  d E =-.420284E-02  mag=   114.0000
       N       E                     dE             d eps       ncg     rms          rms(c)
DAV:   1    -0.132404440723E+04    0.33170E-01   -0.20664E+00 43500   0.518E+00    0.896E-01
DAV:   2    -0.132408043187E+04   -0.36025E-01   -0.35389E-01 36790   0.927E-01    0.434E-01
DAV:   3    -0.132408096436E+04   -0.53249E-03   -0.10128E-02 37120   0.193E-01    0.227E-01
DAV:   4    -0.132408085154E+04    0.11282E-03   -0.68680E-04 37020   0.509E-02    0.168E-01
DAV:   5    -0.132408077297E+04    0.78578E-04   -0.17535E-04 29560   0.514E-02    0.119E-01
DAV:   6    -0.132408062912E+04    0.14384E-03   -0.36757E-04 38290   0.640E-02    0.745E-02
DAV:   7    -0.132408076306E+04   -0.13394E-03   -0.13887E-04 27610   0.347E-02    0.179E-02
DAV:   8    -0.132408068753E+04    0.75528E-04   -0.17407E-05 18360   0.101E-02    0.127E-02
DAV:   9    -0.132408068325E+04    0.42787E-05   -0.33324E-06 17960   0.520E-03
  55 F= -.13240807E+04 E0= -.13240807E+04  d E =-.310534E-02  mag=   114.0000
       N       E                     dE             d eps       ncg     rms          rms(c)
DAV:   1    -0.132400190940E+04    0.78778E-01   -0.60457E+00 40390   0.821E+00    0.125E+00
DAV:   2    -0.132407995580E+04   -0.78046E-01   -0.78880E-01 36540   0.145E+00    0.638E-01
DAV:   3    -0.132408049618E+04   -0.54037E-03   -0.22568E-02 37070   0.278E-01    0.312E-01
DAV:   4    -0.132408017108E+04    0.32509E-03   -0.13343E-03 40880   0.679E-02    0.227E-01
DAV:   5    -0.132407984498E+04    0.32611E-03   -0.48794E-04 39540   0.834E-02    0.126E-01
DAV:   6    -0.132407972085E+04    0.12412E-03   -0.65705E-04 39000   0.768E-02    0.102E-01
DAV:   7    -0.132407985853E+04   -0.13768E-03   -0.21491E-04 30580   0.456E-02    0.242E-02
DAV:   8    -0.132407977026E+04    0.88272E-04   -0.20342E-05 18870   0.111E-02    0.171E-02
DAV:   9    -0.132407976700E+04    0.32653E-05   -0.47073E-06 18080   0.688E-03
  56 F= -.13240798E+04 E0= -.13240798E+04  d E =0.916257E-03  mag=   114.0000
       N       E                     dE             d eps       ncg     rms          rms(c)
DAV:   1    -0.132404597529E+04    0.33795E-01   -0.14109E+00 46540   0.526E+00    0.871E-01
DAV:   2    -0.132408158117E+04   -0.35606E-01   -0.32281E-01 37150   0.902E-01    0.440E-01
DAV:   3    -0.132408219462E+04   -0.61345E-03   -0.10740E-02 37370   0.209E-01    0.235E-01
DAV:   4    -0.132408225621E+04   -0.61588E-04   -0.71582E-04 37150   0.589E-02    0.160E-01
DAV:   5    -0.132408204061E+04    0.21560E-03   -0.19926E-04 29640   0.500E-02    0.121E-01
DAV:   6    -0.132408209878E+04   -0.58170E-04   -0.31080E-04 34160   0.618E-02    0.660E-02
DAV:   7    -0.132408196808E+04    0.13070E-03   -0.11861E-04 25670   0.322E-02    0.183E-02
DAV:   8    -0.132408203009E+04   -0.62012E-04   -0.21238E-05 18510   0.124E-02    0.132E-02
DAV:   9    -0.132408204096E+04   -0.10873E-04   -0.47156E-06 17970   0.547E-03
  57 F= -.13240820E+04 E0= -.13240820E+04  d E =-.227397E-02  mag=   114.0000
       N       E                     dE             d eps       ncg     rms          rms(c)
DAV:   1    -0.132406893804E+04    0.13092E-01   -0.64950E-01 44390   0.316E+00    0.545E-01
DAV:   2    -0.132408243551E+04   -0.13497E-01   -0.12677E-01 36570   0.557E-01    0.259E-01
DAV:   3    -0.132408259822E+04   -0.16271E-03   -0.37013E-03 37300   0.117E-01    0.131E-01
DAV:   4    -0.132408266080E+04   -0.62582E-04   -0.23309E-04 28640   0.285E-02    0.976E-02
DAV:   5    -0.132408258607E+04    0.74729E-04   -0.60474E-05 20230   0.300E-02    0.685E-02
DAV:   6    -0.132408262174E+04   -0.35675E-04   -0.12271E-04 25420   0.365E-02
  58 F= -.13240826E+04 E0= -.13240826E+04  d E =-.580782E-03  mag=   114.0000
       N       E                     dE             d eps       ncg     rms          rms(c)
DAV:   1    -0.132407458924E+04    0.79968E-02   -0.49469E-01 43430   0.256E+00    0.403E-01
DAV:   2    -0.132408231519E+04   -0.77259E-02   -0.75858E-02 36690   0.456E-01    0.205E-01
DAV:   3    -0.132408237275E+04   -0.57564E-04   -0.23088E-03 37090   0.968E-02    0.109E-01
DAV:   4    -0.132408239866E+04   -0.25914E-04   -0.14548E-04 26510   0.255E-02
  59 F= -.13240824E+04 E0= -.13240824E+04  d E =0.223079E-03  mag=   114.0000
       N       E                     dE             d eps       ncg     rms          rms(c)
DAV:   1    -0.132400865821E+04    0.73715E-01   -0.39419E+00 44460   0.760E+00    0.119E+00
DAV:   2    -0.132407795092E+04   -0.69293E-01   -0.66940E-01 36010   0.130E+00    0.602E-01
DAV:   3    -0.132407895375E+04   -0.10028E-02   -0.20608E-02 37280   0.270E-01    0.298E-01
DAV:   4    -0.132407898021E+04   -0.26465E-04   -0.14798E-03 39220   0.867E-02    0.227E-01
DAV:   5    -0.132407862574E+04    0.35447E-03   -0.50829E-04 35630   0.825E-02    0.169E-01
DAV:   6    -0.132407871901E+04   -0.93270E-04   -0.60429E-04 41150   0.904E-02    0.688E-02
DAV:   7    -0.132407854745E+04    0.17156E-03   -0.20244E-04 34310   0.378E-02    0.220E-02
DAV:   8    -0.132407861649E+04   -0.69038E-04   -0.14994E-05 18410   0.920E-03    0.145E-02
DAV:   9    -0.132407862193E+04   -0.54419E-05   -0.27813E-06 17990   0.478E-03
  60 F= -.13240786E+04 E0= -.13240786E+04  d E =0.377674E-02  mag=   114.0000
       N       E                     dE             d eps       ncg     rms          rms(c)
DAV:   1    -0.132405229870E+04    0.26318E-01   -0.13503E+00 43460   0.438E+00    0.715E-01
DAV:   2    -0.132407565815E+04   -0.23359E-01   -0.22853E-01 36910   0.778E-01    0.351E-01
DAV:   3    -0.132407611449E+04   -0.45633E-03   -0.68507E-03 37190   0.167E-01    0.183E-01
DAV:   4    -0.132407604296E+04    0.71525E-04   -0.44314E-04 33590   0.427E-02    0.131E-01
DAV:   5    -0.132407603733E+04    0.56302E-05   -0.13951E-04 26010   0.433E-02
  61 F= -.13240760E+04 E0= -.13240760E+04  d E =0.258460E-02  mag=   114.0000
       N       E                     dE             d eps       ncg     rms          rms(c)
DAV:   1    -0.132406281304E+04    0.13230E-01   -0.80308E-01 44660   0.352E+00    0.595E-01
DAV:   2    -0.132407876044E+04   -0.15947E-01   -0.14729E-01 36620   0.617E-01    0.304E-01
DAV:   3    -0.132407877071E+04   -0.10274E-04   -0.54320E-03 37130   0.176E-01    0.196E-01
DAV:   4    -0.132407899750E+04   -0.22679E-03   -0.61342E-04 36290   0.716E-02    0.107E-01
DAV:   5    -0.132407880725E+04    0.19025E-03   -0.46542E-05 21030   0.265E-02    0.765E-02
DAV:   6    -0.132407874771E+04    0.59549E-04   -0.83503E-05 24840   0.336E-02    0.301E-02
DAV:   7    -0.132407876040E+04   -0.12693E-04   -0.52503E-05 20730   0.158E-02
  62 F= -.13240788E+04 E0= -.13240788E+04  d E =-.272307E-02  mag=   114.0000
       N       E                     dE             d eps       ncg     rms          rms(c)
DAV:   1    -0.132407234529E+04    0.64024E-02   -0.22757E-01 47640   0.212E+00    0.375E-01
DAV:   2    -0.132407851764E+04   -0.61723E-02   -0.56341E-02 36270   0.360E-01    0.173E-01
DAV:   3    -0.132407866264E+04   -0.14500E-03   -0.17414E-03 37060   0.788E-02    0.844E-02
DAV:   4    -0.132407861097E+04    0.51672E-04   -0.12037E-04 24790   0.233E-02    0.657E-02
DAV:   5    -0.132407862963E+04   -0.18665E-04   -0.25524E-05 19030   0.189E-02
  63 F= -.13240786E+04 E0= -.13240786E+04  d E =0.130765E-03  mag=   114.0000
       N       E                     dE             d eps       ncg     rms          rms(c)
DAV:   1    -0.132399231290E+04    0.86298E-01   -0.43519E+00 45460   0.818E+00    0.127E+00
DAV:   2    -0.132407127676E+04   -0.78964E-01   -0.73895E-01 35190   0.135E+00    0.653E-01
DAV:   3    -0.132407254003E+04   -0.12633E-02   -0.24203E-02 37210   0.278E-01    0.285E-01
DAV:   4    -0.132407241770E+04    0.12233E-03   -0.13996E-03 40510   0.658E-02    0.205E-01
DAV:   5    -0.132407224171E+04    0.17599E-03   -0.32999E-04 35320   0.734E-02    0.117E-01
DAV:   6    -0.132407204180E+04    0.19991E-03   -0.51708E-04 38190   0.689E-02    0.944E-02
DAV:   7    -0.132407225414E+04   -0.21234E-03   -0.17893E-04 28400   0.421E-02    0.226E-02
DAV:   8    -0.132407218574E+04    0.68396E-04   -0.17558E-05 18020   0.107E-02    0.155E-02
DAV:   9    -0.132407215625E+04    0.29495E-04   -0.39431E-06 17930   0.622E-03
  64 F= -.13240722E+04 E0= -.13240722E+04  d E =0.647339E-02  mag=   114.0000
       N       E                     dE             d eps       ncg     rms          rms(c)
DAV:   1    -0.132405633894E+04    0.15847E-01   -0.60476E-01 45400   0.315E+00    0.571E-01
DAV:   2    -0.132407107883E+04   -0.14740E-01   -0.13867E-01 37000   0.558E-01    0.275E-01
DAV:   3    -0.132407129619E+04   -0.21736E-03   -0.41255E-03 37140   0.122E-01    0.143E-01
DAV:   4    -0.132407132267E+04   -0.26477E-04   -0.26547E-04 29600   0.349E-02
  65 F= -.13240713E+04 E0= -.13240713E+04  d E =0.833576E-03  mag=   114.0000
       N       E                     dE             d eps       ncg     rms          rms(c)
DAV:   1    -0.132406438902E+04    0.69072E-02   -0.26477E-01 48340   0.244E+00    0.413E-01
DAV:   2    -0.132407234099E+04   -0.79520E-02   -0.69637E-02 36600   0.405E-01    0.221E-01
DAV:   3    -0.132407238013E+04   -0.39138E-04   -0.28428E-03 37120   0.121E-01    0.139E-01
DAV:   4    -0.132407254466E+04   -0.16453E-03   -0.31362E-04 31440   0.520E-02    0.788E-02
DAV:   5    -0.132407244546E+04    0.99201E-04   -0.34733E-05 19810   0.235E-02    0.535E-02
DAV:   6    -0.132407245824E+04   -0.12786E-04   -0.39437E-05 19330   0.231E-02
  66 F= -.13240725E+04 E0= -.13240725E+04  d E =-.113557E-02  mag=   114.0000
       N       E                     dE             d eps       ncg     rms          rms(c)
DAV:   1    -0.132406859669E+04    0.38488E-02   -0.18590E-01 42680   0.152E+00    0.254E-01
DAV:   2    -0.132407152537E+04   -0.29287E-02   -0.28716E-02 36870   0.273E-01    0.121E-01
DAV:   3    -0.132407153600E+04   -0.10630E-04   -0.82853E-04 36170   0.553E-02    0.607E-02
DAV:   4    -0.132407155657E+04   -0.20566E-04   -0.50433E-05 21490   0.148E-02
  67 F= -.13240716E+04 E0= -.13240716E+04  d E =0.901674E-03  mag=   114.0000
       N       E                     dE             d eps       ncg     rms          rms(c)
DAV:   1    -0.132402815591E+04    0.43380E-01   -0.23938E+00 43620   0.552E+00    0.936E-01
DAV:   2    -0.132406666971E+04   -0.38514E-01   -0.37834E-01 36900   0.975E-01    0.444E-01
DAV:   3    -0.132406727638E+04   -0.60667E-03   -0.10452E-02 36980   0.198E-01    0.222E-01
DAV:   4    -0.132406713301E+04    0.14337E-03   -0.82563E-04 37410   0.643E-02    0.170E-01
DAV:   5    -0.132406719103E+04   -0.58029E-04   -0.27065E-04 29420   0.582E-02    0.128E-01
DAV:   6    -0.132406695425E+04    0.23678E-03   -0.35286E-04 36680   0.658E-02    0.511E-02
DAV:   7    -0.132406710498E+04   -0.15072E-03   -0.11095E-04 26720   0.276E-02    0.175E-02
DAV:   8    -0.132406709232E+04    0.12658E-04   -0.14385E-05 18050   0.858E-03
  68 F= -.13240671E+04 E0= -.13240671E+04  d E =0.446425E-02  mag=   114.0000
       N       E                     dE             d eps       ncg     rms          rms(c)
DAV:   1    -0.132401375669E+04    0.53348E-01   -0.19108E+00 46660   0.611E+00    0.107E+00
DAV:   2    -0.132406305639E+04   -0.49300E-01   -0.44984E-01 36450   0.104E+00    0.496E-01
DAV:   3    -0.132406407743E+04   -0.10210E-02   -0.13289E-02 37160   0.223E-01    0.238E-01
DAV:   4    -0.132406420954E+04   -0.13211E-03   -0.86908E-04 36950   0.564E-02    0.176E-01
DAV:   5    -0.132406400166E+04    0.20788E-03   -0.23048E-04 30850   0.547E-02    0.131E-01
DAV:   6    -0.132406409945E+04   -0.97793E-04   -0.37677E-04 35720   0.674E-02    0.773E-02
DAV:   7    -0.132406395583E+04    0.14362E-03   -0.14533E-04 27300   0.363E-02    0.198E-02
DAV:   8    -0.132406403764E+04   -0.81812E-04   -0.20290E-05 18250   0.116E-02    0.147E-02
DAV:   9    -0.132406405949E+04   -0.21852E-04   -0.44088E-06 17950   0.598E-03
  69 F= -.13240641E+04 E0= -.13240641E+04  d E =0.303283E-02  mag=   114.0000
       N       E                     dE             d eps       ncg     rms          rms(c)
DAV:   1    -0.132405394027E+04    0.10097E-01   -0.44280E-01 47820   0.304E+00    0.525E-01
DAV:   2    -0.132406621654E+04   -0.12276E-01   -0.10993E-01 36870   0.510E-01    0.250E-01
DAV:   3    -0.132406666248E+04   -0.44594E-03   -0.39296E-03 37200   0.120E-01    0.128E-01
DAV:   4    -0.132406657787E+04    0.84612E-04   -0.24736E-04 29680   0.339E-02    0.874E-02
DAV:   5    -0.132406659472E+04   -0.16851E-04   -0.78091E-05 20770   0.288E-02
  70 F= -.13240666E+04 E0= -.13240666E+04  d E =-.253523E-02  mag=   114.0000
       N       E                     dE             d eps       ncg     rms          rms(c)
DAV:   1    -0.132406359366E+04    0.29842E-02   -0.11211E-01 45650   0.142E+00    0.243E-01
DAV:   2    -0.132406624672E+04   -0.26531E-02   -0.23917E-02 37000   0.248E-01    0.126E-01
DAV:   3    -0.132406621577E+04    0.30948E-04   -0.91128E-04 36000   0.723E-02    0.849E-02
DAV:   4    -0.132406632079E+04   -0.10502E-03   -0.99262E-05 23200   0.293E-02    0.456E-02
DAV:   5    -0.132406625873E+04    0.62057E-04   -0.10330E-05 17940   0.116E-02    0.327E-02
DAV:   6    -0.132406626368E+04   -0.49518E-05   -0.14324E-05 17920   0.137E-02
  71 F= -.13240663E+04 E0= -.13240663E+04  d E =0.331037E-03  mag=   114.0000
       N       E                     dE             d eps       ncg     rms          rms(c)
DAV:   1    -0.132404389848E+04    0.22360E-01   -0.99838E-01 45540   0.389E+00    0.703E-01
DAV:   2    -0.132406433748E+04   -0.20439E-01   -0.19125E-01 36560   0.667E-01    0.321E-01
DAV:   3    -0.132406486961E+04   -0.53214E-03   -0.58075E-03 37040   0.134E-01    0.145E-01
DAV:   4    -0.132406480138E+04    0.68232E-04   -0.40106E-04 30620   0.367E-02    0.109E-01
DAV:   5    -0.132406485154E+04   -0.50162E-04   -0.11179E-04 22650   0.388E-02    0.822E-02
DAV:   6    -0.132406473592E+04    0.11562E-03   -0.16304E-04 26860   0.435E-02    0.426E-02
DAV:   7    -0.132406483378E+04   -0.97861E-04   -0.58321E-05 20620   0.220E-02    0.135E-02
DAV:   8    -0.132406481589E+04    0.17891E-04   -0.87126E-06 17920   0.672E-03
  72 F= -.13240648E+04 E0= -.13240648E+04  d E =0.144779E-02  mag=   114.0000
       N       E                     dE             d eps       ncg     rms          rms(c)
DAV:   1    -0.132400778686E+04    0.57047E-01   -0.28756E+00 44510   0.647E+00    0.111E+00
DAV:   2    -0.132406198246E+04   -0.54196E-01   -0.51126E-01 36570   0.113E+00    0.535E-01
DAV:   3    -0.132406309871E+04   -0.11163E-02   -0.15618E-02 37170   0.230E-01    0.251E-01
DAV:   4    -0.132406293028E+04    0.16843E-03   -0.10448E-03 38640   0.628E-02    0.182E-01
DAV:   5    -0.132406288682E+04    0.43456E-04   -0.30580E-04 33470   0.637E-02
  73 F= -.13240629E+04 E0= -.13240629E+04  d E =0.192907E-02  mag=   114.0000
       N       E                     dE             d eps       ncg     rms          rms(c)
DAV:   1    -0.132405433541E+04    0.85949E-02   -0.31397E-01 48360   0.265E+00    0.468E-01
DAV:   2    -0.132406389122E+04   -0.95558E-02   -0.81666E-02 37190   0.454E-01    0.264E-01
DAV:   3    -0.132406383127E+04    0.59945E-04   -0.39704E-03 37110   0.162E-01    0.191E-01
DAV:   4    -0.132406409999E+04   -0.26871E-03   -0.48234E-04 35140   0.686E-02    0.810E-02
DAV:   5    -0.132406393031E+04    0.16968E-03   -0.33646E-05 19920   0.194E-02    0.582E-02
DAV:   6    -0.132406391081E+04    0.19498E-04   -0.37783E-05 20980   0.228E-02
  74 F= -.13240639E+04 E0= -.13240639E+04  d E =-.102399E-02  mag=   114.0000
       N       E                     dE             d eps       ncg     rms          rms(c)
DAV:   1    -0.132406204083E+04    0.18895E-02   -0.11326E-01 44070   0.137E+00    0.220E-01
DAV:   2    -0.132406436008E+04   -0.23192E-02   -0.22212E-02 36930   0.235E-01    0.113E-01
DAV:   3    -0.132406440096E+04   -0.40883E-04   -0.71886E-04 35490   0.532E-02    0.609E-02
DAV:   4    -0.132406439751E+04    0.34527E-05   -0.42418E-05 21320   0.139E-02
  75 F= -.13240644E+04 E0= -.13240644E+04  d E =-.486695E-03  mag=   114.0000
       N       E                     dE             d eps       ncg     rms          rms(c)
DAV:   1    -0.132405270547E+04    0.11695E-01   -0.50262E-01 46470   0.283E+00    0.515E-01
DAV:   2    -0.132406384071E+04   -0.11135E-01   -0.10033E-01 36390   0.476E-01    0.242E-01
DAV:   3    -0.132406407677E+04   -0.23607E-03   -0.33456E-03 36990   0.105E-01    0.118E-01
DAV:   4    -0.132406412472E+04   -0.47944E-04   -0.27118E-04 29090   0.369E-02
  76 F= -.13240641E+04 E0= -.13240641E+04  d E =0.272790E-03  mag=   114.0000
       N       E                     dE             d eps       ncg     rms          rms(c)
DAV:   1    -0.132319019392E+04    0.87388E+00   -0.38128E+01 45780   0.229E+01    0.466E+00
DAV:   2    -0.132401667998E+04   -0.82649E+00   -0.75133E+00 36410   0.394E+00    0.250E+00
DAV:   3    -0.132403345699E+04   -0.16777E-01   -0.22699E-01 37120   0.827E-01    0.108E+00
DAV:   4    -0.132403362747E+04   -0.17048E-03   -0.15931E-02 39610   0.218E-01    0.809E-01
DAV:   5    -0.132403178625E+04    0.18412E-02   -0.22758E-03 42370   0.172E-01    0.545E-01
DAV:   6    -0.132403126767E+04    0.51858E-03   -0.52725E-03 42960   0.244E-01    0.407E-01
DAV:   7    -0.132403038496E+04    0.88270E-03   -0.33847E-03 38480   0.173E-01    0.108E-01
DAV:   8    -0.132403124874E+04   -0.86378E-03   -0.27994E-04 35720   0.477E-02    0.596E-02
DAV:   9    -0.132403118351E+04    0.65231E-04   -0.43458E-05 20930   0.227E-02    0.330E-02
DAV:  10    -0.132403115684E+04    0.26669E-04   -0.17102E-05 18660   0.136E-02
  77 F= -.13240312E+04 E0= -.13240312E+04  d E =0.329679E-01  mag=   114.0000
       N       E                     dE             d eps       ncg     rms          rms(c)
DAV:   1    -0.132356836253E+04    0.46282E+00   -0.18796E+01 47100   0.177E+01    0.352E+00
DAV:   2    -0.132405085932E+04   -0.48250E+00   -0.42752E+00 36330   0.294E+00    0.185E+00
DAV:   3    -0.132406215963E+04   -0.11300E-01   -0.13289E-01 37140   0.638E-01    0.766E-01
DAV:   4    -0.132406270411E+04   -0.54448E-03   -0.88611E-03 40310   0.153E-01    0.545E-01
DAV:   5    -0.132406174793E+04    0.95618E-03   -0.10388E-03 43590   0.111E-01    0.332E-01
DAV:   6    -0.132406149775E+04    0.25019E-03   -0.14342E-03 44350   0.132E-01    0.171E-01
DAV:   7    -0.132406131448E+04    0.18326E-03   -0.10734E-03 37600   0.909E-02    0.909E-02
DAV:   8    -0.132406171345E+04   -0.39897E-03   -0.12465E-04 26810   0.385E-02    0.334E-02
DAV:   9    -0.132406165362E+04    0.59834E-04   -0.19062E-05 19130   0.148E-02    0.232E-02
DAV:  10    -0.132406159522E+04    0.58398E-04   -0.76239E-06 18090   0.998E-03    0.110E-02
DAV:  11    -0.132406161539E+04   -0.20168E-04   -0.31578E-06 17980   0.504E-03
  78 F= -.13240616E+04 E0= -.13240616E+04  d E =-.304585E-01  mag=   114.0000
       N       E                     dE             d eps       ncg     rms          rms(c)
DAV:   1    -0.132396661946E+04    0.94976E-01   -0.46912E+00 44160   0.785E+00    0.146E+00
DAV:   2    -0.132406053758E+04   -0.93918E-01   -0.89819E-01 37210   0.141E+00    0.747E-01
DAV:   3    -0.132406221668E+04   -0.16791E-02   -0.26008E-02 37220   0.310E-01    0.392E-01
DAV:   4    -0.132406199787E+04    0.21882E-03   -0.17836E-03 38670   0.825E-02    0.276E-01
DAV:   5    -0.132406175611E+04    0.24175E-03   -0.48504E-04 39360   0.781E-02    0.194E-01
DAV:   6    -0.132406146331E+04    0.29281E-03   -0.90075E-04 40250   0.975E-02    0.136E-01
DAV:   7    -0.132406170170E+04   -0.23839E-03   -0.37241E-04 36360   0.581E-02    0.308E-02
DAV:   8    -0.132406159116E+04    0.11053E-03   -0.38860E-05 20130   0.164E-02    0.203E-02
DAV:   9    -0.132406158484E+04    0.63293E-05   -0.78977E-06 18290   0.800E-03
  79 F= -.13240616E+04 E0= -.13240616E+04  d E =0.305507E-04  mag=   114.0000
       N       E                     dE             d eps       ncg     rms          rms(c)
DAV:   1    -0.132402149971E+04    0.40091E-01   -0.18849E+00 45390   0.529E+00    0.968E-01
DAV:   2    -0.132406331920E+04   -0.41819E-01   -0.38541E-01 36710   0.924E-01    0.483E-01
DAV:   3    -0.132406397613E+04   -0.65693E-03   -0.11993E-02 37180   0.200E-01    0.239E-01
DAV:   4    -0.132406404350E+04   -0.67364E-04   -0.84184E-04 38120   0.570E-02    0.172E-01
DAV:   5    -0.132406382769E+04    0.21581E-03   -0.21893E-04 29320   0.544E-02    0.128E-01
DAV:   6    -0.132406386684E+04   -0.39159E-04   -0.37933E-04 36880   0.649E-02
  80 F= -.13240639E+04 E0= -.13240639E+04  d E =-.228201E-02  mag=   114.0000
       N       E                     dE             d eps       ncg     rms          rms(c)
DAV:   1    -0.132406180692E+04    0.20208E-02   -0.65559E-02 45630   0.104E+00    0.189E-01
DAV:   2    -0.132406341019E+04   -0.16033E-02   -0.14212E-02 36540   0.181E-01    0.887E-02
DAV:   3    -0.132406343178E+04   -0.21583E-04   -0.43281E-04 31290   0.390E-02    0.447E-02
DAV:   4    -0.132406342740E+04    0.43723E-05   -0.30856E-05 20220   0.106E-02
  81 F= -.13240634E+04 E0= -.13240634E+04  d E =0.439441E-03  mag=   114.0000
       N       E                     dE             d eps       ncg     rms          rms(c)
DAV:   1    -0.132394931419E+04    0.11412E+00   -0.54875E+00 44820   0.881E+00    0.152E+00
DAV:   2    -0.132405471006E+04   -0.10540E+00   -0.99195E-01 36360   0.153E+00    0.753E-01
DAV:   3    -0.132405620281E+04   -0.14928E-02   -0.29189E-02 37180   0.303E-01    0.353E-01
DAV:   4    -0.132405605120E+04    0.15161E-03   -0.18928E-03 39420   0.816E-02    0.264E-01
DAV:   5    -0.132405580869E+04    0.24251E-03   -0.60328E-04 39560   0.913E-02    0.187E-01
DAV:   6    -0.132405543330E+04    0.37539E-03   -0.92389E-04 40690   0.101E-01    0.113E-01
DAV:   7    -0.132405570938E+04   -0.27608E-03   -0.29332E-04 36030   0.514E-02    0.272E-02
DAV:   8    -0.132405562932E+04    0.80059E-04   -0.25114E-05 19000   0.118E-02    0.198E-02
DAV:   9    -0.132405561287E+04    0.16453E-04   -0.53421E-06 18000   0.744E-03
  82 F= -.13240556E+04 E0= -.13240556E+04  d E =0.781453E-02  mag=   114.0000
       N       E                     dE             d eps       ncg     rms          rms(c)
DAV:   1    -0.132399695758E+04    0.58672E-01   -0.28279E+00 45640   0.662E+00    0.120E+00
DAV:   2    -0.132406152421E+04   -0.64567E-01   -0.59176E-01 36340   0.113E+00    0.588E-01
DAV:   3    -0.132406228600E+04   -0.76179E-03   -0.16851E-02 37200   0.239E-01    0.287E-01
DAV:   4    -0.132406237190E+04   -0.85905E-04   -0.11145E-03 37960   0.657E-02    0.206E-01
DAV:   5    -0.132406208834E+04    0.28357E-03   -0.30417E-04 33600   0.638E-02    0.149E-01
DAV:   6    -0.132406214577E+04   -0.57430E-04   -0.52596E-04 39990   0.766E-02    0.926E-02
DAV:   7    -0.132406193657E+04    0.20919E-03   -0.19175E-04 32010   0.415E-02    0.217E-02
DAV:   8    -0.132406205327E+04   -0.11670E-03   -0.21985E-05 18350   0.112E-02    0.149E-02
DAV:   9    -0.132406206535E+04   -0.12078E-04   -0.39202E-06 17960   0.513E-03
  83 F= -.13240621E+04 E0= -.13240621E+04  d E =-.645248E-02  mag=   114.0000
       N       E                     dE             d eps       ncg     rms          rms(c)
DAV:   1    -0.132405137998E+04    0.10673E-01   -0.46659E-01 45210   0.285E+00    0.497E-01
DAV:   2    -0.132406251798E+04   -0.11138E-01   -0.10361E-01 37160   0.501E-01    0.244E-01
DAV:   3    -0.132406274682E+04   -0.22884E-03   -0.34125E-03 37420   0.113E-01    0.129E-01
DAV:   4    -0.132406270041E+04    0.46408E-04   -0.20842E-04 29080   0.304E-02
  84 F= -.13240627E+04 E0= -.13240627E+04  d E =-.635061E-03  mag=   114.0000
       N       E                     dE             d eps       ncg     rms          rms(c)
DAV:   1    -0.132405873039E+04    0.40164E-02   -0.16620E-01 45470   0.169E+00    0.324E-01
DAV:   2    -0.132406255062E+04   -0.38202E-02   -0.35781E-02 35980   0.302E-01    0.152E-01
DAV:   3    -0.132406283400E+04   -0.28338E-03   -0.15700E-03 36700   0.953E-02    0.104E-01
DAV:   4    -0.132406262671E+04    0.20728E-03   -0.19283E-04 27910   0.415E-02    0.406E-02
DAV:   5    -0.132406271906E+04   -0.92344E-04   -0.13139E-05 17920   0.126E-02    0.284E-02
DAV:   6    -0.132406269969E+04    0.19369E-04   -0.92628E-06 17920   0.994E-03
  85 F= -.13240627E+04 E0= -.13240627E+04  d E =0.719840E-06  mag=   114.0000
       N       E                     dE             d eps       ncg     rms          rms(c)
DAV:   1    -0.132405343718E+04    0.92819E-02   -0.45930E-01 44380   0.248E+00    0.429E-01
DAV:   2    -0.132406153464E+04   -0.80975E-02   -0.77154E-02 36610   0.435E-01    0.201E-01
DAV:   3    -0.132406162344E+04   -0.88802E-04   -0.24067E-03 37340   0.888E-02    0.974E-02
DAV:   4    -0.132406165689E+04   -0.33451E-04   -0.15607E-04 26300   0.244E-02
  86 F= -.13240617E+04 E0= -.13240617E+04  d E =0.104279E-02  mag=   114.0000
       N       E                     dE             d eps       ncg     rms          rms(c)
DAV:   1    -0.132405557553E+04    0.60479E-02   -0.23751E-01 47520   0.198E+00    0.374E-01
DAV:   2    -0.132406158425E+04   -0.60087E-02   -0.51711E-02 36090   0.331E-01    0.193E-01
DAV:   3    -0.132406156707E+04    0.17187E-04   -0.20785E-03 37220   0.954E-02    0.116E-01
DAV:   4    -0.132406172377E+04   -0.15671E-03   -0.23431E-04 27910   0.422E-02    0.681E-02
DAV:   5    -0.132406161073E+04    0.11304E-03   -0.30171E-05 19150   0.206E-02    0.461E-02
DAV:   6    -0.132406162263E+04   -0.11899E-04   -0.34660E-05 19960   0.196E-02
  87 F= -.13240616E+04 E0= -.13240616E+04  d E =0.342611E-04  mag=   114.0000
       N       E                     dE             d eps       ncg     rms          rms(c)
DAV:   1    -0.132403655546E+04    0.25055E-01   -0.13808E+00 44750   0.397E+00    0.772E-01
DAV:   2    -0.132406163950E+04   -0.25084E-01   -0.23779E-01 36300   0.700E-01    0.362E-01
DAV:   3    -0.132406204280E+04   -0.40330E-03   -0.72701E-03 37010   0.147E-01    0.180E-01
DAV:   4    -0.132406202799E+04    0.14811E-04   -0.47741E-04 33250   0.322E-02
  88 F= -.13240620E+04 E0= -.13240620E+04  d E =-.405354E-03  mag=   114.0000
       N       E                     dE             d eps       ncg     rms          rms(c)
DAV:   1    -0.132405794875E+04    0.40940E-02   -0.12936E-01 48540   0.169E+00    0.337E-01
DAV:   2    -0.132406210671E+04   -0.41580E-02   -0.35683E-02 36590   0.291E-01    0.153E-01
DAV:   3    -0.132406217269E+04   -0.65979E-04   -0.13867E-03 37080   0.789E-02    0.817E-02
DAV:   4    -0.132406227711E+04   -0.10442E-03   -0.14609E-04 25030   0.330E-02    0.508E-02
DAV:   5    -0.132406220589E+04    0.71213E-04   -0.22311E-05 18660   0.170E-02    0.339E-02
DAV:   6    -0.132406224120E+04   -0.35303E-04   -0.14051E-05 17950   0.139E-02
  89 F= -.13240622E+04 E0= -.13240622E+04  d E =-.213208E-03  mag=   114.0000
       N       E                     dE             d eps       ncg     rms          rms(c)
DAV:   1    -0.132406098458E+04    0.12213E-02   -0.61911E-02 43360   0.911E-01    0.147E-01
DAV:   2    -0.132406204071E+04   -0.10561E-02   -0.10149E-02 36730   0.160E-01    0.755E-02
DAV:   3    -0.132406204346E+04   -0.27486E-05   -0.31588E-04 30090   0.348E-02    0.396E-02
DAV:   4    -0.132406204339E+04    0.65236E-07   -0.21319E-05 19240   0.979E-03
  90 F= -.13240620E+04 E0= -.13240620E+04  d E =0.197805E-03  mag=   114.0000
       N       E                     dE             d eps       ncg     rms          rms(c)
DAV:   1    -0.132405939581E+04    0.26476E-02   -0.12733E-01 45210   0.127E+00    0.218E-01
DAV:   2    -0.132406156884E+04   -0.21730E-02   -0.20708E-02 36150   0.221E-01    0.108E-01
DAV:   3    -0.132406160370E+04   -0.34856E-04   -0.66747E-04 35140   0.452E-02    0.521E-02
DAV:   4    -0.132406157865E+04    0.25046E-04   -0.45611E-05 21080   0.146E-02
  91 F= -.13240616E+04 E0= -.13240616E+04  d E =0.464736E-03  mag=   114.0000
       N       E                     dE             d eps       ncg     rms          rms(c)
DAV:   1    -0.132405606643E+04    0.55373E-02   -0.38212E-01 42380   0.201E+00    0.322E-01
DAV:   2    -0.132406066224E+04   -0.45958E-02   -0.47382E-02 36120   0.360E-01    0.167E-01
DAV:   3    -0.132406079967E+04   -0.13743E-03   -0.15660E-03 36850   0.881E-02    0.101E-01
DAV:   4    -0.132406066430E+04    0.13537E-03   -0.17041E-04 27890   0.366E-02    0.659E-02
DAV:   5    -0.132406073295E+04   -0.68651E-04   -0.40134E-05 19380   0.227E-02    0.448E-02
DAV:   6    -0.132406068177E+04    0.51177E-04   -0.48829E-05 19950   0.221E-02    0.176E-02
DAV:   7    -0.132406071331E+04   -0.31537E-04   -0.20904E-05 17920   0.946E-03
  92 F= -.13240607E+04 E0= -.13240607E+04  d E =0.865343E-03  mag=   114.0000
       N       E                     dE             d eps       ncg     rms          rms(c)
DAV:   1    -0.132405775412E+04    0.29277E-02   -0.12108E-01 48110   0.158E+00    0.277E-01
DAV:   2    -0.132406101462E+04   -0.32605E-02   -0.28650E-02 36750   0.258E-01    0.129E-01
DAV:   3    -0.132406111628E+04   -0.10166E-03   -0.10072E-03 36840   0.574E-02    0.581E-02
DAV:   4    -0.132406111639E+04   -0.11249E-06   -0.60061E-05 21800   0.131E-02
  93 F= -.13240611E+04 E0= -.13240611E+04  d E =-.403081E-03  mag=   114.0000
       N       E                     dE             d eps       ncg     rms          rms(c)
DAV:   1    -0.132406022350E+04    0.89278E-03   -0.28031E-02 48640   0.784E-01    0.143E-01
DAV:   2    -0.132406100436E+04   -0.78086E-03   -0.69469E-03 37080   0.132E-01    0.675E-02
DAV:   3    -0.132406103815E+04   -0.33790E-04   -0.26785E-04 28180   0.341E-02    0.356E-02
DAV:   4    -0.132406101558E+04    0.22570E-04   -0.25747E-05 18630   0.139E-02
  94 F= -.13240610E+04 E0= -.13240610E+04  d E =0.100814E-03  mag=   114.0000
       N       E                     dE             d eps       ncg     rms          rms(c)
DAV:   1    -0.132406073768E+04    0.30047E-03   -0.74252E-03 45500   0.378E-01    0.677E-02
DAV:   2    -0.132406088888E+04   -0.15120E-03   -0.16673E-03 36820   0.649E-02    0.365E-02
DAV:   3    -0.132406093180E+04   -0.42917E-04   -0.70200E-05 20520   0.202E-02    0.238E-02
DAV:   4    -0.132406089483E+04    0.36966E-04   -0.96286E-06 17960   0.942E-03
  95 F= -.13240609E+04 E0= -.13240609E+04  d E =0.120743E-03  mag=   114.0000
