       N       E                     dE             d eps       ncg     rms          rms(c)
DAV:   1     0.428482921246E+04    0.42848E+04   -0.15618E+05  7736   0.146E+03
DAV:   2     0.348961417011E+03   -0.39359E+04   -0.37847E+04  7424   0.429E+02
DAV:   3    -0.325017617017E+03   -0.67398E+03   -0.63481E+03 10104   0.153E+02
DAV:   4    -0.377728283079E+03   -0.52711E+02   -0.52245E+02  9496   0.438E+01
DAV:   5    -0.379035979742E+03   -0.13077E+01   -0.13050E+01  9864   0.823E+00    0.714E+01
DAV:   6    -0.329231247468E+03    0.49805E+02   -0.40034E+02  9928   0.524E+01    0.432E+01
DAV:   7    -0.325345594671E+03    0.38857E+01   -0.19068E+02  9904   0.412E+01    0.286E+01
DAV:   8    -0.319402673407E+03    0.59429E+01   -0.32067E+01  9960   0.164E+01    0.856E+00
DAV:   9    -0.319926162875E+03   -0.52349E+00   -0.71588E+00 10008   0.704E+00    0.803E+00
DAV:  10    -0.319502905233E+03    0.42326E+00   -0.18525E+00  9888   0.442E+00    0.433E+00
DAV:  11    -0.319437482488E+03    0.65423E-01   -0.50136E-01 10072   0.207E+00    0.196E+00
DAV:  12    -0.319441284100E+03   -0.38016E-02   -0.95922E-02  9768   0.118E+00    0.110E+00
DAV:  13    -0.319439908820E+03    0.13753E-02   -0.33910E-02  9760   0.859E-01    0.608E-01
DAV:  14    -0.319439713506E+03    0.19531E-03   -0.72495E-03  9728   0.398E-01    0.299E-01
DAV:  15    -0.319439862880E+03   -0.14937E-03   -0.32659E-03  9800   0.209E-01    0.116E-01
DAV:  16    -0.319439889125E+03   -0.26245E-04   -0.76953E-04  9768   0.136E-01    0.717E-02
DAV:  17    -0.319439921731E+03   -0.32606E-04   -0.23576E-04  9560   0.609E-02    0.367E-02
DAV:  18    -0.319439947251E+03   -0.25520E-04   -0.33921E-05  6968   0.177E-02    0.217E-02
DAV:  19    -0.319439961775E+03   -0.14524E-04   -0.16536E-05  5432   0.185E-02    0.136E-02
DAV:  20    -0.319439964297E+03   -0.25218E-05   -0.72897E-06  4096   0.145E-02
   1 F= -.31943996E+03 E0= -.31943851E+03  d E =-.319440E+03  mag=     0.0002
       N       E                     dE             d eps       ncg     rms          rms(c)
DAV:   1    -0.319449691002E+03   -0.97292E-02   -0.20470E-03  7832   0.101E-01    0.237E-02
DAV:   2    -0.319449704936E+03   -0.13934E-04   -0.16208E-04  8160   0.325E-02    0.164E-02
DAV:   3    -0.319449703948E+03    0.98797E-06   -0.88781E-06  4656   0.148E-02    0.903E-03
DAV:   4    -0.319449703623E+03    0.32514E-06   -0.24841E-06  4096   0.858E-03
   2 F= -.31944970E+03 E0= -.31944825E+03  d E =-.973933E-02  mag=     0.0000
       N       E                     dE             d eps       ncg     rms          rms(c)
DAV:   1    -0.319915984602E+03   -0.46628E+00   -0.81754E+00  7792   0.641E+00    0.163E+00
DAV:   2    -0.319972842997E+03   -0.56858E-01   -0.65893E-01  8672   0.206E+00    0.103E+00
DAV:   3    -0.319968956399E+03    0.38866E-02   -0.48890E-02  9624   0.103E+00    0.600E-01
DAV:   4    -0.319967096529E+03    0.18599E-02   -0.12674E-02  9872   0.460E-01    0.561E-01
DAV:   5    -0.319965865901E+03    0.12306E-02   -0.58894E-03  9496   0.240E-01    0.304E-01
DAV:   6    -0.319965831529E+03    0.34372E-04   -0.22655E-03  9944   0.129E-01    0.971E-02
DAV:   7    -0.319965794511E+03    0.37018E-04   -0.34837E-04  9888   0.711E-02    0.653E-02
DAV:   8    -0.319965793303E+03    0.12077E-05   -0.92706E-05  9232   0.444E-02
   3 F= -.31996579E+03 E0= -.31996429E+03  d E =-.516090E+00  mag=    -0.0000
       N       E                     dE             d eps       ncg     rms          rms(c)
DAV:   1    -0.320301056039E+03   -0.33526E+00   -0.28264E+01  7664   0.138E+01    0.353E+00
DAV:   2    -0.320553152660E+03   -0.25210E+00   -0.28128E+00  8128   0.419E+00    0.188E+00
DAV:   3    -0.320542555496E+03    0.10597E-01   -0.17855E-01  9664   0.169E+00    0.121E+00
DAV:   4    -0.320536345419E+03    0.62101E-02   -0.49363E-02  9920   0.897E-01    0.114E+00
DAV:   5    -0.320532295563E+03    0.40499E-02   -0.19776E-02  9656   0.459E-01    0.601E-01
DAV:   6    -0.320532132998E+03    0.16256E-03   -0.86127E-03  9984   0.280E-01    0.189E-01
DAV:   7    -0.320531969747E+03    0.16325E-03   -0.16697E-03  9944   0.169E-01    0.125E-01
DAV:   8    -0.320531944191E+03    0.25555E-04   -0.40766E-04  9936   0.866E-02    0.894E-02
DAV:   9    -0.320531917224E+03    0.26968E-04   -0.18429E-04  9784   0.502E-02    0.563E-02
DAV:  10    -0.320531898597E+03    0.18627E-04   -0.12521E-04  8280   0.291E-02    0.267E-02
DAV:  11    -0.320531899355E+03   -0.75762E-06   -0.32266E-05  6440   0.202E-02
   4 F= -.32053190E+03 E0= -.32053037E+03  d E =-.566106E+00  mag=    -0.0000
       N       E                     dE             d eps       ncg     rms          rms(c)
DAV:   1    -0.320463281996E+03    0.68617E-01   -0.14002E+01  7744   0.143E+01    0.172E+00
DAV:   2    -0.320689145522E+03   -0.22586E+00   -0.23872E+00  7576   0.360E+00    0.880E-01
DAV:   3    -0.320690668786E+03   -0.15233E-02   -0.76520E-02  9584   0.968E-01    0.559E-01
DAV:   4    -0.320689524330E+03    0.11445E-02   -0.16446E-02  9856   0.575E-01    0.509E-01
DAV:   5    -0.320688175921E+03    0.13484E-02   -0.76928E-03  9736   0.299E-01    0.234E-01
DAV:   6    -0.320688286367E+03   -0.11045E-03   -0.22820E-03  9992   0.143E-01    0.140E-01
DAV:   7    -0.320688253809E+03    0.32558E-04   -0.39768E-04  9784   0.836E-02    0.102E-01
DAV:   8    -0.320688263813E+03   -0.10004E-04   -0.13872E-04  9640   0.529E-02    0.739E-02
DAV:   9    -0.320688244210E+03    0.19603E-04   -0.10728E-04  8600   0.420E-02    0.366E-02
DAV:  10    -0.320688234593E+03    0.96166E-05   -0.71089E-05  8456   0.234E-02
   5 F= -.32068823E+03 E0= -.32068658E+03  d E =-.156335E+00  mag=     0.0000
       N       E                     dE             d eps       ncg     rms          rms(c)
DAV:   1    -0.320115986565E+03    0.57226E+00   -0.35525E+01  7744   0.262E+01    0.251E+00
DAV:   2    -0.320808418003E+03   -0.69243E+00   -0.72761E+00  7472   0.681E+00    0.150E+00
DAV:   3    -0.320818581712E+03   -0.10164E-01   -0.26772E-01  9976   0.155E+00    0.905E-01
DAV:   4    -0.320814788276E+03    0.37934E-02   -0.41617E-02  9920   0.951E-01    0.819E-01
DAV:   5    -0.320812855726E+03    0.19325E-02   -0.12459E-02 10208   0.351E-01    0.416E-01
DAV:   6    -0.320813178583E+03   -0.32286E-03   -0.40600E-03 10480   0.234E-01    0.265E-01
DAV:   7    -0.320813107641E+03    0.70942E-04   -0.16980E-03 10016   0.194E-01    0.196E-01
DAV:   8    -0.320813095185E+03    0.12455E-04   -0.28736E-04  9920   0.733E-02    0.139E-01
DAV:   9    -0.320813054585E+03    0.40601E-04   -0.21713E-04  9504   0.564E-02    0.754E-02
DAV:  10    -0.320813027884E+03    0.26701E-04   -0.22072E-04  9920   0.561E-02    0.243E-02
DAV:  11    -0.320813029586E+03   -0.17019E-05   -0.38553E-05  7400   0.215E-02
   6 F= -.32081303E+03 E0= -.32081104E+03  d E =-.124795E+00  mag=    -0.0000
       N       E                     dE             d eps       ncg     rms          rms(c)
DAV:   1    -0.320294055037E+03    0.51897E+00   -0.33671E+01  7680   0.237E+01    0.277E+00
DAV:   2    -0.320875860506E+03   -0.58181E+00   -0.61556E+00  7472   0.657E+00    0.173E+00
DAV:   3    -0.320879567668E+03   -0.37072E-02   -0.26813E-01  9968   0.171E+00    0.104E+00
DAV:   4    -0.320874135858E+03    0.54318E-02   -0.40562E-02 10000   0.100E+00    0.938E-01
DAV:   5    -0.320872164337E+03    0.19715E-02   -0.16641E-02 10160   0.367E-01    0.452E-01
DAV:   6    -0.320872499079E+03   -0.33474E-03   -0.63512E-03  9856   0.316E-01    0.262E-01
DAV:   7    -0.320872310802E+03    0.18828E-03   -0.16073E-03  9904   0.195E-01    0.155E-01
DAV:   8    -0.320872358021E+03   -0.47219E-04   -0.29362E-04 10032   0.673E-02    0.101E-01
DAV:   9    -0.320872303604E+03    0.54417E-04   -0.23978E-04 10024   0.594E-02    0.650E-02
DAV:  10    -0.320872270325E+03    0.33280E-04   -0.21813E-04  9552   0.504E-02    0.226E-02
DAV:  11    -0.320872270718E+03   -0.39381E-06   -0.47302E-05  7632   0.228E-02
   7 F= -.32087227E+03 E0= -.32087004E+03  d E =-.592411E-01  mag=    -0.0000
       N       E                     dE             d eps       ncg     rms          rms(c)
DAV:   1    -0.320381940336E+03    0.49033E+00   -0.39952E+01  7568   0.212E+01    0.462E+00
DAV:   2    -0.320910600755E+03   -0.52866E+00   -0.56611E+00  8000   0.679E+00    0.266E+00
DAV:   3    -0.320902769470E+03    0.78313E-02   -0.40529E-01  9904   0.234E+00    0.173E+00
DAV:   4    -0.320887760142E+03    0.15009E-01   -0.80206E-02 10032   0.141E+00    0.147E+00
DAV:   5    -0.320883002556E+03    0.47576E-02   -0.35618E-02  9632   0.486E-01    0.749E-01
DAV:   6    -0.320882889656E+03    0.11290E-03   -0.12141E-02  9824   0.367E-01    0.361E-01
DAV:   7    -0.320882682897E+03    0.20676E-03   -0.18577E-03  9872   0.194E-01    0.202E-01
DAV:   8    -0.320882732094E+03   -0.49198E-04   -0.58382E-04  9936   0.944E-02    0.133E-01
DAV:   9    -0.320882640881E+03    0.91213E-04   -0.39045E-04  9912   0.715E-02    0.667E-02
DAV:  10    -0.320882601714E+03    0.39167E-04   -0.29228E-04  9264   0.473E-02    0.344E-02
DAV:  11    -0.320882601805E+03   -0.91270E-07   -0.61305E-05  7720   0.255E-02
   8 F= -.32088260E+03 E0= -.32088030E+03  d E =-.103311E-01  mag=     0.0000
       N       E                     dE             d eps       ncg     rms          rms(c)
DAV:   1    -0.320906221864E+03   -0.23620E-01   -0.10856E+01  7600   0.665E+00    0.239E+00
DAV:   2    -0.320984308876E+03   -0.78087E-01   -0.88731E-01  9072   0.262E+00    0.153E+00
DAV:   3    -0.320974565727E+03    0.97431E-02   -0.97810E-02  9784   0.140E+00    0.768E-01
DAV:   4    -0.320970870594E+03    0.36951E-02   -0.26633E-02  9952   0.632E-01    0.769E-01
DAV:   5    -0.320969119963E+03    0.17506E-02   -0.10394E-02  9680   0.350E-01    0.418E-01
DAV:   6    -0.320968898771E+03    0.22119E-03   -0.38022E-03  9984   0.214E-01    0.136E-01
DAV:   7    -0.320968869931E+03    0.28840E-04   -0.72496E-04  9856   0.119E-01    0.809E-02
DAV:   8    -0.320968846245E+03    0.23687E-04   -0.23844E-04  9984   0.691E-02    0.533E-02
DAV:   9    -0.320968833611E+03    0.12634E-04   -0.56063E-05  8328   0.246E-02    0.308E-02
DAV:  10    -0.320968830747E+03    0.28642E-05   -0.39315E-05  7648   0.209E-02
   9 F= -.32096883E+03 E0= -.32096685E+03  d E =-.862289E-01  mag=    -0.0000
       N       E                     dE             d eps       ncg     rms          rms(c)
DAV:   1    -0.320969801724E+03   -0.96811E-03   -0.27713E-01  7600   0.234E+00    0.244E-01
DAV:   2    -0.320975111486E+03   -0.53098E-02   -0.55936E-02  7424   0.600E-01    0.120E-01
DAV:   3    -0.320975197115E+03   -0.85629E-04   -0.17733E-03  9776   0.152E-01    0.868E-02
DAV:   4    -0.320975179239E+03    0.17876E-04   -0.33728E-04  9872   0.868E-02    0.734E-02
DAV:   5    -0.320975162701E+03    0.16538E-04   -0.91555E-05  9392   0.378E-02    0.407E-02
DAV:   6    -0.320975166904E+03   -0.42029E-05   -0.38151E-05  6736   0.207E-02
  10 F= -.32097517E+03 E0= -.32097319E+03  d E =-.633616E-02  mag=    -0.0000
       N       E                     dE             d eps       ncg     rms          rms(c)
DAV:   1    -0.320664959661E+03    0.31020E+00   -0.19691E+01  7584   0.177E+01    0.243E+00
DAV:   2    -0.320992287120E+03   -0.32733E+00   -0.34617E+00  7632   0.503E+00    0.160E+00
DAV:   3    -0.320992756107E+03   -0.46899E-03   -0.18234E-01  9984   0.145E+00    0.951E-01
DAV:   4    -0.320987854145E+03    0.49020E-02   -0.29429E-02 10176   0.881E-01    0.853E-01
DAV:   5    -0.320985899616E+03    0.19545E-02   -0.13290E-02  9440   0.310E-01    0.411E-01
DAV:   6    -0.320986062896E+03   -0.16328E-03   -0.40228E-03  9936   0.233E-01    0.211E-01
DAV:   7    -0.320985998970E+03    0.63926E-04   -0.10336E-03  9888   0.154E-01    0.128E-01
DAV:   8    -0.320986022569E+03   -0.23599E-04   -0.24311E-04  9856   0.699E-02    0.838E-02
DAV:   9    -0.320985982086E+03    0.40483E-04   -0.16394E-04  9584   0.461E-02    0.494E-02
DAV:  10    -0.320985961886E+03    0.20200E-04   -0.14242E-04  8944   0.321E-02    0.188E-02
DAV:  11    -0.320985963206E+03   -0.13206E-05   -0.25697E-05  5248   0.161E-02
  11 F= -.32098596E+03 E0= -.32098382E+03  d E =-.107963E-01  mag=     0.0000
       N       E                     dE             d eps       ncg     rms          rms(c)
DAV:   1    -0.320818041772E+03    0.16792E+00   -0.14521E+01  7648   0.136E+01    0.256E+00
DAV:   2    -0.321008380682E+03   -0.19034E+00   -0.20645E+00  7984   0.392E+00    0.149E+00
DAV:   3    -0.321002164906E+03    0.62158E-02   -0.13279E-01  9776   0.155E+00    0.830E-01
DAV:   4    -0.320997987813E+03    0.41771E-02   -0.39006E-02 10080   0.751E-01    0.807E-01
DAV:   5    -0.320995722038E+03    0.22658E-02   -0.10446E-02  9632   0.388E-01    0.422E-01
DAV:   6    -0.320995755247E+03   -0.33209E-04   -0.41675E-03 10288   0.248E-01    0.191E-01
DAV:   7    -0.320995585382E+03    0.16987E-03   -0.15523E-03  9904   0.187E-01    0.131E-01
DAV:   8    -0.320995588085E+03   -0.27027E-05   -0.33624E-04  9840   0.738E-02    0.966E-02
DAV:   9    -0.320995566433E+03    0.21652E-04   -0.10117E-04  9808   0.364E-02    0.593E-02
DAV:  10    -0.320995549694E+03    0.16739E-04   -0.10087E-04  7984   0.224E-02    0.219E-02
DAV:  11    -0.320995551000E+03   -0.13065E-05   -0.30935E-05  6704   0.212E-02
  12 F= -.32099555E+03 E0= -.32099368E+03  d E =-.958779E-02  mag=    -0.0000
       N       E                     dE             d eps       ncg     rms          rms(c)
DAV:   1    -0.320983338465E+03    0.12211E-01   -0.24808E+00  7520   0.539E+00    0.101E+00
DAV:   2    -0.321017037525E+03   -0.33699E-01   -0.36379E-01  8464   0.171E+00    0.741E-01
DAV:   3    -0.321015779510E+03    0.12580E-02   -0.30805E-02  9760   0.637E-01    0.365E-01
DAV:   4    -0.321014968601E+03    0.81091E-03   -0.58835E-03  9904   0.365E-01    0.350E-01
DAV:   5    -0.321014542596E+03    0.42600E-03   -0.23021E-03  9712   0.141E-01    0.172E-01
DAV:   6    -0.321014539356E+03    0.32406E-05   -0.78285E-04 10136   0.109E-01    0.985E-02
DAV:   7    -0.321014517299E+03    0.22057E-04   -0.20427E-04  9856   0.664E-02    0.626E-02
DAV:   8    -0.321014519239E+03   -0.19398E-05   -0.42373E-05  7856   0.280E-02
  13 F= -.32101452E+03 E0= -.32101255E+03  d E =-.189682E-01  mag=     0.0000
       N       E                     dE             d eps       ncg     rms          rms(c)
DAV:   1    -0.321013032669E+03    0.14846E-02   -0.16605E-01  7664   0.165E+00    0.194E-01
DAV:   2    -0.321015758353E+03   -0.27257E-02   -0.28897E-02  7424   0.426E-01    0.918E-02
DAV:   3    -0.321015800203E+03   -0.41849E-04   -0.90035E-04  9664   0.107E-01    0.655E-02
DAV:   4    -0.321015787771E+03    0.12431E-04   -0.18733E-04  9536   0.606E-02    0.563E-02
DAV:   5    -0.321015776282E+03    0.11489E-04   -0.59366E-05  8384   0.280E-02    0.276E-02
DAV:   6    -0.321015778034E+03   -0.17516E-05   -0.14840E-05  4544   0.133E-02
  14 F= -.32101578E+03 E0= -.32101382E+03  d E =-.125880E-02  mag=     0.0000
       N       E                     dE             d eps       ncg     rms          rms(c)
DAV:   1    -0.320696167701E+03    0.31961E+00   -0.17889E+01  7648   0.173E+01    0.194E+00
DAV:   2    -0.321005746735E+03   -0.30958E+00   -0.32594E+00  7424   0.449E+00    0.877E-01
DAV:   3    -0.321010910171E+03   -0.51634E-02   -0.92782E-02  9744   0.964E-01    0.654E-01
DAV:   4    -0.321010292640E+03    0.61753E-03   -0.13596E-02  9936   0.549E-01    0.557E-01
DAV:   5    -0.321009219270E+03    0.10734E-02   -0.65365E-03  9664   0.289E-01    0.252E-01
DAV:   6    -0.321009444220E+03   -0.22495E-03   -0.15202E-03 10240   0.124E-01    0.103E-01
DAV:   7    -0.321009456926E+03   -0.12706E-04   -0.49885E-04  9952   0.117E-01    0.793E-02
DAV:   8    -0.321009435394E+03    0.21532E-04   -0.10630E-04  9408   0.569E-02    0.471E-02
DAV:   9    -0.321009423540E+03    0.11854E-04   -0.79339E-05  8512   0.255E-02    0.195E-02
DAV:  10    -0.321009424236E+03   -0.69541E-06   -0.27877E-05  5744   0.212E-02
  15 F= -.32100942E+03 E0= -.32100751E+03  d E =0.635380E-02  mag=    -0.0000
       N       E                     dE             d eps       ncg     rms          rms(c)
DAV:   1    -0.320402212640E+03    0.60721E+00   -0.29964E+01  7584   0.233E+01    0.324E+00
DAV:   2    -0.320936625053E+03   -0.53441E+00   -0.56487E+00  7520   0.635E+00    0.170E+00
DAV:   3    -0.320937658916E+03   -0.10339E-02   -0.24643E-01  9712   0.187E+00    0.106E+00
DAV:   4    -0.320931902996E+03    0.57559E-02   -0.57378E-02 10016   0.102E+00    0.982E-01
DAV:   5    -0.320928634840E+03    0.32682E-02   -0.15138E-02  9776   0.440E-01    0.528E-01
DAV:   6    -0.320928824621E+03   -0.18978E-03   -0.57817E-03 10256   0.297E-01    0.266E-01
DAV:   7    -0.320928622773E+03    0.20185E-03   -0.26586E-03 10016   0.244E-01    0.183E-01
DAV:   8    -0.320928640038E+03   -0.17265E-04   -0.50321E-04  9792   0.967E-02    0.135E-01
DAV:   9    -0.320928602073E+03    0.37966E-04   -0.20533E-04  9856   0.509E-02    0.880E-02
DAV:  10    -0.320928567928E+03    0.34144E-04   -0.18781E-04  9488   0.428E-02    0.314E-02
DAV:  11    -0.320928570112E+03   -0.21837E-05   -0.72826E-05  8592   0.312E-02
  16 F= -.32092857E+03 E0= -.32092661E+03  d E =0.808541E-01  mag=    -0.0000
       N       E                     dE             d eps       ncg     rms          rms(c)
DAV:   1    -0.320908487945E+03    0.20080E-01   -0.48700E+00  7568   0.859E+00    0.142E+00
DAV:   2    -0.320988368531E+03   -0.79881E-01   -0.84543E-01  7920   0.256E+00    0.923E-01
DAV:   3    -0.320987657398E+03    0.71113E-03   -0.58656E-02  9824   0.885E-01    0.496E-01
DAV:   4    -0.320986049765E+03    0.16076E-02   -0.11735E-02 10128   0.544E-01    0.457E-01
DAV:   5    -0.320985281285E+03    0.76848E-03   -0.39021E-03  9968   0.194E-01    0.229E-01
DAV:   6    -0.320985310611E+03   -0.29325E-04   -0.13355E-03 10336   0.144E-01    0.143E-01
DAV:   7    -0.320985262048E+03    0.48562E-04   -0.47313E-04 10016   0.106E-01    0.974E-02
DAV:   8    -0.320985268405E+03   -0.63566E-05   -0.91155E-05  9424   0.381E-02
  17 F= -.32098527E+03 E0= -.32098337E+03  d E =-.566983E-01  mag=     0.0000
       N       E                     dE             d eps       ncg     rms          rms(c)
DAV:   1    -0.320975638761E+03    0.96233E-02   -0.11271E+00  7568   0.405E+00    0.681E-01
DAV:   2    -0.320993143529E+03   -0.17505E-01   -0.18603E-01  7808   0.116E+00    0.396E-01
DAV:   3    -0.320993117261E+03    0.26268E-04   -0.11308E-02  9696   0.396E-01    0.221E-01
DAV:   4    -0.320992787393E+03    0.32987E-03   -0.27962E-03 10128   0.253E-01    0.203E-01
DAV:   5    -0.320992619228E+03    0.16817E-03   -0.78064E-04  9856   0.936E-02    0.103E-01
DAV:   6    -0.320992621871E+03   -0.26436E-05   -0.28121E-04 10400   0.622E-02    0.636E-02
DAV:   7    -0.320992614306E+03    0.75652E-05   -0.10926E-04  9808   0.497E-02    0.453E-02
DAV:   8    -0.320992614625E+03   -0.31908E-06   -0.15776E-05  5248   0.201E-02
  18 F= -.32099261E+03 E0= -.32099073E+03  d E =-.734622E-02  mag=     0.0000
       N       E                     dE             d eps       ncg     rms          rms(c)
DAV:   1    -0.320991001132E+03    0.16132E-02   -0.69855E-02  7520   0.105E+00    0.159E-01
DAV:   2    -0.320992212702E+03   -0.12116E-02   -0.12829E-02  7536   0.293E-01    0.781E-02
DAV:   3    -0.320992228929E+03   -0.16227E-04   -0.53365E-04  9744   0.832E-02    0.490E-02
DAV:   4    -0.320992220652E+03    0.82773E-05   -0.14110E-04  9536   0.548E-02    0.455E-02
DAV:   5    -0.320992211310E+03    0.93420E-05   -0.33768E-05  7232   0.234E-02
  19 F= -.32099221E+03 E0= -.32099033E+03  d E =0.403316E-03  mag=    -0.0000
       N       E                     dE             d eps       ncg     rms          rms(c)
DAV:   1    -0.320974426153E+03    0.17794E-01   -0.78334E-01  7584   0.367E+00    0.443E-01
DAV:   2    -0.320988455224E+03   -0.14029E-01   -0.14786E-01  7424   0.981E-01    0.203E-01
DAV:   3    -0.320988668974E+03   -0.21375E-03   -0.44520E-03  9712   0.222E-01    0.150E-01
DAV:   4    -0.320988636893E+03    0.32081E-04   -0.75538E-04  9760   0.127E-01    0.130E-01
DAV:   5    -0.320988575487E+03    0.61406E-04   -0.28890E-04  9808   0.641E-02    0.695E-02
DAV:   6    -0.320988583749E+03   -0.82616E-05   -0.10611E-04  9808   0.327E-02    0.302E-02
DAV:   7    -0.320988583844E+03   -0.95333E-07   -0.30968E-05  6720   0.285E-02
  20 F= -.32098858E+03 E0= -.32098671E+03  d E =0.362747E-02  mag=    -0.0000
       N       E                     dE             d eps       ncg     rms          rms(c)
DAV:   1    -0.320938392850E+03    0.50191E-01   -0.22459E+00  7536   0.664E+00    0.687E-01
DAV:   2    -0.320982674564E+03   -0.44282E-01   -0.46494E-01  7424   0.175E+00    0.306E-01
DAV:   3    -0.320983504208E+03   -0.82964E-03   -0.13108E-02  9808   0.365E-01    0.227E-01
DAV:   4    -0.320983459512E+03    0.44695E-04   -0.14941E-03  9744   0.181E-01    0.190E-01
DAV:   5    -0.320983344469E+03    0.11504E-03   -0.72251E-04  9840   0.112E-01    0.937E-02
DAV:   6    -0.320983371594E+03   -0.27125E-04   -0.21150E-04 10192   0.457E-02    0.369E-02
DAV:   7    -0.320983372509E+03   -0.91493E-06   -0.62864E-05  8960   0.396E-02
  21 F= -.32098337E+03 E0= -.32098151E+03  d E =0.521133E-02  mag=    -0.0000
       N       E                     dE             d eps       ncg     rms          rms(c)
DAV:   1    -0.320278152215E+03    0.70522E+00   -0.33644E+01  7600   0.259E+01    0.278E+00
DAV:   2    -0.320937172506E+03   -0.65902E+00   -0.69282E+00  7456   0.677E+00    0.121E+00
DAV:   3    -0.320948242400E+03   -0.11070E-01   -0.18900E-01  9856   0.141E+00    0.925E-01
DAV:   4    -0.320947158140E+03    0.10843E-02   -0.28196E-02  9856   0.785E-01    0.784E-01
DAV:   5    -0.320945363462E+03    0.17947E-02   -0.93214E-03  9920   0.378E-01    0.460E-01
DAV:   6    -0.320945626555E+03   -0.26309E-03   -0.41681E-03 10096   0.203E-01    0.196E-01
DAV:   7    -0.320945697373E+03   -0.70818E-04   -0.12861E-03 10048   0.169E-01    0.158E-01
DAV:   8    -0.320945663614E+03    0.33759E-04   -0.32277E-04  9904   0.956E-02    0.108E-01
DAV:   9    -0.320945635199E+03    0.28415E-04   -0.10686E-04  9856   0.364E-02    0.534E-02
DAV:  10    -0.320945629593E+03    0.56059E-05   -0.81368E-05  8928   0.347E-02
  22 F= -.32094563E+03 E0= -.32094377E+03  d E =0.377429E-01  mag=    -0.0000
       N       E                     dE             d eps       ncg     rms          rms(c)
DAV:   1    -0.320717733328E+03    0.22790E+00   -0.90416E+00  7904   0.150E+01    0.172E+00
DAV:   2    -0.320946150553E+03   -0.22842E+00   -0.23800E+00  7424   0.398E+00    0.787E-01
DAV:   3    -0.320950549429E+03   -0.43989E-02   -0.84027E-02  9808   0.885E-01    0.512E-01
DAV:   4    -0.320950112214E+03    0.43722E-03   -0.14388E-02 10080   0.547E-01    0.459E-01
DAV:   5    -0.320949150754E+03    0.96146E-03   -0.47997E-03  9856   0.306E-01    0.260E-01
DAV:   6    -0.320948984564E+03    0.16619E-03   -0.19695E-03  9168   0.123E-01    0.125E-01
DAV:   7    -0.320949023645E+03   -0.39081E-04   -0.47855E-04  9888   0.833E-02    0.142E-01
DAV:   8    -0.320949017339E+03    0.63058E-05   -0.17004E-04  9856   0.672E-02    0.112E-01
DAV:   9    -0.320949008115E+03    0.92246E-05   -0.27243E-05  6288   0.260E-02
  23 F= -.32094901E+03 E0= -.32094722E+03  d E =-.337852E-02  mag=     0.0000
       N       E                     dE             d eps       ncg     rms          rms(c)
DAV:   1    -0.320850772847E+03    0.98244E-01   -0.52511E+00  7472   0.105E+01    0.115E+00
DAV:   2    -0.320965621694E+03   -0.11485E+00   -0.11991E+00  7424   0.287E+00    0.513E-01
DAV:   3    -0.320967799547E+03   -0.21779E-02   -0.37099E-02  9776   0.595E-01    0.362E-01
DAV:   4    -0.320967657441E+03    0.14211E-03   -0.45972E-03  9840   0.316E-01    0.304E-01
DAV:   5    -0.320967309183E+03    0.34826E-03   -0.19065E-03 10016   0.196E-01    0.182E-01
DAV:   6    -0.320967301464E+03    0.77192E-05   -0.83175E-04  9744   0.891E-02    0.847E-02
DAV:   7    -0.320967315452E+03   -0.13988E-04   -0.21908E-04  9952   0.643E-02    0.751E-02
DAV:   8    -0.320967310628E+03    0.48242E-05   -0.57415E-05  8800   0.400E-02
  24 F= -.32096731E+03 E0= -.32096549E+03  d E =-.183025E-01  mag=     0.0000
       N       E                     dE             d eps       ncg     rms          rms(c)
DAV:   1    -0.320965122073E+03    0.21934E-02   -0.20638E-01  7568   0.166E+00    0.282E-01
DAV:   2    -0.320967997634E+03   -0.28756E-02   -0.30672E-02  7568   0.469E-01    0.123E-01
DAV:   3    -0.320968005319E+03   -0.76844E-05   -0.12042E-03  9744   0.143E-01    0.877E-02
DAV:   4    -0.320967977799E+03    0.27520E-04   -0.30929E-04  9856   0.851E-02    0.786E-02
DAV:   5    -0.320967954439E+03    0.23360E-04   -0.10457E-04  9568   0.343E-02    0.430E-02
DAV:   6    -0.320967955755E+03   -0.13166E-05   -0.36320E-05  7248   0.240E-02
  25 F= -.32096796E+03 E0= -.32096613E+03  d E =-.645128E-03  mag=     0.0000
       N       E                     dE             d eps       ncg     rms          rms(c)
DAV:   1    -0.320964130607E+03    0.38238E-02   -0.13312E-01  7520   0.156E+00    0.179E-01
DAV:   2    -0.320966576328E+03   -0.24457E-02   -0.25652E-02  7520   0.422E-01    0.797E-02
DAV:   3    -0.320966614457E+03   -0.38130E-04   -0.74931E-04  9680   0.934E-02    0.622E-02
DAV:   4    -0.320966609792E+03    0.46658E-05   -0.11536E-04  9120   0.486E-02    0.524E-02
DAV:   5    -0.320966600035E+03    0.97561E-05   -0.42483E-05  7440   0.262E-02
  26 F= -.32096660E+03 E0= -.32096478E+03  d E =0.135572E-02  mag=    -0.0000
