       N       E                     dE             d eps       ncg     rms          rms(c)
DAV:   1     0.344998819558E+04    0.34500E+04   -0.18836E+05 10428   0.128E+03
DAV:   2    -0.372945324274E+02   -0.34873E+04   -0.33479E+04 13164   0.228E+02
DAV:   3    -0.517247941212E+03   -0.47995E+03   -0.47528E+03 12804   0.928E+01
DAV:   4    -0.540397370985E+03   -0.23149E+02   -0.22969E+02 13140   0.228E+01
DAV:   5    -0.541611936026E+03   -0.12146E+01   -0.12126E+01 15180   0.507E+00    0.622E+01
DAV:   6    -0.523677446272E+03    0.17934E+02   -0.36995E+01 11652   0.698E+00    0.420E+01
DAV:   7    -0.522459044989E+03    0.12184E+01   -0.24954E+01 12744   0.565E+00    0.819E+00
DAV:   8    -0.521968121520E+03    0.49092E+00   -0.31944E+00 11928   0.235E+00    0.561E+00
DAV:   9    -0.522011567450E+03   -0.43446E-01   -0.32533E-01 13536   0.847E-01    0.168E+00
DAV:  10    -0.522013168790E+03   -0.16013E-02   -0.30517E-02 12948   0.268E-01    0.110E+00
DAV:  11    -0.522016723188E+03   -0.35544E-02   -0.44822E-03 12216   0.110E-01    0.719E-01
DAV:  12    -0.522020347120E+03   -0.36239E-02   -0.43553E-03 11256   0.109E-01    0.143E-01
DAV:  13    -0.522020794767E+03   -0.44765E-03   -0.76539E-04 15012   0.390E-02    0.162E-01
DAV:  14    -0.522020847773E+03   -0.53006E-04   -0.85151E-05 13032   0.130E-02    0.110E-01
DAV:  15    -0.522020926444E+03   -0.78671E-04   -0.60087E-05 10440   0.121E-02    0.516E-02
DAV:  16    -0.522020944813E+03   -0.18369E-04   -0.26544E-05  9540   0.749E-03    0.120E-02
DAV:  17    -0.522020949234E+03   -0.44210E-05   -0.63270E-06  6348   0.399E-03
   1 F= -.52202095E+03 E0= -.52202095E+03  d E =-.522021E+03  mag=     0.0060
       N       E                     dE             d eps       ncg     rms          rms(c)
DAV:   1    -0.522021181495E+03   -0.23668E-03   -0.63101E-04 10872   0.345E-02    0.297E-02
DAV:   2    -0.522021185744E+03   -0.42490E-05   -0.59545E-05 12372   0.115E-02    0.107E-02
DAV:   3    -0.522021185328E+03    0.41610E-06   -0.24198E-06  5964   0.290E-03    0.624E-03
DAV:   4    -0.522021185112E+03    0.21568E-06   -0.11930E-06  5928   0.199E-03
   2 F= -.52202119E+03 E0= -.52202119E+03  d E =-.235878E-03  mag=     0.0010
       N       E                     dE             d eps       ncg     rms          rms(c)
DAV:   1    -0.522022414776E+03   -0.12294E-02   -0.54500E-02 10608   0.318E-01    0.258E-01
DAV:   2    -0.522022806869E+03   -0.39209E-03   -0.50183E-03 14544   0.103E-01    0.810E-02
DAV:   3    -0.522022773659E+03    0.33210E-04   -0.21019E-04 13440   0.229E-02    0.518E-02
DAV:   4    -0.522022762115E+03    0.11543E-04   -0.30892E-05 10212   0.897E-03    0.229E-02
DAV:   5    -0.522022757984E+03    0.41310E-05   -0.13488E-05  7764   0.666E-03
   3 F= -.52202276E+03 E0= -.52202276E+03  d E =-.157287E-02  mag=     0.0001
       N       E                     dE             d eps       ncg     rms          rms(c)
DAV:   1    -0.522023355722E+03   -0.59361E-03   -0.22240E-01 10536   0.596E-01    0.306E-01
DAV:   2    -0.522024855700E+03   -0.15000E-02   -0.17765E-02 15024   0.190E-01    0.135E-01
DAV:   3    -0.522024776185E+03    0.79515E-04   -0.35452E-04 12720   0.302E-02    0.107E-01
DAV:   4    -0.522024744715E+03    0.31470E-04   -0.86727E-05 13032   0.131E-02    0.577E-02
DAV:   5    -0.522024734062E+03    0.10653E-04   -0.28095E-05 10188   0.889E-03    0.199E-02
DAV:   6    -0.522024734253E+03   -0.19083E-06   -0.14763E-05  6816   0.630E-03
   4 F= -.52202473E+03 E0= -.52202473E+03  d E =-.197627E-02  mag=     0.0000
       N       E                     dE             d eps       ncg     rms          rms(c)
DAV:   1    -0.522024404736E+03    0.32933E-03   -0.35487E-01 10512   0.753E-01    0.404E-01
DAV:   2    -0.522026981869E+03   -0.25771E-02   -0.29003E-02 14736   0.244E-01    0.152E-01
DAV:   3    -0.522026846545E+03    0.13532E-03   -0.52117E-04 12288   0.371E-02    0.125E-01
DAV:   4    -0.522026792215E+03    0.54330E-04   -0.19134E-04 12600   0.186E-02    0.642E-02
DAV:   5    -0.522026788273E+03    0.39423E-05   -0.55658E-05 11496   0.104E-02
   5 F= -.52202679E+03 E0= -.52202679E+03  d E =-.205402E-02  mag=     0.0000
       N       E                     dE             d eps       ncg     rms          rms(c)
DAV:   1    -0.522020462881E+03    0.63293E-02   -0.96193E-01 10440   0.127E+00    0.772E-01
DAV:   2    -0.522027697478E+03   -0.72346E-02   -0.82769E-02 14616   0.414E-01    0.283E-01
DAV:   3    -0.522027281257E+03    0.41622E-03   -0.16857E-03 12672   0.671E-02    0.217E-01
DAV:   4    -0.522027110635E+03    0.17062E-03   -0.55975E-04 12792   0.330E-02    0.102E-01
DAV:   5    -0.522027093509E+03    0.17126E-04   -0.14973E-04 14244   0.191E-02    0.471E-02
DAV:   6    -0.522027099071E+03   -0.55622E-05   -0.37704E-05 11076   0.860E-03
   6 F= -.52202710E+03 E0= -.52202710E+03  d E =-.310798E-03  mag=     0.0000
       N       E                     dE             d eps       ncg     rms          rms(c)
DAV:   1    -0.522000422244E+03    0.26671E-01   -0.32907E+00 10368   0.243E+00    0.177E+00
DAV:   2    -0.522025690277E+03   -0.25268E-01   -0.29621E-01 14376   0.794E-01    0.564E-01
DAV:   3    -0.522024191619E+03    0.14987E-02   -0.89150E-03 13164   0.151E-01    0.399E-01
DAV:   4    -0.522023576544E+03    0.61508E-03   -0.20315E-03 13188   0.634E-02    0.176E-01
DAV:   5    -0.522023502940E+03    0.73603E-04   -0.49572E-04 12480   0.355E-02    0.101E-01
DAV:   6    -0.522023522255E+03   -0.19315E-04   -0.16072E-04 14748   0.176E-02    0.102E-01
DAV:   7    -0.522023507486E+03    0.14769E-04   -0.30960E-05  9852   0.765E-03    0.647E-02
DAV:   8    -0.522023500963E+03    0.65225E-05   -0.20673E-05  7716   0.672E-03
   7 F= -.52202350E+03 E0= -.52202350E+03  d E =0.359811E-02  mag=     0.0000
       N       E                     dE             d eps       ncg     rms          rms(c)
DAV:   1    -0.522022243886E+03    0.12636E-02   -0.11527E+00 10380   0.143E+00    0.103E+00
DAV:   2    -0.522031110007E+03   -0.88661E-02   -0.10375E-01 14676   0.470E-01    0.346E-01
DAV:   3    -0.522030536255E+03    0.57375E-03   -0.29987E-03 13224   0.869E-02    0.240E-01
DAV:   4    -0.522030321201E+03    0.21505E-03   -0.73943E-04 13356   0.379E-02    0.103E-01
DAV:   5    -0.522030292379E+03    0.28822E-04   -0.16527E-04 12504   0.214E-02    0.586E-02
DAV:   6    -0.522030299040E+03   -0.66616E-05   -0.61633E-05 12696   0.110E-02
   8 F= -.52203030E+03 E0= -.52203030E+03  d E =-.679808E-02  mag=     0.0000
       N       E                     dE             d eps       ncg     rms          rms(c)
DAV:   1    -0.522029769838E+03    0.52254E-03   -0.75427E-02 10608   0.391E-01    0.367E-01
DAV:   2    -0.522030404869E+03   -0.63503E-03   -0.75395E-03 14544   0.134E-01    0.105E-01
DAV:   3    -0.522030345514E+03    0.59355E-04   -0.33899E-04 13488   0.304E-02    0.555E-02
DAV:   4    -0.522030328952E+03    0.16562E-04   -0.59411E-05 12072   0.120E-02    0.232E-02
DAV:   5    -0.522030325141E+03    0.38112E-05   -0.13404E-05  7152   0.706E-03
   9 F= -.52203033E+03 E0= -.52203033E+03  d E =-.261005E-04  mag=     0.0000
       N       E                     dE             d eps       ncg     rms          rms(c)
DAV:   1    -0.522029999610E+03    0.32934E-03   -0.15184E-01 10464   0.517E-01    0.309E-01
DAV:   2    -0.522031213686E+03   -0.12141E-02   -0.13930E-02 14880   0.174E-01    0.113E-01
DAV:   3    -0.522031145622E+03    0.68065E-04   -0.26986E-04 12588   0.274E-02    0.910E-02
DAV:   4    -0.522031122044E+03    0.23577E-04   -0.80299E-05 12864   0.128E-02    0.451E-02
DAV:   5    -0.522031116711E+03    0.53338E-05   -0.16535E-05  7680   0.768E-03
  10 F= -.52203112E+03 E0= -.52203112E+03  d E =-.791570E-03  mag=     0.0000
