       N       E                     dE             d eps       ncg     rms          ort
DAV:   1     0.289498529829E+04    0.28950E+04   -0.21064E+05  2592   0.138E+03
DAV:   2    -0.717882439333E+03   -0.36129E+04   -0.34637E+04  2592   0.242E+02
DAV:   3    -0.120085126237E+04   -0.48297E+03   -0.47821E+03  2592   0.950E+01
DAV:   4    -0.122384263598E+04   -0.22991E+02   -0.22815E+02  2592   0.230E+01
DAV:   5    -0.122513191894E+04   -0.12893E+01   -0.12873E+01  2592   0.535E+00
SDA:   6    -0.109311916872E+04    0.13201E+03   -0.12873E+01  2592   0.717E+02 0.000E+00
CGA:   7    -0.110901930060E+04   -0.15900E+02   -0.15903E+02  2592   0.652E+01 0.932E-01
CGA:   8    -0.111093662533E+04   -0.19173E+01   -0.19077E+01  2592   0.152E+01 0.897E-01
CGA:   9    -0.111143928250E+04   -0.50266E+00   -0.50242E+00  2592   0.408E+00 0.205E-02
CGA:  10    -0.111159335179E+04   -0.15407E+00   -0.15548E+00  2592   0.107E+00-0.908E-02
CGA:  11    -0.111163317216E+04   -0.39820E-01   -0.39980E-01  2592   0.263E-01-0.102E-02
CGA:  12    -0.111164215118E+04   -0.89790E-02   -0.89935E-02  2592   0.552E-02-0.130E-03
CGA:  13    -0.111164451380E+04   -0.23626E-02   -0.25169E-02  2592   0.173E-02-0.693E-03
CGA:  14    -0.111164503959E+04   -0.52579E-03   -0.51820E-03  2592   0.397E-03 0.779E-04
CGA:  15    -0.111164514116E+04   -0.10157E-03   -0.10213E-03  2592   0.114E-03 0.143E-03
CGA:  16    -0.111164516372E+04   -0.22565E-04   -0.28049E-04  2592   0.447E-04 0.786E-04
CGA:  17    -0.111164517211E+04   -0.83884E-05   -0.93644E-05  2592   0.210E-04 0.263E-04
   1 F= -.11116452E+04 E0= -.11116452E+04  d E =-.111165E+04  mag=     0.0000
       N       E                     dE             d eps       ncg     rms          ort
SDA:   1    -0.111164540369E+04   -0.23997E-03    0.00000E+00  2592   0.285E-03 0.000E+00
CGA:   2    -0.111164547582E+04   -0.72129E-04   -0.71828E-04  2592   0.622E-04 0.302E-04
CGA:   3    -0.111164549075E+04   -0.14923E-04   -0.15373E-04  2592   0.159E-04 0.241E-04
CGA:   4    -0.111164549408E+04   -0.33319E-05   -0.39843E-05  2592   0.628E-05 0.108E-04
   2 F= -.11116455E+04 E0= -.11116455E+04  d E =-.321965E-03  mag=    -0.0000
       N       E                     dE             d eps       ncg     rms          ort
SDA:   1    -0.111163414421E+04    0.11347E-01    0.00000E+00  2592   0.381E-01 0.000E+00
CGA:   2    -0.111164456232E+04   -0.10418E-01   -0.10419E-01  2592   0.923E-02-0.361E-04
CGA:   3    -0.111164740620E+04   -0.28439E-02   -0.28388E-02  2592   0.228E-02 0.711E-04
CGA:   4    -0.111164813219E+04   -0.72599E-03   -0.72390E-03  2592   0.526E-03 0.282E-04
CGA:   5    -0.111164830351E+04   -0.17132E-03   -0.17058E-03  2592   0.138E-03 0.983E-05
CGA:   6    -0.111164835502E+04   -0.51515E-04   -0.51274E-04  2592   0.321E-04 0.206E-05
CGA:   7    -0.111164836676E+04   -0.11737E-04   -0.11604E-04  2592   0.753E-05 0.131E-05
CGA:   8    -0.111164836999E+04   -0.32256E-05   -0.33390E-05  2592   0.256E-05-0.692E-06
   3 F= -.11116484E+04 E0= -.11116484E+04  d E =-.287591E-02  mag=    -0.0000
       N       E                     dE             d eps       ncg     rms          ort
SDA:   1    -0.111157262806E+04    0.75739E-01    0.00000E+00  2592   0.224E+00 0.000E+00
CGA:   2    -0.111163145081E+04   -0.58823E-01   -0.58823E-01  2592   0.514E-01 0.153E-05
CGA:   3    -0.111164729154E+04   -0.15841E-01   -0.15839E-01  2592   0.130E-01 0.123E-04
CGA:   4    -0.111165136533E+04   -0.40738E-02   -0.40722E-02  2592   0.300E-02 0.309E-04
CGA:   5    -0.111165231186E+04   -0.94653E-03   -0.94509E-03  2592   0.734E-03 0.336E-04
CGA:   6    -0.111165258587E+04   -0.27400E-03   -0.27428E-03  2592   0.168E-03-0.336E-05
CGA:   7    -0.111165264644E+04   -0.60574E-04   -0.60583E-04  2592   0.405E-04-0.172E-06
CGA:   8    -0.111165266137E+04   -0.14926E-04   -0.14818E-04  2592   0.104E-04 0.129E-05
CGA:   9    -0.111165266564E+04   -0.42729E-05   -0.42950E-05  2592   0.330E-05-0.201E-06
   4 F= -.11116527E+04 E0= -.11116527E+04  d E =-.429565E-02  mag=     0.0000
       N       E                     dE             d eps       ncg     rms          ort
SDA:   1    -0.111156936153E+04    0.83300E-01    0.00000E+00  2592   0.242E+00 0.000E+00
CGA:   2    -0.111163342535E+04   -0.64064E-01   -0.64067E-01  2592   0.552E-01 0.187E-04
CGA:   3    -0.111165022285E+04   -0.16797E-01   -0.16798E-01  2592   0.143E-01-0.936E-04
CGA:   4    -0.111165472256E+04   -0.44997E-02   -0.45004E-02  2592   0.336E-02-0.396E-04
CGA:   5    -0.111165578179E+04   -0.10592E-02   -0.10585E-02  2592   0.807E-03 0.341E-04
CGA:   6    -0.111165608398E+04   -0.30219E-03   -0.30297E-03  2592   0.192E-03-0.108E-04
CGA:   7    -0.111165615282E+04   -0.68843E-04   -0.68959E-04  2592   0.463E-04-0.192E-05
CGA:   8    -0.111165616945E+04   -0.16626E-04   -0.16523E-04  2592   0.119E-04 0.178E-05
CGA:   9    -0.111165617462E+04   -0.51723E-05   -0.53652E-05  2592   0.468E-05-0.151E-05
   5 F= -.11116562E+04 E0= -.11116562E+04  d E =-.350898E-02  mag=    -0.0000
       N       E                     dE             d eps       ncg     rms          ort
SDA:   1    -0.111133887792E+04    0.31729E+00    0.00000E+00  2592   0.839E+00 0.000E+00
CGA:   2    -0.111157561009E+04   -0.23673E+00   -0.23673E+00  2592   0.200E+00-0.112E-03
CGA:   3    -0.111163484155E+04   -0.59231E-01   -0.59233E-01  2592   0.532E-01 0.207E-04
CGA:   4    -0.111165154376E+04   -0.16702E-01   -0.16702E-01  2592   0.121E-01-0.587E-04
CGA:   5    -0.111165547533E+04   -0.39316E-02   -0.39311E-02  2592   0.301E-02 0.370E-04
CGA:   6    -0.111165657588E+04   -0.11005E-02   -0.11003E-02  2592   0.684E-03 0.256E-05
CGA:   7    -0.111165682409E+04   -0.24820E-03   -0.24803E-03  2592   0.170E-03 0.341E-05
CGA:   8    -0.111165688915E+04   -0.65061E-04   -0.65310E-04  2592   0.527E-04-0.403E-05
CGA:   9    -0.111165690674E+04   -0.17589E-04   -0.17560E-04  2592   0.140E-04 0.149E-05
CGA:  10    -0.111165691207E+04   -0.53317E-05   -0.53425E-05  2592   0.304E-05-0.232E-06
   6 F= -.11116569E+04 E0= -.11116569E+04  d E =-.737445E-03  mag=     0.0000
       N       E                     dE             d eps       ncg     rms          ort
SDA:   1    -0.111134021300E+04    0.31669E+00    0.00000E+00  2592   0.859E+00 0.000E+00
CGA:   2    -0.111157659615E+04   -0.23638E+00   -0.23639E+00  2592   0.200E+00 0.881E-05
CGA:   3    -0.111163741794E+04   -0.60822E-01   -0.60823E-01  2592   0.517E-01-0.329E-04
CGA:   4    -0.111165363323E+04   -0.16215E-01   -0.16215E-01  2592   0.121E-01-0.194E-04
CGA:   5    -0.111165753891E+04   -0.39057E-02   -0.39055E-02  2592   0.307E-02 0.502E-04
CGA:   6    -0.111165865391E+04   -0.11150E-02   -0.11158E-02  2592   0.756E-03-0.208E-04
CGA:   7    -0.111165892086E+04   -0.26696E-03   -0.26673E-03  2592   0.176E-03 0.657E-05
CGA:   8    -0.111165898792E+04   -0.67057E-04   -0.67057E-04  2592   0.490E-04-0.869E-07
CGA:   9    -0.111165900627E+04   -0.18354E-04   -0.18392E-04  2592   0.141E-04-0.802E-06
CGA:  10    -0.111165901124E+04   -0.49662E-05   -0.49818E-05  2592   0.342E-05-0.518E-06
   7 F= -.11116590E+04 E0= -.11116590E+04  d E =-.209917E-02  mag=    -0.0000
       N       E                     dE             d eps       ncg     rms          ort
SDA:   1    -0.111157241151E+04    0.86595E-01    0.00000E+00  2592   0.247E+00 0.000E+00
CGA:   2    -0.111163813799E+04   -0.65726E-01   -0.65728E-01  2592   0.575E-01 0.441E-04
CGA:   3    -0.111165544882E+04   -0.17311E-01   -0.17310E-01  2592   0.149E-01-0.507E-04
CGA:   4    -0.111166015832E+04   -0.47095E-02   -0.47093E-02  2592   0.347E-02-0.334E-04
CGA:   5    -0.111166128609E+04   -0.11278E-02   -0.11279E-02  2592   0.871E-03-0.290E-04
CGA:   6    -0.111166159404E+04   -0.30794E-03   -0.30750E-03  2592   0.195E-03 0.127E-04
CGA:   7    -0.111166166747E+04   -0.73427E-04   -0.73545E-04  2592   0.496E-04-0.254E-05
CGA:   8    -0.111166168566E+04   -0.18199E-04   -0.18201E-04  2592   0.136E-04-0.632E-07
CGA:   9    -0.111166169053E+04   -0.48680E-05   -0.48579E-05  2592   0.367E-05 0.333E-06
   8 F= -.11116617E+04 E0= -.11116617E+04  d E =-.267929E-02  mag=    -0.0000
       N       E                     dE             d eps       ncg     rms          ort
SDA:   1    -0.111164941232E+04    0.12273E-01    0.00000E+00  2592   0.351E-01 0.000E+00
CGA:   2    -0.111165883459E+04   -0.94223E-02   -0.94219E-02  2592   0.779E-02-0.102E-04
CGA:   3    -0.111166131052E+04   -0.24759E-02   -0.24759E-02  2592   0.205E-02-0.108E-04
CGA:   4    -0.111166194537E+04   -0.63485E-03   -0.63509E-03  2592   0.487E-03 0.135E-04
CGA:   5    -0.111166211044E+04   -0.16507E-03   -0.16512E-03  2592   0.136E-03-0.467E-05
CGA:   6    -0.111166215786E+04   -0.47420E-04   -0.47378E-04  2592   0.321E-04 0.158E-05
CGA:   7    -0.111166216992E+04   -0.12066E-04   -0.12080E-04  2592   0.808E-05-0.328E-06
CGA:   8    -0.111166217294E+04   -0.30134E-05   -0.30219E-05  2592   0.222E-05-0.185E-06
   9 F= -.11116622E+04 E0= -.11116622E+04  d E =-.482404E-03  mag=     0.0000
