       N       E                     dE             d eps       ncg     rms          rms(c)
DAV:   1     0.305347336382E+04    0.30535E+04   -0.25780E+05 11532   0.130E+03
DAV:   2    -0.604874188987E+03   -0.36583E+04   -0.35317E+04 14028   0.298E+02
DAV:   3    -0.863843114891E+03   -0.25897E+03   -0.25639E+03 13980   0.835E+01
DAV:   4    -0.867125174535E+03   -0.32821E+01   -0.32695E+01 14052   0.101E+01
DAV:   5    -0.867182000858E+03   -0.56826E-01   -0.56687E-01 14316   0.123E+00    0.985E+01
DAV:   6    -0.775146744022E+03    0.92035E+02   -0.38487E+02 13116   0.315E+01    0.511E+01
DAV:   7    -0.783337322306E+03   -0.81906E+01   -0.30183E+01 13704   0.105E+01    0.201E+01
DAV:   8    -0.786416550513E+03   -0.30792E+01   -0.20532E+01 15912   0.660E+00    0.131E+01
DAV:   9    -0.789262359831E+03   -0.28458E+01   -0.26696E+01 15420   0.506E+00    0.992E+00
DAV:  10    -0.789378197428E+03   -0.11584E+00   -0.65373E+00 14796   0.359E+00    0.741E+00
DAV:  11    -0.790012922100E+03   -0.63472E+00   -0.57747E+00 14904   0.257E+00    0.802E+00
DAV:  12    -0.790130914473E+03   -0.11799E+00   -0.66765E+00 16056   0.208E+00    0.476E+00
DAV:  13    -0.790137138080E+03   -0.62236E-02   -0.12306E+00 15180   0.154E+00    0.468E+00
DAV:  14    -0.790346479041E+03   -0.20934E+00   -0.10653E+00 15240   0.145E+00    0.496E+00
DAV:  15    -0.790264013826E+03    0.82465E-01   -0.11655E+00 16020   0.993E-01    0.344E+00
DAV:  16    -0.790334023165E+03   -0.70009E-01   -0.16916E+00 16344   0.106E+00    0.375E+00
DAV:  17    -0.790334690113E+03   -0.66695E-03   -0.78115E-01 15516   0.806E-01    0.292E+00
DAV:  18    -0.790359443946E+03   -0.24754E-01   -0.15488E-01 15204   0.750E-01    0.255E+00
DAV:  19    -0.790358674473E+03    0.76947E-03   -0.14302E-01 15288   0.582E-01    0.295E+00
DAV:  20    -0.790355845563E+03    0.28289E-02   -0.12316E-02 12396   0.230E-01    0.297E+00
DAV:  21    -0.790352100604E+03    0.37450E-02   -0.36160E-04 14304   0.407E-02    0.294E+00
DAV:  22    -0.790352931817E+03   -0.83121E-03   -0.21222E-04 13728   0.321E-02    0.290E+00
DAV:  23    -0.790354584426E+03   -0.16526E-02   -0.40444E-02 13956   0.257E-01    0.244E+00
DAV:  24    -0.790333848105E+03    0.20736E-01   -0.64078E-02 15276   0.396E-01    0.154E+00
DAV:  25    -0.790334058263E+03   -0.21016E-03   -0.40430E-02 13776   0.417E-01    0.145E+00
DAV:  26    -0.790344287662E+03   -0.10229E-01   -0.42040E-02 13296   0.299E-01    0.140E+00
DAV:  27    -0.790352231998E+03   -0.79443E-02   -0.85978E-03 13572   0.216E-01    0.131E+00
DAV:  28    -0.790363156009E+03   -0.10924E-01   -0.86821E-03 13956   0.181E-01    0.148E+00
DAV:  29    -0.790367390159E+03   -0.42341E-02   -0.22386E-03 14064   0.100E-01    0.149E+00
DAV:  30    -0.790368951203E+03   -0.15610E-02   -0.20455E-03 14424   0.105E-01    0.132E+00
DAV:  31    -0.790368978256E+03   -0.27053E-04   -0.44701E-03 13992   0.144E-01    0.115E+00
DAV:  32    -0.790366040483E+03    0.29378E-02   -0.10703E-02 14316   0.242E-01    0.743E-01
DAV:  33    -0.790364283906E+03    0.17566E-02   -0.48477E-03 13368   0.120E-01    0.526E-01
DAV:  34    -0.790364273504E+03    0.10402E-04   -0.45733E-04 13836   0.424E-02    0.507E-01
DAV:  35    -0.790364083815E+03    0.18969E-03   -0.27040E-04 13764   0.415E-02    0.444E-01
DAV:  36    -0.790363317235E+03    0.76658E-03   -0.12597E-03 13776   0.720E-02    0.308E-01
DAV:  37    -0.790362982410E+03    0.33482E-03   -0.69939E-04 13932   0.537E-02    0.207E-01
DAV:  38    -0.790362867831E+03    0.11458E-03   -0.14312E-04 14052   0.267E-02    0.148E-01
DAV:  39    -0.790362884509E+03   -0.16678E-04   -0.81490E-05 14400   0.210E-02    0.125E-01
DAV:  40    -0.790362882447E+03    0.20619E-05   -0.62434E-05 13332   0.154E-02
   1 F= -.79036288E+03 E0= -.79034317E+03  d E =-.790363E+03  mag=    -1.9986
       N       E                     dE             d eps       ncg     rms          rms(c)
DAV:   1    -0.790363519952E+03   -0.63544E-03   -0.95295E-03 11808   0.174E-01    0.192E-01
DAV:   2    -0.790364501981E+03   -0.98203E-03   -0.10512E-02 16560   0.143E-01    0.812E-01
DAV:   3    -0.790363056067E+03    0.14459E-02   -0.59475E-03 16080   0.111E-01    0.106E-01
DAV:   4    -0.790363430664E+03   -0.37460E-03   -0.51209E-04 13224   0.388E-02    0.789E-02
DAV:   5    -0.790363482502E+03   -0.51838E-04   -0.83812E-05 12996   0.198E-02    0.850E-02
DAV:   6    -0.790363462580E+03    0.19922E-04   -0.43243E-05  9312   0.118E-02    0.280E-02
DAV:   7    -0.790363464695E+03   -0.21150E-05   -0.26193E-05  7548   0.797E-03
   2 F= -.79036346E+03 E0= -.79034358E+03  d E =-.582248E-03  mag=    -1.9994
       N       E                     dE             d eps       ncg     rms          rms(c)
DAV:   1    -0.790364102691E+03   -0.64011E-03   -0.20596E-02 11808   0.256E-01    0.218E-01
DAV:   2    -0.790364788812E+03   -0.68612E-03   -0.76167E-03 16704   0.152E-01    0.735E-01
DAV:   3    -0.790363744970E+03    0.10438E-02   -0.43633E-03 16452   0.113E-01    0.109E-01
DAV:   4    -0.790364039216E+03   -0.29425E-03   -0.43344E-04 12912   0.382E-02    0.478E-02
DAV:   5    -0.790364058973E+03   -0.19756E-04   -0.52706E-05 13740   0.184E-02    0.341E-02
DAV:   6    -0.790364055701E+03    0.32714E-05   -0.19759E-05  8796   0.100E-02
   3 F= -.79036406E+03 E0= -.79034424E+03  d E =-.591006E-03  mag=    -1.9995
       N       E                     dE             d eps       ncg     rms          rms(c)
DAV:   1    -0.790365834689E+03   -0.17757E-02   -0.95120E-01 11544   0.171E+00    0.124E+00
DAV:   2    -0.790387480154E+03   -0.21645E-01   -0.42825E-01 16728   0.886E-01    0.374E+00
DAV:   3    -0.790359868846E+03    0.27611E-01   -0.13921E-01 16500   0.604E-01    0.963E-01
DAV:   4    -0.790363309875E+03   -0.34410E-02   -0.15713E-02 13524   0.218E-01    0.288E-01
DAV:   5    -0.790364324092E+03   -0.10142E-02   -0.24558E-03 13860   0.117E-01    0.161E-01
DAV:   6    -0.790364445742E+03   -0.12165E-03   -0.82252E-04 14088   0.575E-02    0.151E-01
DAV:   7    -0.790364404272E+03    0.41469E-04   -0.25348E-04 14412   0.378E-02    0.710E-02
DAV:   8    -0.790364400274E+03    0.39980E-05   -0.13696E-04 13824   0.239E-02    0.471E-02
DAV:   9    -0.790364400425E+03   -0.15010E-06   -0.67287E-05 12084   0.165E-02
   4 F= -.79036440E+03 E0= -.79034473E+03  d E =-.344723E-03  mag=    -1.9997
       N       E                     dE             d eps       ncg     rms          rms(c)
DAV:   1    -0.790362521508E+03    0.18788E-02   -0.40439E+00 11520   0.347E+00    0.214E+00
DAV:   2    -0.790417120831E+03   -0.54599E-01   -0.12980E+00 16524   0.157E+00    0.555E+00
DAV:   3    -0.790360408408E+03    0.56712E-01   -0.29570E-01 16272   0.963E-01    0.225E+00
DAV:   4    -0.790356314746E+03    0.40937E-02   -0.56177E-02 13992   0.413E-01    0.917E-01
DAV:   5    -0.790358092604E+03   -0.17779E-02   -0.10479E-02 13980   0.220E-01    0.500E-01
DAV:   6    -0.790358843937E+03   -0.75133E-03   -0.50195E-03 14232   0.128E-01    0.289E-01
DAV:   7    -0.790359026483E+03   -0.18255E-03   -0.93879E-04 12996   0.775E-02    0.142E-01
DAV:   8    -0.790359069004E+03   -0.42521E-04   -0.13940E-03 14088   0.577E-02    0.230E-01
DAV:   9    -0.790358975946E+03    0.93058E-04   -0.90635E-04 13812   0.482E-02    0.170E-01
DAV:  10    -0.790358931503E+03    0.44444E-04   -0.46023E-04 13656   0.308E-02    0.616E-02
DAV:  11    -0.790358957236E+03   -0.25733E-04   -0.14177E-04 12000   0.154E-02    0.647E-02
DAV:  12    -0.790358952118E+03    0.51181E-05   -0.67324E-05  8652   0.104E-02
   5 F= -.79035895E+03 E0= -.79033930E+03  d E =0.544831E-02  mag=    -1.9999
       N       E                     dE             d eps       ncg     rms          rms(c)
DAV:   1    -0.790368420285E+03   -0.94630E-02   -0.25892E+00 11520   0.283E+00    0.271E+00
DAV:   2    -0.790438287268E+03   -0.69867E-01   -0.20198E+00 17976   0.195E+00    0.645E+00
DAV:   3    -0.790363697068E+03    0.74590E-01   -0.37922E-01 16956   0.115E+00    0.304E+00
DAV:   4    -0.790349566611E+03    0.14130E-01   -0.82950E-02 14100   0.518E-01    0.142E+00
DAV:   5    -0.790349710214E+03   -0.14360E-03   -0.15980E-02 14004   0.265E-01    0.752E-01
DAV:   6    -0.790351470961E+03   -0.17607E-02   -0.13684E-02 15168   0.186E-01    0.488E-01
DAV:   7    -0.790352202141E+03   -0.73118E-03   -0.23924E-03 12828   0.116E-01    0.334E-01
DAV:   8    -0.790352078163E+03    0.12398E-03   -0.41502E-03 14568   0.843E-02    0.281E-01
DAV:   9    -0.790352012909E+03    0.65254E-04   -0.17191E-03 12828   0.561E-02    0.176E-01
DAV:  10    -0.790352003048E+03    0.98609E-05   -0.74302E-04 13884   0.353E-02    0.130E-01
DAV:  11    -0.790351983654E+03    0.19394E-04   -0.26083E-04 11928   0.216E-02    0.566E-02
DAV:  12    -0.790351995804E+03   -0.12150E-04   -0.10294E-04 10320   0.134E-02    0.538E-02
DAV:  13    -0.790351988796E+03    0.70080E-05   -0.40203E-05  7680   0.895E-03
   6 F= -.79035199E+03 E0= -.79033258E+03  d E =0.696332E-02  mag=    -1.9999
       N       E                     dE             d eps       ncg     rms          rms(c)
DAV:   1    -0.789275696177E+03    0.10763E+01   -0.96480E+01 11520   0.173E+01    0.979E+00
DAV:   2    -0.789493798444E+03   -0.21810E+00   -0.49502E+00 14736   0.454E+00    0.974E+00
DAV:   3    -0.789583965169E+03   -0.90167E-01   -0.14020E+01 17184   0.291E+00    0.451E+00
DAV:   4    -0.789422654045E+03    0.16131E+00   -0.14804E+00 15684   0.230E+00    0.455E+00
DAV:   5    -0.789350575648E+03    0.72078E-01   -0.17986E+00 16548   0.144E+00    0.274E+00
DAV:   6    -0.789302377675E+03    0.48198E-01   -0.25112E-01 14172   0.774E-01    0.243E+00
DAV:   7    -0.789262952555E+03    0.39425E-01   -0.10569E-01 14712   0.639E-01    0.181E+00
DAV:   8    -0.789247819407E+03    0.15133E-01   -0.81976E-02 14868   0.499E-01    0.141E+00
DAV:   9    -0.789244844887E+03    0.29745E-02   -0.23176E-02 14472   0.300E-01    0.111E+00
DAV:  10    -0.789249863028E+03   -0.50181E-02   -0.20537E-02 13836   0.229E-01    0.103E+00
DAV:  11    -0.789250669225E+03   -0.80620E-03   -0.40783E-03 14280   0.155E-01    0.709E-01
DAV:  12    -0.789250607158E+03    0.62067E-04   -0.32564E-02 14700   0.328E-01    0.996E-01
DAV:  13    -0.789251001186E+03   -0.39403E-03   -0.49950E-03 13164   0.164E-01    0.866E-01
DAV:  14    -0.789250002008E+03    0.99918E-03   -0.11717E-02 15696   0.199E-01    0.274E-01
DAV:  15    -0.789251339362E+03   -0.13374E-02   -0.74634E-03 13776   0.912E-02    0.553E-01
DAV:  16    -0.789251290483E+03    0.48879E-04   -0.52033E-04 13716   0.570E-02    0.456E-01
DAV:  17    -0.789250858051E+03    0.43243E-03   -0.25039E-03 15864   0.872E-02    0.116E-01
DAV:  18    -0.789251106940E+03   -0.24889E-03   -0.46860E-04 13308   0.451E-02    0.122E-01
DAV:  19    -0.789251121392E+03   -0.14452E-04   -0.16071E-04 14712   0.286E-02    0.101E-01
DAV:  20    -0.789251077015E+03    0.44377E-04   -0.12699E-04 14244   0.226E-02    0.355E-02
DAV:  21    -0.789251094239E+03   -0.17224E-04   -0.52128E-05 12804   0.135E-02    0.219E-02
DAV:  22    -0.789251101008E+03   -0.67687E-05   -0.23707E-05  9684   0.873E-03
   7 F= -.78925110E+03 E0= -.78923243E+03  d E =0.110089E+01  mag=    -1.9814
       N       E                     dE             d eps       ncg     rms          rms(c)
DAV:   1    -0.790362887569E+03   -0.11118E+01   -0.64025E+01 11520   0.134E+01    0.941E+00
DAV:   2    -0.791678228246E+03   -0.13153E+01   -0.26308E+01 17088   0.584E+00    0.947E+00
DAV:   3    -0.791203744464E+03    0.47448E+00   -0.17060E+01 16824   0.331E+00    0.883E+00
DAV:   4    -0.790758909958E+03    0.44483E+00   -0.63094E+00 15384   0.180E+00    0.658E+00
DAV:   5    -0.790458844523E+03    0.30007E+00   -0.13248E+00 15396   0.141E+00    0.458E+00
DAV:   6    -0.790395296705E+03    0.63548E-01   -0.63328E-01 14940   0.109E+00    0.441E+00
DAV:   7    -0.790339208160E+03    0.56089E-01   -0.43043E-01 15564   0.109E+00    0.467E+00
DAV:   8    -0.790337848102E+03    0.13601E-02   -0.85323E-02 13728   0.563E-01    0.457E+00
DAV:   9    -0.790348727695E+03   -0.10880E-01   -0.20579E-01 14520   0.607E-01    0.413E+00
DAV:  10    -0.790328267577E+03    0.20460E-01   -0.46198E-02 14280   0.496E-01    0.275E+00
DAV:  11    -0.790360958536E+03   -0.32691E-01   -0.68643E-01 15636   0.705E-01    0.361E+00
DAV:  12    -0.790333382923E+03    0.27576E-01   -0.16548E-01 15852   0.761E-01    0.192E+00
DAV:  13    -0.790355158166E+03   -0.21775E-01   -0.11459E-01 13884   0.617E-01    0.276E+00
DAV:  14    -0.790333841592E+03    0.21317E-01   -0.14710E-01 15804   0.737E-01    0.212E+00
DAV:  15    -0.790324504031E+03    0.93376E-02   -0.37231E-02 13164   0.360E-01    0.125E+00
DAV:  16    -0.790329366719E+03   -0.48627E-02   -0.19847E-02 14460   0.269E-01    0.694E-01
DAV:  17    -0.790331204221E+03   -0.18375E-02   -0.72917E-03 13260   0.197E-01    0.434E-01
DAV:  18    -0.790332602811E+03   -0.13986E-02   -0.41584E-03 14556   0.134E-01    0.640E-01
DAV:  19    -0.790334126362E+03   -0.15236E-02   -0.62985E-03 14172   0.162E-01    0.483E-01
DAV:  20    -0.790333934882E+03    0.19148E-03   -0.23010E-03 14076   0.114E-01    0.421E-01
DAV:  21    -0.790333757465E+03    0.17742E-03   -0.16258E-03 15576   0.112E-01    0.470E-01
DAV:  22    -0.790333879207E+03   -0.12174E-03   -0.20167E-03 14160   0.101E-01    0.257E-01
DAV:  23    -0.790334483319E+03   -0.60411E-03   -0.13042E-03 14508   0.801E-02    0.157E-01
DAV:  24    -0.790334699963E+03   -0.21664E-03   -0.55599E-04 14124   0.526E-02    0.782E-02
DAV:  25    -0.790334715213E+03   -0.15250E-04   -0.14663E-04 14412   0.282E-02    0.511E-02
DAV:  26    -0.790334733040E+03   -0.17827E-04   -0.70943E-05 13512   0.163E-02    0.606E-02
DAV:  27    -0.790334738444E+03   -0.54041E-05   -0.24436E-05 10368   0.119E-02
   8 F= -.79033474E+03 E0= -.79031561E+03  d E =-.108364E+01  mag=    -1.9941
       N       E                     dE             d eps       ncg     rms          rms(c)
DAV:   1    -0.790376991328E+03   -0.42258E-01   -0.19035E+00 11736   0.243E+00    0.233E+00
DAV:   2    -0.790426780628E+03   -0.49789E-01   -0.11182E+00 17076   0.161E+00    0.503E+00
DAV:   3    -0.790378369104E+03    0.48412E-01   -0.26079E-01 16524   0.101E+00    0.213E+00
DAV:   4    -0.790371266192E+03    0.71029E-02   -0.55148E-02 14304   0.467E-01    0.104E+00
DAV:   5    -0.790370471656E+03    0.79454E-03   -0.17930E-02 14316   0.288E-01    0.572E-01
DAV:   6    -0.790372977374E+03   -0.25057E-02   -0.17487E-02 15576   0.217E-01    0.978E-01
DAV:   7    -0.790370836862E+03    0.21405E-02   -0.49374E-03 14088   0.157E-01    0.418E-01
DAV:   8    -0.790371119733E+03   -0.28287E-03   -0.58952E-03 14064   0.115E-01    0.372E-01
DAV:   9    -0.790370976058E+03    0.14368E-03   -0.20041E-03 13188   0.807E-02    0.156E-01
DAV:  10    -0.790370985044E+03   -0.89862E-05   -0.68229E-04 14232   0.378E-02    0.106E-01
DAV:  11    -0.790370992220E+03   -0.71760E-05   -0.13305E-04 12828   0.205E-02    0.707E-02
DAV:  12    -0.790370982949E+03    0.92712E-05   -0.10862E-04 10608   0.123E-02    0.405E-02
DAV:  13    -0.790370983721E+03   -0.77228E-06   -0.27104E-05  7884   0.906E-03
   9 F= -.79037098E+03 E0= -.79035182E+03  d E =-.362453E-01  mag=    -1.9997
       N       E                     dE             d eps       ncg     rms          rms(c)
DAV:   1    -0.790382884930E+03   -0.11902E-01   -0.89592E-01 11520   0.172E+00    0.157E+00
DAV:   2    -0.790410502497E+03   -0.27618E-01   -0.50059E-01 17160   0.110E+00    0.397E+00
DAV:   3    -0.790379039346E+03    0.31463E-01   -0.13889E-01 16716   0.730E-01    0.138E+00
DAV:   4    -0.790378848669E+03    0.19068E-03   -0.23859E-02 13932   0.289E-01    0.566E-01
DAV:   5    -0.790379757292E+03   -0.90862E-03   -0.82082E-03 14208   0.193E-01    0.362E-01
DAV:   6    -0.790380636422E+03   -0.87913E-03   -0.38356E-03 13992   0.114E-01    0.512E-01
DAV:   7    -0.790379925372E+03    0.71105E-03   -0.15647E-03 13800   0.784E-02    0.228E-01
DAV:   8    -0.790380045334E+03   -0.11996E-03   -0.16711E-03 14112   0.620E-02    0.216E-01
DAV:   9    -0.790379994055E+03    0.51279E-04   -0.65273E-04 13632   0.462E-02    0.856E-02
DAV:  10    -0.790380004556E+03   -0.10501E-04   -0.24113E-04 13200   0.214E-02    0.635E-02
DAV:  11    -0.790380005119E+03   -0.56285E-06   -0.36036E-05  9924   0.126E-02
  10 F= -.79038001E+03 E0= -.79036056E+03  d E =-.902140E-02  mag=    -1.9998
       N       E                     dE             d eps       ncg     rms          rms(c)
DAV:   1    -0.790390001092E+03   -0.99965E-02   -0.56270E-01 11520   0.133E+00    0.468E-01
DAV:   2    -0.790392033737E+03   -0.20326E-02   -0.22973E-02 14112   0.248E-01    0.784E-01
DAV:   3    -0.790390733767E+03    0.13000E-02   -0.94609E-03 16320   0.163E-01    0.298E-01
DAV:   4    -0.790390942807E+03   -0.20904E-03   -0.12160E-03 13920   0.848E-02    0.203E-01
DAV:   5    -0.790390839167E+03    0.10364E-03   -0.62758E-04 14748   0.507E-02    0.939E-02
DAV:   6    -0.790390842984E+03   -0.38171E-05   -0.16040E-04 14292   0.293E-02    0.433E-02
DAV:   7    -0.790390843538E+03   -0.55383E-06   -0.79775E-05 13728   0.169E-02
  11 F= -.79039084E+03 E0= -.79037150E+03  d E =-.108384E-01  mag=    -1.9998
       N       E                     dE             d eps       ncg     rms          rms(c)
DAV:   1    -0.790397245740E+03   -0.64028E-02   -0.69744E-01 11520   0.147E+00    0.705E-01
DAV:   2    -0.790404625044E+03   -0.73793E-02   -0.10486E-01 15468   0.436E-01    0.203E+00
DAV:   3    -0.790395765255E+03    0.88598E-02   -0.48192E-02 16020   0.315E-01    0.219E-01
DAV:   4    -0.790398575516E+03   -0.28103E-02   -0.70615E-03 13632   0.128E-01    0.583E-01
DAV:   5    -0.790397883682E+03    0.69183E-03   -0.17677E-03 13332   0.918E-02    0.190E-01
DAV:   6    -0.790398009823E+03   -0.12614E-03   -0.13941E-03 13920   0.489E-02    0.206E-01
DAV:   7    -0.790397978143E+03    0.31680E-04   -0.23826E-04 13200   0.371E-02    0.900E-02
DAV:   8    -0.790397977783E+03    0.35917E-06   -0.20304E-04 14184   0.210E-02    0.759E-02
DAV:   9    -0.790397975609E+03    0.21748E-05   -0.43170E-05 11016   0.147E-02
  12 F= -.79039798E+03 E0= -.79037864E+03  d E =-.713207E-02  mag=    -1.9998
       N       E                     dE             d eps       ncg     rms          rms(c)
DAV:   1    -0.790403200668E+03   -0.52229E-02   -0.11998E+00 11520   0.192E+00    0.499E-01
DAV:   2    -0.790405649284E+03   -0.24486E-02   -0.28366E-02 14088   0.278E-01    0.533E-01
DAV:   3    -0.790405111002E+03    0.53828E-03   -0.69987E-03 16692   0.160E-01    0.436E-01
DAV:   4    -0.790404918689E+03    0.19231E-03   -0.11288E-03 14952   0.844E-02    0.185E-01
DAV:   5    -0.790404869475E+03    0.49214E-04   -0.85677E-04 15000   0.489E-02    0.116E-01
DAV:   6    -0.790404882511E+03   -0.13036E-04   -0.35375E-04 14244   0.376E-02    0.107E-01
DAV:   7    -0.790404860290E+03    0.22221E-04   -0.19367E-04 13224   0.237E-02    0.603E-02
DAV:   8    -0.790404858229E+03    0.20610E-05   -0.59300E-05 11940   0.141E-02
  13 F= -.79040486E+03 E0= -.79038549E+03  d E =-.688262E-02  mag=    -1.9998
       N       E                     dE             d eps       ncg     rms          rms(c)
DAV:   1    -0.790413451834E+03   -0.85915E-02   -0.94700E-01 11520   0.172E+00    0.810E-01
DAV:   2    -0.790424882708E+03   -0.11431E-01   -0.17749E-01 16500   0.616E-01    0.277E+00
DAV:   3    -0.790409903705E+03    0.14979E-01   -0.72380E-02 16320   0.420E-01    0.581E-01
DAV:   4    -0.790412903416E+03   -0.29997E-02   -0.70392E-03 12972   0.151E-01    0.182E-01
DAV:   5    -0.790413395641E+03   -0.49222E-03   -0.94951E-04 13860   0.748E-02    0.109E-01
DAV:   6    -0.790413406592E+03   -0.10951E-04   -0.25400E-04 13764   0.348E-02    0.699E-02
DAV:   7    -0.790413401442E+03    0.51499E-05   -0.15837E-04 14400   0.276E-02    0.728E-02
DAV:   8    -0.790413397983E+03    0.34595E-05   -0.84784E-05 13728   0.194E-02
  14 F= -.79041340E+03 E0= -.79039412E+03  d E =-.853975E-02  mag=    -1.9999
       N       E                     dE             d eps       ncg     rms          rms(c)
DAV:   1    -0.790419144494E+03   -0.57431E-02   -0.31418E-01 11520   0.101E+00    0.497E-01
DAV:   2    -0.790424134613E+03   -0.49901E-02   -0.57826E-02 15816   0.371E-01    0.184E+00
DAV:   3    -0.790417363959E+03    0.67707E-02   -0.32696E-02 16200   0.265E-01    0.276E-01
DAV:   4    -0.790419204416E+03   -0.18405E-02   -0.31077E-03 13032   0.102E-01    0.197E-01
DAV:   5    -0.790419297067E+03   -0.92652E-04   -0.46453E-04 13308   0.501E-02    0.121E-01
DAV:   6    -0.790419259317E+03    0.37750E-04   -0.50908E-04 13692   0.322E-02    0.859E-02
DAV:   7    -0.790419278770E+03   -0.19453E-04   -0.12482E-04 13392   0.207E-02    0.111E-01
DAV:   8    -0.790419246112E+03    0.32659E-04   -0.14856E-04 11928   0.185E-02    0.571E-02
DAV:   9    -0.790419251917E+03   -0.58060E-05   -0.73121E-05  9720   0.125E-02
  15 F= -.79041925E+03 E0= -.79040013E+03  d E =-.585393E-02  mag=    -1.9999
       N       E                     dE             d eps       ncg     rms          rms(c)
DAV:   1    -0.790419519383E+03   -0.27327E-03   -0.48028E-02 11544   0.399E-01    0.172E-01
DAV:   2    -0.790419841401E+03   -0.32202E-03   -0.43525E-03 15684   0.118E-01    0.448E-01
DAV:   3    -0.790419451102E+03    0.39030E-03   -0.20799E-03 16224   0.780E-02    0.636E-02
DAV:   4    -0.790419565958E+03   -0.11486E-03   -0.29647E-04 13476   0.336E-02    0.100E-01
DAV:   5    -0.790419550467E+03    0.15490E-04   -0.10696E-04 13068   0.214E-02    0.412E-02
DAV:   6    -0.790419549368E+03    0.10998E-05   -0.43176E-05 10812   0.126E-02
  16 F= -.79041955E+03 E0= -.79040030E+03  d E =-.297450E-03  mag=    -1.9999
       N       E                     dE             d eps       ncg     rms          rms(c)
DAV:   1    -0.790421427154E+03   -0.18767E-02   -0.54403E-02 11520   0.416E-01    0.975E-02
DAV:   2    -0.790421534737E+03   -0.10758E-03   -0.14973E-03 14196   0.701E-02    0.166E-01
DAV:   3    -0.790421485595E+03    0.49142E-04   -0.36419E-04 15384   0.360E-02    0.572E-02
DAV:   4    -0.790421493590E+03   -0.79958E-05   -0.74063E-05 13188   0.187E-02
  17 F= -.79042149E+03 E0= -.79040233E+03  d E =-.194422E-02  mag=    -1.9999
       N       E                     dE             d eps       ncg     rms          rms(c)
DAV:   1    -0.790427383377E+03   -0.58978E-02   -0.42388E-01 11520   0.114E+00    0.303E-01
DAV:   2    -0.790428978366E+03   -0.15950E-02   -0.21342E-02 14772   0.252E-01    0.902E-01
DAV:   3    -0.790427350273E+03    0.16281E-02   -0.79212E-03 15552   0.146E-01    0.122E-01
DAV:   4    -0.790427778114E+03   -0.42784E-03   -0.94844E-04 13344   0.560E-02    0.140E-01
DAV:   5    -0.790427765704E+03    0.12410E-04   -0.25091E-04 13524   0.341E-02    0.674E-02
DAV:   6    -0.790427774485E+03   -0.87811E-05   -0.22454E-04 13860   0.236E-02    0.943E-02
DAV:   7    -0.790427748581E+03    0.25904E-04   -0.80633E-05 13404   0.181E-02    0.415E-02
DAV:   8    -0.790427755526E+03   -0.69453E-05   -0.10659E-04 11244   0.124E-02    0.522E-02
DAV:   9    -0.790427751522E+03    0.40041E-05   -0.17122E-05  7764   0.789E-03
  18 F= -.79042775E+03 E0= -.79040866E+03  d E =-.625793E-02  mag=    -1.9999
       N       E                     dE             d eps       ncg     rms          rms(c)
DAV:   1    -0.790438863006E+03   -0.11107E-01   -0.23955E+00 11520   0.270E+00    0.872E-01
DAV:   2    -0.790455912226E+03   -0.17049E-01   -0.20788E-01 14976   0.703E-01    0.286E+00
DAV:   3    -0.790438833231E+03    0.17079E-01   -0.82709E-02 15876   0.449E-01    0.751E-01
DAV:   4    -0.790441248788E+03   -0.24156E-02   -0.95965E-03 13584   0.181E-01    0.217E-01
DAV:   5    -0.790441876536E+03   -0.62775E-03   -0.22654E-03 13860   0.102E-01    0.248E-01
DAV:   6    -0.790441795920E+03    0.80616E-04   -0.90129E-04 14076   0.636E-02    0.137E-01
DAV:   7    -0.790441804204E+03   -0.82833E-05   -0.74240E-04 14424   0.442E-02    0.169E-01
DAV:   8    -0.790441791072E+03    0.13132E-04   -0.21411E-04 13680   0.315E-02    0.145E-01
DAV:   9    -0.790441742034E+03    0.49038E-04   -0.51188E-04 14868   0.289E-02    0.997E-02
DAV:  10    -0.790441752190E+03   -0.10156E-04   -0.10667E-04 11904   0.182E-02    0.430E-02
DAV:  11    -0.790441751398E+03    0.79273E-06   -0.27241E-05  8232   0.831E-03
  19 F= -.79044175E+03 E0= -.79042274E+03  d E =-.139999E-01  mag=    -1.9999
       N       E                     dE             d eps       ncg     rms          rms(c)
DAV:   1    -0.790442852181E+03   -0.11000E-02   -0.63363E-01 11520   0.143E+00    0.600E-01
DAV:   2    -0.790447305964E+03   -0.44538E-02   -0.69866E-02 15480   0.386E-01    0.158E+00
DAV:   3    -0.790442172185E+03    0.51338E-02   -0.32976E-02 16068   0.258E-01    0.199E-01
DAV:   4    -0.790443784346E+03   -0.16122E-02   -0.37088E-03 13452   0.115E-01    0.383E-01
DAV:   5    -0.790443540900E+03    0.24345E-03   -0.12858E-03 13884   0.750E-02    0.174E-01
DAV:   6    -0.790443526188E+03    0.14713E-04   -0.67354E-04 13956   0.426E-02    0.103E-01
DAV:   7    -0.790443531881E+03   -0.56929E-05   -0.16675E-04 13788   0.283E-02    0.733E-02
DAV:   8    -0.790443519365E+03    0.12515E-04   -0.96223E-05 12612   0.159E-02    0.280E-02
DAV:   9    -0.790443523657E+03   -0.42913E-05   -0.22767E-05  8208   0.927E-03
  20 F= -.79044352E+03 E0= -.79042454E+03  d E =-.177226E-02  mag=    -1.9999
       N       E                     dE             d eps       ncg     rms          rms(c)
DAV:   1    -0.790442236702E+03    0.12827E-02   -0.57860E-02 11544   0.448E-01    0.152E-01
DAV:   2    -0.790442434973E+03   -0.19827E-03   -0.24947E-03 14232   0.931E-02    0.252E-01
DAV:   3    -0.790442333389E+03    0.10158E-03   -0.81662E-04 15972   0.522E-02    0.101E-01
DAV:   4    -0.790442335998E+03   -0.26087E-05   -0.16208E-04 13596   0.292E-02    0.683E-02
DAV:   5    -0.790442326829E+03    0.91691E-05   -0.12359E-04 14328   0.195E-02    0.462E-02
DAV:   6    -0.790442322549E+03    0.42792E-05   -0.34548E-05 10080   0.131E-02
  21 F= -.79044232E+03 E0= -.79042330E+03  d E =0.120111E-02  mag=    -1.9999
       N       E                     dE             d eps       ncg     rms          rms(c)
DAV:   1    -0.790443794686E+03   -0.14679E-02   -0.62757E-02 11520   0.443E-01    0.149E-01
DAV:   2    -0.790444249386E+03   -0.45470E-03   -0.42448E-03 15132   0.117E-01    0.531E-01
DAV:   3    -0.790443689078E+03    0.56031E-03   -0.17343E-03 15840   0.779E-02    0.661E-02
DAV:   4    -0.790443860514E+03   -0.17144E-03   -0.26994E-04 12948   0.288E-02    0.686E-02
DAV:   5    -0.790443864098E+03   -0.35831E-05   -0.41748E-05 11628   0.150E-02
  22 F= -.79044386E+03 E0= -.79042490E+03  d E =-.154155E-02  mag=    -1.9999
       N       E                     dE             d eps       ncg     rms          rms(c)
DAV:   1    -0.790448846201E+03   -0.49857E-02   -0.14484E+00 11520   0.210E+00    0.788E-01
DAV:   2    -0.790464021843E+03   -0.15176E-01   -0.22812E-01 15828   0.632E-01    0.301E+00
DAV:   3    -0.790445804208E+03    0.18218E-01   -0.92895E-02 16092   0.423E-01    0.569E-01
DAV:   4    -0.790449504291E+03   -0.37001E-02   -0.73387E-03 12924   0.148E-01    0.175E-01
DAV:   5    -0.790450096079E+03   -0.59179E-03   -0.10178E-03 13752   0.765E-02    0.101E-01
DAV:   6    -0.790450102874E+03   -0.67957E-05   -0.20514E-04 13740   0.363E-02    0.577E-02
DAV:   7    -0.790450102572E+03    0.30211E-06   -0.22494E-04 14316   0.302E-02    0.108E-01
DAV:   8    -0.790450075375E+03    0.27197E-04   -0.99608E-05 13872   0.207E-02    0.422E-02
DAV:   9    -0.790450081544E+03   -0.61686E-05   -0.10081E-04 12396   0.158E-02    0.554E-02
DAV:  10    -0.790450075994E+03    0.55503E-05   -0.62644E-05  8700   0.109E-02
  23 F= -.79045008E+03 E0= -.79043110E+03  d E =-.621190E-02  mag=    -1.9999
       N       E                     dE             d eps       ncg     rms          rms(c)
DAV:   1    -0.790405049032E+03    0.45033E-01   -0.35038E+01 11520   0.104E+01    0.148E+00
DAV:   2    -0.790482073255E+03   -0.77024E-01   -0.85736E-01 13644   0.152E+00    0.195E+00
DAV:   3    -0.790472864737E+03    0.92085E-02   -0.50168E-02 15672   0.520E-01    0.732E-01
DAV:   4    -0.790472094619E+03    0.77012E-03   -0.14288E-02 13956   0.257E-01    0.703E-01
DAV:   5    -0.790470994799E+03    0.10998E-02   -0.13905E-02 14904   0.191E-01    0.558E-01
DAV:   6    -0.790470659941E+03    0.33486E-03   -0.50244E-03 14436   0.147E-01    0.476E-01
DAV:   7    -0.790470302223E+03    0.35772E-03   -0.67630E-03 15312   0.129E-01    0.362E-01
DAV:   8    -0.790470219335E+03    0.82889E-04   -0.24414E-03 13368   0.817E-02    0.172E-01
DAV:   9    -0.790470291049E+03   -0.71714E-04   -0.47986E-04 14100   0.414E-02    0.146E-01
DAV:  10    -0.790470245307E+03    0.45742E-04   -0.17049E-04 13212   0.263E-02    0.405E-02
DAV:  11    -0.790470267939E+03   -0.22633E-04   -0.94827E-05 13404   0.145E-02    0.623E-02
DAV:  12    -0.790470265682E+03    0.22571E-05   -0.10538E-04  9600   0.142E-02    0.515E-02
DAV:  13    -0.790470263853E+03    0.18292E-05   -0.42093E-05  8220   0.952E-03
  24 F= -.79047026E+03 E0= -.79045171E+03  d E =-.201879E-01  mag=    -2.0000
       N       E                     dE             d eps       ncg     rms          rms(c)
DAV:   1    -0.790453221650E+03    0.17044E-01   -0.87852E+00 11520   0.528E+00    0.120E+00
DAV:   2    -0.790476839603E+03   -0.23618E-01   -0.27366E-01 14016   0.848E-01    0.198E+00
DAV:   3    -0.790469686861E+03    0.71527E-02   -0.75429E-02 15996   0.385E-01    0.742E-01
DAV:   4    -0.790470924307E+03   -0.12374E-02   -0.14868E-02 13920   0.229E-01    0.927E-01
DAV:   5    -0.790468970095E+03    0.19542E-02   -0.94725E-03 15480   0.160E-01    0.263E-01
DAV:   6    -0.790469469152E+03   -0.49906E-03   -0.49695E-03 13968   0.109E-01    0.405E-01
DAV:   7    -0.790469103252E+03    0.36590E-03   -0.27026E-03 13992   0.814E-02    0.222E-01
DAV:   8    -0.790469100154E+03    0.30978E-05   -0.59312E-04 13320   0.433E-02    0.939E-02
DAV:   9    -0.790469139281E+03   -0.39128E-04   -0.22341E-04 14268   0.250E-02    0.955E-02
DAV:  10    -0.790469129218E+03    0.10063E-04   -0.23155E-04 12300   0.200E-02    0.687E-02
DAV:  11    -0.790469125065E+03    0.41527E-05   -0.79400E-05  9420   0.133E-02
  25 F= -.79046913E+03 E0= -.79045031E+03  d E =0.113879E-02  mag=    -1.9999
       N       E                     dE             d eps       ncg     rms          rms(c)
DAV:   1    -0.790447668015E+03    0.21461E-01   -0.68867E+00 11520   0.469E+00    0.131E+00
DAV:   2    -0.790469853436E+03   -0.22185E-01   -0.34281E-01 13968   0.913E-01    0.259E+00
DAV:   3    -0.790456883630E+03    0.12970E-01   -0.11938E-01 15696   0.516E-01    0.484E-01
DAV:   4    -0.790460702551E+03   -0.38189E-02   -0.16921E-02 13740   0.212E-01    0.102E+00
DAV:   5    -0.790458146084E+03    0.25565E-02   -0.11261E-02 14700   0.155E-01    0.281E-01
DAV:   6    -0.790459665853E+03   -0.15198E-02   -0.10882E-02 14304   0.115E-01    0.710E-01
DAV:   7    -0.790458264254E+03    0.14016E-02   -0.51089E-03 13836   0.106E-01    0.202E-01
DAV:   8    -0.790458510447E+03   -0.24619E-03   -0.86525E-04 13464   0.481E-02    0.933E-02
DAV:   9    -0.790458572911E+03   -0.62464E-04   -0.17813E-04 13728   0.264E-02    0.929E-02
DAV:  10    -0.790458561608E+03    0.11303E-04   -0.13868E-04 12732   0.183E-02    0.530E-02
DAV:  11    -0.790458558003E+03    0.36050E-05   -0.62256E-05  9300   0.113E-02
  26 F= -.79045856E+03 E0= -.79043977E+03  d E =0.105671E-01  mag=    -1.9999
       N       E                     dE             d eps       ncg     rms          rms(c)
DAV:   1    -0.790465140083E+03   -0.65785E-02   -0.44843E+00 11520   0.375E+00    0.813E-01
DAV:   2    -0.790478978939E+03   -0.13839E-01   -0.16819E-01 13776   0.674E-01    0.207E+00
DAV:   3    -0.790471085488E+03    0.78935E-02   -0.47241E-02 15168   0.346E-01    0.422E-01
DAV:   4    -0.790473203146E+03   -0.21177E-02   -0.89103E-03 13692   0.180E-01    0.535E-01
DAV:   5    -0.790472526883E+03    0.67626E-03   -0.33275E-03 14808   0.113E-01    0.190E-01
DAV:   6    -0.790472618453E+03   -0.91570E-04   -0.15222E-03 13920   0.686E-02    0.244E-01
DAV:   7    -0.790472525098E+03    0.93355E-04   -0.11114E-03 14628   0.597E-02    0.172E-01
DAV:   8    -0.790472486265E+03    0.38832E-04   -0.40082E-04 13368   0.342E-02    0.746E-02
DAV:   9    -0.790472503241E+03   -0.16976E-04   -0.10917E-04 13200   0.184E-02    0.590E-02
DAV:  10    -0.790472498843E+03    0.43986E-05   -0.71602E-05  9372   0.122E-02
  27 F= -.79047250E+03 E0= -.79045365E+03  d E =-.139408E-01  mag=    -1.9999
       N       E                     dE             d eps       ncg     rms          rms(c)
DAV:   1    -0.790473451926E+03   -0.94868E-03   -0.15174E-01 11520   0.698E-01    0.370E-01
DAV:   2    -0.790475120118E+03   -0.16682E-02   -0.18292E-02 15432   0.239E-01    0.104E+00
DAV:   3    -0.790473020988E+03    0.20991E-02   -0.87969E-03 16152   0.172E-01    0.166E-01
DAV:   4    -0.790473692828E+03   -0.67184E-03   -0.18985E-03 13560   0.764E-02    0.257E-01
DAV:   5    -0.790473593868E+03    0.98959E-04   -0.38355E-04 13740   0.441E-02    0.102E-01
DAV:   6    -0.790473615681E+03   -0.21812E-04   -0.64513E-04 13488   0.289E-02    0.128E-01
DAV:   7    -0.790473594799E+03    0.20882E-04   -0.19329E-04 12564   0.226E-02    0.685E-02
DAV:   8    -0.790473590418E+03    0.43809E-05   -0.87245E-05 10164   0.117E-02
  28 F= -.79047359E+03 E0= -.79045487E+03  d E =-.109158E-02  mag=    -1.9999
       N       E                     dE             d eps       ncg     rms          rms(c)
DAV:   1    -0.790473180809E+03    0.41399E-03   -0.44822E-02 11520   0.379E-01    0.190E-01
DAV:   2    -0.790473590382E+03   -0.40957E-03   -0.52893E-03 15408   0.124E-01    0.523E-01
DAV:   3    -0.790473066184E+03    0.52420E-03   -0.26959E-03 16104   0.882E-02    0.574E-02
DAV:   4    -0.790473255379E+03   -0.18919E-03   -0.40015E-04 13548   0.348E-02    0.139E-01
DAV:   5    -0.790473216705E+03    0.38674E-04   -0.11013E-04 13116   0.228E-02    0.497E-02
DAV:   6    -0.790473225697E+03   -0.89917E-05   -0.14526E-04 12780   0.142E-02    0.661E-02
DAV:   7    -0.790473219752E+03    0.59440E-05   -0.32520E-05  8724   0.110E-02
  29 F= -.79047322E+03 E0= -.79045451E+03  d E =0.370665E-03  mag=    -1.9999
       N       E                     dE             d eps       ncg     rms          rms(c)
DAV:   1    -0.790473725559E+03   -0.49986E-03   -0.61827E-03 11544   0.145E-01    0.513E-02
DAV:   2    -0.790473793664E+03   -0.68105E-04   -0.60574E-04 15024   0.413E-02    0.202E-01
DAV:   3    -0.790473706593E+03    0.87071E-04   -0.25969E-04 14760   0.283E-02    0.280E-02
DAV:   4    -0.790473732006E+03   -0.25413E-04   -0.52956E-05 11676   0.111E-02    0.319E-02
DAV:   5    -0.790473733336E+03   -0.13294E-05   -0.97161E-06  7236   0.646E-03
  30 F= -.79047373E+03 E0= -.79045502E+03  d E =-.513583E-03  mag=    -1.9999
       N       E                     dE             d eps       ncg     rms          rms(c)
DAV:   1    -0.790477567754E+03   -0.38357E-02   -0.41235E-01 11520   0.117E+00    0.379E-01
DAV:   2    -0.790481473854E+03   -0.39061E-02   -0.42892E-02 15612   0.319E-01    0.157E+00
DAV:   3    -0.790476503435E+03    0.49704E-02   -0.19027E-02 15828   0.214E-01    0.232E-01
DAV:   4    -0.790477867979E+03   -0.13645E-02   -0.18552E-03 12756   0.739E-02    0.108E-01
DAV:   5    -0.790478025425E+03   -0.15745E-03   -0.24580E-04 13368   0.371E-02    0.557E-02
DAV:   6    -0.790478026867E+03   -0.14416E-05   -0.11327E-04 13068   0.195E-02    0.615E-02
DAV:   7    -0.790478024890E+03    0.19766E-05   -0.80399E-05 13248   0.154E-02
  31 F= -.79047802E+03 E0= -.79045921E+03  d E =-.429155E-02  mag=    -1.9999
       N       E                     dE             d eps       ncg     rms          rms(c)
DAV:   1    -0.790481504723E+03   -0.34779E-02   -0.17273E+00 11520   0.241E+00    0.617E-01
DAV:   2    -0.790489918426E+03   -0.84137E-02   -0.94002E-02 14316   0.533E-01    0.191E+00
DAV:   3    -0.790482446458E+03    0.74720E-02   -0.26242E-02 15168   0.304E-01    0.363E-01
DAV:   4    -0.790484172185E+03   -0.17257E-02   -0.66755E-03 13608   0.131E-01    0.379E-01
DAV:   5    -0.790484260306E+03   -0.88120E-04   -0.12146E-03 13020   0.793E-02    0.215E-01
DAV:   6    -0.790484308664E+03   -0.48359E-04   -0.25200E-03 14364   0.617E-02    0.301E-01
DAV:   7    -0.790484211147E+03    0.97518E-04   -0.46265E-04 13140   0.452E-02    0.215E-01
DAV:   8    -0.790484105897E+03    0.10525E-03   -0.41260E-04 15012   0.303E-02    0.653E-02
DAV:   9    -0.790484161509E+03   -0.55612E-04   -0.19280E-04 13188   0.200E-02    0.709E-02
DAV:  10    -0.790484161716E+03   -0.20719E-06   -0.67086E-05  9180   0.128E-02
  32 F= -.79048416E+03 E0= -.79046550E+03  d E =-.613683E-02  mag=    -1.9999
       N       E                     dE             d eps       ncg     rms          rms(c)
DAV:   1    -0.790484822250E+03   -0.66074E-03   -0.37336E-01 11568   0.106E+00    0.813E-01
DAV:   2    -0.790498829316E+03   -0.14007E-01   -0.20819E-01 16536   0.559E-01    0.324E+00
DAV:   3    -0.790478798317E+03    0.20031E-01   -0.14022E-01 16332   0.407E-01    0.256E-01
DAV:   4    -0.790484504088E+03   -0.57058E-02   -0.86506E-03 12768   0.160E-01    0.448E-01
DAV:   5    -0.790484459505E+03    0.44583E-04   -0.24199E-03 13500   0.917E-02    0.211E-01
DAV:   6    -0.790484425452E+03    0.34053E-04   -0.87598E-04 14004   0.480E-02    0.965E-02
DAV:   7    -0.790484469427E+03   -0.43975E-04   -0.23489E-04 13752   0.260E-02    0.130E-01
DAV:   8    -0.790484420802E+03    0.48624E-04   -0.11246E-04 12072   0.189E-02    0.431E-02
DAV:   9    -0.790484441593E+03   -0.20790E-04   -0.15345E-04 12540   0.136E-02    0.763E-02
DAV:  10    -0.790484433810E+03    0.77822E-05   -0.64950E-05  9480   0.125E-02
  33 F= -.79048443E+03 E0= -.79046591E+03  d E =-.272094E-03  mag=    -1.9999
       N       E                     dE             d eps       ncg     rms          rms(c)
DAV:   1    -0.790481851826E+03    0.25898E-02   -0.27343E-01 11520   0.949E-01    0.497E-01
DAV:   2    -0.790487253501E+03   -0.54017E-02   -0.69562E-02 16404   0.375E-01    0.173E+00
DAV:   3    -0.790480468308E+03    0.67852E-02   -0.22380E-02 16452   0.269E-01    0.341E-01
DAV:   4    -0.790481657135E+03   -0.11888E-02   -0.41086E-03 13572   0.911E-02    0.153E-01
DAV:   5    -0.790481997905E+03   -0.34077E-03   -0.38389E-04 12744   0.480E-02    0.154E-01
DAV:   6    -0.790481933229E+03    0.64676E-04   -0.44777E-04 12756   0.288E-02    0.649E-02
DAV:   7    -0.790481954093E+03   -0.20864E-04   -0.60318E-05 12348   0.156E-02    0.734E-02
DAV:   8    -0.790481937161E+03    0.16931E-04   -0.57463E-05  9864   0.118E-02    0.195E-02
DAV:   9    -0.790481947698E+03   -0.10537E-04   -0.30823E-05  7812   0.772E-03    0.527E-02
DAV:  10    -0.790481940476E+03    0.72226E-05   -0.19805E-05  7152   0.658E-03
  34 F= -.79048194E+03 E0= -.79046327E+03  d E =0.249333E-02  mag=    -1.9999
       N       E                     dE             d eps       ncg     rms          rms(c)
DAV:   1    -0.790480882549E+03    0.10651E-02   -0.26057E-02 11520   0.290E-01    0.251E-01
DAV:   2    -0.790482395827E+03   -0.15133E-02   -0.21285E-02 17568   0.191E-01    0.102E+00
DAV:   3    -0.790480128655E+03    0.22672E-02   -0.98003E-03 16668   0.147E-01    0.152E-01
DAV:   4    -0.790480750972E+03   -0.62232E-03   -0.14949E-03 13332   0.508E-02    0.160E-01
DAV:   5    -0.790480794365E+03   -0.43393E-04   -0.37179E-04 11964   0.306E-02    0.294E-02
DAV:   6    -0.790480802512E+03   -0.81473E-05   -0.17193E-05  9396   0.872E-03
  35 F= -.79048080E+03 E0= -.79046212E+03  d E =0.113796E-02  mag=    -1.9999
