       N       E                     dE             d eps       ncg     rms          ort
DAV:   1     0.281890996740E+04    0.28189E+04   -0.29319E+05  2880   0.140E+03
DAV:   2    -0.962788420709E+03   -0.37817E+04   -0.36540E+04  2880   0.312E+02
DAV:   3    -0.122071982325E+04   -0.25793E+03   -0.25547E+03  2880   0.850E+01
DAV:   4    -0.122376695867E+04   -0.30471E+01   -0.30365E+01  2880   0.980E+00
DAV:   5    -0.122381780408E+04   -0.50845E-01   -0.50733E-01  2880   0.116E+00
SDA:   6    -0.863483677473E+03    0.36033E+03   -0.50733E-01  2880   0.910E+03 0.000E+00
CGA:   7    -0.967652291174E+03   -0.10417E+03   -0.12832E+03  2880   0.984E+02 0.117E+03
CGA:   8    -0.983569690161E+03   -0.15917E+02   -0.16809E+02  2880   0.574E+02-0.198E+00
CGA:   9    -0.989178814918E+03   -0.56091E+01   -0.68855E+01  2880   0.229E+02-0.534E+00
CGA:  10    -0.992358640276E+03   -0.31798E+01   -0.31918E+01  2880   0.200E+02-0.222E+01
CGA:  11    -0.993414479391E+03   -0.10558E+01   -0.16252E+01  2880   0.290E+02-0.143E+02
CGA:  12    -0.994595806358E+03   -0.11813E+01   -0.26826E+01  2880   0.131E+02-0.927E+01
CGA:  13    -0.996082828659E+03   -0.14870E+01   -0.10266E+01  2880   0.134E+02-0.691E+01
CGA:  14    -0.996074535413E+03    0.82932E-02   -0.90229E+00  2880   0.137E+02-0.993E+01
CGA:  15    -0.995896763090E+03    0.17777E+00   -0.97780E+00  2880   0.130E+02-0.883E+01
CGA:  16    -0.996012480008E+03   -0.11572E+00   -0.90565E+00  2880   0.769E+01-0.660E+01
CGA:  17    -0.996665581883E+03   -0.65310E+00   -0.41157E+00  2880   0.105E+02-0.172E+02
CGA:  18    -0.996533286127E+03    0.13230E+00   -0.66602E+00  2880   0.111E+02-0.793E+01
CGA:  19    -0.996638655618E+03   -0.10537E+00   -0.61016E+00  2880   0.136E+02-0.135E+02
CGA:  20    -0.996549000158E+03    0.89655E-01   -0.85364E+00  2880   0.104E+02-0.849E+01
CGA:  21    -0.996855867725E+03   -0.30687E+00   -0.52844E+00  2880   0.927E+01-0.125E+02
CGA:  22    -0.996870759240E+03   -0.14892E-01   -0.51359E+00  2880   0.782E+01-0.717E+01
CGA:  23    -0.997067530103E+03   -0.19677E+00   -0.34647E+00  2880   0.363E+01-0.558E+01
CGA:  24    -0.997142843003E+03   -0.75313E-01   -0.15304E+00  2880   0.155E+01-0.186E+01
CGA:  25    -0.997188220502E+03   -0.45377E-01   -0.48963E-01  2880   0.272E+00-0.610E-01
CGA:  26    -0.997427875890E+03   -0.23966E+00   -0.32833E-01  2880   0.314E+00 0.445E-01
CGA:  27    -0.997442195843E+03   -0.14320E-01   -0.19202E-01  2880   0.112E+00-0.587E-01
CGA:  28    -0.997452971793E+03   -0.10776E-01   -0.10967E-01  2880   0.917E-01-0.560E-02
CGA:  29    -0.997460319273E+03   -0.73475E-02   -0.77967E-02  2880   0.311E-01 0.463E-02
CGA:  30    -0.997464539884E+03   -0.42206E-02   -0.39957E-02  2880   0.381E-01-0.426E-02
CGA:  31    -0.997468224366E+03   -0.36845E-02   -0.39344E-02  2880   0.170E-01 0.293E-02
CGA:  32    -0.997469757642E+03   -0.15333E-02   -0.14679E-02  2880   0.874E-02-0.108E-02
CGA:  33    -0.997470641670E+03   -0.88403E-03   -0.93434E-03  2880   0.545E-02 0.632E-03
CGA:  34    -0.997471571410E+03   -0.92974E-03   -0.90607E-03  2880   0.757E-02-0.806E-03
CGA:  35    -0.997472200708E+03   -0.62930E-03   -0.64793E-03  2880   0.263E-02 0.338E-03
CGA:  36    -0.997472499453E+03   -0.29874E-03   -0.25589E-03  2880   0.175E-02-0.598E-03
CGA:  37    -0.997472530964E+03   -0.31511E-04   -0.84348E-04  2880   0.790E-03 0.492E-03
CGA:  38    -0.997472586745E+03   -0.55782E-04   -0.74935E-04  2880   0.640E-03 0.229E-03
CGA:  39    -0.997472675027E+03   -0.88282E-04   -0.20619E-03  2880   0.651E-02-0.137E-02
CGA:  40    -0.997472791601E+03   -0.11657E-03   -0.25374E-03  2880   0.743E-03 0.131E-02
CGA:  41    -0.997472809619E+03   -0.18019E-04   -0.37938E-04  2880   0.125E-03 0.194E-03
CGA:  42    -0.997472833230E+03   -0.23610E-04   -0.19971E-04  2880   0.446E-03-0.130E-03
CGA:  43    -0.997472828098E+03    0.51314E-05   -0.13854E-04  2880   0.929E-04 0.158E-03
   1 F= -.99747283E+03 E0= -.99745315E+03  d E =-.997473E+03  mag=     2.0000
       N       E                     dE             d eps       ncg     rms          ort
SDA:   1    -0.997471710346E+03    0.11229E-02    0.00000E+00  2880   0.878E-02 0.000E+00
CGA:   2    -0.997471905848E+03   -0.19550E-03   -0.33660E-03  2880   0.251E-02 0.140E-02
CGA:   3    -0.997472402217E+03   -0.49637E-03   -0.48093E-03  2880   0.347E-02 0.537E-03
CGA:   4    -0.997472821035E+03   -0.41882E-03   -0.32143E-03  2880   0.252E-02-0.162E-02
CGA:   5    -0.997472850598E+03   -0.29563E-04   -0.55788E-04  2880   0.107E-02 0.278E-03
CGA:   6    -0.997472835466E+03    0.15132E-04   -0.28197E-04  2880   0.399E-03 0.405E-03
CGA:   7    -0.997472825846E+03    0.96208E-05   -0.16187E-04  2880   0.353E-03 0.269E-03
CGA:   8    -0.997472926113E+03   -0.10027E-03    0.11849E-03  2880   0.788E-03-0.110E-03
CGA:   9    -0.997472939690E+03   -0.13577E-04   -0.26460E-04  2880   0.399E-03 0.180E-03
CGA:  10    -0.997472926045E+03    0.13644E-04   -0.82145E-05  2880   0.886E-04 0.217E-03
CGA:  11    -0.997472920993E+03    0.50529E-05   -0.10972E-05  2880   0.440E-04 0.617E-04
   2 F= -.99747292E+03 E0= -.99745320E+03  d E =-.928941E-04  mag=     2.0000
       N       E                     dE             d eps       ncg     rms          ort
SDA:   1    -0.997472042433E+03    0.88361E-03    0.00000E+00  2880   0.764E-02 0.000E+00
CGA:   2    -0.997472565873E+03   -0.52344E-03   -0.43085E-03  2880   0.338E-02-0.232E-02
CGA:   3    -0.997472676565E+03   -0.11069E-03   -0.14848E-03  2880   0.112E-02 0.103E-02
CGA:   4    -0.997472713665E+03   -0.37100E-04   -0.66449E-04  2880   0.585E-03 0.564E-03
CGA:   5    -0.997472853714E+03   -0.14005E-03    0.10856E-03  2880   0.836E-03-0.243E-04
CGA:   6    -0.997472912939E+03   -0.59226E-04   -0.64407E-04  2880   0.318E-03 0.346E-03
CGA:   7    -0.997472907598E+03    0.53417E-05   -0.12448E-04  2880   0.122E-03 0.266E-03
   3 F= -.99747291E+03 E0= -.99745319E+03  d E =0.133949E-04  mag=     2.0000
       N       E                     dE             d eps       ncg     rms          ort
SDA:   1    -0.997472551987E+03    0.36095E-03    0.00000E+00  2880   0.908E-02 0.000E+00
CGA:   2    -0.997472950411E+03   -0.39842E-03   -0.34814E-03  2880   0.450E-03-0.109E-02
CGA:   3    -0.997472944227E+03    0.61837E-05   -0.89614E-05  2880   0.161E-03 0.232E-03
CGA:   4    -0.997472941245E+03    0.29823E-05   -0.36052E-05  2880   0.834E-04 0.106E-03
   4 F= -.99747294E+03 E0= -.99745322E+03  d E =-.336469E-04  mag=     2.0000
       N       E                     dE             d eps       ncg     rms          ort
SDA:   1    -0.997472895234E+03    0.48993E-04    0.00000E+00  2880   0.924E-02 0.000E+00
CGA:   2    -0.997473040161E+03   -0.14493E-03   -0.23928E-03  2880   0.351E-03 0.174E-02
CGA:   3    -0.997473032675E+03    0.74861E-05   -0.58941E-05  2880   0.985E-04 0.212E-03
CGA:   4    -0.997473029399E+03    0.32762E-05   -0.11621E-05  2880   0.539E-04 0.714E-04
   5 F= -.99747303E+03 E0= -.99745332E+03  d E =-.881546E-04  mag=     2.0000
       N       E                     dE             d eps       ncg     rms          ort
SDA:   1    -0.997471723778E+03    0.13089E-02    0.00000E+00  2880   0.287E-01 0.000E+00
CGA:   2    -0.997472956777E+03   -0.12330E-02   -0.10938E-02  2880   0.137E-02-0.533E-02
CGA:   3    -0.997472960736E+03   -0.39589E-05   -0.26959E-04  2880   0.335E-03 0.545E-03
CGA:   4    -0.997472955054E+03    0.56812E-05   -0.69139E-05  2880   0.134E-03 0.254E-03
   6 F= -.99747296E+03 E0= -.99745323E+03  d E =0.743448E-04  mag=     2.0000
       N       E                     dE             d eps       ncg     rms          ort
SDA:   1    -0.997472949204E+03    0.11532E-04    0.00000E+00  2880   0.355E-02 0.000E+00
CGA:   2    -0.997472995481E+03   -0.46278E-04   -0.88632E-04  2880   0.569E-03 0.119E-02
CGA:   3    -0.997472996926E+03   -0.14442E-05   -0.15982E-04  2880   0.270E-03 0.386E-03
CGA:   4    -0.997473026611E+03   -0.29686E-04   -0.59891E-04  2880   0.436E-03-0.183E-03
CGA:   5    -0.997473023306E+03    0.33051E-05   -0.86738E-05  2880   0.172E-03 0.266E-03
   7 F= -.99747302E+03 E0= -.99745331E+03  d E =-.682517E-04  mag=     2.0000
       N       E                     dE             d eps       ncg     rms          ort
SDA:   1    -0.997471862192E+03    0.11644E-02    0.00000E+00  2880   0.176E-01 0.000E+00
CGA:   2    -0.997472960238E+03   -0.10980E-02   -0.11145E-02  2880   0.493E-02-0.571E-02
CGA:   3    -0.997473007730E+03   -0.47492E-04   -0.89442E-04  2880   0.140E-02 0.123E-02
CGA:   4    -0.997473003158E+03    0.45718E-05   -0.29342E-04  2880   0.478E-03 0.798E-03
CGA:   5    -0.997473005555E+03   -0.23967E-05   -0.12064E-04  2880   0.215E-03 0.306E-03
   8 F= -.99747301E+03 E0= -.99745329E+03  d E =0.177510E-04  mag=     2.0000
       N       E                     dE             d eps       ncg     rms          ort
SDA:   1    -0.997472036136E+03    0.96702E-03    0.00000E+00  2880   0.843E-02 0.000E+00
CGA:   2    -0.997472582338E+03   -0.54620E-03   -0.55055E-03  2880   0.229E-02-0.392E-03
CGA:   3    -0.997472824253E+03   -0.24192E-03    0.33231E-02  2880   0.838E-03 0.564E-03
CGA:   4    -0.997472937218E+03   -0.11296E-03   -0.11642E-03  2880   0.660E-03-0.607E-04
CGA:   5    -0.997472976161E+03   -0.38943E-04   -0.38190E-04  2880   0.403E-03 0.145E-03
CGA:   6    -0.997473037076E+03   -0.60915E-04    0.18323E-03  2880   0.163E-03 0.155E-03
CGA:   7    -0.997472843797E+03    0.19328E-03   -0.10441E-03  2880   0.544E-02-0.895E-03
CGA:   8    -0.997472994728E+03   -0.15093E-03   -0.19854E-03  2880   0.453E-03 0.646E-03
CGA:   9    -0.997473039030E+03   -0.44302E-04   -0.43008E-04  2880   0.268E-03-0.762E-04
CGA:  10    -0.997473061661E+03   -0.22631E-04   -0.22903E-04  2880   0.184E-03-0.130E-03
CGA:  11    -0.997473071160E+03   -0.94995E-05   -0.98815E-05  2880   0.180E-03-0.113E-03
CGA:  12    -0.997473083290E+03   -0.12130E-04   -0.12004E-04  2880   0.777E-04-0.338E-05
CGA:  13    -0.997473079683E+03    0.36076E-05   -0.12642E-05  2880   0.469E-04 0.588E-04
   9 F= -.99747308E+03 E0= -.99745336E+03  d E =-.741275E-04  mag=     2.0000
       N       E                     dE             d eps       ncg     rms          ort
SDA:   1    -0.997442387147E+03    0.30696E-01    0.00000E+00  2880   0.102E+00 0.000E+00
CGA:   2    -0.997451529128E+03   -0.91420E-02   -0.91546E-02  2880   0.113E+00 0.783E-02
CGA:   3    -0.997467142232E+03   -0.15613E-01   -0.15958E-01  2880   0.511E-01-0.891E-02
CGA:   4    -0.997469387744E+03   -0.22455E-02   -0.23597E-02  2880   0.121E-01 0.303E-02
CGA:   5    -0.997471637510E+03   -0.22498E-02   -0.21967E-02  2880   0.671E-02 0.671E-03
CGA:   6    -0.997472229842E+03   -0.59233E-03   -0.58126E-03  2880   0.389E-02-0.856E-03
CGA:   7    -0.997472332093E+03   -0.10225E-03   -0.14722E-03  2880   0.116E-02 0.881E-03
CGA:   8    -0.997472404027E+03   -0.71935E-04   -0.81343E-04  2880   0.952E-03 0.272E-03
CGA:   9    -0.997472067109E+03    0.33692E-03   -0.34206E-03  2880   0.114E-01-0.339E-02
CGA:  10    -0.997472412844E+03   -0.34573E-03   -0.47926E-03  2880   0.189E-02 0.237E-02
CGA:  11    -0.997472522511E+03   -0.10967E-03   -0.12636E-03  2880   0.525E-03 0.423E-03
CGA:  12    -0.997472599450E+03   -0.76939E-04   -0.81968E-04  2880   0.565E-03-0.152E-03
CGA:  13    -0.997472594352E+03    0.50982E-05   -0.80226E-05  2880   0.285E-03 0.170E-03
  10 F= -.99747259E+03 E0= -.99745288E+03  d E =0.485331E-03  mag=     2.0000
       N       E                     dE             d eps       ncg     rms          ort
SDA:   1    -0.997463840409E+03    0.87590E-02    0.00000E+00  2880   0.119E+00 0.000E+00
CGA:   2    -0.997468718876E+03   -0.48785E-02   -0.47087E-02  2880   0.170E-01-0.991E-02
CGA:   3    -0.997470296036E+03   -0.15772E-02   -0.15318E-02  2880   0.867E-02 0.387E-02
CGA:   4    -0.997472161634E+03   -0.18656E-02   -0.21855E-02  2880   0.134E-01-0.273E-02
CGA:   5    -0.997472490926E+03   -0.32929E-03   -0.38878E-03  2880   0.438E-02 0.120E-02
CGA:   6    -0.997472641894E+03   -0.15097E-03   -0.18907E-03  2880   0.211E-02 0.759E-03
CGA:   7    -0.997472836198E+03   -0.19430E-03   -0.19033E-03  2880   0.191E-02-0.352E-03
CGA:   8    -0.997472972257E+03   -0.13606E-03   -0.13334E-03  2880   0.189E-02-0.765E-03
CGA:   9    -0.997473004672E+03   -0.32415E-04   -0.35649E-04  2880   0.106E-02 0.602E-04
CGA:  10    -0.997473026218E+03   -0.21546E-04   -0.32396E-04  2880   0.563E-03 0.193E-03
CGA:  11    -0.997473054101E+03   -0.27882E-04   -0.30578E-04  2880   0.509E-03 0.753E-04
CGA:  12    -0.997473085987E+03   -0.31887E-04   -0.30546E-04  2880   0.367E-03-0.452E-04
CGA:  13    -0.997473087056E+03   -0.10683E-05   -0.74486E-05  2880   0.207E-03 0.114E-03
  11 F= -.99747309E+03 E0= -.99745337E+03  d E =-.492704E-03  mag=     2.0000
       N       E                     dE             d eps       ncg     rms          ort
SDA:   1    -0.997446932816E+03    0.26153E-01    0.00000E+00  2880   0.223E+00 0.000E+00
CGA:   2    -0.997456567189E+03   -0.96344E-02   -0.93977E-02  2880   0.552E-01-0.155E-01
CGA:   3    -0.997467114166E+03   -0.10547E-01   -0.98142E-02  2880   0.351E-01 0.601E-02
CGA:   4    -0.997469970080E+03   -0.28559E-02   -0.28463E-02  2880   0.157E-01-0.293E-02
CGA:   5    -0.997471348087E+03   -0.13780E-02   -0.13390E-02  2880   0.552E-02 0.240E-02
CGA:   6    -0.997471887047E+03   -0.53896E-03   -0.10851E-02  2880   0.256E-01-0.600E-02
CGA:   7    -0.997472484229E+03   -0.59718E-03   -0.78490E-03  2880   0.116E-02 0.351E-02
CGA:   8    -0.997472499021E+03   -0.14793E-04   -0.40972E-04  2880   0.448E-03 0.532E-03
CGA:   9    -0.997472524749E+03   -0.25728E-04   -0.32696E-04  2880   0.442E-03 0.254E-03
CGA:  10    -0.997472597504E+03   -0.72755E-04    0.20450E-03  2880   0.327E-03 0.603E-04
CGA:  11    -0.997472652949E+03   -0.55445E-04   -0.45514E-04  2880   0.181E-03 0.214E-03
CGA:  12    -0.997472670599E+03   -0.17650E-04   -0.26129E-04  2880   0.588E-03-0.130E-03
CGA:  13    -0.997472682170E+03   -0.11572E-04   -0.19053E-04  2880   0.844E-04 0.151E-03
CGA:  14    -0.997472684540E+03   -0.23701E-05   -0.19473E-04  2880   0.846E-03-0.165E-03
CGA:  15    -0.997472725576E+03   -0.41036E-04   -0.39175E-04  2880   0.648E-04-0.566E-04
CGA:  16    -0.997472723220E+03    0.23566E-05   -0.99342E-06  2880   0.479E-04 0.506E-04
  12 F= -.99747272E+03 E0= -.99745299E+03  d E =0.363836E-03  mag=     2.0000
       N       E                     dE             d eps       ncg     rms          ort
SDA:   1    -0.997467899379E+03    0.48262E-02    0.00000E+00  2880   0.428E-01 0.000E+00
CGA:   2    -0.997469339012E+03   -0.14396E-02   -0.16161E-02  2880   0.992E-02 0.480E-02
CGA:   3    -0.997471490102E+03   -0.21511E-02   -0.21397E-02  2880   0.174E-01 0.746E-04
CGA:   4    -0.997472698124E+03   -0.12080E-02   -0.11760E-02  2880   0.647E-02-0.256E-02
CGA:   5    -0.997472841754E+03   -0.14363E-03   -0.20552E-03  2880   0.182E-02 0.145E-02
CGA:   6    -0.997472874625E+03   -0.32871E-04   -0.73796E-04  2880   0.110E-02 0.914E-03
CGA:   7    -0.997473045359E+03   -0.17073E-03    0.15396E-02  2880   0.736E-03 0.490E-03
CGA:   8    -0.997473139490E+03   -0.94131E-04   -0.90061E-04  2880   0.209E-03 0.433E-03
CGA:   9    -0.997473180142E+03   -0.40651E-04    0.28084E-04  2880   0.156E-03 0.736E-04
CGA:  10    -0.997473187424E+03   -0.72820E-05   -0.10909E-04  2880   0.850E-04 0.151E-03
  13 F= -.99747319E+03 E0= -.99745346E+03  d E =-.464204E-03  mag=     2.0000
       N       E                     dE             d eps       ncg     rms          ort
SDA:   1    -0.997336925458E+03    0.13625E+00    0.00000E+00  2880   0.995E+00 0.000E+00
CGA:   2    -0.997377481017E+03   -0.40556E-01   -0.39831E-01  2880   0.247E+00 0.407E-01
CGA:   3    -0.997443744808E+03   -0.66264E-01   -0.66498E-01  2880   0.256E+00-0.180E-02
CGA:   4    -0.997456621380E+03   -0.12877E-01   -0.12931E-01  2880   0.710E-01-0.110E-01
CGA:   5    -0.997461535541E+03   -0.49142E-02   -0.49657E-02  2880   0.345E-01 0.766E-02
CGA:   6    -0.997466100166E+03   -0.45646E-02   -0.44992E-02  2880   0.235E-01 0.158E-02
CGA:   7    -0.997468235263E+03   -0.21351E-02   -0.21646E-02  2880   0.940E-02-0.460E-02
CGA:   8    -0.997468471275E+03   -0.23601E-03   -0.31158E-03  2880   0.307E-02 0.185E-02
CGA:   9    -0.997468610611E+03   -0.13934E-03   -0.17812E-03  2880   0.214E-02 0.125E-02
CGA:  10    -0.997468908663E+03   -0.29805E-03   -0.30854E-03  2880   0.336E-02-0.436E-03
CGA:  11    -0.997469083618E+03   -0.17495E-03   -0.16685E-03  2880   0.242E-02-0.483E-03
CGA:  12    -0.997469129751E+03   -0.46134E-04   -0.55921E-04  2880   0.884E-03 0.179E-03
CGA:  13    -0.997469148401E+03   -0.18649E-04   -0.28032E-04  2880   0.596E-03 0.198E-03
CGA:  14    -0.997469188100E+03   -0.39699E-04   -0.40728E-04  2880   0.779E-03 0.572E-04
CGA:  15    -0.997469248489E+03   -0.60389E-04   -0.59447E-04  2880   0.106E-02-0.311E-03
CGA:  16    -0.997469259420E+03   -0.10931E-04   -0.14659E-04  2880   0.925E-03 0.766E-04
CGA:  17    -0.997469264419E+03   -0.49988E-05   -0.20104E-04  2880   0.475E-03 0.305E-03
CGA:  18    -0.997469261745E+03    0.26738E-05   -0.10594E-04  2880   0.249E-03 0.261E-03
CGA:  19    -0.997469280262E+03   -0.18517E-04   -0.17770E-04  2880   0.104E-03 0.119E-03
CGA:  20    -0.997469310559E+03   -0.30297E-04    0.97600E-05  2880   0.415E-04 0.702E-04
CGA:  21    -0.997469319592E+03   -0.90324E-05   -0.80636E-05  2880   0.527E-04 0.746E-05
  14 F= -.99746932E+03 E0= -.99744960E+03  d E =0.386783E-02  mag=     2.0000
       N       E                     dE             d eps       ncg     rms          ort
SDA:   1    -0.997392314369E+03    0.76996E-01    0.00000E+00  2880   0.626E+00 0.000E+00
CGA:   2    -0.997418944880E+03   -0.26631E-01   -0.26705E-01  2880   0.173E+00-0.295E-01
CGA:   3    -0.997460198723E+03   -0.41254E-01   -0.39535E-01  2880   0.829E-01 0.986E-02
CGA:   4    -0.997466258047E+03   -0.60593E-02   -0.60096E-02  2880   0.382E-01-0.708E-02
CGA:   5    -0.997469784516E+03   -0.35265E-02   -0.34500E-02  2880   0.200E-01 0.374E-02
CGA:   6    -0.997471963954E+03   -0.21794E-02   -0.22359E-02  2880   0.124E-01-0.275E-02
CGA:   7    -0.997472529639E+03   -0.56568E-03   -0.61569E-03  2880   0.221E-02 0.217E-02
CGA:   8    -0.997472765923E+03   -0.23628E-03   -0.23792E-03  2880   0.195E-02-0.126E-03
CGA:   9    -0.997470145982E+03    0.26199E-02   -0.14163E-02  2880   0.720E-01-0.827E-02
CGA:  10    -0.997472383375E+03   -0.22374E-02   -0.26861E-02  2880   0.526E-02 0.432E-02
CGA:  11    -0.997472709277E+03   -0.32590E-03   -0.34976E-03  2880   0.184E-02 0.442E-03
CGA:  12    -0.997473009530E+03   -0.30025E-03   -0.30222E-03  2880   0.242E-02-0.142E-03
CGA:  13    -0.997473112763E+03   -0.10323E-03   -0.12993E-03  2880   0.693E-03 0.335E-03
CGA:  14    -0.997473177920E+03   -0.65157E-04   -0.54634E-04  2880   0.426E-03-0.164E-03
CGA:  15    -0.997473273367E+03   -0.95448E-04    0.16203E-03  2880   0.451E-03-0.600E-04
CGA:  16    -0.997473274985E+03   -0.16178E-05   -0.13612E-04  2880   0.171E-03 0.126E-03
  15 F= -.99747327E+03 E0= -.99745354E+03  d E =-.395539E-02  mag=     2.0000
       N       E                     dE             d eps       ncg     rms          ort
SDA:   1    -0.997451938495E+03    0.21335E-01    0.00000E+00  2880   0.929E-01 0.000E+00
CGA:   2    -0.997458343615E+03   -0.64051E-02   -0.60939E-02  2880   0.759E-01-0.725E-02
CGA:   3    -0.997469140486E+03   -0.10797E-01   -0.10731E-01  2880   0.286E-01 0.185E-02
CGA:   4    -0.997471016304E+03   -0.18758E-02   -0.19253E-02  2880   0.965E-02 0.284E-03
CGA:   5    -0.997472214978E+03   -0.11987E-02   -0.11959E-02  2880   0.533E-02 0.388E-03
CGA:   6    -0.997472738635E+03   -0.52366E-03   -0.52854E-03  2880   0.278E-02 0.216E-03
CGA:   7    -0.997473015521E+03   -0.27689E-03   -0.24159E-03  2880   0.202E-02-0.113E-02
CGA:   8    -0.997473053388E+03   -0.37867E-04   -0.63409E-04  2880   0.769E-03 0.418E-03
CGA:   9    -0.997473066652E+03   -0.13265E-04   -0.33926E-04  2880   0.310E-03 0.275E-03
CGA:  10    -0.997473109745E+03   -0.43092E-04   -0.42413E-04  2880   0.397E-03-0.103E-03
CGA:  11    -0.997473131195E+03   -0.21450E-04   -0.16725E-04  2880   0.444E-03-0.109E-03
CGA:  12    -0.997473139423E+03   -0.82276E-05   -0.12136E-04  2880   0.345E-03 0.584E-04
CGA:  13    -0.997473146619E+03   -0.71969E-05   -0.13321E-04  2880   0.144E-03 0.884E-04
CGA:  14    -0.997473161055E+03   -0.14436E-04   -0.11222E-04  2880   0.100E-03-0.904E-04
CGA:  15    -0.997473181848E+03   -0.20792E-04    0.64658E-04  2880   0.145E-03-0.442E-04
CGA:  16    -0.997473179991E+03    0.18567E-05   -0.19375E-05  2880   0.109E-03 0.523E-04
  16 F= -.99747318E+03 E0= -.99745345E+03  d E =0.949942E-04  mag=     2.0000
       N       E                     dE             d eps       ncg     rms          ort
SDA:   1    -0.997464173701E+03    0.90081E-02    0.00000E+00  2880   0.113E+00 0.000E+00
CGA:   2    -0.997468574878E+03   -0.44012E-02   -0.42507E-02  2880   0.135E-01-0.865E-02
CGA:   3    -0.997470474924E+03   -0.19000E-02   -0.17326E-02  2880   0.854E-02 0.314E-02
CGA:   4    -0.997471751723E+03   -0.12768E-02   -0.17811E-02  2880   0.297E-01-0.640E-02
CGA:   5    -0.997472383164E+03   -0.63144E-03   -0.86410E-03  2880   0.114E-02 0.395E-02
CGA:   6    -0.997472384039E+03   -0.87437E-06   -0.38353E-04  2880   0.626E-03 0.621E-03
CGA:   7    -0.997472493795E+03   -0.10976E-03    0.25252E-02  2880   0.462E-03 0.432E-03
CGA:   8    -0.997472515330E+03   -0.21535E-04   -0.28497E-04  2880   0.366E-03 0.276E-03
CGA:   9    -0.997472596414E+03   -0.81084E-04    0.52872E-04  2880   0.399E-03 0.152E-03
CGA:  10    -0.997472657928E+03   -0.61514E-04   -0.56973E-04  2880   0.103E-03 0.295E-03
CGA:  11    -0.997472687038E+03   -0.29110E-04    0.68635E-05  2880   0.897E-04 0.783E-04
CGA:  12    -0.997472685339E+03    0.16988E-05   -0.26117E-05  2880   0.729E-04 0.753E-04
CGA:  13    -0.997472712422E+03   -0.27083E-04   -0.19155E-04  2880   0.359E-04 0.442E-04
CGA:  14    -0.997472733223E+03   -0.20801E-04    0.77810E-06  2880   0.415E-04 0.146E-04
CGA:  15    -0.997472734368E+03   -0.11445E-05   -0.30246E-05  2880   0.211E-04 0.463E-04
  17 F= -.99747273E+03 E0= -.99745301E+03  d E =0.445623E-03  mag=     2.0000
       N       E                     dE             d eps       ncg     rms          ort
SDA:   1    -0.997462744780E+03    0.99884E-02    0.00000E+00  2880   0.624E-01 0.000E+00
CGA:   2    -0.997465285447E+03   -0.25407E-02   -0.27350E-02  2880   0.238E-01 0.521E-02
CGA:   3    -0.997471554675E+03   -0.62692E-02   -0.65414E-02  2880   0.145E-01-0.162E-02
CGA:   4    -0.997472263647E+03   -0.70897E-03   -0.69950E-03  2880   0.576E-02-0.392E-03
CGA:   5    -0.997472701448E+03   -0.43780E-03   -0.45256E-03  2880   0.287E-02 0.146E-02
CGA:   6    -0.997473087944E+03   -0.38650E-03   -0.40533E-03  2880   0.386E-02-0.865E-03
CGA:   7    -0.997473249960E+03   -0.16202E-03   -0.14927E-03  2880   0.137E-02-0.358E-03
CGA:   8    -0.997473260746E+03   -0.10785E-04   -0.30197E-04  2880   0.471E-03 0.307E-03
CGA:   9    -0.997473257785E+03    0.29605E-05   -0.13334E-04  2880   0.323E-03 0.259E-03
CGA:  10    -0.997473313096E+03   -0.55311E-04   -0.90396E-04  2880   0.115E-02-0.178E-03
CGA:  11    -0.997473355241E+03   -0.42144E-04   -0.43383E-04  2880   0.455E-04 0.238E-04
CGA:  12    -0.997473353692E+03    0.15481E-05   -0.10160E-05  2880   0.315E-04 0.375E-04
  18 F= -.99747335E+03 E0= -.99745364E+03  d E =-.619325E-03  mag=     2.0000
       N       E                     dE             d eps       ncg     rms          ort
SDA:   1    -0.997450557133E+03    0.22798E-01    0.00000E+00  2880   0.144E+00 0.000E+00
CGA:   2    -0.997456365180E+03   -0.58080E-02   -0.61303E-02  2880   0.494E-01 0.964E-02
CGA:   3    -0.997469364520E+03   -0.12999E-01   -0.13017E-01  2880   0.256E-01-0.119E-03
CGA:   4    -0.997470905849E+03   -0.15413E-02   -0.14495E-02  2880   0.131E-01-0.306E-02
CGA:   5    -0.997472124113E+03   -0.12183E-02   -0.11897E-02  2880   0.658E-02 0.200E-02
CGA:   6    -0.997472705626E+03   -0.58151E-03   -0.57990E-03  2880   0.283E-02-0.176E-03
CGA:   7    -0.997472979035E+03   -0.27341E-03   -0.27911E-03  2880   0.168E-02-0.474E-03
CGA:   8    -0.997473037838E+03   -0.58803E-04   -0.70117E-04  2880   0.523E-03 0.285E-03
CGA:   9    -0.997473097638E+03   -0.59800E-04   -0.84610E-04  2880   0.153E-02-0.494E-03
CGA:  10    -0.997473151979E+03   -0.54341E-04   -0.60672E-04  2880   0.131E-03 0.124E-03
CGA:  11    -0.997473151101E+03    0.87795E-06   -0.45041E-05  2880   0.796E-04 0.965E-04
  19 F= -.99747315E+03 E0= -.99745343E+03  d E =0.202591E-03  mag=     2.0000
       N       E                     dE             d eps       ncg     rms          ort
SDA:   1    -0.997472423302E+03    0.72868E-03    0.00000E+00  2880   0.662E-02 0.000E+00
CGA:   2    -0.997472816719E+03   -0.39342E-03   -0.36344E-03  2880   0.229E-02-0.115E-02
CGA:   3    -0.997473114976E+03   -0.29826E-03   -0.26068E-03  2880   0.542E-03 0.684E-03
CGA:   4    -0.997472709236E+03    0.40574E-03   -0.23988E-03  2880   0.153E-01-0.179E-02
CGA:   5    -0.997473222135E+03   -0.51290E-03   -0.62870E-03  2880   0.751E-03 0.117E-02
CGA:   6    -0.997473257222E+03   -0.35087E-04   -0.50361E-04  2880   0.229E-03 0.176E-03
CGA:   7    -0.997473300869E+03   -0.43646E-04   -0.45059E-04  2880   0.518E-03-0.105E-03
CGA:   8    -0.997473309515E+03   -0.86460E-05   -0.11586E-04  2880   0.433E-03 0.281E-04
CGA:   9    -0.997473317241E+03   -0.77257E-05   -0.14650E-04  2880   0.130E-03 0.635E-04
  20 F= -.99747332E+03 E0= -.99745359E+03  d E =-.166139E-03  mag=     2.0000
