       N       E                     dE             d eps       ncg     rms          rms(c)
DAV:   1     0.309036064377E+04    0.30904E+04   -0.25763E+05 11556   0.130E+03
DAV:   2    -0.598277373590E+03   -0.36886E+04   -0.35528E+04 14040   0.297E+02
DAV:   3    -0.865017651422E+03   -0.26674E+03   -0.26501E+03 13932   0.845E+01
DAV:   4    -0.868444313264E+03   -0.34267E+01   -0.34136E+01 14052   0.103E+01
DAV:   5    -0.868505599505E+03   -0.61286E-01   -0.61136E-01 14292   0.126E+00    0.986E+01
DAV:   6    -0.770658094702E+03    0.97848E+02   -0.41187E+02 12924   0.320E+01    0.503E+01
DAV:   7    -0.780121496795E+03   -0.94634E+01   -0.22404E+01 13092   0.782E+00    0.163E+01
DAV:   8    -0.784843866937E+03   -0.47224E+01   -0.23352E+00 13656   0.273E+00    0.787E+00
DAV:   9    -0.787287610400E+03   -0.24437E+01   -0.13930E+00 14028   0.187E+00    0.384E+00
DAV:  10    -0.787807444697E+03   -0.51983E+00   -0.31051E-01 13224   0.971E-01    0.114E+00
DAV:  11    -0.787879789230E+03   -0.72345E-01   -0.42520E-02 14064   0.373E-01    0.626E-01
DAV:  12    -0.787890530994E+03   -0.10742E-01   -0.58947E-03 13440   0.150E-01    0.287E-01
DAV:  13    -0.787892794632E+03   -0.22636E-02   -0.13169E-03 13860   0.739E-02    0.997E-02
DAV:  14    -0.787893232300E+03   -0.43767E-03   -0.39556E-04 13308   0.438E-02    0.442E-02
DAV:  15    -0.787893253404E+03   -0.21104E-04   -0.76060E-05 13884   0.240E-02    0.306E-02
DAV:  16    -0.787893253586E+03   -0.18235E-06   -0.19263E-05 10488   0.151E-02
   1 F= -.78789325E+03 E0= -.78789325E+03  d E =-.787893E+03  mag=    -0.0047
       N       E                     dE             d eps       ncg     rms          rms(c)
DAV:   1    -0.787892995237E+03    0.25817E-03   -0.22239E-03 12552   0.883E-02    0.166E-02
DAV:   2    -0.787892997944E+03   -0.27068E-05   -0.61007E-05 14436   0.152E-02    0.775E-03
DAV:   3    -0.787892995839E+03    0.21048E-05   -0.20048E-06  7680   0.430E-03    0.443E-03
DAV:   4    -0.787892993721E+03    0.21182E-05   -0.16967E-06  9108   0.575E-03
   2 F= -.78789299E+03 E0= -.78789299E+03  d E =0.259865E-03  mag=    -0.0001
       N       E                     dE             d eps       ncg     rms          rms(c)
DAV:   1    -0.787892218682E+03    0.77716E-03   -0.92591E-02 11904   0.559E-01    0.793E-02
DAV:   2    -0.787892402370E+03   -0.18369E-03   -0.20712E-03 13584   0.779E-02    0.312E-02
DAV:   3    -0.787892387000E+03    0.15371E-04   -0.25970E-05 12576   0.120E-02    0.177E-02
DAV:   4    -0.787892380338E+03    0.66620E-05   -0.23022E-05 10740   0.122E-02
   3 F= -.78789238E+03 E0= -.78789238E+03  d E =0.613383E-03  mag=    -0.0000
       N       E                     dE             d eps       ncg     rms          rms(c)
DAV:   1    -0.787464022881E+03    0.42836E+00   -0.47579E+01 11520   0.128E+01    0.424E+00
DAV:   2    -0.787581409983E+03   -0.11739E+00   -0.16695E+00 14124   0.227E+00    0.152E+00
DAV:   3    -0.787537018392E+03    0.44392E-01   -0.39139E-02 14376   0.600E-01    0.663E-01
DAV:   4    -0.787518583942E+03    0.18434E-01   -0.32075E-02 14208   0.586E-01    0.202E-01
DAV:   5    -0.787516167144E+03    0.24168E-02   -0.16167E-02 14304   0.346E-01    0.188E-01
DAV:   6    -0.787515384528E+03    0.78262E-03   -0.22364E-03 14316   0.104E-01    0.108E-01
DAV:   7    -0.787514323786E+03    0.10607E-02   -0.11695E-03 14400   0.117E-01    0.403E-02
DAV:   8    -0.787514133876E+03    0.18991E-03   -0.62353E-04 14496   0.820E-02    0.441E-02
DAV:   9    -0.787514143967E+03   -0.10091E-04   -0.44052E-04 14172   0.423E-02    0.379E-02
DAV:  10    -0.787514134865E+03    0.91020E-05   -0.15293E-05 10524   0.114E-02
   4 F= -.78751413E+03 E0= -.78751413E+03  d E =0.378245E+00  mag=     0.0000
       N       E                     dE             d eps       ncg     rms          rms(c)
DAV:   1    -0.787669947898E+03   -0.15580E+00   -0.94083E+01 11904   0.182E+01    0.737E+00
DAV:   2    -0.787899851398E+03   -0.22990E+00   -0.37134E+00 14148   0.345E+00    0.268E+00
DAV:   3    -0.787782353302E+03    0.11750E+00   -0.84861E-02 14376   0.899E-01    0.134E+00
DAV:   4    -0.787720468005E+03    0.61885E-01   -0.85405E-02 14160   0.107E+00    0.330E-01
DAV:   5    -0.787713429600E+03    0.70384E-02   -0.54558E-02 14424   0.702E-01    0.289E-01
DAV:   6    -0.787712044364E+03    0.13852E-02   -0.12381E-02 14304   0.236E-01    0.215E-01
DAV:   7    -0.787710408585E+03    0.16358E-02   -0.22070E-03 13980   0.103E-01    0.980E-02
DAV:   8    -0.787709170867E+03    0.12377E-02   -0.12484E-03 14472   0.200E-01    0.644E-02
DAV:   9    -0.787709164668E+03    0.61999E-05   -0.14005E-03 14316   0.911E-02    0.607E-02
DAV:  10    -0.787709179635E+03   -0.14967E-04   -0.41480E-04 13836   0.378E-02    0.577E-02
DAV:  11    -0.787709162962E+03    0.16673E-04   -0.24431E-05 10656   0.100E-02    0.390E-02
DAV:  12    -0.787709146467E+03    0.16494E-04   -0.66716E-05 13404   0.193E-02    0.866E-03
DAV:  13    -0.787709147618E+03   -0.11510E-05   -0.12540E-05  7872   0.670E-03
   5 F= -.78770915E+03 E0= -.78770915E+03  d E =-.195013E+00  mag=    -0.0000
       N       E                     dE             d eps       ncg     rms          rms(c)
DAV:   1    -0.787990287349E+03   -0.28114E+00   -0.18343E+01 11904   0.806E+00    0.312E+00
DAV:   2    -0.788035002108E+03   -0.44715E-01   -0.72364E-01 14232   0.155E+00    0.119E+00
DAV:   3    -0.788010338359E+03    0.24664E-01   -0.18724E-02 14376   0.471E-01    0.513E-01
DAV:   4    -0.787999773703E+03    0.10565E-01   -0.16513E-02 14136   0.481E-01    0.145E-01
DAV:   5    -0.787998307902E+03    0.14658E-02   -0.10592E-02 14268   0.311E-01    0.140E-01
DAV:   6    -0.787998103658E+03    0.20424E-03   -0.23451E-03 14172   0.933E-02    0.114E-01
DAV:   7    -0.787997650143E+03    0.45352E-03   -0.65632E-04 14280   0.557E-02    0.464E-02
DAV:   8    -0.787997419581E+03    0.23056E-03   -0.31830E-04 14472   0.781E-02    0.394E-02
DAV:   9    -0.787997409398E+03    0.10183E-04   -0.32275E-04 14244   0.409E-02    0.283E-02
DAV:  10    -0.787997409664E+03   -0.26617E-06   -0.57271E-05 13452   0.149E-02
   6 F= -.78799741E+03 E0= -.78799741E+03  d E =-.288262E+00  mag=     0.0000
       N       E                     dE             d eps       ncg     rms          rms(c)
DAV:   1    -0.787999582748E+03   -0.21733E-02   -0.29290E-02 11904   0.317E-01    0.114E-01
DAV:   2    -0.787999661003E+03   -0.78255E-04   -0.99993E-04 14424   0.540E-02    0.373E-02
DAV:   3    -0.787999643568E+03    0.17435E-04   -0.25655E-05 13152   0.124E-02    0.166E-02
DAV:   4    -0.787999639535E+03    0.40326E-05   -0.14100E-05  9840   0.865E-03
   7 F= -.78799964E+03 E0= -.78799964E+03  d E =-.222987E-02  mag=     0.0000
       N       E                     dE             d eps       ncg     rms          rms(c)
DAV:   1    -0.788005181271E+03   -0.55377E-02   -0.19687E-01 11664   0.811E-01    0.250E-01
DAV:   2    -0.788005601973E+03   -0.42070E-03   -0.56287E-03 14256   0.128E-01    0.775E-02
DAV:   3    -0.788005509545E+03    0.92428E-04   -0.16451E-04 14496   0.308E-02    0.370E-02
DAV:   4    -0.788005489423E+03    0.20122E-04   -0.80461E-05 14292   0.198E-02    0.155E-02
DAV:   5    -0.788005488352E+03    0.10715E-05   -0.16553E-05  9972   0.974E-03
   8 F= -.78800549E+03 E0= -.78800549E+03  d E =-.584882E-02  mag=     0.0000
       N       E                     dE             d eps       ncg     rms          rms(c)
DAV:   1    -0.788011523752E+03   -0.60343E-02   -0.11653E-01 11664   0.589E-01    0.123E-01
DAV:   2    -0.788011735883E+03   -0.21213E-03   -0.26375E-03 13968   0.837E-02    0.383E-02
DAV:   3    -0.788011708024E+03    0.27859E-04   -0.57436E-05 14052   0.178E-02    0.208E-02
DAV:   4    -0.788011700452E+03    0.75716E-05   -0.34984E-05 12840   0.131E-02
   9 F= -.78801170E+03 E0= -.78801170E+03  d E =-.621210E-02  mag=     0.0000
       N       E                     dE             d eps       ncg     rms          rms(c)
DAV:   1    -0.788045327876E+03   -0.33620E-01   -0.22965E+00 11520   0.246E+00    0.308E-01
DAV:   2    -0.788049623497E+03   -0.42956E-02   -0.49983E-02 13752   0.336E-01    0.142E-01
DAV:   3    -0.788049243808E+03    0.37969E-03   -0.65771E-04 14328   0.558E-02    0.855E-02
DAV:   4    -0.788049072404E+03    0.17140E-03   -0.68561E-04 14028   0.569E-02    0.279E-02
DAV:   5    -0.788049074225E+03   -0.18211E-05   -0.13808E-04 13872   0.231E-02    0.202E-02
DAV:   6    -0.788049073046E+03    0.11784E-05   -0.37969E-05 12768   0.119E-02
  10 F= -.78804907E+03 E0= -.78804907E+03  d E =-.373726E-01  mag=     0.0000
       N       E                     dE             d eps       ncg     rms          rms(c)
DAV:   1    -0.788098923942E+03   -0.49850E-01   -0.90260E+00 11520   0.498E+00    0.906E-01
DAV:   2    -0.788116899815E+03   -0.17976E-01   -0.21219E-01 13752   0.713E-01    0.336E-01
DAV:   3    -0.788114699757E+03    0.22001E-02   -0.35055E-03 14232   0.136E-01    0.178E-01
DAV:   4    -0.788113870729E+03    0.82903E-03   -0.24556E-03 13896   0.114E-01    0.558E-02
DAV:   5    -0.788113858216E+03    0.12513E-04   -0.63365E-04 14268   0.563E-02    0.439E-02
DAV:   6    -0.788113841215E+03    0.17001E-04   -0.98317E-05 14028   0.211E-02    0.241E-02
DAV:   7    -0.788113825164E+03    0.16051E-04   -0.77797E-06 10140   0.133E-02    0.120E-02
DAV:   8    -0.788113816202E+03    0.89622E-05   -0.17851E-05 11280   0.157E-02
  11 F= -.78811382E+03 E0= -.78811382E+03  d E =-.647432E-01  mag=    -0.0000
       N       E                     dE             d eps       ncg     rms          rms(c)
DAV:   1    -0.788080398699E+03    0.33426E-01   -0.31189E+00 11532   0.301E+00    0.732E-01
DAV:   2    -0.788087221213E+03   -0.68225E-02   -0.81725E-02 13824   0.457E-01    0.250E-01
DAV:   3    -0.788086095669E+03    0.11255E-02   -0.14964E-03 14244   0.914E-02    0.120E-01
DAV:   4    -0.788085718313E+03    0.37736E-03   -0.95614E-04 14124   0.749E-02    0.345E-02
DAV:   5    -0.788085713670E+03    0.46432E-05   -0.28845E-04 14220   0.388E-02    0.294E-02
DAV:   6    -0.788085706986E+03    0.66838E-05   -0.30256E-05 11616   0.118E-02
  12 F= -.78808571E+03 E0= -.78808571E+03  d E =0.281092E-01  mag=    -0.0000
       N       E                     dE             d eps       ncg     rms          rms(c)
DAV:   1    -0.788083111246E+03    0.26024E-02   -0.16817E-01 11616   0.745E-01    0.267E-01
DAV:   2    -0.788083412472E+03   -0.30123E-03   -0.48510E-03 14448   0.119E-01    0.719E-02
DAV:   3    -0.788083325063E+03    0.87410E-04   -0.19226E-04 14472   0.326E-02    0.352E-02
DAV:   4    -0.788083312788E+03    0.12274E-04   -0.77785E-05 14196   0.178E-02    0.180E-02
DAV:   5    -0.788083312680E+03    0.10819E-06   -0.12707E-05  9492   0.928E-03
  13 F= -.78808331E+03 E0= -.78808331E+03  d E =0.239431E-02  mag=    -0.0000
       N       E                     dE             d eps       ncg     rms          rms(c)
DAV:   1    -0.788086285234E+03   -0.29724E-02   -0.22551E-02 11808   0.266E-01    0.716E-02
DAV:   2    -0.788086329014E+03   -0.43780E-04   -0.58462E-04 14184   0.403E-02    0.224E-02
DAV:   3    -0.788086320224E+03    0.87903E-05   -0.12830E-05 11136   0.880E-03    0.114E-02
DAV:   4    -0.788086318043E+03    0.21801E-05   -0.10181E-05  9288   0.742E-03
  14 F= -.78808632E+03 E0= -.78808632E+03  d E =-.300536E-02  mag=     0.0000
       N       E                     dE             d eps       ncg     rms          rms(c)
DAV:   1    -0.788102708732E+03   -0.16389E-01   -0.44140E-01 11544   0.114E+00    0.165E-01
DAV:   2    -0.788103584070E+03   -0.87534E-03   -0.10083E-02 13776   0.161E-01    0.717E-02
DAV:   3    -0.788103510772E+03    0.73298E-04   -0.16397E-04 14160   0.278E-02    0.400E-02
DAV:   4    -0.788103481662E+03    0.29110E-04   -0.11432E-04 14016   0.233E-02    0.137E-02
DAV:   5    -0.788103479962E+03    0.16999E-05   -0.18783E-05 10584   0.110E-02
  15 F= -.78810348E+03 E0= -.78810348E+03  d E =-.171619E-01  mag=     0.0000
       N       E                     dE             d eps       ncg     rms          rms(c)
DAV:   1    -0.788111935631E+03   -0.84540E-02   -0.13022E+00 11520   0.195E+00    0.584E-01
DAV:   2    -0.788114796007E+03   -0.28604E-02   -0.36373E-02 13944   0.298E-01    0.194E-01
DAV:   3    -0.788114141834E+03    0.65417E-03   -0.70212E-04 14352   0.626E-02    0.904E-02
DAV:   4    -0.788113925061E+03    0.21677E-03   -0.57571E-04 13968   0.587E-02    0.252E-02
DAV:   5    -0.788113925710E+03   -0.64935E-06   -0.18268E-04 14376   0.274E-02    0.242E-02
DAV:   6    -0.788113920674E+03    0.50362E-05   -0.13017E-05  9096   0.721E-03
  16 F= -.78811392E+03 E0= -.78811392E+03  d E =-.104407E-01  mag=    -0.0000
       N       E                     dE             d eps       ncg     rms          rms(c)
DAV:   1    -0.788104542248E+03    0.93835E-02   -0.60869E-01 11520   0.135E+00    0.472E-01
DAV:   2    -0.788105987727E+03   -0.14455E-02   -0.19533E-02 14136   0.224E-01    0.160E-01
DAV:   3    -0.788105567985E+03    0.41974E-03   -0.43876E-04 14400   0.516E-02    0.715E-02
DAV:   4    -0.788105438670E+03    0.12931E-03   -0.33893E-04 14040   0.464E-02    0.211E-02
DAV:   5    -0.788105435918E+03    0.27523E-05   -0.11199E-04 14352   0.244E-02    0.187E-02
DAV:   6    -0.788105433059E+03    0.28586E-05   -0.10909E-05  8880   0.663E-03
  17 F= -.78810543E+03 E0= -.78810543E+03  d E =0.848761E-02  mag=     0.0000
       N       E                     dE             d eps       ncg     rms          rms(c)
DAV:   1    -0.788103164911E+03    0.22710E-02   -0.97245E-02 11568   0.569E-01    0.208E-01
DAV:   2    -0.788103423733E+03   -0.25882E-03   -0.34472E-03 14184   0.990E-02    0.714E-02
DAV:   3    -0.788103348551E+03    0.75183E-04   -0.88852E-05 14424   0.237E-02    0.310E-02
DAV:   4    -0.788103327571E+03    0.20980E-04   -0.52047E-05 14040   0.188E-02    0.106E-02
DAV:   5    -0.788103326158E+03    0.14122E-05   -0.16532E-05 10272   0.109E-02
  18 F= -.78810333E+03 E0= -.78810333E+03  d E =0.210690E-02  mag=     0.0000
       N       E                     dE             d eps       ncg     rms          rms(c)
DAV:   1    -0.788103528154E+03   -0.20058E-03   -0.73171E-03 11736   0.151E-01    0.419E-02
DAV:   2    -0.788103545400E+03   -0.17246E-04   -0.20707E-04 13992   0.236E-02    0.148E-02
DAV:   3    -0.788103542338E+03    0.30615E-05   -0.39001E-06  7476   0.478E-03    0.707E-03
DAV:   4    -0.788103541462E+03    0.87629E-06   -0.35416E-06  6936   0.410E-03
  19 F= -.78810354E+03 E0= -.78810354E+03  d E =-.215304E-03  mag=     0.0000
       N       E                     dE             d eps       ncg     rms          rms(c)
DAV:   1    -0.788102136705E+03    0.14056E-02   -0.17710E-01 11520   0.729E-01    0.124E-01
DAV:   2    -0.788102504295E+03   -0.36759E-03   -0.42872E-03 13680   0.106E-01    0.505E-02
DAV:   3    -0.788102466191E+03    0.38104E-04   -0.66314E-05 14076   0.194E-02    0.276E-02
DAV:   4    -0.788102450835E+03    0.15356E-04   -0.58921E-05 13776   0.183E-02    0.963E-03
DAV:   5    -0.788102449602E+03    0.12329E-05   -0.11413E-05  8556   0.876E-03
  20 F= -.78810245E+03 E0= -.78810245E+03  d E =0.109186E-02  mag=    -0.0000
       N       E                     dE             d eps       ncg     rms          rms(c)
DAV:   1    -0.788094328269E+03    0.81226E-02   -0.64989E-01 11520   0.139E+00    0.329E-01
DAV:   2    -0.788095746268E+03   -0.14180E-02   -0.16979E-02 13896   0.207E-01    0.121E-01
DAV:   3    -0.788095526099E+03    0.22017E-03   -0.32679E-04 14184   0.431E-02    0.585E-02
DAV:   4    -0.788095455342E+03    0.70758E-04   -0.21282E-04 14064   0.361E-02    0.193E-02
DAV:   5    -0.788095453797E+03    0.15453E-05   -0.59037E-05 14088   0.176E-02
  21 F= -.78809545E+03 E0= -.78809545E+03  d E =0.699581E-02  mag=    -0.0000
       N       E                     dE             d eps       ncg     rms          rms(c)
DAV:   1    -0.788098380950E+03   -0.29256E-02   -0.29349E-01 11520   0.904E-01    0.382E-01
DAV:   2    -0.788099180934E+03   -0.79998E-03   -0.10773E-02 14136   0.158E-01    0.141E-01
DAV:   3    -0.788098922106E+03    0.25883E-03   -0.31795E-04 14136   0.401E-02    0.558E-02
DAV:   4    -0.788098858594E+03    0.63512E-04   -0.15414E-04 13968   0.290E-02    0.194E-02
DAV:   5    -0.788098855579E+03    0.30155E-05   -0.51698E-05 13800   0.155E-02
  22 F= -.78809886E+03 E0= -.78809886E+03  d E =-.340178E-02  mag=     0.0000
       N       E                     dE             d eps       ncg     rms          rms(c)
DAV:   1    -0.788102854657E+03   -0.39961E-02   -0.14363E-01 11520   0.661E-01    0.209E-01
DAV:   2    -0.788103193757E+03   -0.33910E-03   -0.43401E-03 13944   0.107E-01    0.689E-02
DAV:   3    -0.788103112088E+03    0.81670E-04   -0.87842E-05 14184   0.223E-02    0.313E-02
DAV:   4    -0.788103086492E+03    0.25596E-04   -0.67289E-05 13728   0.198E-02    0.882E-03
DAV:   5    -0.788103085962E+03    0.53024E-06   -0.18924E-05 10344   0.101E-02
  23 F= -.78810309E+03 E0= -.78810309E+03  d E =-.423038E-02  mag=    -0.0000
