       N       E                     dE             d eps       ncg     rms          ort
DAV:   1     0.283689652895E+04    0.28369E+04   -0.29358E+05 18360   0.141E+03
DAV:   2    -0.970874361100E+03   -0.38078E+04   -0.36708E+04 18360   0.312E+02
DAV:   3    -0.123062807934E+04   -0.25975E+03   -0.25812E+03 18360   0.851E+01
DAV:   4    -0.123366349219E+04   -0.30354E+01   -0.30251E+01 18360   0.979E+00
DAV:   5    -0.123371297323E+04   -0.49481E-01   -0.49376E-01 18360   0.115E+00
SDA:   6    -0.872907367314E+03    0.36081E+03   -0.49376E-01 18360   0.618E+03 0.000E+00
CGA:   7    -0.985818590914E+03   -0.11291E+03   -0.11272E+03 18360   0.440E+02-0.265E+01
CGA:   8    -0.998961667563E+03   -0.13143E+02   -0.13117E+02 18360   0.105E+02 0.216E+00
CGA:   9    -0.100280734321E+04   -0.38457E+01   -0.38473E+01 18360   0.400E+01-0.142E-01
CGA:  10    -0.100407272466E+04   -0.12654E+01   -0.12690E+01 18360   0.868E+00-0.307E-01
CGA:  11    -0.100440707409E+04   -0.33435E+00   -0.33463E+00 18360   0.188E+00-0.148E-02
CGA:  12    -0.100447215075E+04   -0.65077E-01   -0.65071E-01 18360   0.431E-01 0.123E-04
CGA:  13    -0.100448838417E+04   -0.16233E-01   -0.16340E-01 18360   0.984E-02-0.740E-03
CGA:  14    -0.100449207856E+04   -0.36944E-02   -0.36170E-02 18360   0.215E-02 0.570E-03
CGA:  15    -0.100449302236E+04   -0.94380E-03   -0.91303E-03 18360   0.533E-03 0.198E-03
CGA:  16    -0.100449330111E+04   -0.27875E-03   -0.36752E-03 18360   0.380E-03-0.236E-03
CGA:  17    -0.100449336623E+04   -0.65113E-04   -0.64967E-04 18360   0.145E-03 0.380E-05
CGA:  18    -0.100449339299E+04   -0.26764E-04   -0.29773E-04 18360   0.585E-04 0.422E-04
CGA:  19    -0.100449340571E+04   -0.12718E-04   -0.14858E-04 18360   0.298E-04 0.289E-04
CGA:  20    -0.100449341514E+04   -0.94326E-05   -0.99488E-05 18360   0.128E-04 0.118E-04
   1 F= -.10044934E+04 E0= -.10044934E+04  d E =-.100449E+04  mag=     0.0000
