       N       E                     dE             d eps       ncg     rms          rms(c)
DAV:   1     0.305125721950E+04    0.30513E+04   -0.25841E+05 73548   0.130E+03
DAV:   2    -0.613075788240E+03   -0.36643E+04   -0.35352E+04 89268   0.297E+02
DAV:   3    -0.871740000480E+03   -0.25866E+03   -0.25652E+03 89040   0.834E+01
DAV:   4    -0.874974617771E+03   -0.32346E+01   -0.32225E+01 89352   0.100E+01
DAV:   5    -0.875029276310E+03   -0.54659E-01   -0.54522E-01 91140   0.120E+00    0.989E+01
DAV:   6    -0.782249147646E+03    0.92780E+02   -0.39529E+02 84096   0.316E+01    0.504E+01
DAV:   7    -0.790804800445E+03   -0.85557E+01   -0.22875E+01 85224   0.873E+00    0.181E+01
DAV:   8    -0.793868007818E+03   -0.30632E+01   -0.77991E+00103056   0.540E+00    0.116E+01
DAV:   9    -0.795887150277E+03   -0.20191E+01   -0.35091E+00 90156   0.299E+00    0.739E+00
DAV:  10    -0.796562692216E+03   -0.67554E+00   -0.23972E+00 92520   0.289E+00    0.528E+00
DAV:  11    -0.797372963935E+03   -0.81027E+00   -0.20454E+00 92364   0.201E+00    0.529E+00
DAV:  12    -0.797336134342E+03    0.36830E-01   -0.26836E+00102804   0.165E+00    0.233E+00
DAV:  13    -0.797449133930E+03   -0.11300E+00   -0.31151E-01 85872   0.944E-01    0.300E+00
DAV:  14    -0.797424603165E+03    0.24531E-01   -0.17133E-01 99876   0.597E-01    0.155E+00
DAV:  15    -0.797430927345E+03   -0.63242E-02   -0.14151E-01103656   0.563E-01    0.231E+00
DAV:  16    -0.797428700406E+03    0.22269E-02   -0.12234E-02 81996   0.249E-01    0.169E+00
DAV:  17    -0.797428703072E+03   -0.26656E-05   -0.99138E-03 90456   0.224E-01    0.104E+00
DAV:  18    -0.797429505525E+03   -0.80245E-03   -0.14077E-02 91776   0.212E-01    0.358E-01
DAV:  19    -0.797430399081E+03   -0.89356E-03   -0.24200E-03 84552   0.983E-02    0.177E-01
DAV:  20    -0.797430631555E+03   -0.23247E-03   -0.17533E-03 89196   0.568E-02    0.194E-01
DAV:  21    -0.797430506814E+03    0.12474E-03   -0.11515E-03 94296   0.470E-02    0.919E-02
DAV:  22    -0.797430503419E+03    0.33943E-05   -0.31144E-04 86832   0.264E-02    0.855E-02
DAV:  23    -0.797430512809E+03   -0.93893E-05   -0.11871E-04 88248   0.292E-02    0.326E-02
DAV:  24    -0.797430514742E+03   -0.19333E-05   -0.55645E-05 72492   0.124E-02
   1 F= -.79743051E+03 E0= -.79741358E+03  d E =-.797431E+03  mag=    -0.9975
       N       E                     dE             d eps       ncg     rms          rms(c)
DAV:   1    -0.797430576455E+03   -0.63647E-04   -0.28752E-03 75864   0.989E-02    0.399E-02
DAV:   2    -0.797430590463E+03   -0.14008E-04   -0.22696E-04 93240   0.240E-02    0.773E-02
DAV:   3    -0.797430580483E+03    0.99795E-05   -0.10438E-04 64596   0.155E-02    0.185E-02
DAV:   4    -0.797430583085E+03   -0.26016E-05   -0.20471E-05 47928   0.770E-03
   2 F= -.79743058E+03 E0= -.79741365E+03  d E =-.683431E-04  mag=    -0.9988
       N       E                     dE             d eps       ncg     rms          rms(c)
DAV:   1    -0.797430601490E+03   -0.21007E-04   -0.27397E-03 75696   0.964E-02    0.480E-02
DAV:   2    -0.797430644162E+03   -0.42671E-04   -0.67886E-04 97548   0.357E-02    0.158E-01
DAV:   3    -0.797430591966E+03    0.52196E-04   -0.29740E-04 88920   0.253E-02    0.263E-02
DAV:   4    -0.797430602043E+03   -0.10077E-04   -0.56566E-05 69432   0.108E-02    0.224E-02
DAV:   5    -0.797430602950E+03   -0.90634E-06   -0.70351E-06 40812   0.574E-03
   3 F= -.79743060E+03 E0= -.79741367E+03  d E =-.198647E-04  mag=    -0.9993
       N       E                     dE             d eps       ncg     rms          rms(c)
DAV:   1    -0.797430509698E+03    0.92345E-04   -0.36667E-02 75528   0.353E-01    0.101E-01
DAV:   2    -0.797430711072E+03   -0.20137E-03   -0.30531E-03 92148   0.819E-02    0.308E-01
DAV:   3    -0.797430521842E+03    0.18923E-03   -0.12246E-03 98952   0.514E-02    0.436E-02
DAV:   4    -0.797430564267E+03   -0.42425E-04   -0.21742E-04 85248   0.216E-02    0.556E-02
DAV:   5    -0.797430560506E+03    0.37607E-05   -0.34155E-05 58716   0.118E-02
   4 F= -.79743056E+03 E0= -.79741365E+03  d E =0.424435E-04  mag=    -0.9994
       N       E                     dE             d eps       ncg     rms          rms(c)
DAV:   1    -0.797430148821E+03    0.41545E-03   -0.16257E-01 75144   0.744E-01    0.964E-02
DAV:   2    -0.797430505679E+03   -0.35686E-03   -0.44964E-03 88680   0.113E-01    0.216E-01
DAV:   3    -0.797430411189E+03    0.94490E-04   -0.76231E-04 97176   0.430E-02    0.515E-02
DAV:   4    -0.797430420451E+03   -0.92614E-05   -0.13669E-04 85020   0.197E-02    0.516E-02
DAV:   5    -0.797430410203E+03    0.10248E-04   -0.45887E-05 56484   0.127E-02    0.214E-02
DAV:   6    -0.797430411098E+03   -0.89454E-06   -0.66785E-05 64788   0.112E-02
   5 F= -.79743041E+03 E0= -.79741351E+03  d E =0.149408E-03  mag=    -0.9995
       N       E                     dE             d eps       ncg     rms          rms(c)
DAV:   1    -0.797429610262E+03    0.79994E-03   -0.33662E-01 74352   0.107E+00    0.317E-01
DAV:   2    -0.797431768814E+03   -0.21586E-02   -0.32949E-02 96048   0.270E-01    0.106E+00
DAV:   3    -0.797429594489E+03    0.21743E-02   -0.12919E-02 99792   0.169E-01    0.117E-01
DAV:   4    -0.797430114014E+03   -0.51952E-03   -0.23243E-03 86352   0.604E-02    0.185E-01
DAV:   5    -0.797430058220E+03    0.55794E-04   -0.84760E-04 86580   0.362E-02    0.322E-02
DAV:   6    -0.797430081637E+03   -0.23417E-04   -0.15801E-04 83484   0.147E-02    0.802E-02
DAV:   7    -0.797430064307E+03    0.17330E-04   -0.19707E-04 61908   0.146E-02    0.396E-02
DAV:   8    -0.797430067196E+03   -0.28894E-05   -0.66272E-05 51528   0.936E-03
   6 F= -.79743007E+03 E0= -.79741322E+03  d E =0.343901E-03  mag=    -0.9995
       N       E                     dE             d eps       ncg     rms          rms(c)
DAV:   1    -0.797429970415E+03    0.93891E-04   -0.27037E-01 74088   0.962E-01    0.409E-01
DAV:   2    -0.797432600244E+03   -0.26298E-02   -0.48455E-02102828   0.316E-01    0.119E+00
DAV:   3    -0.797429726465E+03    0.28738E-02   -0.15924E-02103668   0.213E-01    0.275E-01
DAV:   4    -0.797430138094E+03   -0.41163E-03   -0.27275E-03 87192   0.819E-02    0.938E-02
DAV:   5    -0.797430218578E+03   -0.80484E-04   -0.38246E-04 84888   0.363E-02    0.949E-02
DAV:   6    -0.797430190943E+03    0.27635E-04   -0.32619E-04 86364   0.252E-02    0.486E-02
DAV:   7    -0.797430204841E+03   -0.13899E-04   -0.18601E-04 81828   0.153E-02    0.810E-02
DAV:   8    -0.797430185581E+03    0.19260E-04   -0.24281E-04 63036   0.155E-02    0.353E-02
DAV:   9    -0.797430188572E+03   -0.29909E-05   -0.26246E-05 46284   0.729E-03
   7 F= -.79743019E+03 E0= -.79741334E+03  d E =-.121376E-03  mag=    -0.9995
       N       E                     dE             d eps       ncg     rms          rms(c)
DAV:   1    -0.797430518836E+03   -0.33326E-03   -0.48594E-02 74712   0.408E-01    0.146E-01
DAV:   2    -0.797430893839E+03   -0.37500E-03   -0.60347E-03 99408   0.116E-01    0.469E-01
DAV:   3    -0.797430477472E+03    0.41637E-03   -0.27187E-03102204   0.770E-02    0.572E-02
DAV:   4    -0.797430574459E+03   -0.96987E-04   -0.33465E-04 85776   0.282E-02    0.596E-02
DAV:   5    -0.797430573852E+03    0.60699E-06   -0.51069E-05 66540   0.141E-02
   8 F= -.79743057E+03 E0= -.79741371E+03  d E =-.385279E-03  mag=    -0.9995
       N       E                     dE             d eps       ncg     rms          rms(c)
DAV:   1    -0.797430557087E+03    0.17372E-04   -0.78223E-02 74280   0.519E-01    0.185E-01
DAV:   2    -0.797431259164E+03   -0.70208E-03   -0.11014E-02 99648   0.151E-01    0.637E-01
DAV:   3    -0.797430467512E+03    0.79165E-03   -0.47436E-03102552   0.100E-01    0.768E-02
DAV:   4    -0.797430646736E+03   -0.17922E-03   -0.67311E-04 86352   0.355E-02    0.867E-02
DAV:   5    -0.797430644417E+03    0.23184E-05   -0.14230E-04 80232   0.188E-02    0.208E-02
DAV:   6    -0.797430649189E+03   -0.47716E-05   -0.78399E-05 54768   0.984E-03
   9 F= -.79743065E+03 E0= -.79741378E+03  d E =-.753371E-04  mag=    -0.9995
       N       E                     dE             d eps       ncg     rms          rms(c)
DAV:   1    -0.797428938034E+03    0.17064E-02   -0.96617E-01 73464   0.183E+00    0.294E-01
DAV:   2    -0.797432307612E+03   -0.33696E-02   -0.42796E-02 89004   0.324E-01    0.103E+00
DAV:   3    -0.797430193263E+03    0.21143E-02   -0.10835E-02 96336   0.161E-01    0.177E-01
DAV:   4    -0.797430588629E+03   -0.39537E-03   -0.19117E-03 86172   0.653E-02    0.134E-01
DAV:   5    -0.797430593632E+03   -0.50027E-05   -0.28957E-04 84180   0.355E-02    0.554E-02
DAV:   6    -0.797430611218E+03   -0.17586E-04   -0.55674E-04 88752   0.270E-02    0.127E-01
DAV:   7    -0.797430573352E+03    0.37866E-04   -0.20166E-04 85584   0.219E-02    0.686E-02
DAV:   8    -0.797430572295E+03    0.10570E-05   -0.25117E-04 74100   0.140E-02    0.522E-02
DAV:   9    -0.797430572817E+03   -0.52182E-06   -0.37370E-05 48348   0.948E-03
  10 F= -.79743057E+03 E0= -.79741370E+03  d E =0.763717E-04  mag=    -0.9995
       N       E                     dE             d eps       ncg     rms          rms(c)
DAV:   1    -0.797428116281E+03    0.24560E-02   -0.10650E+00 73464   0.193E+00    0.342E-01
DAV:   2    -0.797431198932E+03   -0.30827E-02   -0.39533E-02 88800   0.322E-01    0.808E-01
DAV:   3    -0.797429886181E+03    0.13128E-02   -0.92982E-03 98508   0.145E-01    0.115E-01
DAV:   4    -0.797430122900E+03   -0.23672E-03   -0.14235E-03 85728   0.575E-02    0.203E-01
DAV:   5    -0.797430014573E+03    0.10833E-03   -0.13521E-03 92772   0.449E-02    0.945E-02
DAV:   6    -0.797430024950E+03   -0.10377E-04   -0.19749E-04 89928   0.283E-02    0.106E-01
DAV:   7    -0.797429991997E+03    0.32952E-04   -0.16350E-04 84840   0.201E-02    0.172E-02
DAV:   8    -0.797430005412E+03   -0.13415E-04   -0.98845E-05 64308   0.105E-02    0.506E-02
DAV:   9    -0.797429999372E+03    0.60399E-05   -0.56682E-05 46080   0.841E-03
  11 F= -.79743000E+03 E0= -.79741318E+03  d E =0.573445E-03  mag=    -0.9995
       N       E                     dE             d eps       ncg     rms          rms(c)
DAV:   1    -0.797430119293E+03   -0.11388E-03   -0.31921E-01 73488   0.106E+00    0.276E-01
DAV:   2    -0.797431020899E+03   -0.90161E-03   -0.11899E-02 89424   0.189E-01    0.408E-01
DAV:   3    -0.797430744267E+03    0.27663E-03   -0.40306E-03104496   0.958E-02    0.181E-01
DAV:   4    -0.797430735957E+03    0.83106E-05   -0.94465E-04 88572   0.526E-02    0.149E-01
DAV:   5    -0.797430676475E+03    0.59482E-04   -0.42449E-04 99936   0.351E-02    0.375E-02
DAV:   6    -0.797430680092E+03   -0.36171E-05   -0.16707E-04 87576   0.230E-02    0.611E-02
DAV:   7    -0.797430669099E+03    0.10993E-04   -0.50563E-05 67464   0.150E-02    0.271E-02
DAV:   8    -0.797430670054E+03   -0.95544E-06   -0.58806E-05 51948   0.879E-03
  12 F= -.79743067E+03 E0= -.79741378E+03  d E =-.670682E-03  mag=    -0.9995
       N       E                     dE             d eps       ncg     rms          rms(c)
DAV:   1    -0.797430795097E+03   -0.12600E-03   -0.42008E-02 73992   0.384E-01    0.149E-01
DAV:   2    -0.797431127450E+03   -0.33235E-03   -0.47408E-03 96504   0.994E-02    0.403E-01
DAV:   3    -0.797430788541E+03    0.33891E-03   -0.21221E-03100092   0.655E-02    0.565E-02
DAV:   4    -0.797430877228E+03   -0.88687E-04   -0.52542E-04 86172   0.321E-02    0.114E-01
DAV:   5    -0.797430851621E+03    0.25607E-04   -0.17671E-04 85932   0.215E-02    0.406E-02
DAV:   6    -0.797430852217E+03   -0.59631E-06   -0.92461E-05 67272   0.120E-02
  13 F= -.79743085E+03 E0= -.79741399E+03  d E =-.182163E-03  mag=    -0.9995
