       N       E                     dE             d eps       ncg     rms          rms(c)
DAV:   1     0.443285140185E+04    0.44329E+04   -0.15498E+05  7816   0.148E+03
DAV:   2     0.471294288344E+03   -0.39616E+04   -0.38196E+04  7280   0.438E+02
DAV:   3    -0.290959822473E+03   -0.76225E+03   -0.72551E+03 10008   0.159E+02
DAV:   4    -0.351690390387E+03   -0.60731E+02   -0.60351E+02  9296   0.476E+01
DAV:   5    -0.353219340354E+03   -0.15289E+01   -0.15265E+01  9720   0.902E+00    0.674E+01
RMM:   6    -0.272497282437E+03    0.80722E+02   -0.45466E+02  9323   0.447E+01    0.227E+01
RMM:   7    -0.273509189369E+03   -0.10119E+01   -0.35836E+01  8027   0.125E+01    0.180E+01
RMM:   8    -0.275341289430E+03   -0.18321E+01   -0.14090E+01  7847   0.591E+00    0.668E+00
RMM:   9    -0.276090074534E+03   -0.74879E+00   -0.57654E+00  9282   0.384E+00    0.312E+00
RMM:  10    -0.276010639410E+03    0.79435E-01   -0.12048E+00  8409   0.198E+00    0.328E+00
RMM:  11    -0.276120075445E+03   -0.10944E+00   -0.71688E-01  8359   0.139E+00    0.279E+00
RMM:  12    -0.276204330545E+03   -0.84255E-01   -0.30133E-01  8654   0.749E-01    0.188E+00
RMM:  13    -0.276283680677E+03   -0.79350E-01   -0.25239E-01  8647   0.740E-01    0.113E+00
RMM:  14    -0.276331876257E+03   -0.48196E-01   -0.29691E-01  9224   0.782E-01    0.665E-01
RMM:  15    -0.276333356779E+03   -0.14805E-02   -0.69584E-02  8102   0.428E-01    0.502E-01
RMM:  16    -0.276333621311E+03   -0.26453E-03   -0.26524E-02  8395   0.303E-01    0.272E-01
RMM:  17    -0.276335489558E+03   -0.18682E-02   -0.69739E-03  8985   0.127E-01    0.219E-01
RMM:  18    -0.276336296526E+03   -0.80697E-03   -0.49484E-03  7748   0.101E-01    0.882E-02
RMM:  19    -0.276336628029E+03   -0.33150E-03   -0.21040E-03  8968   0.622E-02    0.541E-02
RMM:  20    -0.276336711522E+03   -0.83493E-04   -0.60826E-04  8127   0.316E-02    0.282E-02
RMM:  21    -0.276336763941E+03   -0.52419E-04   -0.36030E-04  7360   0.203E-02    0.161E-02
RMM:  22    -0.276336780849E+03   -0.16909E-04   -0.10681E-04  5469   0.124E-02    0.121E-02
RMM:  23    -0.276336787406E+03   -0.65562E-05   -0.54434E-05  4835   0.928E-03
   1 F= -.27633679E+03 E0= -.27633126E+03  d E =-.276337E+03  mag=     1.0596
