       N       E                     dE             d eps       ncg     rms          ort
DAV:   1     0.274024073342E+04    0.27402E+04   -0.20834E+05  2592   0.137E+03
DAV:   2    -0.740621727576E+03   -0.34809E+04   -0.33366E+04  2592   0.235E+02
DAV:   3    -0.119770667375E+04   -0.45708E+03   -0.45159E+03  2592   0.926E+01
DAV:   4    -0.121915223616E+04   -0.21446E+02   -0.21264E+02  2592   0.220E+01
DAV:   5    -0.122028541755E+04   -0.11332E+01   -0.11311E+01  2592   0.497E+00
SDA:   6    -0.111188199226E+04    0.10840E+03   -0.11311E+01  2592   0.502E+01 0.000E+00
CGA:   7    -0.111370984121E+04   -0.18278E+01   -0.18279E+01  2592   0.699E+00 0.620E-04
CGA:   8    -0.111392089497E+04   -0.21105E+00   -0.21009E+00  2592   0.176E+00 0.103E-01
CGA:   9    -0.111398411822E+04   -0.63223E-01   -0.62965E-01  2592   0.592E-01 0.173E-02
CGA:  10    -0.111400632143E+04   -0.22203E-01   -0.22371E-01  2592   0.202E-01-0.115E-02
CGA:  11    -0.111401363683E+04   -0.73154E-02   -0.74648E-02  2592   0.460E-02-0.101E-02
CGA:  12    -0.111401506282E+04   -0.14260E-02   -0.14483E-02  2592   0.124E-02-0.233E-03
CGA:  13    -0.111401540787E+04   -0.34504E-03   -0.34042E-03  2592   0.300E-03 0.916E-04
CGA:  14    -0.111401549276E+04   -0.84898E-04   -0.83679E-04  2592   0.692E-04 0.695E-04
CGA:  15    -0.111401552504E+04   -0.32281E-04   -0.31013E-04  2592   0.240E-04 0.105E-04
CGA:  16    -0.111401553145E+04   -0.64056E-05   -0.65151E-05  2592   0.759E-05 0.826E-05
   1 F= -.11140155E+04 E0= -.11140076E+04  d E =-.111402E+04  mag=     0.0000
