       N       E                     dE             d eps       ncg     rms          ort
DAV:   1     0.281810919913E+04    0.28181E+04   -0.29419E+05  2880   0.140E+03
DAV:   2    -0.963958540237E+03   -0.37821E+04   -0.36525E+04  2880   0.312E+02
DAV:   3    -0.122102408868E+04   -0.25707E+03   -0.25501E+03  2880   0.849E+01
DAV:   4    -0.122404331178E+04   -0.30192E+01   -0.30088E+01  2880   0.976E+00
DAV:   5    -0.122409323341E+04   -0.49922E-01   -0.49818E-01  2880   0.115E+00
SDA:   6    -0.858505987832E+03    0.36559E+03   -0.49818E-01  2880   0.649E+03 0.000E+00
CGA:   7    -0.966020985270E+03   -0.10751E+03   -0.10824E+03  2880   0.990E+02 0.694E+01
CGA:   8    -0.984618551838E+03   -0.18598E+02   -0.13517E+02  2880   0.616E+02-0.897E+02
CGA:   9    -0.988259529024E+03   -0.36410E+01   -0.59597E+01  2880   0.708E+02-0.507E+02
CGA:  10    -0.990697291062E+03   -0.24378E+01   -0.57794E+01  2880   0.300E+02-0.238E+02
CGA:  11    -0.993077489996E+03   -0.23802E+01   -0.14642E+01  2880   0.938E+01 0.388E+01
CGA:  12    -0.993944824384E+03   -0.86733E+00   -0.76772E+00  2880   0.165E+02-0.485E+01
CGA:  13    -0.994577381631E+03   -0.63256E+00   -0.11985E+01  2880   0.599E+01 0.110E+01
CGA:  14    -0.995271082319E+03   -0.69370E+00   -0.76316E+00  2880   0.119E+02-0.204E+00
CGA:  15    -0.996038424865E+03   -0.76734E+00   -0.91900E+00  2880   0.232E+02-0.213E+01
CGA:  16    -0.996766833077E+03   -0.72841E+00   -0.11529E+01  2880   0.403E+01-0.445E+01
CGA:  17    -0.997136211423E+03   -0.36938E+00   -0.16922E+00  2880   0.138E+01 0.230E+01
CGA:  18    -0.997228890491E+03   -0.92679E-01   -0.84236E-01  2880   0.606E+00 0.768E-02
CGA:  19    -0.997341826729E+03   -0.11294E+00   -0.11090E+00  2880   0.338E+00 0.261E-01
CGA:  20    -0.997403588646E+03   -0.61762E-01   -0.71247E-01  2880   0.474E+00-0.162E+00
CGA:  21    -0.997408833230E+03   -0.52446E-02   -0.48618E-02  2880   0.333E+00 0.423E-01
CGA:  22    -0.997417759699E+03   -0.89265E-02   -0.98886E-02  2880   0.128E+00-0.559E-01
CGA:  23    -0.997423715116E+03   -0.59554E-02   -0.64961E-02  2880   0.175E+00-0.293E-01
CGA:  24    -0.997431801643E+03   -0.80865E-02   -0.73086E-02  2880   0.454E-01-0.155E-01
CGA:  25    -0.997434416844E+03   -0.26152E-02   -0.27966E-02  2880   0.522E-01 0.274E-02
CGA:  26    -0.997437808106E+03   -0.33913E-02   -0.37801E-02  2880   0.208E-01 0.964E-02
CGA:  27    -0.997438883505E+03   -0.10754E-02   -0.11777E-02  2880   0.118E-01 0.562E-03
CGA:  28    -0.997441547265E+03   -0.26638E-02   -0.42555E-02  2880   0.453E-01-0.591E-02
CGA:  29    -0.997442151425E+03   -0.60416E-03   -0.50036E-03  2880   0.196E-01-0.557E-03
CGA:  30    -0.997442574925E+03   -0.42350E-03   -0.41872E-03  2880   0.692E-02-0.273E-03
CGA:  31    -0.997442775417E+03   -0.20049E-03   -0.23701E-03  2880   0.741E-02 0.383E-03
CGA:  32    -0.997443024260E+03   -0.24884E-03   -0.30932E-03  2880   0.701E-02 0.106E-02
CGA:  33    -0.997443222636E+03   -0.19838E-03   -0.23682E-03  2880   0.385E-02 0.616E-03
CGA:  34    -0.997443438320E+03   -0.21568E-03   -0.19196E-03  2880   0.597E-02-0.414E-03
CGA:  35    -0.997443931151E+03   -0.49283E-03   -0.41210E-03  2880   0.160E-01-0.279E-02
CGA:  36    -0.997444252855E+03   -0.32170E-03   -0.14937E-03  2880   0.124E-01-0.188E-02
CGA:  37    -0.997444556812E+03   -0.30396E-03   -0.17112E-03  2880   0.390E-02-0.152E-02
CGA:  38    -0.997444656198E+03   -0.99386E-04   -0.53188E-04  2880   0.148E-02-0.579E-03
CGA:  39    -0.997444715332E+03   -0.59135E-04   -0.32680E-04  2880   0.167E-02-0.410E-03
CGA:  40    -0.997444810085E+03   -0.94752E-04   -0.64910E-04  2880   0.541E-02-0.866E-03
CGA:  41    -0.997445005711E+03   -0.19563E-03   -0.21465E-03  2880   0.713E-03 0.332E-03
CGA:  42    -0.997445093656E+03   -0.87945E-04   -0.78063E-04  2880   0.576E-03 0.536E-03
CGA:  43    -0.997445144677E+03   -0.51021E-04   -0.50807E-04  2880   0.659E-03 0.749E-04
CGA:  44    -0.997445246523E+03   -0.10185E-03   -0.88394E-04  2880   0.152E-03 0.406E-03
CGA:  45    -0.997445250188E+03   -0.36654E-05   -0.72653E-05  2880   0.980E-04 0.903E-04
   1 F= -.99744525E+03 E0= -.99743390E+03  d E =-.997445E+03  mag=     2.0000
       N       E                     dE             d eps       ncg     rms          ort
SDA:   1    -0.997442757569E+03    0.24890E-02    0.00000E+00  2880   0.888E-02 0.000E+00
CGA:   2    -0.997443495892E+03   -0.73832E-03   -0.73787E-03  2880   0.103E-01-0.352E-03
CGA:   3    -0.997444938063E+03   -0.14422E-02   -0.14545E-02  2880   0.110E-02-0.211E-03
CGA:   4    -0.997445220466E+03   -0.28240E-03   -0.29158E-03  2880   0.823E-03-0.506E-04
CGA:   5    -0.997445256774E+03   -0.36307E-04   -0.35986E-04  2880   0.169E-03-0.121E-04
CGA:   6    -0.997445269773E+03   -0.12999E-04   -0.13820E-04  2880   0.687E-04 0.738E-04
CGA:   7    -0.997445273960E+03   -0.41870E-05   -0.58953E-05  2880   0.428E-04 0.501E-04
   2 F= -.99744527E+03 E0= -.99743392E+03  d E =-.237717E-04  mag=     2.0000
       N       E                     dE             d eps       ncg     rms          ort
SDA:   1    -0.997444274362E+03    0.99541E-03    0.00000E+00  2880   0.182E-01 0.000E+00
CGA:   2    -0.997444929227E+03   -0.65486E-03   -0.65149E-03  2880   0.107E-02-0.100E-03
CGA:   3    -0.997445233365E+03   -0.30414E-03   -0.25195E-03  2880   0.201E-03 0.350E-03
CGA:   4    -0.997445285877E+03   -0.52512E-04    0.52570E-03  2880   0.119E-03 0.198E-03
CGA:   5    -0.997445310811E+03   -0.24934E-04    0.58208E-04  2880   0.811E-04 0.969E-04
CGA:   6    -0.997445328093E+03   -0.17282E-04    0.34851E-04  2880   0.569E-04 0.672E-04
CGA:   7    -0.997445340470E+03   -0.12377E-04    0.20109E-04  2880   0.403E-04 0.472E-04
CGA:   8    -0.997445349818E+03   -0.93484E-05    0.91977E-05  2880   0.293E-04 0.329E-04
CGA:   9    -0.997445356144E+03   -0.63257E-05    0.11126E-04  2880   0.236E-04 0.217E-04
   3 F= -.99744536E+03 E0= -.99743400E+03  d E =-.821843E-04  mag=     2.0000
       N       E                     dE             d eps       ncg     rms          ort
SDA:   1    -0.997444896754E+03    0.45306E-03    0.00000E+00  2880   0.141E-01 0.000E+00
CGA:   2    -0.997445381468E+03   -0.48471E-03   -0.48082E-03  2880   0.879E-04-0.955E-04
CGA:   3    -0.997445387446E+03   -0.59775E-05   -0.69047E-05  2880   0.571E-04 0.679E-04
CGA:   4    -0.997445396783E+03   -0.93370E-05   -0.76839E-05  2880   0.307E-04 0.389E-04
   4 F= -.99744540E+03 E0= -.99743404E+03  d E =-.406387E-04  mag=     2.0000
       N       E                     dE             d eps       ncg     rms          ort
SDA:   1    -0.997444745130E+03    0.64232E-03    0.00000E+00  2880   0.221E-01 0.000E+00
CGA:   2    -0.997445453605E+03   -0.70847E-03   -0.74027E-03  2880   0.108E-03 0.366E-04
CGA:   3    -0.997445465919E+03   -0.12314E-04   -0.11434E-04  2880   0.626E-04 0.771E-04
CGA:   4    -0.997445488727E+03   -0.22808E-04   -0.24031E-04  2880   0.152E-03-0.426E-05
CGA:   5    -0.997445492501E+03   -0.37742E-05   -0.53873E-05  2880   0.167E-04 0.214E-04
   5 F= -.99744549E+03 E0= -.99743414E+03  d E =-.957187E-04  mag=     2.0000
       N       E                     dE             d eps       ncg     rms          ort
SDA:   1    -0.997445396817E+03    0.91910E-04    0.00000E+00  2880   0.300E-02 0.000E+00
CGA:   2    -0.997445498294E+03   -0.10148E-03   -0.10394E-03  2880   0.607E-04-0.189E-05
CGA:   3    -0.997445514363E+03   -0.16069E-04    0.87197E-05  2880   0.188E-04 0.364E-06
CGA:   4    -0.997445518911E+03   -0.45479E-05    0.43290E-05  2880   0.927E-05 0.129E-04
   6 F= -.99744552E+03 E0= -.99743416E+03  d E =-.264095E-04  mag=     2.0000
       N       E                     dE             d eps       ncg     rms          ort
SDA:   1    -0.997445508576E+03    0.57874E-05    0.00000E+00  2880   0.119E-03 0.000E+00
CGA:   2    -0.997445501513E+03    0.70626E-05   -0.28016E-04  2880   0.784E-03-0.250E-03
CGA:   3    -0.997445528838E+03   -0.27325E-04   -0.33831E-04  2880   0.103E-03 0.107E-03
CGA:   4    -0.997445531396E+03   -0.25580E-05   -0.46968E-05  2880   0.121E-04 0.360E-04
   7 F= -.99744553E+03 E0= -.99743418E+03  d E =-.124850E-04  mag=     2.0000
       N       E                     dE             d eps       ncg     rms          ort
SDA:   1    -0.997445547399E+03   -0.18561E-04    0.00000E+00  2880   0.892E-04 0.000E+00
CGA:   2    -0.997445568303E+03   -0.20905E-04    0.16089E-04  2880   0.324E-04-0.133E-04
CGA:   3    -0.997445484036E+03    0.84267E-04   -0.45576E-04  2880   0.295E-02-0.203E-03
CGA:   4    -0.997445584936E+03   -0.10090E-03   -0.10196E-03  2880   0.448E-04-0.340E-05
CGA:   5    -0.997445582496E+03    0.24401E-05   -0.17193E-05  2880   0.257E-04 0.334E-04
   8 F= -.99744558E+03 E0= -.99743422E+03  d E =-.510998E-04  mag=     2.0000
       N       E                     dE             d eps       ncg     rms          ort
SDA:   1    -0.997445472339E+03    0.11260E-03    0.00000E+00  2880   0.545E-03 0.000E+00
CGA:   2    -0.997445551925E+03   -0.79586E-04   -0.10336E-03  2880   0.184E-02-0.612E-03
CGA:   3    -0.997445609014E+03   -0.57089E-04   -0.75965E-04  2880   0.237E-03 0.162E-03
CGA:   4    -0.997445611294E+03   -0.22792E-05   -0.11505E-04  2880   0.498E-04 0.898E-04
   9 F= -.99744561E+03 E0= -.99743426E+03  d E =-.287979E-04  mag=     2.0000
       N       E                     dE             d eps       ncg     rms          ort
SDA:   1    -0.997445632268E+03   -0.23254E-04    0.00000E+00  2880   0.185E-02 0.000E+00
CGA:   2    -0.997445764450E+03   -0.13218E-03   -0.13280E-03  2880   0.159E-02-0.373E-05
CGA:   3    -0.997445976795E+03   -0.21234E-03   -0.21236E-03  2880   0.409E-03 0.175E-03
CGA:   4    -0.997446031947E+03   -0.55153E-04   -0.55004E-04  2880   0.168E-03-0.107E-04
CGA:   5    -0.997446050561E+03   -0.18614E-04   -0.18633E-04  2880   0.203E-03 0.193E-06
CGA:   6    -0.997446064534E+03   -0.13973E-04   -0.14608E-04  2880   0.143E-04 0.993E-05
CGA:   7    -0.997446077757E+03   -0.13223E-04    0.40198E-06  2880   0.903E-05 0.471E-05
CGA:   8    -0.997446086019E+03   -0.82619E-05    0.46281E-06  2880   0.218E-04-0.400E-05
  10 F= -.99744609E+03 E0= -.99743473E+03  d E =-.474725E-03  mag=     2.0000
       N       E                     dE             d eps       ncg     rms          ort
SDA:   1    -0.997445743406E+03    0.33435E-03    0.00000E+00  2880   0.703E-02 0.000E+00
CGA:   2    -0.997446008465E+03   -0.26506E-03   -0.24971E-03  2880   0.203E-03-0.184E-03
CGA:   3    -0.997446074625E+03   -0.66160E-04    0.35314E-04  2880   0.106E-03 0.899E-04
CGA:   4    -0.997446112879E+03   -0.38254E-04    0.37708E-02  2880   0.747E-04 0.512E-04
CGA:   5    -0.997446119444E+03   -0.65647E-05   -0.80069E-05  2880   0.262E-04 0.273E-04
  11 F= -.99744612E+03 E0= -.99743476E+03  d E =-.334251E-04  mag=     2.0000
       N       E                     dE             d eps       ncg     rms          ort
SDA:   1    -0.997445533616E+03    0.57926E-03    0.00000E+00  2880   0.260E-02 0.000E+00
CGA:   2    -0.997445672340E+03   -0.13872E-03   -0.13298E-03  2880   0.114E-02-0.102E-03
CGA:   3    -0.997445925104E+03   -0.25276E-03   -0.26389E-03  2880   0.365E-03-0.895E-04
CGA:   4    -0.997445947367E+03   -0.22263E-04   -0.25725E-04  2880   0.135E-03 0.753E-04
CGA:   5    -0.997445953258E+03   -0.58911E-05   -0.10055E-04  2880   0.598E-04 0.721E-04
CGA:   6    -0.997445964130E+03   -0.10872E-04   -0.15887E-04  2880   0.158E-03-0.336E-04
CGA:   7    -0.997445973197E+03   -0.90669E-05   -0.83598E-05  2880   0.336E-04-0.104E-04
  12 F= -.99744597E+03 E0= -.99743461E+03  d E =0.146247E-03  mag=     2.0000
       N       E                     dE             d eps       ncg     rms          ort
SDA:   1    -0.997443612205E+03    0.23519E-02    0.00000E+00  2880   0.598E-01 0.000E+00
CGA:   2    -0.997445785591E+03   -0.21734E-02   -0.21619E-02  2880   0.218E-02-0.518E-03
CGA:   3    -0.997445969197E+03   -0.18361E-03   -0.17661E-03  2880   0.275E-03-0.160E-03
CGA:   4    -0.997446017026E+03   -0.47829E-04   -0.44807E-04  2880   0.288E-03 0.491E-04
CGA:   5    -0.997446036745E+03   -0.19719E-04   -0.21228E-04  2880   0.636E-04 0.248E-04
CGA:   6    -0.997446056142E+03   -0.19397E-04    0.19041E-04  2880   0.350E-04 0.190E-04
CGA:   7    -0.997446060934E+03   -0.47921E-05   -0.11080E-04  2880   0.280E-03-0.498E-04
  13 F= -.99744606E+03 E0= -.99743470E+03  d E =-.877369E-04  mag=     2.0000
       N       E                     dE             d eps       ncg     rms          ort
SDA:   1    -0.997444243279E+03    0.18129E-02    0.00000E+00  2880   0.119E-01 0.000E+00
CGA:   2    -0.997444881887E+03   -0.63861E-03   -0.65759E-03  2880   0.674E-02 0.116E-03
CGA:   3    -0.997446460688E+03   -0.15788E-02   -0.15614E-02  2880   0.113E-02 0.149E-03
CGA:   4    -0.997446655511E+03   -0.19482E-03   -0.19702E-03  2880   0.666E-03-0.439E-04
CGA:   5    -0.997446754448E+03   -0.98937E-04   -0.10798E-03  2880   0.314E-03-0.198E-03
CGA:   6    -0.997446764561E+03   -0.10113E-04   -0.10087E-04  2880   0.111E-03-0.215E-05
CGA:   7    -0.997446768510E+03   -0.39484E-05   -0.69015E-05  2880   0.712E-04 0.503E-04
  14 F= -.99744677E+03 E0= -.99743542E+03  d E =-.707576E-03  mag=     2.0000
       N       E                     dE             d eps       ncg     rms          ort
SDA:   1    -0.997445712869E+03    0.10517E-02    0.00000E+00  2880   0.228E-02 0.000E+00
CGA:   2    -0.997445940723E+03   -0.22785E-03   -0.22923E-03  2880   0.217E-02 0.824E-04
CGA:   3    -0.997446148369E+03   -0.20765E-03   -0.21019E-03  2880   0.130E-02 0.112E-03
CGA:   4    -0.997446326271E+03   -0.17790E-03   -0.18299E-03  2880   0.244E-03-0.243E-03
CGA:   5    -0.997446337752E+03   -0.11481E-04   -0.14095E-04  2880   0.106E-03 0.597E-04
CGA:   6    -0.997446345098E+03   -0.73453E-05   -0.92445E-05  2880   0.332E-04 0.448E-04
  15 F= -.99744635E+03 E0= -.99743499E+03  d E =0.423412E-03  mag=     2.0000
       N       E                     dE             d eps       ncg     rms          ort
SDA:   1    -0.997445254372E+03    0.10834E-02    0.00000E+00  2880   0.129E-01 0.000E+00
CGA:   2    -0.997445744650E+03   -0.49028E-03   -0.47966E-03  2880   0.107E-02-0.168E-03
CGA:   3    -0.997446008097E+03   -0.26345E-03   -0.33364E-03  2880   0.182E-02-0.335E-03
CGA:   4    -0.997446124961E+03   -0.11686E-03   -0.11241E-03  2880   0.614E-03-0.167E-03
CGA:   5    -0.997446148877E+03   -0.23916E-04   -0.28924E-04  2880   0.196E-03 0.812E-04
CGA:   6    -0.997446155837E+03   -0.69596E-05   -0.13272E-04  2880   0.143E-03 0.119E-03
CGA:   7    -0.997446165593E+03   -0.97563E-05   -0.11248E-04  2880   0.822E-04 0.469E-04
  16 F= -.99744617E+03 E0= -.99743481E+03  d E =0.179505E-03  mag=     2.0000
       N       E                     dE             d eps       ncg     rms          ort
SDA:   1    -0.997444220324E+03    0.19355E-02    0.00000E+00  2880   0.995E-02 0.000E+00
CGA:   2    -0.997444776594E+03   -0.55627E-03   -0.54672E-03  2880   0.489E-02-0.254E-03
CGA:   3    -0.997445626465E+03   -0.84987E-03   -0.88161E-03  2880   0.326E-02-0.399E-03
CGA:   4    -0.997445960419E+03   -0.33395E-03   -0.33495E-03  2880   0.609E-03-0.255E-03
CGA:   5    -0.997445992009E+03   -0.31590E-04   -0.38635E-04  2880   0.382E-03 0.177E-03
CGA:   6    -0.997446026812E+03   -0.34803E-04   -0.40267E-04  2880   0.787E-04 0.225E-03
CGA:   7    -0.997445961381E+03    0.65431E-04   -0.37374E-04  2880   0.305E-02-0.215E-03
CGA:   8    -0.997446046562E+03   -0.85181E-04   -0.10510E-03  2880   0.728E-04 0.612E-04
CGA:   9    -0.997446040951E+03    0.56102E-05   -0.29039E-05  2880   0.498E-04 0.592E-04
  17 F= -.99744604E+03 E0= -.99743468E+03  d E =0.124642E-03  mag=     2.0000
       N       E                     dE             d eps       ncg     rms          ort
SDA:   1    -0.997445402598E+03    0.64396E-03    0.00000E+00  2880   0.221E-02 0.000E+00
CGA:   2    -0.997445765731E+03   -0.36313E-03   -0.36051E-03  2880   0.589E-02-0.427E-03
CGA:   3    -0.997446198100E+03   -0.43237E-03   -0.38678E-03  2880   0.116E-02-0.526E-03
CGA:   4    -0.997446216558E+03   -0.18457E-04   -0.44385E-04  2880   0.567E-03 0.204E-03
CGA:   5    -0.997446209365E+03    0.71929E-05   -0.30274E-04  2880   0.311E-03 0.334E-03
CGA:   6    -0.997446218039E+03   -0.86742E-05   -0.16715E-04  2880   0.157E-03 0.784E-04
CGA:   7    -0.997446229985E+03   -0.11946E-04   -0.17469E-04  2880   0.510E-04 0.936E-04
CGA:   8    -0.997446252823E+03   -0.22838E-04    0.68422E-05  2880   0.194E-03-0.366E-04
CGA:   9    -0.997446257575E+03   -0.47514E-05   -0.65640E-05  2880   0.111E-04 0.140E-04
  18 F= -.99744626E+03 E0= -.99743490E+03  d E =-.216623E-03  mag=     2.0000
       N       E                     dE             d eps       ncg     rms          ort
SDA:   1    -0.997445905044E+03    0.34778E-03    0.00000E+00  2880   0.911E-02 0.000E+00
CGA:   2    -0.997446216759E+03   -0.31172E-03   -0.33142E-03  2880   0.741E-03 0.149E-04
CGA:   3    -0.997446416519E+03   -0.19976E-03   -0.18265E-03  2880   0.299E-03 0.151E-03
CGA:   4    -0.997446476389E+03   -0.59870E-04   -0.65797E-04  2880   0.471E-03-0.135E-03
CGA:   5    -0.997446490110E+03   -0.13721E-04   -0.13406E-04  2880   0.292E-03-0.475E-05
CGA:   6    -0.997446501802E+03   -0.11692E-04   -0.14820E-04  2880   0.137E-03 0.365E-04
CGA:   7    -0.997446506900E+03   -0.50987E-05   -0.61838E-05  2880   0.236E-04 0.110E-04
  19 F= -.99744651E+03 E0= -.99743514E+03  d E =-.249326E-03  mag=     2.0000
       N       E                     dE             d eps       ncg     rms          ort
SDA:   1    -0.997431685528E+03    0.14816E-01    0.00000E+00  2880   0.409E+00 0.000E+00
CGA:   2    -0.997445898239E+03   -0.14213E-01   -0.13846E-01  2880   0.303E-02 0.651E-02
CGA:   3    -0.997446166619E+03   -0.26838E-03   -0.28149E-03  2880   0.113E-02 0.306E-03
CGA:   4    -0.997446293526E+03   -0.12691E-03   -0.13043E-03  2880   0.134E-02 0.145E-03
CGA:   5    -0.997446449448E+03   -0.15592E-03   -0.15528E-03  2880   0.181E-03-0.349E-04
CGA:   6    -0.997446465340E+03   -0.15892E-04   -0.75031E-04  2880   0.166E-02-0.200E-03
CGA:   7    -0.997446523850E+03   -0.58511E-04   -0.58363E-04  2880   0.410E-04-0.120E-04
CGA:   8    -0.997446523049E+03    0.80118E-06   -0.20044E-05  2880   0.256E-04 0.323E-04
  20 F= -.99744652E+03 E0= -.99743516E+03  d E =-.161487E-04  mag=     2.0000
