       N       E                     dE             d eps       ncg     rms          ort
DAV:   1     0.282006034147E+04    0.28201E+04   -0.29341E+05  2880   0.140E+03
DAV:   2    -0.973723547083E+03   -0.37938E+04   -0.36617E+04  2880   0.313E+02
DAV:   3    -0.122932205272E+04   -0.25560E+03   -0.25355E+03  2880   0.847E+01
DAV:   4    -0.123229450283E+04   -0.29725E+01   -0.29623E+01  2880   0.971E+00
DAV:   5    -0.123234256697E+04   -0.48064E-01   -0.47958E-01  2880   0.114E+00
SDA:   6    -0.877381167486E+03    0.35496E+03   -0.47958E-01  2880   0.606E+03 0.000E+00
CGA:   7    -0.986644478340E+03   -0.10926E+03   -0.10943E+03  2880   0.465E+02 0.595E+01
CGA:   8    -0.996745807764E+03   -0.10101E+02   -0.99965E+01  2880   0.256E+02 0.460E+01
CGA:   9    -0.100136545420E+04   -0.46196E+01   -0.47106E+01  2880   0.147E+02 0.497E+00
CGA:  10    -0.100287963143E+04   -0.15142E+01   -0.20634E+01  2880   0.964E+01 0.206E+01
CGA:  11    -0.100470344686E+04   -0.18238E+01   -0.17936E+01  2880   0.309E+01-0.293E+00
CGA:  12    -0.100513074343E+04   -0.42730E+00   -0.37701E+00  2880   0.226E+01 0.430E+00
CGA:  13    -0.100524863197E+04   -0.11789E+00   -0.23599E+00  2880   0.272E+01-0.153E+01
CGA:  14    -0.100549753524E+04   -0.24890E+00   -0.23059E+00  2880   0.537E+00-0.558E+00
CGA:  15    -0.100561748034E+04   -0.11995E+00   -0.12708E+00  2880   0.597E+00-0.557E-01
CGA:  16    -0.100567569057E+04   -0.58210E-01   -0.60934E-01  2880   0.886E-01-0.921E-02
CGA:  17    -0.100569111333E+04   -0.15423E-01   -0.15429E-01  2880   0.679E-01-0.348E-03
CGA:  18    -0.100570511710E+04   -0.14004E-01   -0.14026E-01  2880   0.217E-01-0.269E-03
CGA:  19    -0.100570902670E+04   -0.39096E-02   -0.38923E-02  2880   0.239E-01-0.282E-02
CGA:  20    -0.100571438286E+04   -0.53562E-02   -0.59278E-02  2880   0.337E-01-0.667E-02
CGA:  21    -0.100571558842E+04   -0.12056E-02   -0.12906E-02  2880   0.756E-02-0.879E-04
CGA:  22    -0.100571589334E+04   -0.30492E-03   -0.35305E-03  2880   0.312E-02 0.139E-03
CGA:  23    -0.100571620519E+04   -0.31185E-03   -0.34651E-03  2880   0.488E-02 0.459E-03
CGA:  24    -0.100571673701E+04   -0.53181E-03   -0.53573E-03  2880   0.410E-02 0.940E-03
CGA:  25    -0.100571700595E+04   -0.26894E-03   -0.28564E-03  2880   0.200E-02 0.912E-03
CGA:  26    -0.100571711430E+04   -0.10835E-03   -0.13559E-03  2880   0.137E-02 0.221E-03
CGA:  27    -0.100571733879E+04   -0.22449E-03   -0.22724E-03  2880   0.377E-02 0.204E-03
CGA:  28    -0.100571761830E+04   -0.27951E-03   -0.15298E-03  2880   0.177E-02 0.302E-02
CGA:  29    -0.100571775627E+04   -0.13797E-03   -0.12170E-03  2880   0.780E-03-0.200E-03
CGA:  30    -0.100571793518E+04   -0.17891E-03   -0.30827E-03  2880   0.490E-02-0.436E-03
CGA:  31    -0.100571821673E+04   -0.28155E-03   -0.27351E-03  2880   0.482E-03-0.962E-04
CGA:  32    -0.100571824055E+04   -0.23820E-04   -0.32274E-04  2880   0.200E-03 0.965E-04
CGA:  33    -0.100571828184E+04   -0.41293E-04   -0.39363E-04  2880   0.178E-03 0.158E-03
CGA:  34    -0.100571830128E+04   -0.19445E-04   -0.17354E-04  2880   0.233E-03-0.390E-04
CGA:  35    -0.100571835438E+04   -0.53092E-04   -0.44510E-04  2880   0.256E-03 0.914E-04
CGA:  36    -0.100571837156E+04   -0.17184E-04   -0.23385E-04  2880   0.590E-04 0.743E-04
CGA:  37    -0.100571838180E+04   -0.10240E-04   -0.97010E-05  2880   0.952E-04-0.237E-04
CGA:  38    -0.100571839136E+04   -0.95607E-05   -0.97661E-05  2880   0.116E-03-0.633E-05
   1 F= -.10057184E+04 E0= -.10057022E+04  d E =-.100572E+04  mag=     1.0000
       N       E                     dE             d eps       ncg     rms          ort
SDA:   1    -0.100571740512E+04    0.97668E-03    0.00000E+00  2880   0.773E-02 0.000E+00
CGA:   2    -0.100571791606E+04   -0.51094E-03   -0.51194E-03  2880   0.163E-02-0.127E-03
CGA:   3    -0.100571824526E+04   -0.32920E-03   -0.32074E-03  2880   0.217E-02 0.138E-03
CGA:   4    -0.100571842742E+04   -0.18216E-03   -0.17342E-03  2880   0.302E-03-0.136E-03
CGA:   5    -0.100571845355E+04   -0.26137E-04   -0.28019E-04  2880   0.145E-03 0.445E-04
CGA:   6    -0.100571847939E+04   -0.25833E-04   -0.26481E-04  2880   0.154E-03-0.310E-04
CGA:   7    -0.100571848390E+04   -0.45121E-05   -0.65856E-05  2880   0.246E-04 0.240E-04
   2 F= -.10057185E+04 E0= -.10057023E+04  d E =-.925365E-04  mag=     1.0000
       N       E                     dE             d eps       ncg     rms          ort
SDA:   1    -0.100571833095E+04    0.14844E-03    0.00000E+00  2880   0.152E-02 0.000E+00
CGA:   2    -0.100571838938E+04   -0.58432E-04   -0.68884E-04  2880   0.338E-03 0.103E-03
CGA:   3    -0.100571848851E+04   -0.99134E-04   -0.95018E-04  2880   0.287E-03 0.296E-04
CGA:   4    -0.100571851469E+04   -0.26175E-04   -0.22228E-04  2880   0.117E-03-0.670E-04
CGA:   5    -0.100571852061E+04   -0.59265E-05   -0.69260E-05  2880   0.396E-04 0.187E-04
   3 F= -.10057185E+04 E0= -.10057023E+04  d E =-.367164E-04  mag=     1.0000
