       N       E                     dE             d eps       ncg     rms          rms(c)
DAV:   1     0.844763222232E+04    0.84476E+04   -0.36701E+05 27040   0.176E+03
DAV:   2    -0.883611246172E+02   -0.85360E+04   -0.78470E+04 26232   0.479E+02
DAV:   3    -0.134267601439E+04   -0.12543E+04   -0.12230E+04 27744   0.205E+02
DAV:   4    -0.140825234568E+04   -0.65576E+02   -0.62043E+02 31096   0.465E+01
DAV:   5    -0.141056295680E+04   -0.23106E+01   -0.22530E+01 31336   0.722E+00    0.117E+02
DAV:   6    -0.109520244189E+04    0.31536E+03   -0.71772E+02 33576   0.669E+01    0.118E+02
DAV:   7    -0.111903492064E+04   -0.23832E+02   -0.13252E+02 30296   0.379E+01    0.699E+01
DAV:   8    -0.112107948527E+04   -0.20446E+01   -0.71341E+01 30696   0.406E+01    0.602E+01
DAV:   9    -0.113352477758E+04   -0.12445E+02   -0.19766E+02 31232   0.271E+01    0.551E+01
DAV:  10    -0.111999677675E+04    0.13528E+02   -0.35047E+01 28952   0.329E+01    0.308E+01
DAV:  11    -0.112403040920E+04   -0.40336E+01   -0.14288E+01 30824   0.118E+01    0.198E+01
DAV:  12    -0.112513777935E+04   -0.11074E+01   -0.79841E+00 31720   0.874E+00    0.215E+01
DAV:  13    -0.112683524960E+04   -0.16975E+01   -0.16801E+00 29696   0.460E+00    0.148E+01
DAV:  14    -0.112653227224E+04    0.30298E+00   -0.99264E-01 32056   0.555E+00    0.116E+01
DAV:  15    -0.112602688321E+04    0.50539E+00   -0.67299E-01 32296   0.487E+00    0.123E+01
DAV:  16    -0.112663550549E+04   -0.60862E+00   -0.84091E-01 30744   0.394E+00    0.103E+01
DAV:  17    -0.112639746408E+04    0.23804E+00   -0.32562E-01 31120   0.326E+00    0.868E+00
DAV:  18    -0.112653083506E+04   -0.13337E+00   -0.24663E-01 32232   0.288E+00    0.693E+00
DAV:  19    -0.112668383914E+04   -0.15300E+00   -0.16230E-01 32224   0.254E+00    0.553E+00
DAV:  20    -0.112680041458E+04   -0.11658E+00   -0.32374E-01 32752   0.449E+00    0.289E+00
DAV:  21    -0.112690942182E+04   -0.10901E+00   -0.40169E-01 34504   0.281E+00    0.130E+00
DAV:  22    -0.112696245083E+04   -0.53029E-01   -0.24850E-01 30424   0.109E+00    0.221E+00
DAV:  23    -0.112696540990E+04   -0.29591E-02   -0.18298E-02 29016   0.488E-01    0.168E+00
DAV:  24    -0.112697162986E+04   -0.62200E-02   -0.27278E-03 32096   0.286E-01    0.141E+00
DAV:  25    -0.112698931890E+04   -0.17689E-01   -0.85614E-03 33072   0.553E-01    0.995E-01
DAV:  26    -0.112702366961E+04   -0.34351E-01   -0.20515E-02 33280   0.718E-01    0.797E-01
DAV:  27    -0.112704484164E+04   -0.21172E-01   -0.15010E-02 31760   0.471E-01    0.698E-01
DAV:  28    -0.112706738501E+04   -0.22543E-01   -0.82334E-03 34224   0.369E-01    0.654E-01
DAV:  29    -0.112710629710E+04   -0.38912E-01   -0.13396E-02 33448   0.558E-01    0.640E-01
DAV:  30    -0.112712991657E+04   -0.23619E-01   -0.15452E-02 32880   0.378E-01    0.635E-01
DAV:  31    -0.112715225815E+04   -0.22342E-01   -0.57339E-03 31456   0.286E-01    0.613E-01
DAV:  32    -0.112721998521E+04   -0.67727E-01   -0.42199E-02 33800   0.999E-01    0.604E-01
DAV:  33    -0.112726088606E+04   -0.40901E-01   -0.47164E-02 34560   0.645E-01    0.596E-01
DAV:  34    -0.112726077104E+04    0.11502E-03   -0.11923E-02 27632   0.257E-01    0.586E-01
DAV:  35    -0.112729680719E+04   -0.36036E-01   -0.10436E-02 33944   0.492E-01    0.591E-01
DAV:  36    -0.112732401783E+04   -0.27211E-01   -0.22082E-02 34344   0.600E-01    0.639E-01
DAV:  37    -0.112732428925E+04   -0.27142E-03   -0.84631E-03 27200   0.183E-01    0.640E-01
DAV:  38    -0.112732659527E+04   -0.23060E-02   -0.11878E-04 29720   0.383E-02    0.634E-01
DAV:  39    -0.112731950930E+04    0.70860E-02   -0.64247E-04 35776   0.123E-01    0.636E-01
DAV:  40    -0.112729361003E+04    0.25899E-01   -0.46138E-03 33560   0.330E-01    0.672E-01
DAV:  41    -0.112730237802E+04   -0.87680E-02   -0.14038E-02 36744   0.509E-01    0.107E+00
DAV:  42    -0.112722583835E+04    0.76540E-01   -0.82516E-02 35096   0.129E+00    0.236E+00
DAV:  43    -0.112721047802E+04    0.15360E-01   -0.62922E-02 31768   0.615E-01    0.318E+00
DAV:  44    -0.112721197025E+04   -0.14922E-02   -0.97497E-03 26400   0.212E-01    0.310E+00
DAV:  45    -0.112721194382E+04    0.26422E-04   -0.17959E-04 32624   0.378E-02    0.307E+00
DAV:  46    -0.112722620953E+04   -0.14266E-01   -0.22013E-03 33200   0.239E-01    0.297E+00
DAV:  47    -0.112726102452E+04   -0.34815E-01   -0.21517E-02 32808   0.681E-01    0.262E+00
DAV:  48    -0.112728385257E+04   -0.22828E-01   -0.21601E-02 34080   0.437E-01    0.243E+00
DAV:  49    -0.112729362749E+04   -0.97749E-02   -0.59591E-03 29104   0.207E-01    0.255E+00
DAV:  50    -0.112728862062E+04    0.50069E-02   -0.19718E-03 28664   0.180E-01    0.275E+00
DAV:  51    -0.112728918889E+04   -0.56827E-03   -0.17282E-03 34208   0.171E-01    0.294E+00
DAV:  52    -0.112728560922E+04    0.35797E-02   -0.18420E-03 32064   0.179E-01    0.307E+00
DAV:  53    -0.112728829248E+04   -0.26833E-02   -0.16937E-03 31320   0.146E-01    0.304E+00
DAV:  54    -0.112728804455E+04    0.24794E-03   -0.86447E-04 33416   0.967E-02    0.306E+00
DAV:  55    -0.112728795175E+04    0.92797E-04   -0.37146E-04 25792   0.514E-02    0.306E+00
DAV:  56    -0.112728631360E+04    0.16381E-02   -0.92971E-05 26592   0.564E-02    0.304E+00
DAV:  57    -0.112728995809E+04   -0.36445E-02   -0.37732E-04 30696   0.913E-02    0.304E+00
DAV:  58    -0.112728514578E+04    0.48123E-02   -0.14699E-03 33080   0.177E-01    0.311E+00
DAV:  59    -0.112728602539E+04   -0.87960E-03   -0.38464E-03 32848   0.262E-01    0.314E+00
DAV:  60    -0.112728736380E+04   -0.13384E-02   -0.21776E-03 32288   0.102E-01    0.312E+00
DAV:  61    -0.112728615203E+04    0.12118E-02   -0.29070E-04 25664   0.467E-02    0.312E+00
DAV:  62    -0.112728473883E+04    0.14132E-02   -0.42754E-05 22544   0.213E-02    0.311E+00
DAV:  63    -0.112728288628E+04    0.18525E-02   -0.61633E-05 25072   0.352E-02    0.308E+00
DAV:  64    -0.112727904893E+04    0.38374E-02   -0.31650E-04 32816   0.784E-02    0.306E+00
DAV:  65    -0.112727953702E+04   -0.48810E-03   -0.52304E-04 31424   0.927E-02    0.306E+00
DAV:  66    -0.112728727636E+04   -0.77393E-02   -0.87311E-04 32008   0.128E-01    0.306E+00
DAV:  67    -0.112728588421E+04    0.13921E-02   -0.51961E-04 29624   0.818E-02    0.307E+00
DAV:  68    -0.112728584292E+04    0.41288E-04   -0.19023E-04 25152   0.592E-02    0.307E+00
DAV:  69    -0.112728625539E+04   -0.41246E-03   -0.17112E-04 29328   0.572E-02    0.305E+00
DAV:  70    -0.112728857191E+04   -0.23165E-02   -0.81207E-04 31584   0.130E-01    0.300E+00
DAV:  71    -0.112730324675E+04   -0.14675E-01   -0.44297E-03 31992   0.306E-01    0.295E+00
DAV:  72    -0.112730449183E+04   -0.12451E-02   -0.19986E-03 28560   0.793E-02    0.293E+00
DAV:  73    -0.112730215691E+04    0.23349E-02   -0.14870E-04 27592   0.491E-02    0.292E+00
DAV:  74    -0.112729916037E+04    0.29965E-02   -0.55378E-04 31600   0.115E-01    0.287E+00
DAV:  75    -0.112729436586E+04    0.47945E-02   -0.27982E-03 32352   0.231E-01    0.284E+00
DAV:  76    -0.112729735528E+04   -0.29894E-02   -0.11059E-03 27520   0.855E-02    0.286E+00
DAV:  77    -0.112729747467E+04   -0.11939E-03   -0.81750E-05 26064   0.188E-02    0.287E+00
DAV:  78    -0.112729775745E+04   -0.28278E-03   -0.30198E-04 30592   0.869E-02    0.284E+00
DAV:  79    -0.112729714639E+04    0.61106E-03   -0.13064E-04 26568   0.599E-02    0.287E+00
DAV:  80    -0.112729656772E+04    0.57867E-03   -0.13782E-04 31496   0.507E-02    0.290E+00
DAV:  81    -0.112735699813E+04   -0.60430E-01   -0.39572E-01 33920   0.314E+00    0.228E+00
DAV:  82    -0.112738936750E+04   -0.32369E-01   -0.16113E-01 28000   0.713E-01    0.239E+00
DAV:  83    -0.112739079658E+04   -0.14291E-02   -0.32634E-03 29832   0.117E-01    0.239E+00
DAV:  84    -0.112739255544E+04   -0.17589E-02   -0.26784E-04 33776   0.695E-02    0.238E+00
DAV:  85    -0.112739822324E+04   -0.56678E-02   -0.14657E-02 32200   0.589E-01    0.221E+00
DAV:  86    -0.112713117712E+04    0.26705E+00   -0.17464E+00 32920   0.634E+00    0.243E+00
DAV:  87    -0.112716179153E+04   -0.30614E-01   -0.76380E-01 29136   0.145E+00    0.279E+00
DAV:  88    -0.112717175293E+04   -0.99614E-02   -0.26899E-02 27672   0.331E-01    0.282E+00
DAV:  89    -0.112717648810E+04   -0.47352E-02   -0.73570E-04 34480   0.574E-02    0.280E+00
DAV:  90    -0.112717608739E+04    0.40071E-03   -0.42778E-05 25792   0.174E-02    0.281E+00
DAV:  91    -0.112718263610E+04   -0.65487E-02   -0.18320E-03 32048   0.214E-01    0.275E+00
DAV:  92    -0.112720894551E+04   -0.26309E-01   -0.39019E-03 33864   0.252E-01    0.263E+00
DAV:  93    -0.112722414193E+04   -0.15196E-01   -0.75555E-03 35944   0.308E-01    0.270E+00
DAV:  94    -0.112723069674E+04   -0.65548E-02   -0.30259E-03 29704   0.122E-01    0.273E+00
DAV:  95    -0.112723578017E+04   -0.50834E-02   -0.22046E-04 29664   0.519E-02    0.273E+00
DAV:  96    -0.112734328175E+04   -0.10750E+00   -0.50966E-02 31320   0.114E+00    0.216E+00
DAV:  97    -0.112730869598E+04    0.34586E-01   -0.21866E-02 30512   0.677E-01    0.276E+00
DAV:  98    -0.112729589981E+04    0.12796E-01   -0.52832E-03 31960   0.196E-01    0.297E+00
DAV:  99    -0.112729197882E+04    0.39210E-02   -0.10782E-03 28432   0.641E-02    0.302E+00
DAV: 100    -0.112729621373E+04   -0.42349E-02   -0.27003E-04 30096   0.720E-02    0.308E+00
DAV: 101    -0.112739158036E+04   -0.95367E-01   -0.97461E-02 31240   0.153E+00    0.257E+00
DAV: 102    -0.112739090738E+04    0.67298E-03   -0.27842E-02 27032   0.428E-01    0.285E+00
DAV: 103    -0.112739520365E+04   -0.42963E-02   -0.45530E-03 30744   0.267E-01    0.288E+00
DAV: 104    -0.112739603310E+04   -0.82946E-03   -0.17895E-03 30760   0.949E-02    0.295E+00
DAV: 105    -0.112739570714E+04    0.32596E-03   -0.28404E-04 28224   0.438E-02    0.297E+00
DAV: 106    -0.112739698979E+04   -0.12826E-02   -0.17253E-03 32080   0.208E-01    0.295E+00
DAV: 107    -0.112739767613E+04   -0.68634E-03   -0.82483E-04 30760   0.621E-02    0.294E+00
DAV: 108    -0.112739755677E+04    0.11936E-03   -0.12094E-04 24656   0.391E-02    0.295E+00
DAV: 109    -0.112739812432E+04   -0.56755E-03   -0.10933E-04 29344   0.472E-02    0.296E+00
DAV: 110    -0.112739802965E+04    0.94670E-04   -0.64730E-05 25816   0.214E-02    0.296E+00
DAV: 111    -0.112740307449E+04   -0.50448E-02   -0.26407E-03 31704   0.263E-01    0.300E+00
DAV: 112    -0.112740531138E+04   -0.22369E-02   -0.24848E-03 34808   0.156E-01    0.286E+00
DAV: 113    -0.112741335633E+04   -0.80450E-02   -0.27796E-03 31744   0.226E-01    0.262E+00
DAV: 114    -0.112742027552E+04   -0.69192E-02   -0.39945E-03 30440   0.229E-01    0.247E+00
DAV: 115    -0.112742289456E+04   -0.26190E-02   -0.15533E-03 29440   0.836E-02    0.246E+00
DAV: 116    -0.112741401791E+04    0.88766E-02   -0.75912E-02 31736   0.136E+00    0.291E+00
DAV: 117    -0.112743373134E+04   -0.19713E-01   -0.32937E-02 30272   0.481E-01    0.252E+00
DAV: 118    -0.112743590324E+04   -0.21719E-02   -0.54808E-03 27904   0.160E-01    0.255E+00
DAV: 119    -0.112743524638E+04    0.65686E-03   -0.53241E-04 29760   0.561E-02    0.249E+00
DAV: 120    -0.112743731148E+04   -0.20651E-02   -0.11057E-03 34880   0.151E-01    0.234E+00
DAV: 121    -0.112738399707E+04    0.53314E-01   -0.29596E-02 33840   0.853E-01    0.348E+00
DAV: 122    -0.112738877295E+04   -0.47759E-02   -0.17019E-02 32232   0.398E-01    0.323E+00
DAV: 123    -0.112739482163E+04   -0.60487E-02   -0.40183E-03 31704   0.177E-01    0.297E+00
DAV: 124    -0.112739783137E+04   -0.30097E-02   -0.15600E-03 33584   0.167E-01    0.285E+00
DAV: 125    -0.112739829714E+04   -0.46577E-03   -0.21731E-03 32528   0.160E-01    0.281E+00
DAV: 126    -0.112741599398E+04   -0.17697E-01   -0.45665E-02 31992   0.106E+00    0.978E-01
DAV: 127    -0.112743161459E+04   -0.15621E-01   -0.16717E-02 26624   0.421E-01    0.116E+00
DAV: 128    -0.112743846732E+04   -0.68527E-02   -0.20188E-03 30704   0.116E-01    0.119E+00
DAV: 129    -0.112743743226E+04    0.10351E-02   -0.48705E-04 26800   0.607E-02    0.118E+00
DAV: 130    -0.112743789916E+04   -0.46689E-03   -0.21872E-05 21088   0.179E-02    0.119E+00
DAV: 131    -0.112739234374E+04    0.45555E-01   -0.45225E-02 32184   0.104E+00    0.602E-01
DAV: 132    -0.112740237978E+04   -0.10036E-01   -0.13378E-02 26488   0.332E-01    0.530E-01
DAV: 133    -0.112740595338E+04   -0.35736E-02   -0.26394E-03 35192   0.206E-01    0.519E-01
DAV: 134    -0.112740696655E+04   -0.10132E-02   -0.43297E-03 31712   0.277E-01    0.493E-01
DAV: 135    -0.112741397688E+04   -0.70103E-02   -0.54924E-03 33720   0.273E-01    0.479E-01
DAV: 136    -0.112742268346E+04   -0.87066E-02   -0.45628E-03 32296   0.258E-01    0.460E-01
DAV: 137    -0.112742626582E+04   -0.35824E-02   -0.21686E-03 27808   0.143E-01    0.462E-01
DAV: 138    -0.112743181511E+04   -0.55493E-02   -0.10289E-03 34032   0.133E-01    0.475E-01
DAV: 139    -0.112743824911E+04   -0.64340E-02   -0.32215E-03 32104   0.248E-01    0.486E-01
DAV: 140    -0.112743826708E+04   -0.17966E-04   -0.13814E-03 27152   0.726E-02    0.480E-01
DAV: 141    -0.112743229185E+04    0.59752E-02   -0.15760E-03 32360   0.203E-01    0.452E-01
DAV: 142    -0.112743360727E+04   -0.13154E-02   -0.60215E-04 27592   0.616E-02    0.452E-01
DAV: 143    -0.112743704692E+04   -0.34397E-02   -0.40708E-04 31584   0.101E-01    0.459E-01
DAV: 144    -0.112744080640E+04   -0.37595E-02   -0.10190E-03 33248   0.123E-01    0.469E-01
DAV: 145    -0.112744131656E+04   -0.51016E-03   -0.47126E-04 28872   0.404E-02    0.474E-01
DAV: 146    -0.112744492313E+04   -0.36066E-02   -0.85209E-04 33592   0.151E-01    0.483E-01
DAV: 147    -0.112744466744E+04    0.25569E-03   -0.33929E-04 26856   0.573E-02    0.486E-01
DAV: 148    -0.112744409043E+04    0.57701E-03   -0.17084E-04 29640   0.617E-02    0.492E-01
DAV: 149    -0.112744160565E+04    0.24848E-02   -0.15810E-03 33504   0.185E-01    0.521E-01
DAV: 150    -0.112744057944E+04    0.10262E-02   -0.12786E-03 33784   0.995E-02    0.533E-01
DAV: 151    -0.112744017347E+04    0.40597E-03   -0.12114E-03 32912   0.161E-01    0.583E-01
DAV: 152    -0.112744039125E+04   -0.21778E-03   -0.66094E-04 28744   0.792E-02    0.598E-01
DAV: 153    -0.112744086924E+04   -0.47799E-03   -0.76852E-04 30832   0.135E-01    0.588E-01
DAV: 154    -0.112744755265E+04   -0.66834E-02   -0.12808E-02 32056   0.527E-01    0.559E-01
DAV: 155    -0.112745690150E+04   -0.93488E-02   -0.38169E-02 33272   0.809E-01    0.598E-01
DAV: 156    -0.112746158959E+04   -0.46881E-02   -0.18249E-02 29064   0.261E-01    0.592E-01
DAV: 157    -0.112746044944E+04    0.11401E-02   -0.17446E-03 26808   0.118E-01    0.582E-01
DAV: 158    -0.112745956994E+04    0.87950E-03   -0.12540E-04 29288   0.320E-02    0.579E-01
DAV: 159    -0.112745802010E+04    0.15498E-02   -0.98143E-04 31968   0.156E-01    0.569E-01
DAV: 160    -0.112745852534E+04   -0.50524E-03   -0.29328E-03 32608   0.225E-01    0.565E-01
DAV: 161    -0.112746157296E+04   -0.30476E-02   -0.54812E-03 30752   0.373E-01    0.596E-01
DAV: 162    -0.112746141356E+04    0.15940E-03   -0.11300E-03 27616   0.563E-02    0.589E-01
DAV: 163    -0.112746058572E+04    0.82784E-03   -0.49434E-05 23872   0.320E-02    0.589E-01
DAV: 164    -0.112746143721E+04   -0.85149E-03   -0.53027E-05 23232   0.371E-02    0.584E-01
DAV: 165    -0.112746613386E+04   -0.46967E-02   -0.19571E-03 32736   0.211E-01    0.574E-01
DAV: 166    -0.112747825340E+04   -0.12120E-01   -0.13503E-02 32448   0.537E-01    0.593E-01
DAV: 167    -0.112747916991E+04   -0.91651E-03   -0.75134E-03 30744   0.209E-01    0.615E-01
DAV: 168    -0.112748332594E+04   -0.41560E-02   -0.14953E-03 32360   0.153E-01    0.620E-01
DAV: 169    -0.112748390486E+04   -0.57892E-03   -0.16176E-03 32376   0.157E-01    0.632E-01
DAV: 170    -0.112748290333E+04    0.10015E-02   -0.22281E-03 29456   0.219E-01    0.624E-01
DAV: 171    -0.112748228159E+04    0.62174E-03   -0.79996E-04 30056   0.135E-01    0.659E-01
DAV: 172    -0.112748300586E+04   -0.72427E-03   -0.74169E-04 30128   0.139E-01    0.653E-01
DAV: 173    -0.112748245601E+04    0.54985E-03   -0.29877E-04 29768   0.905E-02    0.659E-01
DAV: 174    -0.112748332390E+04   -0.86789E-03   -0.16620E-03 32392   0.194E-01    0.686E-01
DAV: 175    -0.112748331400E+04    0.99000E-05   -0.55853E-04 26168   0.463E-02    0.680E-01
DAV: 176    -0.112747920031E+04    0.41137E-02   -0.13342E-03 31776   0.181E-01    0.651E-01
DAV: 177    -0.112747717194E+04    0.20284E-02   -0.13745E-03 33968   0.117E-01    0.652E-01
DAV: 178    -0.112747093507E+04    0.62369E-02   -0.14735E-03 30696   0.180E-01    0.699E-01
DAV: 179    -0.112746878241E+04    0.21527E-02   -0.96205E-04 33552   0.896E-02    0.731E-01
DAV: 180    -0.112746416592E+04    0.46165E-02   -0.55740E-04 31896   0.103E-01    0.749E-01
DAV: 181    -0.112748645397E+04   -0.22288E-01   -0.21298E-02 32368   0.743E-01    0.722E-01
DAV: 182    -0.112749367427E+04   -0.72203E-02   -0.91853E-03 29840   0.292E-01    0.710E-01
DAV: 183    -0.112749806551E+04   -0.43912E-02   -0.17095E-03 32920   0.114E-01    0.695E-01
DAV: 184    -0.112750215428E+04   -0.40888E-02   -0.86377E-04 33208   0.132E-01    0.689E-01
DAV: 185    -0.112750727730E+04   -0.51230E-02   -0.32887E-03 32888   0.257E-01    0.675E-01
DAV: 186    -0.112751787124E+04   -0.10594E-01   -0.82075E-03 31944   0.388E-01    0.648E-01
DAV: 187    -0.112752176533E+04   -0.38941E-02   -0.33171E-03 27944   0.156E-01    0.628E-01
DAV: 188    -0.112752608715E+04   -0.43218E-02   -0.15246E-03 33224   0.162E-01    0.610E-01
DAV: 189    -0.112752027001E+04    0.58171E-02   -0.23073E-03 30416   0.228E-01    0.577E-01
DAV: 190    -0.112752048023E+04   -0.21022E-03   -0.62471E-04 28112   0.488E-02    0.577E-01
DAV: 191    -0.112751815754E+04    0.23227E-02   -0.32395E-03 34736   0.281E-01    0.642E-01
DAV: 192    -0.112751843360E+04   -0.27606E-03   -0.14751E-03 31072   0.118E-01    0.643E-01
DAV: 193    -0.112751742353E+04    0.10101E-02   -0.34334E-04 29032   0.607E-02    0.646E-01
DAV: 194    -0.112751723935E+04    0.18419E-03   -0.43703E-04 29096   0.102E-01    0.650E-01
DAV: 195    -0.112751664313E+04    0.59622E-03   -0.11395E-04 26456   0.595E-02    0.649E-01
DAV: 196    -0.112753143325E+04   -0.14790E-01   -0.11285E-02 32528   0.536E-01    0.740E-01
DAV: 197    -0.112752008708E+04    0.11346E-01   -0.59591E-03 30472   0.386E-01    0.669E-01
DAV: 198    -0.112751719602E+04    0.28911E-02   -0.21814E-03 32408   0.201E-01    0.641E-01
DAV: 199    -0.112752079470E+04   -0.35987E-02   -0.37127E-03 33504   0.270E-01    0.602E-01
DAV: 200    -0.112752628441E+04   -0.54897E-02   -0.44207E-03 34616   0.235E-01
   1 F= -.11275263E+04 E0= -.11275263E+04  d E =-.112753E+04  mag=    65.0000
       N       E                     dE             d eps       ncg     rms          rms(c)
DAV:   1    -0.112753807291E+04   -0.17278E-01   -0.12997E-02 30360   0.407E-01    0.506E-01
DAV:   2    -0.112754767277E+04   -0.95999E-02   -0.87302E-03 34856   0.293E-01    0.365E-01
DAV:   3    -0.112755005792E+04   -0.23851E-02   -0.30009E-03 31176   0.160E-01    0.329E-01
DAV:   4    -0.112755389559E+04   -0.38377E-02   -0.72996E-04 31144   0.927E-02    0.316E-01
DAV:   5    -0.112755772735E+04   -0.38318E-02   -0.57264E-04 33736   0.903E-02    0.314E-01
DAV:   6    -0.112756058954E+04   -0.28622E-02   -0.51335E-04 32312   0.709E-02    0.313E-01
DAV:   7    -0.112756458500E+04   -0.39955E-02   -0.52511E-04 32624   0.989E-02    0.313E-01
DAV:   8    -0.112757060871E+04   -0.60237E-02   -0.15424E-03 32832   0.155E-01    0.314E-01
DAV:   9    -0.112757742269E+04   -0.68140E-02   -0.23673E-03 33736   0.175E-01    0.310E-01
DAV:  10    -0.112759707327E+04   -0.19651E-01   -0.12701E-02 32672   0.502E-01    0.313E-01
DAV:  11    -0.112760309860E+04   -0.60253E-02   -0.91608E-03 30800   0.189E-01    0.308E-01
DAV:  12    -0.112760520288E+04   -0.21043E-02   -0.90705E-04 28200   0.545E-02    0.305E-01
DAV:  13    -0.112760554656E+04   -0.34368E-03   -0.11288E-04 24752   0.173E-02    0.301E-01
DAV:  14    -0.112760355544E+04    0.19911E-02   -0.20791E-04 32320   0.554E-02    0.319E-01
DAV:  15    -0.112762980936E+04   -0.26254E-01   -0.17713E-02 32360   0.603E-01    0.419E-01
DAV:  16    -0.112764624437E+04   -0.16435E-01   -0.35316E-02 34840   0.634E-01    0.747E-01
DAV:  17    -0.112765610552E+04   -0.98612E-02   -0.14443E-02 29144   0.220E-01    0.744E-01
DAV:  18    -0.112765843441E+04   -0.23289E-02   -0.11709E-03 27296   0.579E-02    0.730E-01
DAV:  19    -0.112764964795E+04    0.87865E-02   -0.44407E-03 31152   0.287E-01    0.808E-01
DAV:  20    -0.112763996906E+04    0.96789E-02   -0.14496E-02 34136   0.457E-01    0.902E-01
DAV:  21    -0.112764258201E+04   -0.26129E-02   -0.49392E-03 26288   0.160E-01    0.929E-01
DAV:  22    -0.112763954972E+04    0.30323E-02   -0.43885E-04 29872   0.797E-02    0.896E-01
DAV:  23    -0.112763941382E+04    0.13590E-03   -0.18099E-04 26536   0.302E-02    0.870E-01
DAV:  24    -0.112763912329E+04    0.29053E-03   -0.20642E-03 35536   0.166E-01    0.683E-01
DAV:  25    -0.112765452536E+04   -0.15402E-01   -0.10367E-02 33016   0.446E-01    0.523E-01
DAV:  26    -0.112765030079E+04    0.42246E-02   -0.46952E-03 28264   0.162E-01    0.410E-01
DAV:  27    -0.112765312497E+04   -0.28242E-02   -0.74818E-04 32152   0.114E-01    0.403E-01
DAV:  28    -0.112765618840E+04   -0.30634E-02   -0.98860E-04 32896   0.113E-01    0.393E-01
DAV:  29    -0.112765902710E+04   -0.28387E-02   -0.82969E-04 33192   0.903E-02    0.387E-01
DAV:  30    -0.112766520244E+04   -0.61753E-02   -0.16145E-03 32624   0.183E-01    0.369E-01
DAV:  31    -0.112766827855E+04   -0.30761E-02   -0.15704E-03 32992   0.873E-02    0.368E-01
DAV:  32    -0.112767016030E+04   -0.18818E-02   -0.26332E-04 29224   0.441E-02    0.365E-01
DAV:  33    -0.112767314286E+04   -0.29826E-02   -0.48081E-04 34432   0.953E-02    0.358E-01
DAV:  34    -0.112767123150E+04    0.19114E-02   -0.38757E-04 28624   0.830E-02    0.362E-01
DAV:  35    -0.112767615736E+04   -0.49259E-02   -0.78382E-04 30792   0.138E-01    0.360E-01
DAV:  36    -0.112769167129E+04   -0.15514E-01   -0.97952E-03 32344   0.418E-01    0.375E-01
DAV:  37    -0.112769484534E+04   -0.31741E-02   -0.51695E-03 29336   0.128E-01    0.386E-01
DAV:  38    -0.112769975100E+04   -0.49057E-02   -0.13723E-03 33136   0.167E-01    0.365E-01
DAV:  39    -0.112770069980E+04   -0.94880E-03   -0.15285E-03 32864   0.105E-01    0.343E-01
DAV:  40    -0.112770092255E+04   -0.22275E-03   -0.37959E-04 26648   0.328E-02    0.343E-01
DAV:  41    -0.112770053799E+04    0.38456E-03   -0.14766E-05 19528   0.141E-02    0.344E-01
DAV:  42    -0.112769951056E+04    0.10274E-02   -0.64563E-05 25488   0.320E-02    0.356E-01
DAV:  43    -0.112769962670E+04   -0.11614E-03   -0.80710E-05 29264   0.269E-02    0.373E-01
DAV:  44    -0.112769447756E+04    0.51491E-02   -0.11627E-03 32440   0.147E-01    0.374E-01
DAV:  45    -0.112770065569E+04   -0.61781E-02   -0.21558E-03 31840   0.204E-01    0.361E-01
DAV:  46    -0.112770096293E+04   -0.30724E-03   -0.80199E-04 28016   0.430E-02    0.354E-01
DAV:  47    -0.112770304443E+04   -0.20815E-02   -0.10614E-04 26424   0.463E-02    0.345E-01
DAV:  48    -0.112770271479E+04    0.32964E-03   -0.45460E-05 20264   0.162E-02    0.341E-01
DAV:  49    -0.112770217849E+04    0.53630E-03   -0.20081E-05 18328   0.191E-02    0.334E-01
DAV:  50    -0.112770017270E+04    0.20058E-02   -0.11364E-03 33056   0.139E-01    0.318E-01
DAV:  51    -0.112769886452E+04    0.13082E-02   -0.22404E-03 32912   0.159E-01    0.353E-01
DAV:  52    -0.112770588872E+04   -0.70242E-02   -0.27234E-03 30632   0.210E-01    0.373E-01
DAV:  53    -0.112770372660E+04    0.21621E-02   -0.12339E-03 29800   0.132E-01    0.375E-01
DAV:  54    -0.112770284665E+04    0.87995E-03   -0.45787E-04 30896   0.440E-02    0.368E-01
DAV:  55    -0.112770237149E+04    0.47515E-03   -0.79809E-05 26312   0.272E-02    0.359E-01
DAV:  56    -0.112770004459E+04    0.23269E-02   -0.10450E-03 32032   0.141E-01    0.327E-01
DAV:  57    -0.112770160169E+04   -0.15571E-02   -0.39020E-03 33464   0.255E-01    0.326E-01
DAV:  58    -0.112770276517E+04   -0.11635E-02   -0.17164E-03 28848   0.765E-02    0.336E-01
DAV:  59    -0.112770278218E+04   -0.17013E-04   -0.24890E-04 30960   0.596E-02    0.345E-01
DAV:  60    -0.112770325434E+04   -0.47216E-03   -0.18760E-04 27056   0.534E-02    0.343E-01
DAV:  61    -0.112770538389E+04   -0.21295E-02   -0.59933E-04 31040   0.998E-02    0.340E-01
DAV:  62    -0.112772464543E+04   -0.19262E-01   -0.56644E-02 33056   0.107E+00    0.498E-01
DAV:  63    -0.112772064123E+04    0.40042E-02   -0.23480E-02 28920   0.628E-01    0.285E-01
DAV:  64    -0.112772037947E+04    0.26176E-03   -0.14988E-03 28144   0.660E-02    0.282E-01
DAV:  65    -0.112772037970E+04   -0.23136E-06   -0.76140E-05 27072   0.315E-02
   2 F= -.11277204E+04 E0= -.11277204E+04  d E =-.194095E+00  mag=    65.0000
       N       E                     dE             d eps       ncg     rms          rms(c)
DAV:   1    -0.112773572967E+04   -0.15350E-01   -0.15052E-01 28136   0.100E+00    0.388E-01
DAV:   2    -0.112773035623E+04    0.53734E-02   -0.13389E-02 30936   0.346E-01    0.262E-01
DAV:   3    -0.112773340655E+04   -0.30503E-02   -0.20918E-03 29664   0.166E-01    0.203E-01
DAV:   4    -0.112773418023E+04   -0.77368E-03   -0.28218E-04 31120   0.466E-02    0.133E-01
DAV:   5    -0.112773441865E+04   -0.23842E-03   -0.18657E-04 32536   0.586E-02    0.118E-01
DAV:   6    -0.112773513245E+04   -0.71381E-03   -0.29662E-04 32544   0.605E-02    0.116E-01
DAV:   7    -0.112773579685E+04   -0.66439E-03   -0.22078E-04 30200   0.435E-02    0.115E-01
DAV:   8    -0.112773689036E+04   -0.10935E-02   -0.25951E-04 31256   0.709E-02    0.116E-01
DAV:   9    -0.112773699158E+04   -0.10122E-03   -0.19423E-04 25528   0.212E-02    0.114E-01
DAV:  10    -0.112773720767E+04   -0.21609E-03   -0.13150E-05 18296   0.173E-02    0.116E-01
DAV:  11    -0.112773701240E+04    0.19527E-03   -0.12633E-05 17424   0.173E-02    0.114E-01
DAV:  12    -0.112773386021E+04    0.31522E-02   -0.50811E-03 32808   0.301E-01    0.183E-01
DAV:  13    -0.112773246221E+04    0.13980E-02   -0.35583E-03 33952   0.136E-01    0.229E-01
DAV:  14    -0.112773311545E+04   -0.65324E-03   -0.78511E-04 25992   0.855E-02    0.220E-01
DAV:  15    -0.112773333495E+04   -0.21950E-03   -0.77164E-05 26048   0.184E-02    0.223E-01
DAV:  16    -0.112773216313E+04    0.11718E-02   -0.63933E-04 30728   0.107E-01    0.243E-01
DAV:  17    -0.112773154492E+04    0.61821E-03   -0.41984E-04 32480   0.495E-02    0.251E-01
DAV:  18    -0.112773087204E+04    0.67288E-03   -0.18290E-04 28704   0.478E-02    0.251E-01
DAV:  19    -0.112773002863E+04    0.84341E-03   -0.34226E-04 30680   0.664E-02    0.247E-01
DAV:  20    -0.112773076141E+04   -0.73278E-03   -0.32950E-04 26936   0.691E-02    0.249E-01
DAV:  21    -0.112773267014E+04   -0.19087E-02   -0.15826E-03 31536   0.157E-01    0.251E-01
DAV:  22    -0.112773495630E+04   -0.22862E-02   -0.29639E-03 33048   0.181E-01    0.240E-01
DAV:  23    -0.112773564014E+04   -0.68384E-03   -0.11731E-03 29824   0.576E-02    0.239E-01
DAV:  24    -0.112773587110E+04   -0.23096E-03   -0.84653E-05 23792   0.165E-02    0.241E-01
DAV:  25    -0.112773630350E+04   -0.43239E-03   -0.27074E-05 20616   0.217E-02    0.249E-01
DAV:  26    -0.112773575001E+04    0.55348E-03   -0.16583E-04 27304   0.504E-02    0.252E-01
DAV:  27    -0.112773438336E+04    0.13667E-02   -0.24334E-03 31080   0.189E-01    0.271E-01
DAV:  28    -0.112773636143E+04   -0.19781E-02   -0.24086E-03 29640   0.211E-01    0.258E-01
DAV:  29    -0.112774090317E+04   -0.45417E-02   -0.81744E-03 32400   0.355E-01    0.216E-01
DAV:  30    -0.112774980896E+04   -0.89058E-02   -0.61831E-02 32176   0.940E-01    0.497E-01
DAV:  31    -0.112775533751E+04   -0.55286E-02   -0.22196E-02 27000   0.212E-01    0.449E-01
DAV:  32    -0.112775561609E+04   -0.27858E-03   -0.36526E-04 30104   0.325E-02    0.449E-01
DAV:  33    -0.112775570495E+04   -0.88861E-04   -0.13856E-05 19552   0.636E-03    0.449E-01
DAV:  34    -0.112775653570E+04   -0.83075E-03   -0.55824E-05 28024   0.301E-02    0.424E-01
DAV:  35    -0.112775717486E+04   -0.63916E-03   -0.80456E-05 28968   0.309E-02    0.389E-01
DAV:  36    -0.112775681395E+04    0.36091E-03   -0.66814E-05 25352   0.272E-02    0.382E-01
DAV:  37    -0.112775651300E+04    0.30095E-03   -0.44273E-05 21176   0.159E-02    0.380E-01
DAV:  38    -0.112775769808E+04   -0.11851E-02   -0.12527E-04 29528   0.502E-02    0.322E-01
DAV:  39    -0.112775694472E+04    0.75335E-03   -0.11163E-03 32480   0.146E-01    0.182E-01
DAV:  40    -0.112776091865E+04   -0.39739E-02   -0.21646E-03 31136   0.185E-01    0.192E-01
DAV:  41    -0.112776500823E+04   -0.40896E-02   -0.35910E-03 33368   0.194E-01    0.194E-01
DAV:  42    -0.112776471705E+04    0.29118E-03   -0.14233E-03 28752   0.758E-02    0.142E-01
DAV:  43    -0.112776454975E+04    0.16730E-03   -0.23590E-04 27216   0.543E-02    0.158E-01
DAV:  44    -0.112776453971E+04    0.10038E-04   -0.34110E-05 19560   0.912E-03    0.158E-01
DAV:  45    -0.112776545332E+04   -0.91361E-03   -0.12593E-04 27304   0.448E-02    0.193E-01
DAV:  46    -0.112776408007E+04    0.13732E-02   -0.29844E-04 30528   0.805E-02    0.150E-01
DAV:  47    -0.112775990053E+04    0.41795E-02   -0.15896E-03 32848   0.148E-01    0.152E-01
DAV:  48    -0.112776119101E+04   -0.12905E-02   -0.61001E-04 28024   0.688E-02    0.155E-01
DAV:  49    -0.112776371052E+04   -0.25195E-02   -0.50634E-04 31328   0.840E-02    0.162E-01
DAV:  50    -0.112776233851E+04    0.13720E-02   -0.24458E-04 27560   0.587E-02    0.159E-01
DAV:  51    -0.112776199358E+04    0.34493E-03   -0.26027E-05 18976   0.120E-02    0.156E-01
DAV:  52    -0.112776073114E+04    0.12624E-02   -0.26295E-04 29472   0.645E-02    0.158E-01
DAV:  53    -0.112775977585E+04    0.95529E-03   -0.37081E-04 31424   0.576E-02    0.158E-01
DAV:  54    -0.112776001475E+04   -0.23890E-03   -0.15265E-04 25776   0.234E-02    0.159E-01
DAV:  55    -0.112776235347E+04   -0.23387E-02   -0.55318E-04 29536   0.971E-02    0.164E-01
DAV:  56    -0.112776289683E+04   -0.54336E-03   -0.36770E-04 31272   0.443E-02    0.160E-01
DAV:  57    -0.112776059329E+04    0.23035E-02   -0.22262E-03 31632   0.214E-01    0.155E-01
DAV:  58    -0.112775976315E+04    0.83014E-03   -0.90786E-04 29888   0.499E-02    0.145E-01
DAV:  59    -0.112776084005E+04   -0.10769E-02   -0.28724E-04 27752   0.598E-02    0.146E-01
DAV:  60    -0.112776393277E+04   -0.30927E-02   -0.13521E-03 31336   0.139E-01    0.161E-01
DAV:  61    -0.112776375197E+04    0.18081E-03   -0.38815E-04 24872   0.357E-02    0.163E-01
DAV:  62    -0.112776074767E+04    0.30043E-02   -0.57579E-04 30840   0.102E-01    0.145E-01
DAV:  63    -0.112775933451E+04    0.14132E-02   -0.52099E-04 31888   0.639E-02    0.138E-01
DAV:  64    -0.112776004893E+04   -0.71442E-03   -0.25708E-04 27640   0.585E-02    0.141E-01
DAV:  65    -0.112775583476E+04    0.42142E-02   -0.20836E-03 30568   0.198E-01    0.141E-01
DAV:  66    -0.112775689553E+04   -0.10608E-02   -0.55305E-04 27624   0.902E-02    0.137E-01
DAV:  67    -0.112776463272E+04   -0.77372E-02   -0.45710E-02 31544   0.876E-01    0.594E-01
DAV:  68    -0.112777036635E+04   -0.57336E-02   -0.16702E-02 27992   0.184E-01    0.561E-01
DAV:  69    -0.112777267656E+04   -0.23102E-02   -0.70392E-03 33400   0.336E-01    0.638E-01
DAV:  70    -0.112777156204E+04    0.11145E-02   -0.41904E-03 28760   0.888E-02    0.685E-01
DAV:  71    -0.112777099689E+04    0.56516E-03   -0.24681E-04 25680   0.218E-02    0.699E-01
DAV:  72    -0.112777714972E+04   -0.61528E-02   -0.15459E-02 30352   0.494E-01    0.159E-01
DAV:  73    -0.112778354141E+04   -0.63917E-02   -0.12972E-02 29640   0.500E-01    0.348E-01
DAV:  74    -0.112777844885E+04    0.50926E-02   -0.85959E-03 29280   0.425E-01    0.192E-01
DAV:  75    -0.112778021983E+04   -0.17710E-02   -0.14103E-03 28000   0.157E-01    0.261E-01
DAV:  76    -0.112778025461E+04   -0.34779E-04   -0.18846E-04 26280   0.177E-02    0.261E-01
DAV:  77    -0.112777964566E+04    0.60895E-03   -0.93892E-05 27048   0.435E-02    0.257E-01
DAV:  78    -0.112778058456E+04   -0.93890E-03   -0.20464E-04 29248   0.614E-02    0.257E-01
DAV:  79    -0.112778062652E+04   -0.41953E-04   -0.20120E-04 30232   0.486E-02    0.197E-01
DAV:  80    -0.112777660783E+04    0.40187E-02   -0.17974E-03 31072   0.178E-01    0.131E-01
DAV:  81    -0.112777581722E+04    0.79061E-03   -0.78000E-04 30400   0.498E-02    0.131E-01
DAV:  82    -0.112777457444E+04    0.12428E-02   -0.13252E-04 28440   0.387E-02    0.142E-01
DAV:  83    -0.112777257066E+04    0.20038E-02   -0.30924E-04 30784   0.682E-02    0.148E-01
DAV:  84    -0.112777478589E+04   -0.22152E-02   -0.52369E-04 30160   0.101E-01    0.132E-01
DAV:  85    -0.112777112913E+04    0.36568E-02   -0.43130E-04 29280   0.896E-02    0.185E-01
DAV:  86    -0.112777330966E+04   -0.21805E-02   -0.39170E-04 29392   0.879E-02    0.171E-01
DAV:  87    -0.112777327314E+04    0.36519E-04   -0.15127E-04 27048   0.204E-02    0.177E-01
DAV:  88    -0.112777364315E+04   -0.37001E-03   -0.34710E-05 21808   0.246E-02    0.177E-01
DAV:  89    -0.112777469509E+04   -0.10519E-02   -0.15675E-04 29928   0.439E-02    0.168E-01
DAV:  90    -0.112777481295E+04   -0.11785E-03   -0.83755E-05 23264   0.143E-02    0.168E-01
DAV:  91    -0.112777481659E+04   -0.36436E-05   -0.80656E-06 15688   0.490E-03
   3 F= -.11277748E+04 E0= -.11277748E+04  d E =-.544369E-01  mag=    65.0000
       N       E                     dE             d eps       ncg     rms          rms(c)
DAV:   1    -0.112779090299E+04   -0.16090E-01   -0.46426E+00 28512   0.572E+00    0.147E+00
DAV:   2    -0.112782868514E+04   -0.37782E-01   -0.39894E-01 29384   0.118E+00    0.647E-01
DAV:   3    -0.112782765739E+04    0.10278E-02   -0.15075E-02 30160   0.314E-01    0.453E-01
DAV:   4    -0.112782769152E+04   -0.34129E-04   -0.19831E-03 30904   0.116E-01    0.235E-01
DAV:   5    -0.112782834547E+04   -0.65395E-03   -0.84785E-04 32416   0.114E-01    0.136E-01
DAV:   6    -0.112782893026E+04   -0.58479E-03   -0.77635E-04 31296   0.779E-02    0.112E-01
DAV:   7    -0.112782942069E+04   -0.49044E-03   -0.28728E-04 31112   0.522E-02    0.966E-02
DAV:   8    -0.112783004222E+04   -0.62153E-03   -0.17620E-04 30936   0.525E-02    0.852E-02
DAV:   9    -0.112783100691E+04   -0.96469E-03   -0.51230E-04 30600   0.890E-02    0.721E-02
DAV:  10    -0.112783166418E+04   -0.65727E-03   -0.68453E-04 31136   0.738E-02    0.601E-02
DAV:  11    -0.112783227590E+04   -0.61172E-03   -0.54163E-04 30352   0.878E-02    0.481E-02
DAV:  12    -0.112783285513E+04   -0.57923E-03   -0.85389E-04 30624   0.904E-02    0.386E-02
DAV:  13    -0.112783321708E+04   -0.36194E-03   -0.66346E-04 30568   0.801E-02    0.322E-02
DAV:  14    -0.112783323230E+04   -0.15224E-04   -0.38546E-04 30424   0.442E-02    0.268E-02
DAV:  15    -0.112783338041E+04   -0.14811E-03   -0.75978E-05 26416   0.375E-02    0.214E-02
DAV:  16    -0.112783345053E+04   -0.70113E-04   -0.31077E-04 30400   0.630E-02    0.175E-02
DAV:  17    -0.112783343014E+04    0.20390E-04   -0.23774E-04 27744   0.325E-02    0.116E-02
DAV:  18    -0.112783336596E+04    0.64175E-04   -0.48775E-05 20264   0.118E-02    0.809E-03
DAV:  19    -0.112783338835E+04   -0.22387E-04   -0.39881E-06 14720   0.479E-03    0.630E-03
DAV:  20    -0.112783337706E+04    0.11284E-04   -0.67989E-07 13440   0.317E-03    0.483E-03
DAV:  21    -0.112783339267E+04   -0.15611E-04   -0.69547E-07 13568   0.336E-03    0.388E-03
DAV:  22    -0.112783339501E+04   -0.23385E-05   -0.86636E-07 13536   0.442E-03
   4 F= -.11278334E+04 E0= -.11278334E+04  d E =-.585784E-01  mag=    65.0000
       N       E                     dE             d eps       ncg     rms          rms(c)
DAV:   1    -0.112784196578E+04   -0.85731E-02   -0.20669E-01 28344   0.129E+00    0.249E-01
DAV:   2    -0.112784373410E+04   -0.17683E-02   -0.20018E-02 28864   0.250E-01    0.117E-01
DAV:   3    -0.112784367597E+04    0.58136E-04   -0.65090E-04 29480   0.575E-02    0.632E-02
DAV:   4    -0.112784370449E+04   -0.28523E-04   -0.70268E-05 29768   0.205E-02    0.359E-02
DAV:   5    -0.112784366858E+04    0.35910E-04   -0.28802E-05 24608   0.167E-02    0.126E-02
DAV:   6    -0.112784366730E+04    0.12827E-05   -0.12662E-05 17056   0.891E-03
   5 F= -.11278437E+04 E0= -.11278437E+04  d E =-.102723E-01  mag=    65.0000
       N       E                     dE             d eps       ncg     rms          rms(c)
DAV:   1    -0.112782715129E+04    0.16517E-01   -0.73764E+00 28280   0.775E+00    0.122E+00
DAV:   2    -0.112789076390E+04   -0.63613E-01   -0.71092E-01 28464   0.146E+00    0.633E-01
DAV:   3    -0.112789115373E+04   -0.38983E-03   -0.21957E-02 29448   0.319E-01    0.309E-01
DAV:   4    -0.112789093292E+04    0.22081E-03   -0.15271E-03 30608   0.796E-02    0.198E-01
DAV:   5    -0.112789057023E+04    0.36269E-03   -0.86672E-04 31256   0.896E-02    0.809E-02
DAV:   6    -0.112789053829E+04    0.31944E-04   -0.33891E-04 29960   0.400E-02    0.380E-02
DAV:   7    -0.112789060352E+04   -0.65236E-04   -0.79329E-05 28792   0.200E-02    0.241E-02
DAV:   8    -0.112789058539E+04    0.18135E-04   -0.63086E-06 16232   0.745E-03    0.161E-02
DAV:   9    -0.112789058455E+04    0.83332E-06   -0.30077E-06 15448   0.658E-03
   6 F= -.11278906E+04 E0= -.11278906E+04  d E =-.469173E-01  mag=    65.0000
       N       E                     dE             d eps       ncg     rms          rms(c)
DAV:   1    -0.112773248752E+04    0.15810E+00   -0.25926E+01 27944   0.139E+01    0.219E+00
DAV:   2    -0.112794241001E+04   -0.20992E+00   -0.22997E+00 28416   0.267E+00    0.116E+00
DAV:   3    -0.112794435409E+04   -0.19441E-02   -0.69240E-02 29488   0.571E-01    0.555E-01
DAV:   4    -0.112794350788E+04    0.84621E-03   -0.50654E-03 30512   0.146E-01    0.359E-01
DAV:   5    -0.112794264720E+04    0.86069E-03   -0.29882E-03 31704   0.163E-01    0.148E-01
DAV:   6    -0.112794258048E+04    0.66712E-04   -0.10792E-03 30248   0.700E-02    0.702E-02
DAV:   7    -0.112794278555E+04   -0.20507E-03   -0.27063E-04 29912   0.363E-02    0.456E-02
DAV:   8    -0.112794274959E+04    0.35957E-04   -0.20406E-05 20640   0.138E-02    0.318E-02
DAV:   9    -0.112794277229E+04   -0.22695E-04   -0.11796E-05 18456   0.150E-02    0.249E-02
DAV:  10    -0.112794281001E+04   -0.37722E-04   -0.16234E-05 19800   0.139E-02    0.200E-02
DAV:  11    -0.112794285367E+04   -0.43665E-04   -0.11837E-05 18176   0.126E-02    0.181E-02
DAV:  12    -0.112794288162E+04   -0.27945E-04   -0.14456E-05 18272   0.166E-02    0.164E-02
DAV:  13    -0.112794297964E+04   -0.98017E-04   -0.54611E-05 24504   0.332E-02    0.131E-02
DAV:  14    -0.112794299856E+04   -0.18926E-04   -0.72074E-05 26432   0.247E-02    0.105E-02
DAV:  15    -0.112794300384E+04   -0.52728E-05   -0.22743E-05 18280   0.152E-02
   7 F= -.11279430E+04 E0= -.11279430E+04  d E =-.524193E-01  mag=    65.0000
       N       E                     dE             d eps       ncg     rms          rms(c)
DAV:   1    -0.112764621614E+04    0.29678E+00   -0.56641E+01 27568   0.187E+01    0.294E+00
DAV:   2    -0.112796545106E+04   -0.31923E+00   -0.37951E+00 28272   0.354E+00    0.152E+00
DAV:   3    -0.112796455325E+04    0.89781E-03   -0.11007E-01 29272   0.755E-01    0.846E-01
DAV:   4    -0.112796182915E+04    0.27241E-02   -0.81308E-03 30880   0.201E-01    0.501E-01
DAV:   5    -0.112796004267E+04    0.17865E-02   -0.57429E-03 31056   0.227E-01    0.195E-01
DAV:   6    -0.112796020531E+04   -0.16264E-03   -0.25683E-03 30024   0.102E-01    0.103E-01
DAV:   7    -0.112796035067E+04   -0.14536E-03   -0.33538E-04 29912   0.425E-02    0.626E-02
DAV:   8    -0.112796032868E+04    0.21986E-04   -0.48205E-05 27864   0.211E-02    0.438E-02
DAV:   9    -0.112796039989E+04   -0.71206E-04   -0.21585E-05 20320   0.187E-02    0.329E-02
DAV:  10    -0.112796042612E+04   -0.26232E-04   -0.24266E-05 21336   0.185E-02    0.271E-02
DAV:  11    -0.112796049286E+04   -0.66735E-04   -0.22017E-05 19856   0.185E-02    0.243E-02
DAV:  12    -0.112796055620E+04   -0.63343E-04   -0.30902E-05 21600   0.234E-02    0.215E-02
DAV:  13    -0.112796070816E+04   -0.15196E-03   -0.13829E-04 30376   0.550E-02    0.173E-02
DAV:  14    -0.112796074037E+04   -0.32207E-04   -0.13222E-04 28320   0.290E-02    0.141E-02
DAV:  15    -0.112796074213E+04   -0.17582E-05   -0.25510E-05 19104   0.189E-02
   8 F= -.11279607E+04 E0= -.11279607E+04  d E =-.177383E-01  mag=    65.0000
       N       E                     dE             d eps       ncg     rms          rms(c)
DAV:   1    -0.112793610896E+04    0.24631E-01   -0.37553E+00 30328   0.626E+00    0.138E+00
DAV:   2    -0.112799096112E+04   -0.54852E-01   -0.54762E-01 28776   0.123E+00    0.600E-01
DAV:   3    -0.112799197966E+04   -0.10185E-02   -0.18084E-02 29816   0.290E-01    0.281E-01
DAV:   4    -0.112799167535E+04    0.30432E-03   -0.17235E-03 31544   0.933E-02    0.163E-01
DAV:   5    -0.112799154055E+04    0.13479E-03   -0.55825E-04 30312   0.764E-02    0.574E-02
DAV:   6    -0.112799151048E+04    0.30073E-04   -0.30840E-04 29424   0.426E-02    0.363E-02
DAV:   7    -0.112799156682E+04   -0.56338E-04   -0.70238E-05 28464   0.207E-02    0.254E-02
DAV:   8    -0.112799155848E+04    0.83347E-05   -0.83747E-06 16104   0.824E-03
   9 F= -.11279916E+04 E0= -.11279916E+04  d E =-.308164E-01  mag=    65.0000
       N       E                     dE             d eps       ncg     rms          rms(c)
DAV:   1    -0.112799241012E+04   -0.84330E-03   -0.89144E-01 28320   0.276E+00    0.473E-01
DAV:   2    -0.112800021203E+04   -0.78019E-02   -0.90680E-02 28880   0.528E-01    0.243E-01
DAV:   3    -0.112800057953E+04   -0.36749E-03   -0.29880E-03 29656   0.122E-01    0.136E-01
DAV:   4    -0.112800046327E+04    0.11626E-03   -0.24674E-04 30624   0.322E-02    0.789E-02
DAV:   5    -0.112800051867E+04   -0.55399E-04   -0.13499E-04 30024   0.343E-02    0.345E-02
DAV:   6    -0.112800055673E+04   -0.38057E-04   -0.50703E-05 27728   0.173E-02    0.195E-02
DAV:   7    -0.112800056129E+04   -0.45620E-05   -0.13443E-05 17208   0.964E-03
  10 F= -.11280006E+04 E0= -.11280006E+04  d E =-.900280E-02  mag=    65.0000
       N       E                     dE             d eps       ncg     rms          rms(c)
DAV:   1    -0.112799720431E+04    0.33524E-02   -0.18365E+00 29432   0.388E+00    0.603E-01
DAV:   2    -0.112801140615E+04   -0.14202E-01   -0.16914E-01 28488   0.742E-01    0.313E-01
DAV:   3    -0.112801175562E+04   -0.34948E-03   -0.52883E-03 29600   0.161E-01    0.151E-01
DAV:   4    -0.112801161900E+04    0.13663E-03   -0.39342E-04 30912   0.424E-02    0.971E-02
DAV:   5    -0.112801168371E+04   -0.64708E-04   -0.20315E-04 32184   0.449E-02    0.392E-02
DAV:   6    -0.112801170499E+04   -0.21280E-04   -0.86860E-05 29544   0.216E-02    0.227E-02
DAV:   7    -0.112801172639E+04   -0.21404E-04   -0.14947E-05 17176   0.106E-02    0.181E-02
DAV:   8    -0.112801174053E+04   -0.14141E-04   -0.42867E-06 14632   0.649E-03    0.155E-02
DAV:   9    -0.112801175089E+04   -0.10360E-04   -0.27178E-06 14856   0.637E-03    0.137E-02
DAV:  10    -0.112801177099E+04   -0.20103E-04   -0.45717E-06 15320   0.101E-02    0.123E-02
DAV:  11    -0.112801178770E+04   -0.16702E-04   -0.92299E-06 17216   0.106E-02    0.112E-02
DAV:  12    -0.112801181789E+04   -0.30199E-04   -0.22365E-05 20432   0.223E-02    0.931E-03
DAV:  13    -0.112801186266E+04   -0.44766E-04   -0.77116E-05 26688   0.355E-02    0.712E-03
DAV:  14    -0.112801187227E+04   -0.96079E-05   -0.57593E-05 23168   0.199E-02
  11 F= -.11280119E+04 E0= -.11280119E+04  d E =-.113110E-01  mag=    65.0000
       N       E                     dE             d eps       ncg     rms          rms(c)
DAV:   1    -0.112777875706E+04    0.23311E+00   -0.16157E+01 31328   0.138E+01    0.227E+00
DAV:   2    -0.112802303591E+04   -0.24428E+00   -0.24347E+00 27760   0.254E+00    0.119E+00
DAV:   3    -0.112803016847E+04   -0.71326E-02   -0.80291E-02 29616   0.565E-01    0.490E-01
DAV:   4    -0.112802987161E+04    0.29686E-03   -0.47956E-03 30592   0.125E-01    0.329E-01
DAV:   5    -0.112802945614E+04    0.41547E-03   -0.16377E-03 32608   0.136E-01    0.144E-01
DAV:   6    -0.112802956294E+04   -0.10680E-03   -0.82378E-04 31464   0.653E-02    0.517E-02
DAV:   7    -0.112802969044E+04   -0.12750E-03   -0.15133E-04 29568   0.288E-02    0.338E-02
DAV:   8    -0.112802968513E+04    0.53177E-05   -0.15486E-05 18600   0.118E-02
  12 F= -.11280297E+04 E0= -.11280297E+04  d E =-.178129E-01  mag=    65.0000
       N       E                     dE             d eps       ncg     rms          rms(c)
DAV:   1    -0.112750256786E+04    0.52712E+00   -0.33022E+01 31240   0.195E+01    0.327E+00
DAV:   2    -0.112800546234E+04   -0.50289E+00   -0.49888E+00 27656   0.365E+00    0.172E+00
DAV:   3    -0.112802054653E+04   -0.15084E-01   -0.16469E-01 29760   0.822E-01    0.780E-01
DAV:   4    -0.112801972737E+04    0.81916E-03   -0.98276E-03 30648   0.179E-01    0.502E-01
DAV:   5    -0.112801849030E+04    0.12371E-02   -0.29701E-03 32416   0.193E-01    0.217E-01
DAV:   6    -0.112801853058E+04   -0.40287E-04   -0.20805E-03 31376   0.114E-01    0.762E-02
DAV:   7    -0.112801871572E+04   -0.18514E-03   -0.46810E-04 29472   0.504E-02    0.538E-02
DAV:   8    -0.112801864798E+04    0.67745E-04   -0.40294E-05 27344   0.201E-02    0.396E-02
DAV:   9    -0.112801872062E+04   -0.72640E-04   -0.17929E-05 20264   0.179E-02    0.304E-02
DAV:  10    -0.112801873037E+04   -0.97520E-05   -0.23497E-05 21136   0.169E-02
  13 F= -.11280187E+04 E0= -.11280187E+04  d E =0.109548E-01  mag=    65.0000
       N       E                     dE             d eps       ncg     rms          rms(c)
DAV:   1    -0.112773137098E+04    0.28735E+00   -0.15701E+01 31888   0.147E+01    0.251E+00
DAV:   2    -0.112803041530E+04   -0.29904E+00   -0.28499E+00 27736   0.274E+00    0.135E+00
DAV:   3    -0.112803859919E+04   -0.81839E-02   -0.94096E-02 29800   0.620E-01    0.557E-01
DAV:   4    -0.112803811583E+04    0.48336E-03   -0.55998E-03 30400   0.132E-01    0.364E-01
DAV:   5    -0.112803719026E+04    0.92557E-03   -0.16961E-03 32752   0.146E-01    0.148E-01
DAV:   6    -0.112803698532E+04    0.20494E-03   -0.99701E-04 31272   0.738E-02    0.536E-02
DAV:   7    -0.112803708261E+04   -0.97289E-04   -0.19386E-04 29336   0.322E-02    0.360E-02
DAV:   8    -0.112803705640E+04    0.26214E-04   -0.18790E-05 18952   0.113E-02    0.216E-02
DAV:   9    -0.112803704312E+04    0.13283E-04   -0.69841E-06 16240   0.904E-03    0.150E-02
DAV:  10    -0.112803705109E+04   -0.79754E-05   -0.49734E-06 16520   0.703E-03
  14 F= -.11280371E+04 E0= -.11280371E+04  d E =-.183207E-01  mag=    65.0000
       N       E                     dE             d eps       ncg     rms          rms(c)
DAV:   1    -0.112802475170E+04    0.12291E-01   -0.87783E-01 31384   0.320E+00    0.713E-01
DAV:   2    -0.112803757017E+04   -0.12818E-01   -0.12928E-01 28744   0.625E-01    0.326E-01
DAV:   3    -0.112803767602E+04   -0.10585E-03   -0.49674E-03 29656   0.164E-01    0.208E-01
DAV:   4    -0.112803767940E+04   -0.33852E-05   -0.45095E-04 30624   0.486E-02    0.975E-02
DAV:   5    -0.112803762071E+04    0.58694E-04   -0.16279E-04 31304   0.497E-02    0.395E-02
DAV:   6    -0.112803756204E+04    0.58665E-04   -0.13975E-04 29864   0.329E-02    0.235E-02
DAV:   7    -0.112803759872E+04   -0.36676E-04   -0.61069E-05 28176   0.161E-02    0.205E-02
DAV:   8    -0.112803761396E+04   -0.15245E-04   -0.24131E-06 15304   0.627E-03    0.145E-02
DAV:   9    -0.112803761913E+04   -0.51676E-05   -0.30910E-06 17056   0.897E-03
  15 F= -.11280376E+04 E0= -.11280376E+04  d E =-.568040E-03  mag=    65.0000
       N       E                     dE             d eps       ncg     rms          rms(c)
DAV:   1    -0.112803284207E+04    0.47719E-02   -0.30663E-01 32248   0.222E+00    0.450E-01
DAV:   2    -0.112803971912E+04   -0.68771E-02   -0.65557E-02 28624   0.428E-01    0.236E-01
DAV:   3    -0.112803989260E+04   -0.17349E-03   -0.24338E-03 29864   0.111E-01    0.140E-01
DAV:   4    -0.112803985335E+04    0.39254E-04   -0.17625E-04 30872   0.273E-02    0.686E-02
DAV:   5    -0.112803981727E+04    0.36085E-04   -0.70477E-05 29896   0.324E-02    0.266E-02
DAV:   6    -0.112803984263E+04   -0.25360E-04   -0.51819E-05 28936   0.196E-02    0.156E-02
DAV:   7    -0.112803982635E+04    0.16275E-04   -0.18431E-05 16488   0.945E-03    0.116E-02
DAV:   8    -0.112803981661E+04    0.97383E-05   -0.19443E-06 14592   0.508E-03
  16 F= -.11280398E+04 E0= -.11280398E+04  d E =-.219748E-02  mag=    65.0000
       N       E                     dE             d eps       ncg     rms          rms(c)
DAV:   1    -0.112803797941E+04    0.18469E-02   -0.13061E-01 31808   0.134E+00    0.232E-01
DAV:   2    -0.112804057276E+04   -0.25933E-02   -0.25484E-02 27440   0.245E-01    0.119E-01
DAV:   3    -0.112804062959E+04   -0.56830E-04   -0.85878E-04 29144   0.563E-02    0.537E-02
DAV:   4    -0.112804064700E+04   -0.17414E-04   -0.47853E-05 22168   0.108E-02    0.352E-02
DAV:   5    -0.112804064469E+04    0.23158E-05   -0.12466E-05 18272   0.140E-02
  17 F= -.11280406E+04 E0= -.11280406E+04  d E =-.828074E-03  mag=    65.0000
       N       E                     dE             d eps       ncg     rms          rms(c)
DAV:   1    -0.112723848457E+04    0.80216E+00   -0.32266E+01 32136   0.207E+01    0.390E+00
DAV:   2    -0.112800616107E+04   -0.76768E+00   -0.71421E+00 26688   0.373E+00    0.209E+00
DAV:   3    -0.112803483478E+04   -0.28674E-01   -0.24490E-01 29112   0.866E-01    0.849E-01
DAV:   4    -0.112803549190E+04   -0.65712E-03   -0.12858E-02 30624   0.161E-01    0.568E-01
DAV:   5    -0.112803493227E+04    0.55963E-03   -0.30365E-03 32568   0.198E-01    0.251E-01
DAV:   6    -0.112803483321E+04    0.99060E-04   -0.21042E-03 31744   0.112E-01    0.823E-02
DAV:   7    -0.112803509732E+04   -0.26411E-03   -0.38034E-04 29256   0.449E-02    0.531E-02
DAV:   8    -0.112803505504E+04    0.42284E-04   -0.62124E-05 29048   0.232E-02    0.374E-02
DAV:   9    -0.112803506867E+04   -0.13635E-04   -0.17433E-05 19192   0.146E-02    0.289E-02
DAV:  10    -0.112803507998E+04   -0.11314E-04   -0.15187E-05 18752   0.150E-02    0.243E-02
DAV:  11    -0.112803510897E+04   -0.28983E-04   -0.16423E-05 18520   0.133E-02    0.223E-02
DAV:  12    -0.112803514826E+04   -0.39289E-04   -0.15668E-05 19464   0.171E-02    0.204E-02
DAV:  13    -0.112803524184E+04   -0.93580E-04   -0.12074E-04 30512   0.497E-02    0.166E-02
DAV:  14    -0.112803527799E+04   -0.36152E-04   -0.13691E-04 29680   0.348E-02    0.131E-02
DAV:  15    -0.112803529941E+04   -0.21421E-04   -0.46804E-05 20840   0.183E-02    0.113E-02
DAV:  16    -0.112803531790E+04   -0.18491E-04   -0.10515E-05 16040   0.138E-02    0.101E-02
DAV:  17    -0.112803534217E+04   -0.24266E-04   -0.38115E-05 22344   0.275E-02    0.813E-03
DAV:  18    -0.112803535444E+04   -0.12269E-04   -0.54256E-05 24048   0.214E-02    0.616E-03
DAV:  19    -0.112803535718E+04   -0.27471E-05   -0.20374E-05 17216   0.120E-02
  18 F= -.11280354E+04 E0= -.11280354E+04  d E =0.528750E-02  mag=    65.0000
       N       E                     dE             d eps       ncg     rms          rms(c)
DAV:   1    -0.112786065530E+04    0.17470E+00   -0.74473E+00 31984   0.980E+00    0.195E+00
DAV:   2    -0.112803015867E+04   -0.16950E+00   -0.15729E+00 27192   0.177E+00    0.983E-01
DAV:   3    -0.112803512300E+04   -0.49643E-02   -0.57233E-02 28928   0.418E-01    0.422E-01
DAV:   4    -0.112803529893E+04   -0.17593E-03   -0.32984E-03 30792   0.913E-02    0.265E-01
DAV:   5    -0.112803521635E+04    0.82586E-04   -0.86796E-04 32520   0.989E-02    0.112E-01
DAV:   6    -0.112803501160E+04    0.20475E-03   -0.44378E-04 31880   0.523E-02    0.497E-02
DAV:   7    -0.112803512894E+04   -0.11734E-03   -0.10693E-04 29120   0.230E-02    0.326E-02
DAV:   8    -0.112803518126E+04   -0.52315E-04   -0.88770E-06 16640   0.108E-02    0.254E-02
DAV:   9    -0.112803516776E+04    0.13497E-04   -0.11649E-05 18672   0.146E-02    0.204E-02
DAV:  10    -0.112803519565E+04   -0.27892E-04   -0.14315E-05 17560   0.117E-02    0.179E-02
DAV:  11    -0.112803522428E+04   -0.28631E-04   -0.81364E-06 17408   0.128E-02    0.164E-02
DAV:  12    -0.112803523751E+04   -0.13225E-04   -0.18057E-05 19352   0.170E-02    0.147E-02
DAV:  13    -0.112803527745E+04   -0.39941E-04   -0.59845E-05 25592   0.342E-02    0.114E-02
DAV:  14    -0.112803531131E+04   -0.33856E-04   -0.85548E-05 28144   0.314E-02    0.893E-03
DAV:  15    -0.112803531916E+04   -0.78584E-05   -0.36854E-05 19720   0.149E-02
  19 F= -.11280353E+04 E0= -.11280353E+04  d E =0.380195E-04  mag=    65.0000
       N       E                     dE             d eps       ncg     rms          rms(c)
DAV:   1    -0.112753290656E+04    0.50240E+00   -0.21666E+01 32040   0.166E+01    0.316E+00
DAV:   2    -0.112802719816E+04   -0.49429E+00   -0.45984E+00 26544   0.298E+00    0.174E+00
DAV:   3    -0.112804479288E+04   -0.17595E-01   -0.16571E-01 28920   0.702E-01    0.688E-01
DAV:   4    -0.112804484331E+04   -0.50423E-04   -0.90003E-03 30752   0.135E-01    0.453E-01
DAV:   5    -0.112804439444E+04    0.44887E-03   -0.21115E-03 32480   0.159E-01    0.186E-01
DAV:   6    -0.112804438184E+04    0.12599E-04   -0.13237E-03 31904   0.868E-02    0.619E-02
DAV:   7    -0.112804451306E+04   -0.13122E-03   -0.23659E-04 29248   0.345E-02    0.416E-02
DAV:   8    -0.112804450000E+04    0.13066E-04   -0.29355E-05 25184   0.157E-02    0.293E-02
DAV:   9    -0.112804452251E+04   -0.22507E-04   -0.12461E-05 17864   0.135E-02    0.235E-02
DAV:  10    -0.112804454225E+04   -0.19744E-04   -0.13406E-05 18144   0.116E-02    0.204E-02
DAV:  11    -0.112804455923E+04   -0.16976E-04   -0.86386E-06 17120   0.104E-02    0.187E-02
DAV:  12    -0.112804460155E+04   -0.42325E-04   -0.22120E-05 20568   0.222E-02    0.164E-02
DAV:  13    -0.112804467610E+04   -0.74550E-04   -0.11619E-04 30056   0.439E-02    0.125E-02
DAV:  14    -0.112804468697E+04   -0.10866E-04   -0.89690E-05 26784   0.237E-02    0.937E-03
DAV:  15    -0.112804469594E+04   -0.89710E-05   -0.17868E-05 17368   0.127E-02
  20 F= -.11280447E+04 E0= -.11280447E+04  d E =-.937677E-02  mag=    65.0000
       N       E                     dE             d eps       ncg     rms          rms(c)
DAV:   1    -0.112797557804E+04    0.69109E-01   -0.15226E+00 37776   0.565E+00    0.119E+00
DAV:   2    -0.112804388713E+04   -0.68309E-01   -0.57315E-01 26232   0.944E-01    0.577E-01
DAV:   3    -0.112804564630E+04   -0.17592E-02   -0.21032E-02 29088   0.244E-01    0.220E-01
DAV:   4    -0.112804582628E+04   -0.17998E-03   -0.12832E-03 30944   0.429E-02    0.147E-01
DAV:   5    -0.112804570586E+04    0.12041E-03   -0.21508E-04 32008   0.537E-02    0.542E-02
DAV:   6    -0.112804567843E+04    0.27434E-04   -0.10104E-04 29864   0.237E-02    0.212E-02
DAV:   7    -0.112804569997E+04   -0.21544E-04   -0.22690E-05 19400   0.111E-02    0.132E-02
DAV:   8    -0.112804570377E+04   -0.37961E-05   -0.48298E-06 14368   0.593E-03
  21 F= -.11280457E+04 E0= -.11280457E+04  d E =-.100783E-02  mag=    65.0000
       N       E                     dE             d eps       ncg     rms          rms(c)
DAV:   1    -0.112802825502E+04    0.17445E-01   -0.45227E-01 35160   0.284E+00    0.605E-01
DAV:   2    -0.112804602653E+04   -0.17772E-01   -0.15280E-01 26264   0.490E-01    0.295E-01
DAV:   3    -0.112804644909E+04   -0.42256E-03   -0.57709E-03 28952   0.122E-01    0.111E-01
DAV:   4    -0.112804653142E+04   -0.82328E-04   -0.31471E-04 30272   0.232E-02    0.752E-02
DAV:   5    -0.112804652472E+04    0.66935E-05   -0.44902E-05 26496   0.262E-02
  22 F= -.11280465E+04 E0= -.11280465E+04  d E =-.820956E-03  mag=    65.0000
       N       E                     dE             d eps       ncg     rms          rms(c)
DAV:   1    -0.112804508243E+04    0.14490E-02   -0.66350E-02 32352   0.101E+00    0.188E-01
DAV:   2    -0.112804679833E+04   -0.17159E-02   -0.15790E-02 27112   0.183E-01    0.915E-02
DAV:   3    -0.112804679734E+04    0.98768E-06   -0.56400E-04 28736   0.434E-02    0.361E-02
DAV:   4    -0.112804680701E+04   -0.96739E-05   -0.33218E-05 20456   0.943E-03
  23 F= -.11280468E+04 E0= -.11280468E+04  d E =-.282290E-03  mag=    65.0000
