       N       E                     dE             d eps       ncg     rms          rms(c)
DAV:   1     0.304653023160E+04    0.30465E+04   -0.25839E+05 73596   0.130E+03
DAV:   2    -0.613901683332E+03   -0.36604E+04   -0.35324E+04 89436   0.297E+02
DAV:   3    -0.871204572564E+03   -0.25730E+03   -0.25520E+03 89136   0.832E+01
DAV:   4    -0.874407083619E+03   -0.32025E+01   -0.31907E+01 89412   0.997E+00
DAV:   5    -0.874460999567E+03   -0.53916E-01   -0.53787E-01 91032   0.120E+00    0.987E+01
DAV:   6    -0.781841062708E+03    0.92620E+02   -0.39224E+02 84384   0.315E+01    0.503E+01
DAV:   7    -0.790738484684E+03   -0.88974E+01   -0.24158E+01 84576   0.844E+00    0.175E+01
DAV:   8    -0.794324636504E+03   -0.35862E+01   -0.70879E+00 99492   0.490E+00    0.100E+01
DAV:   9    -0.795700025328E+03   -0.13754E+01   -0.43096E+00 98760   0.335E+00    0.803E+00
DAV:  10    -0.796269091512E+03   -0.56907E+00   -0.30731E+00 93936   0.249E+00    0.576E+00
DAV:  11    -0.796748945364E+03   -0.47985E+00   -0.25508E+00100344   0.200E+00    0.333E+00
DAV:  12    -0.796889529379E+03   -0.14058E+00   -0.73817E-01 97584   0.157E+00    0.194E+00
DAV:  13    -0.797002563425E+03   -0.11303E+00   -0.29087E-01 86376   0.998E-01    0.242E+00
DAV:  14    -0.797007942825E+03   -0.53794E-02   -0.19857E-01 97116   0.597E-01    0.131E+00
DAV:  15    -0.797018631746E+03   -0.10689E-01   -0.74022E-02 92880   0.528E-01    0.116E+00
DAV:  16    -0.797026669327E+03   -0.80376E-02   -0.20373E-02 88308   0.287E-01    0.130E+00
DAV:  17    -0.797023523668E+03    0.31457E-02   -0.17155E-02 95256   0.316E-01    0.633E-01
DAV:  18    -0.797023183189E+03    0.34048E-03   -0.24467E-02 94008   0.212E-01    0.471E-01
DAV:  19    -0.797024462773E+03   -0.12796E-02   -0.52444E-03 78996   0.114E-01    0.589E-01
DAV:  20    -0.797023636374E+03    0.82640E-03   -0.17919E-03104028   0.120E-01    0.178E-01
DAV:  21    -0.797023887476E+03   -0.25110E-03   -0.15327E-03 85380   0.685E-02    0.149E-01
DAV:  22    -0.797023940734E+03   -0.53258E-04   -0.43432E-04 88140   0.437E-02    0.105E-01
DAV:  23    -0.797023948062E+03   -0.73281E-05   -0.14491E-04 87336   0.266E-02    0.879E-02
DAV:  24    -0.797023941485E+03    0.65769E-05   -0.61794E-05 84420   0.168E-02
   1 F= -.79702394E+03 E0= -.79700501E+03  d E =-.797024E+03  mag=    -0.1169
       N       E                     dE             d eps       ncg     rms          rms(c)
DAV:   1    -0.797024039156E+03   -0.91094E-04   -0.89849E-03 75888   0.179E-01    0.910E-02
DAV:   2    -0.797024182849E+03   -0.14369E-03   -0.81843E-04103200   0.679E-02    0.288E-01
DAV:   3    -0.797024010189E+03    0.17266E-03   -0.41913E-04104868   0.484E-02    0.399E-02
DAV:   4    -0.797024049677E+03   -0.39488E-04   -0.13920E-04 86484   0.202E-02    0.589E-02
DAV:   5    -0.797024045823E+03    0.38541E-05   -0.54960E-05 58836   0.127E-02
   2 F= -.79702405E+03 E0= -.79700508E+03  d E =-.104338E-03  mag=    -0.1166
       N       E                     dE             d eps       ncg     rms          rms(c)
DAV:   1    -0.797024090000E+03   -0.40323E-04   -0.18331E-03 75888   0.803E-02    0.248E-02
DAV:   2    -0.797024100096E+03   -0.10096E-04   -0.10294E-04 88224   0.191E-02    0.652E-02
DAV:   3    -0.797024089818E+03    0.10278E-04   -0.45623E-05 57828   0.120E-02    0.110E-02
DAV:   4    -0.797024093023E+03   -0.32046E-05   -0.68852E-06 44172   0.577E-03
   3 F= -.79702409E+03 E0= -.79700510E+03  d E =-.471998E-04  mag=    -0.1182
