       N       E                     dE             d eps       ncg     rms          rms(c)
DAV:   1     0.304880104172E+04    0.30488E+04   -0.25833E+05 73584   0.130E+03
DAV:   2    -0.614288514666E+03   -0.36631E+04   -0.35346E+04 89472   0.297E+02
DAV:   3    -0.871806417673E+03   -0.25752E+03   -0.25538E+03 89004   0.832E+01
DAV:   4    -0.875020710809E+03   -0.32143E+01   -0.32024E+01 89352   0.999E+00
DAV:   5    -0.875075118163E+03   -0.54407E-01   -0.54273E-01 91080   0.120E+00    0.988E+01
DAV:   6    -0.782272132265E+03    0.92803E+02   -0.39320E+02 83376   0.315E+01    0.503E+01
DAV:   7    -0.790865793683E+03   -0.85937E+01   -0.22637E+01 84672   0.844E+00    0.178E+01
DAV:   8    -0.794053608244E+03   -0.31878E+01   -0.86934E+00104196   0.505E+00    0.106E+01
DAV:   9    -0.795971439914E+03   -0.19178E+01   -0.24556E+00 88536   0.287E+00    0.617E+00
DAV:  10    -0.796980849233E+03   -0.10094E+01   -0.30363E+00 94452   0.326E+00    0.620E+00
DAV:  11    -0.797453390156E+03   -0.47254E+00   -0.32497E+00 94164   0.181E+00    0.547E+00
DAV:  12    -0.797480641392E+03   -0.27251E-01   -0.22672E+00101088   0.171E+00    0.288E+00
DAV:  13    -0.797494467963E+03   -0.13827E-01   -0.62578E-01 87612   0.999E-01    0.248E+00
DAV:  14    -0.797557017890E+03   -0.62550E-01   -0.67446E-01 95820   0.875E-01    0.249E+00
DAV:  15    -0.797559328172E+03   -0.23103E-02   -0.18903E-01 93540   0.531E-01    0.174E+00
DAV:  16    -0.797555349891E+03    0.39783E-02   -0.36615E-02 99372   0.518E-01    0.861E-01
DAV:  17    -0.797559737451E+03   -0.43876E-02   -0.42772E-02 92952   0.339E-01    0.101E+00
DAV:  18    -0.797562600641E+03   -0.28632E-02   -0.63517E-03 80640   0.134E-01    0.122E+00
DAV:  19    -0.797562777695E+03   -0.17705E-03   -0.37931E-04 83244   0.376E-02    0.127E+00
DAV:  20    -0.797561997213E+03    0.78048E-03   -0.81235E-05 76764   0.144E-02    0.123E+00
DAV:  21    -0.797558586393E+03    0.34108E-02   -0.75549E-03 91284   0.107E-01    0.981E-01
DAV:  22    -0.797556724319E+03    0.18621E-02   -0.30433E-02107004   0.189E-01    0.475E-01
DAV:  23    -0.797556978691E+03   -0.25437E-03   -0.49927E-03 80340   0.116E-01    0.316E-01
DAV:  24    -0.797556931408E+03    0.47283E-04   -0.20254E-03 86724   0.651E-02    0.207E-01
DAV:  25    -0.797556928789E+03    0.26183E-05   -0.35525E-04 87684   0.376E-02    0.146E-01
DAV:  26    -0.797556880524E+03    0.48266E-04   -0.38925E-04 88980   0.299E-02    0.105E-01
DAV:  27    -0.797556889606E+03   -0.90825E-05   -0.10891E-04 78000   0.174E-02    0.111E-01
DAV:  28    -0.797556862344E+03    0.27263E-04   -0.53818E-05 65676   0.125E-02    0.805E-02
DAV:  29    -0.797556842730E+03    0.19614E-04   -0.43030E-05 66840   0.129E-02    0.148E-02
DAV:  30    -0.797556848714E+03   -0.59839E-05   -0.11036E-05 52656   0.697E-03
   1 F= -.79755685E+03 E0= -.79753908E+03  d E =-.797557E+03  mag=    -0.7431
       N       E                     dE             d eps       ncg     rms          rms(c)
DAV:   1    -0.797557236752E+03   -0.39402E-03   -0.20707E-02 75624   0.257E-01    0.219E-01
DAV:   2    -0.797561571020E+03   -0.43343E-02   -0.20450E-02111660   0.179E-01    0.123E+00
DAV:   3    -0.797556609645E+03    0.49614E-02   -0.24181E-02101976   0.152E-01    0.193E-01
DAV:   4    -0.797557425934E+03   -0.81629E-03   -0.63883E-04 76440   0.464E-02    0.207E-01
DAV:   5    -0.797557315430E+03    0.11050E-03   -0.10427E-04 84000   0.148E-02    0.183E-01
DAV:   6    -0.797557095346E+03    0.22008E-03   -0.58632E-04 88848   0.304E-02    0.802E-02
DAV:   7    -0.797557133937E+03   -0.38590E-04   -0.15110E-04 77796   0.220E-02    0.527E-02
DAV:   8    -0.797557134175E+03   -0.23848E-06   -0.25395E-05 64668   0.120E-02
   2 F= -.79755713E+03 E0= -.79753939E+03  d E =-.285461E-03  mag=    -0.7443
       N       E                     dE             d eps       ncg     rms          rms(c)
DAV:   1    -0.797557178164E+03   -0.44227E-04   -0.36632E-03 75624   0.105E-01    0.397E-02
DAV:   2    -0.797557196504E+03   -0.18340E-04   -0.24637E-04 92352   0.242E-02    0.744E-02
DAV:   3    -0.797557185816E+03    0.10688E-04   -0.92105E-05 67236   0.155E-02    0.367E-02
DAV:   4    -0.797557193517E+03   -0.77004E-05   -0.34138E-05 54312   0.884E-03
   3 F= -.79755719E+03 E0= -.79753949E+03  d E =-.593417E-04  mag=    -0.7475
