       N       E                     dE             d eps       ncg     rms          ort
DAV:   1     0.284136527608E+04    0.28414E+04   -0.29343E+05 18360   0.141E+03
DAV:   2    -0.970351255338E+03   -0.38117E+04   -0.36742E+04 18360   0.312E+02
DAV:   3    -0.123073952057E+04   -0.26039E+03   -0.25875E+03 18360   0.853E+01
DAV:   4    -0.123378638845E+04   -0.30469E+01   -0.30365E+01 18360   0.981E+00
DAV:   5    -0.123383605675E+04   -0.49668E-01   -0.49561E-01 18360   0.115E+00
SDA:   6    -0.872956592782E+03    0.36088E+03   -0.49561E-01 18360   0.619E+03 0.000E+00
CGA:   7    -0.985889756483E+03   -0.11293E+03   -0.11274E+03 18360   0.440E+02-0.264E+01
CGA:   8    -0.999042411634E+03   -0.13153E+02   -0.13126E+02 18360   0.105E+02 0.219E+00
CGA:   9    -0.100288423352E+04   -0.38418E+01   -0.38434E+01 18360   0.401E+01-0.142E-01
CGA:  10    -0.100415065374E+04   -0.12664E+01   -0.12701E+01 18360   0.866E+00-0.315E-01
CGA:  11    -0.100448499335E+04   -0.33434E+00   -0.33457E+00 18360   0.188E+00-0.118E-02
CGA:  12    -0.100455003040E+04   -0.65037E-01   -0.65034E-01 18360   0.432E-01-0.634E-05
CGA:  13    -0.100456631661E+04   -0.16286E-01   -0.16401E-01 18360   0.986E-02-0.793E-03
CGA:  14    -0.100457001264E+04   -0.36960E-02   -0.36175E-02 18360   0.216E-02 0.580E-03
CGA:  15    -0.100457095925E+04   -0.94661E-03   -0.91606E-03 18360   0.535E-03 0.195E-03
CGA:  16    -0.100457123709E+04   -0.27784E-03   -0.37281E-03 18360   0.394E-03-0.248E-03
CGA:  17    -0.100457130068E+04   -0.63590E-04   -0.63479E-04 18360   0.157E-03 0.373E-05
CGA:  18    -0.100457132899E+04   -0.28311E-04   -0.31658E-04 18360   0.631E-04 0.446E-04
CGA:  19    -0.100457134229E+04   -0.13300E-04   -0.15689E-04 18360   0.329E-04 0.310E-04
CGA:  20    -0.100457135230E+04   -0.10010E-04   -0.10683E-04 18360   0.145E-04 0.137E-04
CGA:  21    -0.100457135942E+04   -0.71123E-05   -0.78153E-05 18360   0.936E-05-0.608E-05
   1 F= -.10045714E+04 E0= -.10045714E+04  d E =-.100457E+04  mag=    -0.0000
