       N       E                     dE             d eps       ncg     rms          rms(c)
DAV:   1     0.103858272196E+05    0.10386E+05   -0.37696E+05 32050   0.141E+03
DAV:   2     0.529360754150E+03   -0.98565E+04   -0.93015E+04 31370   0.452E+02
DAV:   3    -0.852599675432E+03   -0.13820E+04   -0.12789E+04 34830   0.173E+02
DAV:   4    -0.937755922840E+03   -0.85156E+02   -0.82802E+02 39300   0.449E+01
DAV:   5    -0.940291672118E+03   -0.25357E+01   -0.25282E+01 38400   0.839E+00    0.189E+02
DAV:   6    -0.426558923739E+03    0.51373E+03   -0.12068E+03 38970   0.768E+01    0.927E+01
DAV:   7    -0.662129628178E+03   -0.23557E+03   -0.40733E+02 40260   0.644E+01    0.806E+01
DAV:   8    -0.687328248535E+03   -0.25199E+02   -0.56290E+01 40790   0.204E+01    0.512E+01
DAV:   9    -0.735268553534E+03   -0.47940E+02   -0.41421E+01 40160   0.145E+01    0.360E+01
DAV:  10    -0.772229267893E+03   -0.36961E+02   -0.40097E+01 41730   0.149E+01    0.290E+01
DAV:  11    -0.791456213470E+03   -0.19227E+02   -0.28107E+01 38870   0.930E+00    0.177E+01
DAV:  12    -0.794329176536E+03   -0.28730E+01   -0.80934E+00 40260   0.731E+00    0.927E+00
DAV:  13    -0.795876201346E+03   -0.15470E+01   -0.18444E+00 37500   0.302E+00    0.545E+00
DAV:  14    -0.796465781989E+03   -0.58958E+00   -0.59155E-01 36450   0.214E+00    0.351E+00
DAV:  15    -0.796674840590E+03   -0.20906E+00   -0.25696E-01 38490   0.147E+00    0.179E+00
DAV:  16    -0.796713751458E+03   -0.38911E-01   -0.76889E-02 35740   0.869E-01    0.111E+00
DAV:  17    -0.796723229083E+03   -0.94776E-02   -0.18416E-02 33860   0.381E-01    0.753E-01
DAV:  18    -0.796731792134E+03   -0.85631E-02   -0.57838E-03 39350   0.222E-01    0.526E-01
DAV:  19    -0.796738287459E+03   -0.64953E-02   -0.48982E-03 38240   0.198E-01    0.407E-01
DAV:  20    -0.796742163312E+03   -0.38759E-02   -0.36623E-03 39340   0.151E-01    0.342E-01
DAV:  21    -0.796745190871E+03   -0.30276E-02   -0.19293E-03 39520   0.114E-01    0.300E-01
DAV:  22    -0.796749323640E+03   -0.41328E-02   -0.32754E-03 43010   0.169E-01    0.248E-01
DAV:  23    -0.796752392881E+03   -0.30692E-02   -0.45956E-03 41590   0.172E-01    0.206E-01
DAV:  24    -0.796754436662E+03   -0.20438E-02   -0.32945E-03 41570   0.159E-01    0.159E-01
DAV:  25    -0.796755650576E+03   -0.12139E-02   -0.24087E-03 37580   0.101E-01    0.123E-01
DAV:  26    -0.796756202078E+03   -0.55150E-03   -0.58566E-04 35410   0.486E-02    0.942E-02
DAV:  27    -0.796756530679E+03   -0.32860E-03   -0.25468E-04 36710   0.387E-02    0.785E-02
DAV:  28    -0.796756806214E+03   -0.27553E-03   -0.27527E-04 41620   0.466E-02    0.670E-02
DAV:  29    -0.796757056283E+03   -0.25007E-03   -0.37271E-04 39770   0.457E-02    0.598E-02
DAV:  30    -0.796757250566E+03   -0.19428E-03   -0.26277E-04 36010   0.352E-02    0.491E-02
DAV:  31    -0.796757408328E+03   -0.15776E-03   -0.44201E-04 43290   0.582E-02    0.419E-02
DAV:  32    -0.796757553406E+03   -0.14508E-03   -0.29242E-04 36090   0.328E-02    0.334E-02
DAV:  33    -0.796757609301E+03   -0.55895E-04   -0.65452E-05 29390   0.163E-02    0.249E-02
DAV:  34    -0.796757643081E+03   -0.33779E-04   -0.42422E-05 27830   0.132E-02    0.225E-02
DAV:  35    -0.796757665743E+03   -0.22662E-04   -0.28904E-05 29320   0.142E-02    0.186E-02
DAV:  36    -0.796757684078E+03   -0.18335E-04   -0.48564E-05 31370   0.153E-02    0.171E-02
DAV:  37    -0.796757700883E+03   -0.16805E-04   -0.30215E-05 25780   0.109E-02    0.131E-02
DAV:  38    -0.796757712095E+03   -0.11212E-04   -0.18612E-05 25020   0.105E-02    0.102E-02
DAV:  39    -0.796757718548E+03   -0.64536E-05   -0.18067E-05 24550   0.935E-03
   1 F= -.79675772E+03 E0= -.79675772E+03  d E =-.796758E+03  mag=    46.9995
       N       E                     dE             d eps       ncg     rms          rms(c)
DAV:   1    -0.796757799504E+03   -0.87409E-04   -0.43419E-05 30920   0.187E-02    0.636E-03
DAV:   2    -0.796757801493E+03   -0.19890E-05   -0.55916E-06 17730   0.547E-03    0.548E-03
DAV:   3    -0.796757801837E+03   -0.34379E-06   -0.69707E-07 16520   0.237E-03    0.447E-03
DAV:   4    -0.796757802288E+03   -0.45115E-06   -0.27337E-07 16520   0.148E-03
   2 F= -.79675780E+03 E0= -.79675780E+03  d E =-.837394E-04  mag=    47.0000
       N       E                     dE             d eps       ncg     rms          rms(c)
DAV:   1    -0.796762221436E+03   -0.44196E-02   -0.36383E-01 34540   0.177E+00    0.198E-01
DAV:   2    -0.796765339462E+03   -0.31180E-02   -0.32146E-02 33140   0.341E-01    0.134E-01
DAV:   3    -0.796765492037E+03   -0.15257E-03   -0.80010E-04 40900   0.708E-02    0.727E-02
DAV:   4    -0.796765485060E+03    0.69768E-05   -0.69394E-05 36390   0.281E-02
   3 F= -.79676549E+03 E0= -.79676549E+03  d E =-.768277E-02  mag=    47.0000
       N       E                     dE             d eps       ncg     rms          rms(c)
DAV:   1    -0.796769422888E+03   -0.39309E-02   -0.32770E-01 34660   0.169E+00    0.193E-01
DAV:   2    -0.796772332433E+03   -0.29095E-02   -0.29722E-02 33110   0.323E-01    0.126E-01
DAV:   3    -0.796772467633E+03   -0.13520E-03   -0.67348E-04 39120   0.653E-02    0.724E-02
DAV:   4    -0.796772470254E+03   -0.26205E-05   -0.60911E-05 35160   0.270E-02
   4 F= -.79677247E+03 E0= -.79677247E+03  d E =-.698519E-02  mag=    47.0000
       N       E                     dE             d eps       ncg     rms          rms(c)
DAV:   1    -0.796775307556E+03   -0.28399E-02   -0.38330E-01 34810   0.181E+00    0.212E-01
DAV:   2    -0.796778748702E+03   -0.34411E-02   -0.35072E-02 33110   0.346E-01    0.134E-01
DAV:   3    -0.796778918364E+03   -0.16966E-03   -0.77851E-04 39380   0.678E-02    0.767E-02
DAV:   4    -0.796778924865E+03   -0.65007E-05   -0.71325E-05 36870   0.288E-02
   5 F= -.79677892E+03 E0= -.79677892E+03  d E =-.645461E-02  mag=    47.0000
       N       E                     dE             d eps       ncg     rms          rms(c)
DAV:   1    -0.796780911664E+03   -0.19933E-02   -0.37479E-01 34880   0.184E+00    0.218E-01
DAV:   2    -0.796784615111E+03   -0.37034E-02   -0.37612E-02 33070   0.352E-01    0.124E-01
DAV:   3    -0.796784805437E+03   -0.19033E-03   -0.78222E-04 39410   0.610E-02    0.745E-02
DAV:   4    -0.796784816250E+03   -0.10813E-04   -0.65278E-05 35150   0.243E-02    0.557E-02
DAV:   5    -0.796784845898E+03   -0.29648E-04   -0.48390E-05 33770   0.211E-02    0.305E-02
DAV:   6    -0.796784859637E+03   -0.13740E-04   -0.18794E-05 21570   0.124E-02    0.260E-02
DAV:   7    -0.796784869581E+03   -0.99440E-05   -0.76736E-06 17670   0.793E-03
   6 F= -.79678487E+03 E0= -.79678487E+03  d E =-.594472E-02  mag=    47.0000
       N       E                     dE             d eps       ncg     rms          rms(c)
DAV:   1    -0.796787440148E+03   -0.25805E-02   -0.24189E-01 34340   0.148E+00    0.173E-01
DAV:   2    -0.796789779038E+03   -0.23389E-02   -0.23818E-02 33120   0.283E-01    0.978E-02
DAV:   3    -0.796789901430E+03   -0.12239E-03   -0.50378E-04 39780   0.508E-02    0.572E-02
DAV:   4    -0.796789905412E+03   -0.39817E-05   -0.39133E-05 28360   0.194E-02
   7 F= -.79678991E+03 E0= -.79678991E+03  d E =-.503583E-02  mag=    47.0000
       N       E                     dE             d eps       ncg     rms          rms(c)
DAV:   1    -0.796789434864E+03    0.46657E-03   -0.52497E-01 35010   0.201E+00    0.222E-01
DAV:   2    -0.796793131373E+03   -0.36965E-02   -0.37935E-02 33270   0.383E-01    0.195E-01
DAV:   3    -0.796793264748E+03   -0.13338E-03   -0.99489E-04 36600   0.950E-02    0.972E-02
DAV:   4    -0.796793265813E+03   -0.10643E-05   -0.10065E-04 37230   0.372E-02    0.876E-02
DAV:   5    -0.796793274919E+03   -0.91067E-05   -0.88121E-05 38110   0.283E-02
   8 F= -.79679327E+03 E0= -.79679327E+03  d E =-.336951E-02  mag=    47.0000
       N       E                     dE             d eps       ncg     rms          rms(c)
DAV:   1    -0.796746285149E+03    0.46981E-01   -0.52675E+00 34750   0.687E+00    0.772E-01
DAV:   2    -0.796790109303E+03   -0.43824E-01   -0.44521E-01 32680   0.126E+00    0.513E-01
DAV:   3    -0.796792053033E+03   -0.19437E-02   -0.92015E-03 38730   0.259E-01    0.262E-01
DAV:   4    -0.796791947488E+03    0.10555E-03   -0.91952E-04 42840   0.108E-01    0.211E-01
DAV:   5    -0.796791941804E+03    0.56833E-05   -0.57676E-04 44720   0.778E-02    0.648E-02
DAV:   6    -0.796792000078E+03   -0.58273E-04   -0.16176E-04 38900   0.342E-02    0.404E-02
DAV:   7    -0.796792005712E+03   -0.56343E-05   -0.14536E-05 20010   0.131E-02
   9 F= -.79679201E+03 E0= -.79679201E+03  d E =0.126921E-02  mag=    47.0000
       N       E                     dE             d eps       ncg     rms          rms(c)
DAV:   1    -0.796528547351E+03    0.26345E+00   -0.28634E+01 34800   0.160E+01    0.178E+00
DAV:   2    -0.796769481083E+03   -0.24093E+00   -0.24507E+00 32320   0.294E+00    0.106E+00
DAV:   3    -0.796780154962E+03   -0.10674E-01   -0.48034E-02 40130   0.547E-01    0.554E-01
DAV:   4    -0.796779522171E+03    0.63279E-03   -0.45049E-03 43920   0.221E-01    0.413E-01
DAV:   5    -0.796779577100E+03   -0.54929E-04   -0.25556E-03 44820   0.166E-01    0.133E-01
DAV:   6    -0.796779827038E+03   -0.24994E-03   -0.76517E-04 42150   0.791E-02    0.837E-02
DAV:   7    -0.796779844180E+03   -0.17143E-04   -0.72319E-05 35810   0.296E-02    0.491E-02
DAV:   8    -0.796779873950E+03   -0.29770E-04   -0.41938E-05 29440   0.200E-02    0.342E-02
DAV:   9    -0.796779895550E+03   -0.21600E-04   -0.26544E-05 23850   0.128E-02    0.290E-02
DAV:  10    -0.796779908287E+03   -0.12737E-04   -0.98057E-06 17850   0.877E-03    0.258E-02
DAV:  11    -0.796779930378E+03   -0.22091E-04   -0.11981E-05 20620   0.109E-02    0.222E-02
DAV:  12    -0.796779962876E+03   -0.32498E-04   -0.96263E-05 36270   0.259E-02    0.155E-02
DAV:  13    -0.796779979322E+03   -0.16446E-04   -0.47801E-05 24130   0.138E-02    0.123E-02
DAV:  14    -0.796779985107E+03   -0.57852E-05   -0.82624E-06 20550   0.897E-03
  10 F= -.79677999E+03 E0= -.79677999E+03  d E =0.120206E-01  mag=    47.0000
       N       E                     dE             d eps       ncg     rms          rms(c)
DAV:   1    -0.796458134704E+03    0.32184E+00   -0.32285E+01 35510   0.175E+01    0.197E+00
DAV:   2    -0.796752955476E+03   -0.29482E+00   -0.29906E+00 31650   0.323E+00    0.104E+00
DAV:   3    -0.796766999387E+03   -0.14044E-01   -0.56313E-02 39740   0.521E-01    0.566E-01
DAV:   4    -0.796766321173E+03    0.67821E-03   -0.45758E-03 44550   0.173E-01    0.363E-01
DAV:   5    -0.796766729382E+03   -0.40821E-03   -0.18954E-03 45600   0.133E-01    0.116E-01
DAV:   6    -0.796766896867E+03   -0.16748E-03   -0.62775E-04 42830   0.773E-02    0.782E-02
DAV:   7    -0.796766901362E+03   -0.44956E-05   -0.70319E-05 35850   0.342E-02
  11 F= -.79676690E+03 E0= -.79676690E+03  d E =0.130837E-01  mag=    47.0000
       N       E                     dE             d eps       ncg     rms          rms(c)
DAV:   1    -0.796629866220E+03    0.13703E+00   -0.14028E+01 35650   0.115E+01    0.128E+00
DAV:   2    -0.796753734593E+03   -0.12387E+00   -0.12575E+00 31590   0.210E+00    0.664E-01
DAV:   3    -0.796759710268E+03   -0.59757E-02   -0.23291E-02 38980   0.333E-01    0.365E-01
DAV:   4    -0.796759447110E+03    0.26316E-03   -0.19413E-03 43640   0.109E-01    0.230E-01
DAV:   5    -0.796759671113E+03   -0.22400E-03   -0.77045E-04 43600   0.827E-02    0.779E-02
DAV:   6    -0.796759750885E+03   -0.79771E-04   -0.25251E-04 42130   0.493E-02    0.542E-02
DAV:   7    -0.796759762490E+03   -0.11605E-04   -0.34207E-05 28070   0.240E-02    0.374E-02
DAV:   8    -0.796759785141E+03   -0.22652E-04   -0.24300E-05 22320   0.154E-02    0.278E-02
DAV:   9    -0.796759801153E+03   -0.16012E-04   -0.18055E-05 21350   0.947E-03    0.241E-02
DAV:  10    -0.796759813225E+03   -0.12072E-04   -0.63815E-06 17430   0.750E-03    0.217E-02
DAV:  11    -0.796759831447E+03   -0.18223E-04   -0.13723E-05 19820   0.107E-02    0.188E-02
DAV:  12    -0.796759853807E+03   -0.22360E-04   -0.74019E-05 34860   0.249E-02    0.133E-02
DAV:  13    -0.796759867684E+03   -0.13877E-04   -0.50927E-05 23330   0.133E-02    0.987E-03
DAV:  14    -0.796759871522E+03   -0.38371E-05   -0.55079E-06 18910   0.684E-03
  12 F= -.79675987E+03 E0= -.79675987E+03  d E =0.702984E-02  mag=    47.0000
       N       E                     dE             d eps       ncg     rms          rms(c)
DAV:   1    -0.796062736000E+03    0.69713E+00   -0.71218E+01 35540   0.261E+01    0.293E+00
DAV:   2    -0.796711534215E+03   -0.64880E+00   -0.65939E+00 31470   0.480E+00    0.151E+00
DAV:   3    -0.796742834367E+03   -0.31300E-01   -0.12376E-01 38810   0.764E-01    0.831E-01
DAV:   4    -0.796741422308E+03    0.14121E-02   -0.10063E-02 43580   0.242E-01    0.519E-01
DAV:   5    -0.796742386664E+03   -0.96436E-03   -0.37828E-03 43800   0.184E-01    0.166E-01
DAV:   6    -0.796742722585E+03   -0.33592E-03   -0.12416E-03 42920   0.106E-01    0.106E-01
DAV:   7    -0.796742725226E+03   -0.26415E-05   -0.14507E-04 41200   0.503E-02    0.599E-02
DAV:   8    -0.796742745889E+03   -0.20663E-04   -0.54444E-05 34040   0.263E-02    0.340E-02
DAV:   9    -0.796742763807E+03   -0.17918E-04   -0.30309E-05 23140   0.140E-02    0.272E-02
DAV:  10    -0.796742774350E+03   -0.10543E-04   -0.91355E-06 17880   0.906E-03    0.244E-02
DAV:  11    -0.796742786893E+03   -0.12544E-04   -0.68461E-06 17230   0.715E-03    0.218E-02
DAV:  12    -0.796742812532E+03   -0.25639E-04   -0.22223E-05 26480   0.174E-02    0.168E-02
DAV:  13    -0.796742831011E+03   -0.18479E-04   -0.77511E-05 31610   0.173E-02    0.125E-02
DAV:  14    -0.796742840777E+03   -0.97654E-05   -0.30885E-05 21590   0.111E-02
  13 F= -.79674284E+03 E0= -.79674284E+03  d E =0.170307E-01  mag=    47.0000
       N       E                     dE             d eps       ncg     rms          rms(c)
DAV:   1    -0.796685176587E+03    0.57654E-01   -0.61352E+00 35660   0.771E+00    0.874E-01
DAV:   2    -0.796742999769E+03   -0.57823E-01   -0.58827E-01 32820   0.144E+00    0.493E-01
DAV:   3    -0.796745862990E+03   -0.28632E-02   -0.12985E-02 39700   0.273E-01    0.263E-01
DAV:   4    -0.796745741876E+03    0.12111E-03   -0.10664E-03 43730   0.981E-02    0.187E-01
DAV:   5    -0.796745757696E+03   -0.15820E-04   -0.57847E-04 43350   0.738E-02    0.655E-02
DAV:   6    -0.796745806155E+03   -0.48458E-04   -0.16908E-04 42470   0.386E-02    0.386E-02
DAV:   7    -0.796745809218E+03   -0.30628E-05   -0.28324E-05 26560   0.162E-02
  14 F= -.79674581E+03 E0= -.79674581E+03  d E =-.296844E-02  mag=    47.0000
       N       E                     dE             d eps       ncg     rms          rms(c)
DAV:   1    -0.796727739476E+03    0.18067E-01   -0.17137E+00 35440   0.405E+00    0.453E-01
DAV:   2    -0.796743363430E+03   -0.15624E-01   -0.15887E-01 31760   0.746E-01    0.239E-01
DAV:   3    -0.796744121597E+03   -0.75817E-03   -0.30169E-03 39780   0.123E-01    0.131E-01
DAV:   4    -0.796744091668E+03    0.29929E-04   -0.25238E-04 44430   0.423E-02    0.854E-02
DAV:   5    -0.796744114421E+03   -0.22754E-04   -0.10596E-04 43670   0.322E-02    0.283E-02
DAV:   6    -0.796744123779E+03   -0.93577E-05   -0.29299E-05 25620   0.183E-02
  15 F= -.79674412E+03 E0= -.79674412E+03  d E =0.168544E-02  mag=    47.0000
       N       E                     dE             d eps       ncg     rms          rms(c)
DAV:   1    -0.795633027305E+03    0.11111E+01   -0.11419E+02 35600   0.331E+01    0.372E+00
DAV:   2    -0.796671357355E+03   -0.10383E+01   -0.10562E+01 31600   0.607E+00    0.198E+00
DAV:   3    -0.796721748902E+03   -0.50392E-01   -0.19925E-01 39860   0.101E+00    0.107E+00
DAV:   4    -0.796719559618E+03    0.21893E-02   -0.16925E-02 45420   0.352E-01    0.701E-01
DAV:   5    -0.796720832937E+03   -0.12733E-02   -0.71402E-03 45730   0.267E-01    0.229E-01
DAV:   6    -0.796721435124E+03   -0.60219E-03   -0.22880E-03 43010   0.146E-01    0.145E-01
DAV:   7    -0.796721438727E+03   -0.36029E-05   -0.25138E-04 40830   0.615E-02    0.746E-02
DAV:   8    -0.796721465644E+03   -0.26917E-04   -0.89304E-05 37530   0.322E-02    0.415E-02
DAV:   9    -0.796721489166E+03   -0.23522E-04   -0.43692E-05 28080   0.177E-02    0.327E-02
DAV:  10    -0.796721502622E+03   -0.13456E-04   -0.13934E-05 19380   0.114E-02    0.287E-02
DAV:  11    -0.796721518853E+03   -0.16231E-04   -0.93475E-06 18790   0.812E-03    0.255E-02
DAV:  12    -0.796721547498E+03   -0.28645E-04   -0.18822E-05 25440   0.151E-02    0.204E-02
DAV:  13    -0.796721572871E+03   -0.25373E-04   -0.85444E-05 35060   0.209E-02    0.140E-02
DAV:  14    -0.796721586423E+03   -0.13552E-04   -0.38087E-05 24420   0.130E-02    0.109E-02
DAV:  15    -0.796721591738E+03   -0.53159E-05   -0.11826E-05 21280   0.717E-03
  16 F= -.79672159E+03 E0= -.79672159E+03  d E =0.225320E-01  mag=    47.0000
       N       E                     dE             d eps       ncg     rms          rms(c)
DAV:   1    -0.796532779132E+03    0.18881E+00   -0.18822E+01 35650   0.137E+01    0.157E+00
DAV:   2    -0.796718390553E+03   -0.18561E+00   -0.19027E+00 33240   0.262E+00    0.996E-01
DAV:   3    -0.796727776735E+03   -0.93862E-02   -0.48718E-02 40040   0.554E-01    0.516E-01
DAV:   4    -0.796727296714E+03    0.48002E-03   -0.41700E-03 43420   0.203E-01    0.390E-01
DAV:   5    -0.796727221267E+03    0.75447E-04   -0.25841E-03 41420   0.146E-01    0.133E-01
DAV:   6    -0.796727390134E+03   -0.16887E-03   -0.63321E-04 40850   0.748E-02    0.786E-02
DAV:   7    -0.796727406434E+03   -0.16300E-04   -0.18104E-04 42230   0.330E-02    0.439E-02
DAV:   8    -0.796727414184E+03   -0.77495E-05   -0.18341E-05 23210   0.169E-02
  17 F= -.79672741E+03 E0= -.79672741E+03  d E =-.582245E-02  mag=    47.0000
       N       E                     dE             d eps       ncg     rms          rms(c)
DAV:   1    -0.796724052235E+03    0.33542E-02   -0.40402E-01 35740   0.235E+00    0.290E-01
DAV:   2    -0.796730143302E+03   -0.60911E-02   -0.66617E-02 34380   0.487E-01    0.214E-01
DAV:   3    -0.796730545534E+03   -0.40223E-03   -0.27877E-03 40830   0.126E-01    0.117E-01
DAV:   4    -0.796730498940E+03    0.46594E-04   -0.24939E-04 44350   0.442E-02    0.835E-02
DAV:   5    -0.796730481658E+03    0.17283E-04   -0.19754E-04 37940   0.365E-02    0.347E-02
DAV:   6    -0.796730483919E+03   -0.22615E-05   -0.25342E-05 25800   0.194E-02
  18 F= -.79673048E+03 E0= -.79673048E+03  d E =-.306974E-02  mag=    47.0000
       N       E                     dE             d eps       ncg     rms          rms(c)
DAV:   1    -0.796712384696E+03    0.18097E-01   -0.18214E+00 35630   0.419E+00    0.469E-01
DAV:   2    -0.796729125337E+03   -0.16741E-01   -0.17094E-01 32750   0.776E-01    0.254E-01
DAV:   3    -0.796729971687E+03   -0.84635E-03   -0.35546E-03 39250   0.138E-01    0.139E-01
DAV:   4    -0.796729935632E+03    0.36055E-04   -0.28740E-04 45300   0.465E-02    0.923E-02
DAV:   5    -0.796729950350E+03   -0.14718E-04   -0.14449E-04 43120   0.366E-02    0.322E-02
DAV:   6    -0.796729960822E+03   -0.10472E-04   -0.39190E-05 30220   0.208E-02    0.214E-02
DAV:   7    -0.796729961616E+03   -0.79420E-06   -0.97596E-06 17350   0.101E-02
  19 F= -.79672996E+03 E0= -.79672996E+03  d E =0.522303E-03  mag=    47.0000
       N       E                     dE             d eps       ncg     rms          rms(c)
DAV:   1    -0.796554877567E+03    0.17508E+00   -0.18266E+01 35690   0.132E+01    0.148E+00
DAV:   2    -0.796721361362E+03   -0.16648E+00   -0.16874E+00 31430   0.244E+00    0.748E-01
DAV:   3    -0.796729488233E+03   -0.81269E-02   -0.31518E-02 38570   0.386E-01    0.411E-01
DAV:   4    -0.796729171974E+03    0.31626E-03   -0.25678E-03 43450   0.121E-01    0.257E-01
DAV:   5    -0.796729434969E+03   -0.26300E-03   -0.92484E-04 43260   0.914E-02    0.817E-02
DAV:   6    -0.796729519061E+03   -0.84093E-04   -0.30445E-04 43200   0.536E-02    0.509E-02
DAV:   7    -0.796729516169E+03    0.28920E-05   -0.31414E-05 27400   0.264E-02
  20 F= -.79672952E+03 E0= -.79672952E+03  d E =0.445447E-03  mag=    47.0000
       N       E                     dE             d eps       ncg     rms          rms(c)
DAV:   1    -0.795214400018E+03    0.15151E+01   -0.15089E+02 35730   0.385E+01    0.436E+00
DAV:   2    -0.796648251988E+03   -0.14339E+01   -0.14551E+01 32200   0.716E+00    0.226E+00
DAV:   3    -0.796719281508E+03   -0.71030E-01   -0.29329E-01 39500   0.120E+00    0.124E+00
DAV:   4    -0.796716700022E+03    0.25815E-02   -0.22732E-02 45330   0.379E-01    0.796E-01
DAV:   5    -0.796718240409E+03   -0.15404E-02   -0.93389E-03 44130   0.303E-01    0.277E-01
DAV:   6    -0.796719067485E+03   -0.82708E-03   -0.33358E-03 43250   0.181E-01    0.167E-01
DAV:   7    -0.796719053851E+03    0.13634E-04   -0.51597E-04 42520   0.819E-02    0.860E-02
DAV:   8    -0.796719061997E+03   -0.81457E-05   -0.11493E-04 39980   0.380E-02    0.435E-02
DAV:   9    -0.796719078949E+03   -0.16953E-04   -0.56270E-05 33250   0.207E-02    0.283E-02
DAV:  10    -0.796719086491E+03   -0.75417E-05   -0.15193E-05 19290   0.121E-02
  21 F= -.79671909E+03 E0= -.79671909E+03  d E =0.104297E-01  mag=    47.0000
       N       E                     dE             d eps       ncg     rms          rms(c)
DAV:   1    -0.796662189264E+03    0.56890E-01   -0.58806E+00 35270   0.837E+00    0.991E-01
DAV:   2    -0.796735320157E+03   -0.73131E-01   -0.79029E-01 34000   0.169E+00    0.663E-01
DAV:   3    -0.796739971307E+03   -0.46511E-02   -0.30017E-02 40820   0.410E-01    0.382E-01
DAV:   4    -0.796739483848E+03    0.48746E-03   -0.25607E-03 43240   0.140E-01    0.256E-01
DAV:   5    -0.796739333996E+03    0.14985E-03   -0.19812E-03 38490   0.117E-01    0.114E-01
DAV:   6    -0.796739365171E+03   -0.31175E-04   -0.32787E-04 38810   0.655E-02    0.674E-02
DAV:   7    -0.796739377333E+03   -0.12161E-04   -0.18519E-04 42380   0.319E-02    0.392E-02
DAV:   8    -0.796739384144E+03   -0.68114E-05   -0.17829E-05 22730   0.139E-02
  22 F= -.79673938E+03 E0= -.79673938E+03  d E =-.202977E-01  mag=    47.0000
       N       E                     dE             d eps       ncg     rms          rms(c)
DAV:   1    -0.796734852554E+03    0.45248E-02   -0.49414E-01 35730   0.225E+00    0.257E-01
DAV:   2    -0.796739859936E+03   -0.50074E-02   -0.51173E-02 32980   0.425E-01    0.143E-01
DAV:   3    -0.796740120691E+03   -0.26076E-03   -0.12048E-03 40160   0.829E-02    0.790E-02
DAV:   4    -0.796740111273E+03    0.94189E-05   -0.97459E-05 38290   0.295E-02
  23 F= -.79674011E+03 E0= -.79674011E+03  d E =-.727129E-03  mag=    47.0000
       N       E                     dE             d eps       ncg     rms          rms(c)
DAV:   1    -0.796653572769E+03    0.86548E-01   -0.88849E+00 35710   0.938E+00    0.105E+00
DAV:   2    -0.796738202470E+03   -0.84630E-01   -0.85763E-01 31690   0.174E+00    0.548E-01
DAV:   3    -0.796742377995E+03   -0.41755E-02   -0.17042E-02 39770   0.299E-01    0.301E-01
DAV:   4    -0.796742270175E+03    0.10782E-03   -0.14113E-03 44410   0.108E-01    0.203E-01
DAV:   5    -0.796742363964E+03   -0.93789E-04   -0.63308E-04 45070   0.840E-02    0.702E-02
DAV:   6    -0.796742421719E+03   -0.57755E-04   -0.21208E-04 42980   0.462E-02    0.415E-02
DAV:   7    -0.796742421047E+03    0.67231E-06   -0.24299E-05 24310   0.191E-02
  24 F= -.79674242E+03 E0= -.79674242E+03  d E =-.230977E-02  mag=    47.0000
       N       E                     dE             d eps       ncg     rms          rms(c)
DAV:   1    -0.795747221156E+03    0.99520E+00   -0.10486E+02 35690   0.317E+01    0.355E+00
DAV:   2    -0.796705687730E+03   -0.95847E+00   -0.96903E+00 31380   0.587E+00    0.179E+00
DAV:   3    -0.796752715606E+03   -0.47028E-01   -0.18325E-01 38920   0.936E-01    0.978E-01
DAV:   4    -0.796751253009E+03    0.14626E-02   -0.14651E-02 44670   0.301E-01    0.626E-01
DAV:   5    -0.796752637169E+03   -0.13842E-02   -0.55515E-03 45500   0.237E-01    0.210E-01
DAV:   6    -0.796753172271E+03   -0.53510E-03   -0.19404E-03 43250   0.139E-01    0.127E-01
DAV:   7    -0.796753151561E+03    0.20710E-04   -0.23309E-04 42800   0.650E-02    0.631E-02
DAV:   8    -0.796753147888E+03    0.36732E-05   -0.66132E-05 32720   0.289E-02
  25 F= -.79675315E+03 E0= -.79675315E+03  d E =-.107268E-01  mag=    47.0000
       N       E                     dE             d eps       ncg     rms          rms(c)
DAV:   1    -0.796213383357E+03    0.53977E+00   -0.55336E+01 35570   0.231E+01    0.260E+00
DAV:   2    -0.796723705148E+03   -0.51032E+00   -0.52634E+00 33300   0.437E+00    0.161E+00
DAV:   3    -0.796751039455E+03   -0.27334E-01   -0.13835E-01 40320   0.935E-01    0.863E-01
DAV:   4    -0.796749622463E+03    0.14170E-02   -0.11774E-02 43120   0.337E-01    0.621E-01
DAV:   5    -0.796749516943E+03    0.10552E-03   -0.78483E-03 41780   0.250E-01    0.230E-01
DAV:   6    -0.796749992416E+03   -0.47547E-03   -0.18261E-03 41070   0.132E-01    0.138E-01
DAV:   7    -0.796750044478E+03   -0.52062E-04   -0.60367E-04 42540   0.603E-02    0.772E-02
DAV:   8    -0.796750072737E+03   -0.28259E-04   -0.70713E-05 34910   0.281E-02    0.503E-02
DAV:   9    -0.796750104453E+03   -0.31715E-04   -0.49938E-05 33660   0.213E-02    0.355E-02
DAV:  10    -0.796750121967E+03   -0.17514E-04   -0.22452E-05 22880   0.142E-02    0.285E-02
DAV:  11    -0.796750134267E+03   -0.12300E-04   -0.10770E-05 18780   0.922E-03    0.253E-02
DAV:  12    -0.796750153166E+03   -0.18899E-04   -0.11116E-05 20480   0.106E-02    0.213E-02
DAV:  13    -0.796750176142E+03   -0.22976E-04   -0.42345E-05 30750   0.166E-02    0.164E-02
DAV:  14    -0.796750188657E+03   -0.12515E-04   -0.28650E-05 24350   0.117E-02    0.130E-02
DAV:  15    -0.796750194879E+03   -0.62220E-05   -0.99780E-06 21500   0.873E-03
  26 F= -.79675019E+03 E0= -.79675019E+03  d E =0.295301E-02  mag=    47.0000
       N       E                     dE             d eps       ncg     rms          rms(c)
DAV:   1    -0.796729787158E+03    0.20401E-01   -0.24478E+00 35530   0.586E+00    0.729E-01
DAV:   2    -0.796768567980E+03   -0.38781E-01   -0.42435E-01 34610   0.121E+00    0.504E-01
DAV:   3    -0.796771233265E+03   -0.26653E-02   -0.17857E-02 41010   0.313E-01    0.286E-01
DAV:   4    -0.796770964447E+03    0.26882E-03   -0.15474E-03 43320   0.109E-01    0.195E-01
DAV:   5    -0.796770885051E+03    0.79396E-04   -0.11934E-03 38800   0.914E-02    0.893E-02
DAV:   6    -0.796770900066E+03   -0.15015E-04   -0.17896E-04 38080   0.504E-02    0.517E-02
DAV:   7    -0.796770909348E+03   -0.92824E-05   -0.10993E-04 40700   0.241E-02    0.315E-02
DAV:   8    -0.796770916697E+03   -0.73485E-05   -0.12446E-05 20080   0.113E-02
  27 F= -.79677092E+03 E0= -.79677092E+03  d E =-.207218E-01  mag=    47.0000
       N       E                     dE             d eps       ncg     rms          rms(c)
DAV:   1    -0.796753673447E+03    0.17236E-01   -0.15945E+00 35470   0.442E+00    0.531E-01
DAV:   2    -0.796774483849E+03   -0.20810E-01   -0.22027E-01 33840   0.885E-01    0.354E-01
DAV:   3    -0.796775770810E+03   -0.12870E-02   -0.79177E-03 41040   0.218E-01    0.194E-01
DAV:   4    -0.796775682327E+03    0.88483E-04   -0.68813E-04 43470   0.777E-02    0.138E-01
DAV:   5    -0.796775666312E+03    0.16015E-04   -0.49709E-04 39760   0.611E-02    0.605E-02
DAV:   6    -0.796775684205E+03   -0.17893E-04   -0.89464E-05 36710   0.332E-02    0.371E-02
DAV:   7    -0.796775691435E+03   -0.72302E-05   -0.48895E-05 30860   0.165E-02
  28 F= -.79677569E+03 E0= -.79677569E+03  d E =-.477474E-02  mag=    47.0000
       N       E                     dE             d eps       ncg     rms          rms(c)
DAV:   1    -0.796774135404E+03    0.15488E-02   -0.28883E-01 35640   0.164E+00    0.185E-01
DAV:   2    -0.796776699658E+03   -0.25643E-02   -0.25949E-02 32470   0.307E-01    0.110E-01
DAV:   3    -0.796776829914E+03   -0.13026E-03   -0.55059E-04 39530   0.595E-02    0.574E-02
DAV:   4    -0.796776828679E+03    0.12352E-05   -0.42964E-05 30330   0.228E-02
  29 F= -.79677683E+03 E0= -.79677683E+03  d E =-.113724E-02  mag=    47.0000
       N       E                     dE             d eps       ncg     rms          rms(c)
DAV:   1    -0.796594281841E+03    0.18255E+00   -0.21028E+01 35640   0.139E+01    0.155E+00
DAV:   2    -0.796776420338E+03   -0.18214E+00   -0.18425E+00 31790   0.257E+00    0.844E-01
DAV:   3    -0.796785270813E+03   -0.88505E-02   -0.36652E-02 40240   0.462E-01    0.447E-01
DAV:   4    -0.796785026805E+03    0.24401E-03   -0.31131E-03 43350   0.173E-01    0.322E-01
DAV:   5    -0.796785181655E+03   -0.15485E-03   -0.16147E-03 44130   0.130E-01    0.105E-01
DAV:   6    -0.796785354147E+03   -0.17249E-03   -0.51733E-04 42760   0.663E-02    0.641E-02
DAV:   7    -0.796785358951E+03   -0.48040E-05   -0.54138E-05 33900   0.271E-02
  30 F= -.79678536E+03 E0= -.79678536E+03  d E =-.853027E-02  mag=    47.0000
       N       E                     dE             d eps       ncg     rms          rms(c)
DAV:   1    -0.796540430606E+03    0.24492E+00   -0.25370E+01 35530   0.158E+01    0.179E+00
DAV:   2    -0.796782512394E+03   -0.24208E+00   -0.24455E+00 31780   0.293E+00    0.904E-01
DAV:   3    -0.796795095961E+03   -0.12584E-01   -0.48253E-02 39400   0.482E-01    0.492E-01
DAV:   4    -0.796794893298E+03    0.20266E-03   -0.35086E-03 44430   0.150E-01    0.322E-01
DAV:   5    -0.796795313547E+03   -0.42025E-03   -0.14541E-03 44630   0.119E-01    0.109E-01
DAV:   6    -0.796795482170E+03   -0.16862E-03   -0.50888E-04 43060   0.691E-02    0.706E-02
DAV:   7    -0.796795490541E+03   -0.83716E-05   -0.73932E-05 36240   0.331E-02
  31 F= -.79679549E+03 E0= -.79679549E+03  d E =-.101316E-01  mag=    47.0000
       N       E                     dE             d eps       ncg     rms          rms(c)
DAV:   1    -0.796335136187E+03    0.46035E+00   -0.30896E+01 35160   0.184E+01    0.226E+00
DAV:   2    -0.796719073939E+03   -0.38394E+00   -0.41950E+00 34600   0.387E+00    0.180E+00
DAV:   3    -0.796742921943E+03   -0.23848E-01   -0.17920E-01 40900   0.102E+00    0.952E-01
DAV:   4    -0.796740218643E+03    0.27033E-02   -0.16059E-02 42760   0.363E-01    0.722E-01
DAV:   5    -0.796739428595E+03    0.79005E-03   -0.13254E-02 39700   0.299E-01    0.298E-01
DAV:   6    -0.796739745751E+03   -0.31716E-03   -0.20117E-03 39340   0.154E-01    0.182E-01
DAV:   7    -0.796739914683E+03   -0.16893E-03   -0.13285E-03 39970   0.785E-02    0.118E-01
DAV:   8    -0.796740060313E+03   -0.14563E-03   -0.15177E-04 39980   0.405E-02    0.908E-02
DAV:   9    -0.796740210654E+03   -0.15034E-03   -0.12926E-04 39570   0.343E-02    0.709E-02
DAV:  10    -0.796740317867E+03   -0.10721E-03   -0.89064E-05 33440   0.252E-02    0.604E-02
DAV:  11    -0.796740414512E+03   -0.96645E-04   -0.68617E-05 33080   0.223E-02    0.519E-02
DAV:  12    -0.796740554451E+03   -0.13994E-03   -0.17545E-04 42130   0.400E-02    0.380E-02
DAV:  13    -0.796740637659E+03   -0.83208E-04   -0.22409E-04 39830   0.373E-02    0.282E-02
DAV:  14    -0.796740676813E+03   -0.39154E-04   -0.85454E-05 33280   0.212E-02    0.208E-02
DAV:  15    -0.796740692452E+03   -0.15638E-04   -0.28863E-05 21910   0.104E-02    0.157E-02
DAV:  16    -0.796740698415E+03   -0.59636E-05   -0.55345E-06 17590   0.569E-03
  32 F= -.79674070E+03 E0= -.79674070E+03  d E =0.547921E-01  mag=    47.0000
       N       E                     dE             d eps       ncg     rms          rms(c)
DAV:   1    -0.796101924185E+03    0.63877E+00   -0.42070E+01 35520   0.233E+01    0.300E+00
DAV:   2    -0.796742835373E+03   -0.64091E+00   -0.71692E+00 34720   0.492E+00    0.209E+00
DAV:   3    -0.796789597414E+03   -0.46762E-01   -0.32034E-01 40010   0.127E+00    0.121E+00
DAV:   4    -0.796784381366E+03    0.52160E-02   -0.26945E-02 44680   0.420E-01    0.797E-01
DAV:   5    -0.796783165845E+03    0.12155E-02   -0.19816E-02 38350   0.366E-01    0.370E-01
DAV:   6    -0.796783339695E+03   -0.17385E-03   -0.28379E-03 38660   0.206E-01    0.216E-01
DAV:   7    -0.796783516820E+03   -0.17712E-03   -0.18479E-03 42710   0.102E-01    0.132E-01
DAV:   8    -0.796783650577E+03   -0.13376E-03   -0.25011E-04 37980   0.474E-02    0.924E-02
DAV:   9    -0.796783770448E+03   -0.11987E-03   -0.13407E-04 38370   0.307E-02    0.607E-02
DAV:  10    -0.796783843418E+03   -0.72969E-04   -0.64755E-05 31950   0.217E-02    0.508E-02
DAV:  11    -0.796783891296E+03   -0.47878E-04   -0.34888E-05 26240   0.170E-02    0.448E-02
DAV:  12    -0.796783965244E+03   -0.73947E-04   -0.61639E-05 33480   0.234E-02    0.339E-02
DAV:  13    -0.796784029998E+03   -0.64754E-04   -0.14268E-04 37320   0.337E-02    0.241E-02
DAV:  14    -0.796784058633E+03   -0.28635E-04   -0.72234E-05 31300   0.182E-02    0.194E-02
DAV:  15    -0.796784069415E+03   -0.10782E-04   -0.16765E-05 19220   0.104E-02    0.127E-02
DAV:  16    -0.796784074508E+03   -0.50931E-05   -0.10408E-05 18440   0.686E-03
  33 F= -.79678407E+03 E0= -.79678407E+03  d E =-.433761E-01  mag=    47.0000
       N       E                     dE             d eps       ncg     rms          rms(c)
DAV:   1    -0.796755041631E+03    0.29028E-01   -0.29766E+00 35560   0.628E+00    0.815E-01
DAV:   2    -0.796804526783E+03   -0.49485E-01   -0.55141E-01 34800   0.134E+00    0.571E-01
DAV:   3    -0.796807980175E+03   -0.34534E-02   -0.24579E-02 40640   0.352E-01    0.331E-01
DAV:   4    -0.796807568323E+03    0.41185E-03   -0.21090E-03 43310   0.118E-01    0.221E-01
DAV:   5    -0.796807452834E+03    0.11549E-03   -0.16016E-03 38060   0.104E-01    0.102E-01
DAV:   6    -0.796807460670E+03   -0.78360E-05   -0.22064E-04 38060   0.572E-02    0.600E-02
DAV:   7    -0.796807470927E+03   -0.10257E-04   -0.14797E-04 41460   0.283E-02    0.354E-02
DAV:   8    -0.796807478952E+03   -0.80248E-05   -0.15625E-05 21250   0.127E-02
  34 F= -.79680748E+03 E0= -.79680748E+03  d E =-.234044E-01  mag=    47.0000
       N       E                     dE             d eps       ncg     rms          rms(c)
DAV:   1    -0.796785920230E+03    0.21551E-01   -0.15650E+00 35620   0.444E+00    0.549E-01
DAV:   2    -0.796808122805E+03   -0.22203E-01   -0.24149E-01 34610   0.916E-01    0.374E-01
DAV:   3    -0.796809587902E+03   -0.14651E-02   -0.98864E-03 40690   0.232E-01    0.214E-01
DAV:   4    -0.796809446613E+03    0.14129E-03   -0.84575E-04 43890   0.793E-02    0.146E-01
DAV:   5    -0.796809417682E+03    0.28930E-04   -0.62612E-04 38260   0.652E-02    0.656E-02
DAV:   6    -0.796809429600E+03   -0.11918E-04   -0.97124E-05 36920   0.365E-02    0.411E-02
DAV:   7    -0.796809437067E+03   -0.74666E-05   -0.61925E-05 32490   0.188E-02
  35 F= -.79680944E+03 E0= -.79680944E+03  d E =-.195811E-02  mag=    47.0000
       N       E                     dE             d eps       ncg     rms          rms(c)
DAV:   1    -0.796798507827E+03    0.10922E-01   -0.10911E+00 35680   0.328E+00    0.370E-01
DAV:   2    -0.796808890141E+03   -0.10382E-01   -0.10517E-01 32830   0.614E-01    0.228E-01
DAV:   3    -0.796809403518E+03   -0.51338E-03   -0.23114E-03 39880   0.123E-01    0.118E-01
DAV:   4    -0.796809393210E+03    0.10309E-04   -0.20502E-04 42540   0.472E-02    0.917E-02
DAV:   5    -0.796809402363E+03   -0.91535E-05   -0.11710E-04 42350   0.338E-02    0.306E-02
DAV:   6    -0.796809415493E+03   -0.13130E-04   -0.31275E-05 25610   0.167E-02    0.213E-02
DAV:   7    -0.796809417718E+03   -0.22245E-05   -0.80777E-06 17170   0.863E-03
  36 F= -.79680942E+03 E0= -.79680942E+03  d E =0.193489E-04  mag=    47.0000
       N       E                     dE             d eps       ncg     rms          rms(c)
DAV:   1    -0.796797382636E+03    0.12033E-01   -0.14762E+00 35630   0.372E+00    0.418E-01
DAV:   2    -0.796810739862E+03   -0.13357E-01   -0.13572E-01 32750   0.693E-01    0.235E-01
DAV:   3    -0.796811429808E+03   -0.68995E-03   -0.29453E-03 39820   0.130E-01    0.127E-01
DAV:   4    -0.796811410842E+03    0.18966E-04   -0.23736E-04 42800   0.459E-02    0.906E-02
DAV:   5    -0.796811427741E+03   -0.16898E-04   -0.13570E-04 43130   0.351E-02    0.339E-02
DAV:   6    -0.796811441931E+03   -0.14190E-04   -0.37231E-05 30000   0.193E-02    0.244E-02
DAV:   7    -0.796811444789E+03   -0.28582E-05   -0.10478E-05 17370   0.993E-03
  37 F= -.79681144E+03 E0= -.79681144E+03  d E =-.202707E-02  mag=    47.0000
       N       E                     dE             d eps       ncg     rms          rms(c)
DAV:   1    -0.796797981846E+03    0.13460E-01   -0.18073E+00 35540   0.395E+00    0.457E-01
DAV:   2    -0.796813597922E+03   -0.15616E-01   -0.15801E-01 32840   0.735E-01    0.267E-01
DAV:   3    -0.796814392496E+03   -0.79457E-03   -0.32467E-03 39900   0.140E-01    0.143E-01
DAV:   4    -0.796814383108E+03    0.93880E-05   -0.28474E-04 43080   0.550E-02    0.108E-01
DAV:   5    -0.796814421309E+03   -0.38201E-04   -0.17743E-04 43770   0.423E-02    0.440E-02
DAV:   6    -0.796814451291E+03   -0.29982E-04   -0.59905E-05 33460   0.223E-02    0.338E-02
DAV:   7    -0.796814462520E+03   -0.11229E-04   -0.12976E-05 18970   0.112E-02    0.272E-02
DAV:   8    -0.796814481636E+03   -0.19116E-04   -0.11022E-05 18320   0.107E-02    0.231E-02
DAV:   9    -0.796814497919E+03   -0.16284E-04   -0.21848E-05 24230   0.969E-03    0.193E-02
DAV:  10    -0.796814510214E+03   -0.12295E-04   -0.90840E-06 20150   0.886E-03    0.170E-02
DAV:  11    -0.796814522880E+03   -0.12666E-04   -0.18491E-05 24630   0.114E-02    0.134E-02
DAV:  12    -0.796814532224E+03   -0.93438E-05   -0.35712E-05 30200   0.166E-02
  38 F= -.79681453E+03 E0= -.79681453E+03  d E =-.308743E-02  mag=    47.0000
       N       E                     dE             d eps       ncg     rms          rms(c)
DAV:   1    -0.796790691269E+03    0.23832E-01   -0.22729E+00 35210   0.472E+00    0.561E-01
DAV:   2    -0.796814916112E+03   -0.24225E-01   -0.25156E-01 33320   0.935E-01    0.356E-01
DAV:   3    -0.796816201602E+03   -0.12855E-02   -0.73873E-03 39580   0.206E-01    0.203E-01
DAV:   4    -0.796816120171E+03    0.81431E-04   -0.62114E-04 44880   0.732E-02    0.143E-01
DAV:   5    -0.796816128863E+03   -0.86924E-05   -0.44963E-04 41620   0.592E-02    0.626E-02
DAV:   6    -0.796816158816E+03   -0.29952E-04   -0.10115E-04 37760   0.324E-02    0.428E-02
DAV:   7    -0.796816172398E+03   -0.13582E-04   -0.46094E-05 29480   0.170E-02    0.314E-02
DAV:   8    -0.796816187508E+03   -0.15110E-04   -0.95472E-06 18470   0.991E-03    0.267E-02
DAV:   9    -0.796816205163E+03   -0.17655E-04   -0.12575E-05 20650   0.966E-03    0.224E-02
DAV:  10    -0.796816218838E+03   -0.13675E-04   -0.12955E-05 20720   0.860E-03    0.196E-02
DAV:  11    -0.796816231523E+03   -0.12685E-04   -0.10142E-05 18980   0.927E-03    0.164E-02
DAV:  12    -0.796816246888E+03   -0.15365E-04   -0.33328E-05 30340   0.160E-02    0.118E-02
DAV:  13    -0.796816256119E+03   -0.92311E-05   -0.35960E-05 25860   0.119E-02
  39 F= -.79681626E+03 E0= -.79681626E+03  d E =-.172390E-02  mag=    47.0000
       N       E                     dE             d eps       ncg     rms          rms(c)
DAV:   1    -0.796802649657E+03    0.13597E-01   -0.15545E+00 35220   0.381E+00    0.441E-01
DAV:   2    -0.796817329444E+03   -0.14680E-01   -0.15093E-01 33140   0.723E-01    0.248E-01
DAV:   3    -0.796818135432E+03   -0.80599E-03   -0.36427E-03 38970   0.136E-01    0.140E-01
DAV:   4    -0.796818103054E+03    0.32378E-04   -0.27644E-04 44770   0.428E-02    0.924E-02
DAV:   5    -0.796818121924E+03   -0.18870E-04   -0.16303E-04 41310   0.364E-02    0.372E-02
DAV:   6    -0.796818136350E+03   -0.14426E-04   -0.42229E-05 32650   0.211E-02    0.268E-02
DAV:   7    -0.796818140728E+03   -0.43774E-05   -0.13759E-05 18070   0.111E-02
  40 F= -.79681814E+03 E0= -.79681814E+03  d E =-.188461E-02  mag=    47.0000
       N       E                     dE             d eps       ncg     rms          rms(c)
DAV:   1    -0.796790321175E+03    0.27815E-01   -0.30196E+00 35590   0.528E+00    0.601E-01
DAV:   2    -0.796817646659E+03   -0.27325E-01   -0.27697E-01 32260   0.977E-01    0.310E-01
DAV:   3    -0.796819038015E+03   -0.13914E-02   -0.53440E-03 39170   0.160E-01    0.171E-01
DAV:   4    -0.796819003190E+03    0.34825E-04   -0.43222E-04 44330   0.527E-02    0.112E-01
DAV:   5    -0.796819060064E+03   -0.56874E-04   -0.18221E-04 43470   0.420E-02    0.428E-02
DAV:   6    -0.796819085360E+03   -0.25296E-04   -0.65722E-05 36690   0.252E-02    0.314E-02
DAV:   7    -0.796819091452E+03   -0.60915E-05   -0.11574E-05 19170   0.126E-02
  41 F= -.79681909E+03 E0= -.79681909E+03  d E =-.950724E-03  mag=    47.0000
       N       E                     dE             d eps       ncg     rms          rms(c)
DAV:   1    -0.796750844200E+03    0.68241E-01   -0.69979E+00 35440   0.807E+00    0.921E-01
DAV:   2    -0.796816018712E+03   -0.65175E-01   -0.66214E-01 32350   0.151E+00    0.478E-01
DAV:   3    -0.796819326143E+03   -0.33074E-02   -0.13295E-02 39400   0.252E-01    0.264E-01
DAV:   4    -0.796819233162E+03    0.92981E-04   -0.10415E-03 44850   0.814E-02    0.173E-01
DAV:   5    -0.796819342990E+03   -0.10983E-03   -0.45354E-04 43030   0.654E-02    0.623E-02
DAV:   6    -0.796819395812E+03   -0.52821E-04   -0.15657E-04 41840   0.380E-02    0.452E-02
DAV:   7    -0.796819404161E+03   -0.83490E-05   -0.25547E-05 24740   0.188E-02
  42 F= -.79681940E+03 E0= -.79681940E+03  d E =-.312709E-03  mag=    47.0000
       N       E                     dE             d eps       ncg     rms          rms(c)
DAV:   1    -0.796743709537E+03    0.75686E-01   -0.74472E+00 35460   0.835E+00    0.966E-01
DAV:   2    -0.796815363329E+03   -0.71654E-01   -0.72545E-01 32320   0.156E+00    0.495E-01
DAV:   3    -0.796818954716E+03   -0.35914E-02   -0.14150E-02 39480   0.253E-01    0.273E-01
DAV:   4    -0.796818879016E+03    0.75700E-04   -0.10823E-03 44730   0.838E-02    0.180E-01
DAV:   5    -0.796819018464E+03   -0.13945E-03   -0.46742E-04 44790   0.689E-02    0.671E-02
DAV:   6    -0.796819081557E+03   -0.63093E-04   -0.17214E-04 41390   0.411E-02    0.488E-02
DAV:   7    -0.796819094802E+03   -0.13244E-04   -0.28492E-05 25980   0.204E-02    0.359E-02
DAV:   8    -0.796819121546E+03   -0.26745E-04   -0.23031E-05 23690   0.142E-02    0.285E-02
DAV:   9    -0.796819140962E+03   -0.19415E-04   -0.19176E-05 24360   0.102E-02    0.249E-02
DAV:  10    -0.796819155073E+03   -0.14112E-04   -0.83775E-06 19550   0.842E-03    0.220E-02
DAV:  11    -0.796819174761E+03   -0.19687E-04   -0.16586E-05 25290   0.125E-02    0.181E-02
DAV:  12    -0.796819193639E+03   -0.18878E-04   -0.77035E-05 35440   0.244E-02    0.117E-02
DAV:  13    -0.796819205466E+03   -0.11828E-04   -0.42546E-05 23530   0.121E-02    0.883E-03
DAV:  14    -0.796819207954E+03   -0.24874E-05   -0.37989E-06 17620   0.451E-03
  43 F= -.79681921E+03 E0= -.79681921E+03  d E =0.196207E-03  mag=    47.0000
       N       E                     dE             d eps       ncg     rms          rms(c)
DAV:   1    -0.796752047654E+03    0.67158E-01   -0.65641E+00 35640   0.789E+00    0.905E-01
DAV:   2    -0.796814850644E+03   -0.62803E-01   -0.63789E-01 32670   0.148E+00    0.486E-01
DAV:   3    -0.796817981085E+03   -0.31304E-02   -0.13158E-02 39780   0.260E-01    0.266E-01
DAV:   4    -0.796817878820E+03    0.10226E-03   -0.10419E-03 45060   0.877E-02    0.179E-01
DAV:   5    -0.796817960631E+03   -0.81812E-04   -0.50364E-04 44410   0.707E-02    0.661E-02
DAV:   6    -0.796818012882E+03   -0.52250E-04   -0.17087E-04 42170   0.412E-02    0.454E-02
DAV:   7    -0.796818021168E+03   -0.82867E-05   -0.29381E-05 26510   0.191E-02
  44 F= -.79681802E+03 E0= -.79681802E+03  d E =0.118679E-02  mag=    47.0000
       N       E                     dE             d eps       ncg     rms          rms(c)
DAV:   1    -0.796797228224E+03    0.20785E-01   -0.21245E+00 35470   0.446E+00    0.525E-01
DAV:   2    -0.796818117240E+03   -0.20889E-01   -0.21278E-01 32870   0.844E-01    0.297E-01
DAV:   3    -0.796819202053E+03   -0.10848E-02   -0.44591E-03 39690   0.153E-01    0.161E-01
DAV:   4    -0.796819160024E+03    0.42028E-04   -0.38234E-04 44670   0.578E-02    0.113E-01
DAV:   5    -0.796819181132E+03   -0.21108E-04   -0.20024E-04 44550   0.446E-02    0.391E-02
DAV:   6    -0.796819197917E+03   -0.16786E-04   -0.59355E-05 36270   0.246E-02    0.259E-02
DAV:   7    -0.796819199673E+03   -0.17561E-05   -0.10559E-05 17710   0.112E-02
  45 F= -.79681920E+03 E0= -.79681920E+03  d E =-.117851E-02  mag=    47.0000
       N       E                     dE             d eps       ncg     rms          rms(c)
DAV:   1    -0.796689394115E+03    0.12980E+00   -0.13019E+01 35360   0.107E+01    0.126E+00
DAV:   2    -0.796812577792E+03   -0.12318E+00   -0.12503E+00 32790   0.203E+00    0.673E-01
DAV:   3    -0.796818583900E+03   -0.60061E-02   -0.25186E-02 39790   0.346E-01    0.372E-01
DAV:   4    -0.796818388953E+03    0.19495E-03   -0.19631E-03 45070   0.117E-01    0.250E-01
DAV:   5    -0.796818577838E+03   -0.18888E-03   -0.96034E-04 44420   0.972E-02    0.934E-02
DAV:   6    -0.796818686611E+03   -0.10877E-03   -0.33975E-04 41360   0.568E-02    0.652E-02
DAV:   7    -0.796818707665E+03   -0.21054E-04   -0.59452E-05 34700   0.268E-02    0.458E-02
DAV:   8    -0.796818744836E+03   -0.37171E-04   -0.31358E-05 27070   0.171E-02    0.360E-02
DAV:   9    -0.796818776856E+03   -0.32020E-04   -0.28273E-05 27940   0.133E-02    0.308E-02
DAV:  10    -0.796818797194E+03   -0.20338E-04   -0.15492E-05 22070   0.104E-02    0.275E-02
DAV:  11    -0.796818823105E+03   -0.25910E-04   -0.19081E-05 24690   0.132E-02    0.225E-02
DAV:  12    -0.796818852618E+03   -0.29513E-04   -0.71997E-05 36150   0.256E-02    0.143E-02
DAV:  13    -0.796818869162E+03   -0.16544E-04   -0.67964E-05 27230   0.152E-02    0.106E-02
DAV:  14    -0.796818874490E+03   -0.53284E-05   -0.97962E-06 20260   0.673E-03
  46 F= -.79681887E+03 E0= -.79681887E+03  d E =0.325183E-03  mag=    47.0000
       N       E                     dE             d eps       ncg     rms          rms(c)
DAV:   1    -0.796726827509E+03    0.92042E-01   -0.89216E+00 35480   0.928E+00    0.108E+00
DAV:   2    -0.796814987728E+03   -0.88160E-01   -0.89237E-01 32430   0.174E+00    0.577E-01
DAV:   3    -0.796819413703E+03   -0.44260E-02   -0.17993E-02 39790   0.304E-01    0.309E-01
DAV:   4    -0.796819278337E+03    0.13537E-03   -0.13969E-03 45010   0.108E-01    0.214E-01
DAV:   5    -0.796819389390E+03   -0.11105E-03   -0.67784E-04 45250   0.853E-02    0.748E-02
DAV:   6    -0.796819459194E+03   -0.69805E-04   -0.23286E-04 42430   0.488E-02    0.497E-02
DAV:   7    -0.796819466314E+03   -0.71199E-05   -0.33702E-05 27740   0.213E-02
  47 F= -.79681947E+03 E0= -.79681947E+03  d E =-.591824E-03  mag=    47.0000
       N       E                     dE             d eps       ncg     rms          rms(c)
DAV:   1    -0.796770372249E+03    0.49087E-01   -0.50854E+00 35370   0.678E+00    0.784E-01
DAV:   2    -0.796817371473E+03   -0.46999E-01   -0.47870E-01 32680   0.127E+00    0.419E-01
DAV:   3    -0.796819735846E+03   -0.23644E-02   -0.97583E-03 39150   0.215E-01    0.230E-01
DAV:   4    -0.796819655770E+03    0.80077E-04   -0.76564E-04 45050   0.722E-02    0.152E-01
DAV:   5    -0.796819744434E+03   -0.88665E-04   -0.37250E-04 43460   0.587E-02    0.611E-02
DAV:   6    -0.796819790692E+03   -0.46258E-04   -0.13045E-04 41050   0.359E-02    0.447E-02
DAV:   7    -0.796819803177E+03   -0.12484E-04   -0.26024E-05 24380   0.177E-02    0.336E-02
DAV:   8    -0.796819825331E+03   -0.22154E-04   -0.17402E-05 21020   0.123E-02    0.273E-02
DAV:   9    -0.796819843698E+03   -0.18368E-04   -0.17000E-05 23400   0.961E-03    0.234E-02
DAV:  10    -0.796819858427E+03   -0.14729E-04   -0.94306E-06 20190   0.878E-03    0.206E-02
DAV:  11    -0.796819873290E+03   -0.14863E-04   -0.14271E-05 23350   0.100E-02    0.170E-02
DAV:  12    -0.796819889407E+03   -0.16117E-04   -0.42821E-05 31820   0.217E-02    0.109E-02
DAV:  13    -0.796819899877E+03   -0.10470E-04   -0.51518E-05 23990   0.122E-02    0.752E-03
DAV:  14    -0.796819902427E+03   -0.25497E-05   -0.42680E-06 17850   0.446E-03
  48 F= -.79681990E+03 E0= -.79681990E+03  d E =-.436113E-03  mag=    47.0000
       N       E                     dE             d eps       ncg     rms          rms(c)
DAV:   1    -0.796801932310E+03    0.17968E-01   -0.16758E+00 35740   0.412E+00    0.471E-01
DAV:   2    -0.796818805113E+03   -0.16873E-01   -0.17169E-01 32770   0.774E-01    0.255E-01
DAV:   3    -0.796819658103E+03   -0.85299E-03   -0.37454E-03 39300   0.141E-01    0.140E-01
DAV:   4    -0.796819627369E+03    0.30733E-04   -0.29955E-04 44380   0.481E-02    0.951E-02
DAV:   5    -0.796819641859E+03   -0.14490E-04   -0.14954E-04 42850   0.373E-02    0.343E-02
DAV:   6    -0.796819653810E+03   -0.11951E-04   -0.44565E-05 32240   0.224E-02    0.239E-02
DAV:   7    -0.796819655205E+03   -0.13955E-05   -0.11172E-05 17470   0.106E-02
  49 F= -.79681966E+03 E0= -.79681966E+03  d E =0.247221E-03  mag=    47.0000
       N       E                     dE             d eps       ncg     rms          rms(c)
DAV:   1    -0.796796139838E+03    0.23514E-01   -0.24502E+00 35610   0.485E+00    0.544E-01
DAV:   2    -0.796818755435E+03   -0.22616E-01   -0.22922E-01 31790   0.901E-01    0.277E-01
DAV:   3    -0.796819911374E+03   -0.11559E-02   -0.45215E-03 38910   0.148E-01    0.153E-01
DAV:   4    -0.796819877291E+03    0.34083E-04   -0.34527E-04 44560   0.453E-02    0.975E-02
DAV:   5    -0.796819912560E+03   -0.35269E-04   -0.13879E-04 42000   0.357E-02    0.319E-02
DAV:   6    -0.796819925847E+03   -0.13287E-04   -0.44761E-05 31630   0.211E-02    0.211E-02
DAV:   7    -0.796819926214E+03   -0.36696E-06   -0.82769E-06 17000   0.111E-02
  50 F= -.79681993E+03 E0= -.79681993E+03  d E =-.271009E-03  mag=    47.0000
       N       E                     dE             d eps       ncg     rms          rms(c)
DAV:   1    -0.795235657444E+03    0.15843E+01   -0.15743E+02 35640   0.388E+01    0.436E+00
DAV:   2    -0.796698932758E+03   -0.14633E+01   -0.14916E+01 32860   0.733E+00    0.262E+00
DAV:   3    -0.796768995692E+03   -0.70063E-01   -0.33306E-01 40100   0.144E+00    0.138E+00
DAV:   4    -0.796765749316E+03    0.32464E-02   -0.29827E-02 42320   0.556E-01    0.103E+00
DAV:   5    -0.796765395979E+03    0.35334E-03   -0.17267E-02 43900   0.399E-01    0.355E-01
DAV:   6    -0.796767002269E+03   -0.16063E-02   -0.51438E-03 42180   0.203E-01    0.215E-01
DAV:   7    -0.796767084037E+03   -0.81767E-04   -0.90812E-04 42170   0.857E-02    0.117E-01
DAV:   8    -0.796767164381E+03   -0.80345E-04   -0.17107E-04 41780   0.436E-02    0.804E-02
DAV:   9    -0.796767250157E+03   -0.85776E-04   -0.12112E-04 38840   0.316E-02    0.575E-02
DAV:  10    -0.796767295353E+03   -0.45195E-04   -0.53000E-05 28430   0.196E-02    0.498E-02
DAV:  11    -0.796767345692E+03   -0.50339E-04   -0.30164E-05 24710   0.158E-02    0.445E-02
DAV:  12    -0.796767421461E+03   -0.75769E-04   -0.48794E-05 34580   0.219E-02    0.369E-02
DAV:  13    -0.796767503674E+03   -0.82213E-04   -0.18862E-04 39440   0.358E-02    0.275E-02
DAV:  14    -0.796767549623E+03   -0.45949E-04   -0.11818E-04 35650   0.237E-02    0.239E-02
DAV:  15    -0.796767570299E+03   -0.20676E-04   -0.36376E-05 25360   0.144E-02    0.158E-02
DAV:  16    -0.796767580471E+03   -0.10171E-04   -0.21485E-05 23560   0.887E-03    0.127E-02
DAV:  17    -0.796767585191E+03   -0.47206E-05   -0.51339E-06 18030   0.508E-03
  51 F= -.79676759E+03 E0= -.79676759E+03  d E =0.523410E-01  mag=    47.0000
       N       E                     dE             d eps       ncg     rms          rms(c)
DAV:   1    -0.796572972493E+03    0.19461E+00   -0.16545E+01 35560   0.147E+01    0.179E+00
DAV:   2    -0.796802641453E+03   -0.22967E+00   -0.24612E+00 33640   0.294E+00    0.129E+00
DAV:   3    -0.796815844109E+03   -0.13203E-01   -0.88502E-02 40760   0.718E-01    0.704E-01
DAV:   4    -0.796814409061E+03    0.14350E-02   -0.89467E-03 43730   0.284E-01    0.539E-01
DAV:   5    -0.796813785993E+03    0.62307E-03   -0.64481E-03 38330   0.215E-01    0.198E-01
DAV:   6    -0.796813931693E+03   -0.14570E-03   -0.12412E-03 37150   0.120E-01    0.125E-01
DAV:   7    -0.796813971473E+03   -0.39780E-04   -0.57917E-04 41180   0.541E-02    0.701E-02
DAV:   8    -0.796813998416E+03   -0.26944E-04   -0.55809E-05 33160   0.237E-02    0.506E-02
DAV:   9    -0.796814031534E+03   -0.33118E-04   -0.41723E-05 31760   0.189E-02    0.352E-02
DAV:  10    -0.796814050815E+03   -0.19281E-04   -0.21606E-05 22450   0.136E-02    0.289E-02
DAV:  11    -0.796814065463E+03   -0.14649E-04   -0.11327E-05 19100   0.956E-03    0.248E-02
DAV:  12    -0.796814085739E+03   -0.20275E-04   -0.13697E-05 23840   0.111E-02    0.207E-02
DAV:  13    -0.796814107328E+03   -0.21589E-04   -0.36002E-05 29070   0.149E-02    0.158E-02
DAV:  14    -0.796814120616E+03   -0.13288E-04   -0.32300E-05 27800   0.131E-02    0.129E-02
DAV:  15    -0.796814127079E+03   -0.64623E-05   -0.14368E-05 20480   0.795E-03
  52 F= -.79681413E+03 E0= -.79681413E+03  d E =-.465419E-01  mag=    47.0000
       N       E                     dE             d eps       ncg     rms          rms(c)
DAV:   1    -0.796812340134E+03    0.17805E-02   -0.38479E-01 35300   0.211E+00    0.252E-01
DAV:   2    -0.796816964418E+03   -0.46243E-02   -0.48133E-02 33520   0.415E-01    0.181E-01
DAV:   3    -0.796817204771E+03   -0.24035E-03   -0.14613E-03 40370   0.995E-02    0.947E-02
DAV:   4    -0.796817187336E+03    0.17435E-04   -0.14565E-04 43110   0.405E-02    0.766E-02
DAV:   5    -0.796817180495E+03    0.68404E-05   -0.10795E-04 37580   0.292E-02    0.262E-02
DAV:   6    -0.796817185485E+03   -0.49902E-05   -0.22033E-05 25120   0.154E-02
  53 F= -.79681719E+03 E0= -.79681719E+03  d E =-.305841E-02  mag=    47.0000
       N       E                     dE             d eps       ncg     rms          rms(c)
DAV:   1    -0.796799906740E+03    0.17274E-01   -0.19139E+00 35200   0.435E+00    0.498E-01
DAV:   2    -0.796818760244E+03   -0.18854E-01   -0.19183E-01 33310   0.835E-01    0.365E-01
DAV:   3    -0.796819597871E+03   -0.83763E-03   -0.47192E-03 38260   0.189E-01    0.184E-01
DAV:   4    -0.796819561533E+03    0.36338E-04   -0.46337E-04 42370   0.782E-02    0.157E-01
DAV:   5    -0.796819552840E+03    0.86923E-05   -0.33349E-04 41820   0.546E-02    0.499E-02
DAV:   6    -0.796819582162E+03   -0.29322E-04   -0.89543E-05 36100   0.250E-02    0.318E-02
DAV:   7    -0.796819587620E+03   -0.54582E-05   -0.16053E-05 18660   0.112E-02
  54 F= -.79681959E+03 E0= -.79681959E+03  d E =-.240213E-02  mag=    47.0000
       N       E                     dE             d eps       ncg     rms          rms(c)
DAV:   1    -0.796818458322E+03    0.11238E-02   -0.17440E-01 35360   0.120E+00    0.132E-01
DAV:   2    -0.796819805222E+03   -0.13469E-02   -0.13618E-02 32850   0.223E-01    0.806E-02
DAV:   3    -0.796819867343E+03   -0.62120E-04   -0.27827E-04 38820   0.415E-02    0.457E-02
DAV:   4    -0.796819868311E+03   -0.96764E-06   -0.23859E-05 25190   0.167E-02
  55 F= -.79681987E+03 E0= -.79681987E+03  d E =-.280690E-03  mag=    47.0000
       N       E                     dE             d eps       ncg     rms          rms(c)
DAV:   1    -0.796813011963E+03    0.68554E-02   -0.98689E-01 35190   0.273E+00    0.292E-01
DAV:   2    -0.796819833109E+03   -0.68211E-02   -0.69554E-02 33050   0.508E-01    0.186E-01
DAV:   3    -0.796820099426E+03   -0.26632E-03   -0.14198E-03 39020   0.975E-02    0.103E-01
DAV:   4    -0.796820082977E+03    0.16450E-04   -0.14449E-04 41660   0.400E-02    0.809E-02
DAV:   5    -0.796820094752E+03   -0.11776E-04   -0.10721E-04 41450   0.313E-02    0.309E-02
DAV:   6    -0.796820110300E+03   -0.15547E-04   -0.33623E-05 25370   0.156E-02    0.252E-02
DAV:   7    -0.796820116189E+03   -0.58894E-05   -0.68506E-06 17130   0.765E-03
  56 F= -.79682012E+03 E0= -.79682012E+03  d E =-.247879E-03  mag=    47.0000
       N       E                     dE             d eps       ncg     rms          rms(c)
DAV:   1    -0.796819992203E+03    0.11810E-03   -0.32239E-02 34210   0.472E-01    0.539E-02
DAV:   2    -0.796820210785E+03   -0.21858E-03   -0.22337E-03 33390   0.939E-02    0.537E-02
DAV:   3    -0.796820217599E+03   -0.68145E-05   -0.63212E-05 32600   0.236E-02    0.287E-02
DAV:   4    -0.796820218563E+03   -0.96385E-06   -0.69611E-06 17830   0.994E-03
  57 F= -.79682022E+03 E0= -.79682022E+03  d E =-.102374E-03  mag=    47.0000
