       N       E                     dE             d eps       ncg     rms          rms(c)
DAV:   1     0.667965456638E+04    0.66797E+04   -0.19130E+05  5096   0.163E+03
DAV:   2     0.845767779480E+03   -0.58339E+04   -0.53667E+04  4816   0.520E+02
DAV:   3    -0.351210697239E+03   -0.11970E+04   -0.10432E+04  5056   0.241E+02
DAV:   4    -0.509457734359E+03   -0.15825E+03   -0.15397E+03  7544   0.888E+01
DAV:   5    -0.512752274812E+03   -0.32945E+01   -0.32619E+01  7416   0.187E+01    0.781E+01
RMM:   6    -0.452796300405E+03    0.59956E+02   -0.59522E+02  5333   0.622E+01    0.768E+01
RMM:   7    -0.455511316234E+03   -0.27150E+01   -0.68649E+01  6100   0.223E+01    0.602E+01
RMM:   8    -0.417290754449E+03    0.38221E+02   -0.21756E+01  5567   0.138E+01    0.327E+01
RMM:   9    -0.427127448042E+03   -0.98367E+01   -0.91949E+00  5555   0.778E+00    0.420E+01
RMM:  10    -0.416736470422E+03    0.10391E+02   -0.49161E+00  5747   0.574E+00    0.216E+01
RMM:  11    -0.419043809783E+03   -0.23073E+01   -0.32553E+00  5212   0.436E+00    0.153E+01
RMM:  12    -0.418941326852E+03    0.10248E+00   -0.13039E+00  5668   0.277E+00    0.128E+01
RMM:  13    -0.420183143706E+03   -0.12418E+01   -0.10508E+00  5296   0.244E+00    0.131E+01
RMM:  14    -0.420077798391E+03    0.10535E+00   -0.11574E+00  5606   0.257E+00    0.849E+00
RMM:  15    -0.420102410649E+03   -0.24612E-01   -0.58117E-01  5626   0.172E+00    0.458E+00
RMM:  16    -0.420101205491E+03    0.12052E-02   -0.30791E-01  5809   0.121E+00    0.337E+00
RMM:  17    -0.420133154243E+03   -0.31949E-01   -0.81138E-02  5962   0.647E-01    0.253E+00
RMM:  18    -0.420157187190E+03   -0.24033E-01   -0.59724E-02  5731   0.619E-01    0.265E+00
RMM:  19    -0.420140814229E+03    0.16373E-01   -0.37113E-02  5619   0.487E-01    0.141E+00
RMM:  20    -0.420145576012E+03   -0.47618E-02   -0.12779E-02  5699   0.288E-01    0.997E-01
RMM:  21    -0.420146970634E+03   -0.13946E-02   -0.11823E-02  5550   0.298E-01    0.997E-01
RMM:  22    -0.420146496488E+03    0.47415E-03   -0.32378E-03  5880   0.132E-01    0.361E-01
RMM:  23    -0.420147209329E+03   -0.71284E-03   -0.86611E-04  5469   0.790E-02    0.332E-01
RMM:  24    -0.420147742509E+03   -0.53318E-03   -0.42296E-04  5166   0.520E-02    0.235E-01
RMM:  25    -0.420147768718E+03   -0.26209E-04   -0.15643E-04  5023   0.330E-02    0.111E-01
RMM:  26    -0.420147786323E+03   -0.17605E-04   -0.74782E-05  4517   0.231E-02    0.437E-02
RMM:  27    -0.420147798243E+03   -0.11921E-04   -0.20308E-05  3221   0.134E-02    0.169E-02
RMM:  28    -0.420147802553E+03   -0.43101E-05   -0.99257E-06  2773   0.105E-02
   1 F= -.42014780E+03 E0= -.42013500E+03  d E =-.420148E+03  mag=    62.0004
       N       E                     dE             d eps       ncg     rms          rms(c)
DAV:   1    -0.415174773290E+03    0.49730E+01   -0.14220E+02  6512   0.109E+02    0.852E+00
RMM:   2    -0.420274595670E+03   -0.50998E+01   -0.48550E+01  7243   0.178E+01    0.619E+00
RMM:   3    -0.420527307288E+03   -0.25271E+00   -0.20080E+00  5901   0.404E+00    0.745E+00
RMM:   4    -0.420316082098E+03    0.21123E+00   -0.26154E-01  5871   0.136E+00    0.243E+00
RMM:   5    -0.420317103274E+03   -0.10212E-02   -0.47534E-02  5830   0.541E-01    0.174E+00
RMM:   6    -0.420307037550E+03    0.10066E-01   -0.18890E-02  5945   0.313E-01    0.803E-01
RMM:   7    -0.420304495542E+03    0.25420E-02   -0.15129E-02  5569   0.319E-01    0.483E-01
RMM:   8    -0.420303988651E+03    0.50689E-03   -0.57582E-03  6015   0.194E-01    0.416E-01
RMM:   9    -0.420303503567E+03    0.48508E-03   -0.94701E-04  6216   0.835E-02    0.142E-01
RMM:  10    -0.420303622358E+03   -0.11879E-03   -0.20849E-04  4995   0.404E-02    0.185E-01
RMM:  11    -0.420303554699E+03    0.67660E-04   -0.96721E-05  4569   0.281E-02    0.811E-02
RMM:  12    -0.420303557722E+03   -0.30235E-05   -0.46891E-05  4094   0.213E-02
   2 F= -.42030356E+03 E0= -.42029002E+03  d E =-.155755E+00  mag=    62.0000
       N       E                     dE             d eps       ncg     rms          rms(c)
DAV:   1    -0.419873025207E+03    0.43053E+00   -0.12051E+01  6448   0.343E+01    0.274E+00
RMM:   2    -0.420342378719E+03   -0.46935E+00   -0.44910E+00  7029   0.517E+00    0.146E+00
RMM:   3    -0.420377130159E+03   -0.34751E-01   -0.24885E-01  6099   0.155E+00    0.177E+00
RMM:   4    -0.420368275395E+03    0.88548E-02   -0.18396E-02  6009   0.341E-01    0.436E-01
RMM:   5    -0.420368380954E+03   -0.10556E-03   -0.32590E-03  5894   0.136E-01    0.282E-01
RMM:   6    -0.420368484453E+03   -0.10350E-03   -0.13037E-03  5557   0.977E-02    0.581E-01
RMM:   7    -0.420367832232E+03    0.65222E-03   -0.94460E-04  5455   0.857E-02    0.254E-01
RMM:   8    -0.420367767847E+03    0.64385E-04   -0.62013E-04  5603   0.683E-02    0.655E-02
RMM:   9    -0.420367768909E+03   -0.10625E-05   -0.77420E-05  4456   0.264E-02
   3 F= -.42036777E+03 E0= -.42035437E+03  d E =-.642112E-01  mag=    62.0000
       N       E                     dE             d eps       ncg     rms          rms(c)
DAV:   1    -0.420336632805E+03    0.31135E-01   -0.19905E+00  6024   0.109E+01    0.905E-01
RMM:   2    -0.420391538415E+03   -0.54906E-01   -0.51050E-01  7218   0.187E+00    0.955E-01
RMM:   3    -0.420396127999E+03   -0.45896E-02   -0.25396E-02  5854   0.454E-01    0.130E+00
RMM:   4    -0.420392000423E+03    0.41276E-02   -0.33325E-03  5619   0.177E-01    0.334E-01
RMM:   5    -0.420392235387E+03   -0.23496E-03   -0.54862E-04  5379   0.673E-02    0.162E-01
RMM:   6    -0.420392135055E+03    0.10033E-03   -0.24864E-04  5113   0.387E-02    0.857E-02
RMM:   7    -0.420392086120E+03    0.48935E-04   -0.28372E-04  5228   0.425E-02    0.744E-02
RMM:   8    -0.420392074207E+03    0.11913E-04   -0.85729E-05  4484   0.270E-02    0.716E-02
RMM:   9    -0.420392059930E+03    0.14277E-04   -0.17503E-05  3177   0.139E-02    0.189E-02
RMM:  10    -0.420392060818E+03   -0.88831E-06   -0.54584E-06  2769   0.979E-03
   4 F= -.42039206E+03 E0= -.42037856E+03  d E =-.242919E-01  mag=    62.0000
       N       E                     dE             d eps       ncg     rms          rms(c)
DAV:   1    -0.419943548491E+03    0.44851E+00   -0.30646E+01  5552   0.330E+01    0.273E+00
RMM:   2    -0.420490693526E+03   -0.54715E+00   -0.47824E+00  7290   0.621E+00    0.479E+00
RMM:   3    -0.420448415179E+03    0.42278E-01   -0.20213E-01  5796   0.126E+00    0.272E+00
RMM:   4    -0.420435884262E+03    0.12531E-01   -0.29816E-02  5922   0.523E-01    0.119E+00
RMM:   5    -0.420432988572E+03    0.28957E-02   -0.47225E-03  5775   0.195E-01    0.477E-01
RMM:   6    -0.420431501489E+03    0.14871E-02   -0.32865E-03  5562   0.122E-01    0.300E-01
RMM:   7    -0.420430794871E+03    0.70662E-03   -0.32825E-03  5520   0.143E-01    0.186E-01
RMM:   8    -0.420430703049E+03    0.91821E-04   -0.72166E-04  5953   0.698E-02    0.115E-01
RMM:   9    -0.420430685987E+03    0.17062E-04   -0.10634E-04  4604   0.307E-02    0.981E-02
RMM:  10    -0.420430664927E+03    0.21060E-04   -0.27491E-05  3408   0.174E-02    0.351E-02
RMM:  11    -0.420430665862E+03   -0.93546E-06   -0.12684E-05  3107   0.135E-02
   5 F= -.42043067E+03 E0= -.42041694E+03  d E =-.386050E-01  mag=    62.0000
       N       E                     dE             d eps       ncg     rms          rms(c)
DAV:   1    -0.420361229353E+03    0.69436E-01   -0.54250E+00  5360   0.123E+01    0.105E+00
RMM:   2    -0.420448866071E+03   -0.87637E-01   -0.75815E-01  7246   0.238E+00    0.235E+00
RMM:   3    -0.420438289194E+03    0.10577E-01   -0.33297E-02  5845   0.487E-01    0.117E+00
RMM:   4    -0.420437912179E+03    0.37701E-03   -0.55143E-03  5818   0.222E-01    0.715E-01
RMM:   5    -0.420436571792E+03    0.13404E-02   -0.11311E-03  5449   0.967E-02    0.218E-01
RMM:   6    -0.420436447547E+03    0.12425E-03   -0.65583E-04  5330   0.561E-02    0.121E-01
RMM:   7    -0.420436392963E+03    0.54584E-04   -0.46309E-04  5224   0.593E-02    0.865E-02
RMM:   8    -0.420436376579E+03    0.16385E-04   -0.12892E-04  4817   0.305E-02    0.504E-02
RMM:   9    -0.420436372655E+03    0.39241E-05   -0.15343E-05  3163   0.134E-02
   6 F= -.42043637E+03 E0= -.42042268E+03  d E =-.570679E-02  mag=    62.0000
       N       E                     dE             d eps       ncg     rms          rms(c)
DAV:   1    -0.420289231265E+03    0.14715E+00   -0.99430E+00  5568   0.183E+01    0.145E+00
RMM:   2    -0.420458791989E+03   -0.16956E+00   -0.15333E+00  7313   0.345E+00    0.265E+00
RMM:   3    -0.420450585637E+03    0.82064E-02   -0.59155E-02  5875   0.667E-01    0.168E+00
RMM:   4    -0.420446088748E+03    0.44969E-02   -0.97689E-03  5808   0.302E-01    0.790E-01
RMM:   5    -0.420444744654E+03    0.13441E-02   -0.18248E-03  5585   0.120E-01    0.332E-01
RMM:   6    -0.420444421416E+03    0.32324E-03   -0.11434E-03  5488   0.738E-02    0.175E-01
RMM:   7    -0.420444317826E+03    0.10359E-03   -0.87785E-04  5374   0.816E-02    0.129E-01
RMM:   8    -0.420444301032E+03    0.16795E-04   -0.26116E-04  5429   0.426E-02    0.107E-01
RMM:   9    -0.420444277585E+03    0.23447E-04   -0.35538E-05  3552   0.193E-02    0.647E-02
RMM:  10    -0.420444270386E+03    0.71986E-05   -0.12439E-05  3091   0.136E-02
   7 F= -.42044427E+03 E0= -.42043070E+03  d E =-.789773E-02  mag=    62.0000
       N       E                     dE             d eps       ncg     rms          rms(c)
DAV:   1    -0.420387502768E+03    0.56775E-01   -0.44434E+00  5544   0.124E+01    0.958E-01
RMM:   2    -0.420458957275E+03   -0.71455E-01   -0.66787E-01  7332   0.230E+00    0.129E+00
RMM:   3    -0.420460283052E+03   -0.13258E-02   -0.24558E-02  5867   0.434E-01    0.117E+00
RMM:   4    -0.420456648947E+03    0.36341E-02   -0.38100E-03  5642   0.192E-01    0.388E-01
RMM:   5    -0.420456589069E+03    0.59878E-04   -0.67310E-04  5426   0.717E-02    0.222E-01
RMM:   6    -0.420456383919E+03    0.20515E-03   -0.44409E-04  5135   0.467E-02    0.114E-01
RMM:   7    -0.420456320931E+03    0.62988E-04   -0.45557E-04  5275   0.586E-02    0.750E-02
RMM:   8    -0.420456306780E+03    0.14151E-04   -0.11169E-04  4704   0.281E-02    0.503E-02
RMM:   9    -0.420456303260E+03    0.35204E-05   -0.12332E-05  3055   0.127E-02
   8 F= -.42045630E+03 E0= -.42044286E+03  d E =-.120329E-01  mag=    62.0000
       N       E                     dE             d eps       ncg     rms          rms(c)
DAV:   1    -0.420296201321E+03    0.16011E+00   -0.13046E+01  5480   0.192E+01    0.145E+00
RMM:   2    -0.420474672258E+03   -0.17847E+00   -0.17013E+00  7286   0.368E+00    0.166E+00
RMM:   3    -0.420478090439E+03   -0.34182E-02   -0.59652E-02  5980   0.654E-01    0.153E+00
RMM:   4    -0.420469649575E+03    0.84409E-02   -0.86450E-03  5734   0.271E-01    0.313E-01
RMM:   5    -0.420469952517E+03   -0.30294E-03   -0.17473E-03  5848   0.977E-02    0.501E-01
RMM:   6    -0.420469062203E+03    0.89031E-03   -0.86241E-04  5593   0.705E-02    0.184E-01
RMM:   7    -0.420469036507E+03    0.25696E-04   -0.13527E-03  5450   0.889E-02    0.230E-01
RMM:   8    -0.420468924671E+03    0.11184E-03   -0.27800E-04  5187   0.463E-02    0.134E-01
RMM:   9    -0.420468888405E+03    0.36266E-04   -0.68700E-05  4175   0.249E-02    0.432E-02
RMM:  10    -0.420468888207E+03    0.19770E-06   -0.11319E-05  3072   0.122E-02
   9 F= -.42046889E+03 E0= -.42045565E+03  d E =-.125849E-01  mag=    62.0000
       N       E                     dE             d eps       ncg     rms          rms(c)
DAV:   1    -0.420408878131E+03    0.60010E-01   -0.48002E+00  5608   0.112E+01    0.868E-01
RMM:   2    -0.420472894163E+03   -0.64016E-01   -0.61747E-01  7266   0.211E+00    0.789E-01
RMM:   3    -0.420475448958E+03   -0.25548E-02   -0.19866E-02  6132   0.373E-01    0.903E-01
RMM:   4    -0.420472380066E+03    0.30689E-02   -0.28036E-03  5694   0.148E-01    0.162E-01
RMM:   5    -0.420472265915E+03    0.11415E-03   -0.68611E-04  5397   0.540E-02    0.120E-01
RMM:   6    -0.420472289372E+03   -0.23457E-04   -0.55748E-04  5202   0.612E-02    0.269E-01
RMM:   7    -0.420472102496E+03    0.18688E-03   -0.24169E-04  5202   0.410E-02    0.666E-02
RMM:   8    -0.420472129927E+03   -0.27431E-04   -0.45856E-05  3890   0.215E-02    0.730E-02
RMM:   9    -0.420472117082E+03    0.12845E-04   -0.11504E-05  3078   0.127E-02    0.143E-02
RMM:  10    -0.420472119567E+03   -0.24842E-05   -0.43002E-06  2775   0.779E-03
  10 F= -.42047212E+03 E0= -.42045895E+03  d E =-.323136E-02  mag=    62.0000
       N       E                     dE             d eps       ncg     rms          rms(c)
DAV:   1    -0.420355902851E+03    0.11621E+00   -0.63574E+00  5704   0.157E+01    0.123E+00
RMM:   2    -0.420476992112E+03   -0.12109E+00   -0.11498E+00  7309   0.287E+00    0.128E+00
RMM:   3    -0.420482077967E+03   -0.50859E-02   -0.42729E-02  5887   0.562E-01    0.135E+00
RMM:   4    -0.420476323087E+03    0.57549E-02   -0.61327E-03  5840   0.224E-01    0.400E-01
RMM:   5    -0.420476239042E+03    0.84044E-04   -0.99048E-04  5430   0.843E-02    0.265E-01
RMM:   6    -0.420475846984E+03    0.39206E-03   -0.64003E-04  5349   0.546E-02    0.143E-01
RMM:   7    -0.420475705011E+03    0.14197E-03   -0.80849E-04  5414   0.731E-02    0.959E-02
RMM:   8    -0.420475680299E+03    0.24712E-04   -0.15539E-04  5089   0.338E-02    0.613E-02
RMM:   9    -0.420475675690E+03    0.46092E-05   -0.18160E-05  3254   0.140E-02
  11 F= -.42047568E+03 E0= -.42046261E+03  d E =-.355612E-02  mag=    62.0000
       N       E                     dE             d eps       ncg     rms          rms(c)
DAV:   1    -0.420416401040E+03    0.59279E-01   -0.30175E+00  5880   0.120E+01    0.958E-01
RMM:   2    -0.420485947967E+03   -0.69547E-01   -0.63712E-01  7260   0.215E+00    0.144E+00
RMM:   3    -0.420486510953E+03   -0.56299E-03   -0.26697E-02  5776   0.478E-01    0.116E+00
RMM:   4    -0.420483593150E+03    0.29178E-02   -0.41522E-03  5744   0.195E-01    0.372E-01
RMM:   5    -0.420483339667E+03    0.25348E-03   -0.67466E-04  5329   0.734E-02    0.170E-01
RMM:   6    -0.420483165810E+03    0.17386E-03   -0.38859E-04  5189   0.414E-02    0.105E-01
RMM:   7    -0.420483111939E+03    0.53871E-04   -0.39995E-04  5151   0.559E-02    0.908E-02
RMM:   8    -0.420483107893E+03    0.40457E-05   -0.77144E-05  4359   0.256E-02
  12 F= -.42048311E+03 E0= -.42047008E+03  d E =-.743220E-02  mag=    62.0000
       N       E                     dE             d eps       ncg     rms          rms(c)
DAV:   1    -0.420384831028E+03    0.98281E-01   -0.60660E+00  5544   0.149E+01    0.129E+00
RMM:   2    -0.420507519891E+03   -0.12269E+00   -0.10821E+00  7278   0.280E+00    0.257E+00
RMM:   3    -0.420499094690E+03    0.84252E-02   -0.47318E-02  5718   0.605E-01    0.136E+00
RMM:   4    -0.420496506126E+03    0.25886E-02   -0.74474E-03  5818   0.260E-01    0.506E-01
RMM:   5    -0.420495689377E+03    0.81675E-03   -0.11807E-03  5489   0.950E-02    0.280E-01
RMM:   6    -0.420495269764E+03    0.41961E-03   -0.80006E-04  5428   0.570E-02    0.146E-01
RMM:   7    -0.420495191698E+03    0.78065E-04   -0.68366E-04  5111   0.746E-02    0.129E-01
RMM:   8    -0.420495163358E+03    0.28340E-04   -0.14406E-04  4828   0.333E-02    0.540E-02
RMM:   9    -0.420495156171E+03    0.71866E-05   -0.17436E-05  3210   0.147E-02
  13 F= -.42049516E+03 E0= -.42048219E+03  d E =-.120483E-01  mag=    62.0000
       N       E                     dE             d eps       ncg     rms          rms(c)
DAV:   1    -0.420456975669E+03    0.38188E-01   -0.30396E+00  5480   0.981E+00    0.876E-01
RMM:   2    -0.420512127585E+03   -0.55152E-01   -0.47529E-01  7242   0.186E+00    0.195E+00
RMM:   3    -0.420505506290E+03    0.66213E-02   -0.21914E-02  5775   0.405E-01    0.846E-01
RMM:   4    -0.420504954433E+03    0.55186E-03   -0.32786E-03  5767   0.174E-01    0.325E-01
RMM:   5    -0.420504570667E+03    0.38377E-03   -0.53666E-04  5359   0.628E-02    0.188E-01
RMM:   6    -0.420504362005E+03    0.20866E-03   -0.41143E-04  5106   0.412E-02    0.854E-02
RMM:   7    -0.420504348200E+03    0.13805E-04   -0.24182E-04  4843   0.483E-02    0.795E-02
RMM:   8    -0.420504354631E+03   -0.64306E-05   -0.52843E-05  4004   0.214E-02
  14 F= -.42050435E+03 E0= -.42049145E+03  d E =-.919846E-02  mag=    62.0000
       N       E                     dE             d eps       ncg     rms          rms(c)
DAV:   1    -0.420461343656E+03    0.43005E-01   -0.29456E+00  5664   0.107E+01    0.893E-01
RMM:   2    -0.420514841108E+03   -0.53497E-01   -0.48232E-01  7326   0.193E+00    0.149E+00
RMM:   3    -0.420513075566E+03    0.17655E-02   -0.20011E-02  5779   0.401E-01    0.938E-01
RMM:   4    -0.420511308573E+03    0.17670E-02   -0.31447E-03  5698   0.175E-01    0.374E-01
RMM:   5    -0.420511032039E+03    0.27653E-03   -0.53191E-04  5378   0.651E-02    0.227E-01
RMM:   6    -0.420510974102E+03    0.57937E-04   -0.22923E-04  4840   0.405E-02    0.207E-01
RMM:   7    -0.420510798245E+03    0.17586E-03   -0.36136E-04  5215   0.414E-02    0.778E-02
RMM:   8    -0.420510792227E+03    0.60185E-05   -0.17846E-04  4984   0.376E-02    0.557E-02
RMM:   9    -0.420510782673E+03    0.95538E-05   -0.30518E-05  3550   0.173E-02
  15 F= -.42051078E+03 E0= -.42049792E+03  d E =-.642804E-02  mag=    62.0000
       N       E                     dE             d eps       ncg     rms          rms(c)
DAV:   1    -0.420477935782E+03    0.32856E-01   -0.16707E+00  5696   0.903E+00    0.726E-01
RMM:   2    -0.420514772088E+03   -0.36836E-01   -0.34425E-01  7354   0.159E+00    0.833E-01
RMM:   3    -0.420516174530E+03   -0.14024E-02   -0.12950E-02  5829   0.318E-01    0.759E-01
RMM:   4    -0.420514432005E+03    0.17425E-02   -0.19185E-03  5569   0.138E-01    0.206E-01
RMM:   5    -0.420514418542E+03    0.13463E-04   -0.30870E-04  5344   0.476E-02    0.169E-01
RMM:   6    -0.420514373135E+03    0.45407E-04   -0.13323E-04  4723   0.309E-02    0.157E-01
RMM:   7    -0.420514280194E+03    0.92941E-04   -0.19131E-04  4988   0.316E-02    0.657E-02
RMM:   8    -0.420514270125E+03    0.10069E-04   -0.11323E-04  4624   0.295E-02    0.350E-02
RMM:   9    -0.420514265676E+03    0.44482E-05   -0.15011E-05  3100   0.130E-02
  16 F= -.42051427E+03 E0= -.42050142E+03  d E =-.348300E-02  mag=    62.0000
       N       E                     dE             d eps       ncg     rms          rms(c)
DAV:   1    -0.420468905594E+03    0.45365E-01   -0.21860E+00  5600   0.101E+01    0.792E-01
RMM:   2    -0.420517663749E+03   -0.48758E-01   -0.46363E-01  7316   0.183E+00    0.708E-01
RMM:   3    -0.420520088336E+03   -0.24246E-02   -0.17178E-02  5958   0.360E-01    0.747E-01
RMM:   4    -0.420518235468E+03    0.18529E-02   -0.21460E-03  5649   0.139E-01    0.266E-01
RMM:   5    -0.420518180153E+03    0.55314E-04   -0.34171E-04  5365   0.501E-02    0.173E-01
RMM:   6    -0.420518102779E+03    0.77375E-04   -0.16185E-04  4900   0.343E-02    0.136E-01
RMM:   7    -0.420518008577E+03    0.94201E-04   -0.23742E-04  5131   0.355E-02    0.786E-02
RMM:   8    -0.420517985233E+03    0.23344E-04   -0.15773E-04  4932   0.338E-02    0.354E-02
RMM:   9    -0.420517979443E+03    0.57903E-05   -0.16580E-05  3159   0.139E-02
  17 F= -.42051798E+03 E0= -.42050513E+03  d E =-.371377E-02  mag=    62.0000
       N       E                     dE             d eps       ncg     rms          rms(c)
DAV:   1    -0.420496534087E+03    0.21451E-01   -0.12117E+00  5528   0.708E+00    0.544E-01
RMM:   2    -0.420522023631E+03   -0.25490E-01   -0.24536E-01  7316   0.130E+00    0.354E-01
RMM:   3    -0.420523287833E+03   -0.12642E-02   -0.82391E-03  6188   0.244E-01    0.420E-01
RMM:   4    -0.420522695523E+03    0.59231E-03   -0.91148E-04  5552   0.844E-02    0.160E-01
RMM:   5    -0.420522682188E+03    0.13335E-04   -0.13870E-04  4706   0.334E-02    0.122E-01
RMM:   6    -0.420522627956E+03    0.54232E-04   -0.78532E-05  4358   0.231E-02    0.843E-02
RMM:   7    -0.420522601704E+03    0.26252E-04   -0.97789E-05  4511   0.249E-02    0.644E-02
RMM:   8    -0.420522583579E+03    0.18125E-04   -0.66656E-05  4254   0.221E-02    0.148E-02
RMM:   9    -0.420522583920E+03   -0.34102E-06   -0.64629E-06  2782   0.987E-03
  18 F= -.42052258E+03 E0= -.42050971E+03  d E =-.460448E-02  mag=    62.0000
       N       E                     dE             d eps       ncg     rms          rms(c)
DAV:   1    -0.420493831257E+03    0.28752E-01   -0.18247E+00  5624   0.854E+00    0.661E-01
RMM:   2    -0.420527634601E+03   -0.33803E-01   -0.32481E-01  7316   0.153E+00    0.417E-01
RMM:   3    -0.420529292079E+03   -0.16575E-02   -0.10738E-02  6257   0.286E-01    0.439E-01
RMM:   4    -0.420528603455E+03    0.68862E-03   -0.10945E-03  5623   0.911E-02    0.167E-01
RMM:   5    -0.420528598879E+03    0.45767E-05   -0.17585E-04  4879   0.364E-02    0.169E-01
RMM:   6    -0.420528503637E+03    0.95242E-04   -0.11801E-04  4652   0.281E-02    0.936E-02
RMM:   7    -0.420528483954E+03    0.19682E-04   -0.13805E-04  4867   0.300E-02    0.783E-02
RMM:   8    -0.420528454867E+03    0.29088E-04   -0.82827E-05  4433   0.246E-02    0.178E-02
RMM:   9    -0.420528455437E+03   -0.57014E-06   -0.78631E-06  2854   0.106E-02
  19 F= -.42052846E+03 E0= -.42051554E+03  d E =-.587152E-02  mag=    62.0000
       N       E                     dE             d eps       ncg     rms          rms(c)
DAV:   1    -0.420506184251E+03    0.22271E-01   -0.12129E+00  5576   0.736E+00    0.556E-01
RMM:   2    -0.420531919072E+03   -0.25735E-01   -0.24878E-01  7353   0.135E+00    0.351E-01
RMM:   3    -0.420533076482E+03   -0.11574E-02   -0.78841E-03  6221   0.236E-01    0.360E-01
RMM:   4    -0.420532572285E+03    0.50420E-03   -0.85118E-04  5613   0.813E-02    0.102E-01
RMM:   5    -0.420532579334E+03   -0.70489E-05   -0.13718E-04  4797   0.321E-02    0.158E-01
RMM:   6    -0.420532514296E+03    0.65038E-04   -0.68425E-05  4310   0.228E-02    0.955E-02
RMM:   7    -0.420532497896E+03    0.16400E-04   -0.99286E-05  4473   0.260E-02    0.659E-02
RMM:   8    -0.420532478320E+03    0.19576E-04   -0.57504E-05  4188   0.212E-02    0.144E-02
RMM:   9    -0.420532478951E+03   -0.63047E-06   -0.57672E-06  2758   0.900E-03
  20 F= -.42053248E+03 E0= -.42051953E+03  d E =-.402351E-02  mag=    62.0000
       N       E                     dE             d eps       ncg     rms          rms(c)
DAV:   1    -0.420510866813E+03    0.21612E-01   -0.13293E+00  5544   0.722E+00    0.545E-01
RMM:   2    -0.420535461768E+03   -0.24595E-01   -0.23740E-01  7352   0.133E+00    0.371E-01
RMM:   3    -0.420536441515E+03   -0.97975E-03   -0.74520E-03  6124   0.231E-01    0.366E-01
RMM:   4    -0.420535890938E+03    0.55058E-03   -0.85097E-04  5627   0.824E-02    0.113E-01
RMM:   5    -0.420535895985E+03   -0.50479E-05   -0.13565E-04  4765   0.315E-02    0.163E-01
RMM:   6    -0.420535820530E+03    0.75456E-04   -0.76867E-05  4340   0.239E-02    0.912E-02
RMM:   7    -0.420535794189E+03    0.26341E-04   -0.11817E-04  4581   0.263E-02    0.582E-02
RMM:   8    -0.420535778320E+03    0.15869E-04   -0.55524E-05  4171   0.212E-02    0.138E-02
RMM:   9    -0.420535778680E+03   -0.36079E-06   -0.56262E-06  2758   0.861E-03
  21 F= -.42053578E+03 E0= -.42052279E+03  d E =-.329973E-02  mag=    62.0000
       N       E                     dE             d eps       ncg     rms          rms(c)
DAV:   1    -0.420528182774E+03    0.75955E-02   -0.60017E-01  5400   0.446E+00    0.349E-01
RMM:   2    -0.420538265849E+03   -0.10083E-01   -0.96998E-02  7367   0.843E-01    0.269E-01
RMM:   3    -0.420538609014E+03   -0.34316E-03   -0.31120E-03  6013   0.146E-01    0.250E-01
RMM:   4    -0.420538345664E+03    0.26335E-03   -0.36483E-04  5453   0.551E-02    0.726E-02
RMM:   5    -0.420538346423E+03   -0.75874E-06   -0.55114E-05  3843   0.208E-02
  22 F= -.42053835E+03 E0= -.42052535E+03  d E =-.256774E-02  mag=    62.0000
       N       E                     dE             d eps       ncg     rms          rms(c)
DAV:   1    -0.420517545089E+03    0.20801E-01   -0.17033E+00  5336   0.705E+00    0.541E-01
RMM:   2    -0.420542636515E+03   -0.25091E-01   -0.24156E-01  7330   0.134E+00    0.468E-01
RMM:   3    -0.420543293886E+03   -0.65737E-03   -0.81092E-03  6073   0.230E-01    0.491E-01
RMM:   4    -0.420542695000E+03    0.59889E-03   -0.10332E-03  5670   0.905E-02    0.373E-01
RMM:   5    -0.420542428018E+03    0.26698E-03   -0.24406E-04  4790   0.482E-02    0.110E-01
RMM:   6    -0.420542379464E+03    0.48554E-04   -0.17873E-04  4858   0.328E-02    0.864E-02
RMM:   7    -0.420542332135E+03    0.47329E-04   -0.20923E-04  5067   0.338E-02    0.562E-02
RMM:   8    -0.420542318715E+03    0.13420E-04   -0.51258E-05  4075   0.216E-02    0.211E-02
RMM:   9    -0.420542318259E+03    0.45605E-06   -0.59190E-06  2763   0.917E-03
  23 F= -.42054232E+03 E0= -.42052930E+03  d E =-.397184E-02  mag=    62.0000
       N       E                     dE             d eps       ncg     rms          rms(c)
DAV:   1    -0.420535186429E+03    0.71323E-02   -0.55243E-01  5624   0.452E+00    0.340E-01
RMM:   2    -0.420544582942E+03   -0.93965E-02   -0.90868E-02  7362   0.823E-01    0.246E-01
RMM:   3    -0.420544948887E+03   -0.36595E-03   -0.28553E-03  6156   0.141E-01    0.225E-01
RMM:   4    -0.420544723459E+03    0.22543E-03   -0.33305E-04  5330   0.522E-02    0.617E-02
RMM:   5    -0.420544718392E+03    0.50673E-05   -0.57533E-05  3982   0.214E-02
  24 F= -.42054472E+03 E0= -.42053173E+03  d E =-.240013E-02  mag=    62.0000
       N       E                     dE             d eps       ncg     rms          rms(c)
DAV:   1    -0.420511304897E+03    0.33419E-01   -0.25602E+00  5480   0.887E+00    0.666E-01
RMM:   2    -0.420548422026E+03   -0.37117E-01   -0.35912E-01  7366   0.165E+00    0.514E-01
RMM:   3    -0.420549596337E+03   -0.11743E-02   -0.11058E-02  6198   0.274E-01    0.460E-01
RMM:   4    -0.420548630807E+03    0.96553E-03   -0.13142E-03  5656   0.101E-01    0.133E-01
RMM:   5    -0.420548599544E+03    0.31262E-04   -0.29501E-04  5304   0.418E-02    0.220E-01
RMM:   6    -0.420548500586E+03    0.98959E-04   -0.14467E-04  4788   0.323E-02    0.172E-01
RMM:   7    -0.420548432466E+03    0.68120E-04   -0.25424E-04  5083   0.378E-02    0.677E-02
RMM:   8    -0.420548415198E+03    0.17268E-04   -0.69536E-05  4326   0.246E-02    0.153E-02
RMM:   9    -0.420548415672E+03   -0.47423E-06   -0.64827E-06  2807   0.904E-03
  25 F= -.42054842E+03 E0= -.42053547E+03  d E =-.369728E-02  mag=    62.0000
       N       E                     dE             d eps       ncg     rms          rms(c)
DAV:   1    -0.420545165852E+03    0.32493E-02   -0.29538E-01  5576   0.303E+00    0.233E-01
RMM:   2    -0.420549761896E+03   -0.45960E-02   -0.44544E-02  7358   0.563E-01    0.168E-01
RMM:   3    -0.420549942361E+03   -0.18046E-03   -0.13708E-03  5986   0.968E-02    0.171E-01
RMM:   4    -0.420549843186E+03    0.99175E-04   -0.17503E-04  4828   0.388E-02    0.111E-01
RMM:   5    -0.420549824659E+03    0.18528E-04   -0.27756E-05  3395   0.178E-02    0.490E-02
RMM:   6    -0.420549813032E+03    0.11626E-04   -0.18284E-05  3020   0.141E-02    0.290E-02
RMM:   7    -0.420549809150E+03    0.38820E-05   -0.31744E-05  3648   0.149E-02
  26 F= -.42054981E+03 E0= -.42053689E+03  d E =-.139348E-02  mag=    62.0000
       N       E                     dE             d eps       ncg     rms          rms(c)
DAV:   1    -0.420508730012E+03    0.41083E-01   -0.30195E+00  5352   0.919E+00    0.709E-01
RMM:   2    -0.420552961677E+03   -0.44232E-01   -0.42956E-01  7337   0.174E+00    0.491E-01
RMM:   3    -0.420554719685E+03   -0.17580E-02   -0.13629E-02  6181   0.295E-01    0.645E-01
RMM:   4    -0.420553706340E+03    0.10133E-02   -0.16949E-03  5652   0.115E-01    0.434E-01
RMM:   5    -0.420553390331E+03    0.31601E-03   -0.40095E-04  4948   0.621E-02    0.125E-01
RMM:   6    -0.420553309296E+03    0.81035E-04   -0.20615E-04  4978   0.352E-02    0.893E-02
RMM:   7    -0.420553254970E+03    0.54326E-04   -0.28446E-04  5271   0.384E-02    0.685E-02
RMM:   8    -0.420553228183E+03    0.26787E-04   -0.76498E-05  4457   0.262E-02    0.247E-02
RMM:   9    -0.420553227724E+03    0.45854E-06   -0.74831E-06  2844   0.975E-03
  27 F= -.42055323E+03 E0= -.42054043E+03  d E =-.341857E-02  mag=    62.0000
       N       E                     dE             d eps       ncg     rms          rms(c)
DAV:   1    -0.420549546844E+03    0.36813E-02   -0.32301E-01  5496   0.310E+00    0.249E-01
RMM:   2    -0.420554314667E+03   -0.47678E-02   -0.46014E-02  7333   0.581E-01    0.152E-01
RMM:   3    -0.420554542209E+03   -0.22754E-03   -0.13609E-03  6007   0.972E-02    0.224E-01
RMM:   4    -0.420554415280E+03    0.12693E-03   -0.17249E-04  4953   0.395E-02    0.134E-01
RMM:   5    -0.420554388656E+03    0.26623E-04   -0.38013E-05  3618   0.220E-02    0.390E-02
RMM:   6    -0.420554378048E+03    0.10608E-04   -0.20340E-05  3071   0.135E-02    0.255E-02
RMM:   7    -0.420554375309E+03    0.27393E-05   -0.38590E-05  3877   0.154E-02
  28 F= -.42055438E+03 E0= -.42054162E+03  d E =-.114758E-02  mag=    62.0000
       N       E                     dE             d eps       ncg     rms          rms(c)
DAV:   1    -0.420501418476E+03    0.52960E-01   -0.43036E+00  5376   0.106E+01    0.839E-01
RMM:   2    -0.420555886996E+03   -0.54469E-01   -0.52606E-01  7310   0.198E+00    0.535E-01
RMM:   3    -0.420558928979E+03   -0.30420E-02   -0.15940E-02  6189   0.334E-01    0.976E-01
RMM:   4    -0.420556666413E+03    0.22626E-02   -0.22598E-03  5705   0.139E-01    0.408E-01
RMM:   5    -0.420556545041E+03    0.12137E-03   -0.55564E-04  4989   0.745E-02    0.132E-01
RMM:   6    -0.420556379014E+03    0.16603E-03   -0.29999E-04  4928   0.402E-02    0.854E-02
RMM:   7    -0.420556328707E+03    0.50308E-04   -0.39121E-04  5230   0.468E-02    0.563E-02
RMM:   8    -0.420556312646E+03    0.16060E-04   -0.49810E-05  3947   0.228E-02    0.272E-02
RMM:   9    -0.420556311896E+03    0.75003E-06   -0.78628E-06  2835   0.104E-02
  29 F= -.42055631E+03 E0= -.42054374E+03  d E =-.193659E-02  mag=    62.0000
       N       E                     dE             d eps       ncg     rms          rms(c)
DAV:   1    -0.420555606853E+03    0.70579E-03   -0.58638E-02  5968   0.159E+00    0.132E-01
RMM:   2    -0.420556742441E+03   -0.11356E-02   -0.10809E-02  7251   0.277E-01    0.872E-02
RMM:   3    -0.420556864912E+03   -0.12247E-03   -0.41539E-04  5460   0.577E-02    0.216E-01
RMM:   4    -0.420556763570E+03    0.10134E-03   -0.58427E-05  3985   0.256E-02    0.427E-02
RMM:   5    -0.420556778658E+03   -0.15088E-04   -0.13616E-05  3059   0.148E-02    0.178E-02
RMM:   6    -0.420556776868E+03    0.17900E-05   -0.71025E-06  2708   0.872E-03
  30 F= -.42055678E+03 E0= -.42054425E+03  d E =-.464971E-03  mag=    62.0000
       N       E                     dE             d eps       ncg     rms          rms(c)
DAV:   1    -0.420528878930E+03    0.27900E-01   -0.12924E+00  5852   0.775E+00    0.638E-01
RMM:   2    -0.420555396940E+03   -0.26518E-01   -0.25338E-01  7242   0.134E+00    0.372E-01
RMM:   3    -0.420557106177E+03   -0.17092E-02   -0.10138E-02  6199   0.287E-01    0.533E-01
RMM:   4    -0.420556388393E+03    0.71778E-03   -0.99253E-04  5600   0.854E-02    0.259E-01
RMM:   5    -0.420556324286E+03    0.64107E-04   -0.21461E-04  4667   0.462E-02    0.964E-02
RMM:   6    -0.420556255348E+03    0.68937E-04   -0.14962E-04  4554   0.267E-02    0.583E-02
RMM:   7    -0.420556228444E+03    0.26904E-04   -0.16269E-04  4895   0.345E-02    0.337E-02
RMM:   8    -0.420556223428E+03    0.50162E-05   -0.27069E-05  3483   0.158E-02
  31 F= -.42055622E+03 E0= -.42054390E+03  d E =0.553440E-03  mag=    62.0000
       N       E                     dE             d eps       ncg     rms          rms(c)
DAV:   1    -0.420549915575E+03    0.63129E-02   -0.58959E-01  5328   0.368E+00    0.272E-01
RMM:   2    -0.420556890438E+03   -0.69749E-02   -0.68139E-02  7289   0.706E-01    0.153E-01
RMM:   3    -0.420557158617E+03   -0.26818E-03   -0.19871E-03  6350   0.113E-01    0.242E-01
RMM:   4    -0.420557007742E+03    0.15088E-03   -0.21573E-04  5059   0.415E-02    0.124E-01
RMM:   5    -0.420556989923E+03    0.17819E-04   -0.46227E-05  3818   0.235E-02    0.533E-02
RMM:   6    -0.420556965067E+03    0.24855E-04   -0.30750E-05  3456   0.152E-02    0.321E-02
RMM:   7    -0.420556956396E+03    0.86713E-05   -0.62664E-05  4191   0.196E-02
  32 F= -.42055696E+03 E0= -.42054466E+03  d E =-.732968E-03  mag=    62.0000
       N       E                     dE             d eps       ncg     rms          rms(c)
DAV:   1    -0.420240718650E+03    0.31625E+00   -0.24674E+01  5328   0.244E+01    0.179E+00
RMM:   2    -0.420550238861E+03   -0.30952E+00   -0.30331E+00  7324   0.470E+00    0.886E-01
RMM:   3    -0.420560944478E+03   -0.10706E-01   -0.84056E-02  6737   0.701E-01    0.153E+00
RMM:   4    -0.420555681970E+03    0.52625E-02   -0.73548E-03  5930   0.226E-01    0.425E-01
RMM:   5    -0.420555459282E+03    0.22269E-03   -0.17240E-03  5387   0.113E-01    0.287E-01
RMM:   6    -0.420554970698E+03    0.48858E-03   -0.14394E-03  5643   0.899E-02    0.316E-01
RMM:   7    -0.420554399420E+03    0.57128E-03   -0.21474E-03  5484   0.110E-01    0.114E-01
RMM:   8    -0.420554357816E+03    0.41604E-04   -0.24147E-04  5279   0.447E-02    0.591E-02
RMM:   9    -0.420554356486E+03    0.13302E-05   -0.30036E-05  3526   0.181E-02
  33 F= -.42055436E+03 E0= -.42054210E+03  d E =0.259991E-02  mag=    62.0000
       N       E                     dE             d eps       ncg     rms          rms(c)
DAV:   1    -0.420398776453E+03    0.15558E+00   -0.12691E+01  5224   0.172E+01    0.127E+00
RMM:   2    -0.420555927676E+03   -0.15715E+00   -0.15368E+00  7297   0.333E+00    0.701E-01
RMM:   3    -0.420561422551E+03   -0.54949E-02   -0.45795E-02  6570   0.520E-01    0.103E+00
RMM:   4    -0.420558846926E+03    0.25756E-02   -0.43910E-03  5857   0.177E-01    0.609E-01
RMM:   5    -0.420558297430E+03    0.54950E-03   -0.10015E-03  5173   0.969E-02    0.250E-01
RMM:   6    -0.420557765831E+03    0.53160E-03   -0.65442E-04  5157   0.587E-02    0.149E-01
RMM:   7    -0.420557530668E+03    0.23516E-03   -0.12389E-03  5371   0.890E-02    0.911E-02
RMM:   8    -0.420557496049E+03    0.34620E-04   -0.18605E-04  5307   0.334E-02    0.357E-02
RMM:   9    -0.420557490408E+03    0.56402E-05   -0.13387E-05  3160   0.128E-02
  34 F= -.42055749E+03 E0= -.42054523E+03  d E =-.313392E-02  mag=    62.0000
       N       E                     dE             d eps       ncg     rms          rms(c)
DAV:   1    -0.420546503478E+03    0.10993E-01   -0.86700E-01  5192   0.443E+00    0.326E-01
RMM:   2    -0.420556951504E+03   -0.10448E-01   -0.10232E-01  7304   0.864E-01    0.162E-01
RMM:   3    -0.420557251236E+03   -0.29973E-03   -0.29210E-03  6658   0.128E-01    0.166E-01
RMM:   4    -0.420557171659E+03    0.79577E-04   -0.23912E-04  5039   0.403E-02    0.128E-01
RMM:   5    -0.420557141545E+03    0.30114E-04   -0.47175E-05  3810   0.225E-02    0.792E-02
RMM:   6    -0.420557105167E+03    0.36377E-04   -0.41639E-05  3903   0.180E-02    0.423E-02
RMM:   7    -0.420557093550E+03    0.11617E-04   -0.92862E-05  4382   0.237E-02    0.275E-02
RMM:   8    -0.420557090162E+03    0.33882E-05   -0.11459E-05  2923   0.114E-02
  35 F= -.42055709E+03 E0= -.42054483E+03  d E =0.400246E-03  mag=    62.0000
       N       E                     dE             d eps       ncg     rms          rms(c)
DAV:   1    -0.420526431567E+03    0.30662E-01   -0.23737E+00  5240   0.739E+00    0.545E-01
RMM:   2    -0.420555180105E+03   -0.28749E-01   -0.28069E-01  7300   0.143E+00    0.299E-01
RMM:   3    -0.420556379525E+03   -0.11994E-02   -0.84687E-03  6489   0.224E-01    0.555E-01
RMM:   4    -0.420555654355E+03    0.72517E-03   -0.81584E-04  5563   0.795E-02    0.207E-01
RMM:   5    -0.420555653482E+03    0.87314E-06   -0.19438E-04  4702   0.445E-02    0.107E-01
RMM:   6    -0.420555549864E+03    0.10362E-03   -0.11593E-04  4438   0.258E-02    0.668E-02
RMM:   7    -0.420555506385E+03    0.43478E-04   -0.24659E-04  5012   0.375E-02    0.230E-02
RMM:   8    -0.420555503950E+03    0.24354E-05   -0.17163E-05  3118   0.143E-02
  36 F= -.42055550E+03 E0= -.42054319E+03  d E =0.158621E-02  mag=    62.0000
       N       E                     dE             d eps       ncg     rms          rms(c)
DAV:   1    -0.420553332867E+03    0.21735E-02   -0.21615E-01  5224   0.211E+00    0.159E-01
RMM:   2    -0.420555585135E+03   -0.22523E-02   -0.21968E-02  7201   0.408E-01    0.112E-01
RMM:   3    -0.420555644291E+03   -0.59156E-04   -0.75424E-04  5911   0.709E-02    0.116E-01
RMM:   4    -0.420555582051E+03    0.62239E-04   -0.82459E-05  4159   0.276E-02    0.363E-02
RMM:   5    -0.420555582947E+03   -0.89594E-06   -0.13625E-05  3034   0.132E-02
  37 F= -.42055558E+03 E0= -.42054332E+03  d E =-.789974E-04  mag=    62.0000
       N       E                     dE             d eps       ncg     rms          rms(c)
DAV:   1    -0.420488355766E+03    0.67226E-01   -0.29088E+00  5624   0.111E+01    0.829E-01
RMM:   2    -0.420549230491E+03   -0.60875E-01   -0.58323E-01  7263   0.203E+00    0.688E-01
RMM:   3    -0.420552857108E+03   -0.36266E-02   -0.24183E-02  6007   0.438E-01    0.106E+00
RMM:   4    -0.420550309032E+03    0.25481E-02   -0.30055E-03  5757   0.155E-01    0.491E-01
RMM:   5    -0.420550040045E+03    0.26899E-03   -0.67431E-04  5040   0.800E-02    0.139E-01
RMM:   6    -0.420549913612E+03    0.12643E-03   -0.31504E-04  5112   0.408E-02    0.919E-02
RMM:   7    -0.420549872125E+03    0.41488E-04   -0.32754E-04  5090   0.520E-02    0.680E-02
RMM:   8    -0.420549850670E+03    0.21454E-04   -0.88200E-05  4537   0.261E-02    0.274E-02
RMM:   9    -0.420549849729E+03    0.94152E-06   -0.82734E-06  2862   0.106E-02
  38 F= -.42054985E+03 E0= -.42053782E+03  d E =0.573322E-02  mag=    62.0000
       N       E                     dE             d eps       ncg     rms          rms(c)
DAV:   1    -0.420516359908E+03    0.33491E-01   -0.24649E+00  5480   0.858E+00    0.657E-01
RMM:   2    -0.420554033183E+03   -0.37673E-01   -0.36201E-01  7323   0.163E+00    0.590E-01
RMM:   3    -0.420555567626E+03   -0.15344E-02   -0.12386E-02  6035   0.293E-01    0.850E-01
RMM:   4    -0.420554130412E+03    0.14372E-02   -0.19144E-03  5626   0.125E-01    0.502E-01
RMM:   5    -0.420553718982E+03    0.41143E-03   -0.51936E-04  4872   0.719E-02    0.107E-01
RMM:   6    -0.420553660887E+03    0.58095E-04   -0.22867E-04  4921   0.353E-02    0.764E-02
RMM:   7    -0.420553631066E+03    0.29821E-04   -0.23433E-04  5033   0.400E-02    0.720E-02
RMM:   8    -0.420553613032E+03    0.18034E-04   -0.59138E-05  4187   0.227E-02    0.364E-02
RMM:   9    -0.420553611283E+03    0.17490E-05   -0.70078E-06  2832   0.984E-03
  39 F= -.42055361E+03 E0= -.42054134E+03  d E =-.376155E-02  mag=    62.0000
