       N       E                     dE             d eps       ncg     rms          ort
DAV:   1     0.826904821681E+04    0.82690E+04   -0.24680E+05  8424   0.238E+03
DAV:   2     0.919318356641E+03   -0.73497E+04   -0.68982E+04  8424   0.657E+02
DAV:   3    -0.673214158001E+03   -0.15925E+04   -0.14003E+04  8424   0.282E+02
DAV:   4    -0.829420960064E+03   -0.15621E+03   -0.15344E+03  8424   0.860E+01
DAV:   5    -0.831910636456E+03   -0.24897E+01   -0.24792E+01  8424   0.121E+01
SDA:   6    -0.216749448044E+03    0.61516E+03   -0.24792E+01  8424   0.548E+04 0.000E+00
CGA:   7    -0.408690662144E+03   -0.19194E+03   -0.42555E+03  8424   0.548E+04-0.108E+04
CGA:   8    -0.534290948758E+03   -0.12560E+03   -0.22052E+03  8424   0.196E+04-0.169E+04
CGA:   9    -0.560181990472E+03   -0.25891E+02   -0.49857E+02  8424   0.171E+04-0.110E+04
CGA:  10    -0.555138948700E+03    0.50430E+01   -0.80232E+02  8424   0.121E+04-0.650E+03
CGA:  11    -0.575837331280E+03   -0.20698E+02   -0.23068E+02  8424   0.479E+04 0.441E+03
CGA:  12    -0.512803740032E+03    0.63034E+02   -0.27497E+03  8424   0.143E+04-0.205E+04
CGA:  13    -0.575192793690E+03   -0.62389E+02   -0.19577E+02  8424   0.979E+03 0.508E+03
CGA:  14    -0.610824116132E+03   -0.35631E+02   -0.59163E+02  8424   0.628E+03-0.340E+03
CGA:  15    -0.636268969812E+03   -0.25445E+02   -0.20043E+02  8424   0.384E+03 0.524E+02
CGA:  16    -0.640630764320E+03   -0.43618E+01   -0.14553E+02  8424   0.259E+03 0.171E+01
CGA:  17    -0.646998159100E+03   -0.63674E+01   -0.53498E+01  8424   0.417E+03-0.588E+03
CGA:  18    -0.638087107813E+03    0.89111E+01   -0.20034E+02  8424   0.319E+03-0.141E+03
CGA:  19    -0.657017211993E+03   -0.18930E+02   -0.40665E+01  8424   0.709E+02-0.430E+02
CGA:  20    -0.657586983870E+03   -0.56977E+00   -0.20442E+01  8424   0.160E+03-0.234E+02
CGA:  21    -0.657049427046E+03    0.53756E+00   -0.28172E+01  8424   0.130E+03-0.981E+02
CGA:  22    -0.660792751732E+03   -0.37433E+01   -0.56199E+01  8424   0.621E+02-0.654E+02
CGA:  23    -0.661833620159E+03   -0.10409E+01   -0.19564E+01  8424   0.483E+02-0.337E+02
CGA:  24    -0.661944751475E+03   -0.11113E+00   -0.22864E+01  8424   0.219E+02-0.110E+02
CGA:  25    -0.662824610132E+03   -0.87986E+00   -0.38265E+00  8424   0.173E+02 0.211E+02
CGA:  26    -0.663271600378E+03   -0.44699E+00   -0.34071E+00  8424   0.304E+01 0.209E+01
CGA:  27    -0.663690798175E+03   -0.41920E+00   -0.40570E+00  8424   0.128E+02 0.324E+00
CGA:  28    -0.664078068306E+03   -0.38727E+00   -0.31197E+00  8424   0.681E+01-0.313E+01
CGA:  29    -0.663991290291E+03    0.86778E-01   -0.19908E+00  8424   0.826E+01-0.137E+01
CGA:  30    -0.664493159821E+03   -0.50187E+00   -0.35551E+00  8424   0.310E+01 0.740E-01
CGA:  31    -0.664620389522E+03   -0.12723E+00   -0.14356E+00  8424   0.368E+01-0.307E+00
CGA:  32    -0.664754746584E+03   -0.13436E+00   -0.14872E+00  8424   0.300E+01-0.131E+00
CGA:  33    -0.664923680257E+03   -0.16893E+00   -0.17244E+00  8424   0.376E+01 0.367E-02
CGA:  34    -0.665090242584E+03   -0.16656E+00   -0.15773E+00  8424   0.280E+01-0.138E+00
CGA:  35    -0.665217256475E+03   -0.12701E+00   -0.14338E+00  8424   0.157E+01 0.223E-01
CGA:  36    -0.665317783644E+03   -0.10053E+00   -0.10517E+00  8424   0.965E+00 0.107E+00
CGA:  37    -0.665463046141E+03   -0.14526E+00   -0.13714E+00  8424   0.588E+00 0.119E+00
CGA:  38    -0.665594346078E+03   -0.13130E+00   -0.12959E+00  8424   0.558E+00 0.133E-01
CGA:  39    -0.665694230722E+03   -0.99885E-01   -0.10898E+00  8424   0.549E+00-0.852E-01
CGA:  40    -0.665781594160E+03   -0.87363E-01   -0.12355E+00  8424   0.452E+00-0.198E+00
CGA:  41    -0.665822390028E+03   -0.40796E-01   -0.73897E-01  8424   0.449E+00-0.214E+00
CGA:  42    -0.665857911915E+03   -0.35522E-01   -0.44726E-01  8424   0.458E+00-0.105E+00
CGA:  43    -0.665919172624E+03   -0.61261E-01   -0.67953E-01  8424   0.324E+00-0.787E-01
CGA:  44    -0.665979184498E+03   -0.60012E-01   -0.70022E-01  8424   0.363E+00-0.653E-01
CGA:  45    -0.666043387575E+03   -0.64203E-01   -0.77704E-01  8424   0.281E+00-0.849E-01
CGA:  46    -0.666081257104E+03   -0.37870E-01   -0.39766E-01  8424   0.203E+00-0.319E-01
CGA:  47    -0.666118909931E+03   -0.37653E-01   -0.38310E-01  8424   0.183E+00-0.954E-02
CGA:  48    -0.666152927021E+03   -0.34017E-01   -0.36502E-01  8424   0.182E+00-0.261E-01
CGA:  49    -0.666179548068E+03   -0.26621E-01   -0.26772E-01  8424   0.130E+00-0.794E-02
CGA:  50    -0.666210685073E+03   -0.31137E-01   -0.34032E-01  8424   0.117E+00-0.217E-01
CGA:  51    -0.666235605110E+03   -0.24920E-01   -0.44827E-01  8424   0.274E+00-0.707E-01
CGA:  52    -0.666279589772E+03   -0.43985E-01   -0.44090E-01  8424   0.139E+00 0.807E-02
CGA:  53    -0.666319732873E+03   -0.40143E-01   -0.41676E-01  8424   0.135E+00-0.109E-01
CGA:  54    -0.666360974054E+03   -0.41241E-01   -0.46921E-01  8424   0.110E+00-0.292E-01
CGA:  55    -0.666392806731E+03   -0.31833E-01   -0.44360E-01  8424   0.126E+00-0.356E-01
CGA:  56    -0.666414071345E+03   -0.21265E-01   -0.25594E-01  8424   0.133E+00-0.411E-01
CGA:  57    -0.666438835135E+03   -0.24764E-01   -0.31326E-01  8424   0.122E+00-0.441E-01
CGA:  58    -0.666457782513E+03   -0.18947E-01   -0.19533E-01  8424   0.635E-01-0.204E-01
CGA:  59    -0.666472465991E+03   -0.14683E-01   -0.15143E-01  8424   0.521E-01-0.587E-02
CGA:  60    -0.666486997781E+03   -0.14532E-01   -0.15076E-01  8424   0.358E-01-0.521E-02
CGA:  61    -0.666496126288E+03   -0.91285E-02   -0.91293E-02  8424   0.264E-01-0.526E-04
CGA:  62    -0.666503030702E+03   -0.69044E-02   -0.67698E-02  8424   0.149E-01 0.419E-02
CGA:  63    -0.666507913871E+03   -0.48832E-02   -0.47614E-02  8424   0.108E-01 0.236E-02
CGA:  64    -0.666512064992E+03   -0.41511E-02   -0.41100E-02  8424   0.891E-02 0.350E-03
CGA:  65    -0.666514355996E+03   -0.22910E-02   -0.22650E-02  8424   0.516E-02 0.200E-02
CGA:  66    -0.666515853466E+03   -0.14975E-02   -0.14924E-02  8424   0.379E-02 0.204E-02
CGA:  67    -0.666517402378E+03   -0.15489E-02   -0.15066E-02  8424   0.217E-02 0.824E-03
CGA:  68    -0.666518564734E+03   -0.11624E-02   -0.12793E-02  8424   0.369E-02-0.495E-03
CGA:  69    -0.666519243289E+03   -0.67856E-03   -0.67867E-03  8424   0.337E-02-0.354E-04
CGA:  70    -0.666520310582E+03   -0.10673E-02   -0.11292E-02  8424   0.535E-02-0.769E-03
CGA:  71    -0.666519922697E+03    0.38788E-03   -0.26719E-02  8424   0.191E-01-0.811E-02
CGA:  72    -0.666524420962E+03   -0.44983E-02   -0.45195E-02  8424   0.618E-02 0.610E-03
CGA:  73    -0.666526684644E+03   -0.22637E-02   -0.22467E-02  8424   0.392E-02 0.199E-03
CGA:  74    -0.666527924738E+03   -0.12401E-02   -0.12197E-02  8424   0.134E-02 0.755E-03
CGA:  75    -0.666527581952E+03    0.34279E-03   -0.19867E-02  8424   0.116E-01-0.244E-02
CGA:  76    -0.666529722145E+03   -0.21402E-02   -0.21677E-02  8424   0.131E-02 0.206E-03
CGA:  77    -0.666529857300E+03   -0.13516E-03   -0.11354E-02  8424   0.579E-02-0.188E-02
CGA:  78    -0.666531154384E+03   -0.12971E-02   -0.12773E-02  8424   0.811E-03-0.162E-03
CGA:  79    -0.666531438219E+03   -0.28384E-03   -0.38470E-03  8424   0.143E-02-0.673E-03
CGA:  80    -0.666531765186E+03   -0.32697E-03   -0.30541E-03  8424   0.344E-03-0.163E-03
CGA:  81    -0.666532040055E+03   -0.27487E-03    0.15681E-03  8424   0.195E-03 0.871E-04
CGA:  82    -0.666532374892E+03   -0.33484E-03    0.40377E-04  8424   0.192E-03 0.204E-03
CGA:  83    -0.666532560422E+03   -0.18553E-03    0.76792E-04  8424   0.197E-03 0.714E-04
CGA:  84    -0.666532930085E+03   -0.36966E-03    0.44638E-04  8424   0.166E-03 0.234E-03
CGA:  85    -0.666533114258E+03   -0.18417E-03    0.44013E-04  8424   0.149E-03 0.977E-04
CGA:  86    -0.666533284109E+03   -0.16985E-03    0.37305E-04  8424   0.169E-03 0.839E-04
CGA:  87    -0.666533449918E+03   -0.16581E-03    0.64152E-04  8424   0.213E-03 0.522E-04
CGA:  88    -0.666533848914E+03   -0.39900E-03    0.42499E-04  8424   0.173E-03 0.273E-03
CGA:  89    -0.666534005577E+03   -0.15666E-03    0.86009E-04  8424   0.227E-03 0.385E-04
CGA:  90    -0.666534399008E+03   -0.39343E-03    0.42865E-04  8424   0.190E-03 0.272E-03
CGA:  91    -0.666534567408E+03   -0.16840E-03    0.10314E-03  8424   0.258E-03 0.101E-04
CGA:  92    -0.666534967785E+03   -0.40038E-03    0.39141E-04  8424   0.242E-03 0.266E-03
CGA:  93    -0.666534885536E+03    0.82249E-04   -0.21409E-03  8424   0.343E-02-0.547E-03
CGA:  94    -0.666535480880E+03   -0.59534E-03   -0.54901E-03  8424   0.160E-03-0.227E-03
CGA:  95    -0.666535674660E+03   -0.19378E-03    0.32329E-04  8424   0.143E-03 0.877E-04
CGA:  96    -0.666535824331E+03   -0.14967E-03    0.53219E-04  8424   0.196E-03 0.570E-04
CGA:  97    -0.666536250521E+03   -0.42619E-03    0.41111E-04  8424   0.137E-03 0.261E-03
CGA:  98    -0.666536440654E+03   -0.19013E-03    0.25648E-04  8424   0.165E-03 0.693E-04
CGA:  99    -0.666536572266E+03   -0.13161E-03    0.23752E-03  8424   0.268E-03 0.135E-04
CGA: 100    -0.666537036950E+03   -0.46468E-03    0.41160E-04  8424   0.232E-03 0.277E-03
CGA: 101    -0.666537237817E+03   -0.20087E-03    0.19072E-03  8424   0.419E-03-0.841E-04
CGA: 102    -0.666537697528E+03   -0.45971E-03    0.33517E-04  8424   0.628E-03 0.208E-03
CGA: 103    -0.666538505514E+03   -0.80799E-03    0.79890E-03  8424   0.102E-02 0.553E-04
CGA: 104    -0.666540178914E+03   -0.16734E-02    0.17630E-03  8424   0.110E-02 0.724E-03
CGA: 105    -0.666540506172E+03   -0.32726E-03   -0.27464E-03  8424   0.570E-03-0.501E-03
CGA: 106    -0.666540746652E+03   -0.24048E-03    0.49529E-03  8424   0.359E-03 0.425E-04
CGA: 107    -0.666541103358E+03   -0.35671E-03    0.21310E-03  8424   0.217E-03 0.980E-04
CGA: 108    -0.666541538947E+03   -0.43559E-03    0.38642E-04  8424   0.260E-03 0.150E-03
CGA: 109    -0.666541636190E+03   -0.97242E-04   -0.12302E-03  8424   0.786E-03-0.210E-03
CGA: 110    -0.666541896701E+03   -0.26051E-03   -0.21700E-03  8424   0.767E-03-0.541E-03
CGA: 111    -0.666542003591E+03   -0.10689E-03   -0.11269E-03  8424   0.113E-03 0.278E-04
CGA: 112    -0.666542198969E+03   -0.19538E-03    0.13946E-04  8424   0.129E-03 0.111E-03
CGA: 113    -0.666542406596E+03   -0.20763E-03    0.16298E-04  8424   0.170E-03 0.611E-04
CGA: 114    -0.666542821276E+03   -0.41468E-03    0.30069E-04  8424   0.122E-03 0.240E-03
CGA: 115    -0.666542973302E+03   -0.15203E-03    0.25581E-04  8424   0.139E-03 0.766E-04
CGA: 116    -0.666543191736E+03   -0.21843E-03    0.18206E-04  8424   0.188E-03 0.478E-04
CGA: 117    -0.666543616323E+03   -0.42459E-03    0.29720E-04  8424   0.144E-03 0.243E-03
CGA: 118    -0.666543754380E+03   -0.13806E-03    0.60840E-04  8424   0.171E-03 0.506E-04
CGA: 119    -0.666544172078E+03   -0.41770E-03    0.24301E-04  8424   0.150E-03 0.218E-03
CGA: 120    -0.666544385181E+03   -0.21310E-03    0.23718E-04  8424   0.139E-03 0.608E-04
CGA: 121    -0.666544724857E+03   -0.33968E-03    0.21859E-04  8424   0.147E-03 0.186E-03
CGA: 122    -0.666544908074E+03   -0.18322E-03    0.30825E-04  8424   0.116E-03 0.750E-04
CGA: 123    -0.666545104453E+03   -0.19638E-03    0.13437E-04  8424   0.106E-03 0.928E-04
CGA: 124    -0.666545278156E+03   -0.17370E-03    0.13027E-04  8424   0.104E-03 0.969E-04
CGA: 125    -0.666545476918E+03   -0.19876E-03    0.10006E-04  8424   0.105E-03 0.969E-04
CGA: 126    -0.666545644759E+03   -0.16784E-03    0.13485E-04  8424   0.108E-03 0.950E-04
CGA: 127    -0.666545852318E+03   -0.20756E-03    0.10116E-04  8424   0.112E-03 0.911E-04
CGA: 128    -0.666546007296E+03   -0.15498E-03    0.18979E-04  8424   0.121E-03 0.841E-04
CGA: 129    -0.666546230976E+03   -0.22368E-03    0.12258E-04  8424   0.137E-03 0.718E-04
CGA: 130    -0.666546360059E+03   -0.12908E-03    0.62645E-04  8424   0.165E-03 0.502E-04
CGA: 131    -0.666546783980E+03   -0.42392E-03    0.22260E-04  8424   0.140E-03 0.224E-03
CGA: 132    -0.666547021157E+03   -0.23718E-03    0.16272E-04  8424   0.168E-03 0.463E-04
CGA: 133    -0.666547429990E+03   -0.40883E-03    0.22768E-04  8424   0.145E-03 0.220E-03
CGA: 134    -0.666547558832E+03   -0.12884E-03    0.84288E-04  8424   0.170E-03 0.418E-04
CGA: 135    -0.666547976063E+03   -0.41723E-03    0.20939E-04  8424   0.151E-03 0.213E-03
CGA: 136    -0.666548218546E+03   -0.24248E-03    0.19325E-04  8424   0.167E-03 0.406E-04
CGA: 137    -0.666548608426E+03   -0.38988E-03    0.21614E-04  8424   0.152E-03 0.200E-03
CGA: 138    -0.666548750601E+03   -0.14218E-03    0.70609E-04  8424   0.152E-03 0.508E-04
CGA: 139    -0.666549140333E+03   -0.38973E-03    0.19138E-04  8424   0.140E-03 0.183E-03
CGA: 140    -0.666549371160E+03   -0.23083E-03    0.16975E-04  8424   0.123E-03 0.739E-04
CGA: 141    -0.666549518087E+03   -0.14693E-03    0.28271E-04  8424   0.134E-03 0.670E-04
CGA: 142    -0.666549757069E+03   -0.23898E-03    0.14414E-04  8424   0.152E-03 0.522E-04
CGA: 143    -0.666550163538E+03   -0.40647E-03    0.20014E-04  8424   0.137E-03 0.210E-03
CGA: 144    -0.666550299238E+03   -0.13570E-03    0.51844E-04  8424   0.154E-03 0.494E-04
CGA: 145    -0.666550713662E+03   -0.41442E-03    0.19024E-04  8424   0.140E-03 0.208E-03
CGA: 146    -0.666550958051E+03   -0.24439E-03    0.15350E-04  8424   0.156E-03 0.459E-04
CGA: 147    -0.666551363972E+03   -0.40592E-03    0.19026E-04  8424   0.143E-03 0.205E-03
CGA: 148    -0.666551497446E+03   -0.13347E-03    0.68260E-04  8424   0.158E-03 0.420E-04
CGA: 149    -0.666551907502E+03   -0.41006E-03    0.17989E-04  8424   0.148E-03 0.201E-03
CGA: 150    -0.666552156855E+03   -0.24935E-03    0.17188E-04  8424   0.157E-03 0.389E-04
CGA: 151    -0.666552553268E+03   -0.39641E-03    0.17793E-04  8424   0.150E-03 0.195E-03
CGA: 152    -0.666552690330E+03   -0.13706E-03    0.77205E-04  8424   0.152E-03 0.389E-04
CGA: 153    -0.666553085250E+03   -0.39492E-03    0.16345E-04  8424   0.149E-03 0.186E-03
CGA: 154    -0.666553330939E+03   -0.24569E-03    0.17995E-04  8424   0.140E-03 0.450E-04
CGA: 155    -0.666553699426E+03   -0.36849E-03    0.15947E-04  8424   0.141E-03 0.175E-03
CGA: 156    -0.666553858086E+03   -0.15866E-03    0.37920E-04  8424   0.123E-03 0.564E-04
CGA: 157    -0.666554223155E+03   -0.36507E-03    0.13975E-04  8424   0.132E-03 0.165E-03
CGA: 158    -0.666554448860E+03   -0.22571E-03    0.15009E-04  8424   0.109E-03 0.675E-04
CGA: 159    -0.666554618306E+03   -0.16945E-03    0.14604E-04  8424   0.103E-03 0.786E-04
CGA: 160    -0.666554838036E+03   -0.21973E-03    0.82605E-05  8424   0.101E-03 0.813E-04
CGA: 161    -0.666555006461E+03   -0.16842E-03    0.12197E-04  8424   0.102E-03 0.811E-04
CGA: 162    -0.666555228563E+03   -0.22210E-03    0.80589E-05  8424   0.104E-03 0.794E-04
CGA: 163    -0.666555392898E+03   -0.16433E-03    0.13772E-04  8424   0.108E-03 0.763E-04
CGA: 164    -0.666555621186E+03   -0.22829E-03    0.88474E-05  8424   0.113E-03 0.717E-04
CGA: 165    -0.666555777453E+03   -0.15627E-03    0.18962E-04  8424   0.120E-03 0.654E-04
CGA: 166    -0.666556014895E+03   -0.23744E-03    0.10827E-04  8424   0.129E-03 0.571E-04
CGA: 167    -0.666556421239E+03   -0.40634E-03    0.15376E-04  8424   0.119E-03 0.189E-03
CGA: 168    -0.666556571674E+03   -0.15044E-03    0.24105E-04  8424   0.128E-03 0.570E-04
CGA: 169    -0.666556983488E+03   -0.41181E-03    0.14755E-04  8424   0.118E-03 0.187E-03
CGA: 170    -0.666557223021E+03   -0.23953E-03    0.10299E-04  8424   0.125E-03 0.579E-04
CGA: 171    -0.666557625549E+03   -0.40253E-03    0.14789E-04  8424   0.116E-03 0.184E-03
CGA: 172    -0.666557779699E+03   -0.15415E-03    0.21310E-04  8424   0.121E-03 0.605E-04
CGA: 173    -0.666558024418E+03   -0.24472E-03    0.10583E-04  8424   0.132E-03 0.514E-04
CGA: 174    -0.666558436556E+03   -0.41214E-03    0.14706E-04  8424   0.121E-03 0.187E-03
CGA: 175    -0.666558581787E+03   -0.14523E-03    0.27530E-04  8424   0.133E-03 0.503E-04
CGA: 176    -0.666559002794E+03   -0.42101E-03    0.14171E-04  8424   0.121E-03 0.187E-03
CGA: 177    -0.666559250468E+03   -0.24767E-03    0.10474E-04  8424   0.133E-03 0.497E-04
CGA: 178    -0.666559663550E+03   -0.41308E-03    0.14334E-04  8424   0.121E-03 0.185E-03
CGA: 179    -0.666559808756E+03   -0.14521E-03    0.27799E-04  8424   0.132E-03 0.494E-04
CGA: 180    -0.666560230601E+03   -0.42185E-03    0.13761E-04  8424   0.121E-03 0.183E-03
CGA: 181    -0.666560479926E+03   -0.24932E-03    0.10294E-04  8424   0.130E-03 0.504E-04
CGA: 182    -0.666560890318E+03   -0.41039E-03    0.14041E-04  8424   0.119E-03 0.181E-03
CGA: 183    -0.666561039604E+03   -0.14929E-03    0.24779E-04  8424   0.127E-03 0.530E-04
CGA: 184    -0.666561458675E+03   -0.41907E-03    0.13296E-04  8424   0.116E-03 0.177E-03
CGA: 185    -0.666561704752E+03   -0.24608E-03    0.95365E-05  8424   0.120E-03 0.580E-04
CGA: 186    -0.666562104698E+03   -0.39995E-03    0.13628E-04  8424   0.112E-03 0.173E-03
CGA: 187    -0.666562267306E+03   -0.16261E-03    0.16954E-04  8424   0.111E-03 0.652E-04
CGA: 188    -0.666562513497E+03   -0.24619E-03    0.84254E-05  8424   0.120E-03 0.583E-04
CGA: 189    -0.666562656852E+03   -0.14336E-03    0.27435E-04  8424   0.134E-03 0.469E-04
CGA: 190    -0.666563088618E+03   -0.43177E-03    0.13292E-04  8424   0.122E-03 0.185E-03
CGA: 191    -0.666563345358E+03   -0.25674E-03    0.99927E-05  8424   0.136E-03 0.449E-04
CGA: 192    -0.666563770784E+03   -0.42543E-03    0.13529E-04  8424   0.124E-03 0.185E-03
CGA: 193    -0.666563911252E+03   -0.14047E-03    0.32678E-04  8424   0.138E-03 0.423E-04
CGA: 194    -0.666564344268E+03   -0.43302E-03    0.13083E-04  8424   0.128E-03 0.184E-03
CGA: 195    -0.666564606481E+03   -0.26221E-03    0.10935E-04  8424   0.140E-03 0.396E-04
CGA: 196    -0.666565030071E+03   -0.42359E-03    0.13231E-04  8424   0.132E-03 0.182E-03
CGA: 197    -0.666565169907E+03   -0.13984E-03    0.40728E-04  8424   0.141E-03 0.374E-04
CGA: 198    -0.666565596633E+03   -0.42673E-03    0.12603E-04  8424   0.134E-03 0.178E-03
CGA: 199    -0.666565860812E+03   -0.26418E-03    0.12315E-04  8424   0.137E-03 0.378E-04
CGA: 200    -0.666566267591E+03   -0.40678E-03    0.12579E-04  8424   0.134E-03 0.171E-03
   1 F= -.66656627E+03 E0= -.66656627E+03  d E =-.666566E+03  mag=     6.0000
       N       E                     dE             d eps       ncg     rms          ort
SDA:   1    -0.666574354696E+03   -0.84939E-02    0.00000E+00  8424   0.705E-02 0.000E+00
CGA:   2    -0.666575975429E+03   -0.16207E-02   -0.16280E-02  8424   0.325E-02 0.644E-04
CGA:   3    -0.666576861236E+03   -0.88581E-03   -0.82898E-03  8424   0.157E-02-0.678E-03
CGA:   4    -0.666577164436E+03   -0.30320E-03   -0.25009E-03  8424   0.728E-03-0.407E-03
CGA:   5    -0.666575289150E+03    0.18753E-02   -0.66087E-03  8424   0.224E-01-0.283E-02
CGA:   6    -0.666578064595E+03   -0.27754E-02   -0.27065E-02  8424   0.243E-02-0.275E-03
CGA:   7    -0.666578689971E+03   -0.62538E-03   -0.59286E-03  8424   0.784E-03-0.292E-03
CGA:   8    -0.666578949185E+03   -0.25921E-03   -0.30236E-03  8424   0.121E-02-0.508E-03
CGA:   9    -0.666579289471E+03   -0.34029E-03   -0.27560E-03  8424   0.606E-03-0.499E-03
CGA:  10    -0.666579619554E+03   -0.33008E-03    0.19578E-03  8424   0.267E-03-0.151E-04
CGA:  11    -0.666579960999E+03   -0.34145E-03    0.52288E-04  8424   0.230E-03 0.682E-04
CGA:  12    -0.666580509408E+03   -0.54841E-03    0.29551E-04  8424   0.192E-03 0.136E-03
CGA:  13    -0.666580714838E+03   -0.20543E-03    0.64415E-04  8424   0.153E-03 0.109E-04
CGA:  14    -0.666581101725E+03   -0.38689E-03    0.11677E-04  8424   0.150E-03 0.127E-03
CGA:  15    -0.666581330461E+03   -0.22874E-03    0.22452E-04  8424   0.949E-04 0.618E-04
CGA:  16    -0.666581673134E+03   -0.34267E-03    0.88634E-05  8424   0.116E-03 0.122E-03
CGA:  17    -0.666581897417E+03   -0.22428E-03    0.11464E-04  8424   0.871E-04 0.769E-04
CGA:  18    -0.666582106476E+03   -0.20906E-03    0.63049E-05  8424   0.883E-04 0.814E-04
CGA:  19    -0.666582330878E+03   -0.22440E-03    0.59052E-05  8424   0.999E-04 0.759E-04
CGA:  20    -0.666582515770E+03   -0.18489E-03    0.10694E-04  8424   0.150E-03 0.516E-04
CGA:  21    -0.666582757644E+03   -0.24187E-03    0.20361E-04  8424   0.376E-03-0.544E-04
CGA:  22    -0.666583479685E+03   -0.72204E-03    0.12758E-04  8424   0.811E-03 0.202E-03
CGA:  23    -0.666583579484E+03   -0.99799E-04   -0.10167E-03  8424   0.949E-04 0.873E-05
CGA:  24    -0.666583817043E+03   -0.23756E-03    0.61482E-05  8424   0.106E-03 0.860E-04
CGA:  25    -0.666584025029E+03   -0.20799E-03    0.94225E-05  8424   0.157E-03 0.424E-04
CGA:  26    -0.666584544660E+03   -0.51963E-03    0.14957E-04  8424   0.104E-03 0.211E-03
CGA:  27    -0.666584756554E+03   -0.21189E-03    0.87387E-05  8424   0.135E-03 0.493E-04
CGA:  28    -0.666585245444E+03   -0.48889E-03    0.12859E-04  8424   0.100E-03 0.193E-03
CGA:  29    -0.666585439980E+03   -0.19454E-03    0.91640E-05  8424   0.113E-03 0.584E-04
CGA:  30    -0.666585661627E+03   -0.22165E-03    0.10233E-04  8424   0.138E-03 0.393E-04
CGA:  31    -0.666586130711E+03   -0.46908E-03    0.11565E-04  8424   0.118E-03 0.183E-03
CGA:  32    -0.666586315816E+03   -0.18510E-03    0.15395E-04  8424   0.134E-03 0.367E-04
CGA:  33    -0.666586762467E+03   -0.44665E-03    0.10824E-04  8424   0.123E-03 0.172E-03
CGA:  34    -0.666586997984E+03   -0.23552E-03    0.11342E-04  8424   0.126E-03 0.372E-04
CGA:  35    -0.666587425246E+03   -0.42726E-03    0.99001E-05  8424   0.121E-03 0.159E-03
CGA:  36    -0.666587607706E+03   -0.18246E-03    0.16867E-04  8424   0.114E-03 0.433E-04
CGA:  37    -0.666588012084E+03   -0.40438E-03    0.92805E-05  8424   0.114E-03 0.148E-03
CGA:  38    -0.666588252378E+03   -0.24029E-03    0.92009E-05  8424   0.101E-03 0.531E-04
CGA:  39    -0.666588645665E+03   -0.39329E-03    0.85860E-05  8424   0.106E-03 0.140E-03
CGA:  40    -0.666588833079E+03   -0.18741E-03    0.11114E-04  8424   0.912E-04 0.610E-04
CGA:  41    -0.666589063551E+03   -0.23047E-03    0.56796E-05  8424   0.889E-04 0.652E-04
CGA:  42    -0.666589255299E+03   -0.19175E-03    0.69336E-05  8424   0.884E-04 0.659E-04
CGA:  43    -0.666589479813E+03   -0.22451E-03    0.54721E-05  8424   0.886E-04 0.657E-04
CGA:  44    -0.666589676144E+03   -0.19633E-03    0.66297E-05  8424   0.891E-04 0.649E-04
CGA:  45    -0.666589896911E+03   -0.22077E-03    0.57098E-05  8424   0.900E-04 0.638E-04
CGA:  46    -0.666590096793E+03   -0.19988E-03    0.67264E-05  8424   0.912E-04 0.623E-04
CGA:  47    -0.666590314031E+03   -0.21724E-03    0.61653E-05  8424   0.926E-04 0.605E-04
CGA:  48    -0.666590517502E+03   -0.20347E-03    0.70196E-05  8424   0.942E-04 0.586E-04
CGA:  49    -0.666590730760E+03   -0.21326E-03    0.68472E-05  8424   0.961E-04 0.563E-04
CGA:  50    -0.666590938462E+03   -0.20770E-03    0.74706E-05  8424   0.984E-04 0.538E-04
CGA:  51    -0.666591146641E+03   -0.20818E-03    0.78939E-05  8424   0.101E-03 0.507E-04
CGA:  52    -0.666591360063E+03   -0.21342E-03    0.81827E-05  8424   0.105E-03 0.469E-04
CGA:  53    -0.666591785659E+03   -0.42560E-03    0.85284E-05  8424   0.101E-03 0.153E-03
CGA:  54    -0.666591995710E+03   -0.21005E-03    0.83129E-05  8424   0.104E-03 0.464E-04
CGA:  55    -0.666592426435E+03   -0.43073E-03    0.81242E-05  8424   0.101E-03 0.151E-03
CGA:  56    -0.666592632624E+03   -0.20619E-03    0.84820E-05  8424   0.103E-03 0.462E-04
CGA:  57    -0.666593056169E+03   -0.42355E-03    0.80161E-05  8424   0.100E-03 0.149E-03
CGA:  58    -0.666593272331E+03   -0.21616E-03    0.78444E-05  8424   0.101E-03 0.459E-04
CGA:  59    -0.666593698024E+03   -0.42569E-03    0.77067E-05  8424   0.100E-03 0.147E-03
CGA:  60    -0.666593900636E+03   -0.20261E-03    0.85578E-05  8424   0.997E-04 0.458E-04
CGA:  61    -0.666594319789E+03   -0.41915E-03    0.75858E-05  8424   0.995E-04 0.145E-03
CGA:  62    -0.666594540420E+03   -0.22063E-03    0.74553E-05  8424   0.980E-04 0.458E-04
CGA:  63    -0.666594961346E+03   -0.42093E-03    0.72830E-05  8424   0.989E-04 0.142E-03
CGA:  64    -0.666595161149E+03   -0.19980E-03    0.84882E-05  8424   0.963E-04 0.459E-04
CGA:  65    -0.666595575481E+03   -0.41433E-03    0.71868E-05  8424   0.980E-04 0.140E-03
CGA:  66    -0.666595800059E+03   -0.22458E-03    0.70021E-05  8424   0.946E-04 0.461E-04
CGA:  67    -0.666596217495E+03   -0.41744E-03    0.68962E-05  8424   0.970E-04 0.138E-03
CGA:  68    -0.666596414551E+03   -0.19706E-03    0.82614E-05  8424   0.930E-04 0.463E-04
CGA:  69    -0.666596825569E+03   -0.41102E-03    0.68387E-05  8424   0.959E-04 0.136E-03
CGA:  70    -0.666597054038E+03   -0.22847E-03    0.64750E-05  8424   0.915E-04 0.465E-04
CGA:  71    -0.666597469809E+03   -0.41577E-03    0.65665E-05  8424   0.946E-04 0.135E-03
CGA:  72    -0.666597663776E+03   -0.19397E-03    0.79482E-05  8424   0.901E-04 0.467E-04
CGA:  73    -0.666598073647E+03   -0.40987E-03    0.65399E-05  8424   0.933E-04 0.133E-03
CGA:  74    -0.666598306194E+03   -0.23255E-03    0.59273E-05  8424   0.888E-04 0.468E-04
CGA:  75    -0.666598501725E+03   -0.19553E-03    0.67112E-05  8424   0.862E-04 0.497E-04
CGA:  76    -0.666598726889E+03   -0.22516E-03    0.51331E-05  8424   0.845E-04 0.514E-04
CGA:  77    -0.666598928008E+03   -0.20112E-03    0.57263E-05  8424   0.834E-04 0.523E-04
CGA:  78    -0.666599148237E+03   -0.22023E-03    0.49026E-05  8424   0.829E-04 0.527E-04
CGA:  79    -0.666599353326E+03   -0.20509E-03    0.53115E-05  8424   0.826E-04 0.527E-04
CGA:  80    -0.666599570039E+03   -0.21671E-03    0.48940E-05  8424   0.827E-04 0.523E-04
CGA:  81    -0.666599777951E+03   -0.20791E-03    0.51963E-05  8424   0.832E-04 0.516E-04
CGA:  82    -0.666599991992E+03   -0.21404E-03    0.50579E-05  8424   0.840E-04 0.506E-04
CGA:  83    -0.666600201970E+03   -0.20998E-03    0.53112E-05  8424   0.852E-04 0.491E-04
CGA:  84    -0.666600413800E+03   -0.21183E-03    0.54247E-05  8424   0.868E-04 0.472E-04
CGA:  85    -0.666600625334E+03   -0.21153E-03    0.56894E-05  8424   0.891E-04 0.448E-04
CGA:  86    -0.666600835180E+03   -0.20985E-03    0.61137E-05  8424   0.921E-04 0.418E-04
CGA:  87    -0.666601267532E+03   -0.43235E-03    0.61868E-05  8424   0.882E-04 0.135E-03
CGA:  88    -0.666601479130E+03   -0.21160E-03    0.59005E-05  8424   0.915E-04 0.410E-04
CGA:  89    -0.666601909966E+03   -0.43084E-03    0.60896E-05  8424   0.874E-04 0.133E-03
CGA:  90    -0.666602120271E+03   -0.21031E-03    0.58207E-05  8424   0.899E-04 0.406E-04
CGA:  91    -0.666602550228E+03   -0.42996E-03    0.58579E-05  8424   0.866E-04 0.131E-03
CGA:  92    -0.666602758815E+03   -0.20859E-03    0.57650E-05  8424   0.883E-04 0.401E-04
CGA:  93    -0.666603182948E+03   -0.42413E-03    0.57081E-05  8424   0.858E-04 0.128E-03
CGA:  94    -0.666603394911E+03   -0.21196E-03    0.55174E-05  8424   0.863E-04 0.397E-04
CGA:  95    -0.666603817219E+03   -0.42231E-03    0.54592E-05  8424   0.850E-04 0.126E-03
CGA:  96    -0.666604021940E+03   -0.20472E-03    0.56550E-05  8424   0.845E-04 0.394E-04
CGA:  97    -0.666604437157E+03   -0.41522E-03    0.53093E-05  8424   0.840E-04 0.123E-03
CGA:  98    -0.666604650727E+03   -0.21357E-03    0.51920E-05  8424   0.825E-04 0.392E-04
CGA:  99    -0.666605064676E+03   -0.41395E-03    0.50764E-05  8424   0.829E-04 0.120E-03
CGA: 100    -0.666605265423E+03   -0.20075E-03    0.54826E-05  8424   0.806E-04 0.390E-04
CGA: 101    -0.666605672285E+03   -0.40686E-03    0.49570E-05  8424   0.817E-04 0.118E-03
CGA: 102    -0.666605887121E+03   -0.21484E-03    0.48244E-05  8424   0.788E-04 0.390E-04
CGA: 103    -0.666606294135E+03   -0.40701E-03    0.47495E-05  8424   0.804E-04 0.115E-03
CGA: 104    -0.666606490883E+03   -0.19675E-03    0.52364E-05  8424   0.770E-04 0.390E-04
CGA: 105    -0.666606891032E+03   -0.40015E-03    0.46662E-05  8424   0.790E-04 0.113E-03
CGA: 106    -0.666607106972E+03   -0.21594E-03    0.44305E-05  8424   0.754E-04 0.390E-04
CGA: 107    -0.666607508711E+03   -0.40174E-03    0.44820E-05  8424   0.776E-04 0.111E-03
CGA: 108    -0.666607701196E+03   -0.19248E-03    0.49633E-05  8424   0.738E-04 0.390E-04
CGA: 109    -0.666607914245E+03   -0.21305E-03    0.38511E-05  8424   0.716E-04 0.413E-04
CGA: 110    -0.666608110815E+03   -0.19657E-03    0.39837E-05  8424   0.700E-04 0.427E-04
CGA: 111    -0.666608319094E+03   -0.20828E-03    0.35153E-05  8424   0.690E-04 0.435E-04
CGA: 112    -0.666608518331E+03   -0.19924E-03    0.36024E-05  8424   0.685E-04 0.439E-04
CGA: 113    -0.666608723407E+03   -0.20508E-03    0.34052E-05  8424   0.683E-04 0.439E-04
CGA: 114    -0.666608924205E+03   -0.20080E-03    0.34765E-05  8424   0.684E-04 0.435E-04
CGA: 115    -0.666609126879E+03   -0.20267E-03    0.34523E-05  8424   0.689E-04 0.427E-04
CGA: 116    -0.666609328526E+03   -0.20165E-03    0.35318E-05  8424   0.698E-04 0.416E-04
CGA: 117    -0.666609529157E+03   -0.20063E-03    0.36560E-05  8424   0.710E-04 0.401E-04
CGA: 118    -0.666609731151E+03   -0.20199E-03    0.37738E-05  8424   0.727E-04 0.382E-04
CGA: 119    -0.666609929993E+03   -0.19884E-03    0.40728E-05  8424   0.750E-04 0.358E-04
CGA: 120    -0.666610339186E+03   -0.40919E-03    0.43340E-05  8424   0.718E-04 0.111E-03
CGA: 121    -0.666610540316E+03   -0.20113E-03    0.38963E-05  8424   0.744E-04 0.353E-04
CGA: 122    -0.666610947124E+03   -0.40681E-03    0.42744E-05  8424   0.710E-04 0.110E-03
CGA: 123    -0.666611143838E+03   -0.19671E-03    0.39086E-05  8424   0.730E-04 0.350E-04
CGA: 124    -0.666611547758E+03   -0.40392E-03    0.41458E-05  8424   0.703E-04 0.108E-03
CGA: 125    -0.666611745161E+03   -0.19740E-03    0.38041E-05  8424   0.717E-04 0.347E-04
CGA: 126    -0.666612143024E+03   -0.39786E-03    0.40673E-05  8424   0.697E-04 0.107E-03
CGA: 127    -0.666612339179E+03   -0.19615E-03    0.37597E-05  8424   0.703E-04 0.345E-04
CGA: 128    -0.666612733858E+03   -0.39468E-03    0.39390E-05  8424   0.692E-04 0.105E-03
CGA: 129    -0.666612926801E+03   -0.19294E-03    0.37736E-05  8424   0.691E-04 0.343E-04
CGA: 130    -0.666613314674E+03   -0.38787E-03    0.38693E-05  8424   0.686E-04 0.103E-03
CGA: 131    -0.666613510570E+03   -0.19590E-03    0.36350E-05  8424   0.679E-04 0.341E-04
CGA: 132    -0.666613895949E+03   -0.38538E-03    0.37561E-05  8424   0.681E-04 0.101E-03
CGA: 133    -0.666614084411E+03   -0.18846E-03    0.37608E-05  8424   0.668E-04 0.339E-04
CGA: 134    -0.666614463063E+03   -0.37865E-03    0.37084E-05  8424   0.676E-04 0.995E-04
CGA: 135    -0.666614658724E+03   -0.19566E-03    0.35167E-05  8424   0.658E-04 0.338E-04
CGA: 136    -0.666615036079E+03   -0.37735E-03    0.36097E-05  8424   0.671E-04 0.981E-04
CGA: 137    -0.666615220106E+03   -0.18403E-03    0.37428E-05  8424   0.648E-04 0.337E-04
CGA: 138    -0.666615413341E+03   -0.19323E-03    0.32426E-05  8424   0.631E-04 0.354E-04
CGA: 139    -0.666615599614E+03   -0.18627E-03    0.31994E-05  8424   0.619E-04 0.366E-04
CGA: 140    -0.666615789598E+03   -0.18998E-03    0.29868E-05  8424   0.611E-04 0.374E-04
CGA: 141    -0.666615977059E+03   -0.18746E-03    0.29503E-05  8424   0.607E-04 0.378E-04
CGA: 142    -0.666616164911E+03   -0.18785E-03    0.28988E-05  8424   0.607E-04 0.378E-04
CGA: 143    -0.666616352896E+03   -0.18799E-03    0.28898E-05  8424   0.610E-04 0.375E-04
CGA: 144    -0.666616539048E+03   -0.18615E-03    0.29584E-05  8424   0.616E-04 0.368E-04
CGA: 145    -0.666616727108E+03   -0.18806E-03    0.29898E-05  8424   0.626E-04 0.358E-04
CGA: 146    -0.666616911699E+03   -0.18459E-03    0.31802E-05  8424   0.641E-04 0.343E-04
CGA: 147    -0.666617099436E+03   -0.18774E-03    0.32804E-05  8424   0.661E-04 0.324E-04
CGA: 148    -0.666617282624E+03   -0.18319E-03    0.36390E-05  8424   0.688E-04 0.298E-04
CGA: 149    -0.666617662466E+03   -0.37984E-03    0.36796E-05  8424   0.657E-04 0.995E-04
CGA: 150    -0.666617849243E+03   -0.18678E-03    0.35019E-05  8424   0.689E-04 0.292E-04
CGA: 151    -0.666618227048E+03   -0.37781E-03    0.36689E-05  8424   0.655E-04 0.990E-04
CGA: 152    -0.666618406847E+03   -0.17980E-03    0.36561E-05  8424   0.681E-04 0.288E-04
CGA: 153    -0.666618781182E+03   -0.37434E-03    0.36018E-05  8424   0.654E-04 0.977E-04
CGA: 154    -0.666618964434E+03   -0.18325E-03    0.35506E-05  8424   0.674E-04 0.285E-04
CGA: 155    -0.666619332519E+03   -0.36808E-03    0.35649E-05  8424   0.653E-04 0.964E-04
CGA: 156    -0.666619510952E+03   -0.17843E-03    0.36681E-05  8424   0.664E-04 0.283E-04
CGA: 157    -0.666619874687E+03   -0.36373E-03    0.34850E-05  8424   0.652E-04 0.948E-04
CGA: 158    -0.666620053473E+03   -0.17879E-03    0.36426E-05  8424   0.654E-04 0.282E-04
CGA: 159    -0.666620409987E+03   -0.35651E-03    0.34458E-05  8424   0.650E-04 0.933E-04
CGA: 160    -0.666620587532E+03   -0.17755E-03    0.36473E-05  8424   0.642E-04 0.283E-04
CGA: 161    -0.666620939933E+03   -0.35240E-03    0.33756E-05  8424   0.646E-04 0.918E-04
CGA: 162    -0.666621114253E+03   -0.17432E-03    0.36902E-05  8424   0.631E-04 0.285E-04
CGA: 163    -0.666621459840E+03   -0.34559E-03    0.33535E-05  8424   0.641E-04 0.905E-04
CGA: 164    -0.666621636443E+03   -0.17660E-03    0.35618E-05  8424   0.620E-04 0.289E-04
CGA: 165    -0.666621979126E+03   -0.34268E-03    0.33028E-05  8424   0.635E-04 0.894E-04
CGA: 166    -0.666622149279E+03   -0.17015E-03    0.36607E-05  8424   0.609E-04 0.294E-04
CGA: 167    -0.666622485873E+03   -0.33659E-03    0.33068E-05  8424   0.629E-04 0.884E-04
CGA: 168    -0.666622661420E+03   -0.17555E-03    0.34237E-05  8424   0.599E-04 0.300E-04
CGA: 169    -0.666622996548E+03   -0.33513E-03    0.32735E-05  8424   0.621E-04 0.877E-04
CGA: 170    -0.666623162707E+03   -0.16616E-03    0.35864E-05  8424   0.590E-04 0.306E-04
CGA: 171    -0.666623492135E+03   -0.32943E-03    0.33040E-05  8424   0.614E-04 0.872E-04
CGA: 172    -0.666623666716E+03   -0.17458E-03    0.32689E-05  8424   0.581E-04 0.312E-04
CGA: 173    -0.666623831733E+03   -0.16502E-03    0.31015E-05  8424   0.564E-04 0.334E-04
CGA: 174    -0.666624002094E+03   -0.17036E-03    0.27756E-05  8424   0.553E-04 0.348E-04
CGA: 175    -0.666624168461E+03   -0.16637E-03    0.27350E-05  8424   0.546E-04 0.357E-04
CGA: 176    -0.666624336482E+03   -0.16802E-03    0.26230E-05  8424   0.543E-04 0.362E-04
CGA: 177    -0.666624503320E+03   -0.16684E-03    0.26105E-05  8424   0.542E-04 0.365E-04
CGA: 178    -0.666624669720E+03   -0.16640E-03    0.26149E-05  8424   0.545E-04 0.364E-04
CGA: 179    -0.666624836454E+03   -0.16673E-03    0.26345E-05  8424   0.550E-04 0.361E-04
CGA: 180    -0.666625001547E+03   -0.16509E-03    0.27243E-05  8424   0.558E-04 0.354E-04
CGA: 181    -0.666625167673E+03   -0.16613E-03    0.27906E-05  8424   0.568E-04 0.345E-04
CGA: 182    -0.666625331784E+03   -0.16411E-03    0.29632E-05  8424   0.583E-04 0.332E-04
CGA: 183    -0.666625496606E+03   -0.16482E-03    0.31244E-05  8424   0.603E-04 0.316E-04
CGA: 184    -0.666625660507E+03   -0.16390E-03    0.33994E-05  8424   0.630E-04 0.293E-04
CGA: 185    -0.666625995817E+03   -0.33531E-03    0.37081E-05  8424   0.602E-04 0.933E-04
CGA: 186    -0.666626160279E+03   -0.16446E-03    0.33808E-05  8424   0.630E-04 0.292E-04
CGA: 187    -0.666626493797E+03   -0.33352E-03    0.37336E-05  8424   0.603E-04 0.935E-04
CGA: 188    -0.666626652306E+03   -0.15851E-03    0.35607E-05  8424   0.625E-04 0.294E-04
CGA: 189    -0.666626981530E+03   -0.32922E-03    0.37395E-05  8424   0.604E-04 0.929E-04
CGA: 190    -0.666627143198E+03   -0.16167E-03    0.34872E-05  8424   0.621E-04 0.295E-04
CGA: 191    -0.666627466759E+03   -0.32356E-03    0.37673E-05  8424   0.606E-04 0.923E-04
CGA: 192    -0.666627623288E+03   -0.15653E-03    0.36700E-05  8424   0.615E-04 0.298E-04
CGA: 193    -0.666627942575E+03   -0.31929E-03    0.37626E-05  8424   0.608E-04 0.916E-04
CGA: 194    -0.666628100279E+03   -0.15770E-03    0.36631E-05  8424   0.610E-04 0.300E-04
CGA: 195    -0.666628413486E+03   -0.31321E-03    0.37952E-05  8424   0.610E-04 0.909E-04
CGA: 196    -0.666628568619E+03   -0.15513E-03    0.37746E-05  8424   0.604E-04 0.303E-04
CGA: 197    -0.666628877994E+03   -0.30937E-03    0.38021E-05  8424   0.612E-04 0.903E-04
CGA: 198    -0.666629031820E+03   -0.15383E-03    0.38410E-05  8424   0.599E-04 0.308E-04
CGA: 199    -0.666629185149E+03   -0.15333E-03    0.36742E-05  8424   0.591E-04 0.318E-04
CGA: 200    -0.666629339063E+03   -0.15391E-03    0.35335E-05  8424   0.585E-04 0.327E-04
   2 F= -.66662934E+03 E0= -.66662934E+03  d E =-.630715E-01  mag=     6.0000
       N       E                     dE             d eps       ncg     rms          ort
SDA:   1    -0.666625115770E+03    0.40694E-02    0.00000E+00  8424   0.125E+00 0.000E+00
CGA:   2    -0.666656186529E+03   -0.31071E-01   -0.31061E-01  8424   0.589E-01-0.123E-03
CGA:   3    -0.666667489822E+03   -0.11303E-01   -0.11241E-01  8424   0.156E-01-0.446E-03
CGA:   4    -0.666670133177E+03   -0.26434E-02   -0.26237E-02  8424   0.386E-02-0.128E-03
CGA:   5    -0.666670873584E+03   -0.74041E-03   -0.70690E-03  8424   0.938E-03-0.249E-03
CGA:   6    -0.666671150939E+03   -0.27735E-03   -0.28127E-03  8424   0.896E-03-0.525E-03
CGA:   7    -0.666671303322E+03   -0.15238E-03   -0.13831E-03  8424   0.201E-03-0.888E-04
CGA:   8    -0.666671473610E+03   -0.17029E-03    0.51353E-04  8424   0.128E-03-0.944E-05
CGA:   9    -0.666671692037E+03   -0.21843E-03    0.95738E-05  8424   0.879E-04 0.597E-04
CGA:  10    -0.666671964756E+03   -0.27272E-03    0.80132E-05  8424   0.758E-04 0.847E-04
CGA:  11    -0.666672092658E+03   -0.12790E-03    0.65672E-05  8424   0.688E-04 0.251E-04
CGA:  12    -0.666672326443E+03   -0.23379E-03    0.43971E-05  8424   0.629E-04 0.794E-04
CGA:  13    -0.666672449955E+03   -0.12351E-03    0.43441E-05  8424   0.513E-04 0.364E-04
CGA:  14    -0.666672573994E+03   -0.12404E-03    0.26439E-05  8424   0.486E-04 0.400E-04
CGA:  15    -0.666672692450E+03   -0.11846E-03    0.24872E-05  8424   0.483E-04 0.414E-04
CGA:  16    -0.666672820096E+03   -0.12765E-03    0.22216E-05  8424   0.529E-04 0.398E-04
CGA:  17    -0.666672927188E+03   -0.10709E-03    0.34868E-05  8424   0.728E-04 0.300E-04
CGA:  18    -0.666673064224E+03   -0.13704E-03    0.53350E-05  8424   0.151E-03-0.937E-05
CGA:  19    -0.666673436512E+03   -0.37229E-03    0.55298E-05  8424   0.191E-03 0.129E-03
CGA:  20    -0.666673482270E+03   -0.45758E-04   -0.36588E-04  8424   0.155E-03-0.802E-04
CGA:  21    -0.666673702980E+03   -0.22071E-03    0.43528E-05  8424   0.114E-03 0.844E-04
CGA:  22    -0.666673837613E+03   -0.13463E-03    0.17383E-04  8424   0.289E-03-0.826E-04
CGA:  23    -0.666673882124E+03   -0.44511E-04   -0.38848E-04  8424   0.719E-04-0.340E-04
CGA:  24    -0.666674033345E+03   -0.15122E-03    0.29881E-05  8424   0.492E-04 0.557E-04
CGA:  25    -0.666674151175E+03   -0.11783E-03    0.23010E-05  8424   0.523E-04 0.393E-04
CGA:  26    -0.666674255233E+03   -0.10406E-03    0.31551E-05  8424   0.614E-04 0.340E-04
CGA:  27    -0.666674381725E+03   -0.12649E-03    0.35307E-05  8424   0.899E-04 0.180E-04
CGA:  28    -0.666674657153E+03   -0.27543E-03    0.55333E-05  8424   0.675E-04 0.111E-03
CGA:  29    -0.666674754457E+03   -0.97304E-04    0.66696E-05  8424   0.872E-04 0.149E-04
CGA:  30    -0.666675019459E+03   -0.26500E-03    0.47427E-05  8424   0.782E-04 0.991E-04
CGA:  31    -0.666675135899E+03   -0.11644E-03    0.73181E-05  8424   0.774E-04 0.125E-04
CGA:  32    -0.666675350989E+03   -0.21509E-03    0.42086E-05  8424   0.787E-04 0.847E-04
CGA:  33    -0.666675467859E+03   -0.11687E-03    0.73980E-05  8424   0.624E-04 0.204E-04
CGA:  34    -0.666675664856E+03   -0.19700E-03    0.34765E-05  8424   0.687E-04 0.764E-04
CGA:  35    -0.666675774289E+03   -0.10943E-03    0.57705E-05  8424   0.518E-04 0.317E-04
CGA:  36    -0.666675963461E+03   -0.18917E-03    0.33651E-05  8424   0.618E-04 0.732E-04
CGA:  37    -0.666676078225E+03   -0.11476E-03    0.41121E-05  8424   0.477E-04 0.374E-04
CGA:  38    -0.666676185220E+03   -0.10700E-03    0.24449E-05  8424   0.452E-04 0.430E-04
CGA:  39    -0.666676294074E+03   -0.10885E-03    0.21070E-05  8424   0.448E-04 0.441E-04
CGA:  40    -0.666676401826E+03   -0.10775E-03    0.20850E-05  8424   0.447E-04 0.443E-04
CGA:  41    -0.666676509540E+03   -0.10771E-03    0.20754E-05  8424   0.447E-04 0.444E-04
CGA:  42    -0.666676617336E+03   -0.10780E-03    0.20718E-05  8424   0.447E-04 0.444E-04
CGA:  43    -0.666676724320E+03   -0.10698E-03    0.20950E-05  8424   0.447E-04 0.443E-04
CGA:  44    -0.666676831991E+03   -0.10767E-03    0.20841E-05  8424   0.449E-04 0.442E-04
CGA:  45    -0.666676937957E+03   -0.10597E-03    0.21465E-05  8424   0.453E-04 0.439E-04
CGA:  46    -0.666677045686E+03   -0.10773E-03    0.21442E-05  8424   0.463E-04 0.432E-04
CGA:  47    -0.666677149540E+03   -0.10385E-03    0.23715E-05  8424   0.489E-04 0.415E-04
CGA:  48    -0.666677258218E+03   -0.10868E-03    0.25281E-05  8424   0.553E-04 0.374E-04
CGA:  49    -0.666677356035E+03   -0.97818E-04    0.39607E-05  8424   0.723E-04 0.269E-04
CGA:  50    -0.666677604463E+03   -0.24843E-03    0.52742E-05  8424   0.523E-04 0.104E-03
CGA:  51    -0.666677710651E+03   -0.10619E-03    0.30700E-05  8424   0.620E-04 0.320E-04
CGA:  52    -0.666677807448E+03   -0.96798E-04    0.53895E-05  8424   0.857E-04 0.167E-04
CGA:  53    -0.666678058698E+03   -0.25125E-03    0.53490E-05  8424   0.685E-04 0.107E-03
CGA:  54    -0.666678162768E+03   -0.10407E-03    0.62042E-05  8424   0.942E-04 0.875E-05
CGA:  55    -0.666678406852E+03   -0.24408E-03    0.52630E-05  8424   0.844E-04 0.104E-03
CGA:  56    -0.666678500748E+03   -0.93896E-04    0.13515E-04  8424   0.118E-03-0.108E-04
CGA:  57    -0.666678743536E+03   -0.24279E-03    0.48671E-05  8424   0.127E-03 0.969E-04
CGA:  58    -0.666678842794E+03   -0.99258E-04    0.54448E-04  8424   0.173E-03-0.588E-04
CGA:  59    -0.666679068435E+03   -0.22564E-03    0.42997E-05  8424   0.224E-03 0.778E-04
CGA:  60    -0.666679465526E+03   -0.39709E-03    0.42893E-04  8424   0.259E-03 0.972E-05
CGA:  61    -0.666680046506E+03   -0.58098E-03    0.14683E-04  8424   0.228E-03 0.220E-03
CGA:  62    -0.666680098340E+03   -0.51833E-04   -0.95319E-04  8424   0.838E-03-0.344E-03
CGA:  63    -0.666680252165E+03   -0.15383E-03   -0.13707E-03  8424   0.791E-04-0.125E-03
CGA:  64    -0.666680366188E+03   -0.11402E-03    0.51101E-05  8424   0.485E-04 0.352E-04
CGA:  65    -0.666680520297E+03   -0.15411E-03    0.36807E-05  8424   0.477E-04 0.643E-04
CGA:  66    -0.666680612030E+03   -0.91734E-04    0.30179E-05  8424   0.490E-04 0.313E-04
CGA:  67    -0.666680708132E+03   -0.96101E-04    0.30065E-05  8424   0.508E-04 0.293E-04
CGA:  68    -0.666680795131E+03   -0.87000E-04    0.38024E-05  8424   0.532E-04 0.268E-04
CGA:  69    -0.666680894379E+03   -0.99247E-04    0.35084E-05  8424   0.561E-04 0.237E-04
CGA:  70    -0.666681081715E+03   -0.18734E-03    0.39766E-05  8424   0.526E-04 0.803E-04
CGA:  71    -0.666681167550E+03   -0.85835E-04    0.42501E-05  8424   0.544E-04 0.233E-04
CGA:  72    -0.666681353576E+03   -0.18603E-03    0.37228E-05  8424   0.520E-04 0.779E-04
CGA:  73    -0.666681446418E+03   -0.92842E-04    0.36586E-05  8424   0.530E-04 0.230E-04
CGA:  74    -0.666681626568E+03   -0.18015E-03    0.36433E-05  8424   0.512E-04 0.758E-04
CGA:  75    -0.666681712764E+03   -0.86196E-04    0.39352E-05  8424   0.519E-04 0.225E-04
CGA:  76    -0.666681891408E+03   -0.17864E-03    0.34969E-05  8424   0.503E-04 0.741E-04
CGA:  77    -0.666681979843E+03   -0.88434E-04    0.36288E-05  8424   0.509E-04 0.221E-04
CGA:  78    -0.666682154480E+03   -0.17464E-03    0.34347E-05  8424   0.494E-04 0.725E-04
CGA:  79    -0.666682240114E+03   -0.85633E-04    0.36301E-05  8424   0.499E-04 0.217E-04
CGA:  80    -0.666682413732E+03   -0.17362E-03    0.33192E-05  8424   0.484E-04 0.712E-04
CGA:  81    -0.666682498227E+03   -0.84495E-04    0.35246E-05  8424   0.490E-04 0.213E-04
CGA:  82    -0.666682668386E+03   -0.17016E-03    0.32685E-05  8424   0.474E-04 0.699E-04
CGA:  83    -0.666682753164E+03   -0.84779E-04    0.33223E-05  8424   0.480E-04 0.210E-04
CGA:  84    -0.666682922318E+03   -0.16915E-03    0.31615E-05  8424   0.463E-04 0.686E-04
CGA:  85    -0.666683003155E+03   -0.80838E-04    0.33695E-05  8424   0.469E-04 0.208E-04
CGA:  86    -0.666683168677E+03   -0.16552E-03    0.31057E-05  8424   0.451E-04 0.671E-04
CGA:  87    -0.666683252533E+03   -0.83857E-04    0.29946E-05  8424   0.454E-04 0.209E-04
CGA:  88    -0.666683416297E+03   -0.16376E-03    0.29894E-05  8424   0.438E-04 0.654E-04
CGA:  89    -0.666683493840E+03   -0.77542E-04    0.31305E-05  8424   0.435E-04 0.212E-04
CGA:  90    -0.666683653172E+03   -0.15933E-03    0.29044E-05  8424   0.424E-04 0.634E-04
CGA:  91    -0.666683736002E+03   -0.82830E-04    0.26210E-05  8424   0.412E-04 0.219E-04
CGA:  92    -0.666683811928E+03   -0.75926E-04    0.27709E-05  8424   0.415E-04 0.216E-04
CGA:  93    -0.666683892659E+03   -0.80731E-04    0.25810E-05  8424   0.425E-04 0.206E-04
CGA:  94    -0.666684052075E+03   -0.15942E-03    0.27919E-05  8424   0.405E-04 0.629E-04
CGA:  95    -0.666684126250E+03   -0.74175E-04    0.27465E-05  8424   0.414E-04 0.204E-04
CGA:  96    -0.666684205437E+03   -0.79187E-04    0.26308E-05  8424   0.430E-04 0.187E-04
CGA:  97    -0.666684363263E+03   -0.15783E-03    0.27108E-05  8424   0.405E-04 0.617E-04
CGA:  98    -0.666684435616E+03   -0.72353E-04    0.28515E-05  8424   0.418E-04 0.184E-04
CGA:  99    -0.666684588915E+03   -0.15330E-03    0.26606E-05  8424   0.395E-04 0.602E-04
CGA: 100    -0.666684667986E+03   -0.79072E-04    0.23587E-05  8424   0.408E-04 0.181E-04
CGA: 101    -0.666684820706E+03   -0.15272E-03    0.25364E-05  8424   0.386E-04 0.588E-04
CGA: 102    -0.666684888931E+03   -0.68224E-04    0.27504E-05  8424   0.393E-04 0.180E-04
CGA: 103    -0.666685036846E+03   -0.14792E-03    0.24633E-05  8424   0.375E-04 0.570E-04
CGA: 104    -0.666685115567E+03   -0.78721E-04    0.20952E-05  8424   0.376E-04 0.181E-04
CGA: 105    -0.666685261114E+03   -0.14555E-03    0.23230E-05  8424   0.365E-04 0.550E-04
CGA: 106    -0.666685326201E+03   -0.65088E-04    0.25654E-05  8424   0.355E-04 0.184E-04
CGA: 107    -0.666685403402E+03   -0.77201E-04    0.18901E-05  8424   0.353E-04 0.185E-04
CGA: 108    -0.666685468767E+03   -0.65365E-04    0.23529E-05  8424   0.355E-04 0.181E-04
CGA: 109    -0.666685543973E+03   -0.75206E-04    0.19605E-05  8424   0.363E-04 0.172E-04
CGA: 110    -0.666685687126E+03   -0.14315E-03    0.21930E-05  8424   0.346E-04 0.533E-04
CGA: 111    -0.666685750711E+03   -0.63585E-04    0.23326E-05  8424   0.352E-04 0.169E-04
CGA: 112    -0.666685890090E+03   -0.13938E-03    0.21425E-05  8424   0.336E-04 0.519E-04
CGA: 113    -0.666685965115E+03   -0.75025E-04    0.17223E-05  8424   0.341E-04 0.167E-04
CGA: 114    -0.666686103362E+03   -0.13825E-03    0.20400E-05  8424   0.326E-04 0.505E-04
CGA: 115    -0.666686163542E+03   -0.60180E-04    0.21892E-05  8424   0.327E-04 0.167E-04
CGA: 116    -0.666686237565E+03   -0.74023E-04    0.16503E-05  8424   0.332E-04 0.160E-04
CGA: 117    -0.666686372962E+03   -0.13540E-03    0.19373E-05  8424   0.318E-04 0.488E-04
CGA: 118    -0.666686431547E+03   -0.58584E-04    0.21409E-05  8424   0.319E-04 0.159E-04
CGA: 119    -0.666686563330E+03   -0.13178E-03    0.18569E-05  8424   0.309E-04 0.472E-04
CGA: 120    -0.666686636366E+03   -0.73036E-04    0.14637E-05  8424   0.305E-04 0.158E-04
CGA: 121    -0.666686693622E+03   -0.57256E-04    0.19910E-05  8424   0.304E-04 0.156E-04
CGA: 122    -0.666686765381E+03   -0.71759E-04    0.14467E-05  8424   0.306E-04 0.152E-04
CGA: 123    -0.666686895094E+03   -0.12971E-03    0.17320E-05  8424   0.295E-04 0.454E-04
CGA: 124    -0.666686950945E+03   -0.55850E-04    0.18997E-05  8424   0.295E-04 0.150E-04
CGA: 125    -0.666687021629E+03   -0.70685E-04    0.13805E-05  8424   0.299E-04 0.143E-04
CGA: 126    -0.666687149210E+03   -0.12758E-03    0.16449E-05  8424   0.286E-04 0.439E-04
CGA: 127    -0.666687203623E+03   -0.54414E-04    0.18408E-05  8424   0.288E-04 0.141E-04
CGA: 128    -0.666687328232E+03   -0.12461E-03    0.15731E-05  8424   0.277E-04 0.425E-04
CGA: 129    -0.666687397831E+03   -0.69598E-04    0.12140E-05  8424   0.277E-04 0.139E-04
CGA: 130    -0.666687450853E+03   -0.53023E-04    0.17581E-05  8424   0.279E-04 0.134E-04
CGA: 131    -0.666687573190E+03   -0.12234E-03    0.14788E-05  8424   0.268E-04 0.409E-04
CGA: 132    -0.666687641710E+03   -0.68520E-04    0.11478E-05  8424   0.267E-04 0.132E-04
CGA: 133    -0.666687761854E+03   -0.12014E-03    0.13930E-05  8424   0.259E-04 0.394E-04
CGA: 134    -0.666687812843E+03   -0.50988E-04    0.15766E-05  8424   0.255E-04 0.131E-04
CGA: 135    -0.666687880064E+03   -0.67222E-04    0.10498E-05  8424   0.253E-04 0.130E-04
CGA: 136    -0.666687930811E+03   -0.50747E-04    0.15027E-05  8424   0.253E-04 0.127E-04
CGA: 137    -0.666687997017E+03   -0.66206E-04    0.10526E-05  8424   0.256E-04 0.121E-04
CGA: 138    -0.666688114654E+03   -0.11764E-03    0.12689E-05  8424   0.244E-04 0.374E-04
CGA: 139    -0.666688164125E+03   -0.49471E-04    0.14311E-05  8424   0.247E-04 0.119E-04
CGA: 140    -0.666688279566E+03   -0.11544E-03    0.12077E-05  8424   0.235E-04 0.362E-04
CGA: 141    -0.666688344480E+03   -0.64914E-04    0.91285E-06  8424   0.237E-04 0.116E-04
CGA: 142    -0.666688458275E+03   -0.11380E-03    0.11380E-05  8424   0.226E-04 0.349E-04
CGA: 143    -0.666688505860E+03   -0.47585E-04    0.12608E-05  8424   0.226E-04 0.114E-04
CGA: 144    -0.666688569662E+03   -0.63802E-04    0.85344E-06  8424   0.227E-04 0.109E-04
CGA: 145    -0.666688680890E+03   -0.11123E-03    0.10502E-05  8424   0.218E-04 0.333E-04
CGA: 146    -0.666688727349E+03   -0.46459E-04    0.11872E-05  8424   0.216E-04 0.108E-04
CGA: 147    -0.666688836198E+03   -0.10885E-03    0.98058E-06  8424   0.209E-04 0.318E-04
CGA: 148    -0.666688898301E+03   -0.62103E-04    0.74165E-06  8424   0.205E-04 0.106E-04
CGA: 149    -0.666688943890E+03   -0.45589E-04    0.10626E-05  8424   0.203E-04 0.105E-04
CGA: 150    -0.666689005137E+03   -0.61247E-04    0.70520E-06  8424   0.202E-04 0.103E-04
CGA: 151    -0.666689050444E+03   -0.45307E-04    0.10281E-05  8424   0.203E-04 0.995E-05
CGA: 152    -0.666689156558E+03   -0.10611E-03    0.87541E-06  8424   0.194E-04 0.298E-04
CGA: 153    -0.666689216677E+03   -0.60119E-04    0.65067E-06  8424   0.194E-04 0.966E-05
CGA: 154    -0.666689321288E+03   -0.10461E-03    0.82032E-06  8424   0.186E-04 0.287E-04
CGA: 155    -0.666689364970E+03   -0.43682E-04    0.88725E-06  8424   0.186E-04 0.939E-05
CGA: 156    -0.666689424038E+03   -0.59068E-04    0.60742E-06  8424   0.188E-04 0.893E-05
CGA: 157    -0.666689526742E+03   -0.10270E-03    0.75525E-06  8424   0.178E-04 0.274E-04
CGA: 158    -0.666689569348E+03   -0.42606E-04    0.83697E-06  8424   0.179E-04 0.869E-05
CGA: 159    -0.666689670267E+03   -0.10092E-03    0.70108E-06  8424   0.171E-04 0.262E-04
CGA: 160    -0.666689727654E+03   -0.57387E-04    0.52075E-06  8424   0.170E-04 0.846E-05
CGA: 161    -0.666689826490E+03   -0.98836E-04    0.65198E-06  8424   0.164E-04 0.250E-04
CGA: 162    -0.666689867903E+03   -0.41414E-04    0.71131E-06  8424   0.160E-04 0.829E-05
CGA: 163    -0.666689924033E+03   -0.56130E-04    0.46618E-06  8424   0.158E-04 0.823E-05
CGA: 164    -0.666689965133E+03   -0.41100E-04    0.66385E-06  8424   0.157E-04 0.811E-05
CGA: 165    -0.666690020591E+03   -0.55458E-04    0.44830E-06  8424   0.156E-04 0.787E-05
CGA: 166    -0.666690061290E+03   -0.40698E-04    0.65633E-06  8424   0.158E-04 0.752E-05
CGA: 167    -0.666690157451E+03   -0.96162E-04    0.55845E-06  8424   0.150E-04 0.230E-04
CGA: 168    -0.666690211919E+03   -0.54468E-04    0.41371E-06  8424   0.151E-04 0.724E-05
CGA: 169    -0.666690306754E+03   -0.94835E-04    0.52210E-06  8424   0.143E-04 0.221E-04
CGA: 170    -0.666690346128E+03   -0.39374E-04    0.55563E-06  8424   0.145E-04 0.699E-05
CGA: 171    -0.666690439818E+03   -0.93690E-04    0.48427E-06  8424   0.136E-04 0.212E-04
CGA: 172    -0.666690492617E+03   -0.52799E-04    0.35071E-06  8424   0.137E-04 0.678E-05
CGA: 173    -0.666690584328E+03   -0.91712E-04    0.44931E-06  8424   0.130E-04 0.202E-04
CGA: 174    -0.666690622668E+03   -0.38340E-04    0.46634E-06  8424   0.130E-04 0.660E-05
CGA: 175    -0.666690674512E+03   -0.51843E-04    0.32288E-06  8424   0.130E-04 0.631E-05
CGA: 176    -0.666690764184E+03   -0.89673E-04    0.40462E-06  8424   0.124E-04 0.191E-04
CGA: 177    -0.666690801688E+03   -0.37503E-04    0.43181E-06  8424   0.123E-04 0.614E-05
CGA: 178    -0.666690889745E+03   -0.88057E-04    0.37082E-06  8424   0.119E-04 0.181E-04
CGA: 179    -0.666690939935E+03   -0.50190E-04    0.27507E-06  8424   0.116E-04 0.598E-05
CGA: 180    -0.666690976843E+03   -0.36908E-04    0.38034E-06  8424   0.115E-04 0.593E-05
CGA: 181    -0.666691026475E+03   -0.49631E-04    0.25860E-06  8424   0.113E-04 0.583E-05
CGA: 182    -0.666691063073E+03   -0.36599E-04    0.36339E-06  8424   0.113E-04 0.565E-05
CGA: 183    -0.666691148909E+03   -0.85836E-04    0.32160E-06  8424   0.108E-04 0.167E-04
CGA: 184    -0.666691197591E+03   -0.48682E-04    0.23505E-06  8424   0.108E-04 0.544E-05
CGA: 185    -0.666691233407E+03   -0.35815E-04    0.33651E-06  8424   0.109E-04 0.517E-05
CGA: 186    -0.666691318116E+03   -0.84709E-04    0.29284E-06  8424   0.104E-04 0.159E-04
CGA: 187    -0.666691365967E+03   -0.47851E-04    0.21753E-06  8424   0.104E-04 0.500E-05
CGA: 188    -0.666691448974E+03   -0.83007E-04    0.27105E-06  8424   0.989E-05 0.152E-04
CGA: 189    -0.666691483855E+03   -0.34881E-04    0.28420E-06  8424   0.991E-05 0.482E-05
CGA: 190    -0.666691565935E+03   -0.82080E-04    0.25041E-06  8424   0.945E-05 0.145E-04
CGA: 191    -0.666691612269E+03   -0.46334E-04    0.18509E-06  8424   0.938E-05 0.469E-05
CGA: 192    -0.666691692528E+03   -0.80259E-04    0.23125E-06  8424   0.903E-05 0.138E-04
CGA: 193    -0.666691726664E+03   -0.34136E-04    0.23906E-06  8424   0.885E-05 0.457E-05
CGA: 194    -0.666691772016E+03   -0.45353E-04    0.16519E-06  8424   0.871E-05 0.454E-05
CGA: 195    -0.666691805881E+03   -0.33865E-04    0.22344E-06  8424   0.862E-05 0.448E-05
CGA: 196    -0.666691850795E+03   -0.44913E-04    0.15765E-06  8424   0.858E-05 0.436E-05
CGA: 197    -0.666691884309E+03   -0.33514E-04    0.21881E-06  8424   0.861E-05 0.419E-05
CGA: 198    -0.666691962702E+03   -0.78393E-04    0.19631E-06  8424   0.820E-05 0.126E-04
CGA: 199    -0.666692006829E+03   -0.44127E-04    0.14474E-06  8424   0.826E-05 0.404E-05
CGA: 200    -0.666692084130E+03   -0.77300E-04    0.18376E-06  8424   0.784E-05 0.122E-04
   3 F= -.66669208E+03 E0= -.66669208E+03  d E =-.627451E-01  mag=     6.0000
       N       E                     dE             d eps       ncg     rms          ort
SDA:   1    -0.637677088049E+03    0.29015E+02    0.00000E+00  8424   0.818E+02 0.000E+00
CGA:   2    -0.657458147465E+03   -0.19781E+02   -0.19794E+02  8424   0.382E+02 0.970E-01
CGA:   3    -0.664704304797E+03   -0.72462E+01   -0.72470E+01  8424   0.996E+01 0.237E-01
CGA:   4    -0.666425224853E+03   -0.17209E+01   -0.17228E+01  8424   0.243E+01-0.172E-02
CGA:   5    -0.666843924822E+03   -0.41870E+00   -0.41901E+00  8424   0.521E+00 0.906E-03
CGA:   6    -0.666947978462E+03   -0.10405E+00   -0.10403E+00  8424   0.137E+00-0.334E-03
CGA:   7    -0.666980056630E+03   -0.32078E-01   -0.32071E-01  8424   0.465E-01-0.300E-03
CGA:   8    -0.666992304533E+03   -0.12248E-01   -0.12250E-01  8424   0.173E-01 0.709E-03
CGA:   9    -0.666997305610E+03   -0.50011E-02   -0.50000E-02  8424   0.677E-02 0.548E-04
CGA:  10    -0.666999375582E+03   -0.20700E-02   -0.20589E-02  8424   0.254E-02 0.314E-03
CGA:  11    -0.667000185467E+03   -0.80989E-03   -0.80726E-03  8424   0.902E-03 0.758E-04
CGA:  12    -0.667000506641E+03   -0.32117E-03   -0.31592E-03  8424   0.474E-03 0.741E-04
CGA:  13    -0.667000780709E+03   -0.27407E-03   -0.29261E-03  8424   0.672E-03-0.689E-04
CGA:  14    -0.667000923696E+03   -0.14299E-03   -0.54133E-03  8424   0.276E-02-0.648E-03
CGA:  15    -0.667001506712E+03   -0.58302E-03   -0.56605E-03  8424   0.102E-02-0.144E-03
CGA:  16    -0.667001860097E+03   -0.35339E-03   -0.40909E-03  8424   0.988E-03-0.523E-03
CGA:  17    -0.667002070458E+03   -0.21036E-03   -0.19130E-03  8424   0.363E-03-0.149E-03
CGA:  18    -0.667002279748E+03   -0.20929E-03    0.64943E-03  8424   0.194E-03-0.488E-04
CGA:  19    -0.667002505953E+03   -0.22621E-03    0.23256E-04  8424   0.104E-03 0.102E-03
CGA:  20    -0.667002638827E+03   -0.13287E-03    0.15891E-04  8424   0.754E-04 0.493E-04
CGA:  21    -0.667002829551E+03   -0.19072E-03    0.10223E-04  8424   0.737E-04 0.740E-04
CGA:  22    -0.667002946182E+03   -0.11663E-03    0.77228E-05  8424   0.647E-04 0.463E-04
CGA:  23    -0.667003047288E+03   -0.10111E-03    0.68987E-05  8424   0.861E-04 0.319E-04
CGA:  24    -0.667003300733E+03   -0.25344E-03    0.95518E-05  8424   0.546E-04 0.119E-03
CGA:  25    -0.667003407186E+03   -0.10645E-03    0.41177E-05  8424   0.613E-04 0.403E-04
CGA:  26    -0.667003497903E+03   -0.90717E-04    0.71847E-05  8424   0.860E-04 0.250E-04
CGA:  27    -0.667003746602E+03   -0.24870E-03    0.84709E-05  8424   0.558E-04 0.114E-03
CGA:  28    -0.667003849478E+03   -0.10288E-03    0.45707E-05  8424   0.687E-04 0.293E-04
CGA:  29    -0.667003930965E+03   -0.81487E-04    0.12317E-04  8424   0.108E-03 0.514E-05
CGA:  30    -0.667004183932E+03   -0.25297E-03    0.75127E-05  8424   0.940E-04 0.111E-03
CGA:  31    -0.667004285462E+03   -0.10153E-03    0.20809E-04  8424   0.157E-03-0.340E-04
CGA:  32    -0.667004525929E+03   -0.24047E-03    0.56581E-05  8424   0.223E-03 0.828E-04
CGA:  33    -0.667004589641E+03   -0.63712E-04   -0.56701E-04  8424   0.184E-03-0.115E-03
CGA:  34    -0.667004164386E+03    0.42526E-03   -0.17823E-03  8424   0.650E-02-0.920E-03
CGA:  35    -0.667004927507E+03   -0.76312E-03   -0.79360E-03  8424   0.739E-04 0.138E-03
CGA:  36    -0.667005025082E+03   -0.97575E-04    0.13479E-04  8424   0.767E-04-0.207E-05
CGA:  37    -0.667005221589E+03   -0.19651E-03    0.42346E-05  8424   0.859E-04 0.664E-04
CGA:  38    -0.667005312293E+03   -0.90704E-04    0.24768E-04  8424   0.606E-04-0.588E-06
CGA:  39    -0.667005473498E+03   -0.16120E-03    0.33410E-05  8424   0.599E-04 0.567E-04
CGA:  40    -0.667005572109E+03   -0.98612E-04    0.68523E-05  8424   0.405E-04 0.205E-04
CGA:  41    -0.667005724008E+03   -0.15190E-03    0.28476E-05  8424   0.470E-04 0.518E-04
CGA:  42    -0.667005815856E+03   -0.91848E-04    0.40836E-05  8424   0.344E-04 0.268E-04
CGA:  43    -0.667005907092E+03   -0.91236E-04    0.19416E-05  8424   0.321E-04 0.310E-04
CGA:  44    -0.667005996448E+03   -0.89356E-04    0.16937E-05  8424   0.314E-04 0.313E-04
CGA:  45    -0.667006085914E+03   -0.89467E-04    0.16043E-05  8424   0.309E-04 0.310E-04
CGA:  46    -0.667006174902E+03   -0.88987E-04    0.15587E-05  8424   0.305E-04 0.306E-04
CGA:  47    -0.667006263247E+03   -0.88345E-04    0.15233E-05  8424   0.301E-04 0.302E-04
CGA:  48    -0.667006351927E+03   -0.88681E-04    0.14697E-05  8424   0.297E-04 0.297E-04
CGA:  49    -0.667006438662E+03   -0.86735E-04    0.14701E-05  8424   0.294E-04 0.292E-04
CGA:  50    -0.667006527766E+03   -0.89104E-04    0.13939E-05  8424   0.297E-04 0.285E-04
CGA:  51    -0.667006610831E+03   -0.83064E-04    0.15593E-05  8424   0.322E-04 0.267E-04
CGA:  52    -0.667006702515E+03   -0.91685E-04    0.16463E-05  8424   0.442E-04 0.203E-04
CGA:  53    -0.667006769422E+03   -0.66907E-04    0.58209E-05  8424   0.987E-04-0.603E-05
CGA:  54    -0.667007041442E+03   -0.27202E-03    0.37702E-05  8424   0.128E-03 0.819E-04
CGA:  55    -0.667003805395E+03    0.32360E-02   -0.17846E-02  8424   0.376E-01-0.192E-02
CGA:  56    -0.667007632541E+03   -0.38271E-02   -0.39517E-02  8424   0.573E-04 0.528E-03
CGA:  57    -0.667007733237E+03   -0.10070E-03    0.35109E-04  8424   0.324E-03-0.702E-04
CGA:  58    -0.667007817065E+03   -0.83829E-04   -0.55396E-04  8424   0.686E-04-0.690E-04
CGA:  59    -0.667007938616E+03   -0.12155E-03    0.15269E-04  8424   0.204E-03-0.301E-04
CGA:  60    -0.667008559234E+03   -0.62062E-03    0.84851E-05  8424   0.193E-03 0.639E-04
CGA:  61    -0.667009191669E+03   -0.63243E-03    0.58949E-04  8424   0.111E-02-0.209E-03
CGA:  62    -0.667009331618E+03   -0.13995E-03   -0.13649E-03  8424   0.339E-04-0.770E-05
CGA:  63    -0.667009460688E+03   -0.12907E-03    0.35999E-05  8424   0.643E-04-0.777E-05
CGA:  64    -0.667009755179E+03   -0.29449E-03    0.29962E-05  8424   0.115E-03 0.187E-04
CGA:  65    -0.667010483282E+03   -0.72810E-03    0.11290E-04  8424   0.814E-04 0.695E-04
CGA:  66    -0.667010572622E+03   -0.89341E-04    0.15901E-02  8424   0.302E-03-0.114E-03
CGA:  67    -0.667010629107E+03   -0.56485E-04   -0.51616E-04  8424   0.271E-04-0.133E-04
CGA:  68    -0.667010732188E+03   -0.10308E-03    0.24121E-05  8424   0.652E-04-0.803E-05
CGA:  69    -0.667011072210E+03   -0.34002E-03    0.19663E-05  8424   0.940E-04 0.239E-04
CGA:  70    -0.667011648025E+03   -0.57582E-03    0.10242E-04  8424   0.231E-03 0.267E-05
CGA:  71    -0.667013148043E+03   -0.15000E-02    0.12320E-04  8424   0.441E-03-0.457E-04
CGA:  72    -0.667016282363E+03   -0.31343E-02    0.12364E-04  8424   0.107E-02-0.624E-04
CGA:  73    -0.667024434595E+03   -0.81522E-02    0.31879E-04  8424   0.135E-02-0.141E-02
CGA:  74    -0.667024650421E+03   -0.21583E-03   -0.26247E-03  8424   0.139E-03 0.138E-03
CGA:  75    -0.667024644389E+03    0.60322E-05   -0.19076E-04  8424   0.331E-04 0.654E-04
   4 F= -.66702464E+03 E0= -.66702464E+03  d E =-.332560E+00  mag=     6.0000
       N       E                     dE             d eps       ncg     rms          ort
SDA:   1    -0.665348864049E+03    0.16758E+01    0.00000E+00  8424   0.575E+01 0.000E+00
CGA:   2    -0.666478159141E+03   -0.11293E+01   -0.11313E+01  8424   0.225E+01 0.246E-02
CGA:   3    -0.666960088097E+03   -0.48193E+00   -0.48158E+00  8424   0.760E+00 0.230E-03
CGA:   4    -0.667088112504E+03   -0.12802E+00   -0.12821E+00  8424   0.183E+00 0.857E-03
CGA:   5    -0.667119843991E+03   -0.31731E-01   -0.31880E-01  8424   0.387E-01 0.797E-03
CGA:   6    -0.667127345082E+03   -0.75011E-02   -0.75139E-02  8424   0.909E-02 0.368E-03
CGA:   7    -0.667129163863E+03   -0.18188E-02   -0.18962E-02  8424   0.288E-02 0.614E-03
CGA:   8    -0.667129732353E+03   -0.56849E-03   -0.63620E-03  8424   0.893E-03 0.440E-03
CGA:   9    -0.667129912180E+03   -0.17983E-03   -0.21728E-03  8424   0.346E-03 0.259E-03
CGA:  10    -0.667129942784E+03   -0.30603E-04   -0.73000E-04  8424   0.169E-03 0.217E-03
CGA:  11    -0.667129941483E+03    0.13007E-05   -0.23118E-04  8424   0.105E-03 0.123E-03
CGA:  12    -0.667129932171E+03    0.93119E-05   -0.11293E-04  8424   0.877E-04 0.952E-04
   5 F= -.66712993E+03 E0= -.66712993E+03  d E =-.105288E+00  mag=     6.0000
       N       E                     dE             d eps       ncg     rms          ort
SDA:   1    -0.666453585109E+03    0.67636E+00    0.00000E+00  8424   0.218E+01 0.000E+00
CGA:   2    -0.666888986700E+03   -0.43540E+00   -0.43579E+00  8424   0.882E+00 0.225E-02
CGA:   3    -0.667077594966E+03   -0.18861E+00   -0.18851E+00  8424   0.295E+00-0.101E-02
CGA:   4    -0.667126780585E+03   -0.49186E-01   -0.49251E-01  8424   0.696E-01 0.493E-03
CGA:   5    -0.667138673958E+03   -0.11893E-01   -0.11966E-01  8424   0.142E-01 0.647E-03
CGA:   6    -0.667141497868E+03   -0.28239E-02   -0.28363E-02  8424   0.346E-02 0.129E-03
CGA:   7    -0.667142180887E+03   -0.68302E-03   -0.71649E-03  8424   0.931E-03 0.383E-03
CGA:   8    -0.667142357415E+03   -0.17653E-03   -0.20387E-03  8424   0.300E-03 0.286E-03
CGA:   9    -0.667142389437E+03   -0.32022E-04   -0.60381E-04  8424   0.153E-03 0.211E-03
CGA:  10    -0.667142386567E+03    0.28699E-05   -0.17606E-04  8424   0.108E-03 0.123E-03
CGA:  11    -0.667142378449E+03    0.81176E-05   -0.10060E-04  8424   0.950E-04 0.101E-03
   6 F= -.66714238E+03 E0= -.66714238E+03  d E =-.124463E-01  mag=     6.0000
       N       E                     dE             d eps       ncg     rms          ort
SDA:   1    -0.666535865598E+03    0.60652E+00    0.00000E+00  8424   0.169E+01 0.000E+00
CGA:   2    -0.666929349020E+03   -0.39348E+00   -0.39353E+00  8424   0.813E+00 0.185E-02
CGA:   3    -0.667090884125E+03   -0.16154E+00   -0.16145E+00  8424   0.224E+00-0.167E-02
CGA:   4    -0.667127626820E+03   -0.36743E-01   -0.36760E-01  8424   0.503E-01 0.152E-03
CGA:   5    -0.667136210604E+03   -0.85838E-02   -0.86199E-02  8424   0.107E-01 0.470E-03
CGA:   6    -0.667138368187E+03   -0.21576E-02   -0.21654E-02  8424   0.264E-02 0.186E-03
CGA:   7    -0.667138906935E+03   -0.53875E-03   -0.55047E-03  8424   0.746E-03 0.328E-03
CGA:   8    -0.667139065111E+03   -0.15818E-03   -0.16802E-03  8424   0.277E-03 0.255E-03
CGA:   9    -0.667139104466E+03   -0.39355E-04   -0.56980E-04  8424   0.156E-03 0.211E-03
CGA:  10    -0.667139107408E+03   -0.29425E-05   -0.17840E-04  8424   0.111E-03 0.126E-03
CGA:  11    -0.667139104169E+03    0.32393E-05   -0.10543E-04  8424   0.985E-04 0.104E-03
   7 F= -.66713910E+03 E0= -.66713910E+03  d E =0.327428E-02  mag=     6.0000
       N       E                     dE             d eps       ncg     rms          ort
SDA:   1    -0.648599432784E+03    0.18540E+02    0.00000E+00  8424   0.552E+02 0.000E+00
CGA:   2    -0.660234631341E+03   -0.11635E+02   -0.11636E+02  8424   0.238E+02 0.179E+00
CGA:   3    -0.665171058444E+03   -0.49364E+01   -0.49361E+01  8424   0.708E+01-0.279E-01
CGA:   4    -0.666345242920E+03   -0.11742E+01   -0.11744E+01  8424   0.170E+01 0.193E-04
CGA:   5    -0.666641670942E+03   -0.29643E+00   -0.29656E+00  8424   0.354E+00 0.287E-02
CGA:   6    -0.666712173896E+03   -0.70503E-01   -0.70503E-01  8424   0.835E-01-0.133E-04
CGA:   7    -0.666731112520E+03   -0.18939E-01   -0.18918E-01  8424   0.249E-01 0.114E-02
CGA:   8    -0.666737403682E+03   -0.62912E-02   -0.62695E-02  8424   0.782E-02 0.548E-03
CGA:   9    -0.666739654608E+03   -0.22509E-02   -0.22539E-02  8424   0.292E-02-0.427E-04
CGA:  10    -0.666740473391E+03   -0.81878E-03   -0.79360E-03  8424   0.106E-02 0.430E-03
CGA:  11    -0.666740812832E+03   -0.33944E-03   -0.32655E-03  8424   0.364E-03 0.252E-03
CGA:  12    -0.666740916051E+03   -0.10322E-03   -0.10205E-03  8424   0.161E-03 0.186E-03
CGA:  13    -0.666740952305E+03   -0.36254E-04   -0.36006E-04  8424   0.922E-04 0.101E-03
CGA:  14    -0.666740985751E+03   -0.33446E-04   -0.27482E-04  8424   0.726E-04 0.767E-04
CGA:  15    -0.666740995074E+03   -0.93224E-05   -0.12685E-04  8424   0.650E-04 0.675E-04
CGA:  16    -0.666741013523E+03   -0.18449E-04   -0.16500E-04  8424   0.579E-04 0.610E-04
CGA:  17    -0.666741024455E+03   -0.10932E-04   -0.11916E-04  8424   0.532E-04 0.553E-04
CGA:  18    -0.666741039584E+03   -0.15130E-04   -0.13531E-04  8424   0.484E-04 0.506E-04
CGA:  19    -0.666741050073E+03   -0.10488E-04   -0.10674E-04  8424   0.450E-04 0.466E-04
CGA:  20    -0.666741065173E+03   -0.15100E-04   -0.12643E-04  8424   0.413E-04 0.429E-04
CGA:  21    -0.666741074591E+03   -0.94183E-05   -0.93951E-05  8424   0.388E-04 0.398E-04
CGA:  22    -0.666741095332E+03   -0.20741E-04   -0.14937E-04  8424   0.359E-04 0.364E-04
CGA:  23    -0.666741099374E+03   -0.40425E-05   -0.61759E-05  8424   0.341E-04 0.337E-04
CGA:  24    -0.666741178821E+03   -0.79447E-04   -0.76645E-04  8424   0.109E-03 0.222E-04
CGA:  25    -0.666741172173E+03    0.66480E-05   -0.84887E-05  8424   0.291E-04 0.439E-04
   8 F= -.66674117E+03 E0= -.66674117E+03  d E =0.397932E+00  mag=     6.0000
       N       E                     dE             d eps       ncg     rms          ort
SDA:   1    -0.655683787610E+03    0.11057E+02    0.00000E+00  8424   0.367E+02 0.000E+00
CGA:   2    -0.662959778960E+03   -0.72760E+01   -0.73108E+01  8424   0.147E+02-0.298E-01
CGA:   3    -0.666057365069E+03   -0.30976E+01   -0.30918E+01  8424   0.465E+01 0.123E-01
CGA:   4    -0.666848949473E+03   -0.79158E+00   -0.79255E+00  8424   0.116E+01 0.528E-03
CGA:   5    -0.667050100496E+03   -0.20115E+00   -0.20152E+00  8424   0.242E+00 0.786E-03
CGA:   6    -0.667098153758E+03   -0.48053E-01   -0.47859E-01  8424   0.555E-01-0.121E-02
CGA:   7    -0.667110539997E+03   -0.12386E-01   -0.12465E-01  8424   0.162E-01 0.659E-03
CGA:   8    -0.667114563505E+03   -0.40235E-02   -0.40392E-02  8424   0.491E-02 0.168E-03
CGA:   9    -0.667115936922E+03   -0.13734E-02   -0.13675E-02  8424   0.174E-02-0.103E-03
CGA:  10    -0.667116435688E+03   -0.49877E-03   -0.50207E-03  8424   0.701E-03 0.896E-04
CGA:  11    -0.667116693113E+03   -0.25743E-03   -0.25815E-03  8424   0.336E-03-0.359E-04
CGA:  12    -0.667116764534E+03   -0.71422E-04   -0.79205E-04  8424   0.149E-03 0.945E-04
CGA:  13    -0.667116797619E+03   -0.33085E-04   -0.42790E-04  8424   0.933E-04 0.949E-04
CGA:  14    -0.667116824347E+03   -0.26728E-04   -0.27869E-04  8424   0.627E-04 0.509E-04
CGA:  15    -0.667116822943E+03    0.14040E-05   -0.86185E-05  8424   0.528E-04 0.548E-04
   9 F= -.66711682E+03 E0= -.66711682E+03  d E =-.375651E+00  mag=     6.0000
       N       E                     dE             d eps       ncg     rms          ort
SDA:   1    -0.667026257457E+03    0.90567E-01    0.00000E+00  8424   0.309E+00 0.000E+00
CGA:   2    -0.667087442513E+03   -0.61185E-01   -0.61217E-01  8424   0.124E+00 0.221E-03
CGA:   3    -0.667114191212E+03   -0.26749E-01   -0.26760E-01  8424   0.419E-01 0.975E-04
CGA:   4    -0.667121168550E+03   -0.69773E-02   -0.69929E-02  8424   0.992E-02 0.113E-03
CGA:   5    -0.667122856058E+03   -0.16875E-02   -0.17088E-02  8424   0.196E-02 0.181E-03
CGA:   6    -0.667123218519E+03   -0.36246E-03   -0.37739E-03  8424   0.458E-03 0.159E-03
CGA:   7    -0.667123296889E+03   -0.78370E-04   -0.91353E-04  8424   0.149E-03 0.139E-03
CGA:   8    -0.667123307332E+03   -0.10444E-04   -0.26179E-04  8424   0.819E-04 0.114E-03
CGA:   9    -0.667123305886E+03    0.14462E-05   -0.89800E-05  8424   0.593E-04 0.665E-04
  10 F= -.66712331E+03 E0= -.66712331E+03  d E =-.648294E-02  mag=     6.0000
       N       E                     dE             d eps       ncg     rms          ort
SDA:   1    -0.665048085465E+03    0.20752E+01    0.00000E+00  8424   0.620E+01 0.000E+00
CGA:   2    -0.666316250696E+03   -0.12682E+01   -0.12687E+01  8424   0.265E+01 0.619E-02
CGA:   3    -0.666878517740E+03   -0.56227E+00   -0.56220E+00  8424   0.848E+00-0.163E-02
CGA:   4    -0.667018560437E+03   -0.14004E+00   -0.14007E+00  8424   0.197E+00 0.213E-03
CGA:   5    -0.667052399203E+03   -0.33839E-01   -0.33913E-01  8424   0.390E-01 0.102E-02
CGA:   6    -0.667060176092E+03   -0.77769E-02   -0.77953E-02  8424   0.909E-02 0.456E-03
CGA:   7    -0.667062166632E+03   -0.19905E-02   -0.19997E-02  8424   0.246E-02 0.487E-03
CGA:   8    -0.667062717277E+03   -0.55065E-03   -0.55924E-03  8424   0.680E-03 0.435E-03
CGA:   9    -0.667062840502E+03   -0.12323E-03   -0.14212E-03  8424   0.255E-03 0.332E-03
CGA:  10    -0.667062852256E+03   -0.11754E-04   -0.42365E-04  8424   0.156E-03 0.255E-03
CGA:  11    -0.667062845792E+03    0.64645E-05   -0.13055E-04  8424   0.124E-03 0.137E-03
  11 F= -.66706285E+03 E0= -.66706285E+03  d E =0.604601E-01  mag=     6.0000
       N       E                     dE             d eps       ncg     rms          ort
SDA:   1    -0.665105123279E+03    0.19577E+01    0.00000E+00  8424   0.510E+01 0.000E+00
CGA:   2    -0.666338666604E+03   -0.12335E+01   -0.12334E+01  8424   0.250E+01 0.240E-02
CGA:   3    -0.666831058895E+03   -0.49239E+00   -0.49239E+00  8424   0.679E+00-0.622E-03
CGA:   4    -0.666941277025E+03   -0.11022E+00   -0.11025E+00  8424   0.152E+00 0.477E-03
CGA:   5    -0.666967513766E+03   -0.26237E-01   -0.26280E-01  8424   0.313E-01 0.118E-02
CGA:   6    -0.666973765653E+03   -0.62519E-02   -0.62609E-02  8424   0.764E-02 0.992E-03
CGA:   7    -0.666975459653E+03   -0.16940E-02   -0.16886E-02  8424   0.210E-02 0.745E-03
CGA:   8    -0.666975885761E+03   -0.42611E-03   -0.43771E-03  8424   0.652E-03 0.671E-03
CGA:   9    -0.666975965650E+03   -0.79889E-04   -0.11557E-03  8424   0.325E-03 0.493E-03
CGA:  10    -0.666975970244E+03   -0.45941E-05   -0.31994E-04  8424   0.224E-03 0.262E-03
CGA:  11    -0.666975961752E+03    0.84925E-05   -0.16740E-04  8424   0.190E-03 0.205E-03
CGA:  12    -0.666975950845E+03    0.10907E-04   -0.12007E-04  8424   0.169E-03 0.179E-03
CGA:  13    -0.666975939309E+03    0.11536E-04   -0.94136E-05  8424   0.155E-03 0.162E-03
CGA:  14    -0.666975927765E+03    0.11544E-04   -0.77273E-05  8424   0.145E-03 0.149E-03
CGA:  15    -0.666975916475E+03    0.11290E-04   -0.65274E-05  8424   0.137E-03 0.140E-03
CGA:  16    -0.666975905560E+03    0.10915E-04   -0.56237E-05  8424   0.130E-03 0.133E-03
CGA:  17    -0.666975895075E+03    0.10485E-04   -0.49156E-05  8424   0.124E-03 0.126E-03
CGA:  18    -0.666975885041E+03    0.10034E-04   -0.43443E-05  8424   0.119E-03 0.121E-03
CGA:  19    -0.666975875460E+03    0.95809E-05   -0.38731E-05  8424   0.115E-03 0.117E-03
  12 F= -.66697588E+03 E0= -.66697588E+03  d E =0.869703E-01  mag=     6.0000
       N       E                     dE             d eps       ncg     rms          ort
SDA:   1    -0.643808607609E+03    0.23167E+02    0.00000E+00  8424   0.773E+02 0.000E+00
CGA:   2    -0.658161787822E+03   -0.14353E+02   -0.14291E+02  8424   0.286E+02 0.100E+01
CGA:   3    -0.664519448177E+03   -0.63577E+01   -0.63700E+01  8424   0.943E+01-0.151E+00
CGA:   4    -0.666120202710E+03   -0.16008E+01   -0.16004E+01  8424   0.235E+01 0.675E-02
CGA:   5    -0.666521474900E+03   -0.40127E+00   -0.40107E+00  8424   0.488E+00 0.578E-02
CGA:   6    -0.666619967946E+03   -0.98493E-01   -0.98708E-01  8424   0.114E+00-0.390E-02
CGA:   7    -0.666645787385E+03   -0.25819E-01   -0.25715E-01  8424   0.331E-01 0.130E-02
CGA:   8    -0.666654125529E+03   -0.83381E-02   -0.82945E-02  8424   0.100E-01 0.455E-03
CGA:   9    -0.666657015946E+03   -0.28904E-02   -0.30685E-02  8424   0.446E-02-0.123E-02
CGA:  10    -0.666658149403E+03   -0.11335E-02   -0.11396E-02  8424   0.187E-02-0.504E-04
CGA:  11    -0.666658674660E+03   -0.52526E-03   -0.92795E-03  8424   0.242E-02-0.122E-02
CGA:  12    -0.666659069035E+03   -0.39438E-03   -0.40075E-03  8424   0.458E-03 0.291E-03
CGA:  13    -0.666658206614E+03    0.86242E-03   -0.48274E-03  8424   0.734E-02-0.146E-02
CGA:  14    -0.666659394866E+03   -0.11883E-02   -0.12522E-02  8424   0.133E-02 0.378E-03
CGA:  15    -0.666659778576E+03   -0.38371E-03   -0.36372E-03  8424   0.355E-03-0.282E-03
CGA:  16    -0.666659881622E+03   -0.10305E-03   -0.10471E-03  8424   0.334E-03-0.376E-04
CGA:  17    -0.666658027638E+03    0.18540E-02   -0.99949E-03  8424   0.197E-01-0.139E-02
CGA:  18    -0.666660429229E+03   -0.24016E-02   -0.24611E-02  8424   0.187E-02 0.279E-03
CGA:  19    -0.666661008008E+03   -0.57878E-03   -0.55080E-03  8424   0.239E-03-0.984E-04
CGA:  20    -0.666661080150E+03   -0.72142E-04   -0.82383E-04  8424   0.130E-03 0.503E-04
CGA:  21    -0.666657842256E+03    0.32379E-02   -0.17574E-02  8424   0.260E-01-0.126E-02
CGA:  22    -0.666660858267E+03   -0.30160E-02   -0.34341E-02  8424   0.257E-02 0.754E-03
CGA:  23    -0.666661707422E+03   -0.84915E-03   -0.82270E-03  8424   0.768E-03-0.419E-04
CGA:  24    -0.666662006186E+03   -0.29876E-03   -0.22462E-03  8424   0.453E-03-0.117E-03
CGA:  25    -0.666662097637E+03   -0.91451E-04   -0.10657E-03  8424   0.118E-03 0.232E-04
CGA:  26    -0.666662152670E+03   -0.55033E-04   -0.49023E-04  8424   0.154E-03-0.139E-04
CGA:  27    -0.666662421664E+03   -0.26899E-03    0.33920E-03  8424   0.439E-03-0.374E-04
CGA:  28    -0.666661802559E+03    0.61911E-03   -0.60769E-03  8424   0.101E-01-0.146E-02
CGA:  29    -0.666663772773E+03   -0.19702E-02   -0.19864E-02  8424   0.191E-02 0.290E-04
CGA:  30    -0.666664542543E+03   -0.76977E-03   -0.75172E-03  8424   0.130E-02-0.381E-04
CGA:  31    -0.666664712932E+03   -0.17039E-03   -0.30222E-03  8424   0.578E-03 0.131E-03
CGA:  32    -0.666663668619E+03    0.10443E-02   -0.99530E-04  8424   0.419E-02 0.567E-03
CGA:  33    -0.666653967583E+03    0.97010E-02   -0.65349E-03  8424   0.373E-01 0.450E-02
CGA:  34    -0.666595663900E+03    0.58304E-01   -0.69266E-02  8424   0.250E+00 0.323E-01
CGA:  35    -0.666483086618E+03    0.11258E+00   -0.69369E-01  8424   0.620E+00 0.127E+00
CGA:  36    -0.666444810433E+03    0.38276E-01   -0.19945E+00  8424   0.621E+00 0.208E+00
CGA:  37    -0.666247195164E+03    0.19762E+00   -0.18195E+00  8424   0.850E+00 0.459E+00
CGA:  38    -0.666359916840E+03   -0.11272E+00   -0.26900E+00  8424   0.596E+00 0.429E+00
CGA:  39    -0.666600299129E+03   -0.24038E+00   -0.27811E+00  8424   0.114E+00 0.319E-01
CGA:  40    -0.666635446050E+03   -0.35147E-01   -0.49083E-01  8424   0.147E-01 0.157E-01
CGA:  41    -0.666651500356E+03   -0.16054E-01   -0.16316E-01  8424   0.880E-02-0.178E-02
CGA:  42    -0.666655876718E+03   -0.43764E-02   -0.42762E-02  8424   0.148E-01-0.135E-02
CGA:  43    -0.666660264919E+03   -0.43882E-02   -0.36622E-02  8424   0.369E-02 0.795E-04
CGA:  44    -0.666662135827E+03   -0.18709E-02   -0.17473E-02  8424   0.586E-02-0.455E-03
CGA:  45    -0.666663163094E+03   -0.10273E-02   -0.97369E-03  8424   0.264E-02 0.508E-03
CGA:  46    -0.666663514916E+03   -0.35182E-03   -0.42656E-03  8424   0.157E-02 0.260E-03
CGA:  47    -0.666663974519E+03   -0.45960E-03   -0.49086E-03  8424   0.238E-02 0.154E-03
CGA:  48    -0.666664571926E+03   -0.59741E-03   -0.53536E-03  8424   0.140E-02-0.104E-03
CGA:  49    -0.666664904573E+03   -0.33265E-03   -0.25707E-03  8424   0.114E-02-0.197E-03
CGA:  50    -0.666665125917E+03   -0.22134E-03   -0.19909E-03  8424   0.104E-02-0.503E-04
CGA:  51    -0.666665250719E+03   -0.12480E-03   -0.14454E-03  8424   0.678E-03 0.705E-04
CGA:  52    -0.666665371770E+03   -0.12105E-03   -0.12837E-03  8424   0.651E-03 0.311E-04
CGA:  53    -0.666665574218E+03   -0.20245E-03   -0.16231E-03  8424   0.669E-03-0.170E-03
CGA:  54    -0.666665724208E+03   -0.14999E-03   -0.83599E-04  8424   0.494E-03-0.231E-03
CGA:  55    -0.666665807572E+03   -0.83364E-04   -0.45820E-04  8424   0.392E-03-0.126E-03
CGA:  56    -0.666665864435E+03   -0.56862E-04   -0.43027E-04  8424   0.391E-03-0.496E-04
CGA:  57    -0.666665944422E+03   -0.79987E-04   -0.66744E-04  8424   0.483E-03-0.596E-04
CGA:  58    -0.666666082380E+03   -0.13796E-03   -0.95674E-04  8424   0.504E-03-0.249E-03
CGA:  59    -0.666666192316E+03   -0.10994E-03   -0.39585E-03  8424   0.287E-02-0.729E-03
CGA:  60    -0.666666463861E+03   -0.27155E-03   -0.38977E-03  8424   0.145E-03 0.431E-03
CGA:  61    -0.666666474154E+03   -0.10293E-04   -0.24355E-04  8424   0.442E-04 0.556E-04
CGA:  62    -0.666666466526E+03    0.76283E-05   -0.55267E-04  8424   0.397E-03-0.122E-03
CGA:  63    -0.666666601277E+03   -0.13475E-03   -0.12368E-03  8424   0.130E-03-0.111E-03
CGA:  64    -0.666666630696E+03   -0.29419E-04   -0.25942E-04  8424   0.519E-04-0.267E-04
CGA:  65    -0.666666650461E+03   -0.19765E-04   -0.21258E-04  8424   0.614E-04-0.135E-04
CGA:  66    -0.666666765430E+03   -0.11497E-03    0.43752E-05  8424   0.383E-04 0.211E-04
CGA:  67    -0.666666847910E+03   -0.82480E-04    0.10728E-04  8424   0.335E-04 0.955E-05
CGA:  68    -0.666666917062E+03   -0.69152E-04    0.82431E-05  8424   0.399E-04 0.216E-04
CGA:  69    -0.666666981221E+03   -0.64159E-04    0.82705E-05  8424   0.437E-04-0.166E-04
CGA:  70    -0.666667018517E+03   -0.37296E-04    0.64840E-05  8424   0.505E-04 0.364E-05
CGA:  71    -0.666667089596E+03   -0.71079E-04    0.18571E-04  8424   0.427E-04 0.231E-04
CGA:  72    -0.666667228358E+03   -0.13876E-03    0.72126E-05  8424   0.680E-04 0.192E-05
CGA:  73    -0.666667446287E+03   -0.21793E-03    0.51956E-05  8424   0.937E-04 0.467E-04
CGA:  74    -0.666667445528E+03    0.75868E-06   -0.11335E-04  8424   0.252E-04 0.424E-04
  13 F= -.66666745E+03 E0= -.66666745E+03  d E =0.308430E+00  mag=     6.0000
       N       E                     dE             d eps       ncg     rms          ort
SDA:   1    -0.662297402671E+03    0.43700E+01    0.00000E+00  8424   0.152E+02 0.000E+00
CGA:   2    -0.665319695072E+03   -0.30223E+01   -0.30314E+01  8424   0.595E+01-0.530E-02
[...]
CGA:  20    -0.667714384193E+03   -0.33691E-03    0.16048E-04  8424   0.108E-03 0.660E-04
CGA:  21    -0.667714823051E+03   -0.43886E-03    0.11676E-04  8424   0.737E-04 0.124E-03
CGA:  22    -0.667714975501E+03   -0.15245E-03    0.80715E-05  8424   0.962E-04 0.108E-04
CGA:  23    -0.667715219725E+03   -0.24422E-03    0.10850E-04  8424   0.830E-04 0.412E-04
CGA:  24    -0.667715581748E+03   -0.36202E-03    0.73968E-05  8424   0.675E-04 0.897E-04
CGA:  25    -0.667715736403E+03   -0.15465E-03    0.63101E-05  8424   0.741E-04 0.120E-04
CGA:  26    -0.667715955184E+03   -0.21878E-03    0.71686E-05  8424   0.581E-04 0.390E-04
CGA:  27    -0.667716094111E+03   -0.13893E-03    0.51078E-05  8424   0.582E-04 0.161E-04
CGA:  28    -0.667716296552E+03   -0.20244E-03    0.54083E-05  8424   0.570E-04 0.353E-04
CGA:  29    -0.667716435764E+03   -0.13921E-03    0.48526E-05  8424   0.820E-04 0.372E-05
CGA:  30    -0.667716690529E+03   -0.25477E-03    0.58013E-05  8424   0.654E-04 0.358E-04
CGA:  31    -0.667717011945E+03   -0.32142E-03    0.50643E-05  8424   0.685E-04 0.692E-04
CGA:  32    -0.667717152344E+03   -0.14040E-03    0.76096E-05  8424   0.115E-03-0.152E-04
CGA:  33    -0.667717413759E+03   -0.26142E-03    0.59499E-05  8424   0.989E-04 0.160E-04
CGA:  34    -0.667717720413E+03   -0.30665E-03    0.82173E-05  8424   0.190E-03 0.137E-04
CGA:  35    -0.667718525948E+03   -0.80553E-03    0.10524E-04  8424   0.228E-03 0.105E-03
CGA:  36    -0.667718446662E+03    0.79286E-04   -0.18123E-03  8424   0.211E-02-0.628E-03
CGA:  37    -0.667718809880E+03   -0.36322E-03   -0.37858E-03  8424   0.689E-04 0.703E-04
CGA:  38    -0.667718941190E+03   -0.13131E-03    0.10055E-04  8424   0.108E-03-0.464E-04
CGA:  39    -0.667718978372E+03   -0.37182E-04   -0.32332E-04  8424   0.912E-04-0.546E-04
CGA:  40    -0.667719118090E+03   -0.13972E-03    0.17630E-04  8424   0.237E-03-0.104E-03
CGA:  41    -0.667719141349E+03   -0.23259E-04   -0.30455E-04  8424   0.202E-04 0.282E-04
CGA:  42    -0.667719226108E+03   -0.84759E-04    0.10344E-05  8424   0.400E-04 0.978E-05
CGA:  43    -0.667719523741E+03   -0.29763E-03    0.19189E-05  8424   0.355E-04 0.538E-04
CGA:  44    -0.667719624654E+03   -0.10091E-03    0.23289E-05  8424   0.514E-04-0.694E-05
CGA:  45    -0.667719841389E+03   -0.21674E-03    0.12684E-05  8424   0.576E-04 0.342E-04
CGA:  46    -0.667719911186E+03   -0.69796E-04    0.16951E-04  8424   0.639E-04-0.267E-04
CGA:  47    -0.667720098648E+03   -0.18746E-03    0.99872E-06  8424   0.708E-04 0.234E-04
CGA:  48    -0.667720411506E+03   -0.31286E-03    0.53439E-05  8424   0.560E-04 0.209E-04
CGA:  49    -0.667720707656E+03   -0.29615E-03    0.29973E-05  8424   0.581E-04 0.298E-04
CGA:  50    -0.667720801758E+03   -0.94102E-04    0.91179E-05  8424   0.528E-04-0.253E-04
CGA:  51    -0.667720951277E+03   -0.14952E-03    0.96236E-06  8424   0.496E-04 0.184E-04
CGA:  52    -0.667721173804E+03   -0.22253E-03    0.35660E-05  8424   0.375E-04 0.189E-04
CGA:  53    -0.667721431852E+03   -0.25805E-03    0.16868E-05  8424   0.410E-04 0.224E-04
CGA:  54    -0.667721505088E+03   -0.73236E-04    0.54217E-05  8424   0.337E-04-0.108E-04
CGA:  55    -0.667721642867E+03   -0.13778E-03    0.71188E-06  8424   0.309E-04 0.165E-04
CGA:  56    -0.667721854456E+03   -0.21159E-03    0.16486E-05  8424   0.237E-04 0.230E-04
CGA:  57    -0.667721920263E+03   -0.65806E-04    0.16041E-05  8424   0.346E-04-0.559E-05
CGA:  58    -0.667722097740E+03   -0.17748E-03    0.61051E-06  8424   0.399E-04 0.245E-04
CGA:  59    -0.667722180123E+03   -0.82383E-04    0.41702E-05  8424   0.706E-04-0.300E-04
CGA:  60    -0.667722138011E+03    0.42113E-04   -0.53998E-04  8424   0.112E-02-0.244E-03
CGA:  61    -0.667722357236E+03   -0.21923E-03   -0.18281E-03  8424   0.405E-04-0.160E-03
CGA:  62    -0.667722428153E+03   -0.70917E-04    0.39039E-05  8424   0.589E-04-0.198E-04
CGA:  63    -0.667722605272E+03   -0.17712E-03    0.85082E-06  8424   0.387E-04 0.259E-04
CGA:  64    -0.667722795329E+03   -0.19006E-03    0.30352E-05  8424   0.122E-03-0.325E-04
CGA:  65    -0.667722833523E+03   -0.38193E-04   -0.27015E-04  8424   0.676E-04-0.706E-04
CGA:  66    -0.667722887283E+03   -0.53760E-04    0.17810E-03  8424   0.236E-03-0.105E-03
CGA:  67    -0.667722937536E+03   -0.50253E-04   -0.37736E-04  8424   0.305E-04-0.591E-04
CGA:  68    -0.667723007890E+03   -0.70354E-04    0.12639E-05  8424   0.246E-04-0.347E-06
CGA:  69    -0.667723140883E+03   -0.13299E-03    0.66815E-06  8424   0.151E-04 0.126E-04
CGA:  70    -0.667723184965E+03   -0.44082E-04    0.88944E-06  8424   0.414E-04-0.574E-05
CGA:  71    -0.667723408158E+03   -0.22319E-03    0.41760E-06  8424   0.100E-03 0.201E-04
CGA:  72    -0.667724085460E+03   -0.67730E-03    0.50825E-05  8424   0.172E-03-0.702E-05
CGA:  73    -0.667725261838E+03   -0.11764E-02    0.31548E-05  8424   0.827E-04 0.131E-03
CGA:  74    -0.667725267256E+03   -0.54184E-05   -0.84278E-05  8424   0.616E-05 0.116E-04
  44 F= -.66772527E+03 E0= -.66772527E+03  d E =0.349086E-01  mag=     6.0000
       N       E                     dE             d eps       ncg     rms          ort
SDA:   1    -0.661318895192E+03    0.64064E+01    0.00000E+00  8424   0.213E+02 0.000E+00
CGA:   2    -0.665551797762E+03   -0.42329E+01   -0.42441E+01  8424   0.839E+01 0.277E-02
CGA:   3    -0.667306270501E+03   -0.17545E+01   -0.17525E+01  8424   0.275E+01-0.129E-02
CGA:   4    -0.667769237224E+03   -0.46297E+00   -0.46317E+00  8424   0.678E+00 0.780E-04
CGA:   5    -0.667888259996E+03   -0.11902E+00   -0.11931E+00  8424   0.140E+00 0.142E-02
CGA:   6    -0.667916347439E+03   -0.28087E-01   -0.28047E-01  8424   0.310E-01-0.343E-03
CGA:   7    -0.667923274400E+03   -0.69270E-02   -0.69657E-02  8424   0.918E-02 0.440E-03
CGA:   8    -0.667925549408E+03   -0.22750E-02   -0.22878E-02  8424   0.269E-02 0.204E-03
CGA:   9    -0.667926297722E+03   -0.74831E-03   -0.74964E-03  8424   0.912E-03 0.395E-04
CGA:  10    -0.667926503557E+03   -0.20584E-03   -0.22172E-03  8424   0.332E-03 0.248E-03
CGA:  11    -0.667926577587E+03   -0.74030E-04   -0.89547E-04  8424   0.142E-03 0.176E-03
CGA:  12    -0.667926595218E+03   -0.17631E-04   -0.26955E-04  8424   0.776E-04 0.876E-04
CGA:  13    -0.667926592714E+03    0.25035E-05   -0.95026E-05  8424   0.666E-04 0.713E-04
  45 F= -.66792659E+03 E0= -.66792659E+03  d E =-.201325E+00  mag=     6.0000
       N       E                     dE             d eps       ncg     rms          ort
SDA:   1    -0.667746956888E+03    0.17964E+00    0.00000E+00  8424   0.635E+00 0.000E+00
CGA:   2    -0.667880308137E+03   -0.13335E+00   -0.13339E+00  8424   0.274E+00 0.489E-03
CGA:   3    -0.667936311058E+03   -0.56003E-01   -0.55965E-01  8424   0.867E-01-0.610E-03
CGA:   4    -0.667950817294E+03   -0.14506E-01   -0.14513E-01  8424   0.208E-01 0.620E-04
CGA:   5    -0.667954271262E+03   -0.34540E-02   -0.34992E-02  8424   0.410E-02 0.479E-03
CGA:   6    -0.667955026398E+03   -0.75514E-03   -0.78023E-03  8424   0.918E-03 0.350E-03
CGA:   7    -0.667955190636E+03   -0.16424E-03   -0.18158E-03  8424   0.271E-03 0.242E-03
CGA:   8    -0.667955217797E+03   -0.27160E-04   -0.47347E-04  8424   0.125E-03 0.180E-03
CGA:   9    -0.667955216554E+03    0.12426E-05   -0.12698E-04  8424   0.830E-04 0.974E-04
  46 F= -.66795522E+03 E0= -.66795522E+03  d E =-.286238E-01  mag=     6.0000
       N       E                     dE             d eps       ncg     rms          ort
SDA:   1    -0.667418530254E+03    0.53669E+00    0.00000E+00  8424   0.169E+01 0.000E+00
CGA:   2    -0.667792157653E+03   -0.37363E+00   -0.37364E+00  8424   0.759E+00 0.938E-03
CGA:   3    -0.667944219659E+03   -0.15206E+00   -0.15203E+00  8424   0.225E+00-0.126E-02
CGA:   4    -0.667981795674E+03   -0.37576E-01   -0.37570E-01  8424   0.544E-01-0.106E-03
CGA:   5    -0.667991044726E+03   -0.92491E-02   -0.92963E-02  8424   0.108E-01 0.873E-03
CGA:   6    -0.667993093586E+03   -0.20489E-02   -0.20724E-02  8424   0.240E-02 0.709E-03
CGA:   7    -0.667993581473E+03   -0.48789E-03   -0.49926E-03  8424   0.679E-03 0.452E-03
CGA:   8    -0.667993687622E+03   -0.10615E-03   -0.12769E-03  8424   0.258E-03 0.355E-03
CGA:   9    -0.667993696167E+03   -0.85448E-05   -0.28418E-04  8424   0.153E-03 0.188E-03
CGA:  10    -0.667993689243E+03    0.69238E-05   -0.11663E-04  8424   0.127E-03 0.138E-03
  47 F= -.66799369E+03 E0= -.66799369E+03  d E =-.384727E-01  mag=     6.0000
       N       E                     dE             d eps       ncg     rms          ort
SDA:   1    -0.667939248052E+03    0.54448E-01    0.00000E+00  8424   0.251E+00 0.000E+00
CGA:   2    -0.667997992785E+03   -0.58745E-01   -0.58714E-01  8424   0.116E+00 0.816E-03
CGA:   3    -0.668020956121E+03   -0.22963E-01   -0.22963E-01  8424   0.328E-01 0.277E-03
CGA:   4    -0.668026309261E+03   -0.53531E-02   -0.53571E-02  8424   0.787E-02 0.107E-03
CGA:   5    -0.668027628198E+03   -0.13189E-02   -0.13304E-02  8424   0.145E-02 0.406E-03
CGA:   6    -0.668027843168E+03   -0.21497E-03   -0.23372E-03  8424   0.367E-03 0.444E-03
CGA:   7    -0.668027869020E+03   -0.25851E-04   -0.50265E-04  8424   0.174E-03 0.276E-03
CGA:   8    -0.668027866968E+03    0.20519E-05   -0.13608E-04  8424   0.122E-03 0.142E-03
  48 F= -.66802787E+03 E0= -.66802787E+03  d E =-.341777E-01  mag=     6.0000
       N       E                     dE             d eps       ncg     rms          ort
SDA:   1    -0.658174885352E+03    0.98530E+01    0.00000E+00  8424   0.302E+02 0.000E+00
CGA:   2    -0.664527449740E+03   -0.63526E+01   -0.63467E+01  8424   0.128E+02 0.128E+00
CGA:   3    -0.667160842002E+03   -0.26334E+01   -0.26344E+01  8424   0.398E+01-0.277E-01
CGA:   4    -0.667818810630E+03   -0.65797E+00   -0.65804E+00  8424   0.958E+00 0.201E-02
CGA:   5    -0.667985366945E+03   -0.16656E+00   -0.16656E+00  8424   0.199E+00 0.478E-03
CGA:   6    -0.668024980826E+03   -0.39614E-01   -0.39651E-01  8424   0.494E-01-0.190E-02
CGA:   7    -0.668035613350E+03   -0.10633E-01   -0.10598E-01  8424   0.142E-01 0.952E-03
CGA:   8    -0.668039273958E+03   -0.36606E-02   -0.36535E-02  8424   0.454E-02 0.981E-04
CGA:   9    -0.668040580673E+03   -0.13067E-02   -0.13405E-02  8424   0.183E-02-0.314E-03
CGA:  10    -0.668041144843E+03   -0.56417E-03   -0.62788E-03  8424   0.111E-02-0.361E-03
CGA:  11    -0.668041414267E+03   -0.26942E-03   -0.39944E-03  8424   0.972E-03-0.528E-03
CGA:  12    -0.668041552506E+03   -0.13824E-03   -0.14279E-03  8424   0.493E-03-0.701E-04
CGA:  13    -0.668041718724E+03   -0.16622E-03   -0.21870E-03  8424   0.700E-03-0.204E-03
CGA:  14    -0.668041846979E+03   -0.12826E-03   -0.14625E-03  8424   0.711E-03-0.150E-03
CGA:  15    -0.668042030208E+03   -0.18323E-03   -0.19456E-03  8424   0.634E-03-0.113E-03
CGA:  16    -0.668042201782E+03   -0.17157E-03   -0.27002E-03  8424   0.842E-03-0.391E-03
CGA:  17    -0.668042397002E+03   -0.19522E-03   -0.19695E-03  8424   0.234E-03 0.865E-04
CGA:  18    -0.668042483994E+03   -0.86992E-04   -0.89597E-04  8424   0.157E-03-0.281E-04
CGA:  19    -0.668042538270E+03   -0.54276E-04   -0.50438E-04  8424   0.101E-03 0.350E-04
CGA:  20    -0.668042326503E+03    0.21177E-03   -0.12588E-03  8424   0.212E-02-0.317E-03
CGA:  21    -0.668042663586E+03   -0.33708E-03   -0.36499E-03  8424   0.384E-03 0.934E-04
CGA:  22    -0.668042837817E+03   -0.17423E-03   -0.16641E-03  8424   0.250E-03-0.160E-03
CGA:  23    -0.668042873515E+03   -0.35699E-04   -0.36726E-04  8424   0.156E-03 0.460E-05
CGA:  24    -0.668042149301E+03    0.72421E-03   -0.32606E-03  8424   0.372E-02-0.662E-03
CGA:  25    -0.668043259791E+03   -0.11105E-02   -0.10480E-02  8424   0.955E-03-0.251E-03
CGA:  26    -0.668043371768E+03   -0.11198E-03   -0.14820E-03  8424   0.134E-03 0.104E-03
CGA:  27    -0.668043430149E+03   -0.58382E-04   -0.57246E-04  8424   0.163E-03-0.102E-04
CGA:  28    -0.668042551717E+03    0.87843E-03   -0.29196E-03  8424   0.482E-02-0.813E-03
CGA:  29    -0.668043297543E+03   -0.74583E-03   -0.83846E-03  8424   0.893E-03 0.248E-03
CGA:  30    -0.668043781730E+03   -0.48419E-03   -0.47286E-03  8424   0.716E-03-0.254E-03
CGA:  31    -0.668043951850E+03   -0.17012E-03   -0.15975E-03  8424   0.373E-03-0.443E-04
CGA:  32    -0.668044078160E+03   -0.12631E-03   -0.11124E-03  8424   0.681E-04-0.703E-04
CGA:  33    -0.668044187707E+03   -0.10955E-03    0.16223E-04  8424   0.869E-04-0.688E-05
CGA:  34    -0.668044287031E+03   -0.99324E-04    0.95197E-04  8424   0.165E-03-0.536E-04
CGA:  35    -0.668044372997E+03   -0.85966E-04   -0.58969E-04  8424   0.339E-03-0.163E-03
CGA:  36    -0.668044390711E+03   -0.17715E-04   -0.37192E-04  8424   0.165E-04 0.486E-04
CGA:  37    -0.668044409507E+03   -0.18795E-04    0.53404E-03  8424   0.103E-03-0.185E-04
CGA:  38    -0.668044469512E+03   -0.60005E-04   -0.34693E-04  8424   0.324E-03-0.160E-03
CGA:  39    -0.668044485853E+03   -0.16342E-04   -0.33341E-04  8424   0.131E-04 0.447E-04
CGA:  40    -0.668044503195E+03   -0.17342E-04    0.14410E-04  8424   0.955E-04-0.170E-04
CGA:  41    -0.668044556651E+03   -0.53456E-04   -0.31453E-04  8424   0.336E-03-0.159E-03
CGA:  42    -0.668044574215E+03   -0.17564E-04   -0.33134E-04  8424   0.123E-04 0.434E-04
CGA:  43    -0.668044592945E+03   -0.18731E-04    0.58468E-05  8424   0.840E-04-0.145E-04
CGA:  44    -0.668044636372E+03   -0.43426E-04   -0.31817E-04  8424   0.488E-03-0.181E-03
CGA:  45    -0.668044664700E+03   -0.28328E-04   -0.46954E-04  8424   0.129E-04 0.548E-04
CGA:  46    -0.668044681394E+03   -0.16694E-04    0.81816E-05  8424   0.846E-04-0.162E-04
CGA:  47    -0.668044721739E+03   -0.40345E-04   -0.31971E-04  8424   0.512E-03-0.188E-03
CGA:  48    -0.668044751991E+03   -0.30252E-04   -0.48606E-04  8424   0.131E-04 0.569E-04
CGA:  49    -0.668044768186E+03   -0.16195E-04    0.77065E-05  8424   0.790E-04-0.163E-04
CGA:  50    -0.668044788592E+03   -0.20406E-04   -0.37581E-04  8424   0.870E-03-0.240E-03
CGA:  51    -0.668044846870E+03   -0.58278E-04   -0.83769E-04  8424   0.154E-04 0.827E-04
CGA:  52    -0.668044394282E+03    0.45259E-03   -0.24838E-03  8424   0.530E-02-0.234E-03
CGA:  53    -0.668045106666E+03   -0.71238E-03   -0.60982E-03  8424   0.391E-04-0.184E-03
CGA:  54    -0.668045116753E+03   -0.10087E-04   -0.64416E-05  8424   0.140E-04-0.711E-05
CGA:  55    -0.668045205432E+03   -0.88679E-04    0.77312E-06  8424   0.223E-04 0.489E-05
CGA:  56    -0.668045385964E+03   -0.18053E-03    0.27831E-05  8424   0.799E-04 0.945E-07
CGA:  57    -0.668046176028E+03   -0.79006E-03    0.40922E-05  8424   0.105E-03 0.532E-04
CGA:  58    -0.668046199779E+03   -0.23752E-04   -0.19645E-04  8424   0.891E-05-0.877E-05
CGA:  59    -0.668046256978E+03   -0.57199E-04    0.57514E-06  8424   0.292E-04-0.309E-05
CGA:  60    -0.668046508232E+03   -0.25125E-03    0.64696E-06  8424   0.572E-04 0.845E-05
CGA:  61    -0.668047018855E+03   -0.51062E-03    0.52668E-05  8424   0.205E-03-0.302E-04
CGA:  62    -0.668047069834E+03   -0.50979E-04   -0.36993E-04  8424   0.192E-04-0.308E-04
CGA:  63    -0.668047128799E+03   -0.58965E-04    0.25766E-05  8424   0.505E-04-0.122E-04
CGA:  64    -0.668047135752E+03   -0.69524E-05   -0.75629E-05  8424   0.484E-05 0.131E-05
  49 F= -.66804714E+03 E0= -.66804714E+03  d E =-.192688E-01  mag=     6.0000
       N       E                     dE             d eps       ncg     rms          ort
SDA:   1    -0.657358615723E+03    0.10689E+02    0.00000E+00  8424   0.355E+02 0.000E+00
CGA:   2    -0.664254094076E+03   -0.68955E+01   -0.70073E+01  8424   0.139E+02-0.151E+00
CGA:   3    -0.667189198144E+03   -0.29351E+01   -0.29174E+01  8424   0.450E+01 0.108E+00
CGA:   4    -0.667959296278E+03   -0.77010E+00   -0.77225E+00  8424   0.111E+01 0.575E-02
CGA:   5    -0.668151093787E+03   -0.19180E+00   -0.19276E+00  8424   0.237E+00 0.497E-03
CGA:   6    -0.668197567079E+03   -0.46473E-01   -0.46326E-01  8424   0.536E-01-0.169E-03
CGA:   7    -0.668209425939E+03   -0.11859E-01   -0.12001E-01  8424   0.156E-01 0.501E-03
CGA:   8    -0.668213214089E+03   -0.37882E-02   -0.38208E-02  8424   0.461E-02 0.134E-03
CGA:   9    -0.668214503052E+03   -0.12890E-02   -0.12782E-02  8424   0.155E-02-0.555E-04
CGA:  10    -0.668214897725E+03   -0.39467E-03   -0.42553E-03  8424   0.579E-03 0.166E-03
CGA:  11    -0.668215094578E+03   -0.19685E-03   -0.20237E-03  8424   0.243E-03 0.388E-04
CGA:  12    -0.668215124450E+03   -0.29872E-04   -0.54672E-04  8424   0.105E-03 0.104E-03
CGA:  13    -0.668215135103E+03   -0.10653E-04   -0.29747E-04  8424   0.659E-04 0.799E-04
CGA:  14    -0.668215146280E+03   -0.11177E-04   -0.17675E-04  8424   0.474E-04 0.415E-04
CGA:  15    -0.668215140463E+03    0.58174E-05   -0.62602E-05  8424   0.414E-04 0.424E-04
  50 F= -.66821514E+03 E0= -.66821514E+03  d E =-.168005E+00  mag=     6.0000
       N       E                     dE             d eps       ncg     rms          ort
SDA:   1    -0.667515405378E+03    0.69974E+00    0.00000E+00  8424   0.246E+01 0.000E+00
CGA:   2    -0.668000787751E+03   -0.48538E+00   -0.48622E+00  8424   0.952E+00 0.129E-02
CGA:   3    -0.668201145452E+03   -0.20036E+00   -0.20011E+00  8424   0.327E+00-0.562E-03
CGA:   4    -0.668255479041E+03   -0.54334E-01   -0.54373E-01  8424   0.806E-01 0.110E-03
CGA:   5    -0.668269612079E+03   -0.14133E-01   -0.14176E-01  8424   0.169E-01 0.200E-03
CGA:   6    -0.668272948078E+03   -0.33360E-02   -0.33174E-02  8424   0.380E-02-0.121E-03
CGA:   7    -0.668273735685E+03   -0.78761E-03   -0.80669E-03  8424   0.109E-02 0.145E-03
CGA:   8    -0.668273991130E+03   -0.25545E-03   -0.26339E-03  8424   0.306E-03 0.757E-04
CGA:   9    -0.668274060449E+03   -0.69319E-04   -0.75974E-04  8424   0.980E-04 0.661E-04
CGA:  10    -0.668274070841E+03   -0.10392E-04   -0.20439E-04  8424   0.504E-04 0.641E-04
CGA:  11    -0.668274071736E+03   -0.89484E-06   -0.74128E-05  8424   0.327E-04 0.376E-04
  51 F= -.66827407E+03 E0= -.66827407E+03  d E =-.589313E-01  mag=     6.0000
       N       E                     dE             d eps       ncg     rms          ort
SDA:   1    -0.667953961043E+03    0.32011E+00    0.00000E+00  8424   0.111E+01 0.000E+00
CGA:   2    -0.668176249236E+03   -0.22229E+00   -0.22247E+00  8424   0.431E+00 0.134E-02
CGA:   3    -0.668266638805E+03   -0.90390E-01   -0.90304E-01  8424   0.148E+00-0.876E-03
CGA:   4    -0.668291181377E+03   -0.24543E-01   -0.24541E-01  8424   0.365E-01-0.364E-04
CGA:   5    -0.668297563442E+03   -0.63821E-02   -0.64054E-02  8424   0.769E-02 0.205E-03
CGA:   6    -0.668299068245E+03   -0.15048E-02   -0.15062E-02  8424   0.171E-02 0.151E-04
CGA:   7    -0.668299419101E+03   -0.35086E-03   -0.35941E-03  8424   0.487E-03 0.128E-03
CGA:   8    -0.668299532411E+03   -0.11331E-03   -0.11698E-03  8424   0.141E-03 0.748E-04
CGA:   9    -0.668299558121E+03   -0.25710E-04   -0.30816E-04  8424   0.535E-04 0.636E-04
CGA:  10    -0.668299559269E+03   -0.11485E-05   -0.90830E-05  8424   0.340E-04 0.530E-04
  52 F= -.66829956E+03 E0= -.66829956E+03  d E =-.254875E-01  mag=     6.0000
       N       E                     dE             d eps       ncg     rms          ort
SDA:   1    -0.667973448469E+03    0.32611E+00    0.00000E+00  8424   0.110E+01 0.000E+00
CGA:   2    -0.668217653186E+03   -0.24420E+00   -0.24424E+00  8424   0.479E+00 0.123E-02
CGA:   3    -0.668314768286E+03   -0.97115E-01   -0.97065E-01  8424   0.146E+00-0.111E-02
CGA:   4    -0.668338941527E+03   -0.24173E-01   -0.24152E-01  8424   0.353E-01-0.285E-03
CGA:   5    -0.668345066909E+03   -0.61254E-02   -0.61414E-02  8424   0.712E-02 0.229E-03
CGA:   6    -0.668346466274E+03   -0.13994E-02   -0.14065E-02  8424   0.167E-02 0.165E-03
CGA:   7    -0.668346830260E+03   -0.36399E-03   -0.36719E-03  8424   0.496E-03 0.148E-03
CGA:   8    -0.668346948492E+03   -0.11823E-03   -0.11967E-03  8424   0.159E-03 0.102E-03
CGA:   9    -0.668346976326E+03   -0.27834E-04   -0.33431E-04  8424   0.724E-04 0.921E-04
CGA:  10    -0.668346978682E+03   -0.23560E-05   -0.86449E-05  8424   0.479E-04 0.557E-04
