       N       E                     dE             d eps       ncg     rms          ort
DAV:   1     0.827210258670E+04    0.82721E+04   -0.24679E+05  8424   0.238E+03
DAV:   2     0.919537315772E+03   -0.73526E+04   -0.69008E+04  8424   0.657E+02
DAV:   3    -0.673842315663E+03   -0.15934E+04   -0.14012E+04  8424   0.282E+02
DAV:   4    -0.829796806402E+03   -0.15595E+03   -0.15324E+03  8424   0.859E+01
DAV:   5    -0.832276179943E+03   -0.24794E+01   -0.24688E+01  8424   0.121E+01
SDA:   6    -0.251982632366E+03    0.58029E+03   -0.24688E+01  8424   0.417E+04 0.000E+00
CGA:   7    -0.517550516070E+03   -0.26557E+03   -0.40999E+03  8424   0.169E+04-0.340E+02
CGA:   8    -0.604433911068E+03   -0.86883E+02   -0.69490E+02  8424   0.904E+03-0.992E+03
CGA:   9    -0.634903375231E+03   -0.30469E+02   -0.46350E+02  8424   0.167E+03-0.195E+02
CGA:  10    -0.641127328569E+03   -0.62240E+01   -0.12656E+02  8424   0.362E+03-0.176E+03
CGA:  11    -0.644557567276E+03   -0.34302E+01   -0.16484E+02  8424   0.144E+03-0.483E+02
CGA:  12    -0.654594964790E+03   -0.10037E+02   -0.44297E+01  8424   0.765E+02-0.616E+02
CGA:  13    -0.653917890682E+03    0.67707E+00   -0.36380E+01  8424   0.410E+03 0.766E+01
CGA:  14    -0.655691587148E+03   -0.17737E+01   -0.23901E+02  8424   0.143E+03-0.110E+03
CGA:  15    -0.657017481177E+03   -0.13259E+01   -0.52308E+01  8424   0.696E+02-0.410E+02
CGA:  16    -0.656844479622E+03    0.17300E+00   -0.28323E+01  8424   0.109E+03-0.184E+02
CGA:  17    -0.657363579084E+03   -0.51910E+00   -0.40647E+01  8424   0.767E+02-0.328E+02
CGA:  18    -0.658890719738E+03   -0.15271E+01   -0.21486E+01  8424   0.136E+03-0.105E+03
CGA:  19    -0.660136479434E+03   -0.12458E+01   -0.56327E+01  8424   0.108E+03-0.802E+02
CGA:  20    -0.659376296460E+03    0.76018E+00   -0.41456E+01  8424   0.235E+03-0.122E+03
CGA:  21    -0.658744649981E+03    0.63165E+00   -0.13137E+02  8424   0.811E+02-0.476E+02
CGA:  22    -0.663312330747E+03   -0.45677E+01   -0.23048E+01  8424   0.333E+02-0.973E-01
CGA:  23    -0.663515345022E+03   -0.20301E+00   -0.64119E+00  8424   0.757E+02-0.539E+02
CGA:  24    -0.662049465134E+03    0.14659E+01   -0.32530E+01  8424   0.113E+03-0.516E+02
CGA:  25    -0.662200258008E+03   -0.15079E+00   -0.40030E+01  8424   0.163E+03-0.131E+03
CGA:  26    -0.661664294709E+03    0.53596E+00   -0.73867E+01  8424   0.717E+02-0.528E+02
CGA:  27    -0.664908604081E+03   -0.32443E+01   -0.12526E+01  8424   0.182E+02 0.343E+02
CGA:  28    -0.665303359801E+03   -0.39476E+00   -0.43449E+00  8424   0.125E+02-0.244E+01
CGA:  29    -0.665388428598E+03   -0.85069E-01   -0.11139E+00  8424   0.167E+02-0.454E+01
CGA:  30    -0.665424389613E+03   -0.35961E-01   -0.46521E-01  8424   0.201E+02-0.242E+01
CGA:  31    -0.665469543130E+03   -0.45154E-01   -0.77625E-01  8424   0.203E+02-0.911E+01
CGA:  32    -0.665460189610E+03    0.93535E-02   -0.37332E-01  8424   0.253E+02-0.147E+02
CGA:  33    -0.665779433699E+03   -0.31924E+00   -0.90759E+00  8424   0.799E+01-0.592E+01
CGA:  34    -0.666019652310E+03   -0.24022E+00   -0.21097E+00  8424   0.424E+01 0.386E+00
CGA:  35    -0.666188208638E+03   -0.16856E+00   -0.13920E+00  8424   0.178E+01 0.717E+00
CGA:  36    -0.666520545599E+03   -0.33234E+00   -0.31150E+00  8424   0.728E+01 0.236E+00
CGA:  37    -0.666844218815E+03   -0.32367E+00   -0.27778E+00  8424   0.214E+01 0.109E+01
CGA:  38    -0.666910260132E+03   -0.66041E-01   -0.80116E-01  8424   0.180E+01-0.287E+00
CGA:  39    -0.666981380819E+03   -0.71121E-01   -0.75324E-01  8424   0.550E+00-0.216E-01
CGA:  40    -0.667032087007E+03   -0.50706E-01   -0.48056E-01  8424   0.314E+00 0.102E+00
CGA:  41    -0.667054793858E+03   -0.22707E-01   -0.22999E-01  8424   0.303E+00 0.140E-01
CGA:  42    -0.667109629678E+03   -0.54836E-01   -0.51979E-01  8424   0.808E-01 0.342E-01
CGA:  43    -0.667128309648E+03   -0.18680E-01   -0.19219E-01  8424   0.985E-01-0.109E-02
CGA:  44    -0.667147824622E+03   -0.19515E-01   -0.24966E-01  8424   0.119E+00-0.304E-01
CGA:  45    -0.667157897317E+03   -0.10073E-01   -0.12786E-01  8424   0.192E+00-0.404E-01
CGA:  46    -0.667169619791E+03   -0.11722E-01   -0.11642E-01  8424   0.984E-01-0.415E-01
CGA:  47    -0.667184320432E+03   -0.14701E-01    0.26039E+00  8424   0.829E-01 0.501E-01
CGA:  48    -0.667196928437E+03   -0.12608E-01   -0.13031E-01  8424   0.180E+00-0.651E-02
CGA:  49    -0.667225688987E+03   -0.28761E-01   -0.32300E-01  8424   0.174E+00-0.358E-01
CGA:  50    -0.667248339997E+03   -0.22651E-01   -0.27102E-01  8424   0.103E+00-0.468E-01
CGA:  51    -0.667258901791E+03   -0.10562E-01   -0.12404E-01  8424   0.225E+00-0.306E-01
CGA:  52    -0.667280529996E+03   -0.21628E-01   -0.24762E-01  8424   0.219E+00-0.677E-01
CGA:  53    -0.667298359381E+03   -0.17829E-01   -0.41256E-01  8424   0.292E+00-0.145E+00
CGA:  54    -0.667326907386E+03   -0.28548E-01   -0.28334E-01  8424   0.182E+00 0.282E-02
CGA:  55    -0.667354526107E+03   -0.27619E-01   -0.27519E-01  8424   0.112E+00-0.197E-02
CGA:  56    -0.667384469328E+03   -0.29943E-01   -0.31149E-01  8424   0.702E-01-0.733E-02
CGA:  57    -0.667398257472E+03   -0.13788E-01   -0.41517E-02  8424   0.537E+00-0.695E-01
CGA:  58    -0.667452305026E+03   -0.54048E-01   -0.59702E-01  8424   0.104E+00-0.391E-01
CGA:  59    -0.667478855150E+03   -0.26550E-01   -0.26972E-01  8424   0.928E-01-0.754E-02
CGA:  60    -0.667525234316E+03   -0.46379E-01   -0.66230E-01  8424   0.195E+00-0.356E-01
CGA:  61    -0.667554822336E+03   -0.29588E-01   -0.28805E-01  8424   0.125E+00-0.341E-01
CGA:  62    -0.667591405868E+03   -0.36584E-01   -0.42095E-01  8424   0.154E+00-0.352E-01
CGA:  63    -0.667614554388E+03   -0.23149E-01   -0.21366E-01  8424   0.671E-01-0.228E-01
CGA:  64    -0.667631064944E+03   -0.16511E-01   -0.17042E-01  8424   0.638E-01-0.140E-01
CGA:  65    -0.667641460722E+03   -0.10396E-01   -0.10007E-01  8424   0.346E-01-0.604E-02
CGA:  66    -0.667649919189E+03   -0.84585E-02   -0.84690E-02  8424   0.366E-01-0.100E-02
CGA:  67    -0.667657557704E+03   -0.76385E-02   -0.77167E-02  8424   0.200E-01 0.180E-02
CGA:  68    -0.667661971098E+03   -0.44134E-02   -0.45540E-02  8424   0.163E-01 0.346E-02
CGA:  69    -0.667666105801E+03   -0.41347E-02   -0.42857E-02  8424   0.104E-01 0.472E-02
CGA:  70    -0.667668770606E+03   -0.26648E-02   -0.28152E-02  8424   0.653E-02 0.342E-02
CGA:  71    -0.667670601221E+03   -0.18306E-02   -0.19057E-02  8424   0.408E-02 0.229E-02
CGA:  72    -0.667672186706E+03   -0.15855E-02   -0.15419E-02  8424   0.460E-02 0.142E-02
CGA:  73    -0.667674232112E+03   -0.20454E-02   -0.19744E-02  8424   0.393E-02 0.997E-03
CGA:  74    -0.667675992040E+03   -0.17599E-02   -0.17613E-02  8424   0.627E-02-0.112E-03
CGA:  75    -0.667678250966E+03   -0.22589E-02   -0.24846E-02  8424   0.860E-02-0.190E-02
CGA:  76    -0.667680019175E+03   -0.17682E-02   -0.22318E-02  8424   0.164E-01-0.500E-02
CGA:  77    -0.667684446689E+03   -0.44275E-02   -0.44271E-02  8424   0.905E-02-0.163E-03
CGA:  78    -0.667688515290E+03   -0.40686E-02   -0.44573E-02  8424   0.592E-02-0.171E-02
CGA:  79    -0.667690293476E+03   -0.17782E-02   -0.28705E-02  8424   0.778E-02-0.349E-02
CGA:  80    -0.667691769202E+03   -0.14757E-02   -0.14516E-02  8424   0.191E-02-0.203E-03
CGA:  81    -0.667683424834E+03    0.83444E-02   -0.45450E-02  8424   0.676E-01-0.747E-02
CGA:  82    -0.667692796610E+03   -0.93718E-02   -0.96078E-02  8424   0.750E-02 0.195E-02
CGA:  83    -0.667695034071E+03   -0.22375E-02   -0.22408E-02  8424   0.234E-02 0.583E-05
CGA:  84    -0.667695755463E+03   -0.72139E-03   -0.74946E-03  8424   0.574E-03 0.149E-03
CGA:  85    -0.667696098521E+03   -0.34306E-03   -0.36968E-03  8424   0.134E-02-0.249E-03
CGA:  86    -0.667696257588E+03   -0.15907E-03   -0.58065E-03  8424   0.540E-02-0.168E-02
CGA:  87    -0.667697780106E+03   -0.15225E-02   -0.14643E-02  8424   0.252E-02-0.236E-03
CGA:  88    -0.667698693591E+03   -0.91348E-03   -0.74680E-03  8424   0.163E-02-0.870E-03
CGA:  89    -0.667698989028E+03   -0.29544E-03   -0.95118E-03  8424   0.574E-02-0.165E-02
CGA:  90    -0.667700093958E+03   -0.11049E-02   -0.97093E-03  8424   0.148E-02-0.422E-03
CGA:  91    -0.667700547392E+03   -0.45343E-03   -0.46373E-03  8424   0.640E-03 0.643E-04
CGA:  92    -0.667700866030E+03   -0.31864E-03   -0.52225E-03  8424   0.210E-02-0.702E-03
CGA:  93    -0.667701353435E+03   -0.48740E-03   -0.45621E-03  8424   0.449E-03-0.107E-03
CGA:  94    -0.667701903837E+03   -0.55040E-03    0.32478E-03  8424   0.972E-03-0.119E-03
CGA:  95    -0.667702942470E+03   -0.10386E-02    0.35623E-03  8424   0.820E-03-0.329E-03
CGA:  96    -0.667704172118E+03   -0.12296E-02    0.10043E-03  8424   0.129E-02 0.230E-03
CGA:  97    -0.667706746461E+03   -0.25743E-02    0.66930E-03  8424   0.216E-02 0.164E-03
CGA:  98    -0.667710891483E+03   -0.41450E-02    0.80694E-03  8424   0.205E-02 0.214E-04
CGA:  99    -0.667715823116E+03   -0.49316E-02    0.35058E-03  8424   0.191E-02 0.602E-03
CGA: 100    -0.667721146068E+03   -0.53230E-02    0.50325E-03  8424   0.170E-02 0.513E-03
CGA: 101    -0.667726687663E+03   -0.55416E-02    0.32410E-03  8424   0.178E-02 0.385E-03
CGA: 102    -0.667732284371E+03   -0.55967E-02    0.32716E-03  8424   0.317E-02-0.366E-03
CGA: 103    -0.667742989649E+03   -0.10705E-01    0.18342E-03  8424   0.409E-02-0.823E-03
CGA: 104    -0.667758557102E+03   -0.15567E-01    0.17346E-03  8424   0.556E-02-0.452E-03
CGA: 105    -0.667780474701E+03   -0.21918E-01    0.34211E-03  8424   0.890E-02-0.530E-02
CGA: 106    -0.667782006074E+03   -0.15314E-02   -0.14889E-02  8424   0.243E-02-0.161E-03
CGA: 107    -0.667782405873E+03   -0.39980E-03   -0.57832E-03  8424   0.569E-03 0.772E-03
CGA: 108    -0.667782385912E+03    0.19960E-04   -0.11655E-03  8424   0.368E-03 0.444E-03
CGA: 109    -0.667782374462E+03    0.11451E-04   -0.64458E-04  8424   0.280E-03 0.279E-03
CGA: 110    -0.667782332830E+03    0.41632E-04   -0.36556E-04  8424   0.250E-03 0.258E-03
CGA: 111    -0.667782296308E+03    0.36522E-04   -0.32783E-04  8424   0.235E-03 0.241E-03
CGA: 112    -0.667782260464E+03    0.35844E-04   -0.28592E-04  8424   0.224E-03 0.228E-03
CGA: 113    -0.667782226294E+03    0.34170E-04   -0.25902E-04  8424   0.216E-03 0.219E-03
CGA: 114    -0.667782193792E+03    0.32501E-04   -0.23826E-04  8424   0.209E-03 0.212E-03
CGA: 115    -0.667782162945E+03    0.30847E-04   -0.22169E-04  8424   0.204E-03 0.206E-03
CGA: 116    -0.667782133696E+03    0.29250E-04   -0.20796E-04  8424   0.200E-03 0.202E-03
CGA: 117    -0.667782105972E+03    0.27724E-04   -0.19625E-04  8424   0.196E-03 0.198E-03
CGA: 118    -0.667782079697E+03    0.26275E-04   -0.18605E-04  8424   0.193E-03 0.195E-03
CGA: 119    -0.667782054794E+03    0.24903E-04   -0.17700E-04  8424   0.190E-03 0.192E-03
CGA: 120    -0.667782031186E+03    0.23608E-04   -0.16885E-04  8424   0.188E-03 0.189E-03
CGA: 121    -0.667782008800E+03    0.22385E-04   -0.16144E-04  8424   0.186E-03 0.187E-03
CGA: 122    -0.667781987569E+03    0.21232E-04   -0.15463E-04  8424   0.184E-03 0.185E-03
CGA: 123    -0.667781967426E+03    0.20143E-04   -0.14832E-04  8424   0.182E-03 0.183E-03
CGA: 124    -0.667781948310E+03    0.19116E-04   -0.14243E-04  8424   0.180E-03 0.181E-03
CGA: 125    -0.667781930163E+03    0.18147E-04   -0.13691E-04  8424   0.179E-03 0.180E-03
CGA: 126    -0.667781912928E+03    0.17235E-04   -0.13171E-04  8424   0.178E-03 0.178E-03
CGA: 127    -0.667781896555E+03    0.16374E-04   -0.12679E-04  8424   0.176E-03 0.177E-03
CGA: 128    -0.667781880993E+03    0.15562E-04   -0.12212E-04  8424   0.175E-03 0.176E-03
CGA: 129    -0.667781866196E+03    0.14797E-04   -0.11768E-04  8424   0.174E-03 0.174E-03
CGA: 130    -0.667781852120E+03    0.14075E-04   -0.11344E-04  8424   0.173E-03 0.173E-03
CGA: 131    -0.667781838725E+03    0.13395E-04   -0.10940E-04  8424   0.172E-03 0.172E-03
CGA: 132    -0.667781825972E+03    0.12754E-04   -0.10553E-04  8424   0.171E-03 0.171E-03
CGA: 133    -0.667781813823E+03    0.12149E-04   -0.10182E-04  8424   0.170E-03 0.170E-03
CGA: 134    -0.667781802245E+03    0.11578E-04   -0.98265E-05  8424   0.169E-03 0.169E-03
CGA: 135    -0.667781791207E+03    0.11038E-04   -0.94852E-05  8424   0.168E-03 0.169E-03
CGA: 136    -0.667781780678E+03    0.10529E-04   -0.91572E-05  8424   0.167E-03 0.168E-03
CGA: 137    -0.667781770632E+03    0.10047E-04   -0.88417E-05  8424   0.167E-03 0.167E-03
CGA: 138    -0.667781761041E+03    0.95910E-05   -0.85382E-05  8424   0.166E-03 0.166E-03
   1 F= -.66778176E+03 E0= -.66778176E+03  d E =-.667782E+03  mag=     2.0000
       N       E                     dE             d eps       ncg     rms          ort
SDA:   1    -0.667784823228E+03   -0.30526E-02    0.00000E+00  8424   0.612E-02 0.000E+00
CGA:   2    -0.667786322291E+03   -0.14991E-02   -0.14319E-02  8424   0.246E-02 0.793E-03
CGA:   3    -0.667786836448E+03   -0.51416E-03   -0.49998E-03  8424   0.732E-03 0.533E-03
CGA:   4    -0.667786940486E+03   -0.10404E-03   -0.11514E-03  8424   0.289E-03 0.432E-03
CGA:   5    -0.667786955233E+03   -0.14747E-04   -0.27956E-04  8424   0.204E-03 0.231E-03
CGA:   6    -0.667786959048E+03   -0.38148E-05   -0.16868E-04  8424   0.181E-03 0.191E-03
CGA:   7    -0.667786959849E+03   -0.80130E-06   -0.13519E-04  8424   0.169E-03 0.175E-03
CGA:   8    -0.667786959351E+03    0.49812E-06   -0.11770E-04  8424   0.162E-03 0.165E-03
CGA:   9    -0.667786958189E+03    0.11624E-05   -0.10647E-04  8424   0.157E-03 0.159E-03
   2 F= -.66778696E+03 E0= -.66778696E+03  d E =-.519715E-02  mag=     2.0000
       N       E                     dE             d eps       ncg     rms          ort
SDA:   1    -0.662954125521E+03    0.48328E+01    0.00000E+00  8424   0.131E+02 0.000E+00
CGA:   2    -0.666426046011E+03   -0.34719E+01   -0.34709E+01  8424   0.605E+01 0.711E-02
CGA:   3    -0.667546883531E+03   -0.11208E+01   -0.11211E+01  8424   0.158E+01-0.568E-02
CGA:   4    -0.667817404777E+03   -0.27052E+00   -0.27058E+00  8424   0.393E+00-0.218E-02
CGA:   5    -0.667884352720E+03   -0.66948E-01   -0.66942E-01  8424   0.754E-01 0.140E-03
CGA:   6    -0.667899688727E+03   -0.15336E-01   -0.15319E-01  8424   0.192E-01 0.282E-03
CGA:   7    -0.667904177735E+03   -0.44890E-02   -0.44782E-02  8424   0.640E-02 0.123E-03
CGA:   8    -0.667905893933E+03   -0.17162E-02   -0.16819E-02  8424   0.226E-02 0.310E-03
CGA:   9    -0.667906540473E+03   -0.64654E-03   -0.60815E-03  8424   0.874E-03 0.382E-03
CGA:  10    -0.667906816469E+03   -0.27600E-03   -0.24436E-03  8424   0.412E-03 0.407E-03
CGA:  11    -0.667906957162E+03   -0.14069E-03   -0.12678E-03  8424   0.240E-03 0.315E-03
CGA:  12    -0.667907057373E+03   -0.10021E-03   -0.79174E-04  8424   0.173E-03 0.129E-03
CGA:  13    -0.667907143700E+03   -0.86327E-04   -0.64214E-04  8424   0.168E-03 0.112E-03
CGA:  14    -0.667907273981E+03   -0.13028E-03   -0.11374E-03  8424   0.401E-03 0.310E-04
CGA:  15    -0.667907917369E+03   -0.64339E-03   -0.43055E-03  8424   0.578E-03 0.264E-03
CGA:  16    -0.667908064470E+03   -0.14710E-03   -0.16535E-03  8424   0.878E-03-0.449E-03
CGA:  17    -0.667908158123E+03   -0.93653E-04   -0.10409E-03  8424   0.102E-03 0.811E-04
CGA:  18    -0.667908247057E+03   -0.88933E-04    0.20438E-04  8424   0.131E-03 0.919E-04
CGA:  19    -0.667908345738E+03   -0.98682E-04    0.28300E-04  8424   0.144E-03 0.518E-04
CGA:  20    -0.667908524762E+03   -0.17902E-03    0.28191E-04  8424   0.126E-03 0.195E-03
CGA:  21    -0.667908596613E+03   -0.71851E-04    0.81415E-04  8424   0.139E-03 0.493E-04
CGA:  22    -0.667908780914E+03   -0.18430E-03    0.23847E-04  8424   0.123E-03 0.190E-03
CGA:  23    -0.667908875679E+03   -0.94764E-04    0.24489E-04  8424   0.138E-03 0.467E-04
CGA:  24    -0.667909059810E+03   -0.18413E-03    0.22899E-04  8424   0.121E-03 0.187E-03
CGA:  25    -0.667909138279E+03   -0.78469E-04    0.42369E-04  8424   0.136E-03 0.448E-04
CGA:  26    -0.667909328503E+03   -0.19022E-03    0.19944E-04  8424   0.120E-03 0.182E-03
CGA:  27    -0.667909421159E+03   -0.92656E-04    0.23649E-04  8424   0.133E-03 0.436E-04
CGA:  28    -0.667909608858E+03   -0.18770E-03    0.18971E-04  8424   0.118E-03 0.177E-03
CGA:  29    -0.667909695820E+03   -0.86962E-04    0.26767E-04  8424   0.127E-03 0.444E-04
CGA:  30    -0.667909885998E+03   -0.19018E-03    0.16540E-04  8424   0.115E-03 0.168E-03
CGA:  31    -0.667909977966E+03   -0.91968E-04    0.20732E-04  8424   0.116E-03 0.484E-04
CGA:  32    -0.667910161760E+03   -0.18379E-03    0.15209E-04  8424   0.109E-03 0.158E-03
CGA:  33    -0.667910257343E+03   -0.95583E-04    0.16060E-04  8424   0.102E-03 0.559E-04
CGA:  34    -0.667910349577E+03   -0.92234E-04    0.14143E-04  8424   0.105E-03 0.547E-04
CGA:  35    -0.667910442283E+03   -0.92706E-04    0.15168E-04  8424   0.111E-03 0.495E-04
CGA:  36    -0.667910637795E+03   -0.19551E-03    0.13257E-04  8424   0.102E-03 0.162E-03
CGA:  37    -0.667910730903E+03   -0.93108E-04    0.13910E-04  8424   0.107E-03 0.500E-04
CGA:  38    -0.667910925520E+03   -0.19462E-03    0.12524E-04  8424   0.999E-04 0.157E-03
CGA:  39    -0.667911024163E+03   -0.98643E-04    0.11449E-04  8424   0.102E-03 0.515E-04
CGA:  40    -0.667911118168E+03   -0.94005E-04    0.13311E-04  8424   0.107E-03 0.471E-04
CGA:  41    -0.667911316463E+03   -0.19829E-03    0.11555E-04  8424   0.996E-04 0.155E-03
CGA:  42    -0.667911417236E+03   -0.10077E-03    0.10888E-04  8424   0.102E-03 0.482E-04
CGA:  43    -0.667911617241E+03   -0.20001E-03    0.10494E-04  8424   0.971E-04 0.149E-03
CGA:  44    -0.667911711524E+03   -0.94283E-04    0.11513E-04  8424   0.963E-04 0.500E-04
CGA:  45    -0.667911814181E+03   -0.10266E-03    0.95452E-05  8424   0.988E-04 0.484E-04
CGA:  46    -0.667911910263E+03   -0.96082E-04    0.11653E-04  8424   0.104E-03 0.437E-04
CGA:  47    -0.667912115053E+03   -0.20479E-03    0.99106E-05  8424   0.970E-04 0.149E-03
CGA:  48    -0.667912219511E+03   -0.10446E-03    0.94539E-05  8424   0.102E-03 0.437E-04
CGA:  49    -0.667912427903E+03   -0.20839E-03    0.91741E-05  8424   0.951E-04 0.146E-03
CGA:  50    -0.667912523110E+03   -0.95206E-04    0.10601E-04  8424   0.979E-04 0.444E-04
CGA:  51    -0.667912729199E+03   -0.20609E-03    0.87287E-05  8424   0.931E-04 0.142E-03
CGA:  52    -0.667912838977E+03   -0.10978E-03    0.77356E-05  8424   0.923E-04 0.461E-04
CGA:  53    -0.667913044311E+03   -0.20533E-03    0.79602E-05  8424   0.909E-04 0.136E-03
CGA:  54    -0.667913140373E+03   -0.96061E-04    0.91497E-05  8424   0.859E-04 0.486E-04
CGA:  55    -0.667913250844E+03   -0.11047E-03    0.61819E-05  8424   0.847E-04 0.508E-04
CGA:  56    -0.667913348794E+03   -0.97950E-04    0.72719E-05  8424   0.857E-04 0.501E-04
CGA:  57    -0.667913457382E+03   -0.10859E-03    0.63288E-05  8424   0.885E-04 0.475E-04
CGA:  58    -0.667913557374E+03   -0.99992E-04    0.79219E-05  8424   0.933E-04 0.432E-04
CGA:  59    -0.667913772008E+03   -0.21463E-03    0.75552E-05  8424   0.867E-04 0.138E-03
CGA:  60    -0.667913882079E+03   -0.11007E-03    0.63771E-05  8424   0.919E-04 0.430E-04
CGA:  61    -0.667914101286E+03   -0.21921E-03    0.71657E-05  8424   0.847E-04 0.136E-03
CGA:  62    -0.667914199483E+03   -0.98197E-04    0.72412E-05  8424   0.901E-04 0.430E-04
CGA:  63    -0.667914311426E+03   -0.11194E-03    0.68698E-05  8424   0.985E-04 0.356E-04
CGA:  64    -0.667914536328E+03   -0.22490E-03    0.68952E-05  8424   0.897E-04 0.136E-03
CGA:  65    -0.667914633504E+03   -0.97176E-04    0.86429E-05  8424   0.977E-04 0.344E-04
CGA:  66    -0.667914857094E+03   -0.22359E-03    0.66786E-05  8424   0.893E-04 0.134E-03
CGA:  67    -0.667914974342E+03   -0.11725E-03    0.62253E-05  8424   0.971E-04 0.330E-04
CGA:  68    -0.667915200773E+03   -0.22643E-03    0.63160E-05  8424   0.893E-04 0.132E-03
CGA:  69    -0.667915295366E+03   -0.94593E-04    0.89578E-05  8424   0.955E-04 0.320E-04
CGA:  70    -0.667915519207E+03   -0.22384E-03    0.60453E-05  8424   0.891E-04 0.128E-03
CGA:  71    -0.667915641406E+03   -0.12220E-03    0.58076E-05  8424   0.931E-04 0.314E-04
CGA:  72    -0.667915864604E+03   -0.22320E-03    0.56571E-05  8424   0.886E-04 0.124E-03
CGA:  73    -0.667915958074E+03   -0.93470E-04    0.89477E-05  8424   0.889E-04 0.321E-04
CGA:  74    -0.667916176014E+03   -0.21794E-03    0.53245E-05  8424   0.869E-04 0.119E-03
CGA:  75    -0.667916301416E+03   -0.12540E-03    0.52357E-05  8424   0.827E-04 0.345E-04
CGA:  76    -0.667916514975E+03   -0.21356E-03    0.49071E-05  8424   0.839E-04 0.113E-03
CGA:  77    -0.667916610739E+03   -0.95764E-04    0.73743E-05  8424   0.753E-04 0.385E-04
CGA:  78    -0.667916817238E+03   -0.20650E-03    0.45610E-05  8424   0.801E-04 0.107E-03
CGA:  79    -0.667916942130E+03   -0.12489E-03    0.43101E-05  8424   0.685E-04 0.428E-04
CGA:  80    -0.667917041922E+03   -0.99792E-04    0.40791E-05  8424   0.645E-04 0.490E-04
CGA:  81    -0.667917160425E+03   -0.11850E-03    0.27535E-05  8424   0.628E-04 0.511E-04
CGA:  82    -0.667917263770E+03   -0.10334E-03    0.31285E-05  8424   0.621E-04 0.517E-04
CGA:  83    -0.667917379960E+03   -0.11619E-03    0.25907E-05  8424   0.619E-04 0.516E-04
CGA:  84    -0.667917485113E+03   -0.10515E-03    0.29475E-05  8424   0.621E-04 0.511E-04
CGA:  85    -0.667917600333E+03   -0.11522E-03    0.26229E-05  8424   0.628E-04 0.502E-04
CGA:  86    -0.667917706408E+03   -0.10607E-03    0.30153E-05  8424   0.641E-04 0.488E-04
CGA:  87    -0.667917820911E+03   -0.11450E-03    0.28451E-05  8424   0.662E-04 0.467E-04
CGA:  88    -0.667917927719E+03   -0.10681E-03    0.33851E-05  8424   0.695E-04 0.435E-04
CGA:  89    -0.667918041010E+03   -0.11329E-03    0.35029E-05  8424   0.746E-04 0.389E-04
CGA:  90    -0.667918148863E+03   -0.10785E-03    0.44873E-05  8424   0.827E-04 0.320E-04
CGA:  91    -0.667918382608E+03   -0.23374E-03    0.45738E-05  8424   0.738E-04 0.117E-03
CGA:  92    -0.667918497029E+03   -0.11442E-03    0.40023E-05  8424   0.818E-04 0.313E-04
CGA:  93    -0.667918733688E+03   -0.23666E-03    0.43624E-05  8424   0.729E-04 0.115E-03
CGA:  94    -0.667918837654E+03   -0.10397E-03    0.44791E-05  8424   0.813E-04 0.305E-04
CGA:  95    -0.667919073240E+03   -0.23559E-03    0.42796E-05  8424   0.723E-04 0.114E-03
CGA:  96    -0.667919191633E+03   -0.11839E-03    0.36233E-05  8424   0.806E-04 0.297E-04
CGA:  97    -0.667919428709E+03   -0.23708E-03    0.41058E-05  8424   0.717E-04 0.113E-03
CGA:  98    -0.667919529259E+03   -0.10055E-03    0.45160E-05  8424   0.800E-04 0.287E-04
CGA:  99    -0.667919765489E+03   -0.23623E-03    0.39934E-05  8424   0.713E-04 0.111E-03
CGA: 100    -0.667919887144E+03   -0.12165E-03    0.33801E-05  8424   0.794E-04 0.278E-04
CGA: 101    -0.667920123483E+03   -0.23634E-03    0.38469E-05  8424   0.711E-04 0.109E-03
CGA: 102    -0.667920221044E+03   -0.97562E-04    0.46328E-05  8424   0.788E-04 0.267E-04
CGA: 103    -0.667920456463E+03   -0.23542E-03    0.37174E-05  8424   0.710E-04 0.107E-03
CGA: 104    -0.667920580865E+03   -0.12440E-03    0.32440E-05  8424   0.781E-04 0.257E-04
CGA: 105    -0.667920814883E+03   -0.23402E-03    0.35840E-05  8424   0.709E-04 0.105E-03
CGA: 106    -0.667920909908E+03   -0.95025E-04    0.47949E-05  8424   0.769E-04 0.250E-04
CGA: 107    -0.667921142034E+03   -0.23213E-03    0.34405E-05  8424   0.705E-04 0.102E-03
CGA: 108    -0.667921268644E+03   -0.12661E-03    0.31131E-05  8424   0.747E-04 0.250E-04
CGA: 109    -0.667921497079E+03   -0.22844E-03    0.33050E-05  8424   0.694E-04 0.989E-04
CGA: 110    -0.667921590895E+03   -0.93816E-04    0.46169E-05  8424   0.711E-04 0.262E-04
CGA: 111    -0.667921815489E+03   -0.22459E-03    0.31383E-05  8424   0.670E-04 0.950E-04
CGA: 112    -0.667921942625E+03   -0.12714E-03    0.27429E-05  8424   0.658E-04 0.290E-04
CGA: 113    -0.667922160816E+03   -0.21819E-03    0.29861E-05  8424   0.635E-04 0.907E-04
CGA: 114    -0.667922256356E+03   -0.95540E-04    0.36036E-05  8424   0.596E-04 0.329E-04
CGA: 115    -0.667922380986E+03   -0.12463E-03    0.21501E-05  8424   0.605E-04 0.324E-04
CGA: 116    -0.667922476242E+03   -0.95257E-04    0.32075E-05  8424   0.619E-04 0.308E-04
CGA: 117    -0.667922600109E+03   -0.12387E-03    0.23648E-05  8424   0.640E-04 0.287E-04
CGA: 118    -0.667922824356E+03   -0.22425E-03    0.28354E-05  8424   0.610E-04 0.930E-04
CGA: 119    -0.667922918487E+03   -0.94131E-04    0.33350E-05  8424   0.626E-04 0.285E-04
CGA: 120    -0.667923140438E+03   -0.22195E-03    0.27567E-05  8424   0.600E-04 0.913E-04
CGA: 121    -0.667923265347E+03   -0.12491E-03    0.21762E-05  8424   0.614E-04 0.283E-04
CGA: 122    -0.667923486946E+03   -0.22160E-03    0.26583E-05  8424   0.591E-04 0.898E-04
CGA: 123    -0.667923579189E+03   -0.92243E-04    0.31785E-05  8424   0.597E-04 0.284E-04
CGA: 124    -0.667923797650E+03   -0.21846E-03    0.25718E-05  8424   0.582E-04 0.878E-04
CGA: 125    -0.667923922984E+03   -0.12533E-03    0.20163E-05  8424   0.580E-04 0.284E-04
CGA: 126    -0.667924140225E+03   -0.21724E-03    0.24596E-05  8424   0.573E-04 0.857E-04
CGA: 127    -0.667924231138E+03   -0.90913E-04    0.30001E-05  8424   0.560E-04 0.287E-04
CGA: 128    -0.667924355062E+03   -0.12392E-03    0.18749E-05  8424   0.551E-04 0.294E-04
CGA: 129    -0.667924448051E+03   -0.92990E-04    0.26437E-05  8424   0.544E-04 0.298E-04
CGA: 130    -0.667924569402E+03   -0.12135E-03    0.18008E-05  8424   0.541E-04 0.299E-04
CGA: 131    -0.667924664002E+03   -0.94601E-04    0.24708E-05  8424   0.541E-04 0.297E-04
CGA: 132    -0.667924783486E+03   -0.11948E-03    0.18161E-05  8424   0.546E-04 0.290E-04
CGA: 133    -0.667924878884E+03   -0.95397E-04    0.25021E-05  8424   0.556E-04 0.279E-04
CGA: 134    -0.667924997233E+03   -0.11835E-03    0.19578E-05  8424   0.573E-04 0.262E-04
CGA: 135    -0.667925215558E+03   -0.21832E-03    0.23141E-05  8424   0.547E-04 0.837E-04
CGA: 136    -0.667925309671E+03   -0.94113E-04    0.25577E-05  8424   0.565E-04 0.259E-04
CGA: 137    -0.667925526691E+03   -0.21702E-03    0.22729E-05  8424   0.537E-04 0.828E-04
CGA: 138    -0.667925645667E+03   -0.11898E-03    0.17956E-05  8424   0.559E-04 0.255E-04
CGA: 139    -0.667925862844E+03   -0.21718E-03    0.22189E-05  8424   0.528E-04 0.819E-04
CGA: 140    -0.667925954577E+03   -0.91734E-04    0.24398E-05  8424   0.548E-04 0.253E-04
CGA: 141    -0.667926170220E+03   -0.21564E-03    0.21601E-05  8424   0.519E-04 0.806E-04
CGA: 142    -0.667926289305E+03   -0.11908E-03    0.16614E-05  8424   0.538E-04 0.252E-04
CGA: 143    -0.667926503698E+03   -0.21439E-03    0.20995E-05  8424   0.511E-04 0.793E-04
CGA: 144    -0.667926593491E+03   -0.89793E-04    0.23207E-05  8424   0.525E-04 0.251E-04
CGA: 145    -0.667926805805E+03   -0.21231E-03    0.20351E-05  8424   0.503E-04 0.778E-04
CGA: 146    -0.667926924695E+03   -0.11889E-03    0.15461E-05  8424   0.512E-04 0.250E-04
CGA: 147    -0.667927135226E+03   -0.21053E-03    0.19679E-05  8424   0.495E-04 0.763E-04
CGA: 148    -0.667927223287E+03   -0.88061E-04    0.22084E-05  8424   0.499E-04 0.250E-04
CGA: 149    -0.667927341608E+03   -0.11832E-03    0.15276E-05  8424   0.503E-04 0.243E-04
CGA: 150    -0.667927549667E+03   -0.20806E-03    0.18834E-05  8424   0.491E-04 0.743E-04
CGA: 151    -0.667927636849E+03   -0.87182E-04    0.22026E-05  8424   0.489E-04 0.243E-04
CGA: 152    -0.667927841316E+03   -0.20447E-03    0.18296E-05  8424   0.483E-04 0.727E-04
CGA: 153    -0.667927959385E+03   -0.11807E-03    0.14296E-05  8424   0.477E-04 0.243E-04
CGA: 154    -0.667928046433E+03   -0.87048E-04    0.20556E-05  8424   0.470E-04 0.246E-04
CGA: 155    -0.667928162175E+03   -0.11574E-03    0.13779E-05  8424   0.466E-04 0.248E-04
CGA: 156    -0.667928250682E+03   -0.88507E-04    0.19041E-05  8424   0.464E-04 0.248E-04
CGA: 157    -0.667928364407E+03   -0.11373E-03    0.13647E-05  8424   0.465E-04 0.246E-04
CGA: 158    -0.667928453800E+03   -0.89392E-04    0.18708E-05  8424   0.470E-04 0.240E-04
CGA: 159    -0.667928566161E+03   -0.11236E-03    0.14259E-05  8424   0.479E-04 0.230E-04
CGA: 160    -0.667928770980E+03   -0.20482E-03    0.17299E-05  8424   0.462E-04 0.709E-04
CGA: 161    -0.667928859240E+03   -0.88260E-04    0.18732E-05  8424   0.473E-04 0.227E-04
CGA: 162    -0.667929062500E+03   -0.20326E-03    0.17037E-05  8424   0.454E-04 0.701E-04
CGA: 163    -0.667929174864E+03   -0.11236E-03    0.13180E-05  8424   0.466E-04 0.225E-04
CGA: 164    -0.667929377798E+03   -0.20293E-03    0.16662E-05  8424   0.446E-04 0.694E-04
CGA: 165    -0.667929463829E+03   -0.86031E-04    0.17876E-05  8424   0.457E-04 0.224E-04
CGA: 166    -0.667929575996E+03   -0.11217E-03    0.13427E-05  8424   0.471E-04 0.209E-04
CGA: 167    -0.667929777593E+03   -0.20160E-03    0.16197E-05  8424   0.451E-04 0.682E-04
CGA: 168    -0.667929862099E+03   -0.84506E-04    0.18792E-05  8424   0.461E-04 0.208E-04
CGA: 169    -0.667930061243E+03   -0.19914E-03    0.15784E-05  8424   0.444E-04 0.670E-04
CGA: 170    -0.667930173193E+03   -0.11195E-03    0.12642E-05  8424   0.454E-04 0.206E-04
CGA: 171    -0.667930371203E+03   -0.19801E-03    0.15371E-05  8424   0.439E-04 0.660E-04
CGA: 172    -0.667930453646E+03   -0.82443E-04    0.18186E-05  8424   0.443E-04 0.206E-04
CGA: 173    -0.667930648663E+03   -0.19502E-03    0.14956E-05  8424   0.432E-04 0.646E-04
CGA: 174    -0.667930760231E+03   -0.11157E-03    0.11943E-05  8424   0.432E-04 0.205E-04
CGA: 175    -0.667930953717E+03   -0.19349E-03    0.14451E-05  8424   0.427E-04 0.634E-04
CGA: 176    -0.667931034334E+03   -0.80617E-04    0.17554E-05  8424   0.420E-04 0.206E-04
CGA: 177    -0.667931223850E+03   -0.18952E-03    0.14080E-05  8424   0.420E-04 0.619E-04
CGA: 178    -0.667931334869E+03   -0.11102E-03    0.11284E-05  8424   0.407E-04 0.208E-04
CGA: 179    -0.667931523208E+03   -0.18834E-03    0.13489E-05  8424   0.414E-04 0.605E-04
CGA: 180    -0.667931602274E+03   -0.79066E-04    0.16831E-05  8424   0.394E-04 0.210E-04
CGA: 181    -0.667931710684E+03   -0.10841E-03    0.10064E-05  8424   0.377E-04 0.226E-04
CGA: 182    -0.667931793099E+03   -0.82415E-04    0.12856E-05  8424   0.365E-04 0.238E-04
CGA: 183    -0.667931897654E+03   -0.10456E-03    0.88689E-06  8424   0.356E-04 0.246E-04
CGA: 184    -0.667931982396E+03   -0.84742E-04    0.10878E-05  8424   0.351E-04 0.251E-04
CGA: 185    -0.667932084451E+03   -0.10206E-03    0.83645E-06  8424   0.348E-04 0.252E-04
CGA: 186    -0.667932170306E+03   -0.85855E-04    0.10150E-05  8424   0.347E-04 0.252E-04
CGA: 187    -0.667932270965E+03   -0.10066E-03    0.83375E-06  8424   0.349E-04 0.249E-04
CGA: 188    -0.667932357002E+03   -0.86037E-04    0.10232E-05  8424   0.354E-04 0.243E-04
CGA: 189    -0.667932456967E+03   -0.99965E-04    0.87679E-06  8424   0.362E-04 0.235E-04
CGA: 190    -0.667932542556E+03   -0.85589E-04    0.11142E-05  8424   0.374E-04 0.223E-04
CGA: 191    -0.667932642217E+03   -0.99662E-04    0.99149E-06  8424   0.391E-04 0.206E-04
CGA: 192    -0.667932726960E+03   -0.84742E-04    0.13443E-05  8424   0.416E-04 0.183E-04
CGA: 193    -0.667932917752E+03   -0.19079E-03    0.13392E-05  8424   0.385E-04 0.607E-04
CGA: 194    -0.667933017498E+03   -0.99746E-04    0.10584E-05  8424   0.411E-04 0.182E-04
CGA: 195    -0.667933207763E+03   -0.19026E-03    0.13192E-05  8424   0.379E-04 0.602E-04
CGA: 196    -0.667933289639E+03   -0.81876E-04    0.13060E-05  8424   0.407E-04 0.180E-04
CGA: 197    -0.667933479423E+03   -0.18978E-03    0.13026E-05  8424   0.372E-04 0.597E-04
CGA: 198    -0.667933579125E+03   -0.99702E-04    0.98303E-06  8424   0.401E-04 0.180E-04
CGA: 199    -0.667933767286E+03   -0.18816E-03    0.12851E-05  8424   0.366E-04 0.591E-04
CGA: 200    -0.667933846986E+03   -0.79700E-04    0.12493E-05  8424   0.394E-04 0.180E-04
   3 F= -.66793385E+03 E0= -.66793385E+03  d E =-.146889E+00  mag=     2.0000
       N       E                     dE             d eps       ncg     rms          ort
SDA:   1    -0.659659081886E+03    0.82747E+01    0.00000E+00  8424   0.211E+02 0.000E+00
CGA:   2    -0.665501109076E+03   -0.58420E+01   -0.58416E+01  8424   0.876E+01 0.488E-02
CGA:   3    -0.667181377508E+03   -0.16803E+01   -0.16801E+01  8424   0.251E+01-0.552E-02
CGA:   4    -0.667609011271E+03   -0.42763E+00   -0.42743E+00  8424   0.576E+00-0.265E-02
CGA:   5    -0.667707672423E+03   -0.98661E-01   -0.98633E-01  8424   0.120E+00-0.507E-03
CGA:   6    -0.667732248242E+03   -0.24576E-01   -0.24574E-01  8424   0.303E-01-0.716E-04
CGA:   7    -0.667739665102E+03   -0.74169E-02   -0.74196E-02  8424   0.106E-01-0.223E-03
CGA:   8    -0.667742453093E+03   -0.27880E-02   -0.27987E-02  8424   0.378E-02-0.321E-03
CGA:   9    -0.667743532021E+03   -0.10789E-02   -0.10847E-02  8424   0.149E-02-0.939E-04
CGA:  10    -0.667744024821E+03   -0.49280E-03   -0.50543E-03  8424   0.662E-03-0.115E-03
CGA:  11    -0.667744238523E+03   -0.21370E-03   -0.23739E-03  8424   0.408E-03-0.164E-03
CGA:  12    -0.667744400380E+03   -0.16186E-03    0.72427E-03  8424   0.190E-03 0.886E-04
CGA:  13    -0.667744558826E+03   -0.15845E-03    0.78379E-04  8424   0.129E-03 0.816E-04
CGA:  14    -0.667744734079E+03   -0.17525E-03    0.25335E-04  8424   0.104E-03 0.102E-03
CGA:  15    -0.667744823541E+03   -0.89462E-04    0.17992E-04  8424   0.561E-04 0.540E-04
CGA:  16    -0.667744899505E+03   -0.75964E-04    0.41173E-05  8424   0.489E-04 0.472E-04
CGA:  17    -0.667744975128E+03   -0.75623E-04    0.29263E-05  8424   0.459E-04 0.433E-04
CGA:  18    -0.667745047805E+03   -0.72677E-04    0.26434E-05  8424   0.443E-04 0.406E-04
CGA:  19    -0.667745122289E+03   -0.74484E-04    0.23414E-05  8424   0.436E-04 0.382E-04
CGA:  20    -0.667745193600E+03   -0.71311E-04    0.23994E-05  8424   0.439E-04 0.358E-04
CGA:  21    -0.667745267778E+03   -0.74178E-04    0.23054E-05  8424   0.453E-04 0.330E-04
CGA:  22    -0.667745337962E+03   -0.70184E-04    0.26982E-05  8424   0.485E-04 0.290E-04
CGA:  23    -0.667745411893E+03   -0.73931E-04    0.29630E-05  8424   0.546E-04 0.231E-04
CGA:  24    -0.667745566691E+03   -0.15480E-03    0.35445E-05  8424   0.450E-04 0.783E-04
CGA:  25    -0.667745635470E+03   -0.68779E-04    0.27410E-05  8424   0.507E-04 0.228E-04
CGA:  26    -0.667745709686E+03   -0.74216E-04    0.32912E-05  8424   0.611E-04 0.140E-04
CGA:  27    -0.667745869785E+03   -0.16010E-03    0.31428E-05  8424   0.518E-04 0.764E-04
CGA:  28    -0.667745935968E+03   -0.66182E-04    0.41608E-05  8424   0.637E-04 0.930E-05
CGA:  29    -0.667746096601E+03   -0.16063E-03    0.28678E-05  8424   0.560E-04 0.737E-04
CGA:  30    -0.667746171919E+03   -0.75318E-04    0.41386E-05  8424   0.722E-04 0.520E-06
CGA:  31    -0.667746335881E+03   -0.16396E-03    0.26028E-05  8424   0.695E-04 0.717E-04
CGA:  32    -0.667746395904E+03   -0.60022E-04    0.11944E-04  8424   0.952E-04-0.196E-04
CGA:  33    -0.667746560837E+03   -0.16493E-03    0.22382E-05  8424   0.113E-03 0.666E-04
CGA:  34    -0.667746637612E+03   -0.76775E-04    0.38671E-04  8424   0.168E-03-0.776E-04
CGA:  35    -0.667746679493E+03   -0.41880E-04   -0.44307E-04  8424   0.311E-03-0.169E-03
CGA:  36    -0.667746756821E+03   -0.77328E-04   -0.70748E-04  8424   0.363E-03-0.278E-03
CGA:  37    -0.667746816854E+03   -0.60033E-04   -0.51833E-04  8424   0.617E-04-0.769E-04
CGA:  38    -0.667746901924E+03   -0.85070E-04    0.23037E-05  8424   0.286E-04 0.321E-04
CGA:  39    -0.667746971374E+03   -0.69450E-04    0.87721E-06  8424   0.288E-04 0.271E-04
CGA:  40    -0.667747036563E+03   -0.65189E-04    0.97140E-06  8424   0.298E-04 0.260E-04
CGA:  41    -0.667747106982E+03   -0.70419E-04    0.94852E-06  8424   0.323E-04 0.238E-04
CGA:  42    -0.667747169093E+03   -0.62110E-04    0.13425E-05  8424   0.381E-04 0.195E-04
CGA:  43    -0.667747241128E+03   -0.72036E-04    0.16209E-05  8424   0.512E-04 0.101E-04
CGA:  44    -0.667747398840E+03   -0.15771E-03    0.19939E-05  8424   0.406E-04 0.636E-04
CGA:  45    -0.667747455588E+03   -0.56747E-04    0.26602E-05  8424   0.570E-04 0.455E-05
CGA:  46    -0.667747615954E+03   -0.16037E-03    0.18550E-05  8424   0.502E-04 0.625E-04
CGA:  47    -0.667747689564E+03   -0.73611E-04    0.30649E-05  8424   0.782E-04-0.115E-04
CGA:  48    -0.667747856544E+03   -0.16698E-03    0.15774E-05  8424   0.963E-04 0.587E-04
CGA:  49    -0.667747736327E+03    0.12022E-03   -0.67737E-04  8424   0.264E-02-0.410E-03
CGA:  50    -0.667748075249E+03   -0.33892E-03   -0.29509E-03  8424   0.620E-04-0.284E-03
CGA:  51    -0.667748130589E+03   -0.55341E-04    0.77157E-05  8424   0.714E-04-0.107E-04
CGA:  52    -0.667748285380E+03   -0.15479E-03    0.18906E-05  8424   0.385E-04 0.544E-04
CGA:  53    -0.667748361372E+03   -0.75992E-04    0.17823E-05  8424   0.619E-04-0.178E-05
CGA:  54    -0.667748537354E+03   -0.17598E-03    0.16155E-05  8424   0.626E-04 0.571E-04
CGA:  55    -0.667748580526E+03   -0.43172E-04    0.24604E-04  8424   0.121E-03-0.402E-04
CGA:  56    -0.667748659346E+03   -0.78820E-04    0.60857E-04  8424   0.276E-03-0.137E-03
CGA:  57    -0.667748693952E+03   -0.34606E-04   -0.31864E-04  8424   0.281E-04-0.189E-04
CGA:  58    -0.667748767387E+03   -0.73435E-04    0.72605E-06  8424   0.215E-04 0.237E-04
CGA:  59    -0.667748832579E+03   -0.65193E-04    0.54201E-06  8424   0.215E-04 0.210E-04
CGA:  60    -0.667748894639E+03   -0.62060E-04    0.57522E-06  8424   0.219E-04 0.205E-04
CGA:  61    -0.667748960876E+03   -0.66237E-04    0.55077E-06  8424   0.231E-04 0.195E-04
CGA:  62    -0.667749019536E+03   -0.58659E-04    0.72053E-06  8424   0.264E-04 0.170E-04
CGA:  63    -0.667749088582E+03   -0.69046E-04    0.79781E-06  8424   0.349E-04 0.113E-04
CGA:  64    -0.667749234893E+03   -0.14631E-03    0.13075E-05  8424   0.251E-04 0.484E-04
CGA:  65    -0.667749289756E+03   -0.54864E-04    0.95281E-06  8424   0.312E-04 0.123E-04
CGA:  66    -0.667749431796E+03   -0.14204E-03    0.11599E-05  8424   0.235E-04 0.452E-04
CGA:  67    -0.667749499630E+03   -0.67834E-04    0.62569E-06  8424   0.271E-04 0.139E-04
CGA:  68    -0.667749551466E+03   -0.51836E-04    0.12244E-05  8424   0.343E-04 0.838E-05
CGA:  69    -0.667749692424E+03   -0.14096E-03    0.10858E-05  8424   0.281E-04 0.441E-04
CGA:  70    -0.667749762522E+03   -0.70098E-04    0.89916E-06  8424   0.347E-04 0.656E-05
CGA:  71    -0.667749898089E+03   -0.13557E-03    0.10214E-05  8424   0.302E-04 0.420E-04
CGA:  72    -0.667749946560E+03   -0.48472E-04    0.17472E-05  8424   0.362E-04 0.368E-05
CGA:  73    -0.667750079689E+03   -0.13313E-03    0.93143E-06  8424   0.337E-04 0.398E-04
CGA:  74    -0.667750150891E+03   -0.71202E-04    0.13348E-05  8424   0.380E-04 0.310E-07
CGA:  75    -0.667750276706E+03   -0.12581E-03    0.86410E-06  8424   0.371E-04 0.369E-04
CGA:  76    -0.667750323237E+03   -0.46532E-04    0.31441E-05  8424   0.378E-04-0.238E-05
CGA:  77    -0.667750443281E+03   -0.12004E-03    0.78103E-06  8424   0.368E-04 0.338E-04
CGA:  78    -0.667750513073E+03   -0.69792E-04    0.16846E-05  8424   0.327E-04-0.156E-06
CGA:  79    -0.667750621444E+03   -0.10837E-03    0.73572E-06  8424   0.314E-04 0.307E-04
CGA:  80    -0.667750672767E+03   -0.51323E-04    0.17718E-05  8424   0.248E-04 0.620E-05
CGA:  81    -0.667750776840E+03   -0.10407E-03    0.63176E-06  8424   0.255E-04 0.280E-04
CGA:  82    -0.667750839532E+03   -0.62692E-04    0.83356E-06  8424   0.196E-04 0.113E-04
CGA:  83    -0.667750939462E+03   -0.99930E-04    0.59111E-06  8424   0.221E-04 0.267E-04
CGA:  84    -0.667750994205E+03   -0.54744E-04    0.71594E-06  8424   0.174E-04 0.134E-04
CGA:  85    -0.667751052978E+03   -0.58773E-04    0.38581E-06  8424   0.165E-04 0.149E-04
CGA:  86    -0.667751107485E+03   -0.54507E-04    0.37607E-06  8424   0.162E-04 0.153E-04
CGA:  87    -0.667751165548E+03   -0.58063E-04    0.33354E-06  8424   0.160E-04 0.153E-04
CGA:  88    -0.667751219928E+03   -0.54379E-04    0.35116E-06  8424   0.159E-04 0.153E-04
CGA:  89    -0.667751277839E+03   -0.57911E-04    0.32143E-06  8424   0.158E-04 0.152E-04
CGA:  90    -0.667751331538E+03   -0.53699E-04    0.34865E-06  8424   0.158E-04 0.150E-04
CGA:  91    -0.667751389740E+03   -0.58202E-04    0.31799E-06  8424   0.160E-04 0.148E-04
CGA:  92    -0.667751442195E+03   -0.52455E-04    0.36456E-06  8424   0.162E-04 0.144E-04
CGA:  93    -0.667751501190E+03   -0.58995E-04    0.32909E-06  8424   0.167E-04 0.138E-04
CGA:  94    -0.667751551772E+03   -0.50582E-04    0.42256E-06  8424   0.177E-04 0.129E-04
CGA:  95    -0.667751612130E+03   -0.60358E-04    0.38689E-06  8424   0.194E-04 0.115E-04
CGA:  96    -0.667751659947E+03   -0.47817E-04    0.63046E-06  8424   0.225E-04 0.898E-05
CGA:  97    -0.667751779247E+03   -0.11930E-03    0.67182E-06  8424   0.188E-04 0.324E-04
CGA:  98    -0.667751840573E+03   -0.61326E-04    0.43499E-06  8424   0.214E-04 0.922E-05
CGA:  99    -0.667751956431E+03   -0.11586E-03    0.64884E-06  8424   0.181E-04 0.314E-04
CGA: 100    -0.667752002527E+03   -0.46096E-04    0.56690E-06  8424   0.203E-04 0.953E-05
CGA: 101    -0.667752064970E+03   -0.62443E-04    0.50279E-06  8424   0.239E-04 0.655E-05
CGA: 102    -0.667752181814E+03   -0.11684E-03    0.63186E-06  8424   0.208E-04 0.313E-04
CGA: 103    -0.667752224309E+03   -0.42495E-04    0.86133E-06  8424   0.244E-04 0.552E-05
CGA: 104    -0.667752340506E+03   -0.11620E-03    0.60366E-06  8424   0.217E-04 0.306E-04
CGA: 105    -0.667752404213E+03   -0.63707E-04    0.57074E-06  8424   0.256E-04 0.395E-05
CGA: 106    -0.667752518700E+03   -0.11449E-03    0.58576E-06  8424   0.235E-04 0.299E-04
CGA: 107    -0.667752557409E+03   -0.38709E-04    0.13147E-05  8424   0.276E-04 0.155E-05
CGA: 108    -0.667752670974E+03   -0.11357E-03    0.55801E-06  8424   0.265E-04 0.291E-04
CGA: 109    -0.667752736991E+03   -0.66017E-04    0.85212E-06  8424   0.309E-04-0.209E-05
CGA: 110    -0.667752848823E+03   -0.11183E-03    0.53045E-06  8424   0.313E-04 0.282E-04
CGA: 111    -0.667752882447E+03   -0.33625E-04    0.34904E-05  8424   0.359E-04-0.738E-05
CGA: 112    -0.667752991997E+03   -0.10955E-03    0.49979E-06  8424   0.378E-04 0.269E-04
CGA: 113    -0.667753061544E+03   -0.69547E-04    0.18010E-05  8424   0.421E-04-0.141E-04
CGA: 114    -0.667753168090E+03   -0.10655E-03    0.47329E-06  8424   0.448E-04 0.256E-04
CGA: 115    -0.667753197173E+03   -0.29084E-04    0.19784E-04  8424   0.477E-04-0.208E-04
CGA: 116    -0.667753301208E+03   -0.10404E-03    0.45607E-06  8424   0.494E-04 0.245E-04
CGA: 117    -0.667753372212E+03   -0.71003E-04    0.33771E-05  8424   0.495E-04-0.242E-04
CGA: 118    -0.667753470285E+03   -0.98073E-04    0.47439E-06  8424   0.483E-04 0.237E-04
CGA: 119    -0.667753596728E+03   -0.12644E-03    0.35875E-05  8424   0.487E-04 0.102E-05
CGA: 120    -0.667753797129E+03   -0.20040E-03    0.89592E-06  8424   0.480E-04 0.465E-04
CGA: 121    -0.667753864073E+03   -0.66944E-04    0.34306E-05  8424   0.439E-04-0.221E-04
CGA: 122    -0.667753954813E+03   -0.90739E-04    0.45089E-06  8424   0.399E-04 0.229E-04
CGA: 123    -0.667753989644E+03   -0.34831E-04    0.68701E-05  8424   0.344E-04-0.136E-04
CGA: 124    -0.667754081803E+03   -0.92160E-04    0.40646E-06  8424   0.307E-04 0.219E-04
CGA: 125    -0.667754140053E+03   -0.58250E-04    0.14039E-05  8424   0.253E-04-0.467E-05
CGA: 126    -0.667754225352E+03   -0.85299E-04    0.39452E-06  8424   0.235E-04 0.208E-04
CGA: 127    -0.667754267011E+03   -0.41660E-04    0.11742E-05  8424   0.190E-04 0.181E-05
CGA: 128    -0.667754353792E+03   -0.86781E-04    0.35042E-06  8424   0.191E-04 0.200E-04
CGA: 129    -0.667754405197E+03   -0.51405E-04    0.55491E-06  8424   0.156E-04 0.542E-05
CGA: 130    -0.667754489334E+03   -0.84136E-04    0.34374E-06  8424   0.167E-04 0.195E-04
CGA: 131    -0.667754533854E+03   -0.44520E-04    0.49086E-06  8424   0.138E-04 0.717E-05
CGA: 132    -0.667754619231E+03   -0.85377E-04    0.32951E-06  8424   0.153E-04 0.193E-04
CGA: 133    -0.667754667390E+03   -0.48158E-04    0.37086E-06  8424   0.129E-04 0.802E-05
CGA: 134    -0.667754711768E+03   -0.44378E-04    0.27791E-06  8424   0.119E-04 0.938E-05
CGA: 135    -0.667754759754E+03   -0.47986E-04    0.21359E-06  8424   0.114E-04 0.999E-05
CGA: 136    -0.667754803793E+03   -0.44039E-04    0.21551E-06  8424   0.111E-04 0.102E-04
CGA: 137    -0.667754851542E+03   -0.47749E-04    0.18739E-06  8424   0.110E-04 0.104E-04
CGA: 138    -0.667754895378E+03   -0.43835E-04    0.20132E-06  8424   0.109E-04 0.104E-04
CGA: 139    -0.667754943117E+03   -0.47739E-04    0.18024E-06  8424   0.109E-04 0.103E-04
CGA: 140    -0.667754986397E+03   -0.43280E-04    0.20057E-06  8424   0.109E-04 0.103E-04
CGA: 141    -0.667755034476E+03   -0.48079E-04    0.17863E-06  8424   0.110E-04 0.101E-04
CGA: 142    -0.667755076746E+03   -0.42270E-04    0.20994E-06  8424   0.112E-04 0.992E-05
CGA: 143    -0.667755125592E+03   -0.48846E-04    0.18350E-06  8424   0.114E-04 0.962E-05
CGA: 144    -0.667755166330E+03   -0.40738E-04    0.23858E-06  8424   0.119E-04 0.916E-05
CGA: 145    -0.667755216456E+03   -0.50126E-04    0.20580E-06  8424   0.128E-04 0.843E-05
CGA: 146    -0.667755254970E+03   -0.38514E-04    0.32413E-06  8424   0.142E-04 0.725E-05
CGA: 147    -0.667755307012E+03   -0.52042E-04    0.28582E-06  8424   0.166E-04 0.532E-05
CGA: 148    -0.667755404217E+03   -0.97206E-04    0.38737E-06  8424   0.143E-04 0.226E-04
CGA: 149    -0.667755439936E+03   -0.35719E-04    0.45590E-06  8424   0.167E-04 0.496E-05
CGA: 150    -0.667755536818E+03   -0.96882E-04    0.37607E-06  8424   0.145E-04 0.222E-04
CGA: 151    -0.667755589967E+03   -0.53148E-04    0.29206E-06  8424   0.170E-04 0.442E-05
CGA: 152    -0.667755685562E+03   -0.95596E-04    0.37159E-06  8424   0.150E-04 0.220E-04
CGA: 153    -0.667755718582E+03   -0.33020E-04    0.56105E-06  8424   0.176E-04 0.362E-05
CGA: 154    -0.667755814168E+03   -0.95586E-04    0.35984E-06  8424   0.158E-04 0.216E-04
CGA: 155    -0.667755868793E+03   -0.54625E-04    0.34272E-06  8424   0.187E-04 0.238E-05
CGA: 156    -0.667755963243E+03   -0.94449E-04    0.35294E-06  8424   0.174E-04 0.213E-04
CGA: 157    -0.667755992690E+03   -0.29448E-04    0.93194E-06  8424   0.206E-04 0.410E-06
CGA: 158    -0.667756086738E+03   -0.94048E-04    0.34060E-06  8424   0.201E-04 0.208E-04
CGA: 159    -0.667756144219E+03   -0.57481E-04    0.54137E-06  8424   0.238E-04-0.272E-05
CGA: 160    -0.667756237480E+03   -0.93261E-04    0.32583E-06  8424   0.245E-04 0.201E-04
CGA: 161    -0.667756261380E+03   -0.23900E-04    0.33101E-05  8424   0.289E-04-0.760E-05
CGA: 162    -0.667756352805E+03   -0.91425E-04    0.31016E-06  8424   0.312E-04 0.190E-04
CGA: 163    -0.667756415292E+03   -0.62486E-04    0.13248E-05  8424   0.359E-04-0.145E-04
CGA: 164    -0.667756504949E+03   -0.89657E-04    0.29381E-06  8424   0.396E-04 0.176E-04
CGA: 165    -0.667756622184E+03   -0.11724E-03    0.25312E-05  8424   0.430E-04 0.127E-05
CGA: 166    -0.667756819302E+03   -0.19712E-03    0.71839E-06  8424   0.407E-04 0.409E-04
CGA: 167    -0.667756883567E+03   -0.64265E-04    0.24133E-05  8424   0.456E-04-0.252E-04
CGA: 168    -0.667756895244E+03   -0.11677E-04   -0.12707E-04  8424   0.713E-04-0.393E-04
CGA: 169    -0.667756971106E+03   -0.75862E-04    0.82433E-05  8424   0.837E-04-0.597E-04
CGA: 170    -0.667756979941E+03   -0.88349E-05   -0.10064E-04  8424   0.872E-05 0.918E-05
   4 F= -.66775698E+03 E0= -.66775698E+03  d E =0.176867E+00  mag=     2.0000
       N       E                     dE             d eps       ncg     rms          ort
SDA:   1    -0.663478800840E+03    0.42782E+01    0.00000E+00  8424   0.104E+02 0.000E+00
CGA:   2    -0.666303496755E+03   -0.28247E+01   -0.28245E+01  8424   0.529E+01 0.249E-02
CGA:   3    -0.667270529335E+03   -0.96703E+00   -0.96688E+00  8424   0.124E+01-0.165E-02
CGA:   4    -0.667470711391E+03   -0.20018E+00   -0.20025E+00  8424   0.289E+00 0.689E-03
CGA:   5    -0.667521505529E+03   -0.50794E-01   -0.50822E-01  8424   0.599E-01 0.377E-03
CGA:   6    -0.667533921369E+03   -0.12416E-01   -0.12405E-01  8424   0.156E-01-0.357E-03
CGA:   7    -0.667537426709E+03   -0.35053E-02   -0.35049E-02  8424   0.468E-02-0.440E-04
CGA:   8    -0.667538671251E+03   -0.12445E-02   -0.12496E-02  8424   0.171E-02-0.156E-03
CGA:   9    -0.667539209338E+03   -0.53809E-03   -0.57167E-03  8424   0.940E-03-0.308E-03
CGA:  10    -0.667539471683E+03   -0.26235E-03   -0.35825E-03  8424   0.852E-03-0.433E-03
CGA:  11    -0.667538327530E+03    0.11442E-02   -0.52964E-03  8424   0.704E-02-0.187E-02
CGA:  12    -0.667539663956E+03   -0.13364E-02   -0.13556E-02  8424   0.117E-02 0.179E-03
CGA:  13    -0.667540171821E+03   -0.50787E-03   -0.55822E-03  8424   0.920E-03-0.297E-03
CGA:  14    -0.667540348484E+03   -0.17666E-03   -0.17522E-03  8424   0.414E-03-0.315E-04
CGA:  15    -0.667540492799E+03   -0.14432E-03   -0.22426E-03  8424   0.508E-03-0.307E-03
CGA:  16    -0.667540663209E+03   -0.17041E-03   -0.18157E-03  8424   0.371E-03-0.249E-03
CGA:  17    -0.667540708082E+03   -0.44873E-04   -0.41567E-04  8424   0.192E-03-0.354E-04
CGA:  18    -0.667540588242E+03    0.11984E-03   -0.17497E-03  8424   0.186E-02-0.425E-03
CGA:  19    -0.667541061299E+03   -0.47306E-03   -0.42433E-03  8424   0.414E-03-0.415E-03
CGA:  20    -0.667541103713E+03   -0.42413E-04   -0.50062E-04  8424   0.611E-04 0.416E-04
CGA:  21    -0.667541123544E+03   -0.19831E-04   -0.19426E-04  8424   0.807E-04-0.102E-04
CGA:  22    -0.667541243941E+03   -0.12040E-03    0.63662E-05  8424   0.103E-03 0.109E-04
CGA:  23    -0.667541491968E+03   -0.24803E-03    0.85025E-05  8424   0.164E-03-0.547E-05
CGA:  24    -0.667541880823E+03   -0.38885E-03    0.90551E-05  8424   0.229E-03 0.576E-04
CGA:  25    -0.667542372730E+03   -0.49191E-03    0.35510E-04  8424   0.301E-03-0.138E-04
CGA:  26    -0.667543179589E+03   -0.80686E-03    0.13874E-04  8424   0.456E-03 0.149E-03
CGA:  27    -0.667544718144E+03   -0.15386E-02    0.45831E-04  8424   0.324E-03 0.113E-03
CGA:  28    -0.667545829629E+03   -0.11115E-02    0.20782E-04  8424   0.236E-03 0.821E-04
CGA:  29    -0.667546609138E+03   -0.77951E-03    0.16150E-04  8424   0.207E-03 0.997E-05
CGA:  30    -0.667547428127E+03   -0.81899E-03    0.73785E-05  8424   0.103E-03 0.715E-04
CGA:  31    -0.667547899635E+03   -0.47151E-03    0.54256E-05  8424   0.167E-03-0.538E-04
CGA:  32    -0.667547905315E+03   -0.56799E-05   -0.17594E-04  8424   0.273E-04 0.535E-04
   5 F= -.66754791E+03 E0= -.66754791E+03  d E =0.209075E+00  mag=     2.0000
       N       E                     dE             d eps       ncg     rms          ort
SDA:   1    -0.663650693828E+03    0.38972E+01    0.00000E+00  8424   0.112E+02 0.000E+00
CGA:   2    -0.666042892978E+03   -0.23922E+01   -0.23947E+01  8424   0.506E+01 0.751E-02
CGA:   3    -0.667098574895E+03   -0.10557E+01   -0.10551E+01  8424   0.156E+01-0.283E-02
CGA:   4    -0.667352939660E+03   -0.25436E+00   -0.25440E+00  8424   0.348E+00 0.160E-03
CGA:   5    -0.667413252804E+03   -0.60313E-01   -0.60404E-01  8424   0.707E-01 0.662E-03
CGA:   6    -0.667427606853E+03   -0.14354E-01   -0.14334E-01  8424   0.171E-01-0.243E-03
CGA:   7    -0.667431392920E+03   -0.37861E-02   -0.37967E-02  8424   0.480E-02 0.181E-03
CGA:   8    -0.667432627194E+03   -0.12343E-02   -0.12329E-02  8424   0.147E-02-0.558E-04
CGA:   9    -0.667433060735E+03   -0.43354E-03   -0.43661E-03  8424   0.600E-03-0.131E-03
CGA:  10    -0.667433234221E+03   -0.17349E-03   -0.17408E-03  8424   0.263E-03-0.156E-04
CGA:  11    -0.667433287971E+03   -0.53750E-04   -0.18028E-03  8424   0.724E-03-0.300E-03
CGA:  12    -0.667433417771E+03   -0.12980E-03   -0.13606E-03  8424   0.119E-03 0.548E-04
CGA:  13    -0.667433501352E+03   -0.83581E-04    0.18017E-03  8424   0.616E-04 0.883E-05
CGA:  14    -0.667433554027E+03   -0.52675E-04    0.28400E-04  8424   0.424E-04 0.234E-04
CGA:  15    -0.667433617980E+03   -0.63953E-04    0.10234E-04  8424   0.326E-04 0.368E-04
CGA:  16    -0.667433663419E+03   -0.45439E-04    0.35446E-05  8424   0.257E-04 0.154E-04
CGA:  17    -0.667433709912E+03   -0.46492E-04    0.52263E-05  8424   0.217E-04 0.270E-04
CGA:  18    -0.667433742737E+03   -0.32825E-04    0.20720E-05  8424   0.178E-04 0.164E-04
CGA:  19    -0.667433771609E+03   -0.28872E-04    0.15026E-05  8424   0.177E-04 0.161E-04
CGA:  20    -0.667433803832E+03   -0.32223E-04    0.12532E-05  8424   0.187E-04 0.150E-04
CGA:  21    -0.667433830107E+03   -0.26275E-04    0.20134E-05  8424   0.222E-04 0.124E-04
CGA:  22    -0.667433864363E+03   -0.34257E-04    0.20467E-05  8424   0.326E-04 0.585E-05
CGA:  23    -0.667433938875E+03   -0.74512E-04    0.29508E-05  8424   0.232E-04 0.397E-04
CGA:  24    -0.667433960280E+03   -0.21405E-04    0.61415E-05  8424   0.369E-04 0.199E-05
CGA:  25    -0.667434038460E+03   -0.78180E-04    0.25831E-05  8424   0.315E-04 0.390E-04
CGA:  26    -0.667434076132E+03   -0.37672E-04    0.45436E-05  8424   0.601E-04-0.132E-04
CGA:  27    -0.667434161162E+03   -0.85030E-04    0.16584E-05  8424   0.105E-03 0.299E-04
CGA:  28    -0.667434320106E+03   -0.15894E-03    0.32552E-04  8424   0.137E-03-0.819E-07
CGA:  29    -0.667434596428E+03   -0.27632E-03    0.83275E-05  8424   0.808E-04 0.116E-03
CGA:  30    -0.667433048677E+03    0.15478E-02   -0.85007E-03  8424   0.164E-01-0.105E-02
CGA:  31    -0.667434799834E+03   -0.17512E-02   -0.18661E-02  8424   0.121E-03 0.276E-03
CGA:  32    -0.667434832933E+03   -0.33099E-04   -0.25459E-04  8424   0.246E-04-0.247E-04
CGA:  33    -0.667434900425E+03   -0.67492E-04    0.20238E-05  8424   0.217E-04 0.794E-05
CGA:  34    -0.667434979875E+03   -0.79450E-04    0.41218E-05  8424   0.385E-04 0.109E-04
CGA:  35    -0.667435057490E+03   -0.77615E-04    0.96495E-05  8424   0.214E-03-0.629E-04
CGA:  36    -0.667435061104E+03   -0.36138E-05   -0.22740E-04  8424   0.186E-04 0.483E-04
   6 F= -.66743506E+03 E0= -.66743506E+03  d E =0.112844E+00  mag=     2.0000
       N       E                     dE             d eps       ncg     rms          ort
SDA:   1    -0.660682708839E+03    0.67523E+01    0.00000E+00  8424   0.189E+02 0.000E+00
CGA:   2    -0.664761758170E+03   -0.40790E+01   -0.40877E+01  8424   0.824E+01-0.329E-02
CGA:   3    -0.666477769514E+03   -0.17160E+01   -0.17144E+01  8424   0.254E+01 0.112E-01
CGA:   4    -0.666892903467E+03   -0.41513E+00   -0.41555E+00  8424   0.592E+00 0.529E-03
CGA:   5    -0.666997767510E+03   -0.10486E+00   -0.10498E+00  8424   0.120E+00 0.872E-04
CGA:   6    -0.667022180979E+03   -0.24413E-01   -0.24436E-01  8424   0.314E-01 0.103E-03
CGA:   7    -0.667029177675E+03   -0.69967E-02   -0.70330E-02  8424   0.907E-02 0.197E-03
CGA:   8    -0.667031502662E+03   -0.23250E-02   -0.23312E-02  8424   0.280E-02 0.428E-04
CGA:   9    -0.667032294611E+03   -0.79195E-03   -0.79071E-03  8424   0.102E-02-0.117E-04
CGA:  10    -0.667032627627E+03   -0.33302E-03   -0.33046E-03  8424   0.471E-03-0.423E-04
CGA:  11    -0.667032774889E+03   -0.14726E-03   -0.14649E-03  8424   0.200E-03-0.142E-04
CGA:  12    -0.667032854702E+03   -0.79813E-04   -0.80539E-04  8424   0.136E-03-0.221E-04
CGA:  13    -0.667032917648E+03   -0.62947E-04   -0.91091E-04  8424   0.342E-03-0.794E-04
CGA:  14    -0.667032981474E+03   -0.63825E-04   -0.69852E-04  8424   0.901E-04 0.306E-04
CGA:  15    -0.667033025397E+03   -0.43924E-04   -0.45941E-04  8424   0.115E-03-0.266E-04
CGA:  16    -0.667033058627E+03   -0.33229E-04   -0.33775E-04  8424   0.129E-03-0.287E-04
CGA:  17    -0.667033113293E+03   -0.54666E-04   -0.60403E-04  8424   0.222E-03-0.324E-04
CGA:  18    -0.667033256802E+03   -0.14351E-03    0.54902E-03  8424   0.251E-03-0.251E-04
CGA:  19    -0.667033454096E+03   -0.19729E-03    0.51226E-03  8424   0.226E-03 0.411E-04
CGA:  20    -0.667033686319E+03   -0.23222E-03    0.61896E-03  8424   0.252E-03 0.502E-04
CGA:  21    -0.667034039864E+03   -0.35354E-03    0.15262E-03  8424   0.210E-03 0.162E-04
CGA:  22    -0.667034308704E+03   -0.26884E-03    0.94948E-04  8424   0.124E-03 0.390E-04
CGA:  23    -0.667034532565E+03   -0.22386E-03    0.34433E-04  8424   0.889E-04 0.378E-04
CGA:  24    -0.667034724364E+03   -0.19180E-03    0.22876E-04  8424   0.944E-04 0.234E-04
CGA:  25    -0.667034939126E+03   -0.21476E-03    0.19991E-04  8424   0.919E-04 0.310E-04
CGA:  26    -0.667035222156E+03   -0.28303E-03    0.13460E-04  8424   0.672E-04 0.490E-04
CGA:  27    -0.667035254393E+03   -0.32237E-04   -0.38534E-04  8424   0.140E-03-0.380E-04
CGA:  28    -0.667035311962E+03   -0.57569E-04   -0.42035E-04  8424   0.183E-03-0.134E-03
CGA:  29    -0.667035328193E+03   -0.16231E-04   -0.22847E-04  8424   0.103E-04 0.232E-04
CGA:  30    -0.667035350303E+03   -0.22111E-04    0.16467E-05  8424   0.256E-04 0.121E-05
CGA:  31    -0.667035459250E+03   -0.10895E-03    0.14822E-05  8424   0.400E-04 0.232E-04
CGA:  32    -0.667035513669E+03   -0.54419E-04    0.10962E-04  8424   0.962E-04-0.445E-04
CGA:  33    -0.667035520604E+03   -0.69351E-05   -0.12186E-04  8424   0.948E-05 0.195E-04
   7 F= -.66703552E+03 E0= -.66703552E+03  d E =0.399540E+00  mag=     2.0000
       N       E                     dE             d eps       ncg     rms          ort
SDA:   1    -0.658027033928E+03    0.90085E+01    0.00000E+00  8424   0.255E+02 0.000E+00
CGA:   2    -0.663610682107E+03   -0.55836E+01   -0.56005E+01  8424   0.113E+02-0.670E-02
CGA:   3    -0.665952424352E+03   -0.23417E+01   -0.23397E+01  8424   0.336E+01 0.836E-02
CGA:   4    -0.666497077665E+03   -0.54465E+00   -0.54495E+00  8424   0.807E+00-0.338E-03
CGA:   5    -0.666640808367E+03   -0.14373E+00   -0.14384E+00  8424   0.164E+00 0.633E-04
CGA:   6    -0.666674007076E+03   -0.33199E-01   -0.33227E-01  8424   0.427E-01 0.185E-03
CGA:   7    -0.666683789853E+03   -0.97828E-02   -0.98055E-02  8424   0.131E-01 0.199E-03
CGA:   8    -0.666687323435E+03   -0.35336E-02   -0.35234E-02  8424   0.447E-02-0.158E-03
CGA:   9    -0.666688617202E+03   -0.12938E-02   -0.12868E-02  8424   0.176E-02-0.178E-03
CGA:  10    -0.666689203732E+03   -0.58653E-03   -0.59154E-03  8424   0.910E-03-0.242E-03
CGA:  11    -0.666689481877E+03   -0.27814E-03   -0.28583E-03  8424   0.495E-03-0.224E-03
CGA:  12    -0.666689103934E+03    0.37794E-03   -0.42034E-03  8424   0.428E-02-0.101E-02
CGA:  13    -0.666689887741E+03   -0.78381E-03   -0.77720E-03  8424   0.732E-03-0.337E-04
CGA:  14    -0.666690155802E+03   -0.26806E-03   -0.27042E-03  8424   0.481E-03-0.224E-03
CGA:  15    -0.666690279818E+03   -0.12402E-03   -0.16845E-03  8424   0.763E-03-0.313E-03
CGA:  16    -0.666690464801E+03   -0.18498E-03   -0.15365E-03  8424   0.315E-03-0.187E-03
CGA:  17    -0.666690556169E+03   -0.91368E-04   -0.99688E-04  8424   0.233E-03-0.144E-03
CGA:  18    -0.666690756309E+03   -0.20014E-03    0.19566E-04  8424   0.180E-03-0.400E-04
CGA:  19    -0.666690922547E+03   -0.16624E-03    0.50719E-04  8424   0.993E-04 0.231E-04
CGA:  20    -0.666691137193E+03   -0.21465E-03    0.12477E-04  8424   0.647E-04 0.187E-04
CGA:  21    -0.666691296514E+03   -0.15932E-03    0.75628E-05  8424   0.528E-04 0.250E-04
CGA:  22    -0.666691524284E+03   -0.22777E-03    0.40658E-05  8424   0.332E-04 0.498E-04
CGA:  23    -0.666691602182E+03   -0.77898E-04    0.27191E-05  8424   0.227E-04 0.162E-04
CGA:  24    -0.666691708098E+03   -0.10592E-03    0.18523E-05  8424   0.241E-04 0.216E-04
CGA:  25    -0.666691785940E+03   -0.77842E-04    0.12771E-05  8424   0.322E-04 0.881E-05
CGA:  26    -0.666691930821E+03   -0.14488E-03    0.22639E-05  8424   0.259E-04 0.288E-04
CGA:  27    -0.666692004015E+03   -0.73194E-04    0.16332E-05  8424   0.228E-04 0.105E-04
CGA:  28    -0.666692117072E+03   -0.11306E-03    0.15092E-05  8424   0.302E-04 0.193E-04
CGA:  29    -0.666692194303E+03   -0.77231E-04    0.21787E-05  8424   0.494E-04-0.224E-05
CGA:  30    -0.666692351381E+03   -0.15708E-03    0.22331E-05  8424   0.494E-04 0.152E-04
CGA:  31    -0.666692581014E+03   -0.22963E-03    0.30222E-05  8424   0.618E-04 0.442E-04
CGA:  32    -0.666692660309E+03   -0.79295E-04    0.14726E-04  8424   0.213E-03-0.737E-04
CGA:  33    -0.666692679716E+03   -0.19407E-04   -0.23011E-04  8424   0.135E-04 0.142E-04
CGA:  34    -0.666692738570E+03   -0.58854E-04    0.51992E-06  8424   0.221E-04 0.109E-04
CGA:  35    -0.666692808722E+03   -0.70152E-04    0.11029E-05  8424   0.619E-04-0.826E-05
CGA:  36    -0.666693037102E+03   -0.22838E-03    0.92003E-06  8424   0.150E-03 0.301E-04
CGA:  37    -0.666693608975E+03   -0.57187E-03    0.14739E-04  8424   0.281E-03-0.181E-04
CGA:  38    -0.666694861324E+03   -0.12523E-02    0.69830E-05  8424   0.194E-03 0.205E-03
CGA:  39    -0.666694929977E+03   -0.68652E-04   -0.42586E-04  8424   0.240E-03-0.198E-03
CGA:  40    -0.666694948055E+03   -0.18078E-04   -0.23242E-04  8424   0.868E-05 0.210E-04
CGA:  41    -0.666694990598E+03   -0.42543E-04    0.27049E-06  8424   0.227E-04 0.246E-05
CGA:  42    -0.666695170689E+03   -0.18009E-03    0.58046E-06  8424   0.204E-04 0.277E-04
CGA:  43    -0.666695229701E+03   -0.59012E-04    0.10096E-05  8424   0.670E-04-0.197E-04
CGA:  44    -0.666695241186E+03   -0.11486E-04   -0.91117E-05  8424   0.141E-04-0.121E-04
CGA:  45    -0.666695302397E+03   -0.61211E-04    0.25938E-06  8424   0.854E-05 0.774E-05
CGA:  46    -0.666695345267E+03   -0.42869E-04    0.20235E-06  8424   0.102E-04 0.530E-05
CGA:  47    -0.666695397773E+03   -0.52506E-04    0.23633E-06  8424   0.168E-04 0.191E-05
CGA:  48    -0.666695516008E+03   -0.11824E-03    0.39366E-06  8424   0.131E-04 0.180E-04
CGA:  49    -0.666695555837E+03   -0.39829E-04    0.56882E-06  8424   0.157E-04-0.126E-06
CGA:  50    -0.666695660797E+03   -0.10496E-03    0.26592E-06  8424   0.169E-04 0.126E-04
CGA:  51    -0.666695703503E+03   -0.42706E-04    0.93527E-06  8424   0.121E-04-0.756E-06
CGA:  52    -0.666695780401E+03   -0.76898E-04    0.19945E-06  8424   0.121E-04 0.109E-04
CGA:  53    -0.666695826234E+03   -0.45834E-04    0.39666E-06  8424   0.814E-05 0.368E-05
CGA:  54    -0.666695901961E+03   -0.75727E-04    0.16988E-06  8424   0.950E-05 0.999E-05
CGA:  55    -0.666695943584E+03   -0.41623E-04    0.26404E-06  8424   0.691E-05 0.526E-05
CGA:  56    -0.666695989937E+03   -0.46353E-04    0.11838E-06  8424   0.669E-05 0.601E-05
CGA:  57    -0.666696030224E+03   -0.40286E-04    0.12897E-06  8424   0.705E-05 0.581E-05
CGA:  58    -0.666696078651E+03   -0.48427E-04    0.11753E-06  8424   0.836E-05 0.501E-05
CGA:  59    -0.666696113597E+03   -0.34946E-04    0.24515E-06  8424   0.127E-04 0.254E-05
CGA:  60    -0.666696224842E+03   -0.11125E-03    0.28274E-06  8424   0.844E-05 0.160E-04
CGA:  61    -0.666696276046E+03   -0.51204E-04    0.16161E-06  8424   0.141E-04 0.171E-05
CGA:  62    -0.666696390778E+03   -0.11473E-03    0.28847E-06  8424   0.987E-05 0.164E-04
CGA:  63    -0.666696419891E+03   -0.29113E-04    0.44484E-06  8424   0.203E-04-0.158E-05
CGA:  64    -0.666696544894E+03   -0.12500E-03    0.26386E-06  8424   0.262E-04 0.160E-04
CGA:  65    -0.666696608294E+03   -0.63399E-04    0.15254E-05  8424   0.803E-04-0.325E-04
CGA:  66    -0.666696613655E+03   -0.53610E-05   -0.79471E-05  8424   0.632E-05 0.116E-04
   8 F= -.66669661E+03 E0= -.66669661E+03  d E =0.338907E+00  mag=     2.0000
       N       E                     dE             d eps       ncg     rms          ort
SDA:   1    -0.658132872409E+03    0.85637E+01    0.00000E+00  8424   0.247E+02 0.000E+00
CGA:   2    -0.663535128779E+03   -0.54023E+01   -0.54075E+01  8424   0.109E+02 0.139E-01
CGA:   3    -0.665744392837E+03   -0.22093E+01   -0.22082E+01  8424   0.323E+01-0.112E-02
CGA:   4    -0.666275518591E+03   -0.53113E+00   -0.53134E+00  8424   0.772E+00-0.253E-03
CGA:   5    -0.666412470507E+03   -0.13695E+00   -0.13701E+00  8424   0.161E+00 0.153E-03
CGA:   6    -0.666444828951E+03   -0.32358E-01   -0.32312E-01  8424   0.393E-01-0.539E-03
CGA:   7    -0.666453735697E+03   -0.89067E-02   -0.89224E-02  8424   0.118E-01 0.276E-03
CGA:   8    -0.666456818743E+03   -0.30830E-02   -0.30791E-02  8424   0.386E-02-0.180E-03
CGA:   9    -0.666457987118E+03   -0.11684E-02   -0.11820E-02  8424   0.169E-02-0.443E-03
CGA:  10    -0.666458532718E+03   -0.54560E-03   -0.65158E-03  8424   0.144E-02-0.688E-03
CGA:  11    -0.666458657152E+03   -0.12443E-03   -0.48626E-03  8424   0.244E-02-0.129E-02
CGA:  12    -0.666459199689E+03   -0.54254E-03   -0.52747E-03  8424   0.761E-03-0.173E-03
CGA:  13    -0.666459435122E+03   -0.23543E-03   -0.40233E-03  8424   0.174E-02-0.621E-03
CGA:  14    -0.666459745657E+03   -0.31053E-03   -0.28295E-03  8424   0.337E-03-0.185E-03
CGA:  15    -0.666458673390E+03    0.10723E-02   -0.44162E-03  8424   0.963E-02-0.131E-02
CGA:  16    -0.666460171498E+03   -0.14981E-02   -0.14145E-02  8424   0.147E-02-0.404E-03
CGA:  17    -0.666460520845E+03   -0.34935E-03   -0.34474E-03  8424   0.140E-03-0.430E-04
CGA:  18    -0.666460698933E+03   -0.17809E-03    0.26818E-04  8424   0.156E-03-0.282E-04
CGA:  19    -0.666460903187E+03   -0.20425E-03    0.15890E-04  8424   0.120E-03-0.102E-04
CGA:  20    -0.666461214722E+03   -0.31153E-03    0.64771E-05  8424   0.939E-04 0.805E-04
CGA:  21    -0.666461370250E+03   -0.15553E-03    0.11745E-04  8424   0.109E-03-0.170E-05
CGA:  22    -0.666461570806E+03   -0.20056E-03    0.10933E-04  8424   0.726E-04 0.975E-05
CGA:  23    -0.666461833330E+03   -0.26252E-03    0.36299E-05  8424   0.713E-04 0.555E-04
CGA:  24    -0.666461967588E+03   -0.13426E-03    0.72216E-05  8424   0.791E-04 0.537E-05
CGA:  25    -0.666462169843E+03   -0.20226E-03    0.60790E-05  8424   0.429E-04 0.287E-04
CGA:  26    -0.666462389824E+03   -0.21998E-03    0.22928E-05  8424   0.514E-04 0.458E-04
CGA:  27    -0.666462508366E+03   -0.11854E-03    0.38456E-05  8424   0.620E-04 0.604E-05
CGA:  28    -0.666462725162E+03   -0.21680E-03    0.34268E-05  8424   0.358E-04 0.397E-04
CGA:  29    -0.666462825617E+03   -0.10045E-03    0.20378E-05  8424   0.309E-04 0.182E-04
CGA:  30    -0.666462927810E+03   -0.10219E-03    0.14301E-05  8424   0.351E-04 0.131E-04
CGA:  31    -0.666463133954E+03   -0.20614E-03    0.17457E-05  8424   0.292E-04 0.458E-04
CGA:  32    -0.666463232952E+03   -0.98997E-04    0.13014E-05  8424   0.271E-04 0.147E-04
CGA:  33    -0.666463328887E+03   -0.95935E-04    0.11504E-05  8424   0.268E-04 0.151E-04
CGA:  34    -0.666463422896E+03   -0.94009E-04    0.11465E-05  8424   0.287E-04 0.137E-04
CGA:  35    -0.666463520240E+03   -0.97345E-04    0.12784E-05  8424   0.335E-04 0.980E-05
CGA:  36    -0.666463723933E+03   -0.20369E-03    0.14088E-05  8424   0.281E-04 0.431E-04
CGA:  37    -0.666463815731E+03   -0.91798E-04    0.13163E-05  8424   0.308E-04 0.925E-05
CGA:  38    -0.666464012568E+03   -0.19684E-03    0.11969E-05  8424   0.274E-04 0.388E-04
CGA:  39    -0.666464102291E+03   -0.89723E-04    0.12793E-05  8424   0.263E-04 0.100E-04
CGA:  40    -0.666464278775E+03   -0.17648E-03    0.10237E-05  8424   0.256E-04 0.336E-04
CGA:  41    -0.666464372636E+03   -0.93861E-04    0.10362E-05  8424   0.214E-04 0.119E-04
CGA:  42    -0.666464536013E+03   -0.16338E-03    0.83230E-06  8424   0.232E-04 0.295E-04
CGA:  43    -0.666464621589E+03   -0.85576E-04    0.93278E-06  8424   0.182E-04 0.134E-04
CGA:  44    -0.666464711528E+03   -0.89939E-04    0.51631E-06  8424   0.170E-04 0.152E-04
CGA:  45    -0.666464796528E+03   -0.85000E-04    0.47756E-06  8424   0.167E-04 0.153E-04
CGA:  46    -0.666464884526E+03   -0.87998E-04    0.44197E-06  8424   0.167E-04 0.150E-04
CGA:  47    -0.666464969352E+03   -0.84826E-04    0.46091E-06  8424   0.170E-04 0.144E-04
CGA:  48    -0.666465055556E+03   -0.86203E-04    0.46848E-06  8424   0.177E-04 0.135E-04
CGA:  49    -0.666465140433E+03   -0.84877E-04    0.52057E-06  8424   0.192E-04 0.121E-04
CGA:  50    -0.666465223425E+03   -0.82992E-04    0.63468E-06  8424   0.220E-04 0.958E-05
CGA:  51    -0.666465309709E+03   -0.86284E-04    0.81972E-06  8424   0.274E-04 0.526E-05
CGA:  52    -0.666465496615E+03   -0.18691E-03    0.84766E-06  8424   0.231E-04 0.331E-04
CGA:  53    -0.666465577086E+03   -0.80472E-04    0.99429E-06  8424   0.296E-04 0.225E-05
CGA:  54    -0.666465767530E+03   -0.19044E-03    0.75699E-06  8424   0.269E-04 0.318E-04
CGA:  55    -0.666465845299E+03   -0.77769E-04    0.14817E-05  8424   0.356E-04-0.397E-05
CGA:  56    -0.666466029369E+03   -0.18407E-03    0.68303E-06  8424   0.381E-04 0.297E-04
CGA:  57    -0.666466111764E+03   -0.82395E-04    0.31302E-05  8424   0.522E-04-0.189E-04
CGA:  58    -0.666466300068E+03   -0.18830E-03    0.48905E-06  8424   0.709E-04 0.246E-04
CGA:  59    -0.666466626342E+03   -0.32627E-03    0.51641E-05  8424   0.669E-04 0.621E-06
CGA:  60    -0.666467012218E+03   -0.38588E-03    0.16207E-05  8424   0.387E-04 0.616E-04
CGA:  61    -0.666467100730E+03   -0.88512E-04    0.29207E-05  8424   0.479E-04-0.218E-04
CGA:  62    -0.666467154705E+03   -0.53974E-04    0.13390E-04  8424   0.589E-04-0.322E-04
CGA:  63    -0.666467239620E+03   -0.84915E-04    0.94859E-05  8424   0.715E-04-0.443E-04
CGA:  64    -0.666467296299E+03   -0.56679E-04    0.87940E-04  8424   0.858E-04-0.580E-04
CGA:  65    -0.666467373040E+03   -0.76741E-04    0.51614E-04  8424   0.102E-03-0.735E-04
CGA:  66    -0.666465401499E+03    0.19715E-02   -0.10792E-02  8424   0.146E-01-0.115E-02
CGA:  67    -0.666467856350E+03   -0.24549E-02   -0.24357E-02  8424   0.179E-04-0.533E-04
CGA:  68    -0.666468038582E+03   -0.18223E-03    0.73282E-06  8424   0.745E-04-0.143E-04
CGA:  69    -0.666468032353E+03    0.62289E-05   -0.82305E-05  8424   0.152E-04 0.289E-04
CGA:  70    -0.666468045683E+03   -0.13330E-04   -0.10595E-04  8424   0.124E-03-0.333E-04
CGA:  71    -0.666468303899E+03   -0.25822E-03    0.44832E-04  8424   0.884E-03-0.306E-03
CGA:  72    -0.666468305545E+03   -0.16459E-05   -0.10256E-03  8424   0.604E-04 0.218E-03
   9 F= -.66646831E+03 E0= -.66646831E+03  d E =0.228308E+00  mag=     2.0000
       N       E                     dE             d eps       ncg     rms          ort
SDA:   1    -0.656723384983E+03    0.97449E+01    0.00000E+00  8424   0.295E+02 0.000E+00
CGA:   2    -0.662769373571E+03   -0.60460E+01   -0.60737E+01  8424   0.121E+02-0.323E-01
CGA:   3    -0.665334879157E+03   -0.25655E+01   -0.25598E+01  8424   0.392E+01 0.291E-01
CGA:   4    -0.665979484833E+03   -0.64461E+00   -0.64506E+00  8424   0.934E+00 0.249E-02
CGA:   5    -0.666146423748E+03   -0.16694E+00   -0.16715E+00  8424   0.196E+00 0.628E-04
CGA:   6    -0.666185571830E+03   -0.39148E-01   -0.39058E-01  8424   0.476E-01-0.305E-03
CGA:   7    -0.666196275460E+03   -0.10704E-01   -0.10748E-01  8424   0.143E-01 0.190E-03
CGA:   8    -0.666199960242E+03   -0.36848E-02   -0.36567E-02  8424   0.452E-02-0.146E-03
CGA:   9    -0.666201288568E+03   -0.13283E-02   -0.12931E-02  8424   0.172E-02-0.241E-03
CGA:  10    -0.666201904392E+03   -0.61582E-03   -0.59623E-03  8424   0.103E-02-0.315E-03
CGA:  11    -0.666202271866E+03   -0.36747E-03   -0.38223E-03  8424   0.950E-03-0.494E-03
CGA:  12    -0.666201637827E+03    0.63404E-03   -0.54573E-03  8424   0.710E-02-0.175E-02
CGA:  13    -0.666202944382E+03   -0.13066E-02   -0.12869E-02  8424   0.153E-02-0.651E-04
CGA:  14    -0.666203534434E+03   -0.59005E-03   -0.56778E-03  8424   0.970E-03-0.315E-03
CGA:  15    -0.666203810884E+03   -0.27645E-03   -0.25430E-03  8424   0.596E-03-0.197E-03
CGA:  16    -0.666201259077E+03    0.25518E-02   -0.82577E-03  8424   0.216E-01-0.260E-02
CGA:  17    -0.666203937871E+03   -0.26788E-02   -0.28795E-02  8424   0.240E-02 0.714E-03
CGA:  18    -0.666204848476E+03   -0.91060E-03   -0.86613E-03  8424   0.768E-03-0.330E-03
CGA:  19    -0.666205173441E+03   -0.32497E-03   -0.32977E-03  8424   0.102E-02-0.232E-03
CGA:  20    -0.666205467560E+03   -0.29412E-03   -0.24586E-03  8424   0.372E-03-0.366E-03
CGA:  21    -0.666205758209E+03   -0.29065E-03    0.19114E-03  8424   0.273E-03-0.107E-03
CGA:  22    -0.666205976831E+03   -0.21862E-03    0.23410E-03  8424   0.368E-03-0.807E-04
CGA:  23    -0.666206538386E+03   -0.56156E-03    0.46966E-04  8424   0.325E-03-0.375E-04
CGA:  24    -0.666207058764E+03   -0.52038E-03    0.76920E-04  8424   0.359E-03-0.112E-03
CGA:  25    -0.666207708563E+03   -0.64980E-03    0.28571E-04  8424   0.274E-03-0.462E-04
CGA:  26    -0.666208346726E+03   -0.63816E-03    0.30796E-04  8424   0.303E-03-0.479E-04
CGA:  27    -0.666209128652E+03   -0.78193E-03    0.25501E-04  8424   0.233E-03-0.207E-04
CGA:  28    -0.666209780184E+03   -0.65153E-03    0.23360E-04  8424   0.227E-03 0.104E-05
CGA:  29    -0.666210443536E+03   -0.66335E-03    0.25770E-04  8424   0.224E-03-0.887E-04
CGA:  30    -0.666211193964E+03   -0.75043E-03    0.66352E-05  8424   0.196E-03-0.384E-04
CGA:  31    -0.666211828869E+03   -0.63491E-03    0.12146E-04  8424   0.200E-03-0.586E-04
CGA:  32    -0.666212593484E+03   -0.76461E-03    0.69137E-05  8424   0.170E-03-0.396E-04
CGA:  33    -0.666213269685E+03   -0.67620E-03    0.75502E-05  8424   0.144E-03-0.145E-04
CGA:  34    -0.666213784050E+03   -0.51437E-03    0.99349E-05  8424   0.120E-03-0.515E-04
CGA:  35    -0.666214313288E+03   -0.52924E-03    0.28818E-05  8424   0.146E-03-0.594E-04
CGA:  36    -0.666214885641E+03   -0.57235E-03    0.23793E-05  8424   0.116E-03-0.572E-04
CGA:  37    -0.666215319410E+03   -0.43377E-03    0.30142E-05  8424   0.145E-03-0.486E-04
CGA:  38    -0.666215962382E+03   -0.64297E-03    0.27919E-05  8424   0.130E-03-0.453E-04
CGA:  39    -0.666216501529E+03   -0.53915E-03    0.39056E-05  8424   0.156E-03-0.645E-04
CGA:  40    -0.666217101061E+03   -0.59953E-03    0.26027E-05  8424   0.153E-03-0.107E-03
CGA:  41    -0.666217145632E+03   -0.44571E-04   -0.44591E-04  8424   0.619E-04 0.107E-06
CGA:  42    -0.666217152372E+03   -0.67399E-05   -0.12898E-04  8424   0.190E-04 0.242E-04
  10 F= -.66621715E+03 E0= -.66621715E+03  d E =0.251153E+00  mag=     2.0000
       N       E                     dE             d eps       ncg     rms          ort
SDA:   1    -0.651421971637E+03    0.14795E+02    0.00000E+00  8424   0.450E+02 0.000E+00
CGA:   2    -0.660570820350E+03   -0.91488E+01   -0.92046E+01  8424   0.186E+02-0.634E-01
CGA:   3    -0.664453325363E+03   -0.38825E+01   -0.38725E+01  8424   0.594E+01 0.407E-01
CGA:   4    -0.665446709284E+03   -0.99338E+00   -0.99479E+00  8424   0.142E+01 0.132E-02
CGA:   5    -0.665695579808E+03   -0.24887E+00   -0.24942E+00  8424   0.298E+00 0.802E-03
CGA:   6    -0.665754767169E+03   -0.59187E-01   -0.59077E-01  8424   0.701E-01-0.485E-03
CGA:   7    -0.665770439440E+03   -0.15672E-01   -0.15787E-01  8424   0.206E-01 0.749E-03
CGA:   8    -0.665775569664E+03   -0.51302E-02   -0.51604E-02  8424   0.629E-02 0.247E-03
CGA:   9    -0.665777354257E+03   -0.17846E-02   -0.17758E-02  8424   0.223E-02-0.104E-03
CGA:  10    -0.665778023995E+03   -0.66974E-03   -0.67221E-03  8424   0.940E-03 0.452E-04
CGA:  11    -0.665778345479E+03   -0.32148E-03   -0.32091E-03  8424   0.409E-03-0.276E-04
CGA:  12    -0.665778472723E+03   -0.12724E-03   -0.12817E-03  8424   0.203E-03 0.263E-04
CGA:  13    -0.665778567059E+03   -0.94336E-04   -0.93486E-04  8424   0.197E-03 0.812E-05
CGA:  14    -0.665778689055E+03   -0.12200E-03   -0.15273E-03  8424   0.588E-03-0.890E-04
CGA:  15    -0.665778764795E+03   -0.75739E-04   -0.74304E-04  8424   0.549E-03-0.430E-04
CGA:  16    -0.665778922593E+03   -0.15780E-03   -0.15187E-03  8424   0.719E-03-0.128E-03
CGA:  17    -0.665779124943E+03   -0.20235E-03   -0.20336E-03  8424   0.918E-03-0.604E-03
CGA:  18    -0.665779336727E+03   -0.21178E-03   -0.22226E-03  8424   0.309E-03 0.841E-04
CGA:  19    -0.665779298201E+03    0.38526E-04   -0.30817E-03  8424   0.351E-02-0.627E-03
CGA:  20    -0.665779649847E+03   -0.35165E-03   -0.42660E-03  8424   0.347E-03 0.290E-03
CGA:  21    -0.665779775340E+03   -0.12549E-03   -0.12409E-03  8424   0.114E-03-0.321E-04
CGA:  22    -0.665779879754E+03   -0.10441E-03    0.54609E-04  8424   0.228E-03-0.431E-04
CGA:  23    -0.665780015318E+03   -0.13556E-03    0.92577E-04  8424   0.237E-03-0.191E-04
CGA:  24    -0.665780082880E+03   -0.67561E-04   -0.60575E-04  8424   0.343E-03-0.791E-04
CGA:  25    -0.665780332937E+03   -0.25006E-03    0.86096E-04  8424   0.366E-03-0.890E-04
CGA:  26    -0.665780610776E+03   -0.27784E-03    0.12730E-03  8424   0.897E-03-0.483E-03
CGA:  27    -0.665780666717E+03   -0.55942E-04   -0.10067E-03  8424   0.114E-03 0.176E-03
CGA:  28    -0.665780691169E+03   -0.24452E-04   -0.29624E-04  8424   0.971E-04 0.376E-04
CGA:  29    -0.665780784922E+03   -0.93753E-04    0.52885E-03  8424   0.982E-04-0.194E-04
CGA:  30    -0.665780868367E+03   -0.83445E-04    0.26038E-04  8424   0.131E-03 0.880E-05
CGA:  31    -0.665779722111E+03    0.11463E-02   -0.61729E-03  8424   0.582E-02-0.795E-03
CGA:  32    -0.665780888534E+03   -0.11664E-02   -0.97737E-03  8424   0.124E-02-0.422E-03
CGA:  33    -0.665781173389E+03   -0.28485E-03   -0.30080E-03  8424   0.297E-03 0.462E-04
CGA:  34    -0.665781393083E+03   -0.21969E-03   -0.23472E-03  8424   0.847E-03-0.902E-04
CGA:  35    -0.665781646275E+03   -0.25319E-03   -0.18943E-03  8424   0.471E-03-0.230E-03
CGA:  36    -0.665781805055E+03   -0.15878E-03   -0.12224E-03  8424   0.405E-03-0.159E-03
CGA:  37    -0.665781895079E+03   -0.90024E-04   -0.59328E-04  8424   0.214E-03-0.875E-04
CGA:  38    -0.665781985581E+03   -0.90502E-04   -0.78480E-04  8424   0.303E-03-0.133E-03
CGA:  39    -0.665782057916E+03   -0.72335E-04   -0.63739E-04  8424   0.762E-04-0.250E-04
CGA:  40    -0.665782094876E+03   -0.36960E-04   -0.36890E-04  8424   0.903E-04-0.729E-05
CGA:  41    -0.665782139054E+03   -0.44178E-04   -0.54337E-04  8424   0.266E-03-0.799E-04
CGA:  42    -0.665782204221E+03   -0.65167E-04   -0.48845E-04  8424   0.596E-04-0.456E-04
CGA:  43    -0.665782214867E+03   -0.10646E-04   -0.12307E-04  8424   0.159E-04 0.599E-05
CGA:  44    -0.665782256316E+03   -0.41449E-04    0.34140E-05  8424   0.259E-04-0.731E-05
CGA:  45    -0.665782308053E+03   -0.51738E-04    0.13671E-05  8424   0.329E-04-0.482E-05
CGA:  46    -0.665782384933E+03   -0.76879E-04    0.37975E-05  8424   0.741E-04-0.175E-04
CGA:  47    -0.665782292622E+03    0.92311E-04   -0.83442E-04  8424   0.156E-02-0.286E-03
CGA:  48    -0.665782452817E+03   -0.16020E-03   -0.22761E-03  8424   0.777E-04 0.175E-03
CGA:  49    -0.665782477996E+03   -0.25179E-04   -0.20041E-04  8424   0.137E-04-0.177E-04
CGA:  50    -0.665782510346E+03   -0.32349E-04    0.13267E-05  8424   0.489E-05 0.232E-05
CGA:  51    -0.665782528351E+03   -0.18005E-04    0.69080E-06  8424   0.900E-05 0.125E-05
CGA:  52    -0.665782607289E+03   -0.78938E-04    0.48828E-06  8424   0.833E-05 0.899E-05
CGA:  53    -0.665782627798E+03   -0.20509E-04    0.14872E-05  8424   0.168E-04-0.454E-05
CGA:  54    -0.665782635993E+03   -0.81956E-05   -0.90288E-05  8424   0.736E-04-0.274E-04
CGA:  55    -0.665782654235E+03   -0.18241E-04   -0.14005E-04  8424   0.827E-05-0.133E-04
CGA:  56    -0.665782680712E+03   -0.26477E-04    0.56464E-06  8424   0.170E-04-0.301E-05
CGA:  57    -0.665782732576E+03   -0.51864E-04    0.69156E-06  8424   0.130E-04 0.775E-05
CGA:  58    -0.665782798564E+03   -0.65988E-04    0.18343E-05  8424   0.571E-04-0.123E-04
CGA:  59    -0.665782809792E+03   -0.11228E-04   -0.90531E-05  8424   0.472E-05-0.649E-05
CGA:  60    -0.665782822674E+03   -0.12881E-04    0.44740E-06  8424   0.807E-05 0.492E-06
CGA:  61    -0.665782879235E+03   -0.56561E-04    0.37541E-06  8424   0.504E-05 0.629E-05
CGA:  62    -0.665782880052E+03   -0.81703E-06   -0.10555E-05  8424   0.364E-05 0.871E-06
  11 F= -.66578288E+03 E0= -.66578288E+03  d E =0.434272E+00  mag=     2.0000
       N       E                     dE             d eps       ncg     rms          ort
SDA:   1    -0.642995318141E+03    0.22788E+02    0.00000E+00  8424   0.701E+02 0.000E+00
CGA:   2    -0.657358398117E+03   -0.14363E+02   -0.14502E+02  8424   0.291E+02-0.167E+00
CGA:   3    -0.663430114913E+03   -0.60717E+01   -0.60490E+01  8424   0.885E+01 0.131E+00
CGA:   4    -0.664909271938E+03   -0.14792E+01   -0.14816E+01  8424   0.217E+01 0.790E-02
CGA:   5    -0.665293689332E+03   -0.38442E+00   -0.38547E+00  8424   0.467E+00 0.104E-02
CGA:   6    -0.665386042778E+03   -0.92353E-01   -0.92281E-01  8424   0.113E+00-0.206E-03
CGA:   7    -0.665411921799E+03   -0.25879E-01   -0.26026E-01  8424   0.352E-01 0.834E-03
CGA:   8    -0.665420931652E+03   -0.90099E-02   -0.90385E-02  8424   0.117E-01 0.206E-03
[...]
CGA:  35    -0.666225145797E+03   -0.30603E-03   -0.33947E-03  8424   0.183E-03 0.873E-03
CGA:  36    -0.666225187354E+03   -0.41557E-04   -0.46340E-04  8424   0.454E-03-0.103E-03
CGA:  37    -0.666225218075E+03   -0.30721E-04   -0.39818E-04  8424   0.837E-04 0.744E-04
CGA:  38    -0.666225265384E+03   -0.47309E-04   -0.37423E-04  8424   0.287E-03 0.532E-04
CGA:  39    -0.666225318806E+03   -0.53422E-04   -0.47936E-04  8424   0.277E-03-0.122E-03
CGA:  40    -0.666225389024E+03   -0.70218E-04    0.36306E-03  8424   0.270E-03 0.156E-03
CGA:  41    -0.666225408381E+03   -0.19357E-04   -0.26289E-04  8424   0.817E-04 0.612E-04
CGA:  42    -0.666225485428E+03   -0.77046E-04   -0.59271E-04  8424   0.471E-03 0.435E-04
CGA:  43    -0.666225563926E+03   -0.78499E-04   -0.66487E-04  8424   0.208E-03-0.146E-03
CGA:  44    -0.666225719954E+03   -0.15603E-03   -0.39315E-06  8424   0.164E-02-0.405E-04
CGA:  45    -0.666224104411E+03    0.16155E-02   -0.11884E-02  8424   0.840E-01-0.329E-02
CGA:  46    -0.666231925695E+03   -0.78213E-02   -0.79585E-02  8424   0.112E-02 0.259E-03
CGA:  47    -0.666232157691E+03   -0.23200E-03   -0.23974E-03  8424   0.143E-03 0.150E-04
CGA:  48    -0.666232212266E+03   -0.54575E-04   -0.44628E-04  8424   0.958E-04-0.280E-04
CGA:  49    -0.666232227305E+03   -0.15040E-04   -0.22610E-04  8424   0.102E-03 0.195E-04
CGA:  50    -0.666231640183E+03    0.58712E-03   -0.37530E-03  8424   0.639E-02-0.430E-03
CGA:  51    -0.666232702706E+03   -0.10625E-02   -0.11148E-02  8424   0.881E-03 0.878E-04
CGA:  52    -0.666232938374E+03   -0.23567E-03   -0.16630E-03  8424   0.249E-03-0.129E-03
CGA:  53    -0.666232994366E+03   -0.55992E-04   -0.55451E-04  8424   0.995E-04-0.164E-05
CGA:  54    -0.666233153005E+03   -0.15864E-03    0.18671E-03  8424   0.332E-03-0.684E-04
CGA:  55    -0.666233182549E+03   -0.29544E-04   -0.43866E-04  8424   0.515E-04 0.261E-04
CGA:  56    -0.666231121182E+03    0.20614E-02   -0.11282E-02  8424   0.124E-01-0.646E-03
CGA:  57    -0.666233027588E+03   -0.19064E-02   -0.22535E-02  8424   0.326E-02 0.194E-03
CGA:  58    -0.666222540694E+03    0.10487E-01   -0.47493E-03  8424   0.591E-01 0.296E-02
CGA:  59    -0.665850389117E+03    0.37215E+00   -0.89534E-02  8424   0.204E+01 0.863E-01
CGA:  60    -0.661813011632E+03    0.40374E+01   -0.53161E+00  8424   0.206E+02 0.123E+01
CGA:  61    -0.658135713666E+03    0.36773E+01   -0.88073E+01  8424   0.251E+02 0.308E+01
CGA:  62    -0.650908277269E+03    0.72274E+01   -0.99071E+01  8424   0.421E+02 0.607E+01
CGA:  63    -0.646524777427E+03    0.43835E+01   -0.18066E+02  8424   0.512E+02 0.116E+02
CGA:  64    -0.641437269184E+03    0.50875E+01   -0.22764E+02  8424   0.534E+02 0.113E+02
CGA:  65    -0.638999312153E+03    0.24380E+01   -0.22290E+02  8424   0.431E+02 0.166E+02
CGA:  66    -0.643327832256E+03   -0.43285E+01   -0.19870E+02  8424   0.381E+02 0.162E+02
CGA:  67    -0.646438222140E+03   -0.31104E+01   -0.16962E+02  8424   0.373E+02 0.116E+02
CGA:  68    -0.641219898558E+03    0.52183E+01   -0.13136E+02  8424   0.513E+02 0.205E+01
CGA:  69    -0.634084069045E+03    0.71358E+01   -0.14074E+02  8424   0.354E+02 0.133E+02
CGA:  70    -0.638900716456E+03   -0.48166E+01   -0.11959E+02  8424   0.554E+02 0.663E+01
CGA:  71    -0.624801362154E+03    0.14099E+02   -0.15399E+02  8424   0.484E+02 0.204E+01
CGA:  72    -0.627293778127E+03   -0.24924E+01   -0.11913E+02  8424   0.549E+02 0.146E+02
CGA:  73    -0.618291927513E+03    0.90019E+01   -0.15892E+02  8424   0.849E+02 0.108E+02
CGA:  74    -0.581216027916E+03    0.37076E+02   -0.16132E+02  8424   0.125E+03 0.133E+02
CGA:  75    -0.554227007372E+03    0.26989E+02   -0.38304E+02  8424   0.161E+03-0.142E+01
CGA:  76    -0.529911076609E+03    0.24316E+02   -0.41327E+02  8424   0.214E+03-0.393E+01
CGA:  77    -0.515142511825E+03    0.14769E+02   -0.54687E+02  8424   0.211E+03-0.717E+01
CGA:  78    -0.509279967137E+03    0.58625E+01   -0.27164E+02  8424   0.203E+03 0.208E+02
CGA:  79    -0.523398731997E+03   -0.14119E+02   -0.55375E+02  8424   0.164E+03 0.436E+02
CGA:  80    -0.530213043647E+03   -0.68143E+01   -0.43818E+02  8424   0.183E+03 0.606E+02
CGA:  81    -0.522178429691E+03    0.80346E+01   -0.56657E+02  8424   0.187E+03 0.626E+02
CGA:  82    -0.516471958417E+03    0.57065E+01   -0.53016E+02  8424   0.216E+03 0.699E+02
CGA:  83    -0.494201910897E+03    0.22270E+02   -0.62609E+02  8424   0.396E+03 0.357E+02
CGA:  84    -0.438067355794E+03    0.56135E+02   -0.92419E+02  8424   0.225E+03-0.282E+02
CGA:  85    -0.490612143525E+03   -0.52545E+02   -0.44936E+02  8424   0.254E+03 0.116E+03
CGA:  86    -0.588386402222E+03   -0.97774E+02   -0.10206E+03  8424   0.136E+03 0.262E+02
CGA:  87    -0.621607757609E+03   -0.33221E+02   -0.32555E+02  8424   0.423E+02 0.228E+02
CGA:  88    -0.643636439169E+03   -0.22029E+02   -0.21987E+02  8424   0.153E+02 0.551E+01
CGA:  89    -0.650904426723E+03   -0.72680E+01   -0.72431E+01  8424   0.208E+02-0.335E+00
CGA:  90    -0.657133184905E+03   -0.62288E+01   -0.61379E+01  8424   0.573E+01-0.252E+00
CGA:  91    -0.659392397511E+03   -0.22592E+01   -0.22497E+01  8424   0.541E+01-0.114E+00
CGA:  92    -0.660943393990E+03   -0.15510E+01   -0.15515E+01  8424   0.462E+01-0.332E-01
CGA:  93    -0.661938279735E+03   -0.99489E+00   -0.88783E+00  8424   0.206E+01-0.270E-01
CGA:  94    -0.662546630716E+03   -0.60835E+00   -0.59151E+00  8424   0.331E+01-0.359E-01
CGA:  95    -0.663029979005E+03   -0.48335E+00   -0.50637E+00  8424   0.156E+01-0.273E+00
CGA:  96    -0.663338584173E+03   -0.30861E+00   -0.29660E+00  8424   0.130E+01 0.191E-01
CGA:  97    -0.663653098712E+03   -0.31451E+00   -0.30223E+00  8424   0.102E+01 0.321E-01
CGA:  98    -0.663831843461E+03   -0.17874E+00   -0.16566E+00  8424   0.844E+00 0.787E-01
CGA:  99    -0.664019516878E+03   -0.18767E+00   -0.18086E+00  8424   0.854E+00-0.237E-01
CGA: 100    -0.664150406219E+03   -0.13089E+00   -0.13093E+00  8424   0.605E+00 0.945E-02
CGA: 101    -0.664264752423E+03   -0.11435E+00   -0.10448E+00  8424   0.606E+00 0.336E-01
CGA: 102    -0.664373239096E+03   -0.10849E+00   -0.10257E+00  8424   0.651E+00 0.116E-01
CGA: 103    -0.664448495721E+03   -0.75257E-01   -0.72951E-01  8424   0.510E+00 0.298E-02
CGA: 104    -0.664512001732E+03   -0.63506E-01   -0.63440E-01  8424   0.572E+00 0.197E-01
CGA: 105    -0.664592819349E+03   -0.80818E-01   -0.67463E-01  8424   0.553E+00 0.775E-02
CGA: 106    -0.664645115794E+03   -0.52296E-01   -0.54347E-01  8424   0.487E+00-0.232E-01
CGA: 107    -0.664688814082E+03   -0.43698E-01   -0.43384E-01  8424   0.455E+00 0.347E-02
CGA: 108    -0.664738120572E+03   -0.49306E-01   -0.41767E-01  8424   0.470E+00 0.403E-01
CGA: 109    -0.664777008899E+03   -0.38888E-01   -0.39106E-01  8424   0.453E+00-0.134E-01
CGA: 110    -0.664807114334E+03   -0.30105E-01   -0.31784E-01  8424   0.461E+00-0.281E-01
CGA: 111    -0.664835222462E+03   -0.28108E-01   -0.31198E-01  8424   0.422E+00-0.370E-01
CGA: 112    -0.664862032715E+03   -0.26810E-01   -0.26413E-01  8424   0.350E+00-0.135E-01
CGA: 113    -0.664888751693E+03   -0.26719E-01   -0.25252E-01  8424   0.346E+00-0.560E-02
CGA: 114    -0.664918138190E+03   -0.29386E-01   -0.27182E-01  8424   0.391E+00-0.741E-03
CGA: 115    -0.664946662377E+03   -0.28524E-01   -0.27048E-01  8424   0.364E+00-0.101E-01
SDA: 116    -0.664968065817E+03   -0.21403E-01   -0.21974E-01  8424   0.300E+00-0.230E-01
CGA: 117    -0.665135991814E+03   -0.16793E+00   -0.16731E+00  8424   0.105E+01-0.294E-01
CGA: 118    -0.665301505704E+03   -0.16551E+00   -0.16297E+00  8424   0.103E+01-0.240E-01
CGA: 119    -0.665373813506E+03   -0.72308E-01   -0.66007E-01  8424   0.477E+00 0.701E-01
CGA: 120    -0.665421077173E+03   -0.47264E-01   -0.43964E-01  8424   0.376E+00 0.188E-01
CGA: 121    -0.665457380992E+03   -0.36304E-01   -0.35290E-01  8424   0.273E+00-0.284E-02
CGA: 122    -0.665478027126E+03   -0.20646E-01   -0.20014E-01  8424   0.160E+00-0.241E-02
CGA: 123    -0.665492718230E+03   -0.14691E-01   -0.14399E-01  8424   0.151E+00-0.313E-02
CGA: 124    -0.665508990143E+03   -0.16272E-01   -0.15951E-01  8424   0.163E+00-0.402E-02
CGA: 125    -0.665523973718E+03   -0.14984E-01   -0.14560E-01  8424   0.139E+00-0.501E-02
CGA: 126    -0.665537547657E+03   -0.13574E-01   -0.13102E-01  8424   0.141E+00-0.682E-02
CGA: 127    -0.665554850039E+03   -0.17302E-01   -0.16727E-01  8424   0.192E+00-0.112E-01
CGA: 128    -0.665573174196E+03   -0.18324E-01   -0.15546E-01  8424   0.201E+00-0.156E-01
CGA: 129    -0.665589716387E+03   -0.16542E-01   -0.17618E-01  8424   0.224E+00-0.203E-01
CGA: 130    -0.665613758319E+03   -0.24042E-01   -0.18758E-01  8424   0.262E+00-0.436E-01
CGA: 131    -0.665630591174E+03   -0.16833E-01   -0.15493E-01  8424   0.266E+00-0.375E-01
CGA: 132    -0.665648504143E+03   -0.17913E-01   -0.15437E-01  8424   0.237E+00-0.285E-01
CGA: 133    -0.665664766375E+03   -0.16262E-01   -0.14591E-01  8424   0.234E+00-0.265E-01
CGA: 134    -0.665683438236E+03   -0.18672E-01   -0.17163E-01  8424   0.275E+00-0.302E-01
CGA: 135    -0.665709685520E+03   -0.26247E-01   -0.21614E-01  8424   0.334E+00-0.479E-01
CGA: 136    -0.665729988300E+03   -0.20303E-01   -0.18249E-01  8424   0.367E+00-0.627E-01
CGA: 137    -0.665758098151E+03   -0.28110E-01   -0.25165E-01  8424   0.386E+00-0.724E-01
CGA: 138    -0.665785997436E+03   -0.27899E-01   -0.23405E-01  8424   0.347E+00-0.708E-01
CGA: 139    -0.665809565117E+03   -0.23568E-01   -0.18910E-01  8424   0.366E+00-0.475E-01
CGA: 140    -0.665839772093E+03   -0.30207E-01   -0.23031E-01  8424   0.550E+00-0.552E-01
CGA: 141    -0.665859891062E+03   -0.20119E-01   -0.16059E-01  8424   0.484E+00-0.990E-01
CGA: 142    -0.665876014894E+03   -0.16124E-01   -0.17219E-01  8424   0.422E+00-0.890E-01
CGA: 143    -0.665901975349E+03   -0.25960E-01   -0.21993E-01  8424   0.354E+00-0.737E-01
CGA: 144    -0.665924652398E+03   -0.22677E-01   -0.19824E-01  8424   0.298E+00-0.686E-01
CGA: 145    -0.665944970009E+03   -0.20318E-01   -0.18206E-01  8424   0.282E+00-0.610E-01
CGA: 146    -0.665940291568E+03    0.46784E-02   -0.44648E-01  8424   0.552E+00-0.467E+00
CGA: 147    -0.666070693812E+03   -0.13040E+00   -0.12676E+00  8424   0.185E+00 0.298E-01
CGA: 148    -0.666150705534E+03   -0.80012E-01   -0.70096E-01  8424   0.791E-01 0.442E-01
CGA: 149    -0.666185661176E+03   -0.34956E-01   -0.29392E-01  8424   0.314E-01 0.338E-01
CGA: 150    -0.666200032866E+03   -0.14372E-01   -0.11717E-01  8424   0.152E-01 0.222E-01
CGA: 151    -0.666204750782E+03   -0.47179E-02   -0.38686E-02  8424   0.877E-02 0.794E-02
CGA: 152    -0.666207022986E+03   -0.22722E-02   -0.18590E-02  8424   0.681E-02 0.696E-02
CGA: 153    -0.666209019617E+03   -0.19966E-02   -0.15601E-02  8424   0.564E-02 0.594E-02
CGA: 154    -0.666210369809E+03   -0.13502E-02   -0.11356E-02  8424   0.484E-02 0.513E-02
CGA: 155    -0.666211552218E+03   -0.11824E-02   -0.98980E-03  8424   0.421E-02 0.448E-02
CGA: 156    -0.666212454838E+03   -0.90262E-03   -0.79941E-03  8424   0.373E-02 0.395E-02
CGA: 157    -0.666213221559E+03   -0.76672E-03   -0.69282E-03  8424   0.332E-02 0.351E-02
CGA: 158    -0.666213848060E+03   -0.62650E-03   -0.58984E-03  8424   0.299E-02 0.314E-02
CGA: 159    -0.666214378289E+03   -0.53023E-03   -0.51413E-03  8424   0.270E-02 0.283E-02
CGA: 160    -0.666214826032E+03   -0.44774E-03   -0.44913E-03  8424   0.246E-02 0.257E-02
CGA: 161    -0.666215209254E+03   -0.38322E-03   -0.39637E-03  8424   0.225E-02 0.235E-02
CGA: 162    -0.666215539357E+03   -0.33010E-03   -0.35197E-03  8424   0.207E-02 0.216E-02
CGA: 163    -0.666215826212E+03   -0.28686E-03   -0.31475E-03  8424   0.191E-02 0.199E-02
CGA: 164    -0.666216077456E+03   -0.25124E-03   -0.28326E-03  8424   0.178E-02 0.184E-02
CGA: 165    -0.666216299244E+03   -0.22179E-03   -0.25646E-03  8424   0.166E-02 0.172E-02
CGA: 166    -0.666216496527E+03   -0.19728E-03   -0.23352E-03  8424   0.155E-02 0.160E-02
CGA: 167    -0.666216673275E+03   -0.17675E-03   -0.21375E-03  8424   0.146E-02 0.150E-02
CGA: 168    -0.666216832713E+03   -0.15944E-03   -0.19660E-03  8424   0.137E-02 0.141E-02
CGA: 169    -0.666216977461E+03   -0.14475E-03   -0.18163E-03  8424   0.130E-02 0.134E-02
CGA: 170    -0.666217109658E+03   -0.13220E-03   -0.16848E-03  8424   0.123E-02 0.126E-02
CGA: 171    -0.666217231086E+03   -0.12143E-03   -0.15687E-03  8424   0.117E-02 0.120E-02
CGA: 172    -0.666217343177E+03   -0.11209E-03   -0.14655E-03  8424   0.111E-02 0.114E-02
CGA: 173    -0.666217447226E+03   -0.10405E-03   -0.13738E-03  8424   0.106E-02 0.109E-02
CGA: 174    -0.666217544072E+03   -0.96846E-04   -0.12908E-03  8424   0.102E-02 0.104E-02
CGA: 175    -0.666217634832E+03   -0.90760E-04   -0.12174E-03  8424   0.975E-03 0.992E-03
CGA: 176    -0.666217719857E+03   -0.85025E-04   -0.11494E-03  8424   0.937E-03 0.950E-03
CGA: 177    -0.666217800292E+03   -0.80435E-04   -0.10904E-03  8424   0.901E-03 0.911E-03
CGA: 178    -0.666217876294E+03   -0.76003E-04   -0.10350E-03  8424   0.869E-03 0.875E-03
CGA: 179    -0.666217948355E+03   -0.72060E-04   -0.98455E-04  8424   0.840E-03 0.841E-03
CGA: 180    -0.666218017207E+03   -0.68853E-04   -0.94046E-04  8424   0.816E-03 0.807E-03
CGA: 181    -0.666218081538E+03   -0.64330E-04   -0.89256E-04  8424   0.796E-03 0.774E-03
CGA: 182    -0.666218144449E+03   -0.62912E-04   -0.86299E-04  8424   0.778E-03 0.741E-03
CGA: 183    -0.666218202424E+03   -0.57975E-04   -0.81740E-04  8424   0.757E-03 0.712E-03
CGA: 184    -0.666218261757E+03   -0.59332E-04   -0.80394E-04  8424   0.733E-03 0.690E-03
CGA: 185    -0.666218316431E+03   -0.54674E-04   -0.75976E-04  8424   0.705E-03 0.675E-03
CGA: 186    -0.666218373947E+03   -0.57517E-04   -0.75281E-04  8424   0.679E-03 0.662E-03
CGA: 187    -0.666218426592E+03   -0.52645E-04   -0.70818E-04  8424   0.655E-03 0.650E-03
CGA: 188    -0.666218482109E+03   -0.55517E-04   -0.70388E-04  8424   0.634E-03 0.636E-03
CGA: 189    -0.666218532801E+03   -0.50692E-04   -0.66317E-04  8424   0.617E-03 0.621E-03
CGA: 190    -0.666218586285E+03   -0.53484E-04   -0.66217E-04  8424   0.600E-03 0.605E-03
CGA: 191    -0.666218635417E+03   -0.49131E-04   -0.62672E-04  8424   0.585E-03 0.590E-03
CGA: 192    -0.666218687443E+03   -0.52027E-04   -0.62842E-04  8424   0.570E-03 0.576E-03
CGA: 193    -0.666218735396E+03   -0.47953E-04   -0.59613E-04  8424   0.557E-03 0.562E-03
CGA: 194    -0.666218786616E+03   -0.51221E-04   -0.60129E-04  8424   0.543E-03 0.549E-03
CGA: 195    -0.666218833628E+03   -0.47011E-04   -0.56982E-04  8424   0.531E-03 0.536E-03
CGA: 196    -0.666218884648E+03   -0.51020E-04   -0.58005E-04  8424   0.519E-03 0.524E-03
CGA: 197    -0.666218930975E+03   -0.46328E-04   -0.54745E-04  8424   0.508E-03 0.512E-03
CGA: 198    -0.666218982258E+03   -0.51283E-04   -0.56358E-04  8424   0.497E-03 0.501E-03
CGA: 199    -0.666219028292E+03   -0.46033E-04   -0.52932E-04  8424   0.487E-03 0.490E-03
CGA: 200    -0.666219080147E+03   -0.51855E-04   -0.55080E-04  8424   0.477E-03 0.479E-03
  32 F= -.66621908E+03 E0= -.66621908E+03  d E =0.256290E+00  mag=    -0.0000
       N       E                     dE             d eps       ncg     rms          ort
SDA:   1    -0.643225369540E+03    0.22994E+02    0.00000E+00  8424   0.783E+02 0.000E+00
CGA:   2    -0.657957318564E+03   -0.14732E+02   -0.14672E+02  8424   0.297E+02 0.790E+00
CGA:   3    -0.664377932218E+03   -0.64206E+01   -0.64336E+01  8424   0.994E+01-0.152E+00
CGA:   4    -0.666049049875E+03   -0.16711E+01   -0.16699E+01  8424   0.246E+01 0.226E-01
CGA:   5    -0.666478416537E+03   -0.42937E+00   -0.42868E+00  8424   0.542E+00 0.139E-01
CGA:   6    -0.666584139303E+03   -0.10572E+00   -0.10596E+00  8424   0.125E+00-0.384E-02
CGA:   7    -0.666611687625E+03   -0.27548E-01   -0.27122E-01  8424   0.359E-01 0.510E-02
CGA:   8    -0.666620769598E+03   -0.90820E-02   -0.88434E-02  8424   0.109E-01 0.242E-02
CGA:   9    -0.666623944963E+03   -0.31754E-02   -0.30888E-02  8424   0.396E-02 0.708E-03
CGA:  10    -0.666625125927E+03   -0.11810E-02   -0.10637E-02  8424   0.168E-02 0.114E-02
CGA:  11    -0.666625748483E+03   -0.62256E-03   -0.54161E-03  8424   0.873E-03 0.844E-03
CGA:  12    -0.666625993841E+03   -0.24536E-03   -0.21081E-03  8424   0.519E-03 0.419E-03
CGA:  13    -0.666626167756E+03   -0.17392E-03   -0.15246E-03  8424   0.452E-03 0.611E-03
CGA:  14    -0.666626275323E+03   -0.10757E-03   -0.92681E-04  8424   0.372E-03 0.375E-03
CGA:  15    -0.666626392645E+03   -0.11732E-03   -0.90117E-04  8424   0.354E-03 0.360E-03
CGA:  16    -0.666626482564E+03   -0.89919E-04   -0.75352E-04  8424   0.344E-03 0.348E-03
CGA:  17    -0.666626593565E+03   -0.11100E-03   -0.85385E-04  8424   0.334E-03 0.338E-03
CGA:  18    -0.666626686141E+03   -0.92576E-04   -0.75887E-04  8424   0.326E-03 0.329E-03
CGA:  19    -0.666626808318E+03   -0.12218E-03   -0.90531E-04  8424   0.319E-03 0.320E-03
CGA:  20    -0.666626894870E+03   -0.86551E-04   -0.72812E-04  8424   0.315E-03 0.312E-03
CGA:  21    -0.666627060400E+03   -0.16553E-03   -0.11325E-03  8424   0.325E-03 0.299E-03
CGA:  22    -0.666627109222E+03   -0.48822E-04   -0.55703E-04  8424   0.312E-03 0.285E-03
CGA:  23    -0.666627359622E+03   -0.25040E-03   -0.16711E-03  8424   0.525E-03 0.240E-03
CGA:  24    -0.666627383296E+03   -0.23675E-04   -0.54168E-04  8424   0.288E-03 0.282E-03
CGA:  25    -0.666627535352E+03   -0.15206E-03   -0.10577E-03  8424   0.284E-03 0.283E-03
CGA:  26    -0.666627677894E+03   -0.14254E-03   -0.10255E-03  8424   0.302E-03 0.269E-03
CGA:  27    -0.666627823538E+03   -0.14564E-03   -0.11527E-03  8424   0.541E-03 0.187E-03
CGA:  28    -0.666627887204E+03   -0.63666E-04   -0.75260E-04  8424   0.341E-03 0.128E-03
CGA:  29    -0.666628113918E+03   -0.22671E-03   -0.16234E-03  8424   0.530E-03 0.395E-03
CGA:  30    -0.666628214564E+03   -0.10065E-03   -0.10025E-03  8424   0.523E-03-0.103E-04
CGA:  31    -0.666628734548E+03   -0.51998E-03   -0.32337E-03  8424   0.546E-03 0.477E-03
CGA:  32    -0.666628782572E+03   -0.48024E-04   -0.69696E-04  8424   0.265E-03 0.175E-03
CGA:  33    -0.666628929072E+03   -0.14650E-03   -0.11991E-03  8424   0.524E-03 0.266E-03
CGA:  34    -0.666629067640E+03   -0.13857E-03   -0.14454E-03  8424   0.101E-02-0.225E-03
CGA:  35    -0.666629403159E+03   -0.33552E-03   -0.28549E-03  8424   0.266E-02 0.183E-03
CGA:  36    -0.666630108743E+03   -0.70558E-03   -0.73088E-03  8424   0.234E-02 0.760E-03
CGA:  37    -0.666631469591E+03   -0.13608E-02   -0.12826E-02  8424   0.202E-02 0.324E-03
CGA:  38    -0.666632415682E+03   -0.94609E-03   -0.26808E-02  8424   0.244E-01-0.236E-02
CGA:  39    -0.666635043677E+03   -0.26280E-02   -0.29668E-02  8424   0.126E-02 0.178E-02
CGA:  40    -0.666635366820E+03   -0.32314E-03   -0.30932E-03  8424   0.332E-03-0.185E-03
CGA:  41    -0.666635454873E+03   -0.88053E-04   -0.88044E-04  8424   0.251E-03-0.152E-05
CGA:  42    -0.666635535334E+03   -0.80461E-04   -0.78772E-04  8424   0.199E-03 0.120E-03
CGA:  43    -0.666635707984E+03   -0.17265E-03   -0.14885E-03  8424   0.347E-03 0.108E-03
CGA:  44    -0.666635793115E+03   -0.85132E-04   -0.84231E-04  8424   0.146E-03-0.138E-04
CGA:  45    -0.666635836910E+03   -0.43795E-04   -0.32117E-04  8424   0.290E-02-0.168E-03
CGA:  46    -0.666636222411E+03   -0.38550E-03   -0.43347E-03  8424   0.401E-03 0.123E-03
CGA:  47    -0.666636407015E+03   -0.18460E-03   -0.16217E-03  8424   0.251E-03-0.146E-03
CGA:  48    -0.666636440068E+03   -0.33053E-04   -0.50298E-04  8424   0.218E-03 0.770E-04
CGA:  49    -0.666636643825E+03   -0.20376E-03   -0.37227E-03  8424   0.145E-02-0.229E-03
CGA:  50    -0.666637098148E+03   -0.45432E-03   -0.43626E-03  8424   0.288E-03-0.699E-04
CGA:  51    -0.666637129207E+03   -0.31059E-04   -0.46119E-04  8424   0.896E-04 0.393E-04
CGA:  52    -0.666637241524E+03   -0.11232E-03    0.69734E-03  8424   0.169E-03 0.462E-04
CGA:  53    -0.666637295346E+03   -0.53823E-04   -0.47480E-04  8424   0.150E-03-0.258E-04
CGA:  54    -0.666637449844E+03   -0.15450E-03   -0.17707E-03  8424   0.104E-02-0.335E-04
