       N       E                     dE             d eps       ncg     rms          ort
DAV:   1     0.826028813010E+04    0.82603E+04   -0.24664E+05  8424   0.238E+03
DAV:   2     0.915211627832E+03   -0.73451E+04   -0.68940E+04  8424   0.656E+02
DAV:   3    -0.674917493513E+03   -0.15901E+04   -0.13981E+04  8424   0.282E+02
DAV:   4    -0.830406562191E+03   -0.15549E+03   -0.15279E+03  8424   0.856E+01
DAV:   5    -0.832895199328E+03   -0.24886E+01   -0.24778E+01  8424   0.121E+01
SDA:   6    -0.256357210341E+03    0.57654E+03   -0.24778E+01  8424   0.396E+04 0.000E+00
CGA:   7    -0.521193442561E+03   -0.26484E+03   -0.39801E+03  8424   0.372E+04-0.236E+03
CGA:   8    -0.534131164421E+03   -0.12938E+02   -0.16898E+03  8424   0.197E+04-0.218E+04
CGA:   9    -0.560932451356E+03   -0.26801E+02   -0.10005E+03  8424   0.118E+04-0.704E+03
CGA:  10    -0.637082373366E+03   -0.76150E+02   -0.25968E+02  8424   0.323E+03-0.453E+03
CGA:  11    -0.644702014164E+03   -0.76196E+01   -0.59296E+01  8424   0.159E+03 0.120E+03
CGA:  12    -0.640689224760E+03    0.40128E+01   -0.58902E+01  8424   0.106E+04-0.520E+03
CGA:  13    -0.640072881982E+03    0.61634E+00   -0.68453E+02  8424   0.193E+03-0.118E+03
CGA:  14    -0.647760286250E+03   -0.76874E+01   -0.38776E+01  8424   0.142E+03 0.168E+03
CGA:  15    -0.654708989693E+03   -0.69487E+01   -0.26314E+01  8424   0.934E+02 0.197E+03
CGA:  16    -0.657458673972E+03   -0.27497E+01   -0.13702E+01  8424   0.797E+02 0.989E+02
CGA:  17    -0.657510154970E+03   -0.51481E-01   -0.38979E+01  8424   0.221E+03-0.850E+02
CGA:  18    -0.653196199605E+03    0.43140E+01   -0.11786E+02  8424   0.232E+03-0.848E+02
CGA:  19    -0.660076430761E+03   -0.68802E+01   -0.28856E+01  8424   0.136E+03 0.160E+03
CGA:  20    -0.656015429626E+03    0.40610E+01   -0.62483E+01  8424   0.280E+03-0.128E+03
CGA:  21    -0.653655217444E+03    0.23602E+01   -0.13001E+02  8424   0.254E+03-0.155E+03
CGA:  22    -0.663556000509E+03   -0.99008E+01   -0.65007E+01  8424   0.259E+02 0.307E+01
CGA:  23    -0.664090821982E+03   -0.53482E+00   -0.84905E+00  8424   0.251E+02-0.643E+01
CGA:  24    -0.665004989269E+03   -0.91417E+00   -0.99308E+00  8424   0.129E+02 0.742E+00
CGA:  25    -0.665778229441E+03   -0.77324E+00   -0.41531E+00  8424   0.710E+01 0.101E+02
CGA:  26    -0.666168416407E+03   -0.39019E+00   -0.35344E+00  8424   0.403E+01 0.631E+00
CGA:  27    -0.667307433315E+03   -0.11390E+01   -0.10849E+01  8424   0.813E+01 0.193E+00
CGA:  28    -0.667757017681E+03   -0.44958E+00   -0.41685E+00  8424   0.132E+01 0.261E-01
CGA:  29    -0.667853340528E+03   -0.96323E-01   -0.98766E-01  8424   0.849E+00 0.101E-02
CGA:  30    -0.667941070797E+03   -0.87730E-01   -0.87383E-01  8424   0.549E+00 0.847E-01
CGA:  31    -0.668000237834E+03   -0.59167E-01   -0.59454E-01  8424   0.207E+00 0.617E-01
CGA:  32    -0.668029494382E+03   -0.29257E-01   -0.28552E-01  8424   0.147E+00 0.191E-01
CGA:  33    -0.668058114570E+03   -0.28620E-01   -0.28297E-01  8424   0.123E+00 0.489E-02
CGA:  34    -0.668082878312E+03   -0.24764E-01   -0.24505E-01  8424   0.733E-01 0.205E-02
CGA:  35    -0.668096229230E+03   -0.13351E-01   -0.13472E-01  8424   0.639E-01-0.127E-02
CGA:  36    -0.668111606285E+03   -0.15377E-01   -0.18010E-01  8424   0.137E+00-0.132E-01
CGA:  37    -0.668130135830E+03   -0.18530E-01   -0.24472E-01  8424   0.181E+00-0.568E-01
CGA:  38    -0.668113315078E+03    0.16821E-01   -0.42129E-01  8424   0.838E+00-0.242E+00
CGA:  39    -0.668214581675E+03   -0.10127E+00   -0.10159E+00  8424   0.265E+00-0.168E-01
CGA:  40    -0.668306136142E+03   -0.91554E-01   -0.10748E+00  8424   0.468E+00-0.598E-01
CGA:  41    -0.668381864195E+03   -0.75728E-01   -0.79824E-01  8424   0.197E+00-0.662E-01
CGA:  42    -0.668436165554E+03   -0.54301E-01   -0.10857E+00  8424   0.693E+00-0.102E+00
CGA:  43    -0.668528443573E+03   -0.92278E-01   -0.92423E-01  8424   0.135E+00 0.753E-02
CGA:  44    -0.668577516817E+03   -0.49073E-01   -0.55117E-01  8424   0.150E+00-0.254E-01
CGA:  45    -0.668618510503E+03   -0.40994E-01   -0.56637E-01  8424   0.103E+00-0.562E-01
CGA:  46    -0.668636376891E+03   -0.17866E-01   -0.23738E-01  8424   0.104E+00-0.347E-01
CGA:  47    -0.668653349333E+03   -0.16972E-01   -0.34215E-01  8424   0.155E+00-0.602E-01
CGA:  48    -0.668682155683E+03   -0.28806E-01   -0.28634E-01  8424   0.461E-01-0.481E-02
CGA:  49    -0.668693665926E+03   -0.11510E-01   -0.11536E-01  8424   0.156E-01-0.722E-03
CGA:  50    -0.668700271682E+03   -0.66058E-02   -0.73937E-02  8424   0.129E-01-0.313E-02
CGA:  51    -0.668703566800E+03   -0.32951E-02   -0.34069E-02  8424   0.469E-02-0.123E-02
CGA:  52    -0.668704822635E+03   -0.12558E-02   -0.25789E-02  8424   0.151E-01-0.366E-02
CGA:  53    -0.668707230798E+03   -0.24082E-02   -0.24414E-02  8424   0.247E-02 0.334E-03
CGA:  54    -0.668707050302E+03    0.18050E-03   -0.23220E-02  8424   0.207E-01-0.377E-02
CGA:  55    -0.668710202463E+03   -0.31522E-02   -0.31646E-02  8424   0.263E-02 0.139E-03
CGA:  56    -0.668711053495E+03   -0.85103E-03   -0.10929E-02  8424   0.450E-02-0.186E-02
CGA:  57    -0.668711839910E+03   -0.78642E-03   -0.78730E-03  8424   0.114E-02 0.896E-05
CGA:  58    -0.668712577521E+03   -0.73761E-03    0.11320E-02  8424   0.931E-03 0.335E-03
CGA:  59    -0.668713676483E+03   -0.10990E-02    0.28169E-03  8424   0.946E-03 0.109E-02
CGA:  60    -0.668713083606E+03    0.59288E-03   -0.10891E-02  8424   0.188E-01-0.195E-02
CGA:  61    -0.668715872235E+03   -0.27886E-02   -0.25952E-02  8424   0.152E-02-0.115E-02
CGA:  62    -0.668716440567E+03   -0.56833E-03   -0.64022E-03  8424   0.214E-02-0.558E-03
CGA:  63    -0.668717753983E+03   -0.13134E-02    0.44269E-03  8424   0.189E-02 0.893E-03
CGA:  64    -0.668719715661E+03   -0.19617E-02    0.33805E-02  8424   0.143E-02 0.110E-02
CGA:  65    -0.668720014982E+03   -0.29932E-03   -0.29857E-03  8424   0.906E-03-0.859E-05
CGA:  66    -0.668720807953E+03   -0.79297E-03    0.37370E-03  8424   0.711E-03 0.650E-03
CGA:  67    -0.668721345663E+03   -0.53771E-03    0.60354E-03  8424   0.815E-03 0.212E-03
CGA:  68    -0.668722291544E+03   -0.94588E-03    0.41468E-03  8424   0.705E-03 0.838E-03
CGA:  69    -0.668722767248E+03   -0.47570E-03    0.18586E-02  8424   0.504E-03 0.330E-03
CGA:  70    -0.668723512622E+03   -0.74537E-03    0.20265E-03  8424   0.594E-03 0.691E-03
CGA:  71    -0.668723985734E+03   -0.47311E-03    0.37489E-03  8424   0.458E-03 0.375E-03
CGA:  72    -0.668724431133E+03   -0.44540E-03    0.13808E-03  8424   0.438E-03 0.413E-03
CGA:  73    -0.668724849182E+03   -0.41805E-03    0.13961E-03  8424   0.443E-03 0.410E-03
CGA:  74    -0.668725297871E+03   -0.44869E-03    0.11919E-03  8424   0.475E-03 0.387E-03
CGA:  75    -0.668725669835E+03   -0.37196E-03    0.32935E-03  8424   0.591E-03 0.317E-03
CGA:  76    -0.668726119467E+03   -0.44963E-03    0.48379E-03  8424   0.100E-02 0.919E-04
CGA:  77    -0.668727274464E+03   -0.11550E-02    0.32379E-03  8424   0.745E-03 0.113E-02
CGA:  78    -0.668727493795E+03   -0.21933E-03   -0.21435E-03  8424   0.133E-02-0.165E-03
CGA:  79    -0.668728558534E+03   -0.10647E-02    0.26099E-03  8424   0.178E-02 0.994E-03
CGA:  80    -0.668728971640E+03   -0.41311E-03   -0.32876E-03  8424   0.116E-02-0.642E-03
CGA:  81    -0.668729657852E+03   -0.68621E-03    0.23812E-03  8424   0.665E-03 0.679E-03
CGA:  82    -0.668729872496E+03   -0.21464E-03   -0.21904E-03  8424   0.170E-02-0.230E-03
CGA:  83    -0.668731015930E+03   -0.11434E-02    0.26467E-03  8424   0.343E-02 0.911E-03
CGA:  84    -0.668731595630E+03   -0.57970E-03   -0.47527E-03  8424   0.752E-03-0.613E-03
CGA:  85    -0.668732046497E+03   -0.45087E-03    0.45274E-03  8424   0.444E-03 0.360E-03
CGA:  86    -0.668732677585E+03   -0.63109E-03    0.16802E-03  8424   0.402E-03 0.593E-03
CGA:  87    -0.668733063979E+03   -0.38639E-03    0.10350E-03  8424   0.468E-03 0.285E-03
CGA:  88    -0.668731284976E+03    0.17790E-02   -0.97232E-03  8424   0.360E-01-0.169E-02
CGA:  89    -0.668735515543E+03   -0.42306E-02   -0.39403E-02  8424   0.547E-03-0.110E-02
CGA:  90    -0.668735714890E+03   -0.19935E-03   -0.46919E-03  8424   0.708E-02-0.766E-03
CGA:  91    -0.668736707930E+03   -0.99304E-03   -0.90470E-03  8424   0.557E-03-0.234E-03
CGA:  92    -0.668736959360E+03   -0.25143E-03   -0.44460E-03  8424   0.543E-02-0.652E-03
CGA:  93    -0.668737880260E+03   -0.92090E-03   -0.78247E-03  8424   0.676E-03-0.368E-03
CGA:  94    -0.668738189366E+03   -0.30911E-03   -0.28745E-03  8424   0.196E-02-0.337E-03
CGA:  95    -0.668740114529E+03   -0.19252E-02    0.28900E-03  8424   0.484E-02 0.538E-03
CGA:  96    -0.668727600500E+03    0.12514E-01   -0.97959E-02  8424   0.289E+00-0.222E-01
CGA:  97    -0.668760760519E+03   -0.33160E-01   -0.32738E-01  8424   0.583E-02 0.936E-02
CGA:  98    -0.668761905163E+03   -0.11446E-02   -0.11133E-02  8424   0.455E-03-0.850E-04
CGA:  99    -0.668754693168E+03    0.72120E-02   -0.38485E-02  8424   0.617E-01-0.304E-02
CGA: 100    -0.668762549029E+03   -0.78559E-02   -0.78263E-02  8424   0.543E-02 0.196E-02
CGA: 101    -0.668764857630E+03   -0.23086E-02   -0.20487E-02  8424   0.126E-02-0.468E-03
CGA: 102    -0.668765514705E+03   -0.65707E-03   -0.43091E-03  8424   0.903E-03-0.436E-03
CGA: 103    -0.668762733572E+03    0.27811E-02   -0.12861E-02  8424   0.390E-01-0.314E-02
CGA: 104    -0.668768494396E+03   -0.57608E-02   -0.55797E-02  8424   0.405E-02-0.121E-02
CGA: 105    -0.668769842201E+03   -0.13478E-02   -0.13012E-02  8424   0.992E-03-0.831E-04
CGA: 106    -0.668770542729E+03   -0.70053E-03   -0.50394E-03  8424   0.189E-02-0.566E-03
CGA: 107    -0.668770848577E+03   -0.30585E-03   -0.28517E-03  8424   0.259E-03-0.256E-04
CGA: 108    -0.668771672430E+03   -0.82385E-03    0.10690E-03  8424   0.102E-02-0.102E-03
CGA: 109    -0.668774647914E+03   -0.29755E-02    0.12982E-03  8424   0.430E-02-0.100E-02
CGA: 110    -0.668776219034E+03   -0.15711E-02   -0.14540E-02  8424   0.161E-02-0.247E-03
CGA: 111    -0.668776658748E+03   -0.43971E-03   -0.32313E-03  8424   0.405E-03-0.201E-03
CGA: 112    -0.668777551371E+03   -0.89262E-03    0.20925E-03  8424   0.153E-02-0.240E-03
CGA: 113    -0.668777815349E+03   -0.26398E-03   -0.23501E-03  8424   0.289E-03-0.438E-04
CGA: 114    -0.668778594458E+03   -0.77911E-03    0.11567E-03  8424   0.973E-03-0.176E-03
CGA: 115    -0.668778899696E+03   -0.30524E-03   -0.21428E-03  8424   0.401E-03-0.176E-03
CGA: 116    -0.668779658061E+03   -0.75837E-03    0.18431E-03  8424   0.220E-02-0.423E-03
CGA: 117    -0.668780010397E+03   -0.35234E-03   -0.32674E-03  8424   0.322E-03-0.373E-04
CGA: 118    -0.668780629167E+03   -0.61877E-03    0.24669E-03  8424   0.121E-02-0.324E-03
CGA: 119    -0.668780966971E+03   -0.33780E-03   -0.26084E-03  8424   0.415E-03-0.164E-03
CGA: 120    -0.668781604875E+03   -0.63790E-03    0.33182E-03  8424   0.237E-02-0.554E-03
CGA: 121    -0.668781976002E+03   -0.37113E-03   -0.35147E-03  8424   0.335E-03-0.292E-04
CGA: 122    -0.668782562208E+03   -0.58621E-03    0.25662E-03  8424   0.978E-03-0.307E-03
CGA: 123    -0.668782896052E+03   -0.33384E-03   -0.24769E-03  8424   0.496E-03-0.228E-03
CGA: 124    -0.668783581842E+03   -0.68579E-03    0.24698E-03  8424   0.227E-02-0.576E-03
CGA: 125    -0.668783957001E+03   -0.37516E-03   -0.35203E-03  8424   0.362E-03-0.427E-04
CGA: 126    -0.668784520809E+03   -0.56381E-03    0.29981E-03  8424   0.964E-03-0.335E-03
CGA: 127    -0.668784838604E+03   -0.31779E-03   -0.23825E-03  8424   0.500E-03-0.232E-03
CGA: 128    -0.668785527363E+03   -0.68876E-03    0.18629E-03  8424   0.177E-02-0.502E-03
CGA: 129    -0.668785863584E+03   -0.33622E-03   -0.30079E-03  8424   0.367E-03-0.838E-04
CGA: 130    -0.668786426006E+03   -0.56242E-03    0.21034E-03  8424   0.969E-03-0.330E-03
CGA: 131    -0.668786713320E+03   -0.28731E-03   -0.21728E-03  8424   0.446E-03-0.212E-03
CGA: 132    -0.668787396665E+03   -0.68334E-03    0.11193E-03  8424   0.113E-02-0.338E-03
CGA: 133    -0.668787677370E+03   -0.28070E-03   -0.22757E-03  8424   0.382E-03-0.158E-03
CGA: 134    -0.668788278202E+03   -0.60083E-03    0.11163E-03  8424   0.959E-03-0.295E-03
CGA: 135    -0.668788547569E+03   -0.26937E-03   -0.20419E-03  8424   0.414E-03-0.211E-03
CGA: 136    -0.668789210382E+03   -0.66281E-03    0.78441E-04  8424   0.828E-03-0.245E-03
CGA: 137    -0.668789471218E+03   -0.26084E-03   -0.19855E-03  8424   0.467E-03-0.236E-03
CGA: 138    -0.668790138457E+03   -0.66724E-03    0.78771E-04  8424   0.949E-03-0.283E-03
CGA: 139    -0.668790438254E+03   -0.29980E-03   -0.23022E-03  8424   0.516E-03-0.280E-03
CGA: 140    -0.668791083753E+03   -0.64550E-03    0.10181E-03  8424   0.114E-02-0.369E-03
CGA: 141    -0.668791366984E+03   -0.28323E-03   -0.23074E-03  8424   0.391E-03-0.190E-03
CGA: 142    -0.668791922638E+03   -0.55565E-03    0.90408E-04  8424   0.833E-03-0.275E-03
CGA: 143    -0.668792174817E+03   -0.25218E-03   -0.18856E-03  8424   0.465E-03-0.266E-03
CGA: 144    -0.668792835927E+03   -0.66111E-03    0.54724E-04  8424   0.662E-03-0.191E-03
CGA: 145    -0.668794292039E+03   -0.14561E-02    0.28262E-04  8424   0.346E-03 0.321E-03
CGA: 146    -0.668795359337E+03   -0.10673E-02    0.89391E-04  8424   0.857E-03-0.142E-03
CGA: 147    -0.668798076777E+03   -0.27174E-02    0.23077E-04  8424   0.300E-02-0.683E-03
CGA: 148    -0.668799181426E+03   -0.11046E-02   -0.10239E-02  8424   0.552E-03-0.729E-03
CGA: 149    -0.668799138557E+03    0.42869E-04   -0.31164E-03  8424   0.684E-02-0.119E-02
CGA: 150    -0.668800178206E+03   -0.10396E-02   -0.87473E-03  8424   0.181E-03-0.540E-03
CGA: 151    -0.668800553700E+03   -0.37549E-03    0.24273E-04  8424   0.351E-03-0.379E-04
CGA: 152    -0.668801800419E+03   -0.12467E-02    0.15260E-04  8424   0.303E-03 0.146E-03
CGA: 153    -0.668803368038E+03   -0.15676E-02    0.30743E-04  8424   0.341E-03 0.205E-03
CGA: 154    -0.668803529350E+03   -0.16131E-03   -0.12093E-03  8424   0.119E-02-0.448E-03
CGA: 155    -0.668803846245E+03   -0.31690E-03   -0.19597E-03  8424   0.328E-03-0.441E-03
CGA: 156    -0.668804328546E+03   -0.48230E-03    0.25495E-04  8424   0.205E-03 0.206E-04
CGA: 157    -0.668805052929E+03   -0.72438E-03    0.15988E-04  8424   0.333E-03 0.261E-04
CGA: 158    -0.668806605224E+03   -0.15523E-02    0.20881E-04  8424   0.112E-03 0.271E-03
CGA: 159    -0.668806993508E+03   -0.38828E-03    0.78335E-05  8424   0.274E-03-0.923E-05
CGA: 160    -0.668808292137E+03   -0.12986E-02    0.10625E-04  8424   0.377E-03 0.179E-03
CGA: 161    -0.668799390117E+03    0.89020E-02   -0.48639E-02  8424   0.615E-01-0.431E-02
CGA: 162    -0.668810648970E+03   -0.11259E-01   -0.11068E-01  8424   0.301E-02-0.521E-03
CGA: 163    -0.668811103075E+03   -0.45411E-03   -0.41568E-03  8424   0.208E-03-0.486E-04
CGA: 164    -0.668811676020E+03   -0.57295E-03    0.77603E-04  8424   0.866E-03-0.247E-03
CGA: 165    -0.668811975332E+03   -0.29931E-03   -0.21361E-03  8424   0.296E-03-0.182E-03
CGA: 166    -0.668812615066E+03   -0.63973E-03    0.83726E-04  8424   0.230E-02-0.458E-03
CGA: 167    -0.668812927368E+03   -0.31230E-03   -0.30248E-03  8424   0.185E-03-0.551E-05
CGA: 168    -0.668813500953E+03   -0.57358E-03    0.46377E-04  8424   0.444E-03-0.138E-03
CGA: 169    -0.668813807397E+03   -0.30644E-03   -0.26798E-03  8424   0.173E-02-0.614E-03
CGA: 170    -0.668814237946E+03   -0.43055E-03   -0.30133E-03  8424   0.348E-03-0.270E-03
CGA: 171    -0.668799237602E+03    0.15000E-01   -0.82195E-02  8424   0.123E+00-0.469E-02
CGA: 172    -0.668816621132E+03   -0.17384E-01   -0.17707E-01  8424   0.106E-01-0.672E-02
CGA: 173    -0.668818803968E+03   -0.21828E-02   -0.21390E-02  8424   0.458E-03-0.217E-04
CGA: 174    -0.668819225605E+03   -0.42164E-03   -0.21275E-03  8424   0.631E-03-0.348E-03
CGA: 175    -0.668819430568E+03   -0.20496E-03   -0.12448E-03  8424   0.208E-03-0.952E-04
CGA: 176    -0.668820254325E+03   -0.82376E-03    0.66126E-04  8424   0.231E-02-0.375E-03
CGA: 177    -0.668820615471E+03   -0.36115E-03   -0.34388E-03  8424   0.289E-03-0.634E-05
CGA: 178    -0.668820149845E+03    0.46563E-03   -0.46368E-03  8424   0.105E-01-0.142E-02
CGA: 179    -0.668821928774E+03   -0.17789E-02   -0.17777E-02  8424   0.153E-02 0.783E-04
CGA: 180    -0.668822484744E+03   -0.55597E-03   -0.36554E-03  8424   0.295E-03-0.272E-03
CGA: 181    -0.668822961686E+03   -0.47694E-03    0.14156E-02  8424   0.199E-02-0.456E-03
CGA: 182    -0.668823494990E+03   -0.53330E-03   -0.36002E-03  8424   0.438E-03-0.248E-03
CGA: 183    -0.668823842672E+03   -0.34768E-03   -0.19717E-03  8424   0.101E-02-0.419E-03
CGA: 184    -0.668824173543E+03   -0.33087E-03   -0.18902E-03  8424   0.276E-03-0.216E-03
CGA: 185    -0.668824602954E+03   -0.42941E-03    0.43470E-03  8424   0.221E-02-0.439E-03
CGA: 186    -0.668825106845E+03   -0.50389E-03   -0.34637E-03  8424   0.290E-03-0.249E-03
CGA: 187    -0.668825033927E+03    0.72918E-04   -0.30216E-03  8424   0.675E-02-0.982E-03
CGA: 188    -0.668826197081E+03   -0.11632E-02   -0.98913E-03  8424   0.596E-03-0.322E-03
CGA: 189    -0.668826462339E+03   -0.26526E-03   -0.16647E-03  8424   0.257E-03-0.205E-03
CGA: 190    -0.668827291306E+03   -0.82897E-03    0.27912E-04  8424   0.744E-03-0.122E-03
CGA: 191    -0.668829900184E+03   -0.26089E-02    0.43089E-04  8424   0.228E-02-0.348E-03
CGA: 192    -0.668840486816E+03   -0.10587E-01    0.94765E-04  8424   0.900E-03 0.743E-03
CGA: 193    -0.668844775864E+03   -0.42890E-02    0.32246E-03  8424   0.405E-02-0.119E-02
CGA: 194    -0.668845457298E+03   -0.68143E-03   -0.69120E-03  8424   0.521E-03 0.265E-04
CGA: 195    -0.668845769382E+03   -0.31208E-03   -0.18261E-03  8424   0.450E-03-0.348E-03
CGA: 196    -0.668845904174E+03   -0.13479E-03   -0.93364E-04  8424   0.142E-03-0.828E-04
CGA: 197    -0.668846371174E+03   -0.46700E-03    0.19817E-04  8424   0.717E-03-0.154E-03
CGA: 198    -0.668846515753E+03   -0.14458E-03   -0.11895E-03  8424   0.114E-03-0.482E-04
CGA: 199    -0.668846918380E+03   -0.40263E-03    0.18488E-04  8424   0.513E-03-0.125E-03
CGA: 200    -0.668847055977E+03   -0.13760E-03   -0.10109E-03  8424   0.138E-03-0.793E-04
   1 F= -.66884706E+03 E0= -.66884706E+03  d E =-.668847E+03  mag=     2.0000
       N       E                     dE             d eps       ncg     rms          ort
SDA:   1    -0.668863908011E+03   -0.16990E-01    0.00000E+00  8424   0.317E-01 0.000E+00
CGA:   2    -0.668868715893E+03   -0.48079E-02   -0.45872E-02  8424   0.996E-02-0.702E-03
CGA:   3    -0.668871120362E+03   -0.24045E-02   -0.22974E-02  8424   0.345E-02-0.299E-03
CGA:   4    -0.668871895414E+03   -0.77505E-03   -0.67415E-03  8424   0.102E-02-0.263E-03
CGA:   5    -0.668872173920E+03   -0.27851E-03   -0.18454E-03  8424   0.446E-03-0.253E-03
CGA:   6    -0.668872097601E+03    0.76319E-04   -0.28810E-03  8424   0.591E-02-0.118E-02
CGA:   7    -0.668872894597E+03   -0.79700E-03   -0.74587E-03  8424   0.684E-03-0.115E-03
CGA:   8    -0.668873185222E+03   -0.29062E-03   -0.23046E-03  8424   0.461E-03-0.302E-03
CGA:   9    -0.668873615278E+03   -0.43006E-03    0.12096E-03  8424   0.734E-03-0.271E-03
CGA:  10    -0.668873851186E+03   -0.23591E-03   -0.17886E-03  8424   0.336E-03-0.198E-03
CGA:  11    -0.668874229087E+03   -0.37790E-03    0.13157E-03  8424   0.465E-03-0.232E-03
CGA:  12    -0.668874438211E+03   -0.20912E-03   -0.16147E-03  8424   0.436E-03-0.278E-03
CGA:  13    -0.668874636776E+03   -0.19856E-03   -0.12862E-03  8424   0.371E-03-0.326E-03
CGA:  14    -0.668874768134E+03   -0.13136E-03   -0.90798E-04  8424   0.178E-03-0.160E-03
CGA:  15    -0.668875176546E+03   -0.40841E-03    0.78579E-05  8424   0.353E-03-0.346E-04
CGA:  16    -0.668876221345E+03   -0.10448E-02    0.24970E-04  8424   0.192E-03 0.435E-04
CGA:  17    -0.668877025801E+03   -0.80446E-03    0.18619E-04  8424   0.379E-03-0.901E-05
CGA:  18    -0.668878910573E+03   -0.18848E-02    0.20206E-04  8424   0.542E-03 0.432E-04
CGA:  19    -0.668882130422E+03   -0.32198E-02    0.32829E-04  8424   0.182E-03 0.384E-03
CGA:  20    -0.668882197738E+03   -0.67315E-04   -0.47423E-04  8424   0.151E-03-0.881E-04
CGA:  21    -0.668882661611E+03   -0.46387E-03    0.35343E-05  8424   0.132E-03 0.442E-04
CGA:  22    -0.668883339816E+03   -0.67821E-03    0.12725E-04  8424   0.330E-03-0.524E-04
CGA:  23    -0.668885028566E+03   -0.16888E-02    0.59416E-05  8424   0.103E-02-0.490E-05
CGA:  24    -0.668890847401E+03   -0.58188E-02    0.47888E-04  8424   0.187E-02 0.130E-03
CGA:  25    -0.668903011500E+03   -0.12164E-01    0.98879E-04  8424   0.240E-02-0.739E-04
CGA:  26    -0.668920251035E+03   -0.17240E-01    0.80139E-04  8424   0.274E-02-0.116E-02
CGA:  27    -0.668939603557E+03   -0.19353E-01    0.24978E-04  8424   0.459E-02-0.477E-02
CGA:  28    -0.668940477408E+03   -0.87385E-03   -0.94714E-03  8424   0.461E-03 0.269E-03
CGA:  29    -0.668940436003E+03    0.41406E-04   -0.65624E-04  8424   0.254E-03 0.326E-03
CGA:  30    -0.668940384865E+03    0.51138E-04   -0.26012E-04  8424   0.206E-03 0.224E-03
CGA:  31    -0.668940336950E+03    0.47915E-04   -0.18660E-04  8424   0.189E-03 0.196E-03
CGA:  32    -0.668940292253E+03    0.44696E-04   -0.15663E-04  8424   0.179E-03 0.183E-03
CGA:  33    -0.668940250324E+03    0.41929E-04   -0.13796E-04  8424   0.172E-03 0.175E-03
CGA:  34    -0.668940210837E+03    0.39488E-04   -0.12433E-04  8424   0.167E-03 0.169E-03
CGA:  35    -0.668940173549E+03    0.37288E-04   -0.11356E-04  8424   0.163E-03 0.164E-03
CGA:  36    -0.668940138272E+03    0.35277E-04   -0.10459E-04  8424   0.159E-03 0.160E-03
CGA:  37    -0.668940104851E+03    0.33421E-04   -0.96875E-05  8424   0.156E-03 0.157E-03
CGA:  38    -0.668940073154E+03    0.31697E-04   -0.90101E-05  8424   0.153E-03 0.154E-03
CGA:  39    -0.668940043063E+03    0.30091E-04   -0.84078E-05  8424   0.151E-03 0.152E-03
CGA:  40    -0.668940014472E+03    0.28590E-04   -0.78672E-05  8424   0.149E-03 0.150E-03
CGA:  41    -0.668939987288E+03    0.27184E-04   -0.73784E-05  8424   0.147E-03 0.148E-03
CGA:  42    -0.668939961425E+03    0.25864E-04   -0.69328E-05  8424   0.145E-03 0.146E-03
CGA:  43    -0.668939936804E+03    0.24620E-04   -0.65239E-05  8424   0.144E-03 0.144E-03
CGA:  44    -0.668939913357E+03    0.23447E-04   -0.61470E-05  8424   0.143E-03 0.143E-03
CGA:  45    -0.668939891019E+03    0.22338E-04   -0.57982E-05  8424   0.141E-03 0.142E-03
CGA:  46    -0.668939869731E+03    0.21289E-04   -0.54747E-05  8424   0.140E-03 0.140E-03
CGA:  47    -0.668939849436E+03    0.20295E-04   -0.51741E-05  8424   0.139E-03 0.139E-03
CGA:  48    -0.668939830084E+03    0.19352E-04   -0.48941E-05  8424   0.138E-03 0.138E-03
CGA:  49    -0.668939811625E+03    0.18458E-04   -0.46329E-05  8424   0.137E-03 0.137E-03
CGA:  50    -0.668939794016E+03    0.17610E-04   -0.43888E-05  8424   0.136E-03 0.136E-03
CGA:  51    -0.668939777212E+03    0.16803E-04   -0.41603E-05  8424   0.135E-03 0.135E-03
CGA:  52    -0.668939761176E+03    0.16037E-04   -0.39462E-05  8424   0.134E-03 0.135E-03
CGA:  53    -0.668939745868E+03    0.15308E-04   -0.37453E-05  8424   0.134E-03 0.134E-03
CGA:  54    -0.668939731253E+03    0.14615E-04   -0.35564E-05  8424   0.133E-03 0.133E-03
CGA:  55    -0.668939717298E+03    0.13955E-04   -0.33788E-05  8424   0.132E-03 0.132E-03
CGA:  56    -0.668939703972E+03    0.13327E-04   -0.32116E-05  8424   0.132E-03 0.132E-03
CGA:  57    -0.668939691244E+03    0.12728E-04   -0.30539E-05  8424   0.131E-03 0.131E-03
CGA:  58    -0.668939679085E+03    0.12158E-04   -0.29052E-05  8424   0.130E-03 0.131E-03
CGA:  59    -0.668939667470E+03    0.11615E-04   -0.27647E-05  8424   0.130E-03 0.130E-03
CGA:  60    -0.668939656372E+03    0.11098E-04   -0.26320E-05  8424   0.129E-03 0.130E-03
CGA:  61    -0.668939645768E+03    0.10604E-04   -0.25064E-05  8424   0.129E-03 0.129E-03
CGA:  62    -0.668939635634E+03    0.10134E-04   -0.23876E-05  8424   0.129E-03 0.129E-03
CGA:  63    -0.668939625949E+03    0.96853E-05   -0.22751E-05  8424   0.128E-03 0.128E-03
   2 F= -.66893963E+03 E0= -.66893963E+03  d E =-.925700E-01  mag=     2.0000
       N       E                     dE             d eps       ncg     rms          ort
SDA:   1    -0.668858993056E+03    0.80643E-01    0.00000E+00  8424   0.673E+00 0.000E+00
CGA:   2    -0.668994921833E+03   -0.13593E+00   -0.13557E+00  8424   0.272E+00 0.353E-02
CGA:   3    -0.669052416857E+03   -0.57495E-01   -0.57314E-01  8424   0.872E-01 0.169E-02
CGA:   4    -0.669066838987E+03   -0.14422E-01   -0.14328E-01  8424   0.214E-01 0.181E-02
CGA:   5    -0.669070543422E+03   -0.37044E-02   -0.36286E-02  8424   0.420E-02 0.147E-02
CGA:   6    -0.669071307971E+03   -0.76455E-03   -0.71877E-03  8424   0.957E-03 0.106E-02
CGA:   7    -0.669071407280E+03   -0.99309E-04   -0.11601E-03  8424   0.487E-03 0.745E-03
CGA:   8    -0.669071417523E+03   -0.10244E-04   -0.31966E-04  8424   0.361E-03 0.414E-03
CGA:   9    -0.669071415537E+03    0.19861E-05   -0.18906E-04  8424   0.307E-03 0.331E-03
CGA:  10    -0.669071409751E+03    0.57860E-05   -0.13701E-04  8424   0.274E-03 0.288E-03
CGA:  11    -0.669071402410E+03    0.73413E-05   -0.10788E-04  8424   0.251E-03 0.261E-03
   3 F= -.66907140E+03 E0= -.66907140E+03  d E =-.131776E+00  mag=     2.0000
       N       E                     dE             d eps       ncg     rms          ort
SDA:   1    -0.668847066174E+03    0.22434E+00    0.00000E+00  8424   0.117E+01 0.000E+00
CGA:   2    -0.669084950839E+03   -0.23788E+00   -0.23734E+00  8424   0.478E+00 0.521E-02
CGA:   3    -0.669185576717E+03   -0.10063E+00   -0.10053E+00  8424   0.154E+00 0.780E-03
CGA:   4    -0.669211094064E+03   -0.25517E-01   -0.25435E-01  8424   0.383E-01 0.151E-02
CGA:   5    -0.669217716207E+03   -0.66221E-02   -0.65511E-02  8424   0.761E-02 0.129E-02
CGA:   6    -0.669219183980E+03   -0.14678E-02   -0.14130E-02  8424   0.162E-02 0.880E-03
CGA:   7    -0.669219434413E+03   -0.25043E-03   -0.24002E-03  8424   0.607E-03 0.859E-03
CGA:   8    -0.669219473117E+03   -0.38704E-04   -0.53849E-04  8424   0.385E-03 0.467E-03
CGA:   9    -0.669219480787E+03   -0.76699E-05   -0.25764E-04  8424   0.312E-03 0.344E-03
CGA:  10    -0.669219480398E+03    0.38942E-06   -0.17348E-04  8424   0.272E-03 0.289E-03
CGA:  11    -0.669219476685E+03    0.37131E-05   -0.13101E-04  8424   0.245E-03 0.256E-03
CGA:  12    -0.669219471381E+03    0.53037E-05   -0.10507E-04  8424   0.226E-03 0.234E-03
   4 F= -.66921947E+03 E0= -.66921947E+03  d E =-.148069E+00  mag=     2.0000
       N       E                     dE             d eps       ncg     rms          ort
SDA:   1    -0.645448641787E+03    0.23771E+02    0.00000E+00  8424   0.849E+02 0.000E+00
CGA:   2    -0.660474914445E+03   -0.15026E+02   -0.14832E+02  8424   0.299E+02 0.255E+01
CGA:   3    -0.667379516611E+03   -0.69046E+01   -0.69345E+01  8424   0.960E+01-0.298E+00
CGA:   4    -0.669014369205E+03   -0.16349E+01   -0.16331E+01  8424   0.256E+01 0.215E-01
CGA:   5    -0.669442491933E+03   -0.42812E+00   -0.42744E+00  8424   0.538E+00 0.118E-01
CGA:   6    -0.669551528024E+03   -0.10904E+00   -0.10906E+00  8424   0.126E+00-0.406E-03
CGA:   7    -0.669580751112E+03   -0.29223E-01   -0.28909E-01  8424   0.395E-01 0.292E-02
CGA:   8    -0.669590424927E+03   -0.96738E-02   -0.93784E-02  8424   0.119E-01 0.284E-02
CGA:   9    -0.669593799879E+03   -0.33750E-02   -0.31917E-02  8424   0.417E-02 0.157E-02
CGA:  10    -0.669594891108E+03   -0.10912E-02   -0.96856E-03  8424   0.170E-02 0.186E-02
CGA:  11    -0.669595313914E+03   -0.42281E-03   -0.39667E-03  8424   0.843E-03 0.136E-02
CGA:  12    -0.669595451396E+03   -0.13748E-03   -0.13052E-03  8424   0.519E-03 0.606E-03
CGA:  13    -0.669595492100E+03   -0.40704E-04   -0.56943E-04  8424   0.436E-03 0.474E-03
CGA:  14    -0.669595517955E+03   -0.25855E-04   -0.43369E-04  8424   0.385E-03 0.409E-03
CGA:  15    -0.669595534456E+03   -0.16501E-04   -0.34779E-04  8424   0.350E-03 0.367E-03
CGA:  16    -0.669595545258E+03   -0.10802E-04   -0.29128E-04  8424   0.323E-03 0.336E-03
CGA:  17    -0.669595552235E+03   -0.69770E-05   -0.25010E-04  8424   0.302E-03 0.313E-03
CGA:  18    -0.669595556539E+03   -0.43040E-05   -0.21869E-04  8424   0.285E-03 0.294E-03
CGA:  19    -0.669595558926E+03   -0.23865E-05   -0.19394E-04  8424   0.271E-03 0.278E-03
CGA:  20    -0.669595559904E+03   -0.97867E-06   -0.17389E-04  8424   0.259E-03 0.265E-03
CGA:  21    -0.669595559829E+03    0.75343E-07   -0.15724E-04  8424   0.249E-03 0.254E-03
CGA:  22    -0.669595558956E+03    0.87277E-06   -0.14319E-04  8424   0.239E-03 0.244E-03
CGA:  23    -0.669595557480E+03    0.14763E-05   -0.13120E-04  8424   0.232E-03 0.235E-03
CGA:  24    -0.669595555542E+03    0.19383E-05   -0.12080E-04  8424   0.224E-03 0.228E-03
CGA:  25    -0.669595553252E+03    0.22895E-05   -0.11171E-04  8424   0.218E-03 0.221E-03
CGA:  26    -0.669595550698E+03    0.25543E-05   -0.10370E-04  8424   0.213E-03 0.215E-03
   5 F= -.66959555E+03 E0= -.66959555E+03  d E =-.376079E+00  mag=     2.0000
       N       E                     dE             d eps       ncg     rms          ort
SDA:   1    -0.668096239429E+03    0.14993E+01    0.00000E+00  8424   0.501E+01 0.000E+00
CGA:   2    -0.669095975136E+03   -0.99974E+00   -0.99715E+00  8424   0.197E+01 0.261E-01
CGA:   3    -0.669512377656E+03   -0.41640E+00   -0.41673E+00  8424   0.643E+00-0.380E-02
CGA:   4    -0.669619150971E+03   -0.10677E+00   -0.10672E+00  8424   0.165E+00 0.828E-03
CGA:   5    -0.669647398505E+03   -0.28248E-01   -0.28159E-01  8424   0.325E-01 0.154E-02
CGA:   6    -0.669653832531E+03   -0.64340E-02   -0.63744E-02  8424   0.715E-02 0.768E-03
CGA:   7    -0.669655381908E+03   -0.15494E-02   -0.14714E-02  8424   0.198E-02 0.972E-03
CGA:   8    -0.669655820982E+03   -0.43907E-03   -0.39949E-03  8424   0.603E-03 0.746E-03
CGA:   9    -0.669655930040E+03   -0.10906E-03   -0.10797E-03  8424   0.295E-03 0.464E-03
CGA:  10    -0.669655952671E+03   -0.22631E-04   -0.29407E-04  8424   0.208E-03 0.239E-03
CGA:  11    -0.669655959218E+03   -0.65469E-05   -0.15980E-04  8424   0.178E-03 0.191E-03
CGA:  12    -0.669655961386E+03   -0.21680E-05   -0.11832E-04  8424   0.161E-03 0.168E-03
   6 F= -.66965596E+03 E0= -.66965596E+03  d E =-.604107E-01  mag=     2.0000
       N       E                     dE             d eps       ncg     rms          ort
SDA:   1    -0.669191087312E+03    0.46487E+00    0.00000E+00  8424   0.140E+01 0.000E+00
CGA:   2    -0.669513974912E+03   -0.32289E+00   -0.32262E+00  8424   0.586E+00 0.232E-02
CGA:   3    -0.669629365315E+03   -0.11539E+00   -0.11557E+00  8424   0.172E+00-0.250E-02
CGA:   4    -0.669658532561E+03   -0.29167E-01   -0.29156E-01  8424   0.443E-01 0.236E-03
CGA:   5    -0.669665979304E+03   -0.74467E-02   -0.74054E-02  8424   0.847E-02 0.109E-02
CGA:   6    -0.669667634877E+03   -0.16556E-02   -0.16173E-02  8424   0.185E-02 0.693E-03
CGA:   7    -0.669668023284E+03   -0.38841E-03   -0.36214E-03  8424   0.584E-03 0.561E-03
CGA:   8    -0.669668126344E+03   -0.10306E-03   -0.10328E-03  8424   0.269E-03 0.405E-03
CGA:   9    -0.669668147968E+03   -0.21624E-04   -0.28203E-04  8424   0.177E-03 0.208E-03
CGA:  10    -0.669668152471E+03   -0.45028E-05   -0.13724E-04  8424   0.150E-03 0.161E-03
   7 F= -.66966815E+03 E0= -.66966815E+03  d E =-.121911E-01  mag=     2.0000
       N       E                     dE             d eps       ncg     rms          ort
SDA:   1    -0.666548121697E+03    0.31200E+01    0.00000E+00  8424   0.825E+01 0.000E+00
CGA:   2    -0.668836915159E+03   -0.22888E+01   -0.22898E+01  8424   0.320E+01-0.449E-02
CGA:   3    -0.669446541878E+03   -0.60963E+00   -0.60979E+00  8424   0.931E+00-0.351E-02
CGA:   4    -0.669607419349E+03   -0.16088E+00   -0.16093E+00  8424   0.234E+00-0.164E-02
CGA:   5    -0.669646965552E+03   -0.39546E-01   -0.39506E-01  8424   0.488E-01 0.138E-02
CGA:   6    -0.669656772459E+03   -0.98069E-02   -0.97453E-02  8424   0.122E-01 0.109E-02
CGA:   7    -0.669659942572E+03   -0.31701E-02   -0.31419E-02  8424   0.482E-02 0.257E-03
CGA:   8    -0.669661170600E+03   -0.12280E-02   -0.11820E-02  8424   0.167E-02 0.511E-03
CGA:   9    -0.669661671329E+03   -0.50073E-03   -0.45900E-03  8424   0.658E-03 0.445E-03
CGA:  10    -0.669661865330E+03   -0.19400E-03   -0.17514E-03  8424   0.308E-03 0.370E-03
CGA:  11    -0.669661923014E+03   -0.57684E-04   -0.54670E-04  8424   0.163E-03 0.191E-03
CGA:  12    -0.669661956887E+03   -0.33873E-04   -0.30462E-04  8424   0.128E-03 0.142E-03
CGA:  13    -0.669661979248E+03   -0.22361E-04   -0.21717E-04  8424   0.111E-03 0.119E-03
CGA:  14    -0.669661999954E+03   -0.20706E-04   -0.19516E-04  8424   0.990E-04 0.105E-03
CGA:  15    -0.669662018055E+03   -0.18101E-04   -0.17226E-04  8424   0.900E-04 0.943E-04
CGA:  16    -0.669662035426E+03   -0.17372E-04   -0.16144E-04  8424   0.827E-04 0.862E-04
CGA:  17    -0.669662052270E+03   -0.16844E-04   -0.15307E-04  8424   0.766E-04 0.795E-04
CGA:  18    -0.669662069322E+03   -0.17052E-04   -0.14947E-04  8424   0.712E-04 0.738E-04
CGA:  19    -0.669662087015E+03   -0.17693E-04   -0.14881E-04  8424   0.665E-04 0.687E-04
CGA:  20    -0.669662106098E+03   -0.19084E-04   -0.15257E-04  8424   0.621E-04 0.642E-04
CGA:  21    -0.669662127505E+03   -0.21406E-04   -0.16156E-04  8424   0.579E-04 0.599E-04
CGA:  22    -0.669662153227E+03   -0.25722E-04   -0.18116E-04  8424   0.537E-04 0.557E-04
CGA:  23    -0.669662187551E+03   -0.34324E-04   -0.22316E-04  8424   0.491E-04 0.513E-04
CGA:  24    -0.669662252766E+03   -0.65215E-04   -0.38148E-04  8424   0.433E-04 0.455E-04
CGA:  25    -0.669662272579E+03   -0.19813E-04    0.28211E-03  8424   0.428E-04 0.410E-04
CGA:  26    -0.669662293677E+03   -0.21098E-04    0.50181E-04  8424   0.434E-04 0.384E-04
CGA:  27    -0.669662313839E+03   -0.20163E-04    0.15519E-03  8424   0.464E-04 0.344E-04
CGA:  28    -0.669662298973E+03    0.14866E-04   -0.17130E-04  8424   0.160E-02-0.764E-04
CGA:  29    -0.669662463503E+03   -0.16453E-03   -0.15999E-03  8424   0.454E-04-0.144E-04
CGA:  30    -0.669662488337E+03   -0.24834E-04   -0.28045E-04  8424   0.233E-03-0.149E-04
CGA:  31    -0.669662709800E+03   -0.22146E-03    0.43268E-04  8424   0.628E-03 0.478E-04
CGA:  32    -0.669663561677E+03   -0.85188E-03    0.39805E-03  8424   0.939E-03 0.113E-03
CGA:  33    -0.669643871560E+03    0.19690E-01   -0.10448E-01  8424   0.233E+00-0.127E-01
CGA:  34    -0.669670052881E+03   -0.26181E-01   -0.25330E-01  8424   0.141E-01-0.334E-02
CGA:  35    -0.669672448659E+03   -0.23958E-02   -0.24719E-02  8424   0.107E-02 0.225E-03
CGA:  36    -0.669672901472E+03   -0.45281E-03   -0.46793E-03  8424   0.200E-02 0.501E-04
CGA:  37    -0.669674347064E+03   -0.14456E-02   -0.14450E-02  8424   0.403E-02-0.307E-04
CGA:  38    -0.669675392201E+03   -0.10451E-02   -0.10302E-02  8424   0.985E-03-0.925E-04
CGA:  39    -0.669675730310E+03   -0.33811E-03   -0.32503E-03  8424   0.489E-03-0.996E-04
CGA:  40    -0.669675917225E+03   -0.18692E-03   -0.16936E-03  8424   0.491E-03-0.888E-04
CGA:  41    -0.669676041001E+03   -0.12378E-03   -0.11093E-03  8424   0.229E-03-0.515E-04
CGA:  42    -0.669676173683E+03   -0.13268E-03   -0.14510E-03  8424   0.537E-03-0.128E-03
CGA:  43    -0.669676241662E+03   -0.67979E-04   -0.91479E-04  8424   0.147E-03 0.520E-04
CGA:  44    -0.669676321722E+03   -0.80061E-04   -0.72494E-04  8424   0.205E-03-0.546E-04
CGA:  45    -0.669676361683E+03   -0.39960E-04   -0.42009E-04  8424   0.197E-03 0.658E-05
CGA:  46    -0.669676450680E+03   -0.88997E-04   -0.85404E-04  8424   0.242E-03-0.291E-04
CGA:  47    -0.669676564416E+03   -0.11374E-03   -0.12351E-03  8424   0.887E-03-0.273E-03
CGA:  48    -0.669676659574E+03   -0.95158E-04   -0.13617E-03  8424   0.202E-03 0.101E-03
CGA:  49    -0.669676768306E+03   -0.10873E-03   -0.99352E-04  8424   0.141E-03-0.928E-04
CGA:  50    -0.669675359176E+03    0.14091E-02   -0.74137E-03  8424   0.678E-02-0.586E-03
CGA:  51    -0.669676692875E+03   -0.13337E-02   -0.12676E-02  8424   0.137E-02-0.979E-04
CGA:  52    -0.669677078875E+03   -0.38600E-03   -0.42210E-03  8424   0.665E-03 0.446E-04
CGA:  53    -0.669677369837E+03   -0.29096E-03   -0.23446E-03  8424   0.305E-03-0.105E-03
CGA:  54    -0.669677431437E+03   -0.61600E-04   -0.66475E-04  8424   0.846E-04 0.696E-05
CGA:  55    -0.669677507200E+03   -0.75763E-04   -0.52528E-04  8424   0.253E-03-0.963E-04
CGA:  56    -0.669677543210E+03   -0.36009E-04   -0.43559E-04  8424   0.287E-04 0.114E-04
CGA:  57    -0.669677618045E+03   -0.74835E-04    0.22011E-04  8424   0.181E-03-0.393E-04
CGA:  58    -0.669677632398E+03   -0.14353E-04   -0.26764E-04  8424   0.204E-04 0.189E-04
CGA:  59    -0.669677693330E+03   -0.60931E-04    0.11535E-04  8424   0.113E-03-0.306E-04
CGA:  60    -0.669677719958E+03   -0.26628E-04   -0.25151E-04  8424   0.170E-04-0.275E-05
CGA:  61    -0.669677805339E+03   -0.85381E-04    0.25260E-05  8424   0.111E-03-0.176E-04
CGA:  62    -0.669677807042E+03   -0.17025E-05   -0.13246E-04  8424   0.119E-04 0.186E-04
   8 F= -.66967781E+03 E0= -.66967781E+03  d E =-.965457E-02  mag=     2.0000
       N       E                     dE             d eps       ncg     rms          ort
SDA:   1    -0.669368749777E+03    0.30906E+00    0.00000E+00  8424   0.905E+00 0.000E+00
CGA:   2    -0.669594829324E+03   -0.22608E+00   -0.22635E+00  8424   0.430E+00 0.325E-03
CGA:   3    -0.669677206619E+03   -0.82377E-01   -0.82198E-01  8424   0.111E+00-0.944E-04
CGA:   4    -0.669695679395E+03   -0.18473E-01   -0.18407E-01  8424   0.273E-01-0.132E-03
CGA:   5    -0.669700414826E+03   -0.47354E-02   -0.46998E-02  8424   0.576E-02-0.821E-04
CGA:   6    -0.669701617579E+03   -0.12028E-02   -0.11712E-02  8424   0.142E-02-0.776E-04
CGA:   7    -0.669701951476E+03   -0.33390E-03   -0.32404E-03  8424   0.474E-03-0.273E-04
CGA:   8    -0.669702103616E+03   -0.15214E-03   -0.13539E-03  8424   0.217E-03-0.588E-04
CGA:   9    -0.669702191355E+03   -0.87739E-04   -0.74627E-04  8424   0.171E-03-0.774E-04
CGA:  10    -0.669701117453E+03    0.10739E-02   -0.25113E-03  8424   0.675E-02-0.774E-03
CGA:  11    -0.669702303163E+03   -0.11857E-02   -0.11876E-02  8424   0.909E-03 0.533E-05
CGA:  12    -0.669702674121E+03   -0.37096E-03   -0.34402E-03  8424   0.422E-03-0.113E-03
CGA:  13    -0.669702855887E+03   -0.18177E-03   -0.15773E-03  8424   0.422E-03-0.134E-03
CGA:  14    -0.669703006205E+03   -0.15032E-03   -0.96781E-04  8424   0.295E-03-0.206E-03
CGA:  15    -0.669702979294E+03    0.26911E-04   -0.13609E-03  8424   0.168E-02-0.515E-03
CGA:  16    -0.669703278899E+03   -0.29960E-03   -0.27860E-03  8424   0.381E-03-0.496E-04
CGA:  17    -0.669703402398E+03   -0.12350E-03   -0.11276E-03  8424   0.177E-03-0.394E-04
CGA:  18    -0.669700051613E+03    0.33508E-02   -0.18178E-02  8424   0.181E-01-0.128E-02
CGA:  19    -0.669702635330E+03   -0.25837E-02   -0.27203E-02  8424   0.293E-02 0.323E-03
CGA:  20    -0.669703569326E+03   -0.93400E-03   -0.86010E-03  8424   0.129E-02-0.108E-03
CGA:  21    -0.669704109038E+03   -0.53971E-03   -0.50053E-03  8424   0.498E-03-0.710E-04
CGA:  22    -0.669704308398E+03   -0.19936E-03   -0.16444E-03  8424   0.205E-03-0.611E-04
CGA:  23    -0.669704401046E+03   -0.92649E-04   -0.59231E-04  8424   0.137E-03-0.591E-04
CGA:  24    -0.669704274570E+03    0.12648E-03   -0.13870E-03  8424   0.278E-02-0.476E-03
CGA:  25    -0.669704588880E+03   -0.31431E-03   -0.40102E-03  8424   0.402E-03 0.128E-03
CGA:  26    -0.669704807122E+03   -0.21824E-03   -0.17557E-03  8424   0.191E-03-0.975E-04
CGA:  27    -0.669704881796E+03   -0.74674E-04   -0.53609E-04  8424   0.967E-04-0.456E-04
CGA:  28    -0.669704601544E+03    0.28025E-03   -0.14051E-03  8424   0.285E-02-0.384E-03
CGA:  29    -0.669705153474E+03   -0.55193E-03   -0.51731E-03  8424   0.451E-03-0.569E-04
CGA:  30    -0.669705286341E+03   -0.13287E-03   -0.12701E-03  8424   0.783E-04-0.111E-04
CGA:  31    -0.669704986289E+03    0.30005E-03   -0.13082E-03  8424   0.368E-02-0.358E-03
CGA:  32    -0.669705139637E+03   -0.15335E-03   -0.48805E-03  8424   0.784E-03 0.241E-03
CGA:  33    -0.669703071175E+03    0.20685E-02   -0.10925E-03  8424   0.334E-02 0.717E-03
CGA:  34    -0.669701253494E+03    0.18177E-02   -0.65211E-03  8424   0.826E-02 0.358E-02
CGA:  35    -0.669701103056E+03    0.15044E-03   -0.23221E-02  8424   0.623E-02 0.351E-02
CGA:  36    -0.669693745025E+03    0.73580E-02   -0.12237E-02  8424   0.208E-01 0.145E-01
CGA:  37    -0.669702436852E+03   -0.86918E-02   -0.98356E-02  8424   0.714E-02 0.435E-04
CGA:  38    -0.669700507369E+03    0.19295E-02   -0.19302E-02  8424   0.456E-02 0.304E-02
CGA:  39    -0.669698618069E+03    0.18893E-02   -0.11786E-02  8424   0.130E-01 0.853E-02
CGA:  40    -0.669702796571E+03   -0.41785E-02   -0.56157E-02  8424   0.575E-02 0.407E-02
CGA:  41    -0.669704750995E+03   -0.19544E-02   -0.29316E-02  8424   0.240E-02 0.153E-02
CGA:  42    -0.669705496203E+03   -0.74521E-03   -0.98002E-03  8424   0.802E-03-0.332E-03
CGA:  43    -0.669705580294E+03   -0.84091E-04   -0.11226E-03  8424   0.730E-03 0.265E-03
CGA:  44    -0.669705733118E+03   -0.15282E-03   -0.18471E-03  8424   0.854E-03-0.343E-03
CGA:  45    -0.669705845598E+03   -0.11248E-03   -0.49265E-04  8424   0.447E-03 0.102E-03
CGA:  46    -0.669705962634E+03   -0.11704E-03   -0.62154E-04  8424   0.280E-03-0.100E-03
CGA:  47    -0.669706076316E+03   -0.11368E-03   -0.10957E-03  8424   0.963E-03-0.255E-03
CGA:  48    -0.669706177338E+03   -0.10102E-03   -0.11187E-03  8424   0.716E-04 0.269E-04
CGA:  49    -0.665121721350E+03    0.45845E+01   -0.17037E-03  8424   0.390E+01-0.101E+01
CGA:  50    -0.668808918166E+03   -0.36872E+01   -0.50493E+01  8424   0.694E+01-0.691E+00
CGA:  51    -0.669665866845E+03   -0.85695E+00   -0.87341E+00  8424   0.196E+00-0.117E+00
CGA:  52    -0.669699843885E+03   -0.33977E-01   -0.34442E-01  8424   0.178E-01 0.162E-02
CGA:  53    -0.669704307275E+03   -0.44634E-02   -0.46586E-02  8424   0.505E-02 0.617E-03
CGA:  54    -0.669705791074E+03   -0.14838E-02   -0.13668E-02  8424   0.220E-02-0.394E-03
CGA:  55    -0.669706217747E+03   -0.42667E-03   -0.46036E-03  8424   0.407E-03 0.107E-03
CGA:  56    -0.669706450551E+03   -0.23280E-03   -0.24700E-03  8424   0.633E-03-0.307E-03
CGA:  57    -0.669706553118E+03   -0.10257E-03   -0.11258E-03  8424   0.814E-04 0.277E-04
CGA:  58    -0.669706595904E+03   -0.42786E-04   -0.39271E-04  8424   0.130E-03-0.645E-04
CGA:  59    -0.669706627661E+03   -0.31758E-04   -0.25504E-04  8424   0.296E-04-0.197E-04
CGA:  60    -0.669706709396E+03   -0.81735E-04    0.27623E-05  8424   0.695E-04-0.241E-04
CGA:  61    -0.669706715562E+03   -0.61660E-05   -0.93152E-05  8424   0.939E-05 0.865E-05
   9 F= -.66970672E+03 E0= -.66970672E+03  d E =-.289085E-01  mag=     2.0000
       N       E                     dE             d eps       ncg     rms          ort
SDA:   1    -0.635067168925E+03    0.34640E+02    0.00000E+00  8424   0.116E+03 0.000E+00
CGA:   2    -0.657065030509E+03   -0.21998E+02   -0.23188E+02  8424   0.437E+02-0.173E+01
CGA:   3    -0.666005309765E+03   -0.89403E+01   -0.88646E+01  8424   0.124E+02 0.728E+00
CGA:   4    -0.668274446851E+03   -0.22691E+01   -0.22752E+01  8424   0.341E+01 0.507E-01
CGA:   5    -0.668849620340E+03   -0.57517E+00   -0.57834E+00  8424   0.725E+00-0.333E-02
CGA:   6    -0.668995990300E+03   -0.14637E+00   -0.14619E+00  8424   0.177E+00-0.750E-04
CGA:   7    -0.669038713044E+03   -0.42723E-01   -0.42737E-01  8424   0.611E-01-0.235E-03
CGA:   8    -0.669053764641E+03   -0.15052E-01   -0.15086E-01  8424   0.209E-01 0.225E-03
CGA:   9    -0.669060028467E+03   -0.62638E-02   -0.61538E-02  8424   0.836E-02-0.106E-02
CGA:  10    -0.669062647917E+03   -0.26195E-02   -0.25711E-02  8424   0.386E-02-0.713E-03
CGA:  11    -0.669064030166E+03   -0.13822E-02   -0.13881E-02  8424   0.278E-02-0.143E-02
CGA:  12    -0.669064716329E+03   -0.68616E-03   -0.70058E-03  8424   0.253E-02-0.119E-02
CGA:  13    -0.669065870432E+03   -0.11541E-02    0.13540E-01  8424   0.216E-02-0.668E-03
CGA:  14    -0.669067316914E+03   -0.14465E-02    0.18835E-02  8424   0.145E-02-0.187E-07
CGA:  15    -0.669068770708E+03   -0.14538E-02    0.98684E-03  8424   0.100E-02 0.192E-03
CGA:  16    -0.669069974193E+03   -0.12035E-02    0.61621E-03  8424   0.978E-03-0.545E-04
CGA:  17    -0.669071186529E+03   -0.12123E-02    0.26561E-03  8424   0.831E-03-0.158E-03
CGA:  18    -0.669072541867E+03   -0.13553E-02    0.91091E-04  8424   0.570E-03 0.121E-03
CGA:  19    -0.669073799984E+03   -0.12581E-02    0.87062E-04  8424   0.441E-03 0.263E-03
CGA:  20    -0.669075013564E+03   -0.12136E-02    0.88625E-04  8424   0.443E-03 0.226E-03
CGA:  21    -0.669073138892E+03    0.18747E-02   -0.70220E-03  8424   0.223E-01-0.217E-02
CGA:  22    -0.669075924222E+03   -0.27853E-02   -0.28291E-02  8424   0.962E-03 0.139E-03
CGA:  23    -0.669076356172E+03   -0.43195E-03   -0.44342E-03  8424   0.644E-03-0.471E-03
CGA:  24    -0.669076794056E+03   -0.43788E-03    0.13482E-03  8424   0.945E-03-0.268E-03
CGA:  25    -0.669077569997E+03   -0.77594E-03    0.19484E-03  8424   0.841E-03-0.246E-03
CGA:  26    -0.669078724777E+03   -0.11548E-02    0.11915E-03  8424   0.589E-03 0.278E-04
CGA:  27    -0.669079791360E+03   -0.10666E-02    0.13047E-03  8424   0.337E-03 0.119E-04
CGA:  28    -0.669080526762E+03   -0.73540E-03    0.51208E-04  8424   0.566E-03-0.908E-04
CGA:  29    -0.669082055394E+03   -0.15286E-02    0.27612E-04  8424   0.567E-03-0.582E-05
CGA:  30    -0.669083783695E+03   -0.17283E-02    0.47951E-04  8424   0.908E-03-0.457E-04
CGA:  31    -0.669086700689E+03   -0.29170E-02    0.60140E-04  8424   0.114E-02-0.138E-03
CGA:  32    -0.669090753766E+03   -0.40531E-02    0.55469E-04  8424   0.139E-02-0.281E-03
CGA:  33    -0.669095727088E+03   -0.49733E-02    0.51610E-04  8424   0.178E-02-0.688E-03
CGA:  34    -0.669102094161E+03   -0.63671E-02    0.27474E-04  8424   0.201E-02-0.114E-02
CGA:  35    -0.669102553454E+03   -0.45929E-03   -0.43852E-03  8424   0.588E-03-0.976E-04
CGA:  36    -0.669102574573E+03   -0.21119E-04   -0.83397E-04  8424   0.143E-03 0.226E-03
CGA:  37    -0.669102552127E+03    0.22445E-04   -0.16524E-04  8424   0.733E-04 0.119E-03
CGA:  38    -0.669102538326E+03    0.13801E-04   -0.60201E-05  8424   0.572E-04 0.635E-04
CGA:  39    -0.669102525899E+03    0.12427E-04   -0.38698E-05  8424   0.491E-04 0.524E-04
CGA:  40    -0.669102514715E+03    0.11184E-04   -0.28521E-05  8424   0.439E-04 0.460E-04
CGA:  41    -0.669102504586E+03    0.10129E-04   -0.22361E-05  8424   0.401E-04 0.416E-04
CGA:  42    -0.669102495358E+03    0.92280E-05   -0.18198E-05  8424   0.372E-04 0.384E-04
  10 F= -.66910250E+03 E0= -.66910250E+03  d E =0.604220E+00  mag=     2.0000
       N       E                     dE             d eps       ncg     rms          ort
SDA:   1    -0.655401638291E+03    0.13701E+02    0.00000E+00  8424   0.494E+02 0.000E+00
CGA:   2    -0.664461510530E+03   -0.90599E+01   -0.91688E+01  8424   0.182E+02-0.228E-01
CGA:   3    -0.668414936106E+03   -0.39534E+01   -0.39443E+01  8424   0.579E+01-0.100E-01
CGA:   4    -0.669397904410E+03   -0.98297E+00   -0.98427E+00  8424   0.154E+01 0.138E-02
CGA:   5    -0.669657352768E+03   -0.25945E+00   -0.26013E+00  8424   0.323E+00 0.190E-02
CGA:   6    -0.669721945283E+03   -0.64593E-01   -0.64567E-01  8424   0.718E-01-0.166E-03
CGA:   7    -0.669737950675E+03   -0.16005E-01   -0.16077E-01  8424   0.218E-01 0.130E-02
CGA:   8    -0.669743024958E+03   -0.50743E-02   -0.51255E-02  8424   0.618E-02 0.116E-02
CGA:   9    -0.669744631692E+03   -0.16067E-02   -0.16226E-02  8424   0.198E-02 0.655E-03
CGA:  10    -0.669745038379E+03   -0.40669E-03   -0.45603E-03  8424   0.755E-03 0.768E-03
CGA:  11    -0.669745138039E+03   -0.99660E-04   -0.16531E-03  8424   0.375E-03 0.589E-03
CGA:  12    -0.669745146343E+03   -0.83040E-05   -0.47293E-04  8424   0.241E-03 0.284E-03
CGA:  13    -0.669745131176E+03    0.15167E-04   -0.21766E-04  8424   0.205E-03 0.222E-03
CGA:  14    -0.669745113883E+03    0.17293E-04   -0.15858E-04  8424   0.183E-03 0.194E-03
CGA:  15    -0.669745096238E+03    0.17644E-04   -0.12524E-04  8424   0.169E-03 0.176E-03
CGA:  16    -0.669745078893E+03    0.17346E-04   -0.10351E-04  8424   0.158E-03 0.163E-03
CGA:  17    -0.669745062110E+03    0.16783E-04   -0.88077E-05  8424   0.149E-03 0.153E-03
CGA:  18    -0.669745045997E+03    0.16113E-04   -0.76498E-05  8424   0.142E-03 0.146E-03
CGA:  19    -0.669745030589E+03    0.15407E-04   -0.67439E-05  8424   0.137E-03 0.139E-03
CGA:  20    -0.669745015889E+03    0.14700E-04   -0.60126E-05  8424   0.132E-03 0.134E-03
CGA:  21    -0.669745001880E+03    0.14009E-04   -0.54092E-05  8424   0.128E-03 0.130E-03
CGA:  22    -0.669744988538E+03    0.13342E-04   -0.49017E-05  8424   0.124E-03 0.126E-03
CGA:  23    -0.669744975834E+03    0.12704E-04   -0.44693E-05  8424   0.121E-03 0.123E-03
CGA:  24    -0.669744963737E+03    0.12097E-04   -0.40965E-05  8424   0.119E-03 0.120E-03
CGA:  25    -0.669744952218E+03    0.11519E-04   -0.37708E-05  8424   0.116E-03 0.117E-03
CGA:  26    -0.669744941247E+03    0.10971E-04   -0.34838E-05  8424   0.114E-03 0.115E-03
CGA:  27    -0.669744930796E+03    0.10451E-04   -0.32294E-05  8424   0.112E-03 0.113E-03
CGA:  28    -0.669744920837E+03    0.99588E-05   -0.30026E-05  8424   0.110E-03 0.111E-03
  11 F= -.66974492E+03 E0= -.66974492E+03  d E =-.642425E+00  mag=     2.0000
       N       E                     dE             d eps       ncg     rms          ort
SDA:   1    -0.669293536691E+03    0.45139E+00    0.00000E+00  8424   0.146E+01 0.000E+00
CGA:   2    -0.669605690590E+03   -0.31215E+00   -0.31182E+00  8424   0.595E+00 0.392E-02
CGA:   3    -0.669726112310E+03   -0.12042E+00   -0.12050E+00  8424   0.181E+00-0.131E-02
CGA:   4    -0.669756682522E+03   -0.30570E-01   -0.30547E-01  8424   0.471E-01 0.744E-03
CGA:   5    -0.669764628765E+03   -0.79462E-02   -0.79064E-02  8424   0.893E-02 0.149E-02
CGA:   6    -0.669766319114E+03   -0.16903E-02   -0.16495E-02  8424   0.191E-02 0.110E-02
CGA:   7    -0.669766651205E+03   -0.33209E-03   -0.32534E-03  8424   0.665E-03 0.858E-03
CGA:   8    -0.669766719914E+03   -0.68709E-04   -0.96068E-04  8424   0.368E-03 0.613E-03
CGA:   9    -0.669766726171E+03   -0.62577E-05   -0.27420E-04  8424   0.278E-03 0.314E-03
CGA:  10    -0.669766722105E+03    0.40662E-05   -0.16361E-04  8424   0.240E-03 0.256E-03
CGA:  11    -0.669766715137E+03    0.69683E-05   -0.12137E-04  8424   0.218E-03 0.227E-03
  12 F= -.66976672E+03 E0= -.66976672E+03  d E =-.217943E-01  mag=     2.0000
       N       E                     dE             d eps       ncg     rms          ort
SDA:   1    -0.669225102405E+03    0.54162E+00    0.00000E+00  8424   0.154E+01 0.000E+00
CGA:   2    -0.669613653489E+03   -0.38855E+00   -0.38821E+00  8424   0.641E+00 0.258E-02
CGA:   3    -0.669734619552E+03   -0.12097E+00   -0.12112E+00  8424   0.179E+00-0.285E-02
CGA:   4    -0.669765624973E+03   -0.31005E-01   -0.30969E-01  8424   0.463E-01 0.911E-03
CGA:   5    -0.669773216836E+03   -0.75919E-02   -0.75436E-02  8424   0.848E-02 0.193E-02
CGA:   6    -0.669774830068E+03   -0.16132E-02   -0.15638E-02  8424   0.189E-02 0.129E-02
CGA:   7    -0.669775169597E+03   -0.33953E-03   -0.32928E-03  8424   0.722E-03 0.925E-03
CGA:   8    -0.669775251651E+03   -0.82054E-04   -0.10925E-03  8424   0.411E-03 0.689E-03
CGA:   9    -0.669775261428E+03   -0.97772E-05   -0.31601E-04  8424   0.313E-03 0.352E-03
CGA:  10    -0.669775258825E+03    0.26036E-05   -0.19096E-04  8424   0.272E-03 0.290E-03
CGA:  11    -0.669775252516E+03    0.63087E-05   -0.14269E-04  8424   0.247E-03 0.258E-03
CGA:  12    -0.669775244630E+03    0.78858E-05   -0.11480E-04  8424   0.229E-03 0.237E-03
  13 F= -.66977524E+03 E0= -.66977524E+03  d E =-.852949E-02  mag=     2.0000
       N       E                     dE             d eps       ncg     rms          ort
SDA:   1    -0.668609831021E+03    0.11654E+01    0.00000E+00  8424   0.305E+01 0.000E+00
CGA:   2    -0.669479624101E+03   -0.86979E+00   -0.86982E+00  8424   0.111E+01 0.115E-03
CGA:   3    -0.669688789544E+03   -0.20917E+00   -0.20947E+00  8424   0.328E+00-0.507E-02
CGA:   4    -0.669746349476E+03   -0.57560E-01   -0.57496E-01  8424   0.791E-01 0.135E-02
CGA:   5    -0.669759320428E+03   -0.12971E-01   -0.12897E-01  8424   0.155E-01 0.254E-02
CGA:   6    -0.669762375292E+03   -0.30549E-02   -0.29805E-02  8424   0.368E-02 0.146E-02
CGA:   7    -0.669763204184E+03   -0.82889E-03   -0.76592E-03  8424   0.129E-02 0.119E-02
CGA:   8    -0.669763438727E+03   -0.23454E-03   -0.23592E-03  8424   0.610E-03 0.919E-03
CGA:   9    -0.669763483866E+03   -0.45139E-04   -0.62824E-04  8424   0.409E-03 0.478E-03
CGA:  10    -0.669763492515E+03   -0.86491E-05   -0.31540E-04  8424   0.348E-03 0.374E-03
CGA:  11    -0.669763492333E+03    0.18247E-06   -0.22683E-04  8424   0.311E-03 0.327E-03
CGA:  12    -0.669763488115E+03    0.42181E-05   -0.17805E-04  8424   0.285E-03 0.296E-03
CGA:  13    -0.669763481763E+03    0.63518E-05   -0.14610E-04  8424   0.265E-03 0.273E-03
CGA:  14    -0.669763474230E+03    0.75335E-05   -0.12326E-04  8424   0.249E-03 0.256E-03
CGA:  15    -0.669763466052E+03    0.81774E-05   -0.10602E-04  8424   0.236E-03 0.242E-03
  14 F= -.66976347E+03 E0= -.66976347E+03  d E =0.117786E-01  mag=     2.0000
       N       E                     dE             d eps       ncg     rms          ort
SDA:   1    -0.637657961241E+03    0.32106E+02    0.00000E+00  8424   0.106E+03 0.000E+00
CGA:   2    -0.657731660422E+03   -0.20074E+02   -0.19862E+02  8424   0.388E+02 0.262E+01
CGA:   3    -0.666265904069E+03   -0.85342E+01   -0.85620E+01  8424   0.124E+02-0.308E+00
CGA:   4    -0.668395965674E+03   -0.21301E+01   -0.21278E+01  8424   0.328E+01 0.308E-01
CGA:   5    -0.668946615814E+03   -0.55065E+00   -0.55004E+00  8424   0.676E+00 0.114E-01
CGA:   6    -0.669082924076E+03   -0.13631E+00   -0.13652E+00  8424   0.164E+00-0.287E-02
CGA:   7    -0.669121172787E+03   -0.38249E-01   -0.38066E-01  8424   0.522E-01 0.175E-02
CGA:   8    -0.669134141867E+03   -0.12969E-01   -0.12815E-01  8424   0.160E-01 0.142E-02
CGA:   9    -0.669138878190E+03   -0.47363E-02   -0.50063E-02  8424   0.703E-02-0.165E-02
CGA:  10    -0.669140706932E+03   -0.18287E-02   -0.18881E-02  8424   0.291E-02-0.395E-03
CGA:  11    -0.669141104857E+03   -0.39793E-03   -0.15296E-02  8424   0.529E-02-0.282E-02
CGA:  12    -0.669141902730E+03   -0.79787E-03   -0.81177E-03  8424   0.750E-03 0.608E-03
CGA:  13    -0.669141589996E+03    0.31273E-03   -0.66066E-03  8424   0.418E-02-0.159E-02
CGA:  14    -0.669142345127E+03   -0.75513E-03   -0.76366E-03  8424   0.622E-03 0.371E-03
CGA:  15    -0.669140922312E+03    0.14228E-02   -0.68587E-03  8424   0.117E-01-0.261E-02
CGA:  16    -0.669142452477E+03   -0.15302E-02   -0.16376E-02  8424   0.142E-02 0.104E-02
CGA:  17    -0.669142899079E+03   -0.44660E-03   -0.46434E-03  8424   0.189E-03-0.293E-03
CGA:  18    -0.669143000442E+03   -0.10136E-03    0.46601E-04  8424   0.862E-04 0.184E-04
CGA:  19    -0.669143080782E+03   -0.80341E-04    0.15350E-04  8424   0.328E-04 0.181E-04
CGA:  20    -0.669143161040E+03   -0.80257E-04    0.15240E-05  8424   0.329E-04 0.309E-04
CGA:  21    -0.669143217068E+03   -0.56028E-04    0.15956E-05  8424   0.246E-04 0.192E-04
CGA:  22    -0.669143261259E+03   -0.44192E-04    0.11074E-05  8424   0.238E-04 0.171E-04
CGA:  23    -0.669143312450E+03   -0.51191E-04    0.84029E-06  8424   0.236E-04 0.163E-04
CGA:  24    -0.669143356091E+03   -0.43642E-04    0.10207E-05  8424   0.241E-04 0.151E-04
CGA:  25    -0.669143405328E+03   -0.49237E-04    0.90835E-06  8424   0.251E-04 0.136E-04
CGA:  26    -0.669143448110E+03   -0.42782E-04    0.12140E-05  8424   0.273E-04 0.112E-04
CGA:  27    -0.669143542983E+03   -0.94873E-04    0.12095E-05  8424   0.234E-04 0.384E-04
CGA:  28    -0.669143590659E+03   -0.47675E-04    0.89020E-06  8424   0.257E-04 0.106E-04
CGA:  29    -0.669143683515E+03   -0.92857E-04    0.11001E-05  8424   0.219E-04 0.364E-04
CGA:  30    -0.669143721217E+03   -0.37702E-04    0.10429E-05  8424   0.246E-04 0.100E-04
CGA:  31    -0.669143812198E+03   -0.90980E-04    0.10291E-05  8424   0.205E-04 0.350E-04
CGA:  32    -0.669143858999E+03   -0.46801E-04    0.67565E-06  8424   0.230E-04 0.983E-05
CGA:  33    -0.669143946796E+03   -0.87797E-04    0.95597E-06  8424   0.192E-04 0.332E-04
CGA:  34    -0.669143980913E+03   -0.34118E-04    0.87975E-06  8424   0.217E-04 0.966E-05
CGA:  35    -0.669144027954E+03   -0.47040E-04    0.75716E-06  8424   0.260E-04 0.596E-05
CGA:  36    -0.669144116184E+03   -0.88230E-04    0.89921E-06  8424   0.221E-04 0.325E-04
CGA:  37    -0.669144145844E+03   -0.29661E-04    0.15212E-05  8424   0.271E-04 0.388E-05
CGA:  38    -0.669144232892E+03   -0.87048E-04    0.83922E-06  8424   0.239E-04 0.313E-04
CGA:  39    -0.669144281114E+03   -0.48222E-04    0.91929E-06  8424   0.304E-04 0.214E-06
CGA:  40    -0.669144367756E+03   -0.86643E-04    0.77230E-06  8424   0.292E-04 0.301E-04
CGA:  41    -0.669144389459E+03   -0.21702E-04    0.66779E-05  8424   0.393E-04-0.781E-05
CGA:  42    -0.669144474033E+03   -0.84574E-04    0.69072E-06  8424   0.453E-04 0.280E-04
CGA:  43    -0.669144529244E+03   -0.55211E-04    0.36435E-05  8424   0.647E-04-0.291E-04
CGA:  44    -0.669144539991E+03   -0.10747E-04   -0.98436E-05  8424   0.216E-04-0.100E-04
CGA:  45    -0.669144589186E+03   -0.49195E-04    0.46558E-06  8424   0.146E-04 0.171E-04
CGA:  46    -0.669144630480E+03   -0.41294E-04    0.35388E-06  8424   0.156E-04 0.872E-05
CGA:  47    -0.669144656896E+03   -0.26415E-04    0.72238E-06  8424   0.171E-04 0.719E-05
CGA:  48    -0.669144729989E+03   -0.73094E-04    0.58003E-06  8424   0.149E-04 0.246E-04
CGA:  49    -0.669144771456E+03   -0.41467E-04    0.36856E-06  8424   0.161E-04 0.713E-05
CGA:  50    -0.669144840890E+03   -0.69434E-04    0.55336E-06  8424   0.142E-04 0.234E-04
CGA:  51    -0.669144866016E+03   -0.25126E-04    0.62856E-06  8424   0.155E-04 0.695E-05
CGA:  52    -0.669144935610E+03   -0.69595E-04    0.51215E-06  8424   0.136E-04 0.226E-04
CGA:  53    -0.669144975298E+03   -0.39688E-04    0.31718E-06  8424   0.145E-04 0.698E-05
CGA:  54    -0.669144998468E+03   -0.23170E-04    0.72961E-06  8424   0.158E-04 0.561E-05
CGA:  55    -0.669145066250E+03   -0.67782E-04    0.47933E-06  8424   0.141E-04 0.217E-04
CGA:  56    -0.669145106349E+03   -0.40099E-04    0.34059E-06  8424   0.152E-04 0.534E-05
CGA:  57    -0.669145170960E+03   -0.64611E-04    0.45894E-06  8424   0.138E-04 0.207E-04
CGA:  58    -0.669145192707E+03   -0.21747E-04    0.70948E-06  8424   0.149E-04 0.501E-05
CGA:  59    -0.669145257155E+03   -0.64448E-04    0.42581E-06  8424   0.135E-04 0.199E-04
CGA:  60    -0.669145295919E+03   -0.38765E-04    0.31959E-06  8424   0.142E-04 0.484E-05
CGA:  61    -0.669145356877E+03   -0.60957E-04    0.40773E-06  8424   0.131E-04 0.189E-04
CGA:  62    -0.669145377838E+03   -0.20961E-04    0.66098E-06  8424   0.135E-04 0.478E-05
CGA:  63    -0.669145438131E+03   -0.60293E-04    0.37170E-06  8424   0.126E-04 0.179E-04
CGA:  64    -0.669145474774E+03   -0.36643E-04    0.29428E-06  8424   0.123E-04 0.506E-05
CGA:  65    -0.669145530743E+03   -0.55970E-04    0.35409E-06  8424   0.119E-04 0.166E-04
CGA:  66    -0.669145552479E+03   -0.21736E-04    0.49721E-06  8424   0.110E-04 0.557E-05
CGA:  67    -0.669145607413E+03   -0.54934E-04    0.31491E-06  8424   0.110E-04 0.155E-04
CGA:  68    -0.669145640496E+03   -0.33082E-04    0.24899E-06  8424   0.971E-05 0.620E-05
CGA:  69    -0.669145662812E+03   -0.22316E-04    0.30243E-06  8424   0.941E-05 0.656E-05
CGA:  70    -0.669145695274E+03   -0.32462E-04    0.17972E-06  8424   0.929E-05 0.658E-05
CGA:  71    -0.669145717138E+03   -0.21865E-04    0.28097E-06  8424   0.927E-05 0.648E-05
CGA:  72    -0.669145749443E+03   -0.32305E-04    0.17475E-06  8424   0.930E-05 0.632E-05
CGA:  73    -0.669145770564E+03   -0.21121E-04    0.29386E-06  8424   0.941E-05 0.608E-05
CGA:  74    -0.669145803041E+03   -0.32477E-04    0.17938E-06  8424   0.959E-05 0.578E-05
CGA:  75    -0.669145823063E+03   -0.20022E-04    0.33765E-06  8424   0.988E-05 0.538E-05
CGA:  76    -0.669145856075E+03   -0.33011E-04    0.19594E-06  8424   0.103E-04 0.488E-05
CGA:  77    -0.669145909242E+03   -0.53167E-04    0.29339E-06  8424   0.952E-05 0.152E-04
CGA:  78    -0.669145928080E+03   -0.18838E-04    0.35964E-06  8424   0.100E-04 0.474E-05
CGA:  79    -0.669145981063E+03   -0.52983E-04    0.27818E-06  8424   0.916E-05 0.148E-04
CGA:  80    -0.669146012801E+03   -0.31738E-04    0.17389E-06  8424   0.963E-05 0.466E-05
CGA:  81    -0.669146030242E+03   -0.17442E-04    0.41009E-06  8424   0.103E-04 0.394E-05
CGA:  82    -0.669146082306E+03   -0.52064E-04    0.26562E-06  8424   0.941E-05 0.144E-04
CGA:  83    -0.669146114171E+03   -0.31864E-04    0.18354E-06  8424   0.100E-04 0.378E-05
CGA:  84    -0.669146164193E+03   -0.50022E-04    0.25855E-06  8424   0.917E-05 0.139E-04
CGA:  85    -0.669146180527E+03   -0.16334E-04    0.39952E-06  8424   0.987E-05 0.356E-05
CGA:  86    -0.669146230594E+03   -0.50067E-04    0.24444E-06  8424   0.900E-05 0.135E-04
CGA:  87    -0.669146261514E+03   -0.30919E-04    0.17284E-06  8424   0.961E-05 0.338E-05
CGA:  88    -0.669146309478E+03   -0.47964E-04    0.23819E-06  8424   0.884E-05 0.131E-04
CGA:  89    -0.669146324773E+03   -0.15296E-04    0.39981E-06  8424   0.947E-05 0.315E-05
CGA:  90    -0.669146372685E+03   -0.47912E-04    0.22426E-06  8424   0.872E-05 0.127E-04
CGA:  91    -0.669146402677E+03   -0.29992E-04    0.16721E-06  8424   0.924E-05 0.296E-05
CGA:  92    -0.669146448456E+03   -0.45779E-04    0.21840E-06  8424   0.861E-05 0.122E-04
CGA:  93    -0.669146462833E+03   -0.14377E-04    0.40938E-06  8424   0.910E-05 0.274E-05
CGA:  94    -0.669146508440E+03   -0.45607E-04    0.20491E-06  8424   0.853E-05 0.119E-04
CGA:  95    -0.669146537431E+03   -0.28990E-04    0.16578E-06  8424   0.886E-05 0.257E-05
CGA:  96    -0.669146580837E+03   -0.43407E-04    0.19928E-06  8424   0.842E-05 0.114E-04
CGA:  97    -0.669146594580E+03   -0.13743E-04    0.41340E-06  8424   0.865E-05 0.241E-05
CGA:  98    -0.669146637698E+03   -0.43119E-04    0.18600E-06  8424   0.830E-05 0.110E-04
CGA:  99    -0.669146665395E+03   -0.27696E-04    0.16463E-06  8424   0.831E-05 0.235E-05
CGA: 100    -0.669146706177E+03   -0.40782E-04    0.18080E-06  8424   0.808E-05 0.105E-04
CGA: 101    -0.669146719841E+03   -0.13664E-04    0.37796E-06  8424   0.793E-05 0.236E-05
CGA: 102    -0.669146760295E+03   -0.40454E-04    0.16760E-06  8424   0.782E-05 0.101E-04
CGA: 103    -0.669146786163E+03   -0.25869E-04    0.15658E-06  8424   0.743E-05 0.249E-05
CGA: 104    -0.669146824222E+03   -0.38059E-04    0.16311E-06  8424   0.745E-05 0.965E-05
CGA: 105    -0.669146838456E+03   -0.14234E-04    0.29488E-06  8424   0.692E-05 0.268E-05
CGA: 106    -0.669146876244E+03   -0.37788E-04    0.15085E-06  8424   0.707E-05 0.925E-05
CGA: 107    -0.669146899861E+03   -0.23617E-04    0.14006E-06  8424   0.639E-05 0.291E-05
CGA: 108    -0.669146935531E+03   -0.35670E-04    0.14722E-06  8424   0.667E-05 0.885E-05
CGA: 109    -0.669146950572E+03   -0.15041E-04    0.21322E-06  8424   0.594E-05 0.311E-05
CGA: 110    -0.669146986046E+03   -0.35474E-04    0.13752E-06  8424   0.633E-05 0.853E-05
CGA: 111    -0.669147007508E+03   -0.21462E-04    0.12334E-06  8424   0.555E-05 0.327E-05
CGA: 112    -0.669147022745E+03   -0.15237E-04    0.13885E-06  8424   0.515E-05 0.372E-05
CGA: 113    -0.669147043634E+03   -0.20890E-04    0.81679E-07  8424   0.491E-05 0.396E-05
CGA: 114    -0.669147059019E+03   -0.15385E-04    0.10469E-06  8424   0.475E-05 0.408E-05
CGA: 115    -0.669147079287E+03   -0.20268E-04    0.71301E-07  8424   0.466E-05 0.414E-05
CGA: 116    -0.669147094721E+03   -0.15434E-04    0.93183E-07  8424   0.460E-05 0.415E-05
CGA: 117    -0.669147114640E+03   -0.19919E-04    0.67611E-07  8424   0.456E-05 0.413E-05
CGA: 118    -0.669147129822E+03   -0.15182E-04    0.90555E-07  8424   0.454E-05 0.410E-05
CGA: 119    -0.669147149704E+03   -0.19883E-04    0.65920E-07  8424   0.454E-05 0.404E-05
CGA: 120    -0.669147164319E+03   -0.14615E-04    0.93756E-07  8424   0.456E-05 0.397E-05
CGA: 121    -0.669147184468E+03   -0.20149E-04    0.65566E-07  8424   0.460E-05 0.387E-05
CGA: 122    -0.669147198202E+03   -0.13735E-04    0.10431E-06  8424   0.469E-05 0.374E-05
CGA: 123    -0.669147218933E+03   -0.20731E-04    0.67535E-07  8424   0.482E-05 0.357E-05
CGA: 124    -0.669147231446E+03   -0.12513E-04    0.12938E-06  8424   0.503E-05 0.334E-05
CGA: 125    -0.669147253118E+03   -0.21672E-04    0.74496E-07  8424   0.533E-05 0.303E-05
CGA: 126    -0.669147263993E+03   -0.10876E-04    0.19323E-06  8424   0.576E-05 0.261E-05
CGA: 127    -0.669147299026E+03   -0.35032E-04    0.13525E-06  8424   0.517E-05 0.850E-05
CGA: 128    -0.669147320936E+03   -0.21910E-04    0.77920E-07  8424   0.555E-05 0.261E-05
CGA: 129    -0.669147330560E+03   -0.96238E-05    0.25094E-06  8424   0.612E-05 0.208E-05
  15 F= -.66914733E+03 E0= -.66914733E+03  d E =0.616135E+00  mag=     2.0000
       N       E                     dE             d eps       ncg     rms          ort
SDA:   1    -0.656376708594E+03    0.12771E+02    0.00000E+00  8424   0.453E+02 0.000E+00
CGA:   2    -0.664790946875E+03   -0.84142E+01   -0.84575E+01  8424   0.171E+02 0.236E+00
CGA:   3    -0.668517150304E+03   -0.37262E+01   -0.37241E+01  8424   0.537E+01-0.543E-01
CGA:   4    -0.669422993945E+03   -0.90584E+00   -0.90643E+00  8424   0.141E+01 0.129E-02
CGA:   5    -0.669660215649E+03   -0.23722E+00   -0.23756E+00  8424   0.293E+00 0.275E-02
CGA:   6    -0.669718904237E+03   -0.58689E-01   -0.58665E-01  8424   0.658E-01-0.760E-03
CGA:   7    -0.669733706491E+03   -0.14802E-01   -0.14804E-01  8424   0.200E-01 0.918E-03
CGA:   8    -0.669738511679E+03   -0.48052E-02   -0.47993E-02  8424   0.574E-02 0.565E-03
CGA:   9    -0.669740130397E+03   -0.16187E-02   -0.16207E-02  8424   0.209E-02-0.435E-04
CGA:  10    -0.669740648505E+03   -0.51811E-03   -0.51154E-03  8424   0.755E-03 0.376E-03
CGA:  11    -0.669740882865E+03   -0.23436E-03   -0.22907E-03  8424   0.265E-03 0.197E-03
CGA:  12    -0.669740940537E+03   -0.57672E-04   -0.64304E-04  8424   0.125E-03 0.167E-03
CGA:  13    -0.669740949823E+03   -0.92860E-05   -0.17691E-04  8424   0.814E-04 0.954E-04
CGA:  14    -0.669740954261E+03   -0.44376E-05   -0.11084E-04  8424   0.686E-04 0.742E-04
  16 F= -.66974095E+03 E0= -.66974095E+03  d E =-.593624E+00  mag=     2.0000
       N       E                     dE             d eps       ncg     rms          ort
SDA:   1    -0.668812617137E+03    0.92833E+00    0.00000E+00  8424   0.295E+01 0.000E+00
CGA:   2    -0.669438991567E+03   -0.62637E+00   -0.62639E+00  8424   0.124E+01 0.380E-02
CGA:   3    -0.669692149313E+03   -0.25316E+00   -0.25313E+00  8424   0.375E+00-0.210E-02
CGA:   4    -0.669754987073E+03   -0.62838E-01   -0.62845E-01  8424   0.954E-01 0.109E-03
CGA:   5    -0.669771133590E+03   -0.16147E-01   -0.16188E-01  8424   0.185E-01 0.957E-03
CGA:   6    -0.669774773221E+03   -0.36396E-02   -0.36477E-02  8424   0.415E-02 0.531E-03
CGA:   7    -0.669775655481E+03   -0.88226E-03   -0.88361E-03  8424   0.120E-02 0.510E-03
CGA:   8    -0.669775894299E+03   -0.23882E-03   -0.24921E-03  8424   0.373E-03 0.426E-03
CGA:   9    -0.669775933714E+03   -0.39415E-04   -0.63848E-04  8424   0.193E-03 0.298E-03
CGA:  10    -0.669775931933E+03    0.17806E-05   -0.16976E-04  8424   0.142E-03 0.161E-03
  17 F= -.66977593E+03 E0= -.66977593E+03  d E =-.349777E-01  mag=     2.0000
       N       E                     dE             d eps       ncg     rms          ort
SDA:   1    -0.669237728622E+03    0.53821E+00    0.00000E+00  8424   0.159E+01 0.000E+00
CGA:   2    -0.669603098879E+03   -0.36537E+00   -0.36527E+00  8424   0.695E+00 0.211E-02
CGA:   3    -0.669739090889E+03   -0.13599E+00   -0.13600E+00  8424   0.197E+00-0.200E-02
CGA:   4    -0.669772462583E+03   -0.33372E-01   -0.33382E-01  8424   0.500E-01 0.409E-03
CGA:   5    -0.669780745931E+03   -0.82833E-02   -0.83192E-02  8424   0.953E-02 0.134E-02
CGA:   6    -0.669782568614E+03   -0.18227E-02   -0.18269E-02  8424   0.210E-02 0.903E-03
CGA:   7    -0.669782969691E+03   -0.40108E-03   -0.40960E-03  8424   0.653E-03 0.646E-03
CGA:   8    -0.669783049791E+03   -0.80100E-04   -0.10967E-03  8424   0.312E-03 0.476E-03
CGA:   9    -0.669783054172E+03   -0.43803E-05   -0.28473E-04  8424   0.214E-03 0.250E-03
CGA:  10    -0.669783046000E+03    0.81716E-05   -0.14407E-04  8424   0.182E-03 0.196E-03
CGA:  11    -0.669783035603E+03    0.10397E-04   -0.10245E-04  8424   0.163E-03 0.171E-03
CGA:  12    -0.669783024670E+03    0.10933E-04   -0.80240E-05  8424   0.151E-03 0.156E-03
CGA:  13    -0.669783013767E+03    0.10903E-04   -0.65996E-05  8424   0.141E-03 0.145E-03
CGA:  14    -0.669783003127E+03    0.10639E-04   -0.55923E-05  8424   0.133E-03 0.136E-03
CGA:  15    -0.669782992856E+03    0.10271E-04   -0.48341E-05  8424   0.127E-03 0.130E-03
CGA:  16    -0.669782982997E+03    0.98585E-05   -0.42397E-05  8424   0.122E-03 0.124E-03
  18 F= -.66978298E+03 E0= -.66978298E+03  d E =-.705106E-02  mag=     2.0000
       N       E                     dE             d eps       ncg     rms          ort
SDA:   1    -0.668608169520E+03    0.11748E+01    0.00000E+00  8424   0.318E+01 0.000E+00
CGA:   2    -0.669423187236E+03   -0.81502E+00   -0.81446E+00  8424   0.135E+01 0.426E-02
CGA:   3    -0.669676498013E+03   -0.25331E+00   -0.25360E+00  8424   0.378E+00-0.616E-02
CGA:   4    -0.669742189553E+03   -0.65692E-01   -0.65668E-01  8424   0.948E-01 0.741E-03
CGA:   5    -0.669757822330E+03   -0.15633E-01   -0.15584E-01  8424   0.185E-01 0.264E-02
CGA:   6    -0.669761462437E+03   -0.36401E-02   -0.35765E-02  8424   0.414E-02 0.151E-02
CGA:   7    -0.669762390837E+03   -0.92840E-03   -0.88084E-03  8424   0.133E-02 0.986E-03
CGA:   8    -0.669762650142E+03   -0.25930E-03   -0.25572E-03  8424   0.546E-03 0.773E-03
CGA:   9    -0.669762692305E+03   -0.42163E-04   -0.59411E-04  8424   0.337E-03 0.406E-03
CGA:  10    -0.669762695628E+03   -0.33227E-05   -0.25581E-04  8424   0.280E-03 0.304E-03
CGA:  11    -0.669762691634E+03    0.39943E-05   -0.17619E-04  8424   0.248E-03 0.262E-03
CGA:  12    -0.669762684706E+03    0.69271E-05   -0.13480E-04  8424   0.225E-03 0.235E-03
CGA:  13    -0.669762676442E+03    0.82644E-05   -0.10871E-04  8424   0.209E-03 0.216E-03
  19 F= -.66976268E+03 E0= -.66976268E+03  d E =0.203066E-01  mag=     2.0000
       N       E                     dE             d eps       ncg     rms          ort
SDA:   1    -0.638980844182E+03    0.30782E+02    0.00000E+00  8424   0.104E+03 0.000E+00
CGA:   2    -0.657949625437E+03   -0.18969E+02   -0.18830E+02  8424   0.376E+02 0.210E+01
CGA:   3    -0.666425350627E+03   -0.84757E+01   -0.84987E+01  8424   0.125E+02-0.263E+00
CGA:   4    -0.668530363659E+03   -0.21050E+01   -0.21039E+01  8424   0.319E+01 0.193E-01
CGA:   5    -0.669062664956E+03   -0.53230E+00   -0.53193E+00  8424   0.651E+00 0.967E-02
CGA:   6    -0.669196493787E+03   -0.13383E+00   -0.13410E+00  8424   0.156E+00-0.414E-02
CGA:   7    -0.669231500414E+03   -0.35007E-01   -0.34848E-01  8424   0.471E-01 0.192E-02
CGA:   8    -0.669243050999E+03   -0.11551E-01   -0.11501E-01  8424   0.138E-01 0.516E-03
CGA:   9    -0.669246994749E+03   -0.39437E-02   -0.42451E-02  8424   0.613E-02-0.196E-02
CGA:  10    -0.669248559742E+03   -0.15650E-02   -0.18877E-02  8424   0.381E-02-0.161E-02
CGA:  11    -0.669242509345E+03    0.60504E-02   -0.32921E-02  8424   0.412E-01-0.984E-02
CGA:  12    -0.669248774778E+03   -0.62654E-02   -0.64296E-02  8424   0.582E-02 0.108E-02
CGA:  13    -0.669250668546E+03   -0.18938E-02   -0.19129E-02  8424   0.251E-02-0.936E-03
CGA:  14    -0.669251428771E+03   -0.76023E-03   -0.81862E-03  8424   0.179E-02-0.670E-03
CGA:  15    -0.669251014504E+03    0.41427E-03   -0.10872E-02  8424   0.102E-01-0.287E-02
CGA:  16    -0.669252418957E+03   -0.14045E-02   -0.13977E-02  8424   0.133E-02-0.459E-04
CGA:  17    -0.669252913166E+03   -0.49421E-03   -0.52570E-03  8424   0.736E-03-0.426E-03
CGA:  18    -0.669253295499E+03   -0.38233E-03    0.47496E-03  8424   0.462E-03-0.242E-04
CGA:  19    -0.669253615488E+03   -0.31999E-03    0.72340E-03  8424   0.241E-03-0.111E-03
CGA:  20    -0.669253948401E+03   -0.33291E-03    0.16581E-04  8424   0.157E-03-0.993E-06
CGA:  21    -0.669254282298E+03   -0.33390E-03    0.11148E-04  8424   0.782E-04 0.503E-04
CGA:  22    -0.669254584757E+03   -0.30246E-03    0.47907E-05  8424   0.545E-04 0.627E-04
CGA:  23    -0.669254734566E+03   -0.14981E-03    0.27467E-05  8424   0.390E-04 0.312E-04
CGA:  24    -0.669254851046E+03   -0.11648E-03    0.17688E-05  8424   0.459E-04 0.231E-04
CGA:  25    -0.669254998513E+03   -0.14747E-03    0.18963E-05  8424   0.780E-04 0.321E-05
CGA:  26    -0.669255340850E+03   -0.34234E-03    0.25579E-05  8424   0.608E-04 0.766E-04
CGA:  27    -0.669255416858E+03   -0.76007E-04    0.10735E-04  8424   0.132E-03-0.320E-04
CGA:  28    -0.669255571749E+03   -0.15489E-03    0.26514E-04  8424   0.381E-03-0.166E-03
CGA:  29    -0.669255612687E+03   -0.40938E-04   -0.44346E-04  8424   0.267E-04 0.163E-04
CGA:  30    -0.669255726171E+03   -0.11348E-03    0.80248E-06  8424   0.340E-04 0.241E-04
CGA:  31    -0.669255855885E+03   -0.12971E-03    0.10579E-05  8424   0.515E-04 0.980E-05
CGA:  32    -0.669256132491E+03   -0.27661E-03    0.18577E-05  8424   0.347E-04 0.627E-04
CGA:  33    -0.669256216791E+03   -0.84299E-04    0.19059E-05  8424   0.501E-04 0.649E-05
CGA:  34    -0.669256483283E+03   -0.26649E-03    0.15299E-05  8424   0.400E-04 0.556E-04
CGA:  35    -0.669256605675E+03   -0.12239E-03    0.16320E-05  8424   0.501E-04 0.340E-07
CGA:  36    -0.669256828169E+03   -0.22249E-03    0.13055E-05  8424   0.488E-04 0.450E-04
CGA:  37    -0.669256911965E+03   -0.83797E-04    0.44500E-05  8424   0.438E-04-0.437E-05
CGA:  38    -0.669257105611E+03   -0.19365E-03    0.93369E-06  8424   0.427E-04 0.357E-04
CGA:  39    -0.669257207046E+03   -0.10143E-03    0.24302E-05  8424   0.283E-04 0.543E-05
CGA:  40    -0.669257361013E+03   -0.15397E-03    0.75625E-06  8424   0.299E-04 0.306E-04
CGA:  41    -0.669257455470E+03   -0.94457E-04    0.11701E-05  8424   0.208E-04 0.139E-04
CGA:  42    -0.669257610212E+03   -0.15474E-03    0.68183E-06  8424   0.248E-04 0.287E-04
CGA:  43    -0.669257700269E+03   -0.90057E-04    0.81824E-06  8424   0.185E-04 0.157E-04
CGA:  44    -0.669257788635E+03   -0.88366E-04    0.44287E-06  8424   0.175E-04 0.173E-04
CGA:  45    -0.669257876057E+03   -0.87421E-04    0.39977E-06  8424   0.172E-04 0.173E-04
CGA:  46    -0.669257962409E+03   -0.86352E-04    0.38814E-06  8424   0.169E-04 0.170E-04
CGA:  47    -0.669258048159E+03   -0.85751E-04    0.37777E-06  8424   0.167E-04 0.167E-04
CGA:  48    -0.669258132812E+03   -0.84652E-04    0.37089E-06  8424   0.164E-04 0.165E-04
CGA:  49    -0.669258216684E+03   -0.83872E-04    0.36342E-06  8424   0.162E-04 0.162E-04
CGA:  50    -0.669258299671E+03   -0.82987E-04    0.35849E-06  8424   0.161E-04 0.158E-04
CGA:  51    -0.669258381420E+03   -0.81749E-04    0.36067E-06  8424   0.164E-04 0.153E-04
CGA:  52    -0.669258462750E+03   -0.81330E-04    0.37719E-06  8424   0.182E-04 0.140E-04
CGA:  53    -0.669258541193E+03   -0.78443E-04    0.48968E-06  8424   0.258E-04 0.980E-05
CGA:  54    -0.669258619023E+03   -0.77830E-04    0.10695E-05  8424   0.570E-04-0.609E-05
CGA:  55    -0.669258869356E+03   -0.25033E-03    0.84478E-06  8424   0.879E-04 0.405E-04
CGA:  56    -0.669258371777E+03    0.49758E-03   -0.10084E-03  8424   0.736E-02-0.719E-03
CGA:  57    -0.669259176519E+03   -0.80474E-03   -0.77816E-03  8424   0.244E-04-0.126E-03
CGA:  58    -0.669259243640E+03   -0.67121E-04    0.13481E-05  8424   0.302E-04 0.235E-05
CGA:  59    -0.669259426154E+03   -0.18251E-03    0.81195E-06  8424   0.311E-04 0.187E-04
CGA:  60    -0.669259497797E+03   -0.71643E-04    0.22741E-05  8424   0.273E-04 0.465E-06
CGA:  61    -0.669259646240E+03   -0.14844E-03    0.70249E-06  8424   0.419E-04 0.700E-05
CGA:  62    -0.669259937539E+03   -0.29130E-03    0.12839E-05  8424   0.271E-04 0.473E-04
CGA:  63    -0.669259989328E+03   -0.51790E-04    0.26169E-05  8424   0.454E-04-0.590E-05
CGA:  64    -0.669260173510E+03   -0.18418E-03    0.93446E-06  8424   0.479E-04 0.447E-05
CGA:  65    -0.669260451601E+03   -0.27809E-03    0.13558E-05  8424   0.760E-04 0.257E-04
CGA:  66    -0.669260469881E+03   -0.18280E-04   -0.14994E-04  8424   0.450E-04-0.224E-04
CGA:  67    -0.669260579738E+03   -0.10986E-03    0.12876E-05  8424   0.202E-04 0.423E-05
CGA:  68    -0.669260696763E+03   -0.11702E-03    0.54209E-06  8424   0.236E-04 0.123E-04
CGA:  69    -0.669260724919E+03   -0.28156E-04    0.51342E-05  8424   0.521E-04-0.127E-04
CGA:  70    -0.669260821300E+03   -0.96381E-04    0.50262E-05  8424   0.180E-03-0.755E-04
CGA:  71    -0.669260828218E+03   -0.69180E-05   -0.16441E-04  8424   0.146E-04 0.389E-04
  20 F= -.66926083E+03 E0= -.66926083E+03  d E =0.501848E+00  mag=     2.0000
       N       E                     dE             d eps       ncg     rms          ort
SDA:   1    -0.659294977664E+03    0.99658E+01    0.00000E+00  8424   0.334E+02 0.000E+00
CGA:   2    -0.665883500030E+03   -0.65885E+01   -0.66297E+01  8424   0.138E+02-0.335E-02
CGA:   3    -0.668801948650E+03   -0.29184E+01   -0.29123E+01  8424   0.423E+01-0.141E-03
CGA:   4    -0.669509655103E+03   -0.70771E+00   -0.70844E+00  8424   0.104E+01 0.223E-03
CGA:   5    -0.669685891850E+03   -0.17624E+00   -0.17662E+00  8424   0.215E+00 0.143E-02
CGA:   6    -0.669729329235E+03   -0.43437E-01   -0.43376E-01  8424   0.490E-01-0.568E-03
CGA:   7    -0.669740160003E+03   -0.10831E-01   -0.10883E-01  8424   0.142E-01 0.727E-03
CGA:   8    -0.669743552871E+03   -0.33929E-02   -0.34196E-02  8424   0.406E-02 0.496E-03
CGA:   9    -0.669744670975E+03   -0.11181E-02   -0.11214E-02  8424   0.143E-02 0.156E-03
CGA:  10    -0.669744980221E+03   -0.30925E-03   -0.33630E-03  8424   0.535E-03 0.453E-03
CGA:  11    -0.669745098976E+03   -0.11876E-03   -0.14304E-03  8424   0.228E-03 0.301E-03
CGA:  12    -0.669745126208E+03   -0.27232E-04   -0.41428E-04  8424   0.126E-03 0.145E-03
CGA:  13    -0.669745120805E+03    0.54028E-05   -0.13853E-04  8424   0.109E-03 0.117E-03
CGA:  14    -0.669745115170E+03    0.56351E-05   -0.11226E-04  8424   0.982E-04 0.103E-03
  21 F= -.66974512E+03 E0= -.66974512E+03  d E =-.484287E+00  mag=     2.0000
       N       E                     dE             d eps       ncg     rms          ort
SDA:   1    -0.668140643067E+03    0.16045E+01    0.00000E+00  8424   0.505E+01 0.000E+00
CGA:   2    -0.669190300701E+03   -0.10497E+01   -0.10502E+01  8424   0.217E+01 0.659E-02
CGA:   3    -0.669641535128E+03   -0.45123E+00   -0.45112E+00  8424   0.666E+00-0.233E-02
CGA:   4    -0.669751668461E+03   -0.11013E+00   -0.11016E+00  8424   0.161E+00 0.294E-03
CGA:   5    -0.669778811828E+03   -0.27143E-01   -0.27236E-01  8424   0.322E-01 0.125E-02
CGA:   6    -0.669785219318E+03   -0.64075E-02   -0.64346E-02  8424   0.729E-02 0.677E-03
CGA:   7    -0.669786736896E+03   -0.15176E-02   -0.15391E-02  8424   0.203E-02 0.729E-03
CGA:   8    -0.669787136535E+03   -0.39964E-03   -0.42721E-03  8424   0.602E-03 0.631E-03
CGA:   9    -0.669787198722E+03   -0.62187E-04   -0.10582E-03  8424   0.293E-03 0.443E-03
CGA:  10    -0.669787193442E+03    0.52804E-05   -0.27233E-04  8424   0.209E-03 0.241E-03
CGA:  11    -0.669787179776E+03    0.13666E-04   -0.15030E-04  8424   0.180E-03 0.192E-03
CGA:  12    -0.669787165000E+03    0.14776E-04   -0.11045E-04  8424   0.162E-03 0.170E-03
CGA:  13    -0.669787150293E+03    0.14707E-04   -0.88462E-05  8424   0.150E-03 0.156E-03
CGA:  14    -0.669787136017E+03    0.14276E-04   -0.73990E-05  8424   0.142E-03 0.145E-03
CGA:  15    -0.669787122303E+03    0.13714E-04   -0.63533E-05  8424   0.135E-03 0.137E-03
CGA:  16    -0.669787109193E+03    0.13109E-04   -0.55509E-05  8424   0.129E-03 0.131E-03
CGA:  17    -0.669787096695E+03    0.12498E-04   -0.49097E-05  8424   0.124E-03 0.126E-03
[...]
CGA: 180    -0.669674669402E+03   -0.17588E-04    0.93917E-06  8424   0.170E-04 0.144E-04
CGA: 181    -0.669674685711E+03   -0.16309E-04    0.10305E-05  8424   0.168E-04 0.142E-04
CGA: 182    -0.669674703065E+03   -0.17354E-04    0.90577E-06  8424   0.166E-04 0.140E-04
CGA: 183    -0.669674719166E+03   -0.16102E-04    0.99230E-06  8424   0.165E-04 0.139E-04
CGA: 184    -0.669674736289E+03   -0.17123E-04    0.87346E-06  8424   0.163E-04 0.137E-04
CGA: 185    -0.669674752186E+03   -0.15897E-04    0.95540E-06  8424   0.161E-04 0.135E-04
CGA: 186    -0.669674769083E+03   -0.16896E-04    0.84220E-06  8424   0.159E-04 0.134E-04
CGA: 187    -0.669674784779E+03   -0.15697E-04    0.91975E-06  8424   0.157E-04 0.132E-04
CGA: 188    -0.669674801453E+03   -0.16674E-04    0.81200E-06  8424   0.156E-04 0.131E-04
CGA: 189    -0.669674816953E+03   -0.15499E-04    0.88541E-06  8424   0.154E-04 0.129E-04
CGA: 190    -0.669674833407E+03   -0.16455E-04    0.78287E-06  8424   0.152E-04 0.128E-04
CGA: 191    -0.669674848713E+03   -0.15306E-04    0.85229E-06  8424   0.151E-04 0.126E-04
CGA: 192    -0.669674864953E+03   -0.16240E-04    0.75474E-06  8424   0.149E-04 0.125E-04
CGA: 193    -0.669674880069E+03   -0.15116E-04    0.82043E-06  8424   0.147E-04 0.123E-04
CGA: 194    -0.669674896098E+03   -0.16029E-04    0.72764E-06  8424   0.146E-04 0.122E-04
CGA: 195    -0.669674911027E+03   -0.14930E-04    0.78975E-06  8424   0.144E-04 0.121E-04
CGA: 196    -0.669674926849E+03   -0.15821E-04    0.70152E-06  8424   0.142E-04 0.119E-04
CGA: 197    -0.669674941596E+03   -0.14747E-04    0.76025E-06  8424   0.141E-04 0.118E-04
CGA: 198    -0.669674957213E+03   -0.15618E-04    0.67637E-06  8424   0.139E-04 0.116E-04
CGA: 199    -0.669674971781E+03   -0.14567E-04    0.73188E-06  8424   0.138E-04 0.115E-04
CGA: 200    -0.669674987199E+03   -0.15418E-04    0.65216E-06  8424   0.136E-04 0.114E-04
  33 F= -.66967499E+03 E0= -.66967499E+03  d E =0.755695E-01  mag=     2.0000
       N       E                     dE             d eps       ncg     rms          ort
SDA:   1    -0.616615745306E+03    0.53059E+02    0.00000E+00  8424   0.188E+03 0.000E+00
CGA:   2    -0.649343276258E+03   -0.32728E+02   -0.32807E+02  8424   0.658E+02 0.270E+01
CGA:   3    -0.664321616987E+03   -0.14978E+02   -0.14997E+02  8424   0.209E+02-0.360E+00
CGA:   4    -0.667875937458E+03   -0.35543E+01   -0.35558E+01  8424   0.512E+01 0.377E-01
CGA:   5    -0.668714031061E+03   -0.83809E+00   -0.83883E+00  8424   0.112E+01 0.196E-01
CGA:   6    -0.668944376460E+03   -0.23035E+00   -0.23031E+00  8424   0.261E+00 0.218E-02
CGA:   7    -0.669003911241E+03   -0.59535E-01   -0.59399E-01  8424   0.843E-01 0.343E-02
CGA:   8    -0.669025104674E+03   -0.21193E-01   -0.21102E-01  8424   0.279E-01 0.158E-02
CGA:   9    -0.669033183486E+03   -0.80788E-02   -0.81198E-02  8424   0.109E-01-0.441E-03
CGA:  10    -0.669036250153E+03   -0.30667E-02   -0.29813E-02  8424   0.411E-02 0.105E-02
CGA:  11    -0.669037626820E+03   -0.13767E-02   -0.13596E-02  8424   0.148E-02 0.168E-03
CGA:  12    -0.669038045133E+03   -0.41831E-03   -0.40437E-03  8424   0.552E-03 0.245E-03
CGA:  13    -0.669038303986E+03   -0.25885E-03   -0.26141E-03  8424   0.465E-03-0.158E-04
CGA:  14    -0.669038497797E+03   -0.19381E-03   -0.19039E-03  8424   0.460E-03 0.115E-04
CGA:  15    -0.669038705585E+03   -0.20779E-03   -0.19596E-03  8424   0.405E-03 0.527E-04
CGA:  16    -0.669038897029E+03   -0.19144E-03   -0.17465E-03  8424   0.285E-03 0.100E-03
CGA:  17    -0.669039111825E+03   -0.21480E-03   -0.22284E-03  8424   0.378E-03-0.385E-04
CGA:  18    -0.669039267732E+03   -0.15591E-03   -0.14938E-03  8424   0.400E-03 0.483E-05
CGA:  19    -0.669038523563E+03    0.74417E-03   -0.43565E-03  8424   0.555E-02-0.114E-02
CGA:  20    -0.669039789415E+03   -0.12659E-02   -0.13578E-02  8424   0.142E-02 0.358E-03
CGA:  21    -0.669040271018E+03   -0.48160E-03   -0.43905E-03  8424   0.819E-03-0.217E-03
CGA:  22    -0.669040502184E+03   -0.23117E-03   -0.24447E-03  8424   0.364E-03 0.104E-03
CGA:  23    -0.669040639821E+03   -0.13764E-03   -0.14835E-03  8424   0.195E-03 0.953E-04
CGA:  24    -0.669040545894E+03    0.93927E-04   -0.30496E-03  8424   0.313E-02-0.520E-03
CGA:  25    -0.669040792736E+03   -0.24684E-03   -0.40056E-03  8424   0.324E-03 0.410E-03
CGA:  26    -0.669040870422E+03   -0.77686E-04   -0.94377E-04  8424   0.143E-03 0.727E-04
CGA:  27    -0.669040907632E+03   -0.37210E-04   -0.12147E-03  8424   0.125E-02-0.389E-03
CGA:  28    -0.669040961950E+03   -0.54318E-04   -0.14713E-03  8424   0.146E-03 0.253E-03
CGA:  29    -0.669040973752E+03   -0.11803E-04   -0.29836E-04  8424   0.745E-04 0.604E-04
CGA:  30    -0.669041011043E+03   -0.37290E-04   -0.64814E-04  8424   0.281E-03-0.169E-03
CGA:  31    -0.669041028059E+03   -0.17017E-04   -0.44418E-04  8424   0.800E-04 0.905E-04
CGA:  32    -0.669041062250E+03   -0.34190E-04   -0.33380E-04  8424   0.244E-04-0.648E-05
CGA:  33    -0.669041107535E+03   -0.45286E-04    0.37657E-05  8424   0.575E-04-0.560E-05
CGA:  34    -0.669041076577E+03    0.30958E-04   -0.73677E-04  8424   0.643E-03-0.964E-04
CGA:  35    -0.669041296471E+03   -0.21989E-03   -0.21227E-03  8424   0.177E-03-0.451E-04
CGA:  36    -0.669041327244E+03   -0.30773E-04   -0.29919E-04  8424   0.416E-04-0.280E-05
CGA:  37    -0.669041347145E+03   -0.19900E-04   -0.20328E-04  8424   0.459E-04-0.208E-04
CGA:  38    -0.669041353480E+03   -0.63353E-05   -0.86739E-05  8424   0.118E-04 0.805E-05
CGA:  39    -0.669041369562E+03   -0.16082E-04    0.12952E-04  8424   0.190E-04 0.115E-05
CGA:  40    -0.669041395171E+03   -0.25610E-04    0.14926E-04  8424   0.270E-04 0.104E-04
CGA:  41    -0.669041401282E+03   -0.61110E-05   -0.76118E-05  8424   0.889E-05 0.821E-05
  34 F= -.66904140E+03 E0= -.66904140E+03  d E =0.633586E+00  mag=     2.0000
       N       E                     dE             d eps       ncg     rms          ort
SDA:   1    -0.660968514240E+03    0.80729E+01    0.00000E+00  8424   0.281E+02 0.000E+00
CGA:   2    -0.666478620861E+03   -0.55101E+01   -0.55636E+01  8424   0.113E+02-0.795E-01
CGA:   3    -0.668862825613E+03   -0.23842E+01   -0.23751E+01  8424   0.357E+01 0.375E-01
CGA:   4    -0.669464605920E+03   -0.60178E+00   -0.60324E+00  8424   0.899E+00 0.392E-03
CGA:   5    -0.669617940775E+03   -0.15333E+00   -0.15382E+00  8424   0.192E+00 0.264E-03
CGA:   6    -0.669655773816E+03   -0.37833E-01   -0.37701E-01  8424   0.434E-01-0.502E-03
CGA:   7    -0.669665238548E+03   -0.94647E-02   -0.95788E-02  8424   0.130E-01 0.650E-03
CGA:   8    -0.669668201598E+03   -0.29631E-02   -0.30541E-02  8424   0.368E-02 0.591E-03
CGA:   9    -0.669669136619E+03   -0.93502E-03   -0.97189E-03  8424   0.117E-02 0.294E-03
CGA:  10    -0.669669369460E+03   -0.23284E-03   -0.28708E-03  8424   0.445E-03 0.375E-03
CGA:  11    -0.669669432733E+03   -0.63273E-04   -0.11198E-03  8424   0.200E-03 0.280E-03
CGA:  12    -0.669669432555E+03    0.17820E-06   -0.29394E-04  8424   0.120E-03 0.142E-03
CGA:  13    -0.669669417400E+03    0.15155E-04   -0.11930E-04  8424   0.102E-03 0.110E-03
CGA:  14    -0.669669402322E+03    0.15078E-04   -0.88069E-05  8424   0.919E-04 0.968E-04
CGA:  15    -0.669669387706E+03    0.14616E-04   -0.69798E-05  8424   0.849E-04 0.883E-04
CGA:  16    -0.669669373737E+03    0.13969E-04   -0.57925E-05  8424   0.798E-04 0.823E-04
CGA:  17    -0.669669360461E+03    0.13276E-04   -0.49503E-05  8424   0.758E-04 0.778E-04
CGA:  18    -0.669669347872E+03    0.12589E-04   -0.43164E-05  8424   0.727E-04 0.742E-04
CGA:  19    -0.669669335943E+03    0.11929E-04   -0.38189E-05  8424   0.701E-04 0.714E-04
CGA:  20    -0.669669324641E+03    0.11302E-04   -0.34163E-05  8424   0.679E-04 0.690E-04
CGA:  21    -0.669669313929E+03    0.10712E-04   -0.30827E-05  8424   0.660E-04 0.669E-04
CGA:  22    -0.669669303773E+03    0.10156E-04   -0.28011E-05  8424   0.644E-04 0.652E-04
CGA:  23    -0.669669294138E+03    0.96351E-05   -0.25611E-05  8424   0.630E-04 0.637E-04
  35 F= -.66966929E+03 E0= -.66966929E+03  d E =-.627893E+00  mag=     2.0000
       N       E                     dE             d eps       ncg     rms          ort
SDA:   1    -0.666542758186E+03    0.31265E+01    0.00000E+00  8424   0.102E+02 0.000E+00
CGA:   2    -0.668599186214E+03   -0.20564E+01   -0.20568E+01  8424   0.422E+01 0.211E-01
CGA:   3    -0.669488153088E+03   -0.88897E+00   -0.88896E+00  8424   0.135E+01-0.425E-02
CGA:   4    -0.669711431058E+03   -0.22328E+00   -0.22337E+00  8424   0.328E+00 0.117E-02
CGA:   5    -0.669767504666E+03   -0.56074E-01   -0.56109E-01  8424   0.682E-01 0.771E-03
CGA:   6    -0.669781072032E+03   -0.13567E-01   -0.13565E-01  8424   0.157E-01-0.257E-03
CGA:   7    -0.669784371294E+03   -0.32993E-02   -0.32964E-02  8424   0.440E-02 0.800E-03
CGA:   8    -0.669785362665E+03   -0.99137E-03   -0.98707E-03  8424   0.117E-02 0.673E-03
CGA:   9    -0.669785628718E+03   -0.26605E-03   -0.26928E-03  8424   0.390E-03 0.419E-03
CGA:  10    -0.669785679413E+03   -0.50694E-04   -0.72712E-04  8424   0.209E-03 0.315E-03
CGA:  11    -0.669785686185E+03   -0.67722E-05   -0.22852E-04  8424   0.147E-03 0.170E-03
CGA:  12    -0.669785683822E+03    0.23630E-05   -0.12698E-04  8424   0.124E-03 0.134E-03
  36 F= -.66978568E+03 E0= -.66978568E+03  d E =-.116390E+00  mag=     2.0000
       N       E                     dE             d eps       ncg     rms          ort
SDA:   1    -0.669587653446E+03    0.19803E+00    0.00000E+00  8424   0.613E+00 0.000E+00
CGA:   2    -0.669717209188E+03   -0.12956E+00   -0.12954E+00  8424   0.272E+00 0.710E-03
CGA:   3    -0.669773320534E+03   -0.56111E-01   -0.56093E-01  8424   0.819E-01 0.100E-02
CGA:   4    -0.669786719606E+03   -0.13399E-01   -0.13413E-01  8424   0.191E-01 0.513E-03
CGA:   5    -0.669790032792E+03   -0.33132E-02   -0.33160E-02  8424   0.413E-02 0.172E-03
CGA:   6    -0.669790829712E+03   -0.79692E-03   -0.79607E-03  8424   0.914E-03 0.230E-03
CGA:   7    -0.669790977858E+03   -0.14815E-03   -0.15603E-03  8424   0.267E-03 0.305E-03
CGA:   8    -0.669790999082E+03   -0.21224E-04   -0.38328E-04  8424   0.140E-03 0.218E-03
CGA:   9    -0.669790999210E+03   -0.12805E-06   -0.11612E-04  8424   0.100E-03 0.116E-03
  37 F= -.66979100E+03 E0= -.66979100E+03  d E =-.531539E-02  mag=     2.0000
       N       E                     dE             d eps       ncg     rms          ort
SDA:   1    -0.668394578264E+03    0.13964E+01    0.00000E+00  8424   0.383E+01 0.000E+00
CGA:   2    -0.669306309633E+03   -0.91173E+00   -0.91164E+00  8424   0.185E+01 0.817E-03
CGA:   3    -0.669663835864E+03   -0.35753E+00   -0.35747E+00  8424   0.470E+00 0.284E-02
CGA:   4    -0.669741199632E+03   -0.77364E-01   -0.77374E-01  8424   0.114E+00 0.708E-03
CGA:   5    -0.669761138921E+03   -0.19939E-01   -0.19939E-01  8424   0.244E-01-0.415E-03
CGA:   6    -0.669766071007E+03   -0.49321E-02   -0.49377E-02  8424   0.570E-02-0.202E-03
CGA:   7    -0.669767299152E+03   -0.12281E-02   -0.12181E-02  8424   0.169E-02 0.258E-03
CGA:   8    -0.669767710922E+03   -0.41177E-03   -0.39816E-03  8424   0.526E-03 0.287E-03
CGA:   9    -0.669767879498E+03   -0.16858E-03   -0.15930E-03  8424   0.230E-03 0.118E-03
CGA:  10    -0.669767975232E+03   -0.95734E-04   -0.87039E-04  8424   0.147E-03 0.688E-04
CGA:  11    -0.669768030289E+03   -0.55057E-04   -0.49496E-04  8424   0.809E-04 0.796E-04
CGA:  12    -0.669768046526E+03   -0.16237E-04   -0.16039E-04  8424   0.458E-04 0.517E-04
CGA:  13    -0.669768052790E+03   -0.62644E-05   -0.75397E-05  8424   0.400E-04 0.422E-04
  38 F= -.66976805E+03 E0= -.66976805E+03  d E =0.229464E-01  mag=     2.0000
       N       E                     dE             d eps       ncg     rms          ort
SDA:   1    -0.669548827537E+03    0.21922E+00    0.00000E+00  8424   0.720E+00 0.000E+00
CGA:   2    -0.669699328720E+03   -0.15050E+00   -0.15048E+00  8424   0.315E+00 0.111E-02
CGA:   3    -0.669765495755E+03   -0.66167E-01   -0.66173E-01  8424   0.952E-01-0.408E-03
CGA:   4    -0.669780871057E+03   -0.15375E-01   -0.15377E-01  8424   0.225E-01 0.263E-04
CGA:   5    -0.669784727827E+03   -0.38568E-02   -0.38630E-02  8424   0.460E-02 0.303E-03
CGA:   6    -0.669785628474E+03   -0.90065E-03   -0.90016E-03  8424   0.102E-02 0.256E-03
CGA:   7    -0.669785838098E+03   -0.20962E-03   -0.20901E-03  8424   0.278E-03 0.168E-03
CGA:   8    -0.669785891791E+03   -0.53693E-04   -0.56050E-04  8424   0.101E-03 0.126E-03
CGA:   9    -0.669785899291E+03   -0.74999E-05   -0.15603E-04  8424   0.590E-04 0.962E-04
  39 F= -.66978590E+03 E0= -.66978590E+03  d E =-.178465E-01  mag=     2.0000
       N       E                     dE             d eps       ncg     rms          ort
SDA:   1    -0.665660487157E+03    0.41254E+01    0.00000E+00  8424   0.120E+02 0.000E+00
CGA:   2    -0.668310518762E+03   -0.26500E+01   -0.26478E+01  8424   0.543E+01 0.400E-01
CGA:   3    -0.669408809724E+03   -0.10983E+01   -0.10986E+01  8424   0.152E+01-0.117E-01
CGA:   4    -0.669658472398E+03   -0.24966E+00   -0.24967E+00  8424   0.364E+00 0.306E-03
CGA:   5    -0.669720760879E+03   -0.62288E-01   -0.62317E-01  8424   0.768E-01 0.238E-02
CGA:   6    -0.669736267513E+03   -0.15507E-01   -0.15491E-01  8424   0.173E-01 0.832E-03
CGA:   7    -0.669740090278E+03   -0.38228E-02   -0.38013E-02  8424   0.515E-02 0.616E-03
CGA:   8    -0.669741373038E+03   -0.12828E-02   -0.12597E-02  8424   0.157E-02 0.446E-03
CGA:   9    -0.669741759435E+03   -0.38640E-03   -0.37271E-03  8424   0.509E-03 0.435E-03
CGA:  10    -0.669741829271E+03   -0.69836E-04   -0.89880E-04  8424   0.265E-03 0.395E-03
CGA:  11    -0.669741839840E+03   -0.10569E-04   -0.27824E-04  8424   0.178E-03 0.212E-03
CGA:  12    -0.669741839067E+03    0.77305E-06   -0.14970E-04  8424   0.145E-03 0.160E-03
CGA:  13    -0.669741834990E+03    0.40770E-05   -0.10342E-04  8424   0.127E-03 0.136E-03
  40 F= -.66974183E+03 E0= -.66974183E+03  d E =0.440643E-01  mag=     2.0000
       N       E                     dE             d eps       ncg     rms          ort
SDA:   1    -0.667516243970E+03    0.22256E+01    0.00000E+00  8424   0.711E+01 0.000E+00
CGA:   2    -0.668962849977E+03   -0.14466E+01   -0.14455E+01  8424   0.293E+01 0.224E-01
CGA:   3    -0.669577347510E+03   -0.61450E+00   -0.61464E+00  8424   0.930E+00-0.301E-02
CGA:   4    -0.669732077137E+03   -0.15473E+00   -0.15473E+00  8424   0.230E+00 0.624E-03
CGA:   5    -0.669771511682E+03   -0.39435E-01   -0.39434E-01  8424   0.463E-01 0.282E-03
CGA:   6    -0.669780861656E+03   -0.93500E-02   -0.93602E-02  8424   0.107E-01-0.333E-03
CGA:   7    -0.669783166787E+03   -0.23051E-02   -0.22859E-02  8424   0.300E-02 0.443E-03
CGA:   8    -0.669783861982E+03   -0.69520E-03   -0.67760E-03  8424   0.781E-03 0.407E-03
CGA:   9    -0.669784063178E+03   -0.20120E-03   -0.19230E-03  8424   0.247E-03 0.220E-03
CGA:  10    -0.669784114284E+03   -0.51106E-04   -0.52929E-04  8424   0.116E-03 0.160E-03
CGA:  11    -0.669784126904E+03   -0.12620E-04   -0.15994E-04  8424   0.699E-04 0.847E-04
CGA:  12    -0.669784129010E+03   -0.21059E-05   -0.69343E-05  8424   0.575E-04 0.630E-04
  41 F= -.66978413E+03 E0= -.66978413E+03  d E =-.422940E-01  mag=     2.0000
       N       E                     dE             d eps       ncg     rms          ort
SDA:   1    -0.669067760998E+03    0.71637E+00    0.00000E+00  8424   0.209E+01 0.000E+00
CGA:   2    -0.669540346629E+03   -0.47259E+00   -0.47250E+00  8424   0.964E+00 0.117E-02
CGA:   3    -0.669730628328E+03   -0.19028E+00   -0.19024E+00  8424   0.259E+00 0.148E-02
CGA:   4    -0.669773153297E+03   -0.42525E-01   -0.42529E-01  8424   0.629E-01 0.394E-03
CGA:   5    -0.669784260582E+03   -0.11107E-01   -0.11109E-01  8424   0.137E-01-0.398E-03
CGA:   6    -0.669787023053E+03   -0.27625E-02   -0.27704E-02  8424   0.318E-02-0.253E-03
CGA:   7    -0.669787684071E+03   -0.66102E-03   -0.65415E-03  8424   0.898E-03 0.188E-03
CGA:   8    -0.669787890931E+03   -0.20686E-03   -0.19995E-03  8424   0.264E-03 0.195E-03
CGA:   9    -0.669787967780E+03   -0.76849E-04   -0.72470E-04  8424   0.110E-03 0.885E-04
CGA:  10    -0.669788009221E+03   -0.41441E-04   -0.37498E-04  8424   0.688E-04 0.507E-04
CGA:  11    -0.669788035897E+03   -0.26675E-04   -0.23902E-04  8424   0.433E-04 0.500E-04
CGA:  12    -0.669788043612E+03   -0.77152E-05   -0.78460E-05  8424   0.257E-04 0.289E-04
  42 F= -.66978804E+03 E0= -.66978804E+03  d E =-.391460E-02  mag=     2.0000
       N       E                     dE             d eps       ncg     rms          ort
SDA:   1    -0.647076254590E+03    0.22712E+02    0.00000E+00  8424   0.748E+02 0.000E+00
CGA:   2    -0.661037778222E+03   -0.13962E+02   -0.13958E+02  8424   0.282E+02 0.901E+00
CGA:   3    -0.667280640656E+03   -0.62429E+01   -0.62496E+01  8424   0.901E+01-0.142E+00
CGA:   4    -0.668791372961E+03   -0.15107E+01   -0.15110E+01  8424   0.222E+01 0.649E-02
CGA:   5    -0.669162025497E+03   -0.37065E+00   -0.37084E+00  8424   0.467E+00 0.726E-02
CGA:   6    -0.669257295869E+03   -0.95270E-01   -0.95280E-01  8424   0.107E+00-0.507E-03
CGA:   7    -0.669281268533E+03   -0.23973E-01   -0.23921E-01  8424   0.324E-01 0.129E-02
CGA:   8    -0.669289352156E+03   -0.80836E-02   -0.80619E-02  8424   0.102E-01 0.369E-03
CGA:   9    -0.669292298615E+03   -0.29465E-02   -0.30214E-02  8424   0.416E-02-0.728E-03
CGA:  10    -0.669293370667E+03   -0.10721E-02   -0.10427E-02  8424   0.154E-02 0.391E-03
CGA:  11    -0.669293929637E+03   -0.55897E-03   -0.57690E-03  8424   0.688E-03-0.126E-03
CGA:  12    -0.669294128605E+03   -0.19897E-03   -0.20015E-03  8424   0.321E-03-0.121E-04
CGA:  13    -0.669294043633E+03    0.84972E-04   -0.32554E-03  8424   0.184E-02-0.505E-03
CGA:  14    -0.669294447845E+03   -0.40421E-03   -0.40418E-03  8424   0.390E-03-0.177E-05
CGA:  15    -0.669294556453E+03   -0.10861E-03   -0.11126E-03  8424   0.212E-03-0.783E-04
CGA:  16    -0.669294619155E+03   -0.62702E-04   -0.84403E-04  8424   0.279E-03-0.901E-04
CGA:  17    -0.669294730181E+03   -0.11103E-03    0.70488E-04  8424   0.140E-03 0.283E-04
CGA:  18    -0.669294819308E+03   -0.89127E-04    0.21716E-03  8424   0.105E-03 0.381E-04
CGA:  19    -0.669294901323E+03   -0.82015E-04    0.11659E-03  8424   0.693E-04 0.355E-04
CGA:  20    -0.669294988688E+03   -0.87365E-04    0.15766E-04  8424   0.529E-04 0.472E-04
CGA:  21    -0.669295018228E+03   -0.29540E-04    0.13382E-03  8424   0.384E-04 0.176E-04
CGA:  22    -0.669295065904E+03   -0.47676E-04    0.89229E-05  8424   0.227E-04 0.293E-04
CGA:  23    -0.669295093939E+03   -0.28035E-04    0.22536E-05  8424   0.190E-04 0.190E-04
CGA:  24    -0.669295117635E+03   -0.23697E-04    0.18609E-05  8424   0.184E-04 0.180E-04
CGA:  25    -0.669295144467E+03   -0.26832E-04    0.13984E-05  8424   0.182E-04 0.174E-04
CGA:  26    -0.669295166702E+03   -0.22235E-04    0.18637E-05  8424   0.185E-04 0.167E-04
CGA:  27    -0.669295194720E+03   -0.28018E-04    0.13136E-05  8424   0.194E-04 0.156E-04
CGA:  28    -0.669295214143E+03   -0.19423E-04    0.28761E-05  8424   0.217E-04 0.136E-04
CGA:  29    -0.669295245018E+03   -0.30875E-04    0.17080E-05  8424   0.272E-04 0.947E-05
CGA:  30    -0.669295299531E+03   -0.54513E-04    0.31589E-05  8424   0.202E-04 0.378E-04
CGA:  31    -0.669295316520E+03   -0.16990E-04    0.45949E-05  8424   0.248E-04 0.984E-05
CGA:  32    -0.669295372446E+03   -0.55925E-04    0.26226E-05  8424   0.185E-04 0.357E-04
CGA:  33    -0.669295402089E+03   -0.29643E-04    0.12195E-05  8424   0.219E-04 0.107E-04
CGA:  34    -0.669295416539E+03   -0.14450E-04    0.11829E-04  8424   0.296E-04 0.524E-05
CGA:  35    -0.669295474250E+03   -0.57711E-04    0.24726E-05  8424   0.236E-04 0.358E-04
CGA:  36    -0.669295507064E+03   -0.32814E-04    0.19334E-05  8424   0.335E-04 0.141E-05
CGA:  37    -0.669295564293E+03   -0.57229E-04    0.23023E-05  8424   0.305E-04 0.347E-04
CGA:  38    -0.669295571907E+03   -0.76136E-05   -0.74849E-05  8424   0.396E-04-0.663E-05
