       N       E                     dE             d eps       ncg     rms          rms(c)
DAV:   1     0.826131356948E+04    0.82613E+04   -0.24039E+05 34332   0.226E+03
DAV:   2     0.916642405942E+03   -0.73447E+04   -0.68932E+04 33696   0.656E+02
DAV:   3    -0.674130677550E+03   -0.15908E+04   -0.13999E+04 35928   0.282E+02
DAV:   4    -0.829775693874E+03   -0.15565E+03   -0.15291E+03 36828   0.856E+01
DAV:   5    -0.832268610075E+03   -0.24929E+01   -0.24820E+01 36960   0.122E+01    0.112E+02
DAV:   6    -0.727019418267E+03    0.10525E+03   -0.89743E+02 44016   0.124E+02    0.114E+02
DAV:   7    -0.648994518086E+03    0.78025E+02   -0.29207E+02 36060   0.116E+02    0.423E+01
DAV:   8    -0.669100898792E+03   -0.20106E+02   -0.89265E+01 43140   0.423E+01    0.453E+01
DAV:   9    -0.668273446485E+03    0.82745E+00   -0.63653E+01 36864   0.424E+01    0.290E+01
DAV:  10    -0.667542443911E+03    0.73100E+00   -0.24649E+01 37560   0.265E+01    0.211E+01
DAV:  11    -0.667776460551E+03   -0.23402E+00   -0.16456E+01 36792   0.178E+01    0.156E+01
DAV:  12    -0.667974769071E+03   -0.19831E+00   -0.78146E+00 36828   0.104E+01    0.108E+01
DAV:  13    -0.667936379241E+03    0.38390E-01   -0.11500E+00 37140   0.691E+00    0.750E+00
DAV:  14    -0.668156194411E+03   -0.21982E+00   -0.65641E-01 39156   0.514E+00    0.591E+00
DAV:  15    -0.668256025944E+03   -0.99832E-01   -0.12184E+00 42216   0.667E+00    0.339E+00
DAV:  16    -0.668308876198E+03   -0.52850E-01   -0.38176E-01 41904   0.383E+00    0.272E+00
DAV:  17    -0.668357157383E+03   -0.48281E-01   -0.16914E-01 37176   0.237E+00    0.285E+00
DAV:  18    -0.668371984939E+03   -0.14828E-01   -0.42708E-02 37332   0.975E-01    0.272E+00
DAV:  19    -0.668409457386E+03   -0.37472E-01   -0.29007E-02 43896   0.102E+00    0.280E+00
DAV:  20    -0.668466992904E+03   -0.57536E-01   -0.62254E-02 39852   0.215E+00    0.248E+00
DAV:  21    -0.668544415559E+03   -0.77423E-01   -0.82775E-02 41844   0.227E+00    0.203E+00
DAV:  22    -0.668672014476E+03   -0.12760E+00   -0.13916E-01 39792   0.307E+00    0.133E+00
DAV:  23    -0.668736131729E+03   -0.64117E-01   -0.12781E-01 43008   0.123E+00    0.168E+00
DAV:  24    -0.668769667531E+03   -0.33536E-01   -0.27656E-02 41124   0.926E-01    0.168E+00
DAV:  25    -0.668773892245E+03   -0.42247E-02   -0.13413E-02 36888   0.299E-01    0.166E+00
DAV:  26    -0.668782741534E+03   -0.88493E-02   -0.30069E-03 46344   0.300E-01    0.170E+00
DAV:  27    -0.668779968797E+03    0.27727E-02   -0.77751E-04 35976   0.156E-01    0.170E+00
DAV:  28    -0.668757495063E+03    0.22474E-01   -0.13990E-02 40332   0.725E-01    0.164E+00
DAV:  29    -0.668734751505E+03    0.22744E-01   -0.19316E-02 40980   0.858E-01    0.150E+00
DAV:  30    -0.668714551485E+03    0.20200E-01   -0.49505E-02 41088   0.138E+00    0.116E+00
DAV:  31    -0.668668710534E+03    0.45841E-01   -0.91698E-02 39672   0.249E+00    0.146E+00
DAV:  32    -0.668658334854E+03    0.10376E-01   -0.77677E-02 44676   0.164E+00    0.169E+00
DAV:  33    -0.668705553922E+03   -0.47219E-01   -0.11052E-01 39468   0.228E+00    0.173E+00
DAV:  34    -0.668730641522E+03   -0.25088E-01   -0.45849E-02 42312   0.155E+00    0.188E+00
DAV:  35    -0.668762910163E+03   -0.32269E-01   -0.56902E-02 41868   0.159E+00    0.202E+00
DAV:  36    -0.668755190945E+03    0.77192E-02   -0.22931E-02 37128   0.677E-01    0.200E+00
DAV:  37    -0.668734589357E+03    0.20602E-01   -0.24290E-02 44592   0.118E+00    0.184E+00
DAV:  38    -0.668700882222E+03    0.33707E-01   -0.79724E-02 40416   0.206E+00    0.182E+00
DAV:  39    -0.668696828873E+03    0.40533E-02   -0.45427E-02 44544   0.108E+00    0.199E+00
DAV:  40    -0.668698346989E+03   -0.15181E-02   -0.17516E-02 36528   0.341E-01    0.193E+00
DAV:  41    -0.668698710108E+03   -0.36312E-03   -0.12481E-03 37032   0.840E-02    0.193E+00
DAV:  42    -0.668698788819E+03   -0.78710E-04   -0.15186E-05 24684   0.157E-02    0.193E+00
DAV:  43    -0.668698720143E+03    0.68676E-04   -0.70534E-06 19764   0.189E-02    0.194E+00
DAV:  44    -0.668699896473E+03   -0.11763E-02   -0.98655E-04 41424   0.160E-01    0.190E+00
DAV:  45    -0.668708454569E+03   -0.85581E-02   -0.32759E-02 44160   0.109E+00    0.178E+00
DAV:  46    -0.668716985293E+03   -0.85307E-02   -0.69471E-02 44784   0.129E+00    0.208E+00
DAV:  47    -0.668725282832E+03   -0.82975E-02   -0.20296E-02 42288   0.592E-01    0.199E+00
DAV:  48    -0.668732450382E+03   -0.71675E-02   -0.80340E-03 43728   0.304E-01    0.231E+00
DAV:  49    -0.668731064919E+03    0.13855E-02   -0.53566E-03 38256   0.300E-01    0.235E+00
DAV:  50    -0.668728597840E+03    0.24671E-02   -0.36522E-03 48132   0.208E-01    0.238E+00
DAV:  51    -0.668732670513E+03   -0.40727E-02   -0.32325E-03 36636   0.269E-01    0.238E+00
DAV:  52    -0.668717189541E+03    0.15481E-01   -0.11644E-02 39096   0.725E-01    0.236E+00
DAV:  53    -0.668718074891E+03   -0.88535E-03   -0.13246E-03 35616   0.843E-02    0.235E+00
DAV:  54    -0.668712203706E+03    0.58712E-02   -0.17214E-03 40692   0.325E-01    0.245E+00
DAV:  55    -0.668712453870E+03   -0.25016E-03   -0.37842E-04 36024   0.457E-02    0.245E+00
DAV:  56    -0.668735640203E+03   -0.23186E-01   -0.35994E-02 40620   0.124E+00    0.251E+00
DAV:  57    -0.668730464577E+03    0.51756E-02   -0.15721E-02 44508   0.574E-01    0.237E+00
DAV:  58    -0.668723684390E+03    0.67802E-02   -0.10090E-02 41316   0.537E-01    0.226E+00
DAV:  59    -0.668715643652E+03    0.80407E-02   -0.19580E-02 39900   0.989E-01    0.234E+00
DAV:  60    -0.668719262127E+03   -0.36185E-02   -0.36282E-02 45276   0.729E-01    0.276E+00
DAV:  61    -0.668724651371E+03   -0.53892E-02   -0.13165E-02 36204   0.566E-01    0.274E+00
DAV:  62    -0.668718006531E+03    0.66448E-02   -0.14589E-02 41088   0.548E-01    0.263E+00
DAV:  63    -0.668709554633E+03    0.84519E-02   -0.43058E-02 44124   0.995E-01    0.286E+00
DAV:  64    -0.668710520055E+03   -0.96542E-03   -0.15303E-01 41124   0.141E+00    0.282E+00
DAV:  65    -0.668726196352E+03   -0.15676E-01   -0.83516E-02 44916   0.122E+00    0.355E+00
DAV:  66    -0.668712196472E+03    0.14000E-01   -0.17631E-01 40644   0.173E+00    0.296E+00
DAV:  67    -0.668717494641E+03   -0.52982E-02   -0.19900E-01 45804   0.170E+00    0.397E+00
DAV:  68    -0.668739154437E+03   -0.21660E-01   -0.12918E-01 48660   0.104E+00    0.535E+00
DAV:  69    -0.668736831519E+03    0.23229E-02   -0.22879E-02 38544   0.951E-01    0.603E+00
DAV:  70    -0.668740626292E+03   -0.37948E-02   -0.23356E-02 43464   0.911E-01    0.676E+00
DAV:  71    -0.668735667689E+03    0.49586E-02   -0.10696E-02 39768   0.415E-01    0.665E+00
DAV:  72    -0.668733263863E+03    0.24038E-02   -0.26921E-03 42660   0.182E-01    0.653E+00
DAV:  73    -0.668728269664E+03    0.49942E-02   -0.37423E-03 36384   0.167E-01    0.620E+00
DAV:  74    -0.668726811262E+03    0.14584E-02   -0.13911E-03 40368   0.895E-02    0.605E+00
DAV:  75    -0.668726763577E+03    0.47685E-04   -0.10617E-03 40008   0.112E-01    0.603E+00
DAV:  76    -0.668727428854E+03   -0.66528E-03   -0.84748E-04 39360   0.158E-01    0.620E+00
DAV:  77    -0.668725248555E+03    0.21803E-02   -0.10561E-03 39468   0.124E-01    0.613E+00
DAV:  78    -0.668717558074E+03    0.76905E-02   -0.74563E-03 49128   0.506E-01    0.613E+00
DAV:  79    -0.668713784238E+03    0.37738E-02   -0.62232E-03 47940   0.350E-01    0.638E+00
DAV:  80    -0.668707151947E+03    0.66323E-02   -0.28653E-02 44832   0.580E-01    0.583E+00
DAV:  81    -0.668707967534E+03   -0.81559E-03   -0.14921E-01 46356   0.125E+00    0.475E+00
DAV:  82    -0.668711394992E+03   -0.34275E-02   -0.12070E-02 35268   0.335E-01    0.475E+00
DAV:  83    -0.668711951222E+03   -0.55623E-03   -0.57191E-04 36936   0.620E-02    0.472E+00
DAV:  84    -0.668711049800E+03    0.90142E-03   -0.10426E-03 48984   0.264E-01    0.472E+00
DAV:  85    -0.668712497111E+03   -0.14473E-02   -0.14015E-02 47064   0.459E-01    0.433E+00
DAV:  86    -0.668715233474E+03   -0.27364E-02   -0.50053E-02 47604   0.818E-01    0.406E+00
DAV:  87    -0.668714191739E+03    0.10417E-02   -0.16194E-02 42768   0.556E-01    0.407E+00
DAV:  88    -0.668715577237E+03   -0.13855E-02   -0.24658E-03 40404   0.211E-01    0.405E+00
DAV:  89    -0.668715341847E+03    0.23539E-03   -0.15912E-02 43908   0.459E-01    0.400E+00
DAV:  90    -0.668713621445E+03    0.17204E-02   -0.14749E-02 46164   0.467E-01    0.416E+00
DAV:  91    -0.668719885306E+03   -0.62639E-02   -0.12748E-01 45912   0.135E+00    0.551E+00
DAV:  92    -0.668722948064E+03   -0.30628E-02   -0.11722E-02 34980   0.311E-01    0.550E+00
DAV:  93    -0.668723075337E+03   -0.12727E-03   -0.55622E-04 37992   0.801E-02    0.550E+00
DAV:  94    -0.668722973902E+03    0.10144E-03   -0.53984E-04 35496   0.103E-01    0.544E+00
DAV:  95    -0.668728188483E+03   -0.52146E-02   -0.14307E-03 46164   0.285E-01    0.555E+00
DAV:  96    -0.668753073795E+03   -0.24885E-01   -0.12813E+00 45720   0.458E+00    0.580E+00
DAV:  97    -0.668768816216E+03   -0.15742E-01   -0.10389E-01 35280   0.752E-01    0.575E+00
DAV:  98    -0.668769827038E+03   -0.10108E-02   -0.29408E-03 37824   0.167E-01    0.570E+00
DAV:  99    -0.668770131133E+03   -0.30410E-03   -0.45653E-04 39780   0.848E-02    0.564E+00
DAV: 100    -0.668767286692E+03    0.28444E-02   -0.41979E-04 34116   0.739E-02    0.555E+00
DAV: 101    -0.668819816306E+03   -0.52530E-01   -0.52755E-02 44004   0.137E+00    0.666E+00
DAV: 102    -0.668827278378E+03   -0.74621E-02   -0.18791E-02 34272   0.328E-01    0.658E+00
DAV: 103    -0.668830333200E+03   -0.30548E-02   -0.13362E-03 36996   0.951E-02    0.665E+00
DAV: 104    -0.668829960389E+03    0.37281E-03   -0.68285E-05 32700   0.268E-02    0.665E+00
DAV: 105    -0.668833629364E+03   -0.36690E-02   -0.39567E-04 33636   0.780E-02    0.671E+00
DAV: 106    -0.668795207309E+03    0.38422E-01   -0.13387E-02 48864   0.587E-01    0.562E+00
DAV: 107    -0.668831463033E+03   -0.36256E-01   -0.19838E-02 39804   0.508E-01    0.647E+00
DAV: 108    -0.668835356005E+03   -0.38930E-02   -0.13394E-03 38088   0.985E-02    0.658E+00
DAV: 109    -0.668830767582E+03    0.45884E-02   -0.97201E-04 35892   0.133E-01    0.650E+00
DAV: 110    -0.668813661898E+03    0.17106E-01   -0.25290E-03 41868   0.258E-01    0.604E+00
DAV: 111    -0.668732528477E+03    0.81133E-01   -0.14379E-01 40116   0.197E+00    0.442E+00
DAV: 112    -0.668711108178E+03    0.21420E-01   -0.19423E-01 44856   0.111E+00    0.324E+00
DAV: 113    -0.668708008176E+03    0.31000E-02   -0.66805E-02 46584   0.678E-01    0.305E+00
DAV: 114    -0.668706867982E+03    0.11402E-02   -0.15632E-02 39252   0.274E-01    0.309E+00
DAV: 115    -0.668709357195E+03   -0.24892E-02   -0.21488E-03 35208   0.196E-01    0.311E+00
DAV: 116    -0.668747283596E+03   -0.37926E-01   -0.21127E-01 46908   0.177E+00    0.437E+00
DAV: 117    -0.668747489252E+03   -0.20566E-03   -0.19343E-02 35376   0.310E-01    0.438E+00
DAV: 118    -0.668744908318E+03    0.25809E-02   -0.20408E-03 40104   0.185E-01    0.420E+00
DAV: 119    -0.668742414295E+03    0.24940E-02   -0.34487E-02 43488   0.645E-01    0.443E+00
DAV: 120    -0.668744115428E+03   -0.17011E-02   -0.60459E-02 40896   0.820E-01    0.410E+00
DAV: 121    -0.668742080232E+03    0.20352E-02   -0.12763E-03 42660   0.276E-01    0.395E+00
DAV: 122    -0.668744230567E+03   -0.21503E-02   -0.10101E-01 44592   0.143E+00    0.439E+00
DAV: 123    -0.668744300190E+03   -0.69624E-04   -0.85010E-03 35532   0.235E-01    0.438E+00
DAV: 124    -0.668743850651E+03    0.44954E-03   -0.11736E-03 37644   0.114E-01    0.444E+00
DAV: 125    -0.668742912235E+03    0.93842E-03   -0.38443E-04 44580   0.882E-02    0.449E+00
DAV: 126    -0.668730785156E+03    0.12127E-01   -0.16267E-02 42684   0.602E-01    0.431E+00
DAV: 127    -0.668731028415E+03   -0.24326E-03   -0.27784E-02 42852   0.848E-01    0.487E+00
DAV: 128    -0.668731925351E+03   -0.89694E-03   -0.23059E-02 46356   0.454E-01    0.536E+00
DAV: 129    -0.668728183829E+03    0.37415E-02   -0.41899E-03 41916   0.266E-01    0.532E+00
DAV: 130    -0.668728522028E+03   -0.33820E-03   -0.87197E-04 36216   0.823E-02    0.536E+00
DAV: 131    -0.668726304701E+03    0.22173E-02   -0.17019E-02 45504   0.763E-01    0.484E+00
DAV: 132    -0.668727725785E+03   -0.14211E-02   -0.18058E-03 37464   0.113E-01    0.485E+00
DAV: 133    -0.668726298494E+03    0.14273E-02   -0.19537E-04 34944   0.596E-02    0.479E+00
DAV: 134    -0.668715870884E+03    0.10428E-01   -0.60514E-03 46128   0.217E-01    0.424E+00
DAV: 135    -0.668694914534E+03    0.20956E-01   -0.55537E-02 43116   0.696E-01    0.279E+00
DAV: 136    -0.668673371942E+03    0.21543E-01   -0.11495E+00 45876   0.305E+00    0.212E+00
DAV: 137    -0.668674321977E+03   -0.95004E-03   -0.75294E-02 37296   0.605E-01    0.238E+00
DAV: 138    -0.668677302074E+03   -0.29801E-02   -0.57070E-03 34776   0.244E-01    0.226E+00
DAV: 139    -0.668684433677E+03   -0.71316E-02   -0.45910E-03 38772   0.383E-01    0.252E+00
DAV: 140    -0.668704474453E+03   -0.20041E-01   -0.24703E-02 44256   0.704E-01    0.275E+00
DAV: 141    -0.668716267170E+03   -0.11793E-01   -0.12634E-01 49488   0.116E+00    0.224E+00
DAV: 142    -0.668739114456E+03   -0.22847E-01   -0.68111E-02 46980   0.807E-01    0.335E+00
DAV: 143    -0.668741958508E+03   -0.28441E-02   -0.11335E-02 36108   0.297E-01    0.357E+00
DAV: 144    -0.668735104483E+03    0.68540E-02   -0.83773E-03 34812   0.305E-01    0.323E+00
DAV: 145    -0.668712695059E+03    0.22409E-01   -0.96019E-02 45480   0.103E+00    0.235E+00
DAV: 146    -0.668732243012E+03   -0.19548E-01   -0.19471E-01 44700   0.174E+00    0.431E+00
DAV: 147    -0.668834162503E+03   -0.10192E+00   -0.47612E-01 45912   0.219E+00    0.768E+00
DAV: 148    -0.668848654367E+03   -0.14492E-01   -0.66862E-02 35220   0.545E-01    0.802E+00
DAV: 149    -0.668821892950E+03    0.26761E-01   -0.49719E-02 38076   0.390E-01    0.731E+00
DAV: 150    -0.668814203651E+03    0.76893E-02   -0.49243E-02 46188   0.419E-01    0.690E+00
DAV: 151    -0.668851639056E+03   -0.37435E-01   -0.40236E-01 43464   0.141E+00    0.839E+00
DAV: 152    -0.668857112081E+03   -0.54730E-02   -0.19461E-02 35520   0.326E-01    0.858E+00
DAV: 153    -0.668850052391E+03    0.70597E-02   -0.12439E-03 37116   0.164E-01    0.854E+00
DAV: 154    -0.668804134329E+03    0.45918E-01   -0.27134E-03 46524   0.368E-01    0.792E+00
DAV: 155    -0.668705425128E+03    0.98709E-01   -0.39716E-02 42756   0.916E-01    0.550E+00
DAV: 156    -0.668721162846E+03   -0.15738E-01   -0.15318E-02 37152   0.516E-01    0.542E+00
DAV: 157    -0.668720902732E+03    0.26011E-03   -0.46813E-03 35736   0.309E-01    0.556E+00
DAV: 158    -0.668718124599E+03    0.27781E-02   -0.26539E-03 35772   0.216E-01    0.539E+00
DAV: 159    -0.668719278856E+03   -0.11543E-02   -0.10730E-03 35112   0.111E-01    0.548E+00
DAV: 160    -0.668726703258E+03   -0.74244E-02   -0.11442E-03 42780   0.145E-01    0.549E+00
DAV: 161    -0.668708318177E+03    0.18385E-01   -0.84398E-02 43188   0.795E-01    0.448E+00
DAV: 162    -0.668700969147E+03    0.73490E-02   -0.93431E-03 42528   0.396E-01    0.440E+00
DAV: 163    -0.668700408325E+03    0.56082E-03   -0.16634E-03 35880   0.892E-02    0.436E+00
DAV: 164    -0.668695889275E+03    0.45191E-02   -0.26765E-04 40500   0.115E-01    0.429E+00
DAV: 165    -0.668684783438E+03    0.11106E-01   -0.51819E-03 42384   0.316E-01    0.402E+00
DAV: 166    -0.668662229298E+03    0.22554E-01   -0.52939E-02 42324   0.100E+00    0.338E+00
DAV: 167    -0.668667891853E+03   -0.56626E-02   -0.74352E-03 36240   0.257E-01    0.371E+00
DAV: 168    -0.668659975508E+03    0.79163E-02   -0.34275E-03 35508   0.261E-01    0.341E+00
DAV: 169    -0.668651380239E+03    0.85953E-02   -0.19167E-02 44124   0.460E-01    0.269E+00
DAV: 170    -0.668658204793E+03   -0.68246E-02   -0.18527E-02 46872   0.451E-01    0.310E+00
DAV: 171    -0.668670815799E+03   -0.12611E-01   -0.17416E-01 43476   0.159E+00    0.206E+00
DAV: 172    -0.668664119721E+03    0.66961E-02   -0.19490E-02 40608   0.615E-01    0.199E+00
DAV: 173    -0.668655675807E+03    0.84439E-02   -0.81436E-03 46080   0.657E-01    0.202E+00
DAV: 174    -0.668654974013E+03    0.70179E-03   -0.58701E-03 38664   0.256E-01    0.184E+00
DAV: 175    -0.668654334673E+03    0.63934E-03   -0.97870E-04 36948   0.914E-02    0.183E+00
DAV: 176    -0.668672369636E+03   -0.18035E-01   -0.14740E-02 46068   0.953E-01    0.242E+00
DAV: 177    -0.668662511094E+03    0.98585E-02   -0.76532E-03 43464   0.480E-01    0.224E+00
DAV: 178    -0.668653823016E+03    0.86881E-02   -0.21470E-03 41508   0.309E-01    0.227E+00
DAV: 179    -0.668639772424E+03    0.14051E-01   -0.23772E-03 42300   0.435E-01    0.206E+00
DAV: 180    -0.668636483980E+03    0.32884E-02   -0.17260E-03 40212   0.136E-01    0.203E+00
DAV: 181    -0.668641085554E+03   -0.46016E-02   -0.48862E-02 39972   0.101E+00    0.288E+00
DAV: 182    -0.668639115191E+03    0.19704E-02   -0.85523E-03 42816   0.343E-01    0.266E+00
DAV: 183    -0.668646323456E+03   -0.72083E-02   -0.37351E-03 41916   0.324E-01    0.289E+00
DAV: 184    -0.668639197636E+03    0.71258E-02   -0.22483E-03 39072   0.271E-01    0.281E+00
DAV: 185    -0.668633537799E+03    0.56598E-02   -0.18107E-03 45900   0.284E-01    0.299E+00
DAV: 186    -0.668561097333E+03    0.72440E-01   -0.11705E-01 43020   0.220E+00    0.271E+00
DAV: 187    -0.668557631314E+03    0.34660E-02   -0.22635E-02 40428   0.467E-01    0.247E+00
DAV: 188    -0.668555573632E+03    0.20577E-02   -0.56765E-03 45156   0.278E-01    0.245E+00
DAV: 189    -0.668553273282E+03    0.23004E-02   -0.16299E-03 36216   0.111E-01    0.245E+00
DAV: 190    -0.668552884816E+03    0.38847E-03   -0.19035E-04 35916   0.318E-02    0.245E+00
DAV: 191    -0.668594831584E+03   -0.41947E-01   -0.35152E-02 44004   0.120E+00    0.188E+00
DAV: 192    -0.668607459622E+03   -0.12628E-01   -0.11559E-02 48564   0.489E-01    0.176E+00
DAV: 193    -0.668615016156E+03   -0.75565E-02   -0.45166E-03 47868   0.408E-01    0.172E+00
DAV: 194    -0.668628326175E+03   -0.13310E-01   -0.68839E-03 47652   0.542E-01    0.172E+00
DAV: 195    -0.668630343942E+03   -0.20178E-02   -0.38412E-03 35328   0.141E-01    0.172E+00
DAV: 196    -0.668705267378E+03   -0.74923E-01   -0.93147E-02 44532   0.262E+00    0.255E+00
DAV: 197    -0.668719797513E+03   -0.14530E-01   -0.43055E-02 44400   0.779E-01    0.308E+00
DAV: 198    -0.668726053674E+03   -0.62562E-02   -0.25030E-02 45996   0.854E-01    0.339E+00
DAV: 199    -0.668729507508E+03   -0.34538E-02   -0.10406E-02 45096   0.324E-01    0.346E+00
DAV: 200    -0.668731379151E+03   -0.18716E-02   -0.40410E-03 36576   0.292E-01
   1 F= -.66873138E+03 E0= -.66872855E+03  d E =-.668731E+03  mag=    -0.2334
       N       E                     dE             d eps       ncg     rms          rms(c)
DAV:   1    -0.668742930231E+03   -0.13423E-01   -0.82989E-02 47400   0.215E+00    0.303E+00
DAV:   2    -0.668816876157E+03   -0.73946E-01   -0.58917E-01 37140   0.703E+00    0.352E+00
DAV:   3    -0.668792835278E+03    0.24041E-01   -0.31950E-01 36480   0.443E+00    0.173E+00
DAV:   4    -0.668801665768E+03   -0.88305E-02   -0.34667E-02 39876   0.182E+00    0.997E-01
DAV:   5    -0.668817492492E+03   -0.15827E-01   -0.20320E-02 45816   0.900E-01    0.909E-01
DAV:   6    -0.668843389980E+03   -0.25897E-01   -0.34163E-02 41556   0.117E+00    0.128E+00
DAV:   7    -0.668847746571E+03   -0.43566E-02   -0.15450E-02 36144   0.279E-01    0.131E+00
DAV:   8    -0.668853271017E+03   -0.55244E-02   -0.18466E-03 54360   0.165E-01    0.141E+00
DAV:   9    -0.668814099584E+03    0.39171E-01   -0.11075E-01 38652   0.187E+00    0.999E-01
DAV:  10    -0.668793631186E+03    0.20468E-01   -0.68490E-02 40560   0.156E+00    0.926E-01
DAV:  11    -0.668785693047E+03    0.79381E-02   -0.28263E-02 44364   0.805E-01    0.938E-01
DAV:  12    -0.668775636422E+03    0.10057E-01   -0.14540E-02 44724   0.812E-01    0.101E+00
DAV:  13    -0.668770204856E+03    0.54316E-02   -0.10107E-02 45960   0.505E-01    0.107E+00
DAV:  14    -0.668793250913E+03   -0.23046E-01   -0.52979E-02 38832   0.201E+00    0.879E-01
DAV:  15    -0.668818286948E+03   -0.25036E-01   -0.65752E-02 41100   0.184E+00    0.106E+00
DAV:  16    -0.668836165381E+03   -0.17878E-01   -0.41102E-02 45720   0.929E-01    0.130E+00
DAV:  17    -0.668840723936E+03   -0.45586E-02   -0.13024E-02 36228   0.253E-01    0.138E+00
DAV:  18    -0.668837037925E+03    0.36860E-02   -0.15474E-03 36408   0.232E-01    0.135E+00
DAV:  19    -0.668836855964E+03    0.18196E-03   -0.23149E-04 40572   0.571E-02    0.135E+00
DAV:  20    -0.668829513226E+03    0.73427E-02   -0.79410E-03 41016   0.492E-01    0.118E+00
DAV:  21    -0.668825618815E+03    0.38944E-02   -0.59065E-03 41724   0.460E-01    0.115E+00
DAV:  22    -0.668822819220E+03    0.27996E-02   -0.34230E-03 44760   0.274E-01    0.112E+00
DAV:  23    -0.668819779449E+03    0.30398E-02   -0.31732E-03 44340   0.298E-01    0.107E+00
DAV:  24    -0.668799362602E+03    0.20417E-01   -0.70180E-02 42792   0.179E+00    0.116E+00
DAV:  25    -0.668787553755E+03    0.11809E-01   -0.37783E-02 44220   0.114E+00    0.131E+00
DAV:  26    -0.668789079416E+03   -0.15257E-02   -0.13947E-02 35400   0.276E-01    0.126E+00
DAV:  27    -0.668787947080E+03    0.11323E-02   -0.18863E-04 42684   0.123E-01    0.130E+00
DAV:  28    -0.668786730192E+03    0.12169E-02   -0.19186E-04 48072   0.925E-02    0.131E+00
DAV:  29    -0.668785451134E+03    0.12791E-02   -0.25495E-04 44316   0.907E-02    0.130E+00
DAV:  30    -0.668784503958E+03    0.94718E-03   -0.18341E-04 45348   0.778E-02    0.131E+00
DAV:  31    -0.668784713819E+03   -0.20986E-03   -0.88100E-05 34728   0.341E-02    0.130E+00
DAV:  32    -0.668784849746E+03   -0.13593E-03   -0.22484E-06 18756   0.104E-02    0.130E+00
DAV:  33    -0.668786661581E+03   -0.18118E-02   -0.18999E-03 46848   0.188E-01    0.138E+00
DAV:  34    -0.668794648463E+03   -0.79869E-02   -0.47697E-03 47796   0.637E-01    0.135E+00
DAV:  35    -0.668797918083E+03   -0.32696E-02   -0.90660E-03 40824   0.282E-01    0.154E+00
DAV:  36    -0.668794360120E+03    0.35580E-02   -0.35051E-03 38772   0.435E-01    0.169E+00
DAV:  37    -0.668794764292E+03   -0.40417E-03   -0.79261E-04 35196   0.714E-02    0.167E+00
DAV:  38    -0.668795554560E+03   -0.79027E-03   -0.66521E-05 31776   0.592E-02    0.166E+00
DAV:  39    -0.668794158503E+03    0.13961E-02   -0.21238E-04 38028   0.154E-01    0.171E+00
DAV:  40    -0.668797163023E+03   -0.30045E-02   -0.94959E-04 45864   0.134E-01    0.185E+00
DAV:  41    -0.668802042291E+03   -0.48793E-02   -0.13364E-03 46404   0.161E-01    0.197E+00
DAV:  42    -0.668808559646E+03   -0.65174E-02   -0.11493E-03 48048   0.188E-01    0.207E+00
DAV:  43    -0.668816134896E+03   -0.75753E-02   -0.23641E-03 47604   0.219E-01    0.216E+00
DAV:  44    -0.668831684905E+03   -0.15550E-01   -0.60246E-03 48744   0.707E-01    0.224E+00
DAV:  45    -0.668843542882E+03   -0.11858E-01   -0.65240E-03 48084   0.460E-01    0.240E+00
DAV:  46    -0.668846160602E+03   -0.26177E-02   -0.26125E-03 35760   0.142E-01    0.248E+00
DAV:  47    -0.668847649991E+03   -0.14894E-02   -0.35705E-04 36300   0.911E-02    0.254E+00
DAV:  48    -0.668844649341E+03    0.30007E-02   -0.26736E-04 37728   0.131E-01    0.251E+00
DAV:  49    -0.668845903464E+03   -0.12541E-02   -0.12094E-04 34608   0.526E-02    0.252E+00
DAV:  50    -0.668852257447E+03   -0.63540E-02   -0.72719E-04 48948   0.310E-01    0.255E+00
DAV:  51    -0.668855832531E+03   -0.35751E-02   -0.14862E-03 45012   0.296E-01    0.253E+00
DAV:  52    -0.668854293815E+03    0.15387E-02   -0.98987E-04 39564   0.131E-01    0.251E+00
DAV:  53    -0.668853465916E+03    0.82790E-03   -0.41299E-04 37956   0.126E-01    0.245E+00
DAV:  54    -0.668853317025E+03    0.14889E-03   -0.42545E-05 34104   0.175E-02    0.245E+00
DAV:  55    -0.668853459093E+03   -0.14207E-03   -0.11857E-06 18432   0.107E-02    0.246E+00
DAV:  56    -0.668855767477E+03   -0.23084E-02   -0.60348E-05 31548   0.116E-01    0.250E+00
DAV:  57    -0.668875353109E+03   -0.19586E-01   -0.77920E-03 48840   0.826E-01    0.280E+00
DAV:  58    -0.668876658655E+03   -0.13055E-02   -0.48894E-03 44520   0.238E-01    0.279E+00
DAV:  59    -0.668878373561E+03   -0.17149E-02   -0.57015E-04 48060   0.937E-02    0.280E+00
DAV:  60    -0.668879960693E+03   -0.15871E-02   -0.22698E-04 39900   0.519E-02    0.284E+00
DAV:  61    -0.668881395305E+03   -0.14346E-02   -0.16855E-04 40164   0.140E-01    0.286E+00
DAV:  62    -0.668873412307E+03    0.79830E-02   -0.13005E-03 43200   0.368E-01    0.274E+00
DAV:  63    -0.668869232576E+03    0.41797E-02   -0.28351E-03 46872   0.467E-01    0.273E+00
DAV:  64    -0.668869773205E+03   -0.54063E-03   -0.12485E-03 39348   0.178E-01    0.269E+00
DAV:  65    -0.668869173355E+03    0.59985E-03   -0.13577E-04 36564   0.988E-02    0.265E+00
DAV:  66    -0.668866856058E+03    0.23173E-02   -0.19171E-03 44184   0.356E-01    0.248E+00
DAV:  67    -0.668873205532E+03   -0.63495E-02   -0.14433E-01 41508   0.313E+00    0.164E+00
DAV:  68    -0.668860058072E+03    0.13147E-01   -0.29375E-02 37596   0.112E+00    0.158E+00
DAV:  69    -0.668859699702E+03    0.35837E-03   -0.60740E-03 36852   0.167E-01    0.153E+00
DAV:  70    -0.668859146388E+03    0.55331E-03   -0.86023E-05 37080   0.235E-02    0.152E+00
DAV:  71    -0.668858715204E+03    0.43118E-03   -0.16793E-05 22344   0.391E-02    0.151E+00
DAV:  72    -0.668855471408E+03    0.32438E-02   -0.11926E-03 42792   0.295E-01    0.148E+00
DAV:  73    -0.668857888471E+03   -0.24171E-02   -0.16717E-03 40356   0.323E-01    0.148E+00
DAV:  74    -0.668857521227E+03    0.36724E-03   -0.59360E-04 35244   0.733E-02    0.150E+00
DAV:  75    -0.668857673132E+03   -0.15191E-03   -0.24428E-05 29952   0.141E-02    0.150E+00
DAV:  76    -0.668857190561E+03    0.48257E-03   -0.16218E-05 25008   0.412E-02    0.149E+00
DAV:  77    -0.668858569485E+03   -0.13789E-02   -0.82275E-04 46848   0.222E-01    0.151E+00
DAV:  78    -0.668845396131E+03    0.13173E-01   -0.10051E-02 40296   0.816E-01    0.142E+00
DAV:  79    -0.668833089455E+03    0.12307E-01   -0.10914E-02 43356   0.731E-01    0.138E+00
DAV:  80    -0.668826177244E+03    0.69122E-02   -0.80164E-03 45228   0.525E-01    0.134E+00
DAV:  81    -0.668820398853E+03    0.57784E-02   -0.57312E-03 47784   0.506E-01    0.131E+00
DAV:  82    -0.668816012437E+03    0.43864E-02   -0.64192E-03 46056   0.397E-01    0.139E+00
DAV:  83    -0.668804144512E+03    0.11868E-01   -0.61802E-03 47436   0.778E-01    0.147E+00
DAV:  84    -0.668804827413E+03   -0.68290E-03   -0.45890E-03 37248   0.185E-01    0.144E+00
DAV:  85    -0.668804500271E+03    0.32714E-03   -0.21877E-04 50928   0.107E-01    0.141E+00
DAV:  86    -0.668812253198E+03   -0.77529E-02   -0.24273E-03 44640   0.606E-01    0.129E+00
DAV:  87    -0.668806748679E+03    0.55045E-02   -0.15108E-03 43908   0.335E-01    0.119E+00
DAV:  88    -0.668805921658E+03    0.82702E-03   -0.35734E-03 44184   0.673E-01    0.114E+00
DAV:  89    -0.668810152819E+03   -0.42312E-02   -0.38180E-03 47316   0.390E-01    0.102E+00
DAV:  90    -0.668811571461E+03   -0.14186E-02   -0.15055E-03 45696   0.258E-01    0.102E+00
DAV:  91    -0.668811388767E+03    0.18269E-03   -0.81680E-04 35112   0.158E-01    0.102E+00
DAV:  92    -0.668804676165E+03    0.67126E-02   -0.17167E-03 42012   0.514E-01    0.111E+00
DAV:  93    -0.668806883080E+03   -0.22069E-02   -0.12346E-03 43836   0.434E-01    0.108E+00
DAV:  94    -0.668804463956E+03    0.24191E-02   -0.13260E-03 45204   0.207E-01    0.113E+00
DAV:  95    -0.668807284958E+03   -0.28210E-02   -0.70250E-04 39228   0.233E-01    0.109E+00
DAV:  96    -0.668825294913E+03   -0.18010E-01   -0.16165E-02 40944   0.137E+00    0.979E-01
DAV:  97    -0.668835889684E+03   -0.10595E-01   -0.42064E-02 44856   0.193E+00    0.109E+00
DAV:  98    -0.668845315847E+03   -0.94262E-02   -0.28811E-02 44592   0.587E-01    0.117E+00
DAV:  99    -0.668848262338E+03   -0.29465E-02   -0.48582E-03 37440   0.164E-01    0.123E+00
DAV: 100    -0.668843792937E+03    0.44694E-02   -0.25564E-03 37200   0.351E-01    0.124E+00
DAV: 101    -0.668817605636E+03    0.26187E-01   -0.43473E-02 40296   0.172E+00    0.127E+00
DAV: 102    -0.668798786693E+03    0.18819E-01   -0.44610E-02 43320   0.159E+00    0.146E+00
DAV: 103    -0.668803641255E+03   -0.48546E-02   -0.20154E-02 35556   0.442E-01    0.132E+00
DAV: 104    -0.668807128754E+03   -0.34875E-02   -0.42319E-04 46680   0.274E-01    0.131E+00
DAV: 105    -0.668803543090E+03    0.35857E-02   -0.51191E-03 37668   0.834E-01    0.142E+00
DAV: 106    -0.668806344243E+03   -0.28012E-02   -0.15961E-03 43080   0.218E-01    0.139E+00
DAV: 107    -0.668807827312E+03   -0.14831E-02   -0.44996E-04 44016   0.133E-01    0.138E+00
DAV: 108    -0.668802934164E+03    0.48931E-02   -0.19950E-03 37548   0.444E-01    0.146E+00
DAV: 109    -0.668807586702E+03   -0.46525E-02   -0.17309E-03 39408   0.436E-01    0.136E+00
DAV: 110    -0.668808224973E+03   -0.63827E-03   -0.37494E-04 43872   0.174E-01    0.131E+00
DAV: 111    -0.668810521749E+03   -0.22968E-02   -0.50313E-04 41964   0.229E-01    0.126E+00
DAV: 112    -0.668816466107E+03   -0.59444E-02   -0.33977E-03 42468   0.545E-01    0.122E+00
DAV: 113    -0.668819427848E+03   -0.29617E-02   -0.29458E-03 45600   0.370E-01    0.119E+00
DAV: 114    -0.668821577960E+03   -0.21501E-02   -0.16825E-03 48564   0.183E-01    0.119E+00
DAV: 115    -0.668822181465E+03   -0.60350E-03   -0.54141E-04 37872   0.543E-02    0.121E+00
DAV: 116    -0.668822350428E+03   -0.16896E-03   -0.18627E-05 23808   0.257E-02    0.120E+00
DAV: 117    -0.668843040945E+03   -0.20691E-01   -0.36394E-02 41064   0.180E+00    0.109E+00
DAV: 118    -0.668845121496E+03   -0.20806E-02   -0.11596E-02 38160   0.259E-01    0.112E+00
DAV: 119    -0.668842160212E+03    0.29613E-02   -0.14203E-03 36360   0.225E-01    0.115E+00
DAV: 120    -0.668841077833E+03    0.10824E-02   -0.19652E-04 37476   0.657E-02    0.114E+00
DAV: 121    -0.668838194338E+03    0.28835E-02   -0.42114E-04 36096   0.148E-01    0.113E+00
DAV: 122    -0.668853899797E+03   -0.15705E-01   -0.12340E-02 39756   0.974E-01    0.117E+00
DAV: 123    -0.668855008627E+03   -0.11088E-02   -0.31156E-03 39480   0.141E-01    0.119E+00
DAV: 124    -0.668844081760E+03    0.10927E-01   -0.12164E-02 39132   0.884E-01    0.119E+00
DAV: 125    -0.668832001432E+03    0.12080E-01   -0.21295E-02 43728   0.108E+00    0.117E+00
DAV: 126    -0.668825381910E+03    0.66195E-02   -0.17003E-02 47376   0.746E-01    0.113E+00
DAV: 127    -0.668813281555E+03    0.12100E-01   -0.24212E-02 41832   0.143E+00    0.127E+00
DAV: 128    -0.668814174232E+03   -0.89268E-03   -0.18083E-02 36648   0.343E-01    0.120E+00
DAV: 129    -0.668803557416E+03    0.10617E-01   -0.85347E-03 41592   0.939E-01    0.141E+00
DAV: 130    -0.668804092795E+03   -0.53538E-03   -0.32390E-03 37848   0.129E-01    0.141E+00
DAV: 131    -0.668804132040E+03   -0.39246E-04   -0.19022E-04 34980   0.609E-02    0.140E+00
DAV: 132    -0.668798901614E+03    0.52304E-02   -0.52833E-03 48396   0.516E-01    0.160E+00
DAV: 133    -0.668799186332E+03   -0.28472E-03   -0.16321E-03 35568   0.865E-02    0.158E+00
DAV: 134    -0.668798635776E+03    0.55056E-03   -0.73363E-05 32664   0.722E-02    0.160E+00
DAV: 135    -0.668799895089E+03   -0.12593E-02   -0.42782E-04 37284   0.198E-01    0.155E+00
DAV: 136    -0.668802794824E+03   -0.28997E-02   -0.13957E-03 47964   0.264E-01    0.148E+00
DAV: 137    -0.668808973593E+03   -0.61788E-02   -0.37501E-03 42648   0.574E-01    0.129E+00
DAV: 138    -0.668818997386E+03   -0.10024E-01   -0.11141E-02 47304   0.754E-01    0.121E+00
DAV: 139    -0.668826069910E+03   -0.70725E-02   -0.87920E-03 47400   0.415E-01    0.124E+00
DAV: 140    -0.668826676523E+03   -0.60661E-03   -0.21320E-03 35448   0.118E-01    0.128E+00
DAV: 141    -0.668826690345E+03   -0.13821E-04   -0.13122E-05 25932   0.149E-02    0.128E+00
DAV: 142    -0.668838137313E+03   -0.11447E-01   -0.88053E-03 41172   0.954E-01    0.122E+00
DAV: 143    -0.668838802138E+03   -0.66483E-03   -0.27594E-03 36612   0.106E-01    0.124E+00
DAV: 144    -0.668836681599E+03    0.21205E-02   -0.63808E-04 37572   0.213E-01    0.127E+00
DAV: 145    -0.668836459877E+03    0.22172E-03   -0.12111E-04 39804   0.954E-02    0.129E+00
DAV: 146    -0.668836723723E+03   -0.26385E-03   -0.40482E-04 44160   0.280E-01    0.134E+00
DAV: 147    -0.668840016987E+03   -0.32933E-02   -0.23338E-03 50784   0.516E-01    0.148E+00
DAV: 148    -0.668841728031E+03   -0.17110E-02   -0.21772E-03 39348   0.158E-01    0.150E+00
DAV: 149    -0.668842850083E+03   -0.11221E-02   -0.21229E-04 46632   0.991E-02    0.152E+00
DAV: 150    -0.668842804444E+03    0.45639E-04   -0.28204E-04 36204   0.954E-02    0.153E+00
DAV: 151    -0.668842470555E+03    0.33389E-03   -0.21435E-04 34968   0.994E-02    0.150E+00
DAV: 152    -0.668839470504E+03    0.30001E-02   -0.52080E-04 49884   0.276E-01    0.142E+00
DAV: 153    -0.668840551431E+03   -0.10809E-02   -0.68628E-04 39792   0.162E-01    0.139E+00
DAV: 154    -0.668840423285E+03    0.12815E-03   -0.25136E-04 37452   0.105E-01    0.134E+00
DAV: 155    -0.668840550976E+03   -0.12769E-03   -0.12227E-04 35184   0.807E-02    0.137E+00
DAV: 156    -0.668843866856E+03   -0.33159E-02   -0.34181E-04 43104   0.202E-01    0.145E+00
DAV: 157    -0.668848618542E+03   -0.47517E-02   -0.13757E-03 44088   0.289E-01    0.164E+00
DAV: 158    -0.668850650850E+03   -0.20323E-02   -0.72771E-04 41436   0.124E-01    0.171E+00
DAV: 159    -0.668850040034E+03    0.61082E-03   -0.18899E-04 36828   0.107E-01    0.165E+00
DAV: 160    -0.668849632340E+03    0.40769E-03   -0.79494E-05 34404   0.758E-02    0.167E+00
DAV: 161    -0.668849248508E+03    0.38383E-03   -0.36557E-04 37296   0.227E-01    0.177E+00
DAV: 162    -0.668842367572E+03    0.68809E-02   -0.11133E-03 48960   0.212E-01    0.159E+00
DAV: 163    -0.668834114651E+03    0.82529E-02   -0.19077E-03 47580   0.368E-01    0.144E+00
DAV: 164    -0.668823648089E+03    0.10467E-01   -0.28869E-03 47880   0.444E-01    0.127E+00
DAV: 165    -0.668813323054E+03    0.10325E-01   -0.53706E-03 47580   0.494E-01    0.102E+00
DAV: 166    -0.668813316073E+03    0.69815E-05   -0.25284E-03 35412   0.133E-01    0.100E+00
DAV: 167    -0.668811947548E+03    0.13685E-02   -0.12007E-02 41064   0.130E+00    0.769E-01
DAV: 168    -0.668812257111E+03   -0.30956E-03   -0.30132E-03 35916   0.169E-01    0.743E-01
DAV: 169    -0.668812285255E+03   -0.28144E-04   -0.12189E-04 36048   0.313E-02    0.747E-01
DAV: 170    -0.668814160911E+03   -0.18757E-02   -0.14009E-04 44196   0.116E-01    0.743E-01
DAV: 171    -0.668817059857E+03   -0.28989E-02   -0.68361E-04 46644   0.215E-01    0.754E-01
DAV: 172    -0.668829237954E+03   -0.12178E-01   -0.11374E-02 42240   0.101E+00    0.745E-01
DAV: 173    -0.668830006896E+03   -0.76894E-03   -0.40673E-03 37320   0.314E-01    0.776E-01
DAV: 174    -0.668828511773E+03    0.14951E-02   -0.34812E-04 36540   0.127E-01    0.775E-01
DAV: 175    -0.668828860168E+03   -0.34840E-03   -0.70586E-05 32676   0.387E-02    0.775E-01
DAV: 176    -0.668827619847E+03    0.12403E-02   -0.49669E-05 28188   0.628E-02    0.779E-01
DAV: 177    -0.668820610994E+03    0.70089E-02   -0.79385E-03 48828   0.111E+00    0.740E-01
DAV: 178    -0.668819543952E+03    0.10670E-02   -0.54115E-03 38892   0.221E-01    0.714E-01
DAV: 179    -0.668820354755E+03   -0.81080E-03   -0.40140E-04 35568   0.102E-01    0.709E-01
DAV: 180    -0.668820687827E+03   -0.33307E-03   -0.37018E-05 31644   0.409E-02    0.703E-01
DAV: 181    -0.668821950256E+03   -0.12624E-02   -0.74668E-04 39048   0.243E-01    0.710E-01
DAV: 182    -0.668817064491E+03    0.48858E-02   -0.41962E-02 40332   0.178E+00    0.801E-01
DAV: 183    -0.668820047381E+03   -0.29829E-02   -0.57309E-03 35568   0.272E-01    0.770E-01
DAV: 184    -0.668821048644E+03   -0.10013E-02   -0.13488E-03 42252   0.515E-01    0.790E-01
DAV: 185    -0.668822633107E+03   -0.15845E-02   -0.41216E-03 44412   0.781E-01    0.834E-01
DAV: 186    -0.668822291808E+03    0.34130E-03   -0.28760E-03 36336   0.305E-01    0.791E-01
DAV: 187    -0.668837255311E+03   -0.14964E-01   -0.28831E-02 42852   0.181E+00    0.780E-01
DAV: 188    -0.668841361768E+03   -0.41065E-02   -0.23016E-02 42504   0.136E+00    0.837E-01
DAV: 189    -0.668847040664E+03   -0.56789E-02   -0.25657E-02 44256   0.135E+00    0.937E-01
DAV: 190    -0.668841493898E+03    0.55468E-02   -0.18246E-02 38088   0.895E-01    0.973E-01
DAV: 191    -0.668833296020E+03    0.81979E-02   -0.92159E-03 47832   0.881E-01    0.928E-01
DAV: 192    -0.668824410252E+03    0.88858E-02   -0.32135E-02 45336   0.177E+00    0.960E-01
DAV: 193    -0.668827301101E+03   -0.28908E-02   -0.14656E-02 37200   0.501E-01    0.852E-01
DAV: 194    -0.668834626608E+03   -0.73255E-02   -0.40635E-03 49740   0.835E-01    0.828E-01
DAV: 195    -0.668841919553E+03   -0.72929E-02   -0.43015E-03 47604   0.530E-01    0.871E-01
DAV: 196    -0.668842982223E+03   -0.10627E-02   -0.19895E-03 38496   0.131E-01    0.896E-01
DAV: 197    -0.668851193550E+03   -0.82113E-02   -0.22599E-02 45660   0.184E+00    0.914E-01
DAV: 198    -0.668850740436E+03    0.45311E-03   -0.92860E-03 35808   0.293E-01    0.971E-01
DAV: 199    -0.668852262547E+03   -0.15221E-02   -0.47520E-04 37896   0.122E-01    0.980E-01
DAV: 200    -0.668850824429E+03    0.14381E-02   -0.12421E-04 33924   0.107E-01
   2 F= -.66885082E+03 E0= -.66884784E+03  d E =-.119445E+00  mag=    -0.0002
       N       E                     dE             d eps       ncg     rms          rms(c)
DAV:   1    -0.668635284461E+03    0.21698E+00   -0.74064E+00 48372   0.359E+01    0.217E+00
DAV:   2    -0.669114885914E+03   -0.47960E+00   -0.48339E+00 39012   0.464E+00    0.149E+00
DAV:   3    -0.669133047137E+03   -0.18161E-01   -0.16547E-01 38136   0.163E+00    0.167E+00
DAV:   4    -0.669131921335E+03    0.11258E-02   -0.12422E-02 37692   0.607E-01    0.136E+00
DAV:   5    -0.669146401555E+03   -0.14480E-01   -0.13759E-02 51468   0.102E+00    0.126E+00
DAV:   6    -0.669171976298E+03   -0.25575E-01   -0.34332E-02 41796   0.143E+00    0.106E+00
DAV:   7    -0.669189650912E+03   -0.17675E-01   -0.27868E-02 42960   0.514E-01    0.119E+00
DAV:   8    -0.669180954718E+03    0.86962E-02   -0.78933E-03 36552   0.397E-01    0.117E+00
DAV:   9    -0.669161007088E+03    0.19948E-01   -0.19339E-02 41940   0.684E-01    0.990E-01
DAV:  10    -0.669118497077E+03    0.42510E-01   -0.11895E-01 40908   0.221E+00    0.657E-01
DAV:  11    -0.669096596139E+03    0.21901E-01   -0.78763E-02 42120   0.172E+00    0.676E-01
DAV:  12    -0.669097918154E+03   -0.13220E-02   -0.33033E-02 36948   0.394E-01    0.648E-01
DAV:  13    -0.669093785939E+03    0.41322E-02   -0.62224E-03 48132   0.282E-01    0.724E-01
DAV:  14    -0.669088883023E+03    0.49029E-02   -0.20644E-03 45480   0.429E-01    0.866E-01
DAV:  15    -0.669096232382E+03   -0.73494E-02   -0.34964E-03 40932   0.543E-01    0.661E-01
DAV:  16    -0.669094433365E+03    0.17990E-02   -0.81277E-03 42660   0.712E-01    0.662E-01
DAV:  17    -0.669074884972E+03    0.19548E-01   -0.32979E-02 38952   0.158E+00    0.988E-01
DAV:  18    -0.669079946818E+03   -0.50618E-02   -0.88609E-03 36936   0.421E-01    0.871E-01
DAV:  19    -0.669079876562E+03    0.70256E-04   -0.94212E-04 36972   0.675E-02    0.868E-01
DAV:  20    -0.669079789467E+03    0.87095E-04   -0.12683E-05 24528   0.904E-03    0.868E-01
DAV:  21    -0.669079301125E+03    0.48834E-03   -0.17189E-04 40968   0.104E-01    0.892E-01
DAV:  22    -0.669072610592E+03    0.66905E-02   -0.28548E-03 41940   0.430E-01    0.949E-01
DAV:  23    -0.669072232707E+03    0.37788E-03   -0.11454E-03 36696   0.688E-02    0.931E-01
DAV:  24    -0.669070852507E+03    0.13802E-02   -0.47955E-04 44076   0.125E-01    0.972E-01
DAV:  25    -0.669071129355E+03   -0.27685E-03   -0.94921E-05 35028   0.348E-02    0.964E-01
DAV:  26    -0.669074504573E+03   -0.33752E-02   -0.35187E-04 43668   0.252E-01    0.911E-01
DAV:  27    -0.669082617055E+03   -0.81125E-02   -0.27895E-03 41472   0.592E-01    0.822E-01
DAV:  28    -0.669083187859E+03   -0.57080E-03   -0.58243E-03 42432   0.369E-01    0.932E-01
DAV:  29    -0.669079950475E+03    0.32374E-02   -0.36221E-03 43656   0.310E-01    0.103E+00
DAV:  30    -0.669081083770E+03   -0.11333E-02   -0.93530E-04 35508   0.130E-01    0.995E-01
DAV:  31    -0.669079872906E+03    0.12109E-02   -0.23728E-04 34956   0.107E-01    0.102E+00
DAV:  32    -0.669078956064E+03    0.91684E-03   -0.21612E-04 42300   0.813E-02    0.104E+00
DAV:  33    -0.669082853833E+03   -0.38978E-02   -0.27885E-03 39720   0.355E-01    0.939E-01
DAV:  34    -0.669082984105E+03   -0.13027E-03   -0.33819E-04 35556   0.368E-02    0.948E-01
DAV:  35    -0.669083120108E+03   -0.13600E-03   -0.43044E-06 21456   0.836E-03    0.947E-01
DAV:  36    -0.669083110652E+03    0.94564E-05   -0.13681E-05 21624   0.323E-02
   3 F= -.66908311E+03 E0= -.66907687E+03  d E =-.232286E+00  mag=     0.0001
       N       E                     dE             d eps       ncg     rms          rms(c)
DAV:   1    -0.664771999394E+03    0.43111E+01   -0.83166E+01 48708   0.107E+02    0.702E+00
DAV:   2    -0.669339375181E+03   -0.45674E+01   -0.45963E+01 37800   0.137E+01    0.464E+00
DAV:   3    -0.669408473717E+03   -0.69099E-01   -0.18214E+00 36828   0.691E+00    0.330E+00
DAV:   4    -0.669381732306E+03    0.26741E-01   -0.23130E-01 37452   0.330E+00    0.236E+00
DAV:   5    -0.669384189223E+03   -0.24569E-02   -0.85115E-02 37860   0.199E+00    0.142E+00
DAV:   6    -0.669382580932E+03    0.16083E-02   -0.63667E-02 37680   0.173E+00    0.578E-01
DAV:   7    -0.669384401527E+03   -0.18206E-02   -0.18820E-02 36444   0.880E-01    0.320E-01
DAV:   8    -0.669385238518E+03   -0.83699E-03   -0.54299E-03 36564   0.432E-01    0.228E-01
DAV:   9    -0.669386012340E+03   -0.77382E-03   -0.13657E-03 37020   0.242E-01    0.163E-01
DAV:  10    -0.669387290847E+03   -0.12785E-02   -0.70548E-04 37584   0.207E-01    0.118E-01
DAV:  11    -0.669388900751E+03   -0.16099E-02   -0.39329E-04 46836   0.209E-01    0.732E-02
DAV:  12    -0.669389934055E+03   -0.10333E-02   -0.35729E-04 43188   0.107E-01    0.671E-02
DAV:  13    -0.669390768276E+03   -0.83422E-03   -0.11240E-04 40500   0.750E-02    0.606E-02
DAV:  14    -0.669392854553E+03   -0.20863E-02   -0.11248E-04 32280   0.177E-01    0.534E-02
DAV:  15    -0.669395866967E+03   -0.30124E-02   -0.36335E-04 47640   0.256E-01    0.497E-02
DAV:  16    -0.669397608197E+03   -0.17412E-02   -0.42052E-04 47028   0.138E-01    0.486E-02
DAV:  17    -0.669398511970E+03   -0.90377E-03   -0.18869E-04 42264   0.648E-02    0.465E-02
DAV:  18    -0.669400543212E+03   -0.20312E-02   -0.46889E-05 29388   0.150E-01    0.414E-02
DAV:  19    -0.669405233408E+03   -0.46902E-02   -0.46026E-04 47772   0.347E-01    0.396E-02
DAV:  20    -0.669409521470E+03   -0.42881E-02   -0.66657E-04 45960   0.296E-01    0.387E-02
DAV:  21    -0.669411928129E+03   -0.24067E-02   -0.61878E-04 46956   0.155E-01    0.369E-02
DAV:  22    -0.669414120815E+03   -0.21927E-02   -0.10269E-04 37476   0.132E-01    0.341E-02
DAV:  23    -0.669418467226E+03   -0.43464E-02   -0.21023E-04 45624   0.275E-01    0.315E-02
DAV:  24    -0.669422818127E+03   -0.43509E-02   -0.54247E-04 46512   0.274E-01    0.279E-02
DAV:  25    -0.669424149232E+03   -0.13311E-02   -0.66104E-04 43248   0.104E-01    0.225E-02
DAV:  26    -0.669425895464E+03   -0.17462E-02   -0.29766E-05 27840   0.106E-01    0.190E-02
DAV:  27    -0.669424241043E+03    0.16544E-02   -0.12633E-04 30276   0.132E-01    0.214E-02
DAV:  28    -0.669425497133E+03   -0.12561E-02   -0.39865E-05 29496   0.840E-02    0.178E-02
DAV:  29    -0.669426115268E+03   -0.61814E-03   -0.25565E-05 27624   0.693E-02    0.180E-02
DAV:  30    -0.669427597627E+03   -0.14824E-02   -0.53856E-05 33828   0.112E-01    0.166E-02
DAV:  31    -0.669428101401E+03   -0.50377E-03   -0.98501E-05 41544   0.793E-02    0.187E-02
DAV:  32    -0.669427450491E+03    0.65091E-03   -0.81335E-05 31152   0.737E-02    0.222E-02
DAV:  33    -0.669429651954E+03   -0.22015E-02   -0.10103E-04 31068   0.179E-01    0.223E-02
DAV:  34    -0.669430637941E+03   -0.98599E-03   -0.98403E-05 43224   0.104E-01    0.222E-02
DAV:  35    -0.669430995357E+03   -0.35742E-03   -0.74271E-05 37536   0.479E-02    0.245E-02
DAV:  36    -0.669431136660E+03   -0.14130E-03   -0.18582E-05 25752   0.255E-02    0.250E-02
DAV:  37    -0.669432481631E+03   -0.13450E-02   -0.27403E-05 28212   0.121E-01    0.231E-02
DAV:  38    -0.669433408847E+03   -0.92722E-03   -0.79872E-05 40752   0.907E-02    0.221E-02
DAV:  39    -0.669433470365E+03   -0.61519E-04   -0.62449E-05 28488   0.194E-02    0.241E-02
DAV:  40    -0.669433753914E+03   -0.28355E-03   -0.13656E-06 18456   0.303E-02    0.266E-02
DAV:  41    -0.669432158261E+03    0.15957E-02   -0.61802E-05 29460   0.155E-01    0.351E-02
DAV:  42    -0.669431815008E+03    0.34325E-03   -0.91890E-05 41604   0.113E-01    0.492E-02
DAV:  43    -0.669430708919E+03    0.11061E-02   -0.91110E-05 40140   0.117E-01    0.562E-02
DAV:  44    -0.669430605956E+03    0.10296E-03   -0.11251E-04 32940   0.339E-02    0.540E-02
DAV:  45    -0.669430611871E+03   -0.59147E-05   -0.13993E-05 23844   0.106E-02
   4 F= -.66943061E+03 E0= -.66942351E+03  d E =-.347501E+00  mag=    -0.0001
       N       E                     dE             d eps       ncg     rms          rms(c)
DAV:   1    -0.669347844913E+03    0.82761E-01   -0.18551E+00 48648   0.177E+01    0.925E-01
DAV:   2    -0.669464774432E+03   -0.11693E+00   -0.11892E+00 37896   0.207E+00    0.561E-01
DAV:   3    -0.669466205877E+03   -0.14314E-02   -0.22475E-02 38556   0.570E-01    0.402E-01
DAV:   4    -0.669466200061E+03    0.58158E-05   -0.44241E-03 36864   0.509E-01    0.322E-01
DAV:   5    -0.669466128402E+03    0.71660E-04   -0.25451E-03 43440   0.392E-01    0.134E-01
DAV:   6    -0.669466153948E+03   -0.25547E-04   -0.11254E-03 36924   0.210E-01    0.720E-02
DAV:   7    -0.669466184694E+03   -0.30746E-04   -0.33679E-04 38400   0.110E-01    0.454E-02
DAV:   8    -0.669466249379E+03   -0.64685E-04   -0.12067E-04 35928   0.664E-02    0.317E-02
DAV:   9    -0.669466287037E+03   -0.37657E-04   -0.24863E-05 27372   0.397E-02    0.220E-02
DAV:  10    -0.669466373022E+03   -0.85985E-04   -0.96622E-06 21924   0.373E-02    0.174E-02
DAV:  11    -0.669466460843E+03   -0.87821E-04   -0.11161E-05 21624   0.385E-02    0.148E-02
DAV:  12    -0.669466531010E+03   -0.70166E-04   -0.20114E-05 25836   0.263E-02    0.152E-02
DAV:  13    -0.669466546148E+03   -0.15138E-04   -0.15708E-05 25296   0.973E-03    0.153E-02
DAV:  14    -0.669466530831E+03    0.15317E-04   -0.81895E-07 17928   0.686E-03    0.162E-02
DAV:  15    -0.669466651862E+03   -0.12103E-03   -0.46457E-06 20148   0.415E-02    0.131E-02
DAV:  16    -0.669466981386E+03   -0.32952E-03   -0.36759E-05 30204   0.108E-01    0.147E-02
DAV:  17    -0.669467522623E+03   -0.54124E-03   -0.13292E-04 41664   0.159E-01    0.200E-02
DAV:  18    -0.669467452676E+03    0.69947E-04   -0.10209E-04 31404   0.415E-02    0.186E-02
DAV:  19    -0.669467430865E+03    0.21811E-04   -0.33713E-06 18012   0.675E-03    0.186E-02
DAV:  20    -0.669467441895E+03   -0.11030E-04   -0.25053E-06 18000   0.728E-03    0.189E-02
DAV:  21    -0.669467664434E+03   -0.22254E-03   -0.17842E-05 24228   0.605E-02    0.288E-02
DAV:  22    -0.669467831158E+03   -0.16672E-03   -0.11718E-05 23412   0.428E-02    0.313E-02
DAV:  23    -0.669468059826E+03   -0.22867E-03   -0.15885E-05 24000   0.544E-02    0.315E-02
DAV:  24    -0.669468220594E+03   -0.16077E-03   -0.23903E-05 27348   0.347E-02    0.300E-02
DAV:  25    -0.669468369897E+03   -0.14930E-03   -0.73582E-06 19824   0.311E-02    0.278E-02
DAV:  26    -0.669468585167E+03   -0.21527E-03   -0.71043E-06 20292   0.431E-02    0.255E-02
DAV:  27    -0.669468695287E+03   -0.11012E-03   -0.30081E-05 31128   0.219E-02    0.247E-02
DAV:  28    -0.669468699952E+03   -0.46655E-05   -0.90055E-06 20712   0.785E-03
   5 F= -.66946870E+03 E0= -.66946160E+03  d E =-.380881E-01  mag=    -0.0002
       N       E                     dE             d eps       ncg     rms          rms(c)
DAV:   1    -0.668012858881E+03    0.14558E+01   -0.25814E+01 48228   0.591E+01    0.351E+00
DAV:   2    -0.669432567234E+03   -0.14197E+01   -0.14444E+01 37644   0.724E+00    0.221E+00
DAV:   3    -0.669451484335E+03   -0.18917E-01   -0.36286E-01 37236   0.270E+00    0.169E+00
DAV:   4    -0.669447688994E+03    0.37953E-02   -0.70709E-02 38076   0.175E+00    0.127E+00
DAV:   5    -0.669447576212E+03    0.11278E-03   -0.26022E-02 40044   0.114E+00    0.695E-01
DAV:   6    -0.669446133089E+03    0.14431E-02   -0.19633E-02 37044   0.885E-01    0.328E-01
DAV:   7    -0.669446074162E+03    0.58927E-04   -0.51144E-03 36756   0.455E-01    0.170E-01
DAV:   8    -0.669446017947E+03    0.56215E-04   -0.18836E-03 36828   0.255E-01    0.125E-01
DAV:   9    -0.669445851481E+03    0.16647E-03   -0.53469E-04 36792   0.184E-01    0.810E-02
DAV:  10    -0.669445616647E+03    0.23483E-03   -0.16249E-04 36996   0.882E-02    0.579E-02
DAV:  11    -0.669445428167E+03    0.18848E-03   -0.91745E-05 44736   0.880E-02    0.387E-02
DAV:  12    -0.669445251913E+03    0.17625E-03   -0.65629E-05 42780   0.575E-02    0.324E-02
DAV:  13    -0.669445140586E+03    0.11133E-03   -0.30136E-05 28692   0.361E-02    0.300E-02
DAV:  14    -0.669444882988E+03    0.25760E-03   -0.20328E-05 25440   0.784E-02    0.258E-02
DAV:  15    -0.669444412900E+03    0.47009E-03   -0.10890E-04 40320   0.157E-01    0.206E-02
DAV:  16    -0.669444156067E+03    0.25683E-03   -0.14732E-04 45348   0.854E-02    0.206E-02
DAV:  17    -0.669444101524E+03    0.54543E-04   -0.80910E-05 31596   0.263E-02    0.202E-02
DAV:  18    -0.669444064649E+03    0.36874E-04   -0.34522E-06 18072   0.118E-02    0.195E-02
DAV:  19    -0.669443922006E+03    0.14264E-03   -0.46094E-06 20112   0.536E-02    0.153E-02
DAV:  20    -0.669443556407E+03    0.36560E-03   -0.89654E-05 37344   0.154E-01    0.156E-02
DAV:  21    -0.669443332804E+03    0.22360E-03   -0.12083E-04 44172   0.102E-01    0.162E-02
DAV:  22    -0.669443328515E+03    0.42889E-05   -0.87150E-05 29352   0.232E-02
   6 F= -.66944333E+03 E0= -.66943671E+03  d E =0.253714E-01  mag=    -0.0007
       N       E                     dE             d eps       ncg     rms          rms(c)
DAV:   1    -0.669088469914E+03    0.35486E+00   -0.16373E+01 45576   0.286E+01    0.167E+00
DAV:   2    -0.669445157320E+03   -0.35669E+00   -0.37216E+00 38304   0.429E+00    0.142E+00
DAV:   3    -0.669447047199E+03   -0.18899E-02   -0.12530E-01 36456   0.206E+00    0.104E+00
DAV:   4    -0.669445241715E+03    0.18055E-02   -0.21423E-02 37944   0.103E+00    0.777E-01
DAV:   5    -0.669446024480E+03   -0.78277E-03   -0.93137E-03 39684   0.825E-01    0.495E-01
DAV:   6    -0.669446632424E+03   -0.60794E-03   -0.10257E-02 36900   0.657E-01    0.205E-01
DAV:   7    -0.669447020219E+03   -0.38780E-03   -0.24697E-03 37500   0.279E-01    0.126E-01
DAV:   8    -0.669447393443E+03   -0.37322E-03   -0.81222E-04 37380   0.145E-01    0.108E-01
DAV:   9    -0.669447730869E+03   -0.33743E-03   -0.25067E-04 36792   0.105E-01    0.952E-02
DAV:  10    -0.669448338858E+03   -0.60799E-03   -0.91508E-05 42576   0.103E-01    0.798E-02
DAV:  11    -0.669449190144E+03   -0.85129E-03   -0.14019E-04 43224   0.141E-01    0.602E-02
DAV:  12    -0.669449971547E+03   -0.78140E-03   -0.21599E-04 46500   0.122E-01    0.524E-02
DAV:  13    -0.669450469255E+03   -0.49771E-03   -0.16590E-04 45636   0.773E-02    0.533E-02
DAV:  14    -0.669451374337E+03   -0.90508E-03   -0.11926E-04 32232   0.126E-01    0.549E-02
DAV:  15    -0.669453284844E+03   -0.19105E-02   -0.54761E-04 46404   0.291E-01    0.404E-02
DAV:  16    -0.669454317226E+03   -0.10324E-02   -0.57507E-04 47580   0.153E-01    0.303E-02
DAV:  17    -0.669454987843E+03   -0.67062E-03   -0.28660E-04 46752   0.876E-02    0.303E-02
DAV:  18    -0.669455766707E+03   -0.77886E-03   -0.69283E-05 30828   0.105E-01    0.263E-02
DAV:  19    -0.669456861048E+03   -0.10943E-02   -0.17856E-04 44868   0.160E-01    0.208E-02
DAV:  20    -0.669457998829E+03   -0.11378E-02   -0.28199E-04 44664   0.164E-01    0.207E-02
DAV:  21    -0.669458700941E+03   -0.70211E-03   -0.28846E-04 45696   0.967E-02    0.212E-02
DAV:  22    -0.669458896508E+03   -0.19557E-03   -0.15453E-04 32304   0.298E-02    0.233E-02
DAV:  23    -0.669458889357E+03    0.71510E-05   -0.11629E-05 23244   0.111E-02
   7 F= -.66945889E+03 E0= -.66945511E+03  d E =-.155608E-01  mag=    -0.0014
       N       E                     dE             d eps       ncg     rms          rms(c)
DAV:   1    -0.661242121167E+03    0.82168E+01   -0.12125E+02 50064   0.143E+02    0.101E+01
DAV:   2    -0.669088228947E+03   -0.78461E+01   -0.79146E+01 37956   0.192E+01    0.737E+00
DAV:   3    -0.669246752380E+03   -0.15852E+00   -0.44955E+00 37284   0.116E+01    0.508E+00
DAV:   4    -0.669174673466E+03    0.72079E-01   -0.71651E-01 38100   0.517E+00    0.331E+00
DAV:   5    -0.669182046831E+03   -0.73734E-02   -0.13521E-01 38124   0.286E+00    0.255E+00
DAV:   6    -0.669173544422E+03    0.85024E-02   -0.11148E-01 38484   0.243E+00    0.143E+00
DAV:   7    -0.669177738183E+03   -0.41938E-02   -0.59971E-02 36864   0.176E+00    0.720E-01
DAV:   8    -0.669179844824E+03   -0.21066E-02   -0.18477E-02 37020   0.820E-01    0.430E-01
DAV:   9    -0.669180644831E+03   -0.80001E-03   -0.69099E-03 37188   0.550E-01    0.319E-01
DAV:  10    -0.669181544076E+03   -0.89924E-03   -0.17882E-03 38028   0.246E-01    0.271E-01
DAV:  11    -0.669183009707E+03   -0.14656E-02   -0.56784E-04 40248   0.205E-01    0.213E-01
DAV:  12    -0.669185474156E+03   -0.24644E-02   -0.75858E-04 44028   0.288E-01    0.152E-01
DAV:  13    -0.669187717790E+03   -0.22436E-02   -0.99810E-04 47052   0.210E-01    0.151E-01
DAV:  14    -0.669189287079E+03   -0.15693E-02   -0.68774E-04 48468   0.133E-01    0.174E-01
DAV:  15    -0.669188224615E+03    0.10625E-02   -0.52465E-04 36468   0.134E-01    0.164E-01
DAV:  16    -0.669185274145E+03    0.29505E-02   -0.95104E-04 41340   0.286E-01    0.155E-01
DAV:  17    -0.669182823386E+03    0.24508E-02   -0.10231E-03 45972   0.268E-01    0.168E-01
DAV:  18    -0.669187171894E+03   -0.43485E-02   -0.21939E-03 40860   0.472E-01    0.162E-01
DAV:  19    -0.669199144364E+03   -0.11972E-01   -0.12658E-02 43920   0.119E+00    0.185E-01
DAV:  20    -0.669205045632E+03   -0.59013E-02   -0.89950E-03 47628   0.475E-01    0.226E-01
DAV:  21    -0.669201024993E+03    0.40206E-02   -0.43442E-03 38328   0.420E-01    0.190E-01
DAV:  22    -0.669200616730E+03    0.40826E-03   -0.25911E-04 38856   0.662E-02    0.177E-01
DAV:  23    -0.669196430412E+03    0.41863E-02   -0.25251E-03 46188   0.476E-01    0.174E-01
DAV:  24    -0.669190632235E+03    0.57982E-02   -0.58581E-03 44676   0.624E-01    0.180E-01
DAV:  25    -0.669187032487E+03    0.35997E-02   -0.54078E-03 47484   0.431E-01    0.174E-01
DAV:  26    -0.669186760322E+03    0.27216E-03   -0.25650E-03 37944   0.116E-01    0.186E-01
DAV:  27    -0.669186559653E+03    0.20067E-03   -0.73191E-05 33036   0.237E-02    0.192E-01
DAV:  28    -0.669186539637E+03    0.20016E-04   -0.20731E-05 26784   0.106E-02    0.195E-01
DAV:  29    -0.669186089085E+03    0.45055E-03   -0.31749E-05 27528   0.608E-02    0.204E-01
DAV:  30    -0.669190044760E+03   -0.39557E-02   -0.20687E-03 42228   0.480E-01    0.167E-01
DAV:  31    -0.669194093188E+03   -0.40484E-02   -0.28301E-03 47820   0.436E-01    0.132E-01
DAV:  32    -0.669194419638E+03   -0.32645E-03   -0.23621E-03 35388   0.121E-01    0.182E-01
DAV:  33    -0.669194606429E+03   -0.18679E-03   -0.84302E-05 33948   0.393E-02    0.181E-01
DAV:  34    -0.669194692693E+03   -0.86264E-04   -0.10779E-05 21672   0.219E-02    0.177E-01
DAV:  35    -0.669193269297E+03    0.14234E-02   -0.52235E-04 37716   0.198E-01    0.197E-01
DAV:  36    -0.669191143036E+03    0.21263E-02   -0.13383E-03 40656   0.301E-01    0.237E-01
DAV:  37    -0.669194678318E+03   -0.35353E-02   -0.26317E-03 39732   0.494E-01    0.177E-01
DAV:  38    -0.669199231455E+03   -0.45531E-02   -0.43859E-03 41244   0.583E-01    0.171E-01
DAV:  39    -0.669204448654E+03   -0.52172E-02   -0.48310E-03 41448   0.553E-01    0.285E-01
DAV:  40    -0.669204278099E+03    0.17056E-03   -0.24397E-03 35640   0.141E-01    0.309E-01
DAV:  41    -0.669204220721E+03    0.57378E-04   -0.80683E-05 36072   0.344E-02    0.348E-01
DAV:  42    -0.669205351773E+03   -0.11311E-02   -0.13520E-04 31884   0.108E-01    0.340E-01
DAV:  43    -0.669203871239E+03    0.14805E-02   -0.29537E-04 32784   0.158E-01    0.343E-01
DAV:  44    -0.669203490371E+03    0.38087E-03   -0.89221E-05 36372   0.625E-02    0.343E-01
DAV:  45    -0.669201249013E+03    0.22414E-02   -0.99947E-04 41976   0.275E-01    0.345E-01
DAV:  46    -0.669200539782E+03    0.70923E-03   -0.68318E-04 45156   0.112E-01    0.323E-01
DAV:  47    -0.669199807229E+03    0.73255E-03   -0.22626E-04 40032   0.633E-02    0.354E-01
DAV:  48    -0.669199572411E+03    0.23482E-03   -0.54455E-05 33564   0.438E-02    0.346E-01
DAV:  49    -0.669201160407E+03   -0.15880E-02   -0.28506E-04 35940   0.152E-01    0.349E-01
DAV:  50    -0.669200869936E+03    0.29047E-03   -0.41266E-05 29124   0.565E-02    0.347E-01
DAV:  51    -0.669199443029E+03    0.14269E-02   -0.90930E-04 42048   0.272E-01    0.348E-01
DAV:  52    -0.669193921827E+03    0.55212E-02   -0.14440E-02 42996   0.110E+00    0.369E-01
DAV:  53    -0.669192417988E+03    0.15038E-02   -0.94543E-03 45600   0.374E-01    0.369E-01
DAV:  54    -0.669192636856E+03   -0.21887E-03   -0.22690E-03 35916   0.106E-01    0.409E-01
DAV:  55    -0.669192728751E+03   -0.91895E-04   -0.26269E-05 30348   0.182E-02    0.416E-01
DAV:  56    -0.669193022633E+03   -0.29388E-03   -0.58953E-05 27948   0.736E-02    0.389E-01
DAV:  57    -0.669190667026E+03    0.23556E-02   -0.11500E-03 39192   0.389E-01    0.415E-01
DAV:  58    -0.669190781822E+03   -0.11480E-03   -0.31812E-04 36132   0.533E-02    0.421E-01
DAV:  59    -0.669190623049E+03    0.15877E-03   -0.10113E-05 22812   0.248E-02    0.403E-01
DAV:  60    -0.669189970788E+03    0.65226E-03   -0.29518E-04 35484   0.158E-01    0.424E-01
DAV:  61    -0.669189833380E+03    0.13741E-03   -0.12196E-04 40716   0.360E-02    0.428E-01
DAV:  62    -0.669188102221E+03    0.17312E-02   -0.17767E-03 40524   0.401E-01    0.439E-01
DAV:  63    -0.669188011287E+03    0.90933E-04   -0.30389E-04 38352   0.128E-01    0.415E-01
DAV:  64    -0.669186979575E+03    0.10317E-02   -0.16738E-04 38532   0.105E-01    0.428E-01
DAV:  65    -0.669187368011E+03   -0.38844E-03   -0.77390E-05 33804   0.424E-02    0.437E-01
DAV:  66    -0.669188360352E+03   -0.99234E-03   -0.11574E-04 29952   0.114E-01    0.428E-01
DAV:  67    -0.669190842711E+03   -0.24824E-02   -0.10844E-03 42504   0.293E-01    0.376E-01
DAV:  68    -0.669191837128E+03   -0.99442E-03   -0.67166E-04 45660   0.140E-01    0.393E-01
DAV:  69    -0.669194098784E+03   -0.22617E-02   -0.28064E-04 46464   0.174E-01    0.418E-01
DAV:  70    -0.669196432417E+03   -0.23336E-02   -0.41118E-04 42864   0.182E-01    0.461E-01
DAV:  71    -0.669197032293E+03   -0.59988E-03   -0.34496E-04 41676   0.626E-02    0.473E-01
DAV:  72    -0.669193159702E+03    0.38726E-02   -0.28035E-03 40344   0.427E-01    0.342E-01
DAV:  73    -0.669194220665E+03   -0.10610E-02   -0.70603E-04 41268   0.234E-01    0.315E-01
DAV:  74    -0.669194382649E+03   -0.16198E-03   -0.26974E-04 37296   0.379E-02    0.309E-01
DAV:  75    -0.669195797376E+03   -0.14147E-02   -0.39504E-04 37404   0.208E-01    0.282E-01
DAV:  76    -0.669195495719E+03    0.30166E-03   -0.10839E-04 36636   0.814E-02    0.286E-01
DAV:  77    -0.669195430205E+03    0.65514E-04   -0.96326E-04 43980   0.366E-01    0.374E-01
DAV:  78    -0.669196734750E+03   -0.13045E-02   -0.40908E-04 41820   0.153E-01    0.365E-01
DAV:  79    -0.669196731236E+03    0.35132E-05   -0.70475E-05 34032   0.215E-02
   8 F= -.66919673E+03 E0= -.66919293E+03  d E =0.262158E+00  mag=    -0.0003
       N       E                     dE             d eps       ncg     rms          rms(c)
DAV:   1    -0.667738051117E+03    0.14587E+01   -0.26962E+01 48780   0.714E+01    0.388E+00
DAV:   2    -0.669493113889E+03   -0.17551E+01   -0.17926E+01 38268   0.853E+00    0.241E+00
DAV:   3    -0.669522276045E+03   -0.29162E-01   -0.49616E-01 36768   0.360E+00    0.202E+00
DAV:   4    -0.669514065749E+03    0.82103E-02   -0.88186E-02 37956   0.221E+00    0.132E+00
DAV:   5    -0.669514461386E+03   -0.39564E-03   -0.26789E-02 40824   0.120E+00    0.907E-01
DAV:   6    -0.669515179108E+03   -0.71772E-03   -0.26957E-02 37488   0.129E+00    0.362E-01
DAV:   7    -0.669515778457E+03   -0.59935E-03   -0.91695E-03 37500   0.573E-01    0.311E-01
DAV:   8    -0.669516646660E+03   -0.86820E-03   -0.28424E-03 37836   0.355E-01    0.202E-01
DAV:   9    -0.669517326735E+03   -0.68008E-03   -0.94974E-04 38184   0.213E-01    0.157E-01
DAV:  10    -0.669518367338E+03   -0.10406E-02   -0.51076E-04 45108   0.173E-01    0.158E-01
DAV:  11    -0.669519492918E+03   -0.11256E-02   -0.44694E-04 45312   0.145E-01    0.162E-01
DAV:  12    -0.669519907882E+03   -0.41496E-03   -0.37692E-04 41232   0.578E-02    0.162E-01
DAV:  13    -0.669520322339E+03   -0.41446E-03   -0.64345E-05 23784   0.442E-02    0.179E-01
DAV:  14    -0.669517523976E+03    0.27984E-02   -0.26008E-03 38880   0.381E-01    0.148E-01
DAV:  15    -0.669513436979E+03    0.40870E-02   -0.51228E-03 41736   0.615E-01    0.197E-01
DAV:  16    -0.669511316706E+03    0.21203E-02   -0.37934E-03 46524   0.347E-01    0.217E-01
DAV:  17    -0.669510804945E+03    0.51176E-03   -0.17928E-03 41040   0.109E-01    0.197E-01
DAV:  18    -0.669508238415E+03    0.25665E-02   -0.17591E-03 45528   0.396E-01    0.239E-01
DAV:  19    -0.669510264732E+03   -0.20263E-02   -0.98269E-04 38952   0.334E-01    0.193E-01
DAV:  20    -0.669515715882E+03   -0.54512E-02   -0.84996E-03 42012   0.848E-01    0.171E-01
DAV:  21    -0.669524225587E+03   -0.85097E-02   -0.21002E-02 43188   0.116E+00    0.299E-01
DAV:  22    -0.669523417657E+03    0.80793E-03   -0.72198E-03 35976   0.333E-01    0.265E-01
DAV:  23    -0.669522734999E+03    0.68266E-03   -0.21725E-04 40488   0.792E-02    0.256E-01
DAV:  24    -0.669521161087E+03    0.15739E-02   -0.53588E-04 48132   0.189E-01    0.240E-01
DAV:  25    -0.669521068237E+03    0.92850E-04   -0.28757E-04 36348   0.385E-02    0.241E-01
DAV:  26    -0.669520339443E+03    0.72879E-03   -0.11482E-04 29520   0.962E-02    0.238E-01
DAV:  27    -0.669520430578E+03   -0.91135E-04   -0.32682E-05 31716   0.197E-02    0.238E-01
DAV:  28    -0.669520472785E+03   -0.42207E-04   -0.48555E-06 19236   0.133E-02    0.244E-01
DAV:  29    -0.669520503261E+03   -0.30476E-04   -0.20464E-06 18792   0.168E-02    0.237E-01
DAV:  30    -0.669523905782E+03   -0.34025E-02   -0.27854E-03 46236   0.547E-01    0.208E-01
DAV:  31    -0.669527917212E+03   -0.40114E-02   -0.56064E-03 46716   0.560E-01    0.237E-01
DAV:  32    -0.669529468260E+03   -0.15510E-02   -0.42117E-03 40824   0.170E-01    0.296E-01
DAV:  33    -0.669531015655E+03   -0.15474E-02   -0.32990E-04 49488   0.150E-01    0.309E-01
DAV:  34    -0.669531017026E+03   -0.13712E-05   -0.34699E-04 35160   0.518E-02    0.327E-01
DAV:  35    -0.669531213886E+03   -0.19686E-03   -0.10867E-05 23028   0.250E-02    0.325E-01
DAV:  36    -0.669532193034E+03   -0.97915E-03   -0.14788E-04 34092   0.105E-01    0.340E-01
DAV:  37    -0.669537875070E+03   -0.56820E-02   -0.46355E-03 42612   0.604E-01    0.435E-01
DAV:  38    -0.669535327639E+03    0.25474E-02   -0.15798E-03 38112   0.310E-01    0.412E-01
DAV:  39    -0.669534634874E+03    0.69277E-03   -0.98517E-05 37140   0.810E-02    0.402E-01
DAV:  40    -0.669532908688E+03    0.17262E-02   -0.55867E-04 50616   0.213E-01    0.371E-01
DAV:  41    -0.669529146081E+03    0.37626E-02   -0.29076E-03 42564   0.469E-01    0.347E-01
DAV:  42    -0.669526053600E+03    0.30925E-02   -0.42504E-03 45060   0.444E-01    0.309E-01
DAV:  43    -0.669529288067E+03   -0.32345E-02   -0.37407E-03 39660   0.468E-01    0.304E-01
DAV:  44    -0.669525711514E+03    0.35766E-02   -0.26893E-03 39504   0.491E-01    0.279E-01
DAV:  45    -0.669525134496E+03    0.57702E-03   -0.10935E-03 41820   0.108E-01    0.274E-01
DAV:  46    -0.669525768840E+03   -0.63434E-03   -0.31515E-04 35736   0.111E-01    0.261E-01
DAV:  47    -0.669524975534E+03    0.79331E-03   -0.17075E-04 32196   0.110E-01    0.257E-01
DAV:  48    -0.669523927693E+03    0.10478E-02   -0.57677E-04 38952   0.158E-01    0.248E-01
DAV:  49    -0.669519350976E+03    0.45767E-02   -0.91709E-03 41364   0.700E-01    0.264E-01
DAV:  50    -0.669515336759E+03    0.40142E-02   -0.81418E-03 44508   0.663E-01    0.278E-01
DAV:  51    -0.669516379366E+03   -0.10426E-02   -0.40454E-03 35640   0.197E-01    0.220E-01
DAV:  52    -0.669517010965E+03   -0.63160E-03   -0.12143E-04 33696   0.104E-01    0.215E-01
DAV:  53    -0.669518667583E+03   -0.16566E-02   -0.69259E-04 44808   0.251E-01    0.209E-01
DAV:  54    -0.669519077269E+03   -0.40969E-03   -0.30405E-04 41124   0.605E-02    0.201E-01
DAV:  55    -0.669518236692E+03    0.84058E-03   -0.37726E-04 37620   0.179E-01    0.202E-01
DAV:  56    -0.669518345329E+03   -0.10864E-03   -0.20939E-04 44616   0.842E-02    0.191E-01
DAV:  57    -0.669519708674E+03   -0.13633E-02   -0.99411E-04 39612   0.298E-01    0.168E-01
DAV:  58    -0.669520504959E+03   -0.79629E-03   -0.30067E-04 46068   0.101E-01    0.167E-01
DAV:  59    -0.669520381909E+03    0.12305E-03   -0.11983E-04 39288   0.835E-02    0.173E-01
DAV:  60    -0.669519865951E+03    0.51596E-03   -0.30011E-04 40212   0.165E-01    0.183E-01
DAV:  61    -0.669519109926E+03    0.75602E-03   -0.59125E-04 43704   0.187E-01    0.202E-01
DAV:  62    -0.669517332896E+03    0.17770E-02   -0.11504E-03 41568   0.280E-01    0.236E-01
DAV:  63    -0.669517305205E+03    0.27691E-04   -0.91611E-04 36516   0.628E-02    0.235E-01
DAV:  64    -0.669517472510E+03   -0.16731E-03   -0.52919E-05 31068   0.369E-02    0.242E-01
DAV:  65    -0.669517539487E+03   -0.66976E-04   -0.49698E-06 18888   0.119E-02    0.241E-01
DAV:  66    -0.669517020953E+03    0.51853E-03   -0.79959E-05 30948   0.847E-02    0.249E-01
DAV:  67    -0.669518933690E+03   -0.19127E-02   -0.99157E-04 41028   0.361E-01    0.177E-01
DAV:  68    -0.669516777859E+03    0.21558E-02   -0.13732E-03 39540   0.370E-01    0.224E-01
DAV:  69    -0.669513716075E+03    0.30618E-02   -0.25486E-03 42672   0.481E-01    0.299E-01
DAV:  70    -0.669513700478E+03    0.15597E-04   -0.11705E-03 36024   0.673E-02    0.299E-01
DAV:  71    -0.669513652456E+03    0.48022E-04   -0.20040E-05 29388   0.119E-02    0.301E-01
DAV:  72    -0.669509232597E+03    0.44199E-02   -0.40838E-03 43344   0.677E-01    0.450E-01
DAV:  73    -0.669509479663E+03   -0.24707E-03   -0.16851E-03 35760   0.799E-02    0.450E-01
DAV:  74    -0.669509794385E+03   -0.31472E-03   -0.13144E-05 24960   0.373E-02    0.446E-01
DAV:  75    -0.669510016236E+03   -0.22185E-03   -0.15503E-05 21840   0.274E-02    0.442E-01
DAV:  76    -0.669510236546E+03   -0.22031E-03   -0.13242E-05 24348   0.373E-02    0.432E-01
DAV:  77    -0.669510946316E+03   -0.70977E-03   -0.90682E-05 32844   0.737E-02    0.440E-01
DAV:  78    -0.669511888534E+03   -0.94222E-03   -0.26448E-04 38820   0.135E-01    0.427E-01
DAV:  79    -0.669511993592E+03   -0.10506E-03   -0.11382E-04 35052   0.241E-02    0.425E-01
DAV:  80    -0.669512105544E+03   -0.11195E-03   -0.41604E-06 22068   0.284E-02    0.416E-01
DAV:  81    -0.669512160868E+03   -0.55324E-04   -0.84684E-06 19584   0.162E-02    0.412E-01
DAV:  82    -0.669510895858E+03    0.12650E-02   -0.46116E-04 38268   0.170E-01    0.424E-01
DAV:  83    -0.669510864474E+03    0.31383E-04   -0.66476E-05 34716   0.208E-02    0.425E-01
DAV:  84    -0.669511004401E+03   -0.13993E-03   -0.50049E-06 19656   0.215E-02    0.423E-01
DAV:  85    -0.669511238931E+03   -0.23453E-03   -0.64446E-06 20004   0.255E-02    0.422E-01
DAV:  86    -0.669511208078E+03    0.30853E-04   -0.40825E-06 17856   0.774E-03    0.422E-01
DAV:  87    -0.669522440771E+03   -0.11233E-01   -0.37257E-02 41724   0.210E+00    0.189E-01
DAV:  88    -0.669524642345E+03   -0.22016E-02   -0.15364E-02 36252   0.239E-01    0.175E-01
DAV:  89    -0.669524867855E+03   -0.22551E-03   -0.31091E-04 38232   0.484E-02    0.166E-01
DAV:  90    -0.669525159270E+03   -0.29141E-03   -0.68226E-06 22068   0.444E-02    0.163E-01
DAV:  91    -0.669525917249E+03   -0.75798E-03   -0.48447E-05 33216   0.119E-01    0.162E-01
DAV:  92    -0.669527434875E+03   -0.15176E-02   -0.37852E-04 42324   0.217E-01    0.154E-01
DAV:  93    -0.669527207637E+03    0.22724E-03   -0.24700E-04 36756   0.734E-02    0.159E-01
DAV:  94    -0.669526787240E+03    0.42040E-03   -0.59571E-05 30264   0.527E-02    0.158E-01
DAV:  95    -0.669526759642E+03    0.27598E-04   -0.80894E-05 39588   0.370E-02    0.152E-01
DAV:  96    -0.669527243905E+03   -0.48426E-03   -0.53014E-05 32580   0.832E-02    0.155E-01
DAV:  97    -0.669526903960E+03    0.33994E-03   -0.59533E-05 31080   0.597E-02    0.147E-01
DAV:  98    -0.669527141034E+03   -0.23707E-03   -0.32438E-05 27660   0.559E-02    0.143E-01
DAV:  99    -0.669526875071E+03    0.26596E-03   -0.27104E-05 28740   0.729E-02    0.139E-01
DAV: 100    -0.669526480876E+03    0.39420E-03   -0.60376E-05 36876   0.969E-02    0.134E-01
DAV: 101    -0.669525555768E+03    0.92511E-03   -0.14583E-04 41544   0.158E-01    0.135E-01
DAV: 102    -0.669525602576E+03   -0.46808E-04   -0.12931E-04 39324   0.538E-02    0.135E-01
DAV: 103    -0.669524899227E+03    0.70335E-03   -0.77187E-05 30072   0.909E-02    0.135E-01
DAV: 104    -0.669525144916E+03   -0.24569E-03   -0.51882E-05 32772   0.490E-02    0.131E-01
DAV: 105    -0.669525479015E+03   -0.33410E-03   -0.24488E-05 24408   0.484E-02    0.130E-01
DAV: 106    -0.669525932937E+03   -0.45392E-03   -0.70257E-05 33972   0.717E-02    0.131E-01
DAV: 107    -0.669527262611E+03   -0.13297E-02   -0.10044E-03 49092   0.249E-01    0.166E-01
DAV: 108    -0.669529042585E+03   -0.17800E-02   -0.13714E-03 45720   0.280E-01    0.182E-01
DAV: 109    -0.669529632515E+03   -0.58993E-03   -0.93348E-04 45384   0.922E-02    0.212E-01
DAV: 110    -0.669529592814E+03    0.39701E-04   -0.14024E-04 34752   0.492E-02    0.220E-01
DAV: 111    -0.669529902163E+03   -0.30935E-03   -0.54516E-05 29748   0.698E-02    0.224E-01
DAV: 112    -0.669528245707E+03    0.16565E-02   -0.59149E-04 40140   0.282E-01    0.244E-01
DAV: 113    -0.669528386643E+03   -0.14094E-03   -0.12156E-04 36012   0.446E-02    0.241E-01
DAV: 114    -0.669528188559E+03    0.19808E-03   -0.35374E-05 27180   0.271E-02    0.245E-01
DAV: 115    -0.669527921961E+03    0.26660E-03   -0.26411E-05 27516   0.772E-02    0.261E-01
DAV: 116    -0.669527624432E+03    0.29753E-03   -0.82836E-05 39780   0.392E-02    0.277E-01
DAV: 117    -0.669528868586E+03   -0.12442E-02   -0.44674E-04 43488   0.267E-01    0.220E-01
DAV: 118    -0.669528769525E+03    0.99061E-04   -0.21280E-04 40620   0.142E-01    0.211E-01
DAV: 119    -0.669529266905E+03   -0.49738E-03   -0.19484E-04 36984   0.108E-01    0.205E-01
DAV: 120    -0.669530453618E+03   -0.11867E-02   -0.57496E-04 39072   0.193E-01    0.207E-01
DAV: 121    -0.669530726977E+03   -0.27336E-03   -0.32575E-04 37992   0.466E-02    0.221E-01
DAV: 122    -0.669529545502E+03    0.11815E-02   -0.77692E-04 37668   0.243E-01    0.240E-01
DAV: 123    -0.669529379271E+03    0.16623E-03   -0.15406E-04 35880   0.398E-02    0.243E-01
DAV: 124    -0.669529152354E+03    0.22692E-03   -0.16937E-05 23148   0.266E-02    0.243E-01
DAV: 125    -0.669527447716E+03    0.17046E-02   -0.66169E-04 39876   0.224E-01    0.244E-01
DAV: 126    -0.669526007688E+03    0.14400E-02   -0.78720E-04 44640   0.206E-01    0.244E-01
DAV: 127    -0.669526513994E+03   -0.50631E-03   -0.38613E-04 38904   0.142E-01    0.215E-01
DAV: 128    -0.669524383711E+03    0.21303E-02   -0.13206E-03 39132   0.332E-01    0.218E-01
DAV: 129    -0.669524198883E+03    0.18483E-03   -0.65836E-04 36876   0.577E-02    0.199E-01
DAV: 130    -0.669524497839E+03   -0.29896E-03   -0.98768E-05 34968   0.808E-02    0.195E-01
DAV: 131    -0.669523532914E+03    0.96492E-03   -0.25328E-04 32676   0.153E-01    0.200E-01
DAV: 132    -0.669522788055E+03    0.74486E-03   -0.26922E-04 42432   0.123E-01    0.209E-01
DAV: 133    -0.669522645667E+03    0.14239E-03   -0.17418E-04 37440   0.371E-02    0.199E-01
DAV: 134    -0.669522590729E+03    0.54938E-04   -0.16742E-05 24120   0.117E-02    0.197E-01
DAV: 135    -0.669522903874E+03   -0.31315E-03   -0.36603E-05 28848   0.586E-02    0.199E-01
DAV: 136    -0.669522988641E+03   -0.84768E-04   -0.14272E-05 21636   0.158E-02    0.200E-01
DAV: 137    -0.669522975417E+03    0.13225E-04   -0.64567E-06 18120   0.732E-03    0.202E-01
DAV: 138    -0.669523009778E+03   -0.34362E-04   -0.10723E-06 17928   0.581E-03    0.202E-01
DAV: 139    -0.669522949814E+03    0.59965E-04   -0.13474E-06 17928   0.108E-02    0.202E-01
DAV: 140    -0.669522980661E+03   -0.30848E-04   -0.24763E-07 17928   0.606E-03    0.202E-01
DAV: 141    -0.669522936505E+03    0.44156E-04   -0.12592E-06 17964   0.146E-02    0.201E-01
DAV: 142    -0.669522992168E+03   -0.55663E-04   -0.59495E-06 21240   0.495E-02    0.206E-01
DAV: 143    -0.669523180270E+03   -0.18810E-03   -0.85905E-06 24120   0.332E-02    0.207E-01
DAV: 144    -0.669523332315E+03   -0.15204E-03   -0.52425E-06 19380   0.211E-02    0.207E-01
DAV: 145    -0.669523288405E+03    0.43910E-04   -0.57919E-06 18336   0.189E-02    0.210E-01
DAV: 146    -0.669523285350E+03    0.30555E-05   -0.34421E-05 26724   0.722E-02
   9 F= -.66952329E+03 E0= -.66951988E+03  d E =-.326554E+00  mag=    -0.0006
       N       E                     dE             d eps       ncg     rms          rms(c)
DAV:   1    -0.669184233612E+03    0.33905E+00   -0.55051E+00 48576   0.324E+01    0.170E+00
DAV:   2    -0.669551183361E+03   -0.36695E+00   -0.37176E+00 37308   0.375E+00    0.991E-01
DAV:   3    -0.669556488282E+03   -0.53049E-02   -0.78425E-02 37728   0.120E+00    0.714E-01
DAV:   4    -0.669556631594E+03   -0.14331E-03   -0.15644E-02 36984   0.910E-01    0.573E-01
DAV:   5    -0.669557543072E+03   -0.91148E-03   -0.82724E-03 41196   0.795E-01    0.310E-01
DAV:   6    -0.669557498106E+03    0.44966E-04   -0.68559E-03 38496   0.447E-01    0.266E-01
DAV:   7    -0.669557888119E+03   -0.39001E-03   -0.12134E-03 37896   0.251E-01    0.165E-01
DAV:   8    -0.669558483305E+03   -0.59519E-03   -0.90339E-04 39264   0.121E-01    0.222E-01
DAV:   9    -0.669558606819E+03   -0.12351E-03   -0.16678E-04 36720   0.464E-02    0.216E-01
DAV:  10    -0.669558755478E+03   -0.14866E-03   -0.23851E-05 24324   0.301E-02    0.220E-01
DAV:  11    -0.669557612814E+03    0.11427E-02   -0.78305E-04 37368   0.237E-01    0.224E-01
DAV:  12    -0.669556632316E+03    0.98050E-03   -0.71175E-04 41976   0.216E-01    0.242E-01
DAV:  13    -0.669558027085E+03   -0.13948E-02   -0.10173E-03 39336   0.278E-01    0.239E-01
DAV:  14    -0.669560603949E+03   -0.25769E-02   -0.27360E-03 44832   0.488E-01    0.221E-01
DAV:  15    -0.669569434277E+03   -0.88303E-02   -0.24942E-02 42084   0.140E+00    0.309E-01
DAV:  16    -0.669566790539E+03    0.26437E-02   -0.91809E-03 37944   0.528E-01    0.276E-01
DAV:  17    -0.669566981577E+03   -0.19104E-03   -0.87654E-04 37320   0.652E-02    0.275E-01
DAV:  18    -0.669567062355E+03   -0.80778E-04   -0.51347E-05 24432   0.245E-02    0.309E-01
DAV:  19    -0.669571541934E+03   -0.44796E-02   -0.29238E-03 42696   0.565E-01    0.313E-01
DAV:  20    -0.669575756325E+03   -0.42144E-02   -0.44482E-03 44220   0.463E-01    0.338E-01
DAV:  21    -0.669562876570E+03    0.12880E-01   -0.25027E-02 40968   0.145E+00    0.265E-01
DAV:  22    -0.669538285463E+03    0.24591E-01   -0.14920E-01 44208   0.335E+00    0.656E-01
DAV:  23    -0.669551645276E+03   -0.13360E-01   -0.46023E-02 39096   0.135E+00    0.502E-01
DAV:  24    -0.669559721503E+03   -0.80762E-02   -0.25469E-02 49296   0.171E+00    0.315E-01
DAV:  25    -0.669569468440E+03   -0.97469E-02   -0.36304E-02 45564   0.148E+00    0.286E-01
DAV:  26    -0.669576926042E+03   -0.74576E-02   -0.25277E-02 46032   0.610E-01    0.412E-01
DAV:  27    -0.669581519578E+03   -0.45935E-02   -0.56919E-03 48072   0.324E-01    0.496E-01
DAV:  28    -0.669584997158E+03   -0.34776E-02   -0.21332E-03 44220   0.228E-01    0.553E-01
DAV:  29    -0.669584725831E+03    0.27133E-03   -0.16176E-03 35256   0.119E-01    0.568E-01
DAV:  30    -0.669588142612E+03   -0.34168E-02   -0.12126E-03 37560   0.262E-01    0.605E-01
DAV:  31    -0.669588739307E+03   -0.59670E-03   -0.34483E-04 36840   0.482E-02    0.621E-01
DAV:  32    -0.669588898418E+03   -0.15911E-03   -0.40293E-05 33564   0.181E-02    0.621E-01
DAV:  33    -0.669588048107E+03    0.85031E-03   -0.90187E-05 30300   0.561E-02    0.607E-01
DAV:  34    -0.669588246499E+03   -0.19839E-03   -0.10718E-05 24480   0.443E-02    0.588E-01
DAV:  35    -0.669581701050E+03    0.65454E-02   -0.45095E-03 40764   0.438E-01    0.491E-01
DAV:  36    -0.669577710513E+03    0.39905E-02   -0.31253E-03 44484   0.324E-01    0.424E-01
DAV:  37    -0.669575140971E+03    0.25695E-02   -0.21128E-03 46236   0.227E-01    0.368E-01
DAV:  38    -0.669574159109E+03    0.98186E-03   -0.96001E-04 45312   0.977E-02    0.339E-01
DAV:  39    -0.669571793573E+03    0.23655E-02   -0.77280E-04 53700   0.212E-01    0.314E-01
DAV:  40    -0.669562991047E+03    0.88025E-02   -0.12541E-02 42936   0.930E-01    0.256E-01
DAV:  41    -0.669558373499E+03    0.46175E-02   -0.12731E-02 44688   0.653E-01    0.207E-01
DAV:  42    -0.669558450063E+03   -0.76564E-04   -0.60723E-03 37344   0.164E-01    0.194E-01
DAV:  43    -0.669558455784E+03   -0.57204E-05   -0.17243E-04 34740   0.309E-02    0.209E-01
DAV:  44    -0.669559316398E+03   -0.86061E-03   -0.16327E-04 36672   0.139E-01    0.195E-01
DAV:  45    -0.669559786205E+03   -0.46981E-03   -0.28871E-04 44616   0.753E-02    0.184E-01
DAV:  46    -0.669559175886E+03    0.61032E-03   -0.36536E-04 37620   0.109E-01    0.180E-01
DAV:  47    -0.669559888266E+03   -0.71238E-03   -0.98937E-05 40320   0.109E-01    0.184E-01
DAV:  48    -0.669559146877E+03    0.74139E-03   -0.26363E-04 37968   0.129E-01    0.198E-01
DAV:  49    -0.669558387970E+03    0.75891E-03   -0.14396E-04 38628   0.106E-01    0.198E-01
DAV:  50    -0.669558038111E+03    0.34986E-03   -0.13241E-04 42312   0.495E-02    0.194E-01
DAV:  51    -0.669558013309E+03    0.24802E-04   -0.57178E-05 33924   0.385E-02    0.183E-01
DAV:  52    -0.669554362603E+03    0.36507E-02   -0.35149E-03 44664   0.531E-01    0.191E-01
DAV:  53    -0.669553617890E+03    0.74471E-03   -0.16516E-03 42168   0.140E-01    0.173E-01
DAV:  54    -0.669553594667E+03    0.23223E-04   -0.27359E-04 35712   0.394E-02    0.168E-01
DAV:  55    -0.669553303564E+03    0.29110E-03   -0.18446E-05 23796   0.401E-02    0.170E-01
DAV:  56    -0.669550912945E+03    0.23906E-02   -0.15332E-03 41604   0.360E-01    0.198E-01
DAV:  57    -0.669548343970E+03    0.25690E-02   -0.24287E-03 43332   0.392E-01    0.233E-01
DAV:  58    -0.669549072623E+03   -0.72865E-03   -0.10826E-03 37476   0.152E-01    0.197E-01
DAV:  59    -0.669549105529E+03   -0.32906E-04   -0.74180E-05 35436   0.201E-02    0.192E-01
DAV:  60    -0.669548959393E+03    0.14614E-03   -0.15388E-05 21720   0.219E-02    0.192E-01
DAV:  61    -0.669548601334E+03    0.35806E-03   -0.39238E-05 26412   0.506E-02    0.198E-01
DAV:  62    -0.669545947601E+03    0.26537E-02   -0.16775E-03 41556   0.343E-01    0.231E-01
DAV:  63    -0.669544613816E+03    0.13338E-02   -0.10223E-03 44712   0.193E-01    0.253E-01
DAV:  64    -0.669544963479E+03   -0.34966E-03   -0.41056E-04 35700   0.766E-02    0.239E-01
DAV:  65    -0.669545073637E+03   -0.11016E-03   -0.88106E-06 22044   0.152E-02    0.235E-01
[...]
DAV:   7    -0.669447569323E+03   -0.70998E-03   -0.37805E-02 37632   0.121E+00    0.408E-01
DAV:   8    -0.669448598049E+03   -0.10287E-02   -0.12372E-02 36504   0.625E-01    0.288E-01
DAV:   9    -0.669448133906E+03    0.46414E-03   -0.28140E-03 36816   0.324E-01    0.171E-01
DAV:  10    -0.669448169288E+03   -0.35382E-04   -0.51879E-04 38184   0.159E-01    0.956E-02
DAV:  11    -0.669448213373E+03   -0.44085E-04   -0.35809E-04 43776   0.123E-01    0.624E-02
DAV:  12    -0.669448207650E+03    0.57230E-05   -0.16696E-04 37032   0.753E-02    0.531E-02
DAV:  13    -0.669448212635E+03   -0.49849E-05   -0.42389E-05 29136   0.408E-02
  44 F= -.66944821E+03 E0= -.66944821E+03  d E =0.139353E+00  mag=     0.0000
       N       E                     dE             d eps       ncg     rms          rms(c)
DAV:   1    -0.667277071111E+03    0.21711E+01   -0.35042E+01 49224   0.882E+01    0.473E+00
DAV:   2    -0.669793941067E+03   -0.25169E+01   -0.25663E+01 39660   0.104E+01    0.287E+00
DAV:   3    -0.669829129978E+03   -0.35189E-01   -0.65599E-01 37704   0.384E+00    0.203E+00
DAV:   4    -0.669820611106E+03    0.85189E-02   -0.73152E-02 36564   0.208E+00    0.145E+00
DAV:   5    -0.669817089922E+03    0.35212E-02   -0.39283E-02 39288   0.117E+00    0.873E-01
DAV:   6    -0.669816463289E+03    0.62663E-03   -0.25794E-02 36780   0.115E+00    0.369E-01
DAV:   7    -0.669815531967E+03    0.93132E-03   -0.63660E-03 37896   0.538E-01    0.176E-01
DAV:   8    -0.669815484134E+03    0.47833E-04   -0.24943E-03 37452   0.231E-01    0.112E-01
DAV:   9    -0.669815123691E+03    0.36044E-03   -0.46847E-04 36852   0.135E-01    0.740E-02
DAV:  10    -0.669814792823E+03    0.33087E-03   -0.10202E-04 38364   0.844E-02    0.487E-02
DAV:  11    -0.669814368741E+03    0.42408E-03   -0.80748E-05 39984   0.721E-02    0.346E-02
DAV:  12    -0.669814105045E+03    0.26370E-03   -0.46689E-05 30528   0.424E-02    0.294E-02
DAV:  13    -0.669813916822E+03    0.18822E-03   -0.14162E-05 21276   0.250E-02    0.267E-02
DAV:  14    -0.669813312343E+03    0.60448E-03   -0.99871E-06 22992   0.729E-02    0.215E-02
DAV:  15    -0.669812266137E+03    0.10462E-02   -0.85304E-05 39240   0.132E-01    0.193E-02
DAV:  16    -0.669811544380E+03    0.72176E-03   -0.11197E-04 43212   0.869E-02    0.177E-02
DAV:  17    -0.669811034517E+03    0.50986E-03   -0.60346E-05 37608   0.569E-02    0.150E-02
DAV:  18    -0.669810097071E+03    0.93745E-03   -0.30869E-05 29376   0.104E-01    0.122E-02
DAV:  19    -0.669809494107E+03    0.60296E-03   -0.69043E-05 39180   0.679E-02    0.971E-03
DAV:  20    -0.669809082840E+03    0.41127E-03   -0.44553E-05 34416   0.420E-02    0.797E-03
DAV:  21    -0.669808760000E+03    0.32284E-03   -0.11223E-05 21288   0.296E-02    0.745E-03
DAV:  22    -0.669808240814E+03    0.51919E-03   -0.73816E-06 20724   0.496E-02    0.676E-03
DAV:  23    -0.669808095240E+03    0.14557E-03   -0.28359E-05 29460   0.202E-02    0.573E-03
DAV:  24    -0.669807920419E+03    0.17482E-03   -0.17632E-06 17928   0.161E-02    0.472E-03
DAV:  25    -0.669807764295E+03    0.15612E-03   -0.18768E-06 17940   0.163E-02    0.433E-03
DAV:  26    -0.669807328378E+03    0.43592E-03   -0.66054E-06 22104   0.429E-02    0.409E-03
DAV:  27    -0.669807281625E+03    0.46754E-04   -0.11813E-05 21552   0.132E-02    0.407E-03
DAV:  28    -0.669807280994E+03    0.63033E-06   -0.33701E-06 18168   0.543E-03
  45 F= -.66980728E+03 E0= -.66980728E+03  d E =-.359068E+00  mag=     0.0000
       N       E                     dE             d eps       ncg     rms          rms(c)
DAV:   1    -0.669771319510E+03    0.35962E-01   -0.61697E-01 49008   0.113E+01    0.552E-01
DAV:   2    -0.669811539242E+03   -0.40220E-01   -0.41328E-01 38976   0.132E+00    0.334E-01
DAV:   3    -0.669811932693E+03   -0.39345E-03   -0.86695E-03 37356   0.431E-01    0.232E-01
DAV:   4    -0.669811813854E+03    0.11884E-03   -0.91633E-04 37176   0.255E-01    0.167E-01
DAV:   5    -0.669811598342E+03    0.21551E-03   -0.65883E-04 42564   0.161E-01    0.612E-02
DAV:   6    -0.669811556573E+03    0.41770E-04   -0.24332E-04 39012   0.796E-02    0.366E-02
DAV:   7    -0.669811479209E+03    0.77364E-04   -0.85413E-05 36312   0.538E-02    0.236E-02
DAV:   8    -0.669811468231E+03    0.10978E-04   -0.20942E-05 24024   0.294E-02    0.118E-02
DAV:   9    -0.669811410763E+03    0.57468E-04   -0.47052E-06 18492   0.122E-02    0.759E-03
DAV:  10    -0.669811350614E+03    0.60149E-04   -0.18825E-06 18240   0.102E-02    0.501E-03
DAV:  11    -0.669811310319E+03    0.40295E-04   -0.13938E-06 18048   0.766E-03    0.420E-03
DAV:  12    -0.669811271994E+03    0.38325E-04   -0.72046E-07 17928   0.486E-03    0.373E-03
DAV:  13    -0.669811230024E+03    0.41970E-04   -0.15572E-07 17928   0.453E-03    0.326E-03
DAV:  14    -0.669811088735E+03    0.14129E-03   -0.51278E-07 17928   0.158E-02    0.286E-03
DAV:  15    -0.669810925864E+03    0.16287E-03   -0.17793E-06 18504   0.187E-02    0.266E-03
DAV:  16    -0.669810839051E+03    0.86813E-04   -0.27029E-06 18204   0.916E-03    0.256E-03
DAV:  17    -0.669810782458E+03    0.56593E-04   -0.18034E-06 17892   0.542E-03    0.276E-03
DAV:  18    -0.669810783175E+03   -0.71620E-06   -0.10411E-06 17892   0.296E-03
  46 F= -.66981078E+03 E0= -.66981078E+03  d E =-.350218E-02  mag=     0.0000
       N       E                     dE             d eps       ncg     rms          rms(c)
DAV:   1    -0.669558262661E+03    0.25252E+00   -0.43520E+00 45924   0.247E+01    0.122E+00
DAV:   2    -0.669767218681E+03   -0.20896E+00   -0.21276E+00 37896   0.302E+00    0.721E-01
DAV:   3    -0.669768687104E+03   -0.14684E-02   -0.39454E-02 38772   0.770E-01    0.505E-01
DAV:   4    -0.669768407509E+03    0.27960E-03   -0.42865E-03 37944   0.535E-01    0.377E-01
DAV:   5    -0.669767656368E+03    0.75114E-03   -0.29147E-03 38892   0.387E-01    0.141E-01
DAV:   6    -0.669767784597E+03   -0.12823E-03   -0.14850E-03 37236   0.204E-01    0.954E-02
DAV:   7    -0.669767623600E+03    0.16100E-03   -0.37963E-04 38040   0.111E-01    0.508E-02
DAV:   8    -0.669767578893E+03    0.44707E-04   -0.93926E-05 34848   0.496E-02    0.324E-02
DAV:   9    -0.669767499586E+03    0.79307E-04   -0.15081E-05 22368   0.311E-02    0.217E-02
DAV:  10    -0.669767362454E+03    0.13713E-03   -0.97956E-06 21888   0.350E-02    0.154E-02
DAV:  11    -0.669767313894E+03    0.48560E-04   -0.14191E-05 20640   0.207E-02    0.132E-02
DAV:  12    -0.669767271348E+03    0.42546E-04   -0.78868E-06 18912   0.963E-03    0.125E-02
DAV:  13    -0.669767231374E+03    0.39975E-04   -0.77704E-07 18432   0.807E-03    0.115E-02
DAV:  14    -0.669766970480E+03    0.26089E-03   -0.70972E-06 21492   0.620E-02    0.970E-03
DAV:  15    -0.669766645481E+03    0.32500E-03   -0.29741E-05 27468   0.770E-02    0.874E-03
DAV:  16    -0.669766502539E+03    0.14294E-03   -0.42346E-05 30024   0.323E-02    0.833E-03
DAV:  17    -0.669766413992E+03    0.88547E-04   -0.74114E-06 20220   0.186E-02    0.788E-03
DAV:  18    -0.669766278239E+03    0.13575E-03   -0.21370E-06 18036   0.258E-02    0.671E-03
DAV:  19    -0.669765975539E+03    0.30270E-03   -0.10129E-05 22188   0.586E-02    0.592E-03
DAV:  20    -0.669765758511E+03    0.21703E-03   -0.28751E-05 29052   0.384E-02    0.484E-03
DAV:  21    -0.669765662092E+03    0.96418E-04   -0.18952E-05 24240   0.182E-02    0.471E-03
DAV:  22    -0.669765637406E+03    0.24686E-04   -0.86542E-06 20412   0.745E-03    0.437E-03
DAV:  23    -0.669765640414E+03   -0.30078E-05   -0.53508E-07 17892   0.460E-03
  47 F= -.66976564E+03 E0= -.66976564E+03  d E =0.451428E-01  mag=    -0.0000
       N       E                     dE             d eps       ncg     rms          rms(c)
DAV:   1    -0.667041433998E+03    0.27242E+01   -0.34100E+01 49764   0.889E+01    0.480E+00
DAV:   2    -0.669578185516E+03   -0.25368E+01   -0.25664E+01 38904   0.104E+01    0.292E+00
DAV:   3    -0.669616242219E+03   -0.38057E-01   -0.68092E-01 36936   0.420E+00    0.201E+00
DAV:   4    -0.669610874758E+03    0.53675E-02   -0.82580E-02 36852   0.223E+00    0.145E+00
DAV:   5    -0.669611075854E+03   -0.20110E-03   -0.38344E-02 38208   0.126E+00    0.823E-01
DAV:   6    -0.669612078768E+03   -0.10029E-02   -0.23010E-02 37212   0.112E+00    0.346E-01
DAV:   7    -0.669611980434E+03    0.98334E-04   -0.57676E-03 37368   0.489E-01    0.174E-01
DAV:   8    -0.669612599260E+03   -0.61883E-03   -0.20646E-03 37728   0.226E-01    0.109E-01
DAV:   9    -0.669612787959E+03   -0.18870E-03   -0.42726E-04 36876   0.130E-01    0.742E-02
DAV:  10    -0.669613282484E+03   -0.49453E-03   -0.10246E-04 40764   0.808E-02    0.489E-02
DAV:  11    -0.669613715357E+03   -0.43287E-03   -0.73677E-05 39648   0.693E-02    0.363E-02
DAV:  12    -0.669613986450E+03   -0.27109E-03   -0.46417E-05 31464   0.431E-02    0.308E-02
DAV:  13    -0.669614240530E+03   -0.25408E-03   -0.11533E-05 21432   0.298E-02    0.274E-02
DAV:  14    -0.669615305490E+03   -0.10650E-02   -0.34557E-05 30744   0.124E-01    0.221E-02
DAV:  15    -0.669616354023E+03   -0.10485E-02   -0.12558E-04 43392   0.125E-01    0.211E-02
DAV:  16    -0.669616869607E+03   -0.51558E-03   -0.11013E-04 39828   0.583E-02    0.193E-02
DAV:  17    -0.669617303299E+03   -0.43369E-03   -0.13812E-05 21828   0.482E-02    0.173E-02
DAV:  18    -0.669618334794E+03   -0.10315E-02   -0.42139E-05 32256   0.121E-01    0.148E-02
DAV:  19    -0.669618795669E+03   -0.46088E-03   -0.10886E-04 41412   0.592E-02    0.125E-02
DAV:  20    -0.669619092851E+03   -0.29718E-03   -0.30303E-05 29196   0.348E-02    0.110E-02
DAV:  21    -0.669619285526E+03   -0.19268E-03   -0.88645E-06 20532   0.274E-02    0.992E-03
DAV:  22    -0.669619566729E+03   -0.28120E-03   -0.70377E-06 21132   0.455E-02    0.908E-03
DAV:  23    -0.669619558539E+03    0.81899E-05   -0.24488E-05 27888   0.265E-02
  48 F= -.66961956E+03 E0= -.66961956E+03  d E =0.146082E+00  mag=     0.0000
       N       E                     dE             d eps       ncg     rms          rms(c)
DAV:   1    -0.662460969742E+03    0.71586E+01   -0.96174E+01 49104   0.145E+02    0.872E+00
DAV:   2    -0.669418969072E+03   -0.69580E+01   -0.70850E+01 38280   0.176E+01    0.536E+00
DAV:   3    -0.669544955070E+03   -0.12599E+00   -0.24603E+00 37620   0.760E+00    0.364E+00
DAV:   4    -0.669518191519E+03    0.26764E-01   -0.26809E-01 37008   0.371E+00    0.260E+00
DAV:   5    -0.669514957412E+03    0.32341E-02   -0.10351E-01 39312   0.196E+00    0.168E+00
DAV:   6    -0.669512377960E+03    0.25795E-02   -0.75906E-02 36732   0.192E+00    0.657E-01
DAV:   7    -0.669512162535E+03    0.21542E-03   -0.18737E-02 37980   0.803E-01    0.313E-01
DAV:   8    -0.669512791473E+03   -0.62894E-03   -0.68793E-03 37200   0.418E-01    0.200E-01
DAV:   9    -0.669512569031E+03    0.22244E-03   -0.14329E-03 36852   0.238E-01    0.126E-01
DAV:  10    -0.669512644492E+03   -0.75461E-04   -0.31225E-04 37380   0.126E-01    0.752E-02
DAV:  11    -0.669512677115E+03   -0.32623E-04   -0.21960E-04 40188   0.994E-02    0.486E-02
DAV:  12    -0.669512671366E+03    0.57485E-05   -0.96747E-05 35088   0.603E-02
  49 F= -.66951267E+03 E0= -.66951267E+03  d E =0.106887E+00  mag=    -0.0000
       N       E                     dE             d eps       ncg     rms          rms(c)
DAV:   1    -0.668450390460E+03    0.10623E+01   -0.18044E+01 48780   0.624E+01    0.324E+00
DAV:   2    -0.669728044580E+03   -0.12777E+01   -0.12998E+01 39204   0.736E+00    0.202E+00
DAV:   3    -0.669745662874E+03   -0.17618E-01   -0.31579E-01 37056   0.289E+00    0.146E+00
DAV:   4    -0.669741482976E+03    0.41799E-02   -0.38242E-02 36576   0.142E+00    0.102E+00
DAV:   5    -0.669738711123E+03    0.27719E-02   -0.20251E-02 39912   0.876E-01    0.568E-01
DAV:   6    -0.669739224652E+03   -0.51353E-03   -0.12481E-02 36864   0.824E-01    0.261E-01
DAV:   7    -0.669738512664E+03    0.71199E-03   -0.34648E-03 37668   0.406E-01    0.122E-01
DAV:   8    -0.669738297276E+03    0.21539E-03   -0.12705E-03 37464   0.167E-01    0.748E-02
DAV:   9    -0.669737963863E+03    0.33341E-03   -0.21916E-04 36900   0.855E-02    0.496E-02
DAV:  10    -0.669737659793E+03    0.30407E-03   -0.59974E-05 35988   0.590E-02    0.346E-02
DAV:  11    -0.669737188934E+03    0.47086E-03   -0.34531E-05 32340   0.518E-02    0.244E-02
DAV:  12    -0.669736906929E+03    0.28201E-03   -0.25384E-05 25488   0.302E-02    0.213E-02
DAV:  13    -0.669736735229E+03    0.17170E-03   -0.11207E-05 19644   0.164E-02    0.201E-02
DAV:  14    -0.669736389417E+03    0.34581E-03   -0.20564E-06 18732   0.280E-02    0.170E-02
DAV:  15    -0.669735309607E+03    0.10798E-02   -0.27812E-05 28824   0.951E-02    0.152E-02
DAV:  16    -0.669734262817E+03    0.10468E-02   -0.78722E-05 40896   0.916E-02    0.145E-02
DAV:  17    -0.669733750209E+03    0.51261E-03   -0.62205E-05 37644   0.434E-02    0.129E-02
DAV:  18    -0.669733381864E+03    0.36835E-03   -0.85626E-06 20376   0.291E-02    0.118E-02
DAV:  19    -0.669732473196E+03    0.90867E-03   -0.13219E-05 23052   0.749E-02    0.955E-03
DAV:  20    -0.669732177935E+03    0.29526E-03   -0.43998E-05 32016   0.276E-02    0.769E-03
DAV:  21    -0.669731831444E+03    0.34649E-03   -0.30062E-06 18432   0.273E-02    0.640E-03
DAV:  22    -0.669731574586E+03    0.25686E-03   -0.71928E-06 20904   0.221E-02    0.639E-03
DAV:  23    -0.669731243397E+03    0.33119E-03   -0.36815E-06 19740   0.265E-02    0.548E-03
DAV:  24    -0.669730925194E+03    0.31820E-03   -0.72877E-06 20976   0.275E-02    0.503E-03
DAV:  25    -0.669730575467E+03    0.34973E-03   -0.78302E-06 21348   0.320E-02    0.476E-03
DAV:  26    -0.669730361215E+03    0.21425E-03   -0.17086E-05 24492   0.223E-02    0.553E-03
DAV:  27    -0.669730384230E+03   -0.23014E-04   -0.13422E-05 22608   0.120E-02    0.559E-03
DAV:  28    -0.669730404058E+03   -0.19828E-04   -0.51869E-07 17796   0.307E-03    0.575E-03
DAV:  29    -0.669730367612E+03    0.36446E-04   -0.37051E-07 17784   0.592E-03    0.587E-03
DAV:  30    -0.669730341610E+03    0.26002E-04   -0.13570E-07 17640   0.317E-03    0.593E-03
DAV:  31    -0.669730278698E+03    0.62913E-04   -0.29637E-07 17568   0.757E-03    0.608E-03
DAV:  32    -0.669729982875E+03    0.29582E-03   -0.59103E-06 20232   0.349E-02    0.741E-03
DAV:  33    -0.669729815862E+03    0.16701E-03   -0.68079E-06 20712   0.257E-02    0.879E-03
DAV:  34    -0.669729591045E+03    0.22482E-03   -0.82164E-06 20616   0.322E-02    0.108E-02
DAV:  35    -0.669729494311E+03    0.96734E-04   -0.14295E-05 23100   0.176E-02    0.106E-02
DAV:  36    -0.669729425609E+03    0.68703E-04   -0.50941E-06 18192   0.109E-02    0.115E-02
DAV:  37    -0.669729373499E+03    0.52109E-04   -0.23773E-06 17640   0.711E-03    0.123E-02
DAV:  38    -0.669729348960E+03    0.24539E-04   -0.16382E-06 17640   0.335E-03    0.125E-02
DAV:  39    -0.669729334028E+03    0.14932E-04   -0.22602E-07 17280   0.187E-03    0.123E-02
DAV:  40    -0.669729307193E+03    0.26835E-04   -0.23682E-07 17280   0.594E-03    0.997E-03
DAV:  41    -0.669729270957E+03    0.36236E-04   -0.49322E-07 17280   0.593E-03    0.757E-03
DAV:  42    -0.669729270354E+03    0.60283E-06   -0.58458E-07 17568   0.205E-03
  50 F= -.66972927E+03 E0= -.66972927E+03  d E =-.216599E+00  mag=     0.0000
       N       E                     dE             d eps       ncg     rms          rms(c)
DAV:   1    -0.669623466378E+03    0.10580E+00   -0.16089E+00 49392   0.188E+01    0.932E-01
DAV:   2    -0.669736665362E+03   -0.11320E+00   -0.11538E+00 38628   0.218E+00    0.567E-01
DAV:   3    -0.669738431041E+03   -0.17657E-02   -0.26995E-02 37260   0.771E-01    0.402E-01
DAV:   4    -0.669738256319E+03    0.17472E-03   -0.30794E-03 37056   0.433E-01    0.289E-01
DAV:   5    -0.669737967167E+03    0.28915E-03   -0.19240E-03 39336   0.274E-01    0.143E-01
DAV:   6    -0.669738405961E+03   -0.43879E-03   -0.93135E-04 39480   0.199E-01    0.786E-02
DAV:   7    -0.669738316432E+03    0.89529E-04   -0.31293E-04 37716   0.125E-01    0.380E-02
DAV:   8    -0.669738373955E+03   -0.57523E-04   -0.99448E-05 35520   0.503E-02    0.204E-02
DAV:   9    -0.669738403876E+03   -0.29921E-04   -0.13803E-05 19620   0.228E-02    0.141E-02
DAV:  10    -0.669738444073E+03   -0.40197E-04   -0.53737E-06 20076   0.199E-02    0.103E-02
DAV:  11    -0.669738473499E+03   -0.29426E-04   -0.34109E-06 18660   0.170E-02    0.669E-03
DAV:  12    -0.669738501100E+03   -0.27602E-04   -0.36605E-06 18240   0.977E-03    0.669E-03
DAV:  13    -0.669738511480E+03   -0.10379E-04   -0.25222E-06 18144   0.468E-03    0.600E-03
DAV:  14    -0.669738530745E+03   -0.19265E-04   -0.17321E-07 18144   0.719E-03    0.528E-03
DAV:  15    -0.669738621480E+03   -0.90736E-04   -0.25301E-06 19656   0.323E-02    0.551E-03
DAV:  16    -0.669738708293E+03   -0.86812E-04   -0.51119E-06 19836   0.303E-02    0.559E-03
DAV:  17    -0.669738744031E+03   -0.35738E-04   -0.74699E-06 19404   0.124E-02    0.564E-03
DAV:  18    -0.669738756002E+03   -0.11971E-04   -0.44341E-06 17928   0.517E-03    0.599E-03
DAV:  19    -0.669738769562E+03   -0.13560E-04   -0.15670E-07 17928   0.491E-03    0.540E-03
DAV:  20    -0.669738818912E+03   -0.49350E-04   -0.78275E-07 17988   0.178E-02    0.453E-03
DAV:  21    -0.669738939407E+03   -0.12050E-03   -0.63077E-06 21084   0.428E-02    0.418E-03
DAV:  22    -0.669738938888E+03    0.51894E-06   -0.83493E-06 19620   0.770E-03
  51 F= -.66973894E+03 E0= -.66973894E+03  d E =-.966853E-02  mag=     0.0000
       N       E                     dE             d eps       ncg     rms          rms(c)
DAV:   1    -0.669598525427E+03    0.14041E+00   -0.23786E+00 45960   0.183E+01    0.894E-01
DAV:   2    -0.669708341712E+03   -0.10982E+00   -0.11271E+00 38208   0.224E+00    0.534E-01
DAV:   3    -0.669709150158E+03   -0.80845E-03   -0.20959E-02 37872   0.590E-01    0.376E-01
DAV:   4    -0.669708972340E+03    0.17782E-03   -0.26502E-03 37944   0.428E-01    0.284E-01
DAV:   5    -0.669708625987E+03    0.34635E-03   -0.16419E-03 39780   0.289E-01    0.114E-01
DAV:   6    -0.669708527984E+03    0.98004E-04   -0.86474E-04 38076   0.168E-01    0.687E-02
DAV:   7    -0.669708434519E+03    0.93465E-04   -0.23111E-04 36612   0.941E-02    0.381E-02
DAV:   8    -0.669708357961E+03    0.76558E-04   -0.58015E-05 33060   0.359E-02    0.231E-02
DAV:   9    -0.669708267793E+03    0.90168E-04   -0.77053E-06 18720   0.204E-02    0.158E-02
DAV:  10    -0.669708104495E+03    0.16330E-03   -0.59824E-06 18840   0.255E-02    0.107E-02
DAV:  11    -0.669708045311E+03    0.59184E-04   -0.81195E-06 19044   0.153E-02    0.932E-03
DAV:  12    -0.669707997736E+03    0.47575E-04   -0.42981E-06 18456   0.775E-03    0.829E-03
DAV:  13    -0.669707930997E+03    0.66739E-04   -0.44337E-07 18432   0.903E-03    0.702E-03
DAV:  14    -0.669707684928E+03    0.24607E-03   -0.30532E-06 20388   0.383E-02    0.694E-03
DAV:  15    -0.669707469464E+03    0.21546E-03   -0.70478E-06 20460   0.336E-02    0.628E-03
DAV:  16    -0.669707406737E+03    0.62726E-04   -0.12042E-05 20784   0.111E-02    0.711E-03
DAV:  17    -0.669707419248E+03   -0.12511E-04   -0.32623E-06 18012   0.668E-03    0.668E-03
DAV:  18    -0.669707503662E+03   -0.84413E-04   -0.48297E-07 18000   0.130E-02    0.917E-03
DAV:  19    -0.669707513932E+03   -0.10271E-04   -0.29850E-07 17940   0.197E-03    0.912E-03
DAV:  20    -0.669707559124E+03   -0.45192E-04   -0.86251E-08 17928   0.685E-03    0.104E-02
DAV:  21    -0.669707569816E+03   -0.10692E-04   -0.24888E-07 17928   0.189E-03    0.103E-02
DAV:  22    -0.669707716376E+03   -0.14656E-03   -0.13755E-06 18000   0.229E-02    0.147E-02
DAV:  23    -0.669707591273E+03    0.12510E-03   -0.13632E-06 18000   0.218E-02    0.116E-02
DAV:  24    -0.669707268314E+03    0.32296E-03   -0.77090E-06 20460   0.552E-02    0.808E-03
DAV:  25    -0.669707167285E+03    0.10103E-03   -0.63059E-06 19992   0.184E-02    0.801E-03
DAV:  26    -0.669707159660E+03    0.76249E-05   -0.57043E-06 17928   0.632E-03
