       N       E                     dE             d eps       ncg     rms          ort
DAV:   1     0.826366176296E+04    0.82637E+04   -0.24671E+05  8424   0.238E+03
DAV:   2     0.917281471111E+03   -0.73464E+04   -0.68958E+04  8424   0.656E+02
DAV:   3    -0.674775961768E+03   -0.15921E+04   -0.14003E+04  8424   0.282E+02
DAV:   4    -0.830443486437E+03   -0.15567E+03   -0.15297E+03  8424   0.857E+01
DAV:   5    -0.832927719061E+03   -0.24842E+01   -0.24735E+01  8424   0.121E+01
SDA:   6    -0.265433054166E+03    0.56749E+03   -0.24735E+01  8424   0.376E+04 0.000E+00
CGA:   7    -0.584951448916E+03   -0.31952E+03   -0.38765E+03  8424   0.247E+04-0.998E+02
CGA:   8    -0.580733953607E+03    0.42175E+01   -0.14779E+03  8424   0.294E+04-0.217E+04
CGA:   9    -0.630934176432E+03   -0.50200E+02   -0.16089E+03  8424   0.365E+03 0.413E+02
CGA:  10    -0.648690982964E+03   -0.17757E+02   -0.32565E+02  8424   0.744E+02 0.751E+01
CGA:  11    -0.654133770884E+03   -0.54428E+01   -0.60862E+01  8424   0.143E+03-0.892E+02
CGA:  12    -0.654707891408E+03   -0.57412E+00   -0.98624E+01  8424   0.109E+03-0.345E+02
CGA:  13    -0.657784516447E+03   -0.30766E+01   -0.68157E+01  8424   0.853E+02-0.123E+02
CGA:  14    -0.662553679920E+03   -0.47692E+01   -0.46237E+01  8424   0.101E+03-0.777E+02
CGA:  15    -0.661731502148E+03    0.82218E+00   -0.61154E+01  8424   0.105E+03-0.584E+02
CGA:  16    -0.661968235373E+03   -0.23673E+00   -0.51942E+01  8424   0.150E+03-0.127E+03
CGA:  17    -0.660783652580E+03    0.11846E+01   -0.92141E+01  8424   0.574E+02-0.394E+02
CGA:  18    -0.666666577198E+03   -0.58829E+01   -0.15590E+01  8424   0.494E+01-0.635E+01
CGA:  19    -0.667049189421E+03   -0.38261E+00   -0.36148E+00  8424   0.678E+01-0.147E-01
CGA:  20    -0.667310079009E+03   -0.26089E+00   -0.18984E+00  8424   0.519E+01 0.240E+01
CGA:  21    -0.667779355646E+03   -0.46928E+00   -0.38627E+00  8424   0.543E+01 0.132E+01
CGA:  22    -0.667999759598E+03   -0.22040E+00   -0.22589E+00  8424   0.234E+01-0.497E+00
CGA:  23    -0.668171190278E+03   -0.17143E+00   -0.13783E+00  8424   0.260E+01 0.478E+00
CGA:  24    -0.668235974976E+03   -0.64785E-01   -0.52434E-01  8424   0.183E+01 0.582E+00
CGA:  25    -0.668316601896E+03   -0.80627E-01   -0.77331E-01  8424   0.327E+01 0.185E+00
CGA:  26    -0.668378058260E+03   -0.61456E-01   -0.44864E-01  8424   0.228E+01 0.119E+01
CGA:  27    -0.668421254144E+03   -0.43196E-01   -0.52164E-01  8424   0.158E+01-0.610E+00
CGA:  28    -0.668437463767E+03   -0.16210E-01   -0.22237E-01  8424   0.216E+01-0.315E+00
CGA:  29    -0.668468225144E+03   -0.30761E-01   -0.37811E-01  8424   0.193E+01-0.303E+00
CGA:  30    -0.668492005607E+03   -0.23780E-01   -0.35311E-01  8424   0.100E+01-0.486E+00
CGA:  31    -0.668512245133E+03   -0.20240E-01   -0.25739E-01  8424   0.106E+01-0.937E-01
CGA:  32    -0.668546841412E+03   -0.34596E-01   -0.38292E-01  8424   0.805E+00-0.379E-01
CGA:  33    -0.668585118308E+03   -0.38277E-01   -0.42251E-01  8424   0.681E+00-0.924E-03
CGA:  34    -0.668645504609E+03   -0.60386E-01   -0.59447E-01  8424   0.334E+00 0.895E-01
CGA:  35    -0.668720401747E+03   -0.74897E-01   -0.64736E-01  8424   0.439E+00 0.106E+00
CGA:  36    -0.668781740387E+03   -0.61339E-01   -0.64570E-01  8424   0.546E+00-0.102E+00
CGA:  37    -0.668823823992E+03   -0.42084E-01   -0.44845E-01  8424   0.974E+00-0.120E+00
CGA:  38    -0.668864449771E+03   -0.40626E-01   -0.39077E-01  8424   0.661E+00-0.603E-01
CGA:  39    -0.668907109247E+03   -0.42659E-01   -0.43828E-01  8424   0.399E+00-0.535E-01
CGA:  40    -0.668834443068E+03    0.72666E-01   -0.53878E-01  8424   0.252E+01-0.741E+00
CGA:  41    -0.669105477184E+03   -0.27103E+00   -0.29784E+00  8424   0.418E+00 0.158E+00
CGA:  42    -0.669292177110E+03   -0.18670E+00   -0.19632E+00  8424   0.463E+00-0.338E-01
CGA:  43    -0.669388183927E+03   -0.96007E-01   -0.97641E-01  8424   0.109E+00-0.286E-01
CGA:  44    -0.669419810586E+03   -0.31627E-01   -0.36237E-01  8424   0.105E+00-0.247E-01
CGA:  45    -0.669444978621E+03   -0.25168E-01   -0.50931E-01  8424   0.193E+00-0.596E-01
CGA:  46    -0.669477942962E+03   -0.32964E-01   -0.32803E-01  8424   0.440E-01-0.621E-02
CGA:  47    -0.669490119530E+03   -0.12177E-01   -0.12361E-01  8424   0.949E-02-0.212E-02
CGA:  48    -0.669483905255E+03    0.62143E-02   -0.44892E-02  8424   0.828E-01-0.168E-01
CGA:  49    -0.669498499079E+03   -0.14594E-01   -0.14727E-01  8424   0.122E-01 0.109E-02
CGA:  50    -0.669501949061E+03   -0.34500E-02   -0.33473E-02  8424   0.456E-02-0.107E-02
CGA:  51    -0.669503749776E+03   -0.18007E-02   -0.18948E-02  8424   0.267E-02-0.103E-02
CGA:  52    -0.669505289057E+03   -0.15393E-02    0.31876E-01  8424   0.200E-02-0.149E-03
CGA:  53    -0.669506857893E+03   -0.15688E-02    0.26311E-02  8424   0.119E-02 0.477E-03
CGA:  54    -0.669508365684E+03   -0.15078E-02    0.68436E-03  8424   0.640E-03 0.695E-03
CGA:  55    -0.669508906806E+03   -0.54112E-03    0.78708E-03  8424   0.504E-03 0.225E-03
CGA:  56    -0.669509569752E+03   -0.66295E-03    0.38661E-03  8424   0.373E-03 0.440E-03
CGA:  57    -0.669509994211E+03   -0.42446E-03    0.12565E-03  8424   0.319E-03 0.223E-03
CGA:  58    -0.669510303509E+03   -0.30930E-03    0.18353E-03  8424   0.367E-03 0.193E-03
CGA:  59    -0.669510703211E+03   -0.39970E-03    0.14080E-03  8424   0.604E-03 0.665E-04
CGA:  60    -0.669511626248E+03   -0.92304E-03    0.17248E-03  8424   0.429E-03 0.654E-03
CGA:  61    -0.669511813277E+03   -0.18703E-03   -0.22002E-03  8424   0.149E-02-0.230E-03
CGA:  62    -0.669512255898E+03   -0.44262E-03   -0.34514E-03  8424   0.991E-03-0.681E-03
CGA:  63    -0.669512787451E+03   -0.53155E-03    0.29098E-03  8424   0.589E-03 0.323E-03
CGA:  64    -0.669512451328E+03    0.33612E-03   -0.89384E-03  8424   0.143E-01-0.161E-02
CGA:  65    -0.669514896164E+03   -0.24448E-02   -0.22034E-02  8424   0.684E-03-0.996E-03
CGA:  66    -0.669515086574E+03   -0.19041E-03   -0.17817E-03  8424   0.550E-03-0.109E-03
CGA:  67    -0.669515689665E+03   -0.60309E-03    0.13205E-03  8424   0.394E-03 0.379E-03
CGA:  68    -0.669516025887E+03   -0.33622E-03    0.76269E-03  8424   0.506E-03 0.423E-05
CGA:  69    -0.669516709691E+03   -0.68380E-03    0.13756E-03  8424   0.534E-03 0.436E-03
CGA:  70    -0.669516679964E+03    0.29726E-04   -0.52392E-03  8424   0.443E-02-0.940E-03
CGA:  71    -0.669517724446E+03   -0.10445E-02   -0.10079E-02  8424   0.412E-03-0.193E-03
CGA:  72    -0.669518106551E+03   -0.38211E-03    0.42807E-03  8424   0.526E-03 0.427E-04
CGA:  73    -0.669518890582E+03   -0.78403E-03    0.18134E-03  8424   0.446E-03 0.492E-03
CGA:  74    -0.669519260554E+03   -0.36997E-03    0.62344E-02  8424   0.498E-03 0.264E-05
CGA:  75    -0.669519969879E+03   -0.70933E-03    0.13994E-03  8424   0.487E-03 0.407E-03
CGA:  76    -0.669516340799E+03    0.36291E-02   -0.19547E-02  8424   0.239E-01-0.220E-02
CGA:  77    -0.669522285522E+03   -0.59447E-02   -0.57330E-02  8424   0.181E-02-0.527E-03
CGA:  78    -0.669522784972E+03   -0.49945E-03   -0.47558E-03  8424   0.373E-03-0.524E-04
CGA:  79    -0.669523529637E+03   -0.74466E-03    0.26662E-03  8424   0.518E-03 0.186E-03
CGA:  80    -0.669525348302E+03   -0.18187E-02    0.39834E-03  8424   0.483E-03 0.593E-03
CGA:  81    -0.669525690060E+03   -0.34176E-03   -0.45180E-03  8424   0.336E-02-0.466E-03
CGA:  82    -0.669526466430E+03   -0.77637E-03   -0.66428E-03  8424   0.450E-03-0.222E-03
CGA:  83    -0.669527278816E+03   -0.81239E-03    0.34631E-03  8424   0.100E-02 0.830E-04
CGA:  84    -0.669529489021E+03   -0.22102E-02    0.11188E-02  8424   0.133E-02 0.672E-03
CGA:  85    -0.669530190167E+03   -0.70115E-03   -0.48257E-03  8424   0.171E-02-0.687E-03
CGA:  86    -0.669530388603E+03   -0.19844E-03   -0.27383E-03  8424   0.350E-03 0.150E-03
CGA:  87    -0.669531130617E+03   -0.74201E-03    0.23733E-03  8424   0.754E-03 0.269E-03
CGA:  88    -0.669531582763E+03   -0.45215E-03   -0.53744E-03  8424   0.601E-02-0.122E-02
CGA:  89    -0.669532268062E+03   -0.68530E-03   -0.88364E-03  8424   0.371E-03 0.408E-03
CGA:  90    -0.669532875870E+03   -0.60781E-03    0.52299E-03  8424   0.102E-02 0.132E-03
CGA:  91    -0.669535900420E+03   -0.30246E-02    0.56721E-03  8424   0.974E-03 0.121E-02
CGA:  92    -0.669536428184E+03   -0.52776E-03   -0.48550E-03  8424   0.123E-02-0.352E-03
CGA:  93    -0.669538073510E+03   -0.16453E-02    0.34334E-03  8424   0.211E-02 0.486E-03
CGA:  94    -0.669542196313E+03   -0.41228E-02    0.65874E-02  8424   0.153E-02 0.938E-03
CGA:  95    -0.669546281404E+03   -0.40851E-02    0.13326E-02  8424   0.127E-02 0.147E-02
CGA:  96    -0.669546751437E+03   -0.47003E-03   -0.39798E-03  8424   0.107E-02-0.244E-03
CGA:  97    -0.669548304614E+03   -0.15532E-02    0.51558E-03  8424   0.123E-02 0.436E-03
CGA:  98    -0.669550960478E+03   -0.26559E-02    0.18345E-02  8424   0.211E-02 0.635E-03
CGA:  99    -0.669551560081E+03   -0.59960E-03   -0.48416E-03  8424   0.761E-03-0.316E-03
CGA: 100    -0.669552748167E+03   -0.11881E-02    0.32450E-03  8424   0.566E-03 0.471E-03
CGA: 101    -0.669553569645E+03   -0.82148E-03    0.65784E-03  8424   0.865E-03 0.125E-03
CGA: 102    -0.669555782536E+03   -0.22129E-02    0.38238E-03  8424   0.756E-03 0.965E-03
CGA: 103    -0.669543867060E+03    0.11915E-01   -0.64163E-02  8424   0.745E-01-0.468E-02
CGA: 104    -0.669561190375E+03   -0.17323E-01   -0.17324E-01  8424   0.377E-02-0.524E-03
CGA: 105    -0.669562325120E+03   -0.11347E-02   -0.99704E-03  8424   0.102E-02-0.183E-03
CGA: 106    -0.669563273512E+03   -0.94839E-03   -0.96824E-03  8424   0.540E-02-0.105E-02
CGA: 107    -0.669564529141E+03   -0.12556E-02   -0.12076E-02  8424   0.113E-02-0.331E-04
CGA: 108    -0.669565526514E+03   -0.99737E-03   -0.80441E-03  8424   0.331E-02-0.860E-03
CGA: 109    -0.669566243679E+03   -0.71717E-03   -0.70929E-03  8424   0.899E-03 0.129E-05
CGA: 110    -0.669566312595E+03   -0.68916E-04   -0.14107E-02  8424   0.145E-01-0.201E-02
CGA: 111    -0.669569043225E+03   -0.27306E-02   -0.28504E-02  8424   0.262E-02 0.328E-03
CGA: 112    -0.669570268880E+03   -0.12257E-02   -0.93779E-03  8424   0.101E-02-0.535E-03
CGA: 113    -0.669559780789E+03    0.10488E-01   -0.31832E-02  8424   0.910E-01-0.447E-02
CGA: 114    -0.669577339360E+03   -0.17559E-01   -0.17509E-01  8424   0.985E-02-0.446E-02
CGA: 115    -0.669579369647E+03   -0.20303E-02   -0.20891E-02  8424   0.139E-02 0.115E-03
CGA: 116    -0.669580347330E+03   -0.97768E-03   -0.76307E-03  8424   0.115E-02-0.545E-03
CGA: 117    -0.669582431622E+03   -0.20843E-02    0.51748E-03  8424   0.229E-02 0.146E-04
CGA: 118    -0.669588309291E+03   -0.58777E-02    0.28765E-02  8424   0.541E-02 0.463E-04
CGA: 119    -0.669600457920E+03   -0.12149E-01    0.13132E-01  8424   0.211E-01-0.419E-02
CGA: 120    -0.669604538607E+03   -0.40807E-02   -0.40842E-02  8424   0.340E-02 0.104E-03
CGA: 121    -0.669605912882E+03   -0.13743E-02   -0.11825E-02  8424   0.686E-03-0.358E-03
CGA: 122    -0.669606426912E+03   -0.51403E-03   -0.34416E-03  8424   0.172E-02-0.575E-03
CGA: 123    -0.669606901669E+03   -0.47476E-03   -0.35499E-03  8424   0.403E-03-0.188E-03
CGA: 124    -0.669607709939E+03   -0.80827E-03    0.37583E-03  8424   0.169E-02-0.293E-03
CGA: 125    -0.669608147207E+03   -0.43727E-03   -0.32461E-03  8424   0.378E-03-0.180E-03
CGA: 126    -0.669608938549E+03   -0.79134E-03    0.26451E-03  8424   0.145E-02-0.255E-03
CGA: 127    -0.669609339041E+03   -0.40049E-03   -0.28805E-03  8424   0.384E-03-0.191E-03
CGA: 128    -0.669610142492E+03   -0.80345E-03    0.20815E-03  8424   0.148E-02-0.263E-03
CGA: 129    -0.669610519070E+03   -0.37658E-03   -0.27925E-03  8424   0.355E-03-0.170E-03
CGA: 130    -0.669611286165E+03   -0.76710E-03    0.16614E-03  8424   0.127E-02-0.229E-03
CGA: 131    -0.669611631779E+03   -0.34561E-03   -0.24886E-03  8424   0.363E-03-0.181E-03
CGA: 132    -0.669612419946E+03   -0.78817E-03    0.13284E-03  8424   0.123E-02-0.228E-03
CGA: 133    -0.669612738649E+03   -0.31870E-03   -0.23694E-03  8424   0.344E-03-0.159E-03
CGA: 134    -0.669613487712E+03   -0.74906E-03    0.11710E-03  8424   0.109E-02-0.213E-03
CGA: 135    -0.669613793607E+03   -0.30590E-03   -0.22151E-03  8424   0.365E-03-0.178E-03
CGA: 136    -0.669614561828E+03   -0.76822E-03    0.10613E-03  8424   0.111E-02-0.232E-03
CGA: 137    -0.669614849119E+03   -0.28729E-03   -0.21879E-03  8424   0.343E-03-0.149E-03
CGA: 138    -0.669615559766E+03   -0.71065E-03    0.10248E-03  8424   0.101E-02-0.227E-03
CGA: 139    -0.669615844479E+03   -0.28471E-03   -0.20979E-03  8424   0.370E-03-0.178E-03
CGA: 140    -0.669616578165E+03   -0.73369E-03    0.93606E-04  8424   0.102E-02-0.244E-03
CGA: 141    -0.669616845299E+03   -0.26713E-03   -0.20665E-03  8424   0.344E-03-0.148E-03
CGA: 142    -0.669617518946E+03   -0.67365E-03    0.89544E-04  8424   0.920E-03-0.232E-03
CGA: 143    -0.669617787666E+03   -0.26872E-03   -0.19847E-03  8424   0.379E-03-0.189E-03
CGA: 144    -0.669618495453E+03   -0.70779E-03    0.79306E-04  8424   0.910E-03-0.240E-03
CGA: 145    -0.669618748949E+03   -0.25350E-03   -0.19532E-03  8424   0.355E-03-0.164E-03
CGA: 146    -0.669619396505E+03   -0.64756E-03    0.77725E-04  8424   0.865E-03-0.237E-03
CGA: 147    -0.669619656169E+03   -0.25966E-03   -0.19238E-03  8424   0.389E-03-0.205E-03
CGA: 148    -0.669620332997E+03   -0.67683E-03    0.69179E-04  8424   0.827E-03-0.236E-03
CGA: 149    -0.669620577730E+03   -0.24473E-03   -0.18779E-03  8424   0.372E-03-0.185E-03
CGA: 150    -0.669621202322E+03   -0.62459E-03    0.68310E-04  8424   0.826E-03-0.242E-03
CGA: 151    -0.669621458532E+03   -0.25621E-03   -0.19081E-03  8424   0.409E-03-0.228E-03
CGA: 152    -0.669622105886E+03   -0.64735E-03    0.63717E-04  8424   0.798E-03-0.247E-03
CGA: 153    -0.669622347375E+03   -0.24149E-03   -0.18719E-03  8424   0.383E-03-0.202E-03
CGA: 154    -0.669622937631E+03   -0.59026E-03    0.63231E-04  8424   0.804E-03-0.252E-03
CGA: 155    -0.669623187674E+03   -0.25004E-03   -0.18796E-03  8424   0.415E-03-0.242E-03
CGA: 156    -0.669623801961E+03   -0.61429E-03    0.56784E-04  8424   0.734E-03-0.241E-03
CGA: 157    -0.669624036899E+03   -0.23494E-03   -0.18274E-03  8424   0.411E-03-0.229E-03
CGA: 158    -0.669624614421E+03   -0.57752E-03    0.55228E-04  8424   0.782E-03-0.256E-03
CGA: 159    -0.669624870131E+03   -0.25571E-03   -0.19565E-03  8424   0.463E-03-0.279E-03
CGA: 160    -0.669625462893E+03   -0.59276E-03    0.57245E-04  8424   0.799E-03-0.281E-03
CGA: 161    -0.669625704234E+03   -0.24134E-03   -0.19400E-03  8424   0.388E-03-0.223E-03
CGA: 162    -0.669626219400E+03   -0.51517E-03    0.57970E-04  8424   0.775E-03-0.271E-03
CGA: 163    -0.669626448430E+03   -0.22903E-03   -0.17524E-03  8424   0.388E-03-0.246E-03
CGA: 164    -0.669626995174E+03   -0.54674E-03    0.41305E-04  8424   0.543E-03-0.189E-03
CGA: 165    -0.669628143457E+03   -0.11483E-02    0.16045E-04  8424   0.285E-03 0.234E-03
CGA: 166    -0.669628977616E+03   -0.83416E-03    0.65035E-04  8424   0.709E-03-0.162E-03
CGA: 167    -0.669629273247E+03   -0.29563E-03   -0.19195E-03  8424   0.977E-03-0.639E-03
CGA: 168    -0.669629426536E+03   -0.15329E-03   -0.12999E-03  8424   0.835E-04-0.781E-04
CGA: 169    -0.669629791431E+03   -0.36489E-03    0.32983E-05  8424   0.704E-04 0.590E-04
CGA: 170    -0.669630093808E+03   -0.30238E-03    0.34134E-05  8424   0.128E-03 0.346E-04
CGA: 171    -0.669631025929E+03   -0.93212E-03    0.78966E-05  8424   0.660E-04 0.160E-03
CGA: 172    -0.669631328330E+03   -0.30240E-03    0.29539E-05  8424   0.896E-04 0.426E-04
CGA: 173    -0.669631651050E+03   -0.32272E-03    0.54350E-05  8424   0.266E-03-0.228E-04
CGA: 174    -0.669632874237E+03   -0.12232E-02    0.62381E-05  8424   0.522E-03 0.151E-03
CGA: 175    -0.669633012174E+03   -0.13794E-03   -0.97874E-04  8424   0.226E-03-0.180E-03
CGA: 176    -0.669633449441E+03   -0.43727E-03    0.10956E-04  8424   0.193E-03-0.103E-04
CGA: 177    -0.669634130977E+03   -0.68154E-03    0.10135E-04  8424   0.580E-04 0.110E-03
CGA: 178    -0.669634420216E+03   -0.28924E-03    0.22117E-05  8424   0.623E-04 0.433E-04
CGA: 179    -0.669634715310E+03   -0.29509E-03    0.25206E-05  8424   0.838E-04 0.327E-04
CGA: 180    -0.669634968501E+03   -0.25319E-03    0.60098E-05  8424   0.207E-03-0.189E-04
CGA: 181    -0.669635945210E+03   -0.97671E-03    0.48211E-05  8424   0.330E-03 0.123E-03
CGA: 182    -0.669626405774E+03    0.95394E-02   -0.52597E-02  8424   0.861E-01-0.473E-02
CGA: 183    -0.669637328625E+03   -0.10923E-01   -0.10958E-01  8424   0.294E-02 0.169E-02
CGA: 184    -0.669638057259E+03   -0.72863E-03   -0.60850E-03  8424   0.113E-03-0.246E-03
CGA: 185    -0.669638470606E+03   -0.41335E-03    0.17871E-04  8424   0.320E-03-0.688E-04
CGA: 186    -0.669638703126E+03   -0.23252E-03   -0.19739E-03  8424   0.178E-02-0.621E-03
CGA: 187    -0.669639037057E+03   -0.33393E-03   -0.30378E-03  8424   0.122E-03-0.592E-04
CGA: 188    -0.669639457933E+03   -0.42088E-03    0.21806E-04  8424   0.643E-03-0.156E-03
CGA: 189    -0.669639611543E+03   -0.15361E-03   -0.11682E-03  8424   0.111E-03-0.786E-04
CGA: 190    -0.669640093236E+03   -0.48169E-03    0.10289E-04  8424   0.417E-03-0.781E-04
CGA: 191    -0.669640213502E+03   -0.12027E-03   -0.81829E-04  8424   0.124E-03-0.899E-04
CGA: 192    -0.669640727030E+03   -0.51353E-03    0.86496E-05  8424   0.326E-03-0.494E-04
CGA: 193    -0.669642444164E+03   -0.17171E-02    0.94472E-05  8424   0.222E-03 0.165E-03
CGA: 194    -0.669642475935E+03   -0.31771E-04   -0.19231E-03  8424   0.281E-02-0.608E-03
CGA: 195    -0.669643091347E+03   -0.61541E-03   -0.46327E-03  8424   0.315E-03-0.345E-03
CGA: 196    -0.669643261825E+03   -0.17048E-03   -0.13977E-03  8424   0.852E-03-0.356E-03
CGA: 197    -0.669643576121E+03   -0.31430E-03   -0.18121E-03  8424   0.341E-03-0.357E-03
CGA: 198    -0.669643908092E+03   -0.33197E-03    0.12023E-03  8424   0.706E-03-0.225E-03
CGA: 199    -0.669644194118E+03   -0.28603E-03   -0.16825E-03  8424   0.401E-03-0.357E-03
CGA: 200    -0.669644275131E+03   -0.81013E-04   -0.60225E-04  8424   0.601E-04-0.514E-04
   1 F= -.66964428E+03 E0= -.66964428E+03  d E =-.669644E+03  mag=     2.0000
       N       E                     dE             d eps       ncg     rms          ort
SDA:   1    -0.669645929522E+03   -0.17354E-02    0.00000E+00  8424   0.137E-02 0.000E+00
CGA:   2    -0.669646311655E+03   -0.38213E-03   -0.26342E-03  8424   0.794E-03-0.351E-03
CGA:   3    -0.669646614130E+03   -0.30247E-03   -0.30854E-03  8424   0.233E-02-0.881E-03
CGA:   4    -0.669646976679E+03   -0.36255E-03   -0.29864E-03  8424   0.430E-03-0.164E-03
CGA:   5    -0.669647153211E+03   -0.17653E-03   -0.13100E-03  8424   0.491E-03-0.271E-03
CGA:   6    -0.669647317594E+03   -0.16438E-03   -0.91933E-04  8424   0.302E-03-0.241E-03
CGA:   7    -0.669647702044E+03   -0.38445E-03    0.22076E-04  8424   0.439E-03-0.158E-03
CGA:   8    -0.669647890851E+03   -0.18881E-03   -0.14205E-03  8424   0.491E-03-0.313E-03
CGA:   9    -0.669648031951E+03   -0.14110E-03   -0.90177E-04  8424   0.155E-03-0.181E-03
CGA:  10    -0.669648378268E+03   -0.34632E-03    0.75445E-05  8424   0.127E-03-0.155E-04
CGA:  11    -0.669648884123E+03   -0.50586E-03    0.65972E-05  8424   0.120E-03 0.261E-04
CGA:  12    -0.669649634017E+03   -0.74989E-03    0.68953E-05  8424   0.223E-03 0.777E-05
CGA:  13    -0.669651234800E+03   -0.16008E-02    0.82929E-05  8424   0.169E-03 0.143E-03
CGA:  14    -0.669651471890E+03   -0.23709E-03    0.69110E-04  8424   0.293E-03-0.150E-03
CGA:  15    -0.669651604878E+03   -0.13299E-03   -0.12946E-03  8424   0.613E-03-0.368E-03
CGA:  16    -0.669651853093E+03   -0.24821E-03   -0.19031E-03  8424   0.394E-03-0.414E-03
CGA:  17    -0.669651974076E+03   -0.12098E-03   -0.91533E-04  8424   0.142E-03-0.139E-03
CGA:  18    -0.669652291416E+03   -0.31734E-03    0.66791E-05  8424   0.210E-03-0.453E-04
CGA:  19    -0.669652962375E+03   -0.67096E-03    0.70352E-05  8424   0.613E-04 0.693E-04
CGA:  20    -0.669653333574E+03   -0.37120E-03    0.41560E-05  8424   0.153E-03-0.681E-05
CGA:  21    -0.669654519555E+03   -0.11860E-02    0.32299E-05  8424   0.355E-03 0.687E-04
CGA:  22    -0.669657643468E+03   -0.31239E-02    0.18612E-04  8424   0.708E-03 0.111E-03
CGA:  23    -0.669664152135E+03   -0.65087E-02    0.28486E-04  8424   0.850E-03 0.259E-03
CGA:  24    -0.669672388948E+03   -0.82368E-02    0.34933E-04  8424   0.156E-02-0.601E-04
CGA:  25    -0.669688501408E+03   -0.16112E-01    0.26588E-04  8424   0.266E-02-0.985E-03
CGA:  26    -0.669688894144E+03   -0.39274E-03   -0.42899E-03  8424   0.957E-04 0.137E-03
CGA:  27    -0.669688891144E+03    0.29994E-05   -0.11877E-04  8424   0.346E-04 0.492E-04
   2 F= -.66968889E+03 E0= -.66968889E+03  d E =-.446160E-01  mag=     2.0000
       N       E                     dE             d eps       ncg     rms          ort
SDA:   1    -0.669664535604E+03    0.24359E-01    0.00000E+00  8424   0.106E+00 0.000E+00
CGA:   2    -0.669685734028E+03   -0.21198E-01   -0.21218E-01  8424   0.429E-01 0.842E-04
CGA:   3    -0.669694794600E+03   -0.90606E-02   -0.90805E-02  8424   0.145E-01 0.109E-03
CGA:   4    -0.669697132168E+03   -0.23376E-02   -0.23659E-02  8424   0.349E-02 0.134E-03
CGA:   5    -0.669697694054E+03   -0.56189E-03   -0.59168E-03  8424   0.696E-03 0.155E-03
CGA:   6    -0.669697789433E+03   -0.95380E-04   -0.12207E-03  8424   0.153E-03 0.147E-03
CGA:   7    -0.669697790777E+03   -0.13434E-05   -0.22677E-04  8424   0.681E-04 0.977E-04
   3 F= -.66969779E+03 E0= -.66969779E+03  d E =-.889963E-02  mag=     2.0000
       N       E                     dE             d eps       ncg     rms          ort
SDA:   1    -0.667715850940E+03    0.19819E+01    0.00000E+00  8424   0.610E+01 0.000E+00
CGA:   2    -0.668972957977E+03   -0.12571E+01   -0.12581E+01  8424   0.257E+01 0.237E-02
CGA:   3    -0.669513910000E+03   -0.54095E+00   -0.54077E+00  8424   0.823E+00-0.117E-02
CGA:   4    -0.669649043671E+03   -0.13513E+00   -0.13516E+00  8424   0.197E+00 0.604E-04
CGA:   5    -0.669683068427E+03   -0.34025E-01   -0.34122E-01  8424   0.411E-01 0.718E-03
CGA:   6    -0.669691115267E+03   -0.80468E-02   -0.80875E-02  8424   0.890E-02 0.411E-03
CGA:   7    -0.669693071149E+03   -0.19559E-02   -0.19812E-02  8424   0.256E-02 0.369E-03
CGA:   8    -0.669693643857E+03   -0.57271E-03   -0.59262E-03  8424   0.707E-03 0.316E-03
CGA:   9    -0.669693775673E+03   -0.13182E-03   -0.15531E-03  8424   0.233E-03 0.270E-03
CGA:  10    -0.669693785752E+03   -0.10079E-04   -0.40866E-04  8424   0.134E-03 0.204E-03
CGA:  11    -0.669693779211E+03    0.65407E-05   -0.13073E-04  8424   0.100E-03 0.114E-03
   4 F= -.66969378E+03 E0= -.66969378E+03  d E =0.401157E-02  mag=     2.0000
       N       E                     dE             d eps       ncg     rms          ort
SDA:   1    -0.668846698695E+03    0.84709E+00    0.00000E+00  8424   0.281E+01 0.000E+00
CGA:   2    -0.669398058978E+03   -0.55136E+00   -0.55159E+00  8424   0.109E+01 0.259E-02
CGA:   3    -0.669633230709E+03   -0.23517E+00   -0.23517E+00  8424   0.374E+00-0.151E-03
CGA:   4    -0.669695328413E+03   -0.62098E-01   -0.62134E-01  8424   0.915E-01 0.362E-03
CGA:   5    -0.669711025063E+03   -0.15697E-01   -0.15730E-01  8424   0.188E-01 0.440E-03
CGA:   6    -0.669714738879E+03   -0.37138E-02   -0.37189E-02  8424   0.409E-02 0.115E-03
CGA:   7    -0.669715581776E+03   -0.84290E-03   -0.85403E-03  8424   0.108E-02 0.363E-03
CGA:   8    -0.669715780451E+03   -0.19868E-03   -0.21644E-03  8424   0.292E-03 0.334E-03
CGA:   9    -0.669715810790E+03   -0.30339E-04   -0.50953E-04  8424   0.128E-03 0.205E-03
CGA:  10    -0.669715808606E+03    0.21840E-05   -0.11801E-04  8424   0.867E-04 0.102E-03
   5 F= -.66971581E+03 E0= -.66971581E+03  d E =-.220294E-01  mag=     2.0000
       N       E                     dE             d eps       ncg     rms          ort
SDA:   1    -0.669374513168E+03    0.34130E+00    0.00000E+00  8424   0.972E+00 0.000E+00
CGA:   2    -0.669587086742E+03   -0.21257E+00   -0.21257E+00  8424   0.431E+00 0.434E-03
CGA:   3    -0.669675929928E+03   -0.88843E-01   -0.88843E-01  8424   0.128E+00-0.390E-04
CGA:   4    -0.669696604377E+03   -0.20674E-01   -0.20696E-01  8424   0.305E-01 0.397E-03
CGA:   5    -0.669701863579E+03   -0.52592E-02   -0.52753E-02  8424   0.627E-02 0.405E-03
CGA:   6    -0.669703097435E+03   -0.12339E-02   -0.12369E-02  8424   0.140E-02 0.202E-03
CGA:   7    -0.669703369455E+03   -0.27202E-03   -0.27661E-03  8424   0.375E-03 0.263E-03
CGA:   8    -0.669703418380E+03   -0.48926E-04   -0.63182E-04  8424   0.144E-03 0.216E-03
CGA:   9    -0.669703423057E+03   -0.46765E-05   -0.15243E-04  8424   0.873E-04 0.107E-03
   6 F= -.66970342E+03 E0= -.66970342E+03  d E =0.123855E-01  mag=     2.0000
       N       E                     dE             d eps       ncg     rms          ort
SDA:   1    -0.665095913390E+03    0.46075E+01    0.00000E+00  8424   0.150E+02 0.000E+00
CGA:   2    -0.667964043590E+03   -0.28681E+01   -0.28682E+01  8424   0.563E+01 0.338E-01
CGA:   3    -0.669189420983E+03   -0.12254E+01   -0.12256E+01  8424   0.198E+01-0.788E-02
CGA:   4    -0.669521493206E+03   -0.33207E+00   -0.33209E+00  8424   0.490E+00 0.622E-04
CGA:   5    -0.669605199178E+03   -0.83706E-01   -0.83741E-01  8424   0.101E+00 0.140E-02
CGA:   6    -0.669625278860E+03   -0.20080E-01   -0.20080E-01  8424   0.221E-01-0.101E-03
CGA:   7    -0.669630163256E+03   -0.48844E-02   -0.48673E-02  8424   0.623E-02 0.612E-03
CGA:   8    -0.669631659638E+03   -0.14964E-02   -0.14832E-02  8424   0.170E-02 0.350E-03
CGA:   9    -0.669632102939E+03   -0.44330E-03   -0.43352E-03  8424   0.490E-03 0.215E-03
CGA:  10    -0.669632197773E+03   -0.94834E-04   -0.99413E-04  8424   0.206E-03 0.257E-03
CGA:  11    -0.669632222310E+03   -0.24537E-04   -0.31109E-04  8424   0.117E-03 0.142E-03
CGA:  12    -0.669632226495E+03   -0.41843E-05   -0.12948E-04  8424   0.951E-04 0.104E-03
   7 F= -.66963223E+03 E0= -.66963223E+03  d E =0.711966E-01  mag=     2.0000
       N       E                     dE             d eps       ncg     rms          ort
SDA:   1    -0.667757776848E+03    0.18744E+01    0.00000E+00  8424   0.642E+01 0.000E+00
CGA:   2    -0.669004869474E+03   -0.12471E+01   -0.12470E+01  8424   0.244E+01 0.104E-01
CGA:   3    -0.669531536607E+03   -0.52667E+00   -0.52670E+00  8424   0.850E+00-0.145E-02
CGA:   4    -0.669673502226E+03   -0.14197E+00   -0.14198E+00  8424   0.211E+00 0.587E-03
CGA:   5    -0.669709834828E+03   -0.36333E-01   -0.36343E-01  8424   0.436E-01 0.680E-03
CGA:   6    -0.669718513392E+03   -0.86786E-02   -0.86820E-02  8424   0.953E-02-0.280E-03
CGA:   7    -0.669720546595E+03   -0.20332E-02   -0.20197E-02  8424   0.259E-02 0.500E-03
CGA:   8    -0.669721120135E+03   -0.57354E-03   -0.56475E-03  8424   0.649E-03 0.445E-03
CGA:   9    -0.669721266797E+03   -0.14666E-03   -0.14592E-03  8424   0.201E-03 0.250E-03
CGA:  10    -0.669721287055E+03   -0.20258E-04   -0.32810E-04  8424   0.109E-03 0.176E-03
CGA:  11    -0.669721286518E+03    0.53709E-06   -0.89954E-05  8424   0.820E-04 0.930E-04
   8 F= -.66972129E+03 E0= -.66972129E+03  d E =-.890600E-01  mag=     2.0000
       N       E                     dE             d eps       ncg     rms          ort
SDA:   1    -0.669449691767E+03    0.27160E+00    0.00000E+00  8424   0.876E+00 0.000E+00
CGA:   2    -0.669618562149E+03   -0.16887E+00   -0.16885E+00  8424   0.327E+00 0.113E-02
CGA:   3    -0.669689530428E+03   -0.70968E-01   -0.70955E-01  8424   0.117E+00 0.235E-03
CGA:   4    -0.669709137182E+03   -0.19607E-01   -0.19610E-01  8424   0.289E-01 0.294E-03
CGA:   5    -0.669714096224E+03   -0.49590E-02   -0.49609E-02  8424   0.588E-02 0.300E-03
CGA:   6    -0.669715246415E+03   -0.11502E-02   -0.11477E-02  8424   0.126E-02 0.150E-03
CGA:   7    -0.669715495649E+03   -0.24923E-03   -0.24625E-03  8424   0.324E-03 0.230E-03
CGA:   8    -0.669715543049E+03   -0.47400E-04   -0.54104E-04  8424   0.116E-03 0.181E-03
CGA:   9    -0.669715548564E+03   -0.55148E-05   -0.11893E-04  8424   0.692E-04 0.859E-04
   9 F= -.66971555E+03 E0= -.66971555E+03  d E =0.573795E-02  mag=     2.0000
       N       E                     dE             d eps       ncg     rms          ort
SDA:   1    -0.669586894518E+03    0.12865E+00    0.00000E+00  8424   0.343E+00 0.000E+00
CGA:   2    -0.669664829240E+03   -0.77935E-01   -0.77925E-01  8424   0.162E+00 0.102E-03
CGA:   3    -0.669697659358E+03   -0.32830E-01   -0.32829E-01  8424   0.455E-01 0.241E-06
CGA:   4    -0.669704919263E+03   -0.72599E-02   -0.72626E-02  8424   0.106E-01 0.207E-03
CGA:   5    -0.669706746411E+03   -0.18271E-02   -0.18271E-02  8424   0.217E-02 0.165E-03
CGA:   6    -0.669707187651E+03   -0.44124E-03   -0.43983E-03  8424   0.501E-03 0.499E-04
CGA:   7    -0.669707285857E+03   -0.98206E-04   -0.96634E-04  8424   0.135E-03 0.998E-04
CGA:   8    -0.669707306438E+03   -0.20581E-04   -0.23113E-04  8424   0.560E-04 0.805E-04
CGA:   9    -0.669707311420E+03   -0.49820E-05   -0.69248E-05  8424   0.334E-04 0.400E-04
  10 F= -.66970731E+03 E0= -.66970731E+03  d E =0.823714E-02  mag=     2.0000
       N       E                     dE             d eps       ncg     rms          ort
SDA:   1    -0.665402180115E+03    0.43051E+01    0.00000E+00  8424   0.138E+02 0.000E+00
CGA:   2    -0.668091137288E+03   -0.26890E+01   -0.26878E+01  8424   0.529E+01 0.315E-01
CGA:   3    -0.669232621945E+03   -0.11415E+01   -0.11418E+01  8424   0.184E+01-0.681E-02
CGA:   4    -0.669538024326E+03   -0.30540E+00   -0.30540E+00  8424   0.454E+00-0.511E-04
CGA:   5    -0.669616030145E+03   -0.78006E-01   -0.78002E-01  8424   0.942E-01 0.149E-02
CGA:   6    -0.669634696537E+03   -0.18666E-01   -0.18665E-01  8424   0.205E-01 0.176E-04
CGA:   7    -0.669639222391E+03   -0.45259E-02   -0.44969E-02  8424   0.580E-02 0.600E-03
CGA:   8    -0.669640643998E+03   -0.14216E-02   -0.14055E-02  8424   0.161E-02 0.259E-03
CGA:   9    -0.669641069784E+03   -0.42579E-03   -0.41499E-03  8424   0.465E-03 0.152E-03
CGA:  10    -0.669641166145E+03   -0.96361E-04   -0.94915E-04  8424   0.182E-03 0.220E-03
CGA:  11    -0.669641195422E+03   -0.29277E-04   -0.36493E-04  8424   0.101E-03 0.162E-03
CGA:  12    -0.669641202716E+03   -0.72944E-05   -0.12009E-04  8424   0.696E-04 0.801E-04
  11 F= -.66964120E+03 E0= -.66964120E+03  d E =0.661087E-01  mag=     2.0000
       N       E                     dE             d eps       ncg     rms          ort
SDA:   1    -0.668552934758E+03    0.10883E+01    0.00000E+00  8424   0.382E+01 0.000E+00
CGA:   2    -0.669293729025E+03   -0.74079E+00   -0.74062E+00  8424   0.145E+01 0.640E-02
CGA:   3    -0.669608032351E+03   -0.31430E+00   -0.31432E+00  8424   0.509E+00-0.682E-03
CGA:   4    -0.669692904018E+03   -0.84872E-01   -0.84876E-01  8424   0.126E+00 0.524E-03
CGA:   5    -0.669714531052E+03   -0.21627E-01   -0.21628E-01  8424   0.260E-01 0.485E-03
CGA:   6    -0.669719717182E+03   -0.51861E-02   -0.51914E-02  8424   0.570E-02-0.211E-03
CGA:   7    -0.669720913944E+03   -0.11968E-02   -0.11833E-02  8424   0.151E-02 0.390E-03
CGA:   8    -0.669721237869E+03   -0.32393E-03   -0.31701E-03  8424   0.383E-03 0.353E-03
CGA:   9    -0.669721314424E+03   -0.76555E-04   -0.78731E-04  8424   0.137E-03 0.199E-03
CGA:  10    -0.669721322892E+03   -0.84683E-05   -0.15151E-04  8424   0.830E-04 0.101E-03
  12 F= -.66972132E+03 E0= -.66972132E+03  d E =-.801202E-01  mag=     2.0000
       N       E                     dE             d eps       ncg     rms          ort
SDA:   1    -0.669294271476E+03    0.42704E+00    0.00000E+00  8424   0.140E+01 0.000E+00
CGA:   2    -0.669566108077E+03   -0.27184E+00   -0.27179E+00  8424   0.532E+00 0.179E-02
CGA:   3    -0.669680986458E+03   -0.11488E+00   -0.11488E+00  8424   0.189E+00-0.805E-04
CGA:   4    -0.669712383931E+03   -0.31397E-01   -0.31399E-01  8424   0.466E-01 0.228E-03
CGA:   5    -0.669720424151E+03   -0.80402E-02   -0.80402E-02  8424   0.962E-02 0.241E-03
CGA:   6    -0.669722344558E+03   -0.19204E-02   -0.19213E-02  8424   0.211E-02-0.341E-04
CGA:   7    -0.669722786608E+03   -0.44205E-03   -0.43625E-03  8424   0.560E-03 0.173E-03
CGA:   8    -0.669722901278E+03   -0.11467E-03   -0.11285E-03  8424   0.148E-03 0.163E-03
CGA:   9    -0.669722928113E+03   -0.26835E-04   -0.29050E-04  8424   0.610E-04 0.918E-04
CGA:  10    -0.669722931932E+03   -0.38191E-05   -0.67652E-05  8424   0.390E-04 0.463E-04
  13 F= -.66972293E+03 E0= -.66972293E+03  d E =-.160904E-02  mag=     2.0000
       N       E                     dE             d eps       ncg     rms          ort
SDA:   1    -0.669698126687E+03    0.24801E-01    0.00000E+00  8424   0.691E-01 0.000E+00
CGA:   2    -0.669712105168E+03   -0.13978E-01   -0.13977E-01  8424   0.280E-01 0.320E-04
CGA:   3    -0.669718017217E+03   -0.59120E-02   -0.59086E-02  8424   0.939E-02 0.737E-04
CGA:   4    -0.669719563108E+03   -0.15459E-02   -0.15463E-02  8424   0.229E-02 0.601E-04
CGA:   5    -0.669719957685E+03   -0.39458E-03   -0.39453E-03  8424   0.472E-03 0.545E-04
CGA:   6    -0.669720049362E+03   -0.91677E-04   -0.90983E-04  8424   0.107E-03 0.388E-04
CGA:   7    -0.669720068541E+03   -0.19179E-04   -0.19353E-04  8424   0.364E-04 0.404E-04
CGA:   8    -0.669720072292E+03   -0.37515E-05   -0.56265E-05  8424   0.210E-04 0.318E-04
  14 F= -.66972007E+03 E0= -.66972007E+03  d E =0.285964E-02  mag=     2.0000
       N       E                     dE             d eps       ncg     rms          ort
SDA:   1    -0.665824753056E+03    0.38953E+01    0.00000E+00  8424   0.125E+02 0.000E+00
CGA:   2    -0.668237686345E+03   -0.24129E+01   -0.24119E+01  8424   0.472E+01 0.274E-01
CGA:   3    -0.669261372308E+03   -0.10237E+01   -0.10240E+01  8424   0.166E+01-0.612E-02
CGA:   4    -0.669538228637E+03   -0.27686E+00   -0.27686E+00  8424   0.411E+00-0.184E-03
CGA:   5    -0.669608837023E+03   -0.70608E-01   -0.70604E-01  8424   0.851E-01 0.131E-02
CGA:   6    -0.669625701235E+03   -0.16864E-01   -0.16864E-01  8424   0.186E-01 0.512E-05
CGA:   7    -0.669629798069E+03   -0.40968E-02   -0.40726E-02  8424   0.524E-02 0.490E-03
CGA:   8    -0.669631095323E+03   -0.12973E-02   -0.12885E-02  8424   0.148E-02 0.130E-03
CGA:   9    -0.669631492551E+03   -0.39723E-03   -0.39343E-03  8424   0.448E-03 0.446E-04
CGA:  10    -0.669631596475E+03   -0.10392E-03   -0.98794E-04  8424   0.160E-03 0.150E-03
CGA:  11    -0.669631634783E+03   -0.38309E-04   -0.38470E-04  8424   0.779E-04 0.106E-03
CGA:  12    -0.669631646093E+03   -0.11310E-04   -0.12476E-04  8424   0.466E-04 0.537E-04
CGA:  13    -0.669631647985E+03   -0.18915E-05   -0.50234E-05  8424   0.401E-04 0.429E-04
  15 F= -.66963165E+03 E0= -.66963165E+03  d E =0.884243E-01  mag=     2.0000
       N       E                     dE             d eps       ncg     rms          ort
SDA:   1    -0.666620287527E+03    0.30114E+01    0.00000E+00  8424   0.102E+02 0.000E+00
CGA:   2    -0.668588185745E+03   -0.19679E+01   -0.19674E+01  8424   0.386E+01 0.206E-01
CGA:   3    -0.669425136263E+03   -0.83695E+00   -0.83713E+00  8424   0.135E+01-0.440E-02
CGA:   4    -0.669650589126E+03   -0.22545E+00   -0.22546E+00  8424   0.335E+00 0.507E-03
CGA:   5    -0.669708020238E+03   -0.57431E-01   -0.57435E-01  8424   0.696E-01 0.793E-03
CGA:   6    -0.669721935339E+03   -0.13915E-01   -0.13936E-01  8424   0.153E-01-0.895E-03
CGA:   7    -0.669725254509E+03   -0.33192E-02   -0.33035E-02  8424   0.426E-02 0.374E-03
CGA:   8    -0.669726265281E+03   -0.10108E-02   -0.99788E-03  8424   0.112E-02 0.260E-03
CGA:   9    -0.669726594744E+03   -0.32946E-03   -0.33388E-03  8424   0.384E-03-0.447E-04
CGA:  10    -0.669726678769E+03   -0.84025E-04   -0.80775E-04  8424   0.130E-03 0.994E-04
CGA:  11    -0.669726721009E+03   -0.42240E-04   -0.39887E-04  8424   0.547E-04 0.414E-04
CGA:  12    -0.669726738173E+03   -0.17164E-04   -0.16237E-04  8424   0.270E-04 0.269E-04
CGA:  13    -0.669726739568E+03   -0.13950E-05   -0.41855E-05  8424   0.199E-04 0.312E-04
  16 F= -.66972674E+03 E0= -.66972674E+03  d E =-.950916E-01  mag=     2.0000
       N       E                     dE             d eps       ncg     rms          ort
SDA:   1    -0.669716881823E+03    0.98563E-02    0.00000E+00  8424   0.298E-01 0.000E+00
CGA:   2    -0.669722819356E+03   -0.59375E-02   -0.59382E-02  8424   0.120E-01-0.469E-04
CGA:   3    -0.669725380359E+03   -0.25610E-02   -0.25593E-02  8424   0.416E-02 0.541E-04
CGA:   4    -0.669726068499E+03   -0.68814E-03   -0.68861E-03  8424   0.101E-02 0.223E-04
CGA:   5    -0.669726240433E+03   -0.17193E-03   -0.17222E-03  8424   0.209E-03 0.202E-04
CGA:   6    -0.669726281712E+03   -0.41280E-04   -0.41133E-04  8424   0.540E-04 0.149E-04
CGA:   7    -0.669726295737E+03   -0.14025E-04   -0.13576E-04  8424   0.244E-04 0.872E-05
CGA:   8    -0.669726302544E+03   -0.68070E-05   -0.63461E-05  8424   0.151E-04 0.121E-04
  17 F= -.66972630E+03 E0= -.66972630E+03  d E =0.437024E-03  mag=     2.0000
       N       E                     dE             d eps       ncg     rms          ort
SDA:   1    -0.667226815242E+03    0.24995E+01    0.00000E+00  8424   0.789E+01 0.000E+00
CGA:   2    -0.668772501276E+03   -0.15457E+01   -0.15456E+01  8424   0.304E+01 0.113E-01
CGA:   3    -0.669428686351E+03   -0.65619E+00   -0.65625E+00  8424   0.105E+01-0.268E-02
CGA:   4    -0.669602606626E+03   -0.17392E+00   -0.17392E+00  8424   0.257E+00-0.172E-03
CGA:   5    -0.669646770036E+03   -0.44163E-01   -0.44179E-01  8424   0.531E-01 0.782E-03
CGA:   6    -0.669657277384E+03   -0.10507E-01   -0.10506E-01  8424   0.115E-01 0.157E-03
CGA:   7    -0.669659853289E+03   -0.25759E-02   -0.25683E-02  8424   0.330E-02 0.237E-03
CGA:   8    -0.669660674303E+03   -0.82101E-03   -0.81956E-03  8424   0.957E-03 0.275E-04
CGA:   9    -0.669660927776E+03   -0.25347E-03   -0.25202E-03  8424   0.294E-03 0.214E-04
CGA:  10    -0.669660999602E+03   -0.71827E-04   -0.69034E-04  8424   0.106E-03 0.862E-04
CGA:  11    -0.669661027201E+03   -0.27598E-04   -0.27525E-04  8424   0.504E-04 0.631E-04
CGA:  12    -0.669661035200E+03   -0.79992E-05   -0.88143E-05  8424   0.294E-04 0.333E-04
  18 F= -.66966104E+03 E0= -.66966104E+03  d E =0.652673E-01  mag=     2.0000
       N       E                     dE             d eps       ncg     rms          ort
SDA:   1    -0.654635446002E+03    0.15026E+02    0.00000E+00  8424   0.501E+02 0.000E+00
CGA:   2    -0.663961396888E+03   -0.93260E+01   -0.93294E+01  8424   0.183E+02 0.212E+00
CGA:   3    -0.668013921003E+03   -0.40525E+01   -0.40541E+01  8424   0.640E+01-0.472E-01
CGA:   4    -0.669095859362E+03   -0.10819E+01   -0.10821E+01  8424   0.161E+01 0.873E-03
CGA:   5    -0.669367656118E+03   -0.27180E+00   -0.27191E+00  8424   0.336E+00 0.305E-02
CGA:   6    -0.669435131477E+03   -0.67475E-01   -0.67496E-01  8424   0.737E-01-0.280E-02
CGA:   7    -0.669451574842E+03   -0.16443E-01   -0.16423E-01  8424   0.213E-01 0.644E-03
CGA:   8    -0.669456758813E+03   -0.51840E-02   -0.51854E-02  8424   0.615E-02-0.345E-04
CGA:   9    -0.669458555444E+03   -0.17966E-02   -0.19718E-02  8424   0.292E-02-0.142E-02
CGA:  10    -0.669459236317E+03   -0.68087E-03   -0.81986E-03  8424   0.180E-02-0.862E-03
CGA:  11    -0.669459778361E+03   -0.54204E-03    0.14649E-01  8424   0.595E-03 0.223E-03
CGA:  12    -0.669460094849E+03   -0.31649E-03    0.59865E-03  8424   0.258E-03 0.117E-03
CGA:  13    -0.669460310578E+03   -0.21573E-03    0.50215E-04  8424   0.139E-03 0.105E-03
CGA:  14    -0.669460541178E+03   -0.23060E-03    0.11673E-04  8424   0.104E-03 0.946E-04
CGA:  15    -0.669460676001E+03   -0.13482E-03    0.53823E-05  8424   0.621E-04 0.650E-04
CGA:  16    -0.669460781170E+03   -0.10517E-03    0.21917E-05  8424   0.536E-04 0.549E-04
CGA:  17    -0.669460893133E+03   -0.11196E-03    0.14446E-05  8424   0.499E-04 0.508E-04
CGA:  18    -0.669460997343E+03   -0.10421E-03    0.13460E-05  8424   0.475E-04 0.482E-04
CGA:  19    -0.669461104778E+03   -0.10743E-03    0.11605E-05  8424   0.458E-04 0.463E-04
CGA:  20    -0.669461208061E+03   -0.10328E-03    0.11196E-05  8424   0.444E-04 0.448E-04
CGA:  21    -0.669461313704E+03   -0.10564E-03    0.10164E-05  8424   0.433E-04 0.436E-04
CGA:  22    -0.669461415613E+03   -0.10191E-03    0.10042E-05  8424   0.424E-04 0.426E-04
CGA:  23    -0.669461520741E+03   -0.10513E-03    0.92439E-06  8424   0.418E-04 0.417E-04
CGA:  24    -0.669461620459E+03   -0.99718E-04    0.95336E-06  8424   0.414E-04 0.408E-04
CGA:  25    -0.669461726757E+03   -0.10630E-03    0.86581E-06  8424   0.414E-04 0.398E-04
CGA:  26    -0.669461822399E+03   -0.95642E-04    0.98572E-06  8424   0.421E-04 0.385E-04
CGA:  27    -0.669461932257E+03   -0.10986E-03    0.86487E-06  8424   0.438E-04 0.365E-04
CGA:  28    -0.669462021354E+03   -0.89097E-04    0.12201E-05  8424   0.471E-04 0.332E-04
CGA:  29    -0.669462137153E+03   -0.11580E-03    0.10357E-05  8424   0.524E-04 0.283E-04
CGA:  30    -0.669462217308E+03   -0.80155E-04    0.21210E-05  8424   0.605E-04 0.209E-04
CGA:  31    -0.669462436212E+03   -0.21890E-03    0.17549E-05  8424   0.519E-04 0.835E-04
CGA:  32    -0.669462555835E+03   -0.11962E-03    0.12390E-05  8424   0.576E-04 0.204E-04
CGA:  33    -0.669462765753E+03   -0.20992E-03    0.16405E-05  8424   0.515E-04 0.793E-04
CGA:  34    -0.669462842964E+03   -0.77212E-04    0.21499E-05  8424   0.558E-04 0.198E-04
CGA:  35    -0.669463049813E+03   -0.20685E-03    0.15334E-05  8424   0.512E-04 0.764E-04
CGA:  36    -0.669463169998E+03   -0.12019E-03    0.11935E-05  8424   0.538E-04 0.195E-04
CGA:  37    -0.669463371829E+03   -0.20183E-03    0.14521E-05  8424   0.506E-04 0.735E-04
CGA:  38    -0.669463446309E+03   -0.74480E-04    0.21673E-05  8424   0.522E-04 0.193E-04
CGA:  39    -0.669463644206E+03   -0.19790E-03    0.13914E-05  8424   0.499E-04 0.713E-04
CGA:  40    -0.669463764504E+03   -0.12030E-03    0.11237E-05  8424   0.503E-04 0.195E-04
CGA:  41    -0.669463959812E+03   -0.19531E-03    0.13227E-05  8424   0.488E-04 0.691E-04
CGA:  42    -0.669464032460E+03   -0.72648E-04    0.20514E-05  8424   0.484E-04 0.199E-04
CGA:  43    -0.669464223202E+03   -0.19074E-03    0.12868E-05  8424   0.475E-04 0.672E-04
CGA:  44    -0.669464342515E+03   -0.11931E-03    0.10177E-05  8424   0.462E-04 0.208E-04
CGA:  45    -0.669464532164E+03   -0.18965E-03    0.12247E-05  8424   0.460E-04 0.654E-04
CGA:  46    -0.669464604207E+03   -0.72043E-04    0.18015E-05  8424   0.442E-04 0.216E-04
CGA:  47    -0.669464788956E+03   -0.18475E-03    0.12026E-05  8424   0.444E-04 0.638E-04
CGA:  48    -0.669464906079E+03   -0.11712E-03    0.89827E-06  8424   0.420E-04 0.227E-04
CGA:  49    -0.669464980414E+03   -0.74336E-04    0.13994E-05  8424   0.410E-04 0.236E-04
CGA:  50    -0.669465092661E+03   -0.11225E-03    0.79524E-06  8424   0.402E-04 0.242E-04
CGA:  51    -0.669465169518E+03   -0.76857E-04    0.12097E-05  8424   0.395E-04 0.247E-04
CGA:  52    -0.669465278826E+03   -0.10931E-03    0.75515E-06  8424   0.389E-04 0.251E-04
CGA:  53    -0.669465357434E+03   -0.78609E-04    0.10904E-05  8424   0.384E-04 0.253E-04
CGA:  54    -0.669465464406E+03   -0.10697E-03    0.72775E-06  8424   0.379E-04 0.255E-04
CGA:  55    -0.669465544261E+03   -0.79855E-04    0.10121E-05  8424   0.376E-04 0.256E-04
CGA:  56    -0.669465649357E+03   -0.10510E-03    0.71119E-06  8424   0.373E-04 0.257E-04
CGA:  57    -0.669465730048E+03   -0.80691E-04    0.96350E-06  8424   0.372E-04 0.256E-04
CGA:  58    -0.669465833639E+03   -0.10359E-03    0.70421E-06  8424   0.370E-04 0.255E-04
CGA:  59    -0.669465914841E+03   -0.81201E-04    0.93774E-06  8424   0.370E-04 0.254E-04
CGA:  60    -0.669466017216E+03   -0.10238E-03    0.70632E-06  8424   0.370E-04 0.251E-04
CGA:  61    -0.669466098678E+03   -0.81462E-04    0.93103E-06  8424   0.370E-04 0.248E-04
CGA:  62    -0.669466200051E+03   -0.10137E-03    0.71793E-06  8424   0.372E-04 0.245E-04
CGA:  63    -0.669466281596E+03   -0.81545E-04    0.94204E-06  8424   0.374E-04 0.240E-04
CGA:  64    -0.669466382112E+03   -0.10052E-03    0.74059E-06  8424   0.377E-04 0.235E-04
CGA:  65    -0.669466463624E+03   -0.81512E-04    0.97175E-06  8424   0.381E-04 0.229E-04
CGA:  66    -0.669466563366E+03   -0.99742E-04    0.77733E-06  8424   0.386E-04 0.223E-04
CGA:  67    -0.669466644784E+03   -0.81418E-04    0.10237E-05  8424   0.391E-04 0.215E-04
CGA:  68    -0.669466743781E+03   -0.98997E-04    0.83340E-06  8424   0.399E-04 0.206E-04
CGA:  69    -0.669466825097E+03   -0.81316E-04    0.11051E-05  8424   0.407E-04 0.196E-04
CGA:  70    -0.669467006913E+03   -0.18182E-03    0.10583E-05  8424   0.393E-04 0.604E-04
CGA:  71    -0.669467105448E+03   -0.98535E-04    0.84587E-06  8424   0.400E-04 0.195E-04
CGA:  72    -0.669467286364E+03   -0.18092E-03    0.10319E-05  8424   0.387E-04 0.596E-04
CGA:  73    -0.669467365446E+03   -0.79082E-04    0.10728E-05  8424   0.395E-04 0.193E-04
CGA:  74    -0.669467544749E+03   -0.17930E-03    0.10186E-05  8424   0.382E-04 0.589E-04
CGA:  75    -0.669467643034E+03   -0.98285E-04    0.79624E-06  8424   0.388E-04 0.192E-04
CGA:  76    -0.669467720947E+03   -0.77913E-04    0.10993E-05  8424   0.396E-04 0.183E-04
CGA:  77    -0.669467898620E+03   -0.17767E-03    0.99450E-06  8424   0.384E-04 0.580E-04
CGA:  78    -0.669467996487E+03   -0.97867E-04    0.80942E-06  8424   0.389E-04 0.182E-04
CGA:  79    -0.669468172810E+03   -0.17632E-03    0.96817E-06  8424   0.379E-04 0.571E-04
CGA:  80    -0.669468248633E+03   -0.75823E-04    0.10741E-05  8424   0.385E-04 0.180E-04
CGA:  81    -0.669468423590E+03   -0.17496E-03    0.95725E-06  8424   0.374E-04 0.565E-04
CGA:  82    -0.669468521170E+03   -0.97581E-04    0.76683E-06  8424   0.378E-04 0.179E-04
CGA:  83    -0.669468694946E+03   -0.17378E-03    0.93426E-06  8424   0.369E-04 0.557E-04
CGA:  84    -0.669468768784E+03   -0.73838E-04    0.10485E-05  8424   0.373E-04 0.178E-04
CGA:  85    -0.669468940984E+03   -0.17220E-03    0.92209E-06  8424   0.364E-04 0.551E-04
CGA:  86    -0.669469038199E+03   -0.97214E-04    0.72790E-06  8424   0.367E-04 0.177E-04
CGA:  87    -0.669469209354E+03   -0.17115E-03    0.90097E-06  8424   0.360E-04 0.543E-04
CGA:  88    -0.669469281319E+03   -0.71965E-04    0.10225E-05  8424   0.362E-04 0.175E-04
CGA:  89    -0.669469450780E+03   -0.16946E-03    0.88876E-06  8424   0.355E-04 0.537E-04
CGA:  90    -0.669469547563E+03   -0.96783E-04    0.69190E-06  8424   0.357E-04 0.175E-04
CGA:  91    -0.669469716093E+03   -0.16853E-03    0.86880E-06  8424   0.351E-04 0.530E-04
CGA:  92    -0.669469786282E+03   -0.70189E-04    0.99631E-06  8424   0.352E-04 0.173E-04
CGA:  93    -0.669469953034E+03   -0.16675E-03    0.85714E-06  8424   0.346E-04 0.524E-04
CGA:  94    -0.669470049332E+03   -0.96299E-04    0.65840E-06  8424   0.346E-04 0.173E-04
CGA:  95    -0.669470215264E+03   -0.16593E-03    0.83790E-06  8424   0.342E-04 0.517E-04
CGA:  96    -0.669470283762E+03   -0.68499E-04    0.97023E-06  8424   0.341E-04 0.172E-04
CGA:  97    -0.669470379285E+03   -0.95522E-04    0.64401E-06  8424   0.341E-04 0.170E-04
CGA:  98    -0.669470543768E+03   -0.16448E-03    0.81900E-06  8424   0.337E-04 0.509E-04
CGA:  99    -0.669470611597E+03   -0.67828E-04    0.95318E-06  8424   0.335E-04 0.170E-04
CGA: 100    -0.669470706191E+03   -0.94594E-04    0.62631E-06  8424   0.334E-04 0.169E-04
CGA: 101    -0.669470774632E+03   -0.68441E-04    0.92031E-06  8424   0.332E-04 0.169E-04
CGA: 102    -0.669470867917E+03   -0.93286E-04    0.62453E-06  8424   0.331E-04 0.168E-04
CGA: 103    -0.669470936909E+03   -0.68992E-04    0.89554E-06  8424   0.330E-04 0.168E-04
CGA: 104    -0.669471028960E+03   -0.92052E-04    0.62685E-06  8424   0.330E-04 0.166E-04
CGA: 105    -0.669471098421E+03   -0.69460E-04    0.88087E-06  8424   0.330E-04 0.165E-04
CGA: 106    -0.669471258968E+03   -0.16055E-03    0.78618E-06  8424   0.326E-04 0.493E-04
CGA: 107    -0.669471350251E+03   -0.91283E-04    0.61482E-06  8424   0.326E-04 0.164E-04
CGA: 108    -0.669471419015E+03   -0.68764E-04    0.86472E-06  8424   0.326E-04 0.162E-04
CGA: 109    -0.669471578295E+03   -0.15928E-03    0.77048E-06  8424   0.322E-04 0.486E-04
CGA: 110    -0.669471668820E+03   -0.90524E-04    0.60410E-06  8424   0.321E-04 0.161E-04
CGA: 111    -0.669471736981E+03   -0.68161E-04    0.84374E-06  8424   0.321E-04 0.160E-04
CGA: 112    -0.669471894696E+03   -0.15771E-03    0.75340E-06  8424   0.317E-04 0.479E-04
CGA: 113    -0.669471984402E+03   -0.89706E-04    0.59070E-06  8424   0.314E-04 0.160E-04
CGA: 114    -0.669472052059E+03   -0.67657E-04    0.81596E-06  8424   0.314E-04 0.160E-04
CGA: 115    -0.669472140522E+03   -0.88463E-04    0.58652E-06  8424   0.312E-04 0.159E-04
CGA: 116    -0.669472208648E+03   -0.68126E-04    0.79700E-06  8424   0.313E-04 0.158E-04
CGA: 117    -0.669472296000E+03   -0.87352E-04    0.59096E-06  8424   0.313E-04 0.156E-04
CGA: 118    -0.669472452068E+03   -0.15607E-03    0.72404E-06  8424   0.308E-04 0.467E-04
CGA: 119    -0.669472519492E+03   -0.67424E-04    0.78454E-06  8424   0.310E-04 0.155E-04
CGA: 120    -0.669472606243E+03   -0.86751E-04    0.58357E-06  8424   0.312E-04 0.151E-04
CGA: 121    -0.669472761352E+03   -0.15511E-03    0.71212E-06  8424   0.306E-04 0.462E-04
CGA: 122    -0.669472828007E+03   -0.66655E-04    0.78166E-06  8424   0.307E-04 0.151E-04
CGA: 123    -0.669472981212E+03   -0.15320E-03    0.70299E-06  8424   0.302E-04 0.456E-04
CGA: 124    -0.669473067595E+03   -0.86384E-04    0.55483E-06  8424   0.304E-04 0.149E-04
CGA: 125    -0.669473220577E+03   -0.15298E-03    0.69047E-06  8424   0.298E-04 0.452E-04
CGA: 126    -0.669473285587E+03   -0.65011E-04    0.76071E-06  8424   0.299E-04 0.149E-04
CGA: 127    -0.669473436858E+03   -0.15127E-03    0.68138E-06  8424   0.294E-04 0.447E-04
CGA: 128    -0.669473522812E+03   -0.85954E-04    0.52815E-06  8424   0.295E-04 0.148E-04
CGA: 129    -0.669473587067E+03   -0.64255E-04    0.75600E-06  8424   0.297E-04 0.144E-04
CGA: 130    -0.669473737089E+03   -0.15002E-03    0.66764E-06  8424   0.292E-04 0.441E-04
CGA: 131    -0.669473822450E+03   -0.85362E-04    0.52361E-06  8424   0.292E-04 0.144E-04
CGA: 132    -0.669473971556E+03   -0.14911E-03    0.65198E-06  8424   0.288E-04 0.434E-04
CGA: 133    -0.669474034274E+03   -0.62718E-04    0.73664E-06  8424   0.289E-04 0.143E-04
CGA: 134    -0.669474182062E+03   -0.14779E-03    0.64524E-06  8424   0.285E-04 0.430E-04
CGA: 135    -0.669474266968E+03   -0.84906E-04    0.49851E-06  8424   0.284E-04 0.142E-04
CGA: 136    -0.669474413968E+03   -0.14700E-03    0.63071E-06  8424   0.281E-04 0.424E-04
CGA: 137    -0.669474475205E+03   -0.61237E-04    0.71727E-06  8424   0.281E-04 0.141E-04
CGA: 138    -0.669474559427E+03   -0.84222E-04    0.48767E-06  8424   0.280E-04 0.140E-04
CGA: 139    -0.669474705243E+03   -0.14582E-03    0.61749E-06  8424   0.277E-04 0.418E-04
CGA: 140    -0.669474765884E+03   -0.60641E-04    0.70472E-06  8424   0.276E-04 0.139E-04
CGA: 141    -0.669474849308E+03   -0.83424E-04    0.47491E-06  8424   0.275E-04 0.139E-04
CGA: 142    -0.669474910391E+03   -0.61083E-04    0.68514E-06  8424   0.274E-04 0.138E-04
CGA: 143    -0.669474992755E+03   -0.82363E-04    0.47485E-06  8424   0.273E-04 0.137E-04
CGA: 144    -0.669475054230E+03   -0.61476E-04    0.67115E-06  8424   0.273E-04 0.137E-04
CGA: 145    -0.669475197099E+03   -0.14287E-03    0.59765E-06  8424   0.270E-04 0.408E-04
CGA: 146    -0.669475278746E+03   -0.81646E-04    0.46461E-06  8424   0.269E-04 0.136E-04
CGA: 147    -0.669475339632E+03   -0.60886E-04    0.65633E-06  8424   0.269E-04 0.134E-04
CGA: 148    -0.669475481359E+03   -0.14173E-03    0.58536E-06  8424   0.266E-04 0.402E-04
CGA: 149    -0.669475562291E+03   -0.80932E-04    0.45524E-06  8424   0.265E-04 0.134E-04
CGA: 150    -0.669475622673E+03   -0.60382E-04    0.63767E-06  8424   0.264E-04 0.133E-04
CGA: 151    -0.669475702581E+03   -0.79907E-04    0.45471E-06  8424   0.263E-04 0.133E-04
CGA: 152    -0.669475763311E+03   -0.60730E-04    0.62688E-06  8424   0.263E-04 0.131E-04
CGA: 153    -0.669475903198E+03   -0.13989E-03    0.56689E-06  8424   0.260E-04 0.393E-04
CGA: 154    -0.669475982396E+03   -0.79198E-04    0.44520E-06  8424   0.259E-04 0.131E-04
CGA: 155    -0.669476042605E+03   -0.60208E-04    0.60982E-06  8424   0.259E-04 0.130E-04
CGA: 156    -0.669476120821E+03   -0.78216E-04    0.44600E-06  8424   0.258E-04 0.129E-04
CGA: 157    -0.669476259592E+03   -0.13877E-03    0.54865E-06  8424   0.255E-04 0.385E-04
CGA: 158    -0.669476319199E+03   -0.59607E-04    0.59765E-06  8424   0.256E-04 0.127E-04
CGA: 159    -0.669476456786E+03   -0.13759E-03    0.54341E-06  8424   0.252E-04 0.382E-04
CGA: 160    -0.669476534590E+03   -0.77804E-04    0.42320E-06  8424   0.252E-04 0.127E-04
CGA: 161    -0.669476593553E+03   -0.58963E-04    0.58922E-06  8424   0.253E-04 0.125E-04
CGA: 162    -0.669476729939E+03   -0.13639E-03    0.53163E-06  8424   0.249E-04 0.376E-04
CGA: 163    -0.669476807126E+03   -0.77187E-04    0.41681E-06  8424   0.248E-04 0.124E-04
CGA: 164    -0.669476942644E+03   -0.13552E-03    0.51852E-06  8424   0.245E-04 0.371E-04
CGA: 165    -0.669477000211E+03   -0.57567E-04    0.57198E-06  8424   0.246E-04 0.123E-04
CGA: 166    -0.669477076838E+03   -0.76627E-04    0.40935E-06  8424   0.247E-04 0.121E-04
CGA: 167    -0.669477211503E+03   -0.13466E-03    0.50884E-06  8424   0.243E-04 0.366E-04
CGA: 168    -0.669477268413E+03   -0.56910E-04    0.56649E-06  8424   0.243E-04 0.120E-04
CGA: 169    -0.669477401493E+03   -0.13308E-03    0.50137E-06  8424   0.239E-04 0.361E-04
CGA: 170    -0.669477477661E+03   -0.76168E-04    0.38902E-06  8424   0.240E-04 0.119E-04
CGA: 171    -0.669477610330E+03   -0.13267E-03    0.49096E-06  8424   0.236E-04 0.357E-04
CGA: 172    -0.669477665893E+03   -0.55563E-04    0.54910E-06  8424   0.236E-04 0.118E-04
CGA: 173    -0.669477741426E+03   -0.75533E-04    0.38077E-06  8424   0.236E-04 0.117E-04
CGA: 174    -0.669477872880E+03   -0.13145E-03    0.47925E-06  8424   0.233E-04 0.351E-04
CGA: 175    -0.669477927885E+03   -0.55005E-04    0.53948E-06  8424   0.232E-04 0.116E-04
CGA: 176    -0.669478057508E+03   -0.12962E-03    0.47131E-06  8424   0.230E-04 0.346E-04
CGA: 177    -0.669478132556E+03   -0.75048E-04    0.36191E-06  8424   0.229E-04 0.115E-04
CGA: 178    -0.669478187042E+03   -0.54486E-04    0.52510E-06  8424   0.229E-04 0.114E-04
CGA: 179    -0.669478315698E+03   -0.12866E-03    0.46115E-06  8424   0.226E-04 0.341E-04
CGA: 180    -0.669478390054E+03   -0.74357E-04    0.35362E-06  8424   0.225E-04 0.114E-04
CGA: 181    -0.669478444096E+03   -0.54042E-04    0.50782E-06  8424   0.224E-04 0.113E-04
CGA: 182    -0.669478517490E+03   -0.73394E-04    0.35093E-06  8424   0.223E-04 0.113E-04
CGA: 183    -0.669478571886E+03   -0.54395E-04    0.49384E-06  8424   0.222E-04 0.113E-04
CGA: 184    -0.669478644359E+03   -0.72473E-04    0.35021E-06  8424   0.221E-04 0.112E-04
CGA: 185    -0.669478699049E+03   -0.54690E-04    0.48473E-06  8424   0.221E-04 0.111E-04
CGA: 186    -0.669478770666E+03   -0.71617E-04    0.35255E-06  8424   0.221E-04 0.110E-04
CGA: 187    -0.669478897341E+03   -0.12668E-03    0.43616E-06  8424   0.218E-04 0.330E-04
CGA: 188    -0.669478951468E+03   -0.54127E-04    0.47535E-06  8424   0.218E-04 0.109E-04
CGA: 189    -0.669479076768E+03   -0.12530E-03    0.43024E-06  8424   0.215E-04 0.326E-04
CGA: 190    -0.669479147954E+03   -0.71186E-04    0.33388E-06  8424   0.215E-04 0.108E-04
CGA: 191    -0.669479201481E+03   -0.53527E-04    0.46739E-06  8424   0.216E-04 0.106E-04
CGA: 192    -0.669479325784E+03   -0.12430E-03    0.42045E-06  8424   0.212E-04 0.321E-04
CGA: 193    -0.669479396374E+03   -0.70590E-04    0.32824E-06  8424   0.212E-04 0.106E-04
CGA: 194    -0.669479519904E+03   -0.12353E-03    0.40980E-06  8424   0.209E-04 0.316E-04
CGA: 195    -0.669479572155E+03   -0.52251E-04    0.45200E-06  8424   0.209E-04 0.104E-04
CGA: 196    -0.669479694641E+03   -0.12249E-03    0.40464E-06  8424   0.206E-04 0.313E-04
CGA: 197    -0.669479764743E+03   -0.70102E-04    0.31091E-06  8424   0.206E-04 0.104E-04
CGA: 198    -0.669479816460E+03   -0.51717E-04    0.44156E-06  8424   0.206E-04 0.103E-04
CGA: 199    -0.669479937662E+03   -0.12120E-03    0.39421E-06  8424   0.203E-04 0.307E-04
CGA: 200    -0.669480007129E+03   -0.69467E-04    0.30396E-06  8424   0.202E-04 0.102E-04
  19 F= -.66948001E+03 E0= -.66948001E+03  d E =0.181028E+00  mag=     2.0000
       N       E                     dE             d eps       ncg     rms          ort
SDA:   1    -0.665503342312E+03    0.39766E+01    0.00000E+00  8424   0.139E+02 0.000E+00
CGA:   2    -0.668186576335E+03   -0.26832E+01   -0.26839E+01  8424   0.525E+01 0.227E-01
CGA:   3    -0.669325631349E+03   -0.11391E+01   -0.11391E+01  8424   0.183E+01-0.485E-02
CGA:   4    -0.669631709080E+03   -0.30608E+00   -0.30610E+00  8424   0.451E+00 0.423E-04
CGA:   5    -0.669709270842E+03   -0.77562E-01   -0.77601E-01  8424   0.938E-01 0.938E-03
CGA:   6    -0.669727871246E+03   -0.18600E-01   -0.18598E-01  8424   0.205E-01-0.243E-03
CGA:   7    -0.669732394490E+03   -0.45232E-02   -0.45172E-02  8424   0.579E-02 0.418E-03
CGA:   8    -0.669733808432E+03   -0.14139E-02   -0.14094E-02  8424   0.162E-02 0.144E-03
CGA:   9    -0.669734228816E+03   -0.42038E-03   -0.41585E-03  8424   0.470E-03 0.109E-03
CGA:  10    -0.669734328562E+03   -0.99746E-04   -0.10141E-03  8424   0.175E-03 0.190E-03
CGA:  11    -0.669734360180E+03   -0.31618E-04   -0.38827E-04  8424   0.915E-04 0.136E-03
CGA:  12    -0.669734367344E+03   -0.71641E-05   -0.12288E-04  8424   0.600E-04 0.695E-04
  20 F= -.66973437E+03 E0= -.66973437E+03  d E =-.254360E+00  mag=     2.0000
       N       E                     dE             d eps       ncg     rms          ort
SDA:   1    -0.669577283542E+03    0.15708E+00    0.00000E+00  8424   0.544E+00 0.000E+00
CGA:   2    -0.669683372734E+03   -0.10609E+00   -0.10609E+00  8424   0.208E+00 0.970E-03
CGA:   3    -0.669728295393E+03   -0.44923E-01   -0.44916E-01  8424   0.720E-01 0.309E-03
CGA:   4    -0.669740318991E+03   -0.12024E-01   -0.12032E-01  8424   0.177E-01 0.256E-03
CGA:   5    -0.669743323003E+03   -0.30040E-02   -0.30125E-02  8424   0.359E-02 0.303E-03
CGA:   6    -0.669743993043E+03   -0.67004E-03   -0.67361E-03  8424   0.745E-03 0.311E-03
CGA:   7    -0.669744116241E+03   -0.12320E-03   -0.13197E-03  8424   0.223E-03 0.269E-03
CGA:   8    -0.669744133018E+03   -0.16777E-04   -0.32673E-04  8424   0.113E-03 0.184E-03
CGA:   9    -0.669744130774E+03    0.22440E-05   -0.85954E-05  8424   0.830E-04 0.952E-04
  21 F= -.66974413E+03 E0= -.66974413E+03  d E =-.976343E-02  mag=     2.0000
       N       E                     dE             d eps       ncg     rms          ort
SDA:   1    -0.668773345530E+03    0.97079E+00    0.00000E+00  8424   0.297E+01 0.000E+00
CGA:   2    -0.669367400671E+03   -0.59406E+00   -0.59389E+00  8424   0.121E+01 0.543E-02
CGA:   3    -0.669628608666E+03   -0.26121E+00   -0.26122E+00  8424   0.405E+00-0.416E-03
CGA:   4    -0.669695714483E+03   -0.67106E-01   -0.67111E-01  8424   0.969E-01 0.265E-03
CGA:   5    -0.669712022782E+03   -0.16308E-01   -0.16316E-01  8424   0.190E-01 0.615E-03
CGA:   6    -0.669715780325E+03   -0.37575E-02   -0.37502E-02  8424   0.421E-02 0.423E-03
CGA:   7    -0.669716694402E+03   -0.91408E-03   -0.90167E-03  8424   0.112E-02 0.425E-03
CGA:   8    -0.669716932442E+03   -0.23804E-03   -0.23512E-03  8424   0.318E-03 0.341E-03
CGA:   9    -0.669716973398E+03   -0.40955E-04   -0.53549E-04  8424   0.152E-03 0.238E-03
CGA:  10    -0.669716975269E+03   -0.18718E-05   -0.13366E-04  8424   0.109E-03 0.126E-03
  22 F= -.66971698E+03 E0= -.66971698E+03  d E =0.271555E-01  mag=     2.0000
       N       E                     dE             d eps       ncg     rms          ort
SDA:   1    -0.658922348688E+03    0.10795E+02    0.00000E+00  8424   0.369E+02 0.000E+00
CGA:   2    -0.665545261306E+03   -0.66229E+01   -0.66170E+01  8424   0.131E+02 0.362E+00
CGA:   3    -0.668501118077E+03   -0.29559E+01   -0.29597E+01  8424   0.456E+01-0.617E-01
CGA:   4    -0.669273175448E+03   -0.77206E+00   -0.77207E+00  8424   0.118E+01 0.603E-03
CGA:   5    -0.669466780452E+03   -0.19361E+00   -0.19364E+00  8424   0.236E+00 0.300E-02
CGA:   6    -0.669514471908E+03   -0.47691E-01   -0.47731E-01  8424   0.530E-01-0.133E-02
CGA:   7    -0.669526372321E+03   -0.11900E-01   -0.11863E-01  8424   0.152E-01 0.712E-03
CGA:   8    -0.669530014343E+03   -0.36420E-02   -0.36181E-02  8424   0.418E-02 0.411E-03
CGA:   9    -0.669531222274E+03   -0.12079E-02   -0.12696E-02  8424   0.171E-02-0.528E-03
CGA:  10    -0.669531643901E+03   -0.42163E-03   -0.42430E-03  8424   0.669E-03-0.277E-04
CGA:  11    -0.669531709285E+03   -0.65384E-04   -0.43274E-03  8424   0.176E-02-0.787E-03
CGA:  12    -0.669531992541E+03   -0.28326E-03   -0.29178E-03  8424   0.263E-03 0.179E-03
CGA:  13    -0.669530978666E+03    0.10139E-02   -0.54725E-03  8424   0.701E-02-0.124E-02
CGA:  14    -0.669532047318E+03   -0.10687E-02   -0.11434E-02  8424   0.113E-02 0.336E-03
CGA:  15    -0.669532381238E+03   -0.33392E-03   -0.30921E-03  8424   0.172E-03-0.220E-03
CGA:  16    -0.669532438527E+03   -0.57289E-04   -0.63922E-04  8424   0.203E-03-0.718E-04
CGA:  17    -0.669532564393E+03   -0.12587E-03    0.51293E-04  8424   0.217E-03-0.779E-04
CGA:  18    -0.669532761199E+03   -0.19681E-03    0.25637E-04  8424   0.103E-03 0.551E-04
CGA:  19    -0.669532900201E+03   -0.13900E-03    0.53523E-04  8424   0.128E-03-0.757E-06
CGA:  20    -0.669533131112E+03   -0.23091E-03    0.16505E-04  8424   0.147E-03-0.268E-04
CGA:  21    -0.669533436970E+03   -0.30586E-03    0.85827E-05  8424   0.160E-03 0.482E-04
CGA:  22    -0.669533812270E+03   -0.37530E-03    0.28712E-04  8424   0.233E-03 0.778E-05
CGA:  23    -0.669534464626E+03   -0.65236E-03    0.17618E-04  8424   0.234E-03 0.394E-04
CGA:  24    -0.669535217887E+03   -0.75326E-03    0.18937E-04  8424   0.291E-03 0.629E-04
CGA:  25    -0.669536151865E+03   -0.93398E-03    0.28719E-04  8424   0.341E-03-0.649E-04
CGA:  26    -0.669537385788E+03   -0.12339E-02    0.93996E-05  8424   0.343E-03 0.391E-04
CGA:  27    -0.669538791667E+03   -0.14059E-02    0.18100E-04  8424   0.463E-03-0.449E-04
CGA:  28    -0.669540701614E+03   -0.19099E-02    0.13984E-04  8424   0.423E-03-0.235E-03
CGA:  29    -0.669540868660E+03   -0.16705E-03   -0.17251E-03  8424   0.226E-03-0.157E-03
CGA:  30    -0.669540909512E+03   -0.40852E-04   -0.33111E-04  8424   0.117E-03-0.548E-04
CGA:  31    -0.669540993447E+03   -0.83936E-04    0.57425E-04  8424   0.403E-04-0.168E-04
CGA:  32    -0.669541057870E+03   -0.64422E-04    0.41195E-05  8424   0.523E-04-0.138E-04
CGA:  33    -0.669541165609E+03   -0.10774E-03    0.19283E-05  8424   0.440E-04-0.725E-05
CGA:  34    -0.669541287239E+03   -0.12163E-03    0.20692E-05  8424   0.455E-04-0.773E-05
CGA:  35    -0.669541447776E+03   -0.16054E-03    0.14254E-05  8424   0.487E-04 0.429E-06
CGA:  36    -0.669541653217E+03   -0.20544E-03    0.19232E-05  8424   0.363E-04-0.194E-05
CGA:  37    -0.669541838174E+03   -0.18496E-03    0.10267E-05  8424   0.308E-04 0.659E-05
CGA:  38    -0.669542018673E+03   -0.18050E-03    0.11661E-05  8424   0.288E-04-0.256E-06
CGA:  39    -0.669542214279E+03   -0.19561E-03    0.63133E-06  8424   0.209E-04 0.106E-04
CGA:  40    -0.669542384602E+03   -0.17032E-03    0.73689E-06  8424   0.260E-04 0.552E-05
CGA:  41    -0.669542616491E+03   -0.23189E-03    0.70341E-06  8424   0.202E-04 0.137E-04
CGA:  42    -0.669542637579E+03   -0.21088E-04    0.88937E-05  8424   0.117E-04-0.429E-05
CGA:  43    -0.669542679060E+03   -0.41481E-04    0.33027E-06  8424   0.803E-05 0.131E-05
CGA:  44    -0.669542724573E+03   -0.45513E-04    0.27619E-06  8424   0.603E-05 0.412E-05
CGA:  45    -0.669542744648E+03   -0.20076E-04    0.31389E-06  8424   0.433E-05 0.108E-05
CGA:  46    -0.669542782612E+03   -0.37964E-04    0.10294E-06  8424   0.392E-05 0.400E-05
CGA:  47    -0.669542806850E+03   -0.24238E-04    0.97187E-07  8424   0.303E-05 0.198E-05
CGA:  48    -0.669542827698E+03   -0.20848E-04    0.66576E-07  8424   0.282E-05 0.223E-05
CGA:  49    -0.669542851645E+03   -0.23947E-04    0.49038E-07  8424   0.284E-05 0.227E-05
CGA:  50    -0.669542871409E+03   -0.19764E-04    0.61459E-07  8424   0.313E-05 0.210E-05
CGA:  51    -0.669542897395E+03   -0.25986E-04    0.55926E-07  8424   0.416E-05 0.151E-05
CGA:  52    -0.669542948133E+03   -0.50738E-04    0.11157E-06  8424   0.287E-05 0.588E-05
CGA:  53    -0.669542968121E+03   -0.19988E-04    0.62032E-07  8424   0.334E-05 0.190E-05
CGA:  54    -0.669542993465E+03   -0.25344E-04    0.65728E-07  8424   0.504E-05 0.990E-06
CGA:  55    -0.669543048459E+03   -0.54994E-04    0.11503E-06  8424   0.355E-05 0.622E-05
CGA:  56    -0.669543067682E+03   -0.19222E-04    0.10256E-06  8424   0.497E-05 0.828E-06
CGA:  57    -0.669543121555E+03   -0.53874E-04    0.10271E-06  8424   0.415E-05 0.566E-05
CGA:  58    -0.669543145246E+03   -0.23690E-04    0.11282E-06  8424   0.445E-05 0.579E-06
CGA:  59    -0.669543190542E+03   -0.45296E-04    0.83395E-07  8424   0.452E-05 0.478E-05
CGA:  60    -0.669543211424E+03   -0.20882E-04    0.15696E-06  8424   0.378E-05 0.698E-06
CGA:  61    -0.669543251032E+03   -0.39608E-04    0.70649E-07  8424   0.403E-05 0.433E-05
CGA:  62    -0.669543274419E+03   -0.23387E-04    0.10731E-06  8424   0.311E-05 0.135E-05
CGA:  63    -0.669543312816E+03   -0.38397E-04    0.66029E-07  8424   0.357E-05 0.409E-05
CGA:  64    -0.669543333476E+03   -0.20660E-04    0.95589E-07  8424   0.277E-05 0.179E-05
CGA:  65    -0.669543355515E+03   -0.22039E-04    0.51597E-07  8424   0.252E-05 0.224E-05
CGA:  66    -0.669543376906E+03   -0.21390E-04    0.43956E-07  8424   0.246E-05 0.237E-05
CGA:  67    -0.669543398271E+03   -0.21365E-04    0.41904E-07  8424   0.245E-05 0.241E-05
CGA:  68    -0.669543420129E+03   -0.21859E-04    0.40508E-07  8424   0.246E-05 0.242E-05
CGA:  69    -0.669543440958E+03   -0.20829E-04    0.42906E-07  8424   0.248E-05 0.242E-05
CGA:  70    -0.669543463548E+03   -0.22590E-04    0.39937E-07  8424   0.253E-05 0.241E-05
CGA:  71    -0.669543483084E+03   -0.19536E-04    0.49027E-07  8424   0.271E-05 0.232E-05
CGA:  72    -0.669543507792E+03   -0.24708E-04    0.43643E-07  8424   0.336E-05 0.200E-05
CGA:  73    -0.669543522801E+03   -0.15009E-04    0.12136E-06  8424   0.594E-05 0.737E-06
CGA:  74    -0.669543583085E+03   -0.60284E-04    0.12872E-06  8424   0.403E-05 0.709E-05
CGA:  75    -0.669543612713E+03   -0.29628E-04    0.82418E-07  8424   0.886E-05-0.584E-06
CGA:  76    -0.669543682478E+03   -0.69765E-04    0.12072E-06  8424   0.118E-04 0.731E-05
CGA:  77    -0.669543683184E+03   -0.70628E-06   -0.13951E-05  8424   0.266E-05 0.275E-05
  23 F= -.66954368E+03 E0= -.66954368E+03  d E =0.173292E+00  mag=     2.0000
       N       E                     dE             d eps       ncg     rms          ort
SDA:   1    -0.657940223010E+03    0.11603E+02    0.00000E+00  8424   0.396E+02 0.000E+00
CGA:   2    -0.665401670336E+03   -0.74614E+01   -0.75528E+01  8424   0.148E+02-0.104E+00
CGA:   3    -0.668591483719E+03   -0.31898E+01   -0.31810E+01  8424   0.483E+01 0.179E-01
CGA:   4    -0.669416247126E+03   -0.82476E+00   -0.82601E+00  8424   0.123E+01 0.327E-03
CGA:   5    -0.669623085922E+03   -0.20684E+00   -0.20735E+00  8424   0.254E+00 0.634E-03
CGA:   6    -0.669673860912E+03   -0.50775E-01   -0.50733E-01  8424   0.565E-01-0.232E-03
CGA:   7    -0.669686736257E+03   -0.12875E-01   -0.12926E-01  8424   0.166E-01 0.558E-03
CGA:   8    -0.669690709813E+03   -0.39736E-02   -0.40060E-02  8424   0.483E-02 0.432E-03
CGA:   9    -0.669692005680E+03   -0.12959E-02   -0.13046E-02  8424   0.158E-02 0.187E-03
CGA:  10    -0.669692383080E+03   -0.37740E-03   -0.40254E-03  8424   0.573E-03 0.403E-03
CGA:  11    -0.669692508265E+03   -0.12519E-03   -0.15247E-03  8424   0.233E-03 0.296E-03
CGA:  12    -0.669692527816E+03   -0.19550E-04   -0.39297E-04  8424   0.126E-03 0.151E-03
CGA:  13    -0.669692521753E+03    0.60631E-05   -0.14398E-04  8424   0.105E-03 0.114E-03
CGA:  14    -0.669692514085E+03    0.76683E-05   -0.10544E-04  8424   0.935E-04 0.990E-04
  24 F= -.66969251E+03 E0= -.66969251E+03  d E =-.148831E+00  mag=     2.0000
       N       E                     dE             d eps       ncg     rms          ort
SDA:   1    -0.669275794724E+03    0.41673E+00    0.00000E+00  8424   0.146E+01 0.000E+00
CGA:   2    -0.669567691818E+03   -0.29190E+00   -0.29205E+00  8424   0.578E+00 0.143E-02
CGA:   3    -0.669690403816E+03   -0.12271E+00   -0.12270E+00  8424   0.188E+00-0.716E-04
CGA:   4    -0.669721896094E+03   -0.31492E-01   -0.31539E-01  8424   0.473E-01 0.481E-03
CGA:   5    -0.669730006715E+03   -0.81106E-02   -0.81465E-02  8424   0.982E-02 0.421E-03
CGA:   6    -0.669731927035E+03   -0.19203E-02   -0.19304E-02  8424   0.210E-02 0.179E-03
CGA:   7    -0.669732335576E+03   -0.40854E-03   -0.42524E-03  8424   0.567E-03 0.337E-03
CGA:   8    -0.669732414140E+03   -0.78564E-04   -0.10345E-03  8424   0.199E-03 0.281E-03
CGA:   9    -0.669732419801E+03   -0.56610E-05   -0.31275E-04  8424   0.110E-03 0.188E-03
  25 F= -.66973242E+03 E0= -.66973242E+03  d E =-.399057E-01  mag=     2.0000
       N       E                     dE             d eps       ncg     rms          ort
SDA:   1    -0.667544946279E+03    0.21875E+01    0.00000E+00  8424   0.666E+01 0.000E+00
CGA:   2    -0.668923864253E+03   -0.13789E+01   -0.13792E+01  8424   0.279E+01 0.858E-02
CGA:   3    -0.669503890538E+03   -0.58003E+00   -0.57996E+00  8424   0.859E+00-0.269E-02
CGA:   4    -0.669646407500E+03   -0.14252E+00   -0.14257E+00  8424   0.213E+00 0.721E-03
CGA:   5    -0.669683365958E+03   -0.36958E-01   -0.37001E-01  8424   0.454E-01 0.809E-03
CGA:   6    -0.669692409161E+03   -0.90432E-02   -0.90397E-02  8424   0.990E-02-0.172E-03
CGA:   7    -0.669694599422E+03   -0.21903E-02   -0.21892E-02  8424   0.286E-02 0.298E-03
CGA:   8    -0.669695292760E+03   -0.69334E-03   -0.69019E-03  8424   0.830E-03 0.197E-03
CGA:   9    -0.669695530869E+03   -0.23811E-03   -0.23566E-03  8424   0.279E-03 0.524E-04
CGA:  10    -0.669695591991E+03   -0.61121E-04   -0.62433E-04  8424   0.112E-03 0.115E-03
CGA:  11    -0.669695614285E+03   -0.22294E-04   -0.26724E-04  8424   0.569E-04 0.844E-04
CGA:  12    -0.669695621723E+03   -0.74381E-05   -0.95114E-05  8424   0.354E-04 0.403E-04
  26 F= -.66969562E+03 E0= -.66969562E+03  d E =0.367981E-01  mag=     2.0000
       N       E                     dE             d eps       ncg     rms          ort
SDA:   1    -0.651955973150E+03    0.17740E+02    0.00000E+00  8424   0.574E+02 0.000E+00
CGA:   2    -0.662948178180E+03   -0.10992E+02   -0.11003E+02  8424   0.217E+02 0.260E+00
CGA:   3    -0.667702396145E+03   -0.47542E+01   -0.47548E+01  8424   0.733E+01-0.481E-01
CGA:   4    -0.668923702907E+03   -0.12213E+01   -0.12216E+01  8424   0.179E+01 0.127E-02
CGA:   5    -0.669228677941E+03   -0.30498E+00   -0.30517E+00  8424   0.383E+00 0.373E-02
CGA:   6    -0.669305676491E+03   -0.76999E-01   -0.76993E-01  8424   0.851E-01-0.107E-02
CGA:   7    -0.669324807227E+03   -0.19131E-01   -0.19117E-01  8424   0.250E-01 0.657E-03
CGA:   8    -0.669331019102E+03   -0.62119E-02   -0.62186E-02  8424   0.772E-02-0.168E-03
CGA:   9    -0.669333245557E+03   -0.22265E-02   -0.23261E-02  8424   0.318E-02-0.105E-02
CGA:  10    -0.669334098647E+03   -0.85309E-03   -0.90013E-03  8424   0.153E-02-0.414E-03
CGA:  11    -0.669333822381E+03    0.27627E-03   -0.10493E-02  8424   0.634E-02-0.233E-02
CGA:  12    -0.669334871589E+03   -0.10492E-02   -0.10766E-02  8424   0.902E-03 0.352E-03
CGA:  13    -0.669333295802E+03    0.15758E-02   -0.11143E-02  8424   0.136E-01-0.291E-02
CGA:  14    -0.669335302068E+03   -0.20063E-02   -0.21309E-02  8424   0.206E-02 0.945E-03
CGA:  15    -0.669335973029E+03   -0.67096E-03   -0.69027E-03  8424   0.518E-03-0.629E-03
CGA:  16    -0.669333620906E+03    0.23521E-02   -0.12655E-02  8424   0.199E-01-0.193E-02
CGA:  17    -0.669336575249E+03   -0.29543E-02   -0.28094E-02  8424   0.199E-02-0.495E-03
CGA:  18    -0.669337120973E+03   -0.54572E-03   -0.52207E-03  8424   0.369E-03-0.103E-03
CGA:  19    -0.669336649131E+03    0.47184E-03   -0.45842E-03  8424   0.679E-02-0.114E-02
CGA:  20    -0.669337641167E+03   -0.99204E-03   -0.10198E-02  8424   0.780E-03 0.914E-04
CGA:  21    -0.669337992020E+03   -0.35085E-03   -0.31399E-03  8424   0.708E-03-0.325E-03
CGA:  22    -0.669338199192E+03   -0.20717E-03   -0.17452E-03  8424   0.539E-03-0.395E-03
CGA:  23    -0.669338469758E+03   -0.27057E-03   -0.31345E-03  8424   0.171E-02-0.537E-03
CGA:  24    -0.669338664747E+03   -0.19499E-03   -0.22201E-03  8424   0.102E-03 0.753E-04
CGA:  25    -0.669338844469E+03   -0.17972E-03    0.35325E-04  8424   0.150E-03-0.288E-04
CGA:  26    -0.669339286998E+03   -0.44253E-03    0.81475E-05  8424   0.236E-03 0.340E-04
CGA:  27    -0.669340188144E+03   -0.90115E-03    0.32124E-04  8424   0.292E-03 0.105E-03
CGA:  28    -0.669341511801E+03   -0.13237E-02    0.45967E-04  8424   0.236E-03 0.137E-03
CGA:  29    -0.669342780496E+03   -0.12687E-02    0.30693E-04  8424   0.205E-03 0.153E-03
CGA:  30    -0.669342879422E+03   -0.98926E-04   -0.11093E-03  8424   0.469E-03-0.218E-03
CGA:  31    -0.669343045332E+03   -0.16591E-03   -0.12601E-03  8424   0.154E-03-0.181E-03
CGA:  32    -0.669343244095E+03   -0.19876E-03    0.18820E-04  8424   0.106E-03-0.110E-04
CGA:  33    -0.669343504047E+03   -0.25995E-03    0.13205E-04  8424   0.578E-04 0.230E-04
CGA:  34    -0.669343826390E+03   -0.32234E-03    0.44370E-05  8424   0.451E-04 0.443E-04
CGA:  35    -0.669343915730E+03   -0.89339E-04    0.10085E-04  8424   0.949E-04-0.103E-04
CGA:  36    -0.669344333303E+03   -0.41757E-03    0.35224E-05  8424   0.137E-03 0.610E-04
CGA:  37    -0.669344519471E+03   -0.18617E-03    0.78132E-04  8424   0.389E-03-0.170E-03
CGA:  38    -0.669344562906E+03   -0.43435E-04   -0.58681E-04  8424   0.285E-04 0.468E-04
CGA:  39    -0.669344677133E+03   -0.11423E-03    0.25676E-05  8424   0.598E-04 0.711E-05
CGA:  40    -0.669345096689E+03   -0.41956E-03    0.33911E-05  8424   0.804E-04 0.628E-04
CGA:  41    -0.669345242065E+03   -0.14538E-03    0.19392E-04  8424   0.115E-03-0.471E-04
CGA:  42    -0.669345287211E+03   -0.45146E-04   -0.68034E-04  8424   0.487E-03-0.179E-03
CGA:  43    -0.669345460753E+03   -0.17354E-03   -0.12782E-03  8424   0.170E-03-0.222E-03
CGA:  44    -0.669345642298E+03   -0.18155E-03    0.18592E-04  8424   0.721E-04-0.270E-05
CGA:  45    -0.669345784530E+03   -0.14223E-03    0.13654E-04  8424   0.816E-04-0.410E-05
CGA:  46    -0.669346166146E+03   -0.38162E-03    0.39869E-05  8424   0.650E-04 0.410E-04
CGA:  47    -0.669346244935E+03   -0.78789E-04    0.45899E-04  8424   0.936E-04-0.339E-04
CGA:  48    -0.669346408170E+03   -0.16323E-03    0.23691E-04  8424   0.205E-03-0.892E-04
CGA:  49    -0.669346436074E+03   -0.27904E-04   -0.33361E-04  8424   0.241E-04 0.185E-04
CGA:  50    -0.669346552960E+03   -0.11689E-03    0.14510E-05  8424   0.370E-04 0.129E-04
CGA:  51    -0.669346682744E+03   -0.12978E-03    0.27720E-05  8424   0.551E-04-0.376E-05
CGA:  52    -0.669346954363E+03   -0.27162E-03    0.21157E-05  8424   0.590E-04 0.433E-04
CGA:  53    -0.669347035137E+03   -0.80774E-04    0.24020E-04  8424   0.738E-04-0.255E-04
CGA:  54    -0.669347281829E+03   -0.24669E-03    0.16457E-05  8424   0.903E-04 0.292E-04
CGA:  55    -0.669347725299E+03   -0.44347E-03    0.93827E-05  8424   0.820E-04 0.285E-04
CGA:  56    -0.669348173163E+03   -0.44786E-03    0.64924E-05  8424   0.863E-04 0.436E-04
CGA:  57    -0.669348292590E+03   -0.11943E-03    0.34039E-04  8424   0.814E-04-0.455E-04
CGA:  58    -0.669348368099E+03   -0.75508E-04    0.38013E-03  8424   0.109E-03-0.545E-04
CGA:  59    -0.669348485276E+03   -0.11718E-03    0.11656E-03  8424   0.211E-03-0.111E-03
CGA:  60    -0.669348542122E+03   -0.56846E-04   -0.47643E-04  8424   0.383E-04-0.425E-04
CGA:  61    -0.669348665236E+03   -0.12311E-03    0.18064E-05  8424   0.208E-04 0.166E-04
CGA:  62    -0.669348831883E+03   -0.16665E-03    0.11817E-05  8424   0.194E-04 0.273E-04
CGA:  63    -0.669348916872E+03   -0.84989E-04    0.10274E-05  8424   0.233E-04 0.132E-04
CGA:  64    -0.669349030602E+03   -0.11373E-03    0.10797E-05  8424   0.352E-04 0.626E-05
CGA:  65    -0.669349272073E+03   -0.24147E-03    0.18428E-05  8424   0.255E-04 0.434E-04
CGA:  66    -0.669349342470E+03   -0.70398E-04    0.25074E-05  8424   0.414E-04 0.194E-05
CGA:  67    -0.669349594984E+03   -0.25251E-03    0.17287E-05  8424   0.370E-04 0.435E-04
CGA:  68    -0.669349717385E+03   -0.12240E-03    0.28332E-05  8424   0.689E-04-0.163E-04
CGA:  69    -0.669349983865E+03   -0.26648E-03    0.11931E-05  8424   0.121E-03 0.317E-04
CGA:  70    -0.669350491547E+03   -0.50768E-03    0.16504E-04  8424   0.144E-03 0.115E-04
CGA:  71    -0.669351293519E+03   -0.80197E-03    0.69531E-05  8424   0.773E-04 0.121E-03
CGA:  72    -0.669351425351E+03   -0.13183E-03    0.17200E-04  8424   0.115E-03-0.615E-04
CGA:  73    -0.669351448798E+03   -0.23447E-04   -0.23881E-04  8424   0.190E-04 0.185E-05
CGA:  74    -0.669351549425E+03   -0.10063E-03    0.77847E-06  8424   0.197E-04 0.152E-04
CGA:  75    -0.669351643419E+03   -0.93993E-04    0.88655E-06  8424   0.190E-04 0.110E-04
CGA:  76    -0.669351714621E+03   -0.71202E-04    0.11602E-05  8424   0.192E-04 0.112E-04
CGA:  77    -0.669351817298E+03   -0.10268E-03    0.75526E-06  8424   0.211E-04 0.103E-04
CGA:  78    -0.669351873585E+03   -0.56287E-04    0.20370E-05  8424   0.266E-04 0.699E-05
CGA:  79    -0.669352071310E+03   -0.19773E-03    0.13224E-05  8424   0.223E-04 0.339E-04
CGA:  80    -0.669352178341E+03   -0.10703E-03    0.99687E-06  8424   0.256E-04 0.642E-05
CGA:  81    -0.669352352042E+03   -0.17370E-03    0.13192E-05  8424   0.235E-04 0.315E-04
CGA:  82    -0.669352418060E+03   -0.66018E-04    0.21234E-05  8424   0.232E-04 0.659E-05
CGA:  83    -0.669352589267E+03   -0.17121E-03    0.10654E-05  8424   0.235E-04 0.286E-04
CGA:  84    -0.669352681122E+03   -0.91855E-04    0.13600E-05  8424   0.204E-04 0.781E-05
CGA:  85    -0.669352831911E+03   -0.15079E-03    0.10223E-05  8424   0.222E-04 0.268E-04
CGA:  86    -0.669352911573E+03   -0.79662E-04    0.14273E-05  8424   0.185E-04 0.937E-05
CGA:  87    -0.669353062676E+03   -0.15110E-03    0.95448E-06  8424   0.209E-04 0.260E-04
CGA:  88    -0.669353146800E+03   -0.84124E-04    0.11691E-05  8424   0.175E-04 0.104E-04
CGA:  89    -0.669353295681E+03   -0.14888E-03    0.95699E-06  8424   0.201E-04 0.258E-04
CGA:  90    -0.669353376948E+03   -0.81267E-04    0.11188E-05  8424   0.170E-04 0.110E-04
CGA:  91    -0.669353459520E+03   -0.82572E-04    0.74758E-06  8424   0.157E-04 0.130E-04
CGA:  92    -0.669353540009E+03   -0.80490E-04    0.65137E-06  8424   0.152E-04 0.138E-04
CGA:  93    -0.669353622721E+03   -0.82712E-04    0.58769E-06  8424   0.150E-04 0.142E-04
CGA:  94    -0.669353702987E+03   -0.80266E-04    0.59108E-06  8424   0.149E-04 0.144E-04
CGA:  95    -0.669353786481E+03   -0.83494E-04    0.55748E-06  8424   0.149E-04 0.145E-04
CGA:  96    -0.669353865810E+03   -0.79328E-04    0.59106E-06  8424   0.150E-04 0.145E-04
CGA:  97    -0.669353951470E+03   -0.85661E-04    0.54350E-06  8424   0.151E-04 0.144E-04
CGA:  98    -0.669354027104E+03   -0.75634E-04    0.64572E-06  8424   0.157E-04 0.141E-04
CGA:  99    -0.669354119571E+03   -0.92467E-04    0.54861E-06  8424   0.174E-04 0.132E-04
CGA: 100    -0.669354181789E+03   -0.62217E-04    0.11325E-05  8424   0.237E-04 0.992E-05
CGA: 101    -0.669354294198E+03   -0.11241E-03    0.10725E-05  8424   0.470E-04-0.202E-05
CGA: 102    -0.669354544824E+03   -0.25063E-03    0.15241E-05  8424   0.546E-04 0.419E-04
CGA: 103    -0.669354551654E+03   -0.68302E-05   -0.91641E-05  8424   0.159E-04 0.912E-05
  27 F= -.66935455E+03 E0= -.66935455E+03  d E =0.341070E+00  mag=     2.0000
       N       E                     dE             d eps       ncg     rms          ort
SDA:   1    -0.662205297471E+03    0.71492E+01    0.00000E+00  8424   0.245E+02 0.000E+00
[...]
CGA: 119    -0.669343674535E+03   -0.14526E-03    0.29287E-06  8424   0.112E-04 0.176E-04
CGA: 120    -0.669343760345E+03   -0.85810E-04    0.19613E-06  8424   0.115E-04 0.567E-05
CGA: 121    -0.669343812235E+03   -0.51890E-04    0.36701E-06  8424   0.122E-04 0.502E-05
CGA: 122    -0.669343956443E+03   -0.14421E-03    0.28272E-06  8424   0.112E-04 0.173E-04
CGA: 123    -0.669344042638E+03   -0.86195E-04    0.19588E-06  8424   0.119E-04 0.489E-05
CGA: 124    -0.669344182599E+03   -0.13996E-03    0.27618E-06  8424   0.110E-04 0.167E-04
CGA: 125    -0.669344232924E+03   -0.50325E-04    0.34254E-06  8424   0.113E-04 0.488E-05
CGA: 126    -0.669344371636E+03   -0.13871E-03    0.25582E-06  8424   0.106E-04 0.160E-04
CGA: 127    -0.669344454347E+03   -0.82711E-04    0.18277E-06  8424   0.106E-04 0.500E-05
CGA: 128    -0.669344585340E+03   -0.13099E-03    0.24497E-06  8424   0.102E-04 0.151E-04
CGA: 129    -0.669344637154E+03   -0.51814E-04    0.28630E-06  8424   0.963E-05 0.528E-05
CGA: 130    -0.669344717172E+03   -0.80018E-04    0.15392E-06  8424   0.966E-05 0.537E-05
CGA: 131    -0.669344766208E+03   -0.49035E-04    0.26852E-06  8424   0.100E-04 0.501E-05
CGA: 132    -0.669344848154E+03   -0.81947E-04    0.16346E-06  8424   0.107E-04 0.438E-05
CGA: 133    -0.669344980735E+03   -0.13258E-03    0.23416E-06  8424   0.980E-05 0.151E-04
CGA: 134    -0.669345026599E+03   -0.45864E-04    0.29924E-06  8424   0.105E-04 0.418E-05
CGA: 135    -0.669345159551E+03   -0.13295E-03    0.22280E-06  8424   0.957E-05 0.148E-04
CGA: 136    -0.669345240085E+03   -0.80535E-04    0.15096E-06  8424   0.102E-04 0.402E-05
CGA: 137    -0.669345368592E+03   -0.12851E-03    0.21716E-06  8424   0.935E-05 0.143E-04
CGA: 138    -0.669345412482E+03   -0.43890E-04    0.28456E-06  8424   0.991E-05 0.390E-05
CGA: 139    -0.669345540977E+03   -0.12850E-03    0.20202E-06  8424   0.911E-05 0.138E-04
CGA: 140    -0.669345618731E+03   -0.77754E-04    0.14146E-06  8424   0.940E-05 0.388E-05
CGA: 141    -0.669345740254E+03   -0.12152E-03    0.19475E-06  8424   0.883E-05 0.131E-04
CGA: 142    -0.669345784528E+03   -0.44273E-04    0.24899E-06  8424   0.869E-05 0.399E-05
CGA: 143    -0.669345904594E+03   -0.12007E-03    0.17415E-06  8424   0.848E-05 0.122E-04
CGA: 144    -0.669345976356E+03   -0.71762E-04    0.13303E-06  8424   0.782E-05 0.425E-05
CGA: 145    -0.669346021144E+03   -0.44788E-04    0.18917E-06  8424   0.772E-05 0.446E-05
CGA: 146    -0.669346093848E+03   -0.72704E-04    0.10770E-06  8424   0.792E-05 0.427E-05
CGA: 147    -0.669346135600E+03   -0.41752E-04    0.21090E-06  8424   0.834E-05 0.383E-05
CGA: 148    -0.669346255121E+03   -0.11952E-03    0.16820E-06  8424   0.765E-05 0.122E-04
CGA: 149    -0.669346327884E+03   -0.72763E-04    0.10576E-06  8424   0.811E-05 0.373E-05
CGA: 150    -0.669346443721E+03   -0.11584E-03    0.16497E-06  8424   0.738E-05 0.119E-04
CGA: 151    -0.669346484126E+03   -0.40405E-04    0.18817E-06  8424   0.777E-05 0.368E-05
CGA: 152    -0.669346600360E+03   -0.11623E-03    0.15263E-06  8424   0.710E-05 0.114E-04
CGA: 153    -0.669346669809E+03   -0.69449E-04    0.95193E-07  8424   0.734E-05 0.368E-05
CGA: 154    -0.669346707670E+03   -0.37861E-04    0.20012E-06  8424   0.786E-05 0.319E-05
CGA: 155    -0.669346822298E+03   -0.11463E-03    0.14516E-06  8424   0.712E-05 0.111E-04
CGA: 156    -0.669346892144E+03   -0.69846E-04    0.94988E-07  8424   0.755E-05 0.312E-05
CGA: 157    -0.669347000941E+03   -0.10880E-03    0.14156E-06  8424   0.690E-05 0.106E-04
CGA: 158    -0.669347038687E+03   -0.37746E-04    0.17583E-06  8424   0.705E-05 0.314E-05
CGA: 159    -0.669347147028E+03   -0.10834E-03    0.12647E-06  8424   0.665E-05 0.998E-05
CGA: 160    -0.669347211816E+03   -0.64789E-04    0.89549E-07  8424   0.643E-05 0.324E-05
CGA: 161    -0.669347311524E+03   -0.99707E-04    0.11983E-06  8424   0.639E-05 0.929E-05
CGA: 162    -0.669347352333E+03   -0.40809E-04    0.13659E-06  8424   0.578E-05 0.341E-05
CGA: 163    -0.669347413598E+03   -0.61265E-04    0.71073E-07  8424   0.559E-05 0.367E-05
CGA: 164    -0.669347452421E+03   -0.38822E-04    0.10873E-06  8424   0.562E-05 0.364E-05
CGA: 165    -0.669347514939E+03   -0.62518E-04    0.65568E-07  8424   0.581E-05 0.343E-05
CGA: 166    -0.669347550570E+03   -0.35631E-04    0.12988E-06  8424   0.615E-05 0.307E-05
CGA: 167    -0.669347615971E+03   -0.65401E-04    0.75284E-07  8424   0.669E-05 0.254E-05
CGA: 168    -0.669347718072E+03   -0.10210E-03    0.11379E-06  8424   0.599E-05 0.931E-05
CGA: 169    -0.669347750182E+03   -0.32111E-04    0.15655E-06  8424   0.661E-05 0.237E-05
CGA: 170    -0.669347853390E+03   -0.10321E-03    0.10672E-06  8424   0.587E-05 0.907E-05
CGA: 171    -0.669347917603E+03   -0.64213E-04    0.69672E-07  8424   0.652E-05 0.218E-05
CGA: 172    -0.669348016719E+03   -0.99117E-04    0.10479E-06  8424   0.578E-05 0.879E-05
CGA: 173    -0.669348046456E+03   -0.29737E-04    0.15791E-06  8424   0.644E-05 0.198E-05
CGA: 174    -0.669348146743E+03   -0.10029E-03    0.96728E-07  8424   0.573E-05 0.849E-05
CGA: 175    -0.669348209582E+03   -0.62840E-04    0.67851E-07  8424   0.635E-05 0.177E-05
CGA: 176    -0.669348304544E+03   -0.94962E-04    0.94417E-07  8424   0.572E-05 0.813E-05
CGA: 177    -0.669348332515E+03   -0.27971E-04    0.16614E-06  8424   0.619E-05 0.158E-05
CGA: 178    -0.669348427739E+03   -0.95223E-04    0.84680E-07  8424   0.570E-05 0.768E-05
CGA: 179    -0.669348487776E+03   -0.60037E-04    0.70647E-07  8424   0.584E-05 0.150E-05
CGA: 180    -0.669348574630E+03   -0.86854E-04    0.81016E-07  8424   0.557E-05 0.711E-05
CGA: 181    -0.669348604243E+03   -0.29613E-04    0.14660E-06  8424   0.522E-05 0.164E-05
CGA: 182    -0.669348689866E+03   -0.85623E-04    0.68562E-07  8424   0.522E-05 0.649E-05
CGA: 183    -0.669348742422E+03   -0.52556E-04    0.67793E-07  8424   0.446E-05 0.197E-05
CGA: 184    -0.669348818849E+03   -0.76427E-04    0.63719E-07  8424   0.477E-05 0.592E-05
CGA: 185    -0.669348853994E+03   -0.35144E-04    0.86976E-07  8424   0.387E-05 0.229E-05
CGA: 186    -0.669348929632E+03   -0.75638E-04    0.55775E-07  8424   0.438E-05 0.554E-05
CGA: 187    -0.669348974783E+03   -0.45151E-04    0.55509E-07  8424   0.351E-05 0.246E-05
CGA: 188    -0.669349011547E+03   -0.36764E-04    0.43779E-07  8424   0.324E-05 0.287E-05
CGA: 189    -0.669349055263E+03   -0.43716E-04    0.30868E-07  8424   0.315E-05 0.296E-05
CGA: 190    -0.669349091838E+03   -0.36575E-04    0.35181E-07  8424   0.311E-05 0.295E-05
CGA: 191    -0.669349135558E+03   -0.43720E-04    0.28419E-07  8424   0.311E-05 0.291E-05
CGA: 192    -0.669349170642E+03   -0.35084E-04    0.35668E-07  8424   0.313E-05 0.285E-05
CGA: 193    -0.669349215877E+03   -0.45235E-04    0.27699E-07  8424   0.321E-05 0.273E-05
CGA: 194    -0.669349247452E+03   -0.31574E-04    0.42808E-07  8424   0.340E-05 0.254E-05
CGA: 195    -0.669349296606E+03   -0.49154E-04    0.30087E-07  8424   0.380E-05 0.220E-05
CGA: 196    -0.669349321339E+03   -0.24733E-04    0.79539E-07  8424   0.461E-05 0.157E-05
CGA: 197    -0.669349409232E+03   -0.87893E-04    0.61895E-07  8424   0.365E-05 0.635E-05
CGA: 198    -0.669349460931E+03   -0.51699E-04    0.33059E-07  8424   0.444E-05 0.151E-05
CGA: 199    -0.669349542553E+03   -0.81622E-04    0.61995E-07  8424   0.351E-05 0.612E-05
CGA: 200    -0.669349565929E+03   -0.23377E-04    0.71786E-07  8424   0.427E-05 0.145E-05
  31 F= -.66934957E+03 E0= -.66934957E+03  d E =0.375687E+00  mag=     2.0000
       N       E                     dE             d eps       ncg     rms          ort
SDA:   1    -0.658867054795E+03    0.10482E+02    0.00000E+00  8424   0.358E+02 0.000E+00
CGA:   2    -0.665741909303E+03   -0.68749E+01   -0.69162E+01  8424   0.140E+02-0.265E-01
CGA:   3    -0.668738826227E+03   -0.29969E+01   -0.29906E+01  8424   0.451E+01 0.596E-02
CGA:   4    -0.669499535653E+03   -0.76071E+00   -0.76140E+00  8424   0.114E+01 0.204E-02
CGA:   5    -0.669694243634E+03   -0.19471E+00   -0.19519E+00  8424   0.244E+00 0.155E-02
CGA:   6    -0.669742977393E+03   -0.48734E-01   -0.48637E-01  8424   0.528E-01-0.760E-03
CGA:   7    -0.669754673946E+03   -0.11697E-01   -0.11807E-01  8424   0.153E-01 0.124E-02
CGA:   8    -0.669758170961E+03   -0.34970E-02   -0.35831E-02  8424   0.424E-02 0.108E-02
CGA:   9    -0.669759237983E+03   -0.10670E-02   -0.11035E-02  8424   0.128E-02 0.593E-03
CGA:  10    -0.669759448999E+03   -0.21102E-03   -0.28006E-03  8424   0.532E-03 0.631E-03
CGA:  11    -0.669759482213E+03   -0.33214E-04   -0.11015E-03  8424   0.300E-03 0.489E-03
CGA:  12    -0.669759476095E+03    0.61181E-05   -0.35125E-04  8424   0.211E-03 0.241E-03
CGA:  13    -0.669759455699E+03    0.20396E-04   -0.17819E-04  8424   0.184E-03 0.196E-03
CGA:  14    -0.669759434656E+03    0.21043E-04   -0.13393E-04  8424   0.167E-03 0.175E-03
CGA:  15    -0.669759414018E+03    0.20638E-04   -0.10810E-04  8424   0.156E-03 0.161E-03
CGA:  16    -0.669759394131E+03    0.19887E-04   -0.90812E-05  8424   0.147E-03 0.151E-03
CGA:  17    -0.669759375109E+03    0.19022E-04   -0.78290E-05  8424   0.140E-03 0.143E-03
CGA:  18    -0.669759356977E+03    0.18132E-04   -0.68728E-05  8424   0.135E-03 0.137E-03
CGA:  19    -0.669759339721E+03    0.17256E-04   -0.61146E-05  8424   0.130E-03 0.132E-03
CGA:  20    -0.669759323310E+03    0.16411E-04   -0.54959E-05  8424   0.126E-03 0.128E-03
CGA:  21    -0.669759307705E+03    0.15605E-04   -0.49799E-05  8424   0.123E-03 0.125E-03
CGA:  22    -0.669759292865E+03    0.14840E-04   -0.45440E-05  8424   0.120E-03 0.122E-03
CGA:  23    -0.669759278750E+03    0.14115E-04   -0.41681E-05  8424   0.118E-03 0.119E-03
CGA:  24    -0.669759265321E+03    0.13429E-04   -0.38397E-05  8424   0.116E-03 0.117E-03
CGA:  25    -0.669759252541E+03    0.12780E-04   -0.35502E-05  8424   0.114E-03 0.114E-03
CGA:  26    -0.669759240376E+03    0.12165E-04   -0.32931E-05  8424   0.112E-03 0.113E-03
CGA:  27    -0.669759228792E+03    0.11584E-04   -0.30631E-05  8424   0.110E-03 0.111E-03
CGA:  28    -0.669759217758E+03    0.11034E-04   -0.28562E-05  8424   0.109E-03 0.109E-03
CGA:  29    -0.669759207246E+03    0.10513E-04   -0.26690E-05  8424   0.108E-03 0.108E-03
CGA:  30    -0.669759197227E+03    0.10019E-04   -0.24988E-05  8424   0.106E-03 0.107E-03
CGA:  31    -0.669759187677E+03    0.95503E-05   -0.23435E-05  8424   0.105E-03 0.106E-03
  32 F= -.66975919E+03 E0= -.66975919E+03  d E =-.409622E+00  mag=     2.0000
       N       E                     dE             d eps       ncg     rms          ort
SDA:   1    -0.669677022944E+03    0.82174E-01    0.00000E+00  8424   0.275E+00 0.000E+00
CGA:   2    -0.669729644895E+03   -0.52622E-01   -0.52499E-01  8424   0.105E+00 0.178E-02
CGA:   3    -0.669752340751E+03   -0.22696E-01   -0.22549E-01  8424   0.367E-01 0.166E-02
CGA:   4    -0.669758481524E+03   -0.61408E-02   -0.60981E-02  8424   0.869E-02 0.131E-02
CGA:   5    -0.669759928182E+03   -0.14467E-02   -0.14199E-02  8424   0.166E-02 0.107E-02
CGA:   6    -0.669760176683E+03   -0.24850E-03   -0.24876E-03  8424   0.488E-03 0.748E-03
CGA:   7    -0.669760202341E+03   -0.25659E-04   -0.53389E-04  8424   0.273E-03 0.473E-03
CGA:   8    -0.669760196523E+03    0.58181E-05   -0.13886E-04  8424   0.223E-03 0.245E-03
  33 F= -.66976020E+03 E0= -.66976020E+03  d E =-.100885E-02  mag=     2.0000
       N       E                     dE             d eps       ncg     rms          ort
SDA:   1    -0.669040074236E+03    0.72013E+00    0.00000E+00  8424   0.215E+01 0.000E+00
CGA:   2    -0.669486075018E+03   -0.44600E+00   -0.44553E+00  8424   0.919E+00 0.521E-02
CGA:   3    -0.669677396724E+03   -0.19132E+00   -0.19124E+00  8424   0.284E+00 0.776E-03
CGA:   4    -0.669724158569E+03   -0.46762E-01   -0.46723E-01  8424   0.680E-01 0.112E-02
CGA:   5    -0.669735896694E+03   -0.11738E-01   -0.11693E-01  8424   0.140E-01 0.116E-02
CGA:   6    -0.669738688891E+03   -0.27922E-02   -0.27464E-02  8424   0.294E-02 0.783E-03
CGA:   7    -0.669739261614E+03   -0.57272E-03   -0.54182E-03  8424   0.812E-03 0.835E-03
CGA:   8    -0.669739373555E+03   -0.11194E-03   -0.12412E-03  8424   0.382E-03 0.597E-03
CGA:   9    -0.669739391233E+03   -0.17678E-04   -0.33365E-04  8424   0.261E-03 0.307E-03
CGA:  10    -0.669739391871E+03   -0.63827E-06   -0.17166E-04  8424   0.218E-03 0.236E-03
CGA:  11    -0.669739388274E+03    0.35973E-05   -0.12073E-04  8424   0.193E-03 0.204E-03
  34 F= -.66973939E+03 E0= -.66973939E+03  d E =0.208082E-01  mag=     2.0000
       N       E                     dE             d eps       ncg     rms          ort
SDA:   1    -0.654496856431E+03    0.15243E+02    0.00000E+00  8424   0.495E+02 0.000E+00
CGA:   2    -0.663911507382E+03   -0.94147E+01   -0.93816E+01  8424   0.187E+02 0.442E+00
CGA:   3    -0.668039631289E+03   -0.41281E+01   -0.41344E+01  8424   0.632E+01-0.723E-01
CGA:   4    -0.669094528228E+03   -0.10549E+01   -0.10547E+01  8424   0.154E+01 0.105E-02
CGA:   5    -0.669355452139E+03   -0.26092E+00   -0.26069E+00  8424   0.328E+00 0.589E-02
CGA:   6    -0.669421815054E+03   -0.66363E-01   -0.66414E-01  8424   0.711E-01-0.826E-03
CGA:   7    -0.669437818469E+03   -0.16003E-01   -0.15906E-01  8424   0.205E-01 0.114E-02
CGA:   8    -0.669442889787E+03   -0.50713E-02   -0.50363E-02  8424   0.604E-02 0.354E-03
CGA:   9    -0.669444615180E+03   -0.17254E-02   -0.18314E-02  8424   0.238E-02-0.709E-03
CGA:  10    -0.669445193468E+03   -0.57829E-03   -0.55696E-03  8424   0.839E-03 0.194E-03
CGA:  11    -0.669445492926E+03   -0.29946E-03   -0.38331E-03  8424   0.610E-03-0.322E-03
CGA:  12    -0.669445582228E+03   -0.89302E-04   -0.89575E-04  8424   0.293E-03-0.551E-05
CGA:  13    -0.669445611255E+03   -0.29027E-04   -0.17202E-03  8424   0.767E-03-0.347E-03
CGA:  14    -0.669445821622E+03   -0.21037E-03   -0.24022E-03  8424   0.268E-03-0.261E-03
CGA:  15    -0.669445869127E+03   -0.47505E-04   -0.45237E-04  8424   0.912E-04 0.434E-04
CGA:  16    -0.669445922582E+03   -0.53456E-04    0.49719E-04  8424   0.399E-04 0.408E-04
CGA:  17    -0.669445967258E+03   -0.44676E-04    0.68256E-05  8424   0.317E-04 0.341E-04
CGA:  18    -0.669445983547E+03   -0.16289E-04    0.13484E-04  8424   0.226E-04 0.226E-04
CGA:  19    -0.669446008202E+03   -0.24655E-04    0.14215E-05  8424   0.213E-04 0.212E-04
CGA:  20    -0.669446026261E+03   -0.18059E-04    0.20840E-05  8424   0.205E-04 0.206E-04
CGA:  21    -0.669446048045E+03   -0.21784E-04    0.13548E-05  8424   0.200E-04 0.201E-04
CGA:  22    -0.669446066739E+03   -0.18695E-04    0.16346E-05  8424   0.195E-04 0.197E-04
CGA:  23    -0.669446087691E+03   -0.20952E-04    0.12637E-05  8424   0.191E-04 0.192E-04
CGA:  24    -0.669446106190E+03   -0.18499E-04    0.14748E-05  8424   0.188E-04 0.189E-04
CGA:  25    -0.669446127057E+03   -0.20867E-04    0.11491E-05  8424   0.185E-04 0.185E-04
CGA:  26    -0.669446144691E+03   -0.17634E-04    0.14603E-05  8424   0.183E-04 0.181E-04
CGA:  27    -0.669446166414E+03   -0.21723E-04    0.10057E-05  8424   0.182E-04 0.177E-04
CGA:  28    -0.669446182013E+03   -0.15600E-04    0.17470E-05  8424   0.183E-04 0.171E-04
CGA:  29    -0.669446205936E+03   -0.23923E-04    0.87912E-06  8424   0.189E-04 0.163E-04
CGA:  30    -0.669446218025E+03   -0.12089E-04    0.35576E-05  8424   0.201E-04 0.150E-04
CGA:  31    -0.669446245477E+03   -0.27452E-04    0.89667E-06  8424   0.221E-04 0.130E-04
CGA:  32    -0.669446254478E+03   -0.90011E-05   -0.11273E-04  8424   0.128E-03-0.786E-05
  35 F= -.66944625E+03 E0= -.66944625E+03  d E =0.293134E+00  mag=     2.0000
       N       E                     dE             d eps       ncg     rms          ort
SDA:   1    -0.664784125663E+03    0.46621E+01    0.00000E+00  8424   0.160E+02 0.000E+00
CGA:   2    -0.667923898155E+03   -0.31398E+01   -0.31415E+01  8424   0.632E+01 0.338E-01
CGA:   3    -0.669278904279E+03   -0.13550E+01   -0.13549E+01  8424   0.207E+01-0.788E-02
CGA:   4    -0.669623508777E+03   -0.34460E+00   -0.34470E+00  8424   0.513E+00 0.113E-02
CGA:   5    -0.669711718031E+03   -0.88209E-01   -0.88277E-01  8424   0.109E+00 0.124E-02
CGA:   6    -0.669733582881E+03   -0.21865E-01   -0.21853E-01  8424   0.235E-01-0.793E-03
CGA:   7    -0.669738724031E+03   -0.51411E-02   -0.51367E-02  8424   0.661E-02 0.761E-03
CGA:   8    -0.669740253830E+03   -0.15298E-02   -0.15243E-02  8424   0.176E-02 0.650E-03
CGA:   9    -0.669740718272E+03   -0.46444E-03   -0.45791E-03  8424   0.526E-03 0.311E-03
CGA:  10    -0.669740808437E+03   -0.90165E-04   -0.10484E-03  8424   0.236E-03 0.313E-03
CGA:  11    -0.669740828920E+03   -0.20483E-04   -0.33031E-04  8424   0.139E-03 0.169E-03
CGA:  12    -0.669740830341E+03   -0.14207E-05   -0.14499E-04  8424   0.112E-03 0.124E-03
  36 F= -.66974083E+03 E0= -.66974083E+03  d E =-.294576E+00  mag=     2.0000
       N       E                     dE             d eps       ncg     rms          ort
SDA:   1    -0.668851100777E+03    0.88973E+00    0.00000E+00  8424   0.290E+01 0.000E+00
CGA:   2    -0.669429739147E+03   -0.57864E+00   -0.57864E+00  8424   0.117E+01 0.440E-02
CGA:   3    -0.669679199232E+03   -0.24946E+00   -0.24946E+00  8424   0.382E+00 0.196E-03
CGA:   4    -0.669742534450E+03   -0.63335E-01   -0.63367E-01  8424   0.925E-01 0.860E-03
CGA:   5    -0.669758435662E+03   -0.15901E-01   -0.15922E-01  8424   0.193E-01 0.782E-03
CGA:   6    -0.669762283602E+03   -0.38479E-02   -0.38476E-02  8424   0.413E-02 0.374E-03
CGA:   7    -0.669763102850E+03   -0.81925E-03   -0.82043E-03  8424   0.107E-02 0.685E-03
CGA:   8    -0.669763267758E+03   -0.16491E-03   -0.18973E-03  8424   0.377E-03 0.552E-03
CGA:   9    -0.669763287216E+03   -0.19458E-04   -0.41928E-04  8424   0.218E-03 0.270E-03
CGA:  10    -0.669763281597E+03    0.56185E-05   -0.16561E-04  8424   0.177E-03 0.194E-03
CGA:  11    -0.669763272623E+03    0.89741E-05   -0.11052E-04  8424   0.155E-03 0.164E-03
  37 F= -.66976327E+03 E0= -.66976327E+03  d E =-.224423E-01  mag=     2.0000
       N       E                     dE             d eps       ncg     rms          ort
SDA:   1    -0.669664527838E+03    0.98754E-01    0.00000E+00  8424   0.319E+00 0.000E+00
CGA:   2    -0.669727860474E+03   -0.63333E-01   -0.63309E-01  8424   0.131E+00 0.824E-03
CGA:   3    -0.669755993227E+03   -0.28133E-01   -0.28091E-01  8424   0.433E-01 0.101E-02
CGA:   4    -0.669763157912E+03   -0.71647E-02   -0.71726E-02  8424   0.102E-01 0.712E-03
CGA:   5    -0.669764835434E+03   -0.16775E-02   -0.16858E-02  8424   0.195E-02 0.660E-03
CGA:   6    -0.669765150254E+03   -0.31482E-03   -0.32502E-03  8424   0.453E-03 0.564E-03
CGA:   7    -0.669765180467E+03   -0.30212E-04   -0.56848E-04  8424   0.221E-03 0.351E-03
CGA:   8    -0.669765175635E+03    0.48316E-05   -0.14551E-04  8424   0.162E-03 0.187E-03
  38 F= -.66976518E+03 E0= -.66976518E+03  d E =-.190301E-02  mag=     2.0000
       N       E                     dE             d eps       ncg     rms          ort
SDA:   1    -0.663127740958E+03    0.66374E+01    0.00000E+00  8424   0.204E+02 0.000E+00
CGA:   2    -0.667272535293E+03   -0.41448E+01   -0.41411E+01  8424   0.816E+01 0.655E-01
CGA:   3    -0.669000239280E+03   -0.17277E+01   -0.17284E+01  8424   0.263E+01-0.139E-01
CGA:   4    -0.669435842371E+03   -0.43560E+00   -0.43560E+00  8424   0.650E+00-0.367E-03
CGA:   5    -0.669548003892E+03   -0.11216E+00   -0.11214E+00  8424   0.136E+00 0.256E-02
CGA:   6    -0.669575110991E+03   -0.27107E-01   -0.27090E-01  8424   0.292E-01 0.491E-03
CGA:   7    -0.669581753120E+03   -0.66421E-02   -0.66020E-02  8424   0.864E-02 0.669E-03
CGA:   8    -0.669583869265E+03   -0.21161E-02   -0.20878E-02  8424   0.250E-02 0.418E-03
CGA:   9    -0.669584554583E+03   -0.68532E-03   -0.66664E-03  8424   0.759E-03 0.227E-03
CGA:  10    -0.669584713792E+03   -0.15921E-03   -0.15517E-03  8424   0.294E-03 0.362E-03
CGA:  11    -0.669584758049E+03   -0.44257E-04   -0.56550E-04  8424   0.154E-03 0.263E-03
CGA:  12    -0.669584767015E+03   -0.89653E-05   -0.16911E-04  8424   0.105E-03 0.123E-03
