       N       E                     dE             d eps       ncg     rms          ort
DAV:   1     0.826599551769E+04    0.82660E+04   -0.24669E+05  8424   0.238E+03
DAV:   2     0.917582251126E+03   -0.73484E+04   -0.68962E+04  8424   0.656E+02
DAV:   3    -0.674715077663E+03   -0.15923E+04   -0.14010E+04  8424   0.282E+02
DAV:   4    -0.830342765309E+03   -0.15563E+03   -0.15294E+03  8424   0.856E+01
DAV:   5    -0.832837692730E+03   -0.24949E+01   -0.24836E+01  8424   0.122E+01
SDA:   6    -0.265393546972E+03    0.56744E+03   -0.24836E+01  8424   0.353E+04 0.000E+00
CGA:   7    -0.608963978872E+03   -0.34357E+03   -0.39018E+03  8424   0.515E+03 0.241E+02
CGA:   8    -0.632550786447E+03   -0.23587E+02   -0.36929E+02  8424   0.266E+03-0.553E+01
CGA:   9    -0.642474758472E+03   -0.99240E+01   -0.15015E+02  8424   0.190E+03 0.516E+02
CGA:  10    -0.654284368182E+03   -0.11810E+02   -0.15830E+02  8424   0.894E+02-0.264E+02
CGA:  11    -0.655221828299E+03   -0.93746E+00   -0.60751E+01  8424   0.109E+03-0.194E+02
CGA:  12    -0.656962570440E+03   -0.17407E+01   -0.48278E+01  8424   0.847E+02-0.273E+02
CGA:  13    -0.664078685918E+03   -0.71161E+01   -0.28847E+01  8424   0.276E+02-0.865E+01
CGA:  14    -0.664824091265E+03   -0.74541E+00   -0.11511E+01  8424   0.473E+02-0.587E+01
CGA:  15    -0.665618447738E+03   -0.79436E+00   -0.13877E+01  8424   0.517E+02-0.343E+02
CGA:  16    -0.666967426944E+03   -0.13490E+01   -0.18986E+01  8424   0.215E+02-0.242E+02
CGA:  17    -0.667492196978E+03   -0.52477E+00   -0.88661E+00  8424   0.114E+02 0.112E-01
CGA:  18    -0.667933834727E+03   -0.44164E+00   -0.28905E+00  8424   0.296E+01 0.578E+01
CGA:  19    -0.668054761814E+03   -0.12093E+00   -0.10201E+00  8424   0.129E+01 0.486E+00
CGA:  20    -0.668246217942E+03   -0.19146E+00   -0.19148E+00  8424   0.370E+01 0.499E-02
CGA:  21    -0.668347970756E+03   -0.10175E+00   -0.58984E-01  8424   0.277E+01 0.255E+01
CGA:  22    -0.668447548888E+03   -0.99578E-01   -0.15981E+00  8424   0.948E+00-0.562E+00
CGA:  23    -0.668562999162E+03   -0.11545E+00   -0.11696E+00  8424   0.900E+00-0.269E-01
CGA:  24    -0.668764688961E+03   -0.20169E+00   -0.17772E+00  8424   0.235E+00 0.223E+00
CGA:  25    -0.668844695629E+03   -0.80007E-01   -0.74216E-01  8424   0.291E+00 0.355E-01
CGA:  26    -0.668935950834E+03   -0.91255E-01   -0.12773E+00  8424   0.636E+00-0.150E+00
CGA:  27    -0.669003537724E+03   -0.67587E-01   -0.68135E-01  8424   0.920E-01-0.200E-01
CGA:  28    -0.669029320676E+03   -0.25783E-01    0.48510E+00  8424   0.584E-01 0.700E-01
CGA:  29    -0.669046350247E+03   -0.17030E-01    0.20871E+00  8424   0.472E-01 0.445E-01
CGA:  30    -0.669061207159E+03   -0.14857E-01    0.33058E-01  8424   0.405E-01 0.404E-01
CGA:  31    -0.669074238547E+03   -0.13031E-01    0.22926E-01  8424   0.358E-01 0.364E-01
CGA:  32    -0.669086043005E+03   -0.11804E-01    0.16517E-01  8424   0.320E-01 0.329E-01
CGA:  33    -0.669096683247E+03   -0.10640E-01    0.14019E-01  8424   0.288E-01 0.297E-01
CGA:  34    -0.669106396979E+03   -0.97137E-02    0.11489E-01  8424   0.260E-01 0.269E-01
CGA:  35    -0.669115217889E+03   -0.88209E-02    0.99650E-02  8424   0.235E-01 0.243E-01
CGA:  36    -0.669123275840E+03   -0.80580E-02    0.84022E-02  8424   0.212E-01 0.220E-01
CGA:  37    -0.669130608002E+03   -0.73322E-02    0.72772E-02  8424   0.192E-01 0.199E-01
CGA:  38    -0.669137306293E+03   -0.66983E-02    0.61868E-02  8424   0.174E-01 0.180E-01
CGA:  39    -0.669143414209E+03   -0.61079E-02    0.53392E-02  8424   0.157E-01 0.163E-01
CGA:  40    -0.669149001933E+03   -0.55877E-02    0.45629E-02  8424   0.142E-01 0.148E-01
CGA:  41    -0.669154112129E+03   -0.51102E-02    0.39344E-02  8424   0.129E-01 0.134E-01
CGA:  42    -0.669158793009E+03   -0.46809E-02    0.33886E-02  8424   0.117E-01 0.121E-01
CGA:  43    -0.669163084096E+03   -0.42911E-02    0.29239E-02  8424   0.106E-01 0.110E-01
CGA:  44    -0.669167017845E+03   -0.39337E-02    0.25367E-02  8424   0.963E-02 0.997E-02
CGA:  45    -0.669170632897E+03   -0.36151E-02    0.21861E-02  8424   0.874E-02 0.904E-02
CGA:  46    -0.669173951556E+03   -0.33187E-02    0.18994E-02  8424   0.794E-02 0.822E-02
CGA:  47    -0.669177008819E+03   -0.30573E-02    0.16335E-02  8424   0.722E-02 0.748E-02
CGA:  48    -0.669179823262E+03   -0.28144E-02    0.14175E-02  8424   0.658E-02 0.682E-02
CGA:  49    -0.669182422417E+03   -0.25992E-02    0.12253E-02  8424   0.600E-02 0.623E-02
CGA:  50    -0.669184824100E+03   -0.24017E-02    0.10675E-02  8424   0.548E-02 0.569E-02
CGA:  51    -0.669187048594E+03   -0.22245E-02    0.93197E-03  8424   0.502E-02 0.521E-02
CGA:  52    -0.669189111986E+03   -0.20634E-02    0.81832E-03  8424   0.461E-02 0.478E-02
CGA:  53    -0.669191030023E+03   -0.19180E-02    0.72100E-03  8424   0.424E-02 0.440E-02
CGA:  54    -0.669192815706E+03   -0.17857E-02    0.63857E-03  8424   0.391E-02 0.405E-02
CGA:  55    -0.669194481898E+03   -0.16662E-02    0.56712E-03  8424   0.361E-02 0.374E-02
CGA:  56    -0.669196038429E+03   -0.15565E-02    0.50646E-03  8424   0.334E-02 0.346E-02
CGA:  57    -0.669197496060E+03   -0.14576E-02    0.45315E-03  8424   0.310E-02 0.320E-02
CGA:  58    -0.669198862278E+03   -0.13662E-02    0.40785E-03  8424   0.288E-02 0.297E-02
CGA:  59    -0.669200146064E+03   -0.12838E-02    0.36759E-03  8424   0.268E-02 0.277E-02
CGA:  60    -0.669201353374E+03   -0.12073E-02    0.33325E-03  8424   0.250E-02 0.258E-02
CGA:  61    -0.669202491507E+03   -0.11381E-02    0.30266E-03  8424   0.234E-02 0.241E-02
CGA:  62    -0.669203565429E+03   -0.10739E-02    0.27640E-03  8424   0.219E-02 0.226E-02
CGA:  63    -0.669204580963E+03   -0.10155E-02    0.25302E-03  8424   0.206E-02 0.212E-02
CGA:  64    -0.669205542284E+03   -0.96132E-03    0.23276E-03  8424   0.194E-02 0.199E-02
CGA:  65    -0.669206454075E+03   -0.91179E-03    0.21469E-03  8424   0.183E-02 0.188E-02
CGA:  66    -0.669207319771E+03   -0.86570E-03    0.19897E-03  8424   0.173E-02 0.177E-02
CGA:  67    -0.669208143278E+03   -0.82351E-03    0.18487E-03  8424   0.164E-02 0.168E-02
CGA:  68    -0.669208927344E+03   -0.78407E-03    0.17259E-03  8424   0.155E-02 0.159E-02
CGA:  69    -0.669209675343E+03   -0.74800E-03    0.16144E-03  8424   0.148E-02 0.151E-02
CGA:  70    -0.669210389427E+03   -0.71408E-03    0.15176E-03  8424   0.140E-02 0.143E-02
CGA:  71    -0.669211072557E+03   -0.68313E-03    0.14288E-03  8424   0.134E-02 0.137E-02
CGA:  72    -0.669211726429E+03   -0.65387E-03    0.13520E-03  8424   0.128E-02 0.131E-02
CGA:  73    -0.669212353610E+03   -0.62718E-03    0.12813E-03  8424   0.123E-02 0.125E-02
CGA:  74    -0.669212955514E+03   -0.60190E-03    0.12202E-03  8424   0.118E-02 0.120E-02
CGA:  75    -0.669213534295E+03   -0.57878E-03    0.11637E-03  8424   0.113E-02 0.115E-02
CGA:  76    -0.669214091190E+03   -0.55689E-03    0.11144E-03  8424   0.109E-02 0.111E-02
CGA:  77    -0.669214627965E+03   -0.53678E-03    0.10687E-03  8424   0.105E-02 0.106E-02
CGA:  78    -0.669215145683E+03   -0.51772E-03    0.10290E-03  8424   0.101E-02 0.103E-02
CGA:  79    -0.669215645861E+03   -0.50018E-03    0.99223E-04  8424   0.979E-03 0.993E-03
CGA:  80    -0.669216129340E+03   -0.48348E-03    0.96063E-04  8424   0.948E-03 0.961E-03
CGA:  81    -0.669216597530E+03   -0.46819E-03    0.93070E-04  8424   0.920E-03 0.931E-03
CGA:  82    -0.669217050965E+03   -0.45343E-03    0.90563E-04  8424   0.893E-03 0.904E-03
CGA:  83    -0.669217491073E+03   -0.44011E-03    0.88067E-04  8424   0.869E-03 0.878E-03
CGA:  84    -0.669217918029E+03   -0.42696E-03    0.86108E-04  8424   0.846E-03 0.854E-03
CGA:  85    -0.669218333371E+03   -0.41534E-03    0.83997E-04  8424   0.824E-03 0.832E-03
CGA:  86    -0.669218736893E+03   -0.40352E-03    0.82514E-04  8424   0.804E-03 0.812E-03
CGA:  87    -0.669219130310E+03   -0.39342E-03    0.80688E-04  8424   0.786E-03 0.792E-03
CGA:  88    -0.669219512993E+03   -0.38268E-03    0.79618E-04  8424   0.768E-03 0.774E-03
CGA:  89    -0.669219886941E+03   -0.37395E-03    0.77976E-04  8424   0.752E-03 0.757E-03
CGA:  90    -0.669220250988E+03   -0.36405E-03    0.77313E-04  8424   0.737E-03 0.742E-03
CGA:  91    -0.669220607614E+03   -0.35663E-03    0.75751E-04  8424   0.722E-03 0.727E-03
CGA:  92    -0.669220954902E+03   -0.34729E-03    0.75529E-04  8424   0.709E-03 0.713E-03
CGA:  93    -0.669221296093E+03   -0.34119E-03    0.73921E-04  8424   0.696E-03 0.700E-03
CGA:  94    -0.669221628250E+03   -0.33216E-03    0.74203E-04  8424   0.684E-03 0.687E-03
CGA:  95    -0.669221955651E+03   -0.32740E-03    0.72434E-04  8424   0.673E-03 0.676E-03
CGA:  96    -0.669222274140E+03   -0.31849E-03    0.73262E-04  8424   0.663E-03 0.665E-03
CGA:  97    -0.669222589155E+03   -0.31502E-03    0.71263E-04  8424   0.653E-03 0.654E-03
CGA:  98    -0.669222895339E+03   -0.30618E-03    0.72617E-04  8424   0.643E-03 0.644E-03
CGA:  99    -0.669223199151E+03   -0.30381E-03    0.70394E-04  8424   0.635E-03 0.635E-03
CGA: 100    -0.669223494310E+03   -0.29516E-03    0.72175E-04  8424   0.626E-03 0.626E-03
CGA: 101    -0.669223787920E+03   -0.29361E-03    0.69804E-04  8424   0.618E-03 0.618E-03
CGA: 102    -0.669224073228E+03   -0.28531E-03    0.71859E-04  8424   0.611E-03 0.610E-03
CGA: 103    -0.669224357507E+03   -0.28428E-03    0.69450E-04  8424   0.604E-03 0.603E-03
CGA: 104    -0.669224633997E+03   -0.27649E-03    0.71621E-04  8424   0.597E-03 0.596E-03
CGA: 105    -0.669224909722E+03   -0.27573E-03    0.69279E-04  8424   0.591E-03 0.589E-03
CGA: 106    -0.669225178270E+03   -0.26855E-03    0.71442E-04  8424   0.585E-03 0.583E-03
CGA: 107    -0.669225446155E+03   -0.26788E-03    0.69236E-04  8424   0.579E-03 0.577E-03
CGA: 108    -0.669225707490E+03   -0.26134E-03    0.71321E-04  8424   0.573E-03 0.572E-03
CGA: 109    -0.669225968192E+03   -0.26070E-03    0.69276E-04  8424   0.568E-03 0.566E-03
CGA: 110    -0.669226222927E+03   -0.25474E-03    0.71263E-04  8424   0.563E-03 0.561E-03
CGA: 111    -0.669226477046E+03   -0.25412E-03    0.69368E-04  8424   0.558E-03 0.556E-03
CGA: 112    -0.669226725706E+03   -0.24866E-03    0.71272E-04  8424   0.554E-03 0.551E-03
CGA: 113    -0.669226973790E+03   -0.24808E-03    0.69497E-04  8424   0.549E-03 0.547E-03
CGA: 114    -0.669227216847E+03   -0.24306E-03    0.71345E-04  8424   0.545E-03 0.542E-03
CGA: 115    -0.669227459399E+03   -0.24255E-03    0.69663E-04  8424   0.541E-03 0.538E-03
CGA: 116    -0.669227697293E+03   -0.23789E-03    0.71483E-04  8424   0.537E-03 0.534E-03
CGA: 117    -0.669227934775E+03   -0.23748E-03    0.69870E-04  8424   0.533E-03 0.530E-03
CGA: 118    -0.669228167916E+03   -0.23314E-03    0.71687E-04  8424   0.529E-03 0.526E-03
CGA: 119    -0.669228400749E+03   -0.23283E-03    0.70125E-04  8424   0.526E-03 0.523E-03
CGA: 120    -0.669228629516E+03   -0.22877E-03    0.71952E-04  8424   0.523E-03 0.519E-03
CGA: 121    -0.669228858079E+03   -0.22856E-03    0.70427E-04  8424   0.520E-03 0.516E-03
CGA: 122    -0.669229082819E+03   -0.22474E-03    0.72273E-04  8424   0.517E-03 0.513E-03
CGA: 123    -0.669229307455E+03   -0.22464E-03    0.70774E-04  8424   0.514E-03 0.510E-03
CGA: 124    -0.669229528481E+03   -0.22103E-03    0.72646E-04  8424   0.511E-03 0.508E-03
CGA: 125    -0.669229749501E+03   -0.22102E-03    0.71164E-04  8424   0.509E-03 0.505E-03
CGA: 126    -0.669229967097E+03   -0.21760E-03    0.73070E-04  8424   0.506E-03 0.502E-03
CGA: 127    -0.669230184785E+03   -0.21769E-03    0.71596E-04  8424   0.504E-03 0.500E-03
CGA: 128    -0.669230399213E+03   -0.21443E-03    0.73543E-04  8424   0.502E-03 0.498E-03
CGA: 129    -0.669230613828E+03   -0.21461E-03    0.72067E-04  8424   0.500E-03 0.496E-03
CGA: 130    -0.669230825328E+03   -0.21150E-03    0.74063E-04  8424   0.498E-03 0.493E-03
CGA: 131    -0.669231037108E+03   -0.21178E-03    0.72571E-04  8424   0.496E-03 0.491E-03
CGA: 132    -0.669231245898E+03   -0.20879E-03    0.74619E-04  8424   0.494E-03 0.490E-03
CGA: 133    -0.669231455058E+03   -0.20916E-03    0.73100E-04  8424   0.492E-03 0.488E-03
CGA: 134    -0.669231661335E+03   -0.20628E-03    0.75199E-04  8424   0.490E-03 0.486E-03
CGA: 135    -0.669231868067E+03   -0.20673E-03    0.73642E-04  8424   0.489E-03 0.484E-03
CGA: 136    -0.669232072012E+03   -0.20394E-03    0.75792E-04  8424   0.487E-03 0.483E-03
CGA: 137    -0.669232276493E+03   -0.20448E-03    0.74192E-04  8424   0.486E-03 0.481E-03
CGA: 138    -0.669232478274E+03   -0.20178E-03    0.76395E-04  8424   0.484E-03 0.480E-03
CGA: 139    -0.669232680671E+03   -0.20240E-03    0.74752E-04  8424   0.483E-03 0.478E-03
CGA: 140    -0.669232880451E+03   -0.19978E-03    0.77014E-04  8424   0.482E-03 0.477E-03
CGA: 141    -0.669233080924E+03   -0.20047E-03    0.75329E-04  8424   0.481E-03 0.476E-03
CGA: 142    -0.669233278861E+03   -0.19794E-03    0.77655E-04  8424   0.479E-03 0.475E-03
CGA: 143    -0.669233477570E+03   -0.19871E-03    0.75933E-04  8424   0.478E-03 0.474E-03
CGA: 144    -0.669233673820E+03   -0.19625E-03    0.78332E-04  8424   0.477E-03 0.472E-03
CGA: 145    -0.669233870923E+03   -0.19710E-03    0.76579E-04  8424   0.477E-03 0.472E-03
CGA: 146    -0.669234065648E+03   -0.19472E-03    0.79061E-04  8424   0.476E-03 0.471E-03
CGA: 147    -0.669234261308E+03   -0.19566E-03    0.77284E-04  8424   0.475E-03 0.470E-03
CGA: 148    -0.669234454670E+03   -0.19336E-03    0.79860E-04  8424   0.474E-03 0.469E-03
CGA: 149    -0.669234649048E+03   -0.19438E-03    0.78064E-04  8424   0.474E-03 0.469E-03
CGA: 150    -0.669234841203E+03   -0.19216E-03    0.80741E-04  8424   0.474E-03 0.468E-03
CGA: 151    -0.669235034453E+03   -0.19325E-03    0.78925E-04  8424   0.473E-03 0.468E-03
CGA: 152    -0.669235225548E+03   -0.19109E-03    0.81707E-04  8424   0.473E-03 0.468E-03
CGA: 153    -0.669235417804E+03   -0.19226E-03    0.79864E-04  8424   0.473E-03 0.467E-03
CGA: 154    -0.669235607963E+03   -0.19016E-03    0.82747E-04  8424   0.473E-03 0.467E-03
CGA: 155    -0.669235799339E+03   -0.19138E-03    0.80865E-04  8424   0.473E-03 0.467E-03
CGA: 156    -0.669235988662E+03   -0.18932E-03    0.83840E-04  8424   0.472E-03 0.467E-03
CGA: 157    -0.669236179245E+03   -0.19058E-03    0.81905E-04  8424   0.472E-03 0.467E-03
CGA: 158    -0.669236367803E+03   -0.18856E-03    0.84959E-04  8424   0.472E-03 0.467E-03
CGA: 159    -0.669236557651E+03   -0.18985E-03    0.82955E-04  8424   0.472E-03 0.467E-03
CGA: 160    -0.669236745491E+03   -0.18784E-03    0.86074E-04  8424   0.472E-03 0.467E-03
CGA: 161    -0.669236934636E+03   -0.18915E-03    0.83986E-04  8424   0.472E-03 0.467E-03
CGA: 162    -0.669237121780E+03   -0.18714E-03    0.87156E-04  8424   0.472E-03 0.467E-03
CGA: 163    -0.669237310236E+03   -0.18846E-03    0.84974E-04  8424   0.472E-03 0.467E-03
CGA: 164    -0.669237496687E+03   -0.18645E-03    0.88184E-04  8424   0.472E-03 0.467E-03
CGA: 165    -0.669237684450E+03   -0.18776E-03    0.85906E-04  8424   0.472E-03 0.466E-03
CGA: 166    -0.669237870204E+03   -0.18575E-03    0.89151E-04  8424   0.472E-03 0.466E-03
CGA: 167    -0.669238057268E+03   -0.18706E-03    0.86778E-04  8424   0.471E-03 0.466E-03
CGA: 168    -0.669238242318E+03   -0.18505E-03    0.90058E-04  8424   0.471E-03 0.466E-03
CGA: 169    -0.669238428676E+03   -0.18636E-03    0.87599E-04  8424   0.471E-03 0.466E-03
CGA: 170    -0.669238613019E+03   -0.18434E-03    0.90914E-04  8424   0.471E-03 0.465E-03
CGA: 171    -0.669238798669E+03   -0.18565E-03    0.88375E-04  8424   0.470E-03 0.465E-03
CGA: 172    -0.669238982308E+03   -0.18364E-03    0.91729E-04  8424   0.470E-03 0.465E-03
CGA: 173    -0.669239167257E+03   -0.18495E-03    0.89117E-04  8424   0.470E-03 0.464E-03
CGA: 174    -0.669239350204E+03   -0.18295E-03    0.92512E-04  8424   0.470E-03 0.464E-03
CGA: 175    -0.669239534470E+03   -0.18427E-03    0.89836E-04  8424   0.469E-03 0.464E-03
CGA: 176    -0.669239716748E+03   -0.18228E-03    0.93280E-04  8424   0.469E-03 0.464E-03
CGA: 177    -0.669239900360E+03   -0.18361E-03    0.90549E-04  8424   0.469E-03 0.463E-03
CGA: 178    -0.669240082006E+03   -0.18165E-03    0.94048E-04  8424   0.469E-03 0.463E-03
CGA: 179    -0.669240265003E+03   -0.18300E-03    0.91271E-04  8424   0.468E-03 0.463E-03
CGA: 180    -0.669240446060E+03   -0.18106E-03    0.94828E-04  8424   0.468E-03 0.463E-03
CGA: 181    -0.669240628491E+03   -0.18243E-03    0.92008E-04  8424   0.468E-03 0.462E-03
CGA: 182    -0.669240809010E+03   -0.18052E-03    0.95622E-04  8424   0.468E-03 0.462E-03
CGA: 183    -0.669240990927E+03   -0.18192E-03    0.92760E-04  8424   0.468E-03 0.462E-03
CGA: 184    -0.669241170964E+03   -0.18004E-03    0.96426E-04  8424   0.468E-03 0.462E-03
CGA: 185    -0.669241352421E+03   -0.18146E-03    0.93519E-04  8424   0.468E-03 0.462E-03
CGA: 186    -0.669241532031E+03   -0.17961E-03    0.97227E-04  8424   0.468E-03 0.462E-03
CGA: 187    -0.669241713080E+03   -0.18105E-03    0.94267E-04  8424   0.468E-03 0.462E-03
CGA: 188    -0.669241892313E+03   -0.17923E-03    0.97999E-04  8424   0.468E-03 0.462E-03
CGA: 189    -0.669242073001E+03   -0.18069E-03    0.94979E-04  8424   0.468E-03 0.462E-03
CGA: 190    -0.669242251899E+03   -0.17890E-03    0.98717E-04  8424   0.468E-03 0.462E-03
CGA: 191    -0.669242432263E+03   -0.18036E-03    0.95625E-04  8424   0.468E-03 0.462E-03
CGA: 192    -0.669242610862E+03   -0.17860E-03    0.99343E-04  8424   0.468E-03 0.462E-03
CGA: 193    -0.669242790932E+03   -0.18007E-03    0.96171E-04  8424   0.468E-03 0.462E-03
CGA: 194    -0.669242969255E+03   -0.17832E-03    0.99844E-04  8424   0.468E-03 0.462E-03
CGA: 195    -0.669243149046E+03   -0.17979E-03    0.96586E-04  8424   0.467E-03 0.462E-03
CGA: 196    -0.669243327105E+03   -0.17806E-03    0.10019E-03  8424   0.467E-03 0.462E-03
CGA: 197    -0.669243506621E+03   -0.17952E-03    0.96846E-04  8424   0.467E-03 0.461E-03
CGA: 198    -0.669243684411E+03   -0.17779E-03    0.10037E-03  8424   0.467E-03 0.461E-03
CGA: 199    -0.669243863643E+03   -0.17923E-03    0.96941E-04  8424   0.466E-03 0.461E-03
CGA: 200    -0.669244041148E+03   -0.17751E-03    0.10037E-03  8424   0.466E-03 0.460E-03
   1 F= -.66924404E+03 E0= -.66924404E+03  d E =-.669244E+03  mag=     2.0000
       N       E                     dE             d eps       ncg     rms          ort
SDA:   1    -0.669252856201E+03   -0.89926E-02    0.00000E+00  8424   0.652E-02 0.000E+00
CGA:   2    -0.669254361940E+03   -0.15057E-02   -0.15617E-02  8424   0.409E-02-0.581E-03
CGA:   3    -0.669255285831E+03   -0.92389E-03   -0.10723E-02  8424   0.321E-02-0.107E-02
CGA:   4    -0.669255793630E+03   -0.50780E-03   -0.65648E-03  8424   0.351E-02-0.123E-02
CGA:   5    -0.669252517238E+03    0.32764E-02   -0.18288E-02  8424   0.442E-01-0.645E-02
CGA:   6    -0.669258638662E+03   -0.61214E-02   -0.60784E-02  8424   0.815E-02-0.286E-03
CGA:   7    -0.669260640279E+03   -0.20016E-02   -0.19847E-02  8424   0.302E-02-0.426E-03
CGA:   8    -0.669261653211E+03   -0.10129E-02   -0.10658E-02  8424   0.220E-02-0.600E-03
CGA:   9    -0.669262261895E+03   -0.60868E-03   -0.12326E-02  8424   0.531E-02-0.154E-02
CGA:  10    -0.669263405899E+03   -0.11440E-02   -0.11181E-02  8424   0.197E-02-0.268E-03
CGA:  11    -0.669264225991E+03   -0.82009E-03   -0.12498E-02  8424   0.384E-02-0.119E-02
CGA:  12    -0.669265020840E+03   -0.79485E-03   -0.78746E-03  8424   0.125E-02-0.653E-04
CGA:  13    -0.669265518905E+03   -0.49807E-03   -0.67293E-03  8424   0.319E-02-0.762E-03
CGA:  14    -0.669266112367E+03   -0.59346E-03   -0.56018E-03  8424   0.108E-02-0.222E-03
CGA:  15    -0.669264598331E+03    0.15140E-02   -0.14626E-02  8424   0.206E-01-0.264E-02
CGA:  16    -0.669267853063E+03   -0.32547E-02   -0.32887E-02  8424   0.395E-02 0.153E-03
CGA:  17    -0.669268826564E+03   -0.97350E-03   -0.95151E-03  8424   0.782E-03-0.176E-03
CGA:  18    -0.669269400786E+03   -0.57422E-03    0.19306E-02  8424   0.529E-03 0.315E-03
CGA:  19    -0.669270127135E+03   -0.72635E-03    0.36870E-03  8424   0.635E-03 0.504E-03
CGA:  20    -0.669270392740E+03   -0.26560E-03   -0.51313E-03  8424   0.475E-02-0.557E-03
CGA:  21    -0.669271143725E+03   -0.75098E-03   -0.66895E-03  8424   0.729E-03-0.345E-03
CGA:  22    -0.669271651769E+03   -0.50804E-03    0.78686E-02  8424   0.570E-03 0.178E-03
CGA:  23    -0.669272429201E+03   -0.77743E-03    0.27220E-03  8424   0.486E-03 0.624E-03
CGA:  24    -0.669272795107E+03   -0.36591E-03    0.53088E-02  8424   0.547E-03 0.209E-03
CGA:  25    -0.669273604846E+03   -0.80974E-03    0.36171E-03  8424   0.564E-03 0.568E-03
CGA:  26    -0.669274058526E+03   -0.45368E-03    0.11832E-02  8424   0.586E-03 0.147E-03
CGA:  27    -0.669274830272E+03   -0.77175E-03    0.33260E-03  8424   0.706E-03 0.452E-03
CGA:  28    -0.669275148159E+03   -0.31789E-03   -0.42374E-03  8424   0.249E-02-0.465E-03
CGA:  29    -0.669275625206E+03   -0.47705E-03   -0.42244E-03  8424   0.721E-03-0.260E-03
CGA:  30    -0.669276181966E+03   -0.55676E-03    0.73930E-03  8424   0.557E-03 0.161E-03
CGA:  31    -0.669276963192E+03   -0.78123E-03    0.23111E-03  8424   0.468E-03 0.618E-03
CGA:  32    -0.669274325686E+03    0.26375E-02   -0.14295E-02  8424   0.363E-01-0.194E-02
CGA:  33    -0.669279165701E+03   -0.48400E-02   -0.47363E-02  8424   0.200E-02-0.222E-03
CGA:  34    -0.669279941716E+03   -0.77602E-03   -0.65056E-03  8424   0.607E-03-0.393E-03
CGA:  35    -0.669280778887E+03   -0.83717E-03    0.43570E-03  8424   0.802E-03 0.231E-03
CGA:  36    -0.666825977643E+03    0.24548E+01    0.33284E+00  8424   0.118E+02-0.509E-01
CGA:  37    -0.668911310500E+03   -0.20853E+01   -0.69525E+01  8424   0.326E+01-0.816E+00
CGA:  38    -0.669277223931E+03   -0.36591E+00   -0.36618E+00  8424   0.806E-01 0.807E-01
CGA:  39    -0.669196833369E+03    0.80391E-01   -0.22445E-01  8424   0.471E+00 0.119E-01
CGA:  40    -0.664668191773E+03    0.45286E+01   -0.33852E-01  8424   0.199E+02 0.224E+01
CGA:  41    -0.664352919686E+03    0.31527E+00   -0.83590E+01  8424   0.140E+02 0.262E+01
CGA:  42    -0.658974577844E+03    0.53783E+01   -0.51868E+01  8424   0.199E+02 0.336E+01
CGA:  43    -0.658018095032E+03    0.95648E+00   -0.75449E+01  8424   0.219E+02 0.115E+02
CGA:  44    -0.660368311581E+03   -0.23502E+01   -0.88956E+01  8424   0.196E+02 0.592E+01
CGA:  45    -0.659048363269E+03    0.13199E+01   -0.79229E+01  8424   0.172E+02 0.107E+02
CGA:  46    -0.663866946811E+03   -0.48186E+01   -0.63676E+01  8424   0.153E+02 0.424E+01
CGA:  47    -0.664372653727E+03   -0.50571E+00   -0.59499E+01  8424   0.778E+01 0.383E+01
CGA:  48    -0.666038651574E+03   -0.16660E+01   -0.25121E+01  8424   0.610E+01 0.469E+01
CGA:  49    -0.667988479768E+03   -0.19498E+01   -0.24701E+01  8424   0.323E+01 0.820E+00
CGA:  50    -0.668607273254E+03   -0.61879E+00   -0.10728E+01  8424   0.163E+01 0.293E+00
CGA:  51    -0.668777707183E+03   -0.17043E+00   -0.47742E+00  8424   0.131E+01 0.319E+00
CGA:  52    -0.668520786638E+03    0.25692E+00   -0.33579E+00  8424   0.179E+01 0.345E+00
CGA:  53    -0.667196892670E+03    0.13239E+01   -0.33913E+00  8424   0.587E+01 0.752E+00
CGA:  54    -0.662048058735E+03    0.51488E+01   -0.90692E+00  8424   0.216E+02 0.295E+01
CGA:  55    -0.664071625250E+03   -0.20236E+01   -0.67562E+01  8424   0.219E+02 0.434E+01
CGA:  56    -0.667672194151E+03   -0.36006E+01   -0.81100E+01  8424   0.886E+01-0.168E+01
CGA:  57    -0.668445969075E+03   -0.77377E+00   -0.20976E+01  8424   0.202E+01 0.138E+00
CGA:  58    -0.668871747795E+03   -0.42578E+00   -0.39398E+00  8424   0.110E+01 0.494E+00
CGA:  59    -0.668937567243E+03   -0.65819E-01   -0.22191E+00  8424   0.109E+01-0.164E+00
CGA:  60    -0.669057311061E+03   -0.11974E+00   -0.15192E+00  8424   0.266E+00-0.321E-01
CGA:  61    -0.669175329560E+03   -0.11802E+00   -0.11645E+00  8424   0.140E+00-0.154E-01
CGA:  62    -0.669205752115E+03   -0.30423E-01   -0.26586E-01  8424   0.424E-01 0.361E-01
CGA:  63    -0.669232043361E+03   -0.26291E-01   -0.27101E-01  8424   0.103E+00-0.520E-01
CGA:  64    -0.669260026780E+03   -0.27983E-01   -0.29631E-01  8424   0.393E-01 0.362E-02
CGA:  65    -0.669270921707E+03   -0.10895E-01   -0.10718E-01  8424   0.212E-01-0.158E-02
CGA:  66    -0.669286168291E+03   -0.15247E-01   -0.15946E-01  8424   0.544E-01-0.305E-02
CGA:  67    -0.669291766355E+03   -0.55981E-02   -0.46003E-02  8424   0.333E-01 0.360E-02
CGA:  68    -0.669295099968E+03   -0.33336E-02   -0.27498E-02  8424   0.170E-01 0.185E-02
CGA:  69    -0.669297422002E+03   -0.23220E-02   -0.18773E-02  8424   0.187E-01 0.537E-03
CGA:  70    -0.669299836684E+03   -0.24147E-02   -0.19854E-02  8424   0.195E-01 0.102E-02
CGA:  71    -0.669301631649E+03   -0.17950E-02   -0.15247E-02  8424   0.115E-01 0.141E-02
CGA:  72    -0.669302643562E+03   -0.10119E-02   -0.85364E-03  8424   0.694E-02 0.393E-03
CGA:  73    -0.669303406227E+03   -0.76267E-03   -0.61164E-03  8424   0.668E-02-0.133E-03
CGA:  74    -0.669304265301E+03   -0.85907E-03   -0.61528E-03  8424   0.732E-02-0.519E-03
CGA:  75    -0.669305172877E+03   -0.90758E-03   -0.56963E-03  8424   0.693E-02-0.854E-03
CGA:  76    -0.669306071344E+03   -0.89847E-03   -0.51822E-03  8424   0.690E-02-0.114E-02
CGA:  77    -0.669306982858E+03   -0.91151E-03   -0.50214E-03  8424   0.738E-02-0.138E-02
CGA:  78    -0.669307816453E+03   -0.83360E-03   -0.44245E-03  8424   0.674E-02-0.135E-02
CGA:  79    -0.669308527601E+03   -0.71115E-03   -0.37946E-03  8424   0.571E-02-0.122E-02
CGA:  80    -0.669309215270E+03   -0.68767E-03   -0.36077E-03  8424   0.595E-02-0.137E-02
CGA:  81    -0.669310024911E+03   -0.80964E-03   -0.38670E-03  8424   0.729E-02-0.196E-02
CGA:  82    -0.669310887830E+03   -0.86292E-03   -0.33805E-03  8424   0.737E-02-0.230E-02
CGA:  83    -0.669311750164E+03   -0.86233E-03   -0.30568E-03  8424   0.607E-02-0.248E-02
CGA:  84    -0.669312556505E+03   -0.80634E-03   -0.26244E-03  8424   0.571E-02-0.270E-02
CGA:  85    -0.669313436482E+03   -0.87998E-03   -0.25538E-03  8424   0.780E-02-0.362E-02
CGA:  86    -0.669316472232E+03   -0.30358E-02   -0.31426E-02  8424   0.953E-02-0.650E-03
CGA:  87    -0.669319439201E+03   -0.29670E-02   -0.42593E-02  8424   0.791E-02-0.531E-02
CGA:  88    -0.669320942397E+03   -0.15032E-02   -0.15118E-02  8424   0.185E-02 0.143E-03
CGA:  89    -0.669319468141E+03    0.14743E-02   -0.18274E-02  8424   0.170E-01-0.459E-02
CGA:  90    -0.669322212864E+03   -0.27447E-02   -0.27743E-02  8424   0.239E-02 0.288E-03
CGA:  91    -0.669322966834E+03   -0.75397E-03   -0.11773E-02  8424   0.322E-02-0.211E-02
CGA:  92    -0.669323593902E+03   -0.62707E-03   -0.61565E-03  8424   0.542E-03-0.110E-03
CGA:  93    -0.669324022373E+03   -0.42847E-03    0.17849E-03  8424   0.298E-03-0.127E-03
CGA:  94    -0.669324493038E+03   -0.47067E-03    0.12749E-04  8424   0.167E-03 0.136E-03
CGA:  95    -0.669325036748E+03   -0.54371E-03    0.12180E-04  8424   0.184E-03 0.147E-03
CGA:  96    -0.669325355878E+03   -0.31913E-03    0.13166E-04  8424   0.190E-03 0.236E-04
CGA:  97    -0.669325925752E+03   -0.56987E-03    0.84872E-05  8424   0.156E-03 0.172E-03
CGA:  98    -0.669326200458E+03   -0.27471E-03    0.10955E-04  8424   0.137E-03 0.542E-04
CGA:  99    -0.669326740552E+03   -0.54009E-03    0.64692E-05  8424   0.134E-03 0.157E-03
CGA: 100    -0.669327031453E+03   -0.29090E-03    0.69045E-05  8424   0.103E-03 0.749E-04
CGA: 101    -0.669327311573E+03   -0.28012E-03    0.39827E-05  8424   0.993E-04 0.839E-04
CGA: 102    -0.669327600250E+03   -0.28868E-03    0.35267E-05  8424   0.102E-03 0.829E-04
CGA: 103    -0.669327874308E+03   -0.27406E-03    0.39691E-05  8424   0.109E-03 0.772E-04
CGA: 104    -0.669328166052E+03   -0.29174E-03    0.43415E-05  8424   0.129E-03 0.638E-04
CGA: 105    -0.669328427801E+03   -0.26175E-03    0.73278E-05  8424   0.178E-03 0.321E-04
CGA: 106    -0.669329105269E+03   -0.67747E-03    0.74803E-05  8424   0.160E-03 0.207E-03
CGA: 107    -0.669329398594E+03   -0.29333E-03    0.10601E-04  8424   0.218E-03-0.615E-05
CGA: 108    -0.669330056319E+03   -0.65773E-03    0.67685E-05  8424   0.239E-03 0.191E-03
CGA: 109    -0.669330304339E+03   -0.24802E-03    0.42640E-04  8424   0.362E-03-0.112E-03
CGA: 110    -0.669330984356E+03   -0.68002E-03    0.54202E-05  8424   0.558E-03 0.144E-03
CGA: 111    -0.669332372071E+03   -0.13877E-02    0.53620E-04  8424   0.731E-03 0.733E-05
CGA: 112    -0.669334448384E+03   -0.20763E-02    0.27566E-04  8424   0.662E-03 0.471E-03
CGA: 113    -0.669334637728E+03   -0.18934E-03   -0.19748E-03  8424   0.143E-02-0.770E-03
CGA: 114    -0.669334915780E+03   -0.27805E-03   -0.21614E-03  8424   0.385E-03-0.454E-03
CGA: 115    -0.669335230874E+03   -0.31509E-03    0.32664E-04  8424   0.565E-03-0.136E-03
CGA: 116    -0.669335997692E+03   -0.76682E-03    0.18854E-04  8424   0.358E-03 0.119E-03
CGA: 117    -0.669336742391E+03   -0.74470E-03    0.29787E-04  8424   0.455E-03-0.423E-04
CGA: 118    -0.669337937992E+03   -0.11956E-02    0.13182E-04  8424   0.499E-03 0.212E-03
CGA: 119    -0.669339527601E+03   -0.15896E-02    0.36035E-04  8424   0.489E-03 0.151E-03
CGA: 120    -0.669341367601E+03   -0.18400E-02    0.21702E-04  8424   0.400E-03 0.343E-03
CGA: 121    -0.669341630684E+03   -0.26308E-03    0.33190E-03  8424   0.338E-03-0.226E-03
CGA: 122    -0.669341873504E+03   -0.24282E-03    0.17266E-03  8424   0.374E-03-0.217E-03
CGA: 123    -0.669342106769E+03   -0.23327E-03    0.48320E-03  8424   0.511E-03-0.306E-03
CGA: 124    -0.669342001836E+03    0.10493E-03   -0.28246E-03  8424   0.478E-02-0.143E-02
CGA: 125    -0.669342763010E+03   -0.76117E-03   -0.70375E-03  8424   0.141E-03-0.392E-03
CGA: 126    -0.669343019317E+03   -0.25631E-03    0.76168E-05  8424   0.151E-03 0.156E-05
CGA: 127    -0.669343539537E+03   -0.52022E-03    0.44315E-05  8424   0.130E-03 0.949E-04
CGA: 128    -0.669343797922E+03   -0.25838E-03    0.76525E-05  8424   0.988E-04 0.133E-04
CGA: 129    -0.669344224148E+03   -0.42623E-03    0.26993E-05  8424   0.109E-03 0.886E-04
CGA: 130    -0.669344479685E+03   -0.25554E-03    0.51012E-05  8424   0.917E-04 0.285E-04
CGA: 131    -0.669344920478E+03   -0.44079E-03    0.29544E-05  8424   0.107E-03 0.796E-04
CGA: 132    -0.669345173143E+03   -0.25267E-03    0.49585E-05  8424   0.965E-04 0.283E-04
CGA: 133    -0.669345624549E+03   -0.45141E-03    0.32319E-05  8424   0.108E-03 0.722E-04
CGA: 134    -0.669345875404E+03   -0.25085E-03    0.50968E-05  8424   0.952E-04 0.298E-04
CGA: 135    -0.669346318448E+03   -0.44304E-03    0.32757E-05  8424   0.106E-03 0.643E-04
CGA: 136    -0.669346566052E+03   -0.24760E-03    0.49483E-05  8424   0.101E-03 0.283E-04
CGA: 137    -0.669347022769E+03   -0.45672E-03    0.35315E-05  8424   0.101E-03 0.619E-04
CGA: 138    -0.669347268207E+03   -0.24544E-03    0.45395E-05  8424   0.917E-04 0.340E-04
CGA: 139    -0.669347710194E+03   -0.44199E-03    0.33390E-05  8424   0.962E-04 0.600E-04
CGA: 140    -0.669347950332E+03   -0.24014E-03    0.41458E-05  8424   0.979E-04 0.283E-04
CGA: 141    -0.669348415283E+03   -0.46495E-03    0.33907E-05  8424   0.910E-04 0.641E-04
CGA: 142    -0.669348654406E+03   -0.23912E-03    0.36737E-05  8424   0.795E-04 0.382E-04
CGA: 143    -0.669349082178E+03   -0.42777E-03    0.29078E-05  8424   0.834E-04 0.608E-04
CGA: 144    -0.669349314299E+03   -0.23212E-03    0.31244E-05  8424   0.962E-04 0.288E-04
CGA: 145    -0.669349804410E+03   -0.49011E-03    0.33362E-05  8424   0.729E-04 0.757E-04
CGA: 146    -0.669350036797E+03   -0.23239E-03    0.23095E-05  8424   0.593E-04 0.469E-04
CGA: 147    -0.669350260031E+03   -0.22323E-03    0.15377E-05  8424   0.893E-04 0.284E-04
CGA: 148    -0.669350828118E+03   -0.56809E-03    0.29336E-05  8424   0.504E-04 0.122E-03
CGA: 149    -0.669351050070E+03   -0.22195E-03    0.10875E-05  8424   0.560E-04 0.428E-04
CGA: 150    -0.669351269780E+03   -0.21971E-03    0.13864E-05  8424   0.829E-04 0.287E-04
CGA: 151    -0.669351478648E+03   -0.20887E-03    0.35239E-05  8424   0.190E-03-0.259E-04
CGA: 152    -0.669352190402E+03   -0.71175E-03    0.22132E-05  8424   0.348E-03 0.118E-03
CGA: 153    -0.669352155881E+03    0.34521E-04   -0.16250E-03  8424   0.438E-02-0.110E-02
CGA: 154    -0.669352648111E+03   -0.49223E-03   -0.45255E-03  8424   0.592E-04-0.206E-03
CGA: 155    -0.669352867990E+03   -0.21988E-03    0.14001E-05  8424   0.663E-04 0.306E-04
CGA: 156    -0.669353072139E+03   -0.20415E-03    0.21806E-05  8424   0.125E-03 0.843E-06
CGA: 157    -0.669353690580E+03   -0.61844E-03    0.24240E-05  8424   0.119E-03 0.125E-03
CGA: 158    -0.669353890430E+03   -0.19985E-03    0.89062E-05  8424   0.305E-03-0.989E-04
CGA: 159    -0.669353734290E+03    0.15614E-03   -0.17235E-03  8424   0.572E-02-0.118E-02
CGA: 160    -0.669354401953E+03   -0.66766E-03   -0.60817E-03  8424   0.650E-04-0.309E-03
CGA: 161    -0.669354608679E+03   -0.20673E-03    0.18737E-05  8424   0.872E-04 0.143E-04
CGA: 162    -0.669355112682E+03   -0.50400E-03    0.21710E-05  8424   0.492E-04 0.985E-04
CGA: 163    -0.669355320169E+03   -0.20749E-03    0.11463E-05  8424   0.627E-04 0.265E-04
CGA: 164    -0.669355518720E+03   -0.19855E-03    0.20597E-05  8424   0.115E-03-0.138E-05
CGA: 165    -0.669356104788E+03   -0.58607E-03    0.20447E-05  8424   0.115E-03 0.108E-03
CGA: 166    -0.669356298014E+03   -0.19323E-03    0.87909E-05  8424   0.262E-03-0.886E-04
CGA: 167    -0.669350660122E+03    0.56379E-02   -0.31044E-02  8424   0.670E-01-0.383E-02
CGA: 168    -0.669357699962E+03   -0.70398E-02   -0.69459E-02  8424   0.147E-03-0.374E-03
CGA: 169    -0.669357938869E+03   -0.23891E-03    0.61520E-04  8424   0.701E-03-0.221E-03
CGA: 170    -0.669358177582E+03   -0.23871E-03   -0.13864E-03  8424   0.338E-03-0.322E-03
CGA: 171    -0.669358542138E+03   -0.36456E-03    0.44446E-04  8424   0.845E-03-0.253E-03
CGA: 172    -0.669358795038E+03   -0.25290E-03   -0.15854E-03  8424   0.323E-03-0.309E-03
CGA: 173    -0.669359081788E+03   -0.28675E-03    0.10574E-03  8424   0.909E-03-0.308E-03
CGA: 174    -0.669359349837E+03   -0.26805E-03   -0.16597E-03  8424   0.353E-03-0.346E-03
CGA: 175    -0.669359654127E+03   -0.30429E-03    0.10159E-03  8424   0.708E-03-0.275E-03
CGA: 176    -0.669359900523E+03   -0.24640E-03   -0.15201E-03  8424   0.476E-03-0.380E-03
CGA: 177    -0.669359993585E+03   -0.93062E-04   -0.64321E-04  8424   0.716E-04-0.906E-04
CGA: 178    -0.669360331969E+03   -0.33838E-03    0.22140E-05  8424   0.815E-04 0.141E-04
CGA: 179    -0.669360956445E+03   -0.62448E-03    0.33474E-05  8424   0.879E-04 0.486E-04
CGA: 180    -0.669361219358E+03   -0.26291E-03    0.78619E-05  8424   0.611E-03-0.146E-03
CGA: 181    -0.669361313351E+03   -0.93993E-04   -0.72412E-04  8424   0.484E-04-0.676E-04
CGA: 182    -0.669361605182E+03   -0.29183E-03    0.12799E-05  8424   0.596E-04 0.205E-04
CGA: 183    -0.669362200788E+03   -0.59561E-03    0.24159E-05  8424   0.613E-04 0.555E-04
CGA: 184    -0.669362450499E+03   -0.24971E-03    0.33364E-05  8424   0.352E-03-0.704E-04
CGA: 185    -0.669362537455E+03   -0.86957E-04   -0.51812E-04  8424   0.107E-03-0.129E-03
CGA: 186    -0.669362876352E+03   -0.33890E-03    0.26887E-05  8424   0.550E-04 0.204E-04
CGA: 187    -0.669363264776E+03   -0.38842E-03    0.21051E-05  8424   0.107E-03 0.175E-04
CGA: 188    -0.669364319980E+03   -0.10552E-02    0.35199E-05  8424   0.287E-04 0.116E-03
CGA: 189    -0.669364551694E+03   -0.23171E-03    0.65183E-06  8424   0.335E-04 0.237E-04
CGA: 190    -0.669364783956E+03   -0.23226E-03    0.90333E-06  8424   0.838E-04 0.708E-05
CGA: 191    -0.669365593480E+03   -0.80952E-03    0.23368E-05  8424   0.468E-04 0.857E-04
CGA: 192    -0.669365816409E+03   -0.22293E-03    0.19555E-05  8424   0.688E-04-0.341E-05
CGA: 193    -0.669366372183E+03   -0.55577E-03    0.13310E-05  8424   0.863E-04 0.426E-04
CGA: 194    -0.669366575075E+03   -0.20289E-03    0.92408E-05  8424   0.119E-03-0.395E-04
CGA: 195    -0.669367080474E+03   -0.50540E-03    0.15227E-05  8424   0.225E-03-0.292E-04
CGA: 196    -0.669368300670E+03   -0.12202E-02    0.44160E-05  8424   0.213E-03 0.982E-04
CGA: 197    -0.669369607786E+03   -0.13071E-02    0.14536E-04  8424   0.513E-03-0.772E-04
CGA: 198    -0.669372872827E+03   -0.32650E-02    0.58749E-05  8424   0.127E-02-0.302E-03
CGA: 199    -0.669373284273E+03   -0.41145E-03   -0.36889E-03  8424   0.622E-03-0.369E-03
CGA: 200    -0.669373420215E+03   -0.13594E-03   -0.93891E-04  8424   0.186E-03-0.224E-03
   2 F= -.66937342E+03 E0= -.66937342E+03  d E =-.129379E+00  mag=     2.0000
       N       E                     dE             d eps       ncg     rms          ort
SDA:   1    -0.667638252122E+03    0.17350E+01    0.00000E+00  8424   0.611E+01 0.000E+00
CGA:   2    -0.668872862718E+03   -0.12346E+01   -0.12369E+01  8424   0.257E+01-0.184E-02
CGA:   3    -0.669410066280E+03   -0.53720E+00   -0.53669E+00  8424   0.829E+00 0.290E-03
CGA:   4    -0.669544354241E+03   -0.13429E+00   -0.13430E+00  8424   0.198E+00-0.243E-03
CGA:   5    -0.669578935989E+03   -0.34582E-01   -0.34603E-01  8424   0.412E-01 0.166E-04
CGA:   6    -0.669587341769E+03   -0.84058E-02   -0.83597E-02  8424   0.933E-02-0.311E-03
CGA:   7    -0.669589479322E+03   -0.21376E-02   -0.21052E-02  8424   0.288E-02-0.276E-03
CGA:   8    -0.669590270309E+03   -0.79099E-03   -0.76762E-03  8424   0.104E-02-0.360E-03
CGA:   9    -0.669590603357E+03   -0.33305E-03   -0.38807E-03  8424   0.108E-02-0.612E-03
CGA:  10    -0.669590834235E+03   -0.23088E-03   -0.21667E-03  8424   0.236E-03-0.102E-03
CGA:  11    -0.669591032523E+03   -0.19829E-03    0.91744E-04  8424   0.103E-03-0.280E-04
CGA:  12    -0.669591201056E+03   -0.16853E-03    0.85487E-05  8424   0.615E-04 0.236E-04
CGA:  13    -0.669591440830E+03   -0.23977E-03    0.33555E-05  8424   0.509E-04 0.343E-04
CGA:  14    -0.669591543970E+03   -0.10314E-03    0.41696E-05  8424   0.507E-04 0.766E-05
CGA:  15    -0.669591785205E+03   -0.24123E-03    0.18714E-05  8424   0.472E-04 0.328E-04
CGA:  16    -0.669591889581E+03   -0.10438E-03    0.34073E-05  8424   0.417E-04 0.838E-05
CGA:  17    -0.669592112216E+03   -0.22263E-03    0.14137E-05  8424   0.467E-04 0.278E-04
CGA:  18    -0.669592213168E+03   -0.10095E-03    0.34768E-05  8424   0.492E-04 0.448E-05
CGA:  19    -0.669592452116E+03   -0.23895E-03    0.15932E-05  8424   0.533E-04 0.219E-04
CGA:  20    -0.669592818518E+03   -0.36640E-03    0.20996E-05  8424   0.421E-04 0.685E-04
CGA:  21    -0.669592911148E+03   -0.92630E-04    0.30668E-05  8424   0.613E-04 0.138E-05
CGA:  22    -0.669593189385E+03   -0.27824E-03    0.18962E-05  8424   0.427E-04 0.268E-04
CGA:  23    -0.669593498988E+03   -0.30960E-03    0.15613E-05  8424   0.591E-04 0.461E-04
CGA:  24    -0.669593570094E+03   -0.71106E-04    0.12331E-04  8424   0.134E-03-0.339E-04
CGA:  25    -0.669593703482E+03   -0.13339E-03    0.46121E-04  8424   0.518E-03-0.219E-03
CGA:  26    -0.669593747842E+03   -0.44360E-04   -0.53426E-04  8424   0.203E-04 0.395E-04
CGA:  27    -0.669593841422E+03   -0.93581E-04    0.62116E-06  8424   0.398E-04 0.114E-04
CGA:  28    -0.669593966767E+03   -0.12534E-03    0.16546E-05  8424   0.104E-03-0.232E-04
CGA:  29    -0.669593996521E+03   -0.29754E-04   -0.22404E-04  8424   0.108E-03-0.686E-04
CGA:  30    -0.669594126245E+03   -0.12972E-03    0.19374E-04  8424   0.377E-03-0.160E-03
CGA:  31    -0.669594160373E+03   -0.34128E-04   -0.39154E-04  8424   0.188E-04 0.236E-04
CGA:  32    -0.669594253167E+03   -0.92795E-04    0.46526E-06  8424   0.299E-04 0.151E-04
CGA:  33    -0.669594367998E+03   -0.11483E-03    0.87070E-06  8424   0.627E-04-0.424E-05
CGA:  34    -0.669594670061E+03   -0.30206E-03    0.10089E-05  8424   0.812E-04 0.525E-04
CGA:  35    -0.669594693994E+03   -0.23934E-04   -0.26869E-04  8424   0.316E-03-0.120E-03
CGA:  36    -0.669594749804E+03   -0.55810E-04   -0.12400E-03  8424   0.228E-02-0.805E-03
CGA:  37    -0.669594922498E+03   -0.17269E-03   -0.21831E-03  8424   0.347E-04 0.212E-03
CGA:  38    -0.669594977408E+03   -0.54910E-04    0.40547E-05  8424   0.111E-03-0.290E-04
CGA:  39    -0.669595109362E+03   -0.13195E-03    0.17008E-04  8424   0.334E-03-0.155E-03
CGA:  40    -0.669595135841E+03   -0.26479E-04   -0.33458E-04  8424   0.184E-04 0.347E-04
CGA:  41    -0.669595215556E+03   -0.79714E-04    0.51186E-06  8424   0.366E-04 0.947E-05
CGA:  42    -0.669595329153E+03   -0.11360E-03    0.12260E-05  8424   0.752E-04-0.165E-04
CGA:  43    -0.669595604361E+03   -0.27521E-03    0.57574E-06  8424   0.149E-03 0.350E-04
CGA:  44    -0.669596182815E+03   -0.57845E-03    0.89965E-05  8424   0.159E-03 0.141E-04
CGA:  45    -0.669596977489E+03   -0.79467E-03    0.36874E-05  8424   0.369E-04 0.147E-03
CGA:  46    -0.669597089712E+03   -0.11222E-03    0.12657E-05  8424   0.753E-04-0.211E-04
CGA:  47    -0.669597111261E+03   -0.21549E-04   -0.19222E-04  8424   0.122E-03-0.655E-04
CGA:  48    -0.669597244916E+03   -0.13366E-03    0.19784E-04  8424   0.301E-03-0.160E-03
CGA:  49    -0.669597265549E+03   -0.20633E-04   -0.29479E-04  8424   0.183E-04 0.462E-04
CGA:  50    -0.669597328285E+03   -0.62736E-04    0.68527E-06  8424   0.446E-04-0.870E-07
CGA:  51    -0.669597597920E+03   -0.26963E-03    0.62921E-06  8424   0.103E-03 0.374E-04
CGA:  52    -0.669597727442E+03   -0.12952E-03    0.11616E-04  8424   0.216E-03-0.119E-03
CGA:  53    -0.669597744084E+03   -0.16641E-04   -0.22111E-04  8424   0.158E-04 0.308E-04
CGA:  54    -0.669597809206E+03   -0.65122E-04    0.43055E-06  8424   0.324E-04 0.595E-05
CGA:  55    -0.669598050649E+03   -0.24144E-03    0.67264E-06  8424   0.386E-04 0.439E-04
CGA:  56    -0.669598156735E+03   -0.10609E-03    0.12780E-05  8424   0.627E-04-0.205E-04
CGA:  57    -0.669598167573E+03   -0.10838E-04   -0.25022E-04  8424   0.333E-03-0.111E-03
CGA:  58    -0.669596971227E+03    0.11963E-02   -0.30957E-03  8424   0.169E-01-0.231E-02
CGA:  59    -0.669598556350E+03   -0.15851E-02   -0.17869E-02  8424   0.755E-04 0.101E-02
CGA:  60    -0.669598569905E+03   -0.13555E-04   -0.11834E-04  8424   0.230E-04-0.114E-04
CGA:  61    -0.669598677806E+03   -0.10790E-03    0.33712E-06  8424   0.174E-04 0.179E-04
CGA:  62    -0.669598771773E+03   -0.93967E-04    0.30759E-06  8424   0.204E-04 0.831E-05
CGA:  63    -0.669598940211E+03   -0.16844E-03    0.51259E-06  8424   0.169E-04 0.291E-04
CGA:  64    -0.669599007590E+03   -0.67380E-04    0.42473E-06  8424   0.173E-04 0.946E-05
CGA:  65    -0.669599100690E+03   -0.93100E-04    0.30663E-06  8424   0.188E-04 0.841E-05
CGA:  66    -0.669599261276E+03   -0.16059E-03    0.46328E-06  8424   0.169E-04 0.272E-04
CGA:  67    -0.669599327340E+03   -0.66064E-04    0.43328E-06  8424   0.164E-04 0.933E-05
CGA:  68    -0.669599418556E+03   -0.91216E-04    0.28200E-06  8424   0.169E-04 0.915E-05
CGA:  69    -0.669599478846E+03   -0.60290E-04    0.48554E-06  8424   0.185E-04 0.801E-05
CGA:  70    -0.669599642288E+03   -0.16344E-03    0.42856E-06  8424   0.165E-04 0.267E-04
CGA:  71    -0.669599734113E+03   -0.91825E-04    0.28328E-06  8424   0.172E-04 0.845E-05
CGA:  72    -0.669599791896E+03   -0.57783E-04    0.52927E-06  8424   0.190E-04 0.711E-05
CGA:  73    -0.669599954034E+03   -0.16214E-03    0.41871E-06  8424   0.170E-04 0.264E-04
CGA:  74    -0.669600047216E+03   -0.93182E-04    0.29629E-06  8424   0.181E-04 0.727E-05
CGA:  75    -0.669600201327E+03   -0.15411E-03    0.41034E-06  8424   0.167E-04 0.253E-04
CGA:  76    -0.669600260049E+03   -0.58721E-04    0.48597E-06  8424   0.168E-04 0.774E-05
CGA:  77    -0.669600411978E+03   -0.15193E-03    0.37226E-06  8424   0.163E-04 0.238E-04
CGA:  78    -0.669600499522E+03   -0.87544E-04    0.29001E-06  8424   0.150E-04 0.853E-05
CGA:  79    -0.669600559583E+03   -0.60061E-04    0.37394E-06  8424   0.149E-04 0.903E-05
CGA:  80    -0.669600648314E+03   -0.88732E-04    0.23543E-06  8424   0.154E-04 0.870E-05
CGA:  81    -0.669600705080E+03   -0.56766E-04    0.42207E-06  8424   0.164E-04 0.782E-05
CGA:  82    -0.669600797283E+03   -0.92202E-04    0.27875E-06  8424   0.182E-04 0.636E-05
CGA:  83    -0.669600950974E+03   -0.15369E-03    0.38924E-06  8424   0.164E-04 0.250E-04
CGA:  84    -0.669601003651E+03   -0.52677E-04    0.53136E-06  8424   0.184E-04 0.597E-05
CGA:  85    -0.669601159702E+03   -0.15605E-03    0.38011E-06  8424   0.165E-04 0.249E-04
CGA:  86    -0.669601252383E+03   -0.92681E-04    0.27792E-06  8424   0.187E-04 0.550E-05
CGA:  87    -0.669601405334E+03   -0.15295E-03    0.38360E-06  8424   0.167E-04 0.247E-04
CGA:  88    -0.669601454644E+03   -0.49310E-04    0.60165E-06  8424   0.191E-04 0.491E-05
CGA:  89    -0.669601609464E+03   -0.15482E-03    0.36906E-06  8424   0.172E-04 0.243E-04
CGA:  90    -0.669601703046E+03   -0.93582E-04    0.30079E-06  8424   0.193E-04 0.425E-05
CGA:  91    -0.669601852243E+03   -0.14920E-03    0.36754E-06  8424   0.178E-04 0.237E-04
CGA:  92    -0.669601898773E+03   -0.46530E-04    0.74684E-06  8424   0.193E-04 0.367E-05
CGA:  93    -0.669602047334E+03   -0.14856E-03    0.34261E-06  8424   0.182E-04 0.226E-04
CGA:  94    -0.669602139517E+03   -0.92183E-04    0.34757E-06  8424   0.182E-04 0.373E-05
CGA:  95    -0.669602275852E+03   -0.13634E-03    0.33317E-06  8424   0.178E-04 0.211E-04
CGA:  96    -0.669602326484E+03   -0.50632E-04    0.67068E-06  8424   0.158E-04 0.497E-05
CGA:  97    -0.669602459495E+03   -0.13301E-03    0.28917E-06  8424   0.164E-04 0.194E-04
CGA:  98    -0.669602541364E+03   -0.81868E-04    0.31626E-06  8424   0.132E-04 0.691E-05
CGA:  99    -0.669602662677E+03   -0.12131E-03    0.27311E-06  8424   0.149E-04 0.181E-04
CGA: 100    -0.669602722880E+03   -0.60203E-04    0.36749E-06  8424   0.117E-04 0.829E-05
CGA: 101    -0.669602797445E+03   -0.74565E-04    0.17263E-06  8424   0.110E-04 0.975E-05
CGA: 102    -0.669602858796E+03   -0.61351E-04    0.18661E-06  8424   0.108E-04 0.100E-04
CGA: 103    -0.669602932357E+03   -0.73561E-04    0.14828E-06  8424   0.108E-04 0.100E-04
CGA: 104    -0.669602992963E+03   -0.60606E-04    0.18392E-06  8424   0.109E-04 0.991E-05
CGA: 105    -0.669603067883E+03   -0.74920E-04    0.14849E-06  8424   0.112E-04 0.969E-05
CGA: 106    -0.669603125408E+03   -0.57525E-04    0.20820E-06  8424   0.116E-04 0.931E-05
CGA: 107    -0.669603203882E+03   -0.78474E-04    0.15996E-06  8424   0.124E-04 0.865E-05
CGA: 108    -0.669603255588E+03   -0.51705E-04    0.29400E-06  8424   0.138E-04 0.755E-05
CGA: 109    -0.669603340601E+03   -0.85013E-04    0.20955E-06  8424   0.161E-04 0.568E-05
CGA: 110    -0.669603483417E+03   -0.14282E-03    0.34190E-06  8424   0.137E-04 0.226E-04
CGA: 111    -0.669603529532E+03   -0.46115E-04    0.42004E-06  8424   0.161E-04 0.551E-05
CGA: 112    -0.669603675358E+03   -0.14583E-03    0.32889E-06  8424   0.137E-04 0.224E-04
CGA: 113    -0.669603760712E+03   -0.85354E-04    0.20660E-06  8424   0.162E-04 0.528E-05
CGA: 114    -0.669603901998E+03   -0.14129E-03    0.33671E-06  8424   0.138E-04 0.223E-04
CGA: 115    -0.669603945206E+03   -0.43208E-04    0.46050E-06  8424   0.165E-04 0.493E-05
CGA: 116    -0.669604089876E+03   -0.14467E-03    0.32498E-06  8424   0.140E-04 0.222E-04
CGA: 117    -0.669604176512E+03   -0.86636E-04    0.21372E-06  8424   0.170E-04 0.442E-05
CGA: 118    -0.669604317285E+03   -0.14077E-03    0.33264E-06  8424   0.146E-04 0.221E-04
CGA: 119    -0.669604355923E+03   -0.38638E-04    0.60049E-06  8424   0.180E-04 0.353E-05
CGA: 120    -0.669604500024E+03   -0.14410E-03    0.32369E-06  8424   0.157E-04 0.220E-04
CGA: 121    -0.669604590859E+03   -0.90834E-04    0.25826E-06  8424   0.198E-04 0.193E-05
CGA: 122    -0.669604733570E+03   -0.14271E-03    0.32582E-06  8424   0.183E-04 0.219E-04
CGA: 123    -0.669604762068E+03   -0.28498E-04    0.15939E-05  8424   0.238E-04-0.131E-05
CGA: 124    -0.669604905507E+03   -0.14344E-03    0.31800E-06  8424   0.242E-04 0.214E-04
CGA: 125    -0.669605010250E+03   -0.10474E-03    0.55185E-06  8424   0.324E-04-0.840E-05
CGA: 126    -0.669605158294E+03   -0.14804E-03    0.28127E-06  8424   0.387E-04 0.195E-04
CGA: 127    -0.669605162942E+03   -0.46484E-05   -0.56593E-05  8424   0.103E-04 0.687E-05
   3 F= -.66960516E+03 E0= -.66960516E+03  d E =-.231743E+00  mag=     2.0000
       N       E                     dE             d eps       ncg     rms          ort
SDA:   1    -0.662053868004E+03    0.75513E+01    0.00000E+00  8424   0.240E+02 0.000E+00
CGA:   2    -0.666891236212E+03   -0.48374E+01   -0.48479E+01  8424   0.101E+02 0.249E-01
CGA:   3    -0.669017103997E+03   -0.21259E+01   -0.21244E+01  8424   0.316E+01-0.592E-02
CGA:   4    -0.669532931346E+03   -0.51583E+00   -0.51592E+00  8424   0.760E+00-0.112E-03
CGA:   5    -0.669663362325E+03   -0.13043E+00   -0.13061E+00  8424   0.159E+00 0.140E-02
CGA:   6    -0.669695587113E+03   -0.32225E-01   -0.32210E-01  8424   0.355E-01-0.243E-03
CGA:   7    -0.669703495614E+03   -0.79085E-02   -0.79044E-02  8424   0.105E-01-0.110E-03
CGA:   8    -0.669706196354E+03   -0.27007E-02   -0.26993E-02  8424   0.336E-02-0.363E-03
CGA:   9    -0.669707197066E+03   -0.10007E-02   -0.10373E-02  8424   0.161E-02-0.628E-03
CGA:  10    -0.669707648048E+03   -0.45098E-03   -0.48505E-03  8424   0.934E-03-0.319E-03
CGA:  11    -0.669703154916E+03    0.44931E-02   -0.24192E-02  8424   0.263E-01-0.394E-02
CGA:  12    -0.669707515701E+03   -0.43608E-02   -0.45718E-02  8424   0.386E-02 0.642E-03
CGA:  13    -0.669708812400E+03   -0.12967E-02   -0.11749E-02  8424   0.168E-02-0.684E-03
CGA:  14    -0.669709152345E+03   -0.33994E-03   -0.34388E-03  8424   0.581E-03 0.175E-04
CGA:  15    -0.669709376770E+03   -0.22442E-03   -0.50331E-03  8424   0.167E-02-0.698E-03
CGA:  16    -0.669709864207E+03   -0.48744E-03   -0.45116E-03  8424   0.375E-03-0.177E-03
CGA:  17    -0.669709975438E+03   -0.11123E-03   -0.79634E-04  8424   0.237E-03-0.139E-03
CGA:  18    -0.669710226996E+03   -0.25156E-03    0.39472E-04  8424   0.141E-03-0.145E-04
CGA:  19    -0.669710549169E+03   -0.32217E-03    0.17784E-04  8424   0.101E-03 0.248E-04
CGA:  20    -0.669710824654E+03   -0.27549E-03    0.17451E-04  8424   0.172E-03 0.176E-04
CGA:  21    -0.669711575532E+03   -0.75088E-03    0.14690E-04  8424   0.129E-03 0.854E-04
CGA:  22    -0.669712290804E+03   -0.71527E-03    0.14275E-04  8424   0.115E-03 0.108E-03
CGA:  23    -0.669712338964E+03   -0.48160E-04   -0.44729E-04  8424   0.168E-03-0.534E-04
CGA:  24    -0.669712671477E+03   -0.33251E-03    0.65100E-05  8424   0.196E-03-0.154E-04
CGA:  25    -0.669713185600E+03   -0.51412E-03    0.18286E-04  8424   0.370E-03-0.980E-04
CGA:  26    -0.669714090440E+03   -0.90484E-03    0.94566E-05  8424   0.747E-03-0.344E-04
CGA:  27    -0.669716256280E+03   -0.21658E-02    0.59887E-04  8424   0.940E-03-0.735E-04
CGA:  28    -0.669719580528E+03   -0.33242E-02    0.56978E-04  8424   0.127E-02-0.126E-03
CGA:  29    -0.669724153336E+03   -0.45728E-02    0.68196E-04  8424   0.111E-02-0.309E-03
CGA:  30    -0.669728116403E+03   -0.39631E-02    0.44167E-04  8424   0.157E-02-0.528E-03
CGA:  31    -0.669734487840E+03   -0.63714E-02    0.24115E-04  8424   0.127E-02-0.982E-03
CGA:  32    -0.669734823696E+03   -0.33586E-03   -0.33687E-03  8424   0.267E-03 0.457E-05
CGA:  33    -0.669734824962E+03   -0.12658E-05   -0.42112E-04  8424   0.111E-03 0.143E-03
CGA:  34    -0.669734810165E+03    0.14797E-04   -0.13014E-04  8424   0.797E-04 0.895E-04
CGA:  35    -0.669734796910E+03    0.13256E-04   -0.86958E-05  8424   0.687E-04 0.724E-04
CGA:  36    -0.669734784595E+03    0.12314E-04   -0.68686E-05  8424   0.624E-04 0.646E-04
CGA:  37    -0.669734772962E+03    0.11633E-04   -0.56676E-05  8424   0.578E-04 0.594E-04
CGA:  38    -0.669734761949E+03    0.11013E-04   -0.47971E-05  8424   0.543E-04 0.555E-04
CGA:  39    -0.669734751530E+03    0.10419E-04   -0.41404E-05  8424   0.516E-04 0.525E-04
CGA:  40    -0.669734741679E+03    0.98517E-05   -0.36304E-05  8424   0.493E-04 0.501E-04
   4 F= -.66973474E+03 E0= -.66973474E+03  d E =-.129579E+00  mag=     2.0000
       N       E                     dE             d eps       ncg     rms          ort
SDA:   1    -0.669412232002E+03    0.32252E+00    0.00000E+00  8424   0.107E+01 0.000E+00
CGA:   2    -0.669628857685E+03   -0.21663E+00   -0.21675E+00  8424   0.444E+00 0.683E-03
CGA:   3    -0.669722392568E+03   -0.93535E-01   -0.93543E-01  8424   0.148E+00 0.176E-04
CGA:   4    -0.669746421943E+03   -0.24029E-01   -0.24074E-01  8424   0.354E-01 0.292E-03
CGA:   5    -0.669752468063E+03   -0.60461E-02   -0.60938E-02  8424   0.700E-02 0.381E-03
CGA:   6    -0.669753824119E+03   -0.13561E-02   -0.13821E-02  8424   0.155E-02 0.276E-03
CGA:   7    -0.669754106047E+03   -0.28193E-03   -0.30878E-03  8424   0.423E-03 0.288E-03
CGA:   8    -0.669754154740E+03   -0.48693E-04   -0.77220E-04  8424   0.160E-03 0.227E-03
CGA:   9    -0.669754154080E+03    0.66062E-06   -0.18111E-04  8424   0.967E-04 0.117E-03
   5 F= -.66975415E+03 E0= -.66975415E+03  d E =-.194124E-01  mag=     2.0000
       N       E                     dE             d eps       ncg     rms          ort
SDA:   1    -0.669212186255E+03    0.54197E+00    0.00000E+00  8424   0.156E+01 0.000E+00
CGA:   2    -0.669568239541E+03   -0.35605E+00   -0.35610E+00  8424   0.719E+00 0.980E-03
CGA:   3    -0.669711328384E+03   -0.14309E+00   -0.14307E+00  8424   0.198E+00-0.262E-03
CGA:   4    -0.669743724320E+03   -0.32396E-01   -0.32438E-01  8424   0.490E-01 0.446E-03
CGA:   5    -0.669752064775E+03   -0.83405E-02   -0.83886E-02  8424   0.977E-02 0.618E-03
CGA:   6    -0.669753979174E+03   -0.19144E-02   -0.19355E-02  8424   0.217E-02 0.437E-03
CGA:   7    -0.669754410982E+03   -0.43181E-03   -0.44859E-03  8424   0.617E-03 0.382E-03
CGA:   8    -0.669754508413E+03   -0.97430E-04   -0.12006E-03  8424   0.234E-03 0.307E-03
CGA:   9    -0.669754519267E+03   -0.10854E-04   -0.38652E-04  8424   0.133E-03 0.222E-03
CGA:  10    -0.669754513890E+03    0.53769E-05   -0.11289E-04  8424   0.103E-03 0.115E-03
   6 F= -.66975451E+03 E0= -.66975451E+03  d E =-.359810E-03  mag=     2.0000
       N       E                     dE             d eps       ncg     rms          ort
SDA:   1    -0.669620277687E+03    0.13424E+00    0.00000E+00  8424   0.386E+00 0.000E+00
CGA:   2    -0.669710083351E+03   -0.89806E-01   -0.89798E-01  8424   0.181E+00 0.365E-03
CGA:   3    -0.669745574117E+03   -0.35491E-01   -0.35499E-01  8424   0.498E-01 0.405E-03
CGA:   4    -0.669753657789E+03   -0.80837E-02   -0.81009E-02  8424   0.121E-01 0.324E-03
CGA:   5    -0.669755689832E+03   -0.20320E-02   -0.20470E-02  8424   0.237E-02 0.342E-03
CGA:   6    -0.669756122454E+03   -0.43262E-03   -0.44142E-03  8424   0.523E-03 0.311E-03
CGA:   7    -0.669756199073E+03   -0.76619E-04   -0.90064E-04  8424   0.187E-03 0.240E-03
CGA:   8    -0.669756207783E+03   -0.87099E-05   -0.27261E-04  8424   0.109E-03 0.176E-03
   7 F= -.66975621E+03 E0= -.66975621E+03  d E =-.169389E-02  mag=     2.0000
       N       E                     dE             d eps       ncg     rms          ort
SDA:   1    -0.668431568114E+03    0.13246E+01    0.00000E+00  8424   0.344E+01 0.000E+00
CGA:   2    -0.669327773685E+03   -0.89621E+00   -0.89614E+00  8424   0.174E+01 0.341E-03
CGA:   3    -0.669654901943E+03   -0.32713E+00   -0.32714E+00  8424   0.415E+00 0.922E-03
CGA:   4    -0.669722239997E+03   -0.67338E-01   -0.67348E-01  8424   0.992E-01 0.229E-03
CGA:   5    -0.669739331378E+03   -0.17091E-01   -0.17097E-01  8424   0.208E-01 0.228E-03
CGA:   6    -0.669743499699E+03   -0.41683E-02   -0.41661E-02  8424   0.480E-02 0.367E-03
CGA:   7    -0.669744578736E+03   -0.10790E-02   -0.10726E-02  8424   0.143E-02 0.253E-03
CGA:   8    -0.669744913503E+03   -0.33477E-03   -0.32822E-03  8424   0.451E-03 0.283E-03
CGA:   9    -0.669745007737E+03   -0.94234E-04   -0.97951E-04  8424   0.191E-03 0.240E-03
CGA:  10    -0.669745033141E+03   -0.25404E-04   -0.30181E-04  8424   0.108E-03 0.127E-03
CGA:  11    -0.669745037919E+03   -0.47773E-05   -0.12464E-04  8424   0.894E-04 0.976E-04
   8 F= -.66974504E+03 E0= -.66974504E+03  d E =0.111699E-01  mag=     2.0000
       N       E                     dE             d eps       ncg     rms          ort
SDA:   1    -0.667983224584E+03    0.17618E+01    0.00000E+00  8424   0.499E+01 0.000E+00
CGA:   2    -0.669105123439E+03   -0.11219E+01   -0.11216E+01  8424   0.234E+01 0.615E-02
CGA:   3    -0.669584781579E+03   -0.47966E+00   -0.47965E+00  8424   0.662E+00 0.499E-03
CGA:   4    -0.669690957025E+03   -0.10618E+00   -0.10618E+00  8424   0.152E+00-0.235E-04
CGA:   5    -0.669716983685E+03   -0.26027E-01   -0.26027E-01  8424   0.312E-01-0.176E-04
CGA:   6    -0.669723374552E+03   -0.63909E-02   -0.63920E-02  8424   0.735E-02-0.628E-04
CGA:   7    -0.669724971315E+03   -0.15968E-02   -0.15885E-02  8424   0.201E-02 0.279E-03
CGA:   8    -0.669725438836E+03   -0.46752E-03   -0.45847E-03  8424   0.565E-03 0.292E-03
CGA:   9    -0.669725578665E+03   -0.13983E-03   -0.13589E-03  8424   0.196E-03 0.196E-03
CGA:  10    -0.669725610450E+03   -0.31786E-04   -0.38718E-04  8424   0.108E-03 0.157E-03
CGA:  11    -0.669725616433E+03   -0.59829E-05   -0.12385E-04  8424   0.744E-04 0.868E-04
   9 F= -.66972562E+03 E0= -.66972562E+03  d E =0.194215E-01  mag=     2.0000
       N       E                     dE             d eps       ncg     rms          ort
SDA:   1    -0.668999128376E+03    0.72648E+00    0.00000E+00  8424   0.201E+01 0.000E+00
CGA:   2    -0.669506376715E+03   -0.50725E+00   -0.50718E+00  8424   0.985E+00 0.609E-03
CGA:   3    -0.669691723879E+03   -0.18535E+00   -0.18535E+00  8424   0.237E+00-0.180E-03
CGA:   4    -0.669730496172E+03   -0.38772E-01   -0.38780E-01  8424   0.590E-01 0.307E-03
CGA:   5    -0.669740721968E+03   -0.10226E-01   -0.10229E-01  8424   0.120E-01 0.312E-03
CGA:   6    -0.669743109744E+03   -0.23878E-02   -0.23838E-02  8424   0.270E-02 0.269E-03
CGA:   7    -0.669743686822E+03   -0.57708E-03   -0.56964E-03  8424   0.758E-03 0.323E-03
CGA:   8    -0.669743844151E+03   -0.15733E-03   -0.15718E-03  8424   0.251E-03 0.284E-03
CGA:   9    -0.669743877269E+03   -0.33118E-04   -0.44448E-04  8424   0.130E-03 0.202E-03
CGA:  10    -0.669743881149E+03   -0.38802E-05   -0.12739E-04  8424   0.918E-04 0.106E-03
  10 F= -.66974388E+03 E0= -.66974388E+03  d E =-.182647E-01  mag=     2.0000
       N       E                     dE             d eps       ncg     rms          ort
SDA:   1    -0.669467690039E+03    0.27619E+00    0.00000E+00  8424   0.822E+00 0.000E+00
CGA:   2    -0.669647670735E+03   -0.17998E+00   -0.17995E+00  8424   0.367E+00 0.431E-03
CGA:   3    -0.669722503181E+03   -0.74832E-01   -0.74836E-01  8424   0.106E+00-0.181E-03
CGA:   4    -0.669739863226E+03   -0.17360E-01   -0.17364E-01  8424   0.258E-01 0.310E-03
CGA:   5    -0.669744270255E+03   -0.44070E-02   -0.44092E-02  8424   0.512E-02 0.395E-03
CGA:   6    -0.669745278348E+03   -0.10081E-02   -0.10038E-02  8424   0.113E-02 0.247E-03
CGA:   7    -0.669745515022E+03   -0.23667E-03   -0.23243E-03  8424   0.317E-03 0.209E-03
CGA:   8    -0.669745569805E+03   -0.54784E-04   -0.58463E-04  8424   0.121E-03 0.169E-03
CGA:   9    -0.669745577838E+03   -0.80328E-05   -0.13661E-04  8424   0.733E-04 0.887E-04
  11 F= -.66974558E+03 E0= -.66974558E+03  d E =-.169669E-02  mag=     2.0000
       N       E                     dE             d eps       ncg     rms          ort
SDA:   1    -0.669461146122E+03    0.28442E+00    0.00000E+00  8424   0.718E+00 0.000E+00
CGA:   2    -0.669650078778E+03   -0.18893E+00   -0.18891E+00  8424   0.377E+00 0.174E-03
CGA:   3    -0.669719949602E+03   -0.69871E-01   -0.69871E-01  8424   0.896E-01-0.668E-04
CGA:   4    -0.669734148385E+03   -0.14199E-01   -0.14205E-01  8424   0.207E-01 0.395E-03
CGA:   5    -0.669737707792E+03   -0.35594E-02   -0.35602E-02  8424   0.419E-02 0.409E-03
CGA:   6    -0.669738564374E+03   -0.85658E-03   -0.85120E-03  8424   0.971E-03 0.204E-03
CGA:   7    -0.669738761243E+03   -0.19687E-03   -0.19371E-03  8424   0.273E-03 0.199E-03
CGA:   8    -0.669738805318E+03   -0.44075E-04   -0.48576E-04  8424   0.119E-03 0.164E-03
CGA:   9    -0.669738813053E+03   -0.77349E-05   -0.13257E-04  8424   0.752E-04 0.891E-04
  12 F= -.66973881E+03 E0= -.66973881E+03  d E =0.676478E-02  mag=     2.0000
       N       E                     dE             d eps       ncg     rms          ort
SDA:   1    -0.658233956579E+03    0.11505E+02    0.00000E+00  8424   0.351E+02 0.000E+00
CGA:   2    -0.665412975077E+03   -0.71790E+01   -0.71709E+01  8424   0.145E+02 0.155E+00
CGA:   3    -0.668479268137E+03   -0.30663E+01   -0.30676E+01  8424   0.450E+01-0.274E-01
CGA:   4    -0.669222264758E+03   -0.74300E+00   -0.74301E+00  8424   0.112E+01 0.623E-03
CGA:   5    -0.669413669719E+03   -0.19140E+00   -0.19140E+00  8424   0.225E+00 0.180E-02
CGA:   6    -0.669459195902E+03   -0.45526E-01   -0.45575E-01  8424   0.518E-01-0.155E-02
CGA:   7    -0.669470812825E+03   -0.11617E-01   -0.11584E-01  8424   0.153E-01 0.612E-03
CGA:   8    -0.669474613172E+03   -0.38003E-02   -0.37813E-02  8424   0.452E-02 0.268E-03
CGA:   9    -0.669475987308E+03   -0.13741E-02   -0.14737E-02  8424   0.216E-02-0.702E-03
CGA:  10    -0.669476524511E+03   -0.53720E-03   -0.53764E-03  8424   0.866E-03-0.567E-05
CGA:  11    -0.669476474370E+03    0.50142E-04   -0.64992E-03  8424   0.301E-02-0.125E-02
CGA:  12    -0.669477002151E+03   -0.52778E-03   -0.54175E-03  8424   0.432E-03 0.364E-03
CGA:  13    -0.669475445163E+03    0.15570E-02   -0.84361E-03  8424   0.107E-01-0.193E-02
CGA:  14    -0.669477069932E+03   -0.16248E-02   -0.17931E-02  8424   0.176E-02 0.739E-03
CGA:  15    -0.669477641154E+03   -0.57122E-03   -0.52899E-03  8424   0.315E-03-0.411E-03
CGA:  16    -0.669477735432E+03   -0.94278E-04   -0.95400E-04  8424   0.261E-03-0.695E-04
CGA:  17    -0.669477928738E+03   -0.19331E-03    0.15311E-03  8424   0.270E-03-0.762E-04
CGA:  18    -0.669478199980E+03   -0.27124E-03    0.41757E-04  8424   0.143E-03 0.905E-04
CGA:  19    -0.669478434798E+03   -0.23482E-03    0.57721E-04  8424   0.124E-03 0.602E-04
CGA:  20    -0.669478745751E+03   -0.31095E-03    0.25113E-04  8424   0.186E-03 0.288E-04
CGA:  21    -0.669479276077E+03   -0.53033E-03    0.21244E-04  8424   0.188E-03 0.165E-03
CGA:  22    -0.669479353173E+03   -0.77096E-04   -0.82635E-04  8424   0.344E-03-0.924E-04
CGA:  23    -0.669479572023E+03   -0.21885E-03    0.52576E-04  8424   0.399E-03-0.200E-03
CGA:  24    -0.669479704031E+03   -0.13201E-03   -0.30683E-03  8424   0.832E-03-0.453E-03
CGA:  25    -0.669479958271E+03   -0.25424E-03   -0.24723E-03  8424   0.141E-03-0.681E-04
CGA:  26    -0.669480102747E+03   -0.14448E-03    0.62645E-04  8424   0.204E-03-0.592E-04
CGA:  27    -0.669480351226E+03   -0.24848E-03    0.14140E-04  8424   0.226E-03 0.614E-05
CGA:  28    -0.669480775331E+03   -0.42410E-03    0.35520E-04  8424   0.285E-03 0.547E-04
CGA:  29    -0.669481473248E+03   -0.69792E-03    0.47258E-04  8424   0.329E-03 0.551E-04
CGA:  30    -0.669482357286E+03   -0.88404E-03    0.42300E-04  8424   0.273E-03 0.150E-03
CGA:  31    -0.669483248886E+03   -0.89160E-03    0.43035E-04  8424   0.311E-03 0.144E-03
CGA:  32    -0.669483359646E+03   -0.11076E-03   -0.14862E-03  8424   0.125E-02-0.467E-03
CGA:  33    -0.669483515211E+03   -0.15556E-03   -0.16759E-03  8424   0.470E-04 0.453E-04
CGA:  34    -0.669483640948E+03   -0.12574E-03    0.40438E-05  8424   0.583E-04 0.189E-04
CGA:  35    -0.669483916855E+03   -0.27591E-03    0.47104E-05  8424   0.629E-04 0.692E-04
CGA:  36    -0.669484035162E+03   -0.11831E-03    0.85296E-05  8424   0.573E-04 0.112E-04
CGA:  37    -0.669484276612E+03   -0.24145E-03    0.36041E-05  8424   0.616E-04 0.568E-04
CGA:  38    -0.669484393545E+03   -0.11693E-03    0.82051E-05  8424   0.477E-04 0.176E-04
CGA:  39    -0.669484617990E+03   -0.22444E-03    0.31943E-05  8424   0.551E-04 0.528E-04
CGA:  40    -0.669484738931E+03   -0.12094E-03    0.58235E-05  8424   0.460E-04 0.222E-04
CGA:  41    -0.669484975834E+03   -0.23690E-03    0.33368E-05  8424   0.538E-04 0.526E-04
CGA:  42    -0.669485091931E+03   -0.11610E-03    0.58208E-05  8424   0.471E-04 0.227E-04
CGA:  43    -0.669485335363E+03   -0.24343E-03    0.35204E-05  8424   0.542E-04 0.527E-04
CGA:  44    -0.669485456624E+03   -0.12126E-03    0.55470E-05  8424   0.483E-04 0.221E-04
CGA:  45    -0.669485706695E+03   -0.25007E-03    0.35214E-05  8424   0.553E-04 0.524E-04
CGA:  46    -0.669485824315E+03   -0.11762E-03    0.61347E-05  8424   0.499E-04 0.211E-04
CGA:  47    -0.669486076399E+03   -0.25208E-03    0.35900E-05  8424   0.571E-04 0.516E-04
CGA:  48    -0.669486199153E+03   -0.12275E-03    0.62270E-05  8424   0.520E-04 0.195E-04
CGA:  49    -0.669486456692E+03   -0.25754E-03    0.35919E-05  8424   0.596E-04 0.505E-04
CGA:  50    -0.669486575457E+03   -0.11876E-03    0.73509E-05  8424   0.547E-04 0.175E-04
CGA:  51    -0.669486834442E+03   -0.25899E-03    0.36758E-05  8424   0.629E-04 0.488E-04
CGA:  52    -0.669486958555E+03   -0.12411E-03    0.78791E-05  8424   0.579E-04 0.149E-04
CGA:  53    -0.669487222315E+03   -0.26376E-03    0.37006E-05  8424   0.671E-04 0.467E-04
CGA:  54    -0.669487341773E+03   -0.11946E-03    0.99988E-05  8424   0.619E-04 0.118E-04
CGA:  55    -0.669487606369E+03   -0.26460E-03    0.38216E-05  8424   0.721E-04 0.439E-04
CGA:  56    -0.669487731674E+03   -0.12530E-03    0.11244E-04  8424   0.666E-04 0.801E-05
CGA:  57    -0.669488000571E+03   -0.26890E-03    0.38820E-05  8424   0.782E-04 0.405E-04
CGA:  58    -0.669488120349E+03   -0.11978E-03    0.15511E-04  8424   0.722E-04 0.353E-05
CGA:  59    -0.669488389408E+03   -0.26906E-03    0.40600E-05  8424   0.854E-04 0.365E-04
CGA:  60    -0.669488515805E+03   -0.12640E-03    0.18164E-04  8424   0.786E-04-0.176E-05
CGA:  61    -0.669488788834E+03   -0.27303E-03    0.41687E-05  8424   0.938E-04 0.318E-04
CGA:  62    -0.669489248085E+03   -0.45925E-03    0.72832E-05  8424   0.682E-04 0.112E-03
CGA:  63    -0.669489353398E+03   -0.10531E-03    0.13281E-04  8424   0.120E-03-0.110E-04
CGA:  64    -0.669489730556E+03   -0.37716E-03    0.50660E-05  8424   0.121E-03 0.603E-04
CGA:  65    -0.669489905930E+03   -0.17537E-03    0.27020E-04  8424   0.177E-03-0.480E-04
CGA:  66    -0.669490198585E+03   -0.29265E-03    0.81285E-05  8424   0.207E-03-0.226E-04
CGA:  67    -0.669490715285E+03   -0.51670E-03    0.13012E-04  8424   0.321E-03 0.782E-04
CGA:  68    -0.669491768139E+03   -0.10529E-02    0.41416E-04  8424   0.207E-03 0.570E-04
CGA:  69    -0.669492572117E+03   -0.80398E-03    0.14552E-04  8424   0.977E-04 0.171E-03
CGA:  70    -0.669492731605E+03   -0.15949E-03    0.17102E-04  8424   0.385E-04 0.179E-04
CGA:  71    -0.669492928689E+03   -0.19708E-03    0.19233E-05  8424   0.436E-04 0.401E-04
CGA:  72    -0.669493071758E+03   -0.14307E-03    0.26051E-05  8424   0.335E-04 0.306E-04
CGA:  73    -0.669493219714E+03   -0.14796E-03    0.13809E-05  8424   0.347E-04 0.314E-04
CGA:  74    -0.669493351134E+03   -0.13142E-03    0.17235E-05  8424   0.407E-04 0.284E-04
CGA:  75    -0.669493512263E+03   -0.16113E-03    0.19194E-05  8424   0.678E-04 0.156E-04
CGA:  76    -0.669493890432E+03   -0.37817E-03    0.43248E-05  8424   0.373E-04 0.885E-04
CGA:  77    -0.669494015982E+03   -0.12555E-03    0.21585E-05  8424   0.532E-04 0.221E-04
CGA:  78    -0.669494183133E+03   -0.16715E-03    0.33742E-05  8424   0.126E-03-0.119E-04
CGA:  79    -0.669494663535E+03   -0.48040E-03    0.35326E-05  8424   0.205E-03 0.918E-04
CGA:  80    -0.669494706171E+03   -0.42636E-04   -0.35446E-04  8424   0.582E-04-0.337E-04
CGA:  81    -0.669494901389E+03   -0.19522E-03    0.21164E-05  8424   0.370E-04 0.396E-04
CGA:  82    -0.669495035827E+03   -0.13444E-03    0.18207E-05  8424   0.479E-04 0.225E-04
CGA:  83    -0.669495177340E+03   -0.14151E-03    0.30892E-05  8424   0.850E-04 0.218E-05
CGA:  84    -0.669495567573E+03   -0.39023E-03    0.34597E-05  8424   0.791E-04 0.868E-04
CGA:  85    -0.669495682526E+03   -0.11495E-03    0.16024E-04  8424   0.164E-03-0.483E-04
CGA:  86    -0.669495806685E+03   -0.12416E-03    0.97108E-02  8424   0.409E-03-0.193E-03
CGA:  87    -0.669495909485E+03   -0.10280E-03   -0.80592E-04  8424   0.972E-04-0.124E-03
CGA:  88    -0.669496086682E+03   -0.17720E-03    0.48792E-05  8424   0.418E-04 0.298E-04
CGA:  89    -0.669496299888E+03   -0.21321E-03    0.23283E-05  8424   0.474E-04 0.379E-04
CGA:  90    -0.669496427373E+03   -0.12749E-03    0.32759E-05  8424   0.827E-04 0.164E-05
CGA:  91    -0.669496795014E+03   -0.36764E-03    0.32496E-05  8424   0.789E-04 0.827E-04
CGA:  92    -0.669496940159E+03   -0.14515E-03    0.96473E-05  8424   0.156E-03-0.474E-04
CGA:  93    -0.669496853434E+03    0.86725E-04   -0.11813E-03  8424   0.250E-02-0.525E-03
CGA:  94    -0.669497264156E+03   -0.41072E-03   -0.37174E-03  8424   0.681E-04-0.161E-03
CGA:  95    -0.669497439075E+03   -0.17492E-03    0.44993E-05  8424   0.138E-03-0.247E-04
CGA:  96    -0.669497866999E+03   -0.42792E-03    0.30287E-05  8424   0.175E-03 0.836E-04
CGA:  97    -0.669497904869E+03   -0.37870E-04   -0.30914E-04  8424   0.620E-04-0.351E-04
CGA:  98    -0.669498095593E+03   -0.19072E-03    0.21270E-05  8424   0.358E-04 0.377E-04
CGA:  99    -0.669498243989E+03   -0.14840E-03    0.14024E-05  8424   0.384E-04 0.218E-04
CGA: 100    -0.669498353939E+03   -0.10995E-03    0.24075E-05  8424   0.433E-04 0.180E-04
CGA: 101    -0.669498652031E+03   -0.29809E-03    0.21485E-05  8424   0.392E-04 0.612E-04
CGA: 102    -0.669498792810E+03   -0.14078E-03    0.18268E-05  8424   0.377E-04 0.192E-04
CGA: 103    -0.669499052622E+03   -0.25981E-03    0.19246E-05  8424   0.390E-04 0.552E-04
CGA: 104    -0.669499183317E+03   -0.13069E-03    0.19826E-05  8424   0.342E-04 0.206E-04
CGA: 105    -0.669499320801E+03   -0.13748E-03    0.13894E-05  8424   0.314E-04 0.240E-04
CGA: 106    -0.669499447678E+03   -0.12688E-03    0.12616E-05  8424   0.300E-04 0.258E-04
CGA: 107    -0.669499588272E+03   -0.14059E-03    0.10142E-05  8424   0.299E-04 0.263E-04
CGA: 108    -0.669499709291E+03   -0.12102E-03    0.12023E-05  8424   0.313E-04 0.255E-04
CGA: 109    -0.669499857853E+03   -0.14856E-03    0.10364E-05  8424   0.362E-04 0.227E-04
CGA: 110    -0.669499962254E+03   -0.10440E-03    0.22451E-05  8424   0.530E-04 0.134E-04
CGA: 111    -0.669500296041E+03   -0.33379E-03    0.25008E-05  8424   0.351E-04 0.694E-04
CGA: 112    -0.669500454930E+03   -0.15889E-03    0.12355E-05  8424   0.492E-04 0.146E-04
CGA: 113    -0.669500765900E+03   -0.31097E-03    0.24873E-05  8424   0.342E-04 0.654E-04
CGA: 114    -0.669500871509E+03   -0.10561E-03    0.19299E-05  8424   0.390E-04 0.176E-04
CGA: 115    -0.669501038984E+03   -0.16747E-03    0.14597E-05  8424   0.519E-04 0.948E-05
CGA: 116    -0.669501335431E+03   -0.29645E-03    0.22262E-05  8424   0.441E-04 0.607E-04
CGA: 117    -0.669501428860E+03   -0.93429E-04    0.42464E-05  8424   0.492E-04 0.604E-05
CGA: 118    -0.669501714097E+03   -0.28524E-03    0.17103E-05  8424   0.478E-04 0.529E-04
CGA: 119    -0.669501867440E+03   -0.15334E-03    0.25784E-05  8424   0.428E-04 0.635E-05
CGA: 120    -0.669502102620E+03   -0.23518E-03    0.15683E-05  8424   0.438E-04 0.463E-04
CGA: 121    -0.669502222127E+03   -0.11951E-03    0.29214E-05  8424   0.340E-04 0.124E-04
CGA: 122    -0.669502451366E+03   -0.22924E-03    0.12845E-05  8424   0.376E-04 0.424E-04
CGA: 123    -0.669502583468E+03   -0.13210E-03    0.18015E-05  8424   0.289E-04 0.174E-04
CGA: 124    -0.669502804933E+03   -0.22146E-03    0.12472E-05  8424   0.339E-04 0.409E-04
CGA: 125    -0.669502931217E+03   -0.12628E-03    0.15116E-05  8424   0.266E-04 0.194E-04
CGA: 126    -0.669503058404E+03   -0.12719E-03    0.87898E-06  8424   0.247E-04 0.228E-04
CGA: 127    -0.669503181802E+03   -0.12340E-03    0.77273E-06  8424   0.241E-04 0.235E-04
CGA: 128    -0.669503309125E+03   -0.12732E-03    0.70838E-06  8424   0.239E-04 0.236E-04
CGA: 129    -0.669503431624E+03   -0.12250E-03    0.72527E-06  8424   0.238E-04 0.236E-04
CGA: 130    -0.669503559686E+03   -0.12806E-03    0.67983E-06  8424   0.237E-04 0.235E-04
CGA: 131    -0.669503680234E+03   -0.12055E-03    0.72296E-06  8424   0.236E-04 0.233E-04
CGA: 132    -0.669503810938E+03   -0.13070E-03    0.65634E-06  8424   0.238E-04 0.230E-04
CGA: 133    -0.669503925507E+03   -0.11457E-03    0.77609E-06  8424   0.245E-04 0.223E-04
CGA: 134    -0.669504065238E+03   -0.13973E-03    0.65642E-06  8424   0.269E-04 0.207E-04
CGA: 135    -0.669504161204E+03   -0.95966E-04    0.12623E-05  8424   0.344E-04 0.162E-04
CGA: 136    -0.669504326763E+03   -0.16556E-03    0.11216E-05  8424   0.577E-04 0.267E-05
CGA: 137    -0.669504658244E+03   -0.33148E-03    0.18063E-05  8424   0.504E-04 0.611E-04
CGA: 138    -0.669504698364E+03   -0.40121E-04    0.10367E-03  8424   0.106E-03-0.263E-04
CGA: 139    -0.669504923581E+03   -0.22522E-03    0.10131E-04  8424   0.278E-03-0.124E-03
CGA: 140    -0.669504929742E+03   -0.61617E-05   -0.28035E-04  8424   0.365E-04 0.827E-04
CGA: 141    -0.669504965795E+03   -0.36052E-04    0.10102E-03  8424   0.163E-03-0.455E-04
CGA: 142    -0.669505204359E+03   -0.23856E-03    0.26569E-04  8424   0.418E-03-0.214E-03
CGA: 143    -0.669505215084E+03   -0.10725E-04   -0.41105E-04  8424   0.461E-04 0.120E-03
CGA: 144    -0.669505232703E+03   -0.17619E-04   -0.14219E-04  8424   0.877E-04-0.343E-04
CGA: 145    -0.669505428170E+03   -0.19547E-03    0.62870E-05  8424   0.187E-03-0.830E-04
CGA: 146    -0.669505436357E+03   -0.81863E-05   -0.19754E-04  8424   0.266E-04 0.506E-04
  13 F= -.66950544E+03 E0= -.66950544E+03  d E =0.233377E+00  mag=     2.0000
       N       E                     dE             d eps       ncg     rms          ort
SDA:   1    -0.663628404119E+03    0.58770E+01    0.00000E+00  8424   0.196E+02 0.000E+00
CGA:   2    -0.667519747839E+03   -0.38913E+01   -0.39028E+01  8424   0.783E+01 0.432E-02
CGA:   3    -0.669190024611E+03   -0.16703E+01   -0.16688E+01  8424   0.251E+01-0.803E-03
CGA:   4    -0.669610036738E+03   -0.42001E+00   -0.42017E+00  8424   0.632E+00 0.276E-04
CGA:   5    -0.669718149494E+03   -0.10811E+00   -0.10825E+00  8424   0.128E+00 0.653E-03
CGA:   6    -0.669743621639E+03   -0.25472E-01   -0.25448E-01  8424   0.287E-01-0.247E-03
CGA:   7    -0.669750036792E+03   -0.64152E-02   -0.64408E-02  8424   0.840E-02 0.373E-03
CGA:   8    -0.669752066148E+03   -0.20294E-02   -0.20431E-02  8424   0.237E-02 0.276E-03
CGA:   9    -0.669752698144E+03   -0.63200E-03   -0.63564E-03  8424   0.765E-03 0.134E-03
CGA:  10    -0.669752874266E+03   -0.17612E-03   -0.18862E-03  8424   0.284E-03 0.240E-03
CGA:  11    -0.669752931849E+03   -0.57583E-04   -0.72862E-04  8424   0.126E-03 0.174E-03
CGA:  12    -0.669752941253E+03   -0.94040E-05   -0.19991E-04  8424   0.745E-04 0.879E-04
  14 F= -.66975294E+03 E0= -.66975294E+03  d E =-.247505E+00  mag=     2.0000
       N       E                     dE             d eps       ncg     rms          ort
SDA:   1    -0.669549200519E+03    0.20373E+00    0.00000E+00  8424   0.672E+00 0.000E+00
CGA:   2    -0.669684191734E+03   -0.13499E+00   -0.13504E+00  8424   0.276E+00 0.615E-03
CGA:   3    -0.669742795222E+03   -0.58603E-01   -0.58608E-01  8424   0.901E-01 0.273E-04
CGA:   4    -0.669757656585E+03   -0.14861E-01   -0.14880E-01  8424   0.221E-01 0.182E-03
CGA:   5    -0.669761381453E+03   -0.37249E-02   -0.37436E-02  8424   0.432E-02 0.218E-03
CGA:   6    -0.669762236510E+03   -0.85506E-03   -0.86199E-03  8424   0.974E-03 0.132E-03
CGA:   7    -0.669762426133E+03   -0.18962E-03   -0.19780E-03  8424   0.272E-03 0.162E-03
CGA:   8    -0.669762466473E+03   -0.40340E-04   -0.51575E-04  8424   0.102E-03 0.137E-03
CGA:   9    -0.669762470487E+03   -0.40134E-05   -0.12595E-04  8424   0.610E-04 0.731E-04
  15 F= -.66976247E+03 E0= -.66976247E+03  d E =-.952923E-02  mag=     2.0000
       N       E                     dE             d eps       ncg     rms          ort
SDA:   1    -0.669468177906E+03    0.29429E+00    0.00000E+00  8424   0.891E+00 0.000E+00
CGA:   2    -0.669654472097E+03   -0.18629E+00   -0.18632E+00  8424   0.385E+00 0.908E-03
CGA:   3    -0.669734996783E+03   -0.80525E-01   -0.80523E-01  8424   0.119E+00-0.178E-03
CGA:   4    -0.669754415482E+03   -0.19419E-01   -0.19439E-01  8424   0.287E-01 0.303E-03
CGA:   5    -0.669759270742E+03   -0.48553E-02   -0.48759E-02  8424   0.572E-02 0.386E-03
CGA:   6    -0.669760413065E+03   -0.11423E-02   -0.11464E-02  8424   0.127E-02 0.183E-03
CGA:   7    -0.669760662452E+03   -0.24939E-03   -0.25490E-03  8424   0.346E-03 0.220E-03
CGA:   8    -0.669760715445E+03   -0.52993E-04   -0.63775E-04  8424   0.129E-03 0.179E-03
CGA:   9    -0.669760721950E+03   -0.65048E-05   -0.15379E-04  8424   0.762E-04 0.926E-04
  16 F= -.66976072E+03 E0= -.66976072E+03  d E =0.174854E-02  mag=     2.0000
       N       E                     dE             d eps       ncg     rms          ort
SDA:   1    -0.669605156698E+03    0.15556E+00    0.00000E+00  8424   0.410E+00 0.000E+00
CGA:   2    -0.669706219152E+03   -0.10106E+00   -0.10104E+00  8424   0.203E+00 0.442E-03
CGA:   3    -0.669745641524E+03   -0.39422E-01   -0.39421E-01  8424   0.519E-01-0.133E-03
CGA:   4    -0.669753936231E+03   -0.82947E-02   -0.83147E-02  8424   0.121E-01 0.440E-03
CGA:   5    -0.669755975198E+03   -0.20390E-02   -0.20544E-02  8424   0.240E-02 0.439E-03
CGA:   6    -0.669756452277E+03   -0.47708E-03   -0.47899E-03  8424   0.555E-03 0.221E-03
CGA:   7    -0.669756542459E+03   -0.90183E-04   -0.98121E-04  8424   0.172E-03 0.206E-03
CGA:   8    -0.669756554422E+03   -0.11962E-04   -0.25349E-04  8424   0.940E-04 0.146E-03
CGA:   9    -0.669756553515E+03    0.90649E-06   -0.78072E-05  8424   0.690E-04 0.785E-04
  17 F= -.66975655E+03 E0= -.66975655E+03  d E =0.416843E-02  mag=     2.0000
       N       E                     dE             d eps       ncg     rms          ort
SDA:   1    -0.658767963236E+03    0.10989E+02    0.00000E+00  8424   0.330E+02 0.000E+00
CGA:   2    -0.665642676173E+03   -0.68747E+01   -0.68703E+01  8424   0.142E+02 0.114E+00
CGA:   3    -0.668608599544E+03   -0.29659E+01   -0.29666E+01  8424   0.433E+01-0.218E-01
CGA:   4    -0.669315385188E+03   -0.70679E+00   -0.70681E+00  8424   0.105E+01-0.727E-03
CGA:   5    -0.669494597883E+03   -0.17921E+00   -0.17924E+00  8424   0.212E+00 0.181E-02
CGA:   6    -0.669537913236E+03   -0.43315E-01   -0.43338E-01  8424   0.489E-01-0.112E-02
CGA:   7    -0.669548795225E+03   -0.10882E-01   -0.10874E-01  8424   0.142E-01 0.187E-03
CGA:   8    -0.669552397657E+03   -0.36024E-02   -0.36264E-02  8424   0.447E-02-0.357E-03
CGA:   9    -0.669553715575E+03   -0.13179E-02   -0.14954E-02  8424   0.256E-02-0.116E-02
CGA:  10    -0.669554310731E+03   -0.59516E-03   -0.71485E-03  8424   0.153E-02-0.667E-03
CGA:  11    -0.669550849769E+03    0.34610E-02   -0.18757E-02  8424   0.216E-01-0.453E-02
CGA:  12    -0.669554506269E+03   -0.36565E-02   -0.38421E-02  8424   0.323E-02 0.926E-03
CGA:  13    -0.669555687079E+03   -0.11808E-02   -0.11550E-02  8424   0.212E-02-0.111E-02
CGA:  14    -0.669555971439E+03   -0.28436E-03   -0.29889E-03  8424   0.837E-03 0.955E-04
CGA:  15    -0.669556262901E+03   -0.29146E-03   -0.28827E-03  8424   0.651E-03-0.116E-03
CGA:  16    -0.669544345401E+03    0.11918E-01   -0.65242E-02  8424   0.845E-01-0.686E-02
CGA:  17    -0.669554868947E+03   -0.10524E-01   -0.11472E-01  8424   0.774E-02 0.212E-02
CGA:  18    -0.669557679439E+03   -0.28105E-02   -0.27006E-02  8424   0.127E-02-0.390E-03
CGA:  19    -0.669558404735E+03   -0.72530E-03   -0.71770E-03  8424   0.246E-02-0.618E-03
CGA:  20    -0.669558644272E+03   -0.23954E-03   -0.21036E-03  8424   0.125E-02-0.680E-04
CGA:  21    -0.669558825798E+03   -0.18153E-03   -0.18571E-03  8424   0.637E-03 0.798E-05
CGA:  22    -0.669559125275E+03   -0.29948E-03   -0.20465E-03  8424   0.558E-03-0.388E-03
CGA:  23    -0.669559411607E+03   -0.28633E-03   -0.22896E-03  8424   0.611E-03-0.403E-03
CGA:  24    -0.669559473354E+03   -0.61747E-04   -0.97729E-04  8424   0.694E-04 0.931E-04
CGA:  25    -0.669559660581E+03   -0.18723E-03    0.17217E-04  8424   0.138E-03-0.214E-04
CGA:  26    -0.669560166672E+03   -0.50609E-03    0.62657E-05  8424   0.293E-03-0.517E-05
CGA:  27    -0.669561289745E+03   -0.11231E-02    0.26620E-04  8424   0.389E-03-0.130E-03
[...]
CGA:   9    -0.669770341021E+03   -0.43855E-04   -0.41167E-04  8424   0.595E-04-0.202E-04
CGA:  10    -0.669770359469E+03   -0.18448E-04   -0.17778E-04  8424   0.329E-04-0.732E-05
CGA:  11    -0.669770385515E+03   -0.26045E-04    0.39311E-03  8424   0.268E-04-0.111E-04
CGA:  12    -0.669770372906E+03    0.12608E-04   -0.21581E-04  8424   0.214E-03-0.451E-04
CGA:  13    -0.669770449517E+03   -0.76611E-04   -0.59896E-04  8424   0.111E-03-0.820E-04
CGA:  14    -0.669770451434E+03   -0.19165E-05   -0.10198E-04  8424   0.396E-04 0.255E-04
  40 F= -.66977045E+03 E0= -.66977045E+03  d E =-.181551E-02  mag=     2.0000
       N       E                     dE             d eps       ncg     rms          ort
SDA:   1    -0.669161257298E+03    0.60919E+00    0.00000E+00  8424   0.164E+01 0.000E+00
CGA:   2    -0.669554905205E+03   -0.39365E+00   -0.39368E+00  8424   0.804E+00-0.137E-04
CGA:   3    -0.669712006458E+03   -0.15710E+00   -0.15707E+00  8424   0.211E+00-0.154E-03
CGA:   4    -0.669745781350E+03   -0.33775E-01   -0.33825E-01  8424   0.496E-01 0.207E-03
CGA:   5    -0.669754545880E+03   -0.87645E-02   -0.87957E-02  8424   0.105E-01 0.131E-03
CGA:   6    -0.669756699886E+03   -0.21540E-02   -0.21456E-02  8424   0.258E-02-0.461E-04
CGA:   7    -0.669757239794E+03   -0.53991E-03   -0.55311E-03  8424   0.731E-03 0.781E-04
CGA:   8    -0.669757397406E+03   -0.15761E-03   -0.17202E-03  8424   0.216E-03 0.977E-04
CGA:   9    -0.669757451188E+03   -0.53782E-04   -0.59882E-04  8424   0.820E-04 0.492E-04
CGA:  10    -0.669757461990E+03   -0.10802E-04   -0.19338E-04  8424   0.416E-04 0.500E-04
CGA:  11    -0.669757464354E+03   -0.23640E-05   -0.73262E-05  8424   0.239E-04 0.279E-04
  41 F= -.66975746E+03 E0= -.66975746E+03  d E =0.129871E-01  mag=     2.0000
       N       E                     dE             d eps       ncg     rms          ort
SDA:   1    -0.666176518410E+03    0.35809E+01    0.00000E+00  8424   0.111E+02 0.000E+00
CGA:   2    -0.668453591744E+03   -0.22771E+01   -0.22805E+01  8424   0.456E+01 0.351E-02
CGA:   3    -0.669417434793E+03   -0.96384E+00   -0.96315E+00  8424   0.143E+01-0.192E-02
CGA:   4    -0.669656187344E+03   -0.23875E+00   -0.23881E+00  8424   0.349E+00-0.125E-03
CGA:   5    -0.669716377150E+03   -0.60190E-01   -0.60285E-01  8424   0.749E-01 0.548E-03
CGA:   6    -0.669731308910E+03   -0.14932E-01   -0.14916E-01  8424   0.162E-01-0.150E-03
CGA:   7    -0.669734987365E+03   -0.36785E-02   -0.36858E-02  8424   0.477E-02 0.957E-04
CGA:   8    -0.669736183196E+03   -0.11958E-02   -0.11924E-02  8424   0.148E-02-0.698E-04
CGA:   9    -0.669736606744E+03   -0.42355E-03   -0.42285E-03  8424   0.552E-03-0.134E-03
CGA:  10    -0.669736777646E+03   -0.17090E-03   -0.17378E-03  8424   0.276E-03-0.577E-04
CGA:  11    -0.669736818184E+03   -0.40539E-04   -0.17878E-03  8424   0.828E-03-0.326E-03
CGA:  12    -0.669736951959E+03   -0.13377E-03   -0.14551E-03  8424   0.123E-03 0.814E-04
CGA:  13    -0.669737039474E+03   -0.87515E-04    0.54288E-03  8424   0.628E-04 0.117E-04
CGA:  14    -0.669737083984E+03   -0.44510E-04    0.30088E-03  8424   0.460E-04 0.191E-04
CGA:  15    -0.669737153562E+03   -0.69578E-04    0.10933E-04  8424   0.342E-04 0.350E-04
CGA:  16    -0.669737194762E+03   -0.41200E-04    0.57436E-05  8424   0.232E-04 0.160E-04
CGA:  17    -0.669737238250E+03   -0.43489E-04    0.51206E-05  8424   0.217E-04 0.247E-04
CGA:  18    -0.669737274925E+03   -0.36675E-04    0.19768E-05  8424   0.185E-04 0.152E-04
CGA:  19    -0.669737296666E+03   -0.21741E-04    0.32708E-05  8424   0.199E-04 0.141E-04
CGA:  20    -0.669737338732E+03   -0.42066E-04    0.13054E-05  8424   0.251E-04 0.105E-04
CGA:  21    -0.669737346780E+03   -0.80474E-05   -0.80424E-05  8424   0.421E-04 0.445E-06
  42 F= -.66973735E+03 E0= -.66973735E+03  d E =0.201176E-01  mag=     2.0000
       N       E                     dE             d eps       ncg     rms          ort
SDA:   1    -0.668980738160E+03    0.75660E+00    0.00000E+00  8424   0.251E+01 0.000E+00
CGA:   2    -0.669488590026E+03   -0.50785E+00   -0.50826E+00  8424   0.101E+01 0.194E-02
CGA:   3    -0.669706342646E+03   -0.21775E+00   -0.21770E+00  8424   0.332E+00-0.505E-03
CGA:   4    -0.669761722345E+03   -0.55380E-01   -0.55389E-01  8424   0.807E-01-0.108E-04
CGA:   5    -0.669775531885E+03   -0.13810E-01   -0.13820E-01  8424   0.167E-01 0.683E-04
CGA:   6    -0.669778897905E+03   -0.33660E-02   -0.33527E-02  8424   0.370E-02-0.152E-03
CGA:   7    -0.669779705098E+03   -0.80719E-03   -0.81339E-03  8424   0.104E-02 0.972E-04
CGA:   8    -0.669779945735E+03   -0.24064E-03   -0.24432E-03  8424   0.283E-03 0.697E-04
CGA:   9    -0.669780028448E+03   -0.82713E-04   -0.82750E-04  8424   0.982E-04 0.654E-05
CGA:  10    -0.669780052426E+03   -0.23978E-04   -0.24865E-04  8424   0.396E-04 0.278E-04
CGA:  11    -0.669780066776E+03   -0.14350E-04   -0.14296E-04  8424   0.210E-04 0.143E-04
CGA:  12    -0.669780074192E+03   -0.74163E-05   -0.75765E-05  8424   0.143E-04 0.129E-04
  43 F= -.66978007E+03 E0= -.66978007E+03  d E =-.427274E-01  mag=     2.0000
       N       E                     dE             d eps       ncg     rms          ort
SDA:   1    -0.669454070605E+03    0.32600E+00    0.00000E+00  8424   0.101E+01 0.000E+00
CGA:   2    -0.669658189308E+03   -0.20412E+00   -0.20419E+00  8424   0.409E+00 0.766E-03
CGA:   3    -0.669745280354E+03   -0.87091E-01   -0.87078E-01  8424   0.134E+00-0.272E-03
CGA:   4    -0.669767340890E+03   -0.22061E-01   -0.22069E-01  8424   0.322E-01 0.667E-04
CGA:   5    -0.669772910126E+03   -0.55692E-02   -0.55784E-02  8424   0.674E-02 0.992E-04
CGA:   6    -0.669774277017E+03   -0.13669E-02   -0.13627E-02  8424   0.152E-02-0.776E-04
CGA:   7    -0.669774602619E+03   -0.32560E-03   -0.32741E-03  8424   0.423E-03 0.509E-04
CGA:   8    -0.669774695252E+03   -0.92633E-04   -0.94668E-04  8424   0.112E-03 0.573E-04
CGA:   9    -0.669774728472E+03   -0.33219E-04   -0.33067E-04  8424   0.407E-04 0.144E-04
CGA:  10    -0.669774736559E+03   -0.80878E-05   -0.91728E-05  8424   0.199E-04 0.210E-04
  44 F= -.66977474E+03 E0= -.66977474E+03  d E =0.533763E-02  mag=     2.0000
       N       E                     dE             d eps       ncg     rms          ort
SDA:   1    -0.669431195356E+03    0.34353E+00    0.00000E+00  8424   0.908E+00 0.000E+00
CGA:   2    -0.669638011981E+03   -0.20682E+00   -0.20683E+00  8424   0.425E+00 0.507E-03
CGA:   3    -0.669724636476E+03   -0.86624E-01   -0.86605E-01  8424   0.121E+00-0.498E-03
CGA:   4    -0.669744036514E+03   -0.19400E-01   -0.19412E-01  8424   0.279E-01 0.122E-03
CGA:   5    -0.669748836533E+03   -0.48000E-02   -0.48119E-02  8424   0.581E-02 0.173E-03
CGA:   6    -0.669750030727E+03   -0.11942E-02   -0.11936E-02  8424   0.141E-02-0.188E-04
CGA:   7    -0.669750321604E+03   -0.29088E-03   -0.29375E-03  8424   0.373E-03 0.112E-03
CGA:   8    -0.669750392001E+03   -0.70397E-04   -0.75532E-04  8424   0.108E-03 0.113E-03
CGA:   9    -0.669750409816E+03   -0.17815E-04   -0.22522E-04  8424   0.480E-04 0.662E-04
CGA:  10    -0.669750412385E+03   -0.25690E-05   -0.60932E-05  8424   0.300E-04 0.351E-04
  45 F= -.66975041E+03 E0= -.66975041E+03  d E =0.243242E-01  mag=     2.0000
       N       E                     dE             d eps       ncg     rms          ort
SDA:   1    -0.665099691491E+03    0.46507E+01    0.00000E+00  8424   0.144E+02 0.000E+00
CGA:   2    -0.668019129722E+03   -0.29194E+01   -0.29200E+01  8424   0.590E+01 0.243E-01
CGA:   3    -0.669282495142E+03   -0.12634E+01   -0.12634E+01  8424   0.192E+01-0.702E-02
CGA:   4    -0.669598181647E+03   -0.31569E+00   -0.31569E+00  8424   0.455E+00-0.577E-03
CGA:   5    -0.669676905014E+03   -0.78723E-01   -0.78762E-01  8424   0.954E-01 0.838E-03
CGA:   6    -0.669695955864E+03   -0.19051E-01   -0.19051E-01  8424   0.210E-01-0.236E-04
CGA:   7    -0.669700663532E+03   -0.47077E-02   -0.47029E-02  8424   0.606E-02 0.334E-03
CGA:   8    -0.669702167350E+03   -0.15038E-02   -0.15023E-02  8424   0.179E-02 0.452E-04
CGA:   9    -0.669702656708E+03   -0.48936E-03   -0.49033E-03  8424   0.591E-03-0.167E-04
CGA:  10    -0.669702818189E+03   -0.16148E-03   -0.15647E-03  8424   0.218E-03 0.954E-04
CGA:  11    -0.669702892765E+03   -0.74575E-04   -0.71195E-04  8424   0.879E-04 0.530E-04
CGA:  12    -0.669702912896E+03   -0.20132E-04   -0.21538E-04  8424   0.458E-04 0.582E-04
CGA:  13    -0.669702924230E+03   -0.11334E-04   -0.10828E-04  8424   0.284E-04 0.299E-04
CGA:  14    -0.669702930729E+03   -0.64988E-05   -0.63864E-05  8424   0.249E-04 0.257E-04
  46 F= -.66970293E+03 E0= -.66970293E+03  d E =0.474817E-01  mag=     2.0000
       N       E                     dE             d eps       ncg     rms          ort
SDA:   1    -0.668321517157E+03    0.13814E+01    0.00000E+00  8424   0.457E+01 0.000E+00
CGA:   2    -0.669238404016E+03   -0.91689E+00   -0.91707E+00  8424   0.181E+01 0.637E-02
CGA:   3    -0.669628855614E+03   -0.39045E+00   -0.39045E+00  8424   0.601E+00-0.138E-02
CGA:   4    -0.669729374237E+03   -0.10052E+00   -0.10053E+00  8424   0.147E+00 0.818E-04
CGA:   5    -0.669754464845E+03   -0.25091E-01   -0.25105E-01  8424   0.303E-01 0.285E-03
CGA:   6    -0.669760507292E+03   -0.60424E-02   -0.60405E-02  8424   0.665E-02-0.141E-03
CGA:   7    -0.669761949676E+03   -0.14424E-02   -0.14409E-02  8424   0.182E-02 0.306E-03
CGA:   8    -0.669762366253E+03   -0.41658E-03   -0.41544E-03  8424   0.476E-03 0.230E-03
CGA:   9    -0.669762480820E+03   -0.11457E-03   -0.11457E-03  8424   0.140E-03 0.134E-03
CGA:  10    -0.669762497921E+03   -0.17101E-04   -0.25031E-04  8424   0.720E-04 0.107E-03
CGA:  11    -0.669762498934E+03   -0.10127E-05   -0.73311E-05  8424   0.501E-04 0.585E-04
  47 F= -.66976250E+03 E0= -.66976250E+03  d E =-.595682E-01  mag=     2.0000
       N       E                     dE             d eps       ncg     rms          ort
SDA:   1    -0.669196378927E+03    0.56612E+00    0.00000E+00  8424   0.159E+01 0.000E+00
CGA:   2    -0.669554397780E+03   -0.35802E+00   -0.35796E+00  8424   0.735E+00 0.197E-02
CGA:   3    -0.669705512861E+03   -0.15112E+00   -0.15112E+00  8424   0.211E+00-0.404E-03
CGA:   4    -0.669739599714E+03   -0.34087E-01   -0.34083E-01  8424   0.485E-01-0.126E-03
CGA:   5    -0.669747925612E+03   -0.83259E-02   -0.83298E-02  8424   0.101E-01 0.141E-03
CGA:   6    -0.669749928960E+03   -0.20033E-02   -0.20030E-02  8424   0.227E-02 0.211E-03
CGA:   7    -0.669750403681E+03   -0.47472E-03   -0.47267E-03  8424   0.598E-03 0.277E-03
CGA:   8    -0.669750522603E+03   -0.11892E-03   -0.12218E-03  8424   0.184E-03 0.215E-03
CGA:   9    -0.669750544180E+03   -0.21577E-04   -0.31632E-04  8424   0.911E-04 0.144E-03
CGA:  10    -0.669750544972E+03   -0.79161E-06   -0.83719E-05  8424   0.649E-04 0.750E-04
  48 F= -.66975054E+03 E0= -.66975054E+03  d E =0.119540E-01  mag=     2.0000
       N       E                     dE             d eps       ncg     rms          ort
SDA:   1    -0.665198550367E+03    0.45520E+01    0.00000E+00  8424   0.138E+02 0.000E+00
CGA:   2    -0.668031402955E+03   -0.28329E+01   -0.28318E+01  8424   0.581E+01 0.307E-01
CGA:   3    -0.669282292598E+03   -0.12509E+01   -0.12512E+01  8424   0.190E+01-0.776E-02
CGA:   4    -0.669590681406E+03   -0.30839E+00   -0.30838E+00  8424   0.438E+00-0.916E-03
CGA:   5    -0.669665880405E+03   -0.75199E-01   -0.75210E-01  8424   0.890E-01 0.847E-03
CGA:   6    -0.669683788173E+03   -0.17908E-01   -0.17900E-01  8424   0.202E-01 0.432E-03
CGA:   7    -0.669688287940E+03   -0.44998E-02   -0.44757E-02  8424   0.561E-02 0.656E-03
CGA:   8    -0.669689651804E+03   -0.13639E-02   -0.13458E-02  8424   0.156E-02 0.387E-03
CGA:   9    -0.669690044395E+03   -0.39259E-03   -0.37960E-03  8424   0.466E-03 0.333E-03
CGA:  10    -0.669690128710E+03   -0.84315E-04   -0.92282E-04  8424   0.220E-03 0.300E-03
CGA:  11    -0.669690145425E+03   -0.16716E-04   -0.27399E-04  8424   0.140E-03 0.167E-03
CGA:  12    -0.669690147197E+03   -0.17714E-05   -0.13226E-04  8424   0.115E-03 0.126E-03
  49 F= -.66969015E+03 E0= -.66969015E+03  d E =0.603978E-01  mag=     2.0000
       N       E                     dE             d eps       ncg     rms          ort
SDA:   1    -0.663859971172E+03    0.58302E+01    0.00000E+00  8424   0.190E+02 0.000E+00
CGA:   2    -0.667562525434E+03   -0.37026E+01   -0.37009E+01  8424   0.727E+01 0.608E-01
CGA:   3    -0.669146335274E+03   -0.15838E+01   -0.15844E+01  8424   0.249E+01-0.135E-01
CGA:   4    -0.669564435033E+03   -0.41810E+00   -0.41811E+00  8424   0.616E+00 0.346E-03
CGA:   5    -0.669669030918E+03   -0.10460E+00   -0.10461E+00  8424   0.125E+00 0.138E-02
CGA:   6    -0.669694134302E+03   -0.25103E-01   -0.25125E-01  8424   0.278E-01-0.980E-03
CGA:   7    -0.669700311412E+03   -0.61771E-02   -0.61504E-02  8424   0.787E-02 0.599E-03
CGA:   8    -0.669702229852E+03   -0.19184E-02   -0.19059E-02  8424   0.222E-02 0.224E-03
CGA:   9    -0.669702878476E+03   -0.64862E-03   -0.66902E-03  8424   0.849E-03-0.189E-03
CGA:  10    -0.669703103742E+03   -0.22527E-03   -0.21864E-03  8424   0.331E-03 0.710E-04
CGA:  11    -0.669703236767E+03   -0.13303E-03   -0.17778E-03  8424   0.371E-03-0.151E-03
CGA:  12    -0.669703282090E+03   -0.45323E-04   -0.44934E-04  8424   0.254E-03 0.257E-04
CGA:  13    -0.669703355763E+03   -0.73673E-04   -0.72792E-04  8424   0.197E-03 0.115E-04
CGA:  14    -0.669703023694E+03    0.33207E-03   -0.18953E-03  8424   0.289E-02-0.543E-03
CGA:  15    -0.669703587307E+03   -0.56361E-03   -0.61284E-03  8424   0.630E-03 0.279E-03
CGA:  16    -0.669703808598E+03   -0.22129E-03   -0.20361E-03  8424   0.269E-03-0.210E-03
CGA:  17    -0.669703826068E+03   -0.17470E-04   -0.30696E-04  8424   0.108E-03 0.644E-04
CGA:  18    -0.669703839307E+03   -0.13239E-04   -0.23223E-04  8424   0.753E-04 0.515E-04
CGA:  19    -0.669703889224E+03   -0.49918E-04   -0.59606E-04  8424   0.182E-03-0.563E-04
CGA:  20    -0.669703946810E+03   -0.57586E-04   -0.57769E-04  8424   0.518E-04 0.347E-05
CGA:  21    -0.669703442792E+03    0.50402E-03   -0.27197E-03  8424   0.571E-02-0.320E-03
CGA:  22    -0.669704074720E+03   -0.63193E-03   -0.69193E-03  8424   0.232E-03 0.133E-03
CGA:  23    -0.669704172840E+03   -0.98121E-04   -0.91881E-04  8424   0.737E-04-0.257E-04
CGA:  24    -0.669704186079E+03   -0.13238E-04   -0.16598E-04  8424   0.459E-04 0.873E-05
CGA:  25    -0.669704185423E+03    0.65544E-06   -0.10314E-03  8424   0.943E-03-0.798E-04
CGA:  26    -0.669704385120E+03   -0.19970E-03   -0.18477E-03  8424   0.186E-03-0.321E-04
CGA:  27    -0.669704415191E+03   -0.30071E-04   -0.38370E-04  8424   0.398E-04 0.189E-04
CGA:  28    -0.669704375249E+03    0.39942E-04   -0.71224E-04  8424   0.863E-03-0.113E-03
CGA:  29    -0.669704508208E+03   -0.13296E-03   -0.16128E-03  8424   0.742E-04 0.582E-04
CGA:  30    -0.669704560763E+03   -0.52556E-04   -0.59814E-04  8424   0.242E-03-0.712E-04
CGA:  31    -0.669704573191E+03   -0.12428E-04   -0.35246E-04  8424   0.412E-04 0.446E-04
CGA:  32    -0.669704592933E+03   -0.19743E-04   -0.19027E-04  8424   0.419E-04-0.335E-05
CGA:  33    -0.669704651269E+03   -0.58336E-04    0.53921E-04  8424   0.151E-03-0.220E-04
CGA:  34    -0.669704659225E+03   -0.79557E-05   -0.25472E-04  8424   0.429E-04 0.387E-04
CGA:  35    -0.669704685427E+03   -0.26202E-04   -0.24711E-04  8424   0.390E-04-0.112E-04
CGA:  36    -0.669704745126E+03   -0.59699E-04    0.11310E-04  8424   0.125E-03-0.488E-05
CGA:  37    -0.669704919680E+03   -0.17455E-03    0.90871E-04  8424   0.186E-03 0.505E-04
CGA:  38    -0.669704751202E+03    0.16848E-03   -0.58138E-03  8424   0.903E-02-0.682E-03
CGA:  39    -0.669706397157E+03   -0.16460E-02   -0.14247E-02  8424   0.695E-03-0.446E-03
CGA:  40    -0.669706530107E+03   -0.13295E-03   -0.15983E-03  8424   0.668E-04 0.666E-04
CGA:  41    -0.669706535663E+03   -0.55562E-05   -0.12921E-04  8424   0.128E-04 0.163E-04
  50 F= -.66970654E+03 E0= -.66970654E+03  d E =-.163885E-01  mag=     2.0000
       N       E                     dE             d eps       ncg     rms          ort
SDA:   1    -0.669481605768E+03    0.22492E+00    0.00000E+00  8424   0.725E+00 0.000E+00
CGA:   2    -0.669640820031E+03   -0.15921E+00   -0.15926E+00  8424   0.334E+00-0.894E-04
CGA:   3    -0.669709714854E+03   -0.68895E-01   -0.68894E-01  8424   0.989E-01-0.814E-05
CGA:   4    -0.669725619416E+03   -0.15905E-01   -0.15892E-01  8424   0.226E-01-0.474E-04
CGA:   5    -0.669729554282E+03   -0.39349E-02   -0.39438E-02  8424   0.470E-02 0.217E-04
CGA:   6    -0.669730457995E+03   -0.90371E-03   -0.93242E-03  8424   0.104E-02 0.915E-04
CGA:   7    -0.669730669004E+03   -0.21101E-03   -0.23027E-03  8424   0.290E-03 0.697E-04
CGA:   8    -0.669730713634E+03   -0.44630E-04   -0.63109E-04  8424   0.831E-04 0.669E-04
CGA:   9    -0.669730711135E+03    0.24993E-05   -0.15010E-04  8424   0.376E-04 0.548E-04
  51 F= -.66973071E+03 E0= -.66973071E+03  d E =-.241755E-01  mag=     2.0000
       N       E                     dE             d eps       ncg     rms          ort
SDA:   1    -0.663710941696E+03    0.60198E+01    0.00000E+00  8424   0.191E+02 0.000E+00
CGA:   2    -0.667479807135E+03   -0.37689E+01   -0.37869E+01  8424   0.756E+01-0.250E-01
CGA:   3    -0.669102304898E+03   -0.16225E+01   -0.16196E+01  8424   0.250E+01 0.718E-02
CGA:   4    -0.669520387469E+03   -0.41808E+00   -0.41820E+00  8424   0.611E+00 0.178E-03
CGA:   5    -0.669625190035E+03   -0.10480E+00   -0.10503E+00  8424   0.126E+00 0.550E-03
CGA:   6    -0.669650280511E+03   -0.25090E-01   -0.25108E-01  8424   0.275E-01 0.966E-04
CGA:   7    -0.669656479501E+03   -0.61990E-02   -0.62621E-02  8424   0.800E-02 0.415E-03
CGA:   8    -0.669658365356E+03   -0.18859E-02   -0.19235E-02  8424   0.229E-02 0.281E-03
CGA:   9    -0.669658932243E+03   -0.56689E-03   -0.59252E-03  8424   0.697E-03 0.224E-03
CGA:  10    -0.669659059354E+03   -0.12711E-03   -0.16698E-03  8424   0.285E-03 0.285E-03
CGA:  11    -0.669659081912E+03   -0.22559E-04   -0.65920E-04  8424   0.156E-03 0.232E-03
CGA:  12    -0.669659079498E+03    0.24140E-05   -0.21873E-04  8424   0.106E-03 0.120E-03
CGA:  13    -0.669659068405E+03    0.11094E-04   -0.11168E-04  8424   0.928E-04 0.984E-04
CGA:  14    -0.669659057083E+03    0.11322E-04   -0.87347E-05  8424   0.851E-04 0.886E-04
CGA:  15    -0.669659045877E+03    0.11206E-04   -0.72519E-05  8424   0.800E-04 0.824E-04
CGA:  16    -0.669659034992E+03    0.10886E-04   -0.62596E-05  8424   0.763E-04 0.780E-04
CGA:  17    -0.669659024501E+03    0.10491E-04   -0.55343E-05  8424   0.734E-04 0.747E-04
CGA:  18    -0.669659014428E+03    0.10073E-04   -0.49726E-05  8424   0.711E-04 0.722E-04
CGA:  19    -0.669659004775E+03    0.96526E-05   -0.45193E-05  8424   0.692E-04 0.701E-04
  52 F= -.66965900E+03 E0= -.66965900E+03  d E =0.717064E-01  mag=     2.0000
       N       E                     dE             d eps       ncg     rms          ort
SDA:   1    -0.664701241316E+03    0.49578E+01    0.00000E+00  8424   0.165E+02 0.000E+00
CGA:   2    -0.667898870283E+03   -0.31976E+01   -0.32005E+01  8424   0.625E+01 0.237E-01
CGA:   3    -0.669252027841E+03   -0.13532E+01   -0.13529E+01  8424   0.215E+01-0.599E-02
CGA:   4    -0.669613765620E+03   -0.36174E+00   -0.36182E+00  8424   0.538E+00 0.332E-03
CGA:   5    -0.669705738605E+03   -0.91973E-01   -0.92059E-01  8424   0.110E+00 0.106E-02
CGA:   6    -0.669727712192E+03   -0.21974E-01   -0.21951E-01  8424   0.240E-01-0.662E-03
CGA:   7    -0.669733007185E+03   -0.52950E-02   -0.53009E-02  8424   0.679E-02 0.550E-03
CGA:   8    -0.669734605920E+03   -0.15987E-02   -0.15995E-02  8424   0.182E-02 0.363E-03
CGA:   9    -0.669735110518E+03   -0.50460E-03   -0.50282E-03  8424   0.555E-03 0.591E-04
CGA:  10    -0.669735230661E+03   -0.12014E-03   -0.12347E-03  8424   0.191E-03 0.183E-03
CGA:  11    -0.669735270641E+03   -0.39980E-04   -0.46076E-04  8424   0.839E-04 0.118E-03
CGA:  12    -0.669735279558E+03   -0.89174E-05   -0.13085E-04  8424   0.466E-04 0.560E-04
