       N       E                     dE             d eps       ncg     rms          ort
DAV:   1     0.283667116631E+04    0.28367E+04   -0.29331E+05 18360   0.141E+03
DAV:   2    -0.971335895723E+03   -0.38080E+04   -0.36707E+04 18360   0.312E+02
DAV:   3    -0.123121154269E+04   -0.25988E+03   -0.25824E+03 18360   0.852E+01
DAV:   4    -0.123425945569E+04   -0.30479E+01   -0.30374E+01 18360   0.982E+00
DAV:   5    -0.123430934750E+04   -0.49892E-01   -0.49782E-01 18360   0.116E+00
SDA:   6    -0.873249699510E+03    0.36106E+03   -0.49782E-01 18360   0.619E+03 0.000E+00
CGA:   7    -0.986267641434E+03   -0.11302E+03   -0.11283E+03 18360   0.443E+02-0.266E+01
CGA:   8    -0.999460123825E+03   -0.13192E+02   -0.13166E+02 18360   0.105E+02 0.219E+00
CGA:   9    -0.100331378607E+04   -0.38537E+01   -0.38551E+01 18360   0.401E+01-0.132E-01
CGA:  10    -0.100458509250E+04   -0.12713E+01   -0.12750E+01 18360   0.869E+00-0.317E-01
CGA:  11    -0.100491997770E+04   -0.33489E+00   -0.33512E+00 18360   0.190E+00-0.119E-02
CGA:  12    -0.100498540010E+04   -0.65422E-01   -0.65406E-01 18360   0.434E-01 0.107E-03
CGA:  13    -0.100500180528E+04   -0.16405E-01   -0.16526E-01 18360   0.997E-02-0.828E-03
CGA:  14    -0.100500553270E+04   -0.37274E-02   -0.36476E-02 18360   0.217E-02 0.592E-03
CGA:  15    -0.100500648650E+04   -0.95380E-03   -0.92258E-03 18360   0.540E-03 0.200E-03
CGA:  16    -0.100500676779E+04   -0.28129E-03   -0.37265E-03 18360   0.389E-03-0.243E-03
CGA:  17    -0.100500683347E+04   -0.65683E-04   -0.65592E-04 18360   0.150E-03 0.219E-05
CGA:  18    -0.100500686105E+04   -0.27584E-04   -0.30660E-04 18360   0.608E-04 0.430E-04
CGA:  19    -0.100500687420E+04   -0.13141E-04   -0.15367E-04 18360   0.312E-04 0.299E-04
CGA:  20    -0.100500688394E+04   -0.97490E-05   -0.10324E-04 18360   0.135E-04 0.126E-04
   1 F= -.10050069E+04 E0= -.10050069E+04  d E =-.100501E+04  mag=    -0.0000
       N       E                     dE             d eps       ncg     rms          ort
SDA:   1    -0.100500741217E+04   -0.53798E-03    0.00000E+00 18360   0.628E-03 0.000E+00
CGA:   2    -0.100500762639E+04   -0.21421E-03   -0.21394E-03 18360   0.149E-03 0.400E-05
CGA:   3    -0.100500766745E+04   -0.41063E-04   -0.41060E-04 18360   0.254E-04-0.287E-05
CGA:   4    -0.100500767596E+04   -0.85115E-05   -0.93666E-05 18360   0.962E-05-0.843E-05
   2 F= -.10050077E+04 E0= -.10050077E+04  d E =-.792017E-03  mag=    -0.0000
       N       E                     dE             d eps       ncg     rms          ort
SDA:   1    -0.100500060080E+04    0.70666E-02    0.00000E+00 18360   0.259E-01 0.000E+00
CGA:   2    -0.100500955203E+04   -0.89512E-02   -0.89468E-02 18360   0.586E-02 0.684E-04
CGA:   3    -0.100501116648E+04   -0.16144E-02   -0.16144E-02 18360   0.954E-03-0.564E-05
CGA:   4    -0.100501145931E+04   -0.29283E-03   -0.29468E-03 18360   0.178E-03-0.701E-04
CGA:   5    -0.100501151086E+04   -0.51555E-04   -0.51326E-04 18360   0.412E-04 0.843E-05
CGA:   6    -0.100501152466E+04   -0.13799E-04   -0.13535E-04 18360   0.108E-04 0.930E-05
CGA:   7    -0.100501152711E+04   -0.24473E-05   -0.12502E-04 18360   0.332E-04-0.153E-04
   3 F= -.10050115E+04 E0= -.10050115E+04  d E =-.385115E-02  mag=    -0.0000
       N       E                     dE             d eps       ncg     rms          ort
SDA:   1    -0.100499780258E+04    0.13722E-01    0.00000E+00 18360   0.380E-01 0.000E+00
CGA:   2    -0.100501081433E+04   -0.13012E-01   -0.13009E-01 18360   0.849E-02 0.860E-04
CGA:   3    -0.100501321507E+04   -0.24007E-02   -0.24004E-02 18360   0.138E-02-0.100E-04
CGA:   4    -0.100501362690E+04   -0.41184E-03   -0.41056E-03 18360   0.243E-03-0.797E-04
CGA:   5    -0.100501370028E+04   -0.73381E-04   -0.73316E-04 18360   0.598E-04 0.798E-05
CGA:   6    -0.100501372113E+04   -0.20843E-04   -0.20620E-04 18360   0.157E-04 0.105E-04
CGA:   7    -0.100501372512E+04   -0.39900E-05   -0.17374E-04 18360   0.463E-04-0.213E-04
   4 F= -.10050137E+04 E0= -.10050137E+04  d E =-.219801E-02  mag=     0.0000
       N       E                     dE             d eps       ncg     rms          ort
SDA:   1    -0.100501285821E+04    0.86292E-03    0.00000E+00 18360   0.297E-02 0.000E+00
CGA:   2    -0.100501387006E+04   -0.10119E-02   -0.10118E-02 18360   0.626E-03 0.259E-04
CGA:   3    -0.100501405642E+04   -0.18636E-03   -0.18613E-03 18360   0.100E-03-0.515E-05
CGA:   4    -0.100501408856E+04   -0.32137E-04   -0.31810E-04 18360   0.258E-04-0.211E-04
CGA:   5    -0.100501409361E+04   -0.50496E-05   -0.52488E-05 18360   0.497E-05 0.256E-05
   5 F= -.10050141E+04 E0= -.10050141E+04  d E =-.368491E-03  mag=     0.0000
       N       E                     dE             d eps       ncg     rms          ort
SDA:   1    -0.100491223200E+04    0.10186E+00    0.00000E+00 18360   0.245E+00 0.000E+00
CGA:   2    -0.100499779893E+04   -0.85567E-01   -0.85559E-01 18360   0.509E-01 0.266E-03
CGA:   3    -0.100501199655E+04   -0.14198E-01   -0.14194E-01 18360   0.819E-02-0.462E-04
CGA:   4    -0.100501418978E+04   -0.21932E-02   -0.21854E-02 18360   0.126E-02-0.142E-03
CGA:   5    -0.100501459377E+04   -0.40399E-03   -0.40397E-03 18360   0.318E-03 0.362E-05
CGA:   6    -0.100501471376E+04   -0.12000E-03   -0.11882E-03 18360   0.935E-04 0.225E-04
CGA:   7    -0.100501476194E+04   -0.48173E-04   -0.56547E-04 18360   0.619E-04-0.346E-04
CGA:   8    -0.100501477120E+04   -0.92605E-05   -0.95865E-05 18360   0.168E-04 0.365E-05
   6 F= -.10050148E+04 E0= -.10050148E+04  d E =-.677590E-03  mag=     0.0000
       N       E                     dE             d eps       ncg     rms          ort
SDA:   1    -0.100497705592E+04    0.37706E-01    0.00000E+00 18360   0.947E-01 0.000E+00
CGA:   2    -0.100501007770E+04   -0.33022E-01   -0.33028E-01 18360   0.201E-01-0.225E-03
CGA:   3    -0.100501558697E+04   -0.55093E-02   -0.55104E-02 18360   0.328E-02 0.196E-04
CGA:   4    -0.100501642914E+04   -0.84216E-03   -0.84911E-03 18360   0.469E-03 0.110E-03
CGA:   5    -0.100501659401E+04   -0.16487E-03   -0.16483E-03 18360   0.130E-03 0.186E-05
CGA:   6    -0.100501665085E+04   -0.56844E-04   -0.59520E-04 18360   0.576E-04-0.195E-04
CGA:   7    -0.100501666265E+04   -0.11800E-04   -0.12664E-04 18360   0.139E-04 0.128E-04
CGA:   8    -0.100501666583E+04   -0.31768E-05   -0.37192E-05 18360   0.408E-05 0.522E-05
   7 F= -.10050167E+04 E0= -.10050167E+04  d E =-.189463E-02  mag=    -0.0000
       N       E                     dE             d eps       ncg     rms          ort
SDA:   1    -0.100494079066E+04    0.75872E-01    0.00000E+00 18360   0.175E+00 0.000E+00
CGA:   2    -0.100500558204E+04   -0.64791E-01   -0.64810E-01 18360   0.369E-01-0.350E-03
CGA:   3    -0.100501512713E+04   -0.95451E-02   -0.95503E-02 18360   0.557E-02 0.750E-04
CGA:   4    -0.100501659282E+04   -0.14657E-02   -0.14697E-02 18360   0.846E-03 0.724E-04
CGA:   5    -0.100501687829E+04   -0.28547E-03   -0.28551E-03 18360   0.208E-03-0.210E-05
CGA:   6    -0.100501696264E+04   -0.84344E-04   -0.85528E-04 18360   0.764E-04-0.126E-04
CGA:   7    -0.100501698609E+04   -0.23457E-04   -0.23420E-04 18360   0.167E-04 0.968E-05
CGA:   8    -0.100501699217E+04   -0.60729E-05   -0.60715E-05 18360   0.339E-05 0.331E-05
   8 F= -.10050170E+04 E0= -.10050170E+04  d E =-.326335E-03  mag=     0.0000
       N       E                     dE             d eps       ncg     rms          ort
SDA:   1    -0.100488896331E+04    0.12802E+00    0.00000E+00 18360   0.303E+00 0.000E+00
CGA:   2    -0.100499659073E+04   -0.10763E+00   -0.10762E+00 18360   0.645E-01 0.318E-03
CGA:   3    -0.100501380998E+04   -0.17219E-01   -0.17209E-01 18360   0.105E-01-0.131E-03
CGA:   4    -0.100501666981E+04   -0.28598E-02   -0.28544E-02 18360   0.163E-02-0.956E-04
CGA:   5    -0.100501720290E+04   -0.53309E-03   -0.53309E-03 18360   0.401E-03 0.587E-05
CGA:   6    -0.100501735594E+04   -0.15304E-03   -0.15216E-03 18360   0.122E-03 0.176E-04
CGA:   7    -0.100501741372E+04   -0.57789E-04   -0.61633E-04 18360   0.536E-04-0.248E-04
CGA:   8    -0.100501742780E+04   -0.14080E-04   -0.14064E-04 18360   0.890E-05-0.178E-05
CGA:   9    -0.100501742951E+04   -0.17015E-05   -0.20025E-05 18360   0.253E-05 0.285E-05
   9 F= -.10050174E+04 E0= -.10050174E+04  d E =-.437340E-03  mag=     0.0000
       N       E                     dE             d eps       ncg     rms          ort
SDA:   1    -0.100500151113E+04    0.15917E-01    0.00000E+00 18360   0.418E-01 0.000E+00
CGA:   2    -0.100501663567E+04   -0.15125E-01   -0.15126E-01 18360   0.101E-01-0.434E-04
CGA:   3    -0.100501916762E+04   -0.25319E-02   -0.25348E-02 18360   0.147E-02 0.367E-04
CGA:   4    -0.100501962704E+04   -0.45942E-03   -0.45888E-03 18360   0.261E-03-0.334E-04
CGA:   5    -0.100501971070E+04   -0.83667E-04   -0.83660E-04 18360   0.666E-04 0.275E-05
CGA:   6    -0.100501973471E+04   -0.24007E-04   -0.23867E-04 18360   0.187E-04 0.484E-05
CGA:   7    -0.100501974375E+04   -0.90451E-05   -0.96847E-05 18360   0.841E-05-0.407E-05
  10 F= -.10050197E+04 E0= -.10050197E+04  d E =-.231425E-02  mag=    -0.0000
       N       E                     dE             d eps       ncg     rms          ort
SDA:   1    -0.100501693129E+04    0.28034E-02    0.00000E+00 18360   0.817E-02 0.000E+00
CGA:   2    -0.100501982779E+04   -0.28965E-02   -0.28978E-02 18360   0.177E-02-0.521E-04
CGA:   3    -0.100502031314E+04   -0.48535E-03   -0.48544E-03 18360   0.282E-03 0.146E-05
CGA:   4    -0.100502038086E+04   -0.67722E-04   -0.69908E-04 18360   0.385E-04 0.272E-04
CGA:   5    -0.100502039473E+04   -0.13875E-04   -0.13859E-04 18360   0.112E-04 0.371E-05
CGA:   6    -0.100502040001E+04   -0.52720E-05   -0.85994E-05 18360   0.167E-04-0.889E-05
  11 F= -.10050204E+04 E0= -.10050204E+04  d E =-.656252E-03  mag=    -0.0000
       N       E                     dE             d eps       ncg     rms          ort
SDA:   1    -0.100500503487E+04    0.15360E-01    0.00000E+00 18360   0.378E-01 0.000E+00
CGA:   2    -0.100501916741E+04   -0.14133E-01   -0.14135E-01 18360   0.761E-02-0.699E-04
CGA:   3    -0.100502108198E+04   -0.19146E-02   -0.19141E-02 18360   0.113E-02-0.594E-05
CGA:   4    -0.100502136667E+04   -0.28469E-03   -0.28756E-03 18360   0.160E-03 0.368E-04
CGA:   5    -0.100502141871E+04   -0.52047E-04   -0.52093E-04 18360   0.338E-04 0.377E-05
CGA:   6    -0.100502143436E+04   -0.15643E-04   -0.17248E-04 18360   0.208E-04-0.935E-05
CGA:   7    -0.100502143728E+04   -0.29267E-05   -0.34148E-05 18360   0.675E-05 0.449E-05
  12 F= -.10050214E+04 E0= -.10050214E+04  d E =-.103728E-02  mag=     0.0000
       N       E                     dE             d eps       ncg     rms          ort
SDA:   1    -0.100493642663E+04    0.85008E-01    0.00000E+00 18360   0.200E+00 0.000E+00
CGA:   2    -0.100501311431E+04   -0.76688E-01   -0.76698E-01 18360   0.387E-01-0.149E-03
CGA:   3    -0.100502250070E+04   -0.93864E-02   -0.93849E-02 18360   0.573E-02-0.217E-04
CGA:   4    -0.100502397397E+04   -0.14733E-02   -0.14771E-02 18360   0.808E-03 0.599E-04
CGA:   5    -0.100502422470E+04   -0.25073E-03   -0.25080E-03 18360   0.148E-03 0.702E-05
CGA:   6    -0.100502428675E+04   -0.62050E-04   -0.63757E-04 18360   0.617E-04-0.154E-04
CGA:   7    -0.100502430379E+04   -0.17040E-04   -0.17157E-04 18360   0.145E-04 0.942E-05
CGA:   8    -0.100502430895E+04   -0.51577E-05   -0.51946E-05 18360   0.353E-05 0.315E-05
  13 F= -.10050243E+04 E0= -.10050243E+04  d E =-.287166E-02  mag=     0.0000
       N       E                     dE             d eps       ncg     rms          ort
SDA:   1    -0.100293164410E+04    0.20927E+01    0.00000E+00 18360   0.473E+01 0.000E+00
CGA:   2    -0.100475647143E+04   -0.18248E+01   -0.18248E+01 18360   0.922E+00 0.616E-04
CGA:   3    -0.100497759400E+04   -0.22112E+00   -0.22106E+00 18360   0.135E+00-0.522E-03
CGA:   4    -0.100501329724E+04   -0.35703E-01   -0.35691E-01 18360   0.197E-01-0.185E-03
CGA:   5    -0.100501933948E+04   -0.60422E-02   -0.60437E-02 18360   0.364E-02 0.719E-04
CGA:   6    -0.100502074261E+04   -0.14031E-02   -0.14023E-02 18360   0.122E-02 0.150E-04
CGA:   7    -0.100502125647E+04   -0.51387E-03   -0.51927E-03 18360   0.406E-03-0.582E-04
CGA:   8    -0.100502139894E+04   -0.14247E-03   -0.14244E-03 18360   0.691E-04 0.944E-06
CGA:   9    -0.100502142423E+04   -0.25288E-04   -0.25309E-04 18360   0.120E-04-0.718E-06
CGA:  10    -0.100502142942E+04   -0.51892E-05   -0.63071E-05 18360   0.645E-05-0.576E-05
  14 F= -.10050214E+04 E0= -.10050214E+04  d E =0.287953E-02  mag=     0.0000
       N       E                     dE             d eps       ncg     rms          ort
SDA:   1    -0.100462353143E+04    0.39789E+00    0.00000E+00 18360   0.921E+00 0.000E+00
CGA:   2    -0.100497536694E+04   -0.35184E+00   -0.35186E+00 18360   0.194E+00-0.476E-03
CGA:   3    -0.100502174662E+04   -0.46380E-01   -0.46394E-01 18360   0.277E-01 0.969E-04
CGA:   4    -0.100502939190E+04   -0.76453E-02   -0.76487E-02 18360   0.429E-02 0.550E-04
CGA:   5    -0.100503076505E+04   -0.13732E-02   -0.13728E-02 18360   0.941E-03-0.243E-04
CGA:   6    -0.100503111818E+04   -0.35313E-03   -0.35327E-03 18360   0.308E-03-0.328E-05
CGA:   7    -0.100503123449E+04   -0.11630E-03   -0.11586E-03 18360   0.813E-04 0.108E-04
CGA:   8    -0.100503126909E+04   -0.34602E-04   -0.35062E-04 18360   0.184E-04-0.584E-05
CGA:   9    -0.100503127521E+04   -0.61248E-05   -0.61412E-05 18360   0.328E-05-0.918E-06
  15 F= -.10050313E+04 E0= -.10050313E+04  d E =-.984579E-02  mag=    -0.0000
       N       E                     dE             d eps       ncg     rms          ort
SDA:   1    -0.100495570167E+04    0.75567E-01    0.00000E+00 18360   0.173E+00 0.000E+00
CGA:   2    -0.100501935567E+04   -0.63654E-01   -0.63666E-01 18360   0.370E-01-0.403E-03
CGA:   3    -0.100502869703E+04   -0.93414E-02   -0.93530E-02 18360   0.553E-02 0.125E-03
CGA:   4    -0.100503016067E+04   -0.14636E-02   -0.14732E-02 18360   0.828E-03 0.134E-03
CGA:   5    -0.100503044461E+04   -0.28394E-03   -0.28396E-03 18360   0.208E-03-0.123E-04
CGA:   6    -0.100503052881E+04   -0.84207E-04   -0.86217E-04 18360   0.827E-04-0.227E-04
CGA:   7    -0.100503054783E+04   -0.19018E-04   -0.20189E-04 18360   0.187E-04 0.185E-04
CGA:   8    -0.100503055251E+04   -0.46806E-05   -0.54158E-05 18360   0.559E-05 0.751E-05
  16 F= -.10050306E+04 E0= -.10050306E+04  d E =0.722702E-03  mag=    -0.0000
       N       E                     dE             d eps       ncg     rms          ort
SDA:   1    -0.100502237726E+04    0.81706E-02    0.00000E+00 18360   0.204E-01 0.000E+00
CGA:   2    -0.100502979379E+04   -0.74165E-02   -0.74169E-02 18360   0.467E-02-0.771E-05
CGA:   3    -0.100503097791E+04   -0.11841E-02   -0.11827E-02 18360   0.707E-03-0.181E-04
CGA:   4    -0.100503117521E+04   -0.19730E-03   -0.19835E-03 18360   0.109E-03 0.225E-04
CGA:   5    -0.100503121300E+04   -0.37790E-04   -0.37777E-04 18360   0.296E-04 0.151E-05
CGA:   6    -0.100503122565E+04   -0.12658E-04   -0.13107E-04 18360   0.126E-04-0.409E-05
CGA:   7    -0.100503122843E+04   -0.27798E-05   -0.29233E-05 18360   0.277E-05 0.229E-05
  17 F= -.10050312E+04 E0= -.10050312E+04  d E =-.675922E-03  mag=    -0.0000
       N       E                     dE             d eps       ncg     rms          ort
SDA:   1    -0.100502788800E+04    0.33377E-02    0.00000E+00 18360   0.869E-02 0.000E+00
CGA:   2    -0.100503103447E+04   -0.31465E-02   -0.31435E-02 18360   0.176E-02 0.813E-04
CGA:   3    -0.100503151446E+04   -0.47998E-03   -0.47859E-03 18360   0.285E-03-0.245E-04
CGA:   4    -0.100503160166E+04   -0.87202E-04   -0.86382E-04 18360   0.655E-04-0.515E-04
CGA:   5    -0.100503161430E+04   -0.12646E-04   -0.13219E-04 18360   0.111E-04 0.750E-05
CGA:   6    -0.100503161565E+04   -0.13415E-05   -0.21878E-05 18360   0.444E-05 0.594E-05
  18 F= -.10050316E+04 E0= -.10050316E+04  d E =-.387211E-03  mag=     0.0000
