       N       E                     dE             d eps       ncg     rms          ort
DAV:   1     0.103880049657E+05    0.10388E+05   -0.42421E+05 10564   0.156E+03
DAV:   2    -0.791183135292E+02   -0.10467E+05   -0.98777E+04 10564   0.479E+02
DAV:   3    -0.151607451135E+04   -0.14370E+04   -0.13380E+04 10564   0.185E+02
DAV:   4    -0.160229021686E+04   -0.86216E+02   -0.83674E+02 10564   0.475E+01
DAV:   5    -0.160488595671E+04   -0.25957E+01   -0.25867E+01 10564   0.879E+00
SDA:   6    -0.738386809714E+03    0.86650E+03   -0.25867E+01 10564   0.286E+04 0.000E+00
CGA:   7    -0.114337689667E+04   -0.40499E+03   -0.40111E+03 10564   0.916E+03-0.133E+02
CGA:   8    -0.117264720694E+04   -0.29270E+02   -0.47566E+02 10564   0.777E+03-0.334E+03
CGA:   9    -0.121117841335E+04   -0.38531E+02   -0.39333E+02 10564   0.451E+03-0.140E+02
CGA:  10    -0.123503219997E+04   -0.23854E+02   -0.28181E+02 10564   0.240E+03-0.384E+02
CGA:  11    -0.125675036580E+04   -0.21718E+02   -0.23070E+02 10564   0.171E+03-0.319E+01
CGA:  12    -0.126808170112E+04   -0.11331E+02   -0.12421E+02 10564   0.577E+02-0.831E+01
CGA:  13    -0.127299078811E+04   -0.49091E+01   -0.50849E+01 10564   0.362E+02-0.964E+00
CGA:  14    -0.127680934744E+04   -0.38186E+01   -0.38812E+01 10564   0.165E+02-0.583E+00
CGA:  15    -0.127803050803E+04   -0.12212E+01   -0.12424E+01 10564   0.857E+01-0.588E+00
CGA:  16    -0.127908862679E+04   -0.10581E+01   -0.10589E+01 10564   0.499E+01-0.228E+00
CGA:  17    -0.127964154115E+04   -0.55291E+00   -0.55074E+00 10564   0.310E+01-0.229E+00
CGA:  18    -0.128010853314E+04   -0.46699E+00   -0.46762E+00 10564   0.306E+01-0.271E+00
CGA:  19    -0.128047417591E+04   -0.36564E+00   -0.36022E+00 10564   0.183E+01-0.341E+00
CGA:  20    -0.128083349231E+04   -0.35932E+00   -0.40978E+00 10564   0.320E+01-0.524E+00
CGA:  21    -0.128112952332E+04   -0.29603E+00   -0.28258E+00 10564   0.123E+01-0.494E+00
CGA:  22    -0.128137413950E+04   -0.24462E+00   -0.29809E+00 10564   0.213E+01-0.401E+00
CGA:  23    -0.128156798886E+04   -0.19385E+00   -0.18328E+00 10564   0.765E+00-0.315E+00
CGA:  24    -0.128167208388E+04   -0.10410E+00   -0.10384E+00 10564   0.767E+00-0.114E+00
CGA:  25    -0.128179120140E+04   -0.11912E+00   -0.12141E+00 10564   0.430E+00-0.943E-01
CGA:  26    -0.128183556538E+04   -0.44364E-01   -0.44324E-01 10564   0.247E+00-0.428E-02
CGA:  27    -0.128188039556E+04   -0.44830E-01   -0.44195E-01 10564   0.213E+00 0.305E-01
CGA:  28    -0.128191193103E+04   -0.31535E-01   -0.32564E-01 10564   0.122E+00 0.406E-01
CGA:  29    -0.128193191193E+04   -0.19981E-01   -0.20749E-01 10564   0.896E-01 0.439E-01
CGA:  30    -0.128194680340E+04   -0.14891E-01   -0.16041E-01 10564   0.484E-01 0.412E-01
CGA:  31    -0.128195389962E+04   -0.70962E-02   -0.82508E-02 10564   0.289E-01 0.280E-01
CGA:  32    -0.128195891495E+04   -0.50153E-02   -0.48633E-02 10564   0.196E-01 0.122E-01
CGA:  33    -0.128196324779E+04   -0.43328E-02   -0.43433E-02 10564   0.127E-01 0.150E-01
CGA:  34    -0.128196498464E+04   -0.17369E-02   -0.18113E-02 10564   0.125E-01 0.522E-02
CGA:  35    -0.128196792686E+04   -0.29422E-02   -0.28605E-02 10564   0.881E-02 0.117E-01
CGA:  36    -0.128196903527E+04   -0.11084E-02   -0.12046E-02 10564   0.637E-02 0.499E-02
CGA:  37    -0.128196998417E+04   -0.94890E-03   -0.96521E-03 10564   0.654E-02 0.442E-02
CGA:  38    -0.128197067591E+04   -0.69174E-03   -0.80055E-03 10564   0.679E-02 0.334E-02
CGA:  39    -0.128197132234E+04   -0.64643E-03   -0.75656E-03 10564   0.670E-02 0.262E-02
CGA:  40    -0.128197317066E+04   -0.18483E-02   -0.16372E-02 10564   0.524E-02 0.838E-02
CGA:  41    -0.128197369895E+04   -0.52829E-03   -0.60586E-03 10564   0.531E-02 0.210E-02
CGA:  42    -0.128197549071E+04   -0.17918E-02   -0.14746E-02 10564   0.407E-02 0.661E-02
CGA:  43    -0.128197605505E+04   -0.56433E-03   -0.57954E-03 10564   0.491E-02 0.140E-02
CGA:  44    -0.128197808889E+04   -0.20338E-02   -0.15735E-02 10564   0.356E-02 0.531E-02
CGA:  45    -0.128197865202E+04   -0.56312E-03   -0.56235E-03 10564   0.366E-02 0.797E-03
CGA:  46    -0.128198092403E+04   -0.22720E-02   -0.16257E-02 10564   0.521E-02 0.310E-02
CGA:  47    -0.128198153968E+04   -0.61565E-03   -0.60309E-03 10564   0.281E-02-0.248E-03
CGA:  48    -0.128198272140E+04   -0.11817E-02   -0.12509E-02 10564   0.160E-01-0.246E-03
CGA:  49    -0.128198811748E+04   -0.53961E-02   -0.10666E-01 10564   0.488E-01-0.120E-01
CGA:  50    -0.128199150138E+04   -0.33839E-02   -0.33049E-02 10564   0.368E-02-0.183E-03
CGA:  51    -0.128199224374E+04   -0.74236E-03   -0.86581E-03 10564   0.992E-02-0.347E-02
CGA:  52    -0.128199306901E+04   -0.82528E-03   -0.77001E-03 10564   0.161E-02-0.431E-03
CGA:  53    -0.128199370732E+04   -0.63831E-03    0.26776E-02 10564   0.269E-02-0.493E-03
CGA:  54    -0.128199534038E+04   -0.16331E-02    0.14790E-03 10564   0.240E-02 0.110E-02
CGA:  55    -0.128199705048E+04   -0.17101E-02    0.11515E-02 10564   0.452E-02-0.999E-03
CGA:  56    -0.128199941785E+04   -0.23674E-02    0.20144E-03 10564   0.100E-01-0.339E-02
CGA:  57    -0.128200029607E+04   -0.87821E-03   -0.94285E-03 10564   0.312E-03 0.667E-03
CGA:  58    -0.128200029252E+04    0.35429E-05   -0.20313E-04 10564   0.146E-03 0.184E-03
   1 F= -.12820003E+04 E0= -.12819902E+04  d E =-.201531E-01  mag=    47.0000
