       N       E                     dE             d eps       ncg     rms          rms(c)
DAV:   1     0.103802254787E+05    0.10380E+05   -0.37686E+05 32030   0.141E+03
DAV:   2     0.524075049298E+03   -0.98562E+04   -0.93000E+04 31410   0.452E+02
DAV:   3    -0.853536962644E+03   -0.13776E+04   -0.12766E+04 34720   0.173E+02
DAV:   4    -0.937641884858E+03   -0.84105E+02   -0.81751E+02 39200   0.447E+01
DAV:   5    -0.940207078904E+03   -0.25652E+01   -0.25572E+01 38370   0.843E+00    0.189E+02
DAV:   6    -0.425007019754E+03    0.51520E+03   -0.12060E+03 38890   0.767E+01    0.908E+01
DAV:   7    -0.657292571226E+03   -0.23229E+03   -0.39397E+02 39920   0.604E+01    0.740E+01
DAV:   8    -0.690220368099E+03   -0.32928E+02   -0.52672E+01 41370   0.190E+01    0.490E+01
DAV:   9    -0.740203568614E+03   -0.49983E+02   -0.44511E+01 39210   0.146E+01    0.332E+01
DAV:  10    -0.777254986183E+03   -0.37051E+02   -0.43956E+01 41010   0.153E+01    0.297E+01
DAV:  11    -0.792211499705E+03   -0.14957E+02   -0.23744E+01 39540   0.984E+00    0.146E+01
DAV:  12    -0.795161777411E+03   -0.29503E+01   -0.54121E+00 39530   0.639E+00    0.832E+00
DAV:  13    -0.796201227629E+03   -0.10395E+01   -0.16724E+00 37850   0.328E+00    0.479E+00
DAV:  14    -0.796658256670E+03   -0.45703E+00   -0.53515E-01 36030   0.202E+00    0.292E+00
DAV:  15    -0.796788013652E+03   -0.12976E+00   -0.18129E-01 35590   0.112E+00    0.133E+00
DAV:  16    -0.796814252838E+03   -0.26239E-01   -0.46053E-02 34840   0.595E-01    0.870E-01
DAV:  17    -0.796820214827E+03   -0.59620E-02   -0.12570E-02 34100   0.349E-01    0.582E-01
DAV:  18    -0.796824560909E+03   -0.43461E-02   -0.43471E-03 36930   0.202E-01    0.420E-01
DAV:  19    -0.796827757901E+03   -0.31970E-02   -0.25086E-03 38870   0.148E-01    0.309E-01
DAV:  20    -0.796829768308E+03   -0.20104E-02   -0.16828E-03 37380   0.950E-02    0.262E-01
DAV:  21    -0.796831933966E+03   -0.21657E-02   -0.11454E-03 41990   0.956E-02    0.227E-01
DAV:  22    -0.796834075133E+03   -0.21412E-02   -0.17469E-03 41380   0.114E-01    0.191E-01
DAV:  23    -0.796835620735E+03   -0.15456E-02   -0.17897E-03 40310   0.107E-01    0.150E-01
DAV:  24    -0.796836794607E+03   -0.11739E-02   -0.19057E-03 42000   0.121E-01    0.117E-01
DAV:  25    -0.796837461792E+03   -0.66718E-03   -0.17917E-03 38980   0.950E-02    0.731E-02
DAV:  26    -0.796837790931E+03   -0.32914E-03   -0.66072E-04 35570   0.487E-02    0.543E-02
DAV:  27    -0.796837876347E+03   -0.85415E-04   -0.96579E-05 27460   0.203E-02    0.407E-02
DAV:  28    -0.796837920388E+03   -0.44041E-04   -0.18974E-05 21560   0.146E-02    0.330E-02
DAV:  29    -0.796837967498E+03   -0.47110E-04   -0.80055E-05 34220   0.245E-02    0.269E-02
DAV:  30    -0.796837995921E+03   -0.28423E-04   -0.56209E-05 24220   0.142E-02    0.230E-02
DAV:  31    -0.796838015566E+03   -0.19645E-04   -0.12977E-05 21420   0.119E-02    0.196E-02
DAV:  32    -0.796838034459E+03   -0.18893E-04   -0.41297E-05 29030   0.150E-02    0.141E-02
DAV:  33    -0.796838046422E+03   -0.11963E-04   -0.29535E-05 23600   0.114E-02    0.126E-02
DAV:  34    -0.796838052621E+03   -0.61990E-05   -0.10525E-05 20050   0.703E-03
   1 F= -.79683805E+03 E0= -.79683805E+03  d E =-.908847E-22  mag=    46.9997
