       N       E                     dE             d eps       ncg     rms          rms(c)
DAV:   1     0.307423361638E+04    0.30742E+04   -0.25838E+05 73560   0.130E+03
DAV:   2    -0.609587187611E+03   -0.36838E+04   -0.35507E+04 89472   0.297E+02
DAV:   3    -0.871611443905E+03   -0.26202E+03   -0.26035E+03 88980   0.839E+01
DAV:   4    -0.874894621009E+03   -0.32832E+01   -0.32709E+01 89352   0.101E+01
DAV:   5    -0.874950373721E+03   -0.55753E-01   -0.55614E-01 90900   0.121E+00    0.991E+01
DAV:   6    -0.778700682783E+03    0.96250E+02   -0.40578E+02 82656   0.320E+01    0.506E+01
DAV:   7    -0.788035960461E+03   -0.93353E+01   -0.22341E+01 82932   0.772E+00    0.163E+01
DAV:   8    -0.792241064370E+03   -0.42051E+01   -0.17499E+00 85872   0.252E+00    0.791E+00
DAV:   9    -0.794422219716E+03   -0.21812E+01   -0.10014E+00 86340   0.171E+00    0.385E+00
DAV:  10    -0.794916512372E+03   -0.49429E+00   -0.26940E-01 86028   0.912E-01    0.113E+00
DAV:  11    -0.794993344681E+03   -0.76832E-01   -0.45398E-02 85728   0.382E-01    0.615E-01
DAV:  12    -0.795003705226E+03   -0.10361E-01   -0.52399E-03 86796   0.142E-01    0.292E-01
DAV:  13    -0.795006338105E+03   -0.26329E-02   -0.15854E-03 85416   0.736E-02    0.987E-02
DAV:  14    -0.795006866703E+03   -0.52860E-03   -0.33746E-04 84924   0.328E-02    0.430E-02
DAV:  15    -0.795006914800E+03   -0.48097E-04   -0.46975E-05 84816   0.169E-02    0.283E-02
DAV:  16    -0.795006933784E+03   -0.18984E-04   -0.15672E-05 64020   0.910E-03    0.142E-02
DAV:  17    -0.795006939035E+03   -0.52513E-05   -0.53530E-06 58416   0.571E-03
   1 F= -.79500694E+03 E0= -.79500694E+03  d E =-.795007E+03  mag=    -0.0015
       N       E                     dE             d eps       ncg     rms          rms(c)
DAV:   1    -0.795039147890E+03   -0.32214E-01   -0.21614E-02 76836   0.238E-01    0.587E-02
DAV:   2    -0.795039170325E+03   -0.22434E-04   -0.45760E-04 90240   0.301E-02    0.223E-02
DAV:   3    -0.795039159070E+03    0.11255E-04   -0.16417E-05 79140   0.946E-03    0.113E-02
DAV:   4    -0.795039156533E+03    0.25364E-05   -0.99163E-06 55680   0.529E-03
   2 F= -.79503916E+03 E0= -.79503916E+03  d E =-.322175E-01  mag=    -0.0001
       N       E                     dE             d eps       ncg     rms          rms(c)
DAV:   1    -0.795624061414E+03   -0.58490E+00   -0.13457E+01 73488   0.595E+00    0.144E+00
DAV:   2    -0.795639305417E+03   -0.15244E-01   -0.27744E-01 89160   0.735E-01    0.523E-01
DAV:   3    -0.795633108430E+03    0.61970E-02   -0.98614E-03 91464   0.215E-01    0.272E-01
DAV:   4    -0.795631787459E+03    0.13210E-02   -0.54014E-03 90072   0.129E-01    0.110E-01
DAV:   5    -0.795631788922E+03   -0.14629E-05   -0.96221E-04 90180   0.578E-02    0.855E-02
DAV:   6    -0.795631776504E+03    0.12418E-04   -0.39525E-05 88032   0.167E-02    0.478E-02
DAV:   7    -0.795631754231E+03    0.22273E-04   -0.27225E-05 85560   0.139E-02    0.114E-02
DAV:   8    -0.795631752067E+03    0.21633E-05   -0.13873E-05 65352   0.981E-03
   3 F= -.79563175E+03 E0= -.79563175E+03  d E =-.592596E+00  mag=    -0.0000
       N       E                     dE             d eps       ncg     rms          rms(c)
DAV:   1    -0.796021680026E+03   -0.38993E+00   -0.18486E+01 73440   0.716E+00    0.120E+00
DAV:   2    -0.796052177822E+03   -0.30498E-01   -0.44216E-01 88872   0.989E-01    0.670E-01
DAV:   3    -0.796044576679E+03    0.76011E-02   -0.12344E-02 89532   0.235E-01    0.362E-01
DAV:   4    -0.796042039315E+03    0.25374E-02   -0.67609E-03 88356   0.150E-01    0.130E-01
DAV:   5    -0.796041823300E+03    0.21601E-03   -0.16238E-03 90264   0.918E-02    0.601E-02
DAV:   6    -0.796041835963E+03   -0.12662E-04   -0.29200E-04 88452   0.305E-02    0.515E-02
DAV:   7    -0.796041817010E+03    0.18953E-04   -0.30287E-05 82752   0.134E-02    0.273E-02
DAV:   8    -0.796041805978E+03    0.11032E-04   -0.15934E-05 76272   0.151E-02    0.678E-03
DAV:   9    -0.796041805539E+03    0.43933E-06   -0.13838E-05 62880   0.860E-03
   4 F= -.79604181E+03 E0= -.79604181E+03  d E =-.410053E+00  mag=    -0.0000
       N       E                     dE             d eps       ncg     rms          rms(c)
DAV:   1    -0.796172451208E+03   -0.13065E+00   -0.10832E+01 73440   0.549E+00    0.974E-01
DAV:   2    -0.796191622997E+03   -0.19172E-01   -0.25606E-01 88668   0.739E-01    0.442E-01
DAV:   3    -0.796188009002E+03    0.36140E-02   -0.74694E-03 89652   0.184E-01    0.241E-01
DAV:   4    -0.796187011289E+03    0.99771E-03   -0.34719E-03 88608   0.109E-01    0.988E-02
DAV:   5    -0.796186955278E+03    0.56012E-04   -0.62716E-04 89640   0.496E-02    0.543E-02
DAV:   6    -0.796186959353E+03   -0.40753E-05   -0.10153E-04 89724   0.208E-02    0.317E-02
DAV:   7    -0.796186950290E+03    0.90628E-05   -0.12527E-05 67788   0.114E-02
   5 F= -.79618695E+03 E0= -.79618695E+03  d E =-.145145E+00  mag=    -0.0000
       N       E                     dE             d eps       ncg     rms          rms(c)
DAV:   1    -0.796247792635E+03   -0.60833E-01   -0.14511E+01 73440   0.638E+00    0.130E+00
DAV:   2    -0.796272141193E+03   -0.24349E-01   -0.33086E-01 89520   0.869E-01    0.493E-01
DAV:   3    -0.796268301998E+03    0.38392E-02   -0.11678E-02 90492   0.210E-01    0.277E-01
DAV:   4    -0.796267121935E+03    0.11801E-02   -0.36212E-03 89112   0.121E-01    0.127E-01
DAV:   5    -0.796266972921E+03    0.14901E-03   -0.80362E-04 89964   0.672E-02    0.549E-02
DAV:   6    -0.796266970911E+03    0.20096E-05   -0.26909E-04 89568   0.334E-02    0.429E-02
DAV:   7    -0.796266958340E+03    0.12571E-04   -0.19090E-05 72744   0.120E-02    0.223E-02
DAV:   8    -0.796266951237E+03    0.71030E-05   -0.15507E-05 73248   0.115E-02
   6 F= -.79626695E+03 E0= -.79626695E+03  d E =-.800009E-01  mag=     0.0000
       N       E                     dE             d eps       ncg     rms          rms(c)
DAV:   1    -0.796207399253E+03    0.59559E-01   -0.24755E+01 73440   0.851E+00    0.222E+00
DAV:   2    -0.796247721054E+03   -0.40322E-01   -0.63070E-01 89676   0.131E+00    0.840E-01
DAV:   3    -0.796235341903E+03    0.12379E-01   -0.20753E-02 90876   0.316E-01    0.405E-01
DAV:   4    -0.796231103704E+03    0.42382E-02   -0.91148E-03 88476   0.222E-01    0.125E-01
DAV:   5    -0.796230717437E+03    0.38627E-03   -0.24623E-03 91536   0.128E-01    0.872E-02
DAV:   6    -0.796230619708E+03    0.97729E-04   -0.48316E-04 89340   0.476E-02    0.562E-02
DAV:   7    -0.796230519067E+03    0.10064E-03   -0.11235E-04 87384   0.345E-02    0.201E-02
DAV:   8    -0.796230489295E+03    0.29772E-04   -0.64152E-05 89760   0.327E-02    0.126E-02
DAV:   9    -0.796230490058E+03   -0.76330E-06   -0.58496E-05 88644   0.165E-02
   7 F= -.79623049E+03 E0= -.79623049E+03  d E =0.364612E-01  mag=    -0.0000
       N       E                     dE             d eps       ncg     rms          rms(c)
DAV:   1    -0.796304962235E+03   -0.74473E-01   -0.66481E+00 73440   0.427E+00    0.160E+00
DAV:   2    -0.796318498371E+03   -0.13536E-01   -0.21406E-01 90276   0.720E-01    0.604E-01
DAV:   3    -0.796312647714E+03    0.58507E-02   -0.57626E-03 90744   0.181E-01    0.285E-01
DAV:   4    -0.796310794506E+03    0.18532E-02   -0.42772E-03 88332   0.167E-01    0.779E-02
DAV:   5    -0.796310763229E+03    0.31276E-04   -0.15588E-03 91992   0.912E-02    0.648E-02
DAV:   6    -0.796310728158E+03    0.35071E-04   -0.16017E-04 89064   0.235E-02    0.440E-02
DAV:   7    -0.796310694164E+03    0.33994E-04   -0.49129E-05 85176   0.142E-02    0.225E-02
DAV:   8    -0.796310672812E+03    0.21352E-04   -0.43507E-05 88128   0.236E-02    0.105E-02
DAV:   9    -0.796310671956E+03    0.85584E-06   -0.17278E-05 64308   0.997E-03
   8 F= -.79631067E+03 E0= -.79631067E+03  d E =-.801819E-01  mag=     0.0000
       N       E                     dE             d eps       ncg     rms          rms(c)
DAV:   1    -0.796316102245E+03   -0.54294E-02   -0.54172E-01 73728   0.116E+00    0.260E-01
DAV:   2    -0.796317178286E+03   -0.10760E-02   -0.12566E-02 88308   0.160E-01    0.876E-02
DAV:   3    -0.796317043863E+03    0.13442E-03   -0.19341E-04 90600   0.301E-02    0.451E-02
DAV:   4    -0.796317003226E+03    0.40637E-04   -0.15490E-04 87900   0.252E-02    0.140E-02
DAV:   5    -0.796317003360E+03   -0.13385E-06   -0.30953E-05 72768   0.112E-02
   9 F= -.79631700E+03 E0= -.79631700E+03  d E =-.633140E-02  mag=    -0.0000
       N       E                     dE             d eps       ncg     rms          rms(c)
DAV:   1    -0.796319584308E+03   -0.25811E-02   -0.68945E+00 73440   0.407E+00    0.594E-01
DAV:   2    -0.796332030355E+03   -0.12446E-01   -0.14374E-01 87852   0.519E-01    0.250E-01
DAV:   3    -0.796330937042E+03    0.10933E-02   -0.18145E-03 90696   0.832E-02    0.149E-01
DAV:   4    -0.796330452558E+03    0.48448E-03   -0.21489E-03 87504   0.962E-02    0.479E-02
DAV:   5    -0.796330459769E+03   -0.72104E-05   -0.45037E-04 87840   0.380E-02    0.362E-02
DAV:   6    -0.796330452775E+03    0.69937E-05   -0.12252E-04 85608   0.199E-02    0.164E-02
DAV:   7    -0.796330449477E+03    0.32980E-05   -0.74567E-06 57852   0.835E-03
  10 F= -.79633045E+03 E0= -.79633045E+03  d E =-.134461E-01  mag=     0.0000
       N       E                     dE             d eps       ncg     rms          rms(c)
DAV:   1    -0.796311636731E+03    0.18816E-01   -0.14438E+01 73440   0.615E+00    0.114E+00
DAV:   2    -0.796340195507E+03   -0.28559E-01   -0.32750E-01 87420   0.832E-01    0.431E-01
DAV:   3    -0.796337323217E+03    0.28723E-02   -0.45166E-03 90348   0.144E-01    0.236E-01
DAV:   4    -0.796336196871E+03    0.11263E-02   -0.38206E-03 88056   0.136E-01    0.740E-02
DAV:   5    -0.796336166169E+03    0.30702E-04   -0.84968E-04 90072   0.662E-02    0.530E-02
DAV:   6    -0.796336149018E+03    0.17151E-04   -0.18846E-04 88104   0.266E-02    0.273E-02
DAV:   7    -0.796336133132E+03    0.15886E-04   -0.88834E-06 71172   0.152E-02    0.152E-02
DAV:   8    -0.796336124996E+03    0.81351E-05   -0.20746E-05 76680   0.164E-02
  11 F= -.79633612E+03 E0= -.79633612E+03  d E =-.567552E-02  mag=     0.0000
       N       E                     dE             d eps       ncg     rms          rms(c)
DAV:   1    -0.796284984372E+03    0.51149E-01   -0.31532E+01 73440   0.922E+00    0.135E+00
DAV:   2    -0.796346058124E+03   -0.61074E-01   -0.69429E-01 87348   0.123E+00    0.579E-01
DAV:   3    -0.796340547757E+03    0.55104E-02   -0.88086E-03 90624   0.203E-01    0.332E-01
DAV:   4    -0.796338086240E+03    0.24615E-02   -0.84984E-03 88080   0.206E-01    0.106E-01
DAV:   5    -0.796338067499E+03    0.18741E-04   -0.19533E-03 90336   0.939E-02    0.749E-02
DAV:   6    -0.796338024214E+03    0.43285E-04   -0.42862E-04 87672   0.406E-02    0.373E-02
DAV:   7    -0.796337996170E+03    0.28044E-04   -0.19496E-05 74784   0.200E-02    0.212E-02
DAV:   8    -0.796337978583E+03    0.17587E-04   -0.33686E-05 82956   0.223E-02    0.666E-03
DAV:   9    -0.796337977073E+03    0.15099E-05   -0.16146E-05 64752   0.116E-02
  12 F= -.79633798E+03 E0= -.79633798E+03  d E =-.185208E-02  mag=     0.0000
       N       E                     dE             d eps       ncg     rms          rms(c)
DAV:   1    -0.796338397362E+03   -0.41878E-03   -0.44299E+00 73440   0.346E+00    0.107E+00
DAV:   2    -0.796348264897E+03   -0.98675E-02   -0.12419E-01 90084   0.535E-01    0.362E-01
DAV:   3    -0.796346312245E+03    0.19527E-02   -0.26161E-03 91512   0.116E-01    0.168E-01
DAV:   4    -0.796345796640E+03    0.51560E-03   -0.16965E-03 88452   0.900E-02    0.540E-02
DAV:   5    -0.796345783968E+03    0.12672E-04   -0.45148E-04 90420   0.530E-02    0.408E-02
DAV:   6    -0.796345778368E+03    0.56009E-05   -0.62725E-05 83136   0.158E-02
  13 F= -.79634578E+03 E0= -.79634578E+03  d E =-.780129E-02  mag=    -0.0000
       N       E                     dE             d eps       ncg     rms          rms(c)
DAV:   1    -0.796351608735E+03   -0.58248E-02   -0.17111E+00 73440   0.207E+00    0.630E-01
DAV:   2    -0.796355180128E+03   -0.35714E-02   -0.44097E-02 89712   0.298E-01    0.187E-01
DAV:   3    -0.796354540780E+03    0.63935E-03   -0.78018E-04 90804   0.601E-02    0.968E-02
DAV:   4    -0.796354325204E+03    0.21558E-03   -0.63397E-04 88344   0.558E-02    0.296E-02
DAV:   5    -0.796354327240E+03   -0.20362E-05   -0.17821E-04 90420   0.276E-02    0.265E-02
DAV:   6    -0.796354323034E+03    0.42062E-05   -0.18299E-05 60744   0.821E-03
  14 F= -.79635432E+03 E0= -.79635432E+03  d E =-.854467E-02  mag=     0.0000
       N       E                     dE             d eps       ncg     rms          rms(c)
DAV:   1    -0.796355184075E+03   -0.85683E-03   -0.86884E-02 73872   0.519E-01    0.100E-01
DAV:   2    -0.796355359360E+03   -0.17529E-03   -0.21092E-03 89280   0.740E-02    0.401E-02
DAV:   3    -0.796355337116E+03    0.22244E-04   -0.40851E-05 85980   0.149E-02    0.213E-02
DAV:   4    -0.796355331337E+03    0.57793E-05   -0.27394E-05 76644   0.117E-02
  15 F= -.79635533E+03 E0= -.79635533E+03  d E =-.100830E-02  mag=    -0.0000
       N       E                     dE             d eps       ncg     rms          rms(c)
DAV:   1    -0.796345913377E+03    0.94237E-02   -0.72353E+00 73440   0.473E+00    0.576E-01
DAV:   2    -0.796359989327E+03   -0.14076E-01   -0.15760E-01 86412   0.639E-01    0.267E-01
DAV:   3    -0.796358990602E+03    0.99873E-03   -0.19084E-03 90480   0.985E-02    0.163E-01
DAV:   4    -0.796358571646E+03    0.41896E-03   -0.20960E-03 88752   0.109E-01    0.560E-02
DAV:   5    -0.796358571220E+03    0.42594E-06   -0.43850E-04 87828   0.441E-02    0.396E-02
DAV:   6    -0.796358566914E+03    0.43055E-05   -0.14511E-04 87516   0.235E-02    0.175E-02
DAV:   7    -0.796358563236E+03    0.36780E-05   -0.11195E-05 54588   0.929E-03
  16 F= -.79635856E+03 E0= -.79635856E+03  d E =-.323190E-02  mag=     0.0000
       N       E                     dE             d eps       ncg     rms          rms(c)
DAV:   1    -0.796340017645E+03    0.18549E-01   -0.81780E+00 73440   0.506E+00    0.875E-01
DAV:   2    -0.796356598310E+03   -0.16581E-01   -0.18784E-01 88200   0.708E-01    0.335E-01
DAV:   3    -0.796355123884E+03    0.14744E-02   -0.29150E-03 91404   0.124E-01    0.180E-01
DAV:   4    -0.796354699267E+03    0.42462E-03   -0.22301E-03 89268   0.106E-01    0.638E-02
DAV:   5    -0.796354681247E+03    0.18020E-04   -0.42920E-04 89772   0.510E-02    0.442E-02
DAV:   6    -0.796354677950E+03    0.32968E-05   -0.12039E-04 88020   0.230E-02    0.217E-02
DAV:   7    -0.796354670591E+03    0.73586E-05   -0.82836E-06 58404   0.112E-02
  17 F= -.79635467E+03 E0= -.79635467E+03  d E =0.389264E-02  mag=     0.0000
       N       E                     dE             d eps       ncg     rms          rms(c)
DAV:   1    -0.796356187524E+03   -0.15096E-02   -0.15953E+00 73440   0.228E+00    0.665E-01
DAV:   2    -0.796359887531E+03   -0.37000E-02   -0.47886E-02 90252   0.368E-01    0.237E-01
DAV:   3    -0.796359088850E+03    0.79868E-03   -0.11786E-03 91848   0.854E-02    0.113E-01
DAV:   4    -0.796358877497E+03    0.21135E-03   -0.68527E-04 89472   0.626E-02    0.413E-02
DAV:   5    -0.796358869796E+03    0.77003E-05   -0.18903E-04 91404   0.360E-02    0.289E-02
DAV:   6    -0.796358866422E+03    0.33748E-05   -0.28358E-05 65148   0.110E-02
  18 F= -.79635887E+03 E0= -.79635887E+03  d E =-.419583E-02  mag=    -0.0000
       N       E                     dE             d eps       ncg     rms          rms(c)
DAV:   1    -0.796361390715E+03   -0.25209E-02   -0.26191E-01 73524   0.904E-01    0.333E-01
DAV:   2    -0.796362144578E+03   -0.75386E-03   -0.94835E-03 89904   0.156E-01    0.121E-01
DAV:   3    -0.796361949701E+03    0.19488E-03   -0.21385E-04 90660   0.340E-02    0.500E-02
DAV:   4    -0.796361901846E+03    0.47856E-04   -0.13260E-04 88680   0.258E-02    0.155E-02
DAV:   5    -0.796361901113E+03    0.73292E-06   -0.38234E-05 79656   0.144E-02
  19 F= -.79636190E+03 E0= -.79636190E+03  d E =-.303469E-02  mag=     0.0000
