       N       E                     dE             d eps       ncg     rms          rms(c)
DAV:   1     0.830631504021E+04    0.83063E+04   -0.23603E+05 34308   0.219E+03
DAV:   2     0.121707125856E+04   -0.70892E+04   -0.66616E+04 33696   0.635E+02
DAV:   3    -0.317903000712E+03   -0.15350E+04   -0.13448E+04 35904   0.272E+02
DAV:   4    -0.471450142174E+03   -0.15355E+03   -0.15093E+03 36840   0.832E+01
DAV:   5    -0.473989466596E+03   -0.25393E+01   -0.25288E+01 36768   0.121E+01    0.107E+02
DAV:   6    -0.514045366989E+03   -0.40056E+02   -0.90032E+02 45516   0.120E+02    0.135E+02
DAV:   7    -0.423385278583E+03    0.90660E+02   -0.30076E+02 38256   0.114E+02    0.795E+01
DAV:   8    -0.409718490167E+03    0.13667E+02   -0.15582E+02 41640   0.453E+01    0.594E+01
DAV:   9    -0.419976486780E+03   -0.10258E+02   -0.73264E+01 36960   0.615E+01    0.829E+01
DAV:  10    -0.414916348714E+03    0.50601E+01   -0.65756E+01 37884   0.427E+01    0.603E+01
DAV:  11    -0.411145333958E+03    0.37710E+01   -0.28593E+01 37620   0.232E+01    0.439E+01
DAV:  12    -0.404997087140E+03    0.61482E+01   -0.40971E+01 37248   0.237E+01    0.285E+01
DAV:  13    -0.403290731666E+03    0.17064E+01   -0.45948E+00 37044   0.183E+01    0.214E+01
DAV:  14    -0.403816082305E+03   -0.52535E+00   -0.40196E+00 36924   0.104E+01    0.188E+01
DAV:  15    -0.404302760322E+03   -0.48668E+00   -0.89189E-01 37404   0.592E+00    0.147E+01
DAV:  16    -0.404776326101E+03   -0.47357E+00   -0.66839E-01 37656   0.700E+00    0.109E+01
DAV:  17    -0.405649124990E+03   -0.87280E+00   -0.25134E+00 41028   0.625E+00    0.103E+01
DAV:  18    -0.405449349965E+03    0.19978E+00   -0.63371E-01 37176   0.564E+00    0.101E+01
DAV:  19    -0.405325535278E+03    0.12381E+00   -0.28184E-01 36864   0.379E+00    0.724E+00
DAV:  20    -0.405285257436E+03    0.40278E-01   -0.10729E-01 42480   0.251E+00    0.488E+00
DAV:  21    -0.405219115005E+03    0.66142E-01   -0.87810E-02 46824   0.288E+00    0.301E+00
DAV:  22    -0.405214566547E+03    0.45485E-02   -0.86585E-02 46116   0.230E+00    0.193E+00
DAV:  23    -0.405219320631E+03   -0.47541E-02   -0.57906E-02 42444   0.172E+00    0.140E+00
DAV:  24    -0.405219437290E+03   -0.11666E-03   -0.31908E-02 40500   0.143E+00    0.932E-01
DAV:  25    -0.405225321442E+03   -0.58842E-02   -0.39235E-02 38544   0.792E-01    0.839E-01
DAV:  26    -0.405228925461E+03   -0.36040E-02   -0.15097E-02 36924   0.392E-01    0.805E-01
DAV:  27    -0.405231238768E+03   -0.23133E-02   -0.27377E-03 38304   0.307E-01    0.747E-01
DAV:  28    -0.405237547176E+03   -0.63084E-02   -0.17520E-02 46212   0.108E+00    0.467E-01
DAV:  29    -0.405239402435E+03   -0.18553E-02   -0.93464E-03 44052   0.741E-01    0.365E-01
DAV:  30    -0.405240241121E+03   -0.83869E-03   -0.78760E-03 36444   0.242E-01    0.294E-01
DAV:  31    -0.405240883485E+03   -0.64236E-03   -0.10515E-03 43668   0.224E-01    0.245E-01
DAV:  32    -0.405241009799E+03   -0.12631E-03   -0.36521E-04 41520   0.132E-01    0.207E-01
DAV:  33    -0.405241176986E+03   -0.16719E-03   -0.20586E-04 46296   0.138E-01    0.163E-01
DAV:  34    -0.405241324516E+03   -0.14753E-03   -0.36925E-04 39780   0.803E-02    0.127E-01
DAV:  35    -0.405241452539E+03   -0.12802E-03   -0.79348E-05 38052   0.814E-02    0.105E-01
DAV:  36    -0.405241686799E+03   -0.23426E-03   -0.11401E-04 41760   0.905E-02    0.729E-02
DAV:  37    -0.405242007535E+03   -0.32074E-03   -0.29211E-04 43236   0.130E-01    0.626E-02
DAV:  38    -0.405242223180E+03   -0.21565E-03   -0.30428E-04 41928   0.788E-02    0.622E-02
DAV:  39    -0.405242341132E+03   -0.11795E-03   -0.10309E-04 38904   0.576E-02    0.498E-02
DAV:  40    -0.405242473140E+03   -0.13201E-03   -0.82489E-05 36624   0.776E-02    0.402E-02
DAV:  41    -0.405242592285E+03   -0.11915E-03   -0.22146E-04 39276   0.108E-01    0.336E-02
DAV:  42    -0.405242648892E+03   -0.56606E-04   -0.20407E-04 38328   0.481E-02    0.279E-02
DAV:  43    -0.405242667725E+03   -0.18833E-04   -0.33033E-05 32160   0.331E-02    0.196E-02
DAV:  44    -0.405242677019E+03   -0.92937E-05   -0.22053E-05 27216   0.279E-02
   1 F= -.40524268E+03 E0= -.40524268E+03  d E =-.405243E+03  mag=     1.0006
       N       E                     dE             d eps       ncg     rms          rms(c)
DAV:   1    -0.405246817241E+03   -0.41495E-02   -0.43366E-03 48444   0.629E-01    0.360E-02
DAV:   2    -0.405246979741E+03   -0.16250E-03   -0.16687E-03 37980   0.880E-02    0.279E-02
DAV:   3    -0.405246982976E+03   -0.32341E-05   -0.75493E-05 33768   0.467E-02    0.211E-02
DAV:   4    -0.405246981475E+03    0.15005E-05   -0.80873E-06 20856   0.223E-02
   2 F= -.40524698E+03 E0= -.40524698E+03  d E =-.430446E-02  mag=     1.0001
       N       E                     dE             d eps       ncg     rms          rms(c)
DAV:   1    -0.405130537654E+03    0.11645E+00   -0.69223E+00 48060   0.250E+01    0.138E+00
DAV:   2    -0.405390164998E+03   -0.25963E+00   -0.26749E+00 37560   0.323E+00    0.925E-01
DAV:   3    -0.405392202427E+03   -0.20374E-02   -0.64382E-02 37368   0.125E+00    0.732E-01
DAV:   4    -0.405390512517E+03    0.16899E-02   -0.98344E-03 36768   0.805E-01    0.521E-01
DAV:   5    -0.405390961475E+03   -0.44896E-03   -0.63122E-03 38808   0.583E-01    0.436E-01
DAV:   6    -0.405389905635E+03    0.10558E-02   -0.51097E-03 37020   0.533E-01    0.101E-01
DAV:   7    -0.405389970656E+03   -0.65021E-04   -0.11377E-03 37620   0.159E-01    0.682E-02
DAV:   8    -0.405389942983E+03    0.27672E-04   -0.21763E-04 36744   0.864E-02    0.357E-02
DAV:   9    -0.405389931094E+03    0.11889E-04   -0.48816E-05 33972   0.375E-02    0.212E-02
DAV:  10    -0.405389930177E+03    0.91700E-06   -0.28776E-05 27912   0.414E-02
   3 F= -.40538993E+03 E0= -.40538993E+03  d E =-.142949E+00  mag=     1.0000
       N       E                     dE             d eps       ncg     rms          rms(c)
DAV:   1    -0.404914265303E+03    0.47567E+00   -0.22655E+01 44580   0.360E+01    0.235E+00
DAV:   2    -0.405556443752E+03   -0.64218E+00   -0.65753E+00 36960   0.517E+00    0.172E+00
DAV:   3    -0.405563894350E+03   -0.74506E-02   -0.26268E-01 36756   0.252E+00    0.127E+00
DAV:   4    -0.405557984225E+03    0.59101E-02   -0.33072E-02 38592   0.141E+00    0.867E-01
DAV:   5    -0.405559739752E+03   -0.17555E-02   -0.16702E-02 37692   0.970E-01    0.779E-01
DAV:   6    -0.405556374547E+03    0.33652E-02   -0.14723E-02 36900   0.841E-01    0.179E-01
DAV:   7    -0.405556592905E+03   -0.21836E-03   -0.38321E-03 37356   0.286E-01    0.131E-01
DAV:   8    -0.405556494340E+03    0.98565E-04   -0.79219E-04 36768   0.163E-01    0.586E-02
DAV:   9    -0.405556464175E+03    0.30165E-04   -0.13777E-04 37848   0.576E-02    0.364E-02
DAV:  10    -0.405556464175E+03    0.66939E-09   -0.93246E-05 37164   0.793E-02
   4 F= -.40555646E+03 E0= -.40555646E+03  d E =-.166534E+00  mag=     1.0000
       N       E                     dE             d eps       ncg     rms          rms(c)
DAV:   1    -0.405483010458E+03    0.73454E-01   -0.12025E+01 42180   0.200E+01    0.119E+00
DAV:   2    -0.405662301642E+03   -0.17929E+00   -0.18509E+00 36816   0.322E+00    0.978E-01
DAV:   3    -0.405663895788E+03   -0.15941E-02   -0.82350E-02 36780   0.146E+00    0.715E-01
DAV:   4    -0.405661902572E+03    0.19932E-02   -0.10427E-02 38076   0.821E-01    0.493E-01
DAV:   5    -0.405662016821E+03   -0.11425E-03   -0.63201E-03 41304   0.571E-01    0.418E-01
DAV:   6    -0.405660973891E+03    0.10429E-02   -0.54734E-03 37128   0.499E-01    0.111E-01
DAV:   7    -0.405661024891E+03   -0.51000E-04   -0.14388E-03 36948   0.194E-01    0.777E-02
DAV:   8    -0.405661002764E+03    0.22128E-04   -0.36659E-04 37632   0.113E-01    0.394E-02
DAV:   9    -0.405660992686E+03    0.10077E-04   -0.72199E-05 35628   0.444E-02    0.259E-02
DAV:  10    -0.405660995270E+03   -0.25838E-05   -0.38479E-05 33276   0.508E-02
   5 F= -.40566100E+03 E0= -.40566100E+03  d E =-.104531E+00  mag=     1.0000
       N       E                     dE             d eps       ncg     rms          rms(c)
DAV:   1    -0.405497248362E+03    0.16374E+00   -0.18824E+01 41388   0.244E+01    0.136E+00
DAV:   2    -0.405764843795E+03   -0.26760E+00   -0.27759E+00 37668   0.370E+00    0.872E-01
DAV:   3    -0.405766712952E+03   -0.18692E-02   -0.79523E-02 37416   0.140E+00    0.638E-01
DAV:   4    -0.405765125429E+03    0.15875E-02   -0.12914E-02 38124   0.935E-01    0.460E-01
DAV:   5    -0.405764374471E+03    0.75096E-03   -0.53137E-03 40260   0.444E-01    0.260E-01
DAV:   6    -0.405764360663E+03    0.13808E-04   -0.36182E-03 37008   0.385E-01    0.171E-01
DAV:   7    -0.405764253611E+03    0.10705E-03   -0.11147E-03 39036   0.210E-01    0.736E-02
DAV:   8    -0.405764253659E+03   -0.48458E-07   -0.26868E-04 38892   0.925E-02    0.490E-02
DAV:   9    -0.405764250743E+03    0.29165E-05   -0.10665E-04 36288   0.629E-02    0.332E-02
DAV:  10    -0.405764257994E+03   -0.72516E-05   -0.36030E-05 32424   0.423E-02
   6 F= -.40576426E+03 E0= -.40576426E+03  d E =-.103263E+00  mag=     1.0000
       N       E                     dE             d eps       ncg     rms          rms(c)
DAV:   1    -0.405167392151E+03    0.59686E+00   -0.19243E+01 45576   0.418E+01    0.215E+00
DAV:   2    -0.405800507555E+03   -0.63312E+00   -0.65688E+00 37044   0.556E+00    0.136E+00
DAV:   3    -0.405809348357E+03   -0.88408E-02   -0.19815E-01 37356   0.223E+00    0.104E+00
DAV:   4    -0.405805551385E+03    0.37970E-02   -0.28381E-02 37560   0.147E+00    0.726E-01
DAV:   5    -0.405805325292E+03    0.22609E-03   -0.14058E-02 39048   0.696E-01    0.454E-01
DAV:   6    -0.405804713759E+03    0.61153E-03   -0.84824E-03 36636   0.672E-01    0.236E-01
DAV:   7    -0.405804521888E+03    0.19187E-03   -0.20912E-03 37680   0.275E-01    0.918E-02
DAV:   8    -0.405804516820E+03    0.50687E-05   -0.57720E-04 36576   0.125E-01    0.601E-02
DAV:   9    -0.405804504645E+03    0.12175E-04   -0.15306E-04 36840   0.920E-02    0.395E-02
DAV:  10    -0.405804500355E+03    0.42894E-05   -0.64507E-05 34752   0.600E-02
   7 F= -.40580450E+03 E0= -.40580450E+03  d E =-.402424E-01  mag=     1.0000
       N       E                     dE             d eps       ncg     rms          rms(c)
DAV:   1    -0.405701369125E+03    0.10314E+00   -0.25422E+00 48636   0.194E+01    0.964E-01
DAV:   2    -0.405830702805E+03   -0.12933E+00   -0.13475E+00 37560   0.226E+00    0.537E-01
DAV:   3    -0.405832376457E+03   -0.16737E-02   -0.27824E-02 38304   0.640E-01    0.395E-01
DAV:   4    -0.405832328077E+03    0.48380E-04   -0.39016E-03 37452   0.553E-01    0.323E-01
DAV:   5    -0.405832152914E+03    0.17516E-03   -0.20746E-03 39912   0.342E-01    0.158E-01
DAV:   6    -0.405832098239E+03    0.54675E-04   -0.10996E-03 38160   0.243E-01    0.852E-02
DAV:   7    -0.405832076794E+03    0.21445E-04   -0.31919E-04 37440   0.113E-01    0.363E-02
DAV:   8    -0.405832075712E+03    0.10814E-05   -0.74167E-05 35832   0.528E-02
   8 F= -.40583208E+03 E0= -.40583208E+03  d E =-.275754E-01  mag=     1.0000
       N       E                     dE             d eps       ncg     rms          rms(c)
DAV:   1    -0.405821916119E+03    0.10161E-01   -0.81522E-01 45588   0.777E+00    0.393E-01
DAV:   2    -0.405844592184E+03   -0.22676E-01   -0.23362E-01 37080   0.100E+00    0.231E-01
DAV:   3    -0.405844774896E+03   -0.18271E-03   -0.43582E-03 37560   0.285E-01    0.170E-01
DAV:   4    -0.405844758686E+03    0.16211E-04   -0.82321E-04 38436   0.245E-01    0.138E-01
DAV:   5    -0.405844735475E+03    0.23211E-04   -0.43083E-04 40044   0.148E-01    0.715E-02
DAV:   6    -0.405844722096E+03    0.13379E-04   -0.24537E-04 38832   0.107E-01    0.354E-02
DAV:   7    -0.405844720375E+03    0.17213E-05   -0.63694E-05 35388   0.482E-02
   9 F= -.40584472E+03 E0= -.40584472E+03  d E =-.126447E-01  mag=     1.0000
       N       E                     dE             d eps       ncg     rms          rms(c)
DAV:   1    -0.405775990156E+03    0.68732E-01   -0.43213E+00 45240   0.161E+01    0.831E-01
DAV:   2    -0.405877470518E+03   -0.10148E+00   -0.10393E+00 37104   0.214E+00    0.497E-01
DAV:   3    -0.405878022237E+03   -0.55172E-03   -0.20496E-02 36816   0.762E-01    0.367E-01
DAV:   4    -0.405877687854E+03    0.33438E-03   -0.39555E-03 38244   0.537E-01    0.273E-01
DAV:   5    -0.405877635859E+03    0.51995E-04   -0.18638E-03 42516   0.278E-01    0.148E-01
DAV:   6    -0.405877611538E+03    0.24322E-04   -0.11247E-03 37200   0.223E-01    0.824E-02
DAV:   7    -0.405877596592E+03    0.14945E-04   -0.28397E-04 36684   0.958E-02    0.355E-02
DAV:   8    -0.405877598682E+03   -0.20892E-05   -0.69401E-05 34572   0.429E-02
  10 F= -.40587760E+03 E0= -.40587760E+03  d E =-.328783E-01  mag=     1.0000
       N       E                     dE             d eps       ncg     rms          rms(c)
DAV:   1    -0.405678417954E+03    0.19918E+00   -0.73745E+00 45732   0.251E+01    0.125E+00
DAV:   2    -0.405906877646E+03   -0.22846E+00   -0.23526E+00 37128   0.328E+00    0.732E-01
DAV:   3    -0.405909035865E+03   -0.21582E-02   -0.49422E-02 37368   0.111E+00    0.545E-01
DAV:   4    -0.405908542286E+03    0.49358E-03   -0.95410E-03 39108   0.756E-01    0.421E-01
DAV:   5    -0.405908338994E+03    0.20329E-03   -0.37725E-03 37548   0.406E-01    0.264E-01
DAV:   6    -0.405908114255E+03    0.22474E-03   -0.24804E-03 36588   0.412E-01    0.113E-01
DAV:   7    -0.405908113167E+03    0.10881E-05   -0.66518E-04 37608   0.153E-01    0.500E-02
DAV:   8    -0.405908118377E+03   -0.52093E-05   -0.17481E-04 36324   0.659E-02    0.341E-02
DAV:   9    -0.405908116339E+03    0.20376E-05   -0.37582E-05 31812   0.441E-02
  11 F= -.40590812E+03 E0= -.40590812E+03  d E =-.305177E-01  mag=     1.0000
       N       E                     dE             d eps       ncg     rms          rms(c)
DAV:   1    -0.405789975345E+03    0.11814E+00   -0.28243E+00 46920   0.201E+01    0.969E-01
DAV:   2    -0.405923748261E+03   -0.13377E+00   -0.13978E+00 36852   0.243E+00    0.553E-01
DAV:   3    -0.405925689462E+03   -0.19412E-02   -0.33575E-02 37320   0.773E-01    0.411E-01
DAV:   4    -0.405925444839E+03    0.24462E-03   -0.51779E-03 37212   0.575E-01    0.318E-01
DAV:   5    -0.405925352204E+03    0.92635E-04   -0.25699E-03 40728   0.329E-01    0.165E-01
DAV:   6    -0.405925300042E+03    0.52162E-04   -0.12464E-03 37824   0.244E-01    0.962E-02
DAV:   7    -0.405925263949E+03    0.36093E-04   -0.36166E-04 37548   0.121E-01    0.377E-02
DAV:   8    -0.405925260826E+03    0.31237E-05   -0.75142E-05 34980   0.493E-02
  12 F= -.40592526E+03 E0= -.40592526E+03  d E =-.171445E-01  mag=     1.0000
       N       E                     dE             d eps       ncg     rms          rms(c)
DAV:   1    -0.405901124611E+03    0.24139E-01   -0.59971E-01 45504   0.691E+00    0.347E-01
DAV:   2    -0.405918782479E+03   -0.17658E-01   -0.18249E-01 36552   0.897E-01    0.198E-01
DAV:   3    -0.405918986229E+03   -0.20375E-03   -0.43459E-03 37332   0.286E-01    0.148E-01
DAV:   4    -0.405918954147E+03    0.32082E-04   -0.77935E-04 38256   0.223E-01    0.115E-01
DAV:   5    -0.405918926685E+03    0.27462E-04   -0.34514E-04 40416   0.118E-01    0.629E-02
DAV:   6    -0.405918918048E+03    0.86371E-05   -0.17699E-04 37464   0.938E-02    0.350E-02
DAV:   7    -0.405918914677E+03    0.33714E-05   -0.53807E-05 33312   0.456E-02
  13 F= -.40591891E+03 E0= -.40591891E+03  d E =0.634615E-02  mag=     1.0000
       N       E                     dE             d eps       ncg     rms          rms(c)
DAV:   1    -0.405907437654E+03    0.11480E-01   -0.39140E-01 45552   0.520E+00    0.256E-01
DAV:   2    -0.405917422378E+03   -0.99847E-02   -0.10176E-01 36312   0.687E-01    0.140E-01
DAV:   3    -0.405917499510E+03   -0.77132E-04   -0.18593E-03 37848   0.157E-01    0.980E-02
DAV:   4    -0.405917508050E+03   -0.85401E-05   -0.37607E-04 39264   0.150E-01    0.834E-02
DAV:   5    -0.405917471983E+03    0.36067E-04   -0.17058E-04 40692   0.108E-01    0.266E-02
DAV:   6    -0.405917480059E+03   -0.80756E-05   -0.74415E-05 36684   0.430E-02
  14 F= -.40591748E+03 E0= -.40591748E+03  d E =0.143462E-02  mag=     1.0000
       N       E                     dE             d eps       ncg     rms          rms(c)
DAV:   1    -0.405777577330E+03    0.13989E+00   -0.54675E+00 45576   0.194E+01    0.962E-01
DAV:   2    -0.405920775367E+03   -0.14320E+00   -0.14571E+00 37704   0.256E+00    0.537E-01
DAV:   3    -0.405921448759E+03   -0.67339E-03   -0.20884E-02 37932   0.661E-01    0.400E-01
DAV:   4    -0.405921254586E+03    0.19417E-03   -0.46039E-03 38280   0.521E-01    0.325E-01
DAV:   5    -0.405920904569E+03    0.35002E-03   -0.22648E-03 40356   0.325E-01    0.169E-01
DAV:   6    -0.405920835209E+03    0.69361E-04   -0.13229E-03 37188   0.292E-01    0.776E-02
DAV:   7    -0.405920832122E+03    0.30867E-05   -0.37818E-04 36972   0.118E-01    0.369E-02
DAV:   8    -0.405920829158E+03    0.29647E-05   -0.75455E-05 34176   0.442E-02
  15 F= -.40592083E+03 E0= -.40592083E+03  d E =-.334910E-02  mag=     1.0000
       N       E                     dE             d eps       ncg     rms          rms(c)
DAV:   1    -0.405619308216E+03    0.30152E+00   -0.10497E+01 45708   0.280E+01    0.142E+00
DAV:   2    -0.405920676737E+03   -0.30137E+00   -0.30828E+00 36492   0.363E+00    0.779E-01
DAV:   3    -0.405923726050E+03   -0.30493E-02   -0.60382E-02 36780   0.955E-01    0.567E-01
DAV:   4    -0.405923611786E+03    0.11426E-03   -0.11208E-02 38232   0.809E-01    0.463E-01
DAV:   5    -0.405922969887E+03    0.64190E-03   -0.49259E-03 39300   0.508E-01    0.215E-01
DAV:   6    -0.405922994918E+03   -0.25032E-04   -0.27335E-03 38064   0.325E-01    0.138E-01
DAV:   7    -0.405922926398E+03    0.68521E-04   -0.74953E-04 36636   0.173E-01    0.563E-02
DAV:   8    -0.405922916574E+03    0.98239E-05   -0.12439E-04 36180   0.623E-02    0.370E-02
DAV:   9    -0.405922907056E+03    0.95180E-05   -0.47772E-05 33120   0.426E-02
  16 F= -.40592291E+03 E0= -.40592291E+03  d E =-.207790E-02  mag=     1.0000
       N       E                     dE             d eps       ncg     rms          rms(c)
DAV:   1    -0.405843551557E+03    0.79365E-01   -0.18345E+00 47664   0.157E+01    0.760E-01
DAV:   2    -0.405927062828E+03   -0.83511E-01   -0.87244E-01 37788   0.193E+00    0.448E-01
DAV:   3    -0.405927875962E+03   -0.81313E-03   -0.17689E-02 37320   0.655E-01    0.330E-01
DAV:   4    -0.405927602905E+03    0.27306E-03   -0.28315E-03 37476   0.451E-01    0.247E-01
DAV:   5    -0.405927402310E+03    0.20060E-03   -0.14004E-03 42372   0.233E-01    0.799E-02
DAV:   6    -0.405927461509E+03   -0.59199E-04   -0.50324E-04 38028   0.109E-01    0.513E-02
DAV:   7    -0.405927457166E+03    0.43423E-05   -0.16680E-04 36648   0.867E-02    0.309E-02
DAV:   8    -0.405927451906E+03    0.52605E-05   -0.30470E-05 29076   0.358E-02
  17 F= -.40592745E+03 E0= -.40592745E+03  d E =-.454485E-02  mag=     1.0000
       N       E                     dE             d eps       ncg     rms          rms(c)
DAV:   1    -0.405923247724E+03    0.42094E-02   -0.15601E-01 47292   0.445E+00    0.219E-01
DAV:   2    -0.405930162339E+03   -0.69146E-02   -0.71759E-02 38148   0.553E-01    0.128E-01
DAV:   3    -0.405930209225E+03   -0.46886E-04   -0.12552E-03 38088   0.176E-01    0.940E-02
DAV:   4    -0.405930191682E+03    0.17543E-04   -0.21625E-04 35964   0.133E-01    0.724E-02
DAV:   5    -0.405930175156E+03    0.16526E-04   -0.11595E-04 39456   0.676E-02    0.196E-02
DAV:   6    -0.405930180143E+03   -0.49867E-05   -0.42299E-05 33168   0.356E-02
  18 F= -.40593018E+03 E0= -.40593018E+03  d E =-.272824E-02  mag=     1.0000
