       N       E                     dE             d eps       ncg     rms          ort
DAV:   1     0.283790360991E+04    0.28379E+04   -0.29253E+05  2880   0.140E+03
DAV:   2    -0.960235831643E+03   -0.37981E+04   -0.36692E+04  2880   0.313E+02
DAV:   3    -0.122174009287E+04   -0.26150E+03   -0.25939E+03  2880   0.854E+01
DAV:   4    -0.122488573267E+04   -0.31456E+01   -0.31341E+01  2880   0.994E+00
DAV:   5    -0.122493968758E+04   -0.53955E-01   -0.53830E-01  2880   0.119E+00
SDA:   6    -0.859149364395E+03    0.36579E+03   -0.53830E-01  2880   0.647E+03 0.000E+00
CGA:   7    -0.966821851823E+03   -0.10767E+03   -0.10823E+03  2880   0.109E+03 0.502E+01
CGA:   8    -0.985102910594E+03   -0.18281E+02   -0.14506E+02  2880   0.422E+02 0.423E+01
CGA:   9    -0.990895248030E+03   -0.57923E+01   -0.69183E+01  2880   0.444E+02 0.225E+02
CGA:  10    -0.991836111849E+03   -0.94086E+00   -0.39905E+01  2880   0.448E+02-0.203E+02
CGA:  11    -0.993421728606E+03   -0.15856E+01   -0.23896E+01  2880   0.305E+02 0.301E+01
CGA:  12    -0.994404154423E+03   -0.98243E+00   -0.32892E+01  2880   0.561E+02-0.167E+00
CGA:  13    -0.992474861135E+03    0.19293E+01   -0.39260E+01  2880   0.249E+02-0.159E+02
CGA:  14    -0.996539159324E+03   -0.40643E+01   -0.10429E+01  2880   0.528E+01 0.746E+01
CGA:  15    -0.996274430012E+03    0.26473E+00   -0.39154E+00  2880   0.446E+02-0.890E+01
CGA:  16    -0.995385903108E+03    0.88853E+00   -0.31666E+01  2880   0.210E+02-0.121E+02
CGA:  17    -0.997335770348E+03   -0.19499E+01   -0.62286E+00  2880   0.285E+01 0.130E+02
CGA:  18    -0.997393300566E+03   -0.57530E-01   -0.97967E-01  2880   0.226E+01-0.133E+01
CGA:  19    -0.997588888495E+03   -0.19559E+00   -0.19314E+00  2880   0.151E+01 0.831E-01
CGA:  20    -0.997699463830E+03   -0.11058E+00   -0.11399E+00  2880   0.710E+00 0.180E-02
CGA:  21    -0.997735786239E+03   -0.36322E-01   -0.44693E-01  2880   0.630E+00-0.162E+00
CGA:  22    -0.997829056444E+03   -0.93270E-01   -0.90876E-01  2880   0.284E+00 0.311E-01
CGA:  23    -0.997854753658E+03   -0.25697E-01   -0.25726E-01  2880   0.914E-01 0.102E-01
CGA:  24    -0.997855936654E+03   -0.11830E-02   -0.54402E-01  2880   0.978E+00-0.158E+00
CGA:  25    -0.997899846084E+03   -0.43909E-01   -0.59775E-01  2880   0.157E+00-0.231E+00
CGA:  26    -0.997911083692E+03   -0.11238E-01   -0.99365E-02  2880   0.199E-01-0.602E-03
CGA:  27    -0.997915293802E+03   -0.42101E-02   -0.49435E-02  2880   0.524E-01-0.756E-02
CGA:  28    -0.997916627254E+03   -0.13335E-02   -0.64749E-03  2880   0.437E-01 0.263E-01
CGA:  29    -0.997919097556E+03   -0.24703E-02   -0.26780E-02  2880   0.747E-02 0.156E-02
CGA:  30    -0.997920972334E+03   -0.18748E-02   -0.17029E-02  2880   0.146E-01 0.221E-02
CGA:  31    -0.997923853399E+03   -0.28811E-02   -0.27158E-02  2880   0.369E-01-0.134E-01
CGA:  32    -0.997926174451E+03   -0.23211E-02   -0.21286E-02  2880   0.879E-02-0.514E-02
CGA:  33    -0.997925551493E+03    0.62296E-03   -0.27643E-02  2880   0.899E-01-0.154E-01
CGA:  34    -0.997929397241E+03   -0.38457E-02   -0.44599E-02  2880   0.103E-01-0.710E-02
CGA:  35    -0.997929851548E+03   -0.45431E-03   -0.66065E-03  2880   0.214E-02 0.278E-02
CGA:  36    -0.997929930349E+03   -0.78802E-04   -0.18706E-03  2880   0.108E-02 0.144E-02
CGA:  37    -0.997930149846E+03   -0.21950E-03   -0.22787E-03  2880   0.389E-02-0.123E-03
CGA:  38    -0.997930785797E+03   -0.63595E-03   -0.69106E-03  2880   0.305E-02-0.819E-03
CGA:  39    -0.997931816611E+03   -0.10308E-02    0.40353E-03  2880   0.246E-02-0.559E-04
CGA:  40    -0.997932933471E+03   -0.11169E-02    0.32046E-03  2880   0.158E-02-0.927E-03
CGA:  41    -0.997933040511E+03   -0.10704E-03   -0.16661E-03  2880   0.761E-02-0.292E-02
CGA:  42    -0.997933339008E+03   -0.29850E-03   -0.33937E-03  2880   0.691E-03 0.336E-05
CGA:  43    -0.997933314601E+03    0.24407E-04   -0.29775E-04  2880   0.439E-03 0.541E-03
CGA:  44    -0.997933296815E+03    0.17787E-04   -0.16972E-04  2880   0.308E-03 0.348E-03
CGA:  45    -0.997933284147E+03    0.12667E-04   -0.12885E-04  2880   0.251E-03 0.278E-03
CGA:  46    -0.997933275433E+03    0.87149E-05   -0.11000E-04  2880   0.213E-03 0.230E-03
CGA:  47    -0.997933270234E+03    0.51985E-05   -0.10124E-04  2880   0.185E-03 0.198E-03
   1 F= -.99793327E+03 E0= -.99791700E+03  d E =-.997933E+03  mag=     2.0000
       N       E                     dE             d eps       ncg     rms          ort
SDA:   1    -0.997930184672E+03    0.30908E-02    0.00000E+00  2880   0.836E-02 0.000E+00
CGA:   2    -0.997932248364E+03   -0.20637E-02   -0.24047E-02  2880   0.175E-01-0.203E-02
CGA:   3    -0.997933150994E+03   -0.90263E-03   -0.84041E-03  2880   0.311E-02-0.112E-02
CGA:   4    -0.997933315396E+03   -0.16440E-03   -0.19542E-03  2880   0.217E-02 0.543E-03
CGA:   5    -0.997933421104E+03   -0.10571E-03   -0.16590E-03  2880   0.903E-03 0.109E-02
CGA:   6    -0.997933476430E+03   -0.55326E-04   -0.62306E-04  2880   0.346E-03 0.139E-03
CGA:   7    -0.997933564696E+03   -0.88266E-04   -0.98707E-04  2880   0.169E-03-0.793E-04
CGA:   8    -0.997933566599E+03   -0.19028E-05   -0.55146E-05  2880   0.636E-04 0.452E-04
   2 F= -.99793357E+03 E0= -.99791712E+03  d E =-.296364E-03  mag=     2.0000
       N       E                     dE             d eps       ncg     rms          ort
SDA:   1    -0.997931768103E+03    0.17966E-02    0.00000E+00  2880   0.583E-02 0.000E+00
CGA:   2    -0.997932423166E+03   -0.65506E-03   -0.65469E-03  2880   0.528E-02-0.198E-03
CGA:   3    -0.997933274003E+03   -0.85084E-03   -0.91111E-03  2880   0.364E-02-0.943E-03
CGA:   4    -0.997933396783E+03   -0.12278E-03   -0.13357E-03  2880   0.605E-03 0.187E-03
CGA:   5    -0.997933452821E+03   -0.56039E-04   -0.57565E-04  2880   0.745E-03 0.658E-04
CGA:   6    -0.997933549018E+03   -0.96197E-04   -0.99089E-04  2880   0.284E-03-0.395E-03
CGA:   7    -0.997933555206E+03   -0.61875E-05   -0.69878E-04  2880   0.180E-02-0.479E-03
CGA:   8    -0.997933647474E+03   -0.92269E-04   -0.84133E-04  2880   0.122E-03-0.119E-03
CGA:   9    -0.997933642427E+03    0.50474E-05   -0.25385E-05  2880   0.606E-04 0.810E-04
   3 F= -.99793364E+03 E0= -.99791720E+03  d E =-.372193E-03  mag=     2.0000
       N       E                     dE             d eps       ncg     rms          ort
SDA:   1    -0.997932830255E+03    0.81722E-03    0.00000E+00  2880   0.838E-02 0.000E+00
CGA:   2    -0.997933336964E+03   -0.50671E-03   -0.42551E-03  2880   0.131E-02-0.160E-02
CGA:   3    -0.997933244080E+03    0.92884E-04   -0.26656E-03  2880   0.899E-02-0.244E-02
CGA:   4    -0.997933614653E+03   -0.37057E-03   -0.38558E-03  2880   0.704E-03-0.531E-04
CGA:   5    -0.997933613267E+03    0.13864E-05   -0.26951E-04  2880   0.236E-03 0.410E-03
   4 F= -.99793361E+03 E0= -.99791717E+03  d E =-.343032E-03  mag=     2.0000
       N       E                     dE             d eps       ncg     rms          ort
SDA:   1    -0.997932309854E+03    0.13048E-02    0.00000E+00  2880   0.928E-02 0.000E+00
CGA:   2    -0.997933116815E+03   -0.80696E-03   -0.73684E-03  2880   0.530E-02-0.336E-02
CGA:   3    -0.997933440897E+03   -0.32408E-03   -0.30395E-03  2880   0.152E-02-0.214E-02
CGA:   4    -0.997933583056E+03   -0.14216E-03   -0.14192E-03  2880   0.180E-03 0.223E-05
CGA:   5    -0.997933579040E+03    0.40166E-05   -0.47701E-05  2880   0.829E-04 0.117E-03
   5 F= -.99793358E+03 E0= -.99791714E+03  d E =-.308806E-03  mag=     2.0000
       N       E                     dE             d eps       ncg     rms          ort
SDA:   1    -0.997932760014E+03    0.82304E-03    0.00000E+00  2880   0.391E-02 0.000E+00
CGA:   2    -0.997933173307E+03   -0.41329E-03   -0.53194E-03  2880   0.644E-02-0.286E-02
CGA:   3    -0.997933441442E+03   -0.26814E-03   -0.29257E-03  2880   0.437E-03 0.469E-03
CGA:   4    -0.997933480513E+03   -0.39071E-04   -0.40570E-04  2880   0.317E-03 0.215E-03
CGA:   5    -0.997933561073E+03   -0.80560E-04   -0.10753E-03  2880   0.770E-03-0.203E-03
CGA:   6    -0.997933616058E+03   -0.54985E-04   -0.52671E-04  2880   0.136E-03-0.733E-04
CGA:   7    -0.997933652990E+03   -0.36931E-04    0.11379E-04  2880   0.370E-04-0.314E-04
CGA:   8    -0.997933653475E+03   -0.48551E-06   -0.14676E-05  2880   0.185E-04 0.210E-04
   6 F= -.99793365E+03 E0= -.99791721E+03  d E =-.744353E-04  mag=     2.0000
       N       E                     dE             d eps       ncg     rms          ort
SDA:   1    -0.997933264499E+03    0.38849E-03    0.00000E+00  2880   0.186E-02 0.000E+00
CGA:   2    -0.997933439413E+03   -0.17491E-03   -0.17746E-03  2880   0.128E-02-0.788E-03
CGA:   3    -0.997933472473E+03   -0.33060E-04   -0.14503E-03  2880   0.270E-02-0.107E-02
CGA:   4    -0.997933589668E+03   -0.11720E-03   -0.13440E-03  2880   0.393E-03 0.335E-03
CGA:   5    -0.997933608711E+03   -0.19043E-04   -0.23830E-04  2880   0.477E-04 0.118E-03
CGA:   6    -0.997933608656E+03    0.55508E-07   -0.19772E-05  2880   0.196E-04 0.332E-04
   7 F= -.99793361E+03 E0= -.99791717E+03  d E =-.296162E-04  mag=     2.0000
       N       E                     dE             d eps       ncg     rms          ort
SDA:   1    -0.997933626172E+03   -0.17460E-04    0.00000E+00  2880   0.104E-03 0.000E+00
CGA:   2    -0.997933640431E+03   -0.14259E-04   -0.16027E-04  2880   0.135E-03-0.272E-04
CGA:   3    -0.997933641614E+03   -0.11833E-05   -0.35809E-05  2880   0.576E-04 0.434E-04
CGA:   4    -0.997933642455E+03   -0.84043E-06   -0.22859E-05  2880   0.200E-04 0.246E-04
CGA:   5    -0.997933556745E+03    0.85709E-04   -0.46245E-04  2880   0.160E-02-0.218E-03
CGA:   6    -0.997933658508E+03   -0.10176E-03   -0.97801E-04  2880   0.203E-03-0.704E-04
CGA:   7    -0.997933657226E+03    0.12816E-05   -0.71519E-05  2880   0.388E-04 0.732E-04
   8 F= -.99793366E+03 E0= -.99791722E+03  d E =-.781864E-04  mag=     2.0000
       N       E                     dE             d eps       ncg     rms          ort
SDA:   1    -0.997933495262E+03    0.16325E-03    0.00000E+00  2880   0.192E-02 0.000E+00
CGA:   2    -0.997933630136E+03   -0.13487E-03   -0.12143E-03  2880   0.113E-03-0.209E-03
CGA:   3    -0.997933643491E+03   -0.13355E-04   -0.17621E-04  2880   0.223E-03-0.106E-03
CGA:   4    -0.997933664619E+03   -0.21128E-04   -0.16146E-04  2880   0.594E-04-0.788E-04
CGA:   5    -0.997933662925E+03    0.16941E-05   -0.97141E-06  2880   0.281E-04 0.245E-04
   9 F= -.99793366E+03 E0= -.99791722E+03  d E =-.838848E-04  mag=     2.0000
       N       E                     dE             d eps       ncg     rms          ort
SDA:   1    -0.997933453015E+03    0.21160E-03    0.00000E+00  2880   0.304E-02 0.000E+00
CGA:   2    -0.997933642691E+03   -0.18968E-03   -0.16026E-03  2880   0.128E-03-0.421E-03
CGA:   3    -0.997933643213E+03   -0.52180E-06   -0.37696E-05  2880   0.213E-04 0.379E-04
CGA:   4    -0.997933643030E+03    0.18271E-06   -0.79169E-06  2880   0.812E-05 0.112E-04
  10 F= -.99793364E+03 E0= -.99791720E+03  d E =-.639903E-04  mag=     2.0000
       N       E                     dE             d eps       ncg     rms          ort
SDA:   1    -0.997933580824E+03    0.62389E-04    0.00000E+00  2880   0.206E-02 0.000E+00
CGA:   2    -0.997933667021E+03   -0.86196E-04   -0.86387E-04  2880   0.415E-04 0.495E-05
CGA:   3    -0.997933665367E+03    0.16539E-05   -0.73853E-06  2880   0.170E-04 0.266E-04
CGA:   4    -0.997933664392E+03    0.97454E-06   -0.21048E-06  2880   0.997E-05 0.131E-04
  11 F= -.99793366E+03 E0= -.99791722E+03  d E =-.853523E-04  mag=     2.0000
       N       E                     dE             d eps       ncg     rms          ort
SDA:   1    -0.997933476994E+03    0.18837E-03    0.00000E+00  2880   0.197E-02 0.000E+00
CGA:   2    -0.997933617771E+03   -0.14078E-03   -0.12028E-03  2880   0.382E-03-0.653E-03
CGA:   3    -0.997933632132E+03   -0.14361E-04   -0.14286E-04  2880   0.441E-04-0.332E-05
CGA:   4    -0.997933607053E+03    0.25079E-04   -0.13172E-04  2880   0.874E-03-0.183E-03
CGA:   5    -0.997933663902E+03   -0.56849E-04   -0.51945E-04  2880   0.337E-04-0.127E-03
CGA:   6    -0.997933662436E+03    0.14661E-05   -0.38084E-06  2880   0.190E-04 0.215E-04
  12 F= -.99793366E+03 E0= -.99791722E+03  d E =-.833964E-04  mag=     2.0000
       N       E                     dE             d eps       ncg     rms          ort
SDA:   1    -0.997933249546E+03    0.41436E-03    0.00000E+00  2880   0.637E-02 0.000E+00
CGA:   2    -0.997933609864E+03   -0.36032E-03   -0.31728E-03  2880   0.301E-03-0.104E-02
CGA:   3    -0.997933619642E+03   -0.97784E-05   -0.10895E-04  2880   0.198E-04 0.239E-04
CGA:   4    -0.997933628530E+03   -0.88880E-05    0.65168E-06  2880   0.188E-04-0.451E-05
  13 F= -.99793363E+03 E0= -.99791718E+03  d E =-.494902E-04  mag=     2.0000
       N       E                     dE             d eps       ncg     rms          ort
SDA:   1    -0.997933359922E+03    0.25972E-03    0.00000E+00  2880   0.530E-02 0.000E+00
CGA:   2    -0.997933586009E+03   -0.22609E-03   -0.23420E-03  2880   0.122E-03 0.195E-03
CGA:   3    -0.997933611079E+03   -0.25070E-04    0.29657E-04  2880   0.868E-04 0.455E-04
CGA:   4    -0.997933648953E+03   -0.37874E-04    0.56162E-05  2880   0.315E-04 0.563E-04
CGA:   5    -0.997933649418E+03   -0.46497E-06   -0.14087E-05  2880   0.211E-04 0.240E-04
  14 F= -.99793365E+03 E0= -.99791721E+03  d E =-.208884E-04  mag=     2.0000
       N       E                     dE             d eps       ncg     rms          ort
SDA:   1    -0.997933646563E+03    0.23904E-05    0.00000E+00  2880   0.697E-04 0.000E+00
CGA:   2    -0.997933646219E+03    0.34364E-06   -0.17960E-05  2880   0.255E-04 0.388E-04
CGA:   3    -0.997933646384E+03   -0.16467E-06   -0.89663E-06  2880   0.136E-04 0.171E-04
CGA:   4    -0.997933646945E+03   -0.56053E-06   -0.89373E-06  2880   0.592E-04-0.155E-04
CGA:   5    -0.997933608690E+03    0.38254E-04   -0.21754E-04  2880   0.145E-02-0.263E-03
CGA:   6    -0.997933660271E+03   -0.51581E-04   -0.68507E-04  2880   0.544E-04 0.154E-03
CGA:   7    -0.997933662959E+03   -0.26879E-05   -0.33870E-05  2880   0.807E-05 0.791E-05
  15 F= -.99793366E+03 E0= -.99791722E+03  d E =-.344291E-04  mag=     2.0000
       N       E                     dE             d eps       ncg     rms          ort
SDA:   1    -0.997933609206E+03    0.51066E-04    0.00000E+00  2880   0.503E-03 0.000E+00
CGA:   2    -0.997933645840E+03   -0.36635E-04   -0.30696E-04  2880   0.627E-04-0.837E-04
CGA:   3    -0.997933648684E+03   -0.28430E-05   -0.29405E-05  2880   0.111E-04 0.110E-05
CGA:   4    -0.997933657389E+03   -0.87056E-05    0.35143E-06  2880   0.127E-04-0.522E-05
  16 F= -.99793366E+03 E0= -.99791722E+03  d E =-.288591E-04  mag=     2.0000
