       N       E                     dE             d eps       ncg     rms          rms(c)
DAV:   1     0.307634525585E+04    0.30763E+04   -0.25841E+05 73584   0.131E+03
DAV:   2    -0.609040693642E+03   -0.36854E+04   -0.35508E+04 89712   0.297E+02
DAV:   3    -0.871105702705E+03   -0.26207E+03   -0.26039E+03 89112   0.839E+01
DAV:   4    -0.874379071617E+03   -0.32734E+01   -0.32614E+01 89424   0.101E+01
DAV:   5    -0.874434427193E+03   -0.55356E-01   -0.55223E-01 91236   0.121E+00    0.992E+01
DAV:   6    -0.777831749825E+03    0.96603E+02   -0.40774E+02 84048   0.320E+01    0.509E+01
DAV:   7    -0.787288494895E+03   -0.94567E+01   -0.22728E+01 83136   0.776E+00    0.163E+01
DAV:   8    -0.791174747414E+03   -0.38863E+01   -0.15494E+00 87936   0.244E+00    0.797E+00
DAV:   9    -0.793391627399E+03   -0.22169E+01   -0.10001E+00 87816   0.172E+00    0.387E+00
DAV:  10    -0.793881102127E+03   -0.48947E+00   -0.26434E-01 85164   0.910E-01    0.113E+00
DAV:  11    -0.793959741023E+03   -0.78639E-01   -0.47035E-02 85956   0.383E-01    0.612E-01
DAV:  12    -0.793970232275E+03   -0.10491E-01   -0.50574E-03 86652   0.142E-01    0.293E-01
DAV:  13    -0.793973091790E+03   -0.28595E-02   -0.18998E-03 86064   0.809E-02    0.102E-01
DAV:  14    -0.793973604462E+03   -0.51267E-03   -0.34520E-04 85140   0.343E-02    0.436E-02
DAV:  15    -0.793973648110E+03   -0.43647E-04   -0.57577E-05 85200   0.181E-02    0.271E-02
DAV:  16    -0.793973668562E+03   -0.20452E-04   -0.19999E-05 67032   0.961E-03    0.120E-02
DAV:  17    -0.793973672611E+03   -0.40488E-05   -0.55255E-06 60060   0.629E-03
   1 F= -.79397367E+03 E0= -.79397367E+03  d E =-.793974E+03  mag=    -0.0018
       N       E                     dE             d eps       ncg     rms          rms(c)
DAV:   1    -0.794014211490E+03   -0.40543E-01   -0.17000E-02 77472   0.185E-01    0.634E-02
DAV:   2    -0.794014225874E+03   -0.14384E-04   -0.36565E-04 87744   0.227E-02    0.213E-02
DAV:   3    -0.794014215790E+03    0.10083E-04   -0.13399E-05 74736   0.806E-03    0.105E-02
DAV:   4    -0.794014213578E+03    0.22119E-05   -0.88528E-06 55872   0.461E-03
   2 F= -.79401421E+03 E0= -.79401421E+03  d E =-.405410E-01  mag=    -0.0002
       N       E                     dE             d eps       ncg     rms          rms(c)
DAV:   1    -0.794832131727E+03   -0.81792E+00   -0.11781E+01 73524   0.488E+00    0.168E+00
DAV:   2    -0.794844625906E+03   -0.12494E-01   -0.25704E-01 88620   0.606E-01    0.537E-01
DAV:   3    -0.794838350323E+03    0.62756E-02   -0.92171E-03 91428   0.204E-01    0.273E-01
DAV:   4    -0.794837154479E+03    0.11958E-02   -0.58240E-03 88644   0.123E-01    0.107E-01
DAV:   5    -0.794837128565E+03    0.25915E-04   -0.94937E-04 90144   0.572E-02    0.668E-02
DAV:   6    -0.794837104527E+03    0.24038E-04   -0.38110E-05 84744   0.189E-02    0.319E-02
DAV:   7    -0.794837083956E+03    0.20571E-04   -0.14244E-05 76992   0.151E-02    0.113E-02
DAV:   8    -0.794837076077E+03    0.78792E-05   -0.14617E-05 72240   0.168E-02
   3 F= -.79483708E+03 E0= -.79483708E+03  d E =-.822862E+00  mag=     0.0000
       N       E                     dE             d eps       ncg     rms          rms(c)
DAV:   1    -0.795474701192E+03   -0.63762E+00   -0.20922E+01 73440   0.699E+00    0.175E+00
DAV:   2    -0.795504974179E+03   -0.30273E-01   -0.49315E-01 88812   0.945E-01    0.716E-01
DAV:   3    -0.795494823669E+03    0.10151E-01   -0.15568E-02 91140   0.277E-01    0.380E-01
DAV:   4    -0.795492397395E+03    0.24263E-02   -0.92741E-03 89532   0.166E-01    0.137E-01
DAV:   5    -0.795492262705E+03    0.13469E-03   -0.17607E-03 91152   0.905E-02    0.730E-02
DAV:   6    -0.795492248708E+03    0.13998E-04   -0.17059E-04 89916   0.284E-02    0.491E-02
DAV:   7    -0.795492216365E+03    0.32342E-04   -0.37521E-05 86988   0.180E-02    0.207E-02
DAV:   8    -0.795492206191E+03    0.10174E-04   -0.12449E-05 71520   0.162E-02    0.653E-03
DAV:   9    -0.795492203272E+03    0.29189E-05   -0.13295E-05 64644   0.134E-02
   4 F= -.79549220E+03 E0= -.79549220E+03  d E =-.655127E+00  mag=    -0.0000
       N       E                     dE             d eps       ncg     rms          rms(c)
DAV:   1    -0.795725788904E+03   -0.23358E+00   -0.96552E+00 73440   0.522E+00    0.101E+00
DAV:   2    -0.795747348189E+03   -0.21559E-01   -0.27544E-01 89520   0.788E-01    0.624E-01
DAV:   3    -0.795742742131E+03    0.46061E-02   -0.85454E-03 88308   0.212E-01    0.335E-01
DAV:   4    -0.795741522317E+03    0.12198E-02   -0.40897E-03 88080   0.115E-01    0.139E-01
DAV:   5    -0.795741404052E+03    0.11826E-03   -0.88725E-04 91488   0.727E-02    0.461E-02
DAV:   6    -0.795741411755E+03   -0.77028E-05   -0.22929E-04 87744   0.261E-02    0.324E-02
DAV:   7    -0.795741401801E+03    0.99538E-05   -0.22688E-05 77376   0.115E-02
   5 F= -.79574140E+03 E0= -.79574140E+03  d E =-.249199E+00  mag=    -0.0000
       N       E                     dE             d eps       ncg     rms          rms(c)
DAV:   1    -0.795863128779E+03   -0.12172E+00   -0.19053E+01 73440   0.766E+00    0.160E+00
DAV:   2    -0.795898167581E+03   -0.35039E-01   -0.45113E-01 90024   0.104E+00    0.536E-01
DAV:   3    -0.795891926275E+03    0.62413E-02   -0.13314E-02 90672   0.279E-01    0.271E-01
DAV:   4    -0.795890589420E+03    0.13369E-02   -0.59784E-03 90600   0.149E-01    0.119E-01
DAV:   5    -0.795890499906E+03    0.89515E-04   -0.79754E-04 89760   0.640E-02    0.724E-02
DAV:   6    -0.795890492042E+03    0.78636E-05   -0.12994E-04 90684   0.269E-02    0.396E-02
DAV:   7    -0.795890474800E+03    0.17242E-04   -0.24420E-05 84156   0.175E-02    0.168E-02
DAV:   8    -0.795890470172E+03    0.46275E-05   -0.17004E-05 73308   0.130E-02
   6 F= -.79589047E+03 E0= -.79589047E+03  d E =-.149068E+00  mag=     0.0000
       N       E                     dE             d eps       ncg     rms          rms(c)
DAV:   1    -0.795899391200E+03   -0.89164E-02   -0.31948E+01 73440   0.101E+01    0.230E+00
DAV:   2    -0.795968413608E+03   -0.69022E-01   -0.81803E-01 89640   0.142E+00    0.766E-01
DAV:   3    -0.795958850110E+03    0.95635E-02   -0.21235E-02 90372   0.312E-01    0.410E-01
DAV:   4    -0.795955935583E+03    0.29145E-02   -0.77638E-03 89376   0.205E-01    0.182E-01
DAV:   5    -0.795955689800E+03    0.24578E-03   -0.22579E-03 89544   0.109E-01    0.929E-02
DAV:   6    -0.795955628990E+03    0.60810E-04   -0.44993E-04 89976   0.474E-02    0.541E-02
DAV:   7    -0.795955580868E+03    0.48122E-04   -0.55796E-05 90576   0.258E-02    0.235E-02
DAV:   8    -0.795955565490E+03    0.15377E-04   -0.36738E-05 85944   0.206E-02    0.754E-03
DAV:   9    -0.795955562946E+03    0.25446E-05   -0.18845E-05 70536   0.152E-02
   7 F= -.79595556E+03 E0= -.79595556E+03  d E =-.650928E-01  mag=    -0.0000
       N       E                     dE             d eps       ncg     rms          rms(c)
DAV:   1    -0.795972012902E+03   -0.16447E-01   -0.21922E+01 73440   0.850E+00    0.194E+00
DAV:   2    -0.796009211732E+03   -0.37199E-01   -0.54738E-01 89472   0.129E+00    0.782E-01
DAV:   3    -0.796000325858E+03    0.88859E-02   -0.16694E-02 91716   0.299E-01    0.394E-01
DAV:   4    -0.795996763403E+03    0.35625E-02   -0.75570E-03 88896   0.219E-01    0.123E-01
DAV:   5    -0.795996354555E+03    0.40885E-03   -0.20982E-03 93096   0.134E-01    0.787E-02
DAV:   6    -0.795996279995E+03    0.74559E-04   -0.67292E-04 89508   0.588E-02    0.559E-02
DAV:   7    -0.795996203016E+03    0.76979E-04   -0.74366E-05 89640   0.316E-02    0.273E-02
DAV:   8    -0.795996161793E+03    0.41223E-04   -0.74355E-05 87912   0.385E-02    0.124E-02
DAV:   9    -0.795996162885E+03   -0.10915E-05   -0.59275E-05 90396   0.164E-02
   8 F= -.79599616E+03 E0= -.79599616E+03  d E =-.405999E-01  mag=    -0.0000
       N       E                     dE             d eps       ncg     rms          rms(c)
DAV:   1    -0.796024268964E+03   -0.28107E-01   -0.69486E+00 73440   0.486E+00    0.149E+00
DAV:   2    -0.796040703612E+03   -0.16435E-01   -0.22139E-01 89652   0.801E-01    0.550E-01
DAV:   3    -0.796035813466E+03    0.48901E-02   -0.50033E-03 91248   0.192E-01    0.249E-01
DAV:   4    -0.796034153873E+03    0.16596E-02   -0.35870E-03 89676   0.170E-01    0.795E-02
DAV:   5    -0.796034058886E+03    0.94988E-04   -0.14385E-03 91128   0.988E-02    0.646E-02
DAV:   6    -0.796034028048E+03    0.30838E-04   -0.20694E-04 90048   0.283E-02    0.469E-02
DAV:   7    -0.796033990240E+03    0.37808E-04   -0.43785E-05 86232   0.139E-02    0.251E-02
DAV:   8    -0.796033961366E+03    0.28874E-04   -0.39730E-05 85368   0.263E-02    0.969E-03
DAV:   9    -0.796033959479E+03    0.18867E-05   -0.23863E-05 73104   0.148E-02
   9 F= -.79603396E+03 E0= -.79603396E+03  d E =-.377966E-01  mag=     0.0000
       N       E                     dE             d eps       ncg     rms          rms(c)
DAV:   1    -0.796056656637E+03   -0.22695E-01   -0.14008E+00 73464   0.197E+00    0.601E-01
DAV:   2    -0.796059459712E+03   -0.28031E-02   -0.37960E-02 89712   0.295E-01    0.202E-01
DAV:   3    -0.796058718743E+03    0.74097E-03   -0.77992E-04 91692   0.672E-02    0.909E-02
DAV:   4    -0.796058504336E+03    0.21441E-03   -0.58349E-04 88980   0.552E-02    0.251E-02
DAV:   5    -0.796058502928E+03    0.14080E-05   -0.15816E-04 91392   0.272E-02    0.245E-02
DAV:   6    -0.796058497906E+03    0.50213E-05   -0.13245E-05 57360   0.763E-03
  10 F= -.79605850E+03 E0= -.79605850E+03  d E =-.245384E-01  mag=     0.0000
       N       E                     dE             d eps       ncg     rms          rms(c)
DAV:   1    -0.796072831436E+03   -0.14329E-01   -0.56328E+00 73440   0.416E+00    0.609E-01
DAV:   2    -0.796083362527E+03   -0.10531E-01   -0.12428E-01 87252   0.566E-01    0.248E-01
DAV:   3    -0.796082163399E+03    0.11991E-02   -0.16512E-03 91272   0.954E-02    0.142E-01
DAV:   4    -0.796081673101E+03    0.49030E-03   -0.17307E-03 88512   0.961E-02    0.416E-02
DAV:   5    -0.796081679686E+03   -0.65851E-05   -0.39774E-04 89448   0.418E-02    0.321E-02
DAV:   6    -0.796081671142E+03    0.85445E-05   -0.87970E-05 87684   0.196E-02
  11 F= -.79608167E+03 E0= -.79608167E+03  d E =-.231732E-01  mag=     0.0000
       N       E                     dE             d eps       ncg     rms          rms(c)
DAV:   1    -0.796075931612E+03    0.57481E-02   -0.16627E+01 73440   0.745E+00    0.736E-01
DAV:   2    -0.796107968200E+03   -0.32037E-01   -0.35588E-01 87144   0.100E+00    0.389E-01
DAV:   3    -0.796105967631E+03    0.20006E-02   -0.39819E-03 91944   0.142E-01    0.245E-01
DAV:   4    -0.796104983496E+03    0.98413E-03   -0.39872E-03 88728   0.153E-01    0.819E-02
DAV:   5    -0.796104988573E+03   -0.50764E-05   -0.81978E-04 87348   0.625E-02    0.551E-02
DAV:   6    -0.796104992026E+03   -0.34532E-05   -0.30178E-04 87804   0.365E-02    0.268E-02
DAV:   7    -0.796104983224E+03    0.88016E-05   -0.36012E-05 80280   0.152E-02
  12 F= -.79610498E+03 E0= -.79610498E+03  d E =-.233121E-01  mag=     0.0000
       N       E                     dE             d eps       ncg     rms          rms(c)
DAV:   1    -0.795023261269E+03    0.10817E+01   -0.11211E+02 73440   0.197E+01    0.694E+00
DAV:   2    -0.795290379356E+03   -0.26712E+00   -0.36888E+00 90204   0.331E+00    0.222E+00
DAV:   3    -0.795202725830E+03    0.87654E-01   -0.90020E-02 91212   0.833E-01    0.998E-01
DAV:   4    -0.795170878958E+03    0.31847E-01   -0.65812E-02 89520   0.748E-01    0.300E-01
DAV:   5    -0.795168719983E+03    0.21590E-02   -0.26392E-02 92160   0.421E-01    0.288E-01
DAV:   6    -0.795167865640E+03    0.85434E-03   -0.31708E-03 90756   0.114E-01    0.182E-01
DAV:   7    -0.795166905765E+03    0.95988E-03   -0.98542E-04 90408   0.769E-02    0.856E-02
DAV:   8    -0.795166397311E+03    0.50845E-03   -0.88908E-04 91008   0.122E-01    0.500E-02
DAV:   9    -0.795166403864E+03   -0.65529E-05   -0.71024E-04 90480   0.608E-02    0.418E-02
DAV:  10    -0.795166403639E+03    0.22467E-06   -0.72022E-05 86892   0.153E-02
  13 F= -.79516640E+03 E0= -.79516640E+03  d E =0.938580E+00  mag=    -0.0000
       N       E                     dE             d eps       ncg     rms          rms(c)
DAV:   1    -0.795741053548E+03   -0.57465E+00   -0.82752E+00 73440   0.523E+00    0.229E+00
DAV:   2    -0.795762725734E+03   -0.21672E-01   -0.34130E-01 90168   0.979E-01    0.887E-01
DAV:   3    -0.795752037239E+03    0.10688E-01   -0.98821E-03 91068   0.282E-01    0.447E-01
DAV:   4    -0.795747941548E+03    0.40957E-02   -0.79220E-03 89376   0.281E-01    0.128E-01
DAV:   5    -0.795747776897E+03    0.16465E-03   -0.38279E-03 91164   0.156E-01    0.101E-01
DAV:   6    -0.795747684802E+03    0.92095E-04   -0.45137E-04 90948   0.407E-02    0.689E-02
DAV:   7    -0.795747584961E+03    0.99841E-04   -0.16936E-04 89628   0.247E-02    0.300E-02
DAV:   8    -0.795747535472E+03    0.49489E-04   -0.69181E-05 89352   0.355E-02    0.186E-02
DAV:   9    -0.795747534236E+03    0.12356E-05   -0.57327E-05 88116   0.168E-02
  14 F= -.79574753E+03 E0= -.79574753E+03  d E =-.581131E+00  mag=    -0.0000
       N       E                     dE             d eps       ncg     rms          rms(c)
DAV:   1    -0.795903072943E+03   -0.15554E+00   -0.13177E+00 76032   0.209E+00    0.870E-01
DAV:   2    -0.795906220818E+03   -0.31479E-02   -0.51732E-02 90096   0.393E-01    0.329E-01
DAV:   3    -0.795904462645E+03    0.17582E-02   -0.15944E-03 91140   0.117E-01    0.149E-01
DAV:   4    -0.795903848679E+03    0.61397E-03   -0.11713E-03 89472   0.110E-01    0.465E-02
DAV:   5    -0.795903804140E+03    0.44538E-04   -0.57449E-04 91356   0.646E-02    0.382E-02
DAV:   6    -0.795903793135E+03    0.11006E-04   -0.88465E-05 89808   0.177E-02    0.309E-02
DAV:   7    -0.795903780457E+03    0.12677E-04   -0.12296E-05 52860   0.657E-03    0.196E-02
DAV:   8    -0.795903765389E+03    0.15068E-04   -0.38473E-05 83640   0.179E-02    0.112E-02
DAV:   9    -0.795903764663E+03    0.72628E-06   -0.96617E-06 62148   0.775E-03
  15 F= -.79590376E+03 E0= -.79590376E+03  d E =-.156230E+00  mag=     0.0000
       N       E                     dE             d eps       ncg     rms          rms(c)
DAV:   1    -0.796109017547E+03   -0.20525E+00   -0.99998E+00 75888   0.575E+00    0.236E+00
DAV:   2    -0.796132957470E+03   -0.23940E-01   -0.38566E-01 90108   0.108E+00    0.867E-01
DAV:   3    -0.796120503782E+03    0.12454E-01   -0.11173E-02 91116   0.306E-01    0.394E-01
DAV:   4    -0.796116028619E+03    0.44752E-02   -0.82189E-03 89400   0.293E-01    0.117E-01
DAV:   5    -0.796115710706E+03    0.31791E-03   -0.40086E-03 92364   0.174E-01    0.985E-02
DAV:   6    -0.796115639558E+03    0.71148E-04   -0.69262E-04 90516   0.494E-02    0.835E-02
DAV:   7    -0.796115563767E+03    0.75791E-04   -0.66730E-05 88260   0.151E-02    0.583E-02
DAV:   8    -0.796115444667E+03    0.11910E-03   -0.29794E-04 91248   0.505E-02    0.280E-02
DAV:   9    -0.796115443845E+03    0.82127E-06   -0.73034E-05 89748   0.181E-02
  16 F= -.79611544E+03 E0= -.79611544E+03  d E =-.211679E+00  mag=    -0.0000
       N       E                     dE             d eps       ncg     rms          rms(c)
DAV:   1    -0.796122676284E+03   -0.72316E-02   -0.25297E-01 75396   0.895E-01    0.338E-01
DAV:   2    -0.796123243036E+03   -0.56675E-03   -0.85027E-03 90336   0.156E-01    0.109E-01
DAV:   3    -0.796123024750E+03    0.21829E-03   -0.28815E-04 91692   0.439E-02    0.504E-02
DAV:   4    -0.796122950721E+03    0.74029E-04   -0.15342E-04 89340   0.346E-02    0.206E-02
DAV:   5    -0.796122942449E+03    0.82720E-05   -0.56565E-05 89064   0.224E-02
  17 F= -.79612294E+03 E0= -.79612294E+03  d E =-.749860E-02  mag=    -0.0000
       N       E                     dE             d eps       ncg     rms          rms(c)
DAV:   1    -0.796129721630E+03   -0.67709E-02   -0.93939E-01 73608   0.169E+00    0.518E-01
DAV:   2    -0.796131551250E+03   -0.18296E-02   -0.24596E-02 90048   0.256E-01    0.146E-01
DAV:   3    -0.796131151166E+03    0.40008E-03   -0.73706E-04 92256   0.643E-02    0.709E-02
DAV:   4    -0.796131047554E+03    0.10361E-03   -0.38245E-04 89220   0.432E-02    0.312E-02
DAV:   5    -0.796131043562E+03    0.39920E-05   -0.82545E-05 91464   0.219E-02
  18 F= -.79613104E+03 E0= -.79613104E+03  d E =-.810111E-02  mag=    -0.0000
       N       E                     dE             d eps       ncg     rms          rms(c)
DAV:   1    -0.796134421578E+03   -0.33740E-02   -0.67250E-02 75216   0.472E-01    0.124E-01
DAV:   2    -0.796134568983E+03   -0.14740E-03   -0.19248E-03 89484   0.741E-02    0.464E-02
DAV:   3    -0.796134533410E+03    0.35573E-04   -0.41927E-05 88512   0.168E-02    0.214E-02
DAV:   4    -0.796134522198E+03    0.11212E-04   -0.29631E-05 80328   0.135E-02    0.644E-03
DAV:   5    -0.796134521453E+03    0.74515E-06   -0.86803E-06 48984   0.802E-03
  19 F= -.79613452E+03 E0= -.79613452E+03  d E =-.347789E-02  mag=     0.0000
       N       E                     dE             d eps       ncg     rms          rms(c)
DAV:   1    -0.796141231586E+03   -0.67094E-02   -0.85754E-01 73464   0.165E+00    0.289E-01
DAV:   2    -0.796142814156E+03   -0.15826E-02   -0.19949E-02 89040   0.232E-01    0.117E-01
DAV:   3    -0.796142549368E+03    0.26479E-03   -0.34907E-04 91896   0.480E-02    0.619E-02
DAV:   4    -0.796142444510E+03    0.10486E-03   -0.29766E-04 88836   0.426E-02    0.195E-02
DAV:   5    -0.796142438803E+03    0.57071E-05   -0.80594E-05 91704   0.226E-02
  20 F= -.79614244E+03 E0= -.79614244E+03  d E =-.791735E-02  mag=    -0.0000
       N       E                     dE             d eps       ncg     rms          rms(c)
DAV:   1    -0.796145941079E+03   -0.34966E-02   -0.66430E-01 73440   0.144E+00    0.163E-01
DAV:   2    -0.796147136727E+03   -0.11956E-02   -0.14245E-02 88416   0.193E-01    0.817E-02
DAV:   3    -0.796147011016E+03    0.12571E-03   -0.18460E-04 91812   0.334E-02    0.496E-02
DAV:   4    -0.796146949818E+03    0.61198E-04   -0.19117E-04 88776   0.339E-02    0.158E-02
DAV:   5    -0.796146948817E+03    0.10007E-05   -0.48660E-05 87552   0.158E-02
  21 F= -.79614695E+03 E0= -.79614695E+03  d E =-.451001E-02  mag=    -0.0000
       N       E                     dE             d eps       ncg     rms          rms(c)
DAV:   1    -0.796145790517E+03    0.11593E-02   -0.25995E+00 73440   0.292E+00    0.418E-01
DAV:   2    -0.796150963371E+03   -0.51729E-02   -0.58790E-02 87480   0.404E-01    0.176E-01
DAV:   3    -0.796150495182E+03    0.46819E-03   -0.82313E-04 91752   0.699E-02    0.980E-02
DAV:   4    -0.796150336760E+03    0.15842E-03   -0.67818E-04 88524   0.587E-02    0.330E-02
DAV:   5    -0.796150333839E+03    0.29201E-05   -0.11693E-04 90012   0.257E-02    0.206E-02
DAV:   6    -0.796150334360E+03   -0.52051E-06   -0.34643E-05 79188   0.120E-02
  22 F= -.79615033E+03 E0= -.79615033E+03  d E =-.338554E-02  mag=    -0.0000
       N       E                     dE             d eps       ncg     rms          rms(c)
DAV:   1    -0.796143198973E+03    0.71349E-02   -0.46077E+00 73440   0.395E+00    0.555E-01
DAV:   2    -0.796152298358E+03   -0.90994E-02   -0.10351E-01 87240   0.551E-01    0.230E-01
DAV:   3    -0.796151474533E+03    0.82383E-03   -0.13550E-03 91872   0.900E-02    0.129E-01
DAV:   4    -0.796151118708E+03    0.35583E-03   -0.11796E-03 89016   0.904E-02    0.400E-02
DAV:   5    -0.796151116861E+03    0.18466E-05   -0.32584E-04 91428   0.419E-02    0.315E-02
DAV:   6    -0.796151107567E+03    0.92937E-05   -0.72979E-05 85980   0.184E-02
  23 F= -.79615111E+03 E0= -.79615111E+03  d E =-.773207E-03  mag=    -0.0000
       N       E                     dE             d eps       ncg     rms          rms(c)
DAV:   1    -0.796153230546E+03   -0.21137E-02   -0.80027E-01 73440   0.159E+00    0.361E-01
DAV:   2    -0.796154668577E+03   -0.14380E-02   -0.19240E-02 89736   0.231E-01    0.128E-01
DAV:   3    -0.796154371359E+03    0.29722E-03   -0.53692E-04 92208   0.562E-02    0.635E-02
DAV:   4    -0.796154295537E+03    0.75822E-04   -0.28271E-04 89160   0.354E-02    0.234E-02
DAV:   5    -0.796154292565E+03    0.29719E-05   -0.50366E-05 88488   0.177E-02
  24 F= -.79615429E+03 E0= -.79615429E+03  d E =-.318500E-02  mag=     0.0000
       N       E                     dE             d eps       ncg     rms          rms(c)
DAV:   1    -0.796155457611E+03   -0.11621E-02   -0.48726E-01 73440   0.129E+00    0.240E-01
DAV:   2    -0.796156445745E+03   -0.98813E-03   -0.11734E-02 89160   0.187E-01    0.849E-02
DAV:   3    -0.796156311761E+03    0.13398E-03   -0.19822E-04 91860   0.352E-02    0.438E-02
DAV:   4    -0.796156263153E+03    0.48607E-04   -0.13575E-04 90384   0.304E-02    0.149E-02
DAV:   5    -0.796156261788E+03    0.13648E-05   -0.41450E-05 87684   0.163E-02
  25 F= -.79615626E+03 E0= -.79615626E+03  d E =-.196922E-02  mag=     0.0000
       N       E                     dE             d eps       ncg     rms          rms(c)
DAV:   1    -0.796150654249E+03    0.56089E-02   -0.41596E+00 73440   0.380E+00    0.418E-01
DAV:   2    -0.796158802570E+03   -0.81483E-02   -0.89654E-02 86424   0.518E-01    0.190E-01
DAV:   3    -0.796158330644E+03    0.47193E-03   -0.10945E-03 91812   0.740E-02    0.115E-01
DAV:   4    -0.796158133729E+03    0.19692E-03   -0.92831E-04 89328   0.754E-02    0.398E-02
DAV:   5    -0.796158136384E+03   -0.26548E-05   -0.18783E-04 87264   0.308E-02    0.312E-02
DAV:   6    -0.796158136516E+03   -0.13224E-06   -0.65037E-05 84228   0.173E-02
  26 F= -.79615814E+03 E0= -.79615814E+03  d E =-.187473E-02  mag=     0.0000
       N       E                     dE             d eps       ncg     rms          rms(c)
DAV:   1    -0.796002380818E+03    0.15576E+00   -0.69619E+01 73440   0.156E+01    0.194E+00
DAV:   2    -0.796143536331E+03   -0.14116E+00   -0.15571E+00 86016   0.216E+00    0.821E-01
DAV:   3    -0.796134658785E+03    0.88775E-02   -0.19463E-02 91656   0.312E-01    0.487E-01
DAV:   4    -0.796130796536E+03    0.38622E-02   -0.16206E-02 88644   0.316E-01    0.164E-01
DAV:   5    -0.796130761455E+03    0.35082E-04   -0.33462E-03 89400   0.136E-01    0.116E-01
DAV:   6    -0.796130723864E+03    0.37591E-04   -0.12086E-03 87984   0.763E-02    0.547E-02
DAV:   7    -0.796130690930E+03    0.32934E-04   -0.10858E-04 91896   0.308E-02    0.327E-02
DAV:   8    -0.796130677479E+03    0.13451E-04   -0.41431E-05 88392   0.196E-02    0.101E-02
DAV:   9    -0.796130674906E+03    0.25727E-05   -0.10395E-05 60312   0.102E-02
  27 F= -.79613067E+03 E0= -.79613067E+03  d E =0.274616E-01  mag=     0.0000
       N       E                     dE             d eps       ncg     rms          rms(c)
DAV:   1    -0.796134920763E+03   -0.42433E-02   -0.56550E+00 73440   0.443E+00    0.144E+00
DAV:   2    -0.796149147187E+03   -0.14226E-01   -0.19658E-01 89640   0.774E-01    0.556E-01
DAV:   3    -0.796144298098E+03    0.48491E-02   -0.48104E-03 91224   0.183E-01    0.236E-01
DAV:   4    -0.796142651801E+03    0.16463E-02   -0.31634E-03 88692   0.166E-01    0.715E-02
DAV:   5    -0.796142538987E+03    0.11281E-03   -0.13738E-03 93180   0.103E-01    0.587E-02
DAV:   6    -0.796142519679E+03    0.19307E-04   -0.26416E-04 89928   0.308E-02    0.465E-02
DAV:   7    -0.796142483224E+03    0.36455E-04   -0.40371E-05 84048   0.125E-02    0.273E-02
DAV:   8    -0.796142451260E+03    0.31964E-04   -0.71581E-05 88548   0.284E-02    0.148E-02
DAV:   9    -0.796142450465E+03    0.79497E-06   -0.29318E-05 76644   0.136E-02
  28 F= -.79614245E+03 E0= -.79614245E+03  d E =-.117756E-01  mag=     0.0000
       N       E                     dE             d eps       ncg     rms          rms(c)
DAV:   1    -0.796145919305E+03   -0.34680E-02   -0.10560E+01 73440   0.609E+00    0.115E+00
DAV:   2    -0.796168244335E+03   -0.22325E-01   -0.25635E-01 88176   0.885E-01    0.392E-01
DAV:   3    -0.796165790443E+03    0.24539E-02   -0.39808E-03 91992   0.154E-01    0.209E-01
DAV:   4    -0.796164841562E+03    0.94888E-03   -0.29566E-03 89964   0.142E-01    0.660E-02
DAV:   5    -0.796164824651E+03    0.16911E-04   -0.82682E-04 90684   0.689E-02    0.565E-02
DAV:   6    -0.796164800011E+03    0.24640E-04   -0.16900E-04 89136   0.279E-02    0.319E-02
DAV:   7    -0.796164778720E+03    0.21291E-04   -0.77852E-06 64284   0.168E-02    0.173E-02
DAV:   8    -0.796164766697E+03    0.12023E-04   -0.25577E-05 74016   0.195E-02    0.583E-03
DAV:   9    -0.796164765874E+03    0.82253E-06   -0.12568E-05 60000   0.106E-02
  29 F= -.79616477E+03 E0= -.79616477E+03  d E =-.223154E-01  mag=    -0.0000
       N       E                     dE             d eps       ncg     rms          rms(c)
DAV:   1    -0.796164071139E+03    0.69556E-03   -0.25764E-01 73488   0.952E-01    0.281E-01
DAV:   2    -0.796164575013E+03   -0.50387E-03   -0.68007E-03 91308   0.146E-01    0.774E-02
DAV:   3    -0.796164475886E+03    0.99127E-04   -0.21709E-04 92040   0.343E-02    0.395E-02
DAV:   4    -0.796164447655E+03    0.28231E-04   -0.10105E-04 89880   0.230E-02    0.172E-02
DAV:   5    -0.796164445172E+03    0.24826E-05   -0.17993E-05 65808   0.124E-02
  30 F= -.79616445E+03 E0= -.79616445E+03  d E =0.320702E-03  mag=     0.0000
       N       E                     dE             d eps       ncg     rms          rms(c)
DAV:   1    -0.796165021081E+03   -0.57343E-03   -0.42761E-02 74160   0.367E-01    0.149E-01
DAV:   2    -0.796165133893E+03   -0.11281E-03   -0.15791E-03 90348   0.654E-02    0.512E-02
DAV:   3    -0.796165093819E+03    0.40074E-04   -0.42315E-05 86760   0.162E-02    0.212E-02
DAV:   4    -0.796165082769E+03    0.11049E-04   -0.25595E-05 73284   0.131E-02    0.720E-03
DAV:   5    -0.796165082314E+03    0.45489E-06   -0.92466E-06 51720   0.743E-03
  31 F= -.79616508E+03 E0= -.79616508E+03  d E =-.637142E-03  mag=     0.0000
