       N       E                     dE             d eps       ncg     rms          ort
DAV:   1     0.285828760727E+04    0.28583E+04   -0.29277E+05  2880   0.140E+03
DAV:   2    -0.966079107167E+03   -0.38244E+04   -0.36878E+04  2880   0.314E+02
DAV:   3    -0.123123450717E+04   -0.26516E+03   -0.26336E+03  2880   0.859E+01
DAV:   4    -0.123441924709E+04   -0.31847E+01   -0.31732E+01  2880   0.100E+01
DAV:   5    -0.123447404573E+04   -0.54799E-01   -0.54670E-01  2880   0.120E+00
SDA:   6    -0.873505728829E+03    0.36097E+03   -0.54670E-01  2880   0.619E+03 0.000E+00
CGA:   7    -0.986473357287E+03   -0.11297E+03   -0.11278E+03  2880   0.442E+02-0.265E+01
CGA:   8    -0.999650177364E+03   -0.13177E+02   -0.13151E+02  2880   0.105E+02 0.221E+00
CGA:   9    -0.100349688882E+04   -0.38467E+01   -0.38481E+01  2880   0.402E+01-0.131E-01
CGA:  10    -0.100476971281E+04   -0.12728E+01   -0.12766E+01  2880   0.869E+00-0.322E-01
CGA:  11    -0.100510434511E+04   -0.33463E+00   -0.33480E+00  2880   0.190E+00-0.812E-03
CGA:  12    -0.100516985202E+04   -0.65507E-01   -0.65492E-01  2880   0.435E-01 0.910E-04
CGA:  13    -0.100518628728E+04   -0.16435E-01   -0.16558E-01  2880   0.999E-02-0.844E-03
CGA:  14    -0.100519001558E+04   -0.37283E-02   -0.36489E-02  2880   0.218E-02 0.592E-03
CGA:  15    -0.100519097260E+04   -0.95702E-03   -0.92648E-03  2880   0.543E-03 0.195E-03
CGA:  16    -0.100519125305E+04   -0.28045E-03   -0.37735E-03  2880   0.402E-03-0.253E-03
CGA:  17    -0.100519131801E+04   -0.64959E-04   -0.64935E-04  2880   0.161E-03 0.312E-06
CGA:  18    -0.100519134694E+04   -0.28931E-04   -0.32267E-04  2880   0.652E-04 0.450E-04
CGA:  19    -0.100519136054E+04   -0.13593E-04   -0.16099E-04  2880   0.340E-04 0.322E-04
CGA:  20    -0.100519137064E+04   -0.10103E-04   -0.10880E-04  2880   0.151E-04 0.148E-04
CGA:  21    -0.100519137796E+04   -0.73223E-05   -0.77954E-05  2880   0.893E-05-0.492E-05
   1 F= -.10051914E+04 E0= -.10051914E+04  d E =-.100519E+04  mag=    -0.0000
