       N       E                     dE             d eps       ncg     rms          rms(c)
DAV:   1     0.343723791006E+04    0.34372E+04   -0.18835E+05 10392   0.128E+03
DAV:   2    -0.459665197876E+02   -0.34832E+04   -0.33418E+04 13176   0.229E+02
DAV:   3    -0.518133172209E+03   -0.47217E+03   -0.46706E+03 12756   0.924E+01
DAV:   4    -0.541426396258E+03   -0.23293E+02   -0.23116E+02 13224   0.228E+01
DAV:   5    -0.542575049898E+03   -0.11487E+01   -0.11468E+01 15072   0.500E+00    0.625E+01
DAV:   6    -0.525776200155E+03    0.16799E+02   -0.34040E+01 11676   0.678E+00    0.422E+01
DAV:   7    -0.524639196549E+03    0.11370E+01   -0.24475E+01 12480   0.563E+00    0.806E+00
DAV:   8    -0.524125562109E+03    0.51363E+00   -0.32107E+00 11832   0.237E+00    0.567E+00
DAV:   9    -0.524168437410E+03   -0.42875E-01   -0.33346E-01 13656   0.851E-01    0.165E+00
DAV:  10    -0.524169309746E+03   -0.87234E-03   -0.33963E-02 12600   0.279E-01    0.110E+00
DAV:  11    -0.524172905494E+03   -0.35957E-02   -0.49723E-03 12204   0.116E-01    0.727E-01
DAV:  12    -0.524176351047E+03   -0.34456E-02   -0.43094E-03 11160   0.107E-01    0.125E-01
DAV:  13    -0.524176718823E+03   -0.36778E-03   -0.62200E-04 15192   0.354E-02    0.150E-01
DAV:  14    -0.524176778199E+03   -0.59376E-04   -0.71164E-05 12432   0.119E-02    0.102E-01
DAV:  15    -0.524176863509E+03   -0.85310E-04   -0.57163E-05 10104   0.115E-02    0.556E-02
DAV:  16    -0.524176881708E+03   -0.18199E-04   -0.22218E-05  9012   0.713E-03    0.154E-02
DAV:  17    -0.524176887334E+03   -0.56255E-05   -0.89611E-06  6324   0.447E-03
   1 F= -.52417689E+03 E0= -.52416781E+03  d E =-.524177E+03  mag=     0.0050
       N       E                     dE             d eps       ncg     rms          rms(c)
DAV:   1    -0.524178644832E+03   -0.17631E-02   -0.37013E-03 10812   0.809E-02    0.635E-02
DAV:   2    -0.524178671937E+03   -0.27105E-04   -0.33119E-04 14460   0.263E-02    0.201E-02
DAV:   3    -0.524178669614E+03    0.23227E-05   -0.92533E-06  7164   0.526E-03    0.128E-02
DAV:   4    -0.524178668859E+03    0.75539E-06   -0.56900E-06  5868   0.368E-03
   2 F= -.52417867E+03 E0= -.52416960E+03  d E =-.178153E-02  mag=     0.0009
       N       E                     dE             d eps       ncg     rms          rms(c)
DAV:   1    -0.524190653224E+03   -0.11984E-01   -0.49051E-01 10560   0.925E-01    0.701E-01
DAV:   2    -0.524194202168E+03   -0.35489E-02   -0.42769E-02 14184   0.296E-01    0.219E-01
DAV:   3    -0.524193959859E+03    0.24231E-03   -0.14670E-03 13224   0.604E-02    0.143E-01
DAV:   4    -0.524193872683E+03    0.87176E-04   -0.32000E-04 12648   0.245E-02    0.642E-02
DAV:   5    -0.524193858860E+03    0.13824E-04   -0.68338E-05 12732   0.126E-02    0.402E-02
DAV:   6    -0.524193860531E+03   -0.16711E-05   -0.17621E-05  7920   0.657E-03
   3 F= -.52419386E+03 E0= -.52418481E+03  d E =-.151917E-01  mag=     0.0001
       N       E                     dE             d eps       ncg     rms          rms(c)
DAV:   1    -0.524199195979E+03   -0.53371E-02   -0.18530E+00 10416   0.166E+00    0.788E-01
DAV:   2    -0.524211252935E+03   -0.12057E-01   -0.13711E-01 13968   0.517E-01    0.350E-01
DAV:   3    -0.524210723897E+03    0.52904E-03   -0.29854E-03 12996   0.883E-02    0.277E-01
DAV:   4    -0.524210444366E+03    0.27953E-03   -0.73396E-04 12480   0.360E-02    0.166E-01
DAV:   5    -0.524210384110E+03    0.60255E-04   -0.30116E-04 13212   0.227E-02    0.640E-02
DAV:   6    -0.524210389876E+03   -0.57657E-05   -0.75844E-05 13764   0.113E-02
   4 F= -.52421039E+03 E0= -.52420134E+03  d E =-.165293E-01  mag=     0.0000
       N       E                     dE             d eps       ncg     rms          rms(c)
DAV:   1    -0.524210766453E+03   -0.38234E-03   -0.10490E+00 10416   0.130E+00    0.700E-01
DAV:   2    -0.524218611212E+03   -0.78448E-02   -0.86957E-02 13920   0.423E-01    0.269E-01
DAV:   3    -0.524218206967E+03    0.40424E-03   -0.17743E-03 12612   0.705E-02    0.217E-01
DAV:   4    -0.524218047214E+03    0.15975E-03   -0.54796E-04 12528   0.314E-02    0.127E-01
DAV:   5    -0.524218018532E+03    0.28682E-04   -0.15304E-04 13500   0.170E-02    0.480E-02
DAV:   6    -0.524218022131E+03   -0.35992E-05   -0.43357E-05 11928   0.878E-03
   5 F= -.52421802E+03 E0= -.52420896E+03  d E =-.763226E-02  mag=     0.0000
       N       E                     dE             d eps       ncg     rms          rms(c)
DAV:   1    -0.524203651308E+03    0.14367E-01   -0.24729E+00 10392   0.208E+00    0.122E+00
DAV:   2    -0.524222936819E+03   -0.19286E-01   -0.21934E-01 14664   0.688E-01    0.458E-01
DAV:   3    -0.524221844444E+03    0.10924E-02   -0.45162E-03 12804   0.112E-01    0.372E-01
DAV:   4    -0.524221506829E+03    0.33761E-03   -0.12748E-03 13320   0.482E-02    0.205E-01
DAV:   5    -0.524221408109E+03    0.98721E-04   -0.29343E-04 12216   0.254E-02    0.779E-02
DAV:   6    -0.524221415555E+03   -0.74461E-05   -0.16835E-04 13704   0.178E-02    0.501E-02
DAV:   7    -0.524221412529E+03    0.30254E-05   -0.32784E-05  9804   0.850E-03
   6 F= -.52422141E+03 E0= -.52421233E+03  d E =-.339040E-02  mag=     0.0000
       N       E                     dE             d eps       ncg     rms          rms(c)
DAV:   1    -0.524162528977E+03    0.58887E-01   -0.59702E+00 10368   0.332E+00    0.233E+00
DAV:   2    -0.524212340433E+03   -0.49811E-01   -0.56870E-01 14976   0.113E+00    0.745E-01
DAV:   3    -0.524209029314E+03    0.33111E-02   -0.13612E-02 12720   0.194E-01    0.565E-01
DAV:   4    -0.524208009825E+03    0.10195E-02   -0.42981E-03 12984   0.904E-02    0.260E-01
DAV:   5    -0.524207867072E+03    0.14275E-03   -0.78611E-04 13296   0.451E-02    0.129E-01
DAV:   6    -0.524207908813E+03   -0.41742E-04   -0.29613E-04 13704   0.241E-02    0.118E-01
DAV:   7    -0.524207877605E+03    0.31208E-04   -0.99243E-05 11436   0.146E-02    0.740E-02
DAV:   8    -0.524207873536E+03    0.40688E-05   -0.29527E-05  8280   0.776E-03
   7 F= -.52420787E+03 E0= -.52419878E+03  d E =0.135390E-01  mag=     0.0000
       N       E                     dE             d eps       ncg     rms          rms(c)
DAV:   1    -0.524208030765E+03   -0.15316E-03   -0.25239E+00 10368   0.216E+00    0.152E+00
DAV:   2    -0.524228626908E+03   -0.20596E-01   -0.23502E-01 14376   0.726E-01    0.493E-01
DAV:   3    -0.524227263712E+03    0.13632E-02   -0.68379E-03 12864   0.138E-01    0.351E-01
DAV:   4    -0.524226778826E+03    0.48489E-03   -0.19217E-03 12936   0.614E-02    0.162E-01
DAV:   5    -0.524226724313E+03    0.54513E-04   -0.37323E-04 12948   0.303E-02    0.953E-02
DAV:   6    -0.524226742940E+03   -0.18627E-04   -0.12361E-04 13500   0.158E-02    0.801E-02
DAV:   7    -0.524226723380E+03    0.19560E-04   -0.76011E-05 10716   0.127E-02    0.467E-02
DAV:   8    -0.524226723563E+03   -0.18315E-06   -0.15547E-05  6732   0.587E-03
   8 F= -.52422672E+03 E0= -.52421765E+03  d E =-.188500E-01  mag=     0.0000
       N       E                     dE             d eps       ncg     rms          rms(c)
DAV:   1    -0.524227097785E+03   -0.37440E-03   -0.12563E-01 10440   0.456E-01    0.305E-01
DAV:   2    -0.524228110691E+03   -0.10129E-02   -0.11314E-02 14400   0.155E-01    0.101E-01
DAV:   3    -0.524228046609E+03    0.64082E-04   -0.29821E-04 12912   0.282E-02    0.768E-02
DAV:   4    -0.524228029837E+03    0.16772E-04   -0.92487E-05 12888   0.132E-02    0.427E-02
DAV:   5    -0.524228028419E+03    0.14184E-05   -0.10554E-05  6660   0.529E-03
   9 F= -.52422803E+03 E0= -.52421896E+03  d E =-.130486E-02  mag=    -0.0000
