       N       E                     dE             d eps       ncg     rms          rms(c)
DAV:   1     0.825271689077E+04    0.82527E+04   -0.23553E+05 34296   0.219E+03
DAV:   2     0.116128555875E+04   -0.70914E+04   -0.66467E+04 33696   0.633E+02
DAV:   3    -0.387768667370E+03   -0.15491E+04   -0.13622E+04 35796   0.272E+02
DAV:   4    -0.544890296331E+03   -0.15712E+03   -0.15440E+03 36840   0.835E+01
DAV:   5    -0.547678306287E+03   -0.27880E+01   -0.27735E+01 36624   0.125E+01    0.105E+02
DAV:   6    -0.552313705413E+03   -0.46354E+01   -0.92190E+02 44748   0.116E+02    0.121E+02
DAV:   7    -0.439966392187E+03    0.11235E+03   -0.33320E+02 36792   0.119E+02    0.359E+01
DAV:   8    -0.441758999637E+03   -0.17926E+01   -0.72776E+01 40104   0.233E+01    0.105E+01
DAV:   9    -0.445013578181E+03   -0.32546E+01   -0.16384E+01 39588   0.213E+01    0.190E+01
DAV:  10    -0.442380268809E+03    0.26333E+01   -0.57463E+00 37584   0.155E+01    0.460E+00
DAV:  11    -0.442497463216E+03   -0.11719E+00   -0.15092E+00 37224   0.596E+00    0.476E+00
DAV:  12    -0.442431584332E+03    0.65879E-01   -0.11390E+00 36984   0.442E+00    0.264E+00
DAV:  13    -0.442458708510E+03   -0.27124E-01   -0.69106E-01 39348   0.334E+00    0.249E+00
DAV:  14    -0.442414199765E+03    0.44509E-01   -0.18670E-01 43008   0.234E+00    0.722E-01
DAV:  15    -0.442418215529E+03   -0.40158E-02   -0.62279E-02 38952   0.146E+00    0.919E-01
DAV:  16    -0.442413464436E+03    0.47511E-02   -0.39544E-02 39408   0.971E-01    0.291E-01
DAV:  17    -0.442413990971E+03   -0.52653E-03   -0.73365E-03 38028   0.583E-01    0.314E-01
DAV:  18    -0.442413458207E+03    0.53276E-03   -0.36240E-03 37356   0.424E-01    0.108E-01
DAV:  19    -0.442413560498E+03   -0.10229E-03   -0.11405E-03 39228   0.220E-01    0.120E-01
DAV:  20    -0.442413487187E+03    0.73311E-04   -0.65873E-04 39564   0.181E-01    0.446E-02
DAV:  21    -0.442413505454E+03   -0.18267E-04   -0.13408E-04 34872   0.718E-02    0.470E-02
DAV:  22    -0.442413501629E+03    0.38254E-05   -0.73209E-05 29160   0.590E-02
   1 F= -.44241350E+03 E0= -.44239672E+03  d E =-.335642E-01  mag=     0.3429
