       N       E                     dE             d eps       ncg     rms          ort
DAV:   1     0.112528076445E+05    0.11253E+05   -0.46666E+05  8540   0.171E+03
DAV:   2     0.308546186018E+02   -0.11222E+05   -0.10208E+05  8540   0.487E+02
DAV:   3    -0.160741970346E+04   -0.16383E+04   -0.15525E+04  8540   0.198E+02
DAV:   4    -0.169195199075E+04   -0.84532E+02   -0.83300E+02  8540   0.458E+01
DAV:   5    -0.169303425326E+04   -0.10823E+01   -0.10789E+01  8540   0.560E+00
SDA:   6    -0.801684571944E+03    0.89135E+03   -0.10789E+01  8540   0.301E+04 0.000E+00
CGA:   7    -0.122039045139E+04   -0.41871E+03   -0.41887E+03  8540   0.351E+03 0.738E+02
CGA:   8    -0.127572611799E+04   -0.55336E+02   -0.47720E+02  8540   0.106E+03 0.537E+02
CGA:   9    -0.129563457497E+04   -0.19908E+02   -0.19766E+02  8540   0.751E+02 0.935E+00
CGA:  10    -0.130922618912E+04   -0.13592E+02   -0.13355E+02  8540   0.578E+02-0.743E+01
CGA:  11    -0.131672805927E+04   -0.75019E+01   -0.49934E+01  8540   0.256E+02 0.304E+02
CGA:  12    -0.131641387541E+04    0.31418E+00   -0.17474E+01  8540   0.799E+02-0.294E+02
CGA:  13    -0.131788589258E+04   -0.14720E+01   -0.67388E+01  8540   0.237E+02-0.118E+02
CGA:  14    -0.132116370952E+04   -0.32778E+01   -0.12571E+01  8540   0.246E+02 0.626E+02
CGA:  15    -0.131910534757E+04    0.20584E+01   -0.13584E+01  8540   0.106E+03-0.382E+02
CGA:  16    -0.131921810013E+04   -0.11275E+00   -0.79572E+01  8540   0.198E+02-0.145E+02
CGA:  17    -0.132113864182E+04   -0.19205E+01   -0.81777E+00  8540   0.325E+02 0.477E+02
CGA:  18    -0.131901940082E+04    0.21192E+01   -0.16328E+01  8540   0.780E+02-0.444E+02
CGA:  19    -0.131981447871E+04   -0.79508E+00   -0.52299E+01  8540   0.174E+02-0.164E+02
CGA:  20    -0.132113960885E+04   -0.13251E+01   -0.58613E+00  8540   0.275E+02 0.329E+02
CGA:  21    -0.132025711993E+04    0.88249E+00   -0.11704E+01  8540   0.100E+03-0.773E+02
CGA:  22    -0.132035162016E+04   -0.94500E-01   -0.62713E+01  8540   0.148E+02-0.127E+02
CGA:  23    -0.132138622338E+04   -0.10346E+01   -0.43654E+00  8540   0.253E+02 0.295E+02
CGA:  24    -0.132125384910E+04    0.13237E+00   -0.93646E+00  8540   0.894E+02-0.838E+02
CGA:  25    -0.132090177929E+04    0.35207E+00   -0.50573E+01  8540   0.123E+02-0.939E+01
CGA:  26    -0.132179245904E+04   -0.89068E+00   -0.28284E+00  8540   0.272E+02 0.329E+02
CGA:  27    -0.132181859959E+04   -0.26141E-01   -0.92400E+00  8540   0.681E+02-0.678E+02
CGA:  28    -0.132133252337E+04    0.48608E+00   -0.34228E+01  8540   0.140E+02-0.103E+02
CGA:  29    -0.132237569904E+04   -0.10432E+01   -0.27923E+00  8540   0.223E+02 0.324E+02
CGA:  30    -0.132260159361E+04   -0.22589E+00   -0.61866E+00  8540   0.217E+02-0.282E+02
CGA:  31    -0.132236739002E+04    0.23420E+00   -0.83243E+00  8540   0.224E+02-0.158E+02
CGA:  32    -0.132275833791E+04   -0.39095E+00   -0.57245E+00  8540   0.121E+02-0.217E+02
CGA:  33    -0.132275071092E+04    0.76270E-02   -0.37643E+00  8540   0.104E+02-0.935E+01
CGA:  34    -0.132293894269E+04   -0.18823E+00   -0.18002E+00  8540   0.256E+00-0.915E+00
CGA:  35    -0.132295962813E+04   -0.20685E-01   -0.20757E-01  8540   0.100E+01-0.359E-01
CGA:  36    -0.132289484018E+04    0.64788E-01   -0.23347E+00  8540   0.744E+01-0.387E+01
CGA:  37    -0.132307091950E+04   -0.17608E+00   -0.34125E+00  8540   0.221E+01-0.148E+01
CGA:  38    -0.132312889597E+04   -0.57976E-01   -0.45637E-01  8540   0.191E+00 0.442E+00
CGA:  39    -0.132313553519E+04   -0.66392E-02   -0.69354E-02  8540   0.169E+00 0.273E-01
CGA:  40    -0.132315378914E+04   -0.18254E-01   -0.17943E-01  8540   0.351E+00 0.533E-01
CGA:  41    -0.132316485815E+04   -0.11069E-01   -0.13727E-01  8540   0.428E-01 0.138E-01
CGA:  42    -0.132317308206E+04   -0.82239E-02   -0.70629E-02  8540   0.114E-01 0.149E-01
CGA:  43    -0.132317483584E+04   -0.17538E-02   -0.20260E-02  8540   0.641E-01-0.618E-02
CGA:  44    -0.132317652351E+04   -0.16877E-02   -0.15923E-02  8540   0.602E-02-0.752E-02
CGA:  45    -0.132317749984E+04   -0.97633E-03    0.37719E-02  8540   0.577E-02 0.201E-02
CGA:  46    -0.132317915849E+04   -0.16587E-02    0.13604E-02  8540   0.727E-02 0.181E-02
CGA:  47    -0.132318118709E+04   -0.20286E-02    0.18392E-02  8540   0.624E-02 0.942E-03
CGA:  48    -0.132318293036E+04   -0.17433E-02    0.71509E-03  8540   0.955E-02-0.184E-02
CGA:  49    -0.132318494522E+04   -0.20149E-02    0.40014E-03  8540   0.304E-02-0.345E-02
CGA:  50    -0.132318547482E+04   -0.52960E-03    0.14768E-03  8540   0.650E-02-0.152E-02
CGA:  51    -0.132318554474E+04   -0.69914E-04   -0.14282E-03  8540   0.131E-02 0.125E-02
CGA:  52    -0.132318554774E+04   -0.30014E-05   -0.57236E-04  8540   0.162E-02 0.116E-02
CGA:  53    -0.132318560955E+04   -0.61813E-04   -0.74715E-04  8540   0.161E-02 0.356E-03
CGA:  54    -0.132318564400E+04   -0.34450E-04   -0.88969E-04  8540   0.958E-03 0.160E-02
CGA:  55    -0.132318564325E+04    0.75554E-06   -0.24849E-04  8540   0.567E-03 0.497E-03
CGA:  56    -0.132318567183E+04   -0.28586E-04   -0.34837E-04  8540   0.502E-03 0.460E-03
CGA:  57    -0.132318567339E+04   -0.15534E-05   -0.17050E-04  8540   0.422E-03 0.384E-03
CGA:  58    -0.132318569888E+04   -0.25498E-04   -0.27629E-04  8540   0.413E-03 0.314E-03
CGA:  59    -0.132318569787E+04    0.10118E-05   -0.11447E-04  8540   0.310E-03 0.282E-03
CGA:  60    -0.132318571923E+04   -0.21357E-04   -0.21476E-04  8540   0.288E-03 0.249E-03
CGA:  61    -0.132318571971E+04   -0.48433E-06   -0.88185E-05  8540   0.237E-03 0.213E-03
CGA:  62    -0.132318574830E+04   -0.28584E-04   -0.23517E-04  8540   0.292E-03 0.161E-03
CGA:  63    -0.132318574741E+04    0.88604E-06   -0.65241E-05  8540   0.165E-03 0.158E-03
CGA:  64    -0.132318579064E+04   -0.43227E-04   -0.29687E-04  8540   0.128E-03 0.120E-03
CGA:  65    -0.132318579412E+04   -0.34807E-05   -0.54808E-05  8540   0.125E-03 0.669E-04
   1 F= -.13231858E+04 E0= -.13231769E+04  d E =-.132319E+04  mag=   126.0000
       N       E                     dE             d eps       ncg     rms          ort
SDA:   1    -0.132318294423E+04    0.28464E-02    0.00000E+00  8540   0.487E+00 0.000E+00
CGA:   2    -0.132319312958E+04   -0.10185E-01   -0.11629E-01  8540   0.185E-01-0.662E-01
CGA:   3    -0.132319376124E+04   -0.63166E-03   -0.65466E-03  8540   0.767E-02 0.105E-02
CGA:   4    -0.132319224869E+04    0.15126E-02   -0.11736E-02  8540   0.121E+00-0.136E-01
CGA:   5    -0.132319480724E+04   -0.25585E-02   -0.24683E-02  8540   0.101E-01 0.181E-01
CGA:   6    -0.132319529382E+04   -0.48659E-03   -0.62093E-03  8540   0.137E-01 0.221E-02
CGA:   7    -0.132319595757E+04   -0.66374E-03   -0.79175E-03  8540   0.963E-03 0.186E-02
CGA:   8    -0.132319604183E+04   -0.84259E-04   -0.60183E-04  8540   0.183E-02-0.443E-03
CGA:   9    -0.132319613758E+04   -0.95755E-04   -0.78840E-04  8540   0.333E-02-0.592E-03
CGA:  10    -0.132319616553E+04   -0.27943E-04   -0.30311E-04  8540   0.930E-03 0.605E-04
CGA:  11    -0.132319616860E+04   -0.30754E-05   -0.10444E-04  8540   0.259E-03 0.951E-04
   2 F= -.13231962E+04 E0= -.13231874E+04  d E =-.103745E-01  mag=   126.0000
       N       E                     dE             d eps       ncg     rms          ort
SDA:   1    -0.132201792064E+04    0.11782E+01    0.00000E+00  8540   0.584E+01 0.000E+00
CGA:   2    -0.132229306456E+04   -0.27514E+00   -0.19990E+00  8540   0.320E+01 0.152E+01
CGA:   3    -0.132288572342E+04   -0.59266E+00   -0.59393E+00  8540   0.823E+01-0.188E-01
CGA:   4    -0.132304772565E+04   -0.16200E+00   -0.23566E+00  8540   0.168E+01-0.200E+01
CGA:   5    -0.132321788236E+04   -0.17016E+00   -0.16957E+00  8540   0.153E+01 0.903E-02
CGA:   6    -0.132327372524E+04   -0.55843E-01   -0.46245E-01  8540   0.372E+00 0.273E+00
CGA:   7    -0.132331720352E+04   -0.43478E-01   -0.43509E-01  8540   0.838E+00 0.639E-03
CGA:   8    -0.132334265071E+04   -0.25447E-01   -0.26366E-01  8540   0.139E+00-0.362E-01
CGA:   9    -0.132334846078E+04   -0.58101E-02   -0.59041E-02  8540   0.164E+00-0.843E-02
CGA:  10    -0.132336203584E+04   -0.13575E-01   -0.13575E-01  8540   0.107E+00-0.169E-03
CGA:  11    -0.132336464220E+04   -0.26064E-02   -0.26056E-02  8540   0.306E-01 0.950E-02
CGA:  12    -0.132336742359E+04   -0.27814E-02   -0.27782E-02  8540   0.842E-01 0.256E-02
CGA:  13    -0.132337195282E+04   -0.45292E-02   -0.44896E-02  8540   0.192E-01-0.152E-02
CGA:  14    -0.132337264146E+04   -0.68864E-03   -0.62094E-03  8540   0.126E-01-0.219E-02
CGA:  15    -0.132337411977E+04   -0.14783E-02   -0.15181E-02  8540   0.175E-01-0.694E-03
CGA:  16    -0.132337444904E+04   -0.32927E-03   -0.38815E-03  8540   0.337E-02 0.150E-02
CGA:  17    -0.132337459860E+04   -0.14956E-03   -0.17009E-03  8540   0.538E-02 0.672E-03
CGA:  18    -0.132337530050E+04   -0.70190E-03   -0.73426E-03  8540   0.374E-02-0.868E-03
CGA:  19    -0.132337542699E+04   -0.12649E-03   -0.84207E-04  8540   0.101E-02-0.899E-03
CGA:  20    -0.132337540982E+04    0.17173E-04   -0.27132E-03  8540   0.106E-01-0.104E-02
CGA:  21    -0.132337558451E+04   -0.17469E-03   -0.23344E-03  8540   0.630E-03 0.131E-02
CGA:  22    -0.132337561141E+04   -0.26901E-04   -0.36072E-04  8540   0.866E-03 0.261E-03
CGA:  23    -0.132337576697E+04   -0.15556E-03   -0.29473E-03  8540   0.624E-03-0.893E-03
CGA:  24    -0.132337577376E+04   -0.67933E-05   -0.21195E-04  8540   0.330E-03 0.249E-03
CGA:  25    -0.132337582312E+04   -0.49363E-04   -0.47377E-04  8540   0.201E-03 0.150E-03
CGA:  26    -0.132337584390E+04   -0.20775E-04   -0.33448E-04  8540   0.185E-02-0.522E-03
CGA:  27    -0.132337585373E+04   -0.98262E-05   -0.35531E-04  8540   0.104E-03 0.386E-03
   3 F= -.13233759E+04 E0= -.13233680E+04  d E =-.179685E+00  mag=   126.0000
       N       E                     dE             d eps       ncg     rms          ort
SDA:   1    -0.130495085641E+04    0.18425E+02    0.00000E+00  8540   0.508E+02 0.000E+00
CGA:   2    -0.130988436656E+04   -0.49335E+01   -0.12838E+02  8540   0.940E+02-0.123E+02
CGA:   3    -0.131635891565E+04   -0.64745E+01   -0.73969E+01  8540   0.455E+02-0.400E+02
CGA:   4    -0.131951156137E+04   -0.31526E+01   -0.31470E+01  8540   0.179E+02 0.189E+00
CGA:   5    -0.132066360156E+04   -0.11520E+01   -0.62379E+00  8540   0.130E+02 0.172E+02
CGA:   6    -0.132158919505E+04   -0.92559E+00   -0.58031E+00  8540   0.779E+01 0.403E+01
CGA:   7    -0.132273636466E+04   -0.11472E+01   -0.11551E+01  8540   0.282E+02-0.211E+00
CGA:   8    -0.132324802956E+04   -0.51166E+00   -0.61304E+00  8540   0.467E+01-0.411E+01
CGA:   9    -0.132328878105E+04   -0.40751E-01   -0.13830E+00  8540   0.189E+01-0.154E+01
CGA:  10    -0.132351336751E+04   -0.22459E+00   -0.22523E+00  8540   0.796E+00-0.689E-02
CGA:  11    -0.132357638423E+04   -0.63017E-01   -0.59769E-01  8540   0.655E+00-0.539E-01
CGA:  12    -0.132365702515E+04   -0.80641E-01   -0.80703E-01  8540   0.273E+00-0.135E-02
CGA:  13    -0.132367248917E+04   -0.15464E-01   -0.17008E-01  8540   0.108E+00-0.536E-02
CGA:  14    -0.132369344922E+04   -0.20960E-01   -0.20923E-01  8540   0.326E-01 0.463E-03
CGA:  15    -0.132369968449E+04   -0.62353E-02   -0.61933E-02  8540   0.348E-01 0.525E-03
CGA:  16    -0.132370382123E+04   -0.41367E-02   -0.41855E-02  8540   0.775E-02-0.390E-02
CGA:  17    -0.132370589991E+04   -0.20787E-02   -0.23106E-02  8540   0.377E-02-0.940E-03
CGA:  18    -0.132370512943E+04    0.77048E-03   -0.68775E-03  8540   0.909E-02-0.491E-02
CGA:  19    -0.132370765507E+04   -0.25256E-02   -0.25918E-02  8540   0.270E-02-0.758E-03
CGA:  20    -0.132370819206E+04   -0.53699E-03   -0.54698E-03  8540   0.166E-02-0.799E-03
CGA:  21    -0.132370827433E+04   -0.82266E-04   -0.11744E-03  8540   0.450E-03 0.342E-03
CGA:  22    -0.132370829042E+04   -0.16088E-04   -0.36939E-04  8540   0.157E-03 0.177E-03
CGA:  23    -0.132370833033E+04   -0.39917E-04   -0.39295E-04  8540   0.239E-03-0.300E-04
CGA:  24    -0.132370843062E+04   -0.10028E-03    0.58893E-04  8540   0.285E-03-0.269E-03
CGA:  25    -0.132370849826E+04   -0.67646E-04   -0.75689E-04  8540   0.182E-03-0.110E-03
CGA:  26    -0.132370850807E+04   -0.98062E-05   -0.11829E-04  8540   0.635E-04 0.236E-04
CGA:  27    -0.132370853848E+04   -0.30410E-04    0.78315E-04  8540   0.804E-04-0.516E-04
CGA:  28    -0.132370859373E+04   -0.55249E-04    0.10223E-04  8540   0.886E-04-0.689E-04
CGA:  29    -0.132370858933E+04    0.43991E-05   -0.34711E-05  8540   0.315E-04 0.522E-04
   4 F= -.13237086E+04 E0= -.13237079E+04  d E =-.332736E+00  mag=   126.0000
       N       E                     dE             d eps       ncg     rms          ort
SDA:   1    -0.132095392630E+04    0.27547E+01    0.00000E+00  8540   0.749E+01 0.000E+00
CGA:   2    -0.132297525346E+04   -0.20213E+01   -0.20283E+01  8540   0.353E+01-0.883E-01
CGA:   3    -0.132366610484E+04   -0.69085E+00   -0.68972E+00  8540   0.658E+00 0.419E-01
CGA:   4    -0.132380751779E+04   -0.14141E+00   -0.14129E+00  8540   0.122E+00 0.416E-02
CGA:   5    -0.132383419689E+04   -0.26679E-01   -0.26731E-01  8540   0.277E-01-0.165E-02
CGA:   6    -0.132384118225E+04   -0.69854E-02   -0.70300E-02  8540   0.823E-02-0.644E-03
CGA:   7    -0.132384362836E+04   -0.24461E-02   -0.26291E-02  8540   0.362E-02-0.135E-02
CGA:   8    -0.132384445645E+04   -0.82809E-03   -0.82910E-03  8540   0.123E-02-0.128E-04
CGA:   9    -0.132384452501E+04   -0.68561E-04   -0.83501E-03  8540   0.353E-02-0.159E-02
CGA:  10    -0.132384504339E+04   -0.51838E-03   -0.55480E-03  8540   0.474E-03 0.535E-03
CGA:  11    -0.132384513736E+04   -0.93969E-04   -0.28045E-03  8540   0.971E-03-0.639E-03
CGA:  12    -0.132384528841E+04   -0.15105E-03   -0.16305E-03  8540   0.124E-03 0.175E-03
CGA:  13    -0.132384535719E+04   -0.68777E-04    0.23551E-02  8540   0.187E-04-0.745E-05
CGA:  14    -0.132384537250E+04   -0.15312E-04    0.23507E-05  8540   0.811E-05 0.835E-05
CGA:  15    -0.132384539468E+04   -0.22186E-04    0.44891E-06  8540   0.503E-05 0.617E-05
CGA:  16    -0.132384541206E+04   -0.17380E-04    0.91410E-07  8540   0.308E-05 0.310E-05
CGA:  17    -0.132384542122E+04   -0.91512E-05    0.66735E-07  8540   0.236E-05 0.238E-05
   5 F= -.13238454E+04 E0= -.13238454E+04  d E =-.136832E+00  mag=   126.0000
       N       E                     dE             d eps       ncg     rms          ort
SDA:   1    -0.131248641669E+04    0.11359E+02    0.00000E+00  8540   0.284E+02 0.000E+00
CGA:   2    -0.132105364461E+04   -0.85672E+01   -0.85758E+01  8540   0.118E+02-0.123E+00
CGA:   3    -0.132334234082E+04   -0.22887E+01   -0.22925E+01  8540   0.235E+01 0.369E-01
CGA:   4    -0.132384136112E+04   -0.49902E+00   -0.49923E+00  8540   0.411E+00 0.767E-02
CGA:   5    -0.132393390194E+04   -0.92541E-01   -0.92534E-01  8540   0.969E-01-0.935E-03
CGA:   6    -0.132395935819E+04   -0.25456E-01   -0.25499E-01  8540   0.300E-01-0.144E-02
CGA:   7    -0.132396807913E+04   -0.87209E-02   -0.87524E-02  8540   0.102E-01-0.518E-03
CGA:   8    -0.132397144930E+04   -0.33702E-02   -0.33870E-02  8540   0.385E-02-0.170E-03
CGA:   9    -0.132397279161E+04   -0.13423E-02   -0.14051E-02  8540   0.142E-02-0.487E-03
CGA:  10    -0.132397321150E+04   -0.41989E-03   -0.44109E-03  8540   0.499E-03-0.201E-03
CGA:  11    -0.132397124265E+04    0.19688E-02   -0.10622E-02  8540   0.121E-01-0.194E-02
CGA:  12    -0.132397316336E+04   -0.19207E-02   -0.20781E-02  8540   0.150E-02 0.590E-03
CGA:  13    -0.132397367722E+04   -0.51386E-03   -0.48266E-03  8540   0.391E-03-0.219E-03
CGA:  14    -0.132397372195E+04   -0.44729E-04   -0.69599E-04  8540   0.102E-03 0.107E-03
CGA:  15    -0.132397374355E+04   -0.21599E-04   -0.28806E-04  8540   0.370E-04 0.347E-04
CGA:  16    -0.132397368279E+04    0.60757E-04   -0.63577E-04  8540   0.556E-03-0.145E-03
CGA:  17    -0.132397371501E+04   -0.32221E-04   -0.81429E-04  8540   0.101E-03 0.156E-03
CGA:  18    -0.132397373336E+04   -0.18344E-04   -0.26140E-04  8540   0.310E-04 0.319E-04
CGA:  19    -0.132397377109E+04   -0.37731E-04    0.13884E-03  8540   0.605E-04-0.405E-04
CGA:  20    -0.132397376371E+04    0.73742E-05   -0.47181E-05  8540   0.205E-04 0.339E-04
   6 F= -.13239738E+04 E0= -.13239738E+04  d E =-.128342E+00  mag=   126.0000
       N       E                     dE             d eps       ncg     rms          ort
SDA:   1    -0.132189805595E+04    0.20757E+01    0.00000E+00  8540   0.549E+01 0.000E+00
CGA:   2    -0.132336326843E+04   -0.14652E+01   -0.14654E+01  8540   0.255E+01 0.160E-03
CGA:   3    -0.132388054232E+04   -0.51727E+00   -0.51702E+00  8540   0.481E+00 0.253E-03
CGA:   4    -0.132398063207E+04   -0.10009E+00   -0.10012E+00  8540   0.885E-01 0.899E-04
CGA:   5    -0.132400016567E+04   -0.19534E-01   -0.19552E-01  8540   0.197E-01 0.847E-04
CGA:   6    -0.132400509670E+04   -0.49310E-02   -0.49241E-02  8540   0.538E-02-0.653E-04
CGA:   7    -0.132400658671E+04   -0.14900E-02   -0.14947E-02  8540   0.162E-02 0.554E-04
CGA:   8    -0.132400715605E+04   -0.56933E-03   -0.56812E-03  8540   0.664E-03-0.129E-03
CGA:   9    -0.132400737424E+04   -0.21819E-03   -0.21825E-03  8540   0.241E-03-0.718E-04
CGA:  10    -0.132400745599E+04   -0.81746E-04   -0.83497E-04  8540   0.107E-03-0.562E-04
CGA:  11    -0.132400748545E+04   -0.29461E-04   -0.29537E-04  8540   0.569E-04-0.260E-04
CGA:  12    -0.132400751990E+04   -0.34452E-04    0.66306E-04  8540   0.328E-04-0.145E-04
CGA:  13    -0.132400752989E+04   -0.99906E-05   -0.11358E-04  8540   0.240E-04-0.130E-04
   7 F= -.13240075E+04 E0= -.13240075E+04  d E =-.337662E-01  mag=   126.0000
       N       E                     dE             d eps       ncg     rms          ort
SDA:   1    -0.132332213477E+04    0.68539E+00    0.00000E+00  8540   0.183E+01 0.000E+00
CGA:   2    -0.132381567020E+04   -0.49354E+00   -0.49362E+00  8540   0.822E+00 0.326E-03
CGA:   3    -0.132398155533E+04   -0.16589E+00   -0.16588E+00  8540   0.160E+00-0.298E-04
CGA:   4    -0.132401498836E+04   -0.33433E-01   -0.33459E-01  8540   0.289E-01 0.149E-03
CGA:   5    -0.132402134230E+04   -0.63539E-02   -0.63509E-02  8540   0.636E-02-0.348E-04
CGA:   6    -0.132402291911E+04   -0.15768E-02   -0.15836E-02  8540   0.170E-02 0.756E-04
CGA:   7    -0.132402335919E+04   -0.44008E-03   -0.44961E-03  8540   0.472E-03 0.131E-03
CGA:   8    -0.132402352822E+04   -0.16903E-03   -0.16901E-03  8540   0.184E-03 0.662E-05
CGA:   9    -0.132402358575E+04   -0.57534E-04   -0.57858E-04  8540   0.565E-04 0.167E-04
CGA:  10    -0.132402360677E+04   -0.21016E-04   -0.21004E-04  8540   0.191E-04 0.101E-05
CGA:  11    -0.132402360935E+04   -0.25814E-05   -0.37619E-05  8540   0.680E-05 0.868E-05
   8 F= -.13240236E+04 E0= -.13240236E+04  d E =-.160795E-01  mag=   126.0000
       N       E                     dE             d eps       ncg     rms          ort
SDA:   1    -0.132294981803E+04    0.10738E+01    0.00000E+00  8540   0.280E+01 0.000E+00
CGA:   2    -0.132371172765E+04   -0.76191E+00   -0.76198E+00  8540   0.129E+01 0.956E-03
CGA:   3    -0.132397072775E+04   -0.25900E+00   -0.25902E+00  8540   0.240E+00-0.978E-04
CGA:   4    -0.132402054644E+04   -0.49819E-01   -0.49816E-01  8540   0.418E-01-0.353E-04
CGA:   5    -0.132402993895E+04   -0.93925E-02   -0.93725E-02  8540   0.959E-02-0.267E-03
CGA:   6    -0.132403233146E+04   -0.23925E-02   -0.23901E-02  8540   0.250E-02-0.512E-04
CGA:   7    -0.132403300649E+04   -0.67504E-03   -0.67740E-03  8540   0.728E-03 0.966E-04
CGA:   8    -0.132403326503E+04   -0.25854E-03   -0.25963E-03  8540   0.285E-03-0.232E-04
CGA:   9    -0.132403336334E+04   -0.98311E-04   -0.99582E-04  8540   0.102E-03-0.203E-04
CGA:  10    -0.132403340046E+04   -0.37115E-04   -0.47145E-04  8540   0.759E-04-0.511E-04
CGA:  11    -0.132403340976E+04   -0.93042E-05   -0.12517E-04  8540   0.126E-04 0.220E-04
   9 F= -.13240334E+04 E0= -.13240334E+04  d E =-.980042E-02  mag=   126.0000
       N       E                     dE             d eps       ncg     rms          ort
SDA:   1    -0.132308404943E+04    0.94935E+00    0.00000E+00  8540   0.242E+01 0.000E+00
CGA:   2    -0.132375931361E+04   -0.67526E+00   -0.67530E+00  8540   0.113E+01 0.500E-03
CGA:   3    -0.132398505594E+04   -0.22574E+00   -0.22572E+00  8540   0.206E+00-0.255E-03
CGA:   4    -0.132402766945E+04   -0.42614E-01   -0.42582E-01  8540   0.355E-01-0.367E-03
CGA:   5    -0.132403570042E+04   -0.80310E-02   -0.80145E-02  8540   0.816E-02-0.255E-03
CGA:   6    -0.132403772955E+04   -0.20291E-02   -0.20265E-02  8540   0.209E-02-0.675E-04
CGA:   7    -0.132403829149E+04   -0.56194E-03   -0.56323E-03  8540   0.610E-03 0.796E-04
CGA:   8    -0.132403851014E+04   -0.21865E-03   -0.22064E-03  8540   0.244E-03-0.328E-04
CGA:   9    -0.132403860124E+04   -0.91098E-04   -0.10501E-03  8540   0.147E-03-0.852E-04
CGA:  10    -0.132403863471E+04   -0.33472E-04   -0.39345E-04  8540   0.683E-04-0.524E-04
CGA:  11    -0.132403865009E+04   -0.15384E-04   -0.15931E-04  8540   0.286E-04-0.943E-05
CGA:  12    -0.132403865919E+04   -0.90980E-05   -0.90639E-05  8540   0.144E-04 0.553E-06
  10 F= -.13240387E+04 E0= -.13240387E+04  d E =-.524943E-02  mag=   126.0000
       N       E                     dE             d eps       ncg     rms          ort
SDA:   1    -0.132311971192E+04    0.91894E+00    0.00000E+00  8540   0.238E+01 0.000E+00
CGA:   2    -0.132375638439E+04   -0.63667E+00   -0.63674E+00  8540   0.113E+01 0.388E-03
CGA:   3    -0.132398632918E+04   -0.22994E+00   -0.22997E+00  8540   0.205E+00 0.125E-04
CGA:   4    -0.132402890398E+04   -0.42575E-01   -0.42573E-01  8540   0.361E-01-0.421E-04
CGA:   5    -0.132403706865E+04   -0.81647E-02   -0.81440E-02  8540   0.822E-02-0.287E-03
CGA:   6    -0.132403912844E+04   -0.20598E-02   -0.20561E-02  8540   0.210E-02-0.841E-04
CGA:   7    -0.132403967226E+04   -0.54382E-03   -0.54793E-03  8540   0.567E-03 0.134E-03
CGA:   8    -0.132403986408E+04   -0.19182E-03   -0.19115E-03  8540   0.195E-03 0.281E-04
CGA:   9    -0.132403994630E+04   -0.82228E-04   -0.88640E-04  8540   0.104E-03-0.465E-04
CGA:  10    -0.132403997542E+04   -0.29111E-04   -0.33082E-04  8540   0.469E-04-0.346E-04
CGA:  11    -0.132403998489E+04   -0.94697E-05   -0.94617E-05  8540   0.154E-04-0.163E-05
  11 F= -.13240400E+04 E0= -.13240400E+04  d E =-.132569E-02  mag=   126.0000
       N       E                     dE             d eps       ncg     rms          ort
SDA:   1    -0.132377853859E+04    0.26144E+00    0.00000E+00  8540   0.707E+00 0.000E+00
CGA:   2    -0.132395729551E+04   -0.17876E+00   -0.17878E+00  8540   0.329E+00 0.851E-04
CGA:   3    -0.132402703633E+04   -0.69741E-01   -0.69754E-01  8540   0.642E-01 0.201E-04
CGA:   4    -0.132404041339E+04   -0.13377E-01   -0.13382E-01  8540   0.113E-01 0.496E-04
CGA:   5    -0.132404293668E+04   -0.25233E-02   -0.25193E-02  8540   0.254E-02-0.614E-04
CGA:   6    -0.132404359652E+04   -0.65985E-03   -0.65754E-03  8540   0.698E-03-0.829E-04
CGA:   7    -0.132404378598E+04   -0.18946E-03   -0.18941E-03  8540   0.199E-03-0.893E-05
CGA:   8    -0.132404383701E+04   -0.51024E-04   -0.51754E-04  8540   0.536E-04 0.315E-04
CGA:   9    -0.132404385912E+04   -0.22112E-04   -0.22077E-04  8540   0.215E-04 0.492E-06
CGA:  10    -0.132404383872E+04    0.20401E-04   -0.25365E-04  8540   0.162E-03-0.522E-04
CGA:  11    -0.132404387048E+04   -0.31764E-04   -0.33436E-04  8540   0.174E-04 0.132E-04
CGA:  12    -0.132404387548E+04   -0.49983E-05   -0.52646E-05  8540   0.481E-05 0.579E-05
  12 F= -.13240439E+04 E0= -.13240439E+04  d E =-.389059E-02  mag=   126.0000
       N       E                     dE             d eps       ncg     rms          ort
SDA:   1    -0.132399680481E+04    0.47066E-01    0.00000E+00  8540   0.123E+00 0.000E+00
CGA:   2    -0.132403177730E+04   -0.34972E-01   -0.34963E-01  8540   0.555E-01-0.211E-03
CGA:   3    -0.132404267749E+04   -0.10900E-01   -0.10902E-01  8540   0.102E-01-0.232E-05
CGA:   4    -0.132404480503E+04   -0.21275E-02   -0.21326E-02  8540   0.178E-02 0.414E-04
CGA:   5    -0.132404518672E+04   -0.38169E-03   -0.38551E-03  8540   0.382E-03 0.355E-04
CGA:   6    -0.132404529508E+04   -0.10837E-03   -0.10731E-03  8540   0.117E-03-0.254E-04
CGA:   7    -0.132404533416E+04   -0.39080E-04   -0.42180E-04  8540   0.759E-04-0.443E-04
CGA:   8    -0.132404534829E+04   -0.14129E-04   -0.13913E-04  8540   0.267E-04-0.897E-05
CGA:   9    -0.132404535394E+04   -0.56486E-05   -0.58280E-05  8540   0.862E-05 0.258E-05
  13 F= -.13240454E+04 E0= -.13240454E+04  d E =-.147846E-02  mag=   126.0000
       N       E                     dE             d eps       ncg     rms          ort
SDA:   1    -0.132397727569E+04    0.68073E-01    0.00000E+00  8540   0.177E+00 0.000E+00
CGA:   2    -0.132402415092E+04   -0.46875E-01   -0.46882E-01  8540   0.874E-01 0.732E-04
CGA:   3    -0.132404218188E+04   -0.18031E-01   -0.18037E-01  8540   0.157E-01 0.266E-04
CGA:   4    -0.132404538856E+04   -0.32067E-02   -0.32113E-02  8540   0.277E-02 0.447E-04
CGA:   5    -0.132404602344E+04   -0.63488E-03   -0.63143E-03  8540   0.649E-03-0.505E-04
CGA:   6    -0.132404619070E+04   -0.16726E-03   -0.16599E-03  8540   0.177E-03-0.391E-04
CGA:   7    -0.132404623685E+04   -0.46146E-04   -0.46095E-04  8540   0.503E-04-0.347E-05
CGA:   8    -0.132404625477E+04   -0.17924E-04   -0.19194E-04  8540   0.261E-04-0.129E-04
CGA:   9    -0.132404626143E+04   -0.66572E-05   -0.99139E-05  8540   0.229E-04-0.151E-04
CGA:  10    -0.132404626755E+04   -0.61190E-05   -0.11271E-04  8540   0.481E-04-0.278E-04
  14 F= -.13240463E+04 E0= -.13240463E+04  d E =-.913610E-03  mag=   126.0000
       N       E                     dE             d eps       ncg     rms          ort
SDA:   1    -0.132372369888E+04    0.32256E+00    0.00000E+00  8540   0.805E+00 0.000E+00
CGA:   2    -0.132395354502E+04   -0.22985E+00   -0.22985E+00  8540   0.387E+00 0.132E-03
CGA:   3    -0.132402922277E+04   -0.75678E-01   -0.75689E-01  8540   0.674E-01-0.413E-04
CGA:   4    -0.132404316229E+04   -0.13940E-01   -0.13971E-01  8540   0.120E-01 0.329E-03
CGA:   5    -0.132404581835E+04   -0.26561E-02   -0.26593E-02  8540   0.263E-02 0.403E-04
CGA:   6    -0.132404649333E+04   -0.67498E-03   -0.67395E-03  8540   0.701E-03-0.286E-04
CGA:   7    -0.132404669526E+04   -0.20193E-03   -0.20197E-03  8540   0.226E-03-0.239E-04
CGA:   8    -0.132404676758E+04   -0.72312E-04   -0.72719E-04  8540   0.808E-04-0.944E-05
CGA:   9    -0.132404679133E+04   -0.23753E-04   -0.23670E-04  8540   0.218E-04 0.607E-05
CGA:  10    -0.132404676502E+04    0.26307E-04   -0.28488E-04  8540   0.195E-03-0.595E-04
CGA:  11    -0.132404679618E+04   -0.31153E-04   -0.36813E-04  8540   0.250E-04 0.378E-04
CGA:  12    -0.132404649764E+04    0.29853E-03   -0.16132E-03  8540   0.138E-02-0.199E-03
CGA:  13    -0.132404671531E+04   -0.21766E-03   -0.27288E-03  8540   0.260E-03 0.139E-03
CGA:  14    -0.132404681528E+04   -0.99974E-04   -0.80531E-04  8540   0.496E-04-0.643E-04
CGA:  15    -0.132404681285E+04    0.24308E-05   -0.50128E-05  8540   0.159E-04 0.172E-04
  15 F= -.13240468E+04 E0= -.13240468E+04  d E =-.545298E-03  mag=   126.0000
       N       E                     dE             d eps       ncg     rms          ort
SDA:   1    -0.132369455291E+04    0.35226E+00    0.00000E+00  8540   0.918E+00 0.000E+00
CGA:   2    -0.132393026259E+04   -0.23571E+00   -0.23582E+00  8540   0.454E+00-0.547E-04
CGA:   3    -0.132402575495E+04   -0.95492E-01   -0.95544E-01  8540   0.838E-01 0.778E-04
CGA:   4    -0.132404269675E+04   -0.16942E-01   -0.17012E-01  8540   0.146E-01 0.220E-03
CGA:   5    -0.132404594917E+04   -0.32524E-02   -0.32631E-02  8540   0.333E-02 0.375E-04
CGA:   6    -0.132404678460E+04   -0.83543E-03   -0.83139E-03  8540   0.840E-03-0.191E-04
CGA:   7    -0.132404701428E+04   -0.22968E-03   -0.23078E-03  8540   0.241E-03 0.594E-05
CGA:   8    -0.132404708736E+04   -0.73077E-04   -0.74293E-04  8540   0.760E-04 0.849E-05
CGA:   9    -0.132404711087E+04   -0.23510E-04   -0.24608E-04  8540   0.230E-04 0.850E-05
CGA:  10    -0.132404712183E+04   -0.10965E-04   -0.10931E-04  8540   0.112E-04-0.436E-05
CGA:  11    -0.132404712235E+04   -0.51942E-06   -0.15536E-05  8540   0.447E-05 0.392E-05
  16 F= -.13240471E+04 E0= -.13240471E+04  d E =-.309503E-03  mag=   126.0000
       N       E                     dE             d eps       ncg     rms          ort
SDA:   1    -0.132386856581E+04    0.17856E+00    0.00000E+00  8540   0.489E+00 0.000E+00
CGA:   2    -0.132398517383E+04   -0.11661E+00   -0.11666E+00  8540   0.229E+00 0.479E-04
CGA:   3    -0.132403623651E+04   -0.51063E-01   -0.51096E-01  8540   0.472E-01 0.986E-04
CGA:   4    -0.132404580934E+04   -0.95728E-02   -0.96030E-02  8540   0.805E-02 0.149E-03
CGA:   5    -0.132404762082E+04   -0.18115E-02   -0.18069E-02  8540   0.187E-02-0.309E-04
CGA:   6    -0.132404809853E+04   -0.47771E-03   -0.47247E-03  8540   0.485E-03-0.435E-04
CGA:   7    -0.132404822275E+04   -0.12423E-03   -0.12564E-03  8540   0.127E-03 0.134E-04
CGA:   8    -0.132404826500E+04   -0.42248E-04   -0.42095E-04  8540   0.439E-04-0.358E-05
CGA:   9    -0.132404827818E+04   -0.13177E-04   -0.13318E-04  8540   0.131E-04 0.279E-05
CGA:  10    -0.132404828440E+04   -0.62220E-05   -0.72492E-05  8540   0.103E-04-0.648E-05
  17 F= -.13240483E+04 E0= -.13240483E+04  d E =-.116205E-02  mag=   126.0000
       N       E                     dE             d eps       ncg     rms          ort
SDA:   1    -0.132344056641E+04    0.60771E+00    0.00000E+00  8540   0.156E+01 0.000E+00
CGA:   2    -0.132385080863E+04   -0.41024E+00   -0.41029E+00  8540   0.766E+00-0.159E-03
CGA:   3    -0.132400987285E+04   -0.15906E+00   -0.15913E+00  8540   0.139E+00 0.247E-03
CGA:   4    -0.132403849628E+04   -0.28623E-01   -0.28659E-01  8540   0.243E-01 0.236E-03
CGA:   5    -0.132404395858E+04   -0.54623E-02   -0.54549E-02  8540   0.554E-02-0.715E-04
CGA:   6    -0.132404535383E+04   -0.13953E-02   -0.13899E-02  8540   0.142E-02-0.675E-04
CGA:   7    -0.132404574043E+04   -0.38659E-03   -0.38755E-03  8540   0.400E-03 0.181E-04
CGA:   8    -0.132404587383E+04   -0.13340E-03   -0.13345E-03  8540   0.143E-03-0.141E-04
CGA:   9    -0.132404592158E+04   -0.47748E-04   -0.47841E-04  8540   0.461E-04-0.467E-05
CGA:  10    -0.132404593792E+04   -0.16345E-04   -0.27858E-04  8540   0.619E-04-0.387E-04
CGA:  11    -0.132404594613E+04   -0.82079E-05   -0.10769E-04  8540   0.760E-05 0.152E-04
CGA:  12    -0.132404585088E+04    0.95251E-04   -0.51443E-04  8540   0.405E-03-0.637E-04
CGA:  13    -0.132404594116E+04   -0.90285E-04   -0.10202E-03  8540   0.337E-04 0.330E-04
CGA:  14    -0.132404584486E+04    0.96308E-04   -0.51756E-04  8540   0.112E-02-0.179E-03
CGA:  15    -0.132404591771E+04   -0.72858E-04   -0.14960E-03  8540   0.111E-03 0.159E-03
CGA:  16    -0.132404594178E+04   -0.24068E-04   -0.30813E-04  8540   0.290E-04 0.186E-04
CGA:  17    -0.132404585809E+04    0.83694E-04   -0.40710E-04  8540   0.119E-02-0.202E-03
CGA:  18    -0.132404592678E+04   -0.68697E-04   -0.14993E-03  8540   0.925E-04 0.170E-03
CGA:  19    -0.132404593718E+04   -0.10394E-04   -0.21610E-04  8540   0.369E-04 0.287E-04
CGA:  20    -0.132404596626E+04   -0.29081E-04   -0.25759E-04  8540   0.106E-03-0.768E-04
CGA:  21    -0.132404595894E+04    0.73163E-05   -0.11779E-04  8540   0.240E-04 0.415E-04
  18 F= -.13240460E+04 E0= -.13240460E+04  d E =0.232546E-02  mag=   126.0000
       N       E                     dE             d eps       ncg     rms          ort
SDA:   1    -0.130799526036E+04    0.16051E+02    0.00000E+00  8540   0.495E+02 0.000E+00
CGA:   2    -0.131792564573E+04   -0.99304E+01   -0.10162E+02  8540   0.187E+02-0.124E+00
CGA:   3    -0.132253304871E+04   -0.46074E+01   -0.46130E+01  8540   0.485E+01 0.906E-01
CGA:   4    -0.132354540453E+04   -0.10124E+01   -0.10118E+01  8540   0.867E+00 0.891E-02
CGA:   5    -0.132373585582E+04   -0.19045E+00   -0.19074E+00  8540   0.199E+00-0.200E-04
CGA:   6    -0.132378509594E+04   -0.49240E-01   -0.49342E-01  8540   0.507E-01 0.431E-03
CGA:   7    -0.132379934532E+04   -0.14249E-01   -0.14281E-01  8540   0.145E-01 0.173E-03
CGA:   8    -0.132380395064E+04   -0.46053E-02   -0.45639E-02  8540   0.496E-02-0.305E-03
CGA:   9    -0.132380567674E+04   -0.17261E-02   -0.17041E-02  8540   0.183E-02-0.239E-03
CGA:  10    -0.132380626160E+04   -0.58486E-03   -0.58719E-03  8540   0.558E-03 0.224E-04
CGA:  11    -0.132380646477E+04   -0.20317E-03   -0.20067E-03  8540   0.178E-03-0.318E-04
CGA:  12    -0.132380654252E+04   -0.77741E-04   -0.81652E-04  8540   0.148E-03-0.710E-04
CGA:  13    -0.132380656473E+04   -0.22211E-04   -0.21704E-04  8540   0.658E-04-0.271E-05
CGA:  14    -0.132380658767E+04   -0.22948E-04   -0.42208E-04  8540   0.166E-03-0.840E-04
CGA:  15    -0.132380662683E+04   -0.39158E-04   -0.38655E-04  8540   0.211E-04-0.248E-05
CGA:  16    -0.132380663016E+04   -0.33318E-05   -0.41748E-05  8540   0.544E-05 0.378E-05
  19 F= -.13238066E+04 E0= -.13238066E+04  d E =0.239329E+00  mag=   126.0000
       N       E                     dE             d eps       ncg     rms          ort
SDA:   1    -0.131914229678E+04    0.46643E+01    0.00000E+00  8540   0.148E+02 0.000E+00
CGA:   2    -0.132216739989E+04   -0.30251E+01   -0.30335E+01  8540   0.588E+01 0.351E-02
CGA:   3    -0.132361054744E+04   -0.14431E+01   -0.14440E+01  8540   0.149E+01 0.477E-02
CGA:   4    -0.132391998184E+04   -0.30943E+00   -0.30982E+00  8540   0.272E+00 0.130E-02
CGA:   5    -0.132398058132E+04   -0.60599E-01   -0.60542E-01  8540   0.617E-01-0.475E-03
CGA:   6    -0.132399591387E+04   -0.15333E-01   -0.15245E-01  8540   0.156E-01-0.689E-03
CGA:   7    -0.132400020326E+04   -0.42894E-02   -0.43039E-02  8540   0.431E-02 0.154E-03
CGA:   8    -0.132400149745E+04   -0.12942E-02   -0.12981E-02  8540   0.135E-02 0.556E-04
CGA:   9    -0.132400193644E+04   -0.43900E-03   -0.44235E-03  8540   0.447E-03 0.858E-04
CGA:  10    -0.132400212901E+04   -0.19256E-03   -0.19531E-03  8540   0.215E-03-0.556E-04
CGA:  11    -0.132400216022E+04   -0.31211E-04   -0.39736E-04  8540   0.692E-04 0.559E-04
CGA:  12    -0.132400217785E+04   -0.17638E-04   -0.19793E-04  8540   0.228E-04 0.166E-04
CGA:  13    -0.132400218513E+04   -0.72779E-05   -0.77261E-05  8540   0.117E-04 0.580E-05
  20 F= -.13240022E+04 E0= -.13240022E+04  d E =-.195555E+00  mag=   126.0000
       N       E                     dE             d eps       ncg     rms          ort
SDA:   1    -0.132379269125E+04    0.20949E+00    0.00000E+00  8540   0.671E+00 0.000E+00
CGA:   2    -0.132393632005E+04   -0.14363E+00   -0.14375E+00  8540   0.279E+00 0.553E-03
CGA:   3    -0.132400274038E+04   -0.66420E-01   -0.66461E-01  8540   0.667E-01 0.293E-03
CGA:   4    -0.132401664778E+04   -0.13907E-01   -0.13919E-01  8540   0.120E-01 0.892E-04
CGA:   5    -0.132401930965E+04   -0.26619E-02   -0.26632E-02  8540   0.272E-02 0.967E-05
CGA:   6    -0.132401997772E+04   -0.66807E-03   -0.66943E-03  8540   0.682E-03 0.196E-04
CGA:   7    -0.132402015981E+04   -0.18209E-03   -0.18372E-03  8540   0.178E-03 0.388E-04
CGA:   8    -0.132402022074E+04   -0.60938E-04   -0.61018E-04  8540   0.639E-04-0.484E-05
CGA:   9    -0.132402024085E+04   -0.20108E-04   -0.20065E-04  8540   0.201E-04 0.284E-05
CGA:  10    -0.132402024683E+04   -0.59787E-05   -0.60636E-05  8540   0.560E-05 0.410E-05
  21 F= -.13240202E+04 E0= -.13240202E+04  d E =-.180617E-01  mag=   126.0000
       N       E                     dE             d eps       ncg     rms          ort
SDA:   1    -0.132321942026E+04    0.80082E+00    0.00000E+00  8540   0.233E+01 0.000E+00
CGA:   2    -0.132374148776E+04   -0.52207E+00   -0.52235E+00  8540   0.101E+01 0.227E-02
CGA:   3    -0.132397232039E+04   -0.23083E+00   -0.23088E+00  8540   0.227E+00 0.182E-03
CGA:   4    -0.132402018757E+04   -0.47867E-01   -0.47831E-01  8540   0.409E-01-0.466E-03
CGA:   5    -0.132402918165E+04   -0.89941E-02   -0.89968E-02  8540   0.909E-02 0.246E-04
CGA:   6    -0.132403144870E+04   -0.22671E-02   -0.22700E-02  8540   0.234E-02 0.798E-04
CGA:   7    -0.132403210918E+04   -0.66048E-03   -0.66062E-03  8540   0.649E-03 0.364E-04
CGA:   8    -0.132403233709E+04   -0.22791E-03   -0.23480E-03  8540   0.278E-03-0.953E-04
CGA:   9    -0.132403241928E+04   -0.82192E-04   -0.85021E-04  8540   0.100E-03-0.400E-04
CGA:  10    -0.132403244719E+04   -0.27903E-04   -0.28018E-04  8540   0.271E-04-0.323E-05
CGA:  11    -0.132403245629E+04   -0.91037E-05   -0.92134E-05  8540   0.870E-05-0.191E-05
  22 F= -.13240325E+04 E0= -.13240325E+04  d E =-.122095E-01  mag=   126.0000
       N       E                     dE             d eps       ncg     rms          ort
SDA:   1    -0.132396440006E+04    0.68047E-01    0.00000E+00  8540   0.197E+00 0.000E+00
CGA:   2    -0.132400933931E+04   -0.44939E-01   -0.44964E-01  8540   0.863E-01 0.287E-03
CGA:   3    -0.132402890167E+04   -0.19562E-01   -0.19566E-01  8540   0.195E-01 0.263E-04
CGA:   4    -0.132403300401E+04   -0.41023E-02   -0.40935E-02  8540   0.351E-02-0.115E-03
CGA:   5    -0.132403376156E+04   -0.75755E-03   -0.75892E-03  8540   0.768E-03 0.192E-04
CGA:   6    -0.132403394891E+04   -0.18735E-03   -0.18825E-03  8540   0.192E-03 0.236E-04
CGA:   7    -0.132403400457E+04   -0.55666E-04   -0.55662E-04  8540   0.548E-04 0.304E-05
CGA:   8    -0.132403402337E+04   -0.18803E-04   -0.31337E-04  8540   0.814E-04-0.443E-04
CGA:   9    -0.132403403695E+04   -0.13581E-04   -0.14583E-04  8540   0.791E-05 0.873E-05
CGA:  10    -0.132403403910E+04   -0.21456E-05   -0.22103E-05  8540   0.187E-05 0.177E-05
  23 F= -.13240340E+04 E0= -.13240340E+04  d E =-.158281E-02  mag=   126.0000
       N       E                     dE             d eps       ncg     rms          ort
SDA:   1    -0.132379186035E+04    0.24218E+00    0.00000E+00  8540   0.661E+00 0.000E+00
CGA:   2    -0.132395255618E+04   -0.16070E+00   -0.16084E+00  8540   0.305E+00 0.174E-03
CGA:   3    -0.132401829353E+04   -0.65737E-01   -0.65726E-01  8540   0.641E-01-0.938E-04
CGA:   4    -0.132403161664E+04   -0.13323E-01   -0.13309E-01  8540   0.114E-01-0.588E-04
CGA:   5    -0.132403410887E+04   -0.24922E-02   -0.25015E-02  8540   0.251E-02 0.324E-04
CGA:   6    -0.132403473511E+04   -0.62624E-03   -0.62937E-03  8540   0.655E-03 0.139E-04
CGA:   7    -0.132403492177E+04   -0.18666E-03   -0.18631E-03  8540   0.191E-03-0.217E-05
CGA:   8    -0.132403499499E+04   -0.73222E-04   -0.70531E-04  8540   0.877E-04-0.355E-04
CGA:   9    -0.132403501817E+04   -0.23178E-04   -0.22620E-04  8540   0.267E-04-0.444E-05
CGA:  10    -0.132403502769E+04   -0.95232E-05   -0.92724E-05  8540   0.947E-05-0.351E-05
  24 F= -.13240350E+04 E0= -.13240350E+04  d E =-.988592E-03  mag=   126.0000
       N       E                     dE             d eps       ncg     rms          ort
SDA:   1    -0.132394774202E+04    0.87276E-01    0.00000E+00  8540   0.241E+00 0.000E+00
CGA:   2    -0.132400418113E+04   -0.56439E-01   -0.56462E-01  8540   0.112E+00 0.236E-04
CGA:   3    -0.132402917567E+04   -0.24995E-01   -0.24998E-01  8540   0.247E-01-0.134E-04
CGA:   4    -0.132403413716E+04   -0.49615E-02   -0.49818E-02  8540   0.419E-02 0.939E-04
CGA:   5    -0.132403506507E+04   -0.92791E-03   -0.92672E-03  8540   0.950E-03-0.817E-05
CGA:   6    -0.132403532066E+04   -0.25559E-03   -0.24911E-03  8540   0.267E-03-0.521E-04
CGA:   7    -0.132403539207E+04   -0.71404E-04   -0.70298E-04  8540   0.763E-04-0.108E-04
CGA:   8    -0.132403541749E+04   -0.25425E-04   -0.25064E-04  8540   0.295E-04-0.107E-04
CGA:   9    -0.132403542435E+04   -0.68639E-05   -0.70991E-05  8540   0.807E-05 0.247E-05
CGA:  10    -0.132403543186E+04   -0.75082E-05    0.10098E-04  8540   0.344E-05-0.887E-06
  25 F= -.13240354E+04 E0= -.13240354E+04  d E =-.404170E-03  mag=   126.0000
       N       E                     dE             d eps       ncg     rms          ort
SDA:   1    -0.132377609404E+04    0.25933E+00    0.00000E+00  8540   0.668E+00 0.000E+00
CGA:   2    -0.132395211151E+04   -0.17602E+00   -0.17599E+00  8540   0.324E+00-0.454E-03
CGA:   3    -0.132401862244E+04   -0.66511E-01   -0.66545E-01  8540   0.628E-01 0.137E-03
CGA:   4    -0.132403141198E+04   -0.12790E-01   -0.12829E-01  8540   0.108E-01 0.238E-03
CGA:   5    -0.132403382473E+04   -0.24127E-02   -0.24036E-02  8540   0.243E-02-0.716E-04
CGA:   6    -0.132403447145E+04   -0.64673E-03   -0.63606E-03  8540   0.687E-03-0.129E-03
CGA:   7    -0.132403465361E+04   -0.18216E-03   -0.18077E-03  8540   0.197E-03-0.215E-04
CGA:   8    -0.132403471002E+04   -0.56403E-04   -0.56695E-04  8540   0.576E-04 0.681E-05
CGA:   9    -0.132403472867E+04   -0.18650E-04   -0.18764E-04  8540   0.169E-04 0.504E-05
CGA:  10    -0.132403474208E+04   -0.13411E-04    0.35716E-04  8540   0.530E-05 0.108E-05
CGA:  11    -0.132403474650E+04   -0.44258E-05    0.56966E-05  8540   0.164E-05 0.317E-06
  26 F= -.13240347E+04 E0= -.13240347E+04  d E =0.685359E-03  mag=   126.0000
       N       E                     dE             d eps       ncg     rms          ort
SDA:   1    -0.132389172475E+04    0.14302E+00    0.00000E+00  8540   0.349E+00 0.000E+00
CGA:   2    -0.132399724462E+04   -0.10552E+00   -0.10550E+00  8540   0.156E+00-0.613E-03
CGA:   3    -0.132402675325E+04   -0.29509E-01   -0.29576E-01  8540   0.270E-01 0.407E-03
CGA:   4    -0.132403250577E+04   -0.57525E-02   -0.57617E-02  8540   0.479E-02 0.771E-04
CGA:   5    -0.132403358502E+04   -0.10793E-02   -0.10730E-02  8540   0.109E-02-0.651E-04
CGA:   6    -0.132403387074E+04   -0.28572E-03   -0.28300E-03  8540   0.304E-03-0.514E-04
CGA:   7    -0.132403395183E+04   -0.81090E-04   -0.80985E-04  8540   0.911E-04-0.308E-05
CGA:   8    -0.132403397340E+04   -0.21573E-04   -0.22748E-04  8540   0.246E-04 0.195E-04
CGA:   9    -0.132403398213E+04   -0.87259E-05   -0.87999E-05  8540   0.847E-05 0.502E-05
CGA:  10    -0.132403392123E+04    0.60898E-04   -0.32804E-04  8540   0.257E-03-0.483E-04
CGA:  11    -0.132403397544E+04   -0.54216E-04   -0.57865E-04  8540   0.361E-04 0.108E-04
CGA:  12    -0.132403398695E+04   -0.11511E-04   -0.12701E-04  8540   0.910E-05 0.573E-05
CGA:  13    -0.132403380634E+04    0.18062E-03   -0.97611E-04  8540   0.710E-03-0.749E-04
CGA:  14    -0.132403390275E+04   -0.96411E-04   -0.14406E-03  8540   0.147E-03 0.628E-04
CGA:  15    -0.132403397944E+04   -0.76691E-04   -0.56368E-04  8540   0.834E-04-0.346E-04
CGA:  16    -0.132403398150E+04   -0.20657E-05   -0.14121E-04  8540   0.258E-04 0.176E-04
  27 F= -.13240340E+04 E0= -.13240340E+04  d E =0.765001E-03  mag=   126.0000
       N       E                     dE             d eps       ncg     rms          ort
SDA:   1    -0.132397774766E+04    0.56232E-01    0.00000E+00  8540   0.148E+00 0.000E+00
CGA:   2    -0.132401622424E+04   -0.38477E-01   -0.38521E-01  8540   0.703E-01 0.248E-04
CGA:   3    -0.132403064276E+04   -0.14419E-01   -0.14442E-01  8540   0.134E-01 0.265E-04
CGA:   4    -0.132403340038E+04   -0.27576E-02   -0.27730E-02  8540   0.239E-02 0.257E-04
CGA:   5    -0.132403392770E+04   -0.52732E-03   -0.52988E-03  8540   0.526E-03 0.400E-05
CGA:   6    -0.132403404815E+04   -0.12044E-03   -0.12833E-03  8540   0.131E-03 0.162E-04
CGA:   7    -0.132403407778E+04   -0.29632E-04   -0.35309E-04  8540   0.359E-04 0.129E-04
CGA:   8    -0.132403408491E+04   -0.71304E-05   -0.10460E-04  8540   0.108E-04 0.802E-05
  28 F= -.13240341E+04 E0= -.13240341E+04  d E =-.103404E-03  mag=   126.0000
       N       E                     dE             d eps       ncg     rms          ort
SDA:   1    -0.132402256721E+04    0.11511E-01    0.00000E+00  8540   0.320E-01 0.000E+00
CGA:   2    -0.132402991594E+04   -0.73487E-02   -0.73566E-02  8540   0.144E-01 0.350E-05
CGA:   3    -0.132403317671E+04   -0.32608E-02   -0.32754E-02  8540   0.309E-02 0.289E-04
CGA:   4    -0.132403380406E+04   -0.62735E-03   -0.63364E-03  8540   0.566E-03 0.151E-04
CGA:   5    -0.132403392605E+04   -0.12199E-03   -0.12371E-03  8540   0.126E-03 0.461E-05
CGA:   6    -0.132403395275E+04   -0.26698E-04   -0.29607E-04  8540   0.299E-04 0.882E-05
CGA:   7    -0.132403395815E+04   -0.54087E-05   -0.74262E-05  8540   0.765E-05 0.645E-05
  29 F= -.13240340E+04 E0= -.13240340E+04  d E =0.126754E-03  mag=   126.0000
       N       E                     dE             d eps       ncg     rms          ort
SDA:   1    -0.132396086862E+04    0.73084E-01    0.00000E+00  8540   0.189E+00 0.000E+00
CGA:   2    -0.132400848030E+04   -0.47612E-01   -0.47627E-01  8540   0.914E-01-0.380E-04
CGA:   3    -0.132402817062E+04   -0.19690E-01   -0.19716E-01  8540   0.172E-01 0.468E-04
CGA:   4    -0.132403168607E+04   -0.35154E-02   -0.35212E-02  8540   0.311E-02 0.158E-04
CGA:   5    -0.132403237864E+04   -0.69257E-03   -0.69236E-03  8540   0.710E-03-0.168E-05
CGA:   6    -0.132403254784E+04   -0.16919E-03   -0.17239E-03  8540   0.174E-03 0.146E-04
CGA:   7    -0.132403259363E+04   -0.45791E-04   -0.47432E-04  8540   0.480E-04 0.902E-05
CGA:   8    -0.132403260803E+04   -0.14400E-04   -0.15030E-04  8540   0.151E-04 0.441E-05
CGA:   9    -0.132403261234E+04   -0.43069E-05   -0.47928E-05  8540   0.465E-05 0.338E-05
  30 F= -.13240326E+04 E0= -.13240326E+04  d E =0.134582E-02  mag=   126.0000
       N       E                     dE             d eps       ncg     rms          ort
SDA:   1    -0.132391314551E+04    0.11946E+00    0.00000E+00  8540   0.304E+00 0.000E+00
CGA:   2    -0.132399214491E+04   -0.78999E-01   -0.79008E-01  8540   0.151E+00-0.889E-04
CGA:   3    -0.132402400783E+04   -0.31863E-01   -0.31844E-01  8540   0.270E-01-0.146E-03
CGA:   4    -0.132402951573E+04   -0.55079E-02   -0.55066E-02  8540   0.481E-02-0.120E-04
CGA:   5    -0.132403059032E+04   -0.10746E-02   -0.10786E-02  8540   0.108E-02 0.223E-04
CGA:   6    -0.132403085512E+04   -0.26479E-03   -0.26677E-03  8540   0.263E-03 0.139E-04
CGA:   7    -0.132403093203E+04   -0.76916E-04   -0.76542E-04  8540   0.805E-04-0.414E-05
CGA:   8    -0.132403095752E+04   -0.25490E-04   -0.25423E-04  8540   0.271E-04-0.128E-05
CGA:   9    -0.132403096785E+04   -0.10324E-04   -0.10393E-04  8540   0.109E-04-0.373E-05
CGA:  10    -0.132403097012E+04   -0.22714E-05   -0.24540E-05  8540   0.278E-05 0.164E-05
  31 F= -.13240310E+04 E0= -.13240310E+04  d E =0.164222E-02  mag=   126.0000
       N       E                     dE             d eps       ncg     rms          ort
SDA:   1    -0.132369548542E+04    0.33548E+00    0.00000E+00  8540   0.843E+00 0.000E+00
CGA:   2    -0.132392183140E+04   -0.22635E+00   -0.22634E+00  8540   0.429E+00-0.417E-03
CGA:   3    -0.132400969819E+04   -0.87867E-01   -0.87840E-01  8540   0.727E-01-0.334E-03
CGA:   4    -0.132402448019E+04   -0.14782E-01   -0.14796E-01  8540   0.129E-01 0.783E-04
CGA:   5    -0.132402739320E+04   -0.29130E-02   -0.29203E-02  8540   0.292E-02 0.601E-04
CGA:   6    -0.132402811929E+04   -0.72609E-03   -0.72507E-03  8540   0.717E-03-0.120E-04
CGA:   7    -0.132402833382E+04   -0.21453E-03   -0.21321E-03  8540   0.231E-03-0.402E-04
CGA:   8    -0.132402840724E+04   -0.73421E-04   -0.73583E-04  8540   0.857E-04-0.202E-04
CGA:   9    -0.132402843694E+04   -0.29697E-04   -0.30759E-04  8540   0.347E-04-0.168E-04
CGA:  10    -0.132402844522E+04   -0.82762E-05   -0.82905E-05  8540   0.867E-05 0.379E-06
CGA:  11    -0.132402837202E+04    0.73199E-04   -0.39460E-04  8540   0.302E-03-0.504E-04
CGA:  12    -0.132402844309E+04   -0.71071E-04   -0.77218E-04  8540   0.292E-04 0.175E-04
CGA:  13    -0.132402845986E+04   -0.16766E-04   -0.14748E-04  8540   0.259E-04-0.182E-04
CGA:  14    -0.132402845832E+04    0.15326E-05   -0.30486E-05  8540   0.480E-05 0.987E-05
  32 F= -.13240285E+04 E0= -.13240285E+04  d E =0.251179E-02  mag=   126.0000
       N       E                     dE             d eps       ncg     rms          ort
SDA:   1    -0.132393688566E+04    0.91574E-01    0.00000E+00  8540   0.252E+00 0.000E+00
CGA:   2    -0.132399673175E+04   -0.59846E-01   -0.59858E-01  8540   0.120E+00-0.814E-04
CGA:   3    -0.132402353305E+04   -0.26801E-01   -0.26775E-01  8540   0.246E-01-0.122E-03
CGA:   4    -0.132402852242E+04   -0.49894E-02   -0.49836E-02  8540   0.421E-02-0.245E-04
CGA:   5    -0.132402943924E+04   -0.91683E-03   -0.92937E-03  8540   0.952E-03 0.450E-04
CGA:   6    -0.132402967799E+04   -0.23875E-03   -0.23922E-03  8540   0.233E-03 0.183E-05
CGA:   7    -0.132402975520E+04   -0.77209E-04   -0.73086E-04  8540   0.814E-04-0.270E-04
CGA:   8    -0.132402978193E+04   -0.26733E-04   -0.25091E-04  8540   0.325E-04-0.150E-04
CGA:   9    -0.132402979165E+04   -0.97144E-05   -0.92258E-05  8540   0.109E-04-0.470E-05
  33 F= -.13240298E+04 E0= -.13240298E+04  d E =-.133332E-02  mag=   126.0000
       N       E                     dE             d eps       ncg     rms          ort
SDA:   1    -0.132401580016E+04    0.13982E-01    0.00000E+00  8540   0.409E-01 0.000E+00
CGA:   2    -0.132402537887E+04   -0.95787E-02   -0.95631E-02  8540   0.190E-01-0.963E-04
CGA:   3    -0.132402963586E+04   -0.42570E-02   -0.42662E-02  8540   0.404E-02 0.377E-04
CGA:   4    -0.132403044716E+04   -0.81130E-03   -0.81941E-03  8540   0.689E-03 0.367E-04
CGA:   5    -0.132403059283E+04   -0.14566E-03   -0.14913E-03  8540   0.151E-03 0.178E-04
CGA:   6    -0.132403062775E+04   -0.34923E-04   -0.36795E-04  8540   0.357E-04 0.117E-04
CGA:   7    -0.132403063721E+04   -0.94565E-05   -0.99851E-05  8540   0.975E-05 0.406E-05
  34 F= -.13240306E+04 E0= -.13240306E+04  d E =-.845557E-03  mag=   126.0000
       N       E                     dE             d eps       ncg     rms          ort
SDA:   1    -0.132385901290E+04    0.17161E+00    0.00000E+00  8540   0.455E+00 0.000E+00
CGA:   2    -0.132396946261E+04   -0.11045E+00   -0.11046E+00  8540   0.224E+00-0.174E-03
CGA:   3    -0.132401926623E+04   -0.49804E-01   -0.49801E-01  8540   0.440E-01-0.115E-03
CGA:   4    -0.132402804917E+04   -0.87829E-02   -0.87898E-02  8540   0.747E-02 0.317E-04
CGA:   5    -0.132402969296E+04   -0.16438E-02   -0.16557E-02  8540   0.172E-02 0.884E-04
CGA:   6    -0.132403010866E+04   -0.41570E-03   -0.42028E-03  8540   0.398E-03 0.437E-04
CGA:   7    -0.132403022721E+04   -0.11856E-03   -0.11807E-03  8540   0.122E-03-0.958E-05
CGA:   8    -0.132403026389E+04   -0.36674E-04   -0.36690E-04  8540   0.388E-04 0.512E-06
CGA:   9    -0.132403027572E+04   -0.11831E-04   -0.11957E-04  8540   0.114E-04 0.425E-05
CGA:  10    -0.132403027766E+04   -0.19436E-05   -0.26332E-05  8540   0.387E-05 0.545E-05
  35 F= -.13240303E+04 E0= -.13240303E+04  d E =0.359542E-03  mag=   126.0000
       N       E                     dE             d eps       ncg     rms          ort
SDA:   1    -0.132329474511E+04    0.73553E+00    0.00000E+00  8540   0.193E+01 0.000E+00
CGA:   2    -0.132378292804E+04   -0.48818E+00   -0.48829E+00  8540   0.949E+00 0.639E-03
CGA:   3    -0.132398217899E+04   -0.19925E+00   -0.19924E+00  8540   0.176E+00-0.351E-03
CGA:   4    -0.132401814612E+04   -0.35967E-01   -0.35971E-01  8540   0.311E-01 0.399E-05
CGA:   5    -0.132402507784E+04   -0.69317E-02   -0.69500E-02  8540   0.701E-02 0.210E-03
CGA:   6    -0.132402679174E+04   -0.17139E-02   -0.17200E-02  8540   0.170E-02 0.101E-03
CGA:   7    -0.132402727270E+04   -0.48095E-03   -0.48194E-03  8540   0.487E-03 0.458E-04
CGA:   8    -0.132402742504E+04   -0.15234E-03   -0.15221E-03  8540   0.154E-03 0.259E-04
CGA:   9    -0.132402747566E+04   -0.50625E-04   -0.50414E-04  8540   0.455E-04 0.198E-04
CGA:  10    -0.132402748378E+04   -0.81231E-05   -0.10371E-04  8540   0.155E-04 0.230E-04
  36 F= -.13240275E+04 E0= -.13240275E+04  d E =0.279388E-02  mag=   126.0000
       N       E                     dE             d eps       ncg     rms          ort
SDA:   1    -0.132389584411E+04    0.13163E+00    0.00000E+00  8540   0.403E+00 0.000E+00
CGA:   2    -0.132398000896E+04   -0.84165E-01   -0.84235E-01  8540   0.165E+00 0.596E-03
CGA:   3    -0.132401986517E+04   -0.39856E-01   -0.39867E-01  8540   0.402E-01 0.117E-03
CGA:   4    -0.132402832621E+04   -0.84610E-02   -0.84530E-02  8540   0.741E-02-0.117E-03
CGA:   5    -0.132402996215E+04   -0.16359E-02   -0.16335E-02  8540   0.165E-02-0.437E-04
CGA:   6    -0.132403037355E+04   -0.41140E-03   -0.41059E-03  8540   0.423E-03-0.299E-04
CGA:   7    -0.132403049124E+04   -0.11769E-03   -0.11773E-03  8540   0.117E-03-0.633E-05
CGA:   8    -0.132403052517E+04   -0.33927E-04   -0.33897E-04  8540   0.348E-04 0.166E-05
CGA:   9    -0.132403053873E+04   -0.13561E-04   -0.14455E-04  8540   0.166E-04-0.680E-05
CGA:  10    -0.132403054264E+04   -0.39134E-05   -0.83607E-05  8540   0.214E-04-0.130E-04
  37 F= -.13240305E+04 E0= -.13240305E+04  d E =-.305886E-02  mag=   126.0000
       N       E                     dE             d eps       ncg     rms          ort
SDA:   1    -0.132401067548E+04    0.19863E-01    0.00000E+00  8540   0.523E-01 0.000E+00
CGA:   2    -0.132402402498E+04   -0.13350E-01   -0.13348E-01  8540   0.259E-01-0.711E-04
CGA:   3    -0.132402947840E+04   -0.54534E-02   -0.54580E-02  8540   0.459E-02 0.457E-04
CGA:   4    -0.132403042173E+04   -0.94333E-03   -0.94311E-03  8540   0.831E-03-0.344E-05
CGA:   5    -0.132403061178E+04   -0.19005E-03   -0.18929E-03  8540   0.196E-03-0.135E-04
CGA:   6    -0.132403066123E+04   -0.49447E-04   -0.49218E-04  8540   0.503E-04-0.842E-05
CGA:   7    -0.132403067655E+04   -0.15321E-04   -0.15759E-04  8540   0.199E-04-0.953E-05
CGA:   8    -0.132403068218E+04   -0.56355E-05   -0.68507E-05  8540   0.137E-04-0.864E-05
  38 F= -.13240307E+04 E0= -.13240307E+04  d E =-.139539E-03  mag=   126.0000
       N       E                     dE             d eps       ncg     rms          ort
SDA:   1    -0.132391848246E+04    0.11219E+00    0.00000E+00  8540   0.284E+00 0.000E+00
CGA:   2    -0.132399620217E+04   -0.77720E-01   -0.77717E-01  8540   0.144E+00-0.223E-03
CGA:   3    -0.132402508981E+04   -0.28888E-01   -0.28908E-01  8540   0.238E-01 0.169E-03
CGA:   4    -0.132402994209E+04   -0.48523E-02   -0.48589E-02  8540   0.426E-02 0.701E-04
CGA:   5    -0.132403091266E+04   -0.97058E-03   -0.97035E-03  8540   0.991E-03-0.484E-05
CGA:   6    -0.132403115675E+04   -0.24408E-03   -0.24381E-03  8540   0.242E-03-0.701E-05
CGA:   7    -0.132403122538E+04   -0.68635E-04   -0.68643E-04  8540   0.729E-04-0.496E-05
CGA:   8    -0.132403124876E+04   -0.23376E-04   -0.23504E-04  8540   0.257E-04-0.284E-05
CGA:   9    -0.132403125841E+04   -0.96507E-05   -0.11435E-04  8540   0.160E-04-0.101E-04
  39 F= -.13240313E+04 E0= -.13240313E+04  d E =-.576228E-03  mag=   126.0000
       N       E                     dE             d eps       ncg     rms          ort
SDA:   1    -0.132315410103E+04    0.87715E+00    0.00000E+00  8540   0.215E+01 0.000E+00
CGA:   2    -0.132377337310E+04   -0.61927E+00   -0.61927E+00  8540   0.109E+01-0.112E-02
CGA:   3    -0.132398369701E+04   -0.21032E+00   -0.21042E+00  8540   0.170E+00 0.607E-03
CGA:   4    -0.132401894977E+04   -0.35253E-01   -0.35275E-01  8540   0.316E-01 0.250E-03
CGA:   5    -0.132402607391E+04   -0.71241E-02   -0.71267E-02  8540   0.711E-02 0.379E-04
CGA:   6    -0.132402783723E+04   -0.17633E-02   -0.17623E-02  8540   0.176E-02-0.329E-04
CGA:   7    -0.132402833299E+04   -0.49576E-03   -0.49576E-03  8540   0.525E-03 0.433E-06
CGA:   8    -0.132402849682E+04   -0.16383E-03   -0.16305E-03  8540   0.171E-03 0.242E-04
CGA:   9    -0.132402856197E+04   -0.65148E-04   -0.66053E-04  8540   0.590E-04-0.102E-04
CGA:  10    -0.132402857458E+04   -0.12610E-04   -0.13261E-04  8540   0.151E-04 0.144E-04
CGA:  11    -0.132402858146E+04   -0.68745E-05   -0.78969E-05  8540   0.107E-04-0.739E-05
  40 F= -.13240286E+04 E0= -.13240286E+04  d E =0.267695E-02  mag=   126.0000
       N       E                     dE             d eps       ncg     rms          ort
SDA:   1    -0.132355960192E+04    0.46897E+00    0.00000E+00  8540   0.120E+01 0.000E+00
CGA:   2    -0.132388695627E+04   -0.32735E+00   -0.32736E+00  8540   0.594E+00-0.241E-03
CGA:   3    -0.132400582617E+04   -0.11887E+00   -0.11890E+00  8540   0.101E+00 0.151E-03
CGA:   4    -0.132402666436E+04   -0.20838E-01   -0.20849E-01  8540   0.185E-01 0.139E-03
CGA:   5    -0.132403083775E+04   -0.41734E-02   -0.41678E-02  8540   0.422E-02-0.123E-03
CGA:   6    -0.132403191587E+04   -0.10781E-02   -0.10759E-02  8540   0.111E-02-0.167E-03
CGA:   7    -0.132403220317E+04   -0.28731E-03   -0.28731E-03  8540   0.304E-03 0.198E-04
CGA:   8    -0.132403229815E+04   -0.94980E-04   -0.94430E-04  8540   0.951E-04 0.155E-04
CGA:   9    -0.132403233796E+04   -0.39804E-04   -0.44961E-04  8540   0.558E-04-0.289E-04
CGA:  10    -0.132403235058E+04   -0.12624E-04   -0.13140E-04  8540   0.190E-04-0.888E-05
CGA:  11    -0.132403236023E+04   -0.96502E-05    0.34385E-04  8540   0.593E-05 0.387E-06
  41 F= -.13240324E+04 E0= -.13240324E+04  d E =-.377877E-02  mag=   126.0000
       N       E                     dE             d eps       ncg     rms          ort
SDA:   1    -0.132370211677E+04    0.33023E+00    0.00000E+00  8540   0.963E+00 0.000E+00
CGA:   2    -0.132391159742E+04   -0.20948E+00   -0.20959E+00  8540   0.417E+00 0.947E-03
CGA:   3    -0.132401155051E+04   -0.99953E-01   -0.99949E-01  8540   0.981E-01-0.302E-03
CGA:   4    -0.132403149280E+04   -0.19942E-01   -0.19930E-01  8540   0.169E-01-0.182E-03
CGA:   5    -0.132403523646E+04   -0.37437E-02   -0.37381E-02  8540   0.393E-02-0.104E-03
CGA:   6    -0.132403623317E+04   -0.99671E-03   -0.99395E-03  8540   0.990E-03-0.128E-03
CGA:   7    -0.132403648581E+04   -0.25264E-03   -0.25283E-03  8540   0.256E-03 0.170E-04
CGA:   8    -0.132403655990E+04   -0.74084E-04   -0.73919E-04  8540   0.713E-04 0.176E-04
CGA:   9    -0.132403658740E+04   -0.27502E-04   -0.27715E-04  8540   0.278E-04-0.244E-05
CGA:  10    -0.132403659763E+04   -0.10234E-04   -0.10602E-04  8540   0.109E-04-0.321E-05
CGA:  11    -0.132403660367E+04   -0.60355E-05    0.13429E-04  8540   0.262E-05 0.966E-06
  42 F= -.13240366E+04 E0= -.13240366E+04  d E =-.424344E-02  mag=   126.0000
       N       E                     dE             d eps       ncg     rms          ort
SDA:   1    -0.132361855703E+04    0.41804E+00    0.00000E+00  8540   0.108E+01 0.000E+00
CGA:   2    -0.132390292805E+04   -0.28437E+00   -0.28439E+00  8540   0.545E+00 0.818E-04
CGA:   3    -0.132401550409E+04   -0.11258E+00   -0.11260E+00  8540   0.959E-01 0.155E-03
CGA:   4    -0.132403494615E+04   -0.19442E-01   -0.19452E-01  8540   0.171E-01 0.107E-03
CGA:   5    -0.132403886093E+04   -0.39148E-02   -0.39099E-02  8540   0.400E-02-0.965E-04
CGA:   6    -0.132403986177E+04   -0.10008E-02   -0.99808E-03  8540   0.101E-02-0.105E-03
CGA:   7    -0.132404011998E+04   -0.25821E-03   -0.25876E-03  8540   0.267E-03 0.430E-04
CGA:   8    -0.132404019799E+04   -0.78008E-04   -0.77863E-04  8540   0.776E-04 0.359E-04
CGA:   9    -0.132404022920E+04   -0.31212E-04   -0.31020E-04  8540   0.290E-04 0.250E-05
CGA:  10    -0.132404023732E+04   -0.81265E-05   -0.81705E-05  8540   0.813E-05 0.636E-05
  43 F= -.13240402E+04 E0= -.13240402E+04  d E =-.363366E-02  mag=   126.0000
       N       E                     dE             d eps       ncg     rms          ort
SDA:   1    -0.130521608888E+04    0.18824E+02    0.00000E+00  8540   0.554E+02 0.000E+00
CGA:   2    -0.131679969259E+04   -0.11584E+02   -0.11626E+02  8540   0.226E+02 0.165E+00
CGA:   3    -0.132231294921E+04   -0.55133E+01   -0.55145E+01  8540   0.543E+01 0.229E-01
CGA:   4    -0.132343593280E+04   -0.11230E+01   -0.11228E+01  8540   0.953E+00-0.651E-02
CGA:   5    -0.132364559697E+04   -0.20966E+00   -0.20970E+00  8540   0.222E+00-0.213E-03
CGA:   6    -0.132370101328E+04   -0.55416E-01   -0.55418E-01  8540   0.554E-01-0.805E-06
CGA:   7    -0.132371657118E+04   -0.15558E-01   -0.15552E-01  8540   0.158E-01 0.580E-03
CGA:   8    -0.132372152675E+04   -0.49556E-02   -0.49547E-02  8540   0.521E-02 0.183E-04
CGA:   9    -0.132372335777E+04   -0.18310E-02   -0.18425E-02  8540   0.184E-02-0.146E-03
CGA:  10    -0.132372394547E+04   -0.58770E-03   -0.58088E-03  8540   0.523E-03 0.145E-03
CGA:  11    -0.132372414673E+04   -0.20126E-03   -0.20171E-03  8540   0.160E-03-0.631E-05
CGA:  12    -0.132372419781E+04   -0.51080E-04   -0.50141E-04  8540   0.514E-04 0.280E-04
CGA:  13    -0.132372422550E+04   -0.27689E-04   -0.28928E-04  8540   0.321E-04-0.657E-05
CGA:  14    -0.132372422591E+04   -0.41681E-06   -0.25998E-04  8540   0.986E-04-0.406E-04
CGA:  15    -0.132372423363E+04   -0.77132E-05   -0.13943E-04  8540   0.218E-04 0.337E-04
  44 F= -.13237242E+04 E0= -.13237242E+04  d E =0.316004E+00  mag=   126.0000
       N       E                     dE             d eps       ncg     rms          ort
SDA:   1    -0.131277945202E+04    0.10945E+02    0.00000E+00  8540   0.358E+02 0.000E+00
CGA:   2    -0.131977080404E+04   -0.69914E+01   -0.70463E+01  8540   0.133E+02 0.385E-01
CGA:   3    -0.132309234600E+04   -0.33215E+01   -0.33230E+01  8540   0.343E+01 0.218E-01
CGA:   4    -0.132382617785E+04   -0.73383E+00   -0.73412E+00  8540   0.647E+00 0.630E-04
CGA:   5    -0.132396688160E+04   -0.14070E+00   -0.14073E+00  8540   0.145E+00-0.376E-03
CGA:   6    -0.132400314278E+04   -0.36261E-01   -0.36214E-01  8540   0.376E-01-0.100E-02
CGA:   7    -0.132401366516E+04   -0.10522E-01   -0.10526E-01  8540   0.107E-01 0.248E-03
CGA:   8    -0.132401690022E+04   -0.32351E-02   -0.32349E-02  8540   0.343E-02 0.320E-04
CGA:   9    -0.132401807476E+04   -0.11745E-02   -0.11740E-02  8540   0.115E-02 0.107E-04
CGA:  10    -0.132401847249E+04   -0.39773E-03   -0.39582E-03  8540   0.359E-03 0.425E-04
CGA:  11    -0.132401861120E+04   -0.13872E-03   -0.14165E-03  8540   0.124E-03-0.370E-04
CGA:  12    -0.132401865378E+04   -0.42579E-04   -0.46165E-04  8540   0.710E-04-0.322E-04
CGA:  13    -0.132401865981E+04   -0.60319E-05   -0.87010E-05  8540   0.265E-04 0.184E-04
CGA:  14    -0.132401867006E+04   -0.10251E-04   -0.10302E-04  8540   0.238E-04-0.962E-05
CGA:  15    -0.132401868957E+04   -0.19503E-04    0.20438E-05  8540   0.209E-04-0.140E-04
CGA:  16    -0.132401868884E+04    0.72760E-06   -0.20593E-05  8540   0.903E-05 0.136E-04
  45 F= -.13240187E+04 E0= -.13240187E+04  d E =-.294455E+00  mag=   126.0000
       N       E                     dE             d eps       ncg     rms          ort
SDA:   1    -0.132388669555E+04    0.13199E+00    0.00000E+00  8540   0.443E+00 0.000E+00
CGA:   2    -0.132397965611E+04   -0.92961E-01   -0.93005E-01  8540   0.181E+00 0.367E-03
CGA:   3    -0.132402320223E+04   -0.43546E-01   -0.43540E-01  8540   0.445E-01-0.269E-03
CGA:   4    -0.132403265963E+04   -0.94574E-02   -0.94420E-02  8540   0.816E-02-0.237E-03
CGA:   5    -0.132403440419E+04   -0.17446E-02   -0.17503E-02  8540   0.174E-02 0.912E-04
CGA:   6    -0.132403480252E+04   -0.39833E-03   -0.40481E-03  8540   0.405E-03 0.147E-03
CGA:   7    -0.132403491601E+04   -0.11349E-03   -0.11412E-03  8540   0.108E-03 0.540E-04
CGA:   8    -0.132403495793E+04   -0.41922E-04   -0.42558E-04  8540   0.485E-04-0.851E-05
CGA:   9    -0.132403497117E+04   -0.13238E-04   -0.13178E-04  8540   0.146E-04 0.301E-05
CGA:  10    -0.132403497271E+04   -0.15441E-05   -0.24754E-05  8540   0.604E-05 0.799E-05
  46 F= -.13240350E+04 E0= -.13240350E+04  d E =-.162839E-01  mag=   126.0000
       N       E                     dE             d eps       ncg     rms          ort
SDA:   1    -0.132343545778E+04    0.59951E+00    0.00000E+00  8540   0.179E+01 0.000E+00
CGA:   2    -0.132381625558E+04   -0.38080E+00   -0.38097E+00  8540   0.762E+00 0.237E-02
CGA:   3    -0.132399959383E+04   -0.18334E+00   -0.18334E+00  8540   0.184E+00-0.378E-03
CGA:   4    -0.132403778471E+04   -0.38191E-01   -0.38150E-01  8540   0.322E-01-0.821E-03
CGA:   5    -0.132404483166E+04   -0.70470E-02   -0.70528E-02  8540   0.715E-02 0.148E-03
CGA:   6    -0.132404654017E+04   -0.17085E-02   -0.17132E-02  8540   0.169E-02 0.288E-03
CGA:   7    -0.132404701923E+04   -0.47906E-03   -0.47740E-03  8540   0.455E-03 0.909E-04
CGA:   8    -0.132404717934E+04   -0.16011E-03   -0.16361E-03  8540   0.183E-03-0.408E-04
CGA:   9    -0.132404723320E+04   -0.53858E-04   -0.54039E-04  8540   0.575E-04-0.289E-05
CGA:  10    -0.132404724316E+04   -0.99640E-05   -0.11383E-04  8540   0.189E-04 0.231E-04
  47 F= -.13240472E+04 E0= -.13240472E+04  d E =-.122704E-01  mag=   126.0000
       N       E                     dE             d eps       ncg     rms          ort
SDA:   1    -0.132397383221E+04    0.73401E-01    0.00000E+00  8540   0.216E+00 0.000E+00
CGA:   2    -0.132402268709E+04   -0.48855E-01   -0.48865E-01  8540   0.973E-01 0.274E-03
CGA:   3    -0.132404504039E+04   -0.22353E-01   -0.22350E-01  8540   0.212E-01-0.172E-03
CGA:   4    -0.132404942413E+04   -0.43837E-02   -0.43755E-02  8540   0.371E-02-0.190E-03
CGA:   5    -0.132405024460E+04   -0.82047E-03   -0.82048E-03  8540   0.831E-03-0.120E-05
CGA:   6    -0.132405044238E+04   -0.19778E-03   -0.19804E-03  8540   0.195E-03 0.281E-04
CGA:   7    -0.132405050088E+04   -0.58500E-04   -0.58707E-04  8540   0.597E-04-0.479E-05
CGA:   8    -0.132405051869E+04   -0.17801E-04   -0.17877E-04  8540   0.191E-04-0.134E-05
CGA:   9    -0.132405052541E+04   -0.67291E-05   -0.71346E-05  8540   0.799E-05-0.313E-05
  48 F= -.13240505E+04 E0= -.13240505E+04  d E =-.328225E-02  mag=   126.0000
       N       E                     dE             d eps       ncg     rms          ort
SDA:   1    -0.132373897769E+04    0.31154E+00    0.00000E+00  8540   0.858E+00 0.000E+00
CGA:   2    -0.132394355909E+04   -0.20458E+00   -0.20460E+00  8540   0.398E+00 0.410E-03
CGA:   3    -0.132403182358E+04   -0.88264E-01   -0.88278E-01  8540   0.812E-01 0.294E-03
CGA:   4    -0.132404859601E+04   -0.16772E-01   -0.16777E-01  8540   0.140E-01 0.857E-04
CGA:   5    -0.132405174049E+04   -0.31445E-02   -0.31431E-02  8540   0.317E-02-0.492E-04
CGA:   6    -0.132405254387E+04   -0.80338E-03   -0.80348E-03  8540   0.814E-03-0.640E-04
CGA:   7    -0.132405276368E+04   -0.21981E-03   -0.21986E-03  8540   0.229E-03-0.214E-05
CGA:   8    -0.132405282512E+04   -0.61436E-04   -0.61078E-04  8540   0.616E-04 0.262E-04
CGA:   9    -0.132405284631E+04   -0.21199E-04   -0.20749E-04  8540   0.194E-04 0.947E-05
CGA:  10    -0.132405285561E+04   -0.92975E-05   -0.10461E-04  8540   0.122E-04-0.555E-05
  49 F= -.13240529E+04 E0= -.13240529E+04  d E =-.233020E-02  mag=   126.0000
       N       E                     dE             d eps       ncg     rms          ort
SDA:   1    -0.132393966726E+04    0.11318E+00    0.00000E+00  8540   0.291E+00 0.000E+00
CGA:   2    -0.132401933651E+04   -0.79669E-01   -0.79671E-01  8540   0.138E+00-0.706E-03
CGA:   3    -0.132404672118E+04   -0.27385E-01   -0.27419E-01  8540   0.250E-01 0.437E-03
CGA:   4    -0.132405196765E+04   -0.52465E-02   -0.52620E-02  8540   0.440E-02 0.271E-03
CGA:   5    -0.132405298650E+04   -0.10188E-02   -0.10139E-02  8540   0.102E-02-0.141E-03
CGA:   6    -0.132405326747E+04   -0.28097E-03   -0.28484E-03  8540   0.359E-03-0.151E-03
CGA:   7    -0.132405334200E+04   -0.74530E-04   -0.74795E-04  8540   0.876E-04 0.142E-04
CGA:   8    -0.132405335853E+04   -0.16530E-04   -0.18355E-04  8540   0.259E-04 0.301E-04
CGA:   9    -0.132405336442E+04   -0.58928E-05   -0.67316E-05  8540   0.965E-05 0.128E-04
  50 F= -.13240534E+04 E0= -.13240534E+04  d E =-.508811E-03  mag=   126.0000
       N       E                     dE             d eps       ncg     rms          ort
SDA:   1    -0.132382815321E+04    0.22521E+00    0.00000E+00  8540   0.585E+00 0.000E+00
CGA:   2    -0.132398148825E+04   -0.15334E+00   -0.15334E+00  8540   0.284E+00-0.661E-03
CGA:   3    -0.132404005376E+04   -0.58566E-01   -0.58585E-01  8540   0.518E-01 0.274E-03
CGA:   4    -0.132405069508E+04   -0.10641E-01   -0.10664E-01  8540   0.911E-02 0.431E-03
CGA:   5    -0.132405278632E+04   -0.20912E-02   -0.20870E-02  8540   0.213E-02-0.158E-03
CGA:   6    -0.132405334942E+04   -0.56310E-03   -0.56641E-03  8540   0.636E-03-0.196E-03
CGA:   7    -0.132405349156E+04   -0.14214E-03   -0.14245E-03  8540   0.157E-03 0.419E-04
CGA:   8    -0.132405352775E+04   -0.36185E-04   -0.37529E-04  8540   0.444E-04 0.464E-04
CGA:   9    -0.132405353966E+04   -0.11912E-04   -0.12608E-04  8540   0.169E-04 0.208E-04
CGA:  10    -0.132405354678E+04   -0.71215E-05   -0.69459E-05  8540   0.720E-05 0.589E-05
  51 F= -.13240535E+04 E0= -.13240535E+04  d E =-.182358E-03  mag=   126.0000
       N       E                     dE             d eps       ncg     rms          ort
SDA:   1    -0.132368821356E+04    0.36533E+00    0.00000E+00  8540   0.984E+00 0.000E+00
CGA:   2    -0.132392757595E+04   -0.23936E+00   -0.23939E+00  8540   0.464E+00 0.215E-03
CGA:   3    -0.132402924593E+04   -0.10167E+00   -0.10167E+00  8540   0.929E-01-0.111E-03
CGA:   4    -0.132404828830E+04   -0.19042E-01   -0.19051E-01  8540   0.164E-01 0.969E-04
CGA:   5    -0.132405197396E+04   -0.36857E-02   -0.36788E-02  8540   0.383E-02-0.143E-03
CGA:   6    -0.132405296014E+04   -0.98618E-03   -0.98404E-03  8540   0.103E-02-0.179E-03
CGA:   7    -0.132405322214E+04   -0.26200E-03   -0.26206E-03  8540   0.273E-03 0.171E-04
CGA:   8    -0.132405330317E+04   -0.81033E-04   -0.80689E-04  8540   0.810E-04 0.164E-04
CGA:   9    -0.132405333232E+04   -0.29152E-04   -0.28939E-04  8540   0.271E-04 0.322E-05
CGA:  10    -0.132405331879E+04    0.13533E-04   -0.30241E-04  8540   0.152E-03-0.549E-04
CGA:  11    -0.132405335153E+04   -0.32742E-04   -0.33559E-04  8540   0.157E-04 0.862E-05
CGA:  12    -0.132405335722E+04   -0.56884E-05   -0.56670E-05  8540   0.373E-05 0.669E-06
  52 F= -.13240534E+04 E0= -.13240534E+04  d E =0.189560E-03  mag=   126.0000
       N       E                     dE             d eps       ncg     rms          ort
SDA:   1    -0.132377269198E+04    0.28066E+00    0.00000E+00  8540   0.741E+00 0.000E+00
CGA:   2    -0.132396399597E+04   -0.19130E+00   -0.19136E+00  8540   0.356E+00 0.626E-03
CGA:   3    -0.132403836998E+04   -0.74374E-01   -0.74344E-01  8540   0.664E-01-0.391E-03
CGA:   4    -0.132405221756E+04   -0.13848E-01   -0.13828E-01  8540   0.119E-01-0.215E-03
CGA:   5    -0.132405482014E+04   -0.26026E-02   -0.26061E-02  8540   0.262E-02 0.402E-04
CGA:   6    -0.132405547642E+04   -0.65628E-03   -0.65681E-03  8540   0.673E-03 0.107E-04
CGA:   7    -0.132405567050E+04   -0.19408E-03   -0.19403E-03  8540   0.203E-03-0.634E-05
CGA:   8    -0.132405574322E+04   -0.72720E-04   -0.76339E-04  8540   0.100E-03-0.424E-04
CGA:   9    -0.132405577237E+04   -0.29144E-04   -0.35701E-04  8540   0.620E-04-0.436E-04
CGA:  10    -0.132405577987E+04   -0.75038E-05   -0.78234E-05  8540   0.213E-04 0.380E-05
  53 F= -.13240558E+04 E0= -.13240558E+04  d E =-.242265E-02  mag=   126.0000
       N       E                     dE             d eps       ncg     rms          ort
SDA:   1    -0.132402571563E+04    0.30057E-01    0.00000E+00  8540   0.827E-01 0.000E+00
CGA:   2    -0.132404629925E+04   -0.20584E-01   -0.20597E-01  8540   0.388E-01 0.244E-03
CGA:   3    -0.132405462418E+04   -0.83249E-02   -0.83203E-02  8540   0.758E-02-0.666E-04
CGA:   4    -0.132405622242E+04   -0.15982E-02   -0.15916E-02  8540   0.135E-02-0.828E-04
CGA:   5    -0.132405652002E+04   -0.29760E-03   -0.29704E-03  8540   0.304E-03-0.903E-05
CGA:   6    -0.132405659256E+04   -0.72541E-04   -0.72978E-04  8540   0.736E-04 0.103E-04
CGA:   7    -0.132405661264E+04   -0.20072E-04   -0.20171E-04  8540   0.201E-04 0.585E-05
CGA:   8    -0.132405662057E+04   -0.79305E-05   -0.12004E-04  8540   0.279E-04-0.149E-04
  54 F= -.13240566E+04 E0= -.13240566E+04  d E =-.840696E-03  mag=   126.0000
       N       E                     dE             d eps       ncg     rms          ort
SDA:   1    -0.132386806761E+04    0.18855E+00    0.00000E+00  8540   0.476E+00 0.000E+00
CGA:   2    -0.132399979975E+04   -0.13173E+00   -0.13174E+00  8540   0.228E+00 0.134E-03
CGA:   3    -0.132404537601E+04   -0.45576E-01   -0.45566E-01  8540   0.414E-01-0.152E-03
CGA:   4    -0.132405390318E+04   -0.85272E-02   -0.85254E-02  8540   0.716E-02-0.274E-04
CGA:   5    -0.132405553493E+04   -0.16317E-02   -0.16256E-02  8540   0.168E-02-0.118E-03
CGA:   6    -0.132405596448E+04   -0.42955E-03   -0.42792E-03  8540   0.455E-03-0.864E-04
CGA:   7    -0.132405607341E+04   -0.10894E-03   -0.10955E-03  8540   0.117E-03 0.270E-04
CGA:   8    -0.132405611467E+04   -0.41257E-04   -0.41488E-04  8540   0.447E-04-0.399E-05
CGA:   9    -0.132405613140E+04   -0.16728E-04   -0.19807E-04  8540   0.292E-04-0.171E-04
CGA:  10    -0.132405613189E+04   -0.49148E-06   -0.12205E-04  8540   0.498E-04-0.301E-04
CGA:  11    -0.132405614186E+04   -0.99699E-05   -0.10466E-04  8540   0.803E-05 0.512E-05
  55 F= -.13240561E+04 E0= -.13240561E+04  d E =0.478706E-03  mag=   126.0000
       N       E                     dE             d eps       ncg     rms          ort
SDA:   1    -0.132142821285E+04    0.26279E+01    0.00000E+00  8540   0.650E+01 0.000E+00
CGA:   2    -0.132330415547E+04   -0.18759E+01   -0.18760E+01  8540   0.306E+01-0.840E-03
CGA:   3    -0.132389900667E+04   -0.59485E+00   -0.59479E+00  8540   0.550E+00 0.171E-03
CGA:   4    -0.132401192651E+04   -0.11292E+00   -0.11300E+00  8540   0.955E-01 0.846E-03
CGA:   5    -0.132403340201E+04   -0.21475E-01   -0.21447E-01  8540   0.221E-01-0.429E-03
CGA:   6    -0.132403895317E+04   -0.55512E-02   -0.55377E-02  8540   0.574E-02-0.345E-03
CGA:   7    -0.132404046552E+04   -0.15123E-02   -0.15164E-02  8540   0.165E-02 0.191E-03
CGA:   8    -0.132404100838E+04   -0.54286E-03   -0.54136E-03  8540   0.565E-03 0.492E-04
CGA:   9    -0.132404120790E+04   -0.19952E-03   -0.19970E-03  8540   0.185E-03-0.324E-05
CGA:  10    -0.132404127495E+04   -0.67051E-04   -0.69360E-04  8540   0.633E-04-0.270E-04
CGA:  11    -0.132404128834E+04   -0.13382E-04   -0.13746E-04  8540   0.159E-04 0.862E-05
CGA:  12    -0.132404129161E+04   -0.32712E-05   -0.37664E-05  8540   0.500E-05 0.574E-05
  56 F= -.13240413E+04 E0= -.13240413E+04  d E =0.148503E-01  mag=   126.0000
       N       E                     dE             d eps       ncg     rms          ort
SDA:   1    -0.131967358561E+04    0.43677E+01    0.00000E+00  8540   0.107E+02 0.000E+00
CGA:   2    -0.132281290957E+04   -0.31393E+01   -0.31393E+01  8540   0.501E+01-0.511E-02
CGA:   3    -0.132377279505E+04   -0.95989E+00   -0.96023E+00  8540   0.892E+00 0.233E-02
CGA:   4    -0.132395737308E+04   -0.18458E+00   -0.18469E+00  8540   0.155E+00 0.152E-02
CGA:   5    -0.132399227716E+04   -0.34904E-01   -0.34856E-01  8540   0.363E-01-0.101E-02
CGA:   6    -0.132400145210E+04   -0.91749E-02   -0.91646E-02  8540   0.938E-02-0.581E-03
CGA:   7    -0.132400398465E+04   -0.25326E-02   -0.25320E-02  8540   0.284E-02 0.175E-03
CGA:   8    -0.132400492518E+04   -0.94053E-03   -0.93834E-03  8540   0.978E-03 0.403E-04
CGA:   9    -0.132400528374E+04   -0.35856E-03   -0.36847E-03  8540   0.360E-03-0.102E-03
CGA:  10    -0.132400540380E+04   -0.12007E-03   -0.14121E-03  8540   0.174E-03-0.133E-03
CGA:  11    -0.132400543887E+04   -0.35072E-04   -0.35837E-04  8540   0.535E-04-0.191E-04
CGA:  12    -0.132400545540E+04   -0.16526E-04   -0.28662E-04  8540   0.676E-04-0.387E-04
CGA:  13    -0.132400546580E+04   -0.10399E-04   -0.12765E-04  8540   0.108E-04 0.204E-04
CGA:  14    -0.132400547549E+04   -0.96892E-05    0.13619E-04  8540   0.436E-05 0.199E-06
  57 F= -.13240055E+04 E0= -.13240055E+04  d E =0.358161E-01  mag=   126.0000
       N       E                     dE             d eps       ncg     rms          ort
SDA:   1    -0.130931677949E+04    0.14689E+02    0.00000E+00  8540   0.439E+02 0.000E+00
CGA:   2    -0.131837325554E+04   -0.90565E+01   -0.90909E+01  8540   0.175E+02 0.981E-01
CGA:   3    -0.132261519238E+04   -0.42419E+01   -0.42422E+01  8540   0.449E+01 0.883E-02
CGA:   4    -0.132354280063E+04   -0.92761E+00   -0.92760E+00  8540   0.796E+00-0.312E-02
CGA:   5    -0.132371572024E+04   -0.17292E+00   -0.17302E+00  8540   0.180E+00 0.727E-03
CGA:   6    -0.132376013324E+04   -0.44413E-01   -0.44388E-01  8540   0.465E-01-0.711E-03
CGA:   7    -0.132377249446E+04   -0.12361E-01   -0.12372E-01  8540   0.126E-01 0.751E-03
CGA:   8    -0.132377638143E+04   -0.38870E-02   -0.38871E-02  8540   0.406E-02-0.824E-05
CGA:   9    -0.132377778052E+04   -0.13991E-02   -0.14088E-02  8540   0.148E-02-0.151E-03
CGA:  10    -0.132377828023E+04   -0.49970E-03   -0.50206E-03  8540   0.480E-03-0.352E-04
CGA:  11    -0.132377846386E+04   -0.18363E-03   -0.21166E-03  8540   0.261E-03-0.172E-03
CGA:  12    -0.132377851590E+04   -0.52041E-04   -0.52500E-04  8540   0.107E-03-0.287E-04
CGA:  13    -0.132377854030E+04   -0.24404E-04   -0.57974E-04  8540   0.206E-03-0.107E-03
CGA:  14    -0.132377858501E+04   -0.44711E-04   -0.44380E-04  8540   0.377E-04-0.330E-05
CGA:  15    -0.132377859626E+04   -0.11246E-04   -0.17697E-04  8540   0.745E-04-0.382E-04
CGA:  16    -0.132377860642E+04   -0.10155E-04   -0.11010E-04  8540   0.646E-05 0.512E-05
CGA:  17    -0.132377861510E+04   -0.86888E-05    0.10248E-05  8540   0.135E-05-0.617E-07
  58 F= -.13237786E+04 E0= -.13237786E+04  d E =0.226860E+00  mag=   126.0000
       N       E                     dE             d eps       ncg     rms          ort
SDA:   1    -0.132024495788E+04    0.35336E+01    0.00000E+00  8540   0.117E+02 0.000E+00
CGA:   2    -0.132259413418E+04   -0.23492E+01   -0.23546E+01  8540   0.434E+01 0.168E-01
CGA:   3    -0.132366463570E+04   -0.10705E+01   -0.10707E+01  8540   0.118E+01 0.242E-02
CGA:   4    -0.132391579335E+04   -0.25116E+00   -0.25150E+00  8540   0.222E+00 0.280E-02
CGA:   5    -0.132396431034E+04   -0.48517E-01   -0.48534E-01  8540   0.471E-01 0.118E-03
CGA:   6    -0.132397587960E+04   -0.11569E-01   -0.11555E-01  8540   0.126E-01-0.325E-03
CGA:   7    -0.132397912958E+04   -0.32500E-02   -0.32651E-02  8540   0.322E-02 0.531E-03
CGA:   8    -0.132398009909E+04   -0.96950E-03   -0.96944E-03  8540   0.100E-02 0.136E-03
CGA:   9    -0.132398038182E+04   -0.28274E-03   -0.28577E-03  8540   0.299E-03 0.211E-03
CGA:  10    -0.132398049348E+04   -0.11166E-03   -0.11041E-03  8540   0.112E-03 0.704E-04
CGA:  11    -0.132398051567E+04   -0.22192E-04   -0.27947E-04  8540   0.432E-04 0.661E-04
CGA:  12    -0.132398051842E+04   -0.27424E-05   -0.65822E-05  8540   0.227E-04 0.292E-04
  59 F= -.13239805E+04 E0= -.13239805E+04  d E =-.201903E+00  mag=   126.0000
       N       E                     dE             d eps       ncg     rms          ort
SDA:   1    -0.132358553801E+04    0.39498E+00    0.00000E+00  8540   0.126E+01 0.000E+00
CGA:   2    -0.132383805262E+04   -0.25251E+00   -0.25275E+00  8540   0.480E+00 0.241E-02
CGA:   3    -0.132395849409E+04   -0.12044E+00   -0.12045E+00  8540   0.134E+00 0.338E-03
CGA:   4    -0.132398633676E+04   -0.27843E-01   -0.27869E-01  8540   0.239E-01 0.393E-03
CGA:   5    -0.132399157631E+04   -0.52396E-02   -0.52416E-02  8540   0.526E-02 0.380E-04
CGA:   6    -0.132399285551E+04   -0.12792E-02   -0.12793E-02  8540   0.132E-02 0.369E-05
CGA:   7    -0.132399319123E+04   -0.33572E-03   -0.33628E-03  8540   0.326E-03 0.108E-03
CGA:   8    -0.132399329258E+04   -0.10134E-03   -0.10060E-03  8540   0.101E-03 0.293E-04
CGA:   9    -0.132399331609E+04   -0.23516E-04   -0.24914E-04  8540   0.335E-04 0.412E-04
CGA:  10    -0.132399332336E+04   -0.72725E-05   -0.89001E-05  8540   0.153E-04 0.231E-04
  60 F= -.13239933E+04 E0= -.13239933E+04  d E =-.128049E-01  mag=   126.0000
       N       E                     dE             d eps       ncg     rms          ort
SDA:   1    -0.132393333957E+04    0.59977E-01    0.00000E+00  8540   0.173E+00 0.000E+00
CGA:   2    -0.132397279414E+04   -0.39455E-01   -0.39458E-01  8540   0.810E-01 0.597E-04
CGA:   3    -0.132399119597E+04   -0.18402E-01   -0.18401E-01  8540   0.173E-01-0.429E-04
CGA:   4    -0.132399469221E+04   -0.34962E-02   -0.34909E-02  8540   0.300E-02-0.114E-03
CGA:   5    -0.132399534933E+04   -0.65712E-03   -0.65736E-03  8540   0.683E-03 0.763E-05
CGA:   6    -0.132399551712E+04   -0.16779E-03   -0.16779E-03  8540   0.164E-03 0.616E-05
[...]
CGA:  11    -0.132402751945E+04   -0.30800E-04   -0.36098E-04  8540   0.399E-04-0.309E-04
CGA:  12    -0.132402752015E+04   -0.70682E-06   -0.16570E-04  8540   0.682E-04-0.365E-04
CGA:  13    -0.132402754332E+04   -0.23168E-04   -0.24187E-04  8540   0.316E-04-0.219E-04
CGA:  14    -0.132402754534E+04   -0.20223E-05   -0.32737E-05  8540   0.109E-04 0.795E-05
 109 F= -.13240275E+04 E0= -.13240275E+04  d E =0.168181E-01  mag=   126.0000
       N       E                     dE             d eps       ncg     rms          ort
SDA:   1    -0.128955541086E+04    0.34472E+02    0.00000E+00  8540   0.964E+02 0.000E+00
CGA:   2    -0.131137431853E+04   -0.21819E+02   -0.21849E+02  8540   0.434E+02 0.150E+00
CGA:   3    -0.132134988090E+04   -0.99756E+01   -0.99776E+01  8540   0.931E+01 0.223E-01
CGA:   4    -0.132326385799E+04   -0.19140E+01   -0.19145E+01  8540   0.167E+01-0.355E-03
CGA:   5    -0.132363506910E+04   -0.37121E+00   -0.37119E+00  8540   0.387E+00-0.134E-02
CGA:   6    -0.132373219260E+04   -0.97124E-01   -0.97017E-01  8540   0.100E+00-0.369E-02
CGA:   7    -0.132375965601E+04   -0.27463E-01   -0.27466E-01  8540   0.282E-01 0.950E-03
CGA:   8    -0.132376823243E+04   -0.85764E-02   -0.85607E-02  8540   0.899E-02 0.716E-03
CGA:   9    -0.132377138395E+04   -0.31515E-02   -0.31478E-02  8540   0.296E-02 0.586E-04
CGA:  10    -0.132377240458E+04   -0.10206E-02   -0.10170E-02  8540   0.885E-03 0.603E-04
CGA:  11    -0.132377274000E+04   -0.33542E-03   -0.34656E-03  8540   0.299E-03-0.114E-03
CGA:  12    -0.132377278259E+04   -0.42588E-04   -0.52006E-04  8540   0.101E-03 0.104E-03
CGA:  13    -0.132377280164E+04   -0.19052E-04   -0.24640E-04  8540   0.359E-04 0.527E-04
CGA:  14    -0.132377282738E+04   -0.25734E-04    0.18257E-04  8540   0.157E-04 0.166E-04
CGA:  15    -0.132377279371E+04    0.33664E-04   -0.20826E-04  8540   0.171E-03-0.501E-04
CGA:  16    -0.132377282700E+04   -0.33287E-04   -0.39184E-04  8540   0.541E-04 0.210E-04
CGA:  17    -0.132377285531E+04   -0.28308E-04   -0.42680E-04  8540   0.119E-03-0.703E-04
CGA:  18    -0.132377285698E+04   -0.16764E-05   -0.16523E-04  8540   0.252E-04 0.403E-04
 110 F= -.13237729E+04 E0= -.13237729E+04  d E =0.254688E+00  mag=   126.0000
       N       E                     dE             d eps       ncg     rms          ort
SDA:   1    -0.131636854037E+04    0.74043E+01    0.00000E+00  8540   0.225E+02 0.000E+00
CGA:   2    -0.132118362475E+04   -0.48151E+01   -0.48347E+01  8540   0.947E+01-0.894E-02
CGA:   3    -0.132342920029E+04   -0.22456E+01   -0.22462E+01  8540   0.217E+01 0.620E-02
CGA:   4    -0.132388541873E+04   -0.45622E+00   -0.45559E+00  8540   0.394E+00-0.234E-02
CGA:   5    -0.132397294787E+04   -0.87529E-01   -0.87778E-01  8540   0.894E-01 0.947E-03
CGA:   6    -0.132399471373E+04   -0.21766E-01   -0.21906E-01  8540   0.227E-01 0.738E-03
CGA:   7    -0.132400122999E+04   -0.65163E-02   -0.65244E-02  8540   0.657E-02 0.565E-04
CGA:   8    -0.132400337530E+04   -0.21453E-02   -0.21071E-02  8540   0.237E-02-0.418E-03
CGA:   9    -0.132400420387E+04   -0.82857E-03   -0.81688E-03  8540   0.913E-03-0.302E-03
CGA:  10    -0.132400443761E+04   -0.23374E-03   -0.23923E-03  8540   0.237E-03 0.520E-04
CGA:  11    -0.132400453816E+04   -0.10055E-03   -0.10063E-03  8540   0.990E-04-0.539E-04
CGA:  12    -0.132400417583E+04    0.36232E-03   -0.14156E-03  8540   0.182E-02-0.348E-03
CGA:  13    -0.132400459613E+04   -0.42030E-03   -0.42744E-03  8540   0.221E-03 0.300E-04
CGA:  14    -0.132400466097E+04   -0.64842E-04   -0.67101E-04  8540   0.878E-04 0.141E-04
CGA:  15    -0.132400467638E+04   -0.15410E-04   -0.20366E-04  8540   0.196E-04 0.212E-04
CGA:  16    -0.132400468610E+04   -0.97213E-05   -0.22883E-04  8540   0.673E-04-0.263E-04
 111 F= -.13240047E+04 E0= -.13240047E+04  d E =-.231829E+00  mag=   126.0000
       N       E                     dE             d eps       ncg     rms          ort
SDA:   1    -0.132359827276E+04    0.40640E+00    0.00000E+00  8540   0.110E+01 0.000E+00
CGA:   2    -0.132388772131E+04   -0.28945E+00   -0.28955E+00  8540   0.519E+00 0.119E-03
CGA:   3    -0.132399452397E+04   -0.10680E+00   -0.10665E+00  8540   0.947E-01-0.823E-03
CGA:   4    -0.132401441606E+04   -0.19892E-01   -0.19813E-01  8540   0.171E-01-0.367E-03
CGA:   5    -0.132401806922E+04   -0.36532E-02   -0.37173E-02  8540   0.373E-02 0.317E-03
CGA:   6    -0.132401893596E+04   -0.86673E-03   -0.90621E-03  8540   0.919E-03 0.234E-03
CGA:   7    -0.132401922160E+04   -0.28564E-03   -0.28573E-03  8540   0.297E-03 0.669E-06
CGA:   8    -0.132401934311E+04   -0.12150E-03   -0.12347E-03  8540   0.184E-03-0.905E-04
CGA:   9    -0.132401938368E+04   -0.40570E-04   -0.38739E-04  8540   0.581E-04-0.199E-04
CGA:  10    -0.132401938836E+04   -0.46860E-05   -0.90154E-05  8540   0.221E-04 0.201E-04
 112 F= -.13240194E+04 E0= -.13240194E+04  d E =-.147023E-01  mag=   126.0000
       N       E                     dE             d eps       ncg     rms          ort
SDA:   1    -0.131904899013E+04    0.49704E+01    0.00000E+00  8540   0.126E+02 0.000E+00
CGA:   2    -0.132250301819E+04   -0.34540E+01   -0.34547E+01  8540   0.619E+01 0.261E-03
CGA:   3    -0.132374049909E+04   -0.12375E+01   -0.12373E+01  8540   0.104E+01-0.250E-02
CGA:   4    -0.132395540677E+04   -0.21491E+00   -0.21480E+00  8540   0.189E+00-0.574E-03
CGA:   5    -0.132399765254E+04   -0.42246E-01   -0.42420E-01  8540   0.426E-01 0.136E-02
CGA:   6    -0.132400800855E+04   -0.10356E-01   -0.10434E-01  8540   0.105E-01 0.796E-03
CGA:   7    -0.132401099840E+04   -0.29899E-02   -0.29963E-02  8540   0.316E-02 0.117E-03
CGA:   8    -0.132401204703E+04   -0.10486E-02   -0.10483E-02  8540   0.115E-02-0.693E-04
CGA:   9    -0.132401241209E+04   -0.36505E-03   -0.36523E-03  8540   0.326E-03 0.207E-04
CGA:  10    -0.132401247820E+04   -0.66118E-04   -0.76576E-04  8540   0.839E-04 0.102E-03
CGA:  11    -0.132401249597E+04   -0.17761E-04   -0.22543E-04  8540   0.268E-04 0.389E-04
CGA:  12    -0.132401250394E+04   -0.79707E-05   -0.91151E-05  8540   0.101E-04 0.128E-04
 113 F= -.13240125E+04 E0= -.13240125E+04  d E =0.688442E-02  mag=   126.0000
       N       E                     dE             d eps       ncg     rms          ort
SDA:   1    -0.131775333848E+04    0.62592E+01    0.00000E+00  8540   0.155E+02 0.000E+00
CGA:   2    -0.132208744436E+04   -0.43341E+01   -0.43343E+01  8540   0.799E+01-0.983E-04
CGA:   3    -0.132366972458E+04   -0.15823E+01   -0.15825E+01  8540   0.124E+01 0.355E-04
CGA:   4    -0.132392454302E+04   -0.25482E+00   -0.25493E+00  8540   0.229E+00 0.103E-02
CGA:   5    -0.132397696601E+04   -0.52423E-01   -0.52478E-01  8540   0.525E-01 0.747E-03
CGA:   6    -0.132398977423E+04   -0.12808E-01   -0.12808E-01  8540   0.126E-01-0.194E-04
CGA:   7    -0.132399329486E+04   -0.35206E-02   -0.35225E-02  8540   0.375E-02 0.162E-03
CGA:   8    -0.132399447447E+04   -0.11796E-02   -0.11774E-02  8540   0.126E-02 0.114E-03
CGA:   9    -0.132399491864E+04   -0.44417E-03   -0.44366E-03  8540   0.388E-03 0.100E-04
CGA:  10    -0.132399502271E+04   -0.10406E-03   -0.10582E-03  8540   0.935E-04 0.760E-04
CGA:  11    -0.132399505862E+04   -0.35913E-04   -0.35765E-04  8540   0.271E-04 0.532E-05
CGA:  12    -0.132399506285E+04   -0.42276E-05   -0.55500E-05  8540   0.981E-05 0.132E-04
 114 F= -.13239951E+04 E0= -.13239951E+04  d E =0.174411E-01  mag=   126.0000
       N       E                     dE             d eps       ncg     rms          ort
SDA:   1    -0.129222581282E+04    0.31769E+02    0.00000E+00  8540   0.899E+02 0.000E+00
CGA:   2    -0.131233730589E+04   -0.20111E+02   -0.20139E+02  8540   0.395E+02 0.172E+00
CGA:   3    -0.132150445663E+04   -0.91672E+01   -0.91689E+01  8540   0.872E+01 0.242E-01
CGA:   4    -0.132330856949E+04   -0.18041E+01   -0.18046E+01  8540   0.156E+01 0.846E-03
CGA:   5    -0.132365565806E+04   -0.34709E+00   -0.34702E+00  8540   0.360E+00-0.227E-02
CGA:   6    -0.132374629701E+04   -0.90639E-01   -0.90562E-01  8540   0.946E-01-0.409E-02
CGA:   7    -0.132377217273E+04   -0.25876E-01   -0.25870E-01  8540   0.265E-01 0.770E-03
CGA:   8    -0.132378019460E+04   -0.80219E-02   -0.80006E-02  8540   0.834E-02 0.736E-03
CGA:   9    -0.132378312623E+04   -0.29316E-02   -0.29324E-02  8540   0.275E-02-0.137E-04
CGA:  10    -0.132378413892E+04   -0.10127E-02   -0.10339E-02  8540   0.952E-03-0.211E-03
CGA:  11    -0.132378446819E+04   -0.32926E-03   -0.35775E-03  8540   0.366E-03-0.225E-03
CGA:  12    -0.132378453214E+04   -0.63952E-04   -0.66897E-04  8540   0.111E-03 0.621E-04
CGA:  13    -0.132378456299E+04   -0.30855E-04   -0.31802E-04  8540   0.372E-04 0.237E-04
CGA:  14    -0.132378459924E+04   -0.36246E-04    0.15144E-04  8540   0.162E-04 0.111E-04
CGA:  15    -0.132378462052E+04   -0.21277E-04    0.37621E-05  8540   0.736E-05 0.506E-05
CGA:  16    -0.132378462617E+04   -0.56522E-05    0.37033E-04  8540   0.274E-05 0.226E-05
 115 F= -.13237846E+04 E0= -.13237846E+04  d E =0.210437E+00  mag=   126.0000
       N       E                     dE             d eps       ncg     rms          ort
SDA:   1    -0.131485424769E+04    0.89304E+01    0.00000E+00  8540   0.264E+02 0.000E+00
CGA:   2    -0.132070459952E+04   -0.58504E+01   -0.58552E+01  8540   0.113E+02 0.334E-01
CGA:   3    -0.132334568824E+04   -0.26411E+01   -0.26411E+01  8540   0.251E+01-0.302E-02
CGA:   4    -0.132387184091E+04   -0.52615E+00   -0.52593E+00  8540   0.458E+00-0.402E-02
CGA:   5    -0.132397194441E+04   -0.10010E+00   -0.10023E+00  8540   0.102E+00 0.212E-02
CGA:   6    -0.132399758056E+04   -0.25636E-01   -0.25662E-01  8540   0.270E-01 0.117E-02
CGA:   7    -0.132400522897E+04   -0.76484E-02   -0.76452E-02  8540   0.764E-02 0.297E-03
CGA:   8    -0.132400771644E+04   -0.24875E-02   -0.25094E-02  8540   0.275E-02-0.405E-03
CGA:   9    -0.132400861662E+04   -0.90018E-03   -0.92287E-03  8540   0.958E-03-0.278E-03
CGA:  10    -0.132400885221E+04   -0.23559E-03   -0.23597E-03  8540   0.237E-03 0.128E-03
CGA:  11    -0.132400893042E+04   -0.78218E-04   -0.77832E-04  8540   0.668E-04 0.291E-04
CGA:  12    -0.132400861360E+04    0.31683E-03   -0.17156E-03  8540   0.146E-02-0.304E-03
CGA:  13    -0.132400888432E+04   -0.27072E-03   -0.31947E-03  8540   0.190E-03 0.170E-03
CGA:  14    -0.132400898578E+04   -0.10147E-03   -0.14430E-03  8540   0.484E-03-0.226E-03
CGA:  15    -0.132400899415E+04   -0.83701E-05   -0.60671E-04  8540   0.785E-04 0.140E-03
CGA:  16    -0.132400899562E+04   -0.14625E-05   -0.14478E-04  8540   0.285E-04 0.383E-04
CGA:  17    -0.132400901496E+04   -0.19344E-04   -0.16502E-04  8540   0.301E-04-0.373E-04
CGA:  18    -0.132400901362E+04    0.13364E-05   -0.38012E-05  8540   0.924E-05 0.153E-04
 116 F= -.13240090E+04 E0= -.13240090E+04  d E =-.224387E+00  mag=   126.0000
       N       E                     dE             d eps       ncg     rms          ort
SDA:   1    -0.132365380445E+04    0.35521E+00    0.00000E+00  8540   0.101E+01 0.000E+00
CGA:   2    -0.132390403578E+04   -0.25023E+00   -0.25042E+00  8540   0.484E+00 0.546E-03
CGA:   3    -0.132400879130E+04   -0.10476E+00   -0.10460E+00  8540   0.914E-01-0.997E-03
CGA:   4    -0.132402785648E+04   -0.19065E-01   -0.18921E-01  8540   0.167E-01-0.715E-03
CGA:   5    -0.132403143574E+04   -0.35793E-02   -0.36300E-02  8540   0.368E-02 0.271E-03
CGA:   6    -0.132403225136E+04   -0.81562E-03   -0.86330E-03  8540   0.861E-03 0.292E-03
CGA:   7    -0.132403251515E+04   -0.26378E-03   -0.26588E-03  8540   0.267E-03 0.209E-04
CGA:   8    -0.132403262737E+04   -0.11222E-03   -0.11656E-03  8540   0.184E-03-0.940E-04
CGA:   9    -0.132403266404E+04   -0.36671E-04   -0.34820E-04  8540   0.639E-04-0.204E-04
CGA:  10    -0.132403266703E+04   -0.29951E-05   -0.85982E-05  8540   0.280E-04 0.247E-04
 117 F= -.13240327E+04 E0= -.13240327E+04  d E =-.236534E-01  mag=   126.0000
       N       E                     dE             d eps       ncg     rms          ort
SDA:   1    -0.131398822533E+04    0.10044E+02    0.00000E+00  8540   0.257E+02 0.000E+00
CGA:   2    -0.132077044807E+04   -0.67822E+01   -0.67852E+01  8540   0.129E+02 0.885E-02
CGA:   3    -0.132344870221E+04   -0.26783E+01   -0.26780E+01  8540   0.220E+01-0.478E-02
CGA:   4    -0.132389935136E+04   -0.45065E+00   -0.45038E+00  8540   0.401E+00-0.205E-02
CGA:   5    -0.132398979983E+04   -0.90448E-01   -0.90676E-01  8540   0.921E-01 0.195E-02
CGA:   6    -0.132401213674E+04   -0.22337E-01   -0.22433E-01  8540   0.223E-01 0.108E-02
CGA:   7    -0.132401850234E+04   -0.63656E-02   -0.63693E-02  8540   0.667E-02 0.797E-04
CGA:   8    -0.132402071754E+04   -0.22152E-02   -0.22177E-02  8540   0.250E-02-0.327E-03
CGA:   9    -0.132402153374E+04   -0.81620E-03   -0.81899E-03  8540   0.790E-03-0.140E-03
CGA:  10    -0.132402173410E+04   -0.20036E-03   -0.20566E-03  8540   0.184E-03 0.107E-03
CGA:  11    -0.132402179783E+04   -0.63730E-04   -0.63938E-04  8540   0.501E-04 0.125E-04
CGA:  12    -0.132402165666E+04    0.14117E-03   -0.82742E-04  8540   0.742E-03-0.183E-03
CGA:  13    -0.132402180167E+04   -0.14502E-03   -0.16118E-03  8540   0.934E-04 0.974E-04
CGA:  14    -0.132402184236E+04   -0.40686E-04   -0.40948E-04  8540   0.491E-04-0.205E-04
CGA:  15    -0.132402184651E+04   -0.41517E-05   -0.61450E-05  8540   0.151E-04 0.929E-05
 118 F= -.13240218E+04 E0= -.13240218E+04  d E =0.108205E-01  mag=   126.0000
       N       E                     dE             d eps       ncg     rms          ort
SDA:   1    -0.130561017475E+04    0.18412E+02    0.00000E+00  8540   0.441E+02 0.000E+00
CGA:   2    -0.131891978890E+04   -0.13310E+02   -0.13310E+02  8540   0.222E+02-0.138E-01
CGA:   3    -0.132308166215E+04   -0.41619E+01   -0.41643E+01  8540   0.327E+01 0.535E-02
CGA:   4    -0.132376188456E+04   -0.68022E+00   -0.68090E+00  8540   0.622E+00 0.453E-02
CGA:   5    -0.132390333596E+04   -0.14145E+00   -0.14162E+00  8540   0.140E+00 0.139E-02
CGA:   6    -0.132393768799E+04   -0.34352E-01   -0.34359E-01  8540   0.348E-01 0.518E-04
CGA:   7    -0.132394753388E+04   -0.98459E-02   -0.98562E-02  8540   0.108E-01 0.225E-03
CGA:   8    -0.132395107707E+04   -0.35432E-02   -0.35432E-02  8540   0.393E-02 0.677E-04
CGA:   9    -0.132395244268E+04   -0.13656E-02   -0.13678E-02  8540   0.119E-02-0.108E-03
CGA:  10    -0.132395281269E+04   -0.37001E-03   -0.37002E-03  8540   0.290E-03 0.147E-05
CGA:  11    -0.132395290649E+04   -0.93795E-04   -0.93795E-04  8540   0.701E-04-0.138E-06
CGA:  12    -0.132395242150E+04    0.48499E-03   -0.26117E-03  8540   0.238E-02-0.362E-03
CGA:  13    -0.132395281039E+04   -0.38889E-03   -0.46770E-03  8540   0.398E-03 0.201E-03
CGA:  14    -0.132395296864E+04   -0.15825E-03   -0.13380E-03  8540   0.138E-03-0.924E-04
CGA:  15    -0.132395297383E+04   -0.51890E-05   -0.19034E-04  8540   0.400E-04 0.363E-04
 119 F= -.13239530E+04 E0= -.13239530E+04  d E =0.688727E-01  mag=   126.0000
       N       E                     dE             d eps       ncg     rms          ort
SDA:   1    -0.128756234752E+04    0.36391E+02    0.00000E+00  8540   0.105E+03 0.000E+00
CGA:   2    -0.131029474262E+04   -0.22732E+02   -0.22936E+02  8540   0.447E+02-0.203E-01
CGA:   3    -0.132092084396E+04   -0.10626E+02   -0.10639E+02  8540   0.101E+02 0.155E+00
CGA:   4    -0.132301907372E+04   -0.20982E+01   -0.20998E+01  8540   0.181E+01 0.804E-02
CGA:   5    -0.132342446196E+04   -0.40539E+00   -0.40546E+00  8540   0.423E+00-0.152E-02
CGA:   6    -0.132353078199E+04   -0.10632E+00   -0.10572E+00  8540   0.111E+00-0.290E-02
CGA:   7    -0.132356160112E+04   -0.30819E-01   -0.30905E-01  8540   0.314E-01 0.455E-03
CGA:   8    -0.132357092151E+04   -0.93204E-02   -0.94296E-02  8540   0.982E-02 0.723E-03
CGA:   9    -0.132357431923E+04   -0.33977E-02   -0.34025E-02  8540   0.322E-02 0.428E-04
CGA:  10    -0.132357540964E+04   -0.10904E-02   -0.10997E-02  8540   0.967E-03 0.965E-04
CGA:  11    -0.132357581510E+04   -0.40547E-03   -0.40064E-03  8540   0.359E-03-0.172E-03
CGA:  12    -0.132357584235E+04   -0.27245E-04   -0.56714E-04  8540   0.128E-03 0.124E-03
CGA:  13    -0.132357585696E+04   -0.14614E-04   -0.29699E-04  8540   0.420E-04 0.617E-04
CGA:  14    -0.132357588335E+04   -0.26391E-04   -0.26911E-04  8540   0.398E-04-0.197E-04
CGA:  15    -0.132357588554E+04   -0.21861E-05   -0.31391E-05  8540   0.330E-04 0.364E-05
 120 F= -.13235759E+04 E0= -.13235759E+04  d E =0.377088E+00  mag=   126.0000
       N       E                     dE             d eps       ncg     rms          ort
SDA:   1    -0.131549237022E+04    0.80835E+01    0.00000E+00  8540   0.247E+02 0.000E+00
CGA:   2    -0.132082681755E+04   -0.53344E+01   -0.53437E+01  8540   0.106E+02 0.819E-02
CGA:   3    -0.132335900573E+04   -0.25322E+01   -0.25329E+01  8540   0.241E+01 0.142E-02
CGA:   4    -0.132385475482E+04   -0.49575E+00   -0.49552E+00  8540   0.426E+00-0.226E-02
CGA:   5    -0.132394997784E+04   -0.95223E-01   -0.95294E-01  8540   0.984E-01 0.353E-03
CGA:   6    -0.132397421010E+04   -0.24232E-01   -0.24278E-01  8540   0.253E-01 0.407E-03
CGA:   7    -0.132398134556E+04   -0.71355E-02   -0.71470E-02  8540   0.716E-02 0.175E-03
CGA:   8    -0.132398364663E+04   -0.23011E-02   -0.22935E-02  8540   0.244E-02-0.311E-03
CGA:   9    -0.132398443199E+04   -0.78536E-03   -0.78484E-03  8540   0.790E-03-0.963E-04
CGA:  10    -0.132398467736E+04   -0.24537E-03   -0.24593E-03  8540   0.219E-03 0.327E-04
CGA:  11    -0.132398474014E+04   -0.62772E-04   -0.64753E-04  8540   0.571E-04 0.350E-04
CGA:  12    -0.132398425463E+04    0.48550E-03   -0.26146E-03  8540   0.212E-02-0.337E-03
CGA:  13    -0.132398462148E+04   -0.36685E-03   -0.43952E-03  8540   0.392E-03 0.180E-03
CGA:  14    -0.132398477430E+04   -0.15282E-03   -0.12583E-03  8540   0.159E-03-0.902E-04
CGA:  15    -0.132398478422E+04   -0.99254E-05   -0.23383E-04  8540   0.436E-04 0.347E-04
CGA:  16    -0.132398478928E+04   -0.50582E-05   -0.10353E-04  8540   0.204E-04 0.145E-04
CGA:  17    -0.132398438128E+04    0.40801E-03   -0.71229E-04  8540   0.181E-02-0.230E-03
CGA:  18    -0.132398461940E+04   -0.23813E-03   -0.34483E-03  8540   0.381E-03 0.239E-03
CGA:  19    -0.132398476413E+04   -0.14473E-03   -0.13073E-03  8540   0.552E-04-0.438E-04
CGA:  20    -0.132398477746E+04   -0.13329E-04   -0.17215E-04  8540   0.180E-04 0.152E-04
CGA:  21    -0.132398429822E+04    0.47924E-03   -0.25971E-03  8540   0.176E-02-0.173E-03
CGA:  22    -0.132398457702E+04   -0.27880E-03   -0.37276E-03  8540   0.448E-03 0.115E-03
CGA:  23    -0.132398474410E+04   -0.16708E-03   -0.13890E-03  8540   0.987E-04-0.379E-04
CGA:  24    -0.132398477151E+04   -0.27403E-04   -0.37211E-04  8540   0.462E-04 0.166E-04
CGA:  25    -0.132398481676E+04   -0.45253E-04   -0.32924E-04  8540   0.675E-04-0.339E-04
CGA:  26    -0.132398480778E+04    0.89771E-05   -0.80854E-05  8540   0.998E-05 0.205E-04
 121 F= -.13239848E+04 E0= -.13239848E+04  d E =-.408922E+00  mag=   126.0000
       N       E                     dE             d eps       ncg     rms          ort
SDA:   1    -0.132295676131E+04    0.10281E+01    0.00000E+00  8540   0.284E+01 0.000E+00
CGA:   2    -0.132363705251E+04   -0.68029E+00   -0.68148E+00  8540   0.133E+01 0.111E-02
CGA:   3    -0.132393172038E+04   -0.29467E+00   -0.29418E+00  8540   0.262E+00-0.585E-03
CGA:   4    -0.132398586454E+04   -0.54144E-01   -0.53797E-01  8540   0.471E-01-0.561E-03
CGA:   5    -0.132399623622E+04   -0.10372E-01   -0.10471E-01  8540   0.108E-01 0.165E-03
CGA:   6    -0.132399875132E+04   -0.25151E-02   -0.26350E-02  8540   0.269E-02 0.232E-03
CGA:   7    -0.132399953241E+04   -0.78109E-03   -0.78026E-03  8540   0.796E-03-0.254E-05
CGA:   8    -0.132399985848E+04   -0.32607E-03   -0.28315E-03  8540   0.346E-03-0.123E-03
CGA:   9    -0.132399996756E+04   -0.10908E-03   -0.97155E-04  8540   0.109E-03-0.337E-04
CGA:  10    -0.132399999431E+04   -0.26741E-04   -0.28906E-04  8540   0.279E-04 0.571E-05
CGA:  11    -0.132399999877E+04   -0.44695E-05   -0.71330E-05  8540   0.790E-05 0.652E-05
