       N       E                     dE             d eps       ncg     rms          rms(c)
DAV:   1     0.112417971433E+05    0.11242E+05   -0.43022E+05 34700   0.160E+03
DAV:   2     0.272749993873E+02   -0.11215E+05   -0.10204E+05 34160   0.487E+02
DAV:   3    -0.160848638107E+04   -0.16358E+04   -0.15501E+04 36420   0.198E+02
DAV:   4    -0.169273617111E+04   -0.84250E+02   -0.83035E+02 39080   0.457E+01
DAV:   5    -0.169381534962E+04   -0.10792E+01   -0.10757E+01 37640   0.559E+00    0.146E+02
DAV:   6    -0.128528562483E+04    0.40853E+03   -0.80903E+02 41550   0.758E+01    0.119E+02
DAV:   7    -0.133497886471E+04   -0.49693E+02   -0.35286E+02 36900   0.642E+01    0.876E+01
DAV:   8    -0.131009745257E+04    0.24881E+02   -0.49842E+01 38820   0.225E+01    0.682E+01
DAV:   9    -0.131691533061E+04   -0.68179E+01   -0.49277E+01 36980   0.302E+01    0.642E+01
DAV:  10    -0.132248863076E+04   -0.55733E+01   -0.26840E+01 38030   0.160E+01    0.388E+01
DAV:  11    -0.131887192714E+04    0.36167E+01   -0.80227E+00 36800   0.111E+01    0.173E+01
DAV:  12    -0.132091769997E+04   -0.20458E+01   -0.86065E+00 40030   0.568E+00    0.238E+01
DAV:  13    -0.132067887432E+04    0.23883E+00   -0.10190E+01 36710   0.431E+00    0.188E+01
DAV:  14    -0.132127080025E+04   -0.59193E+00   -0.51674E-01 36360   0.243E+00    0.167E+01
DAV:  15    -0.132144297459E+04   -0.17217E+00   -0.14570E-01 35310   0.822E-01    0.171E+01
DAV:  16    -0.132140974135E+04    0.33233E-01   -0.19968E-02 36940   0.239E-01    0.171E+01
DAV:  17    -0.132145675740E+04   -0.47016E-01   -0.75705E-02 35380   0.349E-01    0.169E+01
DAV:  18    -0.132204647463E+04   -0.58972E+00   -0.64060E+00 39160   0.184E+00    0.152E+01
DAV:  19    -0.132295012500E+04   -0.90365E+00   -0.95149E-01 38570   0.172E+00    0.138E+01
DAV:  20    -0.132217296773E+04    0.77716E+00   -0.94314E-01 41170   0.315E+00    0.172E+01
DAV:  21    -0.132236160929E+04   -0.18864E+00   -0.34016E-01 37770   0.957E-01    0.172E+01
DAV:  22    -0.132282230964E+04   -0.46070E+00   -0.13431E-01 42380   0.125E+00    0.154E+01
DAV:  23    -0.132329409589E+04   -0.47179E+00   -0.37692E-01 39380   0.198E+00    0.159E+01
DAV:  24    -0.132383579503E+04   -0.54170E+00   -0.50121E-01 34920   0.132E+00    0.170E+01
DAV:  25    -0.132385443960E+04   -0.18645E-01   -0.70109E-02 36410   0.474E-01    0.176E+01
DAV:  26    -0.132392049360E+04   -0.66054E-01   -0.73367E-02 36810   0.560E-01    0.181E+01
DAV:  27    -0.132393373977E+04   -0.13246E-01   -0.91278E-03 35420   0.197E-01    0.182E+01
DAV:  28    -0.132393536649E+04   -0.16267E-02   -0.91911E-04 34100   0.540E-02    0.182E+01
DAV:  29    -0.132394230442E+04   -0.69379E-02   -0.50373E-04 36950   0.875E-02    0.183E+01
DAV:  30    -0.132395202989E+04   -0.97255E-02   -0.54568E-04 42030   0.864E-02    0.183E+01
DAV:  31    -0.132398836155E+04   -0.36332E-01   -0.27319E-03 40100   0.319E-01    0.183E+01
DAV:  32    -0.132421284767E+04   -0.22449E+00   -0.61229E-02 42840   0.167E+00    0.188E+01
DAV:  33    -0.132456498624E+04   -0.35214E+00   -0.14593E-01 46430   0.199E+00    0.205E+01
DAV:  34    -0.132485826855E+04   -0.29328E+00   -0.15516E-01 46860   0.125E+00    0.223E+01
DAV:  35    -0.132480537397E+04    0.52895E-01   -0.64890E-02 36260   0.538E-01    0.216E+01
DAV:  36    -0.132466987501E+04    0.13550E+00   -0.11169E-02 44280   0.507E-01    0.203E+01
DAV:  37    -0.132423544833E+04    0.43443E+00   -0.79288E-02 44260   0.171E+00    0.172E+01
DAV:  38    -0.132354685196E+04    0.68860E+00   -0.46960E-01 43650   0.405E+00    0.980E+00
DAV:  39    -0.132364135887E+04   -0.94507E-01   -0.16472E+00 37810   0.133E+00    0.101E+01
DAV:  40    -0.132369853807E+04   -0.57179E-01   -0.13679E-01 37910   0.165E+00    0.918E+00
DAV:  41    -0.132364982954E+04    0.48709E-01   -0.87719E-02 42440   0.710E-01    0.728E+00
DAV:  42    -0.132367573323E+04   -0.25904E-01   -0.96770E-02 35630   0.295E-01    0.669E+00
DAV:  43    -0.132376214880E+04   -0.86416E-01   -0.92632E-01 40730   0.110E+00    0.903E+00
DAV:  44    -0.132392780654E+04   -0.16566E+00   -0.23494E-01 42140   0.110E+00    0.103E+01
DAV:  45    -0.132396883315E+04   -0.41027E-01   -0.52404E-02 36610   0.579E-01    0.101E+01
DAV:  46    -0.132410458037E+04   -0.13575E+00   -0.18972E-02 39520   0.765E-01    0.993E+00
DAV:  47    -0.132432428828E+04   -0.21971E+00   -0.46576E-02 45110   0.136E+00    0.100E+01
DAV:  48    -0.132445995811E+04   -0.13567E+00   -0.77700E-02 46420   0.785E-01    0.103E+01
DAV:  49    -0.132452530571E+04   -0.65348E-01   -0.30157E-02 40460   0.379E-01    0.106E+01
DAV:  50    -0.132451667240E+04    0.86333E-02   -0.48615E-03 36310   0.209E-01    0.105E+01
DAV:  51    -0.132455837959E+04   -0.41707E-01   -0.52156E-03 43210   0.340E-01    0.107E+01
DAV:  52    -0.132468383037E+04   -0.12545E+00   -0.13899E-02 42850   0.588E-01    0.119E+01
DAV:  53    -0.132465138894E+04    0.32441E-01   -0.86383E-03 37220   0.350E-01    0.119E+01
DAV:  54    -0.132465255927E+04   -0.11703E-02   -0.25252E-03 36020   0.801E-02    0.125E+01
DAV:  55    -0.132471798543E+04   -0.65426E-01   -0.95372E-02 37290   0.275E-01    0.171E+01
DAV:  56    -0.132509384561E+04   -0.37586E+00   -0.24678E-01 39560   0.779E-01    0.244E+01
DAV:  57    -0.132518896920E+04   -0.95124E-01   -0.50903E-02 34910   0.627E-01    0.247E+01
DAV:  58    -0.132518099742E+04    0.79718E-02   -0.70968E-03 36020   0.160E-01    0.246E+01
DAV:  59    -0.132517805143E+04    0.29460E-02   -0.67003E-04 34090   0.425E-02    0.247E+01
DAV:  60    -0.132518928693E+04   -0.11236E-01   -0.11375E-04 29220   0.449E-02    0.247E+01
DAV:  61    -0.132512199510E+04    0.67292E-01   -0.57794E-03 38430   0.502E-01    0.244E+01
DAV:  62    -0.132513432537E+04   -0.12330E-01   -0.25033E-03 35430   0.121E-01    0.244E+01
DAV:  63    -0.132517456706E+04   -0.40242E-01   -0.76353E-04 38240   0.136E-01    0.244E+01
DAV:  64    -0.132513712062E+04    0.37446E-01   -0.91502E-04 39410   0.154E-01    0.242E+01
DAV:  65    -0.132502633818E+04    0.11078E+00   -0.34801E-03 40710   0.377E-01    0.237E+01
DAV:  66    -0.132504982342E+04   -0.23485E-01   -0.46434E-03 41300   0.267E-01    0.237E+01
DAV:  67    -0.132497362106E+04    0.76202E-01   -0.21067E-03 41500   0.230E-01    0.235E+01
DAV:  68    -0.132492897218E+04    0.44649E-01   -0.27679E-03 44060   0.140E-01    0.233E+01
DAV:  69    -0.132499654431E+04   -0.67572E-01   -0.29794E-03 36480   0.254E-01    0.236E+01
DAV:  70    -0.132497181374E+04    0.24731E-01   -0.35152E-04 34010   0.837E-02    0.235E+01
DAV:  71    -0.132510790160E+04   -0.13609E+00   -0.60637E-03 39940   0.517E-01    0.241E+01
DAV:  72    -0.132483328298E+04    0.27462E+00   -0.14727E-02 41910   0.841E-01    0.232E+01
DAV:  73    -0.132476769003E+04    0.65593E-01   -0.16087E-02 40380   0.254E-01    0.229E+01
DAV:  74    -0.132476005220E+04    0.76378E-02   -0.23204E-03 36120   0.716E-02    0.229E+01
DAV:  75    -0.132476968253E+04   -0.96303E-02   -0.12174E-04 29480   0.691E-02    0.229E+01
DAV:  76    -0.132479726582E+04   -0.27583E-01   -0.25313E-03 44210   0.252E-01    0.230E+01
DAV:  77    -0.132483476767E+04   -0.37502E-01   -0.34420E-03 45710   0.187E-01    0.231E+01
DAV:  78    -0.132483330707E+04    0.14606E-02   -0.14233E-03 34950   0.603E-02    0.230E+01
DAV:  79    -0.132482631691E+04    0.69902E-02   -0.99181E-05 27950   0.488E-02    0.230E+01
DAV:  80    -0.132483779822E+04   -0.11481E-01   -0.21916E-04 33540   0.493E-02    0.231E+01
DAV:  81    -0.132501979642E+04   -0.18200E+00   -0.13011E-02 41580   0.652E-01    0.238E+01
DAV:  82    -0.132492370584E+04    0.96091E-01   -0.57254E-03 36360   0.362E-01    0.233E+01
DAV:  83    -0.132488080326E+04    0.42903E-01   -0.11056E-03 42810   0.128E-01    0.231E+01
DAV:  84    -0.132485173131E+04    0.29072E-01   -0.17485E-03 43630   0.103E-01    0.230E+01
DAV:  85    -0.132483273307E+04    0.18998E-01   -0.62722E-04 41160   0.613E-02    0.230E+01
DAV:  86    -0.132377382284E+04    0.10589E+01   -0.12163E+00 39560   0.573E+00    0.851E+00
DAV:  87    -0.132407424009E+04   -0.30042E+00   -0.11558E+00 37040   0.162E+00    0.298E+00
DAV:  88    -0.132418174845E+04   -0.10751E+00   -0.79791E-02 36560   0.931E-01    0.308E+00
DAV:  89    -0.132418881775E+04   -0.70693E-02   -0.25429E-02 39720   0.375E-01    0.294E+00
DAV:  90    -0.132419042785E+04   -0.16101E-02   -0.98444E-03 40800   0.276E-01    0.250E+00
DAV:  91    -0.132418963969E+04    0.78815E-03   -0.67201E-03 45000   0.281E-01    0.204E+00
DAV:  92    -0.132418855521E+04    0.10845E-02   -0.65848E-03 43330   0.231E-01    0.179E+00
DAV:  93    -0.132418723611E+04    0.13191E-02   -0.33494E-03 38460   0.125E-01    0.154E+00
DAV:  94    -0.132418656004E+04    0.67607E-03   -0.94478E-04 38560   0.896E-02    0.138E+00
DAV:  95    -0.132418692976E+04   -0.36972E-03   -0.10958E-03 38810   0.163E-01    0.118E+00
DAV:  96    -0.132418764688E+04   -0.71712E-03   -0.38843E-03 40900   0.260E-01    0.122E+00
DAV:  97    -0.132418700326E+04    0.64361E-03   -0.21412E-03 37120   0.940E-02    0.121E+00
DAV:  98    -0.132418683367E+04    0.16959E-03   -0.15701E-03 37510   0.864E-02    0.120E+00
DAV:  99    -0.132418697867E+04   -0.14500E-03   -0.59358E-04 41040   0.553E-02    0.121E+00
DAV: 100    -0.132418665644E+04    0.32224E-03   -0.10763E-04 31160   0.293E-02    0.119E+00
DAV: 101    -0.132418265863E+04    0.39978E-02   -0.10146E-02 42690   0.562E-01    0.105E+00
DAV: 102    -0.132418517305E+04   -0.25144E-02   -0.11150E-02 38370   0.259E-01    0.106E+00
DAV: 103    -0.132418457596E+04    0.59709E-03   -0.13849E-03 43130   0.158E-01    0.933E-01
DAV: 104    -0.132418304519E+04    0.15308E-02   -0.23382E-03 45470   0.148E-01    0.790E-01
DAV: 105    -0.132418202215E+04    0.10230E-02   -0.23521E-03 45020   0.117E-01    0.622E-01
DAV: 106    -0.132418170526E+04    0.31689E-03   -0.14361E-03 42740   0.903E-02    0.540E-01
DAV: 107    -0.132418172481E+04   -0.19554E-04   -0.41706E-04 39580   0.428E-02
   1 F= -.13241817E+04 E0= -.13241817E+04  d E =-.132418E+04  mag=   114.0001
       N       E                     dE             d eps       ncg     rms          rms(c)
DAV:   1    -0.132418222951E+04   -0.52425E-03   -0.17975E-03 44340   0.181E-01    0.561E-01
DAV:   2    -0.132418017313E+04    0.20564E-02   -0.41202E-03 40210   0.344E-01    0.519E-01
DAV:   3    -0.132418046390E+04   -0.29077E-03   -0.79625E-04 37330   0.110E-01    0.156E-01
DAV:   4    -0.132418058979E+04   -0.12589E-03   -0.24405E-04 35930   0.714E-02    0.104E-01
DAV:   5    -0.132418066347E+04   -0.73682E-04   -0.20989E-04 33000   0.591E-02    0.719E-02
DAV:   6    -0.132418062860E+04    0.34873E-04   -0.76063E-05 22540   0.344E-02
   2 F= -.13241806E+04 E0= -.13241806E+04  d E =0.109621E-02  mag=   114.0000
       N       E                     dE             d eps       ncg     rms          rms(c)
DAV:   1    -0.132418108780E+04   -0.42433E-03   -0.27412E-02 44960   0.689E-01    0.121E-01
DAV:   2    -0.132418169249E+04   -0.60470E-03   -0.57964E-03 37790   0.124E-01    0.622E-02
DAV:   3    -0.132418173254E+04   -0.40045E-04   -0.18011E-04 26950   0.335E-02    0.374E-02
DAV:   4    -0.132418171050E+04    0.22040E-04   -0.16276E-05 18320   0.121E-02
   3 F= -.13241817E+04 E0= -.13241817E+04  d E =-.108190E-02  mag=   114.0000
       N       E                     dE             d eps       ncg     rms          rms(c)
DAV:   1    -0.132375903752E+04    0.42270E+00   -0.22968E+01 42810   0.176E+01    0.312E+00
DAV:   2    -0.132417295752E+04   -0.41392E+00   -0.39497E+00 37470   0.322E+00    0.168E+00
DAV:   3    -0.132417878720E+04   -0.58297E-02   -0.11180E-01 36760   0.826E-01    0.973E-01
DAV:   4    -0.132417680372E+04    0.19835E-02   -0.94969E-03 39280   0.289E-01    0.648E-01
DAV:   5    -0.132417541507E+04    0.13887E-02   -0.19748E-03 41080   0.161E-01    0.454E-01
DAV:   6    -0.132417454167E+04    0.87340E-03   -0.26223E-03 42580   0.191E-01    0.182E-01
DAV:   7    -0.132417478422E+04   -0.24255E-03   -0.11361E-03 38730   0.808E-02    0.727E-02
DAV:   8    -0.132417487667E+04   -0.92458E-04   -0.12631E-04 27220   0.315E-02    0.591E-02
DAV:   9    -0.132417479911E+04    0.77564E-04   -0.32657E-05 19700   0.180E-02    0.452E-02
DAV:  10    -0.132417485851E+04   -0.59401E-04   -0.11679E-05 18430   0.108E-02    0.258E-02
DAV:  11    -0.132417485109E+04    0.74173E-05   -0.81005E-06 18210   0.825E-03
   4 F= -.13241749E+04 E0= -.13241749E+04  d E =0.685941E-02  mag=   114.0000
       N       E                     dE             d eps       ncg     rms          rms(c)
DAV:   1    -0.132414053520E+04    0.34323E-01   -0.18681E+00 41400   0.471E+00    0.788E-01
DAV:   2    -0.132416790998E+04   -0.27375E-01   -0.27725E-01 36240   0.858E-01    0.374E-01
DAV:   3    -0.132416817366E+04   -0.26368E-03   -0.77460E-03 36860   0.174E-01    0.194E-01
DAV:   4    -0.132416828971E+04   -0.11605E-03   -0.51637E-04 34240   0.440E-02    0.154E-01
DAV:   5    -0.132416806564E+04    0.22407E-03   -0.11371E-04 25890   0.441E-02    0.104E-01
DAV:   6    -0.132416808394E+04   -0.18298E-04   -0.20714E-04 35460   0.489E-02
   5 F= -.13241681E+04 E0= -.13241681E+04  d E =0.676716E-02  mag=   114.0000
       N       E                     dE             d eps       ncg     rms          rms(c)
DAV:   1    -0.132353526164E+04    0.63280E+00   -0.40901E+01 41660   0.211E+01    0.364E+00
DAV:   2    -0.132412019352E+04   -0.58493E+00   -0.57617E+00 36440   0.382E+00    0.183E+00
DAV:   3    -0.132412710028E+04   -0.69068E-02   -0.15287E-01 36920   0.738E-01    0.865E-01
DAV:   4    -0.132412585592E+04    0.12444E-02   -0.96981E-03 40250   0.197E-01    0.667E-01
DAV:   5    -0.132412364830E+04    0.22076E-02   -0.24478E-03 42470   0.194E-01    0.415E-01
DAV:   6    -0.132412271904E+04    0.92926E-03   -0.34926E-03 43340   0.213E-01    0.210E-01
DAV:   7    -0.132412322235E+04   -0.50331E-03   -0.13940E-03 37520   0.117E-01    0.868E-02
DAV:   8    -0.132412326704E+04   -0.44694E-04   -0.16272E-04 29930   0.315E-02
   6 F= -.13241233E+04 E0= -.13241233E+04  d E =0.448169E-01  mag=   114.0000
       N       E                     dE             d eps       ncg     rms          rms(c)
DAV:   1    -0.132029855066E+04    0.38247E+01   -0.24290E+02 41680   0.514E+01    0.940E+00
DAV:   2    -0.132390441266E+04   -0.36059E+01   -0.33995E+01 36120   0.934E+00    0.557E+00
DAV:   3    -0.132396430716E+04   -0.59894E-01   -0.93017E-01 37330   0.192E+00    0.237E+00
DAV:   4    -0.132395628177E+04    0.80254E-02   -0.66757E-02 39630   0.609E-01    0.180E+00
DAV:   5    -0.132394719647E+04    0.90853E-02   -0.14140E-02 39920   0.425E-01    0.123E+00
DAV:   6    -0.132394091868E+04    0.62778E-02   -0.17379E-02 42030   0.528E-01    0.652E-01
DAV:   7    -0.132394220096E+04   -0.12823E-02   -0.10915E-02 39200   0.298E-01    0.205E-01
DAV:   8    -0.132394268573E+04   -0.48477E-03   -0.16338E-03 36360   0.917E-02    0.119E-01
DAV:   9    -0.132394264681E+04    0.38924E-04   -0.13289E-04 28960   0.353E-02
   7 F= -.13239426E+04 E0= -.13239426E+04  d E =0.180620E+00  mag=   114.0000
       N       E                     dE             d eps       ncg     rms          rms(c)
DAV:   1    -0.132176351083E+04    0.21792E+01   -0.66806E+01 49600   0.402E+01    0.698E+00
DAV:   2    -0.132375689035E+04   -0.19934E+01   -0.17419E+01 37090   0.665E+00    0.404E+00
DAV:   3    -0.132381846665E+04   -0.61576E-01   -0.60453E-01 37110   0.171E+00    0.179E+00
DAV:   4    -0.132381996755E+04   -0.15009E-02   -0.39541E-02 40200   0.500E-01    0.114E+00
DAV:   5    -0.132381675402E+04    0.32135E-02   -0.84800E-03 41140   0.296E-01    0.751E-01
DAV:   6    -0.132381451657E+04    0.22375E-02   -0.61213E-03 42630   0.309E-01    0.383E-01
DAV:   7    -0.132381508456E+04   -0.56799E-03   -0.33923E-03 39240   0.167E-01    0.152E-01
DAV:   8    -0.132381547332E+04   -0.38876E-03   -0.69871E-04 36850   0.767E-02    0.805E-02
DAV:   9    -0.132381550115E+04   -0.27822E-04   -0.12523E-04 28180   0.330E-02
   8 F= -.13238155E+04 E0= -.13238155E+04  d E =0.127146E+00  mag=   114.0000
       N       E                     dE             d eps       ncg     rms          rms(c)
DAV:   1    -0.132361341551E+04    0.20206E+00   -0.78274E+00 49350   0.143E+01    0.248E+00
DAV:   2    -0.132387902682E+04   -0.26561E+00   -0.23551E+00 38570   0.239E+00    0.133E+00
DAV:   3    -0.132388876314E+04   -0.97363E-02   -0.99066E-02 37310   0.703E-01    0.801E-01
DAV:   4    -0.132388892620E+04   -0.16305E-03   -0.67109E-03 39380   0.211E-01    0.443E-01
DAV:   5    -0.132388761362E+04    0.13126E-02   -0.17045E-03 40130   0.122E-01    0.307E-01
DAV:   6    -0.132388712335E+04    0.49028E-03   -0.12939E-03 42470   0.121E-01    0.139E-01
DAV:   7    -0.132388706058E+04    0.62766E-04   -0.55428E-04 39410   0.591E-02    0.614E-02
DAV:   8    -0.132388715475E+04   -0.94170E-04   -0.12492E-04 27650   0.346E-02    0.391E-02
DAV:   9    -0.132388709773E+04    0.57016E-04   -0.35478E-05 19880   0.183E-02    0.234E-02
DAV:  10    -0.132388706979E+04    0.27940E-04   -0.75689E-06 18700   0.823E-03
   9 F= -.13238871E+04 E0= -.13238871E+04  d E =-.715686E-01  mag=   114.0000
       N       E                     dE             d eps       ncg     rms          rms(c)
DAV:   1    -0.132380808688E+04    0.79011E-01   -0.24861E+00 49270   0.799E+00    0.140E+00
DAV:   2    -0.132389050188E+04   -0.82415E-01   -0.73102E-01 37830   0.133E+00    0.675E-01
DAV:   3    -0.132389332583E+04   -0.28239E-02   -0.25559E-02 37210   0.324E-01    0.337E-01
DAV:   4    -0.132389328783E+04    0.37997E-04   -0.14707E-03 39980   0.733E-02    0.228E-01
DAV:   5    -0.132389287283E+04    0.41500E-03   -0.41006E-04 36770   0.702E-02    0.149E-01
DAV:   6    -0.132389285731E+04    0.15524E-04   -0.37562E-04 39420   0.743E-02
  10 F= -.13238929E+04 E0= -.13238929E+04  d E =-.578751E-02  mag=   114.0000
       N       E                     dE             d eps       ncg     rms          rms(c)
DAV:   1    -0.132387064230E+04    0.22231E-01   -0.81473E-01 48410   0.414E+00    0.673E-01
DAV:   2    -0.132389060380E+04   -0.19962E-01   -0.18051E-01 36570   0.687E-01    0.319E-01
DAV:   3    -0.132389118603E+04   -0.58223E-03   -0.62470E-03 37010   0.157E-01    0.154E-01
DAV:   4    -0.132389111225E+04    0.73777E-04   -0.37739E-04 31640   0.389E-02    0.109E-01
DAV:   5    -0.132389111395E+04   -0.16943E-05   -0.68793E-05 22230   0.342E-02
  11 F= -.13238911E+04 E0= -.13238911E+04  d E =0.174336E-02  mag=   114.0000
       N       E                     dE             d eps       ncg     rms          rms(c)
DAV:   1    -0.132313595632E+04    0.75516E+00   -0.38774E+01 45780   0.247E+01    0.400E+00
DAV:   2    -0.132385349114E+04   -0.71753E+00   -0.65975E+00 36310   0.423E+00    0.198E+00
DAV:   3    -0.132386540654E+04   -0.11915E-01   -0.19613E-01 36930   0.870E-01    0.891E-01
DAV:   4    -0.132386489910E+04    0.50743E-03   -0.12213E-02 40850   0.201E-01    0.636E-01
DAV:   5    -0.132386279924E+04    0.20999E-02   -0.23194E-03 42930   0.197E-01    0.362E-01
DAV:   6    -0.132386243436E+04    0.36488E-03   -0.28590E-03 41870   0.182E-01    0.188E-01
DAV:   7    -0.132386249095E+04   -0.56596E-04   -0.12122E-03 37150   0.110E-01    0.837E-02
DAV:   8    -0.132386269961E+04   -0.20865E-03   -0.12353E-04 27940   0.347E-02    0.384E-02
DAV:   9    -0.132386260188E+04    0.97724E-04   -0.21389E-05 19220   0.160E-02    0.267E-02
DAV:  10    -0.132386262760E+04   -0.25715E-04   -0.14456E-05 19060   0.137E-02
  12 F= -.13238626E+04 E0= -.13238626E+04  d E =0.284864E-01  mag=   114.0000
       N       E                     dE             d eps       ncg     rms          rms(c)
DAV:   1    -0.132353719877E+04    0.32540E+00   -0.23022E+01 42940   0.166E+01    0.259E+00
DAV:   2    -0.132386204422E+04   -0.32485E+00   -0.31594E+00 36380   0.296E+00    0.138E+00
DAV:   3    -0.132386797426E+04   -0.59300E-02   -0.10186E-01 36520   0.711E-01    0.769E-01
DAV:   4    -0.132386656575E+04    0.14085E-02   -0.79710E-03 39290   0.223E-01    0.494E-01
DAV:   5    -0.132386593219E+04    0.63356E-03   -0.18405E-03 40620   0.149E-01    0.324E-01
DAV:   6    -0.132386504356E+04    0.88863E-03   -0.20537E-03 42560   0.153E-01    0.149E-01
DAV:   7    -0.132386541835E+04   -0.37479E-03   -0.89950E-04 38650   0.794E-02    0.674E-02
DAV:   8    -0.132386536364E+04    0.54706E-04   -0.10653E-04 25500   0.331E-02    0.393E-02
DAV:   9    -0.132386535136E+04    0.12280E-04   -0.20094E-05 19480   0.140E-02
  13 F= -.13238654E+04 E0= -.13238654E+04  d E =-.272377E-02  mag=   114.0000
       N       E                     dE             d eps       ncg     rms          rms(c)
DAV:   1    -0.132354041352E+04    0.32495E+00   -0.23528E+01 42390   0.169E+01    0.260E+00
DAV:   2    -0.132386801384E+04   -0.32760E+00   -0.32515E+00 37090   0.307E+00    0.138E+00
DAV:   3    -0.132387324701E+04   -0.52332E-02   -0.97055E-02 35790   0.722E-01    0.792E-01
DAV:   4    -0.132387176924E+04    0.14778E-02   -0.79299E-03 39730   0.248E-01    0.524E-01
DAV:   5    -0.132387118972E+04    0.57952E-03   -0.23718E-03 40310   0.173E-01    0.351E-01
DAV:   6    -0.132387029536E+04    0.89436E-03   -0.25961E-03 40390   0.178E-01    0.153E-01
DAV:   7    -0.132387065890E+04   -0.36354E-03   -0.10539E-03 38820   0.838E-02    0.586E-02
DAV:   8    -0.132387070165E+04   -0.42756E-04   -0.12249E-04 26430   0.290E-02
  14 F= -.13238707E+04 E0= -.13238707E+04  d E =-.535029E-02  mag=   114.0000
       N       E                     dE             d eps       ncg     rms          rms(c)
DAV:   1    -0.132310745423E+04    0.76320E+00   -0.41925E+01 46420   0.263E+01    0.414E+00
DAV:   2    -0.132389287212E+04   -0.78542E+00   -0.72773E+00 36410   0.451E+00    0.227E+00
DAV:   3    -0.132391159105E+04   -0.18719E-01   -0.24523E-01 36170   0.112E+00    0.118E+00
DAV:   4    -0.132391047219E+04    0.11189E-02   -0.18507E-02 39760   0.385E-01    0.756E-01
DAV:   5    -0.132390943940E+04    0.10328E-02   -0.44676E-03 40440   0.244E-01    0.506E-01
DAV:   6    -0.132390803407E+04    0.14053E-02   -0.46798E-03 42650   0.246E-01    0.236E-01
DAV:   7    -0.132390872882E+04   -0.69475E-03   -0.19852E-03 38260   0.119E-01    0.101E-01
DAV:   8    -0.132390863802E+04    0.90802E-04   -0.24788E-04 33360   0.453E-02    0.638E-02
DAV:   9    -0.132390869013E+04   -0.52110E-04   -0.34089E-05 20850   0.187E-02    0.375E-02
DAV:  10    -0.132390859913E+04    0.91001E-04   -0.19105E-05 19500   0.142E-02    0.170E-02
DAV:  11    -0.132390864900E+04   -0.49874E-04   -0.83349E-06 18140   0.758E-03
  15 F= -.13239086E+04 E0= -.13239086E+04  d E =-.379473E-01  mag=   114.0000
       N       E                     dE             d eps       ncg     rms          rms(c)
DAV:   1    -0.132373441754E+04    0.17418E+00   -0.18930E+01 43190   0.148E+01    0.216E+00
DAV:   2    -0.132397103221E+04   -0.23661E+00   -0.24007E+00 36520   0.266E+00    0.125E+00
DAV:   3    -0.132397223660E+04   -0.12044E-02   -0.82254E-02 36210   0.692E-01    0.755E-01
DAV:   4    -0.132397203070E+04    0.20590E-03   -0.72465E-03 39920   0.237E-01    0.439E-01
DAV:   5    -0.132397057266E+04    0.14580E-02   -0.18042E-03 39750   0.140E-01    0.280E-01
DAV:   6    -0.132397049532E+04    0.77334E-04   -0.19213E-03 42240   0.138E-01    0.130E-01
DAV:   7    -0.132397037233E+04    0.12299E-03   -0.80589E-04 37960   0.770E-02    0.746E-02
DAV:   8    -0.132397043916E+04   -0.66828E-04   -0.97508E-05 24190   0.315E-02    0.330E-02
DAV:   9    -0.132397043035E+04    0.88098E-05   -0.15405E-05 19290   0.102E-02
  16 F= -.13239704E+04 E0= -.13239704E+04  d E =-.617813E-01  mag=   114.0000
       N       E                     dE             d eps       ncg     rms          rms(c)
DAV:   1    -0.132316634424E+04    0.80409E+00   -0.65991E+01 42570   0.273E+01    0.411E+00
DAV:   2    -0.132401124914E+04   -0.84490E+00   -0.83716E+00 36750   0.493E+00    0.232E+00
DAV:   3    -0.132402372501E+04   -0.12476E-01   -0.25463E-01 36020   0.121E+00    0.130E+00
DAV:   4    -0.132402124800E+04    0.24770E-02   -0.22003E-02 39570   0.424E-01    0.822E-01
DAV:   5    -0.132401677091E+04    0.44771E-02   -0.66347E-03 39550   0.279E-01    0.511E-01
DAV:   6    -0.132401620910E+04    0.56181E-03   -0.64280E-03 41800   0.249E-01    0.225E-01
DAV:   7    -0.132401623340E+04   -0.24298E-04   -0.23539E-03 38080   0.132E-01    0.127E-01
DAV:   8    -0.132401629629E+04   -0.62888E-04   -0.32643E-04 32430   0.513E-02    0.666E-02
DAV:   9    -0.132401630983E+04   -0.13536E-04   -0.41069E-05 22310   0.192E-02
  17 F= -.13240163E+04 E0= -.13240163E+04  d E =-.458795E-01  mag=   114.0000
       N       E                     dE             d eps       ncg     rms          rms(c)
DAV:   1    -0.132310180810E+04    0.91449E+00   -0.57211E+01 44270   0.289E+01    0.465E+00
DAV:   2    -0.132406371783E+04   -0.96191E+00   -0.90599E+00 36960   0.505E+00    0.247E+00
DAV:   3    -0.132408365551E+04   -0.19938E-01   -0.29816E-01 36890   0.118E+00    0.127E+00
DAV:   4    -0.132408243825E+04    0.12173E-02   -0.20858E-02 40600   0.344E-01    0.838E-01
DAV:   5    -0.132407867577E+04    0.37625E-02   -0.55502E-03 41580   0.264E-01    0.573E-01
DAV:   6    -0.132407773392E+04    0.94185E-03   -0.63804E-03 42330   0.292E-01    0.311E-01
DAV:   7    -0.132407729265E+04    0.44127E-03   -0.29504E-03 38800   0.160E-01    0.102E-01
DAV:   8    -0.132407759703E+04   -0.30438E-03   -0.44644E-04 35590   0.570E-02    0.658E-02
DAV:   9    -0.132407762300E+04   -0.25973E-04   -0.57466E-05 21800   0.232E-02
  18 F= -.13240776E+04 E0= -.13240776E+04  d E =-.613132E-01  mag=   114.0000
       N       E                     dE             d eps       ncg     rms          rms(c)
DAV:   1    -0.132374785977E+04    0.32974E+00   -0.17991E+01 45390   0.164E+01    0.276E+00
DAV:   2    -0.132409375748E+04   -0.34590E+00   -0.32568E+00 37420   0.296E+00    0.148E+00
DAV:   3    -0.132410221744E+04   -0.84600E-02   -0.11308E-01 36290   0.725E-01    0.820E-01
DAV:   4    -0.132410158631E+04    0.63114E-03   -0.77379E-03 40220   0.199E-01    0.539E-01
DAV:   5    -0.132410112976E+04    0.45655E-03   -0.19030E-03 40600   0.152E-01    0.374E-01
DAV:   6    -0.132410022890E+04    0.90086E-03   -0.24843E-03 41610   0.181E-01    0.197E-01
DAV:   7    -0.132410058093E+04   -0.35203E-03   -0.12172E-03 39220   0.100E-01    0.676E-02
DAV:   8    -0.132410065640E+04   -0.75473E-04   -0.20420E-04 32070   0.425E-02    0.448E-02
DAV:   9    -0.132410060779E+04    0.48611E-04   -0.31400E-05 20130   0.163E-02
  19 F= -.13241006E+04 E0= -.13241006E+04  d E =-.229848E-01  mag=   114.0000
       N       E                     dE             d eps       ncg     rms          rms(c)
DAV:   1    -0.132403667454E+04    0.63982E-01   -0.40152E+00 44320   0.724E+00    0.112E+00
DAV:   2    -0.132409265341E+04   -0.55979E-01   -0.55929E-01 36880   0.129E+00    0.563E-01
DAV:   3    -0.132409345993E+04   -0.80652E-03   -0.17781E-02 36720   0.281E-01    0.292E-01
DAV:   4    -0.132409327821E+04    0.18172E-03   -0.11335E-03 39960   0.723E-02    0.198E-01
DAV:   5    -0.132409319170E+04    0.86511E-04   -0.34507E-04 35030   0.683E-02    0.122E-01
DAV:   6    -0.132409293794E+04    0.25376E-03   -0.41476E-04 38420   0.677E-02    0.736E-02
DAV:   7    -0.132409309719E+04   -0.15925E-03   -0.15551E-04 29770   0.367E-02    0.233E-02
DAV:   8    -0.132409306334E+04    0.33851E-04   -0.22008E-05 18890   0.136E-02
  20 F= -.13240931E+04 E0= -.13240931E+04  d E =0.754445E-02  mag=   114.0000
       N       E                     dE             d eps       ncg     rms          rms(c)
DAV:   1    -0.132403031127E+04    0.62786E-01   -0.52379E+00 43370   0.785E+00    0.124E+00
DAV:   2    -0.132409846462E+04   -0.68153E-01   -0.69551E-01 36150   0.140E+00    0.598E-01
DAV:   3    -0.132409963249E+04   -0.11679E-02   -0.21281E-02 36710   0.284E-01    0.288E-01
DAV:   4    -0.132409941957E+04    0.21292E-03   -0.13117E-03 39580   0.627E-02    0.208E-01
DAV:   5    -0.132409906466E+04    0.35490E-03   -0.33381E-04 36560   0.681E-02    0.103E-01
DAV:   6    -0.132409904536E+04    0.19297E-04   -0.32642E-04 39030   0.445E-02
  21 F= -.13240990E+04 E0= -.13240990E+04  d E =-.598203E-02  mag=   114.0000
       N       E                     dE             d eps       ncg     rms          rms(c)
DAV:   1    -0.132361019193E+04    0.48887E+00   -0.36871E+01 41330   0.203E+01    0.345E+00
DAV:   2    -0.132415015143E+04   -0.53996E+00   -0.53976E+00 36310   0.375E+00    0.171E+00
DAV:   3    -0.132415517452E+04   -0.50231E-02   -0.13645E-01 36960   0.717E-01    0.817E-01
DAV:   4    -0.132415355533E+04    0.16192E-02   -0.87023E-03 40260   0.166E-01    0.630E-01
DAV:   5    -0.132415168055E+04    0.18748E-02   -0.18623E-03 42130   0.178E-01    0.367E-01
DAV:   6    -0.132415083113E+04    0.84942E-03   -0.26714E-03 42590   0.167E-01    0.173E-01
DAV:   7    -0.132415134205E+04   -0.51092E-03   -0.10933E-03 37980   0.925E-02    0.728E-02
DAV:   8    -0.132415126081E+04    0.81240E-04   -0.12630E-04 28550   0.316E-02    0.381E-02
DAV:   9    -0.132415120563E+04    0.55187E-04   -0.22715E-05 19510   0.150E-02    0.256E-02
DAV:  10    -0.132415125728E+04   -0.51656E-04   -0.11392E-05 18600   0.126E-02    0.138E-02
DAV:  11    -0.132415124844E+04    0.88450E-05   -0.47500E-06 18080   0.626E-03
  22 F= -.13241512E+04 E0= -.13241512E+04  d E =-.522031E-01  mag=   114.0000
       N       E                     dE             d eps       ncg     rms          rms(c)
DAV:   1    -0.132175171453E+04    0.23995E+01   -0.15269E+02 41650   0.425E+01    0.763E+00
DAV:   2    -0.132420986834E+04   -0.24582E+01   -0.23512E+01 36200   0.776E+00    0.442E+00
DAV:   3    -0.132424255474E+04   -0.32686E-01   -0.64959E-01 37140   0.163E+00    0.201E+00
DAV:   4    -0.132423660545E+04    0.59493E-02   -0.46810E-02 39710   0.478E-01    0.153E+00
DAV:   5    -0.132422956172E+04    0.70437E-02   -0.86375E-03 41210   0.339E-01    0.106E+00
DAV:   6    -0.132422502227E+04    0.45394E-02   -0.12090E-02 42410   0.455E-01    0.583E-01
DAV:   7    -0.132422516095E+04   -0.13868E-03   -0.85543E-03 39480   0.272E-01    0.174E-01
DAV:   8    -0.132422531379E+04   -0.15284E-03   -0.13469E-03 36570   0.918E-02    0.974E-02
DAV:   9    -0.132422535951E+04   -0.45721E-04   -0.14401E-04 30090   0.347E-02
  23 F= -.13242254E+04 E0= -.13242254E+04  d E =-.741111E-01  mag=   114.0000
       N       E                     dE             d eps       ncg     rms          rms(c)
DAV:   1    -0.132140883073E+04    0.28165E+01   -0.18399E+02 43130   0.478E+01    0.810E+00
DAV:   2    -0.132422924796E+04   -0.28204E+01   -0.27498E+01 35940   0.873E+00    0.442E+00
DAV:   3    -0.132427074856E+04   -0.41501E-01   -0.76285E-01 37180   0.173E+00    0.196E+00
DAV:   4    -0.132426480871E+04    0.59399E-02   -0.48796E-02 40450   0.424E-01    0.150E+00
DAV:   5    -0.132425476437E+04    0.10044E-01   -0.87471E-03 43150   0.361E-01    0.954E-01
DAV:   6    -0.132425142158E+04    0.33428E-02   -0.12381E-02 42990   0.429E-01    0.475E-01
DAV:   7    -0.132425204844E+04   -0.62686E-03   -0.70610E-03 38220   0.245E-01    0.183E-01
DAV:   8    -0.132425258094E+04   -0.53250E-03   -0.10103E-03 36220   0.871E-02    0.965E-02
DAV:   9    -0.132425262801E+04   -0.47068E-04   -0.14485E-04 28610   0.382E-02
  24 F= -.13242526E+04 E0= -.13242526E+04  d E =-.272685E-01  mag=   114.0000
       N       E                     dE             d eps       ncg     rms          rms(c)
DAV:   1    -0.131780382099E+04    0.64488E+01   -0.16046E+02 48610   0.665E+01    0.135E+01
DAV:   2    -0.132382096927E+04   -0.60171E+01   -0.52899E+01 38450   0.117E+01    0.843E+00
DAV:   3    -0.132402461047E+04   -0.20364E+00   -0.19088E+00 37560   0.302E+00    0.376E+00
DAV:   4    -0.132402297443E+04    0.16360E-02   -0.11700E-01 40180   0.769E-01    0.259E+00
DAV:   5    -0.132401185933E+04    0.11115E-01   -0.21860E-02 39460   0.462E-01    0.186E+00
DAV:   6    -0.132400179959E+04    0.10060E-01   -0.16221E-02 42420   0.574E-01    0.953E-01
DAV:   7    -0.132400309662E+04   -0.12970E-02   -0.13221E-02 40450   0.360E-01    0.313E-01
DAV:   8    -0.132400447432E+04   -0.13777E-02   -0.28646E-03 38150   0.152E-01    0.146E-01
DAV:   9    -0.132400399738E+04    0.47694E-03   -0.75254E-04 36480   0.656E-02    0.966E-02
DAV:  10    -0.132400398137E+04    0.16011E-04   -0.10919E-04 26490   0.367E-02
  25 F= -.13240040E+04 E0= -.13240040E+04  d E =0.248647E+00  mag=   114.0000
       N       E                     dE             d eps       ncg     rms          rms(c)
DAV:   1    -0.132319662225E+04    0.80738E+00   -0.30112E+01 50000   0.280E+01    0.518E+00
DAV:   2    -0.132425548636E+04   -0.10589E+01   -0.91257E+00 38010   0.472E+00    0.283E+00
DAV:   3    -0.132429710943E+04   -0.41623E-01   -0.36749E-01 37850   0.123E+00    0.134E+00
DAV:   4    -0.132429833239E+04   -0.12230E-02   -0.21868E-02 40240   0.346E-01    0.858E-01
DAV:   5    -0.132429502929E+04    0.33031E-02   -0.56486E-03 39350   0.236E-01    0.582E-01
DAV:   6    -0.132429368781E+04    0.13415E-02   -0.40124E-03 41660   0.238E-01    0.299E-01
DAV:   7    -0.132429366829E+04    0.19513E-04   -0.22565E-03 39460   0.142E-01    0.114E-01
DAV:   8    -0.132429417433E+04   -0.50603E-03   -0.47249E-04 36500   0.681E-02    0.655E-02
DAV:   9    -0.132429408224E+04    0.92088E-04   -0.13640E-04 28770   0.340E-02    0.517E-02
DAV:  10    -0.132429399263E+04    0.89607E-04   -0.23006E-05 19440   0.164E-02    0.259E-02
DAV:  11    -0.132429406023E+04   -0.67602E-04   -0.12020E-05 19890   0.105E-02    0.121E-02
DAV:  12    -0.132429410637E+04   -0.46142E-04   -0.52631E-06 18550   0.641E-03
  26 F= -.13242941E+04 E0= -.13242941E+04  d E =-.290125E+00  mag=   114.0000
       N       E                     dE             d eps       ncg     rms          rms(c)
DAV:   1    -0.132399248258E+04    0.30158E+00   -0.98154E+00 49300   0.157E+01    0.280E+00
DAV:   2    -0.132431899304E+04   -0.32651E+00   -0.28717E+00 37950   0.270E+00    0.141E+00
DAV:   3    -0.132433012879E+04   -0.11136E-01   -0.11202E-01 37510   0.722E-01    0.774E-01
DAV:   4    -0.132433056560E+04   -0.43682E-03   -0.72736E-03 39760   0.202E-01    0.494E-01
DAV:   5    -0.132432929936E+04    0.12662E-02   -0.15214E-03 39850   0.127E-01    0.353E-01
DAV:   6    -0.132432887483E+04    0.42453E-03   -0.14963E-03 42480   0.147E-01    0.171E-01
DAV:   7    -0.132432875815E+04    0.11669E-03   -0.81390E-04 39340   0.830E-02    0.638E-02
DAV:   8    -0.132432895149E+04   -0.19334E-03   -0.16575E-04 31470   0.424E-02    0.433E-02
DAV:   9    -0.132432893210E+04    0.19385E-04   -0.44836E-05 20210   0.198E-02
  27 F= -.13243289E+04 E0= -.13243289E+04  d E =-.348257E-01  mag=   114.0000
       N       E                     dE             d eps       ncg     rms          rms(c)
DAV:   1    -0.132431416414E+04    0.14787E-01   -0.90529E-01 44080   0.372E+00    0.606E-01
DAV:   2    -0.132433083180E+04   -0.16668E-01   -0.16019E-01 36750   0.665E-01    0.292E-01
DAV:   3    -0.132433091296E+04   -0.81168E-04   -0.42490E-03 36530   0.142E-01    0.154E-01
DAV:   4    -0.132433091349E+04   -0.52982E-06   -0.27506E-04 31290   0.375E-02
  28 F= -.13243309E+04 E0= -.13243309E+04  d E =-.198139E-02  mag=   114.0000
       N       E                     dE             d eps       ncg     rms          rms(c)
DAV:   1    -0.132330457151E+04    0.10263E+01   -0.54109E+01 44590   0.289E+01    0.478E+00
DAV:   2    -0.132431825667E+04   -0.10137E+01   -0.96967E+00 36070   0.508E+00    0.247E+00
DAV:   3    -0.132433056212E+04   -0.12305E-01   -0.25480E-01 36260   0.109E+00    0.120E+00
DAV:   4    -0.132432907034E+04    0.14918E-02   -0.17707E-02 39670   0.314E-01    0.891E-01
DAV:   5    -0.132432534887E+04    0.37215E-02   -0.34812E-03 41750   0.244E-01    0.584E-01
DAV:   6    -0.132432406400E+04    0.12849E-02   -0.46828E-03 43510   0.263E-01    0.222E-01
DAV:   7    -0.132432422908E+04   -0.16508E-03   -0.21742E-03 38070   0.114E-01    0.881E-02
DAV:   8    -0.132432443899E+04   -0.20991E-03   -0.18081E-04 31790   0.322E-02    0.489E-02
DAV:   9    -0.132432437706E+04    0.61935E-04   -0.24496E-05 19910   0.186E-02    0.302E-02
DAV:  10    -0.132432438202E+04   -0.49597E-05   -0.23288E-05 19170   0.184E-02
  29 F= -.13243244E+04 E0= -.13243244E+04  d E =0.653147E-02  mag=   114.0000
       N       E                     dE             d eps       ncg     rms          rms(c)
DAV:   1    -0.132263391125E+04    0.16905E+01   -0.96946E+01 44240   0.365E+01    0.616E+00
DAV:   2    -0.132426610561E+04   -0.16322E+01   -0.15744E+01 35610   0.646E+00    0.334E+00
DAV:   3    -0.132428738075E+04   -0.21275E-01   -0.43666E-01 36440   0.137E+00    0.154E+00
DAV:   4    -0.132428525151E+04    0.21292E-02   -0.30224E-02 40050   0.396E-01    0.115E+00
DAV:   5    -0.132427961979E+04    0.56317E-02   -0.50168E-03 41700   0.281E-01    0.781E-01
DAV:   6    -0.132427705842E+04    0.25614E-02   -0.70045E-03 43670   0.337E-01    0.361E-01
DAV:   7    -0.132427705746E+04    0.96318E-06   -0.41704E-03 38260   0.168E-01    0.121E-01
DAV:   8    -0.132427777290E+04   -0.71544E-03   -0.46166E-04 35690   0.548E-02    0.657E-02
DAV:   9    -0.132427770084E+04    0.72057E-04   -0.65565E-05 23160   0.290E-02    0.467E-02
DAV:  10    -0.132427763315E+04    0.67697E-04   -0.36914E-05 20610   0.244E-02    0.260E-02
DAV:  11    -0.132427768192E+04   -0.48775E-04   -0.14800E-05 18380   0.115E-02
  30 F= -.13242777E+04 E0= -.13242777E+04  d E =0.467001E-01  mag=   114.0000
       N       E                     dE             d eps       ncg     rms          rms(c)
DAV:   1    -0.131816728992E+04    0.61103E+01   -0.15380E+02 49080   0.667E+01    0.122E+01
DAV:   2    -0.132383979276E+04   -0.56725E+01   -0.49611E+01 37180   0.112E+01    0.737E+00
DAV:   3    -0.132402668701E+04   -0.18689E+00   -0.18116E+00 37760   0.280E+00    0.314E+00
DAV:   4    -0.132403039442E+04   -0.37074E-02   -0.11086E-01 41590   0.665E-01    0.226E+00
DAV:   5    -0.132402017746E+04    0.10217E-01   -0.17036E-02 41490   0.420E-01    0.154E+00
DAV:   6    -0.132401297610E+04    0.72014E-02   -0.13703E-02 42930   0.521E-01    0.786E-01
DAV:   7    -0.132401405951E+04   -0.10834E-02   -0.11244E-02 39940   0.361E-01    0.296E-01
DAV:   8    -0.132401562277E+04   -0.15633E-02   -0.23646E-03 37310   0.138E-01    0.119E-01
DAV:   9    -0.132401523572E+04    0.38704E-03   -0.48080E-04 35710   0.468E-02    0.796E-02
DAV:  10    -0.132401530017E+04   -0.64447E-04   -0.82517E-05 23440   0.337E-02    0.509E-02
DAV:  11    -0.132401536662E+04   -0.66454E-04   -0.36212E-05 19410   0.205E-02    0.264E-02
DAV:  12    -0.132401536283E+04    0.37898E-05   -0.18794E-05 18470   0.118E-02
  31 F= -.13240154E+04 E0= -.13240154E+04  d E =0.262319E+00  mag=   114.0000
       N       E                     dE             d eps       ncg     rms          rms(c)
DAV:   1    -0.132333163210E+04    0.68373E+00   -0.28600E+01 49940   0.279E+01    0.470E+00
DAV:   2    -0.132425707291E+04   -0.92544E+00   -0.80210E+00 38570   0.461E+00    0.266E+00
DAV:   3    -0.132428455504E+04   -0.27482E-01   -0.28921E-01 37270   0.129E+00    0.141E+00
DAV:   4    -0.132428472064E+04   -0.16561E-03   -0.20215E-02 39180   0.384E-01    0.811E-01
DAV:   5    -0.132428182680E+04    0.28938E-02   -0.55103E-03 39700   0.224E-01    0.558E-01
DAV:   6    -0.132428037739E+04    0.14494E-02   -0.38241E-03 42440   0.222E-01    0.246E-01
DAV:   7    -0.132428053126E+04   -0.15386E-03   -0.15557E-03 39500   0.102E-01    0.875E-02
DAV:   8    -0.132428089496E+04   -0.36371E-03   -0.27169E-04 34350   0.421E-02    0.453E-02
DAV:   9    -0.132428070587E+04    0.18909E-03   -0.45779E-05 20000   0.201E-02    0.318E-02
DAV:  10    -0.132428069622E+04    0.96483E-05   -0.16985E-05 18750   0.128E-02
  32 F= -.13242807E+04 E0= -.13242807E+04  d E =-.265333E+00  mag=   114.0000
       N       E                     dE             d eps       ncg     rms          rms(c)
DAV:   1    -0.132405438563E+04    0.22632E+00   -0.84848E+00 49830   0.148E+01    0.238E+00
DAV:   2    -0.132430907960E+04   -0.25469E+00   -0.22229E+00 37830   0.244E+00    0.124E+00
DAV:   3    -0.132431656679E+04   -0.74872E-02   -0.85974E-02 37170   0.648E-01    0.683E-01
DAV:   4    -0.132431698831E+04   -0.42152E-03   -0.59144E-03 39150   0.191E-01    0.409E-01
DAV:   5    -0.132431594204E+04    0.10463E-02   -0.13687E-03 39980   0.116E-01    0.279E-01
DAV:   6    -0.132431564093E+04    0.30111E-03   -0.10748E-03 42850   0.116E-01    0.119E-01
DAV:   7    -0.132431563152E+04    0.94123E-05   -0.44024E-04 39410   0.528E-02
  33 F= -.13243156E+04 E0= -.13243156E+04  d E =-.349353E-01  mag=   114.0000
       N       E                     dE             d eps       ncg     rms          rms(c)
DAV:   1    -0.132429504805E+04    0.20593E-01   -0.14659E+00 44110   0.474E+00    0.765E-01
DAV:   2    -0.132432221872E+04   -0.27171E-01   -0.26144E-01 36860   0.850E-01    0.373E-01
DAV:   3    -0.132432252111E+04   -0.30240E-03   -0.79961E-03 36450   0.191E-01    0.202E-01
DAV:   4    -0.132432248867E+04    0.32439E-04   -0.58375E-04 37040   0.539E-02    0.144E-01
DAV:   5    -0.132432227053E+04    0.21815E-03   -0.10355E-04 25000   0.419E-02    0.959E-02
DAV:   6    -0.132432228833E+04   -0.17800E-04   -0.17610E-04 32860   0.459E-02
  34 F= -.13243223E+04 E0= -.13243223E+04  d E =-.665681E-02  mag=   114.0000
       N       E                     dE             d eps       ncg     rms          rms(c)
DAV:   1    -0.132417002701E+04    0.15224E+00   -0.99739E+00 43180   0.116E+01    0.186E+00
DAV:   2    -0.132432938237E+04   -0.15936E+00   -0.15573E+00 36570   0.207E+00    0.907E-01
DAV:   3    -0.132433106575E+04   -0.16834E-02   -0.42457E-02 36680   0.424E-01    0.450E-01
DAV:   4    -0.132433086387E+04    0.20187E-03   -0.28888E-03 39540   0.114E-01    0.332E-01
DAV:   5    -0.132433000834E+04    0.85553E-03   -0.70067E-04 40770   0.105E-01    0.215E-01
DAV:   6    -0.132433012558E+04   -0.11723E-03   -0.91389E-04 42100   0.108E-01    0.897E-02
DAV:   7    -0.132432993783E+04    0.18774E-03   -0.38921E-04 36320   0.547E-02    0.415E-02
DAV:   8    -0.132432997421E+04   -0.36380E-04   -0.38221E-05 20400   0.176E-02
  35 F= -.13243300E+04 E0= -.13243300E+04  d E =-.768589E-02  mag=   114.0000
       N       E                     dE             d eps       ncg     rms          rms(c)
DAV:   1    -0.132425500164E+04    0.74936E-01   -0.55271E+00 42540   0.812E+00    0.129E+00
DAV:   2    -0.132433204454E+04   -0.77043E-01   -0.77685E-01 36350   0.145E+00    0.620E-01
DAV:   3    -0.132433267301E+04   -0.62847E-03   -0.20592E-02 36700   0.285E-01    0.306E-01
DAV:   4    -0.132433247736E+04    0.19565E-03   -0.13837E-03 38710   0.766E-02    0.227E-01
DAV:   5    -0.132433210864E+04    0.36872E-03   -0.36952E-04 35320   0.793E-02    0.147E-01
DAV:   6    -0.132433214058E+04   -0.31940E-04   -0.51339E-04 39500   0.797E-02    0.691E-02
DAV:   7    -0.132433204542E+04    0.95160E-04   -0.19660E-04 33660   0.413E-02    0.277E-02
DAV:   8    -0.132433207282E+04   -0.27406E-04   -0.20839E-05 19320   0.109E-02
  36 F= -.13243321E+04 E0= -.13243321E+04  d E =-.209861E-02  mag=   114.0000
       N       E                     dE             d eps       ncg     rms          rms(c)
DAV:   1    -0.131995747571E+04    0.43746E+01   -0.29054E+02 41080   0.571E+01    0.998E+00
DAV:   2    -0.132421714222E+04   -0.42597E+01   -0.40210E+01 36080   0.105E+01    0.577E+00
DAV:   3    -0.132427530956E+04   -0.58167E-01   -0.10875E+00 37120   0.210E+00    0.253E+00
DAV:   4    -0.132426394645E+04    0.11363E-01   -0.71083E-02 40140   0.506E-01    0.191E+00
DAV:   5    -0.132425109484E+04    0.12852E-01   -0.10263E-02 42400   0.357E-01    0.123E+00
DAV:   6    -0.132424414726E+04    0.69476E-02   -0.15344E-02 42100   0.445E-01    0.452E-01
DAV:   7    -0.132424605613E+04   -0.19089E-02   -0.92273E-03 38260   0.252E-01    0.243E-01
DAV:   8    -0.132424638710E+04   -0.33097E-03   -0.12850E-03 36020   0.104E-01    0.123E-01
DAV:   9    -0.132424621012E+04    0.17699E-03   -0.17213E-04 30000   0.332E-02    0.786E-02
DAV:  10    -0.132424631232E+04   -0.10220E-03   -0.91418E-05 24270   0.394E-02    0.564E-02
DAV:  11    -0.132424625802E+04    0.54293E-04   -0.54096E-05 20100   0.261E-02    0.238E-02
DAV:  12    -0.132424628702E+04   -0.29000E-04   -0.11903E-05 18300   0.117E-02
  37 F= -.13242463E+04 E0= -.13242463E+04  d E =0.857858E-01  mag=   114.0000
       N       E                     dE             d eps       ncg     rms          rms(c)
DAV:   1    -0.131962256077E+04    0.46237E+01   -0.19769E+02 46680   0.585E+01    0.107E+01
DAV:   2    -0.132415764177E+04   -0.45351E+01   -0.40962E+01 36600   0.103E+01    0.648E+00
DAV:   3    -0.132425266026E+04   -0.95018E-01   -0.11465E+00 37190   0.231E+00    0.273E+00
DAV:   4    -0.132425159354E+04    0.10667E-02   -0.82474E-02 40510   0.711E-01    0.196E+00
DAV:   5    -0.132424130801E+04    0.10286E-01   -0.15867E-02 41630   0.441E-01    0.139E+00
DAV:   6    -0.132423585521E+04    0.54528E-02   -0.14883E-02 42070   0.496E-01    0.730E-01
DAV:   7    -0.132423549398E+04    0.36123E-03   -0.10032E-02 40030   0.281E-01    0.212E-01
DAV:   8    -0.132423750353E+04   -0.20096E-02   -0.19063E-03 36760   0.102E-01    0.120E-01
DAV:   9    -0.132423722656E+04    0.27697E-03   -0.19488E-04 33720   0.350E-02    0.823E-02
DAV:  10    -0.132423712821E+04    0.98350E-04   -0.11048E-04 23710   0.368E-02    0.566E-02
DAV:  11    -0.132423726697E+04   -0.13877E-03   -0.52679E-05 20390   0.265E-02    0.293E-02
DAV:  12    -0.132423730982E+04   -0.42843E-04   -0.19617E-05 19010   0.162E-02
  38 F= -.13242373E+04 E0= -.13242373E+04  d E =0.897721E-02  mag=   114.0000
       N       E                     dE             d eps       ncg     rms          rms(c)
DAV:   1    -0.132350918736E+04    0.72808E+00   -0.46147E+01 43630   0.257E+01    0.423E+00
DAV:   2    -0.132433128294E+04   -0.82210E+00   -0.77891E+00 36720   0.458E+00    0.225E+00
DAV:   3    -0.132434656401E+04   -0.15281E-01   -0.24813E-01 37060   0.103E+00    0.111E+00
DAV:   4    -0.132434451718E+04    0.20468E-02   -0.17186E-02 39900   0.294E-01    0.795E-01
DAV:   5    -0.132434215946E+04    0.23577E-02   -0.43847E-03 41860   0.236E-01    0.516E-01
DAV:   6    -0.132434026007E+04    0.18994E-02   -0.42077E-03 42960   0.243E-01    0.238E-01
DAV:   7    -0.132434110854E+04   -0.84847E-03   -0.21180E-03 38760   0.123E-01    0.882E-02
DAV:   8    -0.132434112346E+04   -0.14919E-04   -0.23449E-04 34210   0.399E-02
  39 F= -.13243411E+04 E0= -.13243411E+04  d E =-.103814E+00  mag=   114.0000
       N       E                     dE             d eps       ncg     rms          rms(c)
DAV:   1    -0.132425128947E+04    0.89819E-01   -0.42671E+00 47270   0.945E+00    0.155E+00
DAV:   2    -0.132436228684E+04   -0.11100E+00   -0.99352E-01 37550   0.166E+00    0.823E-01
DAV:   3    -0.132436451970E+04   -0.22329E-02   -0.39309E-02 37160   0.485E-01    0.514E-01
DAV:   4    -0.132436444326E+04    0.76433E-04   -0.31714E-03 38680   0.166E-01    0.299E-01
DAV:   5    -0.132436407413E+04    0.36913E-03   -0.55605E-04 36400   0.715E-02    0.220E-01
DAV:   6    -0.132436369100E+04    0.38313E-03   -0.59687E-04 41340   0.952E-02    0.909E-02
DAV:   7    -0.132436383804E+04   -0.14704E-03   -0.30585E-04 37710   0.469E-02    0.472E-02
DAV:   8    -0.132436372933E+04    0.10871E-03   -0.53556E-05 20740   0.236E-02    0.251E-02
DAV:   9    -0.132436376461E+04   -0.35276E-04   -0.90857E-06 18260   0.793E-03
  40 F= -.13243638E+04 E0= -.13243638E+04  d E =-.226411E-01  mag=   114.0000
       N       E                     dE             d eps       ncg     rms          rms(c)
DAV:   1    -0.132426186686E+04    0.10186E+00   -0.65422E+00 42470   0.942E+00    0.150E+00
DAV:   2    -0.132436867257E+04   -0.10681E+00   -0.10443E+00 36130   0.167E+00    0.714E-01
DAV:   3    -0.132436982044E+04   -0.11479E-02   -0.28819E-02 36720   0.331E-01    0.345E-01
DAV:   4    -0.132436970355E+04    0.11690E-03   -0.17507E-03 39430   0.726E-02    0.261E-01
DAV:   5    -0.132436914966E+04    0.55389E-03   -0.37683E-04 37240   0.836E-02    0.145E-01
DAV:   6    -0.132436915931E+04   -0.96495E-05   -0.50206E-04 41140   0.694E-02    0.582E-02
DAV:   7    -0.132436913778E+04    0.21534E-04   -0.18085E-04 31320   0.384E-02
  41 F= -.13243691E+04 E0= -.13243691E+04  d E =-.537317E-02  mag=   114.0000
       N       E                     dE             d eps       ncg     rms          rms(c)
DAV:   1    -0.132329767934E+04    0.10715E+01   -0.59291E+01 42260   0.294E+01    0.463E+00
DAV:   2    -0.132434719463E+04   -0.10495E+01   -0.99602E+00 36720   0.520E+00    0.246E+00
DAV:   3    -0.132435563270E+04   -0.84381E-02   -0.26129E-01 36760   0.114E+00    0.126E+00
DAV:   4    -0.132435387487E+04    0.17578E-02   -0.19431E-02 39450   0.374E-01    0.897E-01
DAV:   5    -0.132434991144E+04    0.39634E-02   -0.46641E-03 42120   0.267E-01    0.601E-01
DAV:   6    -0.132434757205E+04    0.23394E-02   -0.57788E-03 42850   0.304E-01    0.245E-01
DAV:   7    -0.132434787460E+04   -0.30255E-03   -0.27792E-03 37850   0.139E-01    0.106E-01
DAV:   8    -0.132434795659E+04   -0.81998E-04   -0.32272E-04 33720   0.521E-02    0.624E-02
DAV:   9    -0.132434803257E+04   -0.75974E-04   -0.48027E-05 21430   0.237E-02    0.364E-02
DAV:  10    -0.132434788642E+04    0.14615E-03   -0.21250E-05 19720   0.168E-02    0.182E-02
DAV:  11    -0.132434795040E+04   -0.63984E-04   -0.98557E-06 18250   0.652E-03    0.792E-03
DAV:  12    -0.132434796349E+04   -0.13094E-04   -0.21767E-06 18130   0.489E-03
  42 F= -.13243480E+04 E0= -.13243480E+04  d E =0.211743E-01  mag=   114.0000
       N       E                     dE             d eps       ncg     rms          rms(c)
DAV:   1    -0.132422207864E+04    0.12587E+00   -0.76392E+00 44130   0.111E+01    0.179E+00
DAV:   2    -0.132436758001E+04   -0.14550E+00   -0.13644E+00 37430   0.197E+00    0.937E-01
DAV:   3    -0.132437095126E+04   -0.33712E-02   -0.47105E-02 37120   0.507E-01    0.542E-01
DAV:   4    -0.132437032652E+04    0.62474E-03   -0.34373E-03 39160   0.152E-01    0.329E-01
DAV:   5    -0.132437006501E+04    0.26151E-03   -0.84737E-04 39080   0.101E-01    0.227E-01
DAV:   6    -0.132436976937E+04    0.29564E-03   -0.95807E-04 42580   0.113E-01    0.110E-01
DAV:   7    -0.132436979086E+04   -0.21491E-04   -0.45228E-04 38890   0.609E-02
  43 F= -.13243698E+04 E0= -.13243698E+04  d E =-.218274E-01  mag=   114.0000
       N       E                     dE             d eps       ncg     rms          rms(c)
DAV:   1    -0.132435566088E+04    0.14108E-01   -0.79311E-01 42750   0.352E+00    0.569E-01
DAV:   2    -0.132437033863E+04   -0.14678E-01   -0.14317E-01 37170   0.637E-01    0.284E-01
DAV:   3    -0.132437076602E+04   -0.42739E-03   -0.43558E-03 37170   0.152E-01    0.164E-01
DAV:   4    -0.132437056697E+04    0.19906E-03   -0.32986E-04 33110   0.476E-02    0.108E-01
DAV:   5    -0.132437055151E+04    0.15455E-04   -0.68413E-05 21800   0.321E-02
  44 F= -.13243706E+04 E0= -.13243706E+04  d E =-.760657E-03  mag=   114.0000
       N       E                     dE             d eps       ncg     rms          rms(c)
DAV:   1    -0.132428582215E+04    0.84745E-01   -0.27806E+00 46450   0.752E+00    0.124E+00
DAV:   2    -0.132435650193E+04   -0.70680E-01   -0.64904E-01 37070   0.130E+00    0.593E-01
DAV:   3    -0.132435786609E+04   -0.13642E-02   -0.19381E-02 37140   0.279E-01    0.297E-01
DAV:   4    -0.132435765381E+04    0.21228E-03   -0.11919E-03 38450   0.622E-02    0.221E-01
DAV:   5    -0.132435738120E+04    0.27261E-03   -0.21701E-04 33480   0.648E-02    0.132E-01
DAV:   6    -0.132435727575E+04    0.10544E-03   -0.32036E-04 40130   0.643E-02    0.563E-02
DAV:   7    -0.132435730790E+04   -0.32145E-04   -0.14022E-04 27730   0.374E-02
  45 F= -.13243573E+04 E0= -.13243573E+04  d E =0.132436E-01  mag=   114.0000
       N       E                     dE             d eps       ncg     rms          rms(c)
DAV:   1    -0.132428353717E+04    0.73739E-01   -0.31541E+00 43490   0.659E+00    0.111E+00
DAV:   2    -0.132433919293E+04   -0.55656E-01   -0.54021E-01 36850   0.118E+00    0.529E-01
DAV:   3    -0.132434015020E+04   -0.95727E-03   -0.15064E-02 37070   0.245E-01    0.269E-01
DAV:   4    -0.132433991507E+04    0.23513E-03   -0.10757E-03 37990   0.719E-02    0.198E-01
DAV:   5    -0.132433973896E+04    0.17611E-03   -0.23199E-04 30260   0.641E-02    0.135E-01
DAV:   6    -0.132433962054E+04    0.11842E-03   -0.37004E-04 38550   0.744E-02    0.660E-02
DAV:   7    -0.132433967888E+04   -0.58345E-04   -0.14484E-04 28200   0.363E-02    0.209E-02
DAV:   8    -0.132433964219E+04    0.36689E-04   -0.20466E-05 18380   0.106E-02
  46 F= -.13243396E+04 E0= -.13243396E+04  d E =0.176657E-01  mag=   114.0000
       N       E                     dE             d eps       ncg     rms          rms(c)
DAV:   1    -0.132407040552E+04    0.26927E+00   -0.11342E+01 43810   0.128E+01    0.218E+00
DAV:   2    -0.132428829178E+04   -0.21789E+00   -0.20837E+00 37170   0.228E+00    0.107E+00
DAV:   3    -0.132429113527E+04   -0.28435E-02   -0.51166E-02 36960   0.462E-01    0.536E-01
DAV:   4    -0.132429053033E+04    0.60494E-03   -0.35484E-03 39650   0.135E-01    0.391E-01
DAV:   5    -0.132428991004E+04    0.62029E-03   -0.86396E-04 41520   0.123E-01    0.261E-01
DAV:   6    -0.132428944491E+04    0.46513E-03   -0.12933E-03 43380   0.143E-01    0.131E-01
DAV:   7    -0.132428962984E+04   -0.18493E-03   -0.53948E-04 37960   0.675E-02    0.399E-02
DAV:   8    -0.132428959441E+04    0.35427E-04   -0.50374E-05 20950   0.187E-02
  47 F= -.13242896E+04 E0= -.13242896E+04  d E =0.500478E-01  mag=   114.0000
       N       E                     dE             d eps       ncg     rms          rms(c)
DAV:   1    -0.132411069933E+04    0.17893E+00   -0.55222E+00 47560   0.111E+01    0.181E+00
DAV:   2    -0.132426215670E+04   -0.15146E+00   -0.13624E+00 37100   0.188E+00    0.894E-01
DAV:   3    -0.132426559638E+04   -0.34397E-02   -0.45124E-02 37190   0.428E-01    0.439E-01
DAV:   4    -0.132426574700E+04   -0.15062E-03   -0.28378E-03 39110   0.100E-01    0.307E-01
DAV:   5    -0.132426508895E+04    0.65804E-03   -0.52721E-04 40770   0.910E-02    0.191E-01
DAV:   6    -0.132426518111E+04   -0.92154E-04   -0.59947E-04 42220   0.942E-02    0.970E-02
DAV:   7    -0.132426500891E+04    0.17220E-03   -0.29071E-04 36180   0.504E-02    0.371E-02
DAV:   8    -0.132426509586E+04   -0.86950E-04   -0.35027E-05 19900   0.180E-02    0.184E-02
DAV:   9    -0.132426509098E+04    0.48805E-05   -0.80794E-06 18360   0.850E-03
  48 F= -.13242651E+04 E0= -.13242651E+04  d E =0.245034E-01  mag=   114.0000
       N       E                     dE             d eps       ncg     rms          rms(c)
DAV:   1    -0.132422681659E+04    0.38279E-01   -0.28864E+00 45420   0.695E+00    0.111E+00
DAV:   2    -0.132428459302E+04   -0.57776E-01   -0.54036E-01 37070   0.121E+00    0.578E-01
DAV:   3    -0.132428591984E+04   -0.13268E-02   -0.18007E-02 37030   0.274E-01    0.298E-01
DAV:   4    -0.132428587587E+04    0.43963E-04   -0.11693E-03 39440   0.755E-02    0.199E-01
DAV:   5    -0.132428579835E+04    0.77526E-04   -0.29858E-04 33930   0.650E-02    0.124E-01
DAV:   6    -0.132428564620E+04    0.15215E-03   -0.32204E-04 38100   0.664E-02    0.686E-02
DAV:   7    -0.132428571615E+04   -0.69950E-04   -0.14059E-04 28850   0.374E-02    0.239E-02
DAV:   8    -0.132428574653E+04   -0.30378E-04   -0.24641E-05 18870   0.148E-02
  49 F= -.13242857E+04 E0= -.13242857E+04  d E =-.206555E-01  mag=   114.0000
       N       E                     dE             d eps       ncg     rms          rms(c)
DAV:   1    -0.132425423504E+04    0.31481E-01   -0.23825E+00 42060   0.556E+00    0.884E-01
DAV:   2    -0.132429075593E+04   -0.36521E-01   -0.36370E-01 37090   0.102E+00    0.449E-01
DAV:   3    -0.132429123726E+04   -0.48133E-03   -0.10878E-02 36340   0.222E-01    0.241E-01
DAV:   4    -0.132429116142E+04    0.75842E-04   -0.73589E-04 38140   0.615E-02    0.171E-01
DAV:   5    -0.132429107694E+04    0.84479E-04   -0.19013E-04 30480   0.567E-02    0.115E-01
DAV:   6    -0.132429097931E+04    0.97634E-04   -0.28895E-04 36630   0.627E-02    0.558E-02
DAV:   7    -0.132429098039E+04   -0.10841E-05   -0.11223E-04 24300   0.308E-02
  50 F= -.13242910E+04 E0= -.13242910E+04  d E =-.523387E-02  mag=   114.0000
       N       E                     dE             d eps       ncg     rms          rms(c)
DAV:   1    -0.132411422109E+04    0.17676E+00   -0.12360E+01 43080   0.122E+01    0.191E+00
DAV:   2    -0.132428127269E+04   -0.16705E+00   -0.16820E+00 36270   0.221E+00    0.943E-01
DAV:   3    -0.132428367859E+04   -0.24059E-02   -0.49626E-02 36510   0.444E-01    0.449E-01
DAV:   4    -0.132428347255E+04    0.20604E-03   -0.29925E-03 40090   0.102E-01    0.325E-01
DAV:   5    -0.132428272533E+04    0.74722E-03   -0.87078E-04 41200   0.109E-01    0.176E-01
DAV:   6    -0.132428259335E+04    0.13198E-03   -0.90003E-04 40790   0.947E-02    0.973E-02
DAV:   7    -0.132428269531E+04   -0.10196E-03   -0.34149E-04 35710   0.567E-02    0.422E-02
DAV:   8    -0.132428269972E+04   -0.44110E-05   -0.38111E-05 20470   0.184E-02
  51 F= -.13242827E+04 E0= -.13242827E+04  d E =0.828067E-02  mag=   114.0000
       N       E                     dE             d eps       ncg     rms          rms(c)
DAV:   1    -0.132396946061E+04    0.31323E+00   -0.16688E+01 44090   0.156E+01    0.265E+00
DAV:   2    -0.132427684714E+04   -0.30739E+00   -0.29692E+00 36400   0.279E+00    0.128E+00
DAV:   3    -0.132428040734E+04   -0.35602E-02   -0.75502E-02 37020   0.559E-01    0.604E-01
DAV:   4    -0.132428012582E+04    0.28152E-03   -0.47593E-03 39690   0.128E-01    0.460E-01
DAV:   5    -0.132427892050E+04    0.12053E-02   -0.10286E-03 43380   0.131E-01    0.274E-01
DAV:   6    -0.132427871143E+04    0.20907E-03   -0.13604E-03 43270   0.131E-01    0.124E-01
DAV:   7    -0.132427883729E+04   -0.12586E-03   -0.64193E-04 38250   0.762E-02    0.602E-02
DAV:   8    -0.132427890014E+04   -0.62846E-04   -0.72513E-05 22980   0.273E-02    0.291E-02
DAV:   9    -0.132427888240E+04    0.17736E-04   -0.15150E-05 18690   0.106E-02
  52 F= -.13242789E+04 E0= -.13242789E+04  d E =0.381732E-02  mag=   114.0000
       N       E                     dE             d eps       ncg     rms          rms(c)
DAV:   1    -0.132395330920E+04    0.32559E+00   -0.17058E+01 45770   0.167E+01    0.262E+00
DAV:   2    -0.132426731401E+04   -0.31400E+00   -0.29849E+00 36300   0.292E+00    0.132E+00
DAV:   3    -0.132427166927E+04   -0.43553E-02   -0.94515E-02 36810   0.650E-01    0.678E-01
DAV:   4    -0.132427164690E+04    0.22371E-04   -0.63467E-03 39900   0.179E-01    0.472E-01
DAV:   5    -0.132427024446E+04    0.14024E-02   -0.13424E-03 41410   0.144E-01    0.311E-01
DAV:   6    -0.132427001548E+04    0.22898E-03   -0.16856E-03 44930   0.157E-01    0.141E-01
DAV:   7    -0.132426982131E+04    0.19417E-03   -0.79041E-04 38360   0.744E-02    0.526E-02
DAV:   8    -0.132426996051E+04   -0.13920E-03   -0.73231E-05 23350   0.243E-02    0.311E-02
DAV:   9    -0.132426994094E+04    0.19571E-04   -0.15003E-05 18710   0.107E-02
  53 F= -.13242699E+04 E0= -.13242699E+04  d E =0.894146E-02  mag=   114.0000
       N       E                     dE             d eps       ncg     rms          rms(c)
DAV:   1    -0.132418639435E+04    0.83566E-01   -0.38544E+00 46360   0.852E+00    0.136E+00
DAV:   2    -0.132427133738E+04   -0.84943E-01   -0.80222E-01 37160   0.148E+00    0.676E-01
DAV:   3    -0.132427285626E+04   -0.15189E-02   -0.24748E-02 36810   0.347E-01    0.365E-01
DAV:   4    -0.132427282744E+04    0.28821E-04   -0.18065E-03 39100   0.105E-01    0.251E-01
DAV:   5    -0.132427258047E+04    0.24697E-03   -0.38591E-04 33300   0.770E-02    0.180E-01
DAV:   6    -0.132427234031E+04    0.24017E-03   -0.54121E-04 42290   0.949E-02    0.763E-02
DAV:   7    -0.132427241977E+04   -0.79463E-04   -0.24861E-04 36160   0.436E-02    0.284E-02
DAV:   8    -0.132427239252E+04    0.27255E-04   -0.34222E-05 19970   0.166E-02
  54 F= -.13242724E+04 E0= -.13242724E+04  d E =-.245157E-02  mag=   114.0000
       N       E                     dE             d eps       ncg     rms          rms(c)
DAV:   1    -0.132416430317E+04    0.10812E+00   -0.58529E+00 43790   0.909E+00    0.145E+00
DAV:   2    -0.132426059665E+04   -0.96293E-01   -0.94748E-01 35690   0.161E+00    0.688E-01
DAV:   3    -0.132426175227E+04   -0.11556E-02   -0.25863E-02 36980   0.316E-01    0.325E-01
DAV:   4    -0.132426158712E+04    0.16515E-03   -0.15971E-03 39050   0.711E-02    0.248E-01
DAV:   5    -0.132426129830E+04    0.28882E-03   -0.33733E-04 35640   0.805E-02    0.143E-01
DAV:   6    -0.132426105692E+04    0.24137E-03   -0.48347E-04 40890   0.720E-02    0.662E-02
DAV:   7    -0.132426125874E+04   -0.20181E-03   -0.16627E-04 29620   0.389E-02    0.288E-02
DAV:   8    -0.132426121858E+04    0.40160E-04   -0.19930E-05 18170   0.124E-02
  55 F= -.13242612E+04 E0= -.13242612E+04  d E =0.111739E-01  mag=   114.0000
       N       E                     dE             d eps       ncg     rms          rms(c)
DAV:   1    -0.131740719079E+04    0.68541E+01   -0.20181E+02 49300   0.708E+01    0.134E+01
DAV:   2    -0.132371125992E+04   -0.63041E+01   -0.55208E+01 36730   0.119E+01    0.824E+00
DAV:   3    -0.132389172219E+04   -0.18046E+00   -0.19331E+00 37590   0.297E+00    0.336E+00
DAV:   4    -0.132389448395E+04   -0.27618E-02   -0.12951E-01 39820   0.748E-01    0.244E+00
DAV:   5    -0.132388450761E+04    0.99763E-02   -0.16631E-02 40130   0.422E-01    0.170E+00
DAV:   6    -0.132387626171E+04    0.82459E-02   -0.16551E-02 43310   0.594E-01    0.931E-01
DAV:   7    -0.132387736268E+04   -0.11010E-02   -0.14604E-02 40030   0.415E-01    0.330E-01
DAV:   8    -0.132387888565E+04   -0.15230E-02   -0.30704E-03 37310   0.168E-01    0.132E-01
DAV:   9    -0.132387870297E+04    0.18267E-03   -0.60077E-04 36780   0.493E-02    0.837E-02
DAV:  10    -0.132387885818E+04   -0.15521E-03   -0.99848E-05 24320   0.374E-02    0.543E-02
DAV:  11    -0.132387884678E+04    0.11399E-04   -0.47251E-05 19910   0.247E-02
  56 F= -.13238788E+04 E0= -.13238788E+04  d E =0.382372E+00  mag=   114.0000
       N       E                     dE             d eps       ncg     rms          rms(c)
DAV:   1    -0.132139676747E+04    0.24821E+01   -0.75437E+01 50120   0.480E+01    0.813E+00
DAV:   2    -0.132409938586E+04   -0.27026E+01   -0.23350E+01 38170   0.793E+00    0.485E+00
DAV:   3    -0.132418929917E+04   -0.89913E-01   -0.91412E-01 36940   0.222E+00    0.235E+00
DAV:   4    -0.132419040914E+04   -0.11100E-02   -0.66205E-02 40190   0.716E-01    0.141E+00
DAV:   5    -0.132418392865E+04    0.64805E-02   -0.15091E-02 40440   0.386E-01    0.997E-01
DAV:   6    -0.132417974223E+04    0.41864E-02   -0.10790E-02 41680   0.394E-01    0.489E-01
DAV:   7    -0.132417956922E+04    0.17301E-03   -0.55775E-03 40050   0.212E-01    0.172E-01
DAV:   8    -0.132418060956E+04   -0.10403E-02   -0.14100E-03 37450   0.112E-01    0.111E-01
DAV:   9    -0.132418044342E+04    0.16613E-03   -0.32748E-04 34680   0.570E-02    0.740E-02
DAV:  10    -0.132418025454E+04    0.18889E-03   -0.70551E-05 23490   0.270E-02    0.386E-02
DAV:  11    -0.132418041678E+04   -0.16224E-03   -0.30037E-05 20050   0.150E-02    0.168E-02
DAV:  12    -0.132418045365E+04   -0.36872E-04   -0.93340E-06 18840   0.888E-03
  57 F= -.13241805E+04 E0= -.13241805E+04  d E =-.301607E+00  mag=   114.0000
       N       E                     dE             d eps       ncg     rms          rms(c)
DAV:   1    -0.132414421600E+04    0.36201E-01   -0.18753E+00 50120   0.735E+00    0.120E+00
DAV:   2    -0.132420701823E+04   -0.62802E-01   -0.54807E-01 37630   0.121E+00    0.587E-01
DAV:   3    -0.132420887793E+04   -0.18597E-02   -0.20756E-02 37330   0.314E-01    0.320E-01
DAV:   4    -0.132420880179E+04    0.76140E-04   -0.13765E-03 39710   0.908E-02    0.202E-01
DAV:   5    -0.132420864211E+04    0.15968E-03   -0.33903E-04 33680   0.633E-02    0.144E-01
DAV:   6    -0.132420856741E+04    0.74698E-04   -0.36096E-04 37430   0.763E-02    0.719E-02
DAV:   7    -0.132420861820E+04   -0.50792E-04   -0.17213E-04 31940   0.406E-02    0.277E-02
DAV:   8    -0.132420858926E+04    0.28946E-04   -0.40749E-05 20070   0.193E-02
  58 F= -.13242086E+04 E0= -.13242086E+04  d E =-.281356E-01  mag=   114.0000
       N       E                     dE             d eps       ncg     rms          rms(c)
DAV:   1    -0.132396981817E+04    0.23880E+00   -0.66295E+00 49090   0.139E+01    0.240E+00
DAV:   2    -0.132421891616E+04   -0.24910E+00   -0.21741E+00 37310   0.231E+00    0.116E+00
DAV:   3    -0.132422455749E+04   -0.56413E-02   -0.66874E-02 37110   0.558E-01    0.579E-01
DAV:   4    -0.132422452707E+04    0.30419E-04   -0.45549E-03 40040   0.154E-01    0.419E-01
DAV:   5    -0.132422395182E+04    0.57525E-03   -0.76514E-04 40900   0.111E-01    0.302E-01
DAV:   6    -0.132422357294E+04    0.37888E-03   -0.10612E-03 43200   0.146E-01    0.137E-01
DAV:   7    -0.132422370697E+04   -0.13402E-03   -0.58846E-04 39200   0.712E-02    0.479E-02
DAV:   8    -0.132422368316E+04    0.23808E-04   -0.86408E-05 23020   0.279E-02
  59 F= -.13242237E+04 E0= -.13242237E+04  d E =-.150939E-01  mag=   114.0000
       N       E                     dE             d eps       ncg     rms          rms(c)
DAV:   1    -0.132420490499E+04    0.18802E-01   -0.81753E-01 48510   0.426E+00    0.668E-01
DAV:   2    -0.132422631183E+04   -0.21407E-01   -0.19546E-01 36930   0.709E-01    0.328E-01
DAV:   3    -0.132422664304E+04   -0.33121E-03   -0.64426E-03 36920   0.164E-01    0.169E-01
DAV:   4    -0.132422666525E+04   -0.22207E-04   -0.41412E-04 32390   0.432E-02
  60 F= -.13242267E+04 E0= -.13242267E+04  d E =-.298209E-02  mag=   114.0000
       N       E                     dE             d eps       ncg     rms          rms(c)
DAV:   1    -0.132383528015E+04    0.39136E+00   -0.14189E+01 48030   0.177E+01    0.276E+00
DAV:   2    -0.132421000852E+04   -0.37473E+00   -0.33909E+00 36330   0.290E+00    0.144E+00
DAV:   3    -0.132421571725E+04   -0.57087E-02   -0.10645E-01 37090   0.651E-01    0.698E-01
DAV:   4    -0.132421578706E+04   -0.69817E-04   -0.67214E-03 40940   0.171E-01    0.516E-01
DAV:   5    -0.132421433750E+04    0.14496E-02   -0.13790E-03 44120   0.165E-01    0.319E-01
DAV:   6    -0.132421394578E+04    0.39172E-03   -0.17202E-03 44040   0.171E-01    0.156E-01
DAV:   7    -0.132421387570E+04    0.70075E-04   -0.82973E-04 38260   0.890E-02    0.596E-02
DAV:   8    -0.132421396406E+04   -0.88356E-04   -0.87808E-05 23780   0.277E-02    0.335E-02
DAV:   9    -0.132421398565E+04   -0.21592E-04   -0.16028E-05 19250   0.125E-02
  61 F= -.13242140E+04 E0= -.13242140E+04  d E =0.126796E-01  mag=   114.0000
       N       E                     dE             d eps       ncg     rms          rms(c)
DAV:   1    -0.132413087167E+04    0.83092E-01   -0.29416E+00 49250   0.833E+00    0.132E+00
DAV:   2    -0.132421090824E+04   -0.80037E-01   -0.71779E-01 36590   0.137E+00    0.641E-01
DAV:   3    -0.132421282351E+04   -0.19153E-02   -0.24295E-02 37100   0.320E-01    0.310E-01
DAV:   4    -0.132421298372E+04   -0.16021E-03   -0.14707E-03 38620   0.815E-02    0.217E-01
DAV:   5    -0.132421260444E+04    0.37929E-03   -0.34571E-04 35110   0.717E-02    0.140E-01
DAV:   6    -0.132421266937E+04   -0.64934E-04   -0.33648E-04 39130   0.715E-02    0.703E-02
DAV:   7    -0.132421253170E+04    0.13767E-03   -0.14501E-04 29030   0.368E-02    0.261E-02
DAV:   8    -0.132421261586E+04   -0.84157E-04   -0.24224E-05 18540   0.133E-02    0.148E-02
DAV:   9    -0.132421261716E+04   -0.13025E-05   -0.57072E-06 18130   0.624E-03
  62 F= -.13242126E+04 E0= -.13242126E+04  d E =0.136849E-02  mag=   114.0000
       N       E                     dE             d eps       ncg     rms          rms(c)
DAV:   1    -0.132404273907E+04    0.16988E+00   -0.72748E+00 45800   0.115E+01    0.177E+00
DAV:   2    -0.132419578527E+04   -0.15305E+00   -0.14205E+00 35830   0.194E+00    0.884E-01
DAV:   3    -0.132419856363E+04   -0.27784E-02   -0.44664E-02 37000   0.411E-01    0.410E-01
DAV:   4    -0.132419861315E+04   -0.49525E-04   -0.28316E-03 39770   0.111E-01    0.304E-01
DAV:   5    -0.132419812535E+04    0.48780E-03   -0.60915E-04 42000   0.105E-01    0.196E-01
DAV:   6    -0.132419789973E+04    0.22562E-03   -0.74800E-04 42030   0.115E-01    0.938E-02
DAV:   7    -0.132419795886E+04   -0.59133E-04   -0.33355E-04 36250   0.568E-02    0.348E-02
DAV:   8    -0.132419798184E+04   -0.22981E-04   -0.32393E-05 19760   0.154E-02
  63 F= -.13241980E+04 E0= -.13241980E+04  d E =0.146353E-01  mag=   114.0000
       N       E                     dE             d eps       ncg     rms          rms(c)
DAV:   1    -0.132066329235E+04    0.35347E+01   -0.14443E+02 46150   0.507E+01    0.899E+00
DAV:   2    -0.132400656263E+04   -0.33433E+01   -0.30423E+01 35940   0.867E+00    0.525E+00
DAV:   3    -0.132406435888E+04   -0.57796E-01   -0.81296E-01 37040   0.185E+00    0.218E+00
DAV:   4    -0.132406192857E+04    0.24303E-02   -0.53808E-02 41610   0.447E-01    0.163E+00
DAV:   5    -0.132405308785E+04    0.88407E-02   -0.70702E-03 43530   0.308E-01    0.104E+00
DAV:   6    -0.132404787321E+04    0.52146E-02   -0.89658E-03 42690   0.389E-01    0.418E-01
DAV:   7    -0.132404908832E+04   -0.12151E-02   -0.65210E-03 38440   0.236E-01    0.228E-01
DAV:   8    -0.132404980608E+04   -0.71776E-03   -0.91490E-04 36860   0.103E-01    0.916E-02
DAV:   9    -0.132404963239E+04    0.17369E-03   -0.15112E-04 29620   0.280E-02    0.573E-02
DAV:  10    -0.132404959492E+04    0.37477E-04   -0.38267E-05 20050   0.270E-02
  64 F= -.13240496E+04 E0= -.13240496E+04  d E =0.148387E+00  mag=   114.0000
       N       E                     dE             d eps       ncg     rms          rms(c)
DAV:   1    -0.132002282605E+04    0.40268E+01   -0.21276E+02 44590   0.563E+01    0.934E+00
DAV:   2    -0.132387150927E+04   -0.38487E+01   -0.35572E+01 36240   0.990E+00    0.545E+00
DAV:   3    -0.132393162754E+04   -0.60118E-01   -0.10145E+00 37080   0.201E+00    0.226E+00
DAV:   4    -0.132392433540E+04    0.72921E-02   -0.64122E-02 41850   0.511E-01    0.168E+00
DAV:   5    -0.132391289858E+04    0.11437E-01   -0.11575E-02 41500   0.393E-01    0.106E+00
DAV:   6    -0.132390624991E+04    0.66487E-02   -0.14073E-02 42340   0.465E-01    0.519E-01
DAV:   7    -0.132390834776E+04   -0.20979E-02   -0.88311E-03 38510   0.274E-01    0.214E-01
DAV:   8    -0.132390855260E+04   -0.20484E-03   -0.10065E-03 36930   0.916E-02    0.957E-02
DAV:   9    -0.132390833476E+04    0.21784E-03   -0.13040E-04 29360   0.288E-02    0.622E-02
DAV:  10    -0.132390844858E+04   -0.11382E-03   -0.89264E-05 24200   0.349E-02    0.401E-02
DAV:  11    -0.132390843595E+04    0.12631E-04   -0.28466E-05 19480   0.193E-02
  65 F= -.13239084E+04 E0= -.13239084E+04  d E =0.141159E+00  mag=   114.0000
       N       E                     dE             d eps       ncg     rms          rms(c)
DAV:   1    -0.131470471828E+04    0.92037E+01   -0.30367E+02 49750   0.842E+01    0.152E+01
DAV:   2    -0.132333366467E+04   -0.86289E+01   -0.76072E+01 37960   0.143E+01    0.109E+01
DAV:   3    -0.132355398882E+04   -0.22032E+00   -0.29672E+00 37290   0.441E+00    0.471E+00
DAV:   4    -0.132353661116E+04    0.17378E-01   -0.28976E-01 38780   0.169E+00    0.308E+00
DAV:   5    -0.132351880180E+04    0.17809E-01   -0.56533E-02 40110   0.728E-01    0.217E+00
DAV:   6    -0.132350365064E+04    0.15151E-01   -0.29201E-02 42680   0.657E-01    0.106E+00
DAV:   7    -0.132350496101E+04   -0.13104E-02   -0.20361E-02 40670   0.415E-01    0.444E-01
DAV:   8    -0.132350602123E+04   -0.10602E-02   -0.56172E-03 37220   0.228E-01    0.246E-01
DAV:   9    -0.132350653872E+04   -0.51750E-03   -0.85962E-04 36710   0.905E-02    0.120E-01
DAV:  10    -0.132350588351E+04    0.65522E-03   -0.26581E-04 34560   0.411E-02    0.693E-02
DAV:  11    -0.132350612441E+04   -0.24090E-03   -0.65494E-05 22720   0.276E-02    0.324E-02
DAV:  12    -0.132350625128E+04   -0.12687E-03   -0.34125E-05 19440   0.189E-02    0.150E-02
DAV:  13    -0.132350615259E+04    0.98684E-04   -0.12181E-05 18620   0.851E-03    0.124E-02
DAV:  14    -0.132350615705E+04   -0.44601E-05   -0.20365E-06 18350   0.339E-03
  66 F= -.13235062E+04 E0= -.13235062E+04  d E =0.402279E+00  mag=   114.0000
       N       E                     dE             d eps       ncg     rms          rms(c)
DAV:   1    -0.132244090636E+04    0.10652E+01   -0.48149E+01 49800   0.356E+01    0.601E+00
DAV:   2    -0.132390935871E+04   -0.14685E+01   -0.12733E+01 37900   0.592E+00    0.357E+00
DAV:   3    -0.132395952956E+04   -0.50171E-01   -0.53310E-01 37290   0.176E+00    0.184E+00
DAV:   4    -0.132396021995E+04   -0.69039E-03   -0.41017E-02 39450   0.574E-01    0.106E+00
DAV:   5    -0.132395598541E+04    0.42345E-02   -0.97266E-03 40310   0.307E-01    0.736E-01
DAV:   6    -0.132395366730E+04    0.23181E-02   -0.75610E-03 41800   0.317E-01    0.332E-01
DAV:   7    -0.132395339717E+04    0.27013E-03   -0.35636E-03 39510   0.164E-01    0.142E-01
DAV:   8    -0.132395407625E+04   -0.67908E-03   -0.77429E-04 36870   0.841E-02    0.887E-02
DAV:   9    -0.132395397264E+04    0.10362E-03   -0.17228E-04 29570   0.426E-02    0.592E-02
DAV:  10    -0.132395381274E+04    0.15989E-03   -0.46832E-05 20670   0.217E-02    0.339E-02
DAV:  11    -0.132395394236E+04   -0.12962E-03   -0.20436E-05 19970   0.136E-02    0.149E-02
DAV:  12    -0.132395398427E+04   -0.41908E-04   -0.71679E-06 18540   0.652E-03
  67 F= -.13239540E+04 E0= -.13239540E+04  d E =-.447827E+00  mag=   114.0000
       N       E                     dE             d eps       ncg     rms          rms(c)
DAV:   1    -0.132360120602E+04    0.35274E+00   -0.12678E+01 49430   0.187E+01    0.305E+00
DAV:   2    -0.132400826448E+04   -0.40706E+00   -0.35377E+00 37740   0.305E+00    0.161E+00
DAV:   3    -0.132402131429E+04   -0.13050E-01   -0.13931E-01 37280   0.808E-01    0.819E-01
DAV:   4    -0.132402229849E+04   -0.98421E-03   -0.99750E-03 39580   0.253E-01    0.511E-01
DAV:   5    -0.132402091165E+04    0.13868E-02   -0.22351E-03 39520   0.157E-01    0.354E-01
DAV:   6    -0.132402046305E+04    0.44860E-03   -0.18675E-03 42960   0.167E-01    0.168E-01
DAV:   7    -0.132402028356E+04    0.17949E-03   -0.86242E-04 39520   0.863E-02    0.676E-02
DAV:   8    -0.132402047826E+04   -0.19470E-03   -0.17135E-04 31290   0.397E-02    0.434E-02
DAV:   9    -0.132402047500E+04    0.32660E-05   -0.38118E-05 20270   0.192E-02
  68 F= -.13240205E+04 E0= -.13240205E+04  d E =-.664907E-01  mag=   114.0000
       N       E                     dE             d eps       ncg     rms          rms(c)
DAV:   1    -0.132399156796E+04    0.28910E-01   -0.10170E+00 48240   0.513E+00    0.871E-01
DAV:   2    -0.132402620215E+04   -0.34634E-01   -0.30887E-01 37470   0.865E-01    0.408E-01
DAV:   3    -0.132402698716E+04   -0.78501E-03   -0.88407E-03 37190   0.191E-01    0.199E-01
DAV:   4    -0.132402692947E+04    0.57689E-04   -0.52010E-04 32070   0.412E-02    0.151E-01
DAV:   5    -0.132402681084E+04    0.11862E-03   -0.11677E-04 26630   0.449E-02    0.987E-02
DAV:   6    -0.132402674399E+04    0.66854E-04   -0.16956E-04 30470   0.481E-02    0.444E-02
DAV:   7    -0.132402676180E+04   -0.17807E-04   -0.72113E-05 21790   0.268E-02
  69 F= -.13240268E+04 E0= -.13240268E+04  d E =-.628680E-02  mag=   114.0000
       N       E                     dE             d eps       ncg     rms          rms(c)
DAV:   1    -0.132365233402E+04    0.37441E+00   -0.13161E+01 48080   0.171E+01    0.279E+00
DAV:   2    -0.132401341054E+04   -0.36108E+00   -0.32743E+00 36600   0.288E+00    0.137E+00
DAV:   3    -0.132402089232E+04   -0.74818E-02   -0.10284E-01 36980   0.645E-01    0.657E-01
DAV:   4    -0.132402090805E+04   -0.15729E-04   -0.66767E-03 39490   0.167E-01    0.491E-01
DAV:   5    -0.132401967387E+04    0.12342E-02   -0.12482E-03 43190   0.142E-01    0.327E-01
DAV:   6    -0.132401924004E+04    0.43383E-03   -0.15638E-03 44870   0.168E-01    0.157E-01
DAV:   7    -0.132401933111E+04   -0.91070E-04   -0.84081E-04 38580   0.921E-02    0.641E-02
DAV:   8    -0.132401929551E+04    0.35601E-04   -0.12528E-04 27140   0.332E-02
  70 F= -.13240193E+04 E0= -.13240193E+04  d E =0.746628E-02  mag=   114.0000
       N       E                     dE             d eps       ncg     rms          rms(c)
DAV:   1    -0.132380664952E+04    0.21268E+00   -0.86638E+00 46480   0.127E+01    0.207E+00
DAV:   2    -0.132401047050E+04   -0.20382E+00   -0.18821E+00 36240   0.218E+00    0.101E+00
DAV:   3    -0.132401425087E+04   -0.37804E-02   -0.54259E-02 36860   0.490E-01    0.512E-01
DAV:   4    -0.132401362932E+04    0.62155E-03   -0.37039E-03 39350   0.137E-01    0.379E-01
DAV:   5    -0.132401336506E+04    0.26425E-03   -0.64877E-04 41310   0.105E-01    0.260E-01
DAV:   6    -0.132401268722E+04    0.67785E-03   -0.96003E-04 44090   0.126E-01    0.103E-01
DAV:   7    -0.132401301290E+04   -0.32569E-03   -0.48694E-04 38170   0.593E-02    0.449E-02
DAV:   8    -0.132401292973E+04    0.83179E-04   -0.54522E-05 21100   0.229E-02    0.280E-02
DAV:   9    -0.132401291215E+04    0.17576E-04   -0.13867E-05 18670   0.121E-02
  71 F= -.13240129E+04 E0= -.13240129E+04  d E =0.638337E-02  mag=   114.0000
       N       E                     dE             d eps       ncg     rms          rms(c)
DAV:   1    -0.131734829277E+04    0.66646E+01   -0.23739E+02 47760   0.705E+01    0.123E+01
DAV:   2    -0.132343531909E+04   -0.60870E+01   -0.54745E+01 37620   0.122E+01    0.771E+00
DAV:   3    -0.132356270291E+04   -0.12738E+00   -0.16466E+00 37440   0.290E+00    0.338E+00
DAV:   4    -0.132355665565E+04    0.60473E-02   -0.11758E-01 40700   0.892E-01    0.239E+00
DAV:   5    -0.132354011091E+04    0.16545E-01   -0.26397E-02 39350   0.563E-01    0.168E+00
DAV:   6    -0.132352979540E+04    0.10316E-01   -0.23657E-02 42670   0.648E-01    0.843E-01
DAV:   7    -0.132352949431E+04    0.30109E-03   -0.15523E-02 40040   0.373E-01    0.281E-01
DAV:   8    -0.132353167340E+04   -0.21791E-02   -0.27639E-03 37130   0.141E-01    0.142E-01
DAV:   9    -0.132353128518E+04    0.38822E-03   -0.41218E-04 36730   0.441E-02    0.920E-02
DAV:  10    -0.132353105163E+04    0.23356E-03   -0.11991E-04 26000   0.394E-02    0.614E-02
DAV:  11    -0.132353135746E+04   -0.30584E-03   -0.73828E-05 21400   0.315E-02    0.351E-02
DAV:  12    -0.132353130887E+04    0.48596E-04   -0.29453E-05 19460   0.206E-02
  72 F= -.13235313E+04 E0= -.13235313E+04  d E =0.481603E+00  mag=   114.0000
       N       E                     dE             d eps       ncg     rms          rms(c)
DAV:   1    -0.132201269748E+04    0.15187E+01   -0.67787E+01 49520   0.399E+01    0.678E+00
DAV:   2    -0.132389486398E+04   -0.18822E+01   -0.16624E+01 37820   0.671E+00    0.395E+00
DAV:   3    -0.132395283460E+04   -0.57971E-01   -0.60346E-01 37390   0.173E+00    0.187E+00
DAV:   4    -0.132395182031E+04    0.10143E-02   -0.37951E-02 39940   0.421E-01    0.118E+00
DAV:   5    -0.132394551398E+04    0.63063E-02   -0.11129E-02 41250   0.302E-01    0.723E-01
DAV:   6    -0.132394329749E+04    0.22165E-02   -0.69358E-03 42050   0.307E-01    0.376E-01
DAV:   7    -0.132394325855E+04    0.38943E-04   -0.42822E-03 39240   0.203E-01    0.187E-01
DAV:   8    -0.132394385187E+04   -0.59332E-03   -0.70438E-04 36380   0.896E-02    0.810E-02
DAV:   9    -0.132394362346E+04    0.22841E-03   -0.16342E-04 34090   0.281E-02    0.609E-02
DAV:  10    -0.132394364549E+04   -0.22028E-04   -0.25879E-05 19270   0.173E-02
  73 F= -.13239436E+04 E0= -.13239436E+04  d E =-.412337E+00  mag=   114.0000
[...]
DAV:   6    -0.132404952334E+04    0.47373E-03   -0.71522E-04 40140   0.947E-02    0.843E-02
DAV:   7    -0.132404972346E+04   -0.20012E-03   -0.31942E-04 35950   0.489E-02    0.343E-02
DAV:   8    -0.132404969276E+04    0.30701E-04   -0.34908E-05 20180   0.162E-02
 154 F= -.13240497E+04 E0= -.13240497E+04  d E =0.170997E-01  mag=   114.0000
       N       E                     dE             d eps       ncg     rms          rms(c)
DAV:   1    -0.132386040655E+04    0.18932E+00   -0.11843E+01 42080   0.113E+01    0.181E+00
DAV:   2    -0.132402074415E+04   -0.16034E+00   -0.16240E+00 36150   0.206E+00    0.940E-01
DAV:   3    -0.132402255591E+04   -0.18118E-02   -0.45272E-02 36390   0.402E-01    0.430E-01
DAV:   4    -0.132402216699E+04    0.38892E-03   -0.27540E-03 41170   0.976E-02    0.319E-01
DAV:   5    -0.132402152152E+04    0.64547E-03   -0.76412E-04 42520   0.107E-01    0.182E-01
DAV:   6    -0.132402140234E+04    0.11918E-03   -0.86986E-04 40970   0.987E-02    0.102E-01
DAV:   7    -0.132402136647E+04    0.35868E-04   -0.33637E-04 35720   0.550E-02
 155 F= -.13240214E+04 E0= -.13240214E+04  d E =0.283263E-01  mag=   114.0000
       N       E                     dE             d eps       ncg     rms          rms(c)
DAV:   1    -0.132364810932E+04    0.37329E+00   -0.18261E+01 45560   0.164E+01    0.266E+00
DAV:   2    -0.132398221200E+04   -0.33410E+00   -0.31826E+00 36550   0.286E+00    0.138E+00
DAV:   3    -0.132398856371E+04   -0.63517E-02   -0.90483E-02 36910   0.624E-01    0.676E-01
DAV:   4    -0.132398844193E+04    0.12178E-03   -0.67375E-03 39560   0.192E-01    0.470E-01
DAV:   5    -0.132398743130E+04    0.10106E-02   -0.18202E-03 41920   0.170E-01    0.327E-01
DAV:   6    -0.132398724699E+04    0.18431E-03   -0.21566E-03 41980   0.171E-01    0.156E-01
DAV:   7    -0.132398707140E+04    0.17560E-03   -0.86558E-04 38210   0.778E-02    0.552E-02
DAV:   8    -0.132398730399E+04   -0.23259E-03   -0.11622E-04 26520   0.280E-02    0.393E-02
DAV:   9    -0.132398725192E+04    0.52065E-04   -0.22396E-05 19560   0.153E-02    0.245E-02
DAV:  10    -0.132398723982E+04    0.12098E-04   -0.66618E-06 18210   0.830E-03
 156 F= -.13239872E+04 E0= -.13239872E+04  d E =0.341266E-01  mag=   114.0000
       N       E                     dE             d eps       ncg     rms          rms(c)
DAV:   1    -0.132355182075E+04    0.43543E+00   -0.14654E+01 47570   0.174E+01    0.304E+00
DAV:   2    -0.132395312961E+04   -0.40131E+00   -0.35959E+00 36790   0.294E+00    0.163E+00
DAV:   3    -0.132396472471E+04   -0.11595E-01   -0.11976E-01 37010   0.720E-01    0.809E-01
DAV:   4    -0.132396403966E+04    0.68505E-03   -0.83179E-03 39490   0.204E-01    0.549E-01
DAV:   5    -0.132396381249E+04    0.22717E-03   -0.13945E-03 41560   0.135E-01    0.391E-01
DAV:   6    -0.132396288966E+04    0.92283E-03   -0.18073E-03 44060   0.176E-01    0.189E-01
DAV:   7    -0.132396333929E+04   -0.44963E-03   -0.11730E-03 38670   0.105E-01    0.841E-02
DAV:   8    -0.132396328308E+04    0.56208E-04   -0.18943E-04 31540   0.448E-02    0.460E-02
DAV:   9    -0.132396328534E+04   -0.22587E-05   -0.30111E-05 19990   0.156E-02
 157 F= -.13239633E+04 E0= -.13239633E+04  d E =0.239545E-01  mag=   114.0000
       N       E                     dE             d eps       ncg     rms          rms(c)
DAV:   1    -0.132006262590E+04    0.39007E+01   -0.13064E+02 46900   0.488E+01    0.958E+00
DAV:   2    -0.132361065542E+04   -0.35480E+01   -0.32076E+01 37810   0.884E+00    0.608E+00
DAV:   3    -0.132370684489E+04   -0.96189E-01   -0.11367E+00 37700   0.222E+00    0.286E+00
DAV:   4    -0.132370232977E+04    0.45151E-02   -0.75219E-02 40420   0.649E-01    0.200E+00
DAV:   5    -0.132369095422E+04    0.11376E-01   -0.17208E-02 39860   0.389E-01    0.143E+00
DAV:   6    -0.132368496211E+04    0.59921E-02   -0.13814E-02 40790   0.466E-01    0.788E-01
DAV:   7    -0.132368336659E+04    0.15955E-02   -0.10624E-02 40630   0.316E-01    0.255E-01
DAV:   8    -0.132368488568E+04   -0.15191E-02   -0.28129E-03 37290   0.141E-01    0.129E-01
DAV:   9    -0.132368472951E+04    0.15618E-03   -0.56657E-04 36830   0.616E-02    0.100E-01
DAV:  10    -0.132368459973E+04    0.12978E-03   -0.96965E-05 25890   0.336E-02    0.509E-02
DAV:  11    -0.132368476412E+04   -0.16440E-03   -0.44484E-05 21950   0.186E-02    0.233E-02
DAV:  12    -0.132368475792E+04    0.62027E-05   -0.18835E-05 19040   0.137E-02
 158 F= -.13236848E+04 E0= -.13236848E+04  d E =0.278527E+00  mag=   114.0000
       N       E                     dE             d eps       ncg     rms          rms(c)
DAV:   1    -0.132285113477E+04    0.83363E+00   -0.32338E+01 50250   0.279E+01    0.530E+00
DAV:   2    -0.132390222243E+04   -0.10511E+01   -0.91930E+00 38330   0.475E+00    0.330E+00
DAV:   3    -0.132394327214E+04   -0.41050E-01   -0.38950E-01 37230   0.143E+00    0.164E+00
DAV:   4    -0.132394309171E+04    0.18044E-03   -0.30915E-02 38790   0.458E-01    0.972E-01
DAV:   5    -0.132394017825E+04    0.29135E-02   -0.82523E-03 40320   0.286E-01    0.719E-01
DAV:   6    -0.132393869379E+04    0.14845E-02   -0.58224E-03 40650   0.268E-01    0.389E-01
DAV:   7    -0.132393814103E+04    0.55276E-03   -0.24708E-03 40850   0.146E-01    0.122E-01
DAV:   8    -0.132393872165E+04   -0.58062E-03   -0.69144E-04 36830   0.667E-02    0.589E-02
DAV:   9    -0.132393860734E+04    0.11431E-03   -0.14361E-04 31670   0.263E-02    0.456E-02
DAV:  10    -0.132393853574E+04    0.71598E-04   -0.22482E-05 19120   0.143E-02    0.249E-02
DAV:  11    -0.132393863303E+04   -0.97291E-04   -0.12182E-05 18710   0.101E-02    0.166E-02
DAV:  12    -0.132393862110E+04    0.11934E-04   -0.56922E-06 18440   0.784E-03
 159 F= -.13239386E+04 E0= -.13239386E+04  d E =-.253863E+00  mag=   114.0000
       N       E                     dE             d eps       ncg     rms          rms(c)
DAV:   1    -0.132375829400E+04    0.18034E+00   -0.57264E+00 48940   0.114E+01    0.216E+00
DAV:   2    -0.132396004038E+04   -0.20175E+00   -0.17774E+00 38070   0.194E+00    0.116E+00
DAV:   3    -0.132396656597E+04   -0.65256E-02   -0.64977E-02 37170   0.529E-01    0.615E-01
DAV:   4    -0.132396660216E+04   -0.36197E-04   -0.48145E-03 39410   0.163E-01    0.388E-01
DAV:   5    -0.132396580881E+04    0.79335E-03   -0.11352E-03 38840   0.110E-01    0.286E-01
DAV:   6    -0.132396559258E+04    0.21623E-03   -0.10876E-03 42130   0.117E-01    0.148E-01
DAV:   7    -0.132396541958E+04    0.17300E-03   -0.44464E-04 38510   0.617E-02    0.469E-02
DAV:   8    -0.132396556833E+04   -0.14875E-03   -0.99840E-05 26760   0.265E-02    0.245E-02
DAV:   9    -0.132396554364E+04    0.24687E-04   -0.20494E-05 18770   0.965E-03
 160 F= -.13239655E+04 E0= -.13239655E+04  d E =-.269225E-01  mag=   114.0000
       N       E                     dE             d eps       ncg     rms          rms(c)
DAV:   1    -0.132395532665E+04    0.10242E-01   -0.42903E-01 48300   0.317E+00    0.544E-01
DAV:   2    -0.132396924418E+04   -0.13918E-01   -0.12685E-01 37450   0.546E-01    0.267E-01
DAV:   3    -0.132396956340E+04   -0.31922E-03   -0.40183E-03 37140   0.125E-01    0.140E-01
DAV:   4    -0.132396951073E+04    0.52673E-04   -0.23689E-04 29040   0.291E-02    0.102E-01
DAV:   5    -0.132396939399E+04    0.11674E-03   -0.52999E-05 21750   0.293E-02    0.679E-02
DAV:   6    -0.132396945031E+04   -0.56322E-04   -0.88041E-05 25180   0.342E-02    0.369E-02
DAV:   7    -0.132396938600E+04    0.64313E-04   -0.47017E-05 20120   0.202E-02    0.127E-02
DAV:   8    -0.132396940475E+04   -0.18753E-04   -0.85723E-06 18070   0.770E-03
 161 F= -.13239694E+04 E0= -.13239694E+04  d E =-.386111E-02  mag=   114.0000
       N       E                     dE             d eps       ncg     rms          rms(c)
DAV:   1    -0.132387427074E+04    0.95115E-01   -0.32555E+00 47520   0.850E+00    0.140E+00
DAV:   2    -0.132397290450E+04   -0.98634E-01   -0.89263E-01 36730   0.142E+00    0.689E-01
DAV:   3    -0.132397465286E+04   -0.17484E-02   -0.28268E-02 36860   0.319E-01    0.345E-01
DAV:   4    -0.132397455984E+04    0.93021E-04   -0.17025E-03 39690   0.752E-02    0.261E-01
DAV:   5    -0.132397409262E+04    0.46722E-03   -0.29821E-04 34780   0.749E-02    0.162E-01
DAV:   6    -0.132397424340E+04   -0.15078E-03   -0.42793E-04 40250   0.783E-02    0.751E-02
DAV:   7    -0.132397404557E+04    0.19783E-03   -0.21290E-04 33340   0.431E-02    0.312E-02
DAV:   8    -0.132397410369E+04   -0.58120E-04   -0.26393E-05 19580   0.161E-02    0.172E-02
DAV:   9    -0.132397410668E+04   -0.29949E-05   -0.69697E-06 18150   0.802E-03
 162 F= -.13239741E+04 E0= -.13239741E+04  d E =-.470193E-02  mag=   114.0000
       N       E                     dE             d eps       ncg     rms          rms(c)
DAV:   1    -0.132396429785E+04    0.98058E-02   -0.45628E-01 45780   0.283E+00    0.474E-01
DAV:   2    -0.132397556011E+04   -0.11262E-01   -0.10525E-01 37170   0.493E-01    0.233E-01
DAV:   3    -0.132397567999E+04   -0.11988E-03   -0.32051E-03 36720   0.111E-01    0.126E-01
DAV:   4    -0.132397572535E+04   -0.45364E-04   -0.20893E-04 28690   0.295E-02
 163 F= -.13239757E+04 E0= -.13239757E+04  d E =-.161867E-02  mag=   114.0000
       N       E                     dE             d eps       ncg     rms          rms(c)
DAV:   1    -0.132346132875E+04    0.51435E+00   -0.22946E+01 44610   0.192E+01    0.315E+00
DAV:   2    -0.132395933091E+04   -0.49800E+00   -0.46919E+00 36450   0.335E+00    0.165E+00
DAV:   3    -0.132396768405E+04   -0.83531E-02   -0.15268E-01 36870   0.738E-01    0.820E-01
DAV:   4    -0.132396736848E+04    0.31558E-03   -0.10025E-02 41010   0.191E-01    0.628E-01
DAV:   5    -0.132396521591E+04    0.21526E-02   -0.17678E-03 42480   0.168E-01    0.408E-01
DAV:   6    -0.132396492482E+04    0.29109E-03   -0.26094E-03 44030   0.194E-01    0.205E-01
DAV:   7    -0.132396454493E+04    0.37989E-03   -0.13627E-03 38350   0.103E-01    0.738E-02
DAV:   8    -0.132396478860E+04   -0.24367E-03   -0.15536E-04 30570   0.350E-02    0.455E-02
DAV:   9    -0.132396481137E+04   -0.22768E-04   -0.32847E-05 20380   0.182E-02
 164 F= -.13239648E+04 E0= -.13239648E+04  d E =0.109140E-01  mag=   114.0000
       N       E                     dE             d eps       ncg     rms          rms(c)
DAV:   1    -0.132365619380E+04    0.30859E+00   -0.21196E+01 42160   0.158E+01    0.246E+00
DAV:   2    -0.132395491579E+04   -0.29872E+00   -0.30084E+00 37270   0.286E+00    0.125E+00
DAV:   3    -0.132395869043E+04   -0.37746E-02   -0.85020E-02 36680   0.576E-01    0.625E-01
DAV:   4    -0.132395753808E+04    0.11524E-02   -0.53714E-03 39850   0.139E-01    0.450E-01
DAV:   5    -0.132395631865E+04    0.12194E-02   -0.16396E-03 41710   0.148E-01    0.255E-01
DAV:   6    -0.132395601419E+04    0.30446E-03   -0.15974E-03 42080   0.125E-01    0.128E-01
DAV:   7    -0.132395607594E+04   -0.61748E-04   -0.62306E-04 37410   0.736E-02    0.633E-02
DAV:   8    -0.132395612244E+04   -0.46502E-04   -0.84476E-05 24020   0.263E-02
 165 F= -.13239561E+04 E0= -.13239561E+04  d E =0.868893E-02  mag=   114.0000
       N       E                     dE             d eps       ncg     rms          rms(c)
DAV:   1    -0.132366301302E+04    0.29306E+00   -0.15566E+01 43950   0.153E+01    0.241E+00
DAV:   2    -0.132395503756E+04   -0.29202E+00   -0.28074E+00 37290   0.274E+00    0.128E+00
DAV:   3    -0.132395927722E+04   -0.42397E-02   -0.81964E-02 36900   0.607E-01    0.672E-01
DAV:   4    -0.132395874665E+04    0.53057E-03   -0.58923E-03 39270   0.179E-01    0.461E-01
DAV:   5    -0.132395785084E+04    0.89581E-03   -0.15451E-03 42400   0.147E-01    0.309E-01
DAV:   6    -0.132395722180E+04    0.62903E-03   -0.17360E-03 41380   0.158E-01    0.146E-01
DAV:   7    -0.132395738763E+04   -0.16582E-03   -0.85318E-04 38590   0.835E-02    0.608E-02
DAV:   8    -0.132395730094E+04    0.86690E-04   -0.11673E-04 26250   0.312E-02    0.358E-02
DAV:   9    -0.132395735231E+04   -0.51372E-04   -0.23202E-05 19670   0.145E-02    0.244E-02
DAV:  10    -0.132395731397E+04    0.38340E-04   -0.70626E-06 18360   0.903E-03
 166 F= -.13239573E+04 E0= -.13239573E+04  d E =-.119153E-02  mag=   114.0000
       N       E                     dE             d eps       ncg     rms          rms(c)
DAV:   1    -0.132353120727E+04    0.42615E+00   -0.16459E+01 46630   0.182E+01    0.301E+00
DAV:   2    -0.132396460094E+04   -0.43339E+00   -0.38839E+00 36760   0.310E+00    0.162E+00
DAV:   3    -0.132397493059E+04   -0.10330E-01   -0.13177E-01 36830   0.754E-01    0.815E-01
DAV:   4    -0.132397417789E+04    0.75271E-03   -0.98342E-03 39780   0.233E-01    0.549E-01
DAV:   5    -0.132397380907E+04    0.36881E-03   -0.18397E-03 42030   0.153E-01    0.368E-01
DAV:   6    -0.132397273819E+04    0.10709E-02   -0.19352E-03 43380   0.176E-01    0.170E-01
DAV:   7    -0.132397319067E+04   -0.45249E-03   -0.10590E-03 38750   0.932E-02    0.699E-02
DAV:   8    -0.132397313725E+04    0.53422E-04   -0.13770E-04 29260   0.375E-02    0.399E-02
DAV:   9    -0.132397310498E+04    0.32268E-04   -0.27971E-05 20070   0.162E-02
 167 F= -.13239731E+04 E0= -.13239731E+04  d E =-.157910E-01  mag=   114.0000
       N       E                     dE             d eps       ncg     rms          rms(c)
DAV:   1    -0.132388842835E+04    0.84709E-01   -0.50602E+00 43820   0.901E+00    0.151E+00
DAV:   2    -0.132399405620E+04   -0.10563E+00   -0.10025E+00 37550   0.163E+00    0.768E-01
DAV:   3    -0.132399570274E+04   -0.16465E-02   -0.29720E-02 37160   0.363E-01    0.420E-01
DAV:   4    -0.132399564054E+04    0.62198E-04   -0.18507E-03 39260   0.834E-02    0.286E-01
DAV:   5    -0.132399514422E+04    0.49632E-03   -0.49018E-04 39200   0.787E-02    0.170E-01
DAV:   6    -0.132399506986E+04    0.74356E-04   -0.52597E-04 40350   0.797E-02    0.809E-02
DAV:   7    -0.132399504233E+04    0.27533E-04   -0.26449E-04 36220   0.472E-02
 168 F= -.13239950E+04 E0= -.13239950E+04  d E =-.219373E-01  mag=   114.0000
       N       E                     dE             d eps       ncg     rms          rms(c)
DAV:   1    -0.132354023292E+04    0.45484E+00   -0.26710E+01 42840   0.198E+01    0.330E+00
DAV:   2    -0.132404870472E+04   -0.50847E+00   -0.47746E+00 36600   0.354E+00    0.169E+00
DAV:   3    -0.132405600548E+04   -0.73008E-02   -0.14118E-01 37010   0.778E-01    0.868E-01
DAV:   4    -0.132405605069E+04   -0.45209E-04   -0.96081E-03 39380   0.196E-01    0.607E-01
DAV:   5    -0.132405443775E+04    0.16129E-02   -0.18644E-03 41980   0.170E-01    0.381E-01
DAV:   6    -0.132405442736E+04    0.10385E-04   -0.25532E-03 41180   0.188E-01    0.206E-01
DAV:   7    -0.132405405424E+04    0.37312E-03   -0.12297E-03 38360   0.105E-01    0.722E-02
DAV:   8    -0.132405433525E+04   -0.28100E-03   -0.13183E-04 29310   0.339E-02    0.394E-02
DAV:   9    -0.132405434637E+04   -0.11120E-04   -0.27129E-05 20320   0.169E-02
 169 F= -.13240543E+04 E0= -.13240543E+04  d E =-.593040E-01  mag=   114.0000
       N       E                     dE             d eps       ncg     rms          rms(c)
DAV:   1    -0.132122859359E+04    0.28257E+01   -0.80490E+01 48380   0.460E+01    0.813E+00
DAV:   2    -0.132390515019E+04   -0.26766E+01   -0.23261E+01 37780   0.778E+00    0.483E+00
DAV:   3    -0.132397941765E+04   -0.74267E-01   -0.75950E-01 37130   0.188E+00    0.205E+00
DAV:   4    -0.132398103930E+04   -0.16216E-02   -0.47073E-02 40930   0.419E-01    0.135E+00
DAV:   5    -0.132397625823E+04    0.47811E-02   -0.90011E-03 42370   0.284E-01    0.854E-01
DAV:   6    -0.132397399244E+04    0.22658E-02   -0.62103E-03 43640   0.305E-01    0.356E-01
DAV:   7    -0.132397470868E+04   -0.71623E-03   -0.43191E-03 38900   0.183E-01    0.203E-01
DAV:   8    -0.132397560347E+04   -0.89479E-03   -0.73692E-04 35770   0.884E-02    0.816E-02
DAV:   9    -0.132397531647E+04    0.28700E-03   -0.16676E-04 30970   0.313E-02    0.533E-02
DAV:  10    -0.132397529560E+04    0.20870E-04   -0.35546E-05 20330   0.212E-02
 170 F= -.13239753E+04 E0= -.13239753E+04  d E =0.790508E-01  mag=   114.0000
       N       E                     dE             d eps       ncg     rms          rms(c)
DAV:   1    -0.132331906645E+04    0.65625E+00   -0.24194E+01 49510   0.259E+01    0.437E+00
DAV:   2    -0.132414411143E+04   -0.82504E+00   -0.71188E+00 38000   0.426E+00    0.227E+00
DAV:   3    -0.132417109894E+04   -0.26988E-01   -0.26582E-01 36800   0.109E+00    0.112E+00
DAV:   4    -0.132417200436E+04   -0.90542E-03   -0.17804E-02 39830   0.301E-01    0.726E-01
DAV:   5    -0.132416979149E+04    0.22129E-02   -0.41669E-03 41480   0.195E-01    0.487E-01
DAV:   6    -0.132416875962E+04    0.10319E-02   -0.28715E-03 43250   0.212E-01    0.236E-01
DAV:   7    -0.132416872920E+04    0.30420E-04   -0.14708E-03 39110   0.116E-01    0.926E-02
DAV:   8    -0.132416897755E+04   -0.24835E-03   -0.26929E-04 33530   0.488E-02    0.446E-02
DAV:   9    -0.132416894188E+04    0.35666E-04   -0.63535E-05 21230   0.222E-02
 171 F= -.13241689E+04 E0= -.13241689E+04  d E =-.193646E+00  mag=   114.0000
       N       E                     dE             d eps       ncg     rms          rms(c)
DAV:   1    -0.132411010680E+04    0.58871E-01   -0.25006E+00 49250   0.824E+00    0.142E+00
DAV:   2    -0.132419775293E+04   -0.87646E-01   -0.74733E-01 37350   0.136E+00    0.669E-01
DAV:   3    -0.132420040861E+04   -0.26557E-02   -0.27082E-02 37260   0.313E-01    0.313E-01
DAV:   4    -0.132420048839E+04   -0.79781E-04   -0.16318E-03 38180   0.669E-02    0.217E-01
DAV:   5    -0.132420026122E+04    0.22717E-03   -0.29577E-04 34550   0.616E-02    0.132E-01
DAV:   6    -0.132420022099E+04    0.40230E-04   -0.27040E-04 38670   0.632E-02
 172 F= -.13242002E+04 E0= -.13242002E+04  d E =-.312791E-01  mag=   114.0000
       N       E                     dE             d eps       ncg     rms          rms(c)
DAV:   1    -0.132417255663E+04    0.27705E-01   -0.16960E+00 47480   0.650E+00    0.111E+00
DAV:   2    -0.132422756624E+04   -0.55010E-01   -0.48104E-01 36970   0.109E+00    0.533E-01
DAV:   3    -0.132422892727E+04   -0.13610E-02   -0.17050E-02 36960   0.247E-01    0.245E-01
DAV:   4    -0.132422899015E+04   -0.62882E-04   -0.10865E-03 37840   0.621E-02    0.180E-01
DAV:   5    -0.132422887046E+04    0.11968E-03   -0.15724E-04 28210   0.535E-02    0.119E-01
DAV:   6    -0.132422890324E+04   -0.32778E-04   -0.25037E-04 34020   0.620E-02
 173 F= -.13242289E+04 E0= -.13242289E+04  d E =-.286823E-01  mag=   114.0000
       N       E                     dE             d eps       ncg     rms          rms(c)
DAV:   1    -0.132418740947E+04    0.41461E-01   -0.38056E+00 43350   0.832E+00    0.141E+00
DAV:   2    -0.132427969869E+04   -0.92289E-01   -0.85376E-01 37730   0.148E+00    0.688E-01
DAV:   3    -0.132428062766E+04   -0.92897E-03   -0.24470E-02 36750   0.330E-01    0.359E-01
DAV:   4    -0.132428083341E+04   -0.20575E-03   -0.17493E-03 39080   0.942E-02    0.256E-01
DAV:   5    -0.132428051527E+04    0.31814E-03   -0.31937E-04 34640   0.743E-02    0.170E-01
DAV:   6    -0.132428057554E+04   -0.60270E-04   -0.47803E-04 39060   0.845E-02    0.768E-02
DAV:   7    -0.132428050449E+04    0.71056E-04   -0.20867E-04 34710   0.422E-02    0.281E-02
DAV:   8    -0.132428056059E+04   -0.56109E-04   -0.25772E-05 19730   0.151E-02    0.186E-02
DAV:   9    -0.132428057757E+04   -0.16977E-04   -0.64100E-06 18230   0.708E-03
 174 F= -.13242806E+04 E0= -.13242806E+04  d E =-.516743E-01  mag=   114.0000
       N       E                     dE             d eps       ncg     rms          rms(c)
DAV:   1    -0.132404896284E+04    0.23160E+00   -0.27361E+01 39900   0.166E+01    0.278E+00
DAV:   2    -0.132441332080E+04   -0.36436E+00   -0.35504E+00 37490   0.314E+00    0.149E+00
DAV:   3    -0.132441552875E+04   -0.22080E-02   -0.10387E-01 36900   0.730E-01    0.835E-01
DAV:   4    -0.132441573369E+04   -0.20494E-03   -0.81583E-03 39250   0.215E-01    0.534E-01
