       N       E                     dE             d eps       ncg     rms          ort
DAV:   1     0.286096174360E+04    0.28610E+04   -0.29287E+05  2880   0.141E+03
DAV:   2    -0.965656168488E+03   -0.38266E+04   -0.36868E+04  2880   0.314E+02
DAV:   3    -0.123110351743E+04   -0.26545E+03   -0.26366E+03  2880   0.859E+01
DAV:   4    -0.123428467489E+04   -0.31812E+01   -0.31698E+01  2880   0.100E+01
DAV:   5    -0.123433862442E+04   -0.53950E-01   -0.53826E-01  2880   0.119E+00
SDA:   6    -0.873201230252E+03    0.36114E+03   -0.53826E-01  2880   0.619E+03 0.000E+00
CGA:   7    -0.986209864575E+03   -0.11301E+03   -0.11282E+03  2880   0.443E+02-0.266E+01
CGA:   8    -0.999411886056E+03   -0.13202E+02   -0.13176E+02  2880   0.105E+02 0.221E+00
CGA:   9    -0.100325985505E+04   -0.38480E+01   -0.38494E+01  2880   0.403E+01-0.136E-01
CGA:  10    -0.100453342273E+04   -0.12736E+01   -0.12773E+01  2880   0.869E+00-0.325E-01
CGA:  11    -0.100486836033E+04   -0.33494E+00   -0.33509E+00  2880   0.190E+00-0.706E-03
CGA:  12    -0.100493385826E+04   -0.65498E-01   -0.65487E-01  2880   0.435E-01 0.577E-04
CGA:  13    -0.100495028670E+04   -0.16428E-01   -0.16556E-01  2880   0.100E-01-0.872E-03
CGA:  14    -0.100495401485E+04   -0.37282E-02   -0.36491E-02  2880   0.218E-02 0.589E-03
CGA:  15    -0.100495497468E+04   -0.95983E-03   -0.92966E-03  2880   0.544E-03 0.192E-03
CGA:  16    -0.100495525537E+04   -0.28069E-03   -0.37917E-03  2880   0.405E-03-0.255E-03
CGA:  17    -0.100495532047E+04   -0.65105E-04   -0.65100E-04  2880   0.162E-03-0.329E-06
CGA:  18    -0.100495534951E+04   -0.29040E-04   -0.32420E-04  2880   0.658E-04 0.453E-04
CGA:  19    -0.100495536310E+04   -0.13585E-04   -0.16172E-04  2880   0.345E-04 0.328E-04
CGA:  20    -0.100495537318E+04   -0.10085E-04   -0.10943E-04  2880   0.154E-04 0.155E-04
CGA:  21    -0.100495538057E+04   -0.73858E-05   -0.77249E-05  2880   0.868E-05-0.411E-05
   1 F= -.10049554E+04 E0= -.10049554E+04  d E =-.100496E+04  mag=    -0.0000
