       N       E                     dE             d eps       ncg     rms          rms(c)
DAV:   1     0.344868082233E+04    0.34487E+04   -0.18828E+05 10380   0.128E+03
DAV:   2    -0.370014943030E+02   -0.34857E+04   -0.33464E+04 13128   0.228E+02
DAV:   3    -0.517065950996E+03   -0.48006E+03   -0.47533E+03 12804   0.929E+01
DAV:   4    -0.540387008797E+03   -0.23321E+02   -0.23146E+02 13224   0.229E+01
DAV:   5    -0.541570521938E+03   -0.11835E+01   -0.11816E+01 15108   0.502E+00    0.622E+01
DAV:   6    -0.523612977295E+03    0.17958E+02   -0.37032E+01 11676   0.699E+00    0.420E+01
DAV:   7    -0.522398210043E+03    0.12148E+01   -0.24991E+01 12732   0.566E+00    0.819E+00
DAV:   8    -0.521906403848E+03    0.49181E+00   -0.31997E+00 11880   0.236E+00    0.561E+00
DAV:   9    -0.521951139137E+03   -0.44735E-01   -0.32792E-01 13536   0.852E-01    0.167E+00
DAV:  10    -0.521952355357E+03   -0.12162E-02   -0.31327E-02 12768   0.273E-01    0.112E+00
DAV:  11    -0.521955829759E+03   -0.34744E-02   -0.46001E-03 12216   0.112E-01    0.735E-01
DAV:  12    -0.521959657869E+03   -0.38281E-02   -0.47495E-03 11160   0.113E-01    0.142E-01
DAV:  13    -0.521960075904E+03   -0.41803E-03   -0.74389E-04 15180   0.381E-02    0.162E-01
DAV:  14    -0.521960130275E+03   -0.54371E-04   -0.80629E-05 12984   0.127E-02    0.112E-01
DAV:  15    -0.521960209788E+03   -0.79513E-04   -0.62603E-05 10368   0.122E-02    0.517E-02
DAV:  16    -0.521960227481E+03   -0.17693E-04   -0.25558E-05  9396   0.738E-03    0.123E-02
DAV:  17    -0.521960231806E+03   -0.43245E-05   -0.64406E-06  6396   0.402E-03
   1 F= -.52196023E+03 E0= -.52196023E+03  d E =-.521960E+03  mag=     0.0059
       N       E                     dE             d eps       ncg     rms          rms(c)
DAV:   1    -0.521961931721E+03   -0.17042E-02   -0.42515E-03 10848   0.886E-02    0.730E-02
DAV:   2    -0.521961962421E+03   -0.30700E-04   -0.39255E-04 14628   0.289E-02    0.225E-02
DAV:   3    -0.521961959456E+03    0.29651E-05   -0.13824E-05  8124   0.638E-03    0.142E-02
DAV:   4    -0.521961958494E+03    0.96198E-06   -0.52838E-06  5952   0.389E-03
   2 F= -.52196196E+03 E0= -.52196196E+03  d E =-.172669E-02  mag=     0.0009
       N       E                     dE             d eps       ncg     rms          rms(c)
DAV:   1    -0.521971499480E+03   -0.95400E-02   -0.36842E-01 10584   0.819E-01    0.650E-01
DAV:   2    -0.521974148755E+03   -0.26493E-02   -0.33360E-02 14604   0.265E-01    0.202E-01
DAV:   3    -0.521973933918E+03    0.21484E-03   -0.13136E-03 13596   0.575E-02    0.133E-01
DAV:   4    -0.521973863884E+03    0.70034E-04   -0.24060E-04 14052   0.230E-02    0.595E-02
DAV:   5    -0.521973840093E+03    0.23791E-04   -0.47272E-05 12324   0.134E-02    0.293E-02
DAV:   6    -0.521973839527E+03    0.56692E-06   -0.28232E-05 10584   0.921E-03
   3 F= -.52197384E+03 E0= -.52197384E+03  d E =-.118810E-01  mag=     0.0001
       N       E                     dE             d eps       ncg     rms          rms(c)
DAV:   1    -0.521979060320E+03   -0.52202E-02   -0.14083E+00 10416   0.148E+00    0.745E-01
DAV:   2    -0.521988477353E+03   -0.94170E-02   -0.10953E-01 14640   0.467E-01    0.323E-01
DAV:   3    -0.521987982477E+03    0.49488E-03   -0.22346E-03 12888   0.761E-02    0.259E-01
DAV:   4    -0.521987785844E+03    0.19663E-03   -0.57156E-04 12672   0.325E-02    0.146E-01
DAV:   5    -0.521987721610E+03    0.64235E-04   -0.20209E-04 12624   0.220E-02    0.520E-02
DAV:   6    -0.521987725740E+03   -0.41298E-05   -0.10074E-04 14256   0.142E-02    0.402E-02
DAV:   7    -0.521987724968E+03    0.77166E-06   -0.11498E-05  6624   0.501E-03
   4 F= -.52198772E+03 E0= -.52198772E+03  d E =-.138854E-01  mag=     0.0000
       N       E                     dE             d eps       ncg     rms          rms(c)
DAV:   1    -0.521986920143E+03    0.80560E-03   -0.16690E+00 10368   0.162E+00    0.837E-01
DAV:   2    -0.521998909521E+03   -0.11989E-01   -0.13371E-01 14352   0.521E-01    0.334E-01
DAV:   3    -0.521998274397E+03    0.63512E-03   -0.24303E-03 12528   0.814E-02    0.277E-01
DAV:   4    -0.521998030706E+03    0.24369E-03   -0.77359E-04 12600   0.370E-02    0.160E-01
DAV:   5    -0.521997975656E+03    0.55050E-04   -0.26468E-04 13188   0.230E-02    0.491E-02
DAV:   6    -0.521997981545E+03   -0.58892E-05   -0.68170E-05 13224   0.109E-02
   5 F= -.52199798E+03 E0= -.52199798E+03  d E =-.102566E-01  mag=     0.0000
       N       E                     dE             d eps       ncg     rms          rms(c)
DAV:   1    -0.521979881278E+03    0.18094E-01   -0.37407E+00 10368   0.251E+00    0.144E+00
DAV:   2    -0.522008066978E+03   -0.28186E-01   -0.32112E-01 14712   0.818E-01    0.556E-01
DAV:   3    -0.522006522488E+03    0.15445E-02   -0.59056E-03 12612   0.127E-01    0.456E-01
DAV:   4    -0.522005999548E+03    0.52294E-03   -0.17166E-03 13116   0.563E-02    0.255E-01
DAV:   5    -0.522005841963E+03    0.15759E-03   -0.45320E-04 12660   0.333E-02    0.853E-02
DAV:   6    -0.522005851915E+03   -0.99527E-05   -0.25504E-04 14040   0.225E-02    0.585E-02
DAV:   7    -0.522005849591E+03    0.23245E-05   -0.38392E-05 10428   0.916E-03
   6 F= -.52200585E+03 E0= -.52200585E+03  d E =-.786805E-02  mag=     0.0000
       N       E                     dE             d eps       ncg     rms          rms(c)
DAV:   1    -0.521909059927E+03    0.96792E-01   -0.11810E+01 10368   0.454E+00    0.295E+00
DAV:   2    -0.522001312483E+03   -0.92253E-01   -0.10584E+00 14880   0.150E+00    0.105E+00
DAV:   3    -0.521995852432E+03    0.54601E-02   -0.22524E-02 12732   0.248E-01    0.835E-01
DAV:   4    -0.521993904264E+03    0.19482E-02   -0.65171E-03 13176   0.114E-01    0.423E-01
DAV:   5    -0.521993481879E+03    0.42238E-03   -0.15731E-03 12744   0.688E-02    0.145E-01
DAV:   6    -0.521993552222E+03   -0.70343E-04   -0.83440E-04 13968   0.423E-02    0.155E-01
DAV:   7    -0.521993530414E+03    0.21808E-04   -0.11830E-04 12036   0.156E-02    0.123E-01
DAV:   8    -0.521993509318E+03    0.21096E-04   -0.32035E-05  9360   0.840E-03    0.665E-02
DAV:   9    -0.521993497051E+03    0.12267E-04   -0.46856E-05 11436   0.101E-02    0.159E-02
DAV:  10    -0.521993497823E+03   -0.77241E-06   -0.92185E-06  6300   0.511E-03
   7 F= -.52199350E+03 E0= -.52199350E+03  d E =0.123518E-01  mag=     0.0000
       N       E                     dE             d eps       ncg     rms          rms(c)
DAV:   1    -0.521980317268E+03    0.13180E-01   -0.46492E+00 10368   0.285E+00    0.184E+00
DAV:   2    -0.522016455326E+03   -0.36138E-01   -0.41550E-01 14784   0.945E-01    0.663E-01
DAV:   3    -0.522014182902E+03    0.22724E-02   -0.10207E-02 12840   0.168E-01    0.504E-01
DAV:   4    -0.522013322828E+03    0.86007E-03   -0.28378E-03 13200   0.773E-02    0.242E-01
DAV:   5    -0.522013148379E+03    0.17445E-03   -0.66289E-04 12828   0.475E-02    0.960E-02
DAV:   6    -0.522013177684E+03   -0.29305E-04   -0.36354E-04 14004   0.288E-02    0.106E-01
DAV:   7    -0.522013170890E+03    0.67936E-05   -0.44426E-05 10920   0.948E-03
   8 F= -.52201317E+03 E0= -.52201317E+03  d E =-.196731E-01  mag=     0.0000
       N       E                     dE             d eps       ncg     rms          rms(c)
DAV:   1    -0.522013468291E+03   -0.29061E-03   -0.16766E-01 10368   0.521E-01    0.330E-01
DAV:   2    -0.522014718157E+03   -0.12499E-02   -0.14180E-02 14748   0.171E-01    0.122E-01
DAV:   3    -0.522014644922E+03    0.73235E-04   -0.32374E-04 12720   0.285E-02    0.935E-02
DAV:   4    -0.522014620228E+03    0.24694E-04   -0.99636E-05 12648   0.136E-02    0.445E-02
DAV:   5    -0.522014617731E+03    0.24976E-05   -0.21167E-05  8736   0.713E-03
   9 F= -.52201462E+03 E0= -.52201462E+03  d E =-.144684E-02  mag=     0.0000
       N       E                     dE             d eps       ncg     rms          rms(c)
DAV:   1    -0.522012339018E+03    0.22812E-02   -0.65769E-01 10368   0.101E+00    0.534E-01
DAV:   2    -0.522017043155E+03   -0.47041E-02   -0.53567E-02 14520   0.328E-01    0.212E-01
DAV:   3    -0.522016826813E+03    0.21634E-03   -0.91533E-04 12576   0.485E-02    0.179E-01
DAV:   4    -0.522016749810E+03    0.77003E-04   -0.22627E-04 12792   0.200E-02    0.106E-01
DAV:   5    -0.522016722837E+03    0.26974E-04   -0.99010E-05 11568   0.141E-02    0.302E-02
DAV:   6    -0.522016725521E+03   -0.26845E-05   -0.32832E-05 10248   0.781E-03
  10 F= -.52201673E+03 E0= -.52201673E+03  d E =-.210779E-02  mag=     0.0000
