       N       E                     dE             d eps       ncg     rms          rms(c)
DAV:   1     0.333743877043E+04    0.33374E+04   -0.18701E+05 10368   0.128E+03
DAV:   2    -0.466926563300E+02   -0.33841E+04   -0.32508E+04 12960   0.224E+02
DAV:   3    -0.501878161910E+03   -0.45519E+03   -0.44987E+03 12672   0.907E+01
DAV:   4    -0.523272832870E+03   -0.21395E+02   -0.21214E+02 13248   0.217E+01
DAV:   5    -0.524253295637E+03   -0.98046E+00   -0.97845E+00 14844   0.459E+00    0.162E+00
DAV:   6    -0.524276745270E+03   -0.23450E-01   -0.23421E-01 13344   0.760E-01    0.350E-01
DAV:   7    -0.524278049659E+03   -0.13044E-02   -0.13054E-02 15144   0.163E-01    0.461E-01
DAV:   8    -0.524278111443E+03   -0.61785E-04   -0.61348E-04 11592   0.303E-02    0.439E-01
DAV:   9    -0.524278116921E+03   -0.54777E-05   -0.46322E-05  9600   0.825E-03
   1 F= -.52427812E+03 E0= -.52426906E+03  d E =-.524278E+03  mag=     0.0001
