       N       E                     dE             d eps       ncg     rms          ort
DAV:   1     0.282341205517E+04    0.28234E+04   -0.29345E+05  2880   0.140E+03
DAV:   2    -0.963715035365E+03   -0.37871E+04   -0.36564E+04  2880   0.313E+02
DAV:   3    -0.122135154176E+04   -0.25764E+03   -0.25560E+03  2880   0.850E+01
DAV:   4    -0.122438004856E+04   -0.30285E+01   -0.30180E+01  2880   0.978E+00
DAV:   5    -0.122443006838E+04   -0.50020E-01   -0.49912E-01  2880   0.116E+00
SDA:   6    -0.858612590105E+03    0.36582E+03   -0.49912E-01  2880   0.649E+03 0.000E+00
CGA:   7    -0.965800631619E+03   -0.10719E+03   -0.10799E+03  2880   0.102E+03 0.788E+01
CGA:   8    -0.983516510794E+03   -0.17716E+02   -0.14019E+02  2880   0.841E+02-0.109E+03
CGA:   9    -0.988469457476E+03   -0.49529E+01   -0.82744E+01  2880   0.562E+02-0.502E+02
CGA:  10    -0.991717009437E+03   -0.32476E+01   -0.45422E+01  2880   0.196E+02-0.154E+02
CGA:  11    -0.993302253089E+03   -0.15852E+01   -0.19387E+01  2880   0.255E+02 0.375E+00
CGA:  12    -0.993659706984E+03   -0.35745E+00   -0.23417E+01  2880   0.523E+02-0.699E+01
CGA:  13    -0.994095235343E+03   -0.43553E+00   -0.24328E+01  2880   0.186E+02-0.816E+01
CGA:  14    -0.995016776923E+03   -0.92154E+00   -0.64876E+00  2880   0.179E+02-0.318E+02
CGA:  15    -0.995490084969E+03   -0.47331E+00   -0.12009E+01  2880   0.263E+02-0.170E+02
CGA:  16    -0.995233183215E+03    0.25690E+00   -0.12363E+01  2880   0.720E+02-0.569E+02
CGA:  17    -0.994479187012E+03    0.75400E+00   -0.51549E+01  2880   0.136E+02-0.873E+01
CGA:  18    -0.996355628697E+03   -0.18764E+01   -0.38650E+00  2880   0.268E+02 0.481E+02
CGA:  19    -0.996481387228E+03   -0.12576E+00   -0.11490E+01  2880   0.273E+02-0.242E+02
CGA:  20    -0.996194838187E+03    0.28655E+00   -0.14548E+01  2880   0.361E+02-0.257E+02
CGA:  21    -0.996688546171E+03   -0.49371E+00   -0.16356E+01  2880   0.178E+02-0.200E+02
CGA:  22    -0.997109029237E+03   -0.42048E+00   -0.76290E+00  2880   0.544E+01-0.973E+01
CGA:  23    -0.997201605865E+03   -0.92577E-01   -0.27392E+00  2880   0.271E+01-0.241E+01
CGA:  24    -0.997352852351E+03   -0.15125E+00   -0.15143E+00  2880   0.551E+00 0.425E-01
CGA:  25    -0.997396036830E+03   -0.43184E-01   -0.44570E-01  2880   0.574E+00-0.253E-01
CGA:  26    -0.997518250473E+03   -0.12221E+00   -0.12879E+00  2880   0.736E+00-0.477E-01
CGA:  27    -0.997558168734E+03   -0.39918E-01   -0.48284E-01  2880   0.135E+00-0.399E-01
CGA:  28    -0.997573464415E+03   -0.15296E-01   -0.15262E-01  2880   0.140E+00-0.148E-01
CGA:  29    -0.997591423325E+03   -0.17959E-01   -0.18241E-01  2880   0.884E-01-0.147E-01
CGA:  30    -0.997598159068E+03   -0.67357E-02   -0.65090E-02  2880   0.282E-01-0.512E-02
CGA:  31    -0.997601212639E+03   -0.30536E-02   -0.30649E-02  2880   0.181E-01 0.170E-02
CGA:  32    -0.997603592470E+03   -0.23798E-02   -0.23768E-02  2880   0.131E-01 0.140E-02
CGA:  33    -0.997605592211E+03   -0.19997E-02   -0.20283E-02  2880   0.147E-01-0.135E-02
CGA:  34    -0.997607510347E+03   -0.19181E-02   -0.22487E-02  2880   0.192E-01-0.678E-02
CGA:  35    -0.997608581523E+03   -0.10712E-02   -0.86640E-03  2880   0.325E-02-0.496E-02
CGA:  36    -0.997609378665E+03   -0.79714E-03    0.43244E-03  2880   0.206E-02 0.159E-02
CGA:  37    -0.997610240810E+03   -0.86215E-03    0.13186E-02  2880   0.114E-02 0.168E-02
CGA:  38    -0.997610469568E+03   -0.22876E-03   -0.27397E-03  2880   0.614E-02-0.400E-03
CGA:  39    -0.997610943184E+03   -0.47362E-03   -0.44718E-03  2880   0.531E-02-0.163E-02
CGA:  40    -0.997611103574E+03   -0.16039E-03   -0.10777E-03  2880   0.116E-02-0.526E-03
CGA:  41    -0.997611191833E+03   -0.88259E-04   -0.54377E-04  2880   0.136E-02-0.488E-03
CGA:  42    -0.997610640775E+03    0.55106E-03   -0.24324E-03  2880   0.180E-01-0.422E-02
CGA:  43    -0.997611568802E+03   -0.92803E-03   -0.97798E-03  2880   0.304E-02 0.104E-02
CGA:  44    -0.997611683178E+03   -0.11438E-03   -0.16476E-03  2880   0.420E-03 0.650E-03
CGA:  45    -0.997611668711E+03    0.14466E-04   -0.17723E-04  2880   0.308E-03 0.375E-03
CGA:  46    -0.997611658529E+03    0.10183E-04   -0.10832E-04  2880   0.225E-03 0.258E-03
CGA:  47    -0.997611650302E+03    0.82272E-05   -0.76034E-05  2880   0.182E-03 0.201E-03
   1 F= -.99761165E+03 E0= -.99760027E+03  d E =-.997612E+03  mag=     2.0000
       N       E                     dE             d eps       ncg     rms          ort
SDA:   1    -0.997612873815E+03   -0.12153E-02    0.00000E+00  2880   0.832E-02 0.000E+00
CGA:   2    -0.997613678355E+03   -0.80454E-03   -0.77650E-03  2880   0.971E-02-0.238E-02
CGA:   3    -0.997614412653E+03   -0.73430E-03   -0.11819E-02  2880   0.136E-01-0.681E-02
CGA:   4    -0.997615043320E+03   -0.63067E-03   -0.73550E-03  2880   0.250E-02 0.221E-02
CGA:   5    -0.997615100560E+03   -0.57240E-04   -0.12543E-03  2880   0.615E-03 0.109E-02
CGA:   6    -0.997615093065E+03    0.74953E-05   -0.29820E-04  2880   0.362E-03 0.547E-03
CGA:   7    -0.997615094481E+03   -0.14160E-05   -0.15588E-04  2880   0.207E-03 0.255E-03
   2 F= -.99761509E+03 E0= -.99760372E+03  d E =-.344418E-02  mag=     2.0000
       N       E                     dE             d eps       ncg     rms          ort
SDA:   1    -0.997591935525E+03    0.23158E-01    0.00000E+00  2880   0.128E+00 0.000E+00
CGA:   2    -0.997602241132E+03   -0.10306E-01   -0.10320E-01  2880   0.126E+00 0.109E-03
CGA:   3    -0.997621147907E+03   -0.18907E-01   -0.18906E-01  2880   0.450E-01-0.340E-03
CGA:   4    -0.997625361634E+03   -0.42137E-02   -0.42130E-02  2880   0.874E-02 0.515E-03
CGA:   5    -0.997627534842E+03   -0.21732E-02   -0.21845E-02  2880   0.378E-02-0.719E-04
CGA:   6    -0.997627740769E+03   -0.20593E-03   -0.20312E-03  2880   0.144E-02-0.107E-03
CGA:   7    -0.997627251595E+03    0.48917E-03   -0.34392E-03  2880   0.907E-02-0.260E-02
CGA:   8    -0.997627658419E+03   -0.40682E-03   -0.49077E-03  2880   0.374E-02 0.408E-03
CGA:   9    -0.997628033687E+03   -0.37527E-03   -0.43710E-03  2880   0.439E-03 0.962E-03
CGA:  10    -0.997628137568E+03   -0.10388E-03   -0.10967E-03  2880   0.175E-02-0.236E-03
CGA:  11    -0.997628197965E+03   -0.60398E-04   -0.65689E-04  2880   0.107E-03 0.303E-05
CGA:  12    -0.997628235368E+03   -0.37402E-04    0.25828E-03  2880   0.715E-04 0.352E-04
CGA:  13    -0.997627974158E+03    0.26121E-03   -0.14152E-03  2880   0.363E-02-0.404E-03
CGA:  14    -0.997628140087E+03   -0.16593E-03   -0.19850E-03  2880   0.779E-03 0.273E-03
CGA:  15    -0.997628177607E+03   -0.37520E-04   -0.58415E-04  2880   0.283E-03 0.809E-04
CGA:  16    -0.997628216272E+03   -0.38666E-04   -0.48734E-04  2880   0.886E-04 0.804E-04
CGA:  17    -0.997628237078E+03   -0.20805E-04   -0.14267E-04  2880   0.204E-03-0.441E-04
CGA:  18    -0.997628267692E+03   -0.30614E-04   -0.10289E-04  2880   0.289E-03-0.121E-03
CGA:  19    -0.997628276188E+03   -0.84960E-05   -0.15066E-04  2880   0.493E-04 0.275E-04
   3 F= -.99762828E+03 E0= -.99761691E+03  d E =-.131817E-01  mag=     2.0000
       N       E                     dE             d eps       ncg     rms          ort
SDA:   1    -0.997554445496E+03    0.73822E-01    0.00000E+00  2880   0.245E+00 0.000E+00
CGA:   2    -0.997580881412E+03   -0.26436E-01   -0.26805E-01  2880   0.345E+00-0.227E-02
CGA:   3    -0.997619582088E+03   -0.38701E-01   -0.38852E-01  2880   0.795E-01-0.215E-03
CGA:   4    -0.997627604191E+03   -0.80221E-02   -0.74426E-02  2880   0.196E-01 0.503E-02
CGA:   5    -0.997632896106E+03   -0.52919E-02   -0.53318E-02  2880   0.583E-02-0.112E-02
CGA:   6    -0.997633254084E+03   -0.35798E-03   -0.39024E-03  2880   0.413E-02 0.146E-03
CGA:   7    -0.997633787413E+03   -0.53333E-03   -0.56775E-03  2880   0.981E-03 0.423E-03
CGA:   8    -0.997633931120E+03   -0.14371E-03   -0.14120E-03  2880   0.542E-03-0.222E-04
CGA:   9    -0.997631976115E+03    0.19550E-02   -0.10580E-02  2880   0.167E-01-0.236E-02
CGA:  10    -0.997632931273E+03   -0.95516E-03   -0.10980E-02  2880   0.646E-02 0.165E-02
CGA:  11    -0.997633341694E+03   -0.41042E-03   -0.61364E-03  2880   0.313E-02 0.583E-03
CGA:  12    -0.997633674374E+03   -0.33268E-03   -0.42774E-03  2880   0.654E-03 0.430E-03
CGA:  13    -0.997624689862E+03    0.89845E-02   -0.49415E-02  2880   0.792E-01-0.566E-02
CGA:  14    -0.997628791141E+03   -0.41013E-02   -0.61751E-02  2880   0.572E-01-0.153E-01
CGA:  15    -0.997631310405E+03   -0.25193E-02   -0.32401E-02  2880   0.132E-01 0.386E-02
CGA:  16    -0.997632223860E+03   -0.91345E-03   -0.10402E-02  2880   0.781E-02 0.777E-03
CGA:  17    -0.997632828959E+03   -0.60510E-03   -0.64274E-03  2880   0.459E-02-0.868E-03
CGA:  18    -0.997633964122E+03   -0.11352E-02   -0.96223E-03  2880   0.273E-02-0.634E-03
CGA:  19    -0.997634054093E+03   -0.89970E-04   -0.90286E-04  2880   0.447E-03-0.116E-03
CGA:  20    -0.997634065606E+03   -0.11514E-04   -0.52193E-04  2880   0.706E-03 0.117E-03
CGA:  21    -0.997634081380E+03   -0.15774E-04   -0.67197E-04  2880   0.185E-03 0.140E-03
CGA:  22    -0.997634102977E+03   -0.21597E-04   -0.29183E-04  2880   0.635E-04 0.252E-04
CGA:  23    -0.997634216268E+03   -0.11329E-03    0.18009E-04  2880   0.166E-03-0.658E-04
CGA:  24    -0.997634205688E+03    0.10580E-04   -0.86973E-05  2880   0.490E-04 0.506E-04
CGA:  25    -0.997634193566E+03    0.12122E-04   -0.24634E-05  2880   0.267E-04 0.400E-04
CGA:  26    -0.997634187716E+03    0.58498E-05   -0.11473E-05  2880   0.185E-04 0.204E-04
   4 F= -.99763419E+03 E0= -.99762284E+03  d E =-.591153E-02  mag=     2.0000
       N       E                     dE             d eps       ncg     rms          ort
SDA:   1    -0.997629133590E+03    0.50600E-02    0.00000E+00  2880   0.129E-01 0.000E+00
CGA:   2    -0.997631461340E+03   -0.23278E-02   -0.22936E-02  2880   0.275E-01-0.189E-03
CGA:   3    -0.997633357447E+03   -0.18961E-02   -0.19488E-02  2880   0.231E-02-0.481E-03
CGA:   4    -0.997633806681E+03   -0.44923E-03   -0.45290E-03  2880   0.151E-02 0.178E-04
CGA:   5    -0.997633974719E+03   -0.16804E-03   -0.17091E-03  2880   0.206E-03 0.275E-04
CGA:   6    -0.997633434968E+03    0.53975E-03   -0.22568E-03  2880   0.148E-01-0.101E-02
CGA:   7    -0.997633912484E+03   -0.47752E-03   -0.62221E-03  2880   0.184E-02-0.934E-03
CGA:   8    -0.997633995044E+03   -0.82559E-04   -0.18428E-03  2880   0.363E-03 0.449E-03
CGA:   9    -0.997634015831E+03   -0.20788E-04   -0.48510E-04  2880   0.186E-03 0.127E-03
CGA:  10    -0.997634044936E+03   -0.29105E-04   -0.28432E-04  2880   0.187E-03-0.421E-05
CGA:  11    -0.997634071174E+03   -0.26237E-04   -0.18400E-04  2880   0.479E-04-0.389E-04
CGA:  12    -0.997634101800E+03   -0.30626E-04    0.14995E-04  2880   0.220E-03-0.445E-04
CGA:  13    -0.997634103334E+03   -0.15339E-05   -0.80429E-05  2880   0.236E-04 0.226E-04
   5 F= -.99763410E+03 E0= -.99762278E+03  d E =0.843820E-04  mag=     2.0000
       N       E                     dE             d eps       ncg     rms          ort
SDA:   1    -0.997023212359E+03    0.61089E+00    0.00000E+00  2880   0.144E+01 0.000E+00
CGA:   2    -0.997456861243E+03   -0.43365E+00   -0.43330E+00  2880   0.159E+01 0.705E-02
CGA:   3    -0.997514958316E+03   -0.58097E-01   -0.11514E+00  2880   0.965E+00-0.717E+00
CGA:   4    -0.997570230050E+03   -0.55272E-01   -0.55064E-01  2880   0.175E+00-0.342E-02
CGA:   5    -0.997594849475E+03   -0.24619E-01   -0.24999E-01  2880   0.190E+00-0.195E-02
CGA:   6    -0.997605802242E+03   -0.10953E-01   -0.11811E-01  2880   0.639E-01-0.128E-01
CGA:   7    -0.997611302835E+03   -0.55006E-02   -0.58343E-02  2880   0.153E-01-0.373E-02
CGA:   8    -0.997613195943E+03   -0.18931E-02   -0.19088E-02  2880   0.240E-01 0.805E-04
CGA:   9    -0.997614970050E+03   -0.17741E-02   -0.18141E-02  2880   0.351E-02 0.436E-03
CGA:  10    -0.997615708007E+03   -0.73796E-03   -0.73619E-03  2880   0.356E-02-0.149E-03
CGA:  11    -0.997615999812E+03   -0.29181E-03   -0.30280E-03  2880   0.236E-02 0.597E-04
CGA:  12    -0.997616144301E+03   -0.14449E-03   -0.16125E-03  2880   0.423E-03 0.153E-03
CGA:  13    -0.997616270476E+03   -0.12618E-03   -0.12433E-03  2880   0.621E-03 0.248E-04
CGA:  14    -0.997616304686E+03   -0.34210E-04   -0.33232E-04  2880   0.104E-03-0.742E-05
CGA:  15    -0.997616333781E+03   -0.29095E-04   -0.31082E-04  2880   0.149E-03-0.196E-04
CGA:  16    -0.997616354258E+03   -0.20477E-04   -0.16912E-04  2880   0.895E-04-0.555E-04
CGA:  17    -0.997616355521E+03   -0.12630E-05   -0.21378E-05  2880   0.284E-04 0.483E-05
   6 F= -.99761636E+03 E0= -.99760524E+03  d E =0.177478E-01  mag=     2.0000
       N       E                     dE             d eps       ncg     rms          ort
SDA:   1    -0.997252890039E+03    0.36346E+00    0.00000E+00  2880   0.205E+01 0.000E+00
CGA:   2    -0.997363354066E+03   -0.11046E+00   -0.11930E+00  2880   0.117E+01-0.244E+00
CGA:   3    -0.997546807073E+03   -0.18345E+00   -0.18331E+00  2880   0.600E+00-0.445E-01
CGA:   4    -0.997598051690E+03   -0.51245E-01   -0.57058E-01  2880   0.104E+00-0.239E-01
CGA:   5    -0.997618271104E+03   -0.20219E-01   -0.20201E-01  2880   0.102E+00 0.140E-02
CGA:   6    -0.997623844115E+03   -0.55730E-02   -0.54769E-02  2880   0.159E-01 0.233E-02
CGA:   7    -0.997626481111E+03   -0.26370E-02   -0.26242E-02  2880   0.108E-01-0.135E-02
CGA:   8    -0.997627824137E+03   -0.13430E-02   -0.13474E-02  2880   0.478E-02 0.281E-04
CGA:   9    -0.997628070041E+03   -0.24590E-03   -0.28304E-03  2880   0.189E-02 0.271E-03
CGA:  10    -0.997628406498E+03   -0.33646E-03   -0.33363E-03  2880   0.460E-03 0.724E-03
CGA:  11    -0.997628526769E+03   -0.12027E-03   -0.29197E-03  2880   0.682E-02-0.585E-03
CGA:  12    -0.997628758256E+03   -0.23149E-03   -0.25160E-03  2880   0.215E-03-0.102E-03
CGA:  13    -0.997628776130E+03   -0.17874E-04   -0.23625E-04  2880   0.938E-04 0.961E-04
CGA:  14    -0.997628796817E+03   -0.20687E-04   -0.21280E-04  2880   0.373E-04 0.529E-04
CGA:  15    -0.997628814562E+03   -0.17745E-04    0.73980E-05  2880   0.755E-04 0.860E-05
CGA:  16    -0.997628351358E+03    0.46320E-03   -0.25008E-03  2880   0.104E-01-0.614E-03
CGA:  17    -0.997628725323E+03   -0.37396E-03   -0.38630E-03  2880   0.634E-03 0.254E-03
CGA:  18    -0.997628766580E+03   -0.41257E-04   -0.79449E-04  2880   0.211E-03 0.226E-03
CGA:  19    -0.997628780109E+03   -0.13529E-04   -0.24448E-04  2880   0.163E-03 0.548E-04
CGA:  20    -0.997628800436E+03   -0.20328E-04   -0.22017E-04  2880   0.911E-04 0.939E-05
CGA:  21    -0.997628726890E+03    0.73546E-04   -0.79171E-04  2880   0.111E-02-0.274E-03
CGA:  22    -0.997628784751E+03   -0.57862E-04   -0.67798E-04  2880   0.446E-03 0.241E-04
CGA:  23    -0.997628804947E+03   -0.20196E-04   -0.40160E-04  2880   0.216E-03 0.103E-03
CGA:  24    -0.997628814353E+03   -0.94051E-05   -0.28910E-04  2880   0.928E-04 0.120E-03
   7 F= -.99762881E+03 E0= -.99761773E+03  d E =-.124588E-01  mag=     2.0000
       N       E                     dE             d eps       ncg     rms          ort
SDA:   1    -0.997585907940E+03    0.42897E-01    0.00000E+00  2880   0.200E+00 0.000E+00
CGA:   2    -0.997597615291E+03   -0.11707E-01   -0.11166E-01  2880   0.111E+00 0.646E-02
CGA:   3    -0.997623237837E+03   -0.25623E-01   -0.25614E-01  2880   0.168E-01-0.368E-03
CGA:   4    -0.997626468863E+03   -0.32310E-02   -0.32231E-02  2880   0.256E-01-0.167E-03
CGA:   5    -0.997627945767E+03   -0.14769E-02   -0.14724E-02  2880   0.368E-02 0.257E-03
CGA:   6    -0.997628268020E+03   -0.32225E-03   -0.35493E-03  2880   0.121E-02 0.327E-03
CGA:   7    -0.997628518187E+03   -0.25017E-03   -0.25491E-03  2880   0.798E-03 0.147E-03
CGA:   8    -0.997628572417E+03   -0.54230E-04   -0.50387E-04  2880   0.253E-03-0.264E-04
CGA:   9    -0.997628644121E+03   -0.71704E-04   -0.10791E-03  2880   0.100E-02-0.161E-03
CGA:  10    -0.997628676226E+03   -0.32105E-04   -0.39304E-04  2880   0.106E-03 0.325E-04
CGA:  11    -0.997628673558E+03    0.26670E-05   -0.71955E-05  2880   0.552E-04 0.652E-04
   8 F= -.99762867E+03 E0= -.99761755E+03  d E =0.140794E-03  mag=     2.0000
       N       E                     dE             d eps       ncg     rms          ort
SDA:   1    -0.997616603967E+03    0.12072E-01    0.00000E+00  2880   0.936E-01 0.000E+00
CGA:   2    -0.997620666892E+03   -0.40629E-02   -0.44336E-02  2880   0.284E-01-0.603E-02
CGA:   3    -0.997627227436E+03   -0.65605E-02   -0.65629E-02  2880   0.165E-01-0.142E-03
CGA:   4    -0.997628492134E+03   -0.12647E-02   -0.12604E-02  2880   0.467E-02 0.541E-03
CGA:   5    -0.997628866127E+03   -0.37399E-03   -0.37170E-03  2880   0.247E-02-0.833E-04
CGA:   6    -0.997629291001E+03   -0.42487E-03   -0.42187E-03  2880   0.788E-03-0.237E-03
CGA:   7    -0.997629335115E+03   -0.44114E-04   -0.43748E-04  2880   0.339E-03-0.558E-05
CGA:   8    -0.997629371014E+03   -0.35899E-04   -0.42035E-04  2880   0.513E-04 0.112E-03
CGA:   9    -0.997629390072E+03   -0.19058E-04   -0.18607E-04  2880   0.561E-04 0.468E-05
CGA:  10    -0.997629396558E+03   -0.64858E-05   -0.49782E-05  2880   0.533E-04-0.155E-04
   9 F= -.99762940E+03 E0= -.99761823E+03  d E =-.723000E-03  mag=     2.0000
       N       E                     dE             d eps       ncg     rms          ort
SDA:   1    -0.996965075075E+03    0.66431E+00    0.00000E+00  2880   0.159E+01 0.000E+00
CGA:   2    -0.997351850511E+03   -0.38678E+00   -0.38186E+00  2880   0.288E+01 0.616E-01
CGA:   3    -0.997540898103E+03   -0.18905E+00   -0.17652E+00  2880   0.275E+00 0.404E-01
CGA:   4    -0.997589179309E+03   -0.48281E-01   -0.48228E-01  2880   0.251E+00-0.971E-02
CGA:   5    -0.997607853269E+03   -0.18674E-01   -0.18434E-01  2880   0.713E-01-0.287E-02
CGA:   6    -0.997613061494E+03   -0.52082E-02   -0.50949E-02  2880   0.212E-01 0.730E-03
CGA:   7    -0.997616891900E+03   -0.38304E-02   -0.38183E-02  2880   0.152E-01 0.959E-03
CGA:   8    -0.997617794446E+03   -0.90255E-03   -0.94518E-03  2880   0.350E-02 0.125E-03
CGA:   9    -0.997618626524E+03   -0.83208E-03   -0.98051E-03  2880   0.102E-01-0.129E-02
CGA:  10    -0.997618999839E+03   -0.37332E-03   -0.32513E-03  2880   0.249E-02-0.436E-03
CGA:  11    -0.997619079643E+03   -0.79803E-04   -0.98856E-04  2880   0.138E-02 0.152E-03
CGA:  12    -0.997619135748E+03   -0.56105E-04   -0.95785E-04  2880   0.120E-02 0.438E-03
CGA:  13    -0.997619173442E+03   -0.37694E-04   -0.79765E-04  2880   0.694E-03 0.415E-03
CGA:  14    -0.997619207014E+03   -0.33572E-04   -0.60376E-04  2880   0.475E-03 0.329E-03
CGA:  15    -0.997619241645E+03   -0.34631E-04   -0.40207E-04  2880   0.250E-03 0.670E-04
CGA:  16    -0.997619353611E+03   -0.11197E-03    0.46181E-04  2880   0.288E-03 0.629E-04
CGA:  17    -0.997618701251E+03    0.65236E-03   -0.16965E-03  2880   0.175E-01-0.248E-02
CGA:  18    -0.997619287530E+03   -0.58628E-03   -0.68493E-03  2880   0.146E-02 0.270E-03
CGA:  19    -0.997619321454E+03   -0.33924E-04   -0.92164E-04  2880   0.509E-03 0.675E-03
CGA:  20    -0.997619317380E+03    0.40736E-05   -0.36969E-04  2880   0.348E-03 0.434E-03
CGA:  21    -0.997619334971E+03   -0.17591E-04   -0.28602E-04  2880   0.237E-03 0.192E-03
CGA:  22    -0.997619350171E+03   -0.15200E-04   -0.20335E-04  2880   0.225E-03 0.100E-03
CGA:  23    -0.997619371251E+03   -0.21080E-04   -0.29204E-04  2880   0.694E-04 0.189E-03
CGA:  24    -0.997619394777E+03   -0.23526E-04    0.16001E-04  2880   0.530E-04 0.484E-04
CGA:  25    -0.997619404933E+03   -0.10156E-04   -0.10989E-04  2880   0.218E-03-0.116E-04
CGA:  26    -0.997619420268E+03   -0.15335E-04   -0.15876E-04  2880   0.971E-04 0.126E-04
CGA:  27    -0.997619423312E+03   -0.30447E-05   -0.36061E-05  2880   0.170E-04 0.482E-05
  10 F= -.99761942E+03 E0= -.99760807E+03  d E =0.997325E-02  mag=     2.0000
       N       E                     dE             d eps       ncg     rms          ort
SDA:   1    -0.997421332796E+03    0.19809E+00    0.00000E+00  2880   0.846E+00 0.000E+00
CGA:   2    -0.997478248451E+03   -0.56916E-01   -0.56686E-01  2880   0.665E+00-0.835E-02
CGA:   3    -0.997591341414E+03   -0.11309E+00   -0.11400E+00  2880   0.292E+00-0.146E-01
CGA:   4    -0.997616445181E+03   -0.25104E-01   -0.26010E-01  2880   0.501E-01 0.197E-02
CGA:   5    -0.997627213068E+03   -0.10768E-01   -0.10529E-01  2880   0.141E-01 0.284E-02
CGA:   6    -0.997628325926E+03   -0.11129E-02   -0.10943E-02  2880   0.111E-01-0.337E-03
CGA:   7    -0.997630046337E+03   -0.17204E-02   -0.17622E-02  2880   0.196E-02-0.114E-02
CGA:   8    -0.997630249059E+03   -0.20272E-03   -0.20655E-03  2880   0.187E-02 0.381E-03
CGA:   9    -0.997630410931E+03   -0.16187E-03   -0.18375E-03  2880   0.433E-03 0.483E-03
CGA:  10    -0.997630505394E+03   -0.94464E-04   -0.94716E-04  2880   0.703E-03-0.799E-05
CGA:  11    -0.997630574617E+03   -0.69223E-04   -0.65164E-04  2880   0.299E-03-0.128E-03
CGA:  12    -0.997630566434E+03    0.81829E-05   -0.77610E-04  2880   0.171E-02-0.447E-03
CGA:  13    -0.997630624397E+03   -0.57963E-04   -0.73643E-04  2880   0.265E-03 0.162E-03
CGA:  14    -0.997630630018E+03   -0.56213E-05   -0.15429E-04  2880   0.988E-04 0.126E-03
  11 F= -.99763063E+03 E0= -.99761950E+03  d E =-.112067E-01  mag=     2.0000
       N       E                     dE             d eps       ncg     rms          ort
SDA:   1    -0.997603636761E+03    0.26988E-01    0.00000E+00  2880   0.677E-01 0.000E+00
CGA:   2    -0.997623651689E+03   -0.20015E-01   -0.20091E-01  2880   0.751E-01-0.500E-03
CGA:   3    -0.997627558340E+03   -0.39067E-02   -0.39592E-02  2880   0.179E-01-0.535E-03
CGA:   4    -0.997629582625E+03   -0.20243E-02   -0.20325E-02  2880   0.866E-02 0.286E-03
CGA:   5    -0.997630838154E+03   -0.12555E-02   -0.12417E-02  2880   0.837E-03 0.100E-02
CGA:   6    -0.997630963617E+03   -0.12546E-03   -0.57832E-03  2880   0.184E-02-0.920E-03
CGA:   7    -0.997631091527E+03   -0.12791E-03   -0.15649E-03  2880   0.109E-02 0.422E-03
CGA:   8    -0.997631148211E+03   -0.56685E-04   -0.89096E-04  2880   0.237E-03 0.390E-03
CGA:   9    -0.997631179010E+03   -0.30799E-04   -0.34400E-04  2880   0.732E-04 0.950E-04
CGA:  10    -0.997631222497E+03   -0.43487E-04    0.15152E-04  2880   0.795E-04 0.135E-04
CGA:  11    -0.997631252375E+03   -0.29878E-04    0.61463E-04  2880   0.206E-03-0.114E-03
CGA:  12    -0.997631254967E+03   -0.25924E-05   -0.69024E-05  2880   0.257E-04 0.381E-04
  12 F= -.99763125E+03 E0= -.99762013E+03  d E =-.624949E-03  mag=     2.0000
       N       E                     dE             d eps       ncg     rms          ort
SDA:   1    -0.997627717016E+03    0.35354E-02    0.00000E+00  2880   0.125E-01 0.000E+00
CGA:   2    -0.997628892698E+03   -0.11757E-02   -0.11605E-02  2880   0.165E-01-0.427E-03
CGA:   3    -0.997631199010E+03   -0.23063E-02   -0.23166E-02  2880   0.232E-02-0.668E-03
CGA:   4    -0.997631448712E+03   -0.24970E-03   -0.25282E-03  2880   0.879E-03 0.176E-03
CGA:   5    -0.997631550937E+03   -0.10222E-03   -0.10676E-03  2880   0.269E-03 0.271E-03
CGA:   6    -0.997631581264E+03   -0.30327E-04   -0.29827E-04  2880   0.217E-03-0.128E-04
CGA:   7    -0.997630809227E+03    0.77204E-03   -0.41662E-03  2880   0.112E-01-0.136E-02
CGA:   8    -0.997631232208E+03   -0.42298E-03   -0.47914E-03  2880   0.191E-02-0.963E-04
CGA:   9    -0.997631446809E+03   -0.21460E-03   -0.25638E-03  2880   0.683E-03 0.486E-03
CGA:  10    -0.997631543314E+03   -0.96504E-04   -0.11063E-03  2880   0.192E-03 0.161E-03
CGA:  11    -0.997631554358E+03   -0.11045E-04   -0.88445E-04  2880   0.354E-02-0.488E-03
CGA:  12    -0.997631670685E+03   -0.11633E-03   -0.12574E-03  2880   0.932E-04 0.755E-04
CGA:  13    -0.997631662518E+03    0.81673E-05   -0.41438E-05  2880   0.619E-04 0.734E-04
  13 F= -.99763166E+03 E0= -.99762053E+03  d E =-.407550E-03  mag=     2.0000
       N       E                     dE             d eps       ncg     rms          ort
SDA:   1    -0.997355994685E+03    0.27568E+00    0.00000E+00  2880   0.687E+00 0.000E+00
CGA:   2    -0.997501877422E+03   -0.14588E+00   -0.14574E+00  2880   0.159E+01 0.260E-02
CGA:   3    -0.997600947791E+03   -0.99070E-01   -0.10943E+00  2880   0.171E+00-0.122E+00
CGA:   4    -0.997618108086E+03   -0.17160E-01   -0.17953E-01  2880   0.855E-01-0.337E-02
CGA:   5    -0.997627075708E+03   -0.89676E-02   -0.90481E-02  2880   0.538E-01-0.234E-03
CGA:   6    -0.997630489785E+03   -0.34141E-02   -0.35174E-02  2880   0.740E-02-0.960E-03
CGA:   7    -0.997632165698E+03   -0.16759E-02   -0.17069E-02  2880   0.822E-02-0.544E-03
CGA:   8    -0.997632569881E+03   -0.40418E-03   -0.39371E-03  2880   0.118E-02-0.351E-04
CGA:   9    -0.997632714831E+03   -0.14495E-03   -0.15562E-03  2880   0.643E-03 0.266E-03
CGA:  10    -0.997632855722E+03   -0.14089E-03   -0.14035E-03  2880   0.474E-03 0.713E-04
CGA:  11    -0.997632894270E+03   -0.38548E-04   -0.34095E-04  2880   0.223E-03-0.443E-04
CGA:  12    -0.997632879314E+03    0.14956E-04   -0.10692E-03  2880   0.162E-02-0.337E-03
CGA:  13    -0.997632951269E+03   -0.71955E-04   -0.76931E-04  2880   0.308E-03 0.225E-04
CGA:  14    -0.997632962351E+03   -0.11083E-04   -0.21413E-04  2880   0.980E-04 0.949E-04
CGA:  15    -0.997632961924E+03    0.42671E-06   -0.82716E-05  2880   0.745E-04 0.812E-04
  14 F= -.99763296E+03 E0= -.99762184E+03  d E =-.129941E-02  mag=     2.0000
       N       E                     dE             d eps       ncg     rms          ort
SDA:   1    -0.997324767612E+03    0.30819E+00    0.00000E+00  2880   0.735E+00 0.000E+00
CGA:   2    -0.997522404680E+03   -0.19764E+00   -0.19704E+00  2880   0.138E+01 0.398E-02
CGA:   3    -0.997590778868E+03   -0.68374E-01   -0.79188E-01  2880   0.228E+00-0.159E+00
CGA:   4    -0.997612134038E+03   -0.21355E-01   -0.21914E-01  2880   0.942E-01 0.230E-02
CGA:   5    -0.997623270889E+03   -0.11137E-01   -0.11160E-01  2880   0.590E-01 0.560E-03
CGA:   6    -0.997627259313E+03   -0.39884E-02   -0.39523E-02  2880   0.112E-01-0.458E-03
CGA:   7    -0.997629395618E+03   -0.21363E-02   -0.21681E-02  2880   0.119E-01-0.773E-03
CGA:   8    -0.997630082959E+03   -0.68734E-03   -0.66738E-03  2880   0.225E-02-0.167E-03
CGA:   9    -0.997630400941E+03   -0.31798E-03   -0.32059E-03  2880   0.108E-02 0.450E-03
CGA:  10    -0.997630562065E+03   -0.16112E-03   -0.16892E-03  2880   0.498E-03 0.392E-03
CGA:  11    -0.997630645002E+03   -0.82936E-04   -0.81807E-04  2880   0.854E-03-0.446E-04
CGA:  12    -0.997630766425E+03   -0.12142E-03   -0.13165E-03  2880   0.369E-03-0.467E-03
CGA:  13    -0.997630798941E+03   -0.32516E-04   -0.39079E-04  2880   0.148E-03 0.154E-03
CGA:  14    -0.997630808877E+03   -0.99362E-05   -0.17873E-04  2880   0.666E-04 0.130E-03
CGA:  15    -0.997630820056E+03   -0.11179E-04   -0.10831E-04  2880   0.538E-04 0.179E-04
CGA:  16    -0.997630832160E+03   -0.12104E-04   -0.17471E-04  2880   0.266E-03-0.484E-04
CGA:  17    -0.997630838953E+03   -0.67929E-05   -0.91111E-05  2880   0.722E-05 0.166E-04
  15 F= -.99763084E+03 E0= -.99761994E+03  d E =0.212297E-02  mag=     2.0000
       N       E                     dE             d eps       ncg     rms          ort
SDA:   1    -0.997540887163E+03    0.89945E-01    0.00000E+00  2880   0.312E+00 0.000E+00
CGA:   2    -0.997571363091E+03   -0.30476E-01   -0.30657E-01  2880   0.401E+00-0.118E-02
CGA:   3    -0.997618278635E+03   -0.46916E-01   -0.46835E-01  2880   0.127E+00-0.190E-02
CGA:   4    -0.997630079514E+03   -0.11801E-01   -0.12090E-01  2880   0.254E-01-0.865E-03
CGA:   5    -0.997635603667E+03   -0.55242E-02   -0.54486E-02  2880   0.475E-02 0.916E-03
CGA:   6    -0.997636408251E+03   -0.80458E-03   -0.81735E-03  2880   0.810E-02-0.472E-03
CGA:   7    -0.997636888397E+03   -0.48015E-03   -0.47177E-03  2880   0.150E-02-0.151E-03
CGA:   8    -0.997636995476E+03   -0.10708E-03   -0.12083E-03  2880   0.755E-03 0.269E-03
CGA:   9    -0.997637051233E+03   -0.55757E-04   -0.65069E-04  2880   0.574E-03 0.150E-03
CGA:  10    -0.997637143169E+03   -0.91936E-04   -0.91603E-04  2880   0.185E-03 0.881E-04
CGA:  11    -0.997637169200E+03   -0.26032E-04   -0.39749E-04  2880   0.129E-02-0.244E-03
CGA:  12    -0.997637217926E+03   -0.48725E-04   -0.49165E-04  2880   0.698E-04-0.362E-05
CGA:  13    -0.997637225823E+03   -0.78973E-05   -0.80978E-05  2880   0.352E-04 0.175E-04
CGA:  14    -0.997637238449E+03   -0.12626E-04    0.21730E-04  2880   0.166E-04 0.248E-04
CGA:  15    -0.997637242845E+03   -0.43959E-05    0.24811E-04  2880   0.173E-04 0.802E-05
  16 F= -.99763724E+03 E0= -.99762622E+03  d E =-.640389E-02  mag=     2.0000
       N       E                     dE             d eps       ncg     rms          ort
SDA:   1    -0.997606129173E+03    0.31109E-01    0.00000E+00  2880   0.169E+00 0.000E+00
CGA:   2    -0.997615131843E+03   -0.90027E-02   -0.94439E-02  2880   0.885E-01-0.401E-02
CGA:   3    -0.997633965994E+03   -0.18834E-01   -0.18622E-01  2880   0.262E-01 0.236E-02
CGA:   4    -0.997636794412E+03   -0.28284E-02   -0.27950E-02  2880   0.753E-02-0.266E-03
CGA:   5    -0.997638332830E+03   -0.15384E-02   -0.17574E-02  2880   0.110E-01-0.211E-02
CGA:   6    -0.997638648036E+03   -0.31521E-03   -0.30841E-03  2880   0.192E-02-0.186E-03
CGA:   7    -0.997638697749E+03   -0.49713E-04   -0.84483E-04  2880   0.138E-02 0.387E-03
CGA:   8    -0.997638741444E+03   -0.43695E-04   -0.92574E-04  2880   0.838E-03 0.687E-03
CGA:   9    -0.997638768484E+03   -0.27040E-04   -0.53503E-04  2880   0.294E-03 0.323E-03
CGA:  10    -0.997638810206E+03   -0.41722E-04   -0.42348E-04  2880   0.270E-03 0.397E-04
CGA:  11    -0.997638841663E+03   -0.31458E-04   -0.25842E-04  2880   0.307E-03-0.166E-03
CGA:  12    -0.997638870432E+03   -0.28768E-04   -0.24193E-04  2880   0.260E-03-0.124E-03
CGA:  13    -0.997638908635E+03   -0.38204E-04    0.13109E-03  2880   0.149E-03-0.590E-04
CGA:  14    -0.997638735386E+03    0.17325E-03   -0.62999E-04  2880   0.382E-02-0.550E-03
CGA:  15    -0.997638903514E+03   -0.16813E-03   -0.19303E-03  2880   0.558E-03 0.217E-03
CGA:  16    -0.997638915241E+03   -0.11727E-04   -0.25884E-04  2880   0.778E-04 0.163E-03
CGA:  17    -0.997638913004E+03    0.22369E-05   -0.34593E-05  2880   0.510E-04 0.607E-04
  17 F= -.99763891E+03 E0= -.99762782E+03  d E =-.167016E-02  mag=     2.0000
       N       E                     dE             d eps       ncg     rms          ort
SDA:   1    -0.997614776225E+03    0.24139E-01    0.00000E+00  2880   0.628E-01 0.000E+00
CGA:   2    -0.997628532891E+03   -0.13757E-01   -0.13674E-01  2880   0.132E+00 0.589E-03
CGA:   3    -0.997637135793E+03   -0.86029E-02   -0.85549E-02  2880   0.146E-01 0.691E-03
CGA:   4    -0.997638862881E+03   -0.17271E-02   -0.17263E-02  2880   0.650E-02-0.266E-05
CGA:   5    -0.997639884693E+03   -0.10218E-02   -0.10554E-02  2880   0.393E-02-0.849E-03
CGA:   6    -0.997640044962E+03   -0.16027E-03   -0.16227E-03  2880   0.797E-03-0.166E-04
CGA:   7    -0.997640142141E+03   -0.97179E-04   -0.96627E-04  2880   0.501E-03 0.284E-03
CGA:   8    -0.997640184408E+03   -0.42267E-04   -0.44874E-04  2880   0.238E-03 0.451E-04
CGA:   9    -0.997640222966E+03   -0.38559E-04   -0.41680E-04  2880   0.155E-03-0.734E-04
CGA:  10    -0.997640235563E+03   -0.12596E-04   -0.18044E-04  2880   0.362E-03-0.112E-03
CGA:  11    -0.997640247959E+03   -0.12397E-04   -0.14316E-04  2880   0.498E-04 0.190E-04
CGA:  12    -0.997640256760E+03   -0.88005E-05   -0.80374E-05  2880   0.208E-04 0.215E-04
  18 F= -.99764026E+03 E0= -.99762917E+03  d E =-.134376E-02  mag=     2.0000
       N       E                     dE             d eps       ncg     rms          ort
SDA:   1    -0.997490006982E+03    0.15024E+00    0.00000E+00  2880   0.380E+00 0.000E+00
CGA:   2    -0.997562484212E+03   -0.72477E-01   -0.73180E-01  2880   0.949E+00-0.946E-02
CGA:   3    -0.997628050859E+03   -0.65567E-01   -0.66534E-01  2880   0.523E-01-0.263E-02
CGA:   4    -0.997638067094E+03   -0.10016E-01   -0.10113E-01  2880   0.454E-01-0.123E-02
CGA:   5    -0.997640941462E+03   -0.28744E-02   -0.28223E-02  2880   0.137E-01-0.961E-03
CGA:   6    -0.997642047333E+03   -0.11059E-02   -0.10878E-02  2880   0.447E-02-0.439E-03
CGA:   7    -0.997642915533E+03   -0.86820E-03   -0.83477E-03  2880   0.553E-03 0.440E-03
CGA:   8    -0.997643067858E+03   -0.15233E-03   -0.18797E-03  2880   0.210E-02-0.192E-03
CGA:   9    -0.997643138010E+03   -0.70152E-04   -0.59032E-04  2880   0.654E-03-0.130E-03
CGA:  10    -0.997643160332E+03   -0.22322E-04   -0.20777E-04  2880   0.286E-03-0.204E-04
CGA:  11    -0.997643173459E+03   -0.13127E-04   -0.16640E-04  2880   0.320E-03 0.557E-04
CGA:  12    -0.997643183258E+03   -0.97993E-05   -0.17841E-04  2880   0.192E-03 0.111E-03
CGA:  13    -0.997643189331E+03   -0.60725E-05   -0.12623E-04  2880   0.154E-03 0.980E-04
CGA:  14    -0.997643203064E+03   -0.13733E-04   -0.12437E-04  2880   0.122E-03-0.441E-04
CGA:  15    -0.997642925498E+03    0.27757E-03   -0.14884E-03  2880   0.666E-02-0.566E-03
CGA:  16    -0.997643225911E+03   -0.30041E-03   -0.30424E-03  2880   0.706E-03-0.955E-04
CGA:  17    -0.997643252914E+03   -0.27003E-04   -0.39014E-04  2880   0.593E-04 0.874E-04
CGA:  18    -0.997643247100E+03    0.58143E-05   -0.23470E-05  2880   0.464E-04 0.540E-04
  19 F= -.99764325E+03 E0= -.99763222E+03  d E =-.299034E-02  mag=     2.0000
       N       E                     dE             d eps       ncg     rms          ort
SDA:   1    -0.996404190586E+03    0.12391E+01    0.00000E+00  2880   0.294E+01 0.000E+00
CGA:   2    -0.997176603420E+03   -0.77241E+00   -0.77576E+00  2880   0.650E+01-0.160E-01
CGA:   3    -0.997501632720E+03   -0.32503E+00   -0.41779E+00  2880   0.966E+00-0.138E+01
CGA:   4    -0.997569294566E+03   -0.67662E-01   -0.68066E-01  2880   0.444E+00-0.721E-02
CGA:   5    -0.997618601655E+03   -0.49307E-01   -0.50019E-01  2880   0.193E+00 0.393E-03
CGA:   6    -0.997632854843E+03   -0.14253E-01   -0.13916E-01  2880   0.533E-01 0.886E-03
CGA:   7    -0.997640618468E+03   -0.77636E-02   -0.77572E-02  2880   0.455E-01-0.956E-03
CGA:   8    -0.997643964036E+03   -0.33456E-02   -0.33180E-02  2880   0.869E-02-0.168E-03
CGA:   9    -0.997645016732E+03   -0.10527E-02   -0.10733E-02  2880   0.757E-02 0.597E-03
CGA:  10    -0.997645804127E+03   -0.78740E-03   -0.80568E-03  2880   0.256E-02 0.332E-03
CGA:  11    -0.997646096910E+03   -0.29278E-03   -0.28748E-03  2880   0.212E-02-0.147E-03
CGA:  12    -0.997646393959E+03   -0.29705E-03   -0.29716E-03  2880   0.159E-02-0.421E-03
CGA:  13    -0.997646489182E+03   -0.95223E-04   -0.92452E-04  2880   0.410E-03-0.488E-04
CGA:  14    -0.997646559193E+03   -0.70011E-04   -0.66449E-04  2880   0.229E-03 0.156E-03
CGA:  15    -0.997646593642E+03   -0.34449E-04   -0.36312E-04  2880   0.208E-03 0.589E-04
CGA:  16    -0.997646621323E+03   -0.27680E-04   -0.28056E-04  2880   0.906E-04 0.912E-05
CGA:  17    -0.997646634493E+03   -0.13170E-04   -0.13051E-04  2880   0.104E-03-0.296E-04
CGA:  18    -0.997646609568E+03    0.24925E-04   -0.23798E-04  2880   0.108E-02-0.246E-03
CGA:  19    -0.997646646293E+03   -0.36725E-04   -0.41875E-04  2880   0.812E-04 0.290E-04
CGA:  20    -0.997646647812E+03   -0.15185E-05   -0.57028E-05  2880   0.504E-04 0.536E-04
  20 F= -.99764665E+03 E0= -.99763557E+03  d E =-.340071E-02  mag=     2.0000
       N       E                     dE             d eps       ncg     rms          ort
SDA:   1    -0.997029981651E+03    0.61666E+00    0.00000E+00  2880   0.141E+01 0.000E+00
CGA:   2    -0.997561537297E+03   -0.53156E+00   -0.53182E+00  2880   0.381E+00-0.988E-03
CGA:   3    -0.997607075617E+03   -0.45538E-01   -0.45263E-01  2880   0.325E+00-0.376E-02
CGA:   4    -0.997631444787E+03   -0.24369E-01   -0.24044E-01  2880   0.977E-01 0.265E-02
CGA:   5    -0.997640406479E+03   -0.89617E-02   -0.86762E-02  2880   0.214E-01 0.259E-02
CGA:   6    -0.997645075169E+03   -0.46687E-02   -0.47067E-02  2880   0.199E-01-0.575E-03
CGA:   7    -0.997646031920E+03   -0.95675E-03   -0.97297E-03  2880   0.292E-02-0.187E-03
CGA:   8    -0.997646860790E+03   -0.82887E-03   -0.78312E-03  2880   0.749E-03 0.352E-03
CGA:   9    -0.997647026591E+03   -0.16580E-03   -0.16672E-03  2880   0.146E-02-0.199E-04
CGA:  10    -0.997647165970E+03   -0.13938E-03   -0.13041E-03  2880   0.728E-03-0.161E-03
CGA:  11    -0.997647232462E+03   -0.66492E-04   -0.63479E-04  2880   0.239E-03-0.642E-04
CGA:  12    -0.997647253905E+03   -0.21443E-04   -0.25194E-04  2880   0.119E-03 0.129E-03
CGA:  13    -0.997647265162E+03   -0.11257E-04   -0.12638E-04  2880   0.830E-04 0.366E-04
CGA:  14    -0.997647278203E+03   -0.13041E-04   -0.13381E-04  2880   0.801E-04 0.184E-04
CGA:  15    -0.997647292925E+03   -0.14722E-04   -0.16681E-04  2880   0.124E-03-0.658E-04
CGA:  16    -0.997647296733E+03   -0.38082E-05   -0.50684E-05  2880   0.193E-04 0.113E-04
  21 F= -.99764730E+03 E0= -.99763624E+03  d E =-.648922E-03  mag=     2.0000
       N       E                     dE             d eps       ncg     rms          ort
SDA:   1    -0.995946541997E+03    0.17008E+01    0.00000E+00  2880   0.509E+01 0.000E+00
CGA:   2    -0.996472632345E+03   -0.52609E+00   -0.53708E+00  2880   0.763E+01-0.695E-01
CGA:   3    -0.997346448119E+03   -0.87382E+00   -0.86722E+00  2880   0.253E+01-0.129E+00
CGA:   4    -0.997526867198E+03   -0.18042E+00   -0.19965E+00  2880   0.395E+00-0.657E-01
CGA:   5    -0.997585974751E+03   -0.59108E-01   -0.58885E-01  2880   0.482E+00 0.780E-02
CGA:   6    -0.997613872045E+03   -0.27897E-01   -0.29179E-01  2880   0.477E-01-0.804E-02
CGA:   7    -0.997622799792E+03   -0.89277E-02   -0.90252E-02  2880   0.452E-01-0.199E-02
CGA:   8    -0.997626302287E+03   -0.35025E-02   -0.35142E-02  2880   0.180E-01-0.233E-03
CGA:   9    -0.997627488852E+03   -0.11866E-02   -0.12682E-02  2880   0.413E-02 0.914E-03
CGA:  10    -0.997628397033E+03   -0.90818E-03   -0.81233E-03  2880   0.111E-02 0.160E-02
CGA:  11    -0.997627902701E+03    0.49433E-03   -0.39488E-03  2880   0.173E-01-0.244E-02
CGA:  12    -0.997628610336E+03   -0.70764E-03   -0.76648E-03  2880   0.324E-02 0.275E-03
CGA:  13    -0.997628962547E+03   -0.35221E-03   -0.42313E-03  2880   0.137E-02 0.737E-03
CGA:  14    -0.997629180509E+03   -0.21796E-03   -0.22830E-03  2880   0.506E-03 0.114E-03
CGA:  15    -0.997629242929E+03   -0.62420E-04   -0.46795E-04  2880   0.485E-03-0.120E-03
CGA:  16    -0.997629311143E+03   -0.68215E-04   -0.95865E-04  2880   0.895E-03-0.581E-03
CGA:  17    -0.997629343247E+03   -0.32104E-04   -0.52869E-04  2880   0.255E-03 0.123E-03
CGA:  18    -0.997629337744E+03    0.55030E-05   -0.15097E-04  2880   0.102E-03 0.134E-03
  22 F= -.99762934E+03 E0= -.99761842E+03  d E =0.179590E-01  mag=     2.0000
       N       E                     dE             d eps       ncg     rms          ort
SDA:   1    -0.997020646559E+03    0.60870E+00    0.00000E+00  2880   0.175E+01 0.000E+00
CGA:   2    -0.997244464351E+03   -0.22382E+00   -0.23598E+00  2880   0.294E+01-0.557E-02
CGA:   3    -0.997570434985E+03   -0.32597E+00   -0.31289E+00  2880   0.327E+00 0.227E-01
CGA:   4    -0.997609422805E+03   -0.38988E-01   -0.35866E-01  2880   0.164E+00 0.872E-02
CGA:   5    -0.997629352768E+03   -0.19930E-01   -0.19636E-01  2880   0.120E+00-0.230E-02
CGA:   6    -0.997637385416E+03   -0.80326E-02   -0.78208E-02  2880   0.150E-01 0.442E-03
CGA:   7    -0.997640916024E+03   -0.35306E-02   -0.35113E-02  2880   0.159E-01 0.292E-03
CGA:   8    -0.997641770218E+03   -0.85419E-03   -0.89425E-03  2880   0.247E-02-0.107E-03
CGA:   9    -0.997642394512E+03   -0.62429E-03   -0.68874E-03  2880   0.560E-02-0.590E-03
CGA:  10    -0.997642676346E+03   -0.28183E-03   -0.25785E-03  2880   0.117E-02-0.245E-03
CGA:  11    -0.997642772092E+03   -0.95747E-04   -0.99531E-04  2880   0.805E-03 0.405E-04
CGA:  12    -0.997642821678E+03   -0.49585E-04   -0.62754E-04  2880   0.631E-03 0.144E-03
CGA:  13    -0.997642871328E+03   -0.49650E-04   -0.66444E-04  2880   0.225E-03 0.238E-03
CGA:  14    -0.997642894316E+03   -0.22988E-04   -0.22199E-04  2880   0.208E-03-0.108E-04
CGA:  15    -0.997642968245E+03   -0.73929E-04    0.68698E-04  2880   0.189E-03 0.802E-05
CGA:  16    -0.997642998952E+03   -0.30706E-04   -0.27701E-04  2880   0.589E-03-0.265E-03
CGA:  17    -0.997643010182E+03   -0.11230E-04   -0.20657E-04  2880   0.516E-04 0.726E-04
CGA:  18    -0.997643006531E+03    0.36507E-05   -0.16500E-05  2880   0.407E-04 0.450E-04
  23 F= -.99764301E+03 E0= -.99763187E+03  d E =-.136688E-01  mag=     2.0000
       N       E                     dE             d eps       ncg     rms          ort
SDA:   1    -0.997315304182E+03    0.32771E+00    0.00000E+00  2880   0.762E+00 0.000E+00
CGA:   2    -0.997573539855E+03   -0.25824E+00   -0.25687E+00  2880   0.728E+00 0.734E-02
CGA:   3    -0.997608427396E+03   -0.34888E-01   -0.39413E-01  2880   0.202E+00-0.633E-01
CGA:   4    -0.997631171611E+03   -0.22744E-01   -0.22852E-01  2880   0.758E-01 0.230E-02
CGA:   5    -0.997640424120E+03   -0.92525E-02   -0.92106E-02  2880   0.214E-01-0.175E-02
CGA:   6    -0.997642156156E+03   -0.17320E-02   -0.17231E-02  2880   0.157E-01-0.986E-04
CGA:   7    -0.997643947535E+03   -0.17914E-02   -0.18007E-02  2880   0.325E-02 0.502E-03
CGA:   8    -0.997644462608E+03   -0.51507E-03   -0.52278E-03  2880   0.314E-02-0.397E-03
CGA:   9    -0.997644685109E+03   -0.22250E-03   -0.22197E-03  2880   0.162E-02-0.371E-04
CGA:  10    -0.997644833101E+03   -0.14799E-03   -0.15284E-03  2880   0.337E-03 0.120E-03
CGA:  11    -0.997644948673E+03   -0.11557E-03   -0.12453E-03  2880   0.633E-03-0.426E-04
CGA:  12    -0.997644972093E+03   -0.23420E-04   -0.26086E-04  2880   0.156E-03 0.227E-04
CGA:  13    -0.997644985253E+03   -0.13160E-04   -0.14539E-04  2880   0.138E-03 0.294E-04
CGA:  14    -0.997645001480E+03   -0.16227E-04   -0.15473E-04  2880   0.154E-03-0.197E-04
CGA:  15    -0.997645019918E+03   -0.18438E-04   -0.25853E-04  2880   0.843E-04-0.117E-03
CGA:  16    -0.997645022209E+03   -0.22917E-05   -0.55253E-05  2880   0.470E-04 0.457E-04
  24 F= -.99764502E+03 E0= -.99763402E+03  d E =-.201568E-02  mag=     2.0000
       N       E                     dE             d eps       ncg     rms          ort
SDA:   1    -0.997609385150E+03    0.35635E-01    0.00000E+00  2880   0.170E+00 0.000E+00
CGA:   2    -0.997619768490E+03   -0.10383E-01   -0.10264E-01  2880   0.102E+00-0.281E-03
CGA:   3    -0.997639763454E+03   -0.19995E-01   -0.20261E-01  2880   0.498E-01-0.353E-02
CGA:   4    -0.997644229157E+03   -0.44657E-02   -0.45212E-02  2880   0.955E-02-0.349E-03
CGA:   5    -0.997645964903E+03   -0.17357E-02   -0.16545E-02  2880   0.444E-02 0.175E-02
CGA:   6    -0.997646302643E+03   -0.33774E-03   -0.34262E-03  2880   0.203E-02 0.403E-04
CGA:   7    -0.997646687299E+03   -0.38466E-03   -0.45826E-03  2880   0.261E-02-0.766E-03
CGA:   8    -0.997646778545E+03   -0.91247E-04   -0.80169E-04  2880   0.587E-03-0.140E-03
CGA:   9    -0.997646798532E+03   -0.19986E-04   -0.31852E-04  2880   0.513E-03 0.166E-03
CGA:  10    -0.997646814104E+03   -0.15572E-04   -0.37605E-04  2880   0.297E-03 0.328E-03
CGA:  11    -0.997646832589E+03   -0.18485E-04   -0.22200E-04  2880   0.176E-03 0.796E-04
CGA:  12    -0.997646856528E+03   -0.23939E-04   -0.24483E-04  2880   0.114E-03 0.610E-04
CGA:  13    -0.997646881281E+03   -0.24753E-04   -0.34077E-04  2880   0.115E-03-0.904E-04
CGA:  14    -0.997646887553E+03   -0.62721E-05   -0.75851E-05  2880   0.326E-04 0.223E-04
  25 F= -.99764689E+03 E0= -.99763594E+03  d E =-.186534E-02  mag=     2.0000
       N       E                     dE             d eps       ncg     rms          ort
SDA:   1    -0.997626703824E+03    0.20177E-01    0.00000E+00  2880   0.693E-01 0.000E+00
CGA:   2    -0.997632197150E+03   -0.54933E-02   -0.55801E-02  2880   0.712E-01 0.279E-03
CGA:   3    -0.997643965821E+03   -0.11769E-01   -0.11737E-01  2880   0.139E-01 0.538E-03
CGA:   4    -0.997645442693E+03   -0.14769E-02   -0.14704E-02  2880   0.453E-02-0.576E-03
CGA:   5    -0.997646176960E+03   -0.73427E-03   -0.72292E-03  2880   0.222E-02 0.228E-03
CGA:   6    -0.997646286011E+03   -0.10905E-03   -0.11687E-03  2880   0.440E-03 0.817E-04
CGA:   7    -0.997646407511E+03   -0.12150E-03   -0.12299E-03  2880   0.192E-03-0.104E-04
CGA:   8    -0.997646416907E+03   -0.93961E-05   -0.10893E-04  2880   0.714E-04 0.211E-04
CGA:   9    -0.997646428921E+03   -0.12013E-04   -0.11867E-04  2880   0.576E-04 0.508E-05
CGA:  10    -0.997646304638E+03    0.12428E-03   -0.67181E-04  2880   0.131E-02-0.261E-03
CGA:  11    -0.997646385527E+03   -0.80888E-04   -0.99166E-04  2880   0.170E-03 0.138E-03
CGA:  12    -0.997646417121E+03   -0.31594E-04   -0.33561E-04  2880   0.791E-04 0.502E-04
CGA:  13    -0.997646435682E+03   -0.18561E-04   -0.15868E-04  2880   0.123E-03-0.449E-04
CGA:  14    -0.997646439322E+03   -0.36400E-05   -0.55098E-05  2880   0.221E-04 0.104E-04
  26 F= -.99764644E+03 E0= -.99763543E+03  d E =0.448231E-03  mag=     2.0000
       N       E                     dE             d eps       ncg     rms          ort
SDA:   1    -0.997354678729E+03    0.29176E+00    0.00000E+00  2880   0.662E+00 0.000E+00
CGA:   2    -0.997571880612E+03   -0.21720E+00   -0.21605E+00  2880   0.843E+00 0.752E-02
CGA:   3    -0.997613294342E+03   -0.41414E-01   -0.38238E-01  2880   0.876E-01 0.422E-01
CGA:   4    -0.997635631581E+03   -0.22337E-01   -0.22363E-01  2880   0.414E-01-0.589E-03
CGA:   5    -0.997637616556E+03   -0.19850E-02   -0.21391E-02  2880   0.157E-01-0.121E-02
CGA:   6    -0.997640093269E+03   -0.24767E-02   -0.24985E-02  2880   0.590E-02 0.737E-03
CGA:   7    -0.997640776926E+03   -0.68366E-03   -0.66736E-03  2880   0.210E-02-0.365E-03
CGA:   8    -0.997640967360E+03   -0.19043E-03   -0.18406E-03  2880   0.228E-02-0.925E-04
CGA:   9    -0.997641244553E+03   -0.27719E-03   -0.27048E-03  2880   0.464E-03-0.130E-03
CGA:  10    -0.997641300610E+03   -0.56057E-04   -0.58818E-04  2880   0.224E-03 0.602E-04
CGA:  11    -0.997641314814E+03   -0.14204E-04   -0.22980E-04  2880   0.174E-03 0.102E-03
CGA:  12    -0.997641334057E+03   -0.19243E-04   -0.24633E-04  2880   0.590E-04 0.706E-04
CGA:  13    -0.997641368682E+03   -0.34625E-04    0.29289E-04  2880   0.287E-04 0.306E-04
CGA:  14    -0.997641371903E+03   -0.32206E-05   -0.69177E-05  2880   0.373E-03-0.515E-04
CGA:  15    -0.997641382320E+03   -0.10417E-04   -0.12933E-04  2880   0.794E-05 0.128E-04
CGA:  16    -0.997641382888E+03   -0.56819E-06   -0.89610E-06  2880   0.100E-04 0.581E-05
  27 F= -.99764138E+03 E0= -.99763018E+03  d E =0.505643E-02  mag=     2.0000
       N       E                     dE             d eps       ncg     rms          ort
SDA:   1    -0.997529835817E+03    0.11155E+00    0.00000E+00  2880   0.346E+00 0.000E+00
CGA:   2    -0.997565395049E+03   -0.35559E-01   -0.35180E-01  2880   0.505E+00-0.253E-02
CGA:   3    -0.997630898965E+03   -0.65504E-01   -0.65577E-01  2880   0.588E-01 0.752E-03
CGA:   4    -0.997638688436E+03   -0.77895E-02   -0.78199E-02  2880   0.319E-01-0.197E-03
CGA:   5    -0.997643013712E+03   -0.43253E-02   -0.43391E-02  2880   0.112E-01 0.544E-03
CGA:   6    -0.997643614481E+03   -0.60077E-03   -0.61291E-03  2880   0.363E-02-0.147E-03
CGA:   7    -0.997644500688E+03   -0.88621E-03   -0.10238E-02  2880   0.180E-02-0.102E-02
CGA:   8    -0.997644557275E+03   -0.56586E-04   -0.79711E-04  2880   0.848E-03 0.237E-03
CGA:   9    -0.997644604437E+03   -0.47162E-04   -0.76096E-04  2880   0.425E-03 0.396E-03
CGA:  10    -0.997644643244E+03   -0.38807E-04   -0.51365E-04  2880   0.294E-03 0.189E-03
CGA:  11    -0.997644681037E+03   -0.37794E-04   -0.38842E-04  2880   0.136E-03 0.182E-04
CGA:  12    -0.997644734140E+03   -0.53103E-04    0.36063E-04  2880   0.669E-04 0.305E-04
CGA:  13    -0.997644761918E+03   -0.27778E-04    0.30816E-04  2880   0.519E-04 0.794E-05
CGA:  14    -0.997644771473E+03   -0.95546E-05   -0.10054E-04  2880   0.700E-04-0.166E-04
  28 F= -.99764477E+03 E0= -.99763369E+03  d E =-.338858E-02  mag=     2.0000
       N       E                     dE             d eps       ncg     rms          ort
SDA:   1    -0.997151222104E+03    0.49354E+00    0.00000E+00  2880   0.126E+01 0.000E+00
CGA:   2    -0.997362543745E+03   -0.21132E+00   -0.21239E+00  2880   0.298E+01-0.268E-01
CGA:   3    -0.997600796242E+03   -0.23825E+00   -0.24140E+00  2880   0.162E+00-0.194E-01
CGA:   4    -0.997637435020E+03   -0.36639E-01   -0.36758E-01  2880   0.990E-01-0.133E-02
CGA:   5    -0.997642511157E+03   -0.50761E-02   -0.50910E-02  2880   0.256E-01-0.102E-03
CGA:   6    -0.997646049466E+03   -0.35383E-02   -0.35390E-02  2880   0.165E-01-0.395E-03
CGA:   7    -0.997648188314E+03   -0.21388E-02   -0.21357E-02  2880   0.224E-02-0.757E-03
CGA:   8    -0.997648649503E+03   -0.46119E-03   -0.41611E-03  2880   0.579E-03 0.778E-03
CGA:   9    -0.997648898268E+03   -0.24877E-03   -0.32712E-03  2880   0.855E-03-0.280E-03
CGA:  10    -0.997648919426E+03   -0.21158E-04   -0.20139E-04  2880   0.507E-03-0.131E-04
CGA:  11    -0.997648967994E+03   -0.48568E-04   -0.50431E-04  2880   0.753E-03 0.384E-04
CGA:  12    -0.997649017764E+03   -0.49771E-04   -0.52186E-04  2880   0.224E-03 0.265E-04
CGA:  13    -0.997649040210E+03   -0.22445E-04   -0.21409E-04  2880   0.206E-03-0.222E-04
CGA:  14    -0.997649051277E+03   -0.11068E-04   -0.11388E-04  2880   0.115E-03 0.323E-05
CGA:  15    -0.997649058156E+03   -0.68784E-05   -0.88002E-05  2880   0.974E-04 0.316E-04
  29 F= -.99764906E+03 E0= -.99763813E+03  d E =-.428668E-02  mag=     2.0000
       N       E                     dE             d eps       ncg     rms          ort
SDA:   1    -0.997539864832E+03    0.10919E+00    0.00000E+00  2880   0.254E+00 0.000E+00
CGA:   2    -0.997598773759E+03   -0.58909E-01   -0.57902E-01  2880   0.495E+00 0.919E-02
CGA:   3    -0.997631174492E+03   -0.32401E-01   -0.31347E-01  2880   0.441E-01 0.969E-02
CGA:   4    -0.997640220812E+03   -0.90463E-02   -0.93940E-02  2880   0.435E-01-0.445E-02
CGA:   5    -0.997642827840E+03   -0.26070E-02   -0.25984E-02  2880   0.123E-01-0.598E-03
CGA:   6    -0.997643679446E+03   -0.85161E-03   -0.89758E-03  2880   0.332E-02 0.112E-02
CGA:   7    -0.997644268086E+03   -0.58864E-03   -0.55882E-03  2880   0.111E-02 0.112E-02
CGA:   8    -0.997644470371E+03   -0.20229E-03   -0.20622E-03  2880   0.233E-02-0.445E-03
CGA:   9    -0.997644598574E+03   -0.12820E-03   -0.97026E-04  2880   0.198E-02-0.518E-03
CGA:  10    -0.997644680105E+03   -0.81531E-04   -0.66887E-04  2880   0.121E-02-0.180E-03
CGA:  11    -0.997644735414E+03   -0.55309E-04   -0.53404E-04  2880   0.662E-03-0.179E-04
CGA:  12    -0.997644759658E+03   -0.24244E-04   -0.26882E-04  2880   0.422E-03 0.270E-04
CGA:  13    -0.997644786969E+03   -0.27311E-04   -0.31140E-04  2880   0.629E-03 0.859E-04
CGA:  14    -0.997644819422E+03   -0.32454E-04   -0.40257E-04  2880   0.173E-03 0.131E-03
CGA:  15    -0.997644826023E+03   -0.66004E-05   -0.81107E-05  2880   0.740E-04 0.198E-04
CGA:  16    -0.997644831073E+03   -0.50504E-05   -0.31343E-04  2880   0.798E-03-0.965E-04
CGA:  17    -0.997644862710E+03   -0.31637E-04   -0.32102E-04  2880   0.562E-04-0.155E-05
CGA:  18    -0.997644864389E+03   -0.16780E-05   -0.31683E-05  2880   0.177E-04 0.251E-04
  30 F= -.99764486E+03 E0= -.99763382E+03  d E =0.419377E-02  mag=     2.0000
       N       E                     dE             d eps       ncg     rms          ort
SDA:   1    -0.997547451195E+03    0.97412E-01    0.00000E+00  2880   0.235E+00 0.000E+00
CGA:   2    -0.997620562375E+03   -0.73111E-01   -0.73745E-01  2880   0.319E+00-0.325E-02
CGA:   3    -0.997635555717E+03   -0.14993E-01   -0.15571E-01  2880   0.537E-01-0.731E-02
CGA:   4    -0.997642818167E+03   -0.72624E-02   -0.71957E-02  2880   0.242E-01 0.271E-02
CGA:   5    -0.997645977121E+03   -0.31590E-02   -0.31495E-02  2880   0.346E-02 0.185E-02
CGA:   6    -0.997646964732E+03   -0.98761E-03   -0.16914E-02  2880   0.381E-02-0.210E-02
CGA:   7    -0.997647199332E+03   -0.23460E-03   -0.29423E-03  2880   0.130E-02 0.101E-02
CGA:   8    -0.997647270101E+03   -0.70769E-04   -0.11116E-03  2880   0.563E-03 0.621E-03
CGA:   9    -0.997647332400E+03   -0.62299E-04   -0.74086E-04  2880   0.171E-03 0.293E-03
CGA:  10    -0.997647408301E+03   -0.75900E-04    0.14745E-04  2880   0.165E-03 0.675E-04
CGA:  11    -0.997647480839E+03   -0.72538E-04    0.60035E-04  2880   0.197E-03-0.139E-04
CGA:  12    -0.997647484505E+03   -0.36665E-05   -0.46962E-04  2880   0.822E-03-0.328E-03
CGA:  13    -0.997647497426E+03   -0.12921E-04   -0.29497E-04  2880   0.139E-03 0.159E-03
CGA:  14    -0.997647490072E+03    0.73541E-05   -0.51764E-05  2880   0.113E-03 0.128E-03
  31 F= -.99764749E+03 E0= -.99763646E+03  d E =-.262568E-02  mag=     2.0000
       N       E                     dE             d eps       ncg     rms          ort
SDA:   1    -0.997618291513E+03    0.29206E-01    0.00000E+00  2880   0.703E-01 0.000E+00
CGA:   2    -0.997636941630E+03   -0.18650E-01   -0.19124E-01  2880   0.157E+00-0.326E-02
CGA:   3    -0.997644990687E+03   -0.80491E-02   -0.78283E-02  2880   0.117E-01 0.953E-03
CGA:   4    -0.997646694670E+03   -0.17040E-02   -0.16612E-02  2880   0.884E-02 0.248E-02
CGA:   5    -0.997647281504E+03   -0.58683E-03   -0.64072E-03  2880   0.240E-02 0.689E-03
CGA:   6    -0.997647694343E+03   -0.41284E-03   -0.45667E-03  2880   0.265E-02-0.797E-03
CGA:   7    -0.997647839503E+03   -0.14516E-03   -0.13087E-03  2880   0.849E-03-0.296E-03
CGA:   8    -0.997647892162E+03   -0.52658E-04   -0.56664E-04  2880   0.346E-03 0.864E-04
CGA:   9    -0.997647922638E+03   -0.30476E-04   -0.34394E-04  2880   0.308E-03 0.135E-03
CGA:  10    -0.997647951918E+03   -0.29280E-04   -0.33549E-04  2880   0.494E-04 0.108E-03
CGA:  11    -0.997647967990E+03   -0.16072E-04    0.94566E-04  2880   0.346E-04 0.239E-04
CGA:  12    -0.997647981781E+03   -0.13791E-04    0.18316E-04  2880   0.168E-04 0.187E-04
CGA:  13    -0.997647982207E+03   -0.42650E-06   -0.91391E-06  2880   0.100E-04 0.791E-05
  32 F= -.99764798E+03 E0= -.99763697E+03  d E =-.492135E-03  mag=     2.0000
       N       E                     dE             d eps       ncg     rms          ort
SDA:   1    -0.996972196210E+03    0.67579E+00    0.00000E+00  2880   0.152E+01 0.000E+00
CGA:   2    -0.997552191848E+03   -0.58000E+00   -0.58272E+00  2880   0.554E+00-0.111E-01
CGA:   3    -0.997593323087E+03   -0.41131E-01   -0.41461E-01  2880   0.348E+00-0.471E-02
CGA:   4    -0.997628518895E+03   -0.35196E-01   -0.35195E-01  2880   0.121E+00 0.383E-03
CGA:   5    -0.997640041366E+03   -0.11522E-01   -0.11586E-01  2880   0.238E-01 0.168E-02
CGA:   6    -0.997643703402E+03   -0.36620E-02   -0.36836E-02  2880   0.342E-01-0.838E-03
CGA:   7    -0.997646165584E+03   -0.24622E-02   -0.24208E-02  2880   0.284E-02-0.828E-03
CGA:   8    -0.997646719179E+03   -0.55360E-03   -0.48536E-03  2880   0.927E-03 0.123E-02
CGA:   9    -0.997647041271E+03   -0.32209E-03   -0.31039E-03  2880   0.111E-02 0.104E-03
CGA:  10    -0.997647133871E+03   -0.92600E-04   -0.86974E-04  2880   0.556E-03-0.110E-03
CGA:  11    -0.997646458893E+03    0.67498E-03   -0.37429E-03  2880   0.963E-02-0.163E-02
CGA:  12    -0.997646865176E+03   -0.40628E-03   -0.46825E-03  2880   0.214E-02 0.270E-03
CGA:  13    -0.997646988565E+03   -0.12339E-03   -0.19817E-03  2880   0.839E-03 0.575E-03
CGA:  14    -0.997647049668E+03   -0.61104E-04   -0.11010E-03  2880   0.562E-03 0.449E-03
CGA:  15    -0.997647122953E+03   -0.73284E-04   -0.55623E-04  2880   0.902E-03-0.171E-03
CGA:  16    -0.997643180787E+03    0.39422E-02   -0.21458E-02  2880   0.291E-01-0.436E-02
CGA:  17    -0.997645414481E+03   -0.22337E-02   -0.25015E-02  2880   0.971E-02 0.231E-02
CGA:  18    -0.997645940461E+03   -0.52598E-03   -0.81846E-03  2880   0.496E-02 0.138E-02
CGA:  19    -0.997646271865E+03   -0.33140E-03   -0.56277E-03  2880   0.159E-02 0.106E-02
CGA:  20    -0.997647040856E+03   -0.76899E-03   -0.92647E-03  2880   0.344E-02-0.101E-02
CGA:  21    -0.997647207854E+03   -0.16700E-03   -0.17217E-03  2880   0.705E-03-0.228E-04
CGA:  22    -0.997647259717E+03   -0.51863E-04   -0.69233E-04  2880   0.363E-03 0.790E-04
CGA:  23    -0.997647294003E+03   -0.34286E-04   -0.60081E-04  2880   0.751E-04 0.160E-03
CGA:  24    -0.997647315060E+03   -0.21057E-04   -0.16546E-04  2880   0.202E-03-0.311E-04
CGA:  25    -0.997647335040E+03   -0.19980E-04   -0.74448E-05  2880   0.201E-03-0.540E-04
CGA:  26    -0.997647346697E+03   -0.11657E-04   -0.45825E-05  2880   0.856E-04-0.291E-04
CGA:  27    -0.997647350976E+03   -0.42793E-05   -0.25710E-05  2880   0.509E-04-0.751E-05
  33 F= -.99764735E+03 E0= -.99763640E+03  d E =0.631231E-03  mag=     2.0000
       N       E                     dE             d eps       ncg     rms          ort
SDA:   1    -0.997365980467E+03    0.28137E+00    0.00000E+00  2880   0.675E+00 0.000E+00
CGA:   2    -0.997535636574E+03   -0.16966E+00   -0.16968E+00  2880   0.153E+01-0.493E-02
CGA:   3    -0.997616037257E+03   -0.80401E-01   -0.99815E-01  2880   0.192E+00-0.260E+00
CGA:   4    -0.997632179596E+03   -0.16142E-01   -0.16031E-01  2880   0.112E+00-0.112E-02
CGA:   5    -0.997643166295E+03   -0.10987E-01   -0.11215E-01  2880   0.442E-01-0.166E-02
CGA:   6    -0.997646471899E+03   -0.33056E-02   -0.33806E-02  2880   0.122E-01-0.427E-03
CGA:   7    -0.997647946205E+03   -0.14743E-02   -0.14905E-02  2880   0.102E-01 0.221E-05
CGA:   8    -0.997648916162E+03   -0.96996E-03   -0.94902E-03  2880   0.241E-02-0.172E-03
CGA:   9    -0.997649149151E+03   -0.23299E-03   -0.22877E-03  2880   0.183E-02-0.674E-04
CGA:  10    -0.997649408596E+03   -0.25944E-03   -0.25523E-03  2880   0.851E-03-0.807E-04
CGA:  11    -0.997649464403E+03   -0.55807E-04   -0.59124E-04  2880   0.335E-03 0.168E-04
CGA:  12    -0.997649528050E+03   -0.63647E-04   -0.63830E-04  2880   0.269E-03 0.347E-04
CGA:  13    -0.997649549134E+03   -0.21084E-04   -0.22501E-04  2880   0.103E-03 0.952E-05
CGA:  14    -0.997649572870E+03   -0.23736E-04   -0.27669E-04  2880   0.362E-03-0.551E-04
CGA:  15    -0.997649585324E+03   -0.12455E-04   -0.13611E-04  2880   0.182E-04 0.195E-05
CGA:  16    -0.997649574483E+03    0.10841E-04   -0.76982E-05  2880   0.109E-03-0.316E-04
CGA:  17    -0.997649590560E+03   -0.16077E-04   -0.16472E-04  2880   0.604E-04 0.221E-05
CGA:  18    -0.997649608246E+03   -0.17686E-04   -0.14446E-04  2880   0.508E-04-0.367E-04
CGA:  19    -0.997649607284E+03    0.96234E-06   -0.22489E-05  2880   0.110E-04 0.112E-04
  34 F= -.99764961E+03 E0= -.99763864E+03  d E =-.225631E-02  mag=     2.0000
       N       E                     dE             d eps       ncg     rms          ort
SDA:   1    -0.997261605562E+03    0.38800E+00    0.00000E+00  2880   0.860E+00 0.000E+00
CGA:   2    -0.997578263816E+03   -0.31666E+00   -0.31707E+00  2880   0.661E+00-0.501E-02
CGA:   3    -0.997601767393E+03   -0.23504E-01   -0.45037E-01  2880   0.422E+00-0.277E+00
CGA:   4    -0.997630345160E+03   -0.28578E-01   -0.28655E-01  2880   0.411E-01 0.204E-02
CGA:   5    -0.997637176426E+03   -0.68313E-02   -0.68600E-02  2880   0.524E-01-0.135E-02
CGA:   6    -0.997640704836E+03   -0.35284E-02   -0.36087E-02  2880   0.204E-01-0.172E-02
CGA:   7    -0.997642190726E+03   -0.14859E-02   -0.15362E-02  2880   0.358E-02 0.337E-03
CGA:   8    -0.997642750374E+03   -0.55965E-03   -0.58765E-03  2880   0.614E-02 0.307E-03
CGA:   9    -0.997643170337E+03   -0.41996E-03   -0.46063E-03  2880   0.609E-03 0.190E-03
CGA:  10    -0.997640994990E+03    0.21753E-02   -0.11853E-02  2880   0.200E-01-0.250E-02
CGA:  11    -0.997641929282E+03   -0.93429E-03   -0.13270E-02  2880   0.119E-01-0.887E-03
CGA:  12    -0.997642699773E+03   -0.77049E-03   -0.11375E-02  2880   0.141E-02 0.154E-02
CGA:  13    -0.997643200672E+03   -0.50090E-03   -0.44638E-03  2880   0.562E-02-0.455E-03
CGA:  14    -0.997643442802E+03   -0.24213E-03   -0.15310E-03  2880   0.171E-02-0.285E-03
CGA:  15    -0.997643489002E+03   -0.46200E-04   -0.42543E-04  2880   0.406E-03-0.737E-04
CGA:  16    -0.997643489187E+03   -0.18484E-06   -0.20470E-04  2880   0.580E-03 0.621E-04
CGA:  17    -0.997643482811E+03    0.63759E-05   -0.50521E-04  2880   0.534E-03 0.215E-03
CGA:  18    -0.997643484167E+03   -0.13561E-05   -0.28671E-04  2880   0.758E-04 0.944E-04
CGA:  19    -0.997643508641E+03   -0.24473E-04   -0.32841E-04  2880   0.977E-03-0.159E-03
CGA:  20    -0.997643547680E+03   -0.39039E-04   -0.41665E-04  2880   0.861E-04 0.251E-05
CGA:  21    -0.997643552486E+03   -0.48063E-05   -0.63916E-05  2880   0.168E-04 0.596E-05
  35 F= -.99764355E+03 E0= -.99763245E+03  d E =0.605480E-02  mag=     2.0000
       N       E                     dE             d eps       ncg     rms          ort
SDA:   1    -0.997576135209E+03    0.67412E-01    0.00000E+00  2880   0.179E+00 0.000E+00
CGA:   2    -0.997609847723E+03   -0.33713E-01   -0.33571E-01  2880   0.402E+00-0.412E-03
CGA:   3    -0.997637595548E+03   -0.27748E-01   -0.29974E-01  2880   0.327E-01-0.223E-01
CGA:   4    -0.997644127775E+03   -0.65322E-02   -0.64699E-02  2880   0.312E-01-0.109E-02
CGA:   5    -0.997645637365E+03   -0.15096E-02   -0.15801E-02  2880   0.425E-02-0.124E-02
CGA:   6    -0.997646355351E+03   -0.71799E-03   -0.75891E-03  2880   0.219E-02 0.609E-03
CGA:   7    -0.997646525534E+03   -0.17018E-03   -0.18939E-03  2880   0.114E-02 0.788E-04
CGA:   8    -0.997646710706E+03   -0.18517E-03   -0.16975E-03  2880   0.916E-03-0.167E-03
CGA:   9    -0.997646821448E+03   -0.11074E-03   -0.88469E-04  2880   0.485E-03-0.184E-03
CGA:  10    -0.997646854899E+03   -0.33451E-04   -0.31613E-04  2880   0.233E-03-0.143E-04
CGA:  11    -0.997646863508E+03   -0.86092E-05   -0.22195E-04  2880   0.671E-04 0.109E-03
  36 F= -.99764686E+03 E0= -.99763576E+03  d E =-.331102E-02  mag=     2.0000
       N       E                     dE             d eps       ncg     rms          ort
SDA:   1    -0.997582476077E+03    0.64379E-01    0.00000E+00  2880   0.153E+00 0.000E+00
CGA:   2    -0.997630591671E+03   -0.48116E-01   -0.47889E-01  2880   0.242E+00 0.175E-02
CGA:   3    -0.997642756047E+03   -0.12164E-01   -0.11407E-01  2880   0.212E-01 0.125E-01
CGA:   4    -0.997647373812E+03   -0.46178E-02   -0.46177E-02  2880   0.150E-01-0.737E-03
CGA:   5    -0.997648437353E+03   -0.10635E-02   -0.10776E-02  2880   0.556E-02 0.423E-03
CGA:   6    -0.997648778546E+03   -0.34119E-03   -0.37644E-03  2880   0.194E-02 0.143E-03
CGA:   7    -0.997649159750E+03   -0.38120E-03   -0.38154E-03  2880   0.537E-03 0.173E-03
CGA:   8    -0.997649209266E+03   -0.49516E-04   -0.42272E-04  2880   0.454E-03-0.656E-04
CGA:   9    -0.997649155886E+03    0.53380E-04   -0.20783E-03  2880   0.246E-02-0.782E-03
CGA:  10    -0.997649249358E+03   -0.93472E-04   -0.13682E-03  2880   0.699E-03 0.313E-03
CGA:  11    -0.997649266902E+03   -0.17544E-04   -0.52410E-04  2880   0.268E-03 0.264E-03
CGA:  12    -0.997649281535E+03   -0.14632E-04   -0.31774E-04  2880   0.182E-03 0.164E-03
CGA:  13    -0.997649303685E+03   -0.22150E-04   -0.16435E-04  2880   0.233E-03-0.624E-04
CGA:  14    -0.997648308978E+03    0.99471E-03   -0.54431E-03  2880   0.119E-01-0.120E-02
CGA:  15    -0.997648922222E+03   -0.61324E-03   -0.65688E-03  2880   0.237E-02 0.126E-02
CGA:  16    -0.997649032256E+03   -0.11003E-03   -0.18421E-03  2880   0.958E-03 0.257E-03
CGA:  17    -0.997649154962E+03   -0.12271E-03   -0.17303E-03  2880   0.444E-03 0.362E-03
CGA:  18    -0.997649230214E+03   -0.75252E-04   -0.59105E-04  2880   0.430E-03-0.819E-04
CGA:  19    -0.997649325544E+03   -0.95331E-04   -0.52302E-04  2880   0.584E-03-0.317E-03
CGA:  20    -0.997649343464E+03   -0.17919E-04   -0.31386E-04  2880   0.973E-04 0.690E-04
CGA:  21    -0.997649342328E+03    0.11362E-05   -0.56575E-05  2880   0.284E-04 0.309E-04
  37 F= -.99764934E+03 E0= -.99763832E+03  d E =-.247882E-02  mag=     2.0000
