       N       E                     dE             d eps       ncg     rms          rms(c)
DAV:   1     0.304804890268E+04    0.30480E+04   -0.25841E+05 73596   0.130E+03
DAV:   2    -0.613876131357E+03   -0.36619E+04   -0.35334E+04 89472   0.297E+02
DAV:   3    -0.871253604752E+03   -0.25738E+03   -0.25527E+03 89088   0.832E+01
DAV:   4    -0.874455274112E+03   -0.32017E+01   -0.31900E+01 89400   0.997E+00
DAV:   5    -0.874509203460E+03   -0.53929E-01   -0.53802E-01 91140   0.120E+00    0.988E+01
DAV:   6    -0.781904660164E+03    0.92605E+02   -0.39232E+02 84240   0.315E+01    0.503E+01
DAV:   7    -0.790625865683E+03   -0.87212E+01   -0.22959E+01 84468   0.825E+00    0.173E+01
DAV:   8    -0.794392485781E+03   -0.37666E+01   -0.10127E+01101652   0.487E+00    0.102E+01
DAV:   9    -0.795896526114E+03   -0.15040E+01   -0.89655E+00 99420   0.347E+00    0.664E+00
DAV:  10    -0.796401008296E+03   -0.50448E+00   -0.44199E+00 95328   0.281E+00    0.430E+00
DAV:  11    -0.796827383310E+03   -0.42638E+00   -0.13162E+00 94056   0.216E+00    0.303E+00
DAV:  12    -0.796963991839E+03   -0.13661E+00   -0.48415E-01 88968   0.127E+00    0.251E+00
DAV:  13    -0.796952080491E+03    0.11911E-01   -0.22292E-01 89532   0.809E-01    0.200E+00
DAV:  14    -0.797004618222E+03   -0.52538E-01   -0.20576E-01 92892   0.636E-01    0.238E+00
DAV:  15    -0.797004246437E+03    0.37178E-03   -0.14301E-01 96816   0.436E-01    0.231E+00
DAV:  16    -0.797017909089E+03   -0.13663E-01   -0.25965E-02 83568   0.263E-01    0.241E+00
DAV:  17    -0.797008993040E+03    0.89160E-02   -0.11387E-02 97560   0.253E-01    0.185E+00
DAV:  18    -0.797002300091E+03    0.66929E-02   -0.87990E-02109128   0.493E-01    0.155E+00
DAV:  19    -0.796999772042E+03    0.25280E-02   -0.20480E-02 86988   0.293E-01    0.973E-01
DAV:  20    -0.796999674284E+03    0.97759E-04   -0.98383E-03 96684   0.211E-01    0.390E-01
DAV:  21    -0.797000746187E+03   -0.10719E-02   -0.39470E-03 85332   0.923E-02    0.413E-01
DAV:  22    -0.797001296239E+03   -0.55005E-03   -0.15658E-03 90420   0.688E-02    0.438E-01
DAV:  23    -0.797000976592E+03    0.31965E-03   -0.34257E-03101028   0.116E-01    0.179E-01
DAV:  24    -0.797001257717E+03   -0.28113E-03   -0.89998E-04 84912   0.624E-02    0.154E-01
DAV:  25    -0.797001336236E+03   -0.78519E-04   -0.26276E-04 92796   0.348E-02    0.678E-02
DAV:  26    -0.797001397946E+03   -0.61710E-04   -0.21314E-04 83784   0.297E-02    0.552E-02
DAV:  27    -0.797001404586E+03   -0.66405E-05   -0.97571E-05 75756   0.154E-02
   1 F= -.79700140E+03 E0= -.79698399E+03  d E =-.797001E+03  mag=     0.9902
       N       E                     dE             d eps       ncg     rms          rms(c)
DAV:   1    -0.797001429748E+03   -0.31802E-04   -0.50279E-03 75888   0.131E-01    0.764E-02
DAV:   2    -0.797001512235E+03   -0.82487E-04   -0.13661E-03109056   0.563E-02    0.223E-01
DAV:   3    -0.797001407061E+03    0.10517E-03   -0.59032E-04105684   0.389E-02    0.457E-02
DAV:   4    -0.797001421751E+03   -0.14690E-04   -0.86587E-05 83268   0.170E-02    0.203E-02
DAV:   5    -0.797001424803E+03   -0.30524E-05   -0.14910E-05 48432   0.854E-03
   2 F= -.79700142E+03 E0= -.79698395E+03  d E =-.202170E-04  mag=     0.9931
       N       E                     dE             d eps       ncg     rms          rms(c)
DAV:   1    -0.797001428011E+03   -0.62602E-05   -0.13600E-03 75888   0.687E-02    0.198E-02
DAV:   2    -0.797001431508E+03   -0.34967E-05   -0.64669E-05 78684   0.149E-02    0.353E-02
DAV:   3    -0.797001429179E+03    0.23292E-05   -0.17030E-05 43824   0.822E-03    0.758E-03
DAV:   4    -0.797001429688E+03   -0.50930E-06   -0.62489E-06 40428   0.408E-03
   3 F= -.79700143E+03 E0= -.79698392E+03  d E =-.488466E-05  mag=     0.9938
