       N       E                     dE             d eps       ncg     rms          ort
DAV:   1     0.105808121320E+05    0.10581E+05   -0.46543E+05  8260   0.177E+03
DAV:   2     0.109275162630E+03   -0.10472E+05   -0.96833E+04  8260   0.491E+02
DAV:   3    -0.144230921109E+04   -0.15516E+04   -0.13804E+04  8260   0.195E+02
DAV:   4    -0.153838519321E+04   -0.96076E+02   -0.94486E+02  8260   0.475E+01
DAV:   5    -0.153956260838E+04   -0.11774E+01   -0.11750E+01  8260   0.567E+00
SDA:   6    -0.131240480268E+04    0.22716E+03   -0.11750E+01  8260   0.519E+02 0.000E+00
CGA:   7    -0.132148261836E+04   -0.90778E+01   -0.91521E+01  8260   0.846E+01 0.118E+01
CGA:   8    -0.132307989613E+04   -0.15973E+01   -0.15988E+01  8260   0.292E+01 0.141E+00
CGA:   9    -0.132389865502E+04   -0.81876E+00   -0.80925E+00  8260   0.898E+00 0.117E+00
CGA:  10    -0.132423799977E+04   -0.33934E+00   -0.38705E+00  8260   0.842E+00-0.226E+00
CGA:  11    -0.132439612901E+04   -0.15813E+00   -0.16835E+00  8260   0.407E+00-0.190E+00
CGA:  12    -0.132448936182E+04   -0.93233E-01   -0.99509E-01  8260   0.213E+00-0.638E-01
CGA:  13    -0.132453180496E+04   -0.42443E-01   -0.42594E-01  8260   0.800E-01-0.905E-02
CGA:  14    -0.132455789711E+04   -0.26092E-01   -0.31372E-01  8260   0.641E-01-0.281E-01
CGA:  15    -0.132456860185E+04   -0.10705E-01   -0.10887E-01  8260   0.322E-01-0.579E-02
CGA:  16    -0.132457414402E+04   -0.55422E-02   -0.57478E-02  8260   0.147E-01 0.574E-02
CGA:  17    -0.132457769162E+04   -0.35476E-02   -0.36270E-02  8260   0.679E-02 0.379E-02
CGA:  18    -0.132458014419E+04   -0.24526E-02   -0.24770E-02  8260   0.334E-02-0.413E-03
CGA:  19    -0.132458040904E+04   -0.26485E-03   -0.41803E-03  8260   0.185E-02 0.154E-02
CGA:  20    -0.132458036737E+04    0.41672E-04   -0.21557E-03  8260   0.102E-02 0.174E-02
CGA:  21    -0.132458029086E+04    0.76511E-04   -0.63613E-04  8260   0.773E-03 0.890E-03
CGA:  22    -0.132458022052E+04    0.70341E-04   -0.41085E-04  8260   0.631E-03 0.701E-03
CGA:  23    -0.132458015728E+04    0.63235E-04   -0.29236E-04  8260   0.540E-03 0.586E-03
CGA:  24    -0.132458010055E+04    0.56732E-04   -0.22134E-04  8260   0.475E-03 0.508E-03
CGA:  25    -0.132458004948E+04    0.51067E-04   -0.17486E-04  8260   0.428E-03 0.452E-03
CGA:  26    -0.132458000330E+04    0.46180E-04   -0.14246E-04  8260   0.391E-03 0.409E-03
CGA:  27    -0.132457996135E+04    0.41955E-04   -0.11878E-04  8260   0.361E-03 0.376E-03
CGA:  28    -0.132457992307E+04    0.38283E-04   -0.10083E-04  8260   0.337E-03 0.349E-03
CGA:  29    -0.132457988800E+04    0.35068E-04   -0.86834E-05  8260   0.317E-03 0.327E-03
CGA:  30    -0.132457985576E+04    0.32235E-04   -0.75656E-05  8260   0.300E-03 0.309E-03
CGA:  31    -0.132457982604E+04    0.29722E-04   -0.66558E-05  8260   0.286E-03 0.293E-03
CGA:  32    -0.132457979856E+04    0.27482E-04   -0.59035E-05  8260   0.273E-03 0.279E-03
CGA:  33    -0.132457977308E+04    0.25476E-04   -0.52733E-05  8260   0.262E-03 0.268E-03
CGA:  34    -0.132457974941E+04    0.23670E-04   -0.47395E-05  8260   0.253E-03 0.257E-03
CGA:  35    -0.132457972738E+04    0.22036E-04   -0.42823E-05  8260   0.244E-03 0.248E-03
CGA:  36    -0.132457970683E+04    0.20553E-04   -0.38874E-05  8260   0.237E-03 0.240E-03
CGA:  37    -0.132457968762E+04    0.19202E-04   -0.35432E-05  8260   0.230E-03 0.233E-03
CGA:  38    -0.132457966966E+04    0.17965E-04   -0.32410E-05  8260   0.224E-03 0.227E-03
CGA:  39    -0.132457965283E+04    0.16831E-04   -0.29739E-05  8260   0.218E-03 0.221E-03
CGA:  40    -0.132457963704E+04    0.15788E-04   -0.27366E-05  8260   0.213E-03 0.216E-03
CGA:  41    -0.132457962221E+04    0.14826E-04   -0.25247E-05  8260   0.208E-03 0.211E-03
CGA:  42    -0.132457960828E+04    0.13937E-04   -0.23346E-05  8260   0.204E-03 0.206E-03
CGA:  43    -0.132457959516E+04    0.13113E-04   -0.21635E-05  8260   0.200E-03 0.202E-03
CGA:  44    -0.132457958281E+04    0.12350E-04   -0.20087E-05  8260   0.197E-03 0.199E-03
CGA:  45    -0.132457957118E+04    0.11640E-04   -0.18684E-05  8260   0.193E-03 0.195E-03
CGA:  46    -0.132457956020E+04    0.10979E-04   -0.17407E-05  8260   0.190E-03 0.192E-03
CGA:  47    -0.132457954983E+04    0.10363E-04   -0.16241E-05  8260   0.188E-03 0.189E-03
CGA:  48    -0.132457954005E+04    0.97878E-05   -0.15175E-05  8260   0.185E-03 0.186E-03
   1 F= -.13245795E+04 E0= -.13245795E+04  d E =-.132458E+04  mag=   126.0000
       N       E                     dE             d eps       ncg     rms          ort
SDA:   1    -0.132457087446E+04    0.86754E-02    0.00000E+00  8260   0.206E-01 0.000E+00
CGA:   2    -0.132457366641E+04   -0.27920E-02   -0.44238E-03  8260   0.344E-01-0.153E-01
CGA:   3    -0.132457736993E+04   -0.37035E-02   -0.37313E-02  8260   0.228E-02 0.453E-02
CGA:   4    -0.132457750121E+04   -0.13128E-03   -0.19193E-03  8260   0.909E-03 0.151E-02
CGA:   5    -0.132457753503E+04   -0.33814E-04   -0.62814E-04  8260   0.502E-03 0.671E-03
CGA:   6    -0.132457754895E+04   -0.13924E-04   -0.32416E-04  8260   0.329E-03 0.406E-03
CGA:   7    -0.132457755713E+04   -0.81777E-05   -0.20649E-04  8260   0.234E-03 0.277E-03
CGA:   8    -0.132457756274E+04   -0.56070E-05   -0.14492E-04  8260   0.177E-03 0.203E-03
CGA:   9    -0.132457756669E+04   -0.39532E-05   -0.10678E-04  8260   0.139E-03 0.156E-03
   2 F= -.13245776E+04 E0= -.13245776E+04  d E =0.197335E-02  mag=   126.0000
       N       E                     dE             d eps       ncg     rms          ort
SDA:   1    -0.132457379915E+04    0.37636E-02    0.00000E+00  8260   0.117E-01 0.000E+00
CGA:   2    -0.132457587997E+04   -0.20808E-02   -0.18802E-02  8260   0.307E-02 0.324E-02
CGA:   3    -0.132457686948E+04   -0.98950E-03   -0.98443E-03  8260   0.101E-02 0.329E-04
CGA:   4    -0.132457717791E+04   -0.30843E-03    0.14487E-03  8260   0.391E-03 0.537E-03
CGA:   5    -0.132457729704E+04   -0.11914E-03    0.54785E-04  8260   0.141E-03 0.226E-03
CGA:   6    -0.132457733125E+04   -0.34206E-04    0.70559E-04  8260   0.696E-04 0.967E-04
CGA:   7    -0.132457734530E+04   -0.14050E-04   -0.11557E-04  8260   0.313E-04 0.442E-04
CGA:   8    -0.132457734525E+04    0.53296E-07   -0.16560E-05  8260   0.266E-04 0.287E-04
   3 F= -.13245773E+04 E0= -.13245773E+04  d E =0.219480E-02  mag=   126.0000
       N       E                     dE             d eps       ncg     rms          ort
SDA:   1    -0.132457701280E+04    0.33250E-03    0.00000E+00  8260   0.906E-03 0.000E+00
CGA:   2    -0.132457655233E+04    0.46047E-03   -0.29500E-03  8260   0.705E-02-0.197E-02
CGA:   3    -0.132457725994E+04   -0.70762E-03   -0.78847E-03  8260   0.528E-03 0.978E-03
CGA:   4    -0.132457727580E+04   -0.15862E-04   -0.49851E-04  8260   0.173E-03 0.317E-03
CGA:   5    -0.132457728420E+04   -0.83914E-05   -0.17014E-04  8260   0.609E-04 0.994E-04
CGA:   6    -0.132457730120E+04   -0.17005E-04   -0.16912E-04  8260   0.522E-05 0.933E-06
CGA:   7    -0.132457732586E+04   -0.24662E-04    0.42446E-07  8260   0.128E-05 0.202E-05
CGA:   8    -0.132457733231E+04   -0.64514E-05    0.18783E-07  8260   0.349E-06 0.624E-06
   4 F= -.13245773E+04 E0= -.13245773E+04  d E =0.220773E-02  mag=   126.0000
       N       E                     dE             d eps       ncg     rms          ort
SDA:   1    -0.132457730015E+04    0.25712E-04    0.00000E+00  8260   0.151E-04 0.000E+00
CGA:   2    -0.132457732495E+04   -0.24804E-04    0.36530E-06  8260   0.397E-05 0.279E-05
CGA:   3    -0.132457732768E+04   -0.27254E-05    0.64875E-06  8260   0.107E-05 0.128E-05
CGA:   4    -0.132457732746E+04    0.22408E-06   -0.10180E-07  8260   0.100E-05 0.138E-05
   5 F= -.13245773E+04 E0= -.13245773E+04  d E =0.221259E-02  mag=   126.0000
