       N       E                     dE             d eps       ncg     rms          ort
DAV:   1     0.829043858310E+04    0.82904E+04   -0.24693E+05  8424   0.239E+03
DAV:   2     0.920574850416E+03   -0.73699E+04   -0.69189E+04  8424   0.659E+02
DAV:   3    -0.677414417223E+03   -0.15980E+04   -0.14054E+04  8424   0.283E+02
DAV:   4    -0.834123911116E+03   -0.15671E+03   -0.15397E+03  8424   0.859E+01
DAV:   5    -0.836659662090E+03   -0.25358E+01   -0.25239E+01  8424   0.122E+01
SDA:   6    -0.246924413052E+03    0.58974E+03   -0.25239E+01  8424   0.732E+04 0.000E+00
CGA:   7    -0.189959403983E+03    0.56965E+02   -0.44032E+03  8424   0.287E+05-0.456E+04
CGA:   8     0.149540403478E+04    0.16854E+04   -0.18266E+04  8424   0.149E+06-0.541E+05
CGA:   9     0.516586998511E+04    0.36705E+04   -0.11704E+05  8424   0.208E+05-0.115E+05
CGA:  10     0.724511223623E+03   -0.44414E+04   -0.80058E+03  8424   0.721E+05-0.115E+06
CGA:  11     0.408666349139E+04    0.33622E+04   -0.48375E+04  8424   0.205E+05-0.840E+04
CGA:  12     0.168382623477E+04   -0.24028E+04   -0.67086E+03  8424   0.192E+06-0.253E+06
CGA:  13     0.476670027240E+04    0.30829E+04   -0.13683E+05  8424   0.197E+05-0.106E+05
CGA:  14     0.116581252153E+04   -0.36009E+04   -0.69393E+03  8424   0.376E+05-0.493E+05
CGA:  15     0.278257496982E+04    0.16168E+04   -0.19209E+04  8424   0.117E+06-0.694E+05
CGA:  16     0.450450877369E+04    0.17219E+04   -0.73111E+04  8424   0.177E+05-0.128E+05
CGA:  17    -0.264411811172E+02   -0.45309E+04   -0.45548E+03  8424   0.245E+05 0.727E+05
CGA:  18    -0.117243323019E+03   -0.90802E+02   -0.97697E+03  8424   0.233E+05-0.238E+05
CGA:  19    -0.370873367424E+03   -0.25363E+03   -0.84917E+03  8424   0.166E+05-0.228E+05
CGA:  20    -0.614956961680E+03   -0.24408E+03   -0.53694E+03  8424   0.136E+04-0.359E+04
CGA:  21    -0.644679710497E+03   -0.29723E+02   -0.42132E+02  8424   0.763E+02 0.105E+03
CGA:  22    -0.656464857253E+03   -0.11785E+02   -0.11436E+02  8424   0.432E+02 0.110E+02
CGA:  23    -0.666640081484E+03   -0.10175E+02   -0.11919E+02  8424   0.330E+02-0.357E+01
CGA:  24    -0.671734066781E+03   -0.50940E+01   -0.49246E+01  8424   0.127E+02-0.101E+02
CGA:  25    -0.672835679539E+03   -0.11016E+01   -0.11070E+01  8424   0.156E+02 0.127E+01
CGA:  26    -0.672990413638E+03   -0.15473E+00   -0.79647E+00  8424   0.207E+02-0.144E+02
CGA:  27    -0.673534868060E+03   -0.54445E+00   -0.12300E+01  8424   0.163E+02-0.724E+01
CGA:  28    -0.674526366070E+03   -0.99150E+00   -0.10060E+01  8424   0.313E+01 0.154E+00
CGA:  29    -0.674851805044E+03   -0.32544E+00   -0.32422E+00  8424   0.227E+01-0.214E-01
CGA:  30    -0.675034116945E+03   -0.18231E+00   -0.19739E+00  8424   0.105E+01 0.116E+00
CGA:  31    -0.675166900072E+03   -0.13278E+00   -0.13257E+00  8424   0.334E+00 0.411E-01
CGA:  32    -0.675251222941E+03   -0.84323E-01   -0.83012E-01  8424   0.276E+00 0.993E-02
CGA:  33    -0.675312171605E+03   -0.60949E-01   -0.60862E-01  8424   0.192E+00-0.298E-02
CGA:  34    -0.675340580287E+03   -0.28409E-01   -0.28222E-01  8424   0.514E-01 0.101E-01
CGA:  35    -0.675351382431E+03   -0.10802E-01   -0.10471E-01  8424   0.241E-01 0.431E-02
CGA:  36    -0.675359511374E+03   -0.81289E-02   -0.81436E-02  8424   0.239E-01-0.295E-03
CGA:  37    -0.675365261623E+03   -0.57502E-02   -0.60499E-02  8424   0.253E-01-0.274E-02
CGA:  38    -0.675372279969E+03   -0.70183E-02   -0.72540E-02  8424   0.232E-01-0.207E-02
CGA:  39    -0.675377923587E+03   -0.56436E-02   -0.67233E-02  8424   0.324E-01-0.681E-02
CGA:  40    -0.675381237622E+03   -0.33140E-02   -0.31159E-02  8424   0.217E-01-0.517E-02
CGA:  41    -0.675385351580E+03   -0.41140E-02   -0.82059E-02  8424   0.731E-01-0.145E-01
CGA:  42    -0.675395615114E+03   -0.10264E-01   -0.10123E-01  8424   0.216E-01-0.422E-02
CGA:  43    -0.675399965031E+03   -0.43499E-02   -0.44277E-02  8424   0.358E-01-0.121E-02
CGA:  44    -0.675410448759E+03   -0.10484E-01   -0.11219E-01  8424   0.249E-01-0.499E-02
CGA:  45    -0.675402625396E+03    0.78234E-02   -0.69757E-02  8424   0.417E+00-0.326E-01
CGA:  46    -0.675448587465E+03   -0.45962E-01   -0.45531E-01  8424   0.350E-01 0.717E-02
CGA:  47    -0.675457632246E+03   -0.90448E-02   -0.89576E-02  8424   0.684E-01-0.400E-02
CGA:  48    -0.675478297737E+03   -0.20665E-01   -0.21378E-01  8424   0.929E-01-0.167E-01
CGA:  49    -0.675497253094E+03   -0.18955E-01   -0.42972E-01  8424   0.442E+00-0.833E-01
CGA:  50    -0.675558751398E+03   -0.61498E-01   -0.62656E-01  8424   0.118E+00-0.203E-01
CGA:  51    -0.675599581738E+03   -0.40830E-01   -0.41237E-01  8424   0.855E-01-0.971E-02
CGA:  52    -0.675621937815E+03   -0.22356E-01   -0.21780E-01  8424   0.579E-01-0.132E-01
CGA:  53    -0.675642728122E+03   -0.20790E-01   -0.33191E-01  8424   0.132E+00-0.345E-01
CGA:  54    -0.675665446306E+03   -0.22718E-01   -0.22178E-01  8424   0.316E-01-0.507E-02
CGA:  55    -0.675674840758E+03   -0.93945E-02   -0.93185E-02  8424   0.156E-01-0.254E-02
CGA:  56    -0.675680716921E+03   -0.58762E-02   -0.67197E-02  8424   0.205E-01-0.628E-02
CGA:  57    -0.675684517827E+03   -0.38009E-02   -0.34935E-02  8424   0.116E-01-0.541E-02
CGA:  58    -0.675675994862E+03    0.85230E-02   -0.10844E-01  8424   0.111E+00-0.205E-01
CGA:  59    -0.675697428392E+03   -0.21434E-01   -0.21372E-01  8424   0.756E-02-0.447E-03
CGA:  60    -0.675699119390E+03   -0.16910E-02   -0.18044E-02  8424   0.389E-02 0.849E-03
CGA:  61    -0.675700606252E+03   -0.14869E-02   -0.15018E-02  8424   0.189E-02 0.676E-03
CGA:  62    -0.675701317250E+03   -0.71100E-03   -0.73825E-03  8424   0.932E-03 0.805E-03
CGA:  63    -0.675701747464E+03   -0.43021E-03   -0.44744E-03  8424   0.774E-03 0.590E-03
CGA:  64    -0.675702088631E+03   -0.34117E-03   -0.35218E-03  8424   0.162E-02-0.124E-03
CGA:  65    -0.675702849884E+03   -0.76125E-03   -0.71370E-03  8424   0.201E-02 0.293E-03
CGA:  66    -0.675704039076E+03   -0.11892E-02   -0.11861E-02  8424   0.363E-02-0.195E-04
CGA:  67    -0.675706047140E+03   -0.20081E-02   -0.24616E-02  8424   0.138E-01-0.181E-02
CGA:  68    -0.675708464671E+03   -0.24175E-02   -0.19327E-02  8424   0.212E-01-0.474E-02
CGA:  69    -0.675711364662E+03   -0.29000E-02   -0.18639E-02  8424   0.115E-01-0.487E-02
CGA:  70    -0.675713616960E+03   -0.22523E-02   -0.14841E-02  8424   0.863E-02-0.434E-02
CGA:  71    -0.675715418578E+03   -0.18016E-02   -0.10255E-02  8424   0.680E-02-0.458E-02
CGA:  72    -0.675717676018E+03   -0.22574E-02   -0.22543E-02  8424   0.552E-02-0.141E-03
CGA:  73    -0.675720550419E+03   -0.28744E-02   -0.29229E-02  8424   0.593E-02-0.363E-03
CGA:  74    -0.675723305370E+03   -0.27550E-02   -0.28917E-02  8424   0.316E-02-0.104E-02
CGA:  75    -0.675724106953E+03   -0.80158E-03   -0.80577E-03  8424   0.232E-02 0.685E-05
CGA:  76    -0.675725306993E+03   -0.12000E-02   -0.12913E-02  8424   0.251E-02-0.567E-03
CGA:  77    -0.675725861218E+03   -0.55423E-03   -0.57402E-03  8424   0.104E-02 0.192E-03
CGA:  78    -0.675726136613E+03   -0.27540E-03   -0.30969E-03  8424   0.558E-03 0.333E-03
CGA:  79    -0.675726317470E+03   -0.18086E-03   -0.20366E-03  8424   0.325E-03 0.232E-03
CGA:  80    -0.675726406868E+03   -0.89398E-04   -0.11415E-03  8424   0.163E-03 0.205E-03
CGA:  81    -0.675726486500E+03   -0.79632E-04   -0.18870E-03  8424   0.948E-03-0.140E-03
CGA:  82    -0.675726753711E+03   -0.26721E-03   -0.23602E-03  8424   0.289E-03-0.206E-03
CGA:  83    -0.675726828060E+03   -0.74349E-04   -0.72661E-04  8424   0.190E-03-0.244E-04
CGA:  84    -0.675727048865E+03   -0.22080E-03    0.53994E-04  8424   0.133E-03 0.714E-04
CGA:  85    -0.675727341989E+03   -0.29312E-03    0.34101E-04  8424   0.134E-03 0.101E-03
CGA:  86    -0.675727449133E+03   -0.10714E-03    0.89973E-03  8424   0.223E-03-0.346E-04
CGA:  87    -0.675727829092E+03   -0.37996E-03    0.16593E-04  8424   0.280E-03 0.119E-03
CGA:  88    -0.675727842073E+03   -0.12981E-04   -0.20028E-03  8424   0.220E-02-0.579E-03
CGA:  89    -0.675728193715E+03   -0.35164E-03   -0.35531E-03  8424   0.128E-03 0.150E-04
CGA:  90    -0.675728381320E+03   -0.18761E-03    0.29819E-04  8424   0.138E-03 0.104E-04
CGA:  91    -0.675728717472E+03   -0.33615E-03    0.15810E-04  8424   0.156E-03 0.126E-03
CGA:  92    -0.675728896057E+03   -0.17859E-03    0.68411E-04  8424   0.134E-03 0.714E-05
CGA:  93    -0.675729204837E+03   -0.30878E-03    0.15303E-04  8424   0.141E-03 0.113E-03
CGA:  94    -0.675729406222E+03   -0.20138E-03    0.34420E-04  8424   0.984E-04 0.404E-04
CGA:  95    -0.675729701130E+03   -0.29491E-03    0.12725E-04  8424   0.118E-03 0.116E-03
CGA:  96    -0.675729906425E+03   -0.20530E-03    0.19265E-04  8424   0.945E-04 0.606E-04
CGA:  97    -0.675730079112E+03   -0.17269E-03    0.14081E-04  8424   0.110E-03 0.628E-04
CGA:  98    -0.675730297659E+03   -0.21855E-03    0.14252E-04  8424   0.183E-03 0.306E-04
CGA:  99    -0.675730826055E+03   -0.52840E-03    0.24527E-04  8424   0.129E-03 0.229E-03
CGA: 100    -0.675730990104E+03   -0.16405E-03    0.41458E-04  8424   0.217E-03 0.213E-04
CGA: 101    -0.675731569820E+03   -0.57972E-03    0.25966E-04  8424   0.183E-03 0.229E-03
CGA: 102    -0.675731819938E+03   -0.25012E-03    0.48970E-04  8424   0.229E-03-0.535E-06
CGA: 103    -0.675732295163E+03   -0.47523E-03    0.27451E-04  8424   0.267E-03 0.164E-03
CGA: 104    -0.675732561498E+03   -0.26633E-03    0.19845E-03  8424   0.194E-03-0.181E-04
CGA: 105    -0.675732956762E+03   -0.39526E-03    0.20156E-04  8424   0.210E-03 0.164E-03
CGA: 106    -0.675733237170E+03   -0.28041E-03    0.59865E-04  8424   0.170E-03 0.390E-04
CGA: 107    -0.675733662967E+03   -0.42580E-03    0.23637E-04  8424   0.208E-03 0.165E-03
CGA: 108    -0.675733961748E+03   -0.29878E-03    0.49482E-04  8424   0.178E-03 0.520E-04
CGA: 109    -0.675734419447E+03   -0.45770E-03    0.27027E-04  8424   0.215E-03 0.174E-03
CGA: 110    -0.675734730893E+03   -0.31145E-03    0.50746E-04  8424   0.179E-03 0.629E-04
CGA: 111    -0.675735207750E+03   -0.47686E-03    0.27976E-04  8424   0.219E-03 0.184E-03
CGA: 112    -0.675735536082E+03   -0.32833E-03    0.47648E-04  8424   0.184E-03 0.728E-04
CGA: 113    -0.675736043723E+03   -0.50764E-03    0.29683E-04  8424   0.224E-03 0.198E-03
CGA: 114    -0.675736384459E+03   -0.34074E-03    0.47522E-04  8424   0.186E-03 0.841E-04
CGA: 115    -0.675736917612E+03   -0.53315E-03    0.30564E-04  8424   0.228E-03 0.212E-03
CGA: 116    -0.675737274940E+03   -0.35733E-03    0.45348E-04  8424   0.190E-03 0.942E-04
CGA: 117    -0.675737840210E+03   -0.56527E-03    0.31806E-04  8424   0.232E-03 0.228E-03
CGA: 118    -0.675738210257E+03   -0.37005E-03    0.44828E-04  8424   0.192E-03 0.105E-03
CGA: 119    -0.675738803561E+03   -0.59330E-03    0.32558E-04  8424   0.236E-03 0.243E-03
CGA: 120    -0.675739189742E+03   -0.38618E-03    0.42975E-04  8424   0.196E-03 0.116E-03
CGA: 121    -0.675739814794E+03   -0.62505E-03    0.33397E-04  8424   0.239E-03 0.258E-03
CGA: 122    -0.675740213229E+03   -0.39844E-03    0.42068E-04  8424   0.197E-03 0.127E-03
CGA: 123    -0.675740555122E+03   -0.34189E-03    0.32216E-04  8424   0.236E-03 0.127E-03
CGA: 124    -0.675740966513E+03   -0.41139E-03    0.38119E-04  8424   0.400E-03 0.490E-04
CGA: 125    -0.675742015843E+03   -0.10493E-02    0.54117E-04  8424   0.299E-03 0.477E-03
CGA: 126    -0.675742310470E+03   -0.29463E-03    0.23214E-03  8424   0.611E-03-0.408E-04
CGA: 127    -0.675743514502E+03   -0.12040E-02    0.54724E-04  8424   0.774E-03 0.488E-03
CGA: 128    -0.675743735581E+03   -0.22108E-03   -0.40784E-03  8424   0.495E-02-0.141E-02
CGA: 129    -0.675744348061E+03   -0.61248E-03   -0.64128E-03  8424   0.233E-03 0.130E-03
CGA: 130    -0.675744783575E+03   -0.43551E-03    0.34095E-04  8424   0.249E-03 0.153E-03
CGA: 131    -0.675745235735E+03   -0.45216E-03    0.35868E-04  8424   0.306E-03 0.118E-03
CGA: 132    -0.675746173171E+03   -0.93744E-03    0.51771E-04  8424   0.281E-03 0.397E-03
CGA: 133    -0.675746633377E+03   -0.46021E-03    0.48579E-04  8424   0.247E-03 0.131E-03
CGA: 134    -0.675747451037E+03   -0.81766E-03    0.36608E-04  8424   0.285E-03 0.349E-03
CGA: 135    -0.675747925719E+03   -0.47468E-03    0.47901E-04  8424   0.238E-03 0.143E-03
CGA: 136    -0.675748361156E+03   -0.43544E-03    0.33805E-04  8424   0.246E-03 0.163E-03
CGA: 137    -0.675748848070E+03   -0.48691E-03    0.30644E-04  8424   0.336E-03 0.125E-03
CGA: 138    -0.675749192596E+03   -0.34453E-03    0.20002E-03  8424   0.706E-03-0.550E-04
CGA: 139    -0.675750601571E+03   -0.14090E-02    0.54783E-04  8424   0.956E-03 0.573E-03
CGA: 140    -0.675750975336E+03   -0.37377E-03   -0.35532E-03  8424   0.296E-02-0.120E-02
CGA: 141    -0.675751371069E+03   -0.39573E-03   -0.39340E-03  8424   0.224E-03 0.168E-05
CGA: 142    -0.675751869800E+03   -0.49873E-03    0.21183E-04  8424   0.226E-03 0.215E-03
CGA: 143    -0.675752354691E+03   -0.48489E-03    0.22473E-04  8424   0.272E-03 0.170E-03
CGA: 144    -0.675752752412E+03   -0.39772E-03    0.52834E-04  8424   0.480E-03 0.730E-04
CGA: 145    -0.675754094312E+03   -0.13419E-02    0.58196E-04  8424   0.300E-03 0.579E-03
CGA: 146    -0.675754595057E+03   -0.50074E-03    0.45407E-04  8424   0.519E-03 0.406E-04
CGA: 147    -0.675755886755E+03   -0.12917E-02    0.56822E-04  8424   0.434E-03 0.524E-03
CGA: 148    -0.675756302968E+03   -0.41621E-03    0.28433E-03  8424   0.561E-03-0.699E-04
CGA: 149    -0.675757401697E+03   -0.10987E-02    0.41412E-04  8424   0.671E-03 0.354E-03
CGA: 150    -0.675757907902E+03   -0.50620E-03    0.12546E-01  8424   0.523E-03-0.194E-03
CGA: 151    -0.675758776427E+03   -0.86853E-03    0.32563E-04  8424   0.480E-03 0.350E-03
CGA: 152    -0.675759283954E+03   -0.50753E-03    0.21658E-03  8424   0.328E-03 0.984E-05
CGA: 153    -0.675760102873E+03   -0.81892E-03    0.27381E-04  8424   0.342E-03 0.309E-03
CGA: 154    -0.675760587145E+03   -0.48427E-03    0.71247E-04  8424   0.252E-03 0.112E-03
CGA: 155    -0.675761424135E+03   -0.83699E-03    0.26540E-04  8424   0.293E-03 0.300E-03
CGA: 156    -0.675761909684E+03   -0.48555E-03    0.45052E-04  8424   0.223E-03 0.142E-03
CGA: 157    -0.675762753020E+03   -0.84334E-03    0.25637E-04  8424   0.264E-03 0.302E-03
CGA: 158    -0.675763234381E+03   -0.48136E-03    0.34152E-04  8424   0.205E-03 0.155E-03
CGA: 159    -0.675763727029E+03   -0.49265E-03    0.17189E-04  8424   0.202E-03 0.171E-03
CGA: 160    -0.675764175272E+03   -0.44824E-03    0.19239E-04  8424   0.225E-03 0.160E-03
CGA: 161    -0.675764679471E+03   -0.50420E-03    0.20920E-04  8424   0.300E-03 0.116E-03
CGA: 162    -0.675765055024E+03   -0.37555E-03    0.83193E-04  8424   0.555E-03-0.248E-04
CGA: 163    -0.675766398493E+03   -0.13435E-02    0.37621E-04  8424   0.612E-03 0.501E-03
CGA: 164    -0.675752760301E+03    0.13638E-01   -0.75145E-02  8424   0.139E+00-0.745E-02
CGA: 165    -0.675769722437E+03   -0.16962E-01   -0.16751E-01  8424   0.476E-03 0.610E-02
CGA: 166    -0.675769956592E+03   -0.23416E-03   -0.14541E-03  8424   0.774E-03-0.247E-03
CGA: 167    -0.675770357510E+03   -0.40092E-03   -0.20408E-03  8424   0.988E-03-0.533E-03
CGA: 168    -0.675770562575E+03   -0.20506E-03   -0.15593E-03  8424   0.251E-03-0.104E-03
CGA: 169    -0.675771481509E+03   -0.91893E-03    0.27273E-04  8424   0.165E-03 0.192E-03
CGA: 170    -0.675772183745E+03   -0.70224E-03    0.18857E-04  8424   0.260E-03 0.126E-03
CGA: 171    -0.675772702611E+03   -0.51887E-03    0.11299E-03  8424   0.185E-02-0.269E-03
CGA: 172    -0.675773042069E+03   -0.33946E-03   -0.25573E-03  8424   0.227E-03-0.179E-03
CGA: 173    -0.675773805501E+03   -0.76343E-03    0.25910E-04  8424   0.361E-03 0.927E-04
CGA: 174    -0.675775552107E+03   -0.17466E-02    0.72311E-04  8424   0.506E-03 0.257E-03
CGA: 175    -0.675775881048E+03   -0.32894E-03   -0.25605E-03  8424   0.453E-02-0.113E-02
CGA: 176    -0.675776330536E+03   -0.44949E-03   -0.50545E-03  8424   0.145E-03 0.141E-03
CGA: 177    -0.675776861998E+03   -0.53146E-03    0.18064E-04  8424   0.321E-03 0.664E-04
CGA: 178    -0.675778865382E+03   -0.20034E-02    0.43600E-04  8424   0.299E-03 0.343E-03
CGA: 179    -0.675779032310E+03   -0.16693E-03   -0.15623E-03  8424   0.201E-02-0.475E-03
CGA: 180    -0.675779543349E+03   -0.51104E-03   -0.31881E-03  8424   0.346E-03-0.505E-03
CGA: 181    -0.675780009968E+03   -0.46662E-03    0.94751E-04  8424   0.822E-03-0.121E-03
CGA: 182    -0.675782013198E+03   -0.20032E-02    0.54186E-04  8424   0.174E-03 0.362E-03
CGA: 183    -0.675782926292E+03   -0.91309E-03    0.26416E-04  8424   0.903E-03-0.101E-03
CGA: 184    -0.675783022381E+03   -0.96088E-04   -0.11617E-03  8424   0.885E-04 0.510E-04
CGA: 185    -0.675783452318E+03   -0.42994E-03    0.66418E-05  8424   0.155E-03 0.604E-04
CGA: 186    -0.675783906696E+03   -0.45438E-03    0.20575E-04  8424   0.591E-03-0.120E-03
CGA: 187    -0.675784008697E+03   -0.10200E-03   -0.94424E-04  8424   0.995E-04-0.221E-04
CGA: 188    -0.675784469735E+03   -0.46104E-03    0.59244E-05  8424   0.103E-03 0.670E-04
CGA: 189    -0.675784840603E+03   -0.37087E-03    0.92428E-05  8424   0.171E-03 0.971E-05
CGA: 190    -0.675785812763E+03   -0.97216E-03    0.10543E-04  8424   0.167E-03 0.152E-03
CGA: 191    -0.675786146731E+03   -0.33397E-03    0.38730E-04  8424   0.311E-03-0.974E-04
CGA: 192    -0.675786282052E+03   -0.13532E-03   -0.17420E-03  8424   0.160E-02-0.534E-03
CGA: 193    -0.675786683625E+03   -0.40157E-03   -0.29168E-03  8424   0.266E-03-0.360E-03
CGA: 194    -0.675786932993E+03   -0.24937E-03    0.18126E-03  8424   0.621E-03-0.196E-03
CGA: 195    -0.675787193299E+03   -0.26031E-03   -0.15862E-03  8424   0.583E-03-0.463E-03
CGA: 196    -0.675787297658E+03   -0.10436E-03   -0.84945E-04  8424   0.743E-04-0.599E-04
CGA: 197    -0.675787629297E+03   -0.33164E-03    0.32936E-05  8424   0.639E-04 0.429E-04
CGA: 198    -0.675787874219E+03   -0.24492E-03    0.43851E-05  8424   0.148E-03 0.423E-05
CGA: 199    -0.675788788910E+03   -0.91469E-03    0.65011E-05  8424   0.124E-03 0.125E-03
CGA: 200    -0.675789026613E+03   -0.23770E-03    0.24542E-04  8424   0.237E-03-0.933E-04
   1 F= -.67578903E+03 E0= -.67578903E+03  d E =-.675789E+03  mag=     1.0000
       N       E                     dE             d eps       ncg     rms          ort
SDA:   1    -0.675785824608E+03    0.29643E-02    0.00000E+00  8424   0.405E-01 0.000E+00
CGA:   2    -0.675790164036E+03   -0.43394E-02   -0.44914E-02  8424   0.454E-02 0.104E-02
CGA:   3    -0.675791238763E+03   -0.10747E-02   -0.10822E-02  8424   0.184E-02 0.374E-04
CGA:   4    -0.675791777730E+03   -0.53897E-03   -0.49897E-03  8424   0.873E-03-0.240E-03
CGA:   5    -0.675791948478E+03   -0.17075E-03   -0.12613E-03  8424   0.236E-03-0.172E-03
CGA:   6    -0.675792199960E+03   -0.25148E-03    0.64790E-04  8424   0.381E-03-0.151E-03
CGA:   7    -0.675792349544E+03   -0.14958E-03   -0.10491E-03  8424   0.528E-03-0.323E-03
CGA:   8    -0.675792451646E+03   -0.10210E-03   -0.75981E-04  8424   0.728E-04-0.997E-04
CGA:   9    -0.675792651981E+03   -0.20034E-03    0.35123E-05  8424   0.734E-04-0.248E-05
CGA:  10    -0.675793011645E+03   -0.35966E-03    0.25607E-05  8424   0.301E-04 0.399E-04
CGA:  11    -0.675793162517E+03   -0.15087E-03    0.11043E-05  8424   0.422E-04 0.106E-04
CGA:  12    -0.675793514591E+03   -0.35207E-03    0.16394E-05  8424   0.339E-04 0.396E-04
CGA:  13    -0.675793668057E+03   -0.15347E-03    0.14060E-05  8424   0.512E-04 0.165E-05
CGA:  14    -0.675794013984E+03   -0.34593E-03    0.14714E-05  8424   0.601E-04 0.213E-04
CGA:  15    -0.675794570763E+03   -0.55678E-03    0.22942E-05  8424   0.352E-04 0.590E-04
CGA:  16    -0.675794691494E+03   -0.12073E-03    0.20651E-05  8424   0.528E-04-0.205E-05
CGA:  17    -0.675794960647E+03   -0.26915E-03    0.16642E-05  8424   0.579E-04-0.585E-06
CGA:  18    -0.675795395252E+03   -0.43461E-03    0.13021E-05  8424   0.486E-04 0.369E-04
CGA:  19    -0.675795518997E+03   -0.12374E-03    0.42832E-05  8424   0.450E-04 0.127E-05
CGA:  20    -0.675795722251E+03   -0.20325E-03    0.19834E-05  8424   0.685E-04-0.222E-04
CGA:  21    -0.675796119609E+03   -0.39736E-03    0.50426E-06  8424   0.847E-04-0.944E-06
CGA:  22    -0.675796687750E+03   -0.56814E-03    0.21520E-05  8424   0.147E-03 0.256E-04
CGA:  23    -0.675797762037E+03   -0.10743E-02    0.61323E-05  8424   0.887E-04 0.405E-04
CGA:  24    -0.675798487566E+03   -0.72553E-03    0.31174E-05  8424   0.110E-03-0.107E-04
CGA:  25    -0.675799371156E+03   -0.88359E-03    0.18119E-05  8424   0.705E-04 0.214E-04
CGA:  26    -0.675799999589E+03   -0.62843E-03    0.19529E-05  8424   0.900E-04-0.797E-05
CGA:  27    -0.675800842458E+03   -0.84287E-03    0.12652E-05  8424   0.795E-04 0.137E-04
CGA:  28    -0.675801535126E+03   -0.69267E-03    0.20939E-05  8424   0.114E-03-0.466E-04
CGA:  29    -0.675801564153E+03   -0.29027E-04   -0.26883E-04  8424   0.293E-04-0.138E-04
CGA:  30    -0.675801559299E+03    0.48538E-05   -0.18722E-05  8424   0.204E-04 0.215E-04
   2 F= -.67580156E+03 E0= -.67580156E+03  d E =-.125327E-01  mag=     1.0000
       N       E                     dE             d eps       ncg     rms          ort
SDA:   1    -0.675801253384E+03    0.31077E-03    0.00000E+00  8424   0.106E-01 0.000E+00
CGA:   2    -0.675804655746E+03   -0.34024E-02   -0.33996E-02  8424   0.360E-02-0.849E-04
CGA:   3    -0.675805293337E+03   -0.63759E-03   -0.65464E-03  8424   0.991E-03 0.101E-03
CGA:   4    -0.675805491397E+03   -0.19806E-03   -0.19104E-03  8424   0.233E-03-0.448E-04
CGA:   5    -0.675805514156E+03   -0.22759E-04   -0.31230E-04  8424   0.504E-04 0.431E-04
CGA:   6    -0.675805512775E+03    0.13812E-05   -0.60260E-05  8424   0.221E-04 0.327E-04
   3 F= -.67580551E+03 E0= -.67580551E+03  d E =-.395348E-02  mag=     1.0000
       N       E                     dE             d eps       ncg     rms          ort
SDA:   1    -0.669611224646E+03    0.61943E+01    0.00000E+00  8424   0.155E+02 0.000E+00
CGA:   2    -0.674499590741E+03   -0.48884E+01   -0.48883E+01  8424   0.548E+01 0.828E-03
CGA:   3    -0.675497391837E+03   -0.99780E+00   -0.10037E+01  8424   0.162E+01 0.264E-02
CGA:   4    -0.675794417095E+03   -0.29703E+00   -0.29656E+00  8424   0.344E+00-0.260E-02
CGA:   5    -0.675854692074E+03   -0.60275E-01   -0.60263E-01  8424   0.938E-01 0.149E-04
CGA:   6    -0.675872717640E+03   -0.18026E-01   -0.18219E-01  8424   0.249E-01 0.195E-02
CGA:   7    -0.675879934037E+03   -0.72164E-02   -0.72160E-02  8424   0.102E-01 0.668E-03
CGA:   8    -0.675882437387E+03   -0.25034E-02   -0.25424E-02  8424   0.396E-02 0.989E-03
CGA:   9    -0.675883250334E+03   -0.81295E-03   -0.92036E-03  8424   0.157E-02 0.155E-02
CGA:  10    -0.675883481590E+03   -0.23126E-03   -0.36659E-03  8424   0.863E-03 0.123E-02
CGA:  11    -0.675883538343E+03   -0.56753E-04   -0.13171E-03  8424   0.546E-03 0.626E-03
CGA:  12    -0.675883523313E+03    0.15030E-04   -0.62520E-04  8424   0.479E-03 0.510E-03
CGA:  13    -0.675883500577E+03    0.22737E-04   -0.49053E-04  8424   0.439E-03 0.459E-03
CGA:  14    -0.675883474551E+03    0.26025E-04   -0.41081E-04  8424   0.412E-03 0.426E-03
CGA:  15    -0.675883447158E+03    0.27393E-04   -0.35641E-04  8424   0.392E-03 0.402E-03
CGA:  16    -0.675883419346E+03    0.27813E-04   -0.31605E-04  8424   0.376E-03 0.384E-03
CGA:  17    -0.675883391630E+03    0.27716E-04   -0.28445E-04  8424   0.363E-03 0.370E-03
CGA:  18    -0.675883364307E+03    0.27322E-04   -0.25876E-04  8424   0.352E-03 0.358E-03
CGA:  19    -0.675883337556E+03    0.26752E-04   -0.23728E-04  8424   0.343E-03 0.348E-03
CGA:  20    -0.675883311480E+03    0.26076E-04   -0.21894E-04  8424   0.335E-03 0.339E-03
CGA:  21    -0.675883286143E+03    0.25337E-04   -0.20302E-04  8424   0.328E-03 0.332E-03
CGA:  22    -0.675883261578E+03    0.24565E-04   -0.18904E-04  8424   0.322E-03 0.325E-03
CGA:  23    -0.675883237801E+03    0.23777E-04   -0.17661E-04  8424   0.317E-03 0.319E-03
CGA:  24    -0.675883214815E+03    0.22986E-04   -0.16547E-04  8424   0.312E-03 0.314E-03
CGA:  25    -0.675883192615E+03    0.22200E-04   -0.15546E-04  8424   0.307E-03 0.309E-03
CGA:  26    -0.675883171190E+03    0.21425E-04   -0.14642E-04  8424   0.304E-03 0.305E-03
CGA:  27    -0.675883150523E+03    0.20666E-04   -0.13816E-04  8424   0.300E-03 0.302E-03
CGA:  28    -0.675883130597E+03    0.19926E-04   -0.13058E-04  8424   0.297E-03 0.298E-03
CGA:  29    -0.675883111391E+03    0.19206E-04   -0.12358E-04  8424   0.294E-03 0.295E-03
CGA:  30    -0.675883092884E+03    0.18506E-04   -0.11710E-04  8424   0.291E-03 0.292E-03
CGA:  31    -0.675883075056E+03    0.17828E-04   -0.11109E-04  8424   0.289E-03 0.290E-03
CGA:  32    -0.675883057885E+03    0.17171E-04   -0.10549E-04  8424   0.286E-03 0.287E-03
CGA:  33    -0.675883041349E+03    0.16536E-04   -0.10026E-04  8424   0.284E-03 0.285E-03
CGA:  34    -0.675883025427E+03    0.15922E-04   -0.95366E-05  8424   0.282E-03 0.283E-03
CGA:  35    -0.675883010098E+03    0.15329E-04   -0.90778E-05  8424   0.280E-03 0.281E-03
CGA:  36    -0.675882995340E+03    0.14757E-04   -0.86469E-05  8424   0.278E-03 0.279E-03
CGA:  37    -0.675882981134E+03    0.14206E-04   -0.82414E-05  8424   0.277E-03 0.277E-03
CGA:  38    -0.675882967459E+03    0.13675E-04   -0.78593E-05  8424   0.275E-03 0.276E-03
CGA:  39    -0.675882954295E+03    0.13164E-04   -0.74986E-05  8424   0.274E-03 0.274E-03
CGA:  40    -0.675882941624E+03    0.12671E-04   -0.71578E-05  8424   0.272E-03 0.273E-03
CGA:  41    -0.675882929427E+03    0.12197E-04   -0.68352E-05  8424   0.271E-03 0.272E-03
CGA:  42    -0.675882917686E+03    0.11741E-04   -0.65297E-05  8424   0.270E-03 0.270E-03
CGA:  43    -0.675882906383E+03    0.11302E-04   -0.62399E-05  8424   0.269E-03 0.269E-03
CGA:  44    -0.675882895503E+03    0.10881E-04   -0.59648E-05  8424   0.268E-03 0.268E-03
CGA:  45    -0.675882885028E+03    0.10475E-04   -0.57033E-05  8424   0.267E-03 0.267E-03
CGA:  46    -0.675882874943E+03    0.10085E-04   -0.54545E-05  8424   0.266E-03 0.266E-03
CGA:  47    -0.675882865233E+03    0.97097E-05   -0.52176E-05  8424   0.265E-03 0.265E-03
   4 F= -.67588287E+03 E0= -.67588287E+03  d E =-.773525E-01  mag=     1.0000
       N       E                     dE             d eps       ncg     rms          ort
SDA:   1    -0.675592364714E+03    0.29051E+00    0.00000E+00  8424   0.933E+00 0.000E+00
CGA:   2    -0.675786382966E+03   -0.19402E+00   -0.19328E+00  8424   0.377E+00 0.528E-02
CGA:   3    -0.675865974605E+03   -0.79592E-01   -0.78898E-01  8424   0.118E+00 0.519E-02
CGA:   4    -0.675886116265E+03   -0.20142E-01   -0.19915E-01  8424   0.296E-01 0.270E-02
CGA:   5    -0.675891211110E+03   -0.50948E-02   -0.49492E-02  8424   0.556E-02 0.191E-02
CGA:   6    -0.675892265099E+03   -0.10540E-02   -0.94274E-03  8424   0.135E-02 0.164E-02
CGA:   7    -0.675892440906E+03   -0.17581E-03   -0.17215E-03  8424   0.710E-03 0.109E-02
CGA:   8    -0.675892474675E+03   -0.33769E-04   -0.49400E-04  8424   0.535E-03 0.608E-03
CGA:   9    -0.675892486211E+03   -0.11536E-04   -0.30130E-04  8424   0.459E-03 0.493E-03
CGA:  10    -0.675892489864E+03   -0.36527E-05   -0.22400E-04  8424   0.412E-03 0.433E-03
CGA:  11    -0.675892489606E+03    0.25789E-06   -0.17989E-04  8424   0.380E-03 0.394E-03
CGA:  12    -0.675892487134E+03    0.24720E-05   -0.15078E-04  8424   0.356E-03 0.366E-03
CGA:  13    -0.675892483323E+03    0.38115E-05   -0.12987E-04  8424   0.337E-03 0.345E-03
CGA:  14    -0.675892478675E+03    0.46476E-05   -0.11400E-04  8424   0.322E-03 0.328E-03
CGA:  15    -0.675892473503E+03    0.51724E-05   -0.10147E-04  8424   0.309E-03 0.314E-03
   5 F= -.67589247E+03 E0= -.67589247E+03  d E =-.960827E-02  mag=     1.0000
       N       E                     dE             d eps       ncg     rms          ort
SDA:   1    -0.675869076468E+03    0.23402E-01    0.00000E+00  8424   0.643E-01 0.000E+00
CGA:   2    -0.675888370672E+03   -0.19294E-01   -0.18747E-01  8424   0.265E-01 0.252E-02
CGA:   3    -0.675893161018E+03   -0.47903E-02   -0.45650E-02  8424   0.556E-02 0.283E-02
CGA:   4    -0.675894162965E+03   -0.10019E-02   -0.91487E-03  8424   0.139E-02 0.149E-02
CGA:   5    -0.675894368032E+03   -0.20507E-03   -0.19078E-03  8424   0.539E-03 0.942E-03
CGA:   6    -0.675894390201E+03   -0.22170E-04   -0.35145E-04  8424   0.389E-03 0.451E-03
CGA:   7    -0.675894394926E+03   -0.47246E-05   -0.19727E-04  8424   0.331E-03 0.359E-03
CGA:   8    -0.675894394436E+03    0.48953E-06   -0.14333E-04  8424   0.297E-03 0.314E-03
CGA:   9    -0.675894391581E+03    0.28550E-05   -0.11381E-04  8424   0.274E-03 0.286E-03
   6 F= -.67589439E+03 E0= -.67589439E+03  d E =-.191808E-02  mag=     1.0000
       N       E                     dE             d eps       ncg     rms          ort
SDA:   1    -0.675741159848E+03    0.15323E+00    0.00000E+00  8424   0.373E+00 0.000E+00
CGA:   2    -0.675864000775E+03   -0.12284E+00   -0.12286E+00  8424   0.142E+00-0.576E-04
CGA:   3    -0.675888861746E+03   -0.24861E-01   -0.24499E-01  8424   0.327E-01 0.470E-02
CGA:   4    -0.675894882332E+03   -0.60206E-02   -0.59359E-02  8424   0.789E-02 0.110E-02
CGA:   5    -0.675896224672E+03   -0.13423E-02   -0.12884E-02  8424   0.173E-02 0.979E-03
CGA:   6    -0.675896465492E+03   -0.24082E-03   -0.22909E-03  8424   0.639E-03 0.973E-03
CGA:   7    -0.675896506541E+03   -0.41049E-04   -0.52845E-04  8424   0.420E-03 0.497E-03
CGA:   8    -0.675896517997E+03   -0.11456E-04   -0.27039E-04  8424   0.351E-03 0.381E-03
CGA:   9    -0.675896521433E+03   -0.34364E-05   -0.19296E-04  8424   0.311E-03 0.329E-03
CGA:  10    -0.675896521145E+03    0.28858E-06   -0.15159E-04  8424   0.285E-03 0.296E-03
CGA:  11    -0.675896518826E+03    0.23187E-05   -0.12518E-04  8424   0.265E-03 0.274E-03
CGA:  12    -0.675896515316E+03    0.35099E-05   -0.10662E-04  8424   0.250E-03 0.257E-03
   7 F= -.67589652E+03 E0= -.67589652E+03  d E =-.212373E-02  mag=     1.0000
       N       E                     dE             d eps       ncg     rms          ort
SDA:   1    -0.675531104607E+03    0.36541E+00    0.00000E+00  8424   0.880E+00 0.000E+00
CGA:   2    -0.675796063841E+03   -0.26496E+00   -0.26484E+00  8424   0.431E+00 0.491E-03
CGA:   3    -0.675870719874E+03   -0.74656E-01   -0.74360E-01  8424   0.882E-01 0.404E-02
CGA:   4    -0.675885652297E+03   -0.14932E-01   -0.14856E-01  8424   0.224E-01 0.120E-02
CGA:   5    -0.675889579331E+03   -0.39270E-02   -0.38662E-02  8424   0.463E-02 0.966E-03
CGA:   6    -0.675890454219E+03   -0.87489E-03   -0.80816E-03  8424   0.111E-02 0.117E-02
CGA:   7    -0.675890617091E+03   -0.16287E-03   -0.16066E-03  8424   0.552E-03 0.790E-03
CGA:   8    -0.675890653133E+03   -0.36041E-04   -0.48001E-04  8424   0.399E-03 0.454E-03
CGA:   9    -0.675890664827E+03   -0.11694E-04   -0.27454E-04  8424   0.342E-03 0.365E-03
CGA:  10    -0.675890669232E+03   -0.44052E-05   -0.20485E-04  8424   0.308E-03 0.322E-03
CGA:  11    -0.675890669991E+03   -0.75892E-06   -0.16507E-04  8424   0.283E-03 0.293E-03
CGA:  12    -0.675890668635E+03    0.13559E-05   -0.13853E-04  8424   0.265E-03 0.272E-03
CGA:  13    -0.675890665966E+03    0.26692E-05   -0.11932E-04  8424   0.251E-03 0.257E-03
CGA:  14    -0.675890662454E+03    0.35117E-05   -0.10467E-04  8424   0.239E-03 0.244E-03
   8 F= -.67589066E+03 E0= -.67589066E+03  d E =0.585286E-02  mag=     1.0000
       N       E                     dE             d eps       ncg     rms          ort
SDA:   1    -0.675430625453E+03    0.46004E+00    0.00000E+00  8424   0.110E+01 0.000E+00
CGA:   2    -0.675752660749E+03   -0.32204E+00   -0.32216E+00  8424   0.550E+00-0.683E-03
CGA:   3    -0.675849246639E+03   -0.96586E-01   -0.96318E-01  8424   0.115E+00 0.364E-02
CGA:   4    -0.675868698358E+03   -0.19452E-01   -0.19380E-01  8424   0.284E-01 0.118E-02
CGA:   5    -0.675873655586E+03   -0.49572E-02   -0.48910E-02  8424   0.600E-02 0.109E-02
CGA:   6    -0.675874818788E+03   -0.11632E-02   -0.10884E-02  8424   0.138E-02 0.121E-02
CGA:   7    -0.675875066059E+03   -0.24727E-03   -0.22905E-03  8424   0.610E-03 0.812E-03
CGA:   8    -0.675875123226E+03   -0.57167E-04   -0.63379E-04  8424   0.406E-03 0.471E-03
CGA:   9    -0.675875142298E+03   -0.19072E-04   -0.32509E-04  8424   0.344E-03 0.369E-03
CGA:  10    -0.675875151516E+03   -0.92172E-05   -0.23848E-04  8424   0.308E-03 0.322E-03
CGA:  11    -0.675875155802E+03   -0.42860E-05   -0.19045E-04  8424   0.282E-03 0.292E-03
CGA:  12    -0.675875157199E+03   -0.13968E-05   -0.15899E-04  8424   0.263E-03 0.271E-03
CGA:  13    -0.675875156765E+03    0.43373E-06   -0.13651E-04  8424   0.249E-03 0.255E-03
CGA:  14    -0.675875155119E+03    0.16458E-05   -0.11954E-04  8424   0.237E-03 0.241E-03
CGA:  15    -0.675875152652E+03    0.24674E-05   -0.10622E-04  8424   0.227E-03 0.231E-03
   9 F= -.67587515E+03 E0= -.67587515E+03  d E =0.155098E-01  mag=     1.0000
       N       E                     dE             d eps       ncg     rms          ort
SDA:   1    -0.675449051973E+03    0.42610E+00    0.00000E+00  8424   0.102E+01 0.000E+00
CGA:   2    -0.675721028157E+03   -0.27198E+00   -0.27199E+00  8424   0.523E+00-0.167E-03
CGA:   3    -0.675818939315E+03   -0.97911E-01   -0.97854E-01  8424   0.121E+00 0.609E-03
CGA:   4    -0.675838522668E+03   -0.19583E-01   -0.19513E-01  8424   0.282E-01 0.132E-02
CGA:   5    -0.675843339114E+03   -0.48164E-02   -0.47300E-02  8424   0.559E-02 0.157E-02
CGA:   6    -0.675844465864E+03   -0.11267E-02   -0.10518E-02  8424   0.133E-02 0.117E-02
CGA:   7    -0.675844714636E+03   -0.24877E-03   -0.22979E-03  8424   0.542E-03 0.728E-03
CGA:   8    -0.675844769606E+03   -0.54970E-04   -0.58929E-04  8424   0.347E-03 0.407E-03
CGA:   9    -0.675844786833E+03   -0.17227E-04   -0.28492E-04  8424   0.291E-03 0.314E-03
CGA:  10    -0.675844794455E+03   -0.76220E-05   -0.20300E-04  8424   0.259E-03 0.272E-03
CGA:  11    -0.675844797528E+03   -0.30727E-05   -0.15961E-04  8424   0.237E-03 0.246E-03
CGA:  12    -0.675844798035E+03   -0.50731E-06   -0.13194E-04  8424   0.221E-03 0.228E-03
CGA:  13    -0.675844796966E+03    0.10691E-05   -0.11250E-04  8424   0.209E-03 0.214E-03
  10 F= -.67584480E+03 E0= -.67584480E+03  d E =0.303557E-01  mag=     1.0000
       N       E                     dE             d eps       ncg     rms          ort
SDA:   1    -0.675570447395E+03    0.27435E+00    0.00000E+00  8424   0.729E+00 0.000E+00
CGA:   2    -0.675746247952E+03   -0.17580E+00   -0.17565E+00  8424   0.327E+00 0.100E-02
CGA:   3    -0.675810381169E+03   -0.64133E-01   -0.64170E-01  8424   0.897E-01-0.488E-03
CGA:   4    -0.675825397831E+03   -0.15017E-01   -0.14974E-01  8424   0.217E-01 0.779E-03
CGA:   5    -0.675829052011E+03   -0.36542E-02   -0.36048E-02  8424   0.409E-02 0.102E-02
CGA:   6    -0.675829861844E+03   -0.80983E-03   -0.76587E-03  8424   0.930E-03 0.731E-03
CGA:   7    -0.675830026836E+03   -0.16499E-03   -0.15508E-03  8424   0.368E-03 0.507E-03
CGA:   8    -0.675830061484E+03   -0.34648E-04   -0.39180E-04  8424   0.227E-03 0.273E-03
CGA:   9    -0.675830070342E+03   -0.88580E-05   -0.17799E-04  8424   0.187E-03 0.204E-03
CGA:  10    -0.675830072988E+03   -0.26454E-05   -0.12201E-04  8424   0.165E-03 0.174E-03
  11 F= -.67583007E+03 E0= -.67583007E+03  d E =0.147240E-01  mag=     1.0000
       N       E                     dE             d eps       ncg     rms          ort
SDA:   1    -0.675576661521E+03    0.25341E+00    0.00000E+00  8424   0.621E+00 0.000E+00
CGA:   2    -0.675771710391E+03   -0.19505E+00   -0.19486E+00  8424   0.277E+00 0.890E-03
CGA:   3    -0.675819629605E+03   -0.47919E-01   -0.47949E-01  8424   0.602E-01-0.631E-03
CGA:   4    -0.675829912454E+03   -0.10283E-01   -0.10270E-01  8424   0.152E-01 0.279E-03
CGA:   5    -0.675832520385E+03   -0.26079E-02   -0.25913E-02  8424   0.308E-02 0.409E-03
CGA:   6    -0.675833136693E+03   -0.61631E-03   -0.59549E-03  8424   0.694E-03 0.362E-03
CGA:   7    -0.675833262482E+03   -0.12579E-03   -0.11921E-03  8424   0.260E-03 0.329E-03
CGA:   8    -0.675833294503E+03   -0.32021E-04   -0.39686E-04  8424   0.153E-03 0.245E-03
CGA:   9    -0.675833300649E+03   -0.61467E-05   -0.12721E-04  8424   0.118E-03 0.131E-03
  12 F= -.67583330E+03 E0= -.67583330E+03  d E =-.322766E-02  mag=     1.0000
       N       E                     dE             d eps       ncg     rms          ort
SDA:   1    -0.675598738492E+03    0.23456E+00    0.00000E+00  8424   0.566E+00 0.000E+00
CGA:   2    -0.675790392718E+03   -0.19165E+00   -0.19140E+00  8424   0.220E+00 0.117E-02
CGA:   3    -0.675827834614E+03   -0.37442E-01   -0.37443E-01  8424   0.498E-01-0.565E-04
CGA:   4    -0.675836620435E+03   -0.87858E-02   -0.87894E-02  8424   0.128E-01-0.108E-03
CGA:   5    -0.675838793197E+03   -0.21728E-02   -0.21713E-02  8424   0.267E-02 0.480E-04
CGA:   6    -0.675839310633E+03   -0.51744E-03   -0.50588E-03  8424   0.610E-03 0.252E-03
CGA:   7    -0.675839423016E+03   -0.11238E-03   -0.10796E-03  8424   0.226E-03 0.267E-03
CGA:   8    -0.675839452653E+03   -0.29637E-04   -0.36436E-04  8424   0.130E-03 0.201E-03
CGA:   9    -0.675839458766E+03   -0.61127E-05   -0.11903E-04  8424   0.975E-04 0.109E-03
  13 F= -.67583946E+03 E0= -.67583946E+03  d E =-.615812E-02  mag=     1.0000
       N       E                     dE             d eps       ncg     rms          ort
SDA:   1    -0.675759084724E+03    0.80368E-01    0.00000E+00  8424   0.221E+00 0.000E+00
CGA:   2    -0.675812479100E+03   -0.53394E-01   -0.53359E-01  8424   0.103E+00 0.312E-03
CGA:   3    -0.675832626452E+03   -0.20147E-01   -0.20118E-01  8424   0.268E-01 0.544E-03
CGA:   4    -0.675837056356E+03   -0.44299E-02   -0.44240E-02  8424   0.632E-02 0.321E-03
CGA:   5    -0.675838130266E+03   -0.10739E-02   -0.10678E-02  8424   0.126E-02 0.301E-03
CGA:   6    -0.675838361041E+03   -0.23077E-03   -0.22424E-03  8424   0.289E-03 0.291E-03
CGA:   7    -0.675838397316E+03   -0.36275E-04   -0.42195E-04  8424   0.133E-03 0.195E-03
CGA:   8    -0.675838401629E+03   -0.43126E-05   -0.11152E-04  8424   0.928E-04 0.108E-03
  14 F= -.67583840E+03 E0= -.67583840E+03  d E =0.105714E-02  mag=     1.0000
       N       E                     dE             d eps       ncg     rms          ort
SDA:   1    -0.675570057490E+03    0.26834E+00    0.00000E+00  8424   0.594E+00 0.000E+00
CGA:   2    -0.675784363625E+03   -0.21431E+00   -0.21476E+00  8424   0.193E+00-0.204E-02
CGA:   3    -0.675817202642E+03   -0.32839E-01   -0.32798E-01  8424   0.454E-01 0.209E-02
CGA:   4    -0.675825401541E+03   -0.81989E-02   -0.81902E-02  8424   0.116E-01 0.323E-03
CGA:   5    -0.675827339338E+03   -0.19378E-02   -0.19334E-02  8424   0.236E-02 0.353E-03
CGA:   6    -0.675827776737E+03   -0.43740E-03   -0.42787E-03  8424   0.576E-03 0.441E-03
CGA:   7    -0.675827892248E+03   -0.11551E-03   -0.11285E-03  8424   0.240E-03 0.269E-03
CGA:   8    -0.675827920735E+03   -0.28487E-04   -0.38836E-04  8424   0.145E-03 0.227E-03
CGA:   9    -0.675827923331E+03   -0.25963E-05   -0.11649E-04  8424   0.112E-03 0.124E-03
  15 F= -.67582792E+03 E0= -.67582792E+03  d E =0.104783E-01  mag=     1.0000
       N       E                     dE             d eps       ncg     rms          ort
SDA:   1    -0.675794522287E+03    0.33398E-01    0.00000E+00  8424   0.750E-01 0.000E+00
CGA:   2    -0.675811633555E+03   -0.17111E-01   -0.17098E-01  8424   0.354E-01 0.154E-03
CGA:   3    -0.675818805023E+03   -0.71715E-02   -0.71499E-02  8424   0.991E-02 0.408E-03
CGA:   4    -0.675820404590E+03   -0.15996E-02   -0.15973E-02  8424   0.223E-02 0.333E-03
CGA:   5    -0.675820763905E+03   -0.35932E-03   -0.35847E-03  8424   0.426E-03 0.301E-03
CGA:   6    -0.675820825034E+03   -0.61129E-04   -0.65075E-04  8424   0.148E-03 0.211E-03
CGA:   7    -0.675820834393E+03   -0.93581E-05   -0.18900E-04  8424   0.843E-04 0.143E-03
