       N       E                     dE             d eps       ncg     rms          ort
DAV:   1     0.829443310904E+04    0.82944E+04   -0.24649E+05  8424   0.239E+03
DAV:   2     0.923500106662E+03   -0.73709E+04   -0.69205E+04  8424   0.659E+02
DAV:   3    -0.676327753408E+03   -0.15998E+04   -0.14076E+04  8424   0.283E+02
DAV:   4    -0.833103096607E+03   -0.15678E+03   -0.15405E+03  8424   0.860E+01
DAV:   5    -0.835638521917E+03   -0.25354E+01   -0.25238E+01  8424   0.122E+01
SDA:   6    -0.228486416758E+03    0.60715E+03   -0.25238E+01  8424   0.562E+04 0.000E+00
CGA:   7    -0.305532050333E+03   -0.77046E+02   -0.36257E+03  8424   0.155E+05-0.189E+04
CGA:   8    -0.415762737118E+03   -0.11023E+03   -0.48783E+03  8424   0.523E+04-0.413E+04
CGA:   9    -0.397550504029E+03    0.18212E+02   -0.14219E+03  8424   0.650E+04-0.367E+04
CGA:  10    -0.331608231469E+03    0.65942E+02   -0.46828E+03  8424   0.393E+04-0.124E+04
CGA:  11    -0.539164584741E+03   -0.20756E+03   -0.94394E+02  8424   0.921E+03 0.217E+03
CGA:  12    -0.601564057120E+03   -0.62399E+02   -0.23475E+02  8424   0.530E+03 0.266E+03
CGA:  13    -0.566749925753E+03    0.34814E+02   -0.28325E+02  8424   0.169E+04-0.558E+03
CGA:  14    -0.570416912398E+03   -0.36670E+01   -0.77718E+02  8424   0.101E+04-0.738E+03
CGA:  15    -0.606525895982E+03   -0.36109E+02   -0.10125E+02  8424   0.126E+04 0.139E+04
CGA:  16    -0.595466021698E+03    0.11060E+02   -0.45376E+02  8424   0.115E+04-0.806E+03
CGA:  17    -0.588066470749E+03    0.73996E+01   -0.41833E+02  8424   0.761E+03-0.540E+03
CGA:  18    -0.621391074393E+03   -0.33325E+02   -0.47850E+01  8424   0.228E+04 0.301E+04
CGA:  19    -0.581707509913E+03    0.39684E+02   -0.98475E+02  8424   0.244E+04-0.120E+04
CGA:  20    -0.577180747876E+03    0.45268E+01   -0.95901E+02  8424   0.100E+04-0.804E+03
CGA:  21    -0.633169681371E+03   -0.55989E+02   -0.10278E+02  8424   0.117E+04 0.289E+04
CGA:  22    -0.622604257509E+03    0.10565E+02   -0.36595E+02  8424   0.128E+04-0.906E+03
CGA:  23    -0.596775215240E+03    0.25829E+02   -0.39812E+02  8424   0.773E+03-0.494E+03
CGA:  24    -0.646332000523E+03   -0.49557E+02   -0.73500E+01  8424   0.478E+03-0.114E+04
CGA:  25    -0.627457621517E+03    0.18874E+02   -0.11739E+02  8424   0.384E+04-0.150E+04
CGA:  26    -0.577539086407E+03    0.49919E+02   -0.16205E+03  8424   0.395E+04-0.216E+04
CGA:  27    -0.604862045156E+03   -0.27323E+02   -0.14515E+03  8424   0.419E+03-0.403E+03
CGA:  28    -0.646509873927E+03   -0.41648E+02   -0.64947E+01  8424   0.175E+04 0.367E+04
CGA:  29    -0.627127867880E+03    0.19382E+02   -0.58625E+02  8424   0.746E+03-0.408E+03
CGA:  30    -0.615552772607E+03    0.11575E+02   -0.17636E+02  8424   0.347E+03-0.210E+03
CGA:  31    -0.660187338952E+03   -0.44635E+02   -0.31222E+01  8424   0.290E+02-0.884E+02
CGA:  32    -0.660198855169E+03   -0.11516E-01   -0.21873E+00  8424   0.958E+02-0.200E+02
CGA:  33    -0.660768553973E+03   -0.56970E+00   -0.11092E+01  8424   0.635E+02-0.428E+02
CGA:  34    -0.662994464039E+03   -0.22259E+01   -0.22667E+01  8424   0.614E+02 0.190E+01
CGA:  35    -0.665186416718E+03   -0.21920E+01   -0.28934E+01  8424   0.791E+02 0.214E+01
CGA:  36    -0.666914621381E+03   -0.17282E+01   -0.21989E+01  8424   0.144E+02 0.796E+01
CGA:  37    -0.667846113841E+03   -0.93149E+00   -0.98013E+00  8424   0.443E+01 0.364E+01
CGA:  38    -0.668618189806E+03   -0.77208E+00   -0.63407E+00  8424   0.144E+01 0.233E+01
CGA:  39    -0.663218699046E+03    0.53995E+01    0.53959E+00  8424   0.559E+02-0.131E+01
CGA:  40    -0.667503510369E+03   -0.42848E+01   -0.31803E+01  8424   0.194E+02-0.294E+02
CGA:  41    -0.668691122479E+03   -0.11876E+01   -0.54438E+00  8424   0.163E+02 0.256E+02
CGA:  42    -0.669499685391E+03   -0.80856E+00   -0.40424E+00  8424   0.230E+01 0.926E+01
CGA:  43    -0.669550887568E+03   -0.51202E-01   -0.42313E-01  8424   0.426E+00 0.572E+00
CGA:  44    -0.669581172077E+03   -0.30285E-01   -0.27690E-01  8424   0.141E+01 0.698E-01
CGA:  45    -0.669634175890E+03   -0.53004E-01   -0.36229E-01  8424   0.287E+01 0.655E+00
CGA:  46    -0.669671807011E+03   -0.37631E-01   -0.10531E+00  8424   0.595E+01-0.258E+01
CGA:  47    -0.669836012935E+03   -0.16421E+00   -0.18424E+00  8424   0.212E+01-0.906E+00
CGA:  48    -0.669899973641E+03   -0.63961E-01   -0.56063E-01  8424   0.336E+00 0.210E+00
CGA:  49    -0.669975674267E+03   -0.75701E-01   -0.69889E-01  8424   0.279E+01 0.626E-01
CGA:  50    -0.670213157742E+03   -0.23748E+00   -0.19247E+00  8424   0.201E+01 0.436E+00
CGA:  51    -0.670342291130E+03   -0.12913E+00   -0.97968E-01  8424   0.277E+01 0.376E+00
CGA:  52    -0.670404311984E+03   -0.62021E-01   -0.67878E-01  8424   0.218E+01-0.384E+00
CGA:  53    -0.670431483172E+03   -0.27171E-01   -0.34178E-01  8424   0.163E+01-0.313E+00
CGA:  54    -0.670459181368E+03   -0.27698E-01   -0.28355E-01  8424   0.130E+01-0.970E-01
CGA:  55    -0.670489381711E+03   -0.30200E-01   -0.30660E-01  8424   0.121E+01-0.659E-01
CGA:  56    -0.670518782012E+03   -0.29400E-01   -0.28996E-01  8424   0.974E+00-0.208E-01
CGA:  57    -0.670540183454E+03   -0.21401E-01   -0.21364E-01  8424   0.640E+00-0.117E-01
CGA:  58    -0.670555025377E+03   -0.14842E-01   -0.15346E-01  8424   0.519E+00-0.143E-01
CGA:  59    -0.670568685208E+03   -0.13660E-01   -0.13874E-01  8424   0.506E+00-0.244E-03
CGA:  60    -0.670582140974E+03   -0.13456E-01   -0.13692E-01  8424   0.440E+00-0.114E-02
CGA:  61    -0.670593295412E+03   -0.11154E-01   -0.11470E-01  8424   0.349E+00-0.732E-02
CGA:  62    -0.670603006960E+03   -0.97115E-02   -0.99185E-02  8424   0.341E+00-0.604E-02
CGA:  63    -0.670614207376E+03   -0.11200E-01   -0.11354E-01  8424   0.382E+00-0.228E-02
CGA:  64    -0.670626093942E+03   -0.11887E-01   -0.11977E-01  8424   0.331E+00 0.257E-02
CGA:  65    -0.670635679459E+03   -0.95855E-02   -0.97163E-02  8424   0.265E+00 0.467E-02
CGA:  66    -0.670644338926E+03   -0.86595E-02   -0.87758E-02  8424   0.258E+00 0.447E-02
CGA:  67    -0.670653072967E+03   -0.87340E-02   -0.88224E-02  8424   0.232E+00 0.333E-02
CGA:  68    -0.670660033990E+03   -0.69610E-02   -0.70241E-02  8424   0.167E+00 0.216E-02
CGA:  69    -0.670665082910E+03   -0.50489E-02   -0.51262E-02  8424   0.140E+00 0.309E-02
CGA:  70    -0.670669706586E+03   -0.46237E-02   -0.47659E-02  8424   0.136E+00 0.669E-02
CGA:  71    -0.670673809414E+03   -0.41028E-02   -0.43231E-02  8424   0.107E+00 0.103E-01
CGA:  72    -0.670676716887E+03   -0.29075E-02   -0.31349E-02  8424   0.808E-01 0.101E-01
CGA:  73    -0.670679100806E+03   -0.23839E-02   -0.25638E-02  8424   0.761E-01 0.893E-02
CGA:  74    -0.670681533980E+03   -0.24332E-02   -0.25777E-02  8424   0.728E-01 0.790E-02
CGA:  75    -0.670683711250E+03   -0.21773E-02   -0.22876E-02  8424   0.561E-01 0.529E-02
CGA:  76    -0.670685352402E+03   -0.16412E-02   -0.16981E-02  8424   0.437E-01 0.274E-02
SDA:  77    -0.670686802283E+03   -0.14499E-02   -0.14860E-02  8424   0.423E-01 0.238E-02
CGA:  78    -0.670691148039E+03   -0.43458E-02   -0.41581E-02  8424   0.190E-01 0.351E-02
CGA:  79    -0.670693185248E+03   -0.20372E-02   -0.21475E-02  8424   0.969E-02-0.200E-02
CGA:  80    -0.670695014778E+03   -0.18295E-02   -0.14057E-02  8424   0.580E-02 0.381E-02
CGA:  81    -0.670696602016E+03   -0.15872E-02   -0.13166E-02  8424   0.260E-02 0.254E-02
CGA:  82    -0.670697378388E+03   -0.77637E-03   -0.57178E-03  8424   0.229E-02 0.223E-02
CGA:  83    -0.670697693882E+03   -0.31549E-03   -0.44566E-03  8424   0.806E-02-0.102E-02
CGA:  84    -0.670698076455E+03   -0.38257E-03   -0.37386E-03  8424   0.104E-01 0.766E-03
CGA:  85    -0.670698604851E+03   -0.52840E-03   -0.56905E-03  8424   0.615E-02 0.195E-02
CGA:  86    -0.670699355340E+03   -0.75049E-03   -0.69950E-03  8424   0.100E-01 0.220E-02
CGA:  87    -0.670700371176E+03   -0.10158E-02   -0.10144E-02  8424   0.405E-02 0.146E-02
CGA:  88    -0.670700957506E+03   -0.58633E-03   -0.56935E-03  8424   0.102E-01 0.314E-03
CGA:  89    -0.670702501121E+03   -0.15436E-02   -0.14134E-02  8424   0.648E-02 0.253E-02
CGA:  90    -0.670702807124E+03   -0.30600E-03   -0.34640E-03  8424   0.361E-02 0.142E-02
CGA:  91    -0.670703631633E+03   -0.82451E-03   -0.71023E-03  8424   0.134E-01 0.131E-02
CGA:  92    -0.670706098284E+03   -0.24667E-02   -0.24616E-02  8424   0.145E-01-0.278E-03
CGA:  93    -0.670710433414E+03   -0.43351E-02   -0.42508E-02  8424   0.660E-01-0.650E-03
CGA:  94    -0.670716031540E+03   -0.55981E-02   -0.53961E-02  8424   0.312E-01-0.232E-01
CGA:  95    -0.670704451979E+03    0.11580E-01   -0.76994E-02  8424   0.120E+00-0.742E-01
CGA:  96    -0.670713235249E+03   -0.87833E-02   -0.87723E-02  8424   0.641E-01-0.294E-02
CGA:  97    -0.670720721951E+03   -0.74867E-02   -0.74453E-02  8424   0.179E-01 0.319E-02
CGA:  98    -0.670726519644E+03   -0.57977E-02   -0.47971E-02  8424   0.103E-01 0.666E-02
CGA:  99    -0.670728833004E+03   -0.23134E-02   -0.22534E-02  8424   0.199E-01 0.113E-02
CGA: 100    -0.670731951380E+03   -0.31184E-02   -0.30524E-02  8424   0.920E-02 0.322E-02
CGA: 101    -0.670734442183E+03   -0.24908E-02   -0.24775E-02  8424   0.174E-01-0.909E-05
CGA: 102    -0.670735936589E+03   -0.14944E-02   -0.14161E-02  8424   0.709E-02-0.214E-02
CGA: 103    -0.670737062677E+03   -0.11261E-02   -0.22246E-02  8424   0.116E-01-0.494E-02
CGA: 104    -0.670738206498E+03   -0.11438E-02   -0.11556E-02  8424   0.795E-02 0.399E-03
CGA: 105    -0.670739148872E+03   -0.94237E-03   -0.92801E-03  8424   0.477E-02-0.125E-02
CGA: 106    -0.670739699578E+03   -0.55071E-03   -0.17788E-02  8424   0.274E-01-0.396E-02
CGA: 107    -0.670741238811E+03   -0.15392E-02   -0.14148E-02  8424   0.386E-02-0.127E-02
CGA: 108    -0.670741791757E+03   -0.55295E-03   -0.55577E-03  8424   0.114E-02-0.297E-03
CGA: 109    -0.670738240936E+03    0.35508E-02   -0.19279E-02  8424   0.978E-01-0.577E-02
CGA: 110    -0.670742361984E+03   -0.41210E-02   -0.46102E-02  8424   0.611E-02-0.411E-02
CGA: 111    -0.670743261757E+03   -0.89977E-03   -0.85585E-03  8424   0.172E-02-0.501E-03
CGA: 112    -0.670743402127E+03   -0.14037E-03   -0.14191E-03  8424   0.955E-03 0.614E-05
CGA: 113    -0.670743620776E+03   -0.21865E-03   -0.30786E-03  8424   0.411E-02-0.105E-02
CGA: 114    -0.670743871632E+03   -0.25086E-03   -0.27467E-03  8424   0.125E-02 0.157E-03
CGA: 115    -0.670744088493E+03   -0.21686E-03   -0.17764E-03  8424   0.816E-03-0.426E-03
CGA: 116    -0.670744375584E+03   -0.28709E-03    0.34173E-03  8424   0.945E-03 0.143E-03
CGA: 117    -0.670744895372E+03   -0.51979E-03    0.38820E-02  8424   0.250E-02-0.275E-03
CGA: 118    -0.670745873559E+03   -0.97819E-03    0.91434E-03  8424   0.726E-02-0.998E-03
CGA: 119    -0.670749564835E+03   -0.36913E-02    0.56871E-03  8424   0.148E-01-0.367E-04
CGA: 120    -0.670751456050E+03   -0.18912E-02   -0.44030E-02  8424   0.136E+00-0.385E-01
CGA: 121    -0.670757818111E+03   -0.63621E-02   -0.68403E-02  8424   0.163E-01-0.205E-02
CGA: 122    -0.670759866222E+03   -0.20481E-02   -0.20557E-02  8424   0.282E-02-0.550E-04
CGA: 123    -0.670760564726E+03   -0.69850E-03   -0.69062E-03  8424   0.126E-02 0.263E-03
CGA: 124    -0.670760926305E+03   -0.36158E-03   -0.41781E-03  8424   0.849E-02-0.682E-03
CGA: 125    -0.670761249957E+03   -0.32365E-03   -0.38127E-03  8424   0.636E-03 0.211E-03
CGA: 126    -0.670761537918E+03   -0.28796E-03    0.20063E-02  8424   0.607E-03 0.378E-03
CGA: 127    -0.670761584837E+03   -0.46919E-04   -0.24916E-03  8424   0.114E-01-0.103E-02
CGA: 128    -0.670762015884E+03   -0.43105E-03   -0.50006E-03  8424   0.522E-03 0.223E-03
CGA: 129    -0.670760110779E+03    0.19051E-02   -0.10214E-02  8424   0.314E-01-0.226E-02
CGA: 130    -0.670763343877E+03   -0.32331E-02   -0.33705E-02  8424   0.415E-02-0.195E-02
CGA: 131    -0.670763487362E+03   -0.14348E-03   -0.17552E-03  8424   0.272E-03 0.478E-04
CGA: 132    -0.670759924384E+03    0.35630E-02   -0.18883E-02  8424   0.864E-01-0.219E-02
CGA: 133    -0.670764482275E+03   -0.45579E-02   -0.50719E-02  8424   0.152E-01-0.140E-01
CGA: 134    -0.670765406519E+03   -0.92424E-03   -0.92731E-03  8424   0.190E-03 0.574E-03
CGA: 135    -0.670765680362E+03   -0.27384E-03    0.36896E-03  8424   0.967E-03-0.183E-03
CGA: 136    -0.670765864129E+03   -0.18377E-03   -0.12339E-03  8424   0.729E-03-0.135E-03
CGA: 137    -0.670765933326E+03   -0.69197E-04   -0.46022E-04  8424   0.195E-03-0.479E-04
CGA: 138    -0.670766252454E+03   -0.31913E-03    0.85134E-04  8424   0.156E-02-0.183E-03
CGA: 139    -0.670766438403E+03   -0.18595E-03   -0.12362E-03  8424   0.642E-03-0.163E-03
CGA: 140    -0.670766518343E+03   -0.79940E-04   -0.50436E-04  8424   0.140E-03-0.566E-04
CGA: 141    -0.670766872900E+03   -0.35456E-03    0.18284E-04  8424   0.245E-03 0.515E-05
CGA: 142    -0.670767795256E+03   -0.92236E-03    0.24740E-04  8424   0.133E-03 0.163E-03
CGA: 143    -0.670767950241E+03   -0.15498E-03    0.22100E-03  8424   0.125E-02-0.169E-03
CGA: 144    -0.670768084961E+03   -0.13472E-03   -0.78313E-04  8424   0.327E-03-0.136E-03
CGA: 145    -0.670768176086E+03   -0.91125E-04   -0.44776E-04  8424   0.251E-03-0.138E-03
CGA: 146    -0.670768599212E+03   -0.42313E-03    0.15931E-04  8424   0.214E-02-0.177E-03
CGA: 147    -0.670768673571E+03   -0.74358E-04   -0.98222E-04  8424   0.168E-03 0.217E-04
CGA: 148    -0.670768850701E+03   -0.17713E-03    0.22095E-03  8424   0.560E-03-0.183E-03
CGA: 149    -0.670768998933E+03   -0.14823E-03   -0.99735E-04  8424   0.246E-03-0.183E-03
CGA: 150    -0.670769183907E+03   -0.18497E-03    0.12055E-03  8424   0.470E-02-0.509E-03
CGA: 151    -0.670769342988E+03   -0.15908E-03   -0.20508E-03  8424   0.136E-03-0.124E-05
CGA: 152    -0.670769522955E+03   -0.17997E-03    0.46267E-04  8424   0.212E-03-0.763E-04
CGA: 153    -0.670763300597E+03    0.62224E-02   -0.33462E-02  8424   0.688E-01-0.303E-02
CGA: 154    -0.670768657617E+03   -0.53570E-02   -0.64909E-02  8424   0.418E-01-0.132E-01
CGA: 155    -0.670770764520E+03   -0.21069E-02   -0.20406E-02  8424   0.327E-02 0.375E-02
CGA: 156    -0.670770888441E+03   -0.12392E-03   -0.16428E-03  8424   0.749E-03-0.605E-04
CGA: 157    -0.670771070810E+03   -0.18237E-03   -0.12154E-03  8424   0.304E-03-0.130E-03
CGA: 158    -0.670771147344E+03   -0.76535E-04   -0.18448E-04  8424   0.211E-03-0.104E-03
CGA: 159    -0.670771571362E+03   -0.42402E-03    0.27158E-04  8424   0.153E-02-0.266E-03
CGA: 160    -0.670771786609E+03   -0.21525E-03   -0.18588E-03  8424   0.120E-03-0.755E-04
CGA: 161    -0.670771884949E+03   -0.98340E-04   -0.56045E-04  8424   0.517E-02-0.486E-03
CGA: 162    -0.670772060300E+03   -0.17535E-03   -0.22623E-03  8424   0.848E-04-0.106E-03
CGA: 163    -0.670772301358E+03   -0.24106E-03    0.13758E-04  8424   0.601E-03-0.904E-04
CGA: 164    -0.670772341030E+03   -0.39672E-04   -0.38235E-04  8424   0.193E-03-0.280E-05
CGA: 165    -0.670772426196E+03   -0.85166E-04   -0.10738E-03  8424   0.307E-02-0.629E-03
CGA: 166    -0.670772631725E+03   -0.20553E-03   -0.22163E-03  8424   0.105E-02 0.757E-04
CGA: 167    -0.670772798362E+03   -0.16664E-03   -0.10506E-03  8424   0.103E-03-0.171E-03
CGA: 168    -0.670772960799E+03   -0.16244E-03    0.21991E-04  8424   0.151E-02-0.152E-03
CGA: 169    -0.670773082125E+03   -0.12133E-03   -0.73266E-04  8424   0.107E-03-0.103E-03
CGA: 170    -0.670773206617E+03   -0.12449E-03    0.64681E-04  8424   0.102E-02-0.159E-03
CGA: 171    -0.670773324137E+03   -0.11752E-03   -0.62964E-04  8424   0.256E-03-0.139E-03
CGA: 172    -0.670773420114E+03   -0.95977E-04   -0.45630E-04  8424   0.468E-03-0.214E-03
CGA: 173    -0.670773498658E+03   -0.78544E-04   -0.36398E-04  8424   0.229E-03-0.124E-03
CGA: 174    -0.670773578558E+03   -0.79899E-04   -0.35807E-04  8424   0.552E-03-0.222E-03
CGA: 175    -0.670773677658E+03   -0.99101E-04   -0.47616E-04  8424   0.315E-03-0.169E-03
CGA: 176    -0.670773753935E+03   -0.76276E-04   -0.30071E-04  8424   0.274E-03-0.185E-03
CGA: 177    -0.670773841368E+03   -0.87433E-04   -0.39800E-04  8424   0.506E-03-0.213E-03
CGA: 178    -0.670773863085E+03   -0.21717E-04   -0.23084E-04  8424   0.417E-04 0.103E-05
CGA: 179    -0.670774032189E+03   -0.16910E-03    0.14929E-05  8424   0.876E-04 0.934E-05
CGA: 180    -0.670774559042E+03   -0.52685E-03    0.30361E-05  8424   0.651E-04 0.993E-04
CGA: 181    -0.670774633024E+03   -0.73982E-04    0.17476E-04  8424   0.118E-02-0.153E-03
CGA: 182    -0.670774737785E+03   -0.10476E-03   -0.59214E-04  8424   0.989E-04-0.150E-03
CGA: 183    -0.670774832832E+03   -0.95048E-04    0.21595E-04  8424   0.884E-03-0.150E-03
CGA: 184    -0.670774926348E+03   -0.93516E-04   -0.50696E-04  8424   0.164E-03-0.159E-03
CGA: 185    -0.670774788623E+03    0.13773E-03   -0.85126E-04  8424   0.703E-02-0.710E-03
CGA: 186    -0.670775236471E+03   -0.44785E-03   -0.36800E-03  8424   0.860E-03-0.308E-03
CGA: 187    -0.670775328136E+03   -0.91665E-04   -0.74265E-04  8424   0.461E-04-0.677E-04
CGA: 188    -0.670775479447E+03   -0.15131E-03    0.13657E-05  8424   0.370E-03-0.254E-04
CGA: 189    -0.670775496749E+03   -0.17302E-04   -0.16719E-04  8424   0.316E-04-0.457E-05
CGA: 190    -0.670775640711E+03   -0.14396E-03    0.67181E-06  8424   0.294E-04 0.293E-04
CGA: 191    -0.670775773214E+03   -0.13250E-03    0.64925E-06  8424   0.332E-04 0.248E-04
CGA: 192    -0.670775895959E+03   -0.12275E-03    0.92497E-06  8424   0.752E-04 0.138E-04
CGA: 193    -0.670776326795E+03   -0.43084E-03    0.26678E-05  8424   0.498E-03 0.645E-05
CGA: 194    -0.670779282689E+03   -0.29559E-02    0.96127E-05  8424   0.215E-02 0.388E-03
CGA: 195    -0.670779352104E+03   -0.69415E-04   -0.88812E-04  8424   0.637E-04 0.560E-04
CGA: 196    -0.670779463076E+03   -0.11097E-03    0.45738E-05  8424   0.146E-03-0.443E-04
CGA: 197    -0.670779551748E+03   -0.88672E-04    0.27272E-03  8424   0.120E-02-0.283E-03
CGA: 198    -0.670779597678E+03   -0.45930E-04   -0.54813E-04  8424   0.112E-03 0.318E-04
CGA: 199    -0.670779711437E+03   -0.11376E-03    0.18566E-04  8424   0.264E-03-0.131E-03
CGA: 200    -0.670779782342E+03   -0.70905E-04   -0.60904E-04  8424   0.380E-03-0.251E-03
   1 F= -.67077978E+03 E0= -.67077227E+03  d E =-.670780E+03  mag=    13.0000
       N       E                     dE             d eps       ncg     rms          ort
SDA:   1    -0.670779046094E+03    0.66534E-03    0.00000E+00  8424   0.372E+00 0.000E+00
CGA:   2    -0.670795193722E+03   -0.16148E-01   -0.15260E-01  8424   0.543E-02 0.496E-02
CGA:   3    -0.670796549797E+03   -0.13561E-02   -0.13519E-02  8424   0.449E-02-0.688E-03
CGA:   4    -0.670796893981E+03   -0.34418E-03   -0.34051E-03  8424   0.274E-02-0.313E-04
CGA:   5    -0.670797293899E+03   -0.39992E-03   -0.34033E-03  8424   0.688E-03-0.510E-03
CGA:   6    -0.670797406961E+03   -0.11306E-03   -0.20885E-03  8424   0.165E-02-0.707E-03
CGA:   7    -0.670797609812E+03   -0.20285E-03   -0.15434E-03  8424   0.983E-03-0.328E-03
CGA:   8    -0.670797686198E+03   -0.76386E-04   -0.61444E-04  8424   0.186E-03-0.957E-04
CGA:   9    -0.670797802328E+03   -0.11613E-03    0.37094E-04  8424   0.244E-03-0.625E-04
CGA:  10    -0.670797987952E+03   -0.18562E-03    0.12268E-04  8424   0.195E-02-0.448E-03
CGA:  11    -0.670798056841E+03   -0.68889E-04   -0.85466E-04  8424   0.145E-03 0.765E-04
CGA:  12    -0.670798160398E+03   -0.10356E-03    0.28999E-04  8424   0.149E-03-0.732E-04
CGA:  13    -0.670798254037E+03   -0.93639E-04    0.37912E-04  8424   0.335E-03-0.145E-03
CGA:  14    -0.670798280129E+03   -0.26092E-04   -0.22034E-04  8424   0.979E-04-0.266E-04
CGA:  15    -0.670798386251E+03   -0.10612E-03    0.53574E-05  8424   0.333E-03-0.120E-03
CGA:  16    -0.670798412960E+03   -0.26709E-04   -0.22116E-04  8424   0.990E-04-0.314E-04
CGA:  17    -0.670798518163E+03   -0.10520E-03    0.49050E-05  8424   0.313E-03-0.116E-03
CGA:  18    -0.670798542864E+03   -0.24701E-04   -0.20688E-04  8424   0.932E-04-0.293E-04
CGA:  19    -0.670798643902E+03   -0.10104E-03    0.41109E-05  8424   0.259E-03-0.983E-04
CGA:  20    -0.670798669155E+03   -0.25253E-04   -0.19160E-04  8424   0.106E-03-0.493E-04
CGA:  21    -0.670798777516E+03   -0.10836E-03    0.35869E-05  8424   0.268E-03-0.101E-03
CGA:  22    -0.670798801861E+03   -0.24345E-04   -0.19297E-04  8424   0.101E-03-0.425E-04
CGA:  23    -0.670798903481E+03   -0.10162E-03    0.35127E-05  8424   0.239E-03-0.935E-04
CGA:  24    -0.670798928302E+03   -0.24821E-04   -0.18555E-04  8424   0.114E-03-0.582E-04
CGA:  25    -0.670799035990E+03   -0.10769E-03    0.31605E-05  8424   0.228E-03-0.922E-04
CGA:  26    -0.670799062042E+03   -0.26051E-04   -0.19637E-04  8424   0.135E-03-0.686E-04
CGA:  27    -0.670799170713E+03   -0.10867E-03    0.35936E-05  8424   0.273E-03-0.116E-03
CGA:  28    -0.670799200155E+03   -0.29442E-04   -0.23078E-04  8424   0.141E-03-0.699E-04
CGA:  29    -0.670799303365E+03   -0.10321E-03    0.47260E-05  8424   0.312E-03-0.138E-03
CGA:  30    -0.670799328471E+03   -0.25106E-04   -0.21446E-04  8424   0.100E-03-0.361E-04
CGA:  31    -0.670799418034E+03   -0.89563E-04    0.35853E-05  8424   0.177E-03-0.816E-04
CGA:  32    -0.670799442683E+03   -0.24648E-04   -0.18110E-04  8424   0.197E-03-0.103E-03
CGA:  33    -0.670799290178E+03    0.15250E-03   -0.66128E-04  8424   0.924E-02-0.127E-02
CGA:  34    -0.670799605156E+03   -0.31498E-03   -0.36780E-03  8424   0.265E-04 0.293E-03
CGA:  35    -0.670799653616E+03   -0.48459E-04    0.51298E-06  8424   0.113E-03-0.124E-04
CGA:  36    -0.670799950030E+03   -0.29641E-03    0.35515E-06  8424   0.623E-03 0.359E-05
CGA:  37    -0.670801869231E+03   -0.19192E-02    0.65543E-05  8424   0.108E-03 0.519E-03
CGA:  38    -0.670801933168E+03   -0.63937E-04    0.11159E-04  8424   0.507E-03-0.166E-03
CGA:  39    -0.670801950375E+03   -0.17207E-04   -0.20738E-04  8424   0.212E-04 0.266E-04
CGA:  40    -0.670802005772E+03   -0.55397E-04    0.25752E-06  8424   0.322E-04 0.885E-05
CGA:  41    -0.670802155377E+03   -0.14960E-03    0.38725E-06  8424   0.639E-04 0.186E-04
CGA:  42    -0.670802189188E+03   -0.33811E-04    0.75462E-05  8424   0.215E-03-0.658E-04
CGA:  43    -0.670802180522E+03    0.86655E-05   -0.48453E-04  8424   0.389E-02-0.855E-03
CGA:  44    -0.670802303782E+03   -0.12326E-03   -0.15210E-03  8424   0.287E-04 0.204E-03
CGA:  45    -0.670802344483E+03   -0.40701E-04    0.70843E-06  8424   0.115E-03-0.208E-04
CGA:  46    -0.670802402449E+03   -0.57966E-04    0.14405E-04  8424   0.782E-03-0.260E-03
CGA:  47    -0.670802425667E+03   -0.23218E-04   -0.30324E-04  8424   0.177E-04 0.572E-04
CGA:  48    -0.670802471006E+03   -0.45339E-04    0.20493E-06  8424   0.553E-04 0.196E-05
CGA:  49    -0.670802687491E+03   -0.21648E-03    0.42782E-06  8424   0.760E-04 0.586E-04
CGA:  50    -0.670802747951E+03   -0.60460E-04    0.34339E-05  8424   0.422E-03-0.139E-03
CGA:  51    -0.670802762090E+03   -0.14139E-04   -0.16893E-04  8424   0.155E-04 0.234E-04
CGA:  52    -0.670802809811E+03   -0.47721E-04    0.12940E-06  8424   0.281E-04 0.112E-04
CGA:  53    -0.670802867040E+03   -0.57229E-04    0.33513E-06  8424   0.100E-03-0.186E-04
CGA:  54    -0.670802879821E+03   -0.12782E-04   -0.82918E-05  8424   0.107E-03-0.736E-04
CGA:  55    -0.670802936418E+03   -0.56597E-04    0.85237E-05  8424   0.575E-03-0.212E-03
CGA:  56    -0.670802953933E+03   -0.17515E-04   -0.22207E-04  8424   0.163E-04 0.434E-04
CGA:  57    -0.670802995716E+03   -0.41783E-04    0.15288E-06  8424   0.409E-04 0.555E-05
CGA:  58    -0.670803164463E+03   -0.16875E-03    0.36211E-06  8424   0.293E-04 0.541E-04
CGA:  59    -0.670803218521E+03   -0.54058E-04    0.34600E-06  8424   0.966E-04-0.203E-04
CGA:  60    -0.670803231068E+03   -0.12547E-04   -0.86379E-05  8424   0.133E-03-0.843E-04
CGA:  61    -0.670803285194E+03   -0.54126E-04    0.17297E-04  8424   0.641E-03-0.259E-03
CGA:  62    -0.670803304196E+03   -0.19002E-04   -0.24404E-04  8424   0.170E-04 0.540E-04
CGA:  63    -0.670803342056E+03   -0.37860E-04    0.16980E-06  8424   0.454E-04 0.233E-05
CGA:  64    -0.670803503961E+03   -0.16190E-03    0.29860E-06  8424   0.627E-04 0.508E-04
CGA:  65    -0.670803558004E+03   -0.54043E-04    0.17273E-05  8424   0.245E-03-0.915E-04
CGA:  66    -0.670803568591E+03   -0.10587E-04   -0.10583E-04  8424   0.152E-04-0.921E-06
CGA:  67    -0.670803613224E+03   -0.44633E-04    0.87468E-07  8424   0.149E-04 0.151E-04
CGA:  68    -0.670803657085E+03   -0.43861E-04    0.85693E-07  8424   0.172E-04 0.127E-04
CGA:  69    -0.670803694119E+03   -0.37034E-04    0.13972E-06  8424   0.273E-04 0.783E-05
CGA:  70    -0.670803805223E+03   -0.11110E-03    0.24352E-06  8424   0.149E-04 0.373E-04
CGA:  71    -0.670803849061E+03   -0.43838E-04    0.86049E-07  8424   0.179E-04 0.122E-04
CGA:  72    -0.670803885088E+03   -0.36027E-04    0.15734E-06  8424   0.312E-04 0.577E-05
CGA:  73    -0.670804001490E+03   -0.11640E-03    0.24984E-06  8424   0.177E-04 0.396E-04
CGA:  74    -0.670804047205E+03   -0.45715E-04    0.11756E-06  8424   0.307E-04 0.580E-05
CGA:  75    -0.670804158983E+03   -0.11178E-03    0.25422E-06  8424   0.173E-04 0.391E-04
CGA:  76    -0.670804194803E+03   -0.35820E-04    0.14840E-06  8424   0.297E-04 0.607E-05
CGA:  77    -0.670804308683E+03   -0.11388E-03    0.24059E-06  8424   0.165E-04 0.383E-04
CGA:  78    -0.670804353434E+03   -0.44751E-04    0.10432E-06  8424   0.265E-04 0.742E-05
CGA:  79    -0.670804458060E+03   -0.10463E-03    0.24026E-06  8424   0.144E-04 0.360E-04
CGA:  80    -0.670804496322E+03   -0.38262E-04    0.92768E-07  8424   0.175E-04 0.115E-04
CGA:  81    -0.670804541491E+03   -0.45170E-04    0.11705E-06  8424   0.317E-04 0.473E-05
CGA:  82    -0.670804654612E+03   -0.11312E-03    0.24458E-06  8424   0.189E-04 0.390E-04
CGA:  83    -0.670804688291E+03   -0.33678E-04    0.19238E-06  8424   0.383E-04 0.139E-05
CGA:  84    -0.670804811127E+03   -0.12284E-03    0.23294E-06  8424   0.324E-04 0.408E-04
CGA:  85    -0.670804859623E+03   -0.48496E-04    0.40258E-06  8424   0.975E-04-0.271E-04
CGA:  86    -0.670804870634E+03   -0.11011E-04   -0.78924E-05  8424   0.987E-04-0.719E-04
CGA:  87    -0.670804922032E+03   -0.51398E-04    0.53744E-05  8424   0.367E-03-0.161E-03
CGA:  88    -0.670804934015E+03   -0.11983E-04   -0.14280E-04  8424   0.136E-04 0.262E-04
CGA:  89    -0.670804969628E+03   -0.35613E-04    0.91711E-07  8424   0.246E-04 0.876E-05
CGA:  90    -0.670805014387E+03   -0.44760E-04    0.21791E-06  8424   0.567E-04-0.952E-05
CGA:  91    -0.670805140093E+03   -0.12571E-03    0.14388E-06  8424   0.118E-03 0.301E-04
CGA:  92    -0.670805150073E+03   -0.99796E-05   -0.74432E-05  8424   0.467E-04-0.466E-04
   2 F= -.67080515E+03 E0= -.67079763E+03  d E =-.253677E-01  mag=    13.0000
       N       E                     dE             d eps       ncg     rms          ort
SDA:   1    -0.661842577400E+03    0.89626E+01    0.00000E+00  8424   0.483E+02 0.000E+00
CGA:   2    -0.665716443514E+03   -0.38739E+01   -0.41232E+01  8424   0.273E+02-0.534E+01
CGA:   3    -0.669067710117E+03   -0.33513E+01   -0.49098E+01  8424   0.247E+02-0.115E+02
CGA:   4    -0.670229142066E+03   -0.11614E+01   -0.97786E+00  8424   0.701E+01 0.802E+00
CGA:   5    -0.670935069698E+03   -0.70593E+00   -0.70699E+00  8424   0.805E+01 0.196E-01
CGA:   6    -0.671346828726E+03   -0.41176E+00   -0.41755E+00  8424   0.133E+01-0.142E+00
CGA:   7    -0.671466637124E+03   -0.11981E+00   -0.12043E+00  8424   0.151E+01-0.472E-03
CGA:   8    -0.671570115720E+03   -0.10348E+00   -0.10340E+00  8424   0.268E+00 0.122E-01
CGA:   9    -0.671593684143E+03   -0.23568E-01   -0.23573E-01  8424   0.337E+00 0.344E-02
CGA:  10    -0.671625010377E+03   -0.31326E-01   -0.31251E-01  8424   0.791E-01-0.574E-02
CGA:  11    -0.671631734987E+03   -0.67246E-02   -0.66553E-02  8424   0.958E-01-0.384E-02
CGA:  12    -0.671640919012E+03   -0.91840E-02   -0.92054E-02  8424   0.306E-01 0.285E-02
CGA:  13    -0.671642545939E+03   -0.16269E-02   -0.17849E-02  8424   0.175E-01 0.173E-02
CGA:  14    -0.671645921212E+03   -0.33753E-02   -0.33954E-02  8424   0.750E-02-0.373E-03
CGA:  15    -0.671646580308E+03   -0.65910E-03   -0.61818E-03  8424   0.771E-02-0.181E-02
CGA:  16    -0.671647400030E+03   -0.81972E-03   -0.85437E-03  8424   0.368E-02-0.928E-03
CGA:  17    -0.671647545057E+03   -0.14503E-03   -0.16278E-03  8424   0.182E-02 0.272E-03
CGA:  18    -0.671647916661E+03   -0.37160E-03   -0.55628E-03  8424   0.561E-02-0.104E-02
CGA:  19    -0.671648294717E+03   -0.37806E-03   -0.31211E-03  8424   0.111E-02-0.117E-02
CGA:  20    -0.671648420050E+03   -0.12533E-03   -0.12168E-03  8424   0.346E-03 0.133E-03
CGA:  21    -0.671648532572E+03   -0.11252E-03    0.75101E-04  8424   0.288E-03 0.376E-04
CGA:  22    -0.671648613182E+03   -0.80610E-04    0.14771E-03  8424   0.757E-04 0.136E-03
CGA:  23    -0.671648674208E+03   -0.61026E-04    0.43635E-05  8424   0.658E-04 0.978E-04
CGA:  24    -0.671648719725E+03   -0.45517E-04    0.17843E-05  8424   0.642E-04 0.553E-04
CGA:  25    -0.671648748727E+03   -0.29003E-04    0.35886E-05  8424   0.749E-04 0.427E-04
CGA:  26    -0.671648801424E+03   -0.52697E-04    0.19788E-05  8424   0.112E-03 0.171E-04
CGA:  27    -0.671648894202E+03   -0.92778E-04    0.38837E-05  8424   0.773E-04 0.130E-03
CGA:  28    -0.671648685165E+03    0.20904E-03   -0.11253E-03  8424   0.795E-02-0.431E-03
CGA:  29    -0.671649150103E+03   -0.46494E-03   -0.36337E-03  8424   0.122E-03-0.740E-03
CGA:  30    -0.671649159468E+03   -0.93643E-05   -0.91413E-05  8424   0.804E-04-0.215E-05
   3 F= -.67164916E+03 E0= -.67164188E+03  d E =-.844009E+00  mag=    13.0000
       N       E                     dE             d eps       ncg     rms          ort
SDA:   1    -0.653400136615E+03    0.18249E+02    0.00000E+00  8424   0.640E+02 0.000E+00
CGA:   2    -0.661160240359E+03   -0.77601E+01   -0.88498E+01  8424   0.438E+02 0.355E+01
CGA:   3    -0.668457137628E+03   -0.72969E+01   -0.69241E+01  8424   0.200E+02-0.599E+01
CGA:   4    -0.671224120881E+03   -0.27670E+01   -0.25639E+01  8424   0.499E+01-0.322E+01
CGA:   5    -0.672012536741E+03   -0.78842E+00   -0.78834E+00  8424   0.110E+01 0.218E-01
CGA:   6    -0.672152675101E+03   -0.14014E+00   -0.12826E+00  8424   0.816E+00-0.542E-01
CGA:   7    -0.672241560559E+03   -0.88885E-01   -0.89273E-01  8424   0.206E+00 0.225E-02
CGA:   8    -0.672271984157E+03   -0.30424E-01   -0.30619E-01  8424   0.206E+00 0.447E-02
CGA:   9    -0.672295690113E+03   -0.23706E-01   -0.23734E-01  8424   0.636E-01-0.681E-02
CGA:  10    -0.672310129398E+03   -0.14439E-01   -0.14527E-01  8424   0.410E-01-0.156E-02
CGA:  11    -0.672314107186E+03   -0.39778E-02   -0.39355E-02  8424   0.251E-01 0.295E-02
CGA:  12    -0.672319735202E+03   -0.56280E-02   -0.56991E-02  8424   0.194E-01-0.108E-02
CGA:  13    -0.672322049085E+03   -0.23139E-02   -0.23289E-02  8424   0.141E-01-0.217E-02
CGA:  14    -0.672324348249E+03   -0.22992E-02   -0.24820E-02  8424   0.105E-01-0.363E-02
CGA:  15    -0.672325684212E+03   -0.13360E-02   -0.13334E-02  8424   0.629E-02-0.927E-03
CGA:  16    -0.672326997667E+03   -0.13135E-02   -0.13717E-02  8424   0.768E-02-0.822E-03
CGA:  17    -0.672327475584E+03   -0.47792E-03   -0.46728E-03  8424   0.337E-02 0.137E-02
CGA:  18    -0.672328048200E+03   -0.57262E-03   -0.57772E-03  8424   0.602E-02 0.410E-03
CGA:  19    -0.672328975265E+03   -0.92707E-03   -0.88430E-03  8424   0.364E-02-0.119E-02
CGA:  20    -0.672329472695E+03   -0.49743E-03   -0.51758E-03  8424   0.836E-02-0.242E-02
CGA:  21    -0.672329993764E+03   -0.52107E-03   -0.60393E-03  8424   0.248E-02 0.130E-02
CGA:  22    -0.672330882452E+03   -0.88869E-03   -0.13544E-02  8424   0.671E-02-0.145E-02
CGA:  23    -0.672331663945E+03   -0.78149E-03   -0.67623E-03  8424   0.332E-02-0.157E-02
CGA:  24    -0.672331987660E+03   -0.32372E-03   -0.34398E-03  8424   0.631E-03 0.538E-03
CGA:  25    -0.672332095049E+03   -0.10739E-03   -0.11182E-03  8424   0.859E-03 0.225E-03
CGA:  26    -0.672332521431E+03   -0.42638E-03    0.16311E-02  8424   0.534E-03 0.492E-03
CGA:  27    -0.672332718100E+03   -0.19667E-03    0.66376E-03  8424   0.322E-03 0.245E-03
CGA:  28    -0.672332653366E+03    0.64734E-04   -0.10822E-03  8424   0.112E-01-0.674E-03
CGA:  29    -0.672333808134E+03   -0.11548E-02   -0.10053E-02  8424   0.301E-02-0.218E-02
CGA:  30    -0.672334060207E+03   -0.25207E-03   -0.30010E-03  8424   0.326E-03 0.289E-03
CGA:  31    -0.672333647413E+03    0.41279E-03   -0.27426E-03  8424   0.992E-02-0.672E-03
CGA:  32    -0.672334831771E+03   -0.11844E-02   -0.10667E-02  8424   0.504E-02-0.233E-02
CGA:  33    -0.672335502206E+03   -0.67043E-03   -0.72030E-03  8424   0.504E-03 0.202E-03
CGA:  34    -0.672335722708E+03   -0.22050E-03   -0.20072E-03  8424   0.767E-03-0.173E-03
CGA:  35    -0.672330898957E+03    0.48238E-02   -0.10318E-02  8424   0.886E-01-0.356E-02
CGA:  36    -0.672335631010E+03   -0.47321E-02   -0.33294E-02  8424   0.259E-01 0.479E-01
CGA:  37    -0.672337305649E+03   -0.16746E-02   -0.15616E-02  8424   0.461E-02 0.762E-02
CGA:  38    -0.672337856182E+03   -0.55053E-03   -0.70218E-03  8424   0.496E-02 0.634E-03
CGA:  39    -0.672338622216E+03   -0.76603E-03   -0.73081E-03  8424   0.227E-02-0.128E-03
CGA:  40    -0.672338972250E+03   -0.35003E-03   -0.22420E-03  8424   0.149E-02-0.481E-03
CGA:  41    -0.672339163323E+03   -0.19107E-03   -0.14848E-03  8424   0.800E-03-0.129E-03
CGA:  42    -0.672339193265E+03   -0.29942E-04   -0.50229E-04  8424   0.428E-03 0.809E-04
CGA:  43    -0.672339305002E+03   -0.11174E-03   -0.10250E-03  8424   0.150E-02-0.413E-04
CGA:  44    -0.672339788299E+03   -0.48330E-03   -0.28026E-03  8424   0.259E-02-0.100E-02
CGA:  45    -0.672340273823E+03   -0.48552E-03   -0.36216E-03  8424   0.190E-02-0.622E-03
CGA:  46    -0.672340479072E+03   -0.20525E-03   -0.23394E-03  8424   0.327E-03 0.133E-03
CGA:  47    -0.672340510881E+03   -0.31810E-04   -0.42710E-04  8424   0.285E-03 0.475E-04
CGA:  48    -0.672340852886E+03   -0.34200E-03    0.14161E-03  8424   0.528E-03-0.310E-04
CGA:  49    -0.672341559251E+03   -0.70637E-03    0.83207E-04  8424   0.162E-02 0.871E-04
CGA:  50    -0.672343386959E+03   -0.18277E-02    0.11061E-02  8424   0.301E-02-0.152E-03
CGA:  51    -0.672347742485E+03   -0.43555E-02    0.42707E-03  8424   0.400E-02 0.101E-02
CGA:  52    -0.672354628117E+03   -0.68856E-02    0.13039E-02  8424   0.351E-02-0.247E-03
CGA:  53    -0.672360167134E+03   -0.55390E-02    0.47231E-03  8424   0.448E-02-0.196E-02
CGA:  54    -0.672360956066E+03   -0.78893E-03   -0.80203E-03  8424   0.114E-02-0.769E-04
CGA:  55    -0.672361117774E+03   -0.16171E-03   -0.21246E-03  8424   0.296E-03 0.306E-03
CGA:  56    -0.672361216532E+03   -0.98759E-04   -0.10524E-03  8424   0.212E-03 0.946E-04
CGA:  57    -0.672361312296E+03   -0.95764E-04   -0.95642E-04  8424   0.234E-03-0.301E-04
CGA:  58    -0.672361629726E+03   -0.31743E-03    0.27034E-04  8424   0.394E-03 0.431E-03
CGA:  59    -0.672361948629E+03   -0.31890E-03    0.40442E-03  8424   0.620E-03-0.121E-04
CGA:  60    -0.672362593405E+03   -0.64478E-03    0.18918E-03  8424   0.581E-03-0.135E-03
CGA:  61    -0.672363283295E+03   -0.68989E-03    0.65972E-04  8424   0.289E-02-0.122E-02
CGA:  62    -0.672363611027E+03   -0.32773E-03   -0.36318E-03  8424   0.982E-03-0.376E-03
CGA:  63    -0.672363814332E+03   -0.20330E-03   -0.66366E-03  8424   0.574E-02-0.105E-02
CGA:  64    -0.672364573585E+03   -0.75925E-03   -0.66307E-03  8424   0.988E-03-0.482E-03
CGA:  65    -0.672359778692E+03    0.47949E-02   -0.10527E-02  8424   0.858E-01-0.875E-02
CGA:  66    -0.672363823101E+03   -0.40444E-02   -0.10933E-01  8424   0.301E-01-0.330E-01
CGA:  67    -0.672366415806E+03   -0.25927E-02   -0.25184E-02  8424   0.135E-02 0.399E-03
CGA:  68    -0.672366852792E+03   -0.43699E-03   -0.33254E-03  8424   0.245E-02-0.799E-03
CGA:  69    -0.672367097878E+03   -0.24509E-03   -0.24110E-03  8424   0.487E-03-0.239E-03
CGA:  70    -0.672367616898E+03   -0.51902E-03    0.10391E-03  8424   0.458E-03 0.271E-03
CGA:  71    -0.672368089041E+03   -0.47214E-03    0.15585E-03  8424   0.106E-02 0.373E-04
CGA:  72    -0.672369694372E+03   -0.16053E-02    0.18658E-03  8424   0.256E-02 0.459E-03
CGA:  73    -0.672374767264E+03   -0.50729E-02    0.61434E-03  8424   0.592E-02 0.288E-02
CGA:  74    -0.672375110223E+03   -0.34296E-03   -0.44298E-03  8424   0.890E-03-0.479E-03
CGA:  75    -0.672375900696E+03   -0.79047E-03    0.28695E-03  8424   0.928E-03 0.443E-03
CGA:  76    -0.672377461307E+03   -0.15606E-02    0.32412E-03  8424   0.163E-02 0.101E-02
CGA:  77    -0.672377877404E+03   -0.41610E-03   -0.22767E-03  8424   0.259E-02-0.822E-03
CGA:  78    -0.672378081190E+03   -0.20379E-03   -0.20644E-03  8424   0.881E-03-0.149E-03
CGA:  79    -0.672379097403E+03   -0.10162E-02    0.12910E-03  8424   0.659E-03 0.813E-03
CGA:  80    -0.672379830590E+03   -0.73319E-03    0.12530E-03  8424   0.170E-02 0.347E-03
CGA:  81    -0.672380011341E+03   -0.18075E-03   -0.16426E-03  8424   0.113E-02-0.151E-03
CGA:  82    -0.672381230929E+03   -0.12196E-02    0.15481E-03  8424   0.907E-03 0.103E-02
CGA:  83    -0.672381783499E+03   -0.55257E-03    0.53310E-02  8424   0.663E-02-0.784E-03
CGA:  84    -0.672382112361E+03   -0.32886E-03   -0.42145E-03  8424   0.752E-03-0.335E-03
CGA:  85    -0.672382917400E+03   -0.80504E-03    0.10459E-03  8424   0.633E-03 0.645E-03
CGA:  86    -0.672383512343E+03   -0.59494E-03    0.13953E-03  8424   0.121E-02 0.445E-03
CGA:  87    -0.672383879252E+03   -0.36691E-03   -0.30675E-03  8424   0.957E-02-0.184E-02
CGA:  88    -0.672384306689E+03   -0.42744E-03   -0.57722E-03  8424   0.735E-03-0.563E-03
CGA:  89    -0.672385039743E+03   -0.73305E-03    0.99843E-04  8424   0.761E-03 0.552E-03
CGA:  90    -0.672383768517E+03    0.12712E-02   -0.78286E-03  8424   0.581E-01-0.271E-02
CGA:  91    -0.672387195602E+03   -0.34271E-02   -0.23823E-02  8424   0.418E-02 0.154E-01
CGA:  92    -0.672387608291E+03   -0.41269E-03   -0.23934E-03  8424   0.594E-03-0.272E-04
CGA:  93    -0.672388328822E+03   -0.72053E-03    0.73315E-04  8424   0.130E-02 0.504E-03
CGA:  94    -0.672388456902E+03   -0.12808E-03   -0.11815E-03  8424   0.994E-03-0.909E-04
CGA:  95    -0.672389519384E+03   -0.10625E-02    0.11646E-03  8424   0.847E-03 0.899E-03
CGA:  96    -0.672384949113E+03    0.45703E-02   -0.85687E-03  8424   0.163E+00-0.768E-02
CGA:  97    -0.672389807862E+03   -0.48587E-02   -0.11590E-01  8424   0.326E-01-0.675E-01
CGA:  98    -0.672391989657E+03   -0.21818E-02   -0.16735E-02  8424   0.436E-03 0.299E-03
CGA:  99    -0.672392548337E+03   -0.55868E-03    0.52978E-04  8424   0.416E-03 0.425E-03
CGA: 100    -0.672393087140E+03   -0.53880E-03    0.48314E-04  8424   0.475E-03 0.386E-03
CGA: 101    -0.672393425361E+03   -0.33822E-03    0.29382E-03  8424   0.230E-02-0.452E-05
CGA: 102    -0.672396388999E+03   -0.29636E-02    0.26383E-03  8424   0.201E-02 0.193E-02
CGA: 103    -0.672396649984E+03   -0.26098E-03   -0.14002E-03  8424   0.678E-03-0.466E-03
CGA: 104    -0.672397051792E+03   -0.40181E-03    0.18766E-03  8424   0.546E-03 0.219E-03
CGA: 105    -0.672397912967E+03   -0.86117E-03    0.87728E-04  8424   0.196E-02 0.157E-03
CGA: 106    -0.672400950752E+03   -0.30378E-02    0.30056E-03  8424   0.103E-02 0.114E-02
CGA: 107    -0.672401111583E+03   -0.16083E-03   -0.15742E-03  8424   0.436E-03-0.269E-04
CGA: 108    -0.672401144711E+03   -0.33128E-04   -0.36401E-04  8424   0.296E-03 0.995E-05
CGA: 109    -0.672401597918E+03   -0.45321E-03    0.21479E-04  8424   0.277E-03 0.281E-03
CGA: 110    -0.672401863088E+03   -0.26517E-03    0.43882E-04  8424   0.268E-02-0.416E-03
CGA: 111    -0.672401912789E+03   -0.49701E-04   -0.11847E-03  8424   0.143E-03 0.189E-03
CGA: 112    -0.672402039701E+03   -0.12691E-03    0.29383E-04  8424   0.474E-03 0.640E-04
CGA: 113    -0.672402863757E+03   -0.82406E-03    0.62368E-04  8424   0.832E-03 0.257E-03
CGA: 114    -0.672402937077E+03   -0.73319E-04   -0.65826E-04  8424   0.411E-03-0.533E-04
CGA: 115    -0.672403318841E+03   -0.38176E-03    0.44665E-04  8424   0.680E-03-0.227E-03
CGA: 116    -0.672403327071E+03   -0.82296E-05   -0.47255E-04  8424   0.273E-03 0.216E-03
CGA: 117    -0.672403400838E+03   -0.73767E-04   -0.70727E-04  8424   0.296E-03-0.818E-04
CGA: 118    -0.672403690913E+03   -0.29007E-03    0.11915E-04  8424   0.695E-03 0.135E-03
CGA: 119    -0.672404795981E+03   -0.11051E-02    0.87531E-04  8424   0.347E-03 0.796E-03
CGA: 120    -0.672405020312E+03   -0.22433E-03    0.10371E-03  8424   0.244E-02-0.472E-03
CGA: 121    -0.672405053363E+03   -0.33051E-04   -0.10198E-03  8424   0.138E-03 0.269E-03
CGA: 122    -0.672405076516E+03   -0.23153E-04   -0.25155E-04  8424   0.418E-03 0.309E-04
CGA: 123    -0.672405477403E+03   -0.40089E-03    0.71557E-04  8424   0.501E-03 0.379E-03
CGA: 124    -0.672405755829E+03   -0.27843E-03    0.20862E-03  8424   0.231E-02-0.511E-03
CGA: 125    -0.672405784158E+03   -0.28329E-04   -0.96262E-04  8424   0.167E-03 0.300E-03
CGA: 126    -0.672405795642E+03   -0.11484E-04   -0.20051E-04  8424   0.279E-03 0.790E-04
CGA: 127    -0.672406032697E+03   -0.23705E-03    0.10494E-03  8424   0.310E-03 0.282E-03
CGA: 128    -0.672406264474E+03   -0.23178E-03    0.39049E-04  8424   0.365E-03 0.413E-04
CGA: 129    -0.672405458205E+03    0.80627E-03   -0.38542E-03  8424   0.324E-01-0.162E-02
CGA: 130    -0.672407292806E+03   -0.18346E-02   -0.15353E-02  8424   0.241E-02 0.110E-02
CGA: 131    -0.672407479670E+03   -0.18686E-03   -0.26979E-03  8424   0.430E-03 0.665E-03
CGA: 132    -0.672407472218E+03    0.74518E-05   -0.32284E-04  8424   0.226E-03 0.229E-03
CGA: 133    -0.672407603122E+03   -0.13090E-03    0.75042E-04  8424   0.478E-03 0.136E-03
CGA: 134    -0.672407609040E+03   -0.59180E-05   -0.27644E-04  8424   0.238E-03 0.127E-03
CGA: 135    -0.672407754156E+03   -0.14512E-03    0.21299E-03  8424   0.582E-03 0.270E-03
CGA: 136    -0.672407878900E+03   -0.12474E-03   -0.83855E-04  8424   0.215E-02-0.612E-03
CGA: 137    -0.672407911920E+03   -0.33020E-04   -0.90490E-04  8424   0.231E-03 0.288E-03
CGA: 138    -0.672407963972E+03   -0.52051E-04   -0.51986E-04  8424   0.917E-03 0.101E-03
CGA: 139    -0.672408679386E+03   -0.71541E-03    0.35736E-03  8424   0.331E-03 0.141E-02
CGA: 140    -0.672408838491E+03   -0.15910E-03    0.15428E-03  8424   0.100E-02 0.793E-04
CGA: 141    -0.672409377720E+03   -0.53923E-03    0.12894E-02  8424   0.503E-03 0.123E-02
CGA: 142    -0.672409391805E+03   -0.14084E-04   -0.38273E-04  8424   0.432E-03 0.189E-03
CGA: 143    -0.672409621501E+03   -0.22970E-03    0.92000E-02  8424   0.555E-03 0.610E-03
CGA: 144    -0.672409609451E+03    0.12050E-04   -0.20025E-03  8424   0.124E-01-0.127E-02
CGA: 145    -0.672409970118E+03   -0.36067E-03   -0.52815E-03  8424   0.374E-03 0.296E-03
CGA: 146    -0.672410247329E+03   -0.27721E-03   -0.18096E-03  8424   0.114E-02 0.332E-03
CGA: 147    -0.672410415327E+03   -0.16800E-03   -0.10960E-03  8424   0.157E-02-0.501E-03
CGA: 148    -0.672410812291E+03   -0.39696E-03    0.70303E-03  8424   0.321E-02 0.728E-03
CGA: 149    -0.672411218033E+03   -0.40574E-03   -0.50880E-03  8424   0.359E-02 0.473E-03
CGA: 150    -0.672412868516E+03   -0.16505E-02    0.21253E-01  8424   0.113E-02 0.364E-02
CGA: 151    -0.672412904788E+03   -0.36272E-04   -0.84185E-04  8424   0.951E-03 0.366E-03
CGA: 152    -0.672413610460E+03   -0.70567E-03   -0.47371E-03  8424   0.133E-02 0.121E-02
CGA: 153    -0.672413881057E+03   -0.27060E-03   -0.39834E-03  8424   0.125E-01-0.127E-02
CGA: 154    -0.672414269132E+03   -0.38808E-03   -0.54379E-03  8424   0.100E-02 0.234E-03
CGA: 155    -0.672414555557E+03   -0.28643E-03   -0.24733E-03  8424   0.115E-02 0.842E-03
CGA: 156    -0.672414845437E+03   -0.28988E-03   -0.36986E-03  8424   0.113E-01-0.645E-03
CGA: 157    -0.672415205755E+03   -0.36032E-03   -0.49193E-03  8424   0.107E-02 0.217E-03
CGA: 158    -0.672415763436E+03   -0.55768E-03   -0.38849E-03  8424   0.151E-02 0.104E-02
CGA: 159    -0.672416064805E+03   -0.30137E-03   -0.29822E-03  8424   0.674E-02-0.392E-03
CGA: 160    -0.672417124749E+03   -0.10599E-02   -0.10708E-02  8424   0.386E-01-0.408E-03
CGA: 161    -0.672418403977E+03   -0.12792E-02   -0.86522E-03  8424   0.429E-01 0.256E-01
CGA: 162    -0.672420089309E+03   -0.16853E-02   -0.20730E-02  8424   0.721E-02-0.132E-02
CGA: 163    -0.672420884337E+03   -0.79503E-03   -0.90131E-03  8424   0.190E-02 0.181E-02
CGA: 164    -0.672421688892E+03   -0.80455E-03   -0.63711E-03  8424   0.323E-02 0.199E-02
CGA: 165    -0.672422512644E+03   -0.82375E-03   -0.81282E-03  8424   0.982E-02 0.127E-03
CGA: 166    -0.672423840644E+03   -0.13280E-02   -0.12560E-02  8424   0.123E-01 0.535E-03
CGA: 167    -0.672428027844E+03   -0.41872E-02   -0.53492E-02  8424   0.196E+00-0.775E-02
CGA: 168    -0.672435119373E+03   -0.70915E-02   -0.84881E-02  8424   0.184E-01-0.244E-01
CGA: 169    -0.672436719042E+03   -0.15997E-02   -0.18024E-02  8424   0.907E-02 0.275E-02
CGA: 170    -0.672437753794E+03   -0.10348E-02   -0.12415E-02  8424   0.981E-02 0.252E-02
CGA: 171    -0.672440901981E+03   -0.31482E-02   -0.29049E-02  8424   0.261E-01 0.571E-02
CGA: 172    -0.672442490048E+03   -0.15881E-02   -0.15529E-02  8424   0.145E-01-0.825E-03
CGA: 173    -0.672445658393E+03   -0.31683E-02   -0.31652E-02  8424   0.137E-01 0.197E-03
CGA: 174    -0.672458376165E+03   -0.12718E-01   -0.75294E-02  8424   0.202E-01 0.140E-01
CGA: 175    -0.672461453344E+03   -0.30772E-02   -0.32467E-02  8424   0.293E-01 0.371E-02
CGA: 176    -0.672463672925E+03   -0.22196E-02   -0.26818E-02  8424   0.154E-01 0.580E-02
CGA: 177    -0.672476823875E+03   -0.13151E-01   -0.85904E-02  8424   0.261E-01 0.162E-01
CGA: 178    -0.672484736374E+03   -0.79125E-02   -0.77887E-02  8424   0.288E-01 0.127E-02
CGA: 179    -0.672486822321E+03   -0.20859E-02   -0.24334E-02  8424   0.369E-01 0.465E-02
CGA: 180    -0.672510879109E+03   -0.24057E-01   -0.18568E-01  8424   0.181E+00 0.230E-01
CGA: 181    -0.672518501850E+03   -0.76227E-02   -0.75621E-02  8424   0.351E-01-0.737E-02
CGA: 182    -0.672530620663E+03   -0.12119E-01   -0.11250E-01  8424   0.320E-01 0.681E-02
CGA: 183    -0.672535503676E+03   -0.48830E-02   -0.52526E-02  8424   0.865E-01 0.297E-02
CGA: 184    -0.672578325935E+03   -0.42822E-01   -0.42835E-01  8424   0.248E+00-0.176E-01
CGA: 185    -0.672586422931E+03   -0.80970E-02   -0.56618E-02  8424   0.226E+00 0.139E+00
CGA: 186    -0.672610049977E+03   -0.23627E-01   -0.25734E-01  8424   0.288E+00-0.114E-01
CGA: 187    -0.672635531569E+03   -0.25482E-01   -0.26192E-01  8424   0.771E-01 0.581E-02
CGA: 188    -0.672653073803E+03   -0.17542E-01   -0.17320E-01  8424   0.375E-01 0.115E-01
CGA: 189    -0.672663032337E+03   -0.99585E-02   -0.97575E-02  8424   0.100E+00 0.792E-02
CGA: 190    -0.672676275753E+03   -0.13243E-01   -0.10568E-01  8424   0.107E+00 0.454E-01
CGA: 191    -0.672692949015E+03   -0.16673E-01   -0.17554E-01  8424   0.184E+00 0.224E-01
CGA: 192    -0.672707795615E+03   -0.14847E-01   -0.11460E-01  8424   0.218E+00 0.871E-01
CGA: 193    -0.672722512879E+03   -0.14717E-01   -0.13895E-01  8424   0.173E+00 0.565E-01
CGA: 194    -0.672729277675E+03   -0.67648E-02   -0.86686E-02  8424   0.130E+00 0.203E-02
CGA: 195    -0.672732743203E+03   -0.34655E-02   -0.53433E-02  8424   0.135E+00 0.853E-03
CGA: 196    -0.672737039646E+03   -0.42964E-02   -0.65321E-02  8424   0.168E+00 0.672E-02
CGA: 197    -0.672743088928E+03   -0.60493E-02   -0.84751E-02  8424   0.160E+00 0.127E-01
CGA: 198    -0.672748448363E+03   -0.53594E-02   -0.66702E-02  8424   0.110E+00 0.192E-01
CGA: 199    -0.672752324679E+03   -0.38763E-02   -0.47141E-02  8424   0.842E-01 0.130E-01
CGA: 200    -0.672755458364E+03   -0.31337E-02   -0.39986E-02  8424   0.795E-01 0.924E-02
   4 F= -.67275546E+03 E0= -.67274634E+03  d E =-.110630E+01  mag=    11.4842
       N       E                     dE             d eps       ncg     rms          ort
SDA:   1    -0.667950888634E+03    0.48014E+01    0.00000E+00  8424   0.149E+02 0.000E+00
CGA:   2    -0.670891969737E+03   -0.29411E+01   -0.30738E+01  8424   0.123E+02-0.146E+01
CGA:   3    -0.672182176110E+03   -0.12902E+01   -0.13082E+01  8424   0.365E+01 0.295E+00
CGA:   4    -0.672785094470E+03   -0.60292E+00   -0.60289E+00  8424   0.785E+00 0.934E-03
CGA:   5    -0.672914818112E+03   -0.12972E+00   -0.12986E+00  8424   0.312E+00-0.258E-02
CGA:   6    -0.672946640046E+03   -0.31822E-01   -0.32488E-01  8424   0.841E-01 0.995E-02
CGA:   7    -0.672961345139E+03   -0.14705E-01   -0.14697E-01  8424   0.231E-01 0.233E-03
CGA:   8    -0.672966135984E+03   -0.47908E-02   -0.46425E-02  8424   0.795E-02 0.238E-02
CGA:   9    -0.672967320595E+03   -0.11846E-02   -0.11990E-02  8424   0.440E-02 0.287E-02
CGA:  10    -0.672968158263E+03   -0.83767E-03   -0.83982E-03  8424   0.172E-02 0.226E-02
CGA:  11    -0.672968391881E+03   -0.23362E-03   -0.23779E-03  8424   0.107E-02 0.122E-02
CGA:  12    -0.672968476801E+03   -0.84920E-04   -0.11687E-03  8424   0.931E-03 0.988E-03
CGA:  13    -0.672968528345E+03   -0.51545E-04   -0.89810E-04  8424   0.852E-03 0.887E-03
CGA:  14    -0.672968566862E+03   -0.38516E-04   -0.77132E-04  8424   0.797E-03 0.822E-03
CGA:  15    -0.672968594203E+03   -0.27341E-04   -0.66931E-04  8424   0.755E-03 0.774E-03
CGA:  16    -0.672968614885E+03   -0.20683E-04   -0.59920E-04  8424   0.722E-03 0.737E-03
CGA:  17    -0.672968630309E+03   -0.15423E-04   -0.54194E-04  8424   0.694E-03 0.707E-03
CGA:  18    -0.672968641837E+03   -0.11528E-04   -0.49568E-04  8424   0.671E-03 0.682E-03
CGA:  19    -0.672968650315E+03   -0.84784E-05   -0.45678E-04  8424   0.651E-03 0.660E-03
CGA:  20    -0.672968656391E+03   -0.60760E-05   -0.42358E-04  8424   0.634E-03 0.642E-03
CGA:  21    -0.672968660552E+03   -0.41608E-05   -0.39482E-04  8424   0.618E-03 0.625E-03
CGA:  22    -0.672968663176E+03   -0.26246E-05   -0.36962E-04  8424   0.605E-03 0.611E-03
CGA:  23    -0.672968664560E+03   -0.13832E-05   -0.34731E-04  8424   0.593E-03 0.598E-03
CGA:  24    -0.672968664936E+03   -0.37663E-06   -0.32740E-04  8424   0.582E-03 0.587E-03
CGA:  25    -0.672968664494E+03    0.44206E-06   -0.30949E-04  8424   0.572E-03 0.577E-03
CGA:  26    -0.672968663386E+03    0.11082E-05   -0.29327E-04  8424   0.563E-03 0.567E-03
CGA:  27    -0.672968661735E+03    0.16509E-05   -0.27849E-04  8424   0.555E-03 0.559E-03
CGA:  28    -0.672968659643E+03    0.20915E-05   -0.26496E-04  8424   0.548E-03 0.551E-03
CGA:  29    -0.672968657195E+03    0.24486E-05   -0.25250E-04  8424   0.541E-03 0.544E-03
CGA:  30    -0.672968654460E+03    0.27347E-05   -0.24100E-04  8424   0.535E-03 0.538E-03
CGA:  31    -0.672968651497E+03    0.29635E-05   -0.23032E-04  8424   0.529E-03 0.532E-03
CGA:  32    -0.672968648352E+03    0.31443E-05   -0.22037E-04  8424   0.524E-03 0.526E-03
CGA:  33    -0.672968645067E+03    0.32849E-05   -0.21108E-04  8424   0.519E-03 0.521E-03
CGA:  34    -0.672968641674E+03    0.33935E-05   -0.20236E-04  8424   0.514E-03 0.516E-03
CGA:  35    -0.672968638201E+03    0.34732E-05   -0.19418E-04  8424   0.510E-03 0.512E-03
CGA:  36    -0.672968634670E+03    0.35309E-05   -0.18646E-04  8424   0.506E-03 0.508E-03
CGA:  37    -0.672968631103E+03    0.35671E-05   -0.17918E-04  8424   0.502E-03 0.504E-03
CGA:  38    -0.672968627515E+03    0.35881E-05   -0.17230E-04  8424   0.498E-03 0.500E-03
CGA:  39    -0.672968623920E+03    0.35945E-05   -0.16577E-04  8424   0.495E-03 0.497E-03
CGA:  40    -0.672968620331E+03    0.35890E-05   -0.15957E-04  8424   0.492E-03 0.494E-03
CGA:  41    -0.672968616758E+03    0.35728E-05   -0.15369E-04  8424   0.489E-03 0.491E-03
CGA:  42    -0.672968613209E+03    0.35489E-05   -0.14808E-04  8424   0.486E-03 0.488E-03
CGA:  43    -0.672968609692E+03    0.35171E-05   -0.14274E-04  8424   0.484E-03 0.485E-03
CGA:  44    -0.672968606213E+03    0.34795E-05   -0.13765E-04  8424   0.481E-03 0.482E-03
CGA:  45    -0.672968602776E+03    0.34366E-05   -0.13279E-04  8424   0.479E-03 0.480E-03
CGA:  46    -0.672968599386E+03    0.33902E-05   -0.12813E-04  8424   0.477E-03 0.478E-03
CGA:  47    -0.672968596046E+03    0.33399E-05   -0.12369E-04  8424   0.475E-03 0.476E-03
CGA:  48    -0.672968592760E+03    0.32860E-05   -0.11943E-04  8424   0.473E-03 0.473E-03
CGA:  49    -0.672968589529E+03    0.32308E-05   -0.11534E-04  8424   0.471E-03 0.472E-03
CGA:  50    -0.672968586357E+03    0.31726E-05   -0.11143E-04  8424   0.469E-03 0.470E-03
CGA:  51    -0.672968583243E+03    0.31138E-05   -0.10766E-04  8424   0.467E-03 0.468E-03
CGA:  52    -0.672968580190E+03    0.30527E-05   -0.10406E-04  8424   0.466E-03 0.466E-03
CGA:  53    -0.672968577199E+03    0.29915E-05   -0.10060E-04  8424   0.464E-03 0.464E-03
   5 F= -.67296858E+03 E0= -.67295981E+03  d E =-.213119E+00  mag=    11.2365
       N       E                     dE             d eps       ncg     rms          ort
SDA:   1    -0.657775961291E+03    0.15193E+02    0.00000E+00  8424   0.447E+02 0.000E+00
CGA:   2    -0.667733745443E+03   -0.99578E+01   -0.10407E+02  8424   0.245E+02-0.242E+01
CGA:   3    -0.671462020171E+03   -0.37283E+01   -0.34457E+01  8424   0.681E+01 0.322E+01
CGA:   4    -0.672651744446E+03   -0.11897E+01   -0.12141E+01  8424   0.209E+01-0.281E+00
CGA:   5    -0.672992801608E+03   -0.34106E+00   -0.33223E+00  8424   0.451E+00 0.915E-01
CGA:   6    -0.673079550090E+03   -0.86748E-01   -0.85699E-01  8424   0.117E+00 0.947E-02
CGA:   7    -0.673102964326E+03   -0.23414E-01   -0.23594E-01  8424   0.547E-01-0.147E-02
CGA:   8    -0.673111484272E+03   -0.85199E-02   -0.81968E-02  8424   0.197E-01 0.455E-02
CGA:   9    -0.673116363095E+03   -0.48788E-02   -0.44595E-02  8424   0.710E-02 0.343E-02
CGA:  10    -0.673118357933E+03   -0.19948E-02   -0.17460E-02  8424   0.417E-02 0.213E-02
CGA:  11    -0.673119265906E+03   -0.90797E-03   -0.79775E-03  8424   0.209E-02 0.223E-02
CGA:  12    -0.673119662833E+03   -0.39693E-03   -0.32706E-03  8424   0.116E-02 0.125E-02
CGA:  13    -0.673119833850E+03   -0.17102E-03   -0.14750E-03  8424   0.938E-03 0.972E-03
CGA:  14    -0.673119968219E+03   -0.13437E-03   -0.11685E-03  8424   0.828E-03 0.864E-03
CGA:  15    -0.673120065717E+03   -0.97498E-04   -0.92449E-04  8424   0.762E-03 0.791E-03
CGA:  16    -0.673120147677E+03   -0.81960E-04   -0.81248E-04  8424   0.715E-03 0.738E-03
CGA:  17    -0.673120216436E+03   -0.68759E-04   -0.72116E-04  8424   0.678E-03 0.696E-03
CGA:  18    -0.673120275689E+03   -0.59253E-04   -0.65302E-04  8424   0.647E-03 0.663E-03
CGA:  19    -0.673120327356E+03   -0.51666E-04   -0.59743E-04  8424   0.622E-03 0.635E-03
CGA:  20    -0.673120372858E+03   -0.45502E-04   -0.55105E-04  8424   0.599E-03 0.611E-03
CGA:  21    -0.673120413245E+03   -0.40387E-04   -0.51151E-04  8424   0.580E-03 0.590E-03
CGA:  22    -0.673120449323E+03   -0.36079E-04   -0.47727E-04  8424   0.563E-03 0.571E-03
CGA:  23    -0.673120481721E+03   -0.32398E-04   -0.44719E-04  8424   0.547E-03 0.555E-03
CGA:  24    -0.673120510949E+03   -0.29228E-04   -0.42053E-04  8424   0.534E-03 0.540E-03
CGA:  25    -0.673120537431E+03   -0.26482E-04   -0.39674E-04  8424   0.521E-03 0.527E-03
CGA:  26    -0.673120561518E+03   -0.24087E-04   -0.37537E-04  8424   0.510E-03 0.515E-03
CGA:  27    -0.673120583519E+03   -0.22001E-04   -0.35617E-04  8424   0.500E-03 0.505E-03
CGA:  28    -0.673120603712E+03   -0.20194E-04   -0.33899E-04  8424   0.491E-03 0.495E-03
CGA:  29    -0.673120622310E+03   -0.18598E-04   -0.32334E-04  8424   0.483E-03 0.487E-03
CGA:  30    -0.673120639479E+03   -0.17169E-04   -0.30893E-04  8424   0.475E-03 0.479E-03
CGA:  31    -0.673120655368E+03   -0.15889E-04   -0.29563E-04  8424   0.468E-03 0.471E-03
CGA:  32    -0.673120670106E+03   -0.14738E-04   -0.28330E-04  8424   0.462E-03 0.464E-03
CGA:  33    -0.673120683807E+03   -0.13701E-04   -0.27185E-04  8424   0.456E-03 0.458E-03
CGA:  34    -0.673120696567E+03   -0.12761E-04   -0.26115E-04  8424   0.450E-03 0.452E-03
CGA:  35    -0.673120708474E+03   -0.11906E-04   -0.25114E-04  8424   0.445E-03 0.447E-03
CGA:  36    -0.673120719600E+03   -0.11127E-04   -0.24174E-04  8424   0.440E-03 0.442E-03
CGA:  37    -0.673120730014E+03   -0.10413E-04   -0.23287E-04  8424   0.435E-03 0.437E-03
CGA:  38    -0.673120739771E+03   -0.97575E-05   -0.22450E-04  8424   0.431E-03 0.432E-03
CGA:  39    -0.673120748924E+03   -0.91531E-05   -0.21657E-04  8424   0.427E-03 0.428E-03
CGA:  40    -0.673120757519E+03   -0.85944E-05   -0.20904E-04  8424   0.423E-03 0.424E-03
CGA:  41    -0.673120765593E+03   -0.80741E-05   -0.20187E-04  8424   0.419E-03 0.420E-03
CGA:  42    -0.673120773189E+03   -0.75960E-05   -0.19505E-04  8424   0.416E-03 0.417E-03
CGA:  43    -0.673120780292E+03   -0.71036E-05   -0.18827E-04  8424   0.414E-03 0.413E-03
CGA:  44    -0.673120786898E+03   -0.66055E-05   -0.18147E-04  8424   0.418E-03 0.406E-03
CGA:  45    -0.673120792631E+03   -0.57337E-05   -0.17273E-04  8424   0.432E-03 0.391E-03
CGA:  46    -0.673120797857E+03   -0.52259E-05   -0.16618E-04  8424   0.448E-03 0.368E-03
CGA:  47    -0.673120802678E+03   -0.48209E-05   -0.16146E-04  8424   0.443E-03 0.356E-03
CGA:  48    -0.673120807965E+03   -0.52865E-05   -0.16130E-04  8424   0.427E-03 0.363E-03
CGA:  49    -0.673120812901E+03   -0.49364E-05   -0.15586E-04  8424   0.409E-03 0.377E-03
CGA:  50    -0.673120817969E+03   -0.50676E-05   -0.15196E-04  8424   0.397E-03 0.387E-03
CGA:  51    -0.673120822419E+03   -0.44501E-05   -0.14461E-04  8424   0.392E-03 0.390E-03
CGA:  52    -0.673120826800E+03   -0.43812E-05   -0.14059E-04  8424   0.389E-03 0.389E-03
CGA:  53    -0.673120830777E+03   -0.39765E-05   -0.13533E-04  8424   0.386E-03 0.387E-03
CGA:  54    -0.673120834615E+03   -0.38387E-05   -0.13155E-04  8424   0.384E-03 0.385E-03
CGA:  55    -0.673120838191E+03   -0.35758E-05   -0.12725E-04  8424   0.382E-03 0.382E-03
CGA:  56    -0.673120841593E+03   -0.34025E-05   -0.12346E-04  8424   0.379E-03 0.380E-03
CGA:  57    -0.673120844783E+03   -0.31895E-05   -0.11954E-04  8424   0.377E-03 0.378E-03
CGA:  58    -0.673120847803E+03   -0.30200E-05   -0.11590E-04  8424   0.375E-03 0.376E-03
CGA:  59    -0.673120850638E+03   -0.28351E-05   -0.11224E-04  8424   0.373E-03 0.374E-03
CGA:  60    -0.673120853320E+03   -0.26819E-05   -0.10883E-04  8424   0.371E-03 0.371E-03
CGA:  61    -0.673120855846E+03   -0.25255E-05   -0.10547E-04  8424   0.369E-03 0.369E-03
CGA:  62    -0.673120858233E+03   -0.23876E-05   -0.10229E-04  8424   0.367E-03 0.367E-03
   6 F= -.67312086E+03 E0= -.67311674E+03  d E =-.152281E+00  mag=    11.0804
       N       E                     dE             d eps       ncg     rms          ort
SDA:   1    -0.664112231421E+03    0.90086E+01    0.00000E+00  8424   0.276E+02 0.000E+00
CGA:   2    -0.669945290294E+03   -0.58331E+01   -0.58836E+01  8424   0.127E+02-0.444E+00
CGA:   3    -0.672440593849E+03   -0.24953E+01   -0.24814E+01  8424   0.356E+01 0.114E+00
CGA:   4    -0.673047100748E+03   -0.60651E+00   -0.60744E+00  8424   0.871E+00-0.103E-01
CGA:   5    -0.673201537357E+03   -0.15444E+00   -0.15341E+00  8424   0.172E+00 0.962E-02
CGA:   6    -0.673236761076E+03   -0.35224E-01   -0.34866E-01  8424   0.414E-01 0.277E-02
CGA:   7    -0.673246099718E+03   -0.93386E-02   -0.88855E-02  8424   0.129E-01 0.343E-02
CGA:   8    -0.673249355523E+03   -0.32558E-02   -0.29368E-02  8424   0.459E-02 0.256E-02
CGA:   9    -0.673250540628E+03   -0.11851E-02   -0.10029E-02  8424   0.185E-02 0.203E-02
CGA:  10    -0.673250983598E+03   -0.44297E-03   -0.37145E-03  8424   0.113E-02 0.167E-02
CGA:  11    -0.673251119390E+03   -0.13579E-03   -0.12506E-03  8424   0.813E-03 0.905E-03
CGA:  12    -0.673251193603E+03   -0.74214E-04   -0.77439E-04  8424   0.708E-03 0.754E-03
CGA:  13    -0.673251246067E+03   -0.52463E-04   -0.61198E-04  8424   0.646E-03 0.675E-03
CGA:  14    -0.673251285697E+03   -0.39630E-04   -0.51467E-04  8424   0.602E-03 0.623E-03
CGA:  15    -0.673251316884E+03   -0.31187E-04   -0.44821E-04  8424   0.569E-03 0.585E-03
CGA:  16    -0.673251342056E+03   -0.25171E-04   -0.39886E-04  8424   0.543E-03 0.555E-03
CGA:  17    -0.673251362716E+03   -0.20660E-04   -0.36020E-04  8424   0.521E-03 0.531E-03
CGA:  18    -0.673251379870E+03   -0.17154E-04   -0.32879E-04  8424   0.503E-03 0.511E-03
CGA:  19    -0.673251394229E+03   -0.14359E-04   -0.30255E-04  8424   0.487E-03 0.495E-03
CGA:  20    -0.673251406317E+03   -0.12088E-04   -0.28020E-04  8424   0.474E-03 0.480E-03
CGA:  21    -0.673251416530E+03   -0.10213E-04   -0.26083E-04  8424   0.461E-03 0.467E-03
CGA:  22    -0.673251425179E+03   -0.86488E-05   -0.24384E-04  8424   0.451E-03 0.456E-03
CGA:  23    -0.673251432510E+03   -0.73311E-05   -0.22879E-04  8424   0.441E-03 0.446E-03
CGA:  24    -0.673251438723E+03   -0.62132E-05   -0.21534E-04  8424   0.433E-03 0.437E-03
CGA:  25    -0.673251443984E+03   -0.52609E-05   -0.20325E-04  8424   0.425E-03 0.429E-03
CGA:  26    -0.673251448434E+03   -0.44498E-05   -0.19235E-04  8424   0.418E-03 0.421E-03
CGA:  27    -0.673251452189E+03   -0.37547E-05   -0.18245E-04  8424   0.411E-03 0.414E-03
CGA:  28    -0.673251455343E+03   -0.31547E-05   -0.17340E-04  8424   0.406E-03 0.408E-03
CGA:  29    -0.673251457980E+03   -0.26365E-05   -0.16509E-04  8424   0.400E-03 0.403E-03
CGA:  30    -0.673251460165E+03   -0.21851E-05   -0.15742E-04  8424   0.395E-03 0.398E-03
CGA:  31    -0.673251461957E+03   -0.17920E-05   -0.15032E-04  8424   0.391E-03 0.393E-03
CGA:  32    -0.673251463406E+03   -0.14486E-05   -0.14372E-04  8424   0.387E-03 0.389E-03
CGA:  33    -0.673251464553E+03   -0.11470E-05   -0.13756E-04  8424   0.383E-03 0.385E-03
CGA:  34    -0.673251465437E+03   -0.88397E-06   -0.13180E-04  8424   0.379E-03 0.381E-03
CGA:  35    -0.673251466089E+03   -0.65211E-06   -0.12640E-04  8424   0.376E-03 0.377E-03
CGA:  36    -0.673251466538E+03   -0.44905E-06   -0.12133E-04  8424   0.373E-03 0.374E-03
CGA:  37    -0.673251466808E+03   -0.27014E-06   -0.11654E-04  8424   0.370E-03 0.371E-03
CGA:  38    -0.673251466921E+03   -0.11333E-06   -0.11203E-04  8424   0.367E-03 0.368E-03
CGA:  39    -0.673251466896E+03    0.25477E-07   -0.10776E-04  8424   0.364E-03 0.366E-03
CGA:  40    -0.673251466749E+03    0.14672E-06   -0.10371E-04  8424   0.362E-03 0.363E-03
   7 F= -.67325147E+03 E0= -.67324987E+03  d E =-.130609E+00  mag=    11.0140
       N       E                     dE             d eps       ncg     rms          ort
SDA:   1    -0.669927960421E+03    0.33235E+01    0.00000E+00  8424   0.990E+01 0.000E+00
CGA:   2    -0.672147891105E+03   -0.22199E+01   -0.22362E+01  8424   0.473E+01-0.147E+00
CGA:   3    -0.673053196652E+03   -0.90531E+00   -0.90077E+00  8424   0.124E+01 0.435E-01
CGA:   4    -0.673271620407E+03   -0.21842E+00   -0.21893E+00  8424   0.282E+00-0.514E-02
CGA:   5    -0.673321395390E+03   -0.49775E-01   -0.49681E-01  8424   0.627E-01 0.864E-03
CGA:   6    -0.673333385929E+03   -0.11991E-01   -0.11785E-01  8424   0.150E-01 0.190E-02
CGA:   7    -0.673336706835E+03   -0.33209E-02   -0.30212E-02  8424   0.444E-02 0.271E-02
CGA:   8    -0.673337871498E+03   -0.11647E-02   -0.98803E-03  8424   0.175E-02 0.180E-02
CGA:   9    -0.673338330734E+03   -0.45924E-03   -0.37865E-03  8424   0.995E-03 0.138E-02
CGA:  10    -0.673338481063E+03   -0.15033E-03   -0.12768E-03  8424   0.680E-03 0.764E-03
CGA:  11    -0.673338563558E+03   -0.82494E-04   -0.75594E-04  8424   0.591E-03 0.629E-03
CGA:  12    -0.673338619832E+03   -0.56274E-04   -0.57830E-04  8424   0.538E-03 0.562E-03
CGA:  13    -0.673338662863E+03   -0.43032E-04   -0.48469E-04  8424   0.501E-03 0.518E-03
CGA:  14    -0.673338697063E+03   -0.34199E-04   -0.42014E-04  8424   0.471E-03 0.485E-03
CGA:  15    -0.673338724894E+03   -0.27831E-04   -0.37177E-04  8424   0.448E-03 0.459E-03
CGA:  16    -0.673338747899E+03   -0.23006E-04   -0.33364E-04  8424   0.428E-03 0.437E-03
CGA:  17    -0.673338767129E+03   -0.19230E-04   -0.30254E-04  8424   0.411E-03 0.419E-03
CGA:  18    -0.673338783335E+03   -0.16205E-04   -0.27657E-04  8424   0.396E-03 0.403E-03
CGA:  19    -0.673338797077E+03   -0.13742E-04   -0.25449E-04  8424   0.383E-03 0.389E-03
CGA:  20    -0.673338808785E+03   -0.11708E-04   -0.23545E-04  8424   0.372E-03 0.377E-03
CGA:  21    -0.673338818798E+03   -0.10013E-04   -0.21887E-04  8424   0.362E-03 0.367E-03
CGA:  22    -0.673338827388E+03   -0.85902E-05   -0.20429E-04  8424   0.353E-03 0.357E-03
CGA:  23    -0.673338834774E+03   -0.73861E-05   -0.19137E-04  8424   0.345E-03 0.349E-03
CGA:  24    -0.673338841138E+03   -0.63633E-05   -0.17985E-04  8424   0.337E-03 0.341E-03
CGA:  25    -0.673338846625E+03   -0.54875E-05   -0.16950E-04  8424   0.331E-03 0.334E-03
CGA:  26    -0.673338851359E+03   -0.47336E-05   -0.16014E-04  8424   0.325E-03 0.328E-03
CGA:  27    -0.673338855443E+03   -0.40843E-05   -0.15165E-04  8424   0.319E-03 0.322E-03
CGA:  28    -0.673338858963E+03   -0.35196E-05   -0.14389E-04  8424   0.314E-03 0.317E-03
CGA:  29    -0.673338861992E+03   -0.30292E-05   -0.13677E-04  8424   0.309E-03 0.312E-03
CGA:  30    -0.673338864591E+03   -0.25989E-05   -0.13021E-04  8424   0.305E-03 0.307E-03
CGA:  31    -0.673338866814E+03   -0.22229E-05   -0.12415E-04  8424   0.301E-03 0.303E-03
CGA:  32    -0.673338868705E+03   -0.18916E-05   -0.11852E-04  8424   0.298E-03 0.299E-03
CGA:  33    -0.673338870306E+03   -0.16013E-05   -0.11329E-04  8424   0.294E-03 0.296E-03
CGA:  34    -0.673338871651E+03   -0.13442E-05   -0.10840E-04  8424   0.291E-03 0.292E-03
CGA:  35    -0.673338872767E+03   -0.11167E-05   -0.10382E-04  8424   0.288E-03 0.289E-03
   8 F= -.67333887E+03 E0= -.67333861E+03  d E =-.874060E-01  mag=    11.0010
       N       E                     dE             d eps       ncg     rms          ort
SDA:   1    -0.670984758027E+03    0.23541E+01    0.00000E+00  8424   0.659E+01 0.000E+00
CGA:   2    -0.672626002409E+03   -0.16412E+01   -0.16389E+01  8424   0.317E+01 0.884E-02
CGA:   3    -0.673228591203E+03   -0.60259E+00   -0.60247E+00  8424   0.822E+00 0.152E-02
CGA:   4    -0.673367372584E+03   -0.13878E+00   -0.13900E+00  8424   0.191E+00-0.267E-02
CGA:   5    -0.673400429194E+03   -0.33057E-01   -0.33041E-01  8424   0.407E-01 0.133E-03
CGA:   6    -0.673408688907E+03   -0.82597E-02   -0.81133E-02  8424   0.975E-02 0.131E-02
CGA:   7    -0.673410900882E+03   -0.22120E-02   -0.20013E-02  8424   0.310E-02 0.201E-02
CGA:   8    -0.673411720384E+03   -0.81950E-03   -0.68578E-03  8424   0.136E-02 0.159E-02
CGA:   9    -0.673412030504E+03   -0.31012E-03   -0.24714E-03  8424   0.759E-03 0.804E-03
CGA:  10    -0.673412156436E+03   -0.12593E-03   -0.10517E-03  8424   0.619E-03 0.664E-03
CGA:  11    -0.673412247989E+03   -0.91553E-04   -0.79917E-04  8424   0.546E-03 0.578E-03
CGA:  12    -0.673412315460E+03   -0.67471E-04   -0.63844E-04  8424   0.496E-03 0.518E-03
CGA:  13    -0.673412368629E+03   -0.53169E-04   -0.53898E-04  8424   0.457E-03 0.475E-03
CGA:  14    -0.673412411649E+03   -0.43020E-04   -0.46647E-04  8424   0.427E-03 0.441E-03
CGA:  15    -0.673412447164E+03   -0.35515E-04   -0.41116E-04  8424   0.402E-03 0.414E-03
CGA:  16    -0.673412476956E+03   -0.29793E-04   -0.36756E-04  8424   0.382E-03 0.392E-03
CGA:  17    -0.673412502269E+03   -0.25312E-04   -0.33225E-04  8424   0.364E-03 0.373E-03
CGA:  18    -0.673412524006E+03   -0.21737E-04   -0.30309E-04  8424   0.350E-03 0.357E-03
CGA:  19    -0.673412542841E+03   -0.18835E-04   -0.27856E-04  8424   0.337E-03 0.343E-03
CGA:  20    -0.673412559282E+03   -0.16441E-04   -0.25761E-04  8424   0.325E-03 0.331E-03
CGA:  21    -0.673412573725E+03   -0.14443E-04   -0.23950E-04  8424   0.315E-03 0.320E-03
CGA:  22    -0.673412586482E+03   -0.12756E-04   -0.22366E-04  8424   0.307E-03 0.311E-03
CGA:  23    -0.673412597798E+03   -0.11317E-04   -0.20966E-04  8424   0.299E-03 0.303E-03
CGA:  24    -0.673412607881E+03   -0.10082E-04   -0.19720E-04  8424   0.292E-03 0.295E-03
CGA:  25    -0.673412616893E+03   -0.90127E-05   -0.18601E-04  8424   0.285E-03 0.288E-03
CGA:  26    -0.673412624974E+03   -0.80805E-05   -0.17591E-04  8424   0.279E-03 0.282E-03
CGA:  27    -0.673412632238E+03   -0.72640E-05   -0.16672E-04  8424   0.274E-03 0.277E-03
CGA:  28    -0.673412638783E+03   -0.65454E-05   -0.15833E-04  8424   0.269E-03 0.272E-03
CGA:  29    -0.673412644691E+03   -0.59074E-05   -0.15063E-04  8424   0.265E-03 0.267E-03
CGA:  30    -0.673412650033E+03   -0.53423E-05   -0.14353E-04  8424   0.260E-03 0.263E-03
CGA:  31    -0.673412654869E+03   -0.48360E-05   -0.13696E-04  8424   0.257E-03 0.259E-03
CGA:  32    -0.673412659252E+03   -0.43831E-05   -0.13085E-04  8424   0.253E-03 0.255E-03
CGA:  33    -0.673412663228E+03   -0.39761E-05   -0.12516E-04  8424   0.250E-03 0.251E-03
CGA:  34    -0.673412666836E+03   -0.36080E-05   -0.11985E-04  8424   0.247E-03 0.248E-03
CGA:  35    -0.673412670114E+03   -0.32775E-05   -0.11487E-04  8424   0.244E-03 0.245E-03
CGA:  36    -0.673412673089E+03   -0.29754E-05   -0.11018E-04  8424   0.241E-03 0.242E-03
CGA:  37    -0.673412675791E+03   -0.27021E-05   -0.10578E-04  8424   0.239E-03 0.240E-03
CGA:  38    -0.673412678242E+03   -0.24506E-05   -0.10160E-04  8424   0.236E-03 0.237E-03
   9 F= -.67341268E+03 E0= -.67341268E+03  d E =-.738055E-01  mag=    11.0000
       N       E                     dE             d eps       ncg     rms          ort
SDA:   1    -0.669921149947E+03    0.34915E+01    0.00000E+00  8424   0.929E+01 0.000E+00
CGA:   2    -0.672397562212E+03   -0.24764E+01   -0.24767E+01  8424   0.438E+01-0.535E-02
CGA:   3    -0.673215428002E+03   -0.81787E+00   -0.81743E+00  8424   0.108E+01 0.454E-02
CGA:   4    -0.673401774849E+03   -0.18635E+00   -0.18639E+00  8424   0.259E+00-0.688E-03
CGA:   5    -0.673445816565E+03   -0.44042E-01   -0.43982E-01  8424   0.551E-01 0.693E-03
CGA:   6    -0.673457189714E+03   -0.11373E-01   -0.11237E-01  8424   0.133E-01 0.124E-02
CGA:   7    -0.673460397017E+03   -0.32073E-02   -0.30130E-02  8424   0.453E-02 0.159E-02
CGA:   8    -0.673461655206E+03   -0.12582E-02   -0.10995E-02  8424   0.175E-02 0.143E-02
CGA:   9    -0.673462213134E+03   -0.55793E-03   -0.46118E-03  8424   0.971E-03 0.109E-02
CGA:  10    -0.673462454098E+03   -0.24096E-03   -0.19258E-03  8424   0.578E-03 0.590E-03
CGA:  11    -0.673462582633E+03   -0.12854E-03   -0.10111E-03  8424   0.477E-03 0.503E-03
CGA:  12    -0.673462677340E+03   -0.94707E-04   -0.77279E-04  8424   0.427E-03 0.448E-03
CGA:  13    -0.673462754445E+03   -0.77105E-04   -0.65510E-04  8424   0.392E-03 0.408E-03
CGA:  14    -0.673462819747E+03   -0.65302E-04   -0.57631E-04  8424   0.366E-03 0.379E-03
CGA:  15    -0.673462876579E+03   -0.56832E-04   -0.51874E-04  8424   0.346E-03 0.355E-03
CGA:  16    -0.673462926916E+03   -0.50338E-04   -0.47386E-04  8424   0.328E-03 0.337E-03
CGA:  17    -0.673462972071E+03   -0.45154E-04   -0.43745E-04  8424   0.314E-03 0.321E-03
CGA:  18    -0.673463013008E+03   -0.40938E-04   -0.40729E-04  8424   0.302E-03 0.308E-03
CGA:  19    -0.673463050433E+03   -0.37425E-04   -0.38172E-04  8424   0.291E-03 0.296E-03
CGA:  20    -0.673463084891E+03   -0.34458E-04   -0.35973E-04  8424   0.282E-03 0.286E-03
CGA:  21    -0.673463116807E+03   -0.31916E-04   -0.34054E-04  8424   0.273E-03 0.277E-03
CGA:  22    -0.673463146518E+03   -0.29712E-04   -0.32361E-04  8424   0.266E-03 0.269E-03
CGA:  23    -0.673463174298E+03   -0.27780E-04   -0.30851E-04  8424   0.259E-03 0.262E-03
CGA:  24    -0.673463200369E+03   -0.26071E-04   -0.29492E-04  8424   0.253E-03 0.256E-03
CGA:  25    -0.673463224915E+03   -0.24545E-04   -0.28259E-04  8424   0.247E-03 0.250E-03
CGA:  26    -0.673463248088E+03   -0.23173E-04   -0.27132E-04  8424   0.242E-03 0.245E-03
CGA:  27    -0.673463270014E+03   -0.21927E-04   -0.26093E-04  8424   0.238E-03 0.240E-03
CGA:  28    -0.673463290805E+03   -0.20791E-04   -0.25132E-04  8424   0.233E-03 0.235E-03
CGA:  29    -0.673463310543E+03   -0.19738E-04   -0.24233E-04  8424   0.230E-03 0.231E-03
CGA:  30    -0.673463329311E+03   -0.18768E-04   -0.23396E-04  8424   0.226E-03 0.227E-03
CGA:  31    -0.673463347150E+03   -0.17839E-04   -0.22599E-04  8424   0.223E-03 0.223E-03
CGA:  32    -0.673463364132E+03   -0.16981E-04   -0.21860E-04  8424   0.221E-03 0.219E-03
CGA:  33    -0.673463380298E+03   -0.16166E-04   -0.21159E-04  8424   0.218E-03 0.216E-03
CGA:  34    -0.673463395766E+03   -0.15469E-04   -0.20525E-04  8424   0.215E-03 0.212E-03
CGA:  35    -0.673463410580E+03   -0.14813E-04   -0.19909E-04  8424   0.212E-03 0.210E-03
CGA:  36    -0.673463424817E+03   -0.14237E-04   -0.19330E-04  8424   0.210E-03 0.207E-03
CGA:  37    -0.673463438364E+03   -0.13547E-04   -0.18704E-04  8424   0.208E-03 0.205E-03
CGA:  38    -0.673463451513E+03   -0.13149E-04   -0.18248E-04  8424   0.208E-03 0.201E-03
CGA:  39    -0.673463462995E+03   -0.11482E-04   -0.17180E-04  8424   0.212E-03 0.195E-03
CGA:  40    -0.673463474840E+03   -0.11846E-04   -0.17182E-04  8424   0.231E-03 0.181E-03
CGA:  41    -0.673463482233E+03   -0.73922E-05   -0.14727E-04  8424   0.237E-03 0.163E-03
CGA:  42    -0.673463492669E+03   -0.10436E-04   -0.16182E-04  8424   0.248E-03 0.150E-03
CGA:  43    -0.673463500155E+03   -0.74859E-05   -0.14601E-04  8424   0.223E-03 0.155E-03
CGA:  44    -0.673463510514E+03   -0.10359E-04   -0.15693E-04  8424   0.218E-03 0.166E-03
CGA:  45    -0.673463519232E+03   -0.87178E-05   -0.14598E-04  8424   0.204E-03 0.174E-03
CGA:  46    -0.673463529245E+03   -0.10014E-04   -0.14813E-04  8424   0.196E-03 0.181E-03
CGA:  47    -0.673463538409E+03   -0.91635E-05   -0.14029E-04  8424   0.190E-03 0.185E-03
CGA:  48    -0.673463547638E+03   -0.92290E-05   -0.13748E-04  8424   0.187E-03 0.187E-03
CGA:  49    -0.673463556346E+03   -0.87084E-05   -0.13258E-04  8424   0.186E-03 0.186E-03
CGA:  50    -0.673463564839E+03   -0.84932E-05   -0.12961E-04  8424   0.184E-03 0.185E-03
CGA:  51    -0.673463572951E+03   -0.81119E-05   -0.12596E-04  8424   0.183E-03 0.183E-03
CGA:  52    -0.673463580878E+03   -0.79262E-05   -0.12334E-04  8424   0.182E-03 0.182E-03
CGA:  53    -0.673463588456E+03   -0.75786E-05   -0.11995E-04  8424   0.181E-03 0.181E-03
CGA:  54    -0.673463595901E+03   -0.74447E-05   -0.11767E-04  8424   0.179E-03 0.180E-03
CGA:  55    -0.673463602989E+03   -0.70881E-05   -0.11431E-04  8424   0.178E-03 0.179E-03
CGA:  56    -0.673463610014E+03   -0.70247E-05   -0.11243E-04  8424   0.177E-03 0.178E-03
CGA:  57    -0.673463616665E+03   -0.66510E-05   -0.10905E-04  8424   0.176E-03 0.177E-03
CGA:  58    -0.673463623295E+03   -0.66307E-05   -0.10744E-04  8424   0.175E-03 0.176E-03
CGA:  59    -0.673463629586E+03   -0.62909E-05   -0.10429E-04  8424   0.174E-03 0.175E-03
CGA:  60    -0.673463635816E+03   -0.62298E-05   -0.10255E-04  8424   0.173E-03 0.174E-03
