       N       E                     dE             d eps       ncg     rms          ort
DAV:   1     0.829072031516E+04    0.82907E+04   -0.24694E+05  8424   0.239E+03
DAV:   2     0.920442823023E+03   -0.73703E+04   -0.69193E+04  8424   0.659E+02
DAV:   3    -0.677502031600E+03   -0.15979E+04   -0.14058E+04  8424   0.283E+02
DAV:   4    -0.833919258864E+03   -0.15642E+03   -0.15369E+03  8424   0.858E+01
DAV:   5    -0.836441128880E+03   -0.25219E+01   -0.25103E+01  8424   0.122E+01
SDA:   6    -0.247792841030E+03    0.58865E+03   -0.25103E+01  8424   0.764E+04 0.000E+00
CGA:   7    -0.187542784910E+03    0.60250E+02   -0.46128E+03  8424   0.280E+05-0.437E+04
CGA:   8     0.136262931241E+04    0.15502E+04   -0.17640E+04  8424   0.130E+06-0.492E+05
CGA:   9     0.506985891223E+04    0.37072E+04   -0.10019E+05  8424   0.199E+05-0.108E+05
CGA:  10     0.871191843701E+03   -0.41987E+04   -0.73562E+03  8424   0.564E+05-0.810E+05
CGA:  11     0.395569905771E+04    0.30845E+04   -0.34576E+04  8424   0.198E+06-0.722E+05
CGA:  12     0.533694912241E+04    0.13813E+04   -0.14763E+05  8424   0.301E+05-0.225E+05
CGA:  13    -0.518729190699E+03   -0.58557E+04   -0.12403E+04  8424   0.526E+04-0.215E+05
CGA:  14    -0.589612148983E+03   -0.70883E+02   -0.26323E+03  8424   0.524E+04-0.514E+04
CGA:  15    -0.587587375061E+03    0.20248E+01   -0.35242E+03  8424   0.481E+03-0.251E+03
CGA:  16    -0.643809081592E+03   -0.56222E+02   -0.75063E+01  8424   0.116E+03 0.306E+03
CGA:  17    -0.655033055420E+03   -0.11224E+02   -0.12677E+02  8424   0.535E+02 0.209E+02
CGA:  18    -0.664588468059E+03   -0.95554E+01   -0.93745E+01  8424   0.269E+02 0.115E+02
CGA:  19    -0.668679703927E+03   -0.40912E+01   -0.39047E+01  8424   0.361E+02-0.679E+01
CGA:  20    -0.671914950958E+03   -0.32352E+01   -0.29819E+01  8424   0.135E+02-0.584E+01
CGA:  21    -0.673025159616E+03   -0.11102E+01   -0.48352E+00  8424   0.540E+01 0.763E+01
CGA:  22    -0.673624840817E+03   -0.59968E+00   -0.62411E+00  8424   0.141E+02 0.404E+00
CGA:  23    -0.674365830077E+03   -0.74099E+00   -0.67870E+00  8424   0.359E+01-0.115E+01
CGA:  24    -0.674587953503E+03   -0.22212E+00   -0.22804E+00  8424   0.646E+01-0.907E-01
CGA:  25    -0.674920475108E+03   -0.33252E+00   -0.34790E+00  8424   0.235E+01-0.741E+00
CGA:  26    -0.675024563073E+03   -0.10409E+00   -0.15305E+00  8424   0.178E+01 0.322E-01
CGA:  27    -0.675169452967E+03   -0.14489E+00   -0.13981E+00  8424   0.104E+01 0.186E-01
CGA:  28    -0.675315253658E+03   -0.14580E+00   -0.14157E+00  8424   0.513E+00 0.151E+00
CGA:  29    -0.675406499584E+03   -0.91246E-01   -0.87034E-01  8424   0.198E+00 0.913E-01
CGA:  30    -0.675432005159E+03   -0.25506E-01   -0.25707E-01  8424   0.168E+00 0.129E-01
CGA:  31    -0.675452215294E+03   -0.20210E-01   -0.20299E-01  8424   0.315E-01 0.697E-02
CGA:  32    -0.675459376880E+03   -0.71616E-02   -0.70818E-02  8424   0.248E-01 0.611E-03
CGA:  33    -0.675461978322E+03   -0.26014E-02   -0.26049E-02  8424   0.156E-01-0.781E-04
CGA:  34    -0.675465239023E+03   -0.32607E-02   -0.62631E-02  8424   0.277E-01-0.101E-01
CGA:  35    -0.675469288084E+03   -0.40491E-02   -0.40359E-02  8424   0.536E-02 0.140E-02
CGA:  36    -0.675470938519E+03   -0.16504E-02   -0.15864E-02  8424   0.609E-02 0.458E-03
CGA:  37    -0.675472031215E+03   -0.10927E-02   -0.22903E-02  8424   0.298E-01-0.586E-02
CGA:  38    -0.675474060486E+03   -0.20293E-02   -0.21585E-02  8424   0.472E-02 0.142E-02
CGA:  39    -0.675471613337E+03    0.24471E-02   -0.17729E-02  8424   0.460E-01-0.888E-02
CGA:  40    -0.675479175219E+03   -0.75619E-02   -0.75515E-02  8424   0.746E-02-0.313E-03
CGA:  41    -0.675481517177E+03   -0.23420E-02   -0.23935E-02  8424   0.535E-02-0.982E-03
CGA:  42    -0.675482504711E+03   -0.98753E-03   -0.98037E-03  8424   0.875E-02-0.893E-04
CGA:  43    -0.675479658626E+03    0.28461E-02   -0.54220E-02  8424   0.266E+00-0.106E-01
CGA:  44    -0.675512505783E+03   -0.32847E-01   -0.30569E-01  8424   0.740E-01 0.198E-01
CGA:  45    -0.675528026097E+03   -0.15520E-01   -0.15504E-01  8424   0.415E-01-0.871E-02
CGA:  46    -0.675540105347E+03   -0.12079E-01   -0.11408E-01  8424   0.291E-01-0.407E-02
CGA:  47    -0.675550546744E+03   -0.10441E-01   -0.47083E-01  8424   0.408E+00-0.306E-01
CGA:  48    -0.675637133432E+03   -0.86587E-01   -0.85699E-01  8424   0.938E-01-0.289E-02
CGA:  49    -0.675668521201E+03   -0.31388E-01   -0.31196E-01  8424   0.549E-01-0.524E-02
CGA:  50    -0.675684885852E+03   -0.16365E-01   -0.15254E-01  8424   0.519E-01-0.282E-02
CGA:  51    -0.675712018322E+03   -0.27132E-01   -0.29847E-01  8424   0.841E-01-0.208E-01
CGA:  52    -0.675735608019E+03   -0.23590E-01   -0.22201E-01  8424   0.600E-01-0.242E-01
CGA:  53    -0.675747505695E+03   -0.11898E-01   -0.10044E-01  8424   0.259E-01-0.693E-02
CGA:  54    -0.675754544716E+03   -0.70390E-02   -0.63877E-02  8424   0.177E-01-0.342E-02
CGA:  55    -0.675760412204E+03   -0.58675E-02   -0.56968E-02  8424   0.146E-01-0.194E-02
CGA:  56    -0.675763828403E+03   -0.34162E-02   -0.35359E-02  8424   0.101E-01 0.576E-03
CGA:  57    -0.675766652658E+03   -0.28243E-02   -0.31142E-02  8424   0.801E-02 0.175E-02
CGA:  58    -0.675769093940E+03   -0.24413E-02   -0.27565E-02  8424   0.496E-02 0.204E-02
CGA:  59    -0.675770216231E+03   -0.11223E-02   -0.14261E-02  8424   0.189E-02 0.148E-02
CGA:  60    -0.675770629379E+03   -0.41315E-03   -0.56747E-03  8424   0.111E-02 0.793E-03
CGA:  61    -0.675770994315E+03   -0.36494E-03   -0.43922E-03  8424   0.921E-03 0.535E-03
CGA:  62    -0.675771454117E+03   -0.45980E-03   -0.48273E-03  8424   0.974E-03 0.407E-03
CGA:  63    -0.675772012059E+03   -0.55794E-03   -0.56026E-03  8424   0.135E-02 0.309E-03
CGA:  64    -0.675772906380E+03   -0.89432E-03   -0.87300E-03  8424   0.238E-02 0.181E-03
CGA:  65    -0.675774063399E+03   -0.11570E-02   -0.11590E-02  8424   0.347E-02-0.327E-03
CGA:  66    -0.675775325969E+03   -0.12626E-02   -0.12827E-02  8424   0.554E-02-0.186E-02
CGA:  67    -0.675778370276E+03   -0.30443E-02   -0.31847E-02  8424   0.575E-02-0.869E-03
CGA:  68    -0.675780235734E+03   -0.18655E-02   -0.18382E-02  8424   0.342E-02-0.654E-03
CGA:  69    -0.675781636957E+03   -0.14012E-02   -0.24447E-02  8424   0.702E-02-0.272E-02
CGA:  70    -0.675783222576E+03   -0.15856E-02   -0.15979E-02  8424   0.170E-02 0.688E-04
CGA:  71    -0.675783967774E+03   -0.74520E-03   -0.76566E-03  8424   0.259E-02-0.104E-02
CGA:  72    -0.675784366813E+03   -0.39904E-03   -0.43917E-03  8424   0.482E-03 0.160E-03
CGA:  73    -0.675779308097E+03    0.50587E-02   -0.27271E-02  8424   0.289E-01-0.281E-02
CGA:  74    -0.675785563372E+03   -0.62553E-02   -0.64506E-02  8424   0.411E-02 0.543E-03
CGA:  75    -0.675786484994E+03   -0.92162E-03   -0.81576E-03  8424   0.404E-03-0.212E-03
CGA:  76    -0.675786633251E+03   -0.14826E-03   -0.16530E-03  8424   0.286E-03 0.640E-04
CGA:  77    -0.675787032579E+03   -0.39933E-03   -0.52886E-03  8424   0.212E-02-0.148E-03
CGA:  78    -0.675787315013E+03   -0.28243E-03   -0.34705E-03  8424   0.370E-03 0.122E-03
CGA:  79    -0.675787599115E+03   -0.28410E-03   -0.29688E-03  8424   0.870E-03-0.247E-03
CGA:  80    -0.675787861063E+03   -0.26195E-03   -0.26085E-03  8424   0.182E-03-0.328E-05
CGA:  81    -0.675783552783E+03    0.43083E-02   -0.23322E-02  8424   0.389E-01-0.137E-02
CGA:  82    -0.675788840993E+03   -0.52882E-02   -0.54219E-02  8424   0.191E-02 0.213E-02
CGA:  83    -0.675789433521E+03   -0.59253E-03   -0.59113E-03  8424   0.364E-03-0.360E-05
CGA:  84    -0.675789598515E+03   -0.16499E-03   -0.11694E-03  8424   0.299E-03-0.585E-04
CGA:  85    -0.675789692811E+03   -0.94296E-04   -0.96806E-04  8424   0.257E-03 0.318E-05
CGA:  86    -0.675789993018E+03   -0.30021E-03   -0.32265E-03  8424   0.162E-02-0.145E-03
CGA:  87    -0.675790418728E+03   -0.42571E-03   -0.34343E-03  8424   0.314E-03-0.103E-03
CGA:  88    -0.675790504035E+03   -0.85307E-04   -0.88300E-04  8424   0.162E-03 0.366E-05
CGA:  89    -0.675783848343E+03    0.66557E-02   -0.36251E-02  8424   0.377E-01-0.141E-02
CGA:  90    -0.675790702019E+03   -0.68537E-02   -0.68860E-02  8424   0.409E-02 0.146E-02
CGA:  91    -0.675792200214E+03   -0.14982E-02   -0.14157E-02  8424   0.199E-02-0.850E-04
CGA:  92    -0.675792707031E+03   -0.50682E-03   -0.54255E-03  8424   0.380E-03 0.766E-04
CGA:  93    -0.675792860516E+03   -0.15348E-03   -0.14867E-03  8424   0.255E-03-0.274E-05
CGA:  94    -0.675793007754E+03   -0.14724E-03   -0.12796E-03  8424   0.115E-03-0.168E-04
CGA:  95    -0.675793082157E+03   -0.74403E-04   -0.55875E-04  8424   0.188E-03-0.192E-04
CGA:  96    -0.675793349301E+03   -0.26714E-03   -0.16687E-03  8424   0.129E-02-0.276E-03
CGA:  97    -0.675793580191E+03   -0.23089E-03   -0.26812E-03  8424   0.355E-03 0.357E-04
CGA:  98    -0.675793814806E+03   -0.23461E-03   -0.14052E-03  8424   0.189E-03-0.967E-04
CGA:  99    -0.675794003437E+03   -0.18863E-03   -0.16441E-03  8424   0.104E-02-0.203E-03
CGA: 100    -0.675794256420E+03   -0.25298E-03   -0.18585E-03  8424   0.188E-03-0.665E-04
CGA: 101    -0.675794321241E+03   -0.64820E-04   -0.64753E-04  8424   0.852E-04 0.130E-06
CGA: 102    -0.675794424695E+03   -0.10345E-03   -0.10297E-03  8424   0.983E-03-0.172E-03
CGA: 103    -0.675794558308E+03   -0.13361E-03   -0.16404E-03  8424   0.112E-03 0.338E-04
CGA: 104    -0.675794690029E+03   -0.13172E-03   -0.80171E-04  8424   0.375E-03-0.112E-03
CGA: 105    -0.675794743078E+03   -0.53050E-04   -0.62370E-04  8424   0.459E-04 0.110E-04
CGA: 106    -0.675794873804E+03   -0.13073E-03    0.93763E-04  8424   0.576E-03-0.928E-04
CGA: 107    -0.675794943667E+03   -0.69862E-04   -0.93824E-04  8424   0.566E-04 0.286E-04
CGA: 108    -0.675794971450E+03   -0.27783E-04   -0.76557E-04  8424   0.128E-02-0.197E-03
CGA: 109    -0.675795155067E+03   -0.18362E-03   -0.21445E-03  8424   0.108E-03 0.434E-04
CGA: 110    -0.675795252486E+03   -0.97419E-04   -0.47375E-04  8424   0.178E-03-0.860E-04
CGA: 111    -0.675795276742E+03   -0.24256E-04   -0.30665E-04  8424   0.273E-04 0.835E-05
CGA: 112    -0.675795419184E+03   -0.14244E-03    0.81036E-05  8424   0.211E-03-0.265E-04
CGA: 113    -0.675795457780E+03   -0.38595E-04   -0.40347E-04  8424   0.304E-04 0.279E-05
CGA: 114    -0.675795602206E+03   -0.14443E-03    0.86765E-05  8424   0.296E-03-0.411E-04
CGA: 115    -0.675795632161E+03   -0.29955E-04   -0.44566E-04  8424   0.296E-04 0.203E-04
CGA: 116    -0.675795744477E+03   -0.11232E-03    0.12901E-04  8424   0.187E-03-0.364E-04
CGA: 117    -0.675795803593E+03   -0.59115E-04   -0.47637E-04  8424   0.299E-04-0.187E-04
CGA: 118    -0.675795958395E+03   -0.15480E-03    0.45713E-05  8424   0.150E-03-0.112E-04
CGA: 119    -0.675796701568E+03   -0.74317E-03    0.10349E-04  8424   0.486E-03 0.208E-05
CGA: 120    -0.675799148042E+03   -0.24465E-02    0.10359E-03  8424   0.340E-02-0.364E-03
CGA: 121    -0.675799760288E+03   -0.61225E-03   -0.49071E-03  8424   0.103E-03-0.206E-03
CGA: 122    -0.675799800889E+03   -0.40600E-04   -0.34938E-04  8424   0.410E-04-0.131E-04
CGA: 123    -0.675799945460E+03   -0.14457E-03    0.86912E-05  8424   0.335E-03-0.675E-04
CGA: 124    -0.675799970418E+03   -0.24959E-04   -0.43197E-04  8424   0.234E-04 0.290E-04
CGA: 125    -0.675800061053E+03   -0.90635E-04    0.67616E-05  8424   0.706E-04-0.173E-04
CGA: 126    -0.675799983135E+03    0.77918E-04   -0.84760E-04  8424   0.272E-02-0.357E-03
CGA: 127    -0.675800246350E+03   -0.26321E-03   -0.34157E-03  8424   0.744E-04 0.141E-03
CGA: 128    -0.675800302575E+03   -0.56225E-04   -0.45170E-04  8424   0.133E-03-0.703E-04
CGA: 129    -0.675800406511E+03   -0.10394E-03   -0.56549E-04  8424   0.327E-03-0.157E-03
CGA: 130    -0.675800425095E+03   -0.18585E-04   -0.39997E-04  8424   0.159E-04 0.370E-04
CGA: 131    -0.675800481387E+03   -0.56291E-04    0.45317E-05  8424   0.110E-03-0.224E-04
CGA: 132    -0.675800575018E+03   -0.93631E-04   -0.53914E-04  8424   0.511E-03-0.206E-03
CGA: 133    -0.675800608072E+03   -0.33055E-04   -0.64246E-04  8424   0.211E-04 0.579E-04
CGA: 134    -0.675800648912E+03   -0.40840E-04    0.21764E-04  8424   0.150E-03-0.402E-04
CGA: 135    -0.675800751637E+03   -0.10272E-03   -0.56841E-04  8424   0.259E-03-0.172E-03
CGA: 136    -0.675800769757E+03   -0.18120E-04   -0.34977E-04  8424   0.142E-04 0.340E-04
CGA: 137    -0.675800830560E+03   -0.60803E-04    0.23259E-05  8424   0.744E-04-0.163E-04
CGA: 138    -0.675799026799E+03    0.18038E-02   -0.20104E-03  8424   0.145E-01-0.958E-03
CGA: 139    -0.675801191306E+03   -0.21645E-02   -0.23400E-02  8424   0.252E-03 0.366E-03
CGA: 140    -0.675801279293E+03   -0.87986E-04   -0.60668E-04  8424   0.284E-04-0.610E-04
CGA: 141    -0.675801378653E+03   -0.99361E-04    0.28686E-05  8424   0.469E-04-0.807E-05
CGA: 142    -0.675801638271E+03   -0.25962E-03    0.22921E-05  8424   0.669E-04 0.418E-05
CGA: 143    -0.675802067823E+03   -0.42955E-03    0.69897E-05  8424   0.143E-03-0.178E-04
CGA: 144    -0.675803199219E+03   -0.11314E-02    0.48327E-05  8424   0.144E-03 0.590E-04
CGA: 145    -0.675804285414E+03   -0.10862E-02    0.22230E-04  8424   0.639E-03-0.168E-03
CGA: 146    -0.675804463026E+03   -0.17761E-03   -0.13284E-03  8424   0.434E-04-0.988E-04
CGA: 147    -0.675804488472E+03   -0.25447E-04   -0.19136E-04  8424   0.150E-03-0.538E-04
CGA: 148    -0.675804557465E+03   -0.68993E-04   -0.34993E-04  8424   0.651E-04-0.849E-04
CGA: 149    -0.675804572872E+03   -0.15407E-04   -0.11151E-04  8424   0.943E-05-0.967E-05
CGA: 150    -0.675804659749E+03   -0.86877E-04    0.29143E-06  8424   0.118E-04 0.365E-05
CGA: 151    -0.675804829132E+03   -0.16938E-03    0.62593E-06  8424   0.234E-04 0.678E-05
CGA: 152    -0.675804883985E+03   -0.54853E-04    0.70154E-05  8424   0.293E-03-0.665E-04
CGA: 153    -0.675804918731E+03   -0.34745E-04   -0.34832E-04  8424   0.546E-05 0.573E-06
CGA: 154    -0.675804993085E+03   -0.74354E-04    0.14166E-06  8424   0.837E-05 0.416E-05
CGA: 155    -0.675805036639E+03   -0.43554E-04    0.66287E-06  8424   0.426E-04-0.613E-05
CGA: 156    -0.675805121564E+03   -0.84925E-04    0.16063E-04  8424   0.458E-03-0.125E-03
CGA: 157    -0.675805143293E+03   -0.21729E-04   -0.50073E-04  8424   0.137E-04 0.619E-04
CGA: 158    -0.675805021410E+03    0.12188E-03   -0.25543E-04  8424   0.156E-02-0.134E-03
CGA: 159    -0.675805368460E+03   -0.34705E-03   -0.24391E-03  8424   0.647E-04-0.234E-03
CGA: 160    -0.675805375826E+03   -0.73659E-05   -0.85121E-05  8424   0.571E-05 0.269E-05
   1 F= -.67580538E+03 E0= -.67580538E+03  d E =-.675805E+03  mag=     1.0000
       N       E                     dE             d eps       ncg     rms          ort
SDA:   1    -0.675805557933E+03   -0.18947E-03    0.00000E+00  8424   0.209E-03 0.000E+00
CGA:   2    -0.675805594341E+03   -0.36408E-04   -0.35935E-04  8424   0.603E-04-0.124E-05
CGA:   3    -0.675805685417E+03   -0.91076E-04    0.38893E-04  8424   0.166E-03-0.539E-04
CGA:   4    -0.675805712859E+03   -0.27442E-04   -0.20745E-04  8424   0.286E-04-0.163E-04
CGA:   5    -0.675805781070E+03   -0.68211E-04    0.42640E-05  8424   0.131E-03-0.379E-04
CGA:   6    -0.675805803906E+03   -0.22836E-04   -0.16812E-04  8424   0.201E-04-0.156E-04
CGA:   7    -0.675805856700E+03   -0.52794E-04    0.21994E-05  8424   0.493E-04-0.168E-04
CGA:   8    -0.675805800462E+03    0.56239E-04   -0.44874E-04  8424   0.146E-02-0.245E-03
CGA:   9    -0.675805984915E+03   -0.18445E-03   -0.18575E-03  8424   0.392E-04 0.299E-05
CGA:  10    -0.675806024344E+03   -0.39429E-04    0.14500E-02  8424   0.629E-04-0.390E-04
CGA:  11    -0.675803801613E+03    0.22227E-02   -0.12218E-02  8424   0.140E-01-0.893E-03
CGA:  12    -0.675806252088E+03   -0.24505E-02   -0.25434E-02  8424   0.731E-03 0.124E-03
CGA:  13    -0.675806460060E+03   -0.20797E-03   -0.17173E-03  8424   0.445E-04-0.569E-04
CGA:  14    -0.675806481594E+03   -0.21534E-04   -0.13192E-04  8424   0.244E-04-0.161E-04
CGA:  15    -0.675806610976E+03   -0.12938E-03    0.15430E-05  8424   0.106E-03-0.217E-04
CGA:  16    -0.675806642023E+03   -0.31047E-04   -0.20066E-04  8424   0.225E-04-0.176E-04
CGA:  17    -0.675806729523E+03   -0.87499E-04    0.37359E-05  8424   0.131E-03-0.316E-04
CGA:  18    -0.675806779149E+03   -0.49626E-04   -0.24993E-04  8424   0.405E-04-0.417E-04
CGA:  19    -0.675806344591E+03    0.43456E-03   -0.74769E-04  8424   0.437E-02-0.262E-03
CGA:  20    -0.675807067570E+03   -0.72298E-03   -0.60262E-03  8424   0.356E-03-0.201E-03
CGA:  21    -0.675807175498E+03   -0.10793E-03   -0.92665E-04  8424   0.396E-04-0.282E-04
CGA:  22    -0.675807267004E+03   -0.91506E-04    0.24274E-04  8424   0.382E-03-0.869E-04
CGA:  23    -0.675807291802E+03   -0.24798E-04   -0.45379E-04  8424   0.221E-04 0.314E-04
CGA:  24    -0.675807345568E+03   -0.53766E-04    0.18512E-04  8424   0.108E-03-0.386E-04
CGA:  25    -0.675807417917E+03   -0.72349E-04   -0.39387E-04  8424   0.113E-03-0.847E-04
CGA:  26    -0.675807424586E+03   -0.66699E-05   -0.14765E-04  8424   0.922E-05 0.135E-04
   2 F= -.67580742E+03 E0= -.67580742E+03  d E =-.204876E-02  mag=     1.0000
       N       E                     dE             d eps       ncg     rms          ort
SDA:   1    -0.675805881577E+03    0.15363E-02    0.00000E+00  8424   0.575E-02 0.000E+00
CGA:   2    -0.675807060345E+03   -0.11788E-02   -0.11832E-02  8424   0.234E-02 0.829E-05
CGA:   3    -0.675807591416E+03   -0.53107E-03   -0.50087E-03  8424   0.855E-03-0.653E-04
CGA:   4    -0.675807748616E+03   -0.15720E-03   -0.13891E-03  8424   0.220E-03-0.375E-04
CGA:   5    -0.675807803271E+03   -0.54656E-04   -0.40147E-04  8424   0.590E-04-0.330E-04
CGA:   6    -0.675807683636E+03    0.11963E-03   -0.64193E-04  8424   0.196E-02-0.275E-03
CGA:   7    -0.675807940468E+03   -0.25683E-03   -0.25673E-03  8424   0.202E-03-0.424E-06
CGA:   8    -0.675808016604E+03   -0.76136E-04   -0.56649E-04  8424   0.807E-04-0.579E-04
CGA:   9    -0.675807921620E+03    0.94984E-04   -0.70897E-04  8424   0.152E-02-0.264E-03
CGA:  10    -0.675808171388E+03   -0.24977E-03   -0.24237E-03  8424   0.127E-03-0.157E-04
CGA:  11    -0.675808238785E+03   -0.67396E-04   -0.55445E-04  8424   0.112E-03-0.715E-04
CGA:  12    -0.675808276247E+03   -0.37462E-04   -0.25938E-04  8424   0.236E-04-0.312E-04
CGA:  13    -0.675808340795E+03   -0.64548E-04    0.22075E-05  8424   0.456E-04-0.155E-04
CGA:  14    -0.675808368956E+03   -0.28161E-04   -0.16639E-04  8424   0.918E-04-0.530E-04
CGA:  15    -0.675808393344E+03   -0.24388E-04   -0.15460E-04  8424   0.154E-04-0.221E-04
CGA:  16    -0.675808454884E+03   -0.61539E-04    0.85470E-06  8424   0.654E-04-0.165E-04
CGA:  17    -0.675808465584E+03   -0.10700E-04   -0.87525E-05  8424   0.633E-05-0.463E-05
CGA:  18    -0.675808523407E+03   -0.57823E-04    0.18842E-06  8424   0.140E-04-0.201E-05
CGA:  19    -0.675808680351E+03   -0.15694E-03    0.17489E-06  8424   0.218E-04 0.436E-05
CGA:  20    -0.675808995886E+03   -0.31554E-03    0.80885E-06  8424   0.905E-05 0.126E-04
CGA:  21    -0.675809036765E+03   -0.40879E-04    0.73646E-06  8424   0.577E-04-0.138E-04
CGA:  22    -0.675809052393E+03   -0.15628E-04   -0.88294E-05  8424   0.125E-04-0.180E-04
CGA:  23    -0.675809111402E+03   -0.59009E-04    0.38594E-06  8424   0.255E-04-0.554E-05
CGA:  24    -0.675809253442E+03   -0.14204E-03    0.41367E-06  8424   0.205E-04 0.216E-05
CGA:  25    -0.675809436354E+03   -0.18291E-03    0.80755E-06  8424   0.509E-04-0.834E-05
CGA:  26    -0.675809856235E+03   -0.41988E-03    0.61178E-06  8424   0.103E-03-0.198E-04
CGA:  27    -0.675810825582E+03   -0.96935E-03    0.11473E-05  8424   0.159E-03 0.320E-04
CGA:  28    -0.675812422214E+03   -0.15966E-02    0.81700E-05  8424   0.817E-03-0.241E-03
CGA:  29    -0.675812465002E+03   -0.42787E-04   -0.82966E-04  8424   0.478E-04 0.986E-04
CGA:  30    -0.675812472687E+03   -0.76855E-05   -0.95504E-05  8424   0.143E-04 0.594E-05
   3 F= -.67581247E+03 E0= -.67581247E+03  d E =-.504810E-02  mag=     1.0000
       N       E                     dE             d eps       ncg     rms          ort
SDA:   1    -0.675538188595E+03    0.27428E+00    0.00000E+00  8424   0.743E+00 0.000E+00
CGA:   2    -0.675715424057E+03   -0.17724E+00   -0.17729E+00  8424   0.366E+00-0.466E-03
CGA:   3    -0.675787900164E+03   -0.72476E-01   -0.72440E-01  8424   0.960E-01 0.727E-04
CGA:   4    -0.675803594089E+03   -0.15694E-01   -0.15658E-01  8424   0.219E-01-0.103E-03
CGA:   5    -0.675807355278E+03   -0.37612E-02   -0.37580E-02  8424   0.448E-02-0.151E-04
CGA:   6    -0.675808277980E+03   -0.92270E-03   -0.92591E-03  8424   0.105E-02 0.141E-04
CGA:   7    -0.675808544231E+03   -0.26625E-03   -0.25436E-03  8424   0.357E-03-0.699E-04
CGA:   8    -0.675808647749E+03   -0.10352E-03   -0.96678E-04  8424   0.155E-03-0.606E-04
CGA:   9    -0.675808696619E+03   -0.48869E-04   -0.69960E-04  8424   0.308E-03-0.144E-03
CGA:  10    -0.675808750173E+03   -0.53555E-04   -0.53172E-04  8424   0.458E-04-0.172E-05
CGA:  11    -0.675808790135E+03   -0.39962E-04    0.78676E-04  8424   0.407E-04-0.207E-04
CGA:  12    -0.675808819276E+03   -0.29140E-04    0.66598E-05  8424   0.566E-04-0.232E-04
CGA:  13    -0.675808353357E+03    0.46592E-03   -0.89610E-04  8424   0.543E-02-0.467E-03
CGA:  14    -0.675808883575E+03   -0.53022E-03   -0.59392E-03  8424   0.173E-03 0.206E-03
CGA:  15    -0.675808941613E+03   -0.58038E-04   -0.54926E-04  8424   0.412E-04-0.242E-04
CGA:  16    -0.675808975129E+03   -0.33515E-04    0.74116E-04  8424   0.120E-03-0.494E-04
CGA:  17    -0.675808984135E+03   -0.90059E-05   -0.12882E-04  8424   0.771E-05 0.121E-04
   4 F= -.67580898E+03 E0= -.67580898E+03  d E =0.348855E-02  mag=     1.0000
       N       E                     dE             d eps       ncg     rms          ort
SDA:   1    -0.675581641043E+03    0.22733E+00    0.00000E+00  8424   0.711E+00 0.000E+00
CGA:   2    -0.675734117624E+03   -0.15248E+00   -0.15268E+00  8424   0.310E+00 0.382E-03
CGA:   3    -0.675798218506E+03   -0.64101E-01   -0.63984E-01  8424   0.957E-01-0.469E-03
CGA:   4    -0.675814066498E+03   -0.15848E-01   -0.15824E-01  8424   0.229E-01-0.136E-03
CGA:   5    -0.675817942817E+03   -0.38763E-02   -0.38827E-02  8424   0.447E-02 0.212E-04
CGA:   6    -0.675818885770E+03   -0.94295E-03   -0.93374E-03  8424   0.104E-02-0.574E-04
CGA:   7    -0.675819125949E+03   -0.24018E-03   -0.23821E-03  8424   0.318E-03-0.151E-04
CGA:   8    -0.675819216055E+03   -0.90106E-04   -0.86907E-04  8424   0.118E-03-0.405E-04
CGA:   9    -0.675819248990E+03   -0.32935E-04   -0.32060E-04  8424   0.524E-04-0.208E-04
CGA:  10    -0.675819263662E+03   -0.14672E-04   -0.14599E-04  8424   0.241E-04-0.588E-05
CGA:  11    -0.675819271595E+03   -0.79333E-05   -0.80515E-05  8424   0.146E-04-0.470E-05
   5 F= -.67581927E+03 E0= -.67581927E+03  d E =-.102875E-01  mag=     1.0000
       N       E                     dE             d eps       ncg     rms          ort
SDA:   1    -0.675800706175E+03    0.18557E-01    0.00000E+00  8424   0.682E-01 0.000E+00
CGA:   2    -0.675816834386E+03   -0.16128E-01   -0.16134E-01  8424   0.294E-01 0.492E-04
CGA:   3    -0.675822712684E+03   -0.58783E-02   -0.58493E-02  8424   0.869E-02-0.203E-03
CGA:   4    -0.675824178310E+03   -0.14656E-02   -0.14579E-02  8424   0.213E-02-0.475E-04
CGA:   5    -0.675824539653E+03   -0.36134E-03   -0.36274E-03  8424   0.420E-03 0.843E-05
CGA:   6    -0.675824629288E+03   -0.89635E-04   -0.88573E-04  8424   0.102E-03-0.959E-05
CGA:   7    -0.675824656522E+03   -0.27235E-04   -0.26682E-04  8424   0.424E-04-0.111E-04
CGA:   8    -0.675824668891E+03   -0.12368E-04   -0.17945E-04  8424   0.716E-04-0.348E-04
CGA:   9    -0.675824678248E+03   -0.93579E-05   -0.10596E-04  8424   0.963E-05 0.710E-05
   6 F= -.67582468E+03 E0= -.67582468E+03  d E =-.540665E-02  mag=     1.0000
       N       E                     dE             d eps       ncg     rms          ort
SDA:   1    -0.675800421532E+03    0.24247E-01    0.00000E+00  8424   0.874E-01 0.000E+00
CGA:   2    -0.675821408989E+03   -0.20987E-01   -0.20997E-01  8424   0.409E-01 0.119E-03
CGA:   3    -0.675829502401E+03   -0.80934E-02   -0.80797E-02  8424   0.113E-01-0.128E-03
CGA:   4    -0.675831367519E+03   -0.18651E-02   -0.18613E-02  8424   0.267E-02-0.297E-04
CGA:   5    -0.675831823187E+03   -0.45567E-03   -0.45456E-03  8424   0.546E-03-0.925E-05
CGA:   6    -0.675831943291E+03   -0.12010E-03   -0.11831E-03  8424   0.140E-03-0.244E-04
CGA:   7    -0.675831975014E+03   -0.31722E-04   -0.31558E-04  8424   0.452E-04-0.322E-05
CGA:   8    -0.675831988311E+03   -0.13298E-04   -0.13431E-04  8424   0.226E-04-0.687E-05
CGA:   9    -0.675831993463E+03   -0.51518E-05   -0.51863E-05  8424   0.975E-05 0.213E-05
   7 F= -.67583199E+03 E0= -.67583199E+03  d E =-.731521E-02  mag=     1.0000
       N       E                     dE             d eps       ncg     rms          ort
SDA:   1    -0.675831059583E+03    0.92873E-03    0.00000E+00  8424   0.110E-01 0.000E+00
CGA:   2    -0.675834107843E+03   -0.30483E-02   -0.30480E-02  8424   0.516E-02-0.484E-04
CGA:   3    -0.675835013684E+03   -0.90584E-03   -0.92045E-03  8424   0.118E-02 0.140E-03
CGA:   4    -0.675835221250E+03   -0.20757E-03   -0.20912E-03  8424   0.307E-03 0.144E-04
CGA:   5    -0.675835280516E+03   -0.59266E-04   -0.57232E-04  8424   0.765E-04-0.231E-04
CGA:   6    -0.675835296390E+03   -0.15874E-04   -0.15556E-04  8424   0.232E-04-0.660E-05
CGA:   7    -0.675835301784E+03   -0.53946E-05   -0.53866E-05  8424   0.101E-04-0.693E-06
   8 F= -.67583530E+03 E0= -.67583530E+03  d E =-.330832E-02  mag=     1.0000
       N       E                     dE             d eps       ncg     rms          ort
SDA:   1    -0.675809969912E+03    0.25326E-01    0.00000E+00  8424   0.834E-01 0.000E+00
CGA:   2    -0.675834184967E+03   -0.24215E-01   -0.24223E-01  8424   0.364E-01-0.268E-03
CGA:   3    -0.675840737874E+03   -0.65529E-02   -0.65971E-02  8424   0.868E-02 0.545E-03
CGA:   4    -0.675842264481E+03   -0.15266E-02   -0.15310E-02  8424   0.224E-02 0.505E-04
CGA:   5    -0.675842657779E+03   -0.39330E-03   -0.38884E-03  8424   0.478E-03-0.553E-04
CGA:   6    -0.675842753632E+03   -0.95854E-04   -0.95640E-04  8424   0.120E-03-0.493E-05
CGA:   7    -0.675842783249E+03   -0.29617E-04   -0.29631E-04  8424   0.463E-04-0.633E-05
CGA:   8    -0.675842789682E+03   -0.64329E-05   -0.75890E-05  8424   0.144E-04 0.154E-04
   9 F= -.67584279E+03 E0= -.67584279E+03  d E =-.748790E-02  mag=     1.0000
       N       E                     dE             d eps       ncg     rms          ort
SDA:   1    -0.675829528880E+03    0.13254E-01    0.00000E+00  8424   0.476E-01 0.000E+00
CGA:   2    -0.675841274513E+03   -0.11746E-01   -0.11746E-01  8424   0.220E-01-0.113E-03
CGA:   3    -0.675845751790E+03   -0.44773E-02   -0.44789E-02  8424   0.560E-02 0.397E-04
CGA:   4    -0.675846626444E+03   -0.87465E-03   -0.88698E-03  8424   0.128E-02 0.149E-03
CGA:   5    -0.675846844335E+03   -0.21789E-03   -0.22326E-03  8424   0.246E-03 0.801E-04
CGA:   6    -0.675846900290E+03   -0.55955E-04   -0.56063E-04  8424   0.721E-04 0.591E-05
CGA:   7    -0.675846915065E+03   -0.14775E-04   -0.15051E-04  8424   0.206E-04 0.982E-05
CGA:   8    -0.675846919655E+03   -0.45903E-05   -0.47903E-05  8424   0.843E-05 0.788E-05
  10 F= -.67584692E+03 E0= -.67584692E+03  d E =-.412997E-02  mag=     1.0000
       N       E                     dE             d eps       ncg     rms          ort
SDA:   1    -0.675834711095E+03    0.12204E-01    0.00000E+00  8424   0.392E-01 0.000E+00
CGA:   2    -0.675844453743E+03   -0.97426E-02   -0.97454E-02  8424   0.181E-01-0.137E-03
CGA:   3    -0.675848177752E+03   -0.37240E-02   -0.37201E-02  8424   0.475E-02-0.173E-03
CGA:   4    -0.675848897682E+03   -0.71993E-03   -0.73030E-03  8424   0.105E-02 0.142E-03
CGA:   5    -0.675849059984E+03   -0.16230E-03   -0.17045E-03  8424   0.190E-03 0.122E-03
CGA:   6    -0.675849098357E+03   -0.38373E-04   -0.39668E-04  8424   0.531E-04 0.384E-04
CGA:   7    -0.675849108685E+03   -0.10328E-04   -0.11145E-04  8424   0.174E-04 0.184E-04
CGA:   8    -0.675849111387E+03   -0.27018E-05   -0.34946E-05  8424   0.865E-05 0.117E-04
  11 F= -.67584911E+03 E0= -.67584911E+03  d E =-.219173E-02  mag=     1.0000
       N       E                     dE             d eps       ncg     rms          ort
SDA:   1    -0.675840407756E+03    0.87009E-02    0.00000E+00  8424   0.208E-01 0.000E+00
CGA:   2    -0.675846459777E+03   -0.60520E-02   -0.60428E-02  8424   0.933E-02 0.111E-03
CGA:   3    -0.675848228218E+03   -0.17684E-02   -0.17630E-02  8424   0.224E-02-0.216E-03
CGA:   4    -0.675848577305E+03   -0.34909E-03   -0.35316E-03  8424   0.508E-03 0.802E-04
CGA:   5    -0.675848657641E+03   -0.80336E-04   -0.83134E-04  8424   0.969E-04 0.540E-04
CGA:   6    -0.675848680906E+03   -0.23265E-04   -0.23213E-04  8424   0.291E-04 0.533E-05
CGA:   7    -0.675848682785E+03   -0.18791E-05   -0.34440E-05  8424   0.120E-04 0.164E-04
  12 F= -.67584868E+03 E0= -.67584868E+03  d E =0.428602E-03  mag=     1.0000
       N       E                     dE             d eps       ncg     rms          ort
SDA:   1    -0.675846223162E+03    0.24577E-02    0.00000E+00  8424   0.574E-02 0.000E+00
CGA:   2    -0.675847671135E+03   -0.14480E-02   -0.14382E-02  8424   0.261E-02 0.183E-03
CGA:   3    -0.675848203040E+03   -0.53190E-03   -0.53199E-03  8424   0.634E-03 0.325E-04
CGA:   4    -0.675848308679E+03   -0.10564E-03   -0.10596E-03  8424   0.162E-03 0.914E-05
CGA:   5    -0.675848342044E+03   -0.33365E-04   -0.33503E-04  8424   0.476E-04-0.228E-04
CGA:   6    -0.675848351784E+03   -0.97391E-05   -0.10634E-04  8424   0.241E-04-0.145E-04
  13 F= -.67584835E+03 E0= -.67584835E+03  d E =0.331001E-03  mag=     1.0000
       N       E                     dE             d eps       ncg     rms          ort
SDA:   1    -0.675844464488E+03    0.38776E-02    0.00000E+00  8424   0.106E-01 0.000E+00
CGA:   2    -0.675847036707E+03   -0.25722E-02   -0.25655E-02  8424   0.502E-02 0.140E-03
CGA:   3    -0.675848038892E+03   -0.10022E-02   -0.10022E-02  8424   0.114E-02 0.148E-03
CGA:   4    -0.675848247677E+03   -0.20879E-03   -0.20864E-03  8424   0.289E-03-0.755E-05
CGA:   5    -0.675848307553E+03   -0.59876E-04   -0.60681E-04  8424   0.922E-04-0.527E-04
CGA:   6    -0.675848324161E+03   -0.16608E-04   -0.17229E-04  8424   0.333E-04-0.196E-04
CGA:   7    -0.675848325123E+03   -0.96120E-06   -0.24818E-05  8424   0.140E-04 0.147E-04
  14 F= -.67584833E+03 E0= -.67584833E+03  d E =0.266610E-04  mag=     1.0000
       N       E                     dE             d eps       ncg     rms          ort
SDA:   1    -0.675842008488E+03    0.63157E-02    0.00000E+00  8424   0.198E-01 0.000E+00
CGA:   2    -0.675846747702E+03   -0.47392E-02   -0.47332E-02  8424   0.967E-02 0.113E-03
CGA:   3    -0.675848739301E+03   -0.19916E-02   -0.19904E-02  8424   0.247E-02 0.716E-04
CGA:   4    -0.675849133028E+03   -0.39373E-03   -0.39504E-03  8424   0.547E-03 0.427E-04
CGA:   5    -0.675849229190E+03   -0.96162E-04   -0.96239E-04  8424   0.116E-03 0.493E-05
CGA:   6    -0.675849255994E+03   -0.26804E-04   -0.27237E-04  8424   0.370E-04-0.960E-05
CGA:   7    -0.675849259173E+03   -0.31789E-05   -0.41784E-05  8424   0.122E-04 0.150E-04
  15 F= -.67584926E+03 E0= -.67584926E+03  d E =-.934050E-03  mag=     1.0000
       N       E                     dE             d eps       ncg     rms          ort
SDA:   1    -0.675827278604E+03    0.21977E-01    0.00000E+00  8424   0.609E-01 0.000E+00
CGA:   2    -0.675843986372E+03   -0.16708E-01   -0.16717E-01  8424   0.303E-01-0.101E-03
CGA:   3    -0.675849693484E+03   -0.57071E-02   -0.57071E-02  8424   0.687E-02-0.132E-04
CGA:   4    -0.675850790104E+03   -0.10966E-02   -0.11003E-02  8424   0.158E-02 0.145E-03
CGA:   5    -0.675851053613E+03   -0.26351E-03   -0.26528E-03  8424   0.309E-03 0.919E-04
CGA:   6    -0.675851121985E+03   -0.68372E-04   -0.67837E-04  8424   0.780E-04 0.221E-04
CGA:   7    -0.675851137449E+03   -0.15463E-04   -0.15453E-04  8424   0.232E-04 0.191E-04
CGA:   8    -0.675851140955E+03   -0.35063E-05   -0.41409E-05  8424   0.113E-04 0.155E-04
  16 F= -.67585114E+03 E0= -.67585114E+03  d E =-.188178E-02  mag=     1.0000
       N       E                     dE             d eps       ncg     rms          ort
SDA:   1    -0.675846546525E+03    0.45909E-02    0.00000E+00  8424   0.132E-01 0.000E+00
CGA:   2    -0.675849651507E+03   -0.31050E-02   -0.31138E-02  8424   0.633E-02-0.156E-03
CGA:   3    -0.675850895312E+03   -0.12438E-02   -0.12451E-02  8424   0.171E-02-0.761E-04
CGA:   4    -0.675851162583E+03   -0.26727E-03   -0.26840E-03  8424   0.382E-03 0.476E-04
CGA:   5    -0.675851215347E+03   -0.52764E-04   -0.55734E-04  8424   0.711E-04 0.756E-04
CGA:   6    -0.675851222465E+03   -0.71178E-05   -0.97596E-05  8424   0.259E-04 0.407E-04
  17 F= -.67585122E+03 E0= -.67585122E+03  d E =-.815100E-04  mag=     1.0000
       N       E                     dE             d eps       ncg     rms          ort
SDA:   1    -0.675847226256E+03    0.39891E-02    0.00000E+00  8424   0.799E-02 0.000E+00
CGA:   2    -0.675849575469E+03   -0.23492E-02   -0.23376E-02  8424   0.355E-02 0.970E-04
CGA:   3    -0.675850256362E+03   -0.68089E-03   -0.68135E-03  8424   0.797E-03-0.454E-04
CGA:   4    -0.675850389837E+03   -0.13348E-03   -0.13332E-03  8424   0.213E-03-0.156E-04
CGA:   5    -0.675850421906E+03   -0.32068E-04   -0.32488E-04  8424   0.379E-04 0.176E-04
CGA:   6    -0.675850425861E+03   -0.39553E-05   -0.50173E-05  8424   0.128E-04 0.191E-04
  18 F= -.67585043E+03 E0= -.67585043E+03  d E =0.796604E-03  mag=     1.0000
       N       E                     dE             d eps       ncg     rms          ort
SDA:   1    -0.675845253286E+03    0.51686E-02    0.00000E+00  8424   0.121E-01 0.000E+00
CGA:   2    -0.675848836472E+03   -0.35832E-02   -0.35609E-02  8424   0.541E-02 0.179E-03
CGA:   3    -0.675849791886E+03   -0.95541E-03   -0.95554E-03  8424   0.114E-02 0.379E-04
CGA:   4    -0.675849996254E+03   -0.20437E-03   -0.20439E-03  8424   0.318E-03-0.219E-04
CGA:   5    -0.675850051374E+03   -0.55120E-04   -0.55117E-04  8424   0.688E-04-0.140E-04
CGA:   6    -0.675850062543E+03   -0.11169E-04   -0.11228E-04  8424   0.141E-04 0.925E-05
CGA:   7    -0.675850063246E+03   -0.70278E-06   -0.15326E-05  8424   0.737E-05 0.103E-04
  19 F= -.67585006E+03 E0= -.67585006E+03  d E =0.362615E-03  mag=     1.0000
       N       E                     dE             d eps       ncg     rms          ort
SDA:   1    -0.675849894659E+03    0.16788E-03    0.00000E+00  8424   0.691E-03 0.000E+00
CGA:   2    -0.675850066009E+03   -0.17135E-03   -0.17286E-03  8424   0.362E-03-0.184E-04
CGA:   3    -0.675850124003E+03   -0.57995E-04   -0.58290E-04  8424   0.743E-04 0.473E-04
CGA:   4    -0.675850135233E+03   -0.11230E-04   -0.11773E-04  8424   0.168E-04 0.173E-04
CGA:   5    -0.675850138294E+03   -0.30615E-05   -0.31709E-05  8424   0.521E-05 0.650E-05
  20 F= -.67585014E+03 E0= -.67585014E+03  d E =-.750488E-04  mag=     1.0000
       N       E                     dE             d eps       ncg     rms          ort
SDA:   1    -0.675849792126E+03    0.34311E-03    0.00000E+00  8424   0.256E-02 0.000E+00
CGA:   2    -0.675850563081E+03   -0.77096E-03   -0.78090E-03  8424   0.116E-02-0.710E-04
CGA:   3    -0.675850765606E+03   -0.20253E-03   -0.20232E-03  8424   0.233E-03 0.257E-04
CGA:   4    -0.675850797422E+03   -0.31816E-04   -0.33299E-04  8424   0.528E-04 0.468E-04
CGA:   5    -0.675850803285E+03   -0.58624E-05   -0.73332E-05  8424   0.151E-04 0.270E-04
