       N       E                     dE             d eps       ncg     rms          ort
DAV:   1     0.112365095754E+05    0.11237E+05   -0.46580E+05  8540   0.170E+03
DAV:   2     0.233738069091E+02   -0.11213E+05   -0.10202E+05  8540   0.487E+02
DAV:   3    -0.160871825570E+04   -0.16321E+04   -0.15468E+04  8540   0.198E+02
DAV:   4    -0.169243824458E+04   -0.83720E+02   -0.82511E+02  8540   0.456E+01
DAV:   5    -0.169350936803E+04   -0.10711E+01   -0.10678E+01  8540   0.557E+00
SDA:   6    -0.804770407244E+03    0.88874E+03   -0.10678E+01  8540   0.299E+04 0.000E+00
CGA:   7    -0.122922193065E+04   -0.42445E+03   -0.42464E+03  8540   0.303E+03 0.373E+02
CGA:   8    -0.128737143434E+04   -0.58150E+02   -0.58143E+02  8540   0.754E+02 0.957E+00
CGA:   9    -0.131165718190E+04   -0.24286E+02   -0.24203E+02  8540   0.389E+02 0.430E+00
CGA:  10    -0.132044752076E+04   -0.87903E+01   -0.88099E+01  8540   0.106E+02-0.764E+00
CGA:  11    -0.132291359378E+04   -0.24661E+01   -0.24799E+01  8540   0.265E+01-0.463E+00
CGA:  12    -0.132355006169E+04   -0.63647E+00   -0.64410E+00  8540   0.763E+00-0.158E+00
CGA:  13    -0.132375818498E+04   -0.20812E+00   -0.20847E+00  8540   0.256E+00-0.524E-02
CGA:  14    -0.132384305798E+04   -0.84873E-01   -0.89204E-01  8540   0.118E+00-0.320E-01
CGA:  15    -0.132387824525E+04   -0.35187E-01   -0.53414E-01  8540   0.103E+00-0.617E-01
CGA:  16    -0.132390630721E+04   -0.28062E-01   -0.28595E-01  8540   0.327E-01-0.124E-01
CGA:  17    -0.132391504879E+04   -0.87416E-02   -0.10707E-01  8540   0.243E-01-0.143E-01
CGA:  18    -0.132383937496E+04    0.75674E-01   -0.41519E-01  8540   0.472E+00-0.736E-01
CGA:  19    -0.132391307953E+04   -0.73705E-01   -0.74854E-01  8540   0.539E-01 0.208E-01
CGA:  20    -0.132392905406E+04   -0.15975E-01   -0.16905E-01  8540   0.112E-01 0.718E-02
CGA:  21    -0.132393186093E+04   -0.28069E-02   -0.33579E-02  8540   0.292E-02 0.348E-02
CGA:  22    -0.132393196596E+04   -0.10503E-03   -0.56164E-03  8540   0.786E-03 0.171E-02
CGA:  23    -0.132393189412E+04    0.71835E-04   -0.10085E-03  8540   0.532E-03 0.632E-03
CGA:  24    -0.132393182634E+04    0.67778E-04   -0.59750E-04  8540   0.409E-03 0.463E-03
CGA:  25    -0.132393176261E+04    0.63737E-04   -0.39009E-04  8540   0.336E-03 0.369E-03
CGA:  26    -0.132393170442E+04    0.58184E-04   -0.27716E-04  8540   0.288E-03 0.309E-03
CGA:  27    -0.132393165180E+04    0.52621E-04   -0.20845E-04  8540   0.253E-03 0.268E-03
CGA:  28    -0.132393160427E+04    0.47534E-04   -0.16310E-04  8540   0.227E-03 0.238E-03
CGA:  29    -0.132393156125E+04    0.43015E-04   -0.13136E-04  8540   0.206E-03 0.215E-03
CGA:  30    -0.132393152221E+04    0.39042E-04   -0.10815E-04  8540   0.189E-03 0.197E-03
CGA:  31    -0.132393148666E+04    0.35548E-04   -0.90585E-05  8540   0.176E-03 0.182E-03
CGA:  32    -0.132393145419E+04    0.32469E-04   -0.76930E-05  8540   0.164E-03 0.169E-03
CGA:  33    -0.132393142445E+04    0.29748E-04   -0.66083E-05  8540   0.154E-03 0.159E-03
CGA:  34    -0.132393139712E+04    0.27328E-04   -0.57312E-05  8540   0.146E-03 0.150E-03
CGA:  35    -0.132393137195E+04    0.25170E-04   -0.50113E-05  8540   0.139E-03 0.142E-03
CGA:  36    -0.132393134871E+04    0.23238E-04   -0.44129E-05  8540   0.133E-03 0.135E-03
CGA:  37    -0.132393132721E+04    0.21499E-04   -0.39103E-05  8540   0.127E-03 0.129E-03
CGA:  38    -0.132393130728E+04    0.19931E-04   -0.34842E-05  8540   0.122E-03 0.124E-03
CGA:  39    -0.132393128877E+04    0.18510E-04   -0.31198E-05  8540   0.117E-03 0.119E-03
CGA:  40    -0.132393127155E+04    0.17219E-04   -0.28061E-05  8540   0.114E-03 0.115E-03
CGA:  41    -0.132393125551E+04    0.16043E-04   -0.25341E-05  8540   0.110E-03 0.112E-03
CGA:  42    -0.132393124054E+04    0.14968E-04   -0.22970E-05  8540   0.107E-03 0.108E-03
CGA:  43    -0.132393122656E+04    0.13984E-04   -0.20890E-05  8540   0.104E-03 0.105E-03
CGA:  44    -0.132393121347E+04    0.13081E-04   -0.19058E-05  8540   0.101E-03 0.102E-03
CGA:  45    -0.132393120122E+04    0.12250E-04   -0.17437E-05  8540   0.986E-04 0.997E-04
CGA:  46    -0.132393118974E+04    0.11484E-04   -0.15995E-05  8540   0.963E-04 0.974E-04
CGA:  47    -0.132393117896E+04    0.10776E-04   -0.14709E-05  8540   0.943E-04 0.952E-04
CGA:  48    -0.132393116884E+04    0.10122E-04   -0.13556E-05  8540   0.924E-04 0.933E-04
CGA:  49    -0.132393115933E+04    0.95151E-05   -0.12520E-05  8540   0.906E-04 0.914E-04
   1 F= -.13239312E+04 E0= -.13239312E+04  d E =-.132393E+04  mag=   126.0000
       N       E                     dE             d eps       ncg     rms          ort
SDA:   1    -0.132392961183E+04    0.15570E-02    0.00000E+00  8540   0.800E-02 0.000E+00
CGA:   2    -0.132393131161E+04   -0.16998E-02   -0.16079E-02  8540   0.274E-02 0.113E-02
CGA:   3    -0.132393190877E+04   -0.59717E-03   -0.54617E-03  8540   0.651E-03 0.999E-03
CGA:   4    -0.132393202792E+04   -0.11915E-03   -0.11689E-03  8540   0.225E-03 0.441E-03
CGA:   5    -0.132393204265E+04   -0.14730E-04   -0.20622E-04  8540   0.135E-03 0.168E-03
CGA:   6    -0.132393204396E+04   -0.13064E-05   -0.85995E-05  8540   0.106E-03 0.119E-03
   2 F= -.13239320E+04 E0= -.13239320E+04  d E =-.884633E-03  mag=   126.0000
       N       E                     dE             d eps       ncg     rms          ort
SDA:   1    -0.132390391313E+04    0.28130E-01    0.00000E+00  8540   0.936E-01 0.000E+00
CGA:   2    -0.132392656606E+04   -0.22653E-01   -0.22807E-01  8540   0.419E-01-0.126E-02
CGA:   3    -0.132393533596E+04   -0.87699E-02   -0.86492E-02  8540   0.890E-02 0.140E-02
CGA:   4    -0.132393721925E+04   -0.18833E-02   -0.18437E-02  8540   0.150E-02 0.551E-03
CGA:   5    -0.132393757474E+04   -0.35549E-03   -0.35558E-03  8540   0.362E-03-0.154E-05
CGA:   6    -0.132393766830E+04   -0.93554E-04   -0.94021E-04  8540   0.106E-03-0.392E-05
CGA:   7    -0.132393768281E+04   -0.14519E-04   -0.14672E-04  8540   0.338E-04 0.488E-04
CGA:   8    -0.132393768254E+04    0.27238E-06   -0.28554E-05  8540   0.204E-04 0.367E-04
   3 F= -.13239377E+04 E0= -.13239377E+04  d E =-.563858E-02  mag=   126.0000
       N       E                     dE             d eps       ncg     rms          ort
SDA:   1    -0.131885764051E+04    0.50800E+01    0.00000E+00  8540   0.138E+02 0.000E+00
CGA:   2    -0.132231046904E+04   -0.34528E+01   -0.34503E+01  8540   0.598E+01 0.185E-01
CGA:   3    -0.132359438452E+04   -0.12839E+01   -0.12827E+01  8540   0.134E+01 0.135E-01
CGA:   4    -0.132387191435E+04   -0.27753E+00   -0.27714E+00  8540   0.224E+00 0.572E-02
CGA:   5    -0.132392078791E+04   -0.48874E-01   -0.48921E-01  8540   0.507E-01-0.750E-03
CGA:   6    -0.132393395373E+04   -0.13166E-01   -0.13383E-01  8540   0.147E-01-0.190E-02
CGA:   7    -0.132393757253E+04   -0.36188E-02   -0.35704E-02  8540   0.395E-02 0.500E-03
CGA:   8    -0.132393857769E+04   -0.10052E-02   -0.93129E-03  8540   0.110E-02 0.109E-02
CGA:   9    -0.132393890659E+04   -0.32890E-03   -0.30228E-03  8540   0.410E-03 0.523E-03
CGA:  10    -0.132393905714E+04   -0.15055E-03   -0.13674E-03  8540   0.172E-03 0.230E-03
CGA:  11    -0.132393912816E+04   -0.71019E-04   -0.63536E-04  8540   0.792E-04 0.376E-04
CGA:  12    -0.132393914538E+04   -0.17224E-04   -0.17250E-04  8540   0.416E-04 0.671E-04
CGA:  13    -0.132393914521E+04    0.17906E-06   -0.33722E-05  8540   0.319E-04 0.361E-04
   4 F= -.13239391E+04 E0= -.13239391E+04  d E =-.146266E-02  mag=   126.0000
       N       E                     dE             d eps       ncg     rms          ort
SDA:   1    -0.132301862470E+04    0.92052E+00    0.00000E+00  8540   0.259E+01 0.000E+00
CGA:   2    -0.132364707856E+04   -0.62845E+00   -0.62779E+00  8540   0.113E+01 0.792E-02
CGA:   3    -0.132389781988E+04   -0.25074E+00   -0.25087E+00  8540   0.250E+00-0.298E-02
CGA:   4    -0.132394921176E+04   -0.51392E-01   -0.51387E-01  8540   0.435E-01 0.916E-04
CGA:   5    -0.132395847117E+04   -0.92594E-02   -0.92335E-02  8540   0.945E-02 0.717E-03
CGA:   6    -0.132396071785E+04   -0.22467E-02   -0.21990E-02  8540   0.233E-02 0.949E-03
CGA:   7    -0.132396137234E+04   -0.65448E-03   -0.63293E-03  8540   0.662E-03 0.326E-03
CGA:   8    -0.132396163324E+04   -0.26091E-03   -0.35360E-03  8540   0.630E-03-0.327E-03
CGA:   9    -0.132396168388E+04   -0.50640E-04   -0.52118E-04  8540   0.333E-03 0.417E-04
CGA:  10    -0.132396171934E+04   -0.35453E-04   -0.43273E-04  8540   0.129E-03 0.104E-03
CGA:  11    -0.132396173173E+04   -0.12396E-04   -0.18730E-04  8540   0.660E-04 0.765E-04
CGA:  12    -0.132396174366E+04   -0.11927E-04   -0.12115E-04  8540   0.250E-04 0.351E-04
CGA:  13    -0.132396174446E+04   -0.80062E-06   -0.25775E-05  8540   0.176E-04 0.208E-04
   5 F= -.13239617E+04 E0= -.13239617E+04  d E =-.225993E-01  mag=   126.0000
       N       E                     dE             d eps       ncg     rms          ort
SDA:   1    -0.132393349430E+04    0.28249E-01    0.00000E+00  8540   0.750E-01 0.000E+00
CGA:   2    -0.132395509966E+04   -0.21605E-01   -0.21601E-01  8540   0.320E-01 0.195E-04
CGA:   3    -0.132396143445E+04   -0.63348E-02   -0.63403E-02  8540   0.667E-02-0.456E-03
CGA:   4    -0.132396282616E+04   -0.13917E-02   -0.13959E-02  8540   0.117E-02-0.163E-03
CGA:   5    -0.132396303420E+04   -0.20805E-03   -0.20884E-03  8540   0.222E-03 0.153E-03
CGA:   6    -0.132396306341E+04   -0.29209E-04   -0.35090E-04  8540   0.800E-04 0.122E-03
CGA:   7    -0.132396307618E+04   -0.12769E-04   -0.13493E-04  8540   0.340E-04 0.442E-04
CGA:   8    -0.132396308338E+04   -0.71955E-05   -0.68188E-05  8540   0.179E-04 0.233E-04
   6 F= -.13239631E+04 E0= -.13239631E+04  d E =-.133892E-02  mag=   126.0000
       N       E                     dE             d eps       ncg     rms          ort
SDA:   1    -0.132378042280E+04    0.18265E+00    0.00000E+00  8540   0.490E+00 0.000E+00
CGA:   2    -0.132391419226E+04   -0.13377E+00   -0.13387E+00  8540   0.197E+00-0.120E-02
CGA:   3    -0.132395389009E+04   -0.39698E-01   -0.39689E-01  8540   0.430E-01 0.647E-03
CGA:   4    -0.132396308212E+04   -0.91920E-02   -0.91987E-02  8540   0.716E-02-0.285E-03
CGA:   5    -0.132396455269E+04   -0.14706E-02   -0.14662E-02  8540   0.153E-02 0.273E-03
CGA:   6    -0.132396490953E+04   -0.35684E-03   -0.34879E-03  8540   0.374E-03 0.279E-03
CGA:   7    -0.132396502034E+04   -0.11081E-03   -0.10705E-03  8540   0.119E-03 0.764E-04
CGA:   8    -0.132396505373E+04   -0.33392E-04   -0.31946E-04  8540   0.423E-04 0.512E-04
CGA:   9    -0.132396506232E+04   -0.85828E-05   -0.97359E-05  8540   0.183E-04 0.323E-04
   7 F= -.13239651E+04 E0= -.13239651E+04  d E =-.197894E-02  mag=   126.0000
       N       E                     dE             d eps       ncg     rms          ort
SDA:   1    -0.132369967272E+04    0.26538E+00    0.00000E+00  8540   0.748E+00 0.000E+00
CGA:   2    -0.132388099825E+04   -0.18133E+00   -0.18143E+00  8540   0.316E+00-0.241E-02
CGA:   3    -0.132394750157E+04   -0.66503E-01   -0.66457E-01  8540   0.726E-01 0.296E-02
CGA:   4    -0.132396275888E+04   -0.15257E-01   -0.15239E-01  8540   0.116E-01 0.154E-02
CGA:   5    -0.132396535387E+04   -0.25950E-02   -0.25962E-02  8540   0.277E-02-0.585E-04
CGA:   6    -0.132396604212E+04   -0.68825E-03   -0.68266E-03  8540   0.706E-03 0.112E-03
CGA:   7    -0.132396620243E+04   -0.16031E-03   -0.15805E-03  8540   0.175E-03 0.156E-03
CGA:   8    -0.132396622613E+04   -0.23706E-04   -0.30624E-04  8540   0.770E-04 0.120E-03
CGA:   9    -0.132396623050E+04   -0.43665E-05   -0.90363E-05  8540   0.466E-04 0.576E-04
   8 F= -.13239662E+04 E0= -.13239662E+04  d E =-.116818E-02  mag=   126.0000
       N       E                     dE             d eps       ncg     rms          ort
SDA:   1    -0.132269200806E+04    0.12742E+01    0.00000E+00  8540   0.355E+01 0.000E+00
CGA:   2    -0.132355609471E+04   -0.86409E+00   -0.86403E+00  8540   0.148E+01-0.205E-03
CGA:   3    -0.132387399492E+04   -0.31790E+00   -0.31780E+00  8540   0.343E+00 0.440E-02
CGA:   4    -0.132394592350E+04   -0.71929E-01   -0.71901E-01  8540   0.562E-01 0.172E-02
CGA:   5    -0.132395811990E+04   -0.12196E-01   -0.12190E-01  8540   0.129E-01 0.260E-03
CGA:   6    -0.132396143891E+04   -0.33190E-02   -0.33100E-02  8540   0.341E-02 0.149E-03
CGA:   7    -0.132396232170E+04   -0.88279E-03   -0.87638E-03  8540   0.956E-03 0.114E-03
CGA:   8    -0.132396255382E+04   -0.23212E-03   -0.22495E-03  8540   0.264E-03 0.269E-03
CGA:   9    -0.132396261597E+04   -0.62148E-04   -0.64091E-04  8540   0.101E-03 0.149E-03
CGA:  10    -0.132396264398E+04   -0.28009E-04   -0.25562E-04  8540   0.434E-04 0.466E-04
CGA:  11    -0.132396265147E+04   -0.74925E-05   -0.98070E-05  8540   0.270E-04 0.462E-04
   9 F= -.13239627E+04 E0= -.13239627E+04  d E =0.357903E-02  mag=   126.0000
       N       E                     dE             d eps       ncg     rms          ort
SDA:   1    -0.132374713467E+04    0.21551E+00    0.00000E+00  8540   0.658E+00 0.000E+00
CGA:   2    -0.132388428087E+04   -0.13715E+00   -0.13712E+00  8540   0.262E+00 0.182E-02
CGA:   3    -0.132394791637E+04   -0.63636E-01   -0.63700E-01  8540   0.695E-01-0.160E-02
CGA:   4    -0.132396256740E+04   -0.14651E-01   -0.14668E-01  8540   0.125E-01-0.143E-02
CGA:   5    -0.132396511399E+04   -0.25466E-02   -0.25462E-02  8540   0.269E-02 0.562E-04
CGA:   6    -0.132396575526E+04   -0.64127E-03   -0.63564E-03  8540   0.646E-03 0.164E-03
CGA:   7    -0.132396595282E+04   -0.19756E-03   -0.20241E-03  8540   0.222E-03-0.527E-04
CGA:   8    -0.132396573198E+04    0.22084E-03   -0.20816E-03  8540   0.182E-02-0.527E-03
CGA:   9    -0.132396605014E+04   -0.31816E-03   -0.32364E-03  8540   0.179E-03 0.774E-04
CGA:  10    -0.132396608399E+04   -0.33851E-04   -0.37135E-04  8540   0.482E-04 0.712E-04
CGA:  11    -0.132396609555E+04   -0.11561E-04   -0.12911E-04  8540   0.183E-04 0.265E-04
CGA:  12    -0.132396610506E+04   -0.95111E-05    0.26222E-04  8540   0.757E-05 0.851E-05
CGA:  13    -0.132396610628E+04   -0.12227E-05   -0.11668E-04  8540   0.187E-04-0.129E-04
  10 F= -.13239661E+04 E0= -.13239661E+04  d E =-.345481E-02  mag=   126.0000
       N       E                     dE             d eps       ncg     rms          ort
SDA:   1    -0.132382190811E+04    0.14420E+00    0.00000E+00  8540   0.409E+00 0.000E+00
CGA:   2    -0.132392103856E+04   -0.99130E-01   -0.99168E-01  8540   0.168E+00 0.888E-03
CGA:   3    -0.132395759254E+04   -0.36554E-01   -0.36498E-01  8540   0.397E-01-0.931E-03
CGA:   4    -0.132396586305E+04   -0.82705E-02   -0.82670E-02  8540   0.666E-02-0.562E-04
CGA:   5    -0.132396730118E+04   -0.14381E-02   -0.14359E-02  8540   0.152E-02-0.414E-04
CGA:   6    -0.132396770234E+04   -0.40117E-03   -0.40089E-03  8540   0.440E-03-0.651E-04
CGA:   7    -0.132396780833E+04   -0.10599E-03   -0.10610E-03  8540   0.118E-03 0.616E-05
CGA:   8    -0.132396784334E+04   -0.35007E-04   -0.69793E-04  8540   0.212E-03-0.111E-03
CGA:   9    -0.132396787618E+04   -0.32842E-04   -0.35888E-04  8540   0.203E-04 0.265E-04
CGA:  10    -0.132396788293E+04   -0.67463E-05   -0.67902E-05  8540   0.533E-05-0.230E-05
  11 F= -.13239679E+04 E0= -.13239679E+04  d E =-.177665E-02  mag=   126.0000
       N       E                     dE             d eps       ncg     rms          ort
SDA:   1    -0.132392951292E+04    0.38363E-01    0.00000E+00  8540   0.119E+00 0.000E+00
CGA:   2    -0.132395362213E+04   -0.24109E-01   -0.24099E-01  8540   0.474E-01-0.210E-03
CGA:   3    -0.132396514465E+04   -0.11523E-01   -0.11531E-01  8540   0.126E-01 0.352E-03
CGA:   4    -0.132396764945E+04   -0.25048E-02   -0.25363E-02  8540   0.203E-02 0.480E-03
CGA:   5    -0.132396811626E+04   -0.46681E-03   -0.46813E-03  8540   0.469E-03 0.317E-04
CGA:   6    -0.132396825067E+04   -0.13441E-03   -0.13610E-03  8540   0.160E-03-0.673E-04
CGA:   7    -0.132396827680E+04   -0.26127E-04   -0.27462E-04  8540   0.372E-04 0.220E-04
CGA:   8    -0.132396827968E+04   -0.28870E-05   -0.55746E-05  8540   0.142E-04 0.212E-04
  12 F= -.13239683E+04 E0= -.13239683E+04  d E =-.396753E-03  mag=   126.0000
       N       E                     dE             d eps       ncg     rms          ort
SDA:   1    -0.132381101012E+04    0.15727E+00    0.00000E+00  8540   0.483E+00 0.000E+00
CGA:   2    -0.132390860051E+04   -0.97590E-01   -0.97590E-01  8540   0.192E+00-0.315E-03
CGA:   3    -0.132395480268E+04   -0.46202E-01   -0.46205E-01  8540   0.507E-01 0.878E-03
CGA:   4    -0.132396531235E+04   -0.10510E-01   -0.10537E-01  8540   0.818E-02 0.761E-03
CGA:   5    -0.132396714401E+04   -0.18317E-02   -0.18326E-02  8540   0.188E-02 0.425E-04
CGA:   6    -0.132396763007E+04   -0.48606E-03   -0.48698E-03  8540   0.495E-03-0.528E-04
CGA:   7    -0.132396774816E+04   -0.11809E-03   -0.11801E-03  8540   0.124E-03 0.174E-04
CGA:   8    -0.132396776944E+04   -0.21275E-04   -0.23871E-04  8540   0.354E-04 0.471E-04
CGA:   9    -0.132396777254E+04   -0.31032E-05   -0.62325E-05  8540   0.165E-04 0.282E-04
  13 F= -.13239678E+04 E0= -.13239678E+04  d E =0.507144E-03  mag=   126.0000
       N       E                     dE             d eps       ncg     rms          ort
SDA:   1    -0.132366603764E+04    0.30173E+00    0.00000E+00  8540   0.943E+00 0.000E+00
CGA:   2    -0.132385016780E+04   -0.18413E+00   -0.18419E+00  8540   0.357E+00 0.102E-02
CGA:   3    -0.132393885622E+04   -0.88688E-01   -0.88665E-01  8540   0.100E+00 0.984E-03
CGA:   4    -0.132395979148E+04   -0.20935E-01   -0.20947E-01  8540   0.168E-01 0.597E-03
CGA:   5    -0.132396343814E+04   -0.36467E-02   -0.36475E-02  8540   0.374E-02 0.705E-04
CGA:   6    -0.132396438641E+04   -0.94827E-03   -0.95033E-03  8540   0.976E-03-0.788E-04
CGA:   7    -0.132396463432E+04   -0.24792E-03   -0.24878E-03  8540   0.268E-03-0.265E-04
CGA:   8    -0.132396469822E+04   -0.63899E-04   -0.63378E-04  8540   0.675E-04 0.372E-04
CGA:   9    -0.132396471457E+04   -0.16352E-04   -0.16685E-04  8540   0.213E-04 0.268E-04
CGA:  10    -0.132396472162E+04   -0.70456E-05   -0.69868E-05  8540   0.920E-05 0.999E-05
  14 F= -.13239647E+04 E0= -.13239647E+04  d E =0.305092E-02  mag=   126.0000
       N       E                     dE             d eps       ncg     rms          ort
SDA:   1    -0.132381228047E+04    0.15243E+00    0.00000E+00  8540   0.493E+00 0.000E+00
CGA:   2    -0.132390743913E+04   -0.95159E-01   -0.95240E-01  8540   0.185E+00 0.151E-02
CGA:   3    -0.132395459995E+04   -0.47161E-01   -0.47175E-01  8540   0.530E-01-0.739E-03
CGA:   4    -0.132396583570E+04   -0.11236E-01   -0.11211E-01  8540   0.882E-02-0.108E-02
CGA:   5    -0.132396772069E+04   -0.18850E-02   -0.18839E-02  8540   0.195E-02-0.746E-04
CGA:   6    -0.132396817633E+04   -0.45564E-03   -0.45547E-03  8540   0.434E-03 0.884E-04
CGA:   7    -0.132396829010E+04   -0.11377E-03   -0.11339E-03  8540   0.114E-03 0.228E-04
CGA:   8    -0.132396832561E+04   -0.35511E-04   -0.64851E-04  8540   0.173E-03-0.961E-04
CGA:   9    -0.132396836080E+04   -0.35193E-04   -0.34765E-04  8540   0.226E-04-0.877E-05
CGA:  10    -0.132396836550E+04   -0.46979E-05   -0.47822E-05  8540   0.396E-05 0.353E-05
  15 F= -.13239684E+04 E0= -.13239684E+04  d E =-.364388E-02  mag=   126.0000
       N       E                     dE             d eps       ncg     rms          ort
SDA:   1    -0.132395577649E+04    0.12584E-01    0.00000E+00  8540   0.398E-01 0.000E+00
CGA:   2    -0.132396358905E+04   -0.78126E-02   -0.78182E-02  8540   0.155E-01 0.938E-04
CGA:   3    -0.132396756453E+04   -0.39755E-02   -0.39778E-02  8540   0.437E-02-0.198E-03
CGA:   4    -0.132396849222E+04   -0.92769E-03   -0.92068E-03  8540   0.789E-03-0.231E-03
CGA:   5    -0.132396864974E+04   -0.15752E-03   -0.15771E-03  8540   0.167E-03 0.581E-05
CGA:   6    -0.132396867832E+04   -0.28577E-04   -0.30915E-04  8540   0.358E-04 0.409E-04
CGA:   7    -0.132396868494E+04   -0.66279E-05   -0.76640E-05  8540   0.114E-04 0.157E-04
  16 F= -.13239687E+04 E0= -.13239687E+04  d E =-.319445E-03  mag=   126.0000
