       N       E                     dE             d eps       ncg     rms          rms(c)
DAV:   1     0.309537088796E+04    0.30954E+04   -0.25758E+05 11520   0.130E+03
DAV:   2    -0.598000775228E+03   -0.36934E+04   -0.35590E+04 14112   0.297E+02
DAV:   3    -0.864996152014E+03   -0.26700E+03   -0.26526E+03 14028   0.846E+01
DAV:   4    -0.868417521139E+03   -0.34214E+01   -0.34085E+01 14016   0.103E+01
DAV:   5    -0.868478438489E+03   -0.60917E-01   -0.60768E-01 14364   0.126E+00    0.986E+01
DAV:   6    -0.770406632144E+03    0.98072E+02   -0.41165E+02 12972   0.320E+01    0.503E+01
DAV:   7    -0.780028708981E+03   -0.96221E+01   -0.22612E+01 13164   0.784E+00    0.163E+01
DAV:   8    -0.784806305038E+03   -0.47776E+01   -0.24196E+00 13620   0.274E+00    0.786E+00
DAV:   9    -0.787233075340E+03   -0.24268E+01   -0.14248E+00 14064   0.187E+00    0.380E+00
DAV:  10    -0.787742349763E+03   -0.50927E+00   -0.30742E-01 13260   0.970E-01    0.115E+00
DAV:  11    -0.787814316112E+03   -0.71966E-01   -0.43482E-02 14016   0.378E-01    0.632E-01
DAV:  12    -0.787824993849E+03   -0.10678E-01   -0.59376E-03 13452   0.155E-01    0.293E-01
DAV:  13    -0.787827282177E+03   -0.22883E-02   -0.14637E-03 13932   0.804E-02    0.104E-01
DAV:  14    -0.787827681713E+03   -0.39954E-03   -0.41069E-04 13428   0.484E-02    0.461E-02
DAV:  15    -0.787827688895E+03   -0.71816E-05   -0.98067E-05 14832   0.282E-02
   1 F= -.78782769E+03 E0= -.78782769E+03  d E =-.787828E+03  mag=    -0.0082
       N       E                     dE             d eps       ncg     rms          rms(c)
DAV:   1    -0.787826242412E+03    0.14393E-02   -0.10002E-02 12348   0.179E-01    0.327E-02
DAV:   2    -0.787826256673E+03   -0.14261E-04   -0.25615E-04 14292   0.292E-02    0.157E-02
DAV:   3    -0.787826249140E+03    0.75325E-05   -0.66032E-06 10092   0.859E-03    0.909E-03
DAV:   4    -0.787826241933E+03    0.72076E-05   -0.70581E-06 10236   0.114E-02
   2 F= -.78782624E+03 E0= -.78782624E+03  d E =0.144696E-02  mag=    -0.0003
       N       E                     dE             d eps       ncg     rms          rms(c)
DAV:   1    -0.787814813394E+03    0.11436E-01   -0.51457E-01 11880   0.127E+00    0.163E-01
DAV:   2    -0.787815834193E+03   -0.10208E-02   -0.11878E-02 14112   0.181E-01    0.721E-02
DAV:   3    -0.787815744194E+03    0.89999E-04   -0.16321E-04 14256   0.304E-02    0.426E-02
DAV:   4    -0.787815708511E+03    0.35683E-04   -0.18156E-04 14208   0.314E-02    0.151E-02
DAV:   5    -0.787815708101E+03    0.40991E-06   -0.33709E-05 12780   0.130E-02
   3 F= -.78781571E+03 E0= -.78781571E+03  d E =0.105338E-01  mag=    -0.0000
       N       E                     dE             d eps       ncg     rms          rms(c)
DAV:   1    -0.786752762386E+03    0.10629E+01   -0.10628E+02 11712   0.191E+01    0.580E+00
DAV:   2    -0.787022235060E+03   -0.26947E+00   -0.35620E+00 14160   0.331E+00    0.211E+00
DAV:   3    -0.786945683314E+03    0.76552E-01   -0.85653E-02 14412   0.835E-01    0.949E-01
DAV:   4    -0.786915808080E+03    0.29875E-01   -0.57505E-02 14244   0.739E-01    0.315E-01
DAV:   5    -0.786912120531E+03    0.36875E-02   -0.25448E-02 14304   0.434E-01    0.255E-01
DAV:   6    -0.786910828969E+03    0.12916E-02   -0.35842E-03 14352   0.137E-01    0.142E-01
DAV:   7    -0.786909254823E+03    0.15741E-02   -0.13858E-03 14412   0.140E-01    0.494E-02
DAV:   8    -0.786908905617E+03    0.34921E-03   -0.97722E-04 14484   0.110E-01    0.474E-02
DAV:   9    -0.786908922802E+03   -0.17185E-04   -0.71113E-04 14244   0.553E-02    0.458E-02
DAV:  10    -0.786908908420E+03    0.14382E-04   -0.27935E-05 12132   0.117E-02    0.307E-02
DAV:  11    -0.786908893021E+03    0.15399E-04   -0.49478E-05 13896   0.202E-02    0.922E-03
DAV:  12    -0.786908893101E+03   -0.80305E-07   -0.14516E-05  9360   0.909E-03
   4 F= -.78690889E+03 E0= -.78690889E+03  d E =0.906815E+00  mag=     0.0000
       N       E                     dE             d eps       ncg     rms          rms(c)
DAV:   1    -0.787126621310E+03   -0.21773E+00   -0.16443E+02 11736   0.240E+01    0.991E+00
DAV:   2    -0.787565448062E+03   -0.43883E+00   -0.66592E+00 14208   0.453E+00    0.372E+00
DAV:   3    -0.787384183177E+03    0.18126E+00   -0.14626E-01 14400   0.110E+00    0.207E+00
DAV:   4    -0.787284461594E+03    0.99722E-01   -0.14461E-01 14160   0.133E+00    0.457E-01
DAV:   5    -0.787278373785E+03    0.60878E-02   -0.86090E-02 14340   0.787E-01    0.396E-01
DAV:   6    -0.787275702891E+03    0.26709E-02   -0.12982E-02 14256   0.259E-01    0.264E-01
DAV:   7    -0.787273128504E+03    0.25744E-02   -0.27954E-03 14364   0.136E-01    0.119E-01
DAV:   8    -0.787271356351E+03    0.17722E-02   -0.16065E-03 14508   0.235E-01    0.860E-02
DAV:   9    -0.787271296365E+03    0.59986E-04   -0.19798E-03 14316   0.115E-01    0.802E-02
DAV:  10    -0.787271318178E+03   -0.21813E-04   -0.73331E-04 13728   0.497E-02    0.781E-02
DAV:  11    -0.787271289240E+03    0.28938E-04   -0.24503E-05 11700   0.130E-02    0.573E-02
DAV:  12    -0.787271240301E+03    0.48939E-04   -0.14539E-04 14328   0.372E-02    0.135E-02
DAV:  13    -0.787271244458E+03   -0.41566E-05   -0.43355E-05 13896   0.114E-02
   5 F= -.78727124E+03 E0= -.78727124E+03  d E =-.362351E+00  mag=    -0.0000
       N       E                     dE             d eps       ncg     rms          rms(c)
DAV:   1    -0.787730289322E+03   -0.45905E+00   -0.31669E+01 11904   0.105E+01    0.427E+00
DAV:   2    -0.787810487286E+03   -0.80198E-01   -0.12466E+00 14232   0.201E+00    0.157E+00
DAV:   3    -0.787772075859E+03    0.38411E-01   -0.30873E-02 14352   0.574E-01    0.714E-01
DAV:   4    -0.787756030383E+03    0.16045E-01   -0.26722E-02 14160   0.590E-01    0.188E-01
DAV:   5    -0.787754650072E+03    0.13803E-02   -0.16462E-02 14304   0.356E-01    0.188E-01
DAV:   6    -0.787754348544E+03    0.30153E-03   -0.27452E-03 14160   0.991E-02    0.154E-01
DAV:   7    -0.787753797291E+03    0.55125E-03   -0.70554E-04 14076   0.533E-02    0.771E-02
DAV:   8    -0.787753342939E+03    0.45435E-03   -0.72959E-04 14424   0.112E-01    0.593E-02
DAV:   9    -0.787753319073E+03    0.23866E-04   -0.49196E-04 14232   0.494E-02    0.377E-02
DAV:  10    -0.787753316013E+03    0.30597E-05   -0.10646E-04 14112   0.201E-02    0.245E-02
DAV:  11    -0.787753306707E+03    0.93056E-05   -0.13651E-05 10212   0.122E-02
   6 F= -.78775331E+03 E0= -.78775331E+03  d E =-.482062E+00  mag=     0.0000
       N       E                     dE             d eps       ncg     rms          rms(c)
DAV:   1    -0.787758272758E+03   -0.49567E-02   -0.12567E-01 11904   0.641E-01    0.256E-01
DAV:   2    -0.787758614725E+03   -0.34197E-03   -0.45966E-03 14196   0.113E-01    0.833E-02
DAV:   3    -0.787758516200E+03    0.98524E-04   -0.12862E-04 14568   0.282E-02    0.359E-02
DAV:   4    -0.787758491034E+03    0.25166E-04   -0.70913E-05 14040   0.204E-02    0.136E-02
DAV:   5    -0.787758489107E+03    0.19276E-05   -0.19627E-05 11292   0.110E-02
   7 F= -.78775849E+03 E0= -.78775849E+03  d E =-.518240E-02  mag=     0.0000
       N       E                     dE             d eps       ncg     rms          rms(c)
DAV:   1    -0.787760277476E+03   -0.17864E-02   -0.64587E-01 11592   0.147E+00    0.558E-01
DAV:   2    -0.787761838170E+03   -0.15607E-02   -0.21401E-02 14400   0.246E-01    0.168E-01
DAV:   3    -0.787761423947E+03    0.41422E-03   -0.67002E-04 14592   0.616E-02    0.772E-02
DAV:   4    -0.787761326361E+03    0.97586E-04   -0.31946E-04 14064   0.414E-02    0.325E-02
DAV:   5    -0.787761320617E+03    0.57442E-05   -0.86975E-05 14400   0.223E-02
   8 F= -.78776132E+03 E0= -.78776132E+03  d E =-.283151E-02  mag=    -0.0000
       N       E                     dE             d eps       ncg     rms          rms(c)
DAV:   1    -0.787761001478E+03    0.32488E-03   -0.16719E-01 11760   0.755E-01    0.225E-01
DAV:   2    -0.787761304484E+03   -0.30301E-03   -0.41847E-03 14520   0.113E-01    0.582E-02
DAV:   3    -0.787761247836E+03    0.56648E-04   -0.13819E-04 14592   0.267E-02    0.301E-02
DAV:   4    -0.787761237809E+03    0.10027E-04   -0.64413E-05 14220   0.166E-02    0.144E-02
DAV:   5    -0.787761237065E+03    0.74475E-06   -0.94967E-06  8592   0.751E-03
   9 F= -.78776124E+03 E0= -.78776124E+03  d E =0.835523E-04  mag=     0.0000
       N       E                     dE             d eps       ncg     rms          rms(c)
DAV:   1    -0.787753334448E+03    0.79034E-02   -0.18165E+00 11568   0.240E+00    0.560E-01
DAV:   2    -0.787756826394E+03   -0.34919E-02   -0.43079E-02 14100   0.342E-01    0.177E-01
DAV:   3    -0.787756296031E+03    0.53036E-03   -0.82469E-04 14472   0.632E-02    0.910E-02
DAV:   4    -0.787756134106E+03    0.16193E-03   -0.61304E-04 14016   0.549E-02    0.277E-02
DAV:   5    -0.787756136281E+03   -0.21755E-05   -0.13231E-04 14208   0.235E-02    0.240E-02
DAV:   6    -0.787756133641E+03    0.26405E-05   -0.21657E-05 10344   0.906E-03
  10 F= -.78775613E+03 E0= -.78775613E+03  d E =0.510342E-02  mag=    -0.0000
       N       E                     dE             d eps       ncg     rms          rms(c)
DAV:   1    -0.787626148919E+03    0.12999E+00   -0.13046E+01 11904   0.552E+00    0.240E+00
DAV:   2    -0.787660017585E+03   -0.33869E-01   -0.45815E-01 14184   0.921E-01    0.930E-01
DAV:   3    -0.787649566610E+03    0.10451E-01   -0.11943E-02 14184   0.209E-01    0.418E-01
DAV:   4    -0.787646825417E+03    0.27412E-02   -0.76976E-03 13968   0.174E-01    0.119E-01
DAV:   5    -0.787646834411E+03   -0.89940E-05   -0.20847E-03 14256   0.836E-02    0.883E-02
DAV:   6    -0.787646773853E+03    0.60558E-04   -0.15666E-04 14088   0.258E-02    0.398E-02
DAV:   7    -0.787646734573E+03    0.39280E-04   -0.82280E-05 13608   0.232E-02    0.120E-02
DAV:   8    -0.787646728761E+03    0.58123E-05   -0.32780E-05 12696   0.176E-02
  11 F= -.78764673E+03 E0= -.78764673E+03  d E =0.109405E+00  mag=    -0.0000
       N       E                     dE             d eps       ncg     rms          rms(c)
DAV:   1    -0.787751919659E+03   -0.10519E+00   -0.77714E+00 11520   0.421E+00    0.220E+00
DAV:   2    -0.787771294692E+03   -0.19375E-01   -0.27258E-01 14112   0.731E-01    0.678E-01
DAV:   3    -0.787765132796E+03    0.61619E-02   -0.60689E-03 14232   0.161E-01    0.337E-01
DAV:   4    -0.787763118852E+03    0.20139E-02   -0.46552E-03 13800   0.145E-01    0.853E-02
DAV:   5    -0.787763128137E+03   -0.92846E-05   -0.14430E-03 14544   0.727E-02    0.676E-02
DAV:   6    -0.787763098680E+03    0.29457E-04   -0.10023E-04 14088   0.193E-02    0.397E-02
DAV:   7    -0.787763071313E+03    0.27367E-04   -0.61276E-05 13512   0.170E-02    0.184E-02
DAV:   8    -0.787763063963E+03    0.73498E-05   -0.23489E-05 11976   0.166E-02
  12 F= -.78776306E+03 E0= -.78776306E+03  d E =-.116335E+00  mag=    -0.0000
       N       E                     dE             d eps       ncg     rms          rms(c)
DAV:   1    -0.787764454215E+03   -0.13829E-02   -0.47573E-01 11544   0.126E+00    0.472E-01
DAV:   2    -0.787765367891E+03   -0.91368E-03   -0.14275E-02 14544   0.207E-01    0.131E-01
DAV:   3    -0.787765091597E+03    0.27629E-03   -0.60803E-04 14544   0.598E-02    0.629E-02
DAV:   4    -0.787765046370E+03    0.45228E-04   -0.24730E-04 14196   0.331E-02    0.319E-02
DAV:   5    -0.787765044209E+03    0.21608E-05   -0.46065E-05 14016   0.174E-02
  13 F= -.78776504E+03 E0= -.78776504E+03  d E =-.198025E-02  mag=    -0.0000
       N       E                     dE             d eps       ncg     rms          rms(c)
DAV:   1    -0.787765449442E+03   -0.40307E-03   -0.39558E-02 11856   0.370E-01    0.125E-01
DAV:   2    -0.787765535953E+03   -0.86511E-04   -0.11778E-03 14328   0.596E-02    0.371E-02
DAV:   3    -0.787765515879E+03    0.20074E-04   -0.33050E-05 14040   0.139E-02    0.178E-02
DAV:   4    -0.787765511971E+03    0.39084E-05   -0.18112E-05 10776   0.935E-03
  14 F= -.78776551E+03 E0= -.78776551E+03  d E =-.467762E-03  mag=     0.0000
       N       E                     dE             d eps       ncg     rms          rms(c)
DAV:   1    -0.787764632688E+03    0.88319E-03   -0.49984E-01 11520   0.127E+00    0.291E-01
DAV:   2    -0.787765746376E+03   -0.11137E-02   -0.13228E-02 14088   0.192E-01    0.105E-01
DAV:   3    -0.787765593959E+03    0.15242E-03   -0.24311E-04 14520   0.376E-02    0.512E-02
DAV:   4    -0.787765552791E+03    0.41168E-04   -0.17779E-04 13968   0.289E-02    0.173E-02
DAV:   5    -0.787765551291E+03    0.15000E-05   -0.32172E-05 12456   0.146E-02
  15 F= -.78776555E+03 E0= -.78776555E+03  d E =-.393201E-04  mag=     0.0000
       N       E                     dE             d eps       ncg     rms          rms(c)
DAV:   1    -0.787756152132E+03    0.94007E-02   -0.23110E+00 11520   0.274E+00    0.684E-01
DAV:   2    -0.787761340843E+03   -0.51887E-02   -0.63780E-02 14064   0.422E-01    0.240E-01
DAV:   3    -0.787760408080E+03    0.93276E-03   -0.11999E-03 14400   0.831E-02    0.115E-01
DAV:   4    -0.787760097457E+03    0.31062E-03   -0.89345E-04 14064   0.734E-02    0.349E-02
DAV:   5    -0.787760091126E+03    0.63310E-05   -0.25126E-04 14424   0.369E-02    0.301E-02
DAV:   6    -0.787760084567E+03    0.65584E-05   -0.31929E-05 11832   0.114E-02
  16 F= -.78776008E+03 E0= -.78776008E+03  d E =0.546672E-02  mag=     0.0000
       N       E                     dE             d eps       ncg     rms          rms(c)
DAV:   1    -0.787763987644E+03   -0.38965E-02   -0.10318E+00 11520   0.179E+00    0.701E-01
DAV:   2    -0.787766645500E+03   -0.26579E-02   -0.36936E-02 14208   0.314E-01    0.241E-01
DAV:   3    -0.787765758502E+03    0.88700E-03   -0.92687E-04 14256   0.748E-02    0.104E-01
DAV:   4    -0.787765495751E+03    0.26275E-03   -0.63127E-04 13992   0.664E-02    0.313E-02
DAV:   5    -0.787765486065E+03    0.96862E-05   -0.24010E-04 14568   0.383E-02    0.266E-02
DAV:   6    -0.787765481431E+03    0.46335E-05   -0.29387E-05 10656   0.106E-02
  17 F= -.78776548E+03 E0= -.78776548E+03  d E =-.539686E-02  mag=    -0.0000
       N       E                     dE             d eps       ncg     rms          rms(c)
DAV:   1    -0.787767555615E+03   -0.20696E-02   -0.28031E-01 11520   0.971E-01    0.370E-01
DAV:   2    -0.787768208712E+03   -0.65310E-03   -0.98889E-03 14352   0.173E-01    0.125E-01
DAV:   3    -0.787767954084E+03    0.25463E-03   -0.32220E-04 14496   0.431E-02    0.549E-02
DAV:   4    -0.787767883509E+03    0.70576E-04   -0.18073E-04 13992   0.342E-02    0.201E-02
DAV:   5    -0.787767879977E+03    0.35321E-05   -0.60724E-05 14328   0.201E-02
  18 F= -.78776788E+03 E0= -.78776788E+03  d E =-.239855E-02  mag=    -0.0000
       N       E                     dE             d eps       ncg     rms          rms(c)
DAV:   1    -0.787768115885E+03   -0.23238E-03   -0.19703E-02 11616   0.254E-01    0.699E-02
DAV:   2    -0.787768161861E+03   -0.45976E-04   -0.57665E-04 14064   0.409E-02    0.256E-02
DAV:   3    -0.787768153105E+03    0.87561E-05   -0.11972E-05 10200   0.818E-03    0.119E-02
DAV:   4    -0.787768150719E+03    0.23857E-05   -0.10226E-05  8304   0.689E-03
  19 F= -.78776815E+03 E0= -.78776815E+03  d E =-.270743E-03  mag=    -0.0000
       N       E                     dE             d eps       ncg     rms          rms(c)
DAV:   1    -0.787767795262E+03    0.35784E-03   -0.47190E-01 11520   0.120E+00    0.209E-01
DAV:   2    -0.787768738870E+03   -0.94361E-03   -0.11079E-02 13800   0.171E-01    0.798E-02
DAV:   3    -0.787768638618E+03    0.10025E-03   -0.16931E-04 14424   0.304E-02    0.435E-02
DAV:   4    -0.787768600283E+03    0.38336E-04   -0.15273E-04 14040   0.293E-02    0.145E-02
DAV:   5    -0.787768599081E+03    0.12012E-05   -0.32600E-05 12384   0.132E-02
  20 F= -.78776860E+03 E0= -.78776860E+03  d E =-.448362E-03  mag=    -0.0000
       N       E                     dE             d eps       ncg     rms          rms(c)
DAV:   1    -0.787765497081E+03    0.31032E-02   -0.13681E+00 11520   0.211E+00    0.440E-01
DAV:   2    -0.787768433336E+03   -0.29363E-02   -0.34901E-02 13872   0.310E-01    0.168E-01
DAV:   3    -0.787768031395E+03    0.40194E-03   -0.58338E-04 14400   0.573E-02    0.844E-02
DAV:   4    -0.787767900723E+03    0.13067E-03   -0.46831E-04 13944   0.509E-02    0.263E-02
DAV:   5    -0.787767898722E+03    0.20014E-05   -0.10878E-04 14448   0.246E-02    0.210E-02
DAV:   6    -0.787767896490E+03    0.22313E-05   -0.17641E-05  9408   0.871E-03
  21 F= -.78776790E+03 E0= -.78776790E+03  d E =0.702591E-03  mag=     0.0000
       N       E                     dE             d eps       ncg     rms          rms(c)
DAV:   1    -0.787767390412E+03    0.50831E-03   -0.54592E-01 11520   0.131E+00    0.468E-01
DAV:   2    -0.787768836574E+03   -0.14462E-02   -0.19024E-02 14220   0.223E-01    0.170E-01
DAV:   3    -0.787768430921E+03    0.40565E-03   -0.48180E-04 14412   0.511E-02    0.730E-02
DAV:   4    -0.787768324612E+03    0.10631E-03   -0.28329E-04 13920   0.387E-02    0.242E-02
DAV:   5    -0.787768322374E+03    0.22388E-05   -0.89122E-05 14544   0.215E-02
  22 F= -.78776832E+03 E0= -.78776832E+03  d E =-.425883E-03  mag=    -0.0000
       N       E                     dE             d eps       ncg     rms          rms(c)
DAV:   1    -0.787769159472E+03   -0.83486E-03   -0.23889E-01 11520   0.900E-01    0.291E-01
DAV:   2    -0.787769823665E+03   -0.66419E-03   -0.83877E-03 14160   0.156E-01    0.107E-01
DAV:   3    -0.787769665423E+03    0.15824E-03   -0.18475E-04 14376   0.325E-02    0.463E-02
DAV:   4    -0.787769622102E+03    0.43320E-04   -0.12103E-04 14208   0.245E-02    0.138E-02
DAV:   5    -0.787769620579E+03    0.15227E-05   -0.32205E-05 12216   0.144E-02
  23 F= -.78776962E+03 E0= -.78776962E+03  d E =-.129821E-02  mag=    -0.0000
