       N       E                     dE             d eps       ncg     rms          rms(c)
DAV:   1     0.307033552622E+04    0.30703E+04   -0.25841E+05 73608   0.131E+03
DAV:   2    -0.611776805696E+03   -0.36821E+04   -0.35494E+04 89628   0.297E+02
DAV:   3    -0.872761801376E+03   -0.26098E+03   -0.25932E+03 89136   0.837E+01
DAV:   4    -0.876024968578E+03   -0.32632E+01   -0.32511E+01 89424   0.101E+01
DAV:   5    -0.876080551309E+03   -0.55583E-01   -0.55445E-01 91104   0.121E+00    0.990E+01
DAV:   6    -0.780195977242E+03    0.95885E+02   -0.40570E+02 81840   0.319E+01    0.502E+01
DAV:   7    -0.789311980876E+03   -0.91160E+01   -0.21769E+01 83076   0.766E+00    0.163E+01
DAV:   8    -0.793582842566E+03   -0.42709E+01   -0.17128E+00 86100   0.251E+00    0.781E+00
DAV:   9    -0.795885759267E+03   -0.23029E+01   -0.11545E+00 89136   0.175E+00    0.384E+00
DAV:  10    -0.796403577732E+03   -0.51782E+00   -0.30401E-01 83436   0.947E-01    0.113E+00
DAV:  11    -0.796476259458E+03   -0.72682E-01   -0.40044E-02 89004   0.354E-01    0.615E-01
DAV:  12    -0.796486335212E+03   -0.10076E-01   -0.54895E-03 84288   0.140E-01    0.272E-01
DAV:  13    -0.796488523432E+03   -0.21882E-02   -0.11208E-03 88080   0.634E-02    0.859E-02
DAV:  14    -0.796488949681E+03   -0.42625E-03   -0.31485E-04 82824   0.332E-02    0.425E-02
DAV:  15    -0.796488984082E+03   -0.34400E-04   -0.32655E-05 77688   0.161E-02    0.270E-02
DAV:  16    -0.796488998059E+03   -0.13978E-04   -0.19469E-05 61848   0.123E-02    0.981E-03
DAV:  17    -0.796488999776E+03   -0.17165E-05   -0.63152E-06 62796   0.734E-03
   1 F= -.79648900E+03 E0= -.79648900E+03  d E =-.796489E+03  mag=    -0.0015
       N       E                     dE             d eps       ncg     rms          rms(c)
DAV:   1    -0.796489877405E+03   -0.87935E-03   -0.58737E-04 76548   0.392E-02    0.994E-03
DAV:   2    -0.796489878189E+03   -0.78464E-06   -0.14832E-05 69372   0.632E-03    0.465E-03
DAV:   3    -0.796489877789E+03    0.40082E-06   -0.83085E-07 44592   0.207E-03    0.249E-03
DAV:   4    -0.796489877533E+03    0.25576E-06   -0.43248E-07 44076   0.192E-03
   2 F= -.79648988E+03 E0= -.79648988E+03  d E =-.877757E-03  mag=    -0.0001
       N       E                     dE             d eps       ncg     rms          rms(c)
DAV:   1    -0.796509470569E+03   -0.19593E-01   -0.37965E-01 75696   0.980E-01    0.232E-01
DAV:   2    -0.796510076917E+03   -0.60635E-03   -0.88895E-03 89352   0.139E-01    0.937E-02
DAV:   3    -0.796509929780E+03    0.14714E-03   -0.25925E-04 90216   0.344E-02    0.472E-02
DAV:   4    -0.796509893030E+03    0.36750E-04   -0.15385E-04 87636   0.226E-02    0.199E-02
DAV:   5    -0.796509890882E+03    0.21480E-05   -0.28503E-05 80076   0.127E-02
   3 F= -.79650989E+03 E0= -.79650989E+03  d E =-.200133E-01  mag=    -0.0000
       N       E                     dE             d eps       ncg     rms          rms(c)
DAV:   1    -0.796541934950E+03   -0.32042E-01   -0.19408E+00 74040   0.216E+00    0.384E-01
DAV:   2    -0.796544866394E+03   -0.29314E-02   -0.41307E-02 89040   0.287E-01    0.179E-01
DAV:   3    -0.796544278683E+03    0.58771E-03   -0.10069E-03 90936   0.661E-02    0.990E-02
DAV:   4    -0.796544099626E+03    0.17906E-03   -0.71204E-04 88992   0.490E-02    0.376E-02
DAV:   5    -0.796544094400E+03    0.52257E-05   -0.13875E-04 88944   0.254E-02    0.316E-02
DAV:   6    -0.796544094292E+03    0.10822E-06   -0.21922E-05 69432   0.917E-03
   4 F= -.79654409E+03 E0= -.79654409E+03  d E =-.342034E-01  mag=    -0.0000
       N       E                     dE             d eps       ncg     rms          rms(c)
DAV:   1    -0.796564939973E+03   -0.20846E-01   -0.19757E+00 73716   0.219E+00    0.301E-01
DAV:   2    -0.796568275604E+03   -0.33356E-02   -0.42442E-02 88308   0.279E-01    0.160E-01
DAV:   3    -0.796567789097E+03    0.48651E-03   -0.74851E-04 89940   0.568E-02    0.933E-02
DAV:   4    -0.796567583637E+03    0.20546E-03   -0.58009E-04 87432   0.478E-02    0.302E-02
DAV:   5    -0.796567578296E+03    0.53409E-05   -0.13479E-04 89052   0.232E-02    0.167E-02
DAV:   6    -0.796567576759E+03    0.15366E-05   -0.20852E-05 68400   0.955E-03
   5 F= -.79656758E+03 E0= -.79656758E+03  d E =-.234825E-01  mag=    -0.0000
       N       E                     dE             d eps       ncg     rms          rms(c)
DAV:   1    -0.796577931914E+03   -0.10354E-01   -0.28479E+00 73440   0.264E+00    0.449E-01
DAV:   2    -0.796583155845E+03   -0.52239E-02   -0.64669E-02 87960   0.345E-01    0.208E-01
DAV:   3    -0.796582454863E+03    0.70098E-03   -0.15936E-03 89544   0.806E-02    0.113E-01
DAV:   4    -0.796582243622E+03    0.21124E-03   -0.76500E-04 88584   0.534E-02    0.428E-02
DAV:   5    -0.796582232369E+03    0.11253E-04   -0.13779E-04 88920   0.252E-02    0.240E-02
DAV:   6    -0.796582232169E+03    0.19994E-06   -0.32478E-05 77340   0.116E-02
   6 F= -.79658223E+03 E0= -.79658223E+03  d E =-.146554E-01  mag=    -0.0000
       N       E                     dE             d eps       ncg     rms          rms(c)
DAV:   1    -0.796572451239E+03    0.97811E-02   -0.48924E+00 73440   0.362E+00    0.772E-01
DAV:   2    -0.796581947259E+03   -0.94960E-02   -0.11807E-01 88524   0.509E-01    0.287E-01
DAV:   3    -0.796580448021E+03    0.14992E-02   -0.28030E-03 89952   0.116E-01    0.150E-01
DAV:   4    -0.796579901169E+03    0.54685E-03   -0.13505E-03 89136   0.911E-02    0.525E-02
DAV:   5    -0.796579858109E+03    0.43060E-04   -0.41421E-04 91236   0.493E-02    0.337E-02
DAV:   6    -0.796579842773E+03    0.15336E-04   -0.69075E-05 89304   0.188E-02    0.207E-02
DAV:   7    -0.796579829771E+03    0.13002E-04   -0.56129E-06 61776   0.120E-02    0.992E-03
DAV:   8    -0.796579822111E+03    0.76602E-05   -0.12501E-05 70560   0.164E-02
   7 F= -.79657982E+03 E0= -.79657982E+03  d E =0.241006E-02  mag=     0.0000
       N       E                     dE             d eps       ncg     rms          rms(c)
DAV:   1    -0.796586043403E+03   -0.62136E-02   -0.69667E-01 73668   0.139E+00    0.455E-01
DAV:   2    -0.796587503267E+03   -0.14599E-02   -0.20330E-02 89124   0.221E-01    0.158E-01
DAV:   3    -0.796587039357E+03    0.46391E-03   -0.51863E-04 90696   0.591E-02    0.701E-02
DAV:   4    -0.796586887205E+03    0.15215E-03   -0.32556E-04 89004   0.513E-02    0.230E-02
DAV:   5    -0.796586876841E+03    0.10364E-04   -0.13091E-04 92052   0.284E-02    0.188E-02
DAV:   6    -0.796586872235E+03    0.46063E-05   -0.13570E-05 57132   0.777E-03
   8 F= -.79658687E+03 E0= -.79658687E+03  d E =-.705012E-02  mag=    -0.0000
       N       E                     dE             d eps       ncg     rms          rms(c)
DAV:   1    -0.796587473001E+03   -0.59616E-03   -0.56699E-02 74712   0.399E-01    0.834E-02
DAV:   2    -0.796587578131E+03   -0.10513E-03   -0.13137E-03 89508   0.566E-02    0.302E-02
DAV:   3    -0.796587561071E+03    0.17060E-04   -0.26372E-05 80376   0.125E-02    0.156E-02
DAV:   4    -0.796587554354E+03    0.67170E-05   -0.17756E-05 69468   0.109E-02
   9 F= -.79658755E+03 E0= -.79658755E+03  d E =-.682119E-03  mag=     0.0000
       N       E                     dE             d eps       ncg     rms          rms(c)
DAV:   1    -0.796587430504E+03    0.13057E-03   -0.70224E-01 73560   0.142E+00    0.200E-01
DAV:   2    -0.796588659155E+03   -0.12287E-02   -0.14510E-02 89100   0.189E-01    0.823E-02
DAV:   3    -0.796588550857E+03    0.10830E-03   -0.24558E-04 90972   0.322E-02    0.491E-02
DAV:   4    -0.796588503835E+03    0.47022E-04   -0.16638E-04 87792   0.284E-02    0.165E-02
DAV:   5    -0.796588502589E+03    0.12465E-05   -0.33376E-05 77208   0.127E-02
  10 F= -.79658850E+03 E0= -.79658850E+03  d E =-.948235E-03  mag=     0.0000
       N       E                     dE             d eps       ncg     rms          rms(c)
DAV:   1    -0.796586016643E+03    0.24872E-02   -0.16061E+00 73440   0.224E+00    0.319E-01
DAV:   2    -0.796589082732E+03   -0.30661E-02   -0.35217E-02 87864   0.305E-01    0.126E-01
DAV:   3    -0.796588801006E+03    0.28173E-03   -0.44969E-04 91752   0.484E-02    0.745E-02
DAV:   4    -0.796588680015E+03    0.12099E-03   -0.44431E-04 88560   0.528E-02    0.224E-02
DAV:   5    -0.796588683023E+03   -0.30088E-05   -0.11421E-04 88812   0.220E-02    0.187E-02
DAV:   6    -0.796588680109E+03    0.29139E-05   -0.24011E-05 68400   0.102E-02
  11 F= -.79658868E+03 E0= -.79658868E+03  d E =-.177521E-03  mag=     0.0000
       N       E                     dE             d eps       ncg     rms          rms(c)
DAV:   1    -0.796579303661E+03    0.93794E-02   -0.33427E+00 73440   0.328E+00    0.541E-01
DAV:   2    -0.796586395700E+03   -0.70920E-02   -0.81516E-02 87936   0.475E-01    0.235E-01
DAV:   3    -0.796585682735E+03    0.71296E-03   -0.11739E-03 90984   0.882E-02    0.126E-01
DAV:   4    -0.796585420570E+03    0.26216E-03   -0.10985E-03 88764   0.809E-02    0.443E-02
DAV:   5    -0.796585398328E+03    0.22242E-04   -0.23622E-04 92088   0.411E-02    0.281E-02
DAV:   6    -0.796585390273E+03    0.80551E-05   -0.67294E-05 87792   0.181E-02
  12 F= -.79658539E+03 E0= -.79658539E+03  d E =0.328984E-02  mag=    -0.0000
       N       E                     dE             d eps       ncg     rms          rms(c)
DAV:   1    -0.796588358608E+03   -0.29603E-02   -0.62844E-01 73464   0.141E+00    0.441E-01
DAV:   2    -0.796589685350E+03   -0.13267E-02   -0.18685E-02 89928   0.231E-01    0.153E-01
DAV:   3    -0.796589281351E+03    0.40400E-03   -0.47113E-04 91512   0.576E-02    0.707E-02
DAV:   4    -0.796589148528E+03    0.13282E-03   -0.34697E-04 89208   0.504E-02    0.239E-02
DAV:   5    -0.796589140503E+03    0.80254E-05   -0.12089E-04 91704   0.280E-02    0.226E-02
DAV:   6    -0.796589137377E+03    0.31265E-05   -0.14992E-05 55428   0.762E-03
  13 F= -.79658914E+03 E0= -.79658914E+03  d E =-.374710E-02  mag=     0.0000
       N       E                     dE             d eps       ncg     rms          rms(c)
DAV:   1    -0.796590552253E+03   -0.14118E-02   -0.18564E-01 73560   0.737E-01    0.236E-01
DAV:   2    -0.796590949732E+03   -0.39748E-03   -0.52788E-03 89736   0.117E-01    0.794E-02
DAV:   3    -0.796590861606E+03    0.88125E-04   -0.16248E-04 90336   0.282E-02    0.373E-02
DAV:   4    -0.796590837887E+03    0.23719E-04   -0.76033E-05 87636   0.197E-02    0.145E-02
DAV:   5    -0.796590836111E+03    0.17756E-05   -0.17147E-05 69168   0.112E-02
  14 F= -.79659084E+03 E0= -.79659084E+03  d E =-.169873E-02  mag=    -0.0000
       N       E                     dE             d eps       ncg     rms          rms(c)
DAV:   1    -0.796591282022E+03   -0.44413E-03   -0.28469E-02 74136   0.296E-01    0.569E-02
DAV:   2    -0.796591338499E+03   -0.56477E-04   -0.64873E-04 88968   0.410E-02    0.198E-02
DAV:   3    -0.796591332576E+03    0.59225E-05   -0.10843E-05 69288   0.789E-03    0.106E-02
DAV:   4    -0.796591331258E+03    0.13177E-05   -0.93105E-06 53784   0.659E-03
  15 F= -.79659133E+03 E0= -.79659133E+03  d E =-.495147E-03  mag=     0.0000
       N       E                     dE             d eps       ncg     rms          rms(c)
DAV:   1    -0.796589492225E+03    0.18404E-02   -0.20692E+00 73440   0.257E+00    0.351E-01
DAV:   2    -0.796593641574E+03   -0.41493E-02   -0.46435E-02 86304   0.354E-01    0.156E-01
DAV:   3    -0.796593307729E+03    0.33385E-03   -0.56979E-04 91560   0.569E-02    0.891E-02
DAV:   4    -0.796593178579E+03    0.12915E-03   -0.59816E-04 88572   0.570E-02    0.303E-02
DAV:   5    -0.796593175084E+03    0.34943E-05   -0.11854E-04 89772   0.253E-02    0.200E-02
DAV:   6    -0.796593173362E+03    0.17225E-05   -0.35926E-05 76476   0.120E-02
  16 F= -.79659317E+03 E0= -.79659317E+03  d E =-.184210E-02  mag=    -0.0000
       N       E                     dE             d eps       ncg     rms          rms(c)
DAV:   1    -0.796587446296E+03    0.57288E-02   -0.28046E+00 73440   0.299E+00    0.669E-01
DAV:   2    -0.796593105516E+03   -0.56592E-02   -0.68757E-02 89208   0.433E-01    0.226E-01
DAV:   3    -0.796592290354E+03    0.81516E-03   -0.12997E-03 91728   0.825E-02    0.119E-01
DAV:   4    -0.796592018134E+03    0.27222E-03   -0.99249E-04 88284   0.739E-02    0.396E-02
DAV:   5    -0.796592015143E+03    0.29907E-05   -0.24497E-04 90732   0.350E-02    0.353E-02
DAV:   6    -0.796592009288E+03    0.58553E-05   -0.44482E-05 81900   0.131E-02
  17 F= -.79659201E+03 E0= -.79659201E+03  d E =0.116407E-02  mag=    -0.0000
       N       E                     dE             d eps       ncg     rms          rms(c)
DAV:   1    -0.796592668579E+03   -0.65344E-03   -0.84138E-01 73440   0.156E+00    0.565E-01
DAV:   2    -0.796594335863E+03   -0.16673E-02   -0.24149E-02 90228   0.249E-01    0.166E-01
DAV:   3    -0.796593832186E+03    0.50368E-03   -0.75682E-04 91704   0.647E-02    0.797E-02
DAV:   4    -0.796593689699E+03    0.14249E-03   -0.41218E-04 88464   0.486E-02    0.301E-02
DAV:   5    -0.796593686265E+03    0.34338E-05   -0.12343E-04 91560   0.253E-02    0.258E-02
DAV:   6    -0.796593682397E+03    0.38688E-05   -0.10645E-05 54624   0.696E-03
  18 F= -.79659368E+03 E0= -.79659368E+03  d E =-.167311E-02  mag=     0.0000
       N       E                     dE             d eps       ncg     rms          rms(c)
DAV:   1    -0.796594392298E+03   -0.70603E-03   -0.64090E-02 73536   0.460E-01    0.171E-01
DAV:   2    -0.796594583042E+03   -0.19074E-03   -0.25000E-03 90516   0.853E-02    0.668E-02
DAV:   3    -0.796594528361E+03    0.54681E-04   -0.67964E-05 90024   0.221E-02    0.272E-02
DAV:   4    -0.796594514297E+03    0.14064E-04   -0.35383E-05 81408   0.168E-02    0.900E-03
DAV:   5    -0.796594513197E+03    0.10996E-05   -0.12777E-05 61476   0.106E-02
  19 F= -.79659451E+03 E0= -.79659451E+03  d E =-.830801E-03  mag=     0.0000
