       N       E                     dE             d eps       ncg     rms          ort
DAV:   1     0.290120039780E+04    0.29012E+04   -0.21060E+05  2592   0.138E+03
DAV:   2    -0.721505933709E+03   -0.36227E+04   -0.34733E+04  2592   0.242E+02
DAV:   3    -0.120137600284E+04   -0.47987E+03   -0.47466E+03  2592   0.954E+01
DAV:   4    -0.122449888834E+04   -0.23123E+02   -0.22941E+02  2592   0.231E+01
DAV:   5    -0.122578997092E+04   -0.12911E+01   -0.12892E+01  2592   0.536E+00
SDA:   6    -0.109635924813E+04    0.12943E+03   -0.12892E+01  2592   0.671E+02 0.000E+00
CGA:   7    -0.111137363427E+04   -0.15014E+02   -0.15015E+02  2592   0.634E+01 0.113E+00
CGA:   8    -0.111323122025E+04   -0.18576E+01   -0.18479E+01  2592   0.148E+01 0.929E-01
CGA:   9    -0.111371810562E+04   -0.48689E+00   -0.48654E+00  2592   0.399E+00 0.279E-02
CGA:  10    -0.111386666550E+04   -0.14856E+00   -0.15010E+00  2592   0.112E+00-0.101E-01
CGA:  11    -0.111390501229E+04   -0.38347E-01   -0.38499E-01  2592   0.338E-01-0.120E-02
CGA:  12    -0.111391494101E+04   -0.99287E-02   -0.99091E-02  2592   0.778E-02 0.271E-03
CGA:  13    -0.111391779666E+04   -0.28556E-02   -0.29381E-02  2592   0.260E-02-0.574E-03
CGA:  14    -0.111391869238E+04   -0.89572E-03   -0.93170E-03  2592   0.729E-03-0.242E-03
CGA:  15    -0.111391889108E+04   -0.19870E-03   -0.19288E-03  2592   0.190E-03 0.123E-03
CGA:  16    -0.111391893217E+04   -0.41088E-04   -0.45489E-04  2592   0.652E-04 0.103E-03
CGA:  17    -0.111391894358E+04   -0.11415E-04   -0.13137E-04  2592   0.314E-04 0.396E-04
CGA:  18    -0.111391894818E+04   -0.45963E-05   -0.59005E-05  2592   0.194E-04 0.235E-04
   1 F= -.11139189E+04 E0= -.11139110E+04  d E =-.111392E+04  mag=     0.0082
       N       E                     dE             d eps       ncg     rms          ort
SDA:   1    -0.111391994334E+04   -0.99976E-03    0.00000E+00  2592   0.100E-02 0.000E+00
CGA:   2    -0.111392019279E+04   -0.24945E-03   -0.24917E-03  2592   0.237E-03 0.233E-04
CGA:   3    -0.111392025949E+04   -0.66706E-04   -0.65785E-04  2592   0.551E-04 0.264E-04
CGA:   4    -0.111392027795E+04   -0.18462E-04   -0.18064E-04  2592   0.141E-04 0.708E-05
CGA:   5    -0.111392028286E+04   -0.49060E-05   -0.47760E-05  2592   0.361E-05 0.221E-05
   2 F= -.11139203E+04 E0= -.11139123E+04  d E =-.133468E-02  mag=     0.0010
       N       E                     dE             d eps       ncg     rms          ort
SDA:   1    -0.111385783546E+04    0.62442E-01    0.00000E+00  2592   0.222E+00 0.000E+00
CGA:   2    -0.111391354764E+04   -0.55712E-01   -0.55712E-01  2592   0.532E-01-0.787E-04
CGA:   3    -0.111392931249E+04   -0.15765E-01   -0.15763E-01  2592   0.140E-01 0.216E-04
CGA:   4    -0.111393353159E+04   -0.42191E-02   -0.42219E-02  2592   0.354E-02-0.587E-04
CGA:   5    -0.111393461203E+04   -0.10804E-02   -0.10798E-02  2592   0.877E-03 0.102E-04
CGA:   6    -0.111393492968E+04   -0.31764E-03   -0.31748E-03  2592   0.240E-03 0.127E-05
CGA:   7    -0.111393500513E+04   -0.75454E-04   -0.75171E-04  2592   0.653E-04 0.547E-05
CGA:   8    -0.111393502773E+04   -0.22604E-04   -0.22576E-04  2592   0.180E-04 0.370E-06
CGA:   9    -0.111393503459E+04   -0.68577E-05   -0.70675E-05  2592   0.633E-05-0.171E-05
   3 F= -.11139350E+04 E0= -.11139271E+04  d E =-.147517E-01  mag=     0.0000
       N       E                     dE             d eps       ncg     rms          ort
SDA:   1    -0.111363953145E+04    0.29550E+00    0.00000E+00  2592   0.943E+00 0.000E+00
CGA:   2    -0.111386310939E+04   -0.22358E+00   -0.22362E+00  2592   0.214E+00 0.567E-04
CGA:   3    -0.111392680635E+04   -0.63697E-01   -0.63696E-01  2592   0.568E-01 0.799E-05
CGA:   4    -0.111394407339E+04   -0.17267E-01   -0.17270E-01  2592   0.143E-01-0.122E-03
CGA:   5    -0.111394844783E+04   -0.43744E-02   -0.43725E-02  2592   0.342E-02 0.560E-04
CGA:   6    -0.111394969226E+04   -0.12444E-02   -0.12442E-02  2592   0.929E-03 0.128E-05
CGA:   7    -0.111394998108E+04   -0.28882E-03   -0.28862E-03  2592   0.252E-03 0.625E-05
CGA:   8    -0.111395006668E+04   -0.85605E-04   -0.85477E-04  2592   0.653E-04 0.231E-05
CGA:   9    -0.111395009128E+04   -0.24602E-04   -0.24784E-04  2592   0.207E-04-0.205E-05
CGA:  10    -0.111395009834E+04   -0.70564E-05   -0.71156E-05  2592   0.603E-05-0.916E-06
   4 F= -.11139501E+04 E0= -.11139421E+04  d E =-.150637E-01  mag=     0.0000
       N       E                     dE             d eps       ncg     rms          ort
SDA:   1    -0.111385876652E+04    0.91325E-01    0.00000E+00  2592   0.281E+00 0.000E+00
CGA:   2    -0.111392598417E+04   -0.67218E-01   -0.67218E-01  2592   0.711E-01-0.827E-04
CGA:   3    -0.111394648857E+04   -0.20504E-01   -0.20505E-01  2592   0.178E-01 0.855E-04
CGA:   4    -0.111395216625E+04   -0.56777E-02   -0.56797E-02  2592   0.451E-02-0.794E-04
CGA:   5    -0.111395355538E+04   -0.13891E-02   -0.13885E-02  2592   0.112E-02 0.313E-04
CGA:   6    -0.111395395303E+04   -0.39765E-03   -0.39759E-03  2592   0.329E-03 0.540E-06
CGA:   7    -0.111395405436E+04   -0.10133E-03   -0.10131E-03  2592   0.852E-04 0.173E-05
CGA:   8    -0.111395408490E+04   -0.30542E-04   -0.30624E-04  2592   0.230E-04-0.134E-05
CGA:   9    -0.111395409318E+04   -0.82780E-05   -0.82948E-05  2592   0.693E-05-0.260E-06
   5 F= -.11139541E+04 E0= -.11139461E+04  d E =-.399484E-02  mag=     0.0000
       N       E                     dE             d eps       ncg     rms          ort
SDA:   1    -0.111359620504E+04    0.35788E+00    0.00000E+00  2592   0.105E+01 0.000E+00
CGA:   2    -0.111384284143E+04   -0.24664E+00   -0.24663E+00  2592   0.275E+00-0.172E-03
CGA:   3    -0.111392128664E+04   -0.78445E-01   -0.78455E-01  2592   0.676E-01 0.336E-03
CGA:   4    -0.111394304221E+04   -0.21756E-01   -0.21758E-01  2592   0.165E-01-0.132E-03
CGA:   5    -0.111394818734E+04   -0.51451E-02   -0.51447E-02  2592   0.456E-02 0.301E-04
CGA:   6    -0.111394969893E+04   -0.15116E-02   -0.15112E-02  2592   0.135E-02 0.120E-04
CGA:   7    -0.111395013247E+04   -0.43354E-03   -0.43340E-03  2592   0.327E-03 0.828E-05
CGA:   8    -0.111395025401E+04   -0.12154E-03   -0.12186E-03  2592   0.874E-04-0.499E-05
CGA:   9    -0.111395028497E+04   -0.30961E-04   -0.30999E-04  2592   0.281E-04-0.786E-06
CGA:  10    -0.111395029363E+04   -0.86557E-05   -0.86561E-05  2592   0.741E-05 0.825E-06
   6 F= -.11139503E+04 E0= -.11139423E+04  d E =0.379955E-02  mag=     0.0000
       N       E                     dE             d eps       ncg     rms          ort
SDA:   1    -0.111382944811E+04    0.12084E+00    0.00000E+00  2592   0.345E+00 0.000E+00
CGA:   2    -0.111392100111E+04   -0.91553E-01   -0.91554E-01  2592   0.845E-01-0.166E-04
CGA:   3    -0.111394508008E+04   -0.24079E-01   -0.24081E-01  2592   0.247E-01 0.250E-04
CGA:   4    -0.111395237946E+04   -0.72994E-02   -0.72987E-02  2592   0.614E-02-0.526E-04
CGA:   5    -0.111395432461E+04   -0.19452E-02   -0.19449E-02  2592   0.165E-02 0.201E-04
CGA:   6    -0.111395493113E+04   -0.60652E-03   -0.60650E-03  2592   0.446E-03-0.296E-06
CGA:   7    -0.111395508269E+04   -0.15156E-03   -0.15153E-03  2592   0.131E-03 0.649E-06
CGA:   8    -0.111395512519E+04   -0.42500E-04   -0.42538E-04  2592   0.385E-04-0.305E-05
CGA:   9    -0.111395513746E+04   -0.12273E-04   -0.12261E-04  2592   0.937E-05 0.987E-06
CGA:  10    -0.111395514091E+04   -0.34428E-05   -0.34228E-05  2592   0.249E-05 0.462E-06
   7 F= -.11139551E+04 E0= -.11139472E+04  d E =-.484728E-02  mag=    -0.0000
       N       E                     dE             d eps       ncg     rms          ort
SDA:   1    -0.111392198702E+04    0.33150E-01    0.00000E+00  2592   0.104E+00 0.000E+00
CGA:   2    -0.111394740299E+04   -0.25416E-01   -0.25418E-01  2592   0.267E-01 0.361E-04
CGA:   3    -0.111395506531E+04   -0.76623E-02   -0.76613E-02  2592   0.686E-02-0.456E-04
CGA:   4    -0.111395719869E+04   -0.21334E-02   -0.21334E-02  2592   0.171E-02 0.156E-04
CGA:   5    -0.111395774089E+04   -0.54220E-03   -0.54225E-03  2592   0.462E-03-0.191E-04
CGA:   6    -0.111395789575E+04   -0.15486E-03   -0.15478E-03  2592   0.134E-03 0.283E-05
CGA:   7    -0.111395793801E+04   -0.42261E-04   -0.42260E-04  2592   0.354E-04-0.702E-06
CGA:   8    -0.111395795051E+04   -0.12500E-04   -0.12508E-04  2592   0.895E-05-0.206E-06
CGA:   9    -0.111395795350E+04   -0.29947E-05   -0.29811E-05  2592   0.241E-05 0.766E-06
   8 F= -.11139580E+04 E0= -.11139500E+04  d E =-.281260E-02  mag=    -0.0000
       N       E                     dE             d eps       ncg     rms          ort
SDA:   1    -0.111394419479E+04    0.13756E-01    0.00000E+00  2592   0.404E-01 0.000E+00
CGA:   2    -0.111395495881E+04   -0.10764E-01   -0.10763E-01  2592   0.100E-01-0.198E-04
CGA:   3    -0.111395790105E+04   -0.29422E-02   -0.29425E-02  2592   0.275E-02 0.501E-05
CGA:   4    -0.111395873120E+04   -0.83014E-03   -0.82986E-03  2592   0.709E-03-0.217E-04
CGA:   5    -0.111395894244E+04   -0.21124E-03   -0.21136E-03  2592   0.177E-03 0.784E-05
CGA:   6    -0.111395900680E+04   -0.64358E-04   -0.64519E-04  2592   0.507E-04-0.361E-05
CGA:   7    -0.111395902222E+04   -0.15426E-04   -0.15433E-04  2592   0.129E-04 0.134E-05
CGA:   8    -0.111395902713E+04   -0.49022E-05   -0.49848E-05  2592   0.460E-05-0.139E-05
   9 F= -.11139590E+04 E0= -.11139511E+04  d E =-.107362E-02  mag=    -0.0000
       N       E                     dE             d eps       ncg     rms          ort
SDA:   1    -0.111373588118E+04    0.22314E+00    0.00000E+00  2592   0.594E+00 0.000E+00
CGA:   2    -0.111389947009E+04   -0.16359E+00   -0.16360E+00  2592   0.148E+00-0.673E-05
CGA:   3    -0.111394177555E+04   -0.42305E-01   -0.42308E-01  2592   0.407E-01 0.563E-04
CGA:   4    -0.111395392136E+04   -0.12146E-01   -0.12145E-01  2592   0.990E-02-0.895E-04
CGA:   5    -0.111395697771E+04   -0.30563E-02   -0.30564E-02  2592   0.253E-02 0.157E-04
CGA:   6    -0.111395784798E+04   -0.87028E-03   -0.87021E-03  2592   0.698E-03 0.106E-05
CGA:   7    -0.111395806479E+04   -0.21681E-03   -0.21685E-03  2592   0.189E-03 0.999E-05
CGA:   8    -0.111395813193E+04   -0.67138E-04   -0.67400E-04  2592   0.553E-04-0.701E-05
CGA:   9    -0.111395815077E+04   -0.18839E-04   -0.18797E-04  2592   0.147E-04 0.109E-05
CGA:  10    -0.111395815570E+04   -0.49345E-05   -0.49237E-05  2592   0.391E-05 0.111E-05
  10 F= -.11139582E+04 E0= -.11139502E+04  d E =0.871421E-03  mag=    -0.0000
       N       E                     dE             d eps       ncg     rms          ort
SDA:   1    -0.111366530430E+04    0.29285E+00    0.00000E+00  2592   0.786E+00 0.000E+00
CGA:   2    -0.111387641316E+04   -0.21111E+00   -0.21112E+00  2592   0.189E+00-0.120E-04
CGA:   3    -0.111393173839E+04   -0.55325E-01   -0.55331E-01  2592   0.533E-01 0.138E-03
CGA:   4    -0.111394742233E+04   -0.15684E-01   -0.15683E-01  2592   0.132E-01-0.719E-04
CGA:   5    -0.111395157830E+04   -0.41560E-02   -0.41560E-02  2592   0.339E-02 0.194E-04
CGA:   6    -0.111395278709E+04   -0.12088E-02   -0.12091E-02  2592   0.906E-03-0.850E-05
CGA:   7    -0.111395309056E+04   -0.30346E-03   -0.30319E-03  2592   0.240E-03 0.152E-04
CGA:   8    -0.111395317359E+04   -0.83031E-04   -0.83123E-04  2592   0.740E-04-0.421E-05
CGA:   9    -0.111395319789E+04   -0.24303E-04   -0.24285E-04  2592   0.194E-04 0.122E-05
CGA:  10    -0.111395320508E+04   -0.71919E-05   -0.71987E-05  2592   0.536E-05-0.157E-06
  11 F= -.11139532E+04 E0= -.11139453E+04  d E =0.495062E-02  mag=    -0.0000
       N       E                     dE             d eps       ncg     rms          ort
SDA:   1    -0.111376626686E+04    0.18693E+00    0.00000E+00  2592   0.524E+00 0.000E+00
CGA:   2    -0.111391035517E+04   -0.14409E+00   -0.14409E+00  2592   0.123E+00 0.381E-04
CGA:   3    -0.111394726854E+04   -0.36913E-01   -0.36914E-01  2592   0.335E-01-0.253E-04
CGA:   4    -0.111395741023E+04   -0.10142E-01   -0.10141E-01  2592   0.847E-02-0.284E-04
CGA:   5    -0.111395997622E+04   -0.25660E-02   -0.25660E-02  2592   0.231E-02-0.512E-05
CGA:   6    -0.111396075510E+04   -0.77888E-03   -0.77858E-03  2592   0.605E-03 0.141E-04
CGA:   7    -0.111396095872E+04   -0.20363E-03   -0.20368E-03  2592   0.169E-03-0.341E-05
CGA:   8    -0.111396101464E+04   -0.55922E-04   -0.55919E-04  2592   0.476E-04 0.114E-06
CGA:   9    -0.111396103137E+04   -0.16722E-04   -0.16711E-04  2592   0.129E-04 0.365E-06
CGA:  10    -0.111396103626E+04   -0.48980E-05   -0.49258E-05  2592   0.378E-05-0.497E-06
  12 F= -.11139610E+04 E0= -.11139531E+04  d E =-.783118E-02  mag=     0.0000
       N       E                     dE             d eps       ncg     rms          ort
SDA:   1    -0.111394814920E+04    0.12882E-01    0.00000E+00  2592   0.374E-01 0.000E+00
CGA:   2    -0.111395762114E+04   -0.94719E-02   -0.94743E-02  2592   0.813E-02 0.264E-04
CGA:   3    -0.111396019322E+04   -0.25721E-02   -0.25720E-02  2592   0.244E-02-0.242E-04
CGA:   4    -0.111396089117E+04   -0.69795E-03   -0.69816E-03  2592   0.639E-03 0.604E-05
CGA:   5    -0.111396109608E+04   -0.20491E-03   -0.20492E-03  2592   0.184E-03-0.821E-06
CGA:   6    -0.111396116165E+04   -0.65567E-04   -0.65544E-04  2592   0.508E-04 0.525E-06
CGA:   7    -0.111396117930E+04   -0.17650E-04   -0.17678E-04  2592   0.149E-04-0.100E-05
CGA:   8    -0.111396118403E+04   -0.47245E-05   -0.47244E-05  2592   0.380E-05-0.674E-07
  13 F= -.11139612E+04 E0= -.11139532E+04  d E =-.147763E-03  mag=     0.0000
       N       E                     dE             d eps       ncg     rms          ort
SDA:   1    -0.111395824023E+04    0.29391E-02    0.00000E+00  2592   0.889E-02 0.000E+00
CGA:   2    -0.111396065722E+04   -0.24170E-02   -0.24164E-02  2592   0.213E-02-0.124E-04
CGA:   3    -0.111396128307E+04   -0.62585E-03   -0.62626E-03  2592   0.605E-03 0.158E-04
CGA:   4    -0.111396146332E+04   -0.18026E-03   -0.18012E-03  2592   0.159E-03-0.650E-05
CGA:   5    -0.111396151214E+04   -0.48811E-04   -0.48826E-04  2592   0.399E-04 0.226E-05
CGA:   6    -0.111396152691E+04   -0.14776E-04   -0.14796E-04  2592   0.113E-04-0.413E-06
CGA:   7    -0.111396153026E+04   -0.33496E-05   -0.33672E-05  2592   0.279E-05 0.105E-05
  14 F= -.11139615E+04 E0= -.11139536E+04  d E =-.346234E-03  mag=    -0.0000
