       N       E                     dE             d eps       ncg     rms          ort
DAV:   1     0.283706432612E+04    0.28371E+04   -0.29332E+05 18360   0.141E+03
DAV:   2    -0.971141369835E+03   -0.38082E+04   -0.36709E+04 18360   0.313E+02
DAV:   3    -0.123121865232E+04   -0.26008E+03   -0.25843E+03 18360   0.852E+01
DAV:   4    -0.123426974995E+04   -0.30511E+01   -0.30406E+01 18360   0.982E+00
DAV:   5    -0.123431972769E+04   -0.49978E-01   -0.49868E-01 18360   0.116E+00
SDA:   6    -0.873324491265E+03    0.36100E+03   -0.49868E-01 18360   0.619E+03 0.000E+00
CGA:   7    -0.986307941768E+03   -0.11298E+03   -0.11279E+03 18360   0.442E+02-0.266E+01
CGA:   8    -0.999488263772E+03   -0.13180E+02   -0.13154E+02 18360   0.105E+02 0.220E+00
CGA:   9    -0.100333876753E+04   -0.38505E+01   -0.38519E+01 18360   0.401E+01-0.132E-01
CGA:  10    -0.100461001281E+04   -0.12712E+01   -0.12750E+01 18360   0.869E+00-0.319E-01
CGA:  11    -0.100494475474E+04   -0.33474E+00   -0.33496E+00 18360   0.189E+00-0.109E-02
CGA:  12    -0.100501014025E+04   -0.65386E-01   -0.65369E-01 18360   0.434E-01 0.102E-03
CGA:  13    -0.100502653640E+04   -0.16396E-01   -0.16518E-01 18360   0.996E-02-0.838E-03
CGA:  14    -0.100503025947E+04   -0.37231E-02   -0.36436E-02 18360   0.217E-02 0.590E-03
CGA:  15    -0.100503121219E+04   -0.95272E-03   -0.92173E-03 18360   0.540E-03 0.199E-03
CGA:  16    -0.100503149232E+04   -0.28013E-03   -0.37402E-03 18360   0.394E-03-0.247E-03
CGA:  17    -0.100503155724E+04   -0.64922E-04   -0.64850E-04 18360   0.155E-03 0.188E-05
CGA:  18    -0.100503158542E+04   -0.28178E-04   -0.31392E-04 18360   0.628E-04 0.439E-04
CGA:  19    -0.100503159876E+04   -0.13345E-04   -0.15685E-04 18360   0.325E-04 0.308E-04
CGA:  20    -0.100503160871E+04   -0.99500E-05   -0.10603E-04 18360   0.143E-04 0.135E-04
   1 F= -.10050316E+04 E0= -.10050316E+04  d E =-.100503E+04  mag=    -0.0000
