       N       E                     dE             d eps       ncg     rms          rms(c)
DAV:   1     0.304950594839E+04    0.30495E+04   -0.25842E+05 73608   0.130E+03
DAV:   2    -0.613362186717E+03   -0.36629E+04   -0.35347E+04 89328   0.297E+02
DAV:   3    -0.871659139169E+03   -0.25830E+03   -0.25616E+03 89028   0.833E+01
DAV:   4    -0.874890227937E+03   -0.32311E+01   -0.32190E+01 89340   0.100E+01
DAV:   5    -0.874944952060E+03   -0.54724E-01   -0.54589E-01 90912   0.121E+00    0.989E+01
DAV:   6    -0.782167963606E+03    0.92777E+02   -0.39405E+02 83220   0.316E+01    0.504E+01
DAV:   7    -0.790616396864E+03   -0.84484E+01   -0.22675E+01 84012   0.845E+00    0.179E+01
DAV:   8    -0.794029366031E+03   -0.34130E+01   -0.84271E+00105372   0.542E+00    0.114E+01
DAV:   9    -0.795904279886E+03   -0.18749E+01   -0.44556E+00 91056   0.306E+00    0.718E+00
DAV:  10    -0.796615424396E+03   -0.71114E+00   -0.21837E+00 92352   0.278E+00    0.490E+00
DAV:  11    -0.797181731029E+03   -0.56631E+00   -0.24628E+00100176   0.226E+00    0.396E+00
DAV:  12    -0.797346074736E+03   -0.16434E+00   -0.19282E+00 97140   0.152E+00    0.243E+00
DAV:  13    -0.797364501159E+03   -0.18426E-01   -0.25081E-01 89856   0.972E-01    0.182E+00
DAV:  14    -0.797387293049E+03   -0.22792E-01   -0.50006E-01100608   0.747E-01    0.172E+00
DAV:  15    -0.797415523982E+03   -0.28231E-01   -0.60781E-02 83220   0.407E-01    0.239E+00
DAV:  16    -0.797400048387E+03    0.15476E-01   -0.34184E-02 95652   0.485E-01    0.131E+00
DAV:  17    -0.797395720672E+03    0.43277E-02   -0.62910E-02 91692   0.422E-01    0.150E+00
DAV:  18    -0.797407097427E+03   -0.11377E-01   -0.17475E-02 86880   0.234E-01    0.184E+00
DAV:  19    -0.797402342114E+03    0.47553E-02   -0.77866E-03 85464   0.180E-01    0.141E+00
DAV:  20    -0.797401052761E+03    0.12894E-02   -0.17614E-02107580   0.268E-01    0.668E-01
DAV:  21    -0.797401752162E+03   -0.69940E-03   -0.59554E-03 80592   0.155E-01    0.224E-01
DAV:  22    -0.797401932790E+03   -0.18063E-03   -0.18738E-03 88992   0.733E-02    0.164E-01
DAV:  23    -0.797402106324E+03   -0.17353E-03   -0.82103E-04 99744   0.592E-02    0.258E-01
DAV:  24    -0.797402015321E+03    0.91003E-04   -0.58191E-04 83964   0.423E-02    0.160E-01
DAV:  25    -0.797401994004E+03    0.21317E-04   -0.19820E-04 88368   0.211E-02    0.792E-02
DAV:  26    -0.797402031993E+03   -0.37989E-04   -0.35862E-05 65232   0.134E-02    0.460E-02
DAV:  27    -0.797402043902E+03   -0.11909E-04   -0.28604E-05 61800   0.115E-02    0.250E-02
DAV:  28    -0.797402047685E+03   -0.37829E-05   -0.18118E-05 51720   0.778E-03
   1 F= -.79740205E+03 E0= -.79738362E+03  d E =-.797402E+03  mag=    -0.2179
       N       E                     dE             d eps       ncg     rms          rms(c)
DAV:   1    -0.797402329368E+03   -0.28547E-03   -0.75800E-03 76104   0.159E-01    0.132E-01
DAV:   2    -0.797402822646E+03   -0.49328E-03   -0.25148E-03111552   0.105E-01    0.551E-01
DAV:   3    -0.797402204228E+03    0.61842E-03   -0.14089E-03104856   0.797E-02    0.583E-02
DAV:   4    -0.797402317321E+03   -0.11309E-03   -0.27117E-04 82284   0.270E-02    0.898E-02
DAV:   5    -0.797402306699E+03    0.10622E-04   -0.40203E-05 59724   0.154E-02    0.203E-02
DAV:   6    -0.797402307938E+03   -0.12386E-05   -0.20186E-05 43908   0.655E-03
   2 F= -.79740231E+03 E0= -.79738387E+03  d E =-.260253E-03  mag=    -0.2186
       N       E                     dE             d eps       ncg     rms          rms(c)
DAV:   1    -0.797402443566E+03   -0.13687E-03   -0.55813E-03 75648   0.137E-01    0.729E-02
DAV:   2    -0.797402568357E+03   -0.12479E-03   -0.74626E-04108024   0.573E-02    0.271E-01
DAV:   3    -0.797402418918E+03    0.14944E-03   -0.38489E-04103632   0.418E-02    0.220E-02
DAV:   4    -0.797402446881E+03   -0.27963E-04   -0.65436E-05 80424   0.130E-02    0.496E-02
DAV:   5    -0.797402441895E+03    0.49861E-05   -0.15291E-05 50832   0.875E-03
   3 F= -.79740244E+03 E0= -.79738398E+03  d E =-.133958E-03  mag=    -0.2203
       N       E                     dE             d eps       ncg     rms          rms(c)
DAV:   1    -0.797402652390E+03   -0.20551E-03   -0.80851E-02 75480   0.520E-01    0.170E-01
DAV:   2    -0.797403396114E+03   -0.74372E-03   -0.50093E-03 98844   0.144E-01    0.621E-01
DAV:   3    -0.797402620111E+03    0.77600E-03   -0.21475E-03101856   0.970E-02    0.496E-02
DAV:   4    -0.797402749331E+03   -0.12922E-03   -0.36945E-04 81660   0.303E-02    0.943E-02
DAV:   5    -0.797402731928E+03    0.17403E-04   -0.11267E-04 66192   0.184E-02    0.230E-02
DAV:   6    -0.797402740155E+03   -0.82272E-05   -0.39824E-05 61752   0.101E-02
   4 F= -.79740274E+03 E0= -.79738432E+03  d E =-.298260E-03  mag=    -0.2247
       N       E                     dE             d eps       ncg     rms          rms(c)
DAV:   1    -0.797402606854E+03    0.12507E-03   -0.32972E-01 74328   0.105E+00    0.296E-01
DAV:   2    -0.797404779322E+03   -0.21725E-02   -0.18708E-02 96216   0.260E-01    0.934E-01
DAV:   3    -0.797402821812E+03    0.19575E-02   -0.52406E-03 99108   0.162E-01    0.149E-01
DAV:   4    -0.797403061812E+03   -0.24000E-03   -0.13413E-03 83976   0.605E-02    0.149E-01
DAV:   5    -0.797403037645E+03    0.24167E-04   -0.26218E-04 81120   0.331E-02    0.567E-02
DAV:   6    -0.797403045646E+03   -0.80007E-05   -0.16023E-04 82776   0.200E-02    0.829E-02
DAV:   7    -0.797403028083E+03    0.17563E-04   -0.52507E-05 69132   0.152E-02    0.284E-02
DAV:   8    -0.797403032664E+03   -0.45819E-05   -0.56487E-05 60144   0.101E-02
   5 F= -.79740303E+03 E0= -.79738462E+03  d E =-.292509E-03  mag=    -0.2183
       N       E                     dE             d eps       ncg     rms          rms(c)
DAV:   1    -0.797402169800E+03    0.85828E-03   -0.58659E-01 73728   0.141E+00    0.378E-01
DAV:   2    -0.797405930013E+03   -0.37602E-02   -0.27282E-02 92280   0.328E-01    0.130E+00
DAV:   3    -0.797402563984E+03    0.33660E-02   -0.10070E-02 96636   0.207E-01    0.127E-01
DAV:   4    -0.797403111701E+03   -0.54772E-03   -0.21920E-03 82140   0.743E-02    0.209E-01
DAV:   5    -0.797403016306E+03    0.95395E-04   -0.63860E-04 86256   0.424E-02    0.630E-02
DAV:   6    -0.797403055071E+03   -0.38765E-04   -0.38291E-04 85392   0.276E-02    0.140E-01
DAV:   7    -0.797403003337E+03    0.51734E-04   -0.24465E-04 80748   0.227E-02    0.450E-02
DAV:   8    -0.797403004887E+03   -0.15497E-05   -0.35364E-05 71388   0.117E-02
   6 F= -.79740300E+03 E0= -.79738463E+03  d E =0.277776E-04  mag=    -0.2247
       N       E                     dE             d eps       ncg     rms          rms(c)
DAV:   1    -0.797402936419E+03    0.66918E-04   -0.34737E-01 73728   0.110E+00    0.204E-01
DAV:   2    -0.797403769705E+03   -0.83329E-03   -0.86781E-03 88524   0.171E-01    0.265E-01
DAV:   3    -0.797403583998E+03    0.18571E-03   -0.77439E-04102600   0.757E-02    0.149E-01
DAV:   4    -0.797403569415E+03    0.14583E-04   -0.37863E-04 90264   0.404E-02    0.811E-02
DAV:   5    -0.797403536928E+03    0.32487E-04   -0.19601E-04 92436   0.256E-02    0.359E-02
DAV:   6    -0.797403533640E+03    0.32879E-05   -0.73912E-05 87168   0.176E-02
   7 F= -.79740353E+03 E0= -.79738512E+03  d E =-.528753E-03  mag=    -0.2248
       N       E                     dE             d eps       ncg     rms          rms(c)
DAV:   1    -0.797403875861E+03   -0.33893E-03   -0.11548E-01 74040   0.626E-01    0.296E-01
DAV:   2    -0.797405804372E+03   -0.19285E-02   -0.14185E-02107760   0.238E-01    0.984E-01
DAV:   3    -0.797403695043E+03    0.21093E-02   -0.65937E-03110592   0.165E-01    0.117E-01
DAV:   4    -0.797403999417E+03   -0.30437E-03   -0.10259E-03 84636   0.579E-02    0.190E-01
DAV:   5    -0.797403955180E+03    0.44237E-04   -0.23810E-04 84264   0.329E-02    0.963E-02
DAV:   6    -0.797403945006E+03    0.10174E-04   -0.15248E-04 82632   0.218E-02    0.759E-02
DAV:   7    -0.797403942621E+03    0.23854E-05   -0.77783E-05 68412   0.153E-02
   8 F= -.79740394E+03 E0= -.79738550E+03  d E =-.408980E-03  mag=    -0.2128
       N       E                     dE             d eps       ncg     rms          rms(c)
DAV:   1    -0.797403955576E+03   -0.10570E-04   -0.10859E-01 73800   0.611E-01    0.160E-01
DAV:   2    -0.797404574530E+03   -0.61895E-03   -0.48114E-03 89520   0.140E-01    0.506E-01
DAV:   3    -0.797404059312E+03    0.51522E-03   -0.15635E-03 96852   0.871E-02    0.633E-02
DAV:   4    -0.797404137388E+03   -0.78076E-04   -0.35599E-04 83784   0.322E-02    0.721E-02
DAV:   5    -0.797404123701E+03    0.13687E-04   -0.81851E-05 72936   0.172E-02    0.208E-02
DAV:   6    -0.797404128942E+03   -0.52417E-05   -0.28888E-05 57636   0.107E-02
   9 F= -.79740413E+03 E0= -.79738568E+03  d E =-.186322E-03  mag=    -0.2194
       N       E                     dE             d eps       ncg     rms          rms(c)
DAV:   1    -0.797401272921E+03    0.28508E-02   -0.14037E+00 73440   0.220E+00    0.564E-01
DAV:   2    -0.797409404112E+03   -0.81312E-02   -0.72036E-02 93552   0.505E-01    0.170E+00
DAV:   3    -0.797402765905E+03    0.66382E-02   -0.30586E-02 99864   0.300E-01    0.312E-01
DAV:   4    -0.797403387213E+03   -0.62131E-03   -0.43161E-03 86688   0.118E-01    0.268E-01
DAV:   5    -0.797403302195E+03    0.85017E-04   -0.74714E-04 83784   0.620E-02    0.125E-01
DAV:   6    -0.797403354380E+03   -0.52185E-04   -0.71961E-04 87888   0.447E-02    0.205E-01
DAV:   7    -0.797403285751E+03    0.68629E-04   -0.68499E-04 82224   0.394E-02    0.119E-01
DAV:   8    -0.797403263870E+03    0.21881E-04   -0.37758E-04 78420   0.257E-02    0.633E-02
DAV:   9    -0.797403274165E+03   -0.10295E-04   -0.49180E-05 68976   0.128E-02    0.679E-02
DAV:  10    -0.797403263940E+03    0.10225E-04   -0.35235E-05 53304   0.105E-02    0.133E-02
DAV:  11    -0.797403265812E+03   -0.18723E-05   -0.82993E-06 41496   0.583E-03
  10 F= -.79740327E+03 E0= -.79738480E+03  d E =0.863130E-03  mag=    -0.2075
       N       E                     dE             d eps       ncg     rms          rms(c)
DAV:   1    -0.797400982964E+03    0.22810E-02   -0.14553E+00 73440   0.224E+00    0.677E-01
DAV:   2    -0.797412373152E+03   -0.11390E-01   -0.71459E-02 95436   0.564E-01    0.230E+00
DAV:   3    -0.797401955347E+03    0.10418E-01   -0.33952E-02 97368   0.361E-01    0.429E-01
DAV:   4    -0.797403000451E+03   -0.10451E-02   -0.79987E-03 82596   0.157E-01    0.204E-01
DAV:   5    -0.797402982424E+03    0.18028E-04   -0.97501E-04 82224   0.662E-02    0.779E-02
DAV:   6    -0.797402977887E+03    0.45369E-05   -0.63567E-04 88416   0.390E-02    0.104E-01
DAV:   7    -0.797402953773E+03    0.24114E-04   -0.37530E-04 87600   0.274E-02    0.839E-02
DAV:   8    -0.797402943103E+03    0.10671E-04   -0.11206E-04 74964   0.193E-02    0.566E-02
DAV:   9    -0.797402946324E+03   -0.32218E-05   -0.18327E-05 52248   0.996E-03
  11 F= -.79740295E+03 E0= -.79738446E+03  d E =0.319488E-03  mag=    -0.2212
       N       E                     dE             d eps       ncg     rms          rms(c)
DAV:   1    -0.797402218354E+03    0.72475E-03   -0.49889E-01 73464   0.132E+00    0.320E-01
DAV:   2    -0.797403461718E+03   -0.12434E-02   -0.13692E-02 89628   0.212E-01    0.367E-01
DAV:   3    -0.797403172848E+03    0.28887E-03   -0.24256E-03107304   0.110E-01    0.245E-01
DAV:   4    -0.797403096660E+03    0.76188E-04   -0.89718E-04 98412   0.599E-02    0.130E-01
DAV:   5    -0.797403038694E+03    0.57967E-04   -0.42531E-04 93132   0.376E-02    0.485E-02
DAV:   6    -0.797403037811E+03    0.88303E-06   -0.14382E-04 89112   0.245E-02    0.433E-02
DAV:   7    -0.797403028562E+03    0.92480E-05   -0.82335E-05 71052   0.154E-02
  12 F= -.79740303E+03 E0= -.79738461E+03  d E =-.822381E-04  mag=    -0.2198
       N       E                     dE             d eps       ncg     rms          rms(c)
DAV:   1    -0.797403813797E+03   -0.77599E-03   -0.14321E-01 73536   0.699E-01    0.376E-01
DAV:   2    -0.797406251389E+03   -0.24376E-02   -0.15819E-02105012   0.255E-01    0.108E+00
DAV:   3    -0.797403574095E+03    0.26773E-02   -0.71746E-03108648   0.183E-01    0.151E-01
DAV:   4    -0.797404133061E+03   -0.55897E-03   -0.21539E-03 85608   0.855E-02    0.372E-01
DAV:   5    -0.797403877468E+03    0.25559E-03   -0.70899E-04 85908   0.564E-02    0.168E-01
DAV:   6    -0.797403838946E+03    0.38521E-04   -0.26868E-04 83976   0.308E-02    0.573E-02
DAV:   7    -0.797403863118E+03   -0.24171E-04   -0.13728E-04 77052   0.187E-02    0.498E-02
DAV:   8    -0.797403856136E+03    0.69820E-05   -0.10022E-04 59628   0.125E-02    0.335E-02
DAV:   9    -0.797403857016E+03   -0.88022E-06   -0.82137E-06 46392   0.611E-03
  13 F= -.79740386E+03 E0= -.79738543E+03  d E =-.828453E-03  mag=    -0.2178
