       N       E                     dE             d eps       ncg     rms          rms(c)
DAV:   1     0.830378012526E+04    0.83038E+04   -0.23606E+05 34308   0.219E+03
DAV:   2     0.121689023215E+04   -0.70869E+04   -0.66609E+04 33696   0.635E+02
DAV:   3    -0.317341933023E+03   -0.15342E+04   -0.13435E+04 35952   0.272E+02
DAV:   4    -0.471106840430E+03   -0.15376E+03   -0.15115E+03 36828   0.834E+01
DAV:   5    -0.473649448221E+03   -0.25426E+01   -0.25323E+01 36756   0.120E+01    0.109E+02
DAV:   6    -0.537890442914E+03   -0.64241E+02   -0.98777E+02 45672   0.124E+02    0.145E+02
DAV:   7    -0.413616900943E+03    0.12427E+03   -0.29940E+02 38652   0.107E+02    0.728E+01
DAV:   8    -0.408884364100E+03    0.47325E+01   -0.17034E+02 41436   0.528E+01    0.724E+01
DAV:   9    -0.422687305320E+03   -0.13803E+02   -0.10687E+02 36972   0.702E+01    0.740E+01
DAV:  10    -0.407857733715E+03    0.14830E+02   -0.72796E+01 37128   0.359E+01    0.424E+01
DAV:  11    -0.401691791912E+03    0.61659E+01   -0.34313E+01 37056   0.261E+01    0.291E+01
DAV:  12    -0.401941506304E+03   -0.24971E+00   -0.49038E+00 37188   0.146E+01    0.226E+01
DAV:  13    -0.402328934575E+03   -0.38743E+00   -0.31705E+00 37008   0.915E+00    0.205E+01
DAV:  14    -0.402986096022E+03   -0.65716E+00   -0.14212E+00 37440   0.671E+00    0.167E+01
DAV:  15    -0.403582889285E+03   -0.59679E+00   -0.57485E-01 40644   0.564E+00    0.126E+01
DAV:  16    -0.404429096411E+03   -0.84621E+00   -0.20275E+00 42084   0.793E+00    0.880E+00
DAV:  17    -0.404247980737E+03    0.18112E+00   -0.62642E-01 37476   0.538E+00    0.591E+00
DAV:  18    -0.404212284625E+03    0.35696E-01   -0.24521E-01 38064   0.331E+00    0.349E+00
DAV:  19    -0.404185143427E+03    0.27141E-01   -0.14199E-01 44616   0.260E+00    0.234E+00
DAV:  20    -0.404174570322E+03    0.10573E-01   -0.74348E-02 40560   0.156E+00    0.182E+00
DAV:  21    -0.404174927535E+03   -0.35721E-03   -0.23421E-02 39540   0.844E-01    0.156E+00
DAV:  22    -0.404171788344E+03    0.31392E-02   -0.14083E-02 38544   0.896E-01    0.131E+00
DAV:  23    -0.404167701540E+03    0.40868E-02   -0.86371E-03 44628   0.891E-01    0.977E-01
DAV:  24    -0.404168406464E+03   -0.70492E-03   -0.91583E-03 45036   0.660E-01    0.695E-01
DAV:  25    -0.404171206160E+03   -0.27997E-02   -0.91650E-03 44124   0.647E-01    0.541E-01
DAV:  26    -0.404173445236E+03   -0.22391E-02   -0.85708E-03 39120   0.348E-01    0.536E-01
DAV:  27    -0.404173567750E+03   -0.12251E-03   -0.28585E-03 35880   0.139E-01    0.548E-01
DAV:  28    -0.404173175893E+03    0.39186E-03   -0.88981E-05 30420   0.520E-02    0.512E-01
DAV:  29    -0.404173828928E+03   -0.65303E-03   -0.22479E-04 41160   0.114E-01    0.513E-01
DAV:  30    -0.404174367086E+03   -0.53816E-03   -0.20980E-04 41364   0.111E-01    0.503E-01
DAV:  31    -0.404174506660E+03   -0.13957E-03   -0.13666E-03 40008   0.224E-01    0.530E-01
DAV:  32    -0.404176202879E+03   -0.16962E-02   -0.67768E-03 43908   0.497E-01    0.889E-01
DAV:  33    -0.404177924345E+03   -0.17215E-02   -0.62475E-03 38892   0.218E-01    0.104E+00
DAV:  34    -0.404176854128E+03    0.10702E-02   -0.11065E-03 37092   0.137E-01    0.940E-01
DAV:  35    -0.404176046124E+03    0.80800E-03   -0.99825E-04 44136   0.210E-01    0.712E-01
DAV:  36    -0.404176169367E+03   -0.12324E-03   -0.43627E-03 41988   0.339E-01    0.327E-01
DAV:  37    -0.404177222749E+03   -0.10534E-02   -0.35532E-03 38100   0.230E-01    0.251E-01
DAV:  38    -0.404177925298E+03   -0.70255E-03   -0.24298E-03 41616   0.306E-01    0.177E-01
DAV:  39    -0.404178623886E+03   -0.69859E-03   -0.14490E-03 42612   0.169E-01    0.214E-01
DAV:  40    -0.404179344036E+03   -0.72015E-03   -0.86967E-04 43452   0.215E-01    0.343E-01
DAV:  41    -0.404179614902E+03   -0.27087E-03   -0.24663E-03 49284   0.413E-01    0.350E-01
DAV:  42    -0.404179937939E+03   -0.32304E-03   -0.25318E-03 40212   0.148E-01    0.312E-01
DAV:  43    -0.404180014458E+03   -0.76519E-04   -0.50591E-04 34752   0.611E-02    0.279E-01
DAV:  44    -0.404179886972E+03    0.12749E-03   -0.93449E-05 36048   0.779E-02    0.196E-01
DAV:  45    -0.404179638937E+03    0.24804E-03   -0.70485E-04 44700   0.255E-01    0.136E-01
DAV:  46    -0.404179738805E+03   -0.99868E-04   -0.47885E-04 41208   0.993E-02    0.148E-01
DAV:  47    -0.404179766816E+03   -0.28011E-04   -0.14046E-04 42420   0.474E-02    0.141E-01
DAV:  48    -0.404179782708E+03   -0.15892E-04   -0.53788E-05 31836   0.332E-02    0.141E-01
DAV:  49    -0.404179768780E+03    0.13928E-04   -0.69630E-05 29388   0.505E-02    0.104E-01
DAV:  50    -0.404179770699E+03   -0.19187E-05   -0.65963E-05 33732   0.210E-02
   1 F= -.40417977E+03 E0= -.40417560E+03  d E =-.404180E+03  mag=     0.9682
       N       E                     dE             d eps       ncg     rms          rms(c)
DAV:   1    -0.404191748016E+03   -0.11979E-01   -0.99381E-03 48744   0.101E+00    0.979E-02
DAV:   2    -0.404192276280E+03   -0.52826E-03   -0.52341E-03 37224   0.157E-01    0.143E-01
DAV:   3    -0.404192242546E+03    0.33734E-04   -0.41555E-04 38364   0.114E-01    0.615E-02
DAV:   4    -0.404192258609E+03   -0.16064E-04   -0.16078E-04 34908   0.780E-02    0.102E-01
DAV:   5    -0.404192248049E+03    0.10560E-04   -0.34454E-05 31416   0.504E-02    0.740E-02
DAV:   6    -0.404192281033E+03   -0.32984E-04   -0.88941E-05 29160   0.635E-02    0.113E-01
DAV:   7    -0.404192286781E+03   -0.57476E-05   -0.42339E-05 32340   0.155E-02
   2 F= -.40419229E+03 E0= -.40418767E+03  d E =-.125161E-01  mag=     0.9668
       N       E                     dE             d eps       ncg     rms          rms(c)
DAV:   1    -0.403776055690E+03    0.41623E+00   -0.15686E+01 48936   0.399E+01    0.282E+00
DAV:   2    -0.404584766585E+03   -0.80871E+00   -0.82530E+00 36756   0.548E+00    0.211E+00
DAV:   3    -0.404598843555E+03   -0.14077E-01   -0.40844E-01 36852   0.331E+00    0.172E+00
DAV:   4    -0.404593453760E+03    0.53898E-02   -0.79132E-02 37620   0.186E+00    0.154E+00
DAV:   5    -0.404589922716E+03    0.35310E-02   -0.14989E-02 38508   0.921E-01    0.919E-01
DAV:   6    -0.404592126563E+03   -0.22038E-02   -0.15764E-02 38832   0.645E-01    0.814E-01
DAV:   7    -0.404593347463E+03   -0.12209E-02   -0.64342E-03 42312   0.547E-01    0.644E-01
DAV:   8    -0.404594725956E+03   -0.13785E-02   -0.35168E-03 44376   0.368E-01    0.649E-01
DAV:   9    -0.404597253442E+03   -0.25275E-02   -0.28335E-03 42900   0.269E-01    0.690E-01
DAV:  10    -0.404600421803E+03   -0.31684E-02   -0.37193E-03 42720   0.380E-01    0.652E-01
DAV:  11    -0.404604752320E+03   -0.43305E-02   -0.71115E-03 43404   0.611E-01    0.490E-01
DAV:  12    -0.404609784385E+03   -0.50321E-02   -0.13083E-02 43740   0.807E-01    0.258E-01
DAV:  13    -0.404611882326E+03   -0.20979E-02   -0.10888E-02 37128   0.289E-01    0.257E-01
DAV:  14    -0.404612778322E+03   -0.89600E-03   -0.14290E-03 38832   0.254E-01    0.161E-01
DAV:  15    -0.404613470945E+03   -0.69262E-03   -0.19749E-03 39144   0.284E-01    0.777E-02
DAV:  16    -0.404613628446E+03   -0.15750E-03   -0.10820E-03 35688   0.108E-01    0.503E-02
DAV:  17    -0.404613624777E+03    0.36686E-05   -0.10123E-04 34776   0.742E-02    0.465E-02
DAV:  18    -0.404613648244E+03   -0.23466E-04   -0.53707E-05 33768   0.639E-02    0.262E-02
DAV:  19    -0.404613664387E+03   -0.16143E-04   -0.44281E-05 30720   0.504E-02    0.170E-02
DAV:  20    -0.404613672073E+03   -0.76855E-05   -0.19649E-05 27900   0.249E-02
   3 F= -.40461367E+03 E0= -.40461367E+03  d E =-.421385E+00  mag=     0.9999
       N       E                     dE             d eps       ncg     rms          rms(c)
DAV:   1    -0.403187126250E+03    0.14265E+01   -0.48099E+01 47232   0.596E+01    0.437E+00
DAV:   2    -0.405031923612E+03   -0.18448E+01   -0.18776E+01 37056   0.937E+00    0.356E+00
DAV:   3    -0.405050435904E+03   -0.18512E-01   -0.12097E+00 36672   0.537E+00    0.209E+00
DAV:   4    -0.405033132346E+03    0.17304E-01   -0.11157E-01 37680   0.223E+00    0.142E+00
DAV:   5    -0.405039699220E+03   -0.65669E-02   -0.45465E-02 38064   0.141E+00    0.127E+00
DAV:   6    -0.405032165085E+03    0.75341E-02   -0.33531E-02 36744   0.125E+00    0.394E-01
DAV:   7    -0.405032052935E+03    0.11215E-03   -0.70944E-03 39216   0.468E-01    0.227E-01
DAV:   8    -0.405031820980E+03    0.23195E-03   -0.22201E-03 36564   0.282E-01    0.106E-01
DAV:   9    -0.405031766145E+03    0.54835E-04   -0.33720E-04 37164   0.118E-01    0.762E-02
DAV:  10    -0.405031752964E+03    0.13181E-04   -0.25378E-04 36852   0.129E-01    0.536E-02
DAV:  11    -0.405031746152E+03    0.68121E-05   -0.10514E-04 37176   0.739E-02    0.232E-02
DAV:  12    -0.405031752564E+03   -0.64116E-05   -0.29961E-05 29496   0.240E-02
   4 F= -.40503175E+03 E0= -.40503175E+03  d E =-.418080E+00  mag=     1.0000
       N       E                     dE             d eps       ncg     rms          rms(c)
DAV:   1    -0.404987881501E+03    0.43865E-01   -0.27390E+01 38820   0.254E+01    0.155E+00
DAV:   2    -0.405275505327E+03   -0.28762E+00   -0.30086E+00 38016   0.444E+00    0.126E+00
DAV:   3    -0.405276040590E+03   -0.53526E-03   -0.12989E-01 37128   0.192E+00    0.880E-01
DAV:   4    -0.405272216119E+03    0.38245E-02   -0.16046E-02 37824   0.110E+00    0.606E-01
DAV:   5    -0.405272366797E+03   -0.15068E-03   -0.11539E-02 39096   0.731E-01    0.549E-01
DAV:   6    -0.405270621608E+03    0.17452E-02   -0.92609E-03 37344   0.652E-01    0.155E-01
DAV:   7    -0.405270626317E+03   -0.47089E-05   -0.18227E-03 37620   0.217E-01    0.946E-02
DAV:   8    -0.405270607939E+03    0.18378E-04   -0.60699E-04 36576   0.138E-01    0.567E-02
DAV:   9    -0.405270597609E+03    0.10330E-04   -0.11868E-04 36792   0.701E-02    0.370E-02
DAV:  10    -0.405270614885E+03   -0.17276E-04   -0.69365E-05 36636   0.626E-02    0.289E-02
DAV:  11    -0.405270621350E+03   -0.64649E-05   -0.34418E-05 31080   0.452E-02
   5 F= -.40527062E+03 E0= -.40527062E+03  d E =-.238869E+00  mag=     1.0000
       N       E                     dE             d eps       ncg     rms          rms(c)
DAV:   1    -0.404519754746E+03    0.75086E+00   -0.38941E+01 44784   0.481E+01    0.256E+00
DAV:   2    -0.405422334822E+03   -0.90258E+00   -0.93584E+00 37356   0.656E+00    0.159E+00
DAV:   3    -0.405431420330E+03   -0.90855E-02   -0.24229E-01 37428   0.252E+00    0.124E+00
DAV:   4    -0.405427370605E+03    0.40497E-02   -0.41398E-02 38112   0.152E+00    0.901E-01
DAV:   5    -0.405427118416E+03    0.25219E-03   -0.16374E-02 40740   0.907E-01    0.636E-01
DAV:   6    -0.405425543495E+03    0.15749E-02   -0.13941E-02 36912   0.892E-01    0.251E-01
DAV:   7    -0.405425513863E+03    0.29632E-04   -0.37381E-03 37044   0.372E-01    0.133E-01
DAV:   8    -0.405425505404E+03    0.84597E-05   -0.11223E-03 37464   0.199E-01    0.850E-02
DAV:   9    -0.405425493887E+03    0.11516E-04   -0.27724E-04 36816   0.981E-02    0.560E-02
DAV:  10    -0.405425533777E+03   -0.39890E-04   -0.11238E-04 39684   0.765E-02    0.385E-02
DAV:  11    -0.405425555133E+03   -0.21355E-04   -0.75411E-05 37572   0.656E-02    0.285E-02
DAV:  12    -0.405425568554E+03   -0.13421E-04   -0.21370E-05 23484   0.298E-02    0.239E-02
DAV:  13    -0.405425586480E+03   -0.17926E-04   -0.76707E-06 20388   0.214E-02    0.208E-02
DAV:  14    -0.405425615318E+03   -0.28838E-04   -0.16814E-05 27300   0.318E-02    0.163E-02
DAV:  15    -0.405425634641E+03   -0.19323E-04   -0.25776E-05 29160   0.276E-02    0.132E-02
DAV:  16    -0.405425643813E+03   -0.91725E-05   -0.15834E-05 25656   0.153E-02
   6 F= -.40542564E+03 E0= -.40542564E+03  d E =-.155022E+00  mag=     1.0000
       N       E                     dE             d eps       ncg     rms          rms(c)
DAV:   1    -0.402659604129E+03    0.27660E+01   -0.65246E+01 45864   0.892E+01    0.464E+00
DAV:   2    -0.405417799699E+03   -0.27582E+01   -0.28874E+01 37404   0.115E+01    0.285E+00
DAV:   3    -0.405459633805E+03   -0.41834E-01   -0.91613E-01 37728   0.455E+00    0.223E+00
DAV:   4    -0.405439047292E+03    0.20587E-01   -0.10561E-01 37908   0.282E+00    0.151E+00
DAV:   5    -0.405439992457E+03   -0.94516E-03   -0.64006E-02 38148   0.154E+00    0.116E+00
DAV:   6    -0.405433193550E+03    0.67989E-02   -0.40964E-02 37008   0.140E+00    0.450E-01
DAV:   7    -0.405433197490E+03   -0.39400E-05   -0.10300E-02 37140   0.586E-01    0.236E-01
DAV:   8    -0.405433043322E+03    0.15417E-03   -0.33075E-03 36276   0.339E-01    0.129E-01
DAV:   9    -0.405432939494E+03    0.10383E-03   -0.58514E-04 36852   0.130E-01    0.793E-02
DAV:  10    -0.405432937150E+03    0.23441E-05   -0.27825E-04 38676   0.989E-02    0.478E-02
DAV:  11    -0.405432947859E+03   -0.10709E-04   -0.15747E-04 38064   0.899E-02    0.293E-02
DAV:  12    -0.405432954736E+03   -0.68777E-05   -0.34795E-05 30144   0.385E-02
   7 F= -.40543295E+03 E0= -.40543295E+03  d E =-.731092E-02  mag=     1.0000
       N       E                     dE             d eps       ncg     rms          rms(c)
DAV:   1    -0.404519215302E+03    0.91373E+00   -0.17924E+01 48756   0.564E+01    0.280E+00
DAV:   2    -0.405550919010E+03   -0.10317E+01   -0.10838E+01 37320   0.663E+00    0.159E+00
DAV:   3    -0.405562750326E+03   -0.11831E-01   -0.22615E-01 37872   0.194E+00    0.118E+00
DAV:   4    -0.405561302025E+03    0.14483E-02   -0.35498E-02 37176   0.142E+00    0.941E-01
DAV:   5    -0.405560393767E+03    0.90826E-03   -0.19982E-02 38268   0.980E-01    0.570E-01
DAV:   6    -0.405559073689E+03    0.13201E-02   -0.11027E-02 39600   0.738E-01    0.237E-01
DAV:   7    -0.405558976902E+03    0.96786E-04   -0.28491E-03 37068   0.323E-01    0.115E-01
DAV:   8    -0.405558939578E+03    0.37324E-04   -0.72876E-04 36960   0.172E-01    0.757E-02
DAV:   9    -0.405558903132E+03    0.36447E-04   -0.16669E-04 37068   0.821E-02    0.469E-02
DAV:  10    -0.405558896930E+03    0.62022E-05   -0.10609E-04 37968   0.569E-02    0.243E-02
DAV:  11    -0.405558900610E+03   -0.36802E-05   -0.44311E-05 32592   0.432E-02
   8 F= -.40555890E+03 E0= -.40555890E+03  d E =-.125946E+00  mag=     1.0000
       N       E                     dE             d eps       ncg     rms          rms(c)
DAV:   1    -0.405518258910E+03    0.40638E-01   -0.24408E+00 45156   0.120E+01    0.621E-01
DAV:   2    -0.405573560684E+03   -0.55302E-01   -0.57326E-01 37032   0.164E+00    0.395E-01
DAV:   3    -0.405574004818E+03   -0.44413E-03   -0.13035E-02 37692   0.444E-01    0.292E-01
DAV:   4    -0.405573868897E+03    0.13592E-03   -0.19930E-03 38580   0.371E-01    0.238E-01
DAV:   5    -0.405573730085E+03    0.13881E-03   -0.13786E-03 39984   0.269E-01    0.143E-01
DAV:   6    -0.405573641597E+03    0.88488E-04   -0.93507E-04 37476   0.195E-01    0.583E-02
DAV:   7    -0.405573643805E+03   -0.22077E-05   -0.21457E-04 37476   0.821E-02    0.326E-02
DAV:   8    -0.405573642757E+03    0.10480E-05   -0.44941E-05 32664   0.418E-02
   9 F= -.40557364E+03 E0= -.40557364E+03  d E =-.147421E-01  mag=     1.0000
       N       E                     dE             d eps       ncg     rms          rms(c)
DAV:   1    -0.405481453360E+03    0.92190E-01   -0.73027E+00 44028   0.169E+01    0.880E-01
DAV:   2    -0.405597876172E+03   -0.11642E+00   -0.11935E+00 36816   0.247E+00    0.528E-01
DAV:   3    -0.405598540939E+03   -0.66477E-03   -0.27287E-02 37140   0.716E-01    0.389E-01
DAV:   4    -0.405598171687E+03    0.36925E-03   -0.46327E-03 39816   0.558E-01    0.305E-01
DAV:   5    -0.405597798589E+03    0.37310E-03   -0.24631E-03 40020   0.332E-01    0.177E-01
DAV:   6    -0.405597759411E+03    0.39178E-04   -0.17556E-03 37908   0.256E-01    0.994E-02
DAV:   7    -0.405597754295E+03    0.51156E-05   -0.44893E-04 37392   0.126E-01    0.487E-02
DAV:   8    -0.405597759728E+03   -0.54324E-05   -0.10487E-04 36792   0.649E-02    0.342E-02
DAV:   9    -0.405597765093E+03   -0.53649E-05   -0.45211E-05 31620   0.436E-02
  10 F= -.40559777E+03 E0= -.40559777E+03  d E =-.241223E-01  mag=     1.0000
       N       E                     dE             d eps       ncg     rms          rms(c)
DAV:   1    -0.405165091343E+03    0.43267E+00   -0.11933E+01 45744   0.347E+01    0.175E+00
DAV:   2    -0.405593671810E+03   -0.42858E+00   -0.44286E+00 37656   0.451E+00    0.108E+00
DAV:   3    -0.405598781064E+03   -0.51093E-02   -0.11432E-01 37164   0.165E+00    0.807E-01
DAV:   4    -0.405596709119E+03    0.20719E-02   -0.16169E-02 37344   0.108E+00    0.580E-01
DAV:   5    -0.405596788186E+03   -0.79067E-04   -0.86303E-03 38388   0.578E-01    0.391E-01
DAV:   6    -0.405596188180E+03    0.60001E-03   -0.50487E-03 38016   0.522E-01    0.170E-01
DAV:   7    -0.405596133007E+03    0.55173E-04   -0.12201E-03 36828   0.204E-01    0.786E-02
DAV:   8    -0.405596129099E+03    0.39085E-05   -0.34913E-04 36384   0.111E-01    0.504E-02
DAV:   9    -0.405596117898E+03    0.11200E-04   -0.77753E-05 34944   0.647E-02    0.308E-02
DAV:  10    -0.405596123555E+03   -0.56562E-05   -0.45779E-05 33660   0.507E-02
  11 F= -.40559612E+03 E0= -.40559612E+03  d E =0.164154E-02  mag=     1.0000
       N       E                     dE             d eps       ncg     rms          rms(c)
DAV:   1    -0.405278852510E+03    0.31727E+00   -0.58643E+00 49968   0.328E+01    0.158E+00
DAV:   2    -0.405618349581E+03   -0.33950E+00   -0.35577E+00 38268   0.384E+00    0.917E-01
DAV:   3    -0.405623275387E+03   -0.49258E-02   -0.84117E-02 38076   0.136E+00    0.705E-01
DAV:   4    -0.405622013587E+03    0.12618E-02   -0.12229E-02 37536   0.920E-01    0.521E-01
DAV:   5    -0.405621913321E+03    0.10027E-03   -0.59964E-03 38448   0.481E-01    0.347E-01
DAV:   6    -0.405621474445E+03    0.43888E-03   -0.38868E-03 36492   0.503E-01    0.156E-01
DAV:   7    -0.405621410422E+03    0.64023E-04   -0.94734E-04 37200   0.207E-01    0.578E-02
DAV:   8    -0.405621409642E+03    0.77966E-06   -0.21753E-04 36972   0.806E-02    0.388E-02
DAV:   9    -0.405621402236E+03    0.74067E-05   -0.56884E-05 34776   0.525E-02
  12 F= -.40562140E+03 E0= -.40562140E+03  d E =-.252787E-01  mag=     1.0000
       N       E                     dE             d eps       ncg     rms          rms(c)
DAV:   1    -0.405599620729E+03    0.21789E-01   -0.10700E+00 45108   0.739E+00    0.375E-01
DAV:   2    -0.405621077044E+03   -0.21456E-01   -0.22100E-01 37296   0.104E+00    0.230E-01
DAV:   3    -0.405621236269E+03   -0.15922E-03   -0.52301E-03 37248   0.356E-01    0.170E-01
DAV:   4    -0.405621142216E+03    0.94053E-04   -0.85690E-04 38844   0.231E-01    0.126E-01
DAV:   5    -0.405621058319E+03    0.83897E-04   -0.40816E-04 39804   0.124E-01    0.515E-02
DAV:   6    -0.405621079717E+03   -0.21399E-04   -0.24467E-04 38352   0.871E-02    0.421E-02
DAV:   7    -0.405621073753E+03    0.59642E-05   -0.76576E-05 34596   0.547E-02
  13 F= -.40562107E+03 E0= -.40562107E+03  d E =0.328482E-03  mag=     1.0000
       N       E                     dE             d eps       ncg     rms          rms(c)
DAV:   1    -0.405602203875E+03    0.18876E-01   -0.72854E-01 45576   0.708E+00    0.347E-01
DAV:   2    -0.405620642894E+03   -0.18439E-01   -0.18858E-01 37524   0.936E-01    0.194E-01
DAV:   3    -0.405620796918E+03   -0.15402E-03   -0.35462E-03 37236   0.231E-01    0.138E-01
DAV:   4    -0.405620792370E+03    0.45483E-05   -0.67119E-04 38184   0.209E-01    0.115E-01
DAV:   5    -0.405620732777E+03    0.59593E-04   -0.31312E-04 39816   0.138E-01    0.435E-02
DAV:   6    -0.405620748154E+03   -0.15377E-04   -0.17384E-04 37788   0.710E-02    0.374E-02
DAV:   7    -0.405620742994E+03    0.51595E-05   -0.44348E-05 31764   0.422E-02
  14 F= -.40562074E+03 E0= -.40562074E+03  d E =0.330759E-03  mag=     1.0000
       N       E                     dE             d eps       ncg     rms          rms(c)
DAV:   1    -0.405450180155E+03    0.17057E+00   -0.71696E+00 45528   0.210E+01    0.103E+00
DAV:   2    -0.405618560877E+03   -0.16838E+00   -0.17088E+00 36852   0.280E+00    0.560E-01
DAV:   3    -0.405619276987E+03   -0.71611E-03   -0.24000E-02 38772   0.554E-01    0.396E-01
DAV:   4    -0.405619423568E+03   -0.14658E-03   -0.51967E-03 39192   0.600E-01    0.353E-01
DAV:   5    -0.405618826378E+03    0.59719E-03   -0.29941E-03 39132   0.427E-01    0.140E-01
DAV:   6    -0.405618839118E+03   -0.12741E-04   -0.12842E-03 38160   0.238E-01    0.890E-02
DAV:   7    -0.405618820694E+03    0.18425E-04   -0.39392E-04 36552   0.124E-01    0.419E-02
DAV:   8    -0.405618813769E+03    0.69246E-05   -0.56855E-05 33360   0.410E-02
  15 F= -.40561881E+03 E0= -.40561881E+03  d E =0.192922E-02  mag=     1.0000
       N       E                     dE             d eps       ncg     rms          rms(c)
DAV:   1    -0.405310206960E+03    0.30861E+00   -0.11332E+01 45600   0.281E+01    0.140E+00
DAV:   2    -0.405611960311E+03   -0.30175E+00   -0.30754E+00 36660   0.373E+00    0.809E-01
DAV:   3    -0.405614066520E+03   -0.21062E-02   -0.56821E-02 36972   0.112E+00    0.581E-01
DAV:   4    -0.405613458970E+03    0.60755E-03   -0.10482E-02 38700   0.805E-01    0.454E-01
DAV:   5    -0.405612546483E+03    0.91249E-03   -0.45511E-03 43020   0.462E-01    0.154E-01
DAV:   6    -0.405612768688E+03   -0.22220E-03   -0.21480E-03 38508   0.257E-01    0.119E-01
DAV:   7    -0.405612722324E+03    0.46365E-04   -0.69934E-04 36396   0.165E-01    0.580E-02
DAV:   8    -0.405612707422E+03    0.14902E-04   -0.10275E-04 35736   0.613E-02    0.364E-02
DAV:   9    -0.405612697435E+03    0.99867E-05   -0.46079E-05 32520   0.459E-02
  16 F= -.40561270E+03 E0= -.40561270E+03  d E =0.611633E-02  mag=     1.0000
       N       E                     dE             d eps       ncg     rms          rms(c)
DAV:   1    -0.405551220940E+03    0.61486E-01   -0.18804E+00 45732   0.138E+01    0.673E-01
DAV:   2    -0.405620081613E+03   -0.68861E-01   -0.71280E-01 37764   0.173E+00    0.380E-01
DAV:   3    -0.405620441925E+03   -0.36031E-03   -0.10356E-02 37800   0.416E-01    0.272E-01
DAV:   4    -0.405620417941E+03    0.23984E-04   -0.20124E-03 38352   0.386E-01    0.224E-01
DAV:   5    -0.405620236612E+03    0.18133E-03   -0.10846E-03 39720   0.260E-01    0.893E-02
DAV:   6    -0.405620244849E+03   -0.82368E-05   -0.54745E-04 38124   0.148E-01    0.622E-02
DAV:   7    -0.405620229528E+03    0.15321E-04   -0.14510E-04 36120   0.711E-02    0.261E-02
DAV:   8    -0.405620226770E+03    0.27582E-05   -0.26785E-05 27732   0.292E-02
  17 F= -.40562023E+03 E0= -.40562023E+03  d E =-.752933E-02  mag=     1.0000
       N       E                     dE             d eps       ncg     rms          rms(c)
DAV:   1    -0.405614625540E+03    0.56040E-02   -0.20771E-01 46044   0.448E+00    0.221E-01
DAV:   2    -0.405621829805E+03   -0.72043E-02   -0.74449E-02 37176   0.570E-01    0.135E-01
DAV:   3    -0.405621907432E+03   -0.77627E-04   -0.16999E-03 37164   0.185E-01    0.104E-01
DAV:   4    -0.405621885955E+03    0.21477E-04   -0.28064E-04 37800   0.126E-01    0.800E-02
DAV:   5    -0.405621878806E+03    0.71490E-05   -0.14006E-04 38940   0.819E-02    0.540E-02
DAV:   6    -0.405621865804E+03    0.13003E-04   -0.10447E-04 36192   0.808E-02    0.190E-02
DAV:   7    -0.405621866669E+03   -0.86559E-06   -0.23650E-05 25704   0.289E-02
  18 F= -.40562187E+03 E0= -.40562187E+03  d E =-.163990E-02  mag=     1.0000
