       N       E                     dE             d eps       ncg     rms          rms(c)
DAV:   1     0.573226864169E+04    0.57323E+04   -0.20936E+05 43344   0.159E+03
DAV:   2     0.360487187881E+03   -0.53718E+04   -0.48689E+04 42704   0.482E+02
DAV:   3    -0.442236995075E+03   -0.80272E+03   -0.75394E+03 45424   0.195E+02
DAV:   4    -0.484188258135E+03   -0.41951E+02   -0.41469E+02 47864   0.455E+01
DAV:   5    -0.484710482579E+03   -0.52222E+00   -0.52116E+00 46504   0.556E+00    0.116E+02
DAV:   6    -0.408372002747E+03    0.76338E+02   -0.53856E+02 52720   0.912E+01    0.112E+02
DAV:   7    -0.398630755217E+03    0.97412E+01   -0.29419E+02 47664   0.931E+01    0.700E+01
DAV:   8    -0.391524966928E+03    0.71058E+01   -0.58626E+01 51384   0.325E+01    0.511E+01
DAV:   9    -0.395539939081E+03   -0.40150E+01   -0.10265E+02 46072   0.355E+01    0.479E+01
DAV:  10    -0.387274358735E+03    0.82656E+01   -0.16912E+01 48424   0.169E+01    0.264E+01
DAV:  11    -0.387513644300E+03   -0.23929E+00   -0.14699E+01 47128   0.121E+01    0.221E+01
DAV:  12    -0.389101985749E+03   -0.15883E+01   -0.16636E+00 46888   0.503E+00    0.138E+01
DAV:  13    -0.389501065181E+03   -0.39908E+00   -0.73840E-01 51512   0.398E+00    0.802E+00
DAV:  14    -0.389437834766E+03    0.63230E-01   -0.31245E-01 47208   0.267E+00    0.474E+00
DAV:  15    -0.389357613950E+03    0.80221E-01   -0.99028E-02 49088   0.216E+00    0.311E+00
DAV:  16    -0.389331086601E+03    0.26527E-01   -0.51452E-02 52912   0.127E+00    0.175E+00
DAV:  17    -0.389326499979E+03    0.45866E-02   -0.26781E-02 50072   0.649E-01    0.115E+00
DAV:  18    -0.389324079151E+03    0.24208E-02   -0.59273E-03 47928   0.452E-01    0.676E-01
DAV:  19    -0.389323273150E+03    0.80600E-03   -0.43135E-03 48544   0.241E-01    0.442E-01
DAV:  20    -0.389323190438E+03    0.82712E-04   -0.18025E-03 48928   0.174E-01    0.370E-01
DAV:  21    -0.389322911074E+03    0.27936E-03   -0.43810E-04 48712   0.138E-01    0.208E-01
DAV:  22    -0.389322755436E+03    0.15564E-03   -0.25423E-04 47816   0.972E-02    0.106E-01
DAV:  23    -0.389322722858E+03    0.32578E-04   -0.17856E-04 47864   0.534E-02    0.520E-02
DAV:  24    -0.389322719464E+03    0.33938E-05   -0.46413E-05 42072   0.228E-02
   1 F= -.38932272E+03 E0= -.38932272E+03  d E =-.389323E+03  mag=    48.9970
       N       E                     dE             d eps       ncg     rms          rms(c)
DAV:   1    -0.389323539485E+03   -0.81663E-03   -0.48203E-03 61336   0.480E-01    0.533E-02
DAV:   2    -0.389323660573E+03   -0.12109E-03   -0.11612E-03 45816   0.832E-02    0.398E-02
DAV:   3    -0.389323668221E+03   -0.76471E-05   -0.70109E-05 41792   0.346E-02    0.281E-02
DAV:   4    -0.389323667797E+03    0.42371E-06   -0.42827E-06 23928   0.944E-03
   2 F= -.38932367E+03 E0= -.38932367E+03  d E =-.948333E-03  mag=    48.9997
       N       E                     dE             d eps       ncg     rms          rms(c)
DAV:   1    -0.389300223148E+03    0.23445E-01   -0.13468E+00 60904   0.796E+00    0.822E-01
DAV:   2    -0.389333537341E+03   -0.33314E-01   -0.31939E-01 45816   0.130E+00    0.521E-01
DAV:   3    -0.389335575214E+03   -0.20379E-02   -0.12036E-02 44112   0.357E-01    0.287E-01
DAV:   4    -0.389335511319E+03    0.63895E-04   -0.85976E-04 49128   0.115E-01    0.164E-01
DAV:   5    -0.389335406207E+03    0.10511E-03   -0.24453E-04 49256   0.771E-02    0.997E-02
DAV:   6    -0.389335402386E+03    0.38204E-05   -0.12736E-04 52856   0.546E-02    0.409E-02
DAV:   7    -0.389335408071E+03   -0.56843E-05   -0.52233E-05 44976   0.252E-02
   3 F= -.38933541E+03 E0= -.38933541E+03  d E =-.117403E-01  mag=    49.0000
       N       E                     dE             d eps       ncg     rms          rms(c)
DAV:   1    -0.389302377316E+03    0.33025E-01   -0.21390E+00 57344   0.843E+00    0.862E-01
DAV:   2    -0.389340982031E+03   -0.38605E-01   -0.36809E-01 45728   0.143E+00    0.567E-01
DAV:   3    -0.389342962788E+03   -0.19808E-02   -0.12906E-02 44152   0.379E-01    0.313E-01
DAV:   4    -0.389342860052E+03    0.10274E-03   -0.97926E-04 49328   0.125E-01    0.183E-01
DAV:   5    -0.389342710656E+03    0.14940E-03   -0.31164E-04 51248   0.869E-02    0.107E-01
DAV:   6    -0.389342710841E+03   -0.18474E-06   -0.18103E-04 51392   0.579E-02    0.432E-02
DAV:   7    -0.389342716875E+03   -0.60342E-05   -0.62489E-05 45368   0.284E-02
   4 F= -.38934272E+03 E0= -.38934272E+03  d E =-.730880E-02  mag=    49.0000
       N       E                     dE             d eps       ncg     rms          rms(c)
DAV:   1    -0.389323048767E+03    0.19662E-01   -0.20059E+00 53856   0.636E+00    0.646E-01
DAV:   2    -0.389346100531E+03   -0.23052E-01   -0.21863E-01 46016   0.113E+00    0.418E-01
DAV:   3    -0.389346954760E+03   -0.85423E-03   -0.62831E-03 44656   0.271E-01    0.234E-01
DAV:   4    -0.389346856406E+03    0.98354E-04   -0.51258E-04 49552   0.902E-02    0.138E-01
DAV:   5    -0.389346733661E+03    0.12274E-03   -0.21619E-04 52640   0.701E-02    0.749E-02
DAV:   6    -0.389346737809E+03   -0.41476E-05   -0.13702E-04 49048   0.421E-02    0.332E-02
DAV:   7    -0.389346740071E+03   -0.22620E-05   -0.31421E-05 39880   0.215E-02
   5 F= -.38934674E+03 E0= -.38934674E+03  d E =-.402320E-02  mag=    49.0000
       N       E                     dE             d eps       ncg     rms          rms(c)
DAV:   1    -0.389300340468E+03    0.46397E-01   -0.46064E+00 51784   0.897E+00    0.922E-01
DAV:   2    -0.389349603305E+03   -0.49263E-01   -0.47246E-01 45800   0.167E+00    0.554E-01
DAV:   3    -0.389351134843E+03   -0.15315E-02   -0.12347E-02 44704   0.372E-01    0.326E-01
DAV:   4    -0.389350934285E+03    0.20056E-03   -0.10819E-03 50000   0.124E-01    0.206E-01
DAV:   5    -0.389350642580E+03    0.29170E-03   -0.40350E-04 50880   0.985E-02    0.110E-01
DAV:   6    -0.389350644527E+03   -0.19467E-05   -0.30564E-04 50640   0.608E-02    0.420E-02
DAV:   7    -0.389350650834E+03   -0.63074E-05   -0.69300E-05 45304   0.297E-02
   6 F= -.38935065E+03 E0= -.38935065E+03  d E =-.391076E-02  mag=    49.0000
       N       E                     dE             d eps       ncg     rms          rms(c)
DAV:   1    -0.389320951689E+03    0.29693E-01   -0.33575E+00 50128   0.729E+00    0.724E-01
DAV:   2    -0.389350669412E+03   -0.29718E-01   -0.28638E-01 45504   0.135E+00    0.443E-01
DAV:   3    -0.389351668378E+03   -0.99897E-03   -0.79523E-03 44992   0.313E-01    0.269E-01
DAV:   4    -0.389351526763E+03    0.14162E-03   -0.68080E-04 49480   0.106E-01    0.157E-01
DAV:   5    -0.389351349503E+03    0.17726E-03   -0.29416E-04 49816   0.774E-02    0.881E-02
DAV:   6    -0.389351348690E+03    0.81346E-06   -0.19121E-04 51216   0.492E-02    0.403E-02
DAV:   7    -0.389351353994E+03   -0.53047E-05   -0.48562E-05 44088   0.238E-02
   7 F= -.38935135E+03 E0= -.38935135E+03  d E =-.703160E-03  mag=    49.0000
       N       E                     dE             d eps       ncg     rms          rms(c)
DAV:   1    -0.389296633579E+03    0.54715E-01   -0.41058E+00 54544   0.970E+00    0.985E-01
DAV:   2    -0.389349936406E+03   -0.53303E-01   -0.50864E-01 45656   0.173E+00    0.585E-01
DAV:   3    -0.389352160538E+03   -0.22241E-02   -0.14773E-02 44192   0.389E-01    0.326E-01
DAV:   4    -0.389351993320E+03    0.16722E-03   -0.11870E-03 49968   0.125E-01    0.209E-01
DAV:   5    -0.389351761676E+03    0.23164E-03   -0.36061E-04 49856   0.962E-02    0.119E-01
DAV:   6    -0.389351758456E+03    0.32202E-05   -0.25280E-04 51848   0.650E-02    0.472E-02
DAV:   7    -0.389351766936E+03   -0.84804E-05   -0.79932E-05 45632   0.302E-02
   8 F= -.38935177E+03 E0= -.38935177E+03  d E =-.412942E-03  mag=    49.0000
       N       E                     dE             d eps       ncg     rms          rms(c)
DAV:   1    -0.389340093273E+03    0.11665E-01   -0.78605E-01 52920   0.459E+00    0.500E-01
DAV:   2    -0.389352792337E+03   -0.12699E-01   -0.12136E-01 45880   0.833E-01    0.277E-01
DAV:   3    -0.389353296467E+03   -0.50413E-03   -0.35772E-03 44432   0.200E-01    0.159E-01
DAV:   4    -0.389353258401E+03    0.38066E-04   -0.29422E-04 50144   0.623E-02    0.104E-01
DAV:   5    -0.389353194268E+03    0.64133E-04   -0.81956E-05 47960   0.465E-02    0.598E-02
DAV:   6    -0.389353188365E+03    0.59030E-05   -0.63582E-05 48216   0.342E-02
   9 F= -.38935319E+03 E0= -.38935319E+03  d E =-.142143E-02  mag=    49.0000
       N       E                     dE             d eps       ncg     rms          rms(c)
DAV:   1    -0.389351457638E+03    0.17366E-02   -0.13061E-01 56872   0.195E+00    0.206E-01
DAV:   2    -0.389353602728E+03   -0.21451E-02   -0.20366E-02 45784   0.340E-01    0.113E-01
DAV:   3    -0.389353699766E+03   -0.97038E-04   -0.61282E-04 44520   0.795E-02    0.632E-02
DAV:   4    -0.389353694439E+03    0.53275E-05   -0.43885E-05 39488   0.224E-02
  10 F= -.38935369E+03 E0= -.38935369E+03  d E =-.506074E-03  mag=    49.0000
       N       E                     dE             d eps       ncg     rms          rms(c)
DAV:   1    -0.389349547810E+03    0.41520E-02   -0.37366E-01 53904   0.280E+00    0.287E-01
DAV:   2    -0.389353977767E+03   -0.44300E-02   -0.42122E-02 45720   0.506E-01    0.165E-01
DAV:   3    -0.389354124774E+03   -0.14701E-03   -0.11177E-03 44688   0.107E-01    0.917E-02
DAV:   4    -0.389354107217E+03    0.17557E-04   -0.91366E-05 49496   0.328E-02    0.620E-02
DAV:   5    -0.389354084239E+03    0.22977E-04   -0.32422E-05 39616   0.322E-02    0.338E-02
DAV:   6    -0.389354085200E+03   -0.96077E-06   -0.25776E-05 33344   0.206E-02
  11 F= -.38935409E+03 E0= -.38935409E+03  d E =-.390761E-03  mag=    49.0000
