       N       E                     dE             d eps       ncg     rms          rms(c)
DAV:   1     0.103677804509E+05    0.10368E+05   -0.37713E+05 31990   0.141E+03
DAV:   2     0.522371037231E+03   -0.98454E+04   -0.92909E+04 31400   0.452E+02
DAV:   3    -0.854052548060E+03   -0.13764E+04   -0.12737E+04 34760   0.172E+02
DAV:   4    -0.937949226649E+03   -0.83897E+02   -0.81597E+02 39250   0.446E+01
DAV:   5    -0.940440981998E+03   -0.24918E+01   -0.24847E+01 38460   0.833E+00    0.189E+02
DAV:   6    -0.424804776620E+03    0.51564E+03   -0.12084E+03 38880   0.767E+01    0.913E+01
DAV:   7    -0.658707627587E+03   -0.23390E+03   -0.39666E+02 40080   0.617E+01    0.780E+01
DAV:   8    -0.686797050959E+03   -0.28089E+02   -0.53140E+01 41130   0.193E+01    0.510E+01
DAV:   9    -0.735281907177E+03   -0.48485E+02   -0.42886E+01 39980   0.146E+01    0.369E+01
DAV:  10    -0.770416902583E+03   -0.35135E+02   -0.36376E+01 41330   0.148E+01    0.335E+01
DAV:  11    -0.790471605818E+03   -0.20055E+02   -0.32640E+01 39400   0.109E+01    0.187E+01
DAV:  12    -0.793666229726E+03   -0.31946E+01   -0.80828E+00 40410   0.786E+00    0.118E+01
DAV:  13    -0.795179127963E+03   -0.15129E+01   -0.26363E+00 40250   0.490E+00    0.745E+00
DAV:  14    -0.795719563480E+03   -0.54044E+00   -0.72581E-01 37380   0.236E+00    0.490E+00
DAV:  15    -0.796175375641E+03   -0.45581E+00   -0.44639E-01 41320   0.205E+00    0.308E+00
DAV:  16    -0.796279100859E+03   -0.10373E+00   -0.17024E-01 37330   0.122E+00    0.145E+00
DAV:  17    -0.796301851848E+03   -0.22751E-01   -0.42123E-02 34260   0.564E-01    0.977E-01
DAV:  18    -0.796313594395E+03   -0.11743E-01   -0.11294E-02 35700   0.310E-01    0.720E-01
DAV:  19    -0.796322026889E+03   -0.84325E-02   -0.60518E-03 38130   0.242E-01    0.515E-01
DAV:  20    -0.796327774565E+03   -0.57477E-02   -0.48340E-03 38080   0.200E-01    0.405E-01
DAV:  21    -0.796331345409E+03   -0.35708E-02   -0.33199E-03 38950   0.142E-01    0.342E-01
DAV:  22    -0.796334832973E+03   -0.34876E-02   -0.20616E-03 39870   0.122E-01    0.302E-01
DAV:  23    -0.796339299240E+03   -0.44663E-02   -0.44869E-03 42960   0.190E-01    0.236E-01
DAV:  24    -0.796342363841E+03   -0.30646E-02   -0.57456E-03 41510   0.189E-01    0.194E-01
DAV:  25    -0.796344037139E+03   -0.16733E-02   -0.29379E-03 39890   0.132E-01    0.138E-01
DAV:  26    -0.796344893212E+03   -0.85607E-03   -0.15085E-03 37230   0.803E-02    0.105E-01
DAV:  27    -0.796345279713E+03   -0.38650E-03   -0.46229E-04 36270   0.448E-02    0.749E-02
DAV:  28    -0.796345504405E+03   -0.22469E-03   -0.22352E-04 35830   0.372E-02    0.636E-02
DAV:  29    -0.796345667909E+03   -0.16350E-03   -0.17713E-04 34990   0.337E-02    0.534E-02
DAV:  30    -0.796345805711E+03   -0.13780E-03   -0.17233E-04 35440   0.315E-02    0.455E-02
DAV:  31    -0.796345923308E+03   -0.11760E-03   -0.15770E-04 35100   0.307E-02    0.389E-02
DAV:  32    -0.796346015984E+03   -0.92676E-04   -0.16878E-04 35590   0.305E-02    0.309E-02
DAV:  33    -0.796346081646E+03   -0.65662E-04   -0.12821E-04 33630   0.242E-02    0.239E-02
DAV:  34    -0.796346119647E+03   -0.38001E-04   -0.54354E-05 26380   0.136E-02    0.191E-02
DAV:  35    -0.796346135363E+03   -0.15716E-04   -0.10641E-05 20990   0.750E-03    0.160E-02
DAV:  36    -0.796346149413E+03   -0.14050E-04   -0.18664E-05 24250   0.132E-02    0.139E-02
DAV:  37    -0.796346162785E+03   -0.13372E-04   -0.35192E-05 26860   0.995E-03    0.126E-02
DAV:  38    -0.796346170891E+03   -0.81057E-05   -0.76412E-06 20430   0.544E-03
   1 F= -.79634617E+03 E0= -.79634617E+03  d E =-.796346E+03  mag=    46.9998
       N       E                     dE             d eps       ncg     rms          rms(c)
DAV:   1    -0.796355425840E+03   -0.92631E-02   -0.19535E-02 35880   0.492E-01    0.620E-02
DAV:   2    -0.796355691765E+03   -0.26593E-03   -0.28630E-03 33770   0.101E-01    0.540E-02
DAV:   3    -0.796355707838E+03   -0.16073E-04   -0.11199E-04 36460   0.279E-02    0.286E-02
DAV:   4    -0.796355707722E+03    0.11628E-06   -0.90591E-06 18860   0.109E-02
   2 F= -.79635571E+03 E0= -.79635571E+03  d E =-.953683E-02  mag=    47.0000
       N       E                     dE             d eps       ncg     rms          rms(c)
DAV:   1    -0.796250843301E+03    0.10486E+00   -0.24948E+01 35340   0.176E+01    0.219E+00
DAV:   2    -0.796585036831E+03   -0.33419E+00   -0.36387E+00 34230   0.361E+00    0.189E+00
DAV:   3    -0.796604633722E+03   -0.19597E-01   -0.14162E-01 40760   0.977E-01    0.984E-01
DAV:   4    -0.796602979151E+03    0.16546E-02   -0.14999E-02 43810   0.373E-01    0.807E-01
DAV:   5    -0.796602276150E+03    0.70300E-03   -0.13056E-02 39850   0.311E-01    0.290E-01
DAV:   6    -0.796602515181E+03   -0.23903E-03   -0.20302E-03 38300   0.149E-01    0.166E-01
DAV:   7    -0.796602616300E+03   -0.10112E-03   -0.12360E-03 38580   0.763E-02    0.979E-02
DAV:   8    -0.796602686810E+03   -0.70510E-04   -0.11676E-04 37580   0.375E-02    0.721E-02
DAV:   9    -0.796602758710E+03   -0.71899E-04   -0.93059E-05 40060   0.307E-02    0.518E-02
DAV:  10    -0.796602807718E+03   -0.49008E-04   -0.45726E-05 30020   0.185E-02    0.422E-02
DAV:  11    -0.796602848501E+03   -0.40783E-04   -0.29305E-05 25440   0.147E-02    0.362E-02
DAV:  12    -0.796602898342E+03   -0.49841E-04   -0.39654E-05 32660   0.176E-02    0.298E-02
DAV:  13    -0.796602942278E+03   -0.43936E-04   -0.64753E-05 34270   0.210E-02    0.236E-02
DAV:  14    -0.796602971267E+03   -0.28989E-04   -0.55163E-05 30900   0.176E-02    0.201E-02
DAV:  15    -0.796602988105E+03   -0.16837E-04   -0.27265E-05 24650   0.110E-02    0.148E-02
DAV:  16    -0.796602997044E+03   -0.89393E-05   -0.86428E-06 19990   0.661E-03
   3 F= -.79660300E+03 E0= -.79660300E+03  d E =-.247289E+00  mag=    47.0000
       N       E                     dE             d eps       ncg     rms          rms(c)
DAV:   1    -0.796347867850E+03    0.25512E+00   -0.24389E+01 35060   0.169E+01    0.209E+00
DAV:   2    -0.796659960894E+03   -0.31209E+00   -0.33738E+00 34650   0.356E+00    0.192E+00
DAV:   3    -0.796677274229E+03   -0.17313E-01   -0.13773E-01 40700   0.971E-01    0.975E-01
DAV:   4    -0.796675799616E+03    0.14746E-02   -0.13834E-02 43920   0.364E-01    0.823E-01
DAV:   5    -0.796674987728E+03    0.81189E-03   -0.12609E-02 39790   0.304E-01    0.289E-01
DAV:   6    -0.796675209159E+03   -0.22143E-03   -0.19420E-03 38940   0.143E-01    0.162E-01
DAV:   7    -0.796675287797E+03   -0.78638E-04   -0.12128E-03 38260   0.750E-02    0.968E-02
DAV:   8    -0.796675346293E+03   -0.58496E-04   -0.10485E-04 37920   0.360E-02    0.687E-02
DAV:   9    -0.796675412258E+03   -0.65965E-04   -0.82458E-05 38790   0.296E-02    0.500E-02
DAV:  10    -0.796675457458E+03   -0.45201E-04   -0.43381E-05 29010   0.180E-02    0.404E-02
DAV:  11    -0.796675493382E+03   -0.35924E-04   -0.27281E-05 24810   0.135E-02    0.348E-02
DAV:  12    -0.796675541011E+03   -0.47629E-04   -0.36848E-05 31020   0.178E-02    0.285E-02
DAV:  13    -0.796675580186E+03   -0.39174E-04   -0.67496E-05 33550   0.201E-02    0.225E-02
DAV:  14    -0.796675604619E+03   -0.24433E-04   -0.48214E-05 28860   0.167E-02    0.183E-02
DAV:  15    -0.796675618176E+03   -0.13557E-04   -0.26271E-05 24430   0.107E-02    0.132E-02
DAV:  16    -0.796675625172E+03   -0.69957E-05   -0.81515E-06 19330   0.637E-03
   4 F= -.79667563E+03 E0= -.79667563E+03  d E =-.726281E-01  mag=    47.0000
       N       E                     dE             d eps       ncg     rms          rms(c)
DAV:   1    -0.796673509105E+03    0.21091E-02   -0.75271E-01 34790   0.241E+00    0.274E-01
DAV:   2    -0.796679137573E+03   -0.56285E-02   -0.58983E-02 33390   0.489E-01    0.274E-01
DAV:   3    -0.796679325273E+03   -0.18770E-03   -0.19398E-03 38810   0.127E-01    0.138E-01
DAV:   4    -0.796679303742E+03    0.21531E-04   -0.19496E-04 42520   0.479E-02    0.124E-01
DAV:   5    -0.796679283626E+03    0.20115E-04   -0.20126E-04 39590   0.391E-02    0.396E-02
DAV:   6    -0.796679291110E+03   -0.74837E-05   -0.44296E-05 33090   0.186E-02
   5 F= -.79667929E+03 E0= -.79667929E+03  d E =-.366594E-02  mag=    47.0000
       N       E                     dE             d eps       ncg     rms          rms(c)
DAV:   1    -0.795729539344E+03    0.94974E+00   -0.12415E+02 34330   0.302E+01    0.337E+00
DAV:   2    -0.796608787896E+03   -0.87925E+00   -0.90407E+00 33270   0.583E+00    0.290E+00
DAV:   3    -0.796637424894E+03   -0.28637E-01   -0.21975E-01 36960   0.135E+00    0.144E+00
DAV:   4    -0.796634558291E+03    0.28666E-02   -0.22969E-02 42310   0.537E-01    0.127E+00
DAV:   5    -0.796632873749E+03    0.16845E-02   -0.18914E-02 41870   0.392E-01    0.389E-01
DAV:   6    -0.796634272584E+03   -0.13988E-02   -0.50428E-03 40120   0.179E-01    0.213E-01
DAV:   7    -0.796634384041E+03   -0.11146E-03   -0.68237E-04 39840   0.730E-02    0.147E-01
DAV:   8    -0.796634543048E+03   -0.15901E-03   -0.17775E-04 41560   0.471E-02    0.108E-01
DAV:   9    -0.796634744875E+03   -0.20183E-03   -0.20514E-04 41510   0.435E-02    0.806E-02
DAV:  10    -0.796634857663E+03   -0.11279E-03   -0.12520E-04 36610   0.263E-02    0.699E-02
DAV:  11    -0.796635011812E+03   -0.15415E-03   -0.90285E-05 36210   0.281E-02    0.598E-02
DAV:  12    -0.796635194845E+03   -0.18303E-03   -0.22784E-04 41470   0.448E-02    0.461E-02
DAV:  13    -0.796635310340E+03   -0.11549E-03   -0.29328E-04 42610   0.448E-02    0.346E-02
DAV:  14    -0.796635366445E+03   -0.56106E-04   -0.14438E-04 37330   0.267E-02    0.261E-02
DAV:  15    -0.796635387802E+03   -0.21357E-04   -0.39019E-05 24130   0.121E-02    0.195E-02
DAV:  16    -0.796635396491E+03   -0.86890E-05   -0.87829E-06 19810   0.622E-03
   6 F= -.79663540E+03 E0= -.79663540E+03  d E =0.438946E-01  mag=    47.0000
       N       E                     dE             d eps       ncg     rms          rms(c)
DAV:   1    -0.794862651158E+03    0.17727E+01   -0.17628E+02 34710   0.392E+01    0.467E+00
DAV:   2    -0.796435179500E+03   -0.15725E+01   -0.16700E+01 33660   0.839E+00    0.527E+00
DAV:   3    -0.796479937262E+03   -0.44758E-01   -0.64089E-01 39430   0.221E+00    0.274E+00
DAV:   4    -0.796474848227E+03    0.50890E-02   -0.62819E-02 43660   0.823E-01    0.252E+00
DAV:   5    -0.796464688647E+03    0.10160E-01   -0.71295E-02 39590   0.732E-01    0.809E-01
DAV:   6    -0.796466248164E+03   -0.15595E-02   -0.14984E-02 41140   0.349E-01    0.400E-01
DAV:   7    -0.796466350890E+03   -0.10273E-03   -0.59577E-03 37190   0.160E-01    0.244E-01
DAV:   8    -0.796466579583E+03   -0.22869E-03   -0.53215E-04 39580   0.801E-02    0.173E-01
DAV:   9    -0.796466900817E+03   -0.32123E-03   -0.45037E-04 41600   0.700E-02    0.120E-01
DAV:  10    -0.796467104778E+03   -0.20396E-03   -0.25192E-04 39680   0.438E-02    0.920E-02
DAV:  11    -0.796467283406E+03   -0.17863E-03   -0.15694E-04 40410   0.329E-02    0.800E-02
DAV:  12    -0.796467490495E+03   -0.20709E-03   -0.14091E-04 37560   0.343E-02    0.666E-02
DAV:  13    -0.796467695374E+03   -0.20488E-03   -0.27583E-04 40710   0.498E-02    0.507E-02
DAV:  14    -0.796467810036E+03   -0.11466E-03   -0.30332E-04 39920   0.409E-02    0.383E-02
DAV:  15    -0.796467862703E+03   -0.52667E-04   -0.11028E-04 33170   0.219E-02    0.266E-02
DAV:  16    -0.796467882556E+03   -0.19853E-04   -0.27638E-05 22630   0.105E-02    0.202E-02
DAV:  17    -0.796467895051E+03   -0.12495E-04   -0.69152E-06 18600   0.845E-03    0.165E-02
DAV:  18    -0.796467907043E+03   -0.11992E-04   -0.20356E-05 26590   0.116E-02    0.141E-02
DAV:  19    -0.796467913656E+03   -0.66126E-05   -0.13134E-05 20010   0.714E-03
   7 F= -.79646791E+03 E0= -.79646791E+03  d E =0.167483E+00  mag=    47.0000
       N       E                     dE             d eps       ncg     rms          rms(c)
DAV:   1    -0.796068545669E+03    0.39936E+00   -0.40906E+01 35250   0.228E+01    0.286E+00
DAV:   2    -0.796636215844E+03   -0.56767E+00   -0.62347E+00 34120   0.467E+00    0.209E+00
DAV:   3    -0.796672782073E+03   -0.36566E-01   -0.25324E-01 40410   0.118E+00    0.116E+00
DAV:   4    -0.796668434967E+03    0.43471E-02   -0.24002E-02 43780   0.440E-01    0.854E-01
DAV:   5    -0.796666888113E+03    0.15469E-02   -0.18076E-02 37430   0.358E-01    0.354E-01
DAV:   6    -0.796667140008E+03   -0.25189E-03   -0.30450E-03 37410   0.203E-01    0.213E-01
DAV:   7    -0.796667270660E+03   -0.13065E-03   -0.18594E-03 42110   0.101E-01    0.123E-01
DAV:   8    -0.796667369930E+03   -0.99270E-04   -0.19377E-04 37590   0.427E-02    0.882E-02
DAV:   9    -0.796667478863E+03   -0.10893E-03   -0.12979E-04 39000   0.307E-02    0.594E-02
DAV:  10    -0.796667546673E+03   -0.67811E-04   -0.60428E-05 31450   0.220E-02    0.503E-02
DAV:  11    -0.796667590247E+03   -0.43574E-04   -0.34851E-05 25920   0.169E-02    0.439E-02
DAV:  12    -0.796667659672E+03   -0.69425E-04   -0.52755E-05 32620   0.217E-02    0.346E-02
DAV:  13    -0.796667726153E+03   -0.66481E-04   -0.12552E-04 36550   0.305E-02    0.247E-02
DAV:  14    -0.796667760252E+03   -0.34099E-04   -0.87645E-05 34020   0.211E-02    0.216E-02
DAV:  15    -0.796667774709E+03   -0.14457E-04   -0.26603E-05 21540   0.110E-02    0.136E-02
DAV:  16    -0.796667780935E+03   -0.62255E-05   -0.99243E-06 19260   0.697E-03
   8 F= -.79666778E+03 E0= -.79666778E+03  d E =-.199867E+00  mag=    47.0000
       N       E                     dE             d eps       ncg     rms          rms(c)
DAV:   1    -0.796644016216E+03    0.23758E-01   -0.40885E+00 35110   0.615E+00    0.718E-01
DAV:   2    -0.796682204562E+03   -0.38188E-01   -0.40405E-01 33500   0.126E+00    0.695E-01
DAV:   3    -0.796683756038E+03   -0.15515E-02   -0.14550E-02 40220   0.328E-01    0.358E-01
DAV:   4    -0.796683585757E+03    0.17028E-03   -0.14951E-03 43600   0.127E-01    0.319E-01
DAV:   5    -0.796683444180E+03    0.14158E-03   -0.14721E-03 39370   0.106E-01    0.105E-01
DAV:   6    -0.796683489122E+03   -0.44942E-04   -0.30326E-04 39650   0.509E-02    0.620E-02
DAV:   7    -0.796683502594E+03   -0.13472E-04   -0.12621E-04 37280   0.251E-02    0.412E-02
DAV:   8    -0.796683515588E+03   -0.12994E-04   -0.12310E-05 20170   0.131E-02    0.319E-02
DAV:   9    -0.796683532879E+03   -0.17291E-04   -0.15380E-05 21450   0.128E-02    0.252E-02
DAV:  10    -0.796683545954E+03   -0.13075E-04   -0.15644E-05 21920   0.934E-03    0.206E-02
DAV:  11    -0.796683555930E+03   -0.99754E-05   -0.73137E-06 17350   0.700E-03
   9 F= -.79668356E+03 E0= -.79668356E+03  d E =-.157750E-01  mag=    47.0000
       N       E                     dE             d eps       ncg     rms          rms(c)
DAV:   1    -0.796674797675E+03    0.87483E-02   -0.38477E+00 33920   0.506E+00    0.585E-01
DAV:   2    -0.796699965295E+03   -0.25168E-01   -0.25884E-01 33350   0.106E+00    0.736E-01
DAV:   3    -0.796700233726E+03   -0.26843E-03   -0.82396E-03 36020   0.275E-01    0.399E-01
DAV:   4    -0.796700226920E+03    0.68062E-05   -0.78055E-04 41160   0.941E-02    0.362E-01
DAV:   5    -0.796700096697E+03    0.13022E-03   -0.98923E-04 41870   0.943E-02    0.112E-01
DAV:   6    -0.796700140763E+03   -0.44066E-04   -0.26062E-04 41560   0.444E-02    0.557E-02
DAV:   7    -0.796700151672E+03   -0.10909E-04   -0.53805E-05 31600   0.195E-02    0.434E-02
DAV:   8    -0.796700165945E+03   -0.14273E-04   -0.11896E-05 19500   0.122E-02    0.338E-02
DAV:   9    -0.796700188607E+03   -0.22662E-04   -0.20950E-05 26070   0.137E-02    0.251E-02
DAV:  10    -0.796700203588E+03   -0.14981E-04   -0.20705E-05 22820   0.949E-03    0.213E-02
DAV:  11    -0.796700216363E+03   -0.12775E-04   -0.70182E-06 18180   0.802E-03    0.186E-02
DAV:  12    -0.796700232247E+03   -0.15884E-04   -0.20791E-05 25120   0.127E-02    0.142E-02
DAV:  13    -0.796700243098E+03   -0.10850E-04   -0.35074E-05 30040   0.143E-02    0.109E-02
DAV:  14    -0.796700249346E+03   -0.62479E-05   -0.21435E-05 21400   0.862E-03
  10 F= -.79670025E+03 E0= -.79670025E+03  d E =-.166934E-01  mag=    47.0000
       N       E                     dE             d eps       ncg     rms          rms(c)
DAV:   1    -0.796628874280E+03    0.71369E-01   -0.13990E+01 34000   0.901E+00    0.108E+00
DAV:   2    -0.796706499599E+03   -0.77625E-01   -0.81040E-01 34530   0.196E+00    0.152E+00
DAV:   3    -0.796706573524E+03   -0.73925E-04   -0.28408E-02 35940   0.509E-01    0.870E-01
DAV:   4    -0.796706420234E+03    0.15329E-03   -0.25878E-03 39790   0.160E-01    0.765E-01
DAV:   5    -0.796705759410E+03    0.66082E-03   -0.36867E-03 40790   0.175E-01    0.235E-01
DAV:   6    -0.796705840958E+03   -0.81548E-04   -0.95689E-04 42370   0.853E-02    0.105E-01
DAV:   7    -0.796705854221E+03   -0.13263E-04   -0.19189E-04 38040   0.336E-02    0.804E-02
DAV:   8    -0.796705875225E+03   -0.21004E-04   -0.30097E-05 27760   0.199E-02    0.586E-02
DAV:   9    -0.796705912828E+03   -0.37603E-04   -0.56325E-05 35690   0.218E-02    0.372E-02
DAV:  10    -0.796705937789E+03   -0.24961E-04   -0.33573E-05 24780   0.136E-02    0.316E-02
DAV:  11    -0.796705958046E+03   -0.20257E-04   -0.13905E-05 21710   0.959E-03    0.280E-02
DAV:  12    -0.796705984560E+03   -0.26513E-04   -0.18270E-05 23030   0.134E-02    0.234E-02
DAV:  13    -0.796706011729E+03   -0.27169E-04   -0.67857E-05 35270   0.221E-02    0.158E-02
DAV:  14    -0.796706026498E+03   -0.14769E-04   -0.49794E-05 25900   0.140E-02    0.137E-02
DAV:  15    -0.796706031621E+03   -0.51232E-05   -0.86149E-06 20200   0.626E-03
  11 F= -.79670603E+03 E0= -.79670603E+03  d E =-.578228E-02  mag=    47.0000
       N       E                     dE             d eps       ncg     rms          rms(c)
DAV:   1    -0.795264219782E+03    0.14418E+01   -0.15033E+02 34400   0.356E+01    0.408E+00
DAV:   2    -0.796562418761E+03   -0.12982E+01   -0.13364E+01 33340   0.700E+00    0.304E+00
DAV:   3    -0.796618165933E+03   -0.55747E-01   -0.36230E-01 39750   0.154E+00    0.159E+00
DAV:   4    -0.796613485575E+03    0.46804E-02   -0.33345E-02 44090   0.594E-01    0.131E+00
DAV:   5    -0.796612774022E+03    0.71155E-03   -0.26330E-02 41240   0.470E-01    0.490E-01
DAV:   6    -0.796615081770E+03   -0.23077E-02   -0.72915E-03 39610   0.248E-01    0.324E-01
DAV:   7    -0.796615793977E+03   -0.71221E-03   -0.21342E-03 39270   0.117E-01    0.237E-01
DAV:   8    -0.796616653123E+03   -0.85915E-03   -0.51825E-04 41240   0.716E-02    0.196E-01
DAV:   9    -0.796617701785E+03   -0.10487E-02   -0.72013E-04 41170   0.785E-02    0.157E-01
DAV:  10    -0.796618390769E+03   -0.68898E-03   -0.65877E-04 39940   0.605E-02    0.134E-01
DAV:  11    -0.796619059743E+03   -0.66897E-03   -0.52694E-04 42520   0.650E-02    0.107E-01
DAV:  12    -0.796619686596E+03   -0.62685E-03   -0.12021E-03 42670   0.959E-02    0.718E-02
DAV:  13    -0.796619979867E+03   -0.29327E-03   -0.91020E-04 41810   0.637E-02    0.515E-02
DAV:  14    -0.796620090823E+03   -0.11096E-03   -0.23251E-04 35830   0.277E-02    0.363E-02
DAV:  15    -0.796620118869E+03   -0.28046E-04   -0.29858E-05 24250   0.109E-02    0.292E-02
DAV:  16    -0.796620143464E+03   -0.24596E-04   -0.93862E-06 19780   0.117E-02    0.224E-02
DAV:  17    -0.796620167036E+03   -0.23572E-04   -0.61550E-05 33110   0.179E-02    0.183E-02
DAV:  18    -0.796620177186E+03   -0.10149E-04   -0.19989E-05 22040   0.905E-03    0.151E-02
DAV:  19    -0.796620185782E+03   -0.85960E-05   -0.48509E-06 17400   0.810E-03
  12 F= -.79662019E+03 E0= -.79662019E+03  d E =0.858458E-01  mag=    47.0000
       N       E                     dE             d eps       ncg     rms          rms(c)
DAV:   1    -0.796088589599E+03    0.53159E+00   -0.40611E+01 35450   0.227E+01    0.286E+00
DAV:   2    -0.796652316049E+03   -0.56373E+00   -0.61981E+00 34370   0.464E+00    0.205E+00
DAV:   3    -0.796690276102E+03   -0.37960E-01   -0.25342E-01 39680   0.117E+00    0.115E+00
DAV:   4    -0.796686134652E+03    0.41414E-02   -0.23517E-02 43720   0.440E-01    0.840E-01
DAV:   5    -0.796684905620E+03    0.12290E-02   -0.17874E-02 36900   0.350E-01    0.347E-01
DAV:   6    -0.796685157867E+03   -0.25225E-03   -0.29283E-03 37110   0.200E-01    0.214E-01
DAV:   7    -0.796685307655E+03   -0.14979E-03   -0.18261E-03 41220   0.981E-02    0.126E-01
DAV:   8    -0.796685424004E+03   -0.11635E-03   -0.18971E-04 37900   0.422E-02    0.913E-02
DAV:   9    -0.796685554498E+03   -0.13049E-03   -0.14157E-04 40090   0.319E-02    0.639E-02
DAV:  10    -0.796685637765E+03   -0.83267E-04   -0.70950E-05 32430   0.226E-02    0.542E-02
DAV:  11    -0.796685693083E+03   -0.55318E-04   -0.39823E-05 26920   0.173E-02    0.472E-02
DAV:  12    -0.796685788565E+03   -0.95483E-04   -0.84248E-05 34910   0.279E-02    0.362E-02
DAV:  13    -0.796685862892E+03   -0.74327E-04   -0.17113E-04 37180   0.335E-02    0.269E-02
DAV:  14    -0.796685899904E+03   -0.37012E-04   -0.84632E-05 34270   0.206E-02    0.216E-02
DAV:  15    -0.796685915708E+03   -0.15804E-04   -0.28686E-05 21930   0.117E-02    0.140E-02
DAV:  16    -0.796685922717E+03   -0.70090E-05   -0.11496E-05 20790   0.736E-03
  13 F= -.79668592E+03 E0= -.79668592E+03  d E =-.657369E-01  mag=    47.0000
       N       E                     dE             d eps       ncg     rms          rms(c)
DAV:   1    -0.796657091583E+03    0.28824E-01   -0.31288E+00 35050   0.658E+00    0.830E-01
DAV:   2    -0.796705010871E+03   -0.47919E-01   -0.53021E-01 34650   0.136E+00    0.581E-01
DAV:   3    -0.796708372166E+03   -0.33613E-02   -0.22323E-02 40190   0.339E-01    0.331E-01
DAV:   4    -0.796708000602E+03    0.37156E-03   -0.19236E-03 44410   0.118E-01    0.230E-01
DAV:   5    -0.796707885004E+03    0.11560E-03   -0.14948E-03 37110   0.100E-01    0.954E-02
DAV:   6    -0.796707899692E+03   -0.14688E-04   -0.23573E-04 37660   0.588E-02    0.578E-02
DAV:   7    -0.796707908020E+03   -0.83283E-05   -0.14110E-04 41830   0.278E-02    0.338E-02
DAV:   8    -0.796707914273E+03   -0.62531E-05   -0.12317E-05 20260   0.120E-02
  14 F= -.79670791E+03 E0= -.79670791E+03  d E =-.219916E-01  mag=    47.0000
       N       E                     dE             d eps       ncg     rms          rms(c)
DAV:   1    -0.796703106669E+03    0.48014E-02   -0.11255E+00 34980   0.348E+00    0.412E-01
DAV:   2    -0.796715322361E+03   -0.12216E-01   -0.13212E-01 33850   0.698E-01    0.324E-01
DAV:   3    -0.796716023801E+03   -0.70144E-03   -0.51420E-03 40650   0.178E-01    0.178E-01
DAV:   4    -0.796715940726E+03    0.83075E-04   -0.49084E-04 43700   0.676E-02    0.140E-01
DAV:   5    -0.796715921525E+03    0.19201E-04   -0.43277E-04 38440   0.558E-02    0.560E-02
DAV:   6    -0.796715935548E+03   -0.14023E-04   -0.84296E-05 36270   0.310E-02    0.374E-02
DAV:   7    -0.796715943306E+03   -0.77578E-05   -0.45977E-05 29310   0.154E-02
  15 F= -.79671594E+03 E0= -.79671594E+03  d E =-.802903E-02  mag=    47.0000
       N       E                     dE             d eps       ncg     rms          rms(c)
DAV:   1    -0.796681138939E+03    0.34797E-01   -0.59950E+00 34420   0.686E+00    0.762E-01
DAV:   2    -0.796725469779E+03   -0.44331E-01   -0.46253E-01 33390   0.134E+00    0.684E-01
DAV:   3    -0.796727119143E+03   -0.16494E-02   -0.14097E-02 39700   0.326E-01    0.361E-01
DAV:   4    -0.796726926407E+03    0.19274E-03   -0.14036E-03 43090   0.128E-01    0.312E-01
DAV:   5    -0.796726881045E+03    0.45362E-04   -0.14348E-03 40990   0.106E-01    0.111E-01
DAV:   6    -0.796726973735E+03   -0.92690E-04   -0.36861E-04 39590   0.541E-02    0.738E-02
DAV:   7    -0.796727010872E+03   -0.37138E-04   -0.11422E-04 37650   0.252E-02    0.558E-02
DAV:   8    -0.796727055756E+03   -0.44883E-04   -0.24225E-05 25110   0.164E-02    0.471E-02
DAV:   9    -0.796727113929E+03   -0.58173E-04   -0.42626E-05 33660   0.194E-02    0.380E-02
DAV:  10    -0.796727157047E+03   -0.43118E-04   -0.44239E-05 28180   0.165E-02    0.330E-02
DAV:  11    -0.796727194071E+03   -0.37024E-04   -0.32569E-05 31620   0.157E-02    0.262E-02
DAV:  12    -0.796727232539E+03   -0.38468E-04   -0.82225E-05 36000   0.266E-02    0.176E-02
DAV:  13    -0.796727252982E+03   -0.20443E-04   -0.76651E-05 31370   0.177E-02    0.144E-02
DAV:  14    -0.796727260640E+03   -0.76581E-05   -0.15955E-05 20340   0.770E-03
  16 F= -.79672726E+03 E0= -.79672726E+03  d E =-.113173E-01  mag=    47.0000
       N       E                     dE             d eps       ncg     rms          rms(c)
DAV:   1    -0.796604791310E+03    0.12246E+00   -0.15763E+01 34510   0.113E+01    0.126E+00
DAV:   2    -0.796730489313E+03   -0.12570E+00   -0.12886E+00 33180   0.213E+00    0.860E-01
DAV:   3    -0.796735855805E+03   -0.53665E-02   -0.28589E-02 39100   0.432E-01    0.472E-01
DAV:   4    -0.796735505906E+03    0.34990E-03   -0.28187E-03 43450   0.174E-01    0.368E-01
DAV:   5    -0.796735654762E+03   -0.14886E-03   -0.20922E-03 43300   0.135E-01    0.145E-01
DAV:   6    -0.796735914212E+03   -0.25945E-03   -0.63903E-04 39570   0.703E-02    0.106E-01
DAV:   7    -0.796736012658E+03   -0.98446E-04   -0.14818E-04 39060   0.333E-02    0.849E-02
DAV:   8    -0.796736157746E+03   -0.14509E-03   -0.78991E-05 35970   0.275E-02    0.712E-02
DAV:   9    -0.796736327999E+03   -0.17025E-03   -0.13791E-04 40000   0.330E-02    0.594E-02
DAV:  10    -0.796736431694E+03   -0.10369E-03   -0.10984E-04 35130   0.245E-02    0.519E-02
DAV:  11    -0.796736542574E+03   -0.11088E-03   -0.10123E-04 38540   0.304E-02    0.405E-02
DAV:  12    -0.796736632167E+03   -0.89593E-04   -0.27007E-04 42210   0.471E-02    0.271E-02
DAV:  13    -0.796736682750E+03   -0.50583E-04   -0.20193E-04 39030   0.285E-02    0.209E-02
DAV:  14    -0.796736700066E+03   -0.17315E-04   -0.36368E-05 23290   0.105E-02    0.154E-02
DAV:  15    -0.796736702318E+03   -0.22524E-05   -0.21701E-06 16720   0.438E-03
  17 F= -.79673670E+03 E0= -.79673670E+03  d E =-.944168E-02  mag=    47.0000
       N       E                     dE             d eps       ncg     rms          rms(c)
DAV:   1    -0.795156609794E+03    0.15801E+01   -0.97079E+01 35230   0.350E+01    0.442E+00
DAV:   2    -0.796463227859E+03   -0.13066E+01   -0.14378E+01 34490   0.724E+00    0.331E+00
DAV:   3    -0.796547489898E+03   -0.84262E-01   -0.60273E-01 40760   0.184E+00    0.180E+00
DAV:   4    -0.796537359573E+03    0.10130E-01   -0.58096E-02 41330   0.681E-01    0.136E+00
DAV:   5    -0.796533239428E+03    0.41201E-02   -0.43650E-02 37430   0.529E-01    0.539E-01
DAV:   6    -0.796534133214E+03   -0.89379E-03   -0.74640E-03 36740   0.296E-01    0.333E-01
DAV:   7    -0.796534424646E+03   -0.29143E-03   -0.41992E-03 41620   0.145E-01    0.194E-01
DAV:   8    -0.796534653461E+03   -0.22882E-03   -0.40633E-04 38490   0.641E-02    0.136E-01
DAV:   9    -0.796534908715E+03   -0.25525E-03   -0.32208E-04 40910   0.549E-02    0.941E-02
DAV:  10    -0.796535053964E+03   -0.14525E-03   -0.15877E-04 36640   0.347E-02    0.754E-02
DAV:  11    -0.796535165605E+03   -0.11164E-03   -0.76477E-05 33840   0.253E-02    0.659E-02
DAV:  12    -0.796535328963E+03   -0.16336E-03   -0.12887E-04 37610   0.329E-02    0.527E-02
DAV:  13    -0.796535473595E+03   -0.14463E-03   -0.22669E-04 39680   0.427E-02    0.415E-02
DAV:  14    -0.796535550490E+03   -0.76895E-04   -0.16314E-04 37170   0.310E-02    0.317E-02
DAV:  15    -0.796535586998E+03   -0.36507E-04   -0.65797E-05 30770   0.177E-02    0.226E-02
DAV:  16    -0.796535603811E+03   -0.16813E-04   -0.23451E-05 21970   0.105E-02    0.174E-02
DAV:  17    -0.796535614733E+03   -0.10922E-04   -0.11823E-05 22550   0.874E-03    0.139E-02
DAV:  18    -0.796535621893E+03   -0.71603E-05   -0.10407E-05 19490   0.779E-03
  18 F= -.79653562E+03 E0= -.79653562E+03  d E =0.201080E+00  mag=    47.0000
       N       E                     dE             d eps       ncg     rms          rms(c)
DAV:   1    -0.796214561635E+03    0.32105E+00   -0.34837E+01 35500   0.219E+01    0.275E+00
DAV:   2    -0.796724996714E+03   -0.51044E+00   -0.56737E+00 34450   0.446E+00    0.195E+00
DAV:   3    -0.796760508238E+03   -0.35512E-01   -0.23305E-01 40190   0.111E+00    0.110E+00
DAV:   4    -0.796756568948E+03    0.39393E-02   -0.20946E-02 43710   0.389E-01    0.773E-01
DAV:   5    -0.796755370240E+03    0.11987E-02   -0.16188E-02 37340   0.335E-01    0.320E-01
DAV:   6    -0.796755564266E+03   -0.19403E-03   -0.27221E-03 37450   0.196E-01    0.193E-01
DAV:   7    -0.796755667518E+03   -0.10325E-03   -0.15447E-03 42190   0.913E-02    0.112E-01
DAV:   8    -0.796755744033E+03   -0.76515E-04   -0.16026E-04 36940   0.403E-02    0.802E-02
DAV:   9    -0.796755827841E+03   -0.83808E-04   -0.11026E-04 38650   0.298E-02    0.537E-02
DAV:  10    -0.796755880216E+03   -0.52376E-04   -0.51218E-05 30350   0.200E-02    0.447E-02
DAV:  11    -0.796755914573E+03   -0.34357E-04   -0.26981E-05 23830   0.148E-02    0.386E-02
DAV:  12    -0.796755965952E+03   -0.51380E-04   -0.37919E-05 29750   0.183E-02    0.310E-02
DAV:  13    -0.796756017595E+03   -0.51643E-04   -0.94122E-05 35580   0.262E-02    0.224E-02
DAV:  14    -0.796756044924E+03   -0.27329E-04   -0.68977E-05 30620   0.188E-02    0.195E-02
DAV:  15    -0.796756056662E+03   -0.11737E-04   -0.21977E-05 21310   0.101E-02    0.126E-02
DAV:  16    -0.796756061967E+03   -0.53052E-05   -0.81545E-06 18440   0.681E-03
  19 F= -.79675606E+03 E0= -.79675606E+03  d E =-.220440E+00  mag=    47.0000
       N       E                     dE             d eps       ncg     rms          rms(c)
DAV:   1    -0.796699864661E+03    0.56192E-01   -0.46209E+00 35390   0.760E+00    0.942E-01
DAV:   2    -0.796763033546E+03   -0.63169E-01   -0.69270E-01 34460   0.156E+00    0.685E-01
DAV:   3    -0.796767120471E+03   -0.40869E-02   -0.28396E-02 40660   0.394E-01    0.388E-01
DAV:   4    -0.796766633060E+03    0.48741E-03   -0.25488E-03 44480   0.144E-01    0.281E-01
DAV:   5    -0.796766481639E+03    0.15142E-03   -0.20865E-03 37650   0.121E-01    0.117E-01
DAV:   6    -0.796766514880E+03   -0.33242E-04   -0.35399E-04 37630   0.698E-02    0.729E-02
DAV:   7    -0.796766534465E+03   -0.19584E-04   -0.21203E-04 40900   0.332E-02    0.457E-02
DAV:   8    -0.796766552845E+03   -0.18380E-04   -0.20974E-05 23390   0.152E-02    0.355E-02
DAV:   9    -0.796766574125E+03   -0.21280E-04   -0.20860E-05 22860   0.133E-02    0.272E-02
DAV:  10    -0.796766588488E+03   -0.14363E-04   -0.15254E-05 21470   0.990E-03    0.228E-02
DAV:  11    -0.796766599918E+03   -0.11430E-04   -0.79185E-06 18430   0.801E-03    0.201E-02
DAV:  12    -0.796766617132E+03   -0.17214E-04   -0.17265E-05 23950   0.119E-02    0.161E-02
DAV:  13    -0.796766632101E+03   -0.14968E-04   -0.35987E-05 30520   0.156E-02    0.125E-02
DAV:  14    -0.796766640775E+03   -0.86743E-05   -0.31275E-05 22580   0.109E-02
  20 F= -.79676664E+03 E0= -.79676664E+03  d E =-.105788E-01  mag=    47.0000
       N       E                     dE             d eps       ncg     rms          rms(c)
DAV:   1    -0.796765050832E+03    0.15813E-02   -0.68336E-01 34660   0.218E+00    0.236E-01
DAV:   2    -0.796769398066E+03   -0.43472E-02   -0.44472E-02 33250   0.415E-01    0.213E-01
DAV:   3    -0.796769537294E+03   -0.13923E-03   -0.10803E-03 37100   0.995E-02    0.112E-01
DAV:   4    -0.796769525865E+03    0.11429E-04   -0.11457E-04 39660   0.398E-02    0.993E-02
DAV:   5    -0.796769524771E+03    0.10938E-05   -0.11560E-04 40650   0.320E-02    0.344E-02
DAV:   6    -0.796769537843E+03   -0.13071E-04   -0.33729E-05 27770   0.152E-02    0.234E-02
DAV:   7    -0.796769542342E+03   -0.44994E-05   -0.64446E-06 16870   0.691E-03
  21 F= -.79676954E+03 E0= -.79676954E+03  d E =-.290157E-02  mag=    47.0000
       N       E                     dE             d eps       ncg     rms          rms(c)
DAV:   1    -0.796368011985E+03    0.40153E+00   -0.56685E+01 34780   0.203E+01    0.220E+00
DAV:   2    -0.796743247490E+03   -0.37524E+00   -0.38333E+00 33190   0.381E+00    0.176E+00
DAV:   3    -0.796756817187E+03   -0.13570E-01   -0.88245E-02 37390   0.859E-01    0.930E-01
DAV:   4    -0.796755742400E+03    0.10748E-02   -0.92681E-03 42050   0.354E-01    0.796E-01
DAV:   5    -0.796755886283E+03   -0.14388E-03   -0.80772E-03 43050   0.273E-01    0.287E-01
DAV:   6    -0.796756929874E+03   -0.10436E-02   -0.25264E-03 39010   0.131E-01    0.202E-01
DAV:   7    -0.796757296244E+03   -0.36637E-03   -0.42735E-04 40080   0.562E-02    0.164E-01
DAV:   8    -0.796757920823E+03   -0.62458E-03   -0.36254E-04 43270   0.584E-02    0.135E-01
DAV:   9    -0.796758541964E+03   -0.62114E-03   -0.53524E-04 42110   0.635E-02    0.113E-01
DAV:  10    -0.796758903607E+03   -0.36164E-03   -0.34024E-04 41310   0.444E-02    0.997E-02
DAV:  11    -0.796759333228E+03   -0.42962E-03   -0.39043E-04 43510   0.611E-02    0.760E-02
DAV:  12    -0.796759656640E+03   -0.32341E-03   -0.10530E-03 42800   0.938E-02    0.506E-02
DAV:  13    -0.796759828746E+03   -0.17211E-03   -0.64778E-04 41720   0.512E-02    0.393E-02
DAV:  14    -0.796759877494E+03   -0.48747E-04   -0.95023E-05 29430   0.170E-02    0.288E-02
DAV:  15    -0.796759884829E+03   -0.73351E-05   -0.52174E-06 17660   0.659E-03
  22 F= -.79675988E+03 E0= -.79675988E+03  d E =0.965751E-02  mag=    47.0000
       N       E                     dE             d eps       ncg     rms          rms(c)
DAV:   1    -0.795285013057E+03    0.14749E+01   -0.10593E+02 35340   0.351E+01    0.423E+00
DAV:   2    -0.796549114975E+03   -0.12641E+01   -0.13452E+01 33710   0.706E+00    0.306E+00
DAV:   3    -0.796624424394E+03   -0.75309E-01   -0.47777E-01 40750   0.172E+00    0.164E+00
DAV:   4    -0.796617488459E+03    0.69359E-02   -0.44473E-02 42340   0.634E-01    0.123E+00
DAV:   5    -0.796615097624E+03    0.23908E-02   -0.33152E-02 39320   0.490E-01    0.484E-01
DAV:   6    -0.796616304747E+03   -0.12071E-02   -0.66134E-03 37870   0.270E-01    0.305E-01
DAV:   7    -0.796616628702E+03   -0.32396E-03   -0.30056E-03 41420   0.128E-01    0.187E-01
DAV:   8    -0.796616922442E+03   -0.29374E-03   -0.37604E-04 40490   0.616E-02    0.141E-01
DAV:   9    -0.796617246679E+03   -0.32424E-03   -0.30965E-04 40990   0.525E-02    0.105E-01
DAV:  10    -0.796617454092E+03   -0.20741E-03   -0.19764E-04 37800   0.363E-02    0.878E-02
DAV:  11    -0.796617635547E+03   -0.18146E-03   -0.11729E-04 36400   0.313E-02    0.761E-02
DAV:  12    -0.796617891854E+03   -0.25631E-03   -0.25163E-04 43130   0.472E-02    0.586E-02
DAV:  13    -0.796618078753E+03   -0.18690E-03   -0.39807E-04 41900   0.539E-02    0.447E-02
DAV:  14    -0.796618174770E+03   -0.96017E-04   -0.24103E-04 40330   0.354E-02    0.335E-02
DAV:  15    -0.796618215561E+03   -0.40791E-04   -0.75840E-05 29210   0.165E-02    0.249E-02
DAV:  16    -0.796618230654E+03   -0.15093E-04   -0.13841E-05 20110   0.792E-03    0.204E-02
DAV:  17    -0.796618245581E+03   -0.14927E-04   -0.96801E-06 20860   0.993E-03    0.163E-02
DAV:  18    -0.796618257489E+03   -0.11908E-04   -0.25166E-05 28500   0.107E-02    0.136E-02
DAV:  19    -0.796618266098E+03   -0.86095E-05   -0.12236E-05 20930   0.750E-03
  23 F= -.79661827E+03 E0= -.79661827E+03  d E =0.141619E+00  mag=    47.0000
       N       E                     dE             d eps       ncg     rms          rms(c)
DAV:   1    -0.796242843141E+03    0.37541E+00   -0.34758E+01 35610   0.217E+01    0.273E+00
DAV:   2    -0.796743728206E+03   -0.50089E+00   -0.55419E+00 34480   0.440E+00    0.189E+00
DAV:   3    -0.796778204865E+03   -0.34477E-01   -0.22683E-01 40190   0.110E+00    0.107E+00
DAV:   4    -0.796774326749E+03    0.38781E-02   -0.20262E-02 44560   0.384E-01    0.742E-01
DAV:   5    -0.796773125076E+03    0.12017E-02   -0.15410E-02 37230   0.331E-01    0.314E-01
DAV:   6    -0.796773311400E+03   -0.18632E-03   -0.25746E-03 37530   0.193E-01    0.187E-01
DAV:   7    -0.796773414118E+03   -0.10272E-03   -0.14633E-03 42160   0.894E-02    0.111E-01
DAV:   8    -0.796773493008E+03   -0.78890E-04   -0.16222E-04 36630   0.397E-02    0.794E-02
DAV:   9    -0.796773578589E+03   -0.85581E-04   -0.10617E-04 37910   0.289E-02    0.534E-02
DAV:  10    -0.796773631398E+03   -0.52808E-04   -0.51029E-05 30340   0.197E-02    0.449E-02
DAV:  11    -0.796773666419E+03   -0.35021E-04   -0.26969E-05 23960   0.148E-02    0.392E-02
DAV:  12    -0.796773718920E+03   -0.52501E-04   -0.40329E-05 30930   0.184E-02    0.314E-02
DAV:  13    -0.796773772970E+03   -0.54050E-04   -0.95478E-05 36080   0.278E-02    0.230E-02
DAV:  14    -0.796773801493E+03   -0.28524E-04   -0.79995E-05 30840   0.186E-02    0.194E-02
DAV:  15    -0.796773813692E+03   -0.12198E-04   -0.20796E-05 20320   0.102E-02    0.130E-02
DAV:  16    -0.796773819572E+03   -0.58806E-05   -0.10565E-05 19150   0.721E-03
  24 F= -.79677382E+03 E0= -.79677382E+03  d E =-.155553E+00  mag=    47.0000
       N       E                     dE             d eps       ncg     rms          rms(c)
DAV:   1    -0.796741058129E+03    0.32756E-01   -0.25988E+00 35200   0.526E+00    0.623E-01
DAV:   2    -0.796770760752E+03   -0.29703E-01   -0.31376E-01 33710   0.105E+00    0.455E-01
DAV:   3    -0.796772325205E+03   -0.15645E-02   -0.10392E-02 40770   0.254E-01    0.246E-01
DAV:   4    -0.796772170898E+03    0.15431E-03   -0.95379E-04 44340   0.972E-02    0.188E-01
DAV:   5    -0.796772122139E+03    0.48759E-04   -0.74758E-04 39720   0.766E-02    0.725E-02
DAV:   6    -0.796772149404E+03   -0.27264E-04   -0.15166E-04 38720   0.407E-02    0.455E-02
DAV:   7    -0.796772157577E+03   -0.81739E-05   -0.69404E-05 32190   0.193E-02
  25 F= -.79677216E+03 E0= -.79677216E+03  d E =0.166199E-02  mag=    47.0000
       N       E                     dE             d eps       ncg     rms          rms(c)
DAV:   1    -0.796752641357E+03    0.19508E-01   -0.25461E+00 34970   0.473E+00    0.520E-01
DAV:   2    -0.796772758348E+03   -0.20117E-01   -0.20633E-01 32910   0.857E-01    0.343E-01
DAV:   3    -0.796773706680E+03   -0.94833E-03   -0.43648E-03 39890   0.175E-01    0.179E-01
DAV:   4    -0.796773652798E+03    0.53883E-04   -0.45598E-04 42960   0.748E-02    0.140E-01
DAV:   5    -0.796773664829E+03   -0.12031E-04   -0.30622E-04 43330   0.541E-02    0.508E-02
DAV:   6    -0.796773698030E+03   -0.33201E-04   -0.88827E-05 36630   0.264E-02    0.354E-02
DAV:   7    -0.796773707176E+03   -0.91459E-05   -0.15285E-05 19930   0.117E-02
  26 F= -.79677371E+03 E0= -.79677371E+03  d E =-.154960E-02  mag=    47.0000
       N       E                     dE             d eps       ncg     rms          rms(c)
DAV:   1    -0.796633219351E+03    0.14048E+00   -0.17378E+01 34920   0.124E+01    0.136E+00
DAV:   2    -0.796771386278E+03   -0.13817E+00   -0.14100E+00 32210   0.220E+00    0.793E-01
DAV:   3    -0.796777801093E+03   -0.64148E-02   -0.25986E-02 40730   0.391E-01    0.419E-01
DAV:   4    -0.796777437427E+03    0.36367E-03   -0.25498E-03 44390   0.163E-01    0.301E-01
DAV:   5    -0.796777594415E+03   -0.15699E-03   -0.14771E-03 44850   0.122E-01    0.107E-01
DAV:   6    -0.796777751229E+03   -0.15681E-03   -0.45758E-04 40660   0.651E-02    0.787E-02
DAV:   7    -0.796777790816E+03   -0.39587E-04   -0.61190E-05 31450   0.266E-02    0.566E-02
DAV:   8    -0.796777857997E+03   -0.67181E-04   -0.55574E-05 34110   0.221E-02    0.454E-02
DAV:   9    -0.796777905091E+03   -0.47094E-04   -0.41523E-05 28970   0.167E-02    0.403E-02
DAV:  10    -0.796777943215E+03   -0.38124E-04   -0.25958E-05 27300   0.137E-02    0.361E-02
DAV:  11    -0.796778001505E+03   -0.58290E-04   -0.53685E-05 33410   0.226E-02    0.280E-02
DAV:  12    -0.796778052833E+03   -0.51328E-04   -0.24361E-04 41860   0.422E-02    0.196E-02
DAV:  13    -0.796778084188E+03   -0.31356E-04   -0.11255E-04 33200   0.199E-02    0.151E-02
DAV:  14    -0.796778090623E+03   -0.64351E-05   -0.10444E-05 19240   0.684E-03
  27 F= -.79677809E+03 E0= -.79677809E+03  d E =-.438345E-02  mag=    47.0000
       N       E                     dE             d eps       ncg     rms          rms(c)
DAV:   1    -0.796194305595E+03    0.58378E+00   -0.71844E+01 34720   0.247E+01    0.272E+00
DAV:   2    -0.796760737812E+03   -0.56643E+00   -0.58319E+00 33120   0.457E+00    0.186E+00
DAV:   3    -0.796785596228E+03   -0.24858E-01   -0.13343E-01 38780   0.961E-01    0.971E-01
DAV:   4    -0.796783700795E+03    0.18954E-02   -0.13196E-02 43140   0.393E-01    0.757E-01
DAV:   5    -0.796783653159E+03    0.47636E-04   -0.93006E-03 44080   0.284E-01    0.277E-01
DAV:   6    -0.796784555467E+03   -0.90231E-03   -0.25567E-03 39700   0.139E-01    0.188E-01
DAV:   7    -0.796784794541E+03   -0.23907E-03   -0.54007E-04 39650   0.627E-02    0.139E-01
DAV:   8    -0.796785104738E+03   -0.31020E-03   -0.20556E-04 41750   0.452E-02    0.116E-01
DAV:   9    -0.796785441271E+03   -0.33653E-03   -0.24806E-04 41340   0.445E-02    0.970E-02
DAV:  10    -0.796785669418E+03   -0.22815E-03   -0.20048E-04 38680   0.339E-02    0.868E-02
DAV:  11    -0.796785975321E+03   -0.30590E-03   -0.25735E-04 43640   0.475E-02    0.695E-02
DAV:  12    -0.796786269949E+03   -0.29463E-03   -0.72702E-04 43440   0.785E-02    0.499E-02
DAV:  13    -0.796786427132E+03   -0.15718E-03   -0.59645E-04 42190   0.537E-02    0.373E-02
DAV:  14    -0.796786492337E+03   -0.65205E-04   -0.15150E-04 34960   0.225E-02    0.270E-02
DAV:  15    -0.796786508950E+03   -0.16612E-04   -0.22341E-05 21660   0.850E-03    0.217E-02
DAV:  16    -0.796786519635E+03   -0.10685E-04   -0.53344E-06 18110   0.671E-03    0.173E-02
DAV:  17    -0.796786531323E+03   -0.11689E-04   -0.26619E-05 28500   0.145E-02    0.133E-02
DAV:  18    -0.796786538375E+03   -0.70515E-05   -0.22845E-05 23530   0.826E-03
  28 F= -.79678654E+03 E0= -.79678654E+03  d E =-.844775E-02  mag=    47.0000
       N       E                     dE             d eps       ncg     rms          rms(c)
DAV:   1    -0.795178562690E+03    0.16080E+01   -0.12508E+02 35260   0.366E+01    0.441E+00
DAV:   2    -0.796522566088E+03   -0.13440E+01   -0.14520E+01 33970   0.730E+00    0.319E+00
DAV:   3    -0.796605695943E+03   -0.83130E-01   -0.55239E-01 40650   0.180E+00    0.176E+00
DAV:   4    -0.796596265144E+03    0.94308E-02   -0.52678E-02 42490   0.668E-01    0.129E+00
DAV:   5    -0.796593313784E+03    0.29514E-02   -0.40206E-02 38570   0.518E-01    0.517E-01
DAV:   6    -0.796594335865E+03   -0.10221E-02   -0.75394E-03 38440   0.294E-01    0.327E-01
DAV:   7    -0.796594645360E+03   -0.30950E-03   -0.38063E-03 42080   0.142E-01    0.191E-01
DAV:   8    -0.796594909754E+03   -0.26439E-03   -0.41210E-04 38910   0.621E-02    0.137E-01
DAV:   9    -0.796595209646E+03   -0.29989E-03   -0.30150E-04 40620   0.465E-02    0.986E-02
DAV:  10    -0.796595402560E+03   -0.19291E-03   -0.16270E-04 37270   0.346E-02    0.823E-02
DAV:  11    -0.796595541854E+03   -0.13929E-03   -0.93766E-05 34070   0.267E-02    0.731E-02
DAV:  12    -0.796595765833E+03   -0.22398E-03   -0.18023E-04 42470   0.403E-02    0.572E-02
DAV:  13    -0.796595960767E+03   -0.19493E-03   -0.38671E-04 42380   0.544E-02    0.437E-02
DAV:  14    -0.796596057028E+03   -0.96261E-04   -0.23098E-04 39420   0.340E-02    0.331E-02
DAV:  15    -0.796596096015E+03   -0.38987E-04   -0.63235E-05 30920   0.172E-02    0.228E-02
DAV:  16    -0.796596112599E+03   -0.16585E-04   -0.24293E-05 21430   0.100E-02    0.176E-02
DAV:  17    -0.796596123349E+03   -0.10750E-04   -0.11374E-05 22700   0.884E-03    0.132E-02
DAV:  18    -0.796596129667E+03   -0.63177E-05   -0.10596E-05 20170   0.722E-03
  29 F= -.79659613E+03 E0= -.79659613E+03  d E =0.190409E+00  mag=    47.0000
       N       E                     dE             d eps       ncg     rms          rms(c)
DAV:   1    -0.796384364744E+03    0.21176E+00   -0.22812E+01 35270   0.174E+01    0.225E+00
DAV:   2    -0.796742567318E+03   -0.35820E+00   -0.39512E+00 34390   0.361E+00    0.160E+00
DAV:   3    -0.796765619611E+03   -0.23052E-01   -0.16137E-01 40100   0.898E-01    0.907E-01
DAV:   4    -0.796762790277E+03    0.28293E-02   -0.14762E-02 42860   0.324E-01    0.647E-01
DAV:   5    -0.796761975792E+03    0.81448E-03   -0.11143E-02 37870   0.271E-01    0.260E-01
DAV:   6    -0.796762105390E+03   -0.12960E-03   -0.17416E-03 38370   0.156E-01    0.168E-01
DAV:   7    -0.796762181735E+03   -0.76345E-04   -0.10843E-03 42560   0.742E-02    0.965E-02
DAV:   8    -0.796762249793E+03   -0.68058E-04   -0.11573E-04 36790   0.334E-02    0.692E-02
DAV:   9    -0.796762318916E+03   -0.69123E-04   -0.75719E-05 37010   0.234E-02    0.475E-02
DAV:  10    -0.796762366170E+03   -0.47254E-04   -0.39094E-05 29300   0.171E-02    0.403E-02
DAV:  11    -0.796762395237E+03   -0.29067E-04   -0.23513E-05 22990   0.128E-02    0.350E-02
DAV:  12    -0.796762442976E+03   -0.47739E-04   -0.33138E-05 29150   0.194E-02    0.275E-02
DAV:  13    -0.796762483481E+03   -0.40505E-04   -0.10926E-04 36210   0.244E-02    0.184E-02
DAV:  14    -0.796762503373E+03   -0.19892E-04   -0.53406E-05 26790   0.152E-02    0.156E-02
DAV:  15    -0.796762510774E+03   -0.74010E-05   -0.14262E-05 20790   0.790E-03
  30 F= -.79676251E+03 E0= -.79676251E+03  d E =-.166381E+00  mag=    47.0000
       N       E                     dE             d eps       ncg     rms          rms(c)
DAV:   1    -0.796708756410E+03    0.53747E-01   -0.45932E+00 35300   0.776E+00    0.979E-01
DAV:   2    -0.796777024556E+03   -0.68268E-01   -0.75070E-01 34600   0.161E+00    0.699E-01
DAV:   3    -0.796781505038E+03   -0.44805E-02   -0.31588E-02 40560   0.407E-01    0.397E-01
DAV:   4    -0.796780966435E+03    0.53860E-03   -0.28802E-03 43530   0.147E-01    0.283E-01
DAV:   5    -0.796780808722E+03    0.15771E-03   -0.22449E-03 37710   0.120E-01    0.118E-01
DAV:   6    -0.796780831103E+03   -0.22381E-04   -0.34024E-04 37840   0.686E-02    0.749E-02
DAV:   7    -0.796780844872E+03   -0.13769E-04   -0.22278E-04 42480   0.338E-02    0.428E-02
DAV:   8    -0.796780857062E+03   -0.12190E-04   -0.19007E-05 22630   0.145E-02    0.313E-02
DAV:   9    -0.796780870682E+03   -0.13621E-04   -0.17014E-05 21090   0.110E-02    0.218E-02
DAV:  10    -0.796780879053E+03   -0.83708E-05   -0.99477E-06 19520   0.818E-03
  31 F= -.79678088E+03 E0= -.79678088E+03  d E =-.183683E-01  mag=    47.0000
       N       E                     dE             d eps       ncg     rms          rms(c)
DAV:   1    -0.796780667284E+03    0.20340E-03   -0.41966E-01 34800   0.184E+00    0.212E-01
DAV:   2    -0.796783975714E+03   -0.33084E-02   -0.34041E-02 33400   0.373E-01    0.223E-01
DAV:   3    -0.796784078740E+03   -0.10303E-03   -0.10644E-03 37380   0.991E-02    0.114E-01
DAV:   4    -0.796784079563E+03   -0.82306E-06   -0.10139E-04 36960   0.361E-02    0.105E-01
DAV:   5    -0.796784075422E+03    0.41412E-05   -0.11148E-04 39240   0.305E-02    0.337E-02
DAV:   6    -0.796784082617E+03   -0.71954E-05   -0.25023E-05 24310   0.145E-02
  32 F= -.79678408E+03 E0= -.79678408E+03  d E =-.320356E-02  mag=    47.0000
       N       E                     dE             d eps       ncg     rms          rms(c)
DAV:   1    -0.796752187112E+03    0.31888E-01   -0.50134E+00 34690   0.617E+00    0.688E-01
DAV:   2    -0.796787781264E+03   -0.35594E-01   -0.36376E-01 33400   0.121E+00    0.705E-01
DAV:   3    -0.796788790681E+03   -0.10094E-02   -0.10112E-02 36140   0.311E-01    0.359E-01
DAV:   4    -0.796788769581E+03    0.21100E-04   -0.99567E-04 41020   0.116E-01    0.328E-01
DAV:   5    -0.796788678865E+03    0.90716E-04   -0.94685E-04 41010   0.932E-02    0.101E-01
DAV:   6    -0.796788751966E+03   -0.73100E-04   -0.26496E-04 40600   0.431E-02    0.516E-02
DAV:   7    -0.796788763049E+03   -0.11083E-04   -0.34412E-05 27940   0.156E-02    0.399E-02
DAV:   8    -0.796788779557E+03   -0.16508E-04   -0.11713E-05 18440   0.123E-02    0.314E-02
DAV:   9    -0.796788799136E+03   -0.19579E-04   -0.21218E-05 26270   0.130E-02    0.235E-02
DAV:  10    -0.796788811098E+03   -0.11963E-04   -0.15504E-05 20010   0.883E-03    0.203E-02
DAV:  11    -0.796788823341E+03   -0.12243E-04   -0.76937E-06 17830   0.876E-03    0.168E-02
DAV:  12    -0.796788838042E+03   -0.14701E-04   -0.36495E-05 30150   0.167E-02    0.114E-02
DAV:  13    -0.796788845331E+03   -0.72887E-05   -0.23606E-05 23020   0.979E-03
  33 F= -.79678885E+03 E0= -.79678885E+03  d E =-.476271E-02  mag=    47.0000
       N       E                     dE             d eps       ncg     rms          rms(c)
DAV:   1    -0.796690581187E+03    0.98257E-01   -0.10721E+01 35100   0.939E+00    0.103E+00
DAV:   2    -0.796775570716E+03   -0.84990E-01   -0.86888E-01 33210   0.178E+00    0.773E-01
DAV:   3    -0.796778981763E+03   -0.34110E-02   -0.19719E-02 38660   0.390E-01    0.402E-01
DAV:   4    -0.796778753192E+03    0.22857E-03   -0.19953E-03 42000   0.161E-01    0.334E-01
DAV:   5    -0.796778725849E+03    0.27343E-04   -0.14846E-03 43710   0.117E-01    0.111E-01
DAV:   6    -0.796778880609E+03   -0.15476E-03   -0.43640E-04 39320   0.558E-02    0.724E-02
DAV:   7    -0.796778911067E+03   -0.30458E-04   -0.65039E-05 33580   0.232E-02    0.522E-02
DAV:   8    -0.796778958222E+03   -0.47154E-04   -0.31677E-05 29130   0.182E-02    0.425E-02
DAV:   9    -0.796779004969E+03   -0.46747E-04   -0.40895E-05 32490   0.178E-02    0.349E-02
DAV:  10    -0.796779030891E+03   -0.25922E-04   -0.25942E-05 22870   0.125E-02    0.303E-02
DAV:  11    -0.796779065437E+03   -0.34546E-04   -0.22422E-05 26970   0.163E-02    0.246E-02
DAV:  12    -0.796779098741E+03   -0.33304E-04   -0.99150E-05 36660   0.265E-02    0.157E-02
DAV:  13    -0.796779116315E+03   -0.17574E-04   -0.58197E-05 26470   0.153E-02    0.131E-02
DAV:  14    -0.796779121896E+03   -0.55808E-05   -0.95785E-06 20220   0.654E-03
  34 F= -.79677912E+03 E0= -.79677912E+03  d E =0.972344E-02  mag=    47.0000
       N       E                     dE             d eps       ncg     rms          rms(c)
DAV:   1    -0.795740439857E+03    0.10387E+01   -0.76383E+01 35230   0.288E+01    0.348E+00
DAV:   2    -0.796560451608E+03   -0.82001E+00   -0.88639E+00 33760   0.592E+00    0.311E+00
DAV:   3    -0.796605218097E+03   -0.44766E-01   -0.36123E-01 40870   0.157E+00    0.159E+00
DAV:   4    -0.796600434186E+03    0.47839E-02   -0.36878E-02 42860   0.608E-01    0.136E+00
DAV:   5    -0.796597803154E+03    0.26310E-02   -0.33140E-02 38400   0.459E-01    0.467E-01
DAV:   6    -0.796598535918E+03   -0.73276E-03   -0.56319E-03 38600   0.230E-01    0.278E-01
DAV:   7    -0.796598688540E+03   -0.15262E-03   -0.30992E-03 38250   0.115E-01    0.160E-01
DAV:   8    -0.796598819278E+03   -0.13074E-03   -0.25359E-04 39930   0.548E-02    0.114E-01
DAV:   9    -0.796598974333E+03   -0.15505E-03   -0.20776E-04 41200   0.435E-02    0.794E-02
DAV:  10    -0.796599072252E+03   -0.97919E-04   -0.10319E-04 36080   0.294E-02    0.629E-02
DAV:  11    -0.796599149936E+03   -0.77684E-04   -0.65732E-05 32120   0.219E-02    0.537E-02
DAV:  12    -0.796599255389E+03   -0.10545E-03   -0.87774E-05 37160   0.266E-02    0.426E-02
DAV:  13    -0.796599341321E+03   -0.85932E-04   -0.12663E-04 37110   0.317E-02    0.325E-02
DAV:  14    -0.796599387358E+03   -0.46037E-04   -0.10997E-04 35860   0.256E-02    0.257E-02
DAV:  15    -0.796599407346E+03   -0.19988E-04   -0.44494E-05 23720   0.134E-02    0.173E-02
DAV:  16    -0.796599415501E+03   -0.81548E-05   -0.10441E-05 19240   0.727E-03
  35 F= -.79659942E+03 E0= -.79659942E+03  d E =0.179706E+00  mag=    47.0000
       N       E                     dE             d eps       ncg     rms          rms(c)
DAV:   1    -0.796067513927E+03    0.53189E+00   -0.45502E+01 35450   0.248E+01    0.312E+00
DAV:   2    -0.796722027574E+03   -0.65451E+00   -0.71976E+00 34090   0.502E+00    0.219E+00
DAV:   3    -0.796766412801E+03   -0.44385E-01   -0.29122E-01 40630   0.127E+00    0.122E+00
DAV:   4    -0.796761586625E+03    0.48262E-02   -0.28139E-02 44420   0.470E-01    0.876E-01
DAV:   5    -0.796759923871E+03    0.16628E-02   -0.20026E-02 37640   0.366E-01    0.352E-01
DAV:   6    -0.796760198839E+03   -0.27497E-03   -0.32484E-03 36810   0.207E-01    0.220E-01
DAV:   7    -0.796760306809E+03   -0.10797E-03   -0.19535E-03 42570   0.102E-01    0.120E-01
DAV:   8    -0.796760367086E+03   -0.60277E-04   -0.19137E-04 37440   0.431E-02    0.810E-02
DAV:   9    -0.796760432413E+03   -0.65328E-04   -0.11323E-04 38740   0.293E-02    0.494E-02
DAV:  10    -0.796760468749E+03   -0.36336E-04   -0.42159E-05 29380   0.194E-02    0.390E-02
DAV:  11    -0.796760490103E+03   -0.21354E-04   -0.19768E-05 20440   0.130E-02    0.334E-02
DAV:  12    -0.796760520351E+03   -0.30248E-04   -0.18781E-05 24810   0.126E-02    0.278E-02
DAV:  13    -0.796760557173E+03   -0.36822E-04   -0.45289E-05 32810   0.192E-02    0.211E-02
DAV:  14    -0.796760578602E+03   -0.21429E-04   -0.49509E-05 26210   0.157E-02    0.174E-02
DAV:  15    -0.796760588727E+03   -0.10124E-04   -0.19007E-05 22190   0.101E-02    0.120E-02
DAV:  16    -0.796760593731E+03   -0.50045E-05   -0.89868E-06 17630   0.715E-03
  36 F= -.79676059E+03 E0= -.79676059E+03  d E =-.161178E+00  mag=    47.0000
       N       E                     dE             d eps       ncg     rms          rms(c)
DAV:   1    -0.796758217482E+03    0.23712E-02   -0.13712E+00 34340   0.308E+00    0.365E-01
DAV:   2    -0.796767594544E+03   -0.93771E-02   -0.96787E-02 33520   0.656E-01    0.458E-01
DAV:   3    -0.796767734078E+03   -0.13953E-03   -0.33357E-03 37020   0.181E-01    0.247E-01
DAV:   4    -0.796767733620E+03    0.45761E-06   -0.31178E-04 40410   0.599E-02    0.226E-01
DAV:   5    -0.796767671883E+03    0.61738E-04   -0.40100E-04 40540   0.580E-02    0.678E-02
DAV:   6    -0.796767682435E+03   -0.10552E-04   -0.92117E-05 40500   0.268E-02    0.290E-02
DAV:   7    -0.796767683496E+03   -0.10615E-05   -0.19988E-05 19710   0.101E-02
  37 F= -.79676768E+03 E0= -.79676768E+03  d E =-.708976E-02  mag=    47.0000
       N       E                     dE             d eps       ncg     rms          rms(c)
DAV:   1    -0.796759429508E+03    0.82529E-02   -0.18576E+00 34960   0.401E+00    0.463E-01
DAV:   2    -0.796774648454E+03   -0.15219E-01   -0.16127E-01 33550   0.825E-01    0.499E-01
DAV:   3    -0.796775162928E+03   -0.51447E-03   -0.62729E-03 40090   0.226E-01    0.263E-01
DAV:   4    -0.796775089806E+03    0.73123E-04   -0.65281E-04 42700   0.858E-02    0.237E-01
DAV:   5    -0.796775008130E+03    0.81676E-04   -0.73100E-04 38930   0.754E-02    0.750E-02
DAV:   6    -0.796775025881E+03   -0.17751E-04   -0.15623E-04 40440   0.361E-02    0.423E-02
DAV:   7    -0.796775031032E+03   -0.51508E-05   -0.61629E-05 30920   0.161E-02
  38 F= -.79677503E+03 E0= -.79677503E+03  d E =-.734754E-02  mag=    47.0000
       N       E                     dE             d eps       ncg     rms          rms(c)
DAV:   1    -0.796766571781E+03    0.84541E-02   -0.11501E+00 34230   0.271E+00    0.310E-01
DAV:   2    -0.796773462873E+03   -0.68911E-02   -0.70861E-02 33430   0.558E-01    0.374E-01
DAV:   3    -0.796773571544E+03   -0.10867E-03   -0.22715E-03 36490   0.149E-01    0.207E-01
DAV:   4    -0.796773559137E+03    0.12407E-04   -0.21756E-04 40340   0.518E-02    0.188E-01
DAV:   5    -0.796773530317E+03    0.28820E-04   -0.29918E-04 40820   0.505E-02    0.599E-02
DAV:   6    -0.796773547875E+03   -0.17558E-04   -0.80270E-05 37450   0.250E-02    0.323E-02
DAV:   7    -0.796773553253E+03   -0.53786E-05   -0.16873E-05 18550   0.102E-02
  39 F= -.79677355E+03 E0= -.79677355E+03  d E =0.147778E-02  mag=    47.0000
       N       E                     dE             d eps       ncg     rms          rms(c)
DAV:   1    -0.796695805446E+03    0.77742E-01   -0.44101E+00 35280   0.712E+00    0.857E-01
DAV:   2    -0.796749717721E+03   -0.53912E-01   -0.58163E-01 33970   0.144E+00    0.617E-01
DAV:   3    -0.796752957902E+03   -0.32402E-02   -0.22469E-02 40470   0.358E-01    0.350E-01
DAV:   4    -0.796752574332E+03    0.38357E-03   -0.20773E-03 44300   0.134E-01    0.254E-01
DAV:   5    -0.796752471561E+03    0.10277E-03   -0.16581E-03 38060   0.108E-01    0.109E-01
DAV:   6    -0.796752519570E+03   -0.48008E-04   -0.31568E-04 37940   0.621E-02    0.711E-02
DAV:   7    -0.796752543692E+03   -0.24122E-04   -0.17106E-04 41010   0.308E-02    0.471E-02
DAV:   8    -0.796752568357E+03   -0.24665E-04   -0.21682E-05 23340   0.147E-02    0.374E-02
DAV:   9    -0.796752596720E+03   -0.28363E-04   -0.23191E-05 25960   0.132E-02    0.292E-02
DAV:  10    -0.796752617628E+03   -0.20908E-04   -0.18040E-05 24840   0.108E-02    0.252E-02
DAV:  11    -0.796752632719E+03   -0.15092E-04   -0.11344E-05 20200   0.899E-03    0.214E-02
DAV:  12    -0.796752654994E+03   -0.22275E-04   -0.18884E-05 27550   0.150E-02    0.164E-02
DAV:  13    -0.796752671039E+03   -0.16045E-04   -0.67569E-05 32730   0.177E-02    0.108E-02
DAV:  14    -0.796752679269E+03   -0.82303E-05   -0.24968E-05 21340   0.914E-03
  40 F= -.79675268E+03 E0= -.79675268E+03  d E =0.208740E-01  mag=    47.0000
       N       E                     dE             d eps       ncg     rms          rms(c)
DAV:   1    -0.792261936713E+03    0.44907E+01   -0.24945E+02 35800   0.571E+01    0.753E+00
DAV:   2    -0.795782859040E+03   -0.35209E+01   -0.38687E+01 34030   0.119E+01    0.542E+00
DAV:   3    -0.796005156962E+03   -0.22230E+00   -0.16635E+00 41180   0.314E+00    0.295E+00
DAV:   4    -0.795977342333E+03    0.27815E-01   -0.16140E-01 40690   0.115E+00    0.214E+00
DAV:   5    -0.795964637831E+03    0.12705E-01   -0.10921E-01 37970   0.839E-01    0.899E-01
DAV:   6    -0.795967825086E+03   -0.31873E-02   -0.19740E-02 35590   0.460E-01    0.538E-01
DAV:   7    -0.795968709243E+03   -0.88416E-03   -0.96786E-03 41790   0.227E-01    0.318E-01
DAV:   8    -0.795969382883E+03   -0.67364E-03   -0.11770E-03 38720   0.105E-01    0.226E-01
DAV:   9    -0.795970040665E+03   -0.65778E-03   -0.79729E-04 40570   0.875E-02    0.149E-01
DAV:  10    -0.795970408863E+03   -0.36820E-03   -0.42569E-04 38090   0.564E-02    0.122E-01
DAV:  11    -0.795970659175E+03   -0.25031E-03   -0.18284E-04 38720   0.387E-02    0.106E-01
DAV:  12    -0.795971042139E+03   -0.38296E-03   -0.24808E-04 42710   0.462E-02    0.872E-02
DAV:  13    -0.795971440070E+03   -0.39793E-03   -0.57662E-04 42350   0.735E-02    0.669E-02
DAV:  14    -0.795971642755E+03   -0.20269E-03   -0.48498E-04 41990   0.491E-02    0.535E-02
DAV:  15    -0.795971735662E+03   -0.92907E-04   -0.12552E-04 35410   0.274E-02    0.377E-02
DAV:  16    -0.795971783677E+03   -0.48015E-04   -0.76746E-05 31260   0.187E-02    0.284E-02
DAV:  17    -0.795971815316E+03   -0.31639E-04   -0.39966E-05 30750   0.170E-02    0.204E-02
DAV:  18    -0.795971833377E+03   -0.18060E-04   -0.34938E-05 27440   0.122E-02    0.169E-02
DAV:  19    -0.795971843317E+03   -0.99400E-05   -0.10068E-05 20010   0.739E-03
  41 F= -.79597184E+03 E0= -.79597184E+03  d E =0.780836E+00  mag=    47.0000
       N       E                     dE             d eps       ncg     rms          rms(c)
DAV:   1    -0.793354304291E+03    0.26175E+01   -0.21984E+02 35520   0.543E+01    0.709E+00
DAV:   2    -0.796554227646E+03   -0.31999E+01   -0.35462E+01 33820   0.111E+01    0.506E+00
DAV:   3    -0.796765812706E+03   -0.21159E+00   -0.14432E+00 40960   0.280E+00    0.278E+00
DAV:   4    -0.796741820986E+03    0.23992E-01   -0.13625E-01 40120   0.104E+00    0.206E+00
DAV:   5    -0.796732415494E+03    0.94055E-02   -0.10054E-01 38250   0.789E-01    0.821E-01
DAV:   6    -0.796734731198E+03   -0.23157E-02   -0.16694E-02 36490   0.476E-01    0.536E-01
DAV:   7    -0.796735502682E+03   -0.77148E-03   -0.10512E-02 41960   0.237E-01    0.297E-01
DAV:   8    -0.796735979819E+03   -0.47714E-03   -0.10767E-03 37750   0.104E-01    0.204E-01
DAV:   9    -0.796736463925E+03   -0.48411E-03   -0.76129E-04 40640   0.807E-02    0.137E-01
DAV:  10    -0.796736786631E+03   -0.32271E-03   -0.33988E-04 38360   0.520E-02    0.110E-01
DAV:  11    -0.796736992449E+03   -0.20582E-03   -0.17558E-04 37610   0.363E-02    0.936E-02
DAV:  12    -0.796737292521E+03   -0.30007E-03   -0.21097E-04 40690   0.420E-02    0.768E-02
DAV:  13    -0.796737592235E+03   -0.29971E-03   -0.41736E-04 42090   0.605E-02    0.595E-02
DAV:  14    -0.796737754363E+03   -0.16213E-03   -0.36436E-04 41060   0.454E-02    0.463E-02
DAV:  15    -0.796737831084E+03   -0.76721E-04   -0.13225E-04 34430   0.271E-02    0.321E-02
DAV:  16    -0.796737867524E+03   -0.36440E-04   -0.64245E-05 28030   0.176E-02    0.232E-02
DAV:  17    -0.796737887599E+03   -0.20075E-04   -0.27819E-05 26160   0.128E-02    0.178E-02
DAV:  18    -0.796737898006E+03   -0.10408E-04   -0.15881E-05 21340   0.911E-03    0.144E-02
DAV:  19    -0.796737905199E+03   -0.71930E-05   -0.76537E-06 18310   0.728E-03
  42 F= -.79673791E+03 E0= -.79673791E+03  d E =-.766062E+00  mag=    47.0000
       N       E                     dE             d eps       ncg     rms          rms(c)
DAV:   1    -0.796738485289E+03   -0.58728E-03   -0.69069E-01 34400   0.214E+00    0.250E-01
DAV:   2    -0.796742913881E+03   -0.44286E-02   -0.46250E-02 33540   0.455E-01    0.320E-01
DAV:   3    -0.796742966946E+03   -0.53065E-04   -0.17138E-03 38720   0.126E-01    0.176E-01
DAV:   4    -0.796742951858E+03    0.15088E-04   -0.16977E-04 42270   0.429E-02    0.159E-01
DAV:   5    -0.796742915917E+03    0.35941E-04   -0.23108E-04 40270   0.440E-02    0.488E-02
DAV:   6    -0.796742921001E+03   -0.50845E-05   -0.52797E-05 35810   0.207E-02
  43 F= -.79674292E+03 E0= -.79674292E+03  d E =-.501580E-02  mag=    47.0000
       N       E                     dE             d eps       ncg     rms          rms(c)
DAV:   1    -0.796713548795E+03    0.29367E-01   -0.63673E+00 34440   0.724E+00    0.838E-01
DAV:   2    -0.796761890394E+03   -0.48342E-01   -0.52131E-01 34420   0.150E+00    0.922E-01
DAV:   3    -0.796763642085E+03   -0.17517E-02   -0.21027E-02 40310   0.410E-01    0.491E-01
DAV:   4    -0.796763379617E+03    0.26247E-03   -0.23034E-03 43210   0.159E-01    0.443E-01
DAV:   5    -0.796763108694E+03    0.27092E-03   -0.26422E-03 38870   0.136E-01    0.137E-01
DAV:   6    -0.796763136683E+03   -0.27990E-04   -0.49923E-04 41380   0.637E-02    0.766E-02
DAV:   7    -0.796763143932E+03   -0.72484E-05   -0.23302E-04 36700   0.288E-02    0.473E-02
DAV:   8    -0.796763152716E+03   -0.87848E-05   -0.13678E-05 20370   0.139E-02
  44 F= -.79676315E+03 E0= -.79676315E+03  d E =-.202317E-01  mag=    47.0000
       N       E                     dE             d eps       ncg     rms          rms(c)
DAV:   1    -0.796761294200E+03    0.18497E-02   -0.17335E-01 35260   0.139E+00    0.173E-01
DAV:   2    -0.796763319109E+03   -0.20249E-02   -0.22183E-02 34330   0.286E-01    0.133E-01
DAV:   3    -0.796763456821E+03   -0.13771E-03   -0.98113E-04 40360   0.739E-02    0.744E-02
DAV:   4    -0.796763444157E+03    0.12664E-04   -0.92854E-05 42390   0.286E-02    0.588E-02
DAV:   5    -0.796763448237E+03   -0.40801E-05   -0.86940E-05 37380   0.242E-02
  45 F= -.79676345E+03 E0= -.79676345E+03  d E =-.295521E-03  mag=    47.0000
       N       E                     dE             d eps       ncg     rms          rms(c)
DAV:   1    -0.796542230499E+03    0.22121E+00   -0.20697E+01 34650   0.130E+01    0.153E+00
DAV:   2    -0.796712203721E+03   -0.16997E+00   -0.17632E+00 33480   0.274E+00    0.177E+00
DAV:   3    -0.796716476619E+03   -0.42729E-02   -0.64209E-02 39110   0.746E-01    0.927E-01
DAV:   4    -0.796716303387E+03    0.17323E-03   -0.61820E-03 42180   0.260E-01    0.842E-01
DAV:   5    -0.796715432838E+03    0.87055E-03   -0.70738E-03 40410   0.251E-01    0.260E-01
DAV:   6    -0.796715656610E+03   -0.22377E-03   -0.16201E-03 42230   0.115E-01    0.127E-01
DAV:   7    -0.796715687745E+03   -0.31135E-04   -0.50510E-04 39820   0.535E-02    0.903E-02
DAV:   8    -0.796715719815E+03   -0.32070E-04   -0.57544E-05 34480   0.270E-02    0.636E-02
DAV:   9    -0.796715770096E+03   -0.50281E-04   -0.55547E-05 34660   0.253E-02    0.455E-02
DAV:  10    -0.796715808855E+03   -0.38759E-04   -0.45976E-05 29340   0.177E-02    0.362E-02
DAV:  11    -0.796715832417E+03   -0.23562E-04   -0.23312E-05 21500   0.113E-02    0.310E-02
DAV:  12    -0.796715868516E+03   -0.36098E-04   -0.20282E-05 24900   0.165E-02    0.265E-02
DAV:  13    -0.796715900351E+03   -0.31835E-04   -0.72823E-05 33520   0.201E-02    0.196E-02
DAV:  14    -0.796715917795E+03   -0.17444E-04   -0.45363E-05 25570   0.153E-02    0.157E-02
DAV:  15    -0.796715925378E+03   -0.75828E-05   -0.17473E-05 21900   0.876E-03
  46 F= -.79671593E+03 E0= -.79671593E+03  d E =0.475229E-01  mag=    47.0000
       N       E                     dE             d eps       ncg     rms          rms(c)
DAV:   1    -0.796295948768E+03    0.41997E+00   -0.36064E+01 34960   0.192E+01    0.237E+00
DAV:   2    -0.796711120814E+03   -0.41517E+00   -0.43856E+00 33690   0.404E+00    0.226E+00
DAV:   3    -0.796728547006E+03   -0.17426E-01   -0.16156E-01 40800   0.109E+00    0.117E+00
DAV:   4    -0.796726913486E+03    0.16335E-02   -0.16909E-02 43540   0.424E-01    0.102E+00
DAV:   5    -0.796725499039E+03    0.14144E-02   -0.15621E-02 40460   0.345E-01    0.335E-01
DAV:   6    -0.796725890537E+03   -0.39150E-03   -0.30719E-03 40060   0.162E-01    0.187E-01
DAV:   7    -0.796725983885E+03   -0.93348E-04   -0.13106E-03 38090   0.753E-02    0.114E-01
DAV:   8    -0.796726062428E+03   -0.78543E-04   -0.13260E-04 39110   0.387E-02    0.812E-02
DAV:   9    -0.796726146215E+03   -0.83787E-04   -0.97711E-05 40740   0.324E-02    0.588E-02
DAV:  10    -0.796726207210E+03   -0.60995E-04   -0.61424E-05 32530   0.224E-02    0.466E-02
DAV:  11    -0.796726250436E+03   -0.43226E-04   -0.38593E-05 24940   0.161E-02    0.388E-02
DAV:  12    -0.796726308410E+03   -0.57974E-04   -0.49873E-05 33140   0.201E-02    0.304E-02
DAV:  13    -0.796726352838E+03   -0.44428E-04   -0.76176E-05 34310   0.235E-02    0.237E-02
DAV:  14    -0.796726374158E+03   -0.21320E-04   -0.48904E-05 26940   0.157E-02    0.178E-02
DAV:  15    -0.796726383379E+03   -0.92209E-05   -0.17363E-05 21090   0.944E-03
  47 F= -.79672638E+03 E0= -.79672638E+03  d E =-.104580E-01  mag=    47.0000
       N       E                     dE             d eps       ncg     rms          rms(c)
DAV:   1    -0.796662433860E+03    0.63940E-01   -0.58621E+00 35170   0.843E+00    0.106E+00
DAV:   2    -0.796747531660E+03   -0.85098E-01   -0.90594E-01 33770   0.174E+00    0.855E-01
DAV:   3    -0.796751974000E+03   -0.44423E-02   -0.32788E-02 41090   0.461E-01    0.458E-01
DAV:   4    -0.796751538967E+03    0.43503E-03   -0.34511E-03 43370   0.179E-01    0.367E-01
DAV:   5    -0.796751321555E+03    0.21741E-03   -0.27229E-03 39140   0.145E-01    0.132E-01
DAV:   6    -0.796751392196E+03   -0.70642E-04   -0.52100E-04 38530   0.716E-02    0.788E-02
DAV:   7    -0.796751409868E+03   -0.17672E-04   -0.23203E-04 39740   0.335E-02    0.455E-02
DAV:   8    -0.796751422690E+03   -0.12822E-04   -0.23672E-05 26090   0.169E-02    0.336E-02
DAV:   9    -0.796751434783E+03   -0.12094E-04   -0.16714E-05 21370   0.134E-02    0.239E-02
DAV:  10    -0.796751443133E+03   -0.83491E-05   -0.11880E-05 19330   0.904E-03
  48 F= -.79675144E+03 E0= -.79675144E+03  d E =-.250598E-01  mag=    47.0000
       N       E                     dE             d eps       ncg     rms          rms(c)
DAV:   1    -0.796749022527E+03    0.24123E-02   -0.16953E-01 35550   0.147E+00    0.183E-01
DAV:   2    -0.796751581543E+03   -0.25590E-02   -0.27049E-02 33600   0.300E-01    0.134E-01
DAV:   3    -0.796751725421E+03   -0.14388E-03   -0.94785E-04 40530   0.764E-02    0.752E-02
DAV:   4    -0.796751715935E+03    0.94858E-05   -0.88848E-05 41840   0.281E-02
  49 F= -.79675172E+03 E0= -.79675172E+03  d E =-.272803E-03  mag=    47.0000
       N       E                     dE             d eps       ncg     rms          rms(c)
DAV:   1    -0.796722636661E+03    0.29089E-01   -0.16246E+00 35310   0.427E+00    0.516E-01
DAV:   2    -0.796743528881E+03   -0.20892E-01   -0.21990E-01 33600   0.863E-01    0.392E-01
DAV:   3    -0.796744609167E+03   -0.10803E-02   -0.74004E-03 39410   0.217E-01    0.222E-01
DAV:   4    -0.796744518418E+03    0.90749E-04   -0.71047E-04 44200   0.816E-02    0.168E-01
DAV:   5    -0.796744493904E+03    0.24514E-04   -0.56056E-04 40060   0.668E-02    0.638E-02
DAV:   6    -0.796744519060E+03   -0.25156E-04   -0.11584E-04 37770   0.339E-02    0.397E-02
DAV:   7    -0.796744527922E+03   -0.88619E-05   -0.47935E-05 30710   0.168E-02
  50 F= -.79674453E+03 E0= -.79674453E+03  d E =0.718801E-02  mag=    47.0000
       N       E                     dE             d eps       ncg     rms          rms(c)
DAV:   1    -0.796706020015E+03    0.38499E-01   -0.25881E+00 34940   0.463E+00    0.523E-01
DAV:   2    -0.796727345036E+03   -0.21325E-01   -0.22005E-01 33330   0.910E-01    0.442E-01
DAV:   3    -0.796728184672E+03   -0.83964E-03   -0.62707E-03 38780   0.230E-01    0.225E-01
DAV:   4    -0.796728124609E+03    0.60063E-04   -0.64401E-04 42820   0.893E-02    0.193E-01
DAV:   5    -0.796728096061E+03    0.28548E-04   -0.54756E-04 40540   0.678E-02    0.656E-02
DAV:   6    -0.796728138459E+03   -0.42397E-04   -0.14817E-04 39350   0.320E-02    0.413E-02
DAV:   7    -0.796728149019E+03   -0.10560E-04   -0.29597E-05 25750   0.141E-02    0.302E-02
DAV:   8    -0.796728161556E+03   -0.12537E-04   -0.90114E-06 18370   0.953E-03    0.256E-02
DAV:   9    -0.796728176533E+03   -0.14977E-04   -0.11736E-05 20820   0.960E-03    0.206E-02
DAV:  10    -0.796728187034E+03   -0.10501E-04   -0.11680E-05 20680   0.770E-03    0.177E-02
DAV:  11    -0.796728197060E+03   -0.10026E-04   -0.66720E-06 17440   0.809E-03    0.150E-02
DAV:  12    -0.796728208951E+03   -0.11890E-04   -0.24101E-05 27260   0.133E-02    0.102E-02
DAV:  13    -0.796728215688E+03   -0.67377E-05   -0.25993E-05 25680   0.110E-02
  51 F= -.79672822E+03 E0= -.79672822E+03  d E =0.163122E-01  mag=    47.0000
       N       E                     dE             d eps       ncg     rms          rms(c)
DAV:   1    -0.795528936695E+03    0.11993E+01   -0.63547E+01 35080   0.294E+01    0.379E+00
DAV:   2    -0.796542169798E+03   -0.10132E+01   -0.10765E+01 33720   0.598E+00    0.261E+00
DAV:   3    -0.796599546535E+03   -0.57377E-01   -0.37418E-01 41210   0.149E+00    0.143E+00
DAV:   4    -0.796594573726E+03    0.49728E-02   -0.35002E-02 43680   0.542E-01    0.102E+00
DAV:   5    -0.796592637292E+03    0.19364E-02   -0.23587E-02 39670   0.423E-01    0.410E-01
DAV:   6    -0.796593388433E+03   -0.75114E-03   -0.47777E-03 38520   0.229E-01    0.234E-01
DAV:   7    -0.796593562384E+03   -0.17395E-03   -0.19127E-03 41140   0.105E-01    0.138E-01
DAV:   8    -0.796593688240E+03   -0.12586E-03   -0.25486E-04 38910   0.504E-02    0.101E-01
DAV:   9    -0.796593820534E+03   -0.13229E-03   -0.15302E-04 41760   0.373E-02    0.703E-02
DAV:  10    -0.796593907528E+03   -0.86993E-04   -0.85093E-05 34920   0.249E-02    0.574E-02
DAV:  11    -0.796593978073E+03   -0.70545E-04   -0.45736E-05 28570   0.196E-02    0.495E-02
DAV:  12    -0.796594059934E+03   -0.81861E-04   -0.59866E-05 34790   0.207E-02    0.403E-02
DAV:  13    -0.796594152596E+03   -0.92662E-04   -0.13578E-04 39780   0.349E-02    0.307E-02
DAV:  14    -0.796594199020E+03   -0.46425E-04   -0.10945E-04 34870   0.227E-02    0.240E-02
DAV:  15    -0.796594220209E+03   -0.21189E-04   -0.30456E-05 21180   0.123E-02    0.172E-02
DAV:  16    -0.796594230735E+03   -0.10526E-04   -0.15779E-05 22540   0.812E-03    0.137E-02
DAV:  17    -0.796594237887E+03   -0.71518E-05   -0.58603E-06 17770   0.723E-03
  52 F= -.79659424E+03 E0= -.79659424E+03  d E =0.133978E+00  mag=    47.0000
       N       E                     dE             d eps       ncg     rms          rms(c)
DAV:   1    -0.796387606047E+03    0.20662E+00   -0.19263E+01 35130   0.164E+01    0.209E+00
DAV:   2    -0.796718249152E+03   -0.33064E+00   -0.35157E+00 33660   0.331E+00    0.143E+00
DAV:   3    -0.796736798867E+03   -0.18550E-01   -0.11648E-01 40750   0.805E-01    0.803E-01
DAV:   4    -0.796735159712E+03    0.16392E-02   -0.11273E-02 44080   0.288E-01    0.573E-01
DAV:   5    -0.796734554582E+03    0.60513E-03   -0.74992E-03 38680   0.241E-01    0.227E-01
DAV:   6    -0.796734764242E+03   -0.20966E-03   -0.15547E-03 38450   0.131E-01    0.138E-01
DAV:   7    -0.796734809289E+03   -0.45047E-04   -0.63290E-04 41380   0.613E-02    0.798E-02
DAV:   8    -0.796734843473E+03   -0.34184E-04   -0.81584E-05 35140   0.295E-02    0.549E-02
DAV:   9    -0.796734877379E+03   -0.33906E-04   -0.45856E-05 33580   0.215E-02    0.382E-02
DAV:  10    -0.796734899891E+03   -0.22512E-04   -0.25793E-05 22850   0.141E-02    0.299E-02
DAV:  11    -0.796734915130E+03   -0.15238E-04   -0.11584E-05 19490   0.938E-03    0.253E-02
DAV:  12    -0.796734935588E+03   -0.20458E-04   -0.12120E-05 20740   0.105E-02    0.209E-02
DAV:  13    -0.796734956334E+03   -0.20746E-04   -0.31988E-05 27920   0.137E-02    0.159E-02
DAV:  14    -0.796734968549E+03   -0.12216E-04   -0.26025E-05 25630   0.118E-02    0.128E-02
DAV:  15    -0.796734974287E+03   -0.57376E-05   -0.12242E-05 19170   0.778E-03
  53 F= -.79673497E+03 E0= -.79673497E+03  d E =-.140736E+00  mag=    47.0000
       N       E                     dE             d eps       ncg     rms          rms(c)
DAV:   1    -0.796653780981E+03    0.81188E-01   -0.54383E+00 35350   0.872E+00    0.110E+00
DAV:   2    -0.796744675434E+03   -0.90894E-01   -0.96434E-01 33610   0.176E+00    0.771E-01
DAV:   3    -0.796749968118E+03   -0.52927E-02   -0.32748E-02 40740   0.446E-01    0.425E-01
DAV:   4    -0.796749573725E+03    0.39439E-03   -0.31382E-03 43410   0.163E-01    0.307E-01
DAV:   5    -0.796749444068E+03    0.12966E-03   -0.21938E-03 39330   0.130E-01    0.120E-01
DAV:   6    -0.796749511234E+03   -0.67166E-04   -0.41967E-04 38540   0.691E-02    0.729E-02
DAV:   7    -0.796749531263E+03   -0.20030E-04   -0.17863E-04 40950   0.323E-02    0.437E-02
DAV:   8    -0.796749546371E+03   -0.15107E-04   -0.21396E-05 24040   0.160E-02    0.335E-02
DAV:   9    -0.796749562196E+03   -0.15825E-04   -0.17874E-05 21120   0.125E-02    0.250E-02
DAV:  10    -0.796749573092E+03   -0.10896E-04   -0.12178E-05 19180   0.878E-03    0.200E-02
DAV:  11    -0.796749582359E+03   -0.92670E-05   -0.57729E-06 16800   0.685E-03
  54 F= -.79674958E+03 E0= -.79674958E+03  d E =-.146081E-01  mag=    47.0000
       N       E                     dE             d eps       ncg     rms          rms(c)
DAV:   1    -0.796751503418E+03   -0.19303E-02   -0.97095E-02 35500   0.969E-01    0.113E-01
DAV:   2    -0.796752458404E+03   -0.95499E-03   -0.99067E-03 33400   0.190E-01    0.871E-02
DAV:   3    -0.796752501273E+03   -0.42869E-04   -0.30353E-04 40810   0.455E-02    0.474E-02
DAV:   4    -0.796752498245E+03    0.30284E-05   -0.26311E-05 26480   0.187E-02
  55 F= -.79675250E+03 E0= -.79675250E+03  d E =-.291589E-02  mag=    47.0000
       N       E                     dE             d eps       ncg     rms          rms(c)
DAV:   1    -0.796746467487E+03    0.60338E-02   -0.17201E+00 34910   0.396E+00    0.445E-01
DAV:   2    -0.796762141681E+03   -0.15674E-01   -0.16353E-01 33390   0.769E-01    0.312E-01
DAV:   3    -0.796762795583E+03   -0.65390E-03   -0.47295E-03 40560   0.172E-01    0.175E-01
DAV:   4    -0.796762715168E+03    0.80416E-04   -0.49425E-04 43610   0.694E-02    0.135E-01
DAV:   5    -0.796762701958E+03    0.13210E-04   -0.37095E-04 38850   0.536E-02    0.557E-02
DAV:   6    -0.796762731945E+03   -0.29987E-04   -0.11187E-04 37390   0.306E-02    0.430E-02
DAV:   7    -0.796762744747E+03   -0.12802E-04   -0.31250E-05 28080   0.143E-02    0.325E-02
DAV:   8    -0.796762763501E+03   -0.18753E-04   -0.11858E-05 20510   0.103E-02    0.285E-02
DAV:   9    -0.796762784226E+03   -0.20725E-04   -0.15669E-05 26620   0.108E-02    0.238E-02
DAV:  10    -0.796762799508E+03   -0.15283E-04   -0.17460E-05 23190   0.908E-03    0.208E-02
DAV:  11    -0.796762813602E+03   -0.14093E-04   -0.11638E-05 23140   0.950E-03    0.180E-02
DAV:  12    -0.796762830827E+03   -0.17226E-04   -0.36378E-05 30690   0.173E-02    0.118E-02
DAV:  13    -0.796762841115E+03   -0.10287E-04   -0.53003E-05 30460   0.149E-02    0.879E-03
DAV:  14    -0.796762846389E+03   -0.52741E-05   -0.14806E-05 21020   0.691E-03
  56 F= -.79676285E+03 E0= -.79676285E+03  d E =-.103481E-01  mag=    47.0000
       N       E                     dE             d eps       ncg     rms          rms(c)
DAV:   1    -0.796743931032E+03    0.18910E-01   -0.24480E+00 35070   0.460E+00    0.522E-01
DAV:   2    -0.796764724774E+03   -0.20794E-01   -0.21313E-01 33330   0.900E-01    0.452E-01
DAV:   3    -0.796765492691E+03   -0.76792E-03   -0.55988E-03 37930   0.219E-01    0.230E-01
DAV:   4    -0.796765450377E+03    0.42314E-04   -0.56356E-04 42080   0.874E-02    0.203E-01
DAV:   5    -0.796765424706E+03    0.25670E-04   -0.46442E-04 42290   0.659E-02    0.656E-02
DAV:   6    -0.796765462828E+03   -0.38122E-04   -0.13043E-04 39110   0.306E-02    0.389E-02
DAV:   7    -0.796765470362E+03   -0.75343E-05   -0.21668E-05 22190   0.127E-02
  57 F= -.79676547E+03 E0= -.79676547E+03  d E =-.262397E-02  mag=    47.0000
       N       E                     dE             d eps       ncg     rms          rms(c)
DAV:   1    -0.796172829931E+03    0.59263E+00   -0.61998E+01 35160   0.231E+01    0.260E+00
DAV:   2    -0.796688496091E+03   -0.51567E+00   -0.52899E+00 33170   0.433E+00    0.178E+00
DAV:   3    -0.796712315612E+03   -0.23820E-01   -0.12099E-01 38890   0.906E-01    0.941E-01
DAV:   4    -0.796710923815E+03    0.13918E-02   -0.11368E-02 43010   0.360E-01    0.733E-01
DAV:   5    -0.796711118697E+03   -0.19488E-03   -0.76647E-03 43790   0.266E-01    0.261E-01
DAV:   6    -0.796711959288E+03   -0.84059E-03   -0.23471E-03 39730   0.135E-01    0.175E-01
DAV:   7    -0.796712148104E+03   -0.18882E-03   -0.43582E-04 40170   0.595E-02    0.127E-01
DAV:   8    -0.796712422238E+03   -0.27413E-03   -0.17406E-04 42430   0.417E-02    0.104E-01
DAV:   9    -0.796712708800E+03   -0.28656E-03   -0.21069E-04 40570   0.395E-02    0.862E-02
DAV:  10    -0.796712890628E+03   -0.18183E-03   -0.14975E-04 36390   0.293E-02    0.758E-02
DAV:  11    -0.796713126704E+03   -0.23608E-03   -0.18759E-04 42150   0.402E-02    0.594E-02
DAV:  12    -0.796713343250E+03   -0.21655E-03   -0.50955E-04 42330   0.651E-02    0.409E-02
DAV:  13    -0.796713451267E+03   -0.10802E-03   -0.36777E-04 41750   0.404E-02    0.294E-02
DAV:  14    -0.796713489698E+03   -0.38431E-04   -0.76405E-05 30910   0.164E-02    0.210E-02
DAV:  15    -0.796713499934E+03   -0.10236E-04   -0.13176E-05 19480   0.732E-03    0.168E-02
DAV:  16    -0.796713507311E+03   -0.73773E-05   -0.35369E-06 16730   0.660E-03
  58 F= -.79671351E+03 E0= -.79671351E+03  d E =0.519631E-01  mag=    47.0000
       N       E                     dE             d eps       ncg     rms          rms(c)
DAV:   1    -0.796680425491E+03    0.33074E-01   -0.41702E+00 35380   0.707E+00    0.867E-01
DAV:   2    -0.796735372929E+03   -0.54947E-01   -0.58551E-01 33590   0.146E+00    0.704E-01
DAV:   3    -0.796738427914E+03   -0.30550E-02   -0.21250E-02 40720   0.377E-01    0.372E-01
DAV:   4    -0.796738158678E+03    0.26924E-03   -0.21540E-03 43340   0.146E-01    0.301E-01
DAV:   5    -0.796738004502E+03    0.15418E-03   -0.16652E-03 38170   0.111E-01    0.106E-01
DAV:   6    -0.796738059343E+03   -0.54841E-04   -0.34730E-04 37670   0.584E-02    0.632E-02
DAV:   7    -0.796738066305E+03   -0.69615E-05   -0.14342E-04 41250   0.272E-02    0.348E-02
DAV:   8    -0.796738071154E+03   -0.48494E-05   -0.11863E-05 20950   0.125E-02
  59 F= -.79673807E+03 E0= -.79673807E+03  d E =-.245638E-01  mag=    47.0000
       N       E                     dE             d eps       ncg     rms          rms(c)
DAV:   1    -0.796738521066E+03   -0.45476E-03   -0.94205E-02 35300   0.934E-01    0.110E-01
DAV:   2    -0.796739384913E+03   -0.86385E-03   -0.87390E-03 33330   0.178E-01    0.830E-02
DAV:   3    -0.796739426119E+03   -0.41206E-04   -0.20750E-04 36720   0.397E-02    0.449E-02
[...]
DAV:   9    -0.796769066314E+03   -0.85405E-04   -0.71715E-05 36440   0.231E-02    0.513E-02
DAV:  10    -0.796769121958E+03   -0.55644E-04   -0.44831E-05 29230   0.177E-02    0.447E-02
DAV:  11    -0.796769164566E+03   -0.42608E-04   -0.29102E-05 27030   0.149E-02    0.394E-02
DAV:  12    -0.796769236751E+03   -0.72186E-04   -0.65633E-05 34300   0.277E-02    0.287E-02
DAV:  13    -0.796769287801E+03   -0.51049E-04   -0.18802E-04 37880   0.328E-02    0.201E-02
DAV:  14    -0.796769313858E+03   -0.26057E-04   -0.71071E-05 30290   0.165E-02    0.160E-02
DAV:  15    -0.796769321721E+03   -0.78630E-05   -0.11194E-05 19530   0.743E-03
 180 F= -.79676932E+03 E0= -.79676932E+03  d E =0.407626E-01  mag=    47.0000
       N       E                     dE             d eps       ncg     rms          rms(c)
DAV:   1    -0.796700721278E+03    0.68593E-01   -0.64111E+00 35180   0.909E+00    0.118E+00
DAV:   2    -0.796802258626E+03   -0.10154E+00   -0.11279E+00 34870   0.194E+00    0.857E-01
DAV:   3    -0.796809172995E+03   -0.69144E-02   -0.49641E-02 40740   0.506E-01    0.479E-01
DAV:   4    -0.796808322301E+03    0.85069E-03   -0.44733E-03 43300   0.180E-01    0.335E-01
DAV:   5    -0.796808071151E+03    0.25115E-03   -0.34386E-03 37640   0.148E-01    0.145E-01
DAV:   6    -0.796808094330E+03   -0.23179E-04   -0.46394E-04 37860   0.813E-02    0.894E-02
DAV:   7    -0.796808117699E+03   -0.23369E-04   -0.33319E-04 42320   0.412E-02    0.513E-02
DAV:   8    -0.796808135693E+03   -0.17994E-04   -0.32050E-05 28570   0.186E-02    0.375E-02
DAV:   9    -0.796808152731E+03   -0.17038E-04   -0.21250E-05 22550   0.133E-02    0.250E-02
DAV:  10    -0.796808162131E+03   -0.94005E-05   -0.11961E-05 19320   0.929E-03
 181 F= -.79680816E+03 E0= -.79680816E+03  d E =-.388404E-01  mag=    47.0000
       N       E                     dE             d eps       ncg     rms          rms(c)
DAV:   1    -0.796800358442E+03    0.77943E-02   -0.57365E-01 35260   0.262E+00    0.320E-01
DAV:   2    -0.796808024137E+03   -0.76657E-02   -0.83622E-02 34470   0.542E-01    0.221E-01
DAV:   3    -0.796808539045E+03   -0.51491E-03   -0.35021E-03 40230   0.135E-01    0.127E-01
DAV:   4    -0.796808489203E+03    0.49841E-04   -0.28795E-04 44020   0.448E-02    0.856E-02
DAV:   5    -0.796808484628E+03    0.45758E-05   -0.22072E-04 38100   0.375E-02    0.412E-02
DAV:   6    -0.796808492550E+03   -0.79220E-05   -0.33287E-05 29270   0.208E-02
 182 F= -.79680849E+03 E0= -.79680849E+03  d E =-.330418E-03  mag=    47.0000
       N       E                     dE             d eps       ncg     rms          rms(c)
DAV:   1    -0.796796619864E+03    0.11865E-01   -0.85970E-01 35420   0.290E+00    0.331E-01
DAV:   2    -0.796804805132E+03   -0.81853E-02   -0.84692E-02 33300   0.552E-01    0.194E-01
DAV:   3    -0.796805266932E+03   -0.46180E-03   -0.23079E-03 38870   0.114E-01    0.112E-01
DAV:   4    -0.796805250793E+03    0.16139E-04   -0.17894E-04 43030   0.371E-02    0.759E-02
DAV:   5    -0.796805266332E+03   -0.15539E-04   -0.12755E-04 39340   0.302E-02    0.355E-02
DAV:   6    -0.796805278744E+03   -0.12412E-04   -0.29924E-05 28640   0.177E-02    0.266E-02
DAV:   7    -0.796805283959E+03   -0.52151E-05   -0.13275E-05 18100   0.106E-02
 183 F= -.79680528E+03 E0= -.79680528E+03  d E =0.320859E-02  mag=    47.0000
       N       E                     dE             d eps       ncg     rms          rms(c)
DAV:   1    -0.796464756105E+03    0.34052E+00   -0.24163E+01 35700   0.163E+01    0.197E+00
DAV:   2    -0.796747276911E+03   -0.28252E+00   -0.29826E+00 33670   0.322E+00    0.120E+00
DAV:   3    -0.796764393585E+03   -0.17117E-01   -0.97951E-02 40790   0.726E-01    0.680E-01
DAV:   4    -0.796763292216E+03    0.11014E-02   -0.81351E-03 43710   0.253E-01    0.456E-01
DAV:   5    -0.796763218116E+03    0.74099E-04   -0.53012E-03 38590   0.197E-01    0.206E-01
DAV:   6    -0.796763420371E+03   -0.20225E-03   -0.10686E-03 39870   0.118E-01    0.126E-01
DAV:   7    -0.796763494129E+03   -0.73758E-04   -0.52327E-04 42240   0.565E-02    0.817E-02
DAV:   8    -0.796763561990E+03   -0.67861E-04   -0.74080E-05 37210   0.271E-02    0.621E-02
DAV:   9    -0.796763637184E+03   -0.75194E-04   -0.59009E-05 34440   0.211E-02    0.480E-02
DAV:  10    -0.796763687855E+03   -0.50671E-04   -0.40746E-05 28710   0.167E-02    0.421E-02
DAV:  11    -0.796763725681E+03   -0.37826E-04   -0.26248E-05 26490   0.138E-02    0.369E-02
DAV:  12    -0.796763791124E+03   -0.65443E-04   -0.60036E-05 34730   0.271E-02    0.267E-02
DAV:  13    -0.796763836365E+03   -0.45242E-04   -0.19729E-04 38500   0.331E-02    0.184E-02
DAV:  14    -0.796763860917E+03   -0.24552E-04   -0.69034E-05 28200   0.157E-02    0.150E-02
DAV:  15    -0.796763866992E+03   -0.60746E-05   -0.79468E-06 18520   0.633E-03
 184 F= -.79676387E+03 E0= -.79676387E+03  d E =0.414170E-01  mag=    47.0000
       N       E                     dE             d eps       ncg     rms          rms(c)
DAV:   1    -0.796610265549E+03    0.15360E+00   -0.10314E+01 35310   0.115E+01    0.149E+00
DAV:   2    -0.796771221664E+03   -0.16096E+00   -0.17857E+00 34850   0.245E+00    0.108E+00
DAV:   3    -0.796782291590E+03   -0.11070E-01   -0.79199E-02 40920   0.643E-01    0.603E-01
DAV:   4    -0.796780955261E+03    0.13363E-02   -0.70829E-03 42820   0.230E-01    0.422E-01
DAV:   5    -0.796780553349E+03    0.40191E-03   -0.54475E-03 37860   0.185E-01    0.183E-01
DAV:   6    -0.796780596933E+03   -0.43585E-04   -0.72293E-04 37660   0.101E-01    0.112E-01
DAV:   7    -0.796780636241E+03   -0.39308E-04   -0.52726E-04 42000   0.519E-02    0.648E-02
DAV:   8    -0.796780665986E+03   -0.29745E-04   -0.54507E-05 33430   0.233E-02    0.466E-02
DAV:   9    -0.796780693993E+03   -0.28007E-04   -0.31456E-05 27510   0.164E-02    0.311E-02
DAV:  10    -0.796780709629E+03   -0.15635E-04   -0.17235E-05 20810   0.117E-02    0.254E-02
DAV:  11    -0.796780720851E+03   -0.11222E-04   -0.84976E-06 18100   0.825E-03    0.218E-02
DAV:  12    -0.796780738853E+03   -0.18002E-04   -0.13402E-05 24350   0.118E-02    0.170E-02
DAV:  13    -0.796780753376E+03   -0.14523E-04   -0.35055E-05 27990   0.131E-02    0.122E-02
DAV:  14    -0.796780760770E+03   -0.73942E-05   -0.18372E-05 22290   0.990E-03
 185 F= -.79678076E+03 E0= -.79678076E+03  d E =-.168938E-01  mag=    47.0000
       N       E                     dE             d eps       ncg     rms          rms(c)
DAV:   1    -0.796774264119E+03    0.64893E-02   -0.51550E-01 35700   0.257E+00    0.333E-01
DAV:   2    -0.796782203909E+03   -0.79398E-02   -0.88123E-02 34800   0.543E-01    0.236E-01
DAV:   3    -0.796782761973E+03   -0.55806E-03   -0.39586E-03 40620   0.144E-01    0.134E-01
DAV:   4    -0.796782696877E+03    0.65096E-04   -0.34502E-04 43530   0.508E-02    0.908E-02
DAV:   5    -0.796782677417E+03    0.19460E-04   -0.26532E-04 37810   0.414E-02    0.408E-02
DAV:   6    -0.796782679006E+03   -0.15896E-05   -0.34371E-05 29430   0.231E-02
 186 F= -.79678268E+03 E0= -.79678268E+03  d E =-.191824E-02  mag=    47.0000
       N       E                     dE             d eps       ncg     rms          rms(c)
DAV:   1    -0.796774515762E+03    0.81617E-02   -0.45878E-01 35510   0.218E+00    0.255E-01
DAV:   2    -0.796779324525E+03   -0.48088E-02   -0.49832E-02 33340   0.418E-01    0.151E-01
DAV:   3    -0.796779600093E+03   -0.27557E-03   -0.14045E-03 40230   0.895E-02    0.851E-02
DAV:   4    -0.796779589076E+03    0.11018E-04   -0.11401E-04 41970   0.318E-02    0.582E-02
DAV:   5    -0.796779592905E+03   -0.38295E-05   -0.79053E-05 35510   0.255E-02
 187 F= -.79677959E+03 E0= -.79677959E+03  d E =0.308610E-02  mag=    47.0000
       N       E                     dE             d eps       ncg     rms          rms(c)
DAV:   1    -0.796499772000E+03    0.27982E+00   -0.23842E+01 35670   0.154E+01    0.177E+00
DAV:   2    -0.796731987976E+03   -0.23222E+00   -0.23625E+00 33000   0.287E+00    0.927E-01
DAV:   3    -0.796744643069E+03   -0.12655E-01   -0.51148E-02 40140   0.514E-01    0.510E-01
DAV:   4    -0.796744414371E+03    0.22870E-03   -0.38123E-03 44690   0.175E-01    0.340E-01
DAV:   5    -0.796744759382E+03   -0.34501E-03   -0.20308E-03 44610   0.141E-01    0.137E-01
DAV:   6    -0.796744953083E+03   -0.19370E-03   -0.63382E-04 42520   0.843E-02    0.851E-02
DAV:   7    -0.796744985172E+03   -0.32089E-04   -0.16085E-04 40630   0.389E-02    0.573E-02
DAV:   8    -0.796745027017E+03   -0.41844E-04   -0.37900E-05 28750   0.204E-02    0.446E-02
DAV:   9    -0.796745072697E+03   -0.45681E-04   -0.40194E-05 29600   0.162E-02    0.367E-02
DAV:  10    -0.796745101850E+03   -0.29153E-04   -0.23721E-05 25310   0.124E-02    0.328E-02
DAV:  11    -0.796745129815E+03   -0.27965E-04   -0.18002E-05 24560   0.120E-02    0.285E-02
DAV:  12    -0.796745172354E+03   -0.42539E-04   -0.55054E-05 34910   0.251E-02    0.197E-02
DAV:  13    -0.796745198369E+03   -0.26015E-04   -0.12316E-04 35280   0.238E-02    0.151E-02
DAV:  14    -0.796745211933E+03   -0.13564E-04   -0.36913E-05 23850   0.111E-02    0.106E-02
DAV:  15    -0.796745215135E+03   -0.32018E-05   -0.41012E-06 17760   0.432E-03
 188 F= -.79674522E+03 E0= -.79674522E+03  d E =0.343778E-01  mag=    47.0000
       N       E                     dE             d eps       ncg     rms          rms(c)
DAV:   1    -0.796465772040E+03    0.27944E+00   -0.17282E+01 35510   0.145E+01    0.179E+00
DAV:   2    -0.796700252115E+03   -0.23448E+00   -0.25548E+00 34540   0.299E+00    0.125E+00
DAV:   3    -0.796715922510E+03   -0.15670E-01   -0.10458E-01 40790   0.757E-01    0.695E-01
DAV:   4    -0.796714318695E+03    0.16038E-02   -0.90908E-03 43410   0.267E-01    0.477E-01
DAV:   5    -0.796713851486E+03    0.46721E-03   -0.65749E-03 38230   0.207E-01    0.205E-01
DAV:   6    -0.796713959884E+03   -0.10840E-03   -0.95967E-04 38010   0.113E-01    0.124E-01
DAV:   7    -0.796714012583E+03   -0.52699E-04   -0.61914E-04 42240   0.568E-02    0.724E-02
DAV:   8    -0.796714047666E+03   -0.35083E-04   -0.67163E-05 34180   0.261E-02    0.513E-02
DAV:   9    -0.796714081502E+03   -0.33836E-04   -0.40206E-05 31000   0.182E-02    0.344E-02
DAV:  10    -0.796714100374E+03   -0.18872E-04   -0.20474E-05 22190   0.129E-02    0.281E-02
DAV:  11    -0.796714113919E+03   -0.13545E-04   -0.10043E-05 18720   0.905E-03    0.243E-02
DAV:  12    -0.796714135304E+03   -0.21385E-04   -0.14122E-05 24860   0.125E-02    0.194E-02
DAV:  13    -0.796714153955E+03   -0.18650E-04   -0.43464E-05 29460   0.149E-02    0.140E-02
DAV:  14    -0.796714163993E+03   -0.10039E-04   -0.25130E-05 22990   0.114E-02    0.116E-02
DAV:  15    -0.796714168379E+03   -0.43852E-05   -0.10633E-05 19900   0.696E-03
 189 F= -.79671417E+03 E0= -.79671417E+03  d E =0.310468E-01  mag=    47.0000
       N       E                     dE             d eps       ncg     rms          rms(c)
DAV:   1    -0.796688961798E+03    0.25202E-01   -0.26259E+00 35650   0.581E+00    0.749E-01
DAV:   2    -0.796729325978E+03   -0.40364E-01   -0.44532E-01 34650   0.121E+00    0.522E-01
DAV:   3    -0.796732082641E+03   -0.27567E-02   -0.19158E-02 40560   0.317E-01    0.296E-01
DAV:   4    -0.796731776079E+03    0.30656E-03   -0.16846E-03 43730   0.112E-01    0.201E-01
DAV:   5    -0.796731684628E+03    0.91451E-04   -0.12513E-03 37500   0.910E-02    0.903E-02
DAV:   6    -0.796731696339E+03   -0.11711E-04   -0.18329E-04 37690   0.512E-02    0.524E-02
DAV:   7    -0.796731705578E+03   -0.92392E-05   -0.11719E-04 41390   0.250E-02    0.317E-02
DAV:   8    -0.796731711936E+03   -0.63578E-05   -0.11590E-05 20000   0.115E-02
 190 F= -.79673171E+03 E0= -.79673171E+03  d E =-.175436E-01  mag=    47.0000
       N       E                     dE             d eps       ncg     rms          rms(c)
DAV:   1    -0.796707183565E+03    0.24522E-01   -0.16702E+00 35600   0.447E+00    0.554E-01
DAV:   2    -0.796729288124E+03   -0.22105E-01   -0.23899E-01 34370   0.907E-01    0.373E-01
DAV:   3    -0.796730733215E+03   -0.14451E-02   -0.95056E-03 40800   0.228E-01    0.210E-01
DAV:   4    -0.796730599913E+03    0.13330E-03   -0.82029E-04 43690   0.811E-02    0.143E-01
DAV:   5    -0.796730570869E+03    0.29044E-04   -0.60153E-04 38230   0.644E-02    0.653E-02
DAV:   6    -0.796730585259E+03   -0.14390E-04   -0.98428E-05 36550   0.366E-02    0.400E-02
DAV:   7    -0.796730593372E+03   -0.81126E-05   -0.58293E-05 32320   0.183E-02
 191 F= -.79673059E+03 E0= -.79673059E+03  d E =0.111856E-02  mag=    47.0000
       N       E                     dE             d eps       ncg     rms          rms(c)
DAV:   1    -0.796713439764E+03    0.17145E-01   -0.11872E+00 35600   0.345E+00    0.395E-01
DAV:   2    -0.796724966680E+03   -0.11527E-01   -0.11799E-01 33210   0.646E-01    0.219E-01
DAV:   3    -0.796725601499E+03   -0.63482E-03   -0.28568E-03 39520   0.127E-01    0.122E-01
DAV:   4    -0.796725586437E+03    0.15063E-04   -0.22800E-04 43300   0.450E-02    0.835E-02
DAV:   5    -0.796725601147E+03   -0.14711E-04   -0.13810E-04 40770   0.351E-02    0.362E-02
DAV:   6    -0.796725614340E+03   -0.13193E-04   -0.36173E-05 29600   0.207E-02    0.250E-02
DAV:   7    -0.796725618090E+03   -0.37499E-05   -0.13256E-05 17810   0.108E-02
 192 F= -.79672562E+03 E0= -.79672562E+03  d E =0.497528E-02  mag=    47.0000
       N       E                     dE             d eps       ncg     rms          rms(c)
DAV:   1    -0.796541659288E+03    0.18396E+00   -0.14075E+01 35660   0.125E+01    0.146E+00
DAV:   2    -0.796697961975E+03   -0.15630E+00   -0.16499E+00 33830   0.243E+00    0.899E-01
DAV:   3    -0.796707848492E+03   -0.98865E-02   -0.54073E-02 39830   0.548E-01    0.504E-01
DAV:   4    -0.796707228625E+03    0.61987E-03   -0.42272E-03 44550   0.180E-01    0.333E-01
DAV:   5    -0.796707148865E+03    0.79760E-04   -0.27514E-03 38440   0.141E-01    0.139E-01
DAV:   6    -0.796707250116E+03   -0.10125E-03   -0.51645E-04 40420   0.783E-02    0.818E-02
DAV:   7    -0.796707270916E+03   -0.20800E-04   -0.24948E-04 42830   0.383E-02    0.473E-02
DAV:   8    -0.796707282219E+03   -0.11303E-04   -0.24613E-05 24920   0.176E-02    0.325E-02
DAV:   9    -0.796707294413E+03   -0.12194E-04   -0.19952E-05 21100   0.123E-02    0.220E-02
DAV:  10    -0.796707301131E+03   -0.67182E-05   -0.97010E-06 18610   0.834E-03
 193 F= -.79670730E+03 E0= -.79670730E+03  d E =0.183170E-01  mag=    47.0000
       N       E                     dE             d eps       ncg     rms          rms(c)
DAV:   1    -0.796630878272E+03    0.76416E-01   -0.53610E+00 35620   0.826E+00    0.105E+00
DAV:   2    -0.796710512722E+03   -0.79634E-01   -0.87449E-01 34670   0.172E+00    0.733E-01
DAV:   3    -0.796715883890E+03   -0.53712E-02   -0.37263E-02 40670   0.444E-01    0.413E-01
DAV:   4    -0.796715290569E+03    0.59332E-03   -0.32619E-03 43780   0.158E-01    0.281E-01
DAV:   5    -0.796715104963E+03    0.18561E-03   -0.23959E-03 37630   0.125E-01    0.124E-01
DAV:   6    -0.796715126754E+03   -0.21791E-04   -0.34776E-04 37740   0.705E-02    0.719E-02
DAV:   7    -0.796715142438E+03   -0.15684E-04   -0.22332E-04 42520   0.345E-02    0.423E-02
DAV:   8    -0.796715152179E+03   -0.97408E-05   -0.21197E-05 24240   0.155E-02
 194 F= -.79671515E+03 E0= -.79671515E+03  d E =-.785105E-02  mag=    47.0000
       N       E                     dE             d eps       ncg     rms          rms(c)
DAV:   1    -0.796713698116E+03    0.14443E-02   -0.24398E-01 35660   0.155E+00    0.175E-01
DAV:   2    -0.796715972344E+03   -0.22742E-02   -0.23223E-02 33000   0.287E-01    0.964E-02
DAV:   3    -0.796716101045E+03   -0.12870E-03   -0.53382E-04 38960   0.541E-02    0.535E-02
DAV:   4    -0.796716098384E+03    0.26601E-05   -0.36064E-05 26680   0.179E-02
 195 F= -.79671610E+03 E0= -.79671610E+03  d E =-.946205E-03  mag=    47.0000
       N       E                     dE             d eps       ncg     rms          rms(c)
DAV:   1    -0.796638336490E+03    0.77765E-01   -0.72464E+00 35630   0.870E+00    0.100E+00
DAV:   2    -0.796712932912E+03   -0.74596E-01   -0.78436E-01 33510   0.168E+00    0.613E-01
DAV:   3    -0.796717524484E+03   -0.45916E-02   -0.24484E-02 39290   0.369E-01    0.345E-01
DAV:   4    -0.796717251315E+03    0.27317E-03   -0.19096E-03 44780   0.121E-01    0.230E-01
DAV:   5    -0.796717233646E+03    0.17669E-04   -0.12648E-03 39350   0.951E-02    0.931E-02
DAV:   6    -0.796717285490E+03   -0.51844E-04   -0.24828E-04 40600   0.527E-02    0.549E-02
DAV:   7    -0.796717294581E+03   -0.90909E-05   -0.11273E-04 41870   0.254E-02    0.316E-02
DAV:   8    -0.796717299072E+03   -0.44911E-05   -0.10394E-05 18640   0.118E-02
 196 F= -.79671730E+03 E0= -.79671730E+03  d E =-.120069E-02  mag=    47.0000
       N       E                     dE             d eps       ncg     rms          rms(c)
DAV:   1    -0.796635527475E+03    0.81767E-01   -0.58914E+00 35710   0.852E+00    0.106E+00
DAV:   2    -0.796717054323E+03   -0.81527E-01   -0.88379E-01 34480   0.174E+00    0.729E-01
DAV:   3    -0.796722277111E+03   -0.52228E-02   -0.35538E-02 40770   0.441E-01    0.407E-01
DAV:   4    -0.796721731122E+03    0.54599E-03   -0.31010E-03 43280   0.157E-01    0.280E-01
DAV:   5    -0.796721562301E+03    0.16882E-03   -0.22906E-03 38330   0.123E-01    0.121E-01
DAV:   6    -0.796721591925E+03   -0.29624E-04   -0.34821E-04 37790   0.692E-02    0.712E-02
DAV:   7    -0.796721607714E+03   -0.15789E-04   -0.21260E-04 42220   0.335E-02    0.417E-02
DAV:   8    -0.796721617167E+03   -0.94526E-05   -0.19636E-05 23390   0.151E-02
 197 F= -.79672162E+03 E0= -.79672162E+03  d E =-.431809E-02  mag=    47.0000
       N       E                     dE             d eps       ncg     rms          rms(c)
DAV:   1    -0.796706288015E+03    0.15320E-01   -0.15982E+00 35710   0.455E+00    0.565E-01
DAV:   2    -0.796729396327E+03   -0.23108E-01   -0.25355E-01 34600   0.941E-01    0.398E-01
DAV:   3    -0.796731001840E+03   -0.16055E-02   -0.10687E-02 40870   0.240E-01    0.222E-01
DAV:   4    -0.796730835070E+03    0.16677E-03   -0.93824E-04 44000   0.853E-02    0.152E-01
DAV:   5    -0.796730784649E+03    0.50422E-04   -0.67550E-04 37690   0.673E-02    0.646E-02
DAV:   6    -0.796730792691E+03   -0.80424E-05   -0.97188E-05 36250   0.371E-02
 198 F= -.79673079E+03 E0= -.79673079E+03  d E =-.917552E-02  mag=    47.0000
       N       E                     dE             d eps       ncg     rms          rms(c)
DAV:   1    -0.796729029147E+03    0.17555E-02   -0.12954E+00 35440   0.334E+00    0.370E-01
DAV:   2    -0.796739774726E+03   -0.10746E-01   -0.10919E-01 32860   0.627E-01    0.225E-01
DAV:   3    -0.796740290980E+03   -0.51625E-03   -0.23652E-03 39360   0.124E-01    0.118E-01
DAV:   4    -0.796740276198E+03    0.14782E-04   -0.21062E-04 42960   0.474E-02    0.909E-02
DAV:   5    -0.796740287985E+03   -0.11787E-04   -0.12599E-04 43000   0.350E-02    0.326E-02
DAV:   6    -0.796740304187E+03   -0.16202E-04   -0.36338E-05 28220   0.167E-02    0.229E-02
DAV:   7    -0.796740307675E+03   -0.34885E-05   -0.77246E-06 16960   0.854E-03
 199 F= -.79674031E+03 E0= -.79674031E+03  d E =-.951498E-02  mag=    47.0000
       N       E                     dE             d eps       ncg     rms          rms(c)
DAV:   1    -0.796743039220E+03   -0.27350E-02   -0.71007E-01 34650   0.248E+00    0.275E-01
DAV:   2    -0.796749000749E+03   -0.59615E-02   -0.61098E-02 33060   0.469E-01    0.171E-01
DAV:   3    -0.796749302256E+03   -0.30151E-03   -0.13970E-03 39560   0.923E-02    0.921E-02
DAV:   4    -0.796749295829E+03    0.64264E-05   -0.12252E-04 40680   0.355E-02    0.714E-02
DAV:   5    -0.796749309792E+03   -0.13963E-04   -0.82044E-05 38720   0.279E-02    0.297E-02
DAV:   6    -0.796749322049E+03   -0.12257E-04   -0.23905E-05 23120   0.145E-02    0.230E-02
DAV:   7    -0.796749326780E+03   -0.47308E-05   -0.79492E-06 17440   0.785E-03
 200 F= -.79674933E+03 E0= -.79674933E+03  d E =-.901910E-02  mag=    47.0000
