       N       E                     dE             d eps       ncg     rms          rms(c)
DAV:   1     0.103721791477E+05    0.10372E+05   -0.37703E+05 32030   0.141E+03
DAV:   2     0.523526409208E+03   -0.98487E+04   -0.92951E+04 31390   0.452E+02
DAV:   3    -0.854352950586E+03   -0.13779E+04   -0.12753E+04 34720   0.172E+02
DAV:   4    -0.938894383927E+03   -0.84541E+02   -0.82137E+02 39290   0.447E+01
DAV:   5    -0.941421557581E+03   -0.25272E+01   -0.25196E+01 38410   0.839E+00    0.188E+02
DAV:   6    -0.422700717901E+03    0.51872E+03   -0.12122E+03 38760   0.765E+01    0.895E+01
DAV:   7    -0.655947678546E+03   -0.23325E+03   -0.38194E+02 39690   0.574E+01    0.748E+01
DAV:   8    -0.686539534676E+03   -0.30592E+02   -0.48100E+01 41370   0.176E+01    0.497E+01
DAV:   9    -0.736418641903E+03   -0.49879E+02   -0.43191E+01 39520   0.135E+01    0.310E+01
DAV:  10    -0.777151639979E+03   -0.40733E+02   -0.45182E+01 40900   0.159E+01    0.321E+01
DAV:  11    -0.790246782318E+03   -0.13095E+02   -0.22560E+01 39940   0.991E+00    0.157E+01
DAV:  12    -0.793019322448E+03   -0.27725E+01   -0.58476E+00 40540   0.697E+00    0.115E+01
DAV:  13    -0.794037417652E+03   -0.10181E+01   -0.22932E+00 38690   0.449E+00    0.830E+00
DAV:  14    -0.794320527532E+03   -0.28311E+00   -0.84734E-01 38370   0.293E+00    0.554E+00
DAV:  15    -0.794757747158E+03   -0.43722E+00   -0.53222E-01 40920   0.177E+00    0.548E+00
DAV:  16    -0.794950374865E+03   -0.19263E+00   -0.19487E-01 39460   0.128E+00    0.424E+00
DAV:  17    -0.795085086916E+03   -0.13471E+00   -0.13533E-01 41060   0.134E+00    0.270E+00
DAV:  18    -0.795177956126E+03   -0.92869E-01   -0.10889E-01 40920   0.114E+00    0.152E+00
DAV:  19    -0.795213280775E+03   -0.35325E-01   -0.62436E-02 37810   0.733E-01    0.113E+00
DAV:  20    -0.795227431319E+03   -0.14151E-01   -0.18135E-02 35930   0.378E-01    0.853E-01
DAV:  21    -0.795240523552E+03   -0.13092E-01   -0.82628E-03 39490   0.256E-01    0.724E-01
DAV:  22    -0.795252931102E+03   -0.12408E-01   -0.74350E-03 40460   0.250E-01    0.580E-01
DAV:  23    -0.795263336178E+03   -0.10405E-01   -0.83809E-03 39040   0.228E-01    0.513E-01
DAV:  24    -0.795270401959E+03   -0.70658E-02   -0.56504E-03 38520   0.169E-01    0.461E-01
DAV:  25    -0.795279201921E+03   -0.88000E-02   -0.65382E-03 43940   0.225E-01    0.404E-01
DAV:  26    -0.795288727283E+03   -0.95254E-02   -0.15015E-02 43310   0.351E-01    0.359E-01
DAV:  27    -0.795295288482E+03   -0.65612E-02   -0.12985E-02 41190   0.248E-01    0.305E-01
DAV:  28    -0.795299052436E+03   -0.37640E-02   -0.45034E-03 38520   0.149E-01    0.254E-01
DAV:  29    -0.795301417358E+03   -0.23649E-02   -0.26327E-03 39070   0.108E-01    0.195E-01
DAV:  30    -0.795303625948E+03   -0.22086E-02   -0.45688E-03 44970   0.201E-01    0.173E-01
DAV:  31    -0.795305293990E+03   -0.16680E-02   -0.33412E-03 41350   0.116E-01    0.141E-01
DAV:  32    -0.795306184971E+03   -0.89098E-03   -0.11033E-03 41020   0.909E-02    0.123E-01
DAV:  33    -0.795306795386E+03   -0.61041E-03   -0.16256E-03 39850   0.889E-02    0.108E-01
DAV:  34    -0.795307291082E+03   -0.49570E-03   -0.10203E-03 39040   0.685E-02    0.853E-02
DAV:  35    -0.795307603358E+03   -0.31228E-03   -0.70110E-04 39210   0.586E-02    0.655E-02
DAV:  36    -0.795307790983E+03   -0.18762E-03   -0.38308E-04 37970   0.410E-02    0.509E-02
DAV:  37    -0.795307907419E+03   -0.11644E-03   -0.15969E-04 33190   0.283E-02    0.429E-02
DAV:  38    -0.795307964866E+03   -0.57447E-04   -0.76378E-05 31720   0.214E-02    0.361E-02
DAV:  39    -0.795308014069E+03   -0.49202E-04   -0.59402E-05 32880   0.214E-02    0.267E-02
DAV:  40    -0.795308053751E+03   -0.39682E-04   -0.10557E-04 36780   0.263E-02    0.241E-02
DAV:  41    -0.795308080282E+03   -0.26531E-04   -0.58963E-05 27210   0.151E-02    0.211E-02
DAV:  42    -0.795308094088E+03   -0.13806E-04   -0.15305E-05 20960   0.917E-03    0.173E-02
DAV:  43    -0.795308104989E+03   -0.10901E-04   -0.14130E-05 22320   0.880E-03    0.146E-02
DAV:  44    -0.795308112750E+03   -0.77610E-05   -0.11131E-05 19690   0.805E-03
   1 F= -.79530811E+03 E0= -.79530811E+03  d E =-.795308E+03  mag=    46.9996
       N       E                     dE             d eps       ncg     rms          rms(c)
DAV:   1    -0.795321802463E+03   -0.13697E-01   -0.26702E-02 34280   0.390E-01    0.445E-02
DAV:   2    -0.795321954182E+03   -0.15172E-03   -0.15031E-03 33570   0.817E-02    0.661E-02
DAV:   3    -0.795321951682E+03    0.25004E-05   -0.54758E-05 31970   0.237E-02    0.339E-02
DAV:   4    -0.795321952100E+03   -0.41770E-06   -0.60619E-06 17410   0.716E-03
   2 F= -.79532195E+03 E0= -.79532195E+03  d E =-.138393E-01  mag=    46.9999
       N       E                     dE             d eps       ncg     rms          rms(c)
DAV:   1    -0.795363398053E+03   -0.41446E-01   -0.11654E+02 33890   0.257E+01    0.289E+00
DAV:   2    -0.796000775716E+03   -0.63738E+00   -0.65040E+00 33510   0.534E+00    0.423E+00
DAV:   3    -0.795993277553E+03    0.74982E-02   -0.23516E-01 37400   0.146E+00    0.235E+00
DAV:   4    -0.795990418394E+03    0.28592E-02   -0.26121E-02 40000   0.448E-01    0.204E+00
DAV:   5    -0.795984795621E+03    0.56228E-02   -0.37284E-02 42010   0.557E-01    0.685E-01
DAV:   6    -0.795985711220E+03   -0.91560E-03   -0.90726E-03 42120   0.261E-01    0.323E-01
DAV:   7    -0.795986022298E+03   -0.31108E-03   -0.27438E-03 39860   0.132E-01    0.231E-01
DAV:   8    -0.795986294701E+03   -0.27240E-03   -0.40799E-04 38830   0.717E-02    0.159E-01
DAV:   9    -0.795986640624E+03   -0.34592E-03   -0.33389E-04 42160   0.562E-02    0.110E-01
DAV:  10    -0.795986880676E+03   -0.24005E-03   -0.28503E-04 39600   0.419E-02    0.905E-02
DAV:  11    -0.795987050881E+03   -0.17021E-03   -0.14568E-04 37870   0.286E-02    0.795E-02
DAV:  12    -0.795987255412E+03   -0.20453E-03   -0.12118E-04 35860   0.342E-02    0.673E-02
DAV:  13    -0.795987488258E+03   -0.23285E-03   -0.36678E-04 43270   0.589E-02    0.511E-02
DAV:  14    -0.795987618392E+03   -0.13013E-03   -0.32726E-04 40990   0.390E-02    0.415E-02
DAV:  15    -0.795987681043E+03   -0.62651E-04   -0.87235E-05 31950   0.232E-02    0.315E-02
DAV:  16    -0.795987716713E+03   -0.35671E-04   -0.62117E-05 27290   0.156E-02    0.229E-02
DAV:  17    -0.795987739390E+03   -0.22677E-04   -0.24005E-05 27170   0.134E-02    0.184E-02
DAV:  18    -0.795987753801E+03   -0.14410E-04   -0.26156E-05 24130   0.108E-02    0.149E-02
DAV:  19    -0.795987763722E+03   -0.99209E-05   -0.11595E-05 20170   0.862E-03
   3 F= -.79598776E+03 E0= -.79598776E+03  d E =-.665812E+00  mag=    47.0000
       N       E                     dE             d eps       ncg     rms          rms(c)
DAV:   1    -0.795763677541E+03    0.22408E+00   -0.81386E+01 33760   0.214E+01    0.251E+00
DAV:   2    -0.796225238775E+03   -0.46156E+00   -0.47483E+00 33360   0.447E+00    0.328E+00
DAV:   3    -0.796225593279E+03   -0.35450E-03   -0.14722E-01 36080   0.117E+00    0.176E+00
DAV:   4    -0.796224745254E+03    0.84803E-03   -0.14792E-02 40990   0.377E-01    0.157E+00
DAV:   5    -0.796222020162E+03    0.27251E-02   -0.18629E-02 42510   0.394E-01    0.518E-01
DAV:   6    -0.796222752990E+03   -0.73283E-03   -0.50232E-03 41960   0.199E-01    0.237E-01
DAV:   7    -0.796222854856E+03   -0.10187E-03   -0.10410E-03 39790   0.915E-02    0.180E-01
DAV:   8    -0.796223022552E+03   -0.16770E-03   -0.21264E-04 41150   0.508E-02    0.130E-01
DAV:   9    -0.796223303088E+03   -0.28054E-03   -0.28302E-04 43380   0.491E-02    0.904E-02
DAV:  10    -0.796223471213E+03   -0.16812E-03   -0.19230E-04 38280   0.312E-02    0.799E-02
DAV:  11    -0.796223630839E+03   -0.15963E-03   -0.81290E-05 36520   0.254E-02    0.703E-02
DAV:  12    -0.796223849792E+03   -0.21895E-03   -0.21254E-04 40950   0.437E-02    0.546E-02
DAV:  13    -0.796224015756E+03   -0.16596E-03   -0.39121E-04 42530   0.552E-02    0.445E-02
DAV:  14    -0.796224107117E+03   -0.91361E-04   -0.24934E-04 39920   0.352E-02    0.313E-02
DAV:  15    -0.796224145312E+03   -0.38195E-04   -0.74444E-05 27800   0.161E-02    0.243E-02
DAV:  16    -0.796224158690E+03   -0.13378E-04   -0.13414E-05 19280   0.754E-03    0.197E-02
DAV:  17    -0.796224170662E+03   -0.11972E-04   -0.67881E-06 18150   0.908E-03    0.158E-02
DAV:  18    -0.796224181436E+03   -0.10774E-04   -0.26682E-05 27690   0.120E-02    0.136E-02
DAV:  19    -0.796224188090E+03   -0.66544E-05   -0.12601E-05 20600   0.711E-03
   4 F= -.79622419E+03 E0= -.79622419E+03  d E =-.236424E+00  mag=    47.0000
       N       E                     dE             d eps       ncg     rms          rms(c)
DAV:   1    -0.796163400561E+03    0.60781E-01   -0.12549E+01 34750   0.953E+00    0.107E+00
DAV:   2    -0.796248819191E+03   -0.85419E-01   -0.86938E-01 33280   0.181E+00    0.953E-01
DAV:   3    -0.796251581681E+03   -0.27625E-02   -0.21227E-02 36920   0.428E-01    0.484E-01
DAV:   4    -0.796251348526E+03    0.23316E-03   -0.23243E-03 42720   0.174E-01    0.431E-01
DAV:   5    -0.796251228049E+03    0.12048E-03   -0.20356E-03 41350   0.132E-01    0.136E-01
DAV:   6    -0.796251409446E+03   -0.18140E-03   -0.55740E-04 39750   0.616E-02    0.823E-02
DAV:   7    -0.796251450893E+03   -0.41447E-04   -0.97775E-05 36610   0.292E-02    0.649E-02
DAV:   8    -0.796251504396E+03   -0.53503E-04   -0.33905E-05 30360   0.205E-02    0.535E-02
DAV:   9    -0.796251577791E+03   -0.73395E-04   -0.63493E-05 36330   0.222E-02    0.425E-02
DAV:  10    -0.796251623056E+03   -0.45265E-04   -0.42762E-05 27270   0.149E-02    0.384E-02
DAV:  11    -0.796251668236E+03   -0.45180E-04   -0.25888E-05 29440   0.146E-02    0.330E-02
DAV:  12    -0.796251730541E+03   -0.62305E-04   -0.11216E-04 38570   0.326E-02    0.223E-02
DAV:  13    -0.796251764906E+03   -0.34365E-04   -0.12547E-04 35870   0.234E-02    0.180E-02
DAV:  14    -0.796251779864E+03   -0.14959E-04   -0.29805E-05 24530   0.117E-02    0.125E-02
DAV:  15    -0.796251785697E+03   -0.58327E-05   -0.10798E-05 20070   0.643E-03
   5 F= -.79625179E+03 E0= -.79625179E+03  d E =-.275976E-01  mag=    47.0000
       N       E                     dE             d eps       ncg     rms          rms(c)
DAV:   1    -0.795995071221E+03    0.25671E+00   -0.30216E+01 34510   0.146E+01    0.163E+00
DAV:   2    -0.796194208107E+03   -0.19914E+00   -0.20232E+00 33340   0.280E+00    0.161E+00
DAV:   3    -0.796199379487E+03   -0.51714E-02   -0.56418E-02 38390   0.729E-01    0.803E-01
DAV:   4    -0.796199123169E+03    0.25632E-03   -0.60291E-03 42430   0.278E-01    0.740E-01
DAV:   5    -0.796198565772E+03    0.55740E-03   -0.60035E-03 41250   0.226E-01    0.236E-01
DAV:   6    -0.796198997733E+03   -0.43196E-03   -0.15178E-03 39860   0.101E-01    0.124E-01
DAV:   7    -0.796199084015E+03   -0.86282E-04   -0.30343E-04 39530   0.452E-02    0.961E-02
DAV:   8    -0.796199185053E+03   -0.10104E-03   -0.78993E-05 37240   0.306E-02    0.770E-02
DAV:   9    -0.796199309884E+03   -0.12483E-03   -0.94790E-05 37850   0.294E-02    0.618E-02
DAV:  10    -0.796199401501E+03   -0.91618E-04   -0.80845E-05 33110   0.225E-02    0.544E-02
DAV:  11    -0.796199491114E+03   -0.89613E-04   -0.61903E-05 34600   0.210E-02    0.472E-02
DAV:  12    -0.796199610489E+03   -0.11938E-03   -0.16794E-04 40390   0.386E-02    0.340E-02
DAV:  13    -0.796199683488E+03   -0.72999E-04   -0.21637E-04 39680   0.354E-02    0.274E-02
DAV:  14    -0.796199720783E+03   -0.37295E-04   -0.81094E-05 32410   0.197E-02    0.195E-02
DAV:  15    -0.796199735890E+03   -0.15108E-04   -0.28610E-05 21710   0.998E-03    0.156E-02
DAV:  16    -0.796199742492E+03   -0.66015E-05   -0.56946E-06 18910   0.554E-03
   6 F= -.79619974E+03 E0= -.79619974E+03  d E =0.520432E-01  mag=    47.0000
       N       E                     dE             d eps       ncg     rms          rms(c)
DAV:   1    -0.795606763738E+03    0.59297E+00   -0.77504E+01 34120   0.212E+01    0.227E+00
DAV:   2    -0.796013491037E+03   -0.40673E+00   -0.41501E+00 33310   0.403E+00    0.216E+00
DAV:   3    -0.796021665598E+03   -0.81746E-02   -0.10650E-01 39180   0.973E-01    0.110E+00
DAV:   4    -0.796020060842E+03    0.16048E-02   -0.12467E-02 43060   0.397E-01    0.102E+00
DAV:   5    -0.796018876188E+03    0.11847E-02   -0.13310E-02 41890   0.337E-01    0.362E-01
DAV:   6    -0.796020073498E+03   -0.11973E-02   -0.39281E-03 39730   0.160E-01    0.219E-01
DAV:   7    -0.796020420609E+03   -0.34711E-03   -0.74464E-04 39900   0.721E-02    0.176E-01
DAV:   8    -0.796020881348E+03   -0.46074E-03   -0.28922E-04 40240   0.530E-02    0.148E-01
DAV:   9    -0.796021469817E+03   -0.58847E-03   -0.44402E-04 42050   0.641E-02    0.122E-01
DAV:  10    -0.796021854668E+03   -0.38485E-03   -0.39766E-04 40410   0.463E-02    0.109E-01
DAV:  11    -0.796022209913E+03   -0.35525E-03   -0.23259E-04 39850   0.408E-02    0.939E-02
DAV:  12    -0.796022721229E+03   -0.51132E-03   -0.10151E-03 43870   0.940E-02    0.674E-02
DAV:  13    -0.796023008657E+03   -0.28743E-03   -0.89133E-04 42450   0.641E-02    0.537E-02
DAV:  14    -0.796023139728E+03   -0.13107E-03   -0.23453E-04 37670   0.358E-02    0.389E-02
DAV:  15    -0.796023204599E+03   -0.64871E-04   -0.12609E-04 29260   0.196E-02    0.323E-02
DAV:  16    -0.796023234068E+03   -0.29469E-04   -0.18762E-05 21690   0.103E-02    0.277E-02
DAV:  17    -0.796023268844E+03   -0.34777E-04   -0.32919E-05 27670   0.196E-02    0.233E-02
DAV:  18    -0.796023292736E+03   -0.23892E-04   -0.78287E-05 29860   0.165E-02    0.204E-02
DAV:  19    -0.796023308009E+03   -0.15273E-04   -0.24102E-05 21350   0.940E-03    0.175E-02
DAV:  20    -0.796023322981E+03   -0.14972E-04   -0.13587E-05 21980   0.107E-02    0.150E-02
DAV:  21    -0.796023337292E+03   -0.14312E-04   -0.38714E-05 30030   0.150E-02    0.120E-02
DAV:  22    -0.796023347310E+03   -0.10017E-04   -0.32147E-05 26110   0.117E-02    0.975E-03
DAV:  23    -0.796023352901E+03   -0.55912E-05   -0.99171E-06 19780   0.676E-03
   7 F= -.79602335E+03 E0= -.79602335E+03  d E =0.176390E+00  mag=    47.0000
       N       E                     dE             d eps       ncg     rms          rms(c)
DAV:   1    -0.794411431424E+03    0.16119E+01   -0.16991E+02 34620   0.358E+01    0.408E+00
DAV:   2    -0.795691559167E+03   -0.12801E+01   -0.13097E+01 33270   0.677E+00    0.265E+00
DAV:   3    -0.795748433293E+03   -0.56874E-01   -0.31178E-01 37930   0.136E+00    0.149E+00
DAV:   4    -0.795744457123E+03    0.39762E-02   -0.29411E-02 43990   0.540E-01    0.113E+00
DAV:   5    -0.795745896052E+03   -0.14389E-02   -0.22699E-02 42160   0.452E-01    0.501E-01
DAV:   6    -0.795748771190E+03   -0.28751E-02   -0.74630E-03 39620   0.248E-01    0.351E-01
DAV:   7    -0.795749912987E+03   -0.11418E-02   -0.18644E-03 40170   0.120E-01    0.281E-01
DAV:   8    -0.795751523066E+03   -0.16101E-02   -0.97594E-04 43060   0.945E-02    0.235E-01
DAV:   9    -0.795753159140E+03   -0.16361E-02   -0.12194E-03 41620   0.101E-01    0.195E-01
DAV:  10    -0.795754260179E+03   -0.11010E-02   -0.10879E-03 40250   0.778E-02    0.169E-01
DAV:  11    -0.795755333918E+03   -0.10737E-02   -0.85434E-04 42230   0.849E-02    0.137E-01
DAV:  12    -0.795756368680E+03   -0.10348E-02   -0.21461E-03 43220   0.134E-01    0.957E-02
DAV:  13    -0.795756936612E+03   -0.56793E-03   -0.17246E-03 42020   0.860E-02    0.782E-02
DAV:  14    -0.795757154523E+03   -0.21791E-03   -0.40703E-04 36450   0.351E-02    0.609E-02
DAV:  15    -0.795757217911E+03   -0.63388E-04   -0.39650E-05 25720   0.149E-02    0.540E-02
DAV:  16    -0.795757329702E+03   -0.11179E-03   -0.53082E-05 31990   0.282E-02    0.453E-02
DAV:  17    -0.795757447397E+03   -0.11769E-03   -0.30835E-04 40450   0.412E-02    0.406E-02
DAV:  18    -0.795757513273E+03   -0.65876E-04   -0.11557E-04 32200   0.207E-02    0.369E-02
DAV:  19    -0.795757557282E+03   -0.44009E-04   -0.28934E-05 26090   0.151E-02    0.330E-02
DAV:  20    -0.795757618139E+03   -0.60857E-04   -0.11012E-04 37420   0.273E-02    0.260E-02
DAV:  21    -0.795757669018E+03   -0.50879E-04   -0.16967E-04 38170   0.303E-02    0.238E-02
DAV:  22    -0.795757702902E+03   -0.33884E-04   -0.68551E-05 27800   0.155E-02    0.193E-02
DAV:  23    -0.795757714508E+03   -0.11606E-04   -0.13270E-05 19540   0.698E-03    0.157E-02
DAV:  24    -0.795757722398E+03   -0.78898E-05   -0.52441E-06 18390   0.635E-03
   8 F= -.79575772E+03 E0= -.79575772E+03  d E =0.265631E+00  mag=    47.0000
       N       E                     dE             d eps       ncg     rms          rms(c)
DAV:   1    -0.794627135268E+03    0.11306E+01   -0.11926E+02 34790   0.314E+01    0.347E+00
DAV:   2    -0.795582436535E+03   -0.95530E+00   -0.98240E+00 33310   0.591E+00    0.228E+00
DAV:   3    -0.795624874543E+03   -0.42438E-01   -0.24403E-01 38610   0.122E+00    0.130E+00
DAV:   4    -0.795621696175E+03    0.31784E-02   -0.23451E-02 43820   0.508E-01    0.100E+00
DAV:   5    -0.795622300306E+03   -0.60413E-03   -0.19372E-02 43700   0.418E-01    0.469E-01
DAV:   6    -0.795624647171E+03   -0.23469E-02   -0.58168E-03 40000   0.231E-01    0.330E-01
DAV:   7    -0.795625647865E+03   -0.10007E-02   -0.19841E-03 39740   0.116E-01    0.264E-01
DAV:   8    -0.795626993772E+03   -0.13459E-02   -0.76987E-04 42590   0.861E-02    0.227E-01
DAV:   9    -0.795628490916E+03   -0.14971E-02   -0.10444E-03 42410   0.955E-02    0.190E-01
DAV:  10    -0.795629662843E+03   -0.11719E-02   -0.11097E-03 41020   0.849E-02    0.162E-01
DAV:  11    -0.795630640784E+03   -0.97794E-03   -0.94247E-04 41420   0.808E-02    0.135E-01
DAV:  12    -0.795631565259E+03   -0.92447E-03   -0.15519E-03 42710   0.110E-01    0.997E-02
DAV:  13    -0.795632114267E+03   -0.54901E-03   -0.15771E-03 40790   0.894E-02    0.799E-02
DAV:  14    -0.795632373361E+03   -0.25909E-03   -0.57835E-04 36540   0.421E-02    0.643E-02
DAV:  15    -0.795632446809E+03   -0.73449E-04   -0.47221E-05 26020   0.151E-02    0.559E-02
DAV:  16    -0.795632560333E+03   -0.11352E-03   -0.63161E-05 30900   0.251E-02    0.486E-02
DAV:  17    -0.795632700498E+03   -0.14017E-03   -0.30810E-04 41750   0.447E-02    0.451E-02
DAV:  18    -0.795632783174E+03   -0.82676E-04   -0.14922E-04 34520   0.235E-02    0.411E-02
DAV:  19    -0.795632832248E+03   -0.49074E-04   -0.35618E-05 25750   0.145E-02    0.380E-02
DAV:  20    -0.795632897888E+03   -0.65640E-04   -0.92070E-05 35310   0.228E-02    0.329E-02
DAV:  21    -0.795632968751E+03   -0.70863E-04   -0.24130E-04 41460   0.395E-02    0.283E-02
DAV:  22    -0.795633031597E+03   -0.62846E-04   -0.18804E-04 35570   0.264E-02    0.245E-02
DAV:  23    -0.795633060526E+03   -0.28929E-04   -0.45231E-05 25080   0.114E-02    0.204E-02
DAV:  24    -0.795633067851E+03   -0.73243E-05   -0.53699E-06 17670   0.516E-03
   9 F= -.79563307E+03 E0= -.79563307E+03  d E =0.124655E+00  mag=    47.0000
       N       E                     dE             d eps       ncg     rms          rms(c)
DAV:   1    -0.793553286816E+03    0.20798E+01   -0.19730E+02 35230   0.416E+01    0.474E+00
DAV:   2    -0.795301871411E+03   -0.17486E+01   -0.17831E+01 33270   0.784E+00    0.317E+00
DAV:   3    -0.795381330358E+03   -0.79459E-01   -0.41892E-01 40040   0.162E+00    0.175E+00
DAV:   4    -0.795377704978E+03    0.36254E-02   -0.40480E-02 43710   0.614E-01    0.137E+00
DAV:   5    -0.795380331501E+03   -0.26265E-02   -0.32238E-02 44210   0.556E-01    0.589E-01
DAV:   6    -0.795384267421E+03   -0.39359E-02   -0.94695E-03 39850   0.276E-01    0.411E-01
DAV:   7    -0.795385888344E+03   -0.16209E-02   -0.27765E-03 39570   0.145E-01    0.328E-01
DAV:   8    -0.795387950773E+03   -0.20624E-02   -0.14039E-03 42070   0.106E-01    0.278E-01
DAV:   9    -0.795389903598E+03   -0.19528E-02   -0.14009E-03 41960   0.116E-01    0.235E-01
DAV:  10    -0.795391590651E+03   -0.16871E-02   -0.16290E-03 40620   0.101E-01    0.201E-01
DAV:  11    -0.795392995310E+03   -0.14047E-02   -0.13175E-03 40490   0.943E-02    0.167E-01
DAV:  12    -0.795394441661E+03   -0.14464E-02   -0.23970E-03 42890   0.135E-01    0.133E-01
DAV:  13    -0.795395379917E+03   -0.93826E-03   -0.22737E-03 40650   0.108E-01    0.114E-01
DAV:  14    -0.795395835862E+03   -0.45595E-03   -0.86827E-04 37580   0.525E-02    0.964E-02
DAV:  15    -0.795395997727E+03   -0.16186E-03   -0.90388E-05 29180   0.208E-02    0.905E-02
DAV:  16    -0.795396251708E+03   -0.25398E-03   -0.11514E-04 36710   0.316E-02    0.836E-02
DAV:  17    -0.795396678505E+03   -0.42680E-03   -0.63437E-04 43370   0.708E-02    0.825E-02
DAV:  18    -0.795396947895E+03   -0.26939E-03   -0.43254E-04 40460   0.411E-02    0.796E-02
DAV:  19    -0.795397111834E+03   -0.16394E-03   -0.10277E-04 31760   0.230E-02    0.766E-02
DAV:  20    -0.795397299752E+03   -0.18792E-03   -0.14700E-04 37250   0.278E-02    0.731E-02
DAV:  21    -0.795397625313E+03   -0.32556E-03   -0.54284E-04 43860   0.630E-02    0.659E-02
DAV:  22    -0.795397970638E+03   -0.34533E-03   -0.10273E-03 42130   0.763E-02    0.642E-02
DAV:  23    -0.795398261033E+03   -0.29039E-03   -0.51653E-04 40250   0.432E-02    0.564E-02
DAV:  24    -0.795398388749E+03   -0.12772E-03   -0.14482E-04 29510   0.194E-02    0.502E-02
DAV:  25    -0.795398496141E+03   -0.10739E-03   -0.67438E-05 32820   0.199E-02    0.491E-02
DAV:  26    -0.795398701289E+03   -0.20515E-03   -0.60836E-04 43840   0.644E-02    0.515E-02
DAV:  27    -0.795398906065E+03   -0.20478E-03   -0.48092E-04 40780   0.450E-02    0.514E-02
DAV:  28    -0.795399032862E+03   -0.12680E-03   -0.16725E-04 35820   0.250E-02    0.502E-02
DAV:  29    -0.795399092678E+03   -0.59816E-04   -0.60072E-05 26310   0.133E-02    0.470E-02
DAV:  30    -0.795399173443E+03   -0.80765E-04   -0.65247E-05 33490   0.203E-02    0.436E-02
DAV:  31    -0.795399318413E+03   -0.14497E-03   -0.63246E-04 43390   0.647E-02    0.493E-02
DAV:  32    -0.795399484845E+03   -0.16643E-03   -0.38509E-04 41610   0.375E-02    0.424E-02
DAV:  33    -0.795399601088E+03   -0.11624E-03   -0.30468E-04 41500   0.437E-02    0.441E-02
DAV:  34    -0.795399732381E+03   -0.13129E-03   -0.35922E-04 40680   0.407E-02    0.394E-02
DAV:  35    -0.795399833958E+03   -0.10158E-03   -0.37106E-04 42120   0.460E-02    0.389E-02
DAV:  36    -0.795399957122E+03   -0.12316E-03   -0.42789E-04 40890   0.469E-02    0.374E-02
DAV:  37    -0.795400065786E+03   -0.10866E-03   -0.20154E-04 37290   0.249E-02    0.332E-02
DAV:  38    -0.795400117353E+03   -0.51567E-04   -0.57698E-05 27870   0.152E-02    0.303E-02
DAV:  39    -0.795400170972E+03   -0.53619E-04   -0.22298E-04 42120   0.364E-02    0.296E-02
DAV:  40    -0.795400241204E+03   -0.70233E-04   -0.20917E-04 40650   0.326E-02    0.291E-02
DAV:  41    -0.795400294211E+03   -0.53007E-04   -0.15648E-04 39760   0.300E-02    0.289E-02
DAV:  42    -0.795400343958E+03   -0.49747E-04   -0.95692E-05 29420   0.169E-02    0.255E-02
DAV:  43    -0.795400359206E+03   -0.15248E-04   -0.15309E-05 21310   0.706E-03    0.232E-02
DAV:  44    -0.795400366581E+03   -0.73750E-05   -0.57010E-06 18700   0.554E-03
  10 F= -.79540037E+03 E0= -.79540037E+03  d E =0.232701E+00  mag=    47.0000
       N       E                     dE             d eps       ncg     rms          rms(c)
DAV:   1    -0.794836816800E+03    0.56354E+00   -0.73262E+01 34800   0.259E+01    0.298E+00
DAV:   2    -0.795519680494E+03   -0.68286E+00   -0.69602E+00 33310   0.494E+00    0.210E+00
DAV:   3    -0.795551284053E+03   -0.31604E-01   -0.17729E-01 41180   0.112E+00    0.115E+00
DAV:   4    -0.795549354176E+03    0.19299E-02   -0.19077E-02 42530   0.457E-01    0.906E-01
DAV:   5    -0.795549273935E+03    0.80241E-04   -0.14343E-02 44010   0.355E-01    0.375E-01
DAV:   6    -0.795550720299E+03   -0.14464E-02   -0.39041E-03 40300   0.178E-01    0.259E-01
DAV:   7    -0.795551177282E+03   -0.45698E-03   -0.12147E-03 40040   0.985E-02    0.191E-01
DAV:   8    -0.795551793646E+03   -0.61636E-03   -0.43378E-04 41360   0.617E-02    0.166E-01
DAV:   9    -0.795552459556E+03   -0.66591E-03   -0.47159E-04 40840   0.602E-02    0.148E-01
DAV:  10    -0.795553023299E+03   -0.56374E-03   -0.46146E-04 40330   0.529E-02    0.137E-01
DAV:  11    -0.795553575561E+03   -0.55226E-03   -0.38439E-04 41130   0.502E-02    0.126E-01
DAV:  12    -0.795554477906E+03   -0.90235E-03   -0.13289E-03 44120   0.105E-01    0.111E-01
DAV:  13    -0.795555252216E+03   -0.77431E-03   -0.18832E-03 41800   0.105E-01    0.103E-01
DAV:  14    -0.795555772353E+03   -0.52014E-03   -0.83006E-04 40900   0.597E-02    0.919E-02
DAV:  15    -0.795555995775E+03   -0.22342E-03   -0.24328E-04 33950   0.268E-02    0.843E-02
DAV:  16    -0.795556168461E+03   -0.17269E-03   -0.57112E-05 31990   0.202E-02    0.817E-02
DAV:  17    -0.795556598874E+03   -0.43041E-03   -0.69247E-04 44540   0.750E-02    0.787E-02
DAV:  18    -0.795557029640E+03   -0.43077E-03   -0.13515E-03 43080   0.929E-02    0.818E-02
DAV:  19    -0.795557397795E+03   -0.36816E-03   -0.64584E-04 42290   0.502E-02    0.704E-02
DAV:  20    -0.795557641382E+03   -0.24359E-03   -0.36398E-04 41120   0.477E-02    0.668E-02
DAV:  21    -0.795557866678E+03   -0.22530E-03   -0.70870E-04 42530   0.653E-02    0.604E-02
DAV:  22    -0.795558051402E+03   -0.18472E-03   -0.10566E-03 42230   0.787E-02    0.520E-02
DAV:  23    -0.795558252964E+03   -0.20156E-03   -0.73332E-04 41010   0.551E-02    0.424E-02
DAV:  24    -0.795558379304E+03   -0.12634E-03   -0.20268E-04 31190   0.288E-02    0.325E-02
DAV:  25    -0.795558388642E+03   -0.93381E-05   -0.54178E-06 18390   0.800E-03
  11 F= -.79555839E+03 E0= -.79555839E+03  d E =-.158022E+00  mag=    47.0000
       N       E                     dE             d eps       ncg     rms          rms(c)
DAV:   1    -0.795273047742E+03    0.28533E+00   -0.36175E+01 34740   0.183E+01    0.210E+00
DAV:   2    -0.795630103293E+03   -0.35706E+00   -0.36015E+00 33310   0.352E+00    0.167E+00
DAV:   3    -0.795645222098E+03   -0.15119E-01   -0.88535E-02 41860   0.825E-01    0.924E-01
DAV:   4    -0.795646363916E+03   -0.11418E-02   -0.12077E-02 43460   0.316E-01    0.815E-01
DAV:   5    -0.795649191751E+03   -0.28278E-02   -0.11034E-02 44360   0.332E-01    0.435E-01
DAV:   6    -0.795651485309E+03   -0.22936E-02   -0.37866E-03 40710   0.144E-01    0.373E-01
DAV:   7    -0.795652753129E+03   -0.12678E-02   -0.11815E-03 40700   0.895E-02    0.336E-01
DAV:   8    -0.795655435750E+03   -0.26826E-02   -0.31643E-03 44310   0.165E-01    0.289E-01
DAV:   9    -0.795658858005E+03   -0.34223E-02   -0.86596E-03 42400   0.259E-01    0.235E-01
DAV:  10    -0.795661203311E+03   -0.23453E-02   -0.59868E-03 41190   0.182E-01    0.205E-01
DAV:  11    -0.795662735368E+03   -0.15321E-02   -0.27199E-03 40470   0.114E-01    0.182E-01
DAV:  12    -0.795664202716E+03   -0.14673E-02   -0.33029E-03 42170   0.146E-01    0.159E-01
DAV:  13    -0.795665475089E+03   -0.12724E-02   -0.35123E-03 40750   0.145E-01    0.139E-01
DAV:  14    -0.795666269838E+03   -0.79475E-03   -0.14749E-03 36610   0.749E-02    0.132E-01
DAV:  15    -0.795666425756E+03   -0.15592E-03   -0.18141E-04 35410   0.324E-02    0.117E-01
DAV:  16    -0.795666991162E+03   -0.56541E-03   -0.45646E-04 44680   0.607E-02    0.106E-01
DAV:  17    -0.795667774044E+03   -0.78288E-03   -0.38565E-03 43600   0.185E-01    0.113E-01
DAV:  18    -0.795668569924E+03   -0.79588E-03   -0.16440E-03 40450   0.774E-02    0.932E-02
DAV:  19    -0.795668927005E+03   -0.35708E-03   -0.41408E-04 42400   0.523E-02    0.947E-02
DAV:  20    -0.795669212580E+03   -0.28558E-03   -0.43130E-04 39490   0.406E-02    0.874E-02
DAV:  21    -0.795669461117E+03   -0.24854E-03   -0.24788E-04 38840   0.371E-02    0.796E-02
DAV:  22    -0.795669795734E+03   -0.33462E-03   -0.75682E-04 43220   0.679E-02    0.691E-02
DAV:  23    -0.795670091902E+03   -0.29617E-03   -0.57729E-04 41000   0.472E-02    0.629E-02
DAV:  24    -0.795670307190E+03   -0.21529E-03   -0.26224E-04 37250   0.337E-02    0.586E-02
DAV:  25    -0.795670503511E+03   -0.19632E-03   -0.29697E-04 39440   0.436E-02    0.622E-02
DAV:  26    -0.795670729408E+03   -0.22590E-03   -0.42134E-04 40810   0.480E-02    0.576E-02
DAV:  27    -0.795670960416E+03   -0.23101E-03   -0.54938E-04 40120   0.513E-02    0.620E-02
DAV:  28    -0.795671139377E+03   -0.17896E-03   -0.28046E-04 37080   0.299E-02    0.529E-02
DAV:  29    -0.795671291399E+03   -0.15202E-03   -0.25424E-04 40470   0.358E-02    0.496E-02
DAV:  30    -0.795671446318E+03   -0.15492E-03   -0.28742E-04 38700   0.347E-02    0.443E-02
DAV:  31    -0.795671582692E+03   -0.13637E-03   -0.35338E-04 39760   0.413E-02    0.471E-02
DAV:  32    -0.795671686112E+03   -0.10342E-03   -0.16758E-04 32780   0.210E-02    0.408E-02
DAV:  33    -0.795671806757E+03   -0.12065E-03   -0.29010E-04 40690   0.397E-02    0.375E-02
DAV:  34    -0.795671873099E+03   -0.66342E-04   -0.12958E-03 41930   0.827E-02    0.471E-02
DAV:  35    -0.795672077585E+03   -0.20449E-03   -0.65355E-04 40140   0.488E-02    0.346E-02
DAV:  36    -0.795672168528E+03   -0.90943E-04   -0.25600E-04 37700   0.318E-02    0.306E-02
DAV:  37    -0.795672221764E+03   -0.53236E-04   -0.13393E-04 33070   0.214E-02    0.249E-02
DAV:  38    -0.795672243265E+03   -0.21501E-04   -0.11812E-04 35690   0.237E-02    0.211E-02
DAV:  39    -0.795672249869E+03   -0.66037E-05   -0.18584E-04 37180   0.274E-02    0.193E-02
DAV:  40    -0.795672274890E+03   -0.25021E-04   -0.58077E-05 28950   0.205E-02    0.217E-02
DAV:  41    -0.795672282246E+03   -0.73566E-05   -0.79944E-06 19550   0.922E-03
  12 F= -.79567228E+03 E0= -.79567228E+03  d E =-.113894E+00  mag=    47.0000
       N       E                     dE             d eps       ncg     rms          rms(c)
DAV:   1    -0.793094240524E+03    0.25780E+01   -0.31312E+02 34890   0.471E+01    0.562E+00
DAV:   2    -0.795632762141E+03   -0.25385E+01   -0.25058E+01 33370   0.914E+00    0.537E+00
DAV:   3    -0.795699187289E+03   -0.66425E-01   -0.65226E-01 39930   0.233E+00    0.284E+00
DAV:   4    -0.795711025948E+03   -0.11839E-01   -0.89957E-02 43090   0.853E-01    0.248E+00
DAV:   5    -0.795728637145E+03   -0.17611E-01   -0.78839E-02 42500   0.868E-01    0.105E+00
DAV:   6    -0.795741678823E+03   -0.13042E-01   -0.23916E-02 40200   0.397E-01    0.758E-01
DAV:   7    -0.795747813966E+03   -0.61351E-02   -0.80148E-03 39860   0.279E-01    0.587E-01
DAV:   8    -0.795754629264E+03   -0.68153E-02   -0.46010E-03 41330   0.187E-01    0.487E-01
DAV:   9    -0.795761475875E+03   -0.68466E-02   -0.59591E-03 41270   0.236E-01    0.374E-01
DAV:  10    -0.795765702122E+03   -0.42262E-02   -0.55808E-03 40120   0.171E-01    0.310E-01
DAV:  11    -0.795769274763E+03   -0.35726E-02   -0.34663E-03 43150   0.170E-01    0.243E-01
DAV:  12    -0.795771816849E+03   -0.25421E-02   -0.51779E-03 41430   0.182E-01    0.172E-01
DAV:  13    -0.795773246475E+03   -0.14296E-02   -0.37861E-03 39280   0.126E-01    0.144E-01
DAV:  14    -0.795773690408E+03   -0.44393E-03   -0.92474E-04 34140   0.607E-02    0.110E-01
DAV:  15    -0.795773868295E+03   -0.17789E-03   -0.80685E-05 36080   0.249E-02    0.920E-02
DAV:  16    -0.795774215749E+03   -0.34745E-03   -0.52610E-04 45220   0.727E-02    0.587E-02
DAV:  17    -0.795774387536E+03   -0.17179E-03   -0.51497E-04 41250   0.508E-02    0.519E-02
DAV:  18    -0.795774458418E+03   -0.70882E-04   -0.11387E-04 34380   0.211E-02    0.414E-02
DAV:  19    -0.795774497975E+03   -0.39558E-04   -0.29572E-05 24270   0.144E-02    0.355E-02
DAV:  20    -0.795774535833E+03   -0.37857E-04   -0.45321E-05 34070   0.205E-02    0.244E-02
DAV:  21    -0.795774563276E+03   -0.27444E-04   -0.70674E-05 33660   0.199E-02    0.190E-02
DAV:  22    -0.795774576321E+03   -0.13045E-04   -0.28025E-05 22490   0.111E-02    0.167E-02
DAV:  23    -0.795774579666E+03   -0.33448E-05   -0.37565E-06 16980   0.470E-03
  13 F= -.79577458E+03 E0= -.79577458E+03  d E =-.102297E+00  mag=    47.0000
       N       E                     dE             d eps       ncg     rms          rms(c)
DAV:   1    -0.795083448529E+03    0.69113E+00   -0.51901E+01 35260   0.242E+01    0.323E+00
DAV:   2    -0.795870977118E+03   -0.78753E+00   -0.80667E+00 33390   0.478E+00    0.269E+00
DAV:   3    -0.795910927632E+03   -0.39951E-01   -0.22673E-01 41460   0.130E+00    0.143E+00
DAV:   4    -0.795913818879E+03   -0.28912E-02   -0.29505E-02 42440   0.471E-01    0.120E+00
DAV:   5    -0.795918911300E+03   -0.50924E-02   -0.24231E-02 43520   0.533E-01    0.595E-01
DAV:   6    -0.795922887400E+03   -0.39761E-02   -0.77415E-03 41730   0.232E-01    0.498E-01
DAV:   7    -0.795924894823E+03   -0.20074E-02   -0.28330E-03 41070   0.148E-01    0.443E-01
DAV:   8    -0.795927298043E+03   -0.24032E-02   -0.29935E-03 44200   0.200E-01    0.358E-01
DAV:   9    -0.795930844364E+03   -0.35463E-02   -0.10972E-02 44720   0.370E-01    0.215E-01
DAV:  10    -0.795932728541E+03   -0.18842E-02   -0.71841E-03 41840   0.193E-01    0.159E-01
DAV:  11    -0.795933403274E+03   -0.67473E-03   -0.15556E-03 38500   0.792E-02    0.125E-01
DAV:  12    -0.795933744722E+03   -0.34145E-03   -0.46097E-04 41690   0.606E-02    0.975E-02
DAV:  13    -0.795934046449E+03   -0.30173E-03   -0.53098E-04 41570   0.657E-02    0.729E-02
DAV:  14    -0.795934242960E+03   -0.19651E-03   -0.52351E-04 41520   0.660E-02    0.600E-02
DAV:  15    -0.795934368676E+03   -0.12572E-03   -0.27051E-04 37220   0.334E-02    0.566E-02
DAV:  16    -0.795934451945E+03   -0.83269E-04   -0.51928E-05 32040   0.217E-02    0.425E-02
DAV:  17    -0.795934536262E+03   -0.84317E-04   -0.14222E-04 40530   0.328E-02    0.319E-02
DAV:  18    -0.795934578753E+03   -0.42491E-04   -0.15808E-04 37050   0.335E-02    0.335E-02
DAV:  19    -0.795934602512E+03   -0.23758E-04   -0.56931E-05 27120   0.151E-02    0.203E-02
DAV:  20    -0.795934610665E+03   -0.81537E-05   -0.89437E-06 18970   0.880E-03
  14 F= -.79593461E+03 E0= -.79593461E+03  d E =-.160031E+00  mag=    47.0000
       N       E                     dE             d eps       ncg     rms          rms(c)
DAV:   1    -0.793847304957E+03    0.20873E+01   -0.21671E+02 34530   0.408E+01    0.523E+00
DAV:   2    -0.795896534123E+03   -0.20492E+01   -0.20435E+01 33610   0.809E+00    0.462E+00
DAV:   3    -0.795968388789E+03   -0.71855E-01   -0.53631E-01 40420   0.196E+00    0.236E+00
DAV:   4    -0.795972207060E+03   -0.38183E-02   -0.61138E-02 43620   0.737E-01    0.197E+00
DAV:   5    -0.795978373772E+03   -0.61667E-02   -0.52618E-02 42590   0.664E-01    0.685E-01
DAV:   6    -0.795982401172E+03   -0.40274E-02   -0.12116E-02 40680   0.313E-01    0.405E-01
DAV:   7    -0.795983763578E+03   -0.13624E-02   -0.40061E-03 39610   0.164E-01    0.278E-01
DAV:   8    -0.795984845041E+03   -0.10815E-02   -0.91300E-04 40270   0.958E-02    0.217E-01
DAV:   9    -0.795985845099E+03   -0.10001E-02   -0.79792E-04 40950   0.792E-02    0.172E-01
DAV:  10    -0.795986520936E+03   -0.67584E-03   -0.59467E-04 39460   0.607E-02    0.143E-01
DAV:  11    -0.795987155933E+03   -0.63500E-03   -0.47683E-04 41820   0.623E-02    0.121E-01
DAV:  12    -0.795987806028E+03   -0.65009E-03   -0.83840E-04 43200   0.850E-02    0.889E-02
DAV:  13    -0.795988185212E+03   -0.37918E-03   -0.91589E-04 41300   0.740E-02    0.661E-02
DAV:  14    -0.795988364720E+03   -0.17951E-03   -0.41210E-04 38240   0.429E-02    0.461E-02
DAV:  15    -0.795988434839E+03   -0.70119E-04   -0.11468E-04 30190   0.205E-02    0.342E-02
DAV:  16    -0.795988468363E+03   -0.33523E-04   -0.23044E-05 22440   0.134E-02    0.269E-02
DAV:  17    -0.795988494817E+03   -0.26454E-04   -0.34415E-05 31670   0.170E-02    0.211E-02
DAV:  18    -0.795988511231E+03   -0.16414E-04   -0.33313E-05 25020   0.126E-02    0.176E-02
DAV:  19    -0.795988523059E+03   -0.11828E-04   -0.13591E-05 20420   0.908E-03    0.146E-02
DAV:  20    -0.795988533662E+03   -0.10603E-04   -0.13787E-05 20440   0.108E-02    0.108E-02
DAV:  21    -0.795988540283E+03   -0.66213E-05   -0.21257E-05 24000   0.955E-03
  15 F= -.79598854E+03 E0= -.79598854E+03  d E =-.539296E-01  mag=    47.0000
       N       E                     dE             d eps       ncg     rms          rms(c)
DAV:   1    -0.795385629948E+03    0.60290E+00   -0.63875E+01 35100   0.234E+01    0.289E+00
DAV:   2    -0.796047069295E+03   -0.66144E+00   -0.69151E+00 33370   0.471E+00    0.226E+00
DAV:   3    -0.796076785760E+03   -0.29716E-01   -0.21289E-01 40740   0.114E+00    0.123E+00
DAV:   4    -0.796073334040E+03    0.34517E-02   -0.21566E-02 43300   0.453E-01    0.991E-01
DAV:   5    -0.796071946737E+03    0.13873E-02   -0.19040E-02 42450   0.382E-01    0.370E-01
DAV:   6    -0.796072672196E+03   -0.72546E-03   -0.37875E-03 40970   0.186E-01    0.212E-01
DAV:   7    -0.796072907926E+03   -0.23573E-03   -0.16141E-03 41490   0.902E-02    0.141E-01
DAV:   8    -0.796073067220E+03   -0.15929E-03   -0.21058E-04 41000   0.490E-02    0.101E-01
DAV:   9    -0.796073239445E+03   -0.17223E-03   -0.17250E-04 41050   0.425E-02    0.815E-02
DAV:  10    -0.796073375600E+03   -0.13616E-03   -0.12266E-04 36610   0.294E-02    0.661E-02
DAV:  11    -0.796073479570E+03   -0.10397E-03   -0.76543E-05 32730   0.228E-02    0.562E-02
DAV:  12    -0.796073625188E+03   -0.14562E-03   -0.15680E-04 41610   0.368E-02    0.419E-02
DAV:  13    -0.796073714061E+03   -0.88873E-04   -0.20083E-04 39040   0.368E-02    0.318E-02
DAV:  14    -0.796073754239E+03   -0.40178E-04   -0.83686E-05 34510   0.212E-02    0.239E-02
DAV:  15    -0.796073770136E+03   -0.15898E-04   -0.26425E-05 20870   0.108E-02    0.181E-02
DAV:  16    -0.796073777704E+03   -0.75680E-05   -0.74268E-06 18180   0.660E-03
  16 F= -.79607378E+03 E0= -.79607378E+03  d E =-.852374E-01  mag=    47.0000
       N       E                     dE             d eps       ncg     rms          rms(c)
DAV:   1    -0.795729758195E+03    0.34401E+00   -0.45615E+01 34560   0.183E+01    0.205E+00
DAV:   2    -0.796065367838E+03   -0.33561E+00   -0.34704E+00 33420   0.362E+00    0.197E+00
DAV:   3    -0.796074436882E+03   -0.90690E-02   -0.98683E-02 36840   0.876E-01    0.100E+00
DAV:   4    -0.796073100548E+03    0.13363E-02   -0.10277E-02 42440   0.337E-01    0.900E-01
DAV:   5    -0.796072100984E+03    0.99956E-03   -0.10050E-02 41760   0.278E-01    0.287E-01
DAV:   6    -0.796072639890E+03   -0.53891E-03   -0.25364E-03 40960   0.133E-01    0.168E-01
DAV:   7    -0.796072772620E+03   -0.13273E-03   -0.60910E-04 40130   0.598E-02    0.124E-01
DAV:   8    -0.796072912436E+03   -0.13982E-03   -0.11329E-04 38790   0.361E-02    0.984E-02
DAV:   9    -0.796073125368E+03   -0.21293E-03   -0.16962E-04 41860   0.385E-02    0.758E-02
DAV:  10    -0.796073262687E+03   -0.13732E-03   -0.13348E-04 36780   0.286E-02    0.672E-02
DAV:  11    -0.796073394723E+03   -0.13204E-03   -0.91293E-05 37280   0.265E-02    0.574E-02
DAV:  12    -0.796073555049E+03   -0.16033E-03   -0.20771E-04 40640   0.443E-02    0.426E-02
DAV:  13    -0.796073649860E+03   -0.94812E-04   -0.30119E-04 41580   0.445E-02    0.321E-02
DAV:  14    -0.796073697494E+03   -0.47634E-04   -0.13757E-04 36150   0.250E-02    0.217E-02
DAV:  15    -0.796073713372E+03   -0.15877E-04   -0.31935E-05 21770   0.103E-02    0.173E-02
DAV:  16    -0.796073716313E+03   -0.29409E-05   -0.19654E-06 16550   0.395E-03
  17 F= -.79607372E+03 E0= -.79607372E+03  d E =0.613918E-04  mag=    47.0000
       N       E                     dE             d eps       ncg     rms          rms(c)
DAV:   1    -0.793710024701E+03    0.23637E+01   -0.28150E+02 34750   0.456E+01    0.524E+00
DAV:   2    -0.795830704824E+03   -0.21207E+01   -0.21659E+01 33330   0.886E+00    0.424E+00
DAV:   3    -0.795904363151E+03   -0.73658E-01   -0.54606E-01 36600   0.199E+00    0.214E+00
DAV:   4    -0.795897223398E+03    0.71398E-02   -0.57879E-02 42960   0.811E-01    0.187E+00
DAV:   5    -0.795895741107E+03    0.14823E-02   -0.46672E-02 41120   0.607E-01    0.621E-01
DAV:   6    -0.795899840208E+03   -0.40991E-02   -0.13106E-02 38840   0.294E-01    0.428E-01
DAV:   7    -0.795900915483E+03   -0.10753E-02   -0.24041E-03 39980   0.130E-01    0.315E-01
DAV:   8    -0.795902360152E+03   -0.14447E-02   -0.94614E-04 41220   0.964E-02    0.258E-01
DAV:   9    -0.795904028766E+03   -0.16686E-02   -0.13040E-03 41170   0.106E-01    0.204E-01
DAV:  10    -0.795905105770E+03   -0.10770E-02   -0.11767E-03 40010   0.767E-02    0.179E-01
DAV:  11    -0.795906203054E+03   -0.10973E-02   -0.80329E-04 43230   0.826E-02    0.143E-01
DAV:  12    -0.795907267391E+03   -0.10643E-02   -0.23024E-03 43530   0.138E-01    0.989E-02
DAV:  13    -0.795907820640E+03   -0.55325E-03   -0.18484E-03 42190   0.910E-02    0.746E-02
DAV:  14    -0.795908033845E+03   -0.21320E-03   -0.43419E-04 36300   0.371E-02    0.539E-02
DAV:  15    -0.795908087578E+03   -0.53733E-04   -0.52602E-05 25920   0.147E-02    0.447E-02
DAV:  16    -0.795908149348E+03   -0.61770E-04   -0.30240E-05 27520   0.212E-02    0.340E-02
DAV:  17    -0.795908204575E+03   -0.55226E-04   -0.16906E-04 36760   0.302E-02    0.271E-02
DAV:  18    -0.795908235343E+03   -0.30769E-04   -0.59685E-05 27320   0.156E-02    0.230E-02
DAV:  19    -0.795908251170E+03   -0.15827E-04   -0.12491E-05 19640   0.948E-03    0.197E-02
DAV:  20    -0.795908269263E+03   -0.18093E-04   -0.24322E-05 26450   0.129E-02    0.155E-02
DAV:  21    -0.795908283361E+03   -0.14098E-04   -0.30087E-05 27370   0.116E-02    0.131E-02
DAV:  22    -0.795908291100E+03   -0.77390E-05   -0.10951E-05 19580   0.695E-03
  18 F= -.79590829E+03 E0= -.79590829E+03  d E =0.165425E+00  mag=    47.0000
       N       E                     dE             d eps       ncg     rms          rms(c)
DAV:   1    -0.782232418377E+03    0.13676E+02   -0.10527E+03 35060   0.101E+02    0.141E+01
DAV:   2    -0.794282659707E+03   -0.12050E+02   -0.12560E+02 33600   0.217E+01    0.127E+01
DAV:   3    -0.794723621631E+03   -0.44096E+00   -0.49407E+00 38780   0.651E+00    0.606E+00
DAV:   4    -0.794673009257E+03    0.50612E-01   -0.49667E-01 40950   0.237E+00    0.497E+00
DAV:   5    -0.794635717950E+03    0.37291E-01   -0.33034E-01 39720   0.137E+00    0.216E+00
DAV:   6    -0.794652202467E+03   -0.16485E-01   -0.63847E-02 40110   0.810E-01    0.102E+00
DAV:   7    -0.794654539469E+03   -0.23370E-02   -0.28445E-02 41730   0.479E-01    0.624E-01
DAV:   8    -0.794656218172E+03   -0.16787E-02   -0.36949E-03 40600   0.227E-01    0.423E-01
DAV:   9    -0.794658741132E+03   -0.25230E-02   -0.25778E-03 40960   0.155E-01    0.300E-01
DAV:  10    -0.794660331599E+03   -0.15905E-02   -0.15176E-03 38780   0.977E-02    0.238E-01
DAV:  11    -0.794661499337E+03   -0.11677E-02   -0.75670E-04 40130   0.749E-02    0.219E-01
DAV:  12    -0.794662792166E+03   -0.12928E-02   -0.71848E-04 41280   0.785E-02    0.185E-01
DAV:  13    -0.794664680055E+03   -0.18879E-02   -0.24250E-03 44230   0.150E-01    0.142E-01
DAV:  14    -0.794665767165E+03   -0.10871E-02   -0.25843E-03 41570   0.119E-01    0.117E-01
DAV:  15    -0.794666310952E+03   -0.54379E-03   -0.92497E-04 38770   0.768E-02    0.787E-02
DAV:  16    -0.794666592242E+03   -0.28129E-03   -0.58622E-04 37420   0.473E-02    0.602E-02
DAV:  17    -0.794666717836E+03   -0.12559E-03   -0.12858E-04 33150   0.233E-02    0.460E-02
DAV:  18    -0.794666798945E+03   -0.81109E-04   -0.72374E-05 32750   0.227E-02    0.369E-02
DAV:  19    -0.794666857795E+03   -0.58850E-04   -0.90646E-05 35420   0.251E-02    0.309E-02
DAV:  20    -0.794666898036E+03   -0.40241E-04   -0.73655E-05 29120   0.169E-02    0.264E-02
DAV:  21    -0.794666931938E+03   -0.33903E-04   -0.29751E-05 28610   0.153E-02    0.218E-02
DAV:  22    -0.794666961705E+03   -0.29767E-04   -0.63751E-05 34490   0.204E-02    0.168E-02
DAV:  23    -0.794666982153E+03   -0.20448E-04   -0.49617E-05 27920   0.141E-02    0.139E-02
DAV:  24    -0.794666991899E+03   -0.97458E-05   -0.14262E-05 21100   0.758E-03
  19 F= -.79466699E+03 E0= -.79466699E+03  d E =0.124130E+01  mag=    47.0000
       N       E                     dE             d eps       ncg     rms          rms(c)
DAV:   1    -0.792744436267E+03    0.19225E+01   -0.20643E+02 35910   0.526E+01    0.680E+00
DAV:   2    -0.795936235089E+03   -0.31918E+01   -0.33924E+01 33740   0.107E+01    0.563E+00
DAV:   3    -0.796111203193E+03   -0.17497E+00   -0.11327E+00 40430   0.273E+00    0.288E+00
DAV:   4    -0.796104041500E+03    0.71617E-02   -0.10918E-01 43750   0.100E+00    0.238E+00
DAV:   5    -0.796101243363E+03    0.27981E-02   -0.85005E-02 40720   0.786E-01    0.850E-01
DAV:   6    -0.796104709622E+03   -0.34663E-02   -0.14792E-02 40070   0.404E-01    0.486E-01
DAV:   7    -0.796105684193E+03   -0.97457E-03   -0.81366E-03 42150   0.212E-01    0.287E-01
DAV:   8    -0.796106279261E+03   -0.59507E-03   -0.91864E-04 40650   0.108E-01    0.206E-01
DAV:   9    -0.796106944731E+03   -0.66547E-03   -0.73778E-04 40530   0.814E-02    0.161E-01
DAV:  10    -0.796107462106E+03   -0.51738E-03   -0.42259E-04 38590   0.552E-02    0.136E-01
DAV:  11    -0.796107940090E+03   -0.47798E-03   -0.32867E-04 40470   0.477E-02    0.118E-01
DAV:  12    -0.796108557924E+03   -0.61783E-03   -0.55217E-04 43300   0.696E-02    0.976E-02
DAV:  13    -0.796109030283E+03   -0.47236E-03   -0.79845E-04 41470   0.741E-02    0.775E-02
DAV:  14    -0.796109322700E+03   -0.29242E-03   -0.60338E-04 40670   0.650E-02    0.605E-02
DAV:  15    -0.796109489935E+03   -0.16724E-03   -0.36633E-04 37550   0.377E-02    0.448E-02
DAV:  16    -0.796109558939E+03   -0.69004E-04   -0.75017E-05 29230   0.177E-02    0.351E-02
DAV:  17    -0.796109604804E+03   -0.45865E-04   -0.38535E-05 27940   0.153E-02    0.296E-02
DAV:  18    -0.796109641774E+03   -0.36970E-04   -0.50285E-05 33720   0.201E-02    0.234E-02
DAV:  19    -0.796109667407E+03   -0.25633E-04   -0.55474E-05 27960   0.153E-02    0.205E-02
DAV:  20    -0.796109685502E+03   -0.18095E-04   -0.21174E-05 25520   0.117E-02    0.167E-02
DAV:  21    -0.796109700102E+03   -0.14599E-04   -0.32165E-05 28760   0.148E-02    0.120E-02
DAV:  22    -0.796109709415E+03   -0.93138E-05   -0.30797E-05 26150   0.103E-02
  20 F= -.79610971E+03 E0= -.79610971E+03  d E =-.144272E+01  mag=    47.0000
       N       E                     dE             d eps       ncg     rms          rms(c)
DAV:   1    -0.795543698703E+03    0.56600E+00   -0.47532E+01 35250   0.245E+01    0.318E+00
DAV:   2    -0.796277950902E+03   -0.73425E+00   -0.77234E+00 33570   0.500E+00    0.244E+00
DAV:   3    -0.796319423224E+03   -0.41472E-01   -0.26762E-01 40360   0.130E+00    0.125E+00
DAV:   4    -0.796317227102E+03    0.21961E-02   -0.25050E-02 43990   0.472E-01    0.985E-01
DAV:   5    -0.796316466393E+03    0.76071E-03   -0.18360E-02 42060   0.384E-01    0.368E-01
DAV:   6    -0.796317090944E+03   -0.62455E-03   -0.29506E-03 40730   0.180E-01    0.194E-01
DAV:   7    -0.796317271624E+03   -0.18068E-03   -0.15481E-03 41610   0.878E-02    0.116E-01
DAV:   8    -0.796317384754E+03   -0.11313E-03   -0.18276E-04 40710   0.442E-02    0.866E-02
DAV:   9    -0.796317502848E+03   -0.11809E-03   -0.11949E-04 40680   0.326E-02    0.663E-02
DAV:  10    -0.796317585189E+03   -0.82340E-04   -0.69187E-05 32610   0.233E-02    0.564E-02
DAV:  11    -0.796317662865E+03   -0.77677E-04   -0.51792E-05 31540   0.199E-02    0.493E-02
DAV:  12    -0.796317767409E+03   -0.10454E-03   -0.94253E-05 36390   0.271E-02    0.395E-02
DAV:  13    -0.796317860544E+03   -0.93135E-04   -0.18249E-04 38350   0.379E-02    0.315E-02
DAV:  14    -0.796317911633E+03   -0.51089E-04   -0.12618E-04 35510   0.257E-02    0.237E-02
DAV:  15    -0.796317934752E+03   -0.23119E-04   -0.42746E-05 24160   0.135E-02    0.170E-02
DAV:  16    -0.796317944505E+03   -0.97532E-05   -0.13969E-05 20570   0.801E-03
  21 F= -.79631794E+03 E0= -.79631794E+03  d E =-.208235E+00  mag=    47.0000
       N       E                     dE             d eps       ncg     rms          rms(c)
DAV:   1    -0.796304676121E+03    0.13259E-01   -0.37348E+00 34730   0.572E+00    0.724E-01
DAV:   2    -0.796346001260E+03   -0.41325E-01   -0.42474E-01 33390   0.119E+00    0.686E-01
DAV:   3    -0.796347529981E+03   -0.15287E-02   -0.13183E-02 39130   0.307E-01    0.338E-01
DAV:   4    -0.796347501394E+03    0.28587E-04   -0.13316E-03 43170   0.118E-01    0.307E-01
DAV:   5    -0.796347405567E+03    0.95827E-04   -0.11370E-03 41290   0.994E-02    0.943E-02
DAV:   6    -0.796347461627E+03   -0.56060E-04   -0.23335E-04 41120   0.417E-02    0.505E-02
DAV:   7    -0.796347474646E+03   -0.13020E-04   -0.74300E-05 36860   0.202E-02    0.359E-02
DAV:   8    -0.796347486197E+03   -0.11550E-04   -0.11585E-05 19790   0.119E-02    0.277E-02
DAV:   9    -0.796347499550E+03   -0.13354E-04   -0.10578E-05 18380   0.101E-02    0.230E-02
DAV:  10    -0.796347512462E+03   -0.12911E-04   -0.12870E-05 20170   0.827E-03    0.194E-02
DAV:  11    -0.796347522644E+03   -0.10182E-04   -0.79257E-06 18080   0.666E-03    0.169E-02
DAV:  12    -0.796347536898E+03   -0.14254E-04   -0.11945E-05 20140   0.119E-02    0.138E-02
DAV:  13    -0.796347548394E+03   -0.11496E-04   -0.44519E-05 30260   0.145E-02    0.104E-02
DAV:  14    -0.796347554780E+03   -0.63861E-05   -0.18038E-05 20310   0.855E-03
  22 F= -.79634755E+03 E0= -.79634755E+03  d E =-.296103E-01  mag=    47.0000
       N       E                     dE             d eps       ncg     rms          rms(c)
DAV:   1    -0.796164501497E+03    0.18305E+00   -0.26573E+01 34760   0.144E+01    0.169E+00
DAV:   2    -0.796387344422E+03   -0.22284E+00   -0.22830E+00 33320   0.288E+00    0.165E+00
DAV:   3    -0.796394351642E+03   -0.70072E-02   -0.63210E-02 38080   0.698E-01    0.822E-01
DAV:   4    -0.796394122559E+03    0.22908E-03   -0.66214E-03 43370   0.274E-01    0.754E-01
DAV:   5    -0.796393688329E+03    0.43423E-03   -0.58477E-03 41900   0.225E-01    0.226E-01
DAV:   6    -0.796394069699E+03   -0.38137E-03   -0.14035E-03 40030   0.978E-02    0.130E-01
DAV:   7    -0.796394170345E+03   -0.10065E-03   -0.33375E-04 39840   0.465E-02    0.990E-02
DAV:   8    -0.796394270617E+03   -0.10027E-03   -0.81262E-05 36250   0.306E-02    0.783E-02
DAV:   9    -0.796394403708E+03   -0.13309E-03   -0.10675E-04 39340   0.305E-02    0.624E-02
DAV:  10    -0.796394511147E+03   -0.10744E-03   -0.95223E-05 34270   0.240E-02    0.547E-02
DAV:  11    -0.796394601656E+03   -0.90508E-04   -0.70587E-05 32300   0.211E-02    0.462E-02
DAV:  12    -0.796394721596E+03   -0.11994E-03   -0.18408E-04 40140   0.408E-02    0.324E-02
DAV:  13    -0.796394787995E+03   -0.66399E-04   -0.22398E-04 37850   0.349E-02    0.256E-02
DAV:  14    -0.796394819004E+03   -0.31009E-04   -0.72560E-05 30040   0.178E-02    0.174E-02
DAV:  15    -0.796394829830E+03   -0.10826E-04   -0.19261E-05 20040   0.862E-03    0.138E-02
DAV:  16    -0.796394834389E+03   -0.45596E-05   -0.41067E-06 17090   0.502E-03
  23 F= -.79639483E+03 E0= -.79639483E+03  d E =-.472796E-01  mag=    47.0000
       N       E                     dE             d eps       ncg     rms          rms(c)
DAV:   1    -0.796215799066E+03    0.17903E+00   -0.27381E+01 34750   0.145E+01    0.161E+00
DAV:   2    -0.796423484836E+03   -0.20769E+00   -0.21116E+00 33080   0.275E+00    0.121E+00
DAV:   3    -0.796431539688E+03   -0.80549E-02   -0.45071E-02 38970   0.566E-01    0.631E-01
DAV:   4    -0.796431010495E+03    0.52919E-03   -0.48402E-03 42930   0.237E-01    0.535E-01
DAV:   5    -0.796431200261E+03   -0.18977E-03   -0.39466E-03 43330   0.186E-01    0.183E-01
DAV:   6    -0.796431661746E+03   -0.46149E-03   -0.11442E-03 38850   0.881E-02    0.135E-01
DAV:   7    -0.796431827716E+03   -0.16597E-03   -0.19706E-04 39230   0.403E-02    0.108E-01
DAV:   8    -0.796432055056E+03   -0.22734E-03   -0.13012E-04 37710   0.363E-02    0.902E-02
DAV:   9    -0.796432308646E+03   -0.25359E-03   -0.20406E-04 40790   0.411E-02    0.750E-02
DAV:  10    -0.796432468404E+03   -0.15976E-03   -0.16508E-04 35870   0.296E-02    0.655E-02
DAV:  11    -0.796432670369E+03   -0.20197E-03   -0.21948E-04 43620   0.436E-02    0.490E-02
DAV:  12    -0.796432813046E+03   -0.14268E-03   -0.41033E-04 42310   0.561E-02    0.348E-02
DAV:  13    -0.796432888000E+03   -0.74953E-04   -0.25245E-04 39470   0.341E-02    0.248E-02
DAV:  14    -0.796432915369E+03   -0.27369E-04   -0.55683E-05 24650   0.133E-02    0.190E-02
DAV:  15    -0.796432920575E+03   -0.52059E-05   -0.43508E-06 17580   0.506E-03
  24 F= -.79643292E+03 E0= -.79643292E+03  d E =-.380862E-01  mag=    47.0000
       N       E                     dE             d eps       ncg     rms          rms(c)
DAV:   1    -0.784922570074E+03    0.11510E+02   -0.87562E+02 35420   0.878E+01    0.120E+01
DAV:   2    -0.794845603727E+03   -0.99230E+01   -0.10008E+02 33620   0.192E+01    0.129E+01
DAV:   3    -0.795034391127E+03   -0.18879E+00   -0.40923E+00 39010   0.612E+00    0.570E+00
DAV:   4    -0.795019167035E+03    0.15224E-01   -0.36732E-01 40320   0.210E+00    0.495E+00
DAV:   5    -0.794995933102E+03    0.23234E-01   -0.21152E-01 41650   0.114E+00    0.276E+00
DAV:   6    -0.795009295138E+03   -0.13362E-01   -0.85849E-02 42050   0.104E+00    0.126E+00
DAV:   7    -0.795007409576E+03    0.18856E-02   -0.27816E-02 41510   0.574E-01    0.609E-01
DAV:   8    -0.795009477818E+03   -0.20682E-02   -0.41970E-03 39400   0.201E-01    0.410E-01
DAV:   9    -0.795012219522E+03   -0.27417E-02   -0.22690E-03 39820   0.150E-01    0.317E-01
DAV:  10    -0.795014003425E+03   -0.17839E-02   -0.17291E-03 40060   0.129E-01    0.249E-01
DAV:  11    -0.795015368002E+03   -0.13646E-02   -0.10686E-03 38220   0.818E-02    0.225E-01
DAV:  12    -0.795016869851E+03   -0.15018E-02   -0.92322E-04 41750   0.902E-02    0.188E-01
DAV:  13    -0.795018703334E+03   -0.18335E-02   -0.23375E-03 43530   0.148E-01    0.147E-01
DAV:  14    -0.795019858737E+03   -0.11554E-02   -0.24794E-03 41600   0.118E-01    0.131E-01
DAV:  15    -0.795020489547E+03   -0.63081E-03   -0.90351E-04 38320   0.677E-02    0.106E-01
DAV:  16    -0.795020802929E+03   -0.31338E-03   -0.37220E-04 36350   0.386E-02    0.902E-02
DAV:  17    -0.795021136313E+03   -0.33338E-03   -0.23626E-04 43960   0.488E-02    0.745E-02
DAV:  18    -0.795021451376E+03   -0.31506E-03   -0.70449E-04 43060   0.746E-02    0.661E-02
DAV:  19    -0.795021665058E+03   -0.21368E-03   -0.46901E-04 40610   0.445E-02    0.563E-02
DAV:  20    -0.795021777522E+03   -0.11246E-03   -0.12320E-04 32990   0.233E-02    0.490E-02
DAV:  21    -0.795021878906E+03   -0.10138E-03   -0.99033E-05 36990   0.251E-02    0.422E-02
DAV:  22    -0.795021984503E+03   -0.10560E-03   -0.23024E-04 42310   0.403E-02    0.373E-02
DAV:  23    -0.795022068932E+03   -0.84429E-04   -0.17162E-04 35930   0.257E-02    0.316E-02
DAV:  24    -0.795022116830E+03   -0.47898E-04   -0.57111E-05 27920   0.153E-02    0.273E-02
DAV:  25    -0.795022161309E+03   -0.44479E-04   -0.73682E-05 35460   0.212E-02    0.229E-02
DAV:  26    -0.795022196208E+03   -0.34899E-04   -0.12797E-04 38280   0.280E-02    0.207E-02
DAV:  27    -0.795022228085E+03   -0.31876E-04   -0.92025E-05 31210   0.185E-02    0.183E-02
DAV:  28    -0.795022244521E+03   -0.16436E-04   -0.29577E-05 24480   0.992E-03    0.147E-02
DAV:  29    -0.795022253863E+03   -0.93421E-05   -0.11731E-05 22140   0.694E-03
  25 F= -.79502225E+03 E0= -.79502225E+03  d E =0.141067E+01  mag=    47.0000
       N       E                     dE             d eps       ncg     rms          rms(c)
DAV:   1    -0.789504182192E+03    0.55181E+01   -0.43535E+02 35170   0.686E+01    0.981E+00
DAV:   2    -0.796063479108E+03   -0.65593E+01   -0.67044E+01 33600   0.143E+01    0.732E+00
DAV:   3    -0.796392639226E+03   -0.32916E+00   -0.19526E+00 40870   0.347E+00    0.371E+00
DAV:   4    -0.796389075902E+03    0.35633E-02   -0.17956E-01 43490   0.125E+00    0.296E+00
DAV:   5    -0.796389149810E+03   -0.73908E-04   -0.11589E-01 42240   0.101E+00    0.121E+00
DAV:   6    -0.796398460111E+03   -0.93103E-02   -0.24836E-02 41700   0.491E-01    0.597E-01
DAV:   7    -0.796400458884E+03   -0.19988E-02   -0.90731E-03 41300   0.245E-01    0.353E-01
DAV:   8    -0.796401770161E+03   -0.13113E-02   -0.17869E-03 40460   0.124E-01    0.256E-01
DAV:   9    -0.796402821876E+03   -0.10517E-02   -0.93396E-04 40180   0.864E-02    0.197E-01
DAV:  10    -0.796403690550E+03   -0.86867E-03   -0.67308E-04 39860   0.679E-02    0.172E-01
DAV:  11    -0.796404405584E+03   -0.71503E-03   -0.46591E-04 39650   0.562E-02    0.148E-01
DAV:  12    -0.796405403705E+03   -0.99812E-03   -0.91287E-04 44020   0.838E-02    0.119E-01
DAV:  13    -0.796406229956E+03   -0.82625E-03   -0.14759E-03 42970   0.102E-01    0.978E-02
DAV:  14    -0.796406692767E+03   -0.46281E-03   -0.85543E-04 41130   0.638E-02    0.782E-02
DAV:  15    -0.796406915201E+03   -0.22243E-03   -0.26024E-04 36490   0.336E-02    0.672E-02
DAV:  16    -0.796407054468E+03   -0.13927E-03   -0.11855E-04 32530   0.235E-02    0.554E-02
DAV:  17    -0.796407214484E+03   -0.16002E-03   -0.21828E-04 42600   0.405E-02    0.437E-02
DAV:  18    -0.796407324489E+03   -0.11001E-03   -0.21638E-04 37950   0.326E-02    0.365E-02
DAV:  19    -0.796407396685E+03   -0.72196E-04   -0.10930E-04 33650   0.247E-02    0.300E-02
DAV:  20    -0.796407447333E+03   -0.50648E-04   -0.12026E-04 35610   0.262E-02    0.227E-02
DAV:  21    -0.796407480106E+03   -0.32773E-04   -0.10494E-04 32820   0.220E-02    0.167E-02
DAV:  22    -0.796407500306E+03   -0.20200E-04   -0.47605E-05 23900   0.125E-02    0.127E-02
DAV:  23    -0.796407503364E+03   -0.30580E-05   -0.42766E-06 17500   0.528E-03
  26 F= -.79640750E+03 E0= -.79640750E+03  d E =-.138525E+01  mag=    47.0000
       N       E                     dE             d eps       ncg     rms          rms(c)
DAV:   1    -0.796381947258E+03    0.25553E-01   -0.11535E+01 34370   0.973E+00    0.115E+00
DAV:   2    -0.796486588353E+03   -0.10464E+00   -0.10684E+00 33510   0.199E+00    0.121E+00
DAV:   3    -0.796489063511E+03   -0.24752E-02   -0.32770E-02 38860   0.504E-01    0.602E-01
DAV:   4    -0.796488985356E+03    0.78155E-04   -0.34045E-03 42830   0.188E-01    0.557E-01
DAV:   5    -0.796488566625E+03    0.41873E-03   -0.34227E-03 41050   0.174E-01    0.156E-01
DAV:   6    -0.796488708571E+03   -0.14195E-03   -0.73425E-04 40400   0.714E-02    0.835E-02
DAV:   7    -0.796488742346E+03   -0.33775E-04   -0.19764E-04 40000   0.319E-02    0.608E-02
DAV:   8    -0.796488771851E+03   -0.29505E-04   -0.28931E-05 27990   0.190E-02    0.462E-02
DAV:   9    -0.796488808950E+03   -0.37098E-04   -0.33509E-05 29810   0.176E-02    0.369E-02
DAV:  10    -0.796488841511E+03   -0.32561E-04   -0.30740E-05 27490   0.132E-02    0.308E-02
DAV:  11    -0.796488865780E+03   -0.24269E-04   -0.18066E-05 22190   0.998E-03    0.269E-02
DAV:  12    -0.796488899044E+03   -0.33264E-04   -0.26203E-05 26580   0.168E-02    0.221E-02
DAV:  13    -0.796488926015E+03   -0.26971E-04   -0.79016E-05 33800   0.201E-02    0.166E-02
DAV:  14    -0.796488941380E+03   -0.15365E-04   -0.40367E-05 24660   0.129E-02    0.137E-02
DAV:  15    -0.796488947733E+03   -0.63523E-05   -0.11060E-05 20080   0.670E-03
  27 F= -.79648895E+03 E0= -.79648895E+03  d E =-.814444E-01  mag=    47.0000
       N       E                     dE             d eps       ncg     rms          rms(c)
DAV:   1    -0.796203639897E+03    0.28530E+00   -0.33061E+01 34540   0.174E+01    0.204E+00
DAV:   2    -0.796539055185E+03   -0.33542E+00   -0.33910E+00 33320   0.349E+00    0.190E+00
DAV:   3    -0.796549837174E+03   -0.10782E-01   -0.87992E-02 37620   0.821E-01    0.963E-01
DAV:   4    -0.796549446660E+03    0.39051E-03   -0.93771E-03 43300   0.329E-01    0.877E-01
DAV:   5    -0.796548870817E+03    0.57584E-03   -0.79990E-03 42090   0.267E-01    0.250E-01
DAV:   6    -0.796549365262E+03   -0.49445E-03   -0.18873E-03 39000   0.112E-01    0.147E-01
DAV:   7    -0.796549484876E+03   -0.11961E-03   -0.40148E-04 39630   0.508E-02    0.108E-01
DAV:   8    -0.796549607011E+03   -0.12213E-03   -0.98077E-05 37360   0.337E-02    0.847E-02
DAV:   9    -0.796549763616E+03   -0.15661E-03   -0.13476E-04 41620   0.344E-02    0.663E-02
DAV:  10    -0.796549875572E+03   -0.11196E-03   -0.10367E-04 34980   0.248E-02    0.574E-02
DAV:  11    -0.796549981968E+03   -0.10640E-03   -0.82973E-05 35200   0.239E-02    0.477E-02
DAV:  12    -0.796550096301E+03   -0.11433E-03   -0.17172E-04 39130   0.371E-02    0.347E-02
DAV:  13    -0.796550162988E+03   -0.66687E-04   -0.19087E-04 38380   0.330E-02    0.273E-02
DAV:  14    -0.796550195770E+03   -0.32782E-04   -0.75847E-05 28360   0.166E-02    0.208E-02
DAV:  15    -0.796550205770E+03   -0.10000E-04   -0.12069E-05 18970   0.703E-03    0.176E-02
DAV:  16    -0.796550214395E+03   -0.86250E-05   -0.39424E-06 16790   0.621E-03
  28 F= -.79655021E+03 E0= -.79655021E+03  d E =-.612667E-01  mag=    47.0000
       N       E                     dE             d eps       ncg     rms          rms(c)
DAV:   1    -0.796529109189E+03    0.21097E-01   -0.25520E+00 34600   0.479E+00    0.583E-01
DAV:   2    -0.796555853716E+03   -0.26745E-01   -0.26857E-01 33290   0.933E-01    0.406E-01
DAV:   3    -0.796557079842E+03   -0.12261E-02   -0.57466E-03 39270   0.185E-01    0.214E-01
DAV:   4    -0.796557027608E+03    0.52234E-04   -0.55736E-04 43260   0.760E-02    0.176E-01
DAV:   5    -0.796557057278E+03   -0.29670E-04   -0.42279E-04 43820   0.599E-02    0.579E-02
DAV:   6    -0.796557102518E+03   -0.45240E-04   -0.11670E-04 37220   0.282E-02    0.425E-02
DAV:   7    -0.796557117895E+03   -0.15377E-04   -0.19114E-05 20700   0.126E-02    0.332E-02
DAV:   8    -0.796557139455E+03   -0.21560E-04   -0.13739E-05 19490   0.116E-02    0.279E-02
DAV:   9    -0.796557160373E+03   -0.20918E-04   -0.21511E-05 24950   0.110E-02    0.233E-02
DAV:  10    -0.796557176712E+03   -0.16339E-04   -0.13717E-05 20700   0.977E-03    0.207E-02
DAV:  11    -0.796557194766E+03   -0.18053E-04   -0.21217E-05 26880   0.129E-02    0.159E-02
DAV:  12    -0.796557209595E+03   -0.14829E-04   -0.51040E-05 33180   0.188E-02    0.114E-02
DAV:  13    -0.796557219035E+03   -0.94402E-05   -0.33979E-05 22070   0.107E-02
  29 F= -.79655722E+03 E0= -.79655722E+03  d E =-.700464E-02  mag=    47.0000
       N       E                     dE             d eps       ncg     rms          rms(c)
DAV:   1    -0.796305953170E+03    0.25126E+00   -0.25501E+01 35300   0.152E+01    0.176E+00
DAV:   2    -0.796548846910E+03   -0.24289E+00   -0.24521E+00 32980   0.289E+00    0.110E+00
DAV:   3    -0.796560437994E+03   -0.11591E-01   -0.50408E-02 39310   0.533E-01    0.611E-01
DAV:   4    -0.796560003022E+03    0.43497E-03   -0.46666E-03 44100   0.207E-01    0.459E-01
DAV:   5    -0.796560575353E+03   -0.57233E-03   -0.29940E-03 43370   0.168E-01    0.180E-01
DAV:   6    -0.796561038362E+03   -0.46301E-03   -0.10251E-03 39240   0.877E-02    0.140E-01
DAV:   7    -0.796561234394E+03   -0.19603E-03   -0.19115E-04 38710   0.428E-02    0.114E-01
DAV:   8    -0.796561580266E+03   -0.34587E-03   -0.22871E-04 43640   0.449E-02    0.935E-02
DAV:   9    -0.796561870681E+03   -0.29042E-03   -0.26142E-04 41770   0.426E-02    0.804E-02
DAV:  10    -0.796562065939E+03   -0.19526E-03   -0.16483E-04 36930   0.328E-02    0.700E-02
DAV:  11    -0.796562289768E+03   -0.22383E-03   -0.26136E-04 42960   0.477E-02    0.535E-02
DAV:  12    -0.796562445935E+03   -0.15617E-03   -0.54297E-04 42230   0.651E-02    0.386E-02
DAV:  13    -0.796562543577E+03   -0.97641E-04   -0.33184E-04 39000   0.352E-02    0.299E-02
DAV:  14    -0.796562571649E+03   -0.28072E-04   -0.44302E-05 23830   0.118E-02    0.225E-02
DAV:  15    -0.796562575967E+03   -0.43182E-05   -0.24442E-06 16570   0.513E-03
  30 F= -.79656258E+03 E0= -.79656258E+03  d E =-.535693E-02  mag=    47.0000
       N       E                     dE             d eps       ncg     rms          rms(c)
DAV:   1    -0.795711935584E+03    0.85064E+00   -0.77962E+01 35560   0.267E+01    0.311E+00
DAV:   2    -0.796482531560E+03   -0.77060E+00   -0.78288E+00 32940   0.510E+00    0.182E+00
DAV:   3    -0.796519262954E+03   -0.36731E-01   -0.16911E-01 38810   0.909E-01    0.105E+00
DAV:   4    -0.796517750073E+03    0.15129E-02   -0.13991E-02 44600   0.313E-01    0.723E-01
DAV:   5    -0.796519510378E+03   -0.17603E-02   -0.79334E-03 42010   0.275E-01    0.315E-01
DAV:   6    -0.796520743835E+03   -0.12335E-02   -0.28794E-03 39890   0.162E-01    0.239E-01
DAV:   7    -0.796521324776E+03   -0.58094E-03   -0.77583E-04 40470   0.856E-02    0.197E-01
DAV:   8    -0.796522293896E+03   -0.96912E-03   -0.63678E-04 44120   0.748E-02    0.161E-01
DAV:   9    -0.796523138946E+03   -0.84505E-03   -0.69176E-04 41480   0.676E-02    0.139E-01
DAV:  10    -0.796523752258E+03   -0.61331E-03   -0.48435E-04 40600   0.555E-02    0.118E-01
DAV:  11    -0.796524423113E+03   -0.67085E-03   -0.76386E-04 43080   0.833E-02    0.904E-02
DAV:  12    -0.796524877315E+03   -0.45420E-03   -0.14218E-03 41700   0.104E-01    0.665E-02
DAV:  13    -0.796525147442E+03   -0.27013E-03   -0.91074E-04 40620   0.584E-02    0.487E-02
DAV:  14    -0.796525227323E+03   -0.79881E-04   -0.12709E-04 28870   0.208E-02    0.379E-02
DAV:  15    -0.796525244632E+03   -0.17309E-04   -0.64354E-06 17350   0.730E-03    0.336E-02
DAV:  16    -0.796525286263E+03   -0.41631E-04   -0.24095E-05 26480   0.217E-02    0.260E-02
DAV:  17    -0.796525321383E+03   -0.35120E-04   -0.13248E-04 36140   0.234E-02    0.236E-02
DAV:  18    -0.796525338960E+03   -0.17577E-04   -0.31576E-05 23810   0.110E-02    0.188E-02
DAV:  19    -0.796525352514E+03   -0.13554E-04   -0.13872E-05 23540   0.129E-02    0.165E-02
DAV:  20    -0.796525364261E+03   -0.11747E-04   -0.43468E-05 30240   0.140E-02    0.114E-02
DAV:  21    -0.796525371758E+03   -0.74975E-05   -0.21601E-05 22840   0.927E-03
  31 F= -.79652537E+03 E0= -.79652537E+03  d E =0.372042E-01  mag=    47.0000
       N       E                     dE             d eps       ncg     rms          rms(c)
DAV:   1    -0.796042231100E+03    0.48313E+00   -0.40699E+01 35710   0.206E+01    0.245E+00
DAV:   2    -0.796503736878E+03   -0.46151E+00   -0.47654E+00 33310   0.393E+00    0.150E+00
DAV:   3    -0.796527303199E+03   -0.23566E-01   -0.11988E-01 39260   0.803E-01    0.863E-01
DAV:   4    -0.796526170176E+03    0.11330E-02   -0.10832E-02 43170   0.308E-01    0.612E-01
DAV:   5    -0.796526598563E+03   -0.42839E-03   -0.69597E-03 42250   0.249E-01    0.270E-01
DAV:   6    -0.796527330694E+03   -0.73213E-03   -0.19992E-03 39690   0.140E-01    0.192E-01
DAV:   7    -0.796527649508E+03   -0.31881E-03   -0.65890E-04 40240   0.697E-02    0.148E-01
DAV:   8    -0.796528066731E+03   -0.41722E-03   -0.24923E-04 41520   0.479E-02    0.126E-01
DAV:   9    -0.796528496854E+03   -0.43012E-03   -0.28998E-04 40700   0.469E-02    0.109E-01
DAV:  10    -0.796528843905E+03   -0.34705E-03   -0.28217E-04 40300   0.425E-02    0.958E-02
DAV:  11    -0.796529252697E+03   -0.40879E-03   -0.41287E-04 43040   0.586E-02    0.757E-02
DAV:  12    -0.796529599456E+03   -0.34676E-03   -0.90552E-04 42360   0.857E-02    0.572E-02
DAV:  13    -0.796529796836E+03   -0.19738E-03   -0.72444E-04 41580   0.553E-02    0.417E-02
DAV:  14    -0.796529872033E+03   -0.75197E-04   -0.15653E-04 33780   0.216E-02    0.318E-02
DAV:  15    -0.796529888397E+03   -0.16365E-04   -0.13260E-05 21020   0.831E-03    0.267E-02
DAV:  16    -0.796529911507E+03   -0.23109E-04   -0.11671E-05 22000   0.134E-02    0.213E-02
DAV:  17    -0.796529934612E+03   -0.23105E-04   -0.81491E-05 34990   0.206E-02    0.184E-02
DAV:  18    -0.796529946276E+03   -0.11664E-04   -0.25216E-05 23150   0.979E-03    0.154E-02
DAV:  19    -0.796529955930E+03   -0.96539E-05   -0.93513E-06 21120   0.112E-02
  32 F= -.79652996E+03 E0= -.79652996E+03  d E =-.458417E-02  mag=    47.0000
       N       E                     dE             d eps       ncg     rms          rms(c)
DAV:   1    -0.796200122926E+03    0.32982E+00   -0.32729E+01 35070   0.176E+01    0.208E+00
DAV:   2    -0.796539740197E+03   -0.33962E+00   -0.34388E+00 33250   0.341E+00    0.149E+00
DAV:   3    -0.796555500732E+03   -0.15761E-01   -0.79441E-02 39570   0.718E-01    0.791E-01
DAV:   4    -0.796554790971E+03    0.70976E-03   -0.76528E-03 43320   0.294E-01    0.649E-01
DAV:   5    -0.796555019221E+03   -0.22825E-03   -0.60253E-03 43730   0.228E-01    0.223E-01
DAV:   6    -0.796555618658E+03   -0.59944E-03   -0.16082E-03 39170   0.108E-01    0.156E-01
DAV:   7    -0.796555817039E+03   -0.19838E-03   -0.37034E-04 39900   0.518E-02    0.118E-01
DAV:   8    -0.796556044911E+03   -0.22787E-03   -0.14064E-04 39600   0.394E-02    0.973E-02
DAV:   9    -0.796556297952E+03   -0.25304E-03   -0.20069E-04 40940   0.413E-02    0.794E-02
DAV:  10    -0.796556474773E+03   -0.17682E-03   -0.18392E-04 36050   0.329E-02    0.663E-02
DAV:  11    -0.796556663023E+03   -0.18825E-03   -0.20920E-04 42730   0.412E-02    0.501E-02
DAV:  12    -0.796556791168E+03   -0.12815E-03   -0.28410E-04 40840   0.457E-02    0.370E-02
DAV:  13    -0.796556855113E+03   -0.63945E-04   -0.18906E-04 37400   0.290E-02    0.263E-02
DAV:  14    -0.796556879380E+03   -0.24267E-04   -0.44618E-05 23090   0.127E-02    0.205E-02
DAV:  15    -0.796556887102E+03   -0.77212E-05   -0.68968E-06 18240   0.608E-03
  33 F= -.79655689E+03 E0= -.79655689E+03  d E =-.269312E-01  mag=    47.0000
       N       E                     dE             d eps       ncg     rms          rms(c)
DAV:   1    -0.796456365678E+03    0.10051E+00   -0.79629E+00 35090   0.886E+00    0.108E+00
DAV:   2    -0.796542781954E+03   -0.86416E-01   -0.88395E-01 33380   0.172E+00    0.796E-01
DAV:   3    -0.796547503028E+03   -0.47211E-02   -0.23036E-02 38460   0.392E-01    0.415E-01
DAV:   4    -0.796547315170E+03    0.18786E-03   -0.23146E-03 43190   0.157E-01    0.342E-01
DAV:   5    -0.796547356133E+03   -0.40963E-04   -0.18007E-03 41680   0.122E-01    0.113E-01
DAV:   6    -0.796547495264E+03   -0.13913E-03   -0.42455E-04 39100   0.563E-02    0.764E-02
DAV:   7    -0.796547535884E+03   -0.40620E-04   -0.10850E-04 37450   0.262E-02    0.544E-02
DAV:   8    -0.796547578268E+03   -0.42384E-04   -0.27676E-05 27760   0.180E-02    0.458E-02
DAV:   9    -0.796547625921E+03   -0.47653E-04   -0.37952E-05 31090   0.179E-02    0.377E-02
DAV:  10    -0.796547661818E+03   -0.35897E-04   -0.36080E-05 24910   0.144E-02    0.322E-02
DAV:  11    -0.796547699768E+03   -0.37950E-04   -0.33297E-05 30420   0.160E-02    0.262E-02
DAV:  12    -0.796547737895E+03   -0.38128E-04   -0.68958E-05 35830   0.247E-02    0.188E-02
DAV:  13    -0.796547759199E+03   -0.21304E-04   -0.88040E-05 32390   0.201E-02    0.139E-02
DAV:  14    -0.796547768772E+03   -0.95726E-05   -0.26456E-05 22700   0.983E-03
  34 F= -.79654777E+03 E0= -.79654777E+03  d E =0.911833E-02  mag=    47.0000
       N       E                     dE             d eps       ncg     rms          rms(c)
DAV:   1    -0.796189009212E+03    0.35875E+00   -0.32735E+01 34900   0.160E+01    0.187E+00
DAV:   2    -0.796448167865E+03   -0.25916E+00   -0.26519E+00 33300   0.309E+00    0.136E+00
DAV:   3    -0.796461007723E+03   -0.12840E-01   -0.69275E-02 39030   0.694E-01    0.721E-01
DAV:   4    -0.796460325254E+03    0.68247E-03   -0.68860E-03 41720   0.270E-01    0.586E-01
DAV:   5    -0.796460642787E+03   -0.31753E-03   -0.60367E-03 41800   0.216E-01    0.224E-01
DAV:   6    -0.796461251955E+03   -0.60917E-03   -0.16325E-03 39310   0.107E-01    0.165E-01
DAV:   7    -0.796461485713E+03   -0.23376E-03   -0.43660E-04 40340   0.525E-02    0.129E-01
DAV:   8    -0.796461784094E+03   -0.29838E-03   -0.16868E-04 40670   0.403E-02    0.109E-01
DAV:   9    -0.796462142977E+03   -0.35888E-03   -0.26399E-04 41430   0.492E-02    0.895E-02
DAV:  10    -0.796462382231E+03   -0.23925E-03   -0.26350E-04 39710   0.393E-02    0.780E-02
DAV:  11    -0.796462610297E+03   -0.22807E-03   -0.20699E-04 41810   0.428E-02    0.617E-02
DAV:  12    -0.796462810771E+03   -0.20047E-03   -0.53657E-04 43400   0.673E-02    0.421E-02
DAV:  13    -0.796462916015E+03   -0.10524E-03   -0.39542E-04 41230   0.404E-02    0.323E-02
DAV:  14    -0.796462950179E+03   -0.34164E-04   -0.73402E-05 27220   0.147E-02    0.244E-02
DAV:  15    -0.796462956259E+03   -0.60805E-05   -0.55942E-06 17470   0.646E-03
  35 F= -.79646296E+03 E0= -.79646296E+03  d E =0.848125E-01  mag=    47.0000
       N       E                     dE             d eps       ncg     rms          rms(c)
DAV:   1    -0.789799271820E+03    0.66637E+01   -0.50816E+02 35060   0.707E+01    0.933E+00
DAV:   2    -0.795377480784E+03   -0.55782E+01   -0.58868E+01 33580   0.145E+01    0.742E+00
DAV:   3    -0.795675953231E+03   -0.29847E+00   -0.20695E+00 38580   0.357E+00    0.378E+00
DAV:   4    -0.795647721661E+03    0.28232E-01   -0.21977E-01 44080   0.139E+00    0.306E+00
DAV:   5    -0.795639222284E+03    0.84994E-02   -0.13997E-01 39050   0.987E-01    0.108E+00
DAV:   6    -0.795645427941E+03   -0.62057E-02   -0.29198E-02 40240   0.495E-01    0.642E-01
DAV:   7    -0.795647182148E+03   -0.17542E-02   -0.11599E-02 41080   0.250E-01    0.426E-01
DAV:   8    -0.795648774515E+03   -0.15924E-02   -0.17991E-03 40620   0.144E-01    0.311E-01
DAV:   9    -0.795650323963E+03   -0.15494E-02   -0.14631E-03 40650   0.114E-01    0.239E-01
DAV:  10    -0.795651652892E+03   -0.13289E-02   -0.11218E-03 39240   0.850E-02    0.203E-01
DAV:  11    -0.795652570848E+03   -0.91796E-03   -0.71562E-04 39750   0.625E-02    0.172E-01
DAV:  12    -0.795654030789E+03   -0.14599E-02   -0.14712E-03 44520   0.121E-01    0.130E-01
DAV:  13    -0.795654910010E+03   -0.87922E-03   -0.21787E-03 42390   0.122E-01    0.932E-02
DAV:  14    -0.795655315870E+03   -0.40586E-03   -0.93862E-04 41280   0.705E-02    0.697E-02
DAV:  15    -0.795655471249E+03   -0.15538E-03   -0.26449E-04 36300   0.329E-02    0.506E-02
DAV:  16    -0.795655538214E+03   -0.66965E-04   -0.70508E-05 28280   0.176E-02    0.398E-02
DAV:  17    -0.795655591608E+03   -0.53394E-04   -0.46732E-05 30500   0.184E-02    0.307E-02
DAV:  18    -0.795655626123E+03   -0.34515E-04   -0.48001E-05 31060   0.166E-02    0.249E-02
DAV:  19    -0.795655648724E+03   -0.22601E-04   -0.29663E-05 24020   0.120E-02    0.210E-02
DAV:  20    -0.795655669079E+03   -0.20356E-04   -0.23207E-05 27950   0.144E-02    0.168E-02
DAV:  21    -0.795655682515E+03   -0.13436E-04   -0.44722E-05 31390   0.177E-02    0.114E-02
DAV:  22    -0.795655692158E+03   -0.96435E-05   -0.28951E-05 22480   0.995E-03
  36 F= -.79565569E+03 E0= -.79565569E+03  d E =0.807264E+00  mag=    47.0000
       N       E                     dE             d eps       ncg     rms          rms(c)
DAV:   1    -0.795077359405E+03    0.57832E+00   -0.83027E+01 35560   0.323E+01    0.407E+00
DAV:   2    -0.796255666140E+03   -0.11783E+01   -0.12847E+01 33830   0.670E+00    0.346E+00
DAV:   3    -0.796324786257E+03   -0.69120E-01   -0.49235E-01 40970   0.168E+00    0.182E+00
DAV:   4    -0.796317901861E+03    0.68844E-02   -0.49388E-02 43270   0.655E-01    0.151E+00
DAV:   5    -0.796314645760E+03    0.32561E-02   -0.39086E-02 37470   0.501E-01    0.518E-01
DAV:   6    -0.796315788512E+03   -0.11428E-02   -0.67244E-03 39470   0.265E-01    0.326E-01
DAV:   7    -0.796316151153E+03   -0.36264E-03   -0.38031E-03 42060   0.135E-01    0.197E-01
DAV:   8    -0.796316411435E+03   -0.26028E-03   -0.40997E-04 40070   0.725E-02    0.136E-01
DAV:   9    -0.796316671155E+03   -0.25972E-03   -0.31339E-04 40470   0.539E-02    0.104E-01
DAV:  10    -0.796316892681E+03   -0.22153E-03   -0.18992E-04 36940   0.367E-02    0.871E-02
DAV:  11    -0.796317068972E+03   -0.17629E-03   -0.13116E-04 34850   0.284E-02    0.747E-02
DAV:  12    -0.796317339345E+03   -0.27037E-03   -0.27646E-04 43410   0.503E-02    0.589E-02
DAV:  13    -0.796317516991E+03   -0.17765E-03   -0.39181E-04 41940   0.509E-02    0.438E-02
DAV:  14    -0.796317607506E+03   -0.90515E-04   -0.21100E-04 38830   0.375E-02    0.331E-02
DAV:  15    -0.796317649673E+03   -0.42167E-04   -0.98574E-05 31910   0.203E-02    0.232E-02
DAV:  16    -0.796317665299E+03   -0.15626E-04   -0.22154E-05 19760   0.967E-03    0.177E-02
DAV:  17    -0.796317674644E+03   -0.93454E-05   -0.88526E-06 20290   0.730E-03
  37 F= -.79631767E+03 E0= -.79631767E+03  d E =-.661982E+00  mag=    47.0000
       N       E                     dE             d eps       ncg     rms          rms(c)
DAV:   1    -0.796137141209E+03    0.18052E+00   -0.21957E+01 35970   0.160E+01    0.200E+00
DAV:   2    -0.796431446028E+03   -0.29430E+00   -0.31660E+00 33770   0.332E+00    0.167E+00
DAV:   3    -0.796448781454E+03   -0.17335E-01   -0.11949E-01 41160   0.840E-01    0.872E-01
DAV:   4    -0.796447106169E+03    0.16753E-02   -0.11863E-02 43400   0.323E-01    0.724E-01
DAV:   5    -0.796446392769E+03    0.71340E-03   -0.98870E-03 38110   0.253E-01    0.248E-01
DAV:   6    -0.796446643833E+03   -0.25106E-03   -0.16009E-03 39440   0.128E-01    0.156E-01
DAV:   7    -0.796446728096E+03   -0.84263E-04   -0.95428E-04 40100   0.642E-02    0.954E-02
DAV:   8    -0.796446790676E+03   -0.62580E-04   -0.94833E-05 38080   0.347E-02    0.661E-02
DAV:   9    -0.796446851597E+03   -0.60921E-04   -0.71785E-05 36570   0.278E-02    0.510E-02
DAV:  10    -0.796446902719E+03   -0.51122E-04   -0.45995E-05 28440   0.186E-02    0.427E-02
DAV:  11    -0.796446941779E+03   -0.39060E-04   -0.30349E-05 25320   0.133E-02    0.366E-02
DAV:  12    -0.796447005856E+03   -0.64076E-04   -0.54630E-05 31760   0.254E-02    0.287E-02
DAV:  13    -0.796447050191E+03   -0.44335E-04   -0.13897E-04 35650   0.258E-02    0.219E-02
DAV:  14    -0.796447072959E+03   -0.22768E-04   -0.63731E-05 28500   0.170E-02    0.174E-02
DAV:  15    -0.796447082339E+03   -0.93801E-05   -0.21378E-05 22180   0.965E-03
  38 F= -.79644708E+03 E0= -.79644708E+03  d E =-.129408E+00  mag=    47.0000
       N       E                     dE             d eps       ncg     rms          rms(c)
DAV:   1    -0.796441269958E+03    0.58030E-02   -0.30513E+00 34870   0.526E+00    0.648E-01
DAV:   2    -0.796471581117E+03   -0.30311E-01   -0.31063E-01 33360   0.104E+00    0.567E-01
DAV:   3    -0.796473043562E+03   -0.14624E-02   -0.84802E-03 39390   0.245E-01    0.285E-01
DAV:   4    -0.796473003172E+03    0.40390E-04   -0.88692E-04 43270   0.979E-02    0.254E-01
DAV:   5    -0.796472983679E+03    0.19493E-04   -0.76737E-04 41750   0.770E-02    0.729E-02
DAV:   6    -0.796473024883E+03   -0.41204E-04   -0.17274E-04 39770   0.354E-02    0.459E-02
DAV:   7    -0.796473033512E+03   -0.86284E-05   -0.45198E-05 29880   0.160E-02
  39 F= -.79647303E+03 E0= -.79647303E+03  d E =-.259512E-01  mag=    47.0000
       N       E                     dE             d eps       ncg     rms          rms(c)
DAV:   1    -0.796185774776E+03    0.28725E+00   -0.32389E+01 35030   0.163E+01    0.203E+00
DAV:   2    -0.796479976001E+03   -0.29420E+00   -0.29682E+00 33330   0.317E+00    0.172E+00
DAV:   3    -0.796493833146E+03   -0.13857E-01   -0.73074E-02 38060   0.734E-01    0.858E-01
DAV:   4    -0.796493695588E+03    0.13756E-03   -0.75361E-03 42830   0.293E-01    0.765E-01
DAV:   5    -0.796493704039E+03   -0.84507E-05   -0.64583E-03 42830   0.229E-01    0.219E-01
DAV:   6    -0.796494223961E+03   -0.51992E-03   -0.15840E-03 39080   0.103E-01    0.138E-01
DAV:   7    -0.796494315611E+03   -0.91650E-04   -0.27073E-04 39920   0.451E-02    0.988E-02
DAV:   8    -0.796494431681E+03   -0.11607E-03   -0.88868E-05 37220   0.320E-02    0.792E-02
DAV:   9    -0.796494576937E+03   -0.14526E-03   -0.13421E-04 41590   0.346E-02    0.608E-02
DAV:  10    -0.796494662260E+03   -0.85323E-04   -0.94800E-05 33850   0.227E-02    0.513E-02
DAV:  11    -0.796494750268E+03   -0.88008E-04   -0.65354E-05 34350   0.229E-02    0.416E-02
DAV:  12    -0.796494836508E+03   -0.86239E-04   -0.15237E-04 39460   0.367E-02    0.282E-02
DAV:  13    -0.796494877046E+03   -0.40539E-04   -0.13689E-04 37000   0.262E-02    0.218E-02
DAV:  14    -0.796494892589E+03   -0.15543E-04   -0.36483E-05 22220   0.114E-02    0.158E-02
DAV:  15    -0.796494896325E+03   -0.37358E-05   -0.47944E-06 17520   0.524E-03
[...]
DAV:  10    -0.796789116055E+03   -0.11487E-03   -0.78136E-05 34200   0.228E-02    0.550E-02
DAV:  11    -0.796789263296E+03   -0.14724E-03   -0.15641E-04 41250   0.369E-02    0.413E-02
DAV:  12    -0.796789364091E+03   -0.10080E-03   -0.31657E-04 41920   0.483E-02    0.284E-02
DAV:  13    -0.796789416634E+03   -0.52543E-04   -0.16936E-04 36380   0.259E-02    0.211E-02
DAV:  14    -0.796789431479E+03   -0.14845E-04   -0.25460E-05 22740   0.900E-03    0.159E-02
DAV:  15    -0.796789433999E+03   -0.25196E-05   -0.17315E-06 16710   0.370E-03
 188 F= -.79678943E+03 E0= -.79678943E+03  d E =-.896663E-02  mag=    47.0000
       N       E                     dE             d eps       ncg     rms          rms(c)
DAV:   1    -0.796444388988E+03    0.34504E+00   -0.29826E+01 34650   0.173E+01    0.205E+00
DAV:   2    -0.796747214195E+03   -0.30283E+00   -0.32611E+00 34260   0.357E+00    0.187E+00
DAV:   3    -0.796762794752E+03   -0.15581E-01   -0.12765E-01 40900   0.928E-01    0.988E-01
DAV:   4    -0.796760986085E+03    0.18087E-02   -0.13095E-02 42960   0.368E-01    0.840E-01
DAV:   5    -0.796760234558E+03    0.75153E-03   -0.12569E-02 39760   0.294E-01    0.297E-01
DAV:   6    -0.796760467495E+03   -0.23294E-03   -0.22117E-03 39290   0.148E-01    0.181E-01
DAV:   7    -0.796760551180E+03   -0.83684E-04   -0.12864E-03 38320   0.742E-02    0.109E-01
DAV:   8    -0.796760641933E+03   -0.90753E-04   -0.11070E-04 38810   0.352E-02    0.821E-02
DAV:   9    -0.796760750563E+03   -0.10863E-03   -0.10178E-04 39040   0.301E-02    0.623E-02
DAV:  10    -0.796760828973E+03   -0.78410E-04   -0.65922E-05 31020   0.231E-02    0.537E-02
DAV:  11    -0.796760894263E+03   -0.65290E-04   -0.55672E-05 30350   0.189E-02    0.458E-02
DAV:  12    -0.796760993777E+03   -0.99514E-04   -0.11595E-04 36330   0.316E-02    0.349E-02
DAV:  13    -0.796761060692E+03   -0.66915E-04   -0.18236E-04 37060   0.330E-02    0.281E-02
DAV:  14    -0.796761095011E+03   -0.34319E-04   -0.79802E-05 32280   0.201E-02    0.200E-02
DAV:  15    -0.796761109857E+03   -0.14846E-04   -0.28939E-05 22430   0.106E-02    0.153E-02
DAV:  16    -0.796761116288E+03   -0.64307E-05   -0.74698E-06 18670   0.611E-03
 189 F= -.79676112E+03 E0= -.79676112E+03  d E =0.283177E-01  mag=    47.0000
       N       E                     dE             d eps       ncg     rms          rms(c)
DAV:   1    -0.796586325527E+03    0.17478E+00   -0.13733E+01 35540   0.130E+01    0.164E+00
DAV:   2    -0.796781982848E+03   -0.19566E+00   -0.21448E+00 34410   0.267E+00    0.113E+00
DAV:   3    -0.796794702788E+03   -0.12720E-01   -0.87973E-02 40630   0.673E-01    0.649E-01
DAV:   4    -0.796793233452E+03    0.14693E-02   -0.76586E-03 44260   0.238E-01    0.445E-01
DAV:   5    -0.796792785279E+03    0.44817E-03   -0.56937E-03 37670   0.198E-01    0.194E-01
DAV:   6    -0.796792873937E+03   -0.88658E-04   -0.94195E-04 37930   0.114E-01    0.119E-01
DAV:   7    -0.796792921991E+03   -0.48055E-04   -0.54673E-04 42080   0.543E-02    0.729E-02
DAV:   8    -0.796792964056E+03   -0.42064E-04   -0.66486E-05 33850   0.243E-02    0.531E-02
DAV:   9    -0.796793007696E+03   -0.43641E-04   -0.40162E-05 29540   0.176E-02    0.375E-02
DAV:  10    -0.796793036426E+03   -0.28730E-04   -0.26062E-05 25150   0.135E-02    0.319E-02
DAV:  11    -0.796793054340E+03   -0.17914E-04   -0.13479E-05 20600   0.102E-02    0.278E-02
DAV:  12    -0.796793082758E+03   -0.28418E-04   -0.17368E-05 24270   0.144E-02    0.224E-02
DAV:  13    -0.796793111734E+03   -0.28977E-04   -0.82323E-05 35350   0.227E-02    0.154E-02
DAV:  14    -0.796793125272E+03   -0.13538E-04   -0.37529E-05 22710   0.122E-02    0.126E-02
DAV:  15    -0.796793130018E+03   -0.47458E-05   -0.68556E-06 19450   0.658E-03
 190 F= -.79679313E+03 E0= -.79679313E+03  d E =-.320137E-01  mag=    47.0000
       N       E                     dE             d eps       ncg     rms          rms(c)
DAV:   1    -0.796782310229E+03    0.10815E-01   -0.97002E-01 34860   0.282E+00    0.323E-01
DAV:   2    -0.796790195781E+03   -0.78856E-02   -0.80527E-02 33250   0.536E-01    0.225E-01
DAV:   3    -0.796790557677E+03   -0.36190E-03   -0.18383E-03 38380   0.114E-01    0.119E-01
DAV:   4    -0.796790537010E+03    0.20666E-04   -0.17730E-04 41570   0.464E-02    0.955E-02
DAV:   5    -0.796790541906E+03   -0.48953E-05   -0.13311E-04 41650   0.348E-02    0.341E-02
DAV:   6    -0.796790556271E+03   -0.14365E-04   -0.37732E-05 29880   0.180E-02    0.247E-02
DAV:   7    -0.796790560157E+03   -0.38860E-05   -0.85825E-06 17420   0.855E-03
 191 F= -.79679056E+03 E0= -.79679056E+03  d E =0.256986E-02  mag=    47.0000
       N       E                     dE             d eps       ncg     rms          rms(c)
DAV:   1    -0.794640923117E+03    0.21496E+01   -0.23322E+02 34500   0.434E+01    0.505E+00
DAV:   2    -0.796541692893E+03   -0.19008E+01   -0.19420E+01 33230   0.831E+00    0.350E+00
DAV:   3    -0.796627115808E+03   -0.85423E-01   -0.44080E-01 38830   0.173E+00    0.184E+00
DAV:   4    -0.796621780057E+03    0.53358E-02   -0.42148E-02 43240   0.679E-01    0.144E+00
DAV:   5    -0.796622460930E+03   -0.68087E-03   -0.29783E-02 42810   0.518E-01    0.523E-01
DAV:   6    -0.796625571495E+03   -0.31106E-02   -0.89358E-03 40120   0.269E-01    0.344E-01
DAV:   7    -0.796626237993E+03   -0.66650E-03   -0.17585E-03 39500   0.122E-01    0.248E-01
DAV:   8    -0.796627193319E+03   -0.95533E-03   -0.66183E-04 42140   0.832E-02    0.200E-01
DAV:   9    -0.796628200611E+03   -0.10073E-02   -0.77394E-04 40500   0.800E-02    0.164E-01
DAV:  10    -0.796628866204E+03   -0.66559E-03   -0.59227E-04 40190   0.599E-02    0.143E-01
DAV:  11    -0.796629656378E+03   -0.79017E-03   -0.63638E-04 43120   0.742E-02    0.112E-01
DAV:  12    -0.796630391556E+03   -0.73518E-03   -0.16200E-03 43170   0.120E-01    0.777E-02
DAV:  13    -0.796630763976E+03   -0.37242E-03   -0.11958E-03 41980   0.731E-02    0.578E-02
DAV:  14    -0.796630898033E+03   -0.13406E-03   -0.24375E-04 36080   0.300E-02    0.408E-02
DAV:  15    -0.796630937746E+03   -0.39712E-04   -0.45530E-05 24420   0.130E-02    0.341E-02
DAV:  16    -0.796630971163E+03   -0.33418E-04   -0.14573E-05 20860   0.142E-02    0.264E-02
DAV:  17    -0.796631001748E+03   -0.30585E-04   -0.84396E-05 34790   0.213E-02    0.218E-02
DAV:  18    -0.796631016713E+03   -0.14965E-04   -0.29050E-05 23260   0.107E-02    0.181E-02
DAV:  19    -0.796631028884E+03   -0.12170E-04   -0.73308E-06 18790   0.987E-03    0.159E-02
DAV:  20    -0.796631041096E+03   -0.12212E-04   -0.37461E-05 29230   0.138E-02    0.112E-02
DAV:  21    -0.796631048898E+03   -0.78023E-05   -0.18880E-05 23190   0.878E-03
 192 F= -.79663105E+03 E0= -.79663105E+03  d E =0.159511E+00  mag=    47.0000
       N       E                     dE             d eps       ncg     rms          rms(c)
DAV:   1    -0.795136270388E+03    0.14948E+01   -0.99727E+01 35400   0.354E+01    0.435E+00
DAV:   2    -0.796446623304E+03   -0.13104E+01   -0.14160E+01 33620   0.714E+00    0.299E+00
DAV:   3    -0.796534708708E+03   -0.88085E-01   -0.55420E-01 40520   0.173E+00    0.168E+00
DAV:   4    -0.796527028574E+03    0.76801E-02   -0.48156E-02 43840   0.609E-01    0.120E+00
DAV:   5    -0.796525353786E+03    0.16748E-02   -0.35414E-02 38400   0.495E-01    0.509E-01
DAV:   6    -0.796526474924E+03   -0.11211E-02   -0.61065E-03 37700   0.277E-01    0.327E-01
DAV:   7    -0.796526932484E+03   -0.45756E-03   -0.35247E-03 41620   0.141E-01    0.212E-01
DAV:   8    -0.796527396703E+03   -0.46422E-03   -0.47662E-04 41310   0.693E-02    0.161E-01
DAV:   9    -0.796527867337E+03   -0.47063E-03   -0.39553E-04 40680   0.595E-02    0.124E-01
DAV:  10    -0.796528196325E+03   -0.32899E-03   -0.28531E-04 39360   0.440E-02    0.106E-01
DAV:  11    -0.796528452274E+03   -0.25595E-03   -0.17899E-04 36980   0.358E-02    0.914E-02
DAV:  12    -0.796528858484E+03   -0.40621E-03   -0.44136E-04 44090   0.644E-02    0.678E-02
DAV:  13    -0.796529117363E+03   -0.25888E-03   -0.67232E-04 42130   0.673E-02    0.502E-02
DAV:  14    -0.796529240962E+03   -0.12360E-03   -0.30055E-04 40540   0.390E-02    0.359E-02
DAV:  15    -0.796529288845E+03   -0.47884E-04   -0.85450E-05 29820   0.181E-02    0.268E-02
DAV:  16    -0.796529306646E+03   -0.17800E-04   -0.20549E-05 20750   0.951E-03    0.207E-02
DAV:  17    -0.796529320309E+03   -0.13663E-04   -0.11190E-05 23480   0.101E-02    0.164E-02
DAV:  18    -0.796529329318E+03   -0.90096E-05   -0.18238E-05 23220   0.954E-03
 193 F= -.79652933E+03 E0= -.79652933E+03  d E =0.101720E+00  mag=    47.0000
       N       E                     dE             d eps       ncg     rms          rms(c)
DAV:   1    -0.796153121937E+03    0.37620E+00   -0.35387E+01 35520   0.216E+01    0.267E+00
DAV:   2    -0.796630468381E+03   -0.47735E+00   -0.52196E+00 34000   0.432E+00    0.182E+00
DAV:   3    -0.796663586238E+03   -0.33118E-01   -0.20919E-01 40280   0.106E+00    0.103E+00
DAV:   4    -0.796660465713E+03    0.31205E-02   -0.18372E-02 43630   0.372E-01    0.719E-01
DAV:   5    -0.796659836975E+03    0.62874E-03   -0.13966E-02 37560   0.314E-01    0.314E-01
DAV:   6    -0.796660118884E+03   -0.28191E-03   -0.23485E-03 37410   0.181E-01    0.195E-01
DAV:   7    -0.796660272072E+03   -0.15319E-03   -0.14015E-03 41950   0.885E-02    0.123E-01
DAV:   8    -0.796660415147E+03   -0.14308E-03   -0.17592E-04 39600   0.419E-02    0.926E-02
DAV:   9    -0.796660560722E+03   -0.14557E-03   -0.13399E-04 39520   0.337E-02    0.685E-02
DAV:  10    -0.796660659089E+03   -0.98367E-04   -0.85749E-05 33900   0.249E-02    0.585E-02
DAV:  11    -0.796660733598E+03   -0.74509E-04   -0.54031E-05 29960   0.201E-02    0.504E-02
DAV:  12    -0.796660847230E+03   -0.11363E-03   -0.12447E-04 40030   0.332E-02    0.365E-02
DAV:  13    -0.796660922725E+03   -0.75495E-04   -0.18650E-04 38940   0.354E-02    0.273E-02
DAV:  14    -0.796660958261E+03   -0.35536E-04   -0.85511E-05 33980   0.207E-02    0.202E-02
DAV:  15    -0.796660972323E+03   -0.14062E-04   -0.26556E-05 21470   0.105E-02    0.138E-02
DAV:  16    -0.796660978041E+03   -0.57182E-05   -0.79018E-06 18960   0.636E-03
 194 F= -.79666098E+03 E0= -.79666098E+03  d E =-.131649E+00  mag=    47.0000
       N       E                     dE             d eps       ncg     rms          rms(c)
DAV:   1    -0.796661842594E+03   -0.87027E-03   -0.79745E-01 34550   0.268E+00    0.316E-01
DAV:   2    -0.796669502010E+03   -0.76594E-02   -0.79953E-02 33380   0.544E-01    0.269E-01
DAV:   3    -0.796669832978E+03   -0.33097E-03   -0.25518E-03 39290   0.135E-01    0.138E-01
DAV:   4    -0.796669797712E+03    0.35266E-04   -0.24362E-04 43270   0.523E-02    0.118E-01
DAV:   5    -0.796669780036E+03    0.17675E-04   -0.21189E-04 39680   0.403E-02    0.392E-02
DAV:   6    -0.796669788957E+03   -0.89204E-05   -0.43782E-05 32260   0.195E-02
 195 F= -.79666979E+03 E0= -.79666979E+03  d E =-.881092E-02  mag=    47.0000
       N       E                     dE             d eps       ncg     rms          rms(c)
DAV:   1    -0.796593878754E+03    0.75901E-01   -0.11054E+01 35000   0.935E+00    0.110E+00
DAV:   2    -0.796683680211E+03   -0.89801E-01   -0.91604E-01 33220   0.181E+00    0.912E-01
DAV:   3    -0.796687300022E+03   -0.36198E-02   -0.22454E-02 37500   0.428E-01    0.460E-01
DAV:   4    -0.796687171864E+03    0.12816E-03   -0.22300E-03 42810   0.171E-01    0.403E-01
DAV:   5    -0.796687173048E+03   -0.11839E-05   -0.17312E-03 42850   0.127E-01    0.128E-01
DAV:   6    -0.796687361875E+03   -0.18883E-03   -0.48175E-04 38850   0.569E-02    0.845E-02
DAV:   7    -0.796687416494E+03   -0.54620E-04   -0.84320E-05 36440   0.257E-02    0.666E-02
DAV:   8    -0.796687493597E+03   -0.77103E-04   -0.44238E-05 32120   0.217E-02    0.568E-02
DAV:   9    -0.796687586792E+03   -0.93195E-04   -0.76087E-05 37000   0.246E-02    0.465E-02
DAV:  10    -0.796687645571E+03   -0.58779E-04   -0.55879E-05 30310   0.174E-02    0.413E-02
DAV:  11    -0.796687717492E+03   -0.71921E-04   -0.59487E-05 35650   0.226E-02    0.330E-02
DAV:  12    -0.796687782330E+03   -0.64838E-04   -0.17738E-04 40810   0.374E-02    0.222E-02
DAV:  13    -0.796687817710E+03   -0.35380E-04   -0.12984E-04 36990   0.247E-02    0.170E-02
DAV:  14    -0.796687832451E+03   -0.14741E-04   -0.32128E-05 23980   0.103E-02    0.116E-02
DAV:  15    -0.796687835657E+03   -0.32052E-05   -0.37491E-06 17820   0.424E-03
 196 F= -.79668784E+03 E0= -.79668784E+03  d E =-.180467E-01  mag=    47.0000
       N       E                     dE             d eps       ncg     rms          rms(c)
DAV:   1    -0.795657123210E+03    0.10307E+01   -0.11456E+02 34960   0.306E+01    0.361E+00
DAV:   2    -0.796630284158E+03   -0.97316E+00   -0.98763E+00 33110   0.582E+00    0.266E+00
DAV:   3    -0.796672345680E+03   -0.42062E-01   -0.22132E-01 38600   0.127E+00    0.137E+00
DAV:   4    -0.796670421507E+03    0.19242E-02   -0.21683E-02 43370   0.518E-01    0.112E+00
DAV:   5    -0.796670965395E+03   -0.54389E-03   -0.15098E-02 44790   0.386E-01    0.386E-01
DAV:   6    -0.796672876269E+03   -0.19109E-02   -0.44315E-03 39180   0.180E-01    0.270E-01
DAV:   7    -0.796673445429E+03   -0.56916E-03   -0.75618E-04 40110   0.825E-02    0.209E-01
DAV:   8    -0.796674380542E+03   -0.93511E-03   -0.59073E-04 43360   0.714E-02    0.176E-01
DAV:   9    -0.796675348373E+03   -0.96783E-03   -0.73688E-04 41670   0.761E-02    0.150E-01
DAV:  10    -0.796675939383E+03   -0.59101E-03   -0.54120E-04 40820   0.540E-02    0.133E-01
DAV:  11    -0.796676790946E+03   -0.85156E-03   -0.79302E-04 44090   0.854E-02    0.104E-01
DAV:  12    -0.796677463200E+03   -0.67225E-03   -0.21644E-03 42870   0.129E-01    0.729E-02
DAV:  13    -0.796677828546E+03   -0.36535E-03   -0.12529E-03 41750   0.722E-02    0.566E-02
DAV:  14    -0.796677946094E+03   -0.11755E-03   -0.21804E-04 34910   0.258E-02    0.424E-02
DAV:  15    -0.796677975769E+03   -0.29674E-04   -0.23674E-05 24040   0.101E-02    0.347E-02
DAV:  16    -0.796678014267E+03   -0.38499E-04   -0.25859E-05 27790   0.184E-02    0.242E-02
DAV:  17    -0.796678041991E+03   -0.27724E-04   -0.10597E-04 35990   0.218E-02    0.206E-02
DAV:  18    -0.796678056362E+03   -0.14370E-04   -0.28370E-05 23820   0.104E-02    0.171E-02
DAV:  19    -0.796678066650E+03   -0.10288E-04   -0.70411E-06 18330   0.869E-03    0.150E-02
DAV:  20    -0.796678077095E+03   -0.10445E-04   -0.21188E-05 26090   0.101E-02    0.118E-02
DAV:  21    -0.796678084862E+03   -0.77677E-05   -0.16491E-05 23510   0.890E-03
 197 F= -.79667808E+03 E0= -.79667808E+03  d E =0.975079E-02  mag=    47.0000
       N       E                     dE             d eps       ncg     rms          rms(c)
DAV:   1    -0.795114158999E+03    0.15639E+01   -0.15426E+02 35220   0.367E+01    0.434E+00
DAV:   2    -0.796541840162E+03   -0.14277E+01   -0.14674E+01 33320   0.704E+00    0.277E+00
DAV:   3    -0.796610255472E+03   -0.68415E-01   -0.35522E-01 39980   0.144E+00    0.151E+00
DAV:   4    -0.796606639811E+03    0.36157E-02   -0.31876E-02 42560   0.558E-01    0.112E+00
DAV:   5    -0.796608030760E+03   -0.13909E-02   -0.21719E-02 42780   0.430E-01    0.469E-01
DAV:   6    -0.796610479957E+03   -0.24492E-02   -0.64333E-03 39790   0.245E-01    0.347E-01
DAV:   7    -0.796611386220E+03   -0.90626E-03   -0.19694E-03 40070   0.120E-01    0.265E-01
DAV:   8    -0.796612688528E+03   -0.13023E-02   -0.74740E-04 43200   0.805E-02    0.225E-01
DAV:   9    -0.796614187905E+03   -0.14994E-02   -0.99407E-04 41860   0.893E-02    0.188E-01
DAV:  10    -0.796615288592E+03   -0.11007E-02   -0.98922E-04 40810   0.768E-02    0.166E-01
DAV:  11    -0.796616390582E+03   -0.11020E-02   -0.96976E-04 42470   0.889E-02    0.132E-01
DAV:  12    -0.796617454506E+03   -0.10639E-02   -0.27857E-03 43220   0.151E-01    0.906E-02
DAV:  13    -0.796617995737E+03   -0.54123E-03   -0.19410E-03 41450   0.879E-02    0.708E-02
DAV:  14    -0.796618171746E+03   -0.17601E-03   -0.36227E-04 36280   0.323E-02    0.517E-02
DAV:  15    -0.796618213085E+03   -0.41339E-04   -0.37954E-05 25480   0.128E-02    0.428E-02
DAV:  16    -0.796618272554E+03   -0.59469E-04   -0.36932E-05 30470   0.240E-02    0.309E-02
DAV:  17    -0.796618320672E+03   -0.48118E-04   -0.20183E-04 38740   0.308E-02    0.251E-02
DAV:  18    -0.796618344559E+03   -0.23888E-04   -0.52369E-05 27680   0.138E-02    0.211E-02
DAV:  19    -0.796618358098E+03   -0.13538E-04   -0.96925E-06 20110   0.933E-03    0.187E-02
DAV:  20    -0.796618373800E+03   -0.15702E-04   -0.30536E-05 29200   0.135E-02    0.141E-02
DAV:  21    -0.796618384793E+03   -0.10993E-04   -0.26979E-05 26370   0.111E-02    0.118E-02
DAV:  22    -0.796618390332E+03   -0.55392E-05   -0.97183E-06 19460   0.647E-03
 198 F= -.79661839E+03 E0= -.79661839E+03  d E =0.596945E-01  mag=    47.0000
       N       E                     dE             d eps       ncg     rms          rms(c)
DAV:   1    -0.796298614340E+03    0.31977E+00   -0.33458E+01 35120   0.178E+01    0.212E+00
DAV:   2    -0.796618573073E+03   -0.31996E+00   -0.34215E+00 33820   0.357E+00    0.165E+00
DAV:   3    -0.796636187223E+03   -0.17614E-01   -0.12634E-01 40860   0.903E-01    0.879E-01
DAV:   4    -0.796634253791E+03    0.19334E-02   -0.12286E-02 44220   0.348E-01    0.695E-01
DAV:   5    -0.796633796477E+03    0.45731E-03   -0.10609E-02 39360   0.272E-01    0.267E-01
DAV:   6    -0.796634171883E+03   -0.37541E-03   -0.19946E-03 38480   0.141E-01    0.179E-01
DAV:   7    -0.796634339124E+03   -0.16724E-03   -0.10463E-03 38470   0.720E-02    0.120E-01
DAV:   8    -0.796634508485E+03   -0.16936E-03   -0.13510E-04 39460   0.374E-02    0.977E-02
DAV:   9    -0.796634708058E+03   -0.19957E-03   -0.14736E-04 40550   0.361E-02    0.779E-02
DAV:  10    -0.796634860644E+03   -0.15259E-03   -0.12760E-04 34740   0.300E-02    0.675E-02
DAV:  11    -0.796634997227E+03   -0.13658E-03   -0.11345E-04 37280   0.290E-02    0.559E-02
DAV:  12    -0.796635164386E+03   -0.16716E-03   -0.27448E-04 42940   0.491E-02    0.401E-02
DAV:  13    -0.796635249661E+03   -0.85275E-04   -0.25442E-04 40400   0.363E-02    0.300E-02
DAV:  14    -0.796635286064E+03   -0.36403E-04   -0.77211E-05 31630   0.197E-02    0.205E-02
DAV:  15    -0.796635300751E+03   -0.14687E-04   -0.30802E-05 21400   0.101E-02    0.159E-02
DAV:  16    -0.796635306361E+03   -0.56091E-05   -0.38424E-06 17510   0.516E-03
 199 F= -.79663531E+03 E0= -.79663531E+03  d E =-.169160E-01  mag=    47.0000
       N       E                     dE             d eps       ncg     rms          rms(c)
DAV:   1    -0.796404782196E+03    0.23052E+00   -0.30768E+01 34700   0.156E+01    0.175E+00
DAV:   2    -0.796640735190E+03   -0.23595E+00   -0.24356E+00 33390   0.304E+00    0.154E+00
DAV:   3    -0.796649402816E+03   -0.86676E-02   -0.68186E-02 37760   0.747E-01    0.776E-01
DAV:   4    -0.796648714447E+03    0.68837E-03   -0.66812E-03 42090   0.293E-01    0.680E-01
DAV:   5    -0.796648411896E+03    0.30255E-03   -0.60249E-03 41580   0.219E-01    0.226E-01
DAV:   6    -0.796648877115E+03   -0.46522E-03   -0.14891E-03 39430   0.100E-01    0.138E-01
DAV:   7    -0.796649010110E+03   -0.13299E-03   -0.35128E-04 39270   0.459E-02    0.106E-01
DAV:   8    -0.796649154218E+03   -0.14411E-03   -0.89353E-05 36660   0.322E-02    0.875E-02
DAV:   9    -0.796649349571E+03   -0.19535E-03   -0.15115E-04 41790   0.366E-02    0.696E-02
DAV:  10    -0.796649482679E+03   -0.13311E-03   -0.13009E-04 36060   0.283E-02    0.607E-02
DAV:  11    -0.796649613999E+03   -0.13132E-03   -0.10740E-04 37960   0.294E-02    0.489E-02
DAV:  12    -0.796649738133E+03   -0.12413E-03   -0.25241E-04 41420   0.462E-02    0.334E-02
DAV:  13    -0.796649801652E+03   -0.63519E-04   -0.21688E-04 39640   0.329E-02    0.258E-02
DAV:  14    -0.796649828708E+03   -0.27055E-04   -0.61999E-05 27510   0.147E-02    0.176E-02
DAV:  15    -0.796649834986E+03   -0.62785E-05   -0.82738E-06 18550   0.650E-03
 200 F= -.79664983E+03 E0= -.79664983E+03  d E =-.145286E-01  mag=    47.0000
