       N       E                     dE             d eps       ncg     rms          ort
DAV:   1     0.827326635849E+04    0.82733E+04   -0.24656E+05  8424   0.238E+03
DAV:   2     0.920185313363E+03   -0.73531E+04   -0.69008E+04  8424   0.656E+02
DAV:   3    -0.674265887471E+03   -0.15945E+04   -0.14023E+04  8424   0.282E+02
DAV:   4    -0.830428127644E+03   -0.15616E+03   -0.15342E+03  8424   0.858E+01
DAV:   5    -0.832931790746E+03   -0.25037E+01   -0.24928E+01  8424   0.122E+01
SDA:   6    -0.259974128299E+03    0.57296E+03   -0.24928E+01  8424   0.398E+04 0.000E+00
CGA:   7    -0.601859398140E+03   -0.34189E+03   -0.41763E+03  8424   0.402E+03 0.129E+03
CGA:   8    -0.634922950304E+03   -0.33064E+02   -0.20931E+02  8424   0.150E+03 0.230E+03
CGA:   9    -0.646529256266E+03   -0.11606E+02   -0.15552E+02  8424   0.354E+03-0.301E+01
CGA:  10    -0.652555033282E+03   -0.60258E+01   -0.21557E+02  8424   0.105E+03-0.673E+02
CGA:  11    -0.654697888267E+03   -0.21429E+01   -0.52607E+01  8424   0.201E+03-0.560E+02
CGA:  12    -0.656342624641E+03   -0.16447E+01   -0.16529E+02  8424   0.136E+03-0.103E+02
CGA:  13    -0.662086624076E+03   -0.57440E+01   -0.97329E+01  8424   0.932E+02-0.626E+02
CGA:  14    -0.661890693191E+03    0.19593E+00   -0.27039E+01  8424   0.211E+03-0.239E+02
CGA:  15    -0.654906333495E+03    0.69844E+01   -0.60112E+01  8424   0.248E+03-0.176E+03
CGA:  16    -0.660447515935E+03   -0.55412E+01   -0.13733E+02  8424   0.949E+02-0.765E+02
CGA:  17    -0.666385896400E+03   -0.59384E+01   -0.31545E+01  8424   0.211E+02-0.322E+02
CGA:  18    -0.667476363613E+03   -0.10905E+01   -0.66472E+00  8424   0.495E+01 0.701E+01
CGA:  19    -0.667698395402E+03   -0.22203E+00   -0.27324E+00  8424   0.783E+01-0.129E+01
CGA:  20    -0.668074431497E+03   -0.37604E+00   -0.29490E+00  8424   0.891E+01 0.145E+01
CGA:  21    -0.668259373556E+03   -0.18494E+00   -0.38552E+00  8424   0.559E+01-0.387E+01
CGA:  22    -0.668344073191E+03   -0.84700E-01   -0.87538E-01  8424   0.291E+01-0.142E+00
CGA:  23    -0.668426820397E+03   -0.82747E-01   -0.12818E+00  8424   0.250E+01-0.543E+00
CGA:  24    -0.668532392979E+03   -0.10557E+00   -0.10864E+00  8424   0.167E+01-0.189E-02
CGA:  25    -0.668625245553E+03   -0.92853E-01   -0.96956E-01  8424   0.120E+01 0.222E-01
CGA:  26    -0.668714012763E+03   -0.88767E-01   -0.95276E-01  8424   0.515E+00 0.302E-01
CGA:  27    -0.668760299541E+03   -0.46287E-01   -0.48140E-01  8424   0.362E+00 0.293E-01
CGA:  28    -0.668802196587E+03   -0.41897E-01   -0.41848E-01  8424   0.150E+00 0.984E-02
CGA:  29    -0.668837223767E+03   -0.35027E-01   -0.33624E-01  8424   0.140E+00 0.110E-01
CGA:  30    -0.668861434740E+03   -0.24211E-01   -0.23268E-01  8424   0.989E-01 0.146E-01
CGA:  31    -0.668885344943E+03   -0.23910E-01   -0.25106E-01  8424   0.188E+00-0.102E-01
CGA:  32    -0.668915771167E+03   -0.30426E-01   -0.31656E-01  8424   0.156E+00-0.207E-01
CGA:  33    -0.668955924265E+03   -0.40153E-01   -0.40492E-01  8424   0.192E+00-0.943E-02
CGA:  34    -0.668909832654E+03    0.46092E-01   -0.83073E-01  8424   0.177E+01-0.439E+00
CGA:  35    -0.669086591691E+03   -0.17676E+00   -0.17958E+00  8424   0.209E+00-0.307E-01
CGA:  36    -0.669168573035E+03   -0.81981E-01   -0.87056E-01  8424   0.383E+00-0.185E-01
CGA:  37    -0.669234850328E+03   -0.66277E-01   -0.65657E-01  8424   0.166E+00-0.374E-02
CGA:  38    -0.669283913698E+03   -0.49063E-01   -0.58744E-01  8424   0.225E+00-0.488E-01
CGA:  39    -0.669323941578E+03   -0.40028E-01   -0.57308E-01  8424   0.327E+00-0.914E-01
CGA:  40    -0.669362882592E+03   -0.38941E-01   -0.40831E-01  8424   0.287E+00-0.660E-01
CGA:  41    -0.669415952131E+03   -0.53070E-01   -0.58764E-01  8424   0.238E+00-0.794E-01
CGA:  42    -0.669452727294E+03   -0.36775E-01   -0.62290E-01  8424   0.349E+00-0.144E+00
CGA:  43    -0.669517220578E+03   -0.64493E-01   -0.64545E-01  8424   0.115E+00 0.104E-02
CGA:  44    -0.669555978050E+03   -0.38757E-01   -0.38412E-01  8424   0.604E-01 0.250E-02
CGA:  45    -0.669583888995E+03   -0.27911E-01   -0.27804E-01  8424   0.414E-01 0.813E-03
CGA:  46    -0.669593647547E+03   -0.97586E-02   -0.96851E-02  8424   0.127E-01 0.451E-02
CGA:  47    -0.669599350074E+03   -0.57025E-02   -0.54655E-02  8424   0.702E-02 0.134E-02
CGA:  48    -0.669602702975E+03   -0.33529E-02   -0.33484E-02  8424   0.630E-02 0.182E-04
CGA:  49    -0.669605529796E+03   -0.28268E-02   -0.41216E-02  8424   0.168E-01-0.321E-02
CGA:  50    -0.669609122875E+03   -0.35931E-02   -0.34283E-02  8424   0.655E-02-0.331E-02
CGA:  51    -0.669592984865E+03    0.16138E-01   -0.88183E-02  8424   0.144E+00-0.182E-01
CGA:  52    -0.669614202468E+03   -0.21218E-01   -0.21366E-01  8424   0.186E-01-0.149E-02
CGA:  53    -0.669618962528E+03   -0.47601E-02   -0.49921E-02  8424   0.328E-02 0.135E-02
CGA:  54    -0.669620543270E+03   -0.15807E-02   -0.15805E-02  8424   0.178E-02 0.204E-05
CGA:  55    -0.669617865015E+03    0.26783E-02   -0.30672E-02  8424   0.417E-01-0.454E-02
CGA:  56    -0.669625387570E+03   -0.75226E-02   -0.72148E-02  8424   0.590E-02-0.869E-03
CGA:  57    -0.669628166053E+03   -0.27785E-02   -0.27703E-02  8424   0.504E-02-0.190E-02
CGA:  58    -0.669629687654E+03   -0.15216E-02   -0.20667E-02  8424   0.127E-01-0.454E-02
CGA:  59    -0.669631592886E+03   -0.19052E-02   -0.20711E-02  8424   0.294E-02 0.628E-03
CGA:  60    -0.669633154334E+03   -0.15614E-02   -0.15803E-02  8424   0.223E-02-0.498E-03
CGA:  61    -0.669634116139E+03   -0.96181E-03   -0.12509E-02  8424   0.530E-02-0.149E-02
CGA:  62    -0.669636144490E+03   -0.20284E-02   -0.18238E-02  8424   0.336E-02-0.145E-02
CGA:  63    -0.669606350748E+03    0.29794E-01   -0.16052E-01  8424   0.167E+00-0.143E-01
CGA:  64    -0.669636481484E+03   -0.30131E-01   -0.29969E-01  8424   0.323E-01-0.310E-02
CGA:  65    -0.669647501843E+03   -0.11020E-01   -0.11704E-01  8424   0.665E-02 0.173E-02
CGA:  66    -0.669649071985E+03   -0.15701E-02   -0.14986E-02  8424   0.152E-02-0.134E-03
CGA:  67    -0.669649920918E+03   -0.84893E-03   -0.75244E-03  8424   0.219E-02-0.361E-03
CGA:  68    -0.669623947214E+03    0.25974E-01   -0.59576E-02  8424   0.171E+00-0.118E-01
CGA:  69    -0.669654829302E+03   -0.30882E-01   -0.30603E-01  8424   0.334E-01 0.842E-03
CGA:  70    -0.669667886651E+03   -0.13057E-01   -0.12033E-01  8424   0.140E-01-0.222E-02
CGA:  71    -0.669671267590E+03   -0.33809E-02   -0.30556E-02  8424   0.218E-02-0.515E-03
CGA:  72    -0.669672631714E+03   -0.13641E-02   -0.10345E-02  8424   0.283E-02-0.103E-02
CGA:  73    -0.669673718858E+03   -0.10871E-02   -0.58138E-03  8424   0.296E-02-0.125E-02
CGA:  74    -0.669678331202E+03   -0.46123E-02    0.81337E-03  8424   0.569E-02 0.111E-03
CGA:  75    -0.669681978695E+03   -0.36475E-02   -0.55815E-02  8424   0.687E-01-0.124E-01
CGA:  76    -0.669691770886E+03   -0.97922E-02   -0.10183E-01  8424   0.482E-02 0.119E-02
CGA:  77    -0.669693642590E+03   -0.18717E-02   -0.16745E-02  8424   0.143E-02-0.482E-03
CGA:  78    -0.669694383324E+03   -0.74073E-03   -0.53659E-03  8424   0.200E-02-0.647E-03
CGA:  79    -0.669696904290E+03   -0.25210E-02    0.65492E-03  8424   0.417E-02-0.101E-02
CGA:  80    -0.669697932952E+03   -0.10287E-02   -0.94481E-03  8424   0.124E-02-0.162E-03
CGA:  81    -0.669696513630E+03    0.14193E-02   -0.19734E-02  8424   0.283E-01-0.354E-02
CGA:  82    -0.669700371209E+03   -0.38576E-02   -0.39787E-02  8424   0.286E-02 0.547E-03
CGA:  83    -0.669702310713E+03   -0.19395E-02   -0.18119E-02  8424   0.264E-02-0.141E-02
CGA:  84    -0.669703208873E+03   -0.89816E-03   -0.54248E-03  8424   0.257E-02-0.118E-02
CGA:  85    -0.669705585980E+03   -0.23771E-02    0.24260E-02  8424   0.452E-02-0.119E-02
CGA:  86    -0.669710317850E+03   -0.47319E-02    0.20729E-02  8424   0.932E-02-0.232E-02
CGA:  87    -0.669713206750E+03   -0.28889E-02   -0.27012E-02  8424   0.213E-02-0.462E-03
CGA:  88    -0.669714321566E+03   -0.11148E-02   -0.89474E-03  8424   0.169E-02-0.953E-03
CGA:  89    -0.669714523199E+03   -0.20163E-03   -0.87522E-03  8424   0.135E-01-0.249E-02
CGA:  90    -0.669716889435E+03   -0.23662E-02   -0.20632E-02  8424   0.138E-02-0.665E-03
CGA:  91    -0.669717728915E+03   -0.83948E-03   -0.81863E-03  8424   0.234E-02-0.829E-03
CGA:  92    -0.669718454463E+03   -0.72555E-03   -0.47174E-03  8424   0.777E-03-0.576E-03
CGA:  93    -0.669698433898E+03    0.20021E-01   -0.10897E-01  8424   0.163E+00-0.659E-02
CGA:  94    -0.669722070911E+03   -0.23637E-01   -0.23635E-01  8424   0.142E-01-0.908E-02
CGA:  95    -0.669725729055E+03   -0.36581E-02   -0.36154E-02  8424   0.167E-02-0.420E-04
CGA:  96    -0.669726543355E+03   -0.81430E-03   -0.50073E-03  8424   0.622E-03-0.428E-03
CGA:  97    -0.669726978251E+03   -0.43490E-03   -0.49299E-03  8424   0.865E-02-0.115E-02
CGA:  98    -0.669728496091E+03   -0.15178E-02   -0.11839E-02  8424   0.558E-03-0.480E-03
CGA:  99    -0.669728834700E+03   -0.33861E-03   -0.67551E-03  8424   0.588E-02-0.108E-02
CGA: 100    -0.669730162106E+03   -0.13274E-02   -0.10356E-02  8424   0.143E-02-0.450E-03
CGA: 101    -0.669730794371E+03   -0.63227E-03   -0.48219E-03  8424   0.645E-03-0.335E-03
CGA: 102    -0.669732036467E+03   -0.12421E-02    0.61268E-03  8424   0.329E-02-0.679E-03
CGA: 103    -0.669732630119E+03   -0.59365E-03   -0.58565E-03  8424   0.644E-03-0.148E-04
CGA: 104    -0.669733135159E+03   -0.50504E-03   -0.61731E-03  8424   0.663E-02-0.141E-02
CGA: 105    -0.669734078930E+03   -0.94377E-03   -0.10102E-02  8424   0.763E-03 0.137E-03
CGA: 106    -0.669734737238E+03   -0.65831E-03   -0.42825E-03  8424   0.177E-02-0.776E-03
CGA: 107    -0.669735143181E+03   -0.40594E-03   -0.35057E-03  8424   0.328E-03-0.851E-04
CGA: 108    -0.669735940108E+03   -0.79693E-03    0.21202E-03  8424   0.334E-02-0.607E-03
CGA: 109    -0.669736379831E+03   -0.43972E-03   -0.47196E-03  8424   0.282E-03 0.668E-04
CGA: 110    -0.669737122411E+03   -0.74258E-03    0.16192E-03  8424   0.136E-02-0.352E-03
CGA: 111    -0.669737564772E+03   -0.44236E-03   -0.34623E-03  8424   0.328E-03-0.188E-03
CGA: 112    -0.669738417042E+03   -0.85227E-03    0.10205E-03  8424   0.290E-02-0.474E-03
CGA: 113    -0.669738763671E+03   -0.34663E-03   -0.37957E-03  8424   0.176E-03 0.704E-04
CGA: 114    -0.669739524030E+03   -0.76036E-03    0.32695E-04  8424   0.426E-03-0.359E-04
CGA: 115    -0.669742210107E+03   -0.26861E-02    0.26499E-04  8424   0.920E-03 0.243E-03
CGA: 116    -0.669742626291E+03   -0.41618E-03   -0.31494E-03  8424   0.514E-03-0.275E-03
CGA: 117    -0.669743574728E+03   -0.94844E-03    0.13900E-03  8424   0.290E-02-0.599E-03
CGA: 118    -0.669743962634E+03   -0.38791E-03   -0.42303E-03  8424   0.294E-03 0.791E-04
CGA: 119    -0.669744688606E+03   -0.72597E-03    0.12550E-03  8424   0.542E-03-0.181E-03
CGA: 120    -0.669744833134E+03   -0.14453E-03   -0.56079E-03  8424   0.388E-02-0.113E-02
CGA: 121    -0.669746111939E+03   -0.12788E-02   -0.10424E-02  8424   0.960E-03-0.573E-03
CGA: 122    -0.669746359977E+03   -0.24804E-03   -0.17464E-03  8424   0.268E-03-0.161E-03
CGA: 123    -0.669747281046E+03   -0.92107E-03    0.32071E-04  8424   0.200E-03 0.678E-04
CGA: 124    -0.669748640293E+03   -0.13592E-02    0.25033E-04  8424   0.172E-03 0.187E-03
CGA: 125    -0.669749084260E+03   -0.44397E-03    0.54388E-04  8424   0.892E-03-0.112E-03
CGA: 126    -0.669749525105E+03   -0.44084E-03   -0.21706E-03  8424   0.713E-03-0.566E-03
CGA: 127    -0.669749660783E+03   -0.13568E-03   -0.11205E-03  8424   0.143E-03-0.495E-04
CGA: 128    -0.669750411243E+03   -0.75046E-03    0.10698E-04  8424   0.105E-03 0.122E-03
CGA: 129    -0.669751007752E+03   -0.59651E-03    0.84667E-05  8424   0.124E-03 0.973E-04
CGA: 130    -0.669751607441E+03   -0.59969E-03    0.12200E-04  8424   0.379E-03 0.302E-04
CGA: 131    -0.669754076577E+03   -0.24691E-02    0.41791E-04  8424   0.170E-03 0.406E-03
CGA: 132    -0.669754650968E+03   -0.57439E-03    0.27769E-04  8424   0.673E-03-0.741E-04
CGA: 133    -0.669757188699E+03   -0.25377E-02    0.24670E-04  8424   0.262E-02-0.987E-04
CGA: 134    -0.669768622673E+03   -0.11434E-01    0.20507E-03  8424   0.110E-01-0.518E-03
CGA: 135    -0.669832799865E+03   -0.64177E-01    0.52464E-03  8424   0.305E-01-0.418E-02
CGA: 136    -0.669990992825E+03   -0.15819E+00    0.94926E-03  8424   0.153E+00-0.247E+00
CGA: 137    -0.670010144415E+03   -0.19152E-01   -0.22430E-01  8424   0.222E-01 0.970E-02
CGA: 138    -0.670012996909E+03   -0.28525E-02   -0.62975E-02  8424   0.133E-01 0.112E-01
CGA: 139    -0.670013854298E+03   -0.85739E-03   -0.33056E-02  8424   0.103E-01 0.781E-02
CGA: 140    -0.670013413406E+03    0.44089E-03   -0.21291E-02  8424   0.846E-02 0.764E-02
CGA: 141    -0.670013056696E+03    0.35671E-03   -0.18861E-02  8424   0.756E-02 0.734E-02
CGA: 142    -0.670012347201E+03    0.70950E-03   -0.14874E-02  8424   0.693E-02 0.695E-02
CGA: 143    -0.670011693697E+03    0.65350E-03   -0.13457E-02  8424   0.648E-02 0.659E-02
CGA: 144    -0.670010945633E+03    0.74806E-03   -0.11570E-02  8424   0.615E-02 0.627E-02
CGA: 145    -0.670010225680E+03    0.71995E-03   -0.10526E-02  8424   0.587E-02 0.599E-02
CGA: 146    -0.670009494124E+03    0.73156E-03   -0.94381E-03  8424   0.564E-02 0.574E-02
CGA: 147    -0.670008784871E+03    0.70925E-03   -0.86457E-03  8424   0.543E-02 0.553E-02
CGA: 148    -0.670008088626E+03    0.69625E-03   -0.79045E-03  8424   0.526E-02 0.534E-02
CGA: 149    -0.670007414873E+03    0.67375E-03   -0.72921E-03  8424   0.510E-02 0.518E-02
CGA: 150    -0.670006761407E+03    0.65347E-03   -0.67366E-03  8424   0.495E-02 0.502E-02
CGA: 151    -0.670006130880E+03    0.63053E-03   -0.62524E-03  8424   0.482E-02 0.489E-02
CGA: 152    -0.670005522464E+03    0.60842E-03   -0.58143E-03  8424   0.471E-02 0.476E-02
CGA: 153    -0.670004936667E+03    0.58580E-03   -0.54226E-03  8424   0.460E-02 0.465E-02
CGA: 154    -0.670004372835E+03    0.56383E-03   -0.50663E-03  8424   0.450E-02 0.455E-02
CGA: 155    -0.670003830694E+03    0.54214E-03   -0.47431E-03  8424   0.440E-02 0.445E-02
CGA: 156    -0.670003309573E+03    0.52112E-03   -0.44475E-03  8424   0.432E-02 0.436E-02
CGA: 157    -0.670002808894E+03    0.50068E-03   -0.41768E-03  8424   0.424E-02 0.428E-02
CGA: 158    -0.670002327972E+03    0.48092E-03   -0.39281E-03  8424   0.416E-02 0.420E-02
CGA: 159    -0.670001866113E+03    0.46186E-03   -0.36988E-03  8424   0.409E-02 0.413E-02
CGA: 160    -0.670001422643E+03    0.44347E-03   -0.34872E-03  8424   0.403E-02 0.406E-02
CGA: 161    -0.670000996816E+03    0.42583E-03   -0.32911E-03  8424   0.397E-02 0.400E-02
CGA: 162    -0.670000587996E+03    0.40882E-03   -0.31094E-03  8424   0.391E-02 0.394E-02
CGA: 163    -0.670000195386E+03    0.39261E-03   -0.29399E-03  8424   0.386E-02 0.389E-02
CGA: 164    -0.669999818468E+03    0.37692E-03   -0.27827E-03  8424   0.381E-02 0.383E-02
CGA: 165    -0.669999456381E+03    0.36209E-03   -0.26349E-03  8424   0.376E-02 0.379E-02
CGA: 166    -0.669999108928E+03    0.34745E-03   -0.24987E-03  8424   0.372E-02 0.374E-02
CGA: 167    -0.669998775018E+03    0.33391E-03   -0.23678E-03  8424   0.368E-02 0.369E-02
CGA: 168    -0.669998455878E+03    0.31914E-03   -0.22513E-03  8424   0.365E-02 0.365E-02
CGA: 169    -0.669998149617E+03    0.30626E-03   -0.21312E-03  8424   0.363E-02 0.359E-02
CGA: 170    -0.669997858574E+03    0.29104E-03   -0.20316E-03  8424   0.361E-02 0.354E-02
CGA: 171    -0.669997579304E+03    0.27927E-03   -0.19309E-03  8424   0.358E-02 0.349E-02
CGA: 172    -0.669997311611E+03    0.26769E-03   -0.18468E-03  8424   0.353E-02 0.347E-02
CGA: 173    -0.669997052897E+03    0.25871E-03   -0.17580E-03  8424   0.348E-02 0.346E-02
CGA: 174    -0.669996803019E+03    0.24988E-03   -0.16711E-03  8424   0.344E-02 0.344E-02
CGA: 175    -0.669996562427E+03    0.24059E-03   -0.15902E-03  8424   0.341E-02 0.342E-02
CGA: 176    -0.669996330643E+03    0.23178E-03   -0.15131E-03  8424   0.338E-02 0.339E-02
CGA: 177    -0.669996107908E+03    0.22273E-03   -0.14431E-03  8424   0.336E-02 0.337E-02
CGA: 178    -0.669995893645E+03    0.21426E-03   -0.13760E-03  8424   0.333E-02 0.335E-02
CGA: 179    -0.669995687753E+03    0.20589E-03   -0.13137E-03  8424   0.331E-02 0.332E-02
CGA: 180    -0.669995489684E+03    0.19807E-03   -0.12536E-03  8424   0.329E-02 0.330E-02
CGA: 181    -0.669995299333E+03    0.19035E-03   -0.11977E-03  8424   0.327E-02 0.328E-02
CGA: 182    -0.669995116156E+03    0.18318E-03   -0.11436E-03  8424   0.325E-02 0.326E-02
CGA: 183    -0.669994940146E+03    0.17601E-03   -0.10936E-03  8424   0.323E-02 0.324E-02
CGA: 184    -0.669994770659E+03    0.16949E-03   -0.10442E-03  8424   0.322E-02 0.322E-02
CGA: 185    -0.669994607992E+03    0.16267E-03   -0.10000E-03  8424   0.320E-02 0.321E-02
CGA: 186    -0.669994451263E+03    0.15673E-03   -0.95480E-04  8424   0.319E-02 0.319E-02
CGA: 187    -0.669994301340E+03    0.14992E-03   -0.91700E-04  8424   0.317E-02 0.317E-02
CGA: 188    -0.669994156619E+03    0.14472E-03   -0.87458E-04  8424   0.316E-02 0.316E-02
CGA: 189    -0.669994018345E+03    0.13827E-03   -0.84162E-04  8424   0.314E-02 0.314E-02
CGA: 190    -0.669993884738E+03    0.13361E-03   -0.80290E-04  8424   0.313E-02 0.313E-02
CGA: 191    -0.669993756714E+03    0.12802E-03   -0.77135E-04  8424   0.311E-02 0.312E-02
CGA: 192    -0.669993633134E+03    0.12358E-03   -0.73675E-04  8424   0.310E-02 0.311E-02
CGA: 193    -0.669993514428E+03    0.11871E-03   -0.70677E-04  8424   0.309E-02 0.309E-02
CGA: 194    -0.669993399967E+03    0.11446E-03   -0.67605E-04  8424   0.308E-02 0.308E-02
CGA: 195    -0.669993289987E+03    0.10998E-03   -0.64871E-04  8424   0.307E-02 0.307E-02
CGA: 196    -0.669993183943E+03    0.10604E-03   -0.62077E-04  8424   0.306E-02 0.306E-02
CGA: 197    -0.669993082133E+03    0.10181E-03   -0.59627E-04  8424   0.305E-02 0.305E-02
CGA: 198    -0.669992983963E+03    0.98170E-04   -0.57071E-04  8424   0.304E-02 0.304E-02
CGA: 199    -0.669992889843E+03    0.94120E-04   -0.54897E-04  8424   0.303E-02 0.303E-02
CGA: 200    -0.669992799034E+03    0.90809E-04   -0.52532E-04  8424   0.302E-02 0.302E-02
   1 F= -.66999280E+03 E0= -.66999280E+03  d E =-.669993E+03  mag=     2.0000
       N       E                     dE             d eps       ncg     rms          ort
SDA:   1    -0.669986379545E+03    0.65103E-02    0.00000E+00  8424   0.299E-02 0.000E+00
CGA:   2    -0.669986308044E+03    0.71501E-04   -0.52905E-04  8424   0.289E-02 0.294E-02
CGA:   3    -0.669986237793E+03    0.70251E-04   -0.47978E-04  8424   0.283E-02 0.286E-02
CGA:   4    -0.669986169285E+03    0.68508E-04   -0.44175E-04  8424   0.278E-02 0.280E-02
CGA:   5    -0.669986102757E+03    0.66528E-04   -0.41065E-04  8424   0.273E-02 0.275E-02
CGA:   6    -0.669986038319E+03    0.64439E-04   -0.38422E-04  8424   0.270E-02 0.271E-02
CGA:   7    -0.669985976012E+03    0.62307E-04   -0.36114E-04  8424   0.267E-02 0.268E-02
CGA:   8    -0.669985915840E+03    0.60172E-04   -0.34060E-04  8424   0.265E-02 0.266E-02
CGA:   9    -0.669985857782E+03    0.58057E-04   -0.32208E-04  8424   0.263E-02 0.263E-02
CGA:  10    -0.669985801804E+03    0.55979E-04   -0.30520E-04  8424   0.261E-02 0.261E-02
CGA:  11    -0.669985747858E+03    0.53945E-04   -0.28969E-04  8424   0.259E-02 0.259E-02
CGA:  12    -0.669985695894E+03    0.51964E-04   -0.27536E-04  8424   0.257E-02 0.258E-02
CGA:  13    -0.669985645855E+03    0.50039E-04   -0.26204E-04  8424   0.256E-02 0.256E-02
CGA:  14    -0.669985597684E+03    0.48172E-04   -0.24962E-04  8424   0.254E-02 0.255E-02
CGA:  15    -0.669985551320E+03    0.46364E-04   -0.23799E-04  8424   0.253E-02 0.254E-02
CGA:  16    -0.669985506704E+03    0.44616E-04   -0.22708E-04  8424   0.252E-02 0.253E-02
CGA:  17    -0.669985463774E+03    0.42929E-04   -0.21682E-04  8424   0.251E-02 0.251E-02
CGA:  18    -0.669985422473E+03    0.41301E-04   -0.20715E-04  8424   0.250E-02 0.250E-02
CGA:  19    -0.669985382742E+03    0.39731E-04   -0.19801E-04  8424   0.249E-02 0.250E-02
CGA:  20    -0.669985344525E+03    0.38217E-04   -0.18936E-04  8424   0.248E-02 0.249E-02
CGA:  21    -0.669985307766E+03    0.36759E-04   -0.18117E-04  8424   0.248E-02 0.248E-02
CGA:  22    -0.669985272411E+03    0.35355E-04   -0.17340E-04  8424   0.247E-02 0.247E-02
CGA:  23    -0.669985238409E+03    0.34002E-04   -0.16602E-04  8424   0.246E-02 0.246E-02
CGA:  24    -0.669985205709E+03    0.32700E-04   -0.15900E-04  8424   0.246E-02 0.246E-02
CGA:  25    -0.669985174261E+03    0.31448E-04   -0.15232E-04  8424   0.245E-02 0.245E-02
CGA:  26    -0.669985144019E+03    0.30242E-04   -0.14596E-04  8424   0.244E-02 0.245E-02
CGA:  27    -0.669985114937E+03    0.29082E-04   -0.13990E-04  8424   0.244E-02 0.244E-02
CGA:  28    -0.669985086970E+03    0.27967E-04   -0.13412E-04  8424   0.243E-02 0.244E-02
CGA:  29    -0.669985060077E+03    0.26893E-04   -0.12861E-04  8424   0.243E-02 0.243E-02
CGA:  30    -0.669985034215E+03    0.25862E-04   -0.12335E-04  8424   0.242E-02 0.243E-02
CGA:  31    -0.669985009346E+03    0.24869E-04   -0.11832E-04  8424   0.242E-02 0.242E-02
CGA:  32    -0.669984985432E+03    0.23915E-04   -0.11351E-04  8424   0.242E-02 0.242E-02
CGA:  33    -0.669984962435E+03    0.22997E-04   -0.10892E-04  8424   0.241E-02 0.241E-02
CGA:  34    -0.669984940321E+03    0.22114E-04   -0.10452E-04  8424   0.241E-02 0.241E-02
CGA:  35    -0.669984919055E+03    0.21266E-04   -0.10032E-04  8424   0.241E-02 0.241E-02
CGA:  36    -0.669984898606E+03    0.20450E-04   -0.96296E-05  8424   0.240E-02 0.240E-02
CGA:  37    -0.669984878941E+03    0.19665E-04   -0.92444E-05  8424   0.240E-02 0.240E-02
CGA:  38    -0.669984860030E+03    0.18911E-04   -0.88755E-05  8424   0.240E-02 0.240E-02
CGA:  39    -0.669984841844E+03    0.18186E-04   -0.85222E-05  8424   0.239E-02 0.239E-02
CGA:  40    -0.669984824356E+03    0.17488E-04   -0.81837E-05  8424   0.239E-02 0.239E-02
CGA:  41    -0.669984807538E+03    0.16818E-04   -0.78593E-05  8424   0.239E-02 0.239E-02
CGA:  42    -0.669984791365E+03    0.16173E-04   -0.75483E-05  8424   0.239E-02 0.239E-02
CGA:  43    -0.669984775812E+03    0.15553E-04   -0.72502E-05  8424   0.238E-02 0.238E-02
CGA:  44    -0.669984760855E+03    0.14957E-04   -0.69644E-05  8424   0.238E-02 0.238E-02
CGA:  45    -0.669984746470E+03    0.14384E-04   -0.66902E-05  8424   0.238E-02 0.238E-02
CGA:  46    -0.669984732637E+03    0.13833E-04   -0.64273E-05  8424   0.238E-02 0.238E-02
CGA:  47    -0.669984719333E+03    0.13304E-04   -0.61751E-05  8424   0.238E-02 0.238E-02
CGA:  48    -0.669984706539E+03    0.12794E-04   -0.59330E-05  8424   0.237E-02 0.237E-02
CGA:  49    -0.669984694235E+03    0.12304E-04   -0.57008E-05  8424   0.237E-02 0.237E-02
CGA:  50    -0.669984682401E+03    0.11833E-04   -0.54779E-05  8424   0.237E-02 0.237E-02
CGA:  51    -0.669984671021E+03    0.11381E-04   -0.52640E-05  8424   0.237E-02 0.237E-02
CGA:  52    -0.669984660076E+03    0.10945E-04   -0.50587E-05  8424   0.237E-02 0.237E-02
CGA:  53    -0.669984649549E+03    0.10526E-04   -0.48616E-05  8424   0.237E-02 0.237E-02
CGA:  54    -0.669984639425E+03    0.10124E-04   -0.46723E-05  8424   0.236E-02 0.236E-02
CGA:  55    -0.669984629689E+03    0.97365E-05   -0.44906E-05  8424   0.236E-02 0.236E-02
   2 F= -.66998463E+03 E0= -.66998463E+03  d E =0.816935E-02  mag=     2.0000
       N       E                     dE             d eps       ncg     rms          ort
SDA:   1    -0.669974138337E+03    0.10501E-01    0.00000E+00  8424   0.202E-01 0.000E+00
CGA:   2    -0.669974624131E+03   -0.48579E-03   -0.32248E-03  8424   0.174E-01 0.188E-01
CGA:   3    -0.669974995112E+03   -0.37098E-03   -0.25610E-03  8424   0.154E-01 0.165E-01
CGA:   4    -0.669975291298E+03   -0.29619E-03   -0.21264E-03  8424   0.140E-01 0.148E-01
CGA:   5    -0.669975534950E+03   -0.24365E-03   -0.18186E-03  8424   0.129E-01 0.135E-01
CGA:   6    -0.669975739664E+03   -0.20471E-03   -0.15879E-03  8424   0.120E-01 0.125E-01
CGA:   7    -0.669975914339E+03   -0.17468E-03   -0.14075E-03  8424   0.113E-01 0.116E-01
CGA:   8    -0.669976065131E+03   -0.15079E-03   -0.12619E-03  8424   0.106E-01 0.110E-01
CGA:   9    -0.669976196485E+03   -0.13135E-03   -0.11414E-03  8424   0.101E-01 0.104E-01
CGA:  10    -0.669976311727E+03   -0.11524E-03   -0.10398E-03  8424   0.963E-02 0.986E-02
CGA:  11    -0.669976413418E+03   -0.10169E-03   -0.95265E-04  8424   0.922E-02 0.942E-02
CGA:  12    -0.669976503577E+03   -0.90160E-04   -0.87707E-04  8424   0.885E-02 0.903E-02
CGA:  13    -0.669976583830E+03   -0.80252E-04   -0.81080E-04  8424   0.852E-02 0.868E-02
CGA:  14    -0.669976655501E+03   -0.71671E-04   -0.75219E-04  8424   0.823E-02 0.837E-02
CGA:  15    -0.669976719692E+03   -0.64191E-04   -0.69998E-04  8424   0.796E-02 0.808E-02
CGA:  16    -0.669976777324E+03   -0.57633E-04   -0.65319E-04  8424   0.771E-02 0.782E-02
CGA:  17    -0.669976829179E+03   -0.51854E-04   -0.61101E-04  8424   0.749E-02 0.759E-02
CGA:  18    -0.669976875920E+03   -0.46742E-04   -0.57282E-04  8424   0.728E-02 0.737E-02
CGA:  19    -0.669976918122E+03   -0.42202E-04   -0.53809E-04  8424   0.709E-02 0.717E-02
CGA:  20    -0.669976956278E+03   -0.38157E-04   -0.50639E-04  8424   0.691E-02 0.699E-02
CGA:  21    -0.669976990821E+03   -0.34542E-04   -0.47736E-04  8424   0.675E-02 0.682E-02
CGA:  22    -0.669977022125E+03   -0.31305E-04   -0.45070E-04  8424   0.660E-02 0.666E-02
CGA:  23    -0.669977050522E+03   -0.28397E-04   -0.42614E-04  8424   0.646E-02 0.652E-02
CGA:  24    -0.669977076303E+03   -0.25781E-04   -0.40345E-04  8424   0.632E-02 0.638E-02
CGA:  25    -0.669977099724E+03   -0.23421E-04   -0.38244E-04  8424   0.620E-02 0.625E-02
CGA:  26    -0.669977121014E+03   -0.21290E-04   -0.36295E-04  8424   0.609E-02 0.614E-02
CGA:  27    -0.669977140376E+03   -0.19362E-04   -0.34483E-04  8424   0.598E-02 0.602E-02
CGA:  28    -0.669977157991E+03   -0.17615E-04   -0.32795E-04  8424   0.588E-02 0.592E-02
CGA:  29    -0.669977174021E+03   -0.16030E-04   -0.31219E-04  8424   0.578E-02 0.582E-02
CGA:  30    -0.669977188610E+03   -0.14590E-04   -0.29746E-04  8424   0.569E-02 0.573E-02
CGA:  31    -0.669977201890E+03   -0.13280E-04   -0.28366E-04  8424   0.560E-02 0.564E-02
CGA:  32    -0.669977213977E+03   -0.12087E-04   -0.27072E-04  8424   0.552E-02 0.556E-02
CGA:  33    -0.669977224977E+03   -0.11000E-04   -0.25857E-04  8424   0.545E-02 0.548E-02
CGA:  34    -0.669977234985E+03   -0.10008E-04   -0.24714E-04  8424   0.538E-02 0.541E-02
CGA:  35    -0.669977244088E+03   -0.91028E-05   -0.23638E-04  8424   0.531E-02 0.534E-02
CGA:  36    -0.669977252363E+03   -0.82752E-05   -0.22622E-04  8424   0.524E-02 0.527E-02
CGA:  37    -0.669977259882E+03   -0.75189E-05   -0.21664E-04  8424   0.518E-02 0.521E-02
CGA:  38    -0.669977266709E+03   -0.68267E-05   -0.20759E-04  8424   0.512E-02 0.515E-02
CGA:  39    -0.669977272902E+03   -0.61930E-05   -0.19902E-04  8424   0.507E-02 0.509E-02
CGA:  40    -0.669977278515E+03   -0.56129E-05   -0.19090E-04  8424   0.502E-02 0.504E-02
CGA:  41    -0.669977283596E+03   -0.50809E-05   -0.18321E-04  8424   0.497E-02 0.499E-02
CGA:  42    -0.669977288189E+03   -0.45936E-05   -0.17591E-04  8424   0.492E-02 0.494E-02
CGA:  43    -0.669977292336E+03   -0.41466E-05   -0.16898E-04  8424   0.487E-02 0.489E-02
CGA:  44    -0.669977296073E+03   -0.37367E-05   -0.16239E-04  8424   0.483E-02 0.485E-02
CGA:  45    -0.669977299433E+03   -0.33605E-05   -0.15612E-04  8424   0.479E-02 0.480E-02
CGA:  46    -0.669977302449E+03   -0.30156E-05   -0.15016E-04  8424   0.475E-02 0.476E-02
CGA:  47    -0.669977305148E+03   -0.26988E-05   -0.14447E-04  8424   0.471E-02 0.472E-02
CGA:  48    -0.669977307556E+03   -0.24083E-05   -0.13905E-04  8424   0.467E-02 0.469E-02
CGA:  49    -0.669977309697E+03   -0.21414E-05   -0.13388E-04  8424   0.464E-02 0.465E-02
CGA:  50    -0.669977311594E+03   -0.18969E-05   -0.12894E-04  8424   0.460E-02 0.462E-02
CGA:  51    -0.669977313267E+03   -0.16726E-05   -0.12423E-04  8424   0.457E-02 0.458E-02
CGA:  52    -0.669977314734E+03   -0.14668E-05   -0.11972E-04  8424   0.454E-02 0.455E-02
CGA:  53    -0.669977316011E+03   -0.12778E-05   -0.11541E-04  8424   0.451E-02 0.452E-02
CGA:  54    -0.669977317116E+03   -0.11049E-05   -0.11129E-04  8424   0.448E-02 0.449E-02
CGA:  55    -0.669977318063E+03   -0.94650E-06   -0.10734E-04  8424   0.446E-02 0.447E-02
CGA:  56    -0.669977318864E+03   -0.80121E-06   -0.10356E-04  8424   0.443E-02 0.444E-02
   3 F= -.66997732E+03 E0= -.66997732E+03  d E =0.731082E-02  mag=     2.0000
       N       E                     dE             d eps       ncg     rms          ort
SDA:   1    -0.666134610303E+03    0.38427E+01    0.00000E+00  8424   0.112E+02 0.000E+00
CGA:   2    -0.666716889828E+03   -0.58228E+00   -0.19339E+01  8424   0.846E+01 0.978E+01
CGA:   3    -0.667487325874E+03   -0.77044E+00   -0.15568E+01  8424   0.558E+01 0.679E+01
CGA:   4    -0.668368753511E+03   -0.88143E+00   -0.10978E+01  8424   0.305E+01 0.399E+01
CGA:   5    -0.669186313680E+03   -0.81756E+00   -0.59761E+00  8424   0.121E+01 0.182E+01
CGA:   6    -0.669696703570E+03   -0.51039E+00   -0.16536E+00  8424   0.222E+00 0.465E+00
CGA:   7    -0.669809752314E+03   -0.11305E+00   -0.10370E+00  8424   0.322E-01 0.373E-01
CGA:   8    -0.669815560462E+03   -0.58081E-02   -0.53064E-02  8424   0.114E-01 0.118E-01
CGA:   9    -0.669817214591E+03   -0.16541E-02   -0.16209E-02  8424   0.680E-02 0.109E-01
CGA:  10    -0.669817562156E+03   -0.34757E-03   -0.50003E-03  8424   0.499E-02 0.559E-02
CGA:  11    -0.669817693621E+03   -0.13146E-03   -0.30718E-03  8424   0.440E-02 0.462E-02
CGA:  12    -0.669817755327E+03   -0.61706E-04   -0.24026E-03  8424   0.401E-02 0.416E-02
CGA:  13    -0.669817777935E+03   -0.22609E-04   -0.19882E-03  8424   0.373E-02 0.383E-02
CGA:  14    -0.669817775391E+03    0.25443E-05   -0.16905E-03  8424   0.350E-02 0.359E-02
CGA:  15    -0.669817755762E+03    0.19629E-04   -0.14624E-03  8424   0.331E-02 0.338E-02
CGA:  16    -0.669817724277E+03    0.31485E-04   -0.12812E-03  8424   0.315E-02 0.321E-02
CGA:  17    -0.669817684584E+03    0.39694E-04   -0.11345E-03  8424   0.302E-02 0.307E-02
CGA:  18    -0.669817639235E+03    0.45349E-04   -0.10133E-03  8424   0.290E-02 0.295E-02
CGA:  19    -0.669817590044E+03    0.49190E-04   -0.91145E-04  8424   0.280E-02 0.284E-02
CGA:  20    -0.669817538373E+03    0.51672E-04   -0.82503E-04  8424   0.271E-02 0.274E-02
CGA:  21    -0.669817485219E+03    0.53154E-04   -0.75081E-04  8424   0.263E-02 0.266E-02
CGA:  22    -0.669817431352E+03    0.53867E-04   -0.68682E-04  8424   0.256E-02 0.259E-02
CGA:  23    -0.669817377338E+03    0.54014E-04   -0.63106E-04  8424   0.249E-02 0.252E-02
CGA:  24    -0.669817323604E+03    0.53734E-04   -0.58211E-04  8424   0.244E-02 0.246E-02
CGA:  25    -0.669817270471E+03    0.53134E-04   -0.53888E-04  8424   0.239E-02 0.241E-02
CGA:  26    -0.669817218177E+03    0.52294E-04   -0.50045E-04  8424   0.234E-02 0.236E-02
CGA:  27    -0.669817166900E+03    0.51277E-04   -0.46610E-04  8424   0.230E-02 0.232E-02
CGA:  28    -0.669817116769E+03    0.50131E-04   -0.43524E-04  8424   0.226E-02 0.228E-02
CGA:  29    -0.669817067875E+03    0.48893E-04   -0.40740E-04  8424   0.223E-02 0.224E-02
CGA:  30    -0.669817020283E+03    0.47592E-04   -0.38216E-04  8424   0.220E-02 0.221E-02
CGA:  31    -0.669816974032E+03    0.46251E-04   -0.35919E-04  8424   0.217E-02 0.218E-02
CGA:  32    -0.669816929143E+03    0.44888E-04   -0.33819E-04  8424   0.214E-02 0.215E-02
CGA:  33    -0.669816885627E+03    0.43517E-04   -0.31894E-04  8424   0.212E-02 0.213E-02
CGA:  34    -0.669816843480E+03    0.42147E-04   -0.30123E-04  8424   0.209E-02 0.210E-02
CGA:  35    -0.669816802692E+03    0.40788E-04   -0.28488E-04  8424   0.207E-02 0.208E-02
CGA:  36    -0.669816763246E+03    0.39446E-04   -0.26976E-04  8424   0.205E-02 0.206E-02
CGA:  37    -0.669816725120E+03    0.38126E-04   -0.25572E-04  8424   0.204E-02 0.205E-02
CGA:  38    -0.669816688288E+03    0.36832E-04   -0.24267E-04  8424   0.202E-02 0.203E-02
CGA:  39    -0.669816652721E+03    0.35567E-04   -0.23050E-04  8424   0.201E-02 0.201E-02
CGA:  40    -0.669816618389E+03    0.34332E-04   -0.21913E-04  8424   0.199E-02 0.200E-02
CGA:  41    -0.669816585260E+03    0.33129E-04   -0.20849E-04  8424   0.198E-02 0.198E-02
CGA:  42    -0.669816553300E+03    0.31960E-04   -0.19852E-04  8424   0.197E-02 0.197E-02
CGA:  43    -0.669816522475E+03    0.30824E-04   -0.18915E-04  8424   0.196E-02 0.196E-02
CGA:  44    -0.669816492753E+03    0.29722E-04   -0.18034E-04  8424   0.194E-02 0.195E-02
CGA:  45    -0.669816464098E+03    0.28655E-04   -0.17204E-04  8424   0.193E-02 0.194E-02
CGA:  46    -0.669816436478E+03    0.27620E-04   -0.16421E-04  8424   0.193E-02 0.193E-02
CGA:  47    -0.669816409859E+03    0.26619E-04   -0.15682E-04  8424   0.192E-02 0.192E-02
CGA:  48    -0.669816384208E+03    0.25651E-04   -0.14983E-04  8424   0.191E-02 0.191E-02
CGA:  49    -0.669816359494E+03    0.24715E-04   -0.14322E-04  8424   0.190E-02 0.190E-02
CGA:  50    -0.669816335683E+03    0.23810E-04   -0.13695E-04  8424   0.189E-02 0.190E-02
CGA:  51    -0.669816312746E+03    0.22937E-04   -0.13101E-04  8424   0.189E-02 0.189E-02
CGA:  52    -0.669816290653E+03    0.22093E-04   -0.12537E-04  8424   0.188E-02 0.188E-02
CGA:  53    -0.669816269373E+03    0.21280E-04   -0.12002E-04  8424   0.187E-02 0.188E-02
CGA:  54    -0.669816248879E+03    0.20494E-04   -0.11492E-04  8424   0.187E-02 0.187E-02
CGA:  55    -0.669816229142E+03    0.19737E-04   -0.11008E-04  8424   0.186E-02 0.186E-02
CGA:  56    -0.669816210136E+03    0.19006E-04   -0.10547E-04  8424   0.186E-02 0.186E-02
CGA:  57    -0.669816191834E+03    0.18302E-04   -0.10108E-04  8424   0.185E-02 0.185E-02
CGA:  58    -0.669816174211E+03    0.17623E-04   -0.96892E-05  8424   0.185E-02 0.185E-02
CGA:  59    -0.669816157243E+03    0.16968E-04   -0.92900E-05  8424   0.184E-02 0.185E-02
CGA:  60    -0.669816140905E+03    0.16338E-04   -0.89091E-05  8424   0.184E-02 0.184E-02
CGA:  61    -0.669816125175E+03    0.15730E-04   -0.85454E-05  8424   0.184E-02 0.184E-02
CGA:  62    -0.669816110031E+03    0.15144E-04   -0.81982E-05  8424   0.183E-02 0.183E-02
CGA:  63    -0.669816095450E+03    0.14580E-04   -0.78664E-05  8424   0.183E-02 0.183E-02
CGA:  64    -0.669816081413E+03    0.14037E-04   -0.75493E-05  8424   0.183E-02 0.183E-02
CGA:  65    -0.669816067900E+03    0.13514E-04   -0.72461E-05  8424   0.182E-02 0.182E-02
CGA:  66    -0.669816054890E+03    0.13010E-04   -0.69562E-05  8424   0.182E-02 0.182E-02
CGA:  67    -0.669816042366E+03    0.12524E-04   -0.66789E-05  8424   0.182E-02 0.182E-02
CGA:  68    -0.669816030309E+03    0.12057E-04   -0.64177E-05  8424   0.182E-02 0.182E-02
CGA:  69    -0.669816018703E+03    0.11606E-04   -0.61730E-05  8424   0.181E-02 0.181E-02
CGA:  70    -0.669816007530E+03    0.11173E-04   -0.59384E-05  8424   0.181E-02 0.181E-02
CGA:  71    -0.669815996774E+03    0.10756E-04   -0.57132E-05  8424   0.181E-02 0.181E-02
CGA:  72    -0.669815986419E+03    0.10354E-04   -0.54969E-05  8424   0.181E-02 0.181E-02
CGA:  73    -0.669815976451E+03    0.99679E-05   -0.52891E-05  8424   0.181E-02 0.181E-02
   4 F= -.66981598E+03 E0= -.66981598E+03  d E =0.161342E+00  mag=     2.0000
       N       E                     dE             d eps       ncg     rms          ort
SDA:   1    -0.668115499989E+03    0.17005E+01    0.00000E+00  8424   0.573E+01 0.000E+00
CGA:   2    -0.668766871083E+03   -0.65137E+00   -0.63836E+00  8424   0.278E+01 0.380E+01
CGA:   3    -0.669323390280E+03   -0.55652E+00   -0.43041E+00  8424   0.121E+01 0.169E+01
CGA:   4    -0.669734871013E+03   -0.41148E+00   -0.20450E+00  8424   0.359E+00 0.603E+00
CGA:   5    -0.669912026790E+03   -0.17716E+00   -0.16670E+00  8424   0.507E-01 0.422E-01
CGA:   6    -0.669923880135E+03   -0.11853E-01   -0.10242E-01  8424   0.159E-01 0.154E-01
CGA:   7    -0.669926588221E+03   -0.27081E-02   -0.23574E-02  8424   0.551E-02 0.109E-01
CGA:   8    -0.669926894765E+03   -0.30654E-03   -0.37546E-03  8424   0.404E-02 0.463E-02
CGA:   9    -0.669927011466E+03   -0.11670E-03   -0.21949E-03  8424   0.341E-02 0.368E-02
CGA:  10    -0.669927060946E+03   -0.49480E-04   -0.15892E-03  8424   0.303E-02 0.319E-02
CGA:  11    -0.669927076428E+03   -0.15482E-04   -0.12449E-03  8424   0.275E-02 0.287E-02
CGA:  12    -0.669927072294E+03    0.41345E-05   -0.10185E-03  8424   0.255E-02 0.263E-02
CGA:  13    -0.669927056063E+03    0.16231E-04   -0.85714E-04  8424   0.239E-02 0.245E-02
CGA:  14    -0.669927032103E+03    0.23960E-04   -0.73570E-04  8424   0.225E-02 0.230E-02
CGA:  15    -0.669927003171E+03    0.28932E-04   -0.64110E-04  8424   0.214E-02 0.218E-02
CGA:  16    -0.669926971067E+03    0.32105E-04   -0.56525E-04  8424   0.205E-02 0.208E-02
CGA:  17    -0.669926937018E+03    0.34049E-04   -0.50321E-04  8424   0.197E-02 0.200E-02
CGA:  18    -0.669926901876E+03    0.35142E-04   -0.45148E-04  8424   0.190E-02 0.192E-02
CGA:  19    -0.669926866243E+03    0.35632E-04   -0.40774E-04  8424   0.184E-02 0.186E-02
CGA:  20    -0.669926830555E+03    0.35688E-04   -0.37032E-04  8424   0.178E-02 0.180E-02
CGA:  21    -0.669926795124E+03    0.35431E-04   -0.33799E-04  8424   0.173E-02 0.175E-02
CGA:  22    -0.669926760179E+03    0.34946E-04   -0.30981E-04  8424   0.169E-02 0.171E-02
CGA:  23    -0.669926725882E+03    0.34297E-04   -0.28507E-04  8424   0.165E-02 0.166E-02
CGA:  24    -0.669926692351E+03    0.33531E-04   -0.26319E-04  8424   0.161E-02 0.163E-02
CGA:  25    -0.669926659668E+03    0.32683E-04   -0.24374E-04  8424   0.158E-02 0.159E-02
CGA:  26    -0.669926627887E+03    0.31781E-04   -0.22634E-04  8424   0.155E-02 0.156E-02
CGA:  27    -0.669926597043E+03    0.30844E-04   -0.21071E-04  8424   0.153E-02 0.154E-02
CGA:  28    -0.669926567156E+03    0.29887E-04   -0.19660E-04  8424   0.150E-02 0.151E-02
CGA:  29    -0.669926538234E+03    0.28923E-04   -0.18381E-04  8424   0.148E-02 0.149E-02
CGA:  30    -0.669926510274E+03    0.27960E-04   -0.17217E-04  8424   0.146E-02 0.147E-02
CGA:  31    -0.669926483269E+03    0.27005E-04   -0.16155E-04  8424   0.144E-02 0.145E-02
CGA:  32    -0.669926457206E+03    0.26063E-04   -0.15182E-04  8424   0.142E-02 0.143E-02
CGA:  33    -0.669926432067E+03    0.25139E-04   -0.14289E-04  8424   0.141E-02 0.141E-02
CGA:  34    -0.669926407833E+03    0.24234E-04   -0.13466E-04  8424   0.139E-02 0.140E-02
CGA:  35    -0.669926384480E+03    0.23352E-04   -0.12705E-04  8424   0.138E-02 0.138E-02
CGA:  36    -0.669926361987E+03    0.22494E-04   -0.12002E-04  8424   0.136E-02 0.137E-02
CGA:  37    -0.669926340327E+03    0.21659E-04   -0.11349E-04  8424   0.135E-02 0.136E-02
CGA:  38    -0.669926319477E+03    0.20850E-04   -0.10742E-04  8424   0.134E-02 0.134E-02
CGA:  39    -0.669926299410E+03    0.20067E-04   -0.10176E-04  8424   0.133E-02 0.133E-02
CGA:  40    -0.669926280101E+03    0.19309E-04   -0.96487E-05  8424   0.132E-02 0.132E-02
CGA:  41    -0.669926261525E+03    0.18576E-04   -0.91555E-05  8424   0.131E-02 0.131E-02
CGA:  42    -0.669926243657E+03    0.17868E-04   -0.86937E-05  8424   0.130E-02 0.131E-02
CGA:  43    -0.669926226472E+03    0.17185E-04   -0.82608E-05  8424   0.129E-02 0.130E-02
CGA:  44    -0.669926209946E+03    0.16526E-04   -0.78543E-05  8424   0.129E-02 0.129E-02
CGA:  45    -0.669926194055E+03    0.15891E-04   -0.74722E-05  8424   0.128E-02 0.128E-02
CGA:  46    -0.669926178776E+03    0.15279E-04   -0.71125E-05  8424   0.127E-02 0.127E-02
CGA:  47    -0.669926164088E+03    0.14689E-04   -0.67736E-05  8424   0.127E-02 0.127E-02
CGA:  48    -0.669926149966E+03    0.14121E-04   -0.64539E-05  8424   0.126E-02 0.126E-02
CGA:  49    -0.669926136392E+03    0.13574E-04   -0.61520E-05  8424   0.125E-02 0.126E-02
CGA:  50    -0.669926123344E+03    0.13048E-04   -0.58667E-05  8424   0.125E-02 0.125E-02
CGA:  51    -0.669926110803E+03    0.12541E-04   -0.55969E-05  8424   0.124E-02 0.125E-02
CGA:  52    -0.669926098749E+03    0.12054E-04   -0.53414E-05  8424   0.124E-02 0.124E-02
CGA:  53    -0.669926087164E+03    0.11585E-04   -0.50993E-05  8424   0.123E-02 0.124E-02
CGA:  54    -0.669926076030E+03    0.11134E-04   -0.48698E-05  8424   0.123E-02 0.123E-02
CGA:  55    -0.669926065329E+03    0.10701E-04   -0.46521E-05  8424   0.123E-02 0.123E-02
CGA:  56    -0.669926055045E+03    0.10284E-04   -0.44453E-05  8424   0.122E-02 0.122E-02
CGA:  57    -0.669926045163E+03    0.98826E-05   -0.42490E-05  8424   0.122E-02 0.122E-02
   5 F= -.66992605E+03 E0= -.66992605E+03  d E =-.110069E+00  mag=     2.0000
       N       E                     dE             d eps       ncg     rms          ort
SDA:   1    -0.661669690968E+03    0.82564E+01    0.00000E+00  8424   0.240E+02 0.000E+00
CGA:   2    -0.665138215278E+03   -0.34685E+01   -0.25749E+01  8424   0.105E+02 0.143E+02
CGA:   3    -0.667828190235E+03   -0.26900E+01   -0.17089E+01  8424   0.390E+01 0.584E+01
CGA:   4    -0.669413155795E+03   -0.15850E+01   -0.45027E+00  8424   0.919E+00 0.136E+01
CGA:   5    -0.669703321951E+03   -0.29017E+00   -0.28879E+00  8424   0.664E+00 0.907E-02
CGA:   6    -0.669801125632E+03   -0.97804E-01   -0.97303E-01  8424   0.522E-01 0.929E-02
CGA:   7    -0.669810626161E+03   -0.95005E-02   -0.90047E-02  8424   0.237E-01 0.656E-02
CGA:   8    -0.669815919531E+03   -0.52934E-02   -0.47044E-02  8424   0.803E-02 0.756E-02
CGA:   9    -0.669817299229E+03   -0.13797E-02   -0.12879E-02  8424   0.316E-02 0.475E-02
CGA:  10    -0.669817575020E+03   -0.27579E-03   -0.29743E-03  8424   0.192E-02 0.235E-02
CGA:  11    -0.669817656629E+03   -0.81609E-04   -0.13585E-03  8424   0.154E-02 0.170E-02
CGA:  12    -0.669817687795E+03   -0.31166E-04   -0.91054E-04  8424   0.133E-02 0.142E-02
CGA:  13    -0.669817696310E+03   -0.85144E-05   -0.68338E-04  8424   0.119E-02 0.125E-02
CGA:  14    -0.669817692675E+03    0.36342E-05   -0.54334E-04  8424   0.109E-02 0.113E-02
CGA:  15    -0.669817681953E+03    0.10723E-04   -0.44763E-04  8424   0.101E-02 0.104E-02
CGA:  16    -0.669817666928E+03    0.15025E-04   -0.37789E-04  8424   0.951E-03 0.974E-03
CGA:  17    -0.669817649262E+03    0.17665E-04   -0.32469E-04  8424   0.899E-03 0.918E-03
CGA:  18    -0.669817630008E+03    0.19255E-04   -0.28272E-04  8424   0.855E-03 0.871E-03
CGA:  19    -0.669817609857E+03    0.20151E-04   -0.24877E-04  8424   0.817E-03 0.831E-03
CGA:  20    -0.669817589283E+03    0.20574E-04   -0.22076E-04  8424   0.784E-03 0.796E-03
CGA:  21    -0.669817568615E+03    0.20668E-04   -0.19731E-04  8424   0.755E-03 0.766E-03
CGA:  22    -0.669817548083E+03    0.20532E-04   -0.17744E-04  8424   0.730E-03 0.739E-03
CGA:  23    -0.669817527851E+03    0.20232E-04   -0.16044E-04  8424   0.707E-03 0.716E-03
CGA:  24    -0.669817508033E+03    0.19818E-04   -0.14578E-04  8424   0.687E-03 0.695E-03
CGA:  25    -0.669817488706E+03    0.19326E-04   -0.13302E-04  8424   0.669E-03 0.676E-03
CGA:  26    -0.669817469925E+03    0.18781E-04   -0.12185E-04  8424   0.652E-03 0.659E-03
CGA:  27    -0.669817451722E+03    0.18203E-04   -0.11201E-04  8424   0.637E-03 0.643E-03
CGA:  28    -0.669817434118E+03    0.17605E-04   -0.10329E-04  8424   0.624E-03 0.629E-03
CGA:  29    -0.669817417120E+03    0.16998E-04   -0.95519E-05  8424   0.611E-03 0.616E-03
CGA:  30    -0.669817400731E+03    0.16389E-04   -0.88570E-05  8424   0.600E-03 0.605E-03
CGA:  31    -0.669817384946E+03    0.15785E-04   -0.82337E-05  8424   0.590E-03 0.594E-03
CGA:  32    -0.669817369756E+03    0.15190E-04   -0.76738E-05  8424   0.581E-03 0.584E-03
CGA:  33    -0.669817355149E+03    0.14607E-04   -0.71723E-05  8424   0.574E-03 0.576E-03
CGA:  34    -0.669817341110E+03    0.14039E-04   -0.67390E-05  8424   0.568E-03 0.569E-03
CGA:  35    -0.669817327621E+03    0.13489E-04   -0.63591E-05  8424   0.562E-03 0.563E-03
CGA:  36    -0.669817314663E+03    0.12958E-04   -0.60118E-05  8424   0.557E-03 0.558E-03
CGA:  37    -0.669817302218E+03    0.12445E-04   -0.56879E-05  8424   0.552E-03 0.553E-03
CGA:  38    -0.669817290268E+03    0.11950E-04   -0.53842E-05  8424   0.548E-03 0.548E-03
CGA:  39    -0.669817278795E+03    0.11473E-04   -0.50981E-05  8424   0.543E-03 0.544E-03
CGA:  40    -0.669817267782E+03    0.11012E-04   -0.48274E-05  8424   0.538E-03 0.540E-03
CGA:  41    -0.669817257213E+03    0.10569E-04   -0.45708E-05  8424   0.534E-03 0.535E-03
CGA:  42    -0.669817247071E+03    0.10142E-04   -0.43275E-05  8424   0.529E-03 0.531E-03
CGA:  43    -0.669817237341E+03    0.97304E-05   -0.40968E-05  8424   0.525E-03 0.526E-03
   6 F= -.66981724E+03 E0= -.66981724E+03  d E =0.108808E+00  mag=     2.0000
       N       E                     dE             d eps       ncg     rms          ort
SDA:   1    -0.667878040584E+03    0.19392E+01    0.00000E+00  8424   0.651E+01 0.000E+00
CGA:   2    -0.669182477484E+03   -0.13044E+01   -0.61566E-01  8424   0.272E+01-0.109E+00
CGA:   3    -0.669738633286E+03   -0.55616E+00   -0.55592E+00  8424   0.844E+00 0.244E-03
CGA:   4    -0.669878458050E+03   -0.13982E+00   -0.13912E+00  8424   0.210E+00 0.695E-02
CGA:   5    -0.669914438202E+03   -0.35980E-01   -0.35069E-01  8424   0.411E-01 0.948E-02
CGA:   6    -0.669922548646E+03   -0.81104E-02   -0.74489E-02  8424   0.850E-02 0.669E-02
CGA:   7    -0.669924047012E+03   -0.14984E-02   -0.12701E-02  8424   0.313E-02 0.466E-02
CGA:   8    -0.669924318738E+03   -0.27173E-03   -0.26534E-03  8424   0.199E-02 0.242E-02
CGA:   9    -0.669924410493E+03   -0.91755E-04   -0.12545E-03  8424   0.159E-02 0.177E-02
CGA:  10    -0.669924450510E+03   -0.40016E-04   -0.82800E-04  8424   0.137E-02 0.146E-02
CGA:  11    -0.669924466856E+03   -0.16347E-04   -0.61156E-04  8424   0.122E-02 0.128E-02
CGA:  12    -0.669924470448E+03   -0.35922E-05   -0.48000E-04  8424   0.111E-02 0.115E-02
CGA:  13    -0.669924466556E+03    0.38928E-05   -0.39153E-04  8424   0.102E-02 0.106E-02
CGA:  14    -0.669924458057E+03    0.84991E-05   -0.32794E-04  8424   0.957E-03 0.983E-03
CGA:  15    -0.669924446657E+03    0.11400E-04   -0.28002E-04  8424   0.902E-03 0.923E-03
CGA:  16    -0.669924433434E+03    0.13223E-04   -0.24270E-04  8424   0.856E-03 0.874E-03
CGA:  17    -0.669924419091E+03    0.14343E-04   -0.21280E-04  8424   0.817E-03 0.832E-03
CGA:  18    -0.669924404107E+03    0.14984E-04   -0.18838E-04  8424   0.784E-03 0.796E-03
CGA:  19    -0.669924388812E+03    0.15295E-04   -0.16807E-04  8424   0.754E-03 0.765E-03
CGA:  20    -0.669924373437E+03    0.15375E-04   -0.15093E-04  8424   0.728E-03 0.738E-03
CGA:  21    -0.669924358147E+03    0.15291E-04   -0.13629E-04  8424   0.705E-03 0.714E-03
CGA:  22    -0.669924343057E+03    0.15089E-04   -0.12367E-04  8424   0.684E-03 0.692E-03
CGA:  23    -0.669924328253E+03    0.14804E-04   -0.11268E-04  8424   0.666E-03 0.673E-03
CGA:  24    -0.669924313792E+03    0.14461E-04   -0.10306E-04  8424   0.649E-03 0.655E-03
CGA:  25    -0.669924299715E+03    0.14077E-04   -0.94569E-05  8424   0.633E-03 0.639E-03
CGA:  26    -0.669924286048E+03    0.13666E-04   -0.87038E-05  8424   0.619E-03 0.625E-03
CGA:  27    -0.669924272809E+03    0.13239E-04   -0.80317E-05  8424   0.606E-03 0.611E-03
CGA:  28    -0.669924260007E+03    0.12802E-04   -0.74299E-05  8424   0.595E-03 0.599E-03
CGA:  29    -0.669924247645E+03    0.12362E-04   -0.68886E-05  8424   0.584E-03 0.588E-03
CGA:  30    -0.669924235722E+03    0.11923E-04   -0.64003E-05  8424   0.574E-03 0.577E-03
CGA:  31    -0.669924224233E+03    0.11489E-04   -0.59577E-05  8424   0.564E-03 0.568E-03
CGA:  32    -0.669924213171E+03    0.11061E-04   -0.55555E-05  8424   0.556E-03 0.559E-03
CGA:  33    -0.669924202529E+03    0.10642E-04   -0.51889E-05  8424   0.548E-03 0.551E-03
CGA:  34    -0.669924192296E+03    0.10234E-04   -0.48537E-05  8424   0.540E-03 0.543E-03
CGA:  35    -0.669924182460E+03    0.98359E-05   -0.45465E-05  8424   0.533E-03 0.536E-03
   7 F= -.66992418E+03 E0= -.66992418E+03  d E =-.106945E+00  mag=     2.0000
       N       E                     dE             d eps       ncg     rms          ort
SDA:   1    -0.669731782537E+03    0.19241E+00    0.00000E+00  8424   0.595E+00 0.000E+00
CGA:   2    -0.669860579449E+03   -0.12880E+00   -0.79474E-02  8424   0.246E+00 0.149E-01
CGA:   3    -0.669912438259E+03   -0.51859E-01   -0.50717E-01  8424   0.723E-01 0.798E-02
CGA:   4    -0.669924760160E+03   -0.12322E-01   -0.11700E-01  8424   0.172E-01 0.689E-02
CGA:   5    -0.669927561236E+03   -0.28011E-02   -0.24536E-02  8424   0.369E-02 0.588E-02
CGA:   6    -0.669927961779E+03   -0.40054E-03   -0.38751E-03  8424   0.185E-02 0.315E-02
CGA:   7    -0.669928026150E+03   -0.64371E-04   -0.97912E-04  8424   0.136E-02 0.158E-02
CGA:   8    -0.669928043121E+03   -0.16971E-04   -0.56450E-04  8424   0.114E-02 0.124E-02
CGA:   9    -0.669928043675E+03   -0.55357E-06   -0.39655E-04  8424   0.999E-03 0.106E-02
CGA:  10    -0.669928036700E+03    0.69753E-05   -0.30388E-04  8424   0.905E-03 0.949E-03
CGA:  11    -0.669928025879E+03    0.10820E-04   -0.24503E-04  8424   0.835E-03 0.867E-03
CGA:  12    -0.669928013021E+03    0.12859E-04   -0.20427E-04  8424   0.781E-03 0.806E-03
CGA:  13    -0.669927999108E+03    0.13913E-04   -0.17440E-04  8424   0.738E-03 0.757E-03
CGA:  14    -0.669927984714E+03    0.14394E-04   -0.15153E-04  8424   0.703E-03 0.718E-03
CGA:  15    -0.669927970186E+03    0.14527E-04   -0.13346E-04  8424   0.674E-03 0.686E-03
CGA:  16    -0.669927955744E+03    0.14442E-04   -0.11880E-04  8424   0.649E-03 0.659E-03
CGA:  17    -0.669927941529E+03    0.14215E-04   -0.10672E-04  8424   0.628E-03 0.636E-03
CGA:  18    -0.669927927631E+03    0.13898E-04   -0.96600E-05  8424   0.609E-03 0.616E-03
CGA:  19    -0.669927914105E+03    0.13525E-04   -0.87959E-05  8424   0.593E-03 0.599E-03
CGA:  20    -0.669927900986E+03    0.13119E-04   -0.80481E-05  8424   0.578E-03 0.584E-03
CGA:  21    -0.669927888293E+03    0.12693E-04   -0.73937E-05  8424   0.565E-03 0.570E-03
CGA:  22    -0.669927876034E+03    0.12259E-04   -0.68157E-05  8424   0.553E-03 0.558E-03
CGA:  23    -0.669927864213E+03    0.11821E-04   -0.63017E-05  8424   0.543E-03 0.546E-03
CGA:  24    -0.669927852827E+03    0.11387E-04   -0.58413E-05  8424   0.533E-03 0.536E-03
CGA:  25    -0.669927841869E+03    0.10958E-04   -0.54269E-05  8424   0.524E-03 0.527E-03
CGA:  26    -0.669927831332E+03    0.10537E-04   -0.50522E-05  8424   0.515E-03 0.518E-03
CGA:  27    -0.669927821206E+03    0.10126E-04   -0.47119E-05  8424   0.507E-03 0.510E-03
CGA:  28    -0.669927811479E+03    0.97265E-05   -0.44018E-05  8424   0.500E-03 0.503E-03
   8 F= -.66992781E+03 E0= -.66992781E+03  d E =-.362902E-02  mag=     2.0000
       N       E                     dE             d eps       ncg     rms          ort
SDA:   1    -0.669264469009E+03    0.66335E+00    0.00000E+00  8424   0.177E+01 0.000E+00
CGA:   2    -0.669710842789E+03   -0.44637E+00   -0.52898E-01  8424   0.652E+00 0.254E+00
CGA:   3    -0.669873308922E+03   -0.16247E+00   -0.16186E+00  8424   0.215E+00 0.377E-02
CGA:   4    -0.669908606893E+03   -0.35298E-01   -0.34604E-01  8424   0.510E-01 0.768E-02
CGA:   5    -0.669917160552E+03   -0.85537E-02   -0.79234E-02  8424   0.952E-02 0.830E-02
CGA:   6    -0.669918685636E+03   -0.15251E-02   -0.13151E-02  8424   0.320E-02 0.515E-02
CGA:   7    -0.669918949168E+03   -0.26353E-03   -0.26055E-03  8424   0.194E-02 0.240E-02
CGA:   8    -0.669919025109E+03   -0.75942E-04   -0.11325E-03  8424   0.154E-02 0.172E-02
CGA:   9    -0.669919053953E+03   -0.28844E-04   -0.73293E-04  8424   0.131E-02 0.141E-02
CGA:  10    -0.669919062021E+03   -0.80683E-05   -0.53320E-04  8424   0.116E-02 0.123E-02
CGA:  11    -0.669919059318E+03    0.27032E-05   -0.41349E-04  8424   0.105E-02 0.110E-02
CGA:  12    -0.669919050576E+03    0.87421E-05   -0.33412E-04  8424   0.969E-03 0.101E-02
CGA:  13    -0.669919038322E+03    0.12254E-04   -0.27788E-04  8424   0.904E-03 0.933E-03
CGA:  14    -0.669919024016E+03    0.14306E-04   -0.23606E-04  8424   0.852E-03 0.875E-03
CGA:  15    -0.669919008552E+03    0.15465E-04   -0.20385E-04  8424   0.808E-03 0.827E-03
CGA:  16    -0.669918992499E+03    0.16052E-04   -0.17838E-04  8424   0.773E-03 0.787E-03
CGA:  17    -0.669918976255E+03    0.16245E-04   -0.15825E-04  8424   0.743E-03 0.755E-03
CGA:  18    -0.669918960050E+03    0.16204E-04   -0.14156E-04  8424   0.716E-03 0.727E-03
CGA:  19    -0.669918944041E+03    0.16009E-04   -0.12748E-04  8424   0.693E-03 0.702E-03
CGA:  20    -0.669918928334E+03    0.15707E-04   -0.11545E-04  8424   0.673E-03 0.681E-03
CGA:  21    -0.669918913000E+03    0.15334E-04   -0.10507E-04  8424   0.654E-03 0.661E-03
CGA:  22    -0.669918898086E+03    0.14913E-04   -0.96042E-05  8424   0.638E-03 0.644E-03
CGA:  23    -0.669918883624E+03    0.14462E-04   -0.88123E-05  8424   0.623E-03 0.629E-03
CGA:  24    -0.669918869631E+03    0.13993E-04   -0.81124E-05  8424   0.609E-03 0.615E-03
CGA:  25    -0.669918856115E+03    0.13516E-04   -0.74907E-05  8424   0.597E-03 0.602E-03
CGA:  26    -0.669918843079E+03    0.13036E-04   -0.69353E-05  8424   0.586E-03 0.590E-03
CGA:  27    -0.669918830519E+03    0.12560E-04   -0.64366E-05  8424   0.576E-03 0.580E-03
CGA:  28    -0.669918818430E+03    0.12090E-04   -0.59868E-05  8424   0.566E-03 0.570E-03
CGA:  29    -0.669918806801E+03    0.11628E-04   -0.55795E-05  8424   0.558E-03 0.561E-03
CGA:  30    -0.669918795623E+03    0.11178E-04   -0.52095E-05  8424   0.550E-03 0.553E-03
CGA:  31    -0.669918784883E+03    0.10740E-04   -0.48721E-05  8424   0.542E-03 0.545E-03
CGA:  32    -0.669918774568E+03    0.10315E-04   -0.45636E-05  8424   0.535E-03 0.538E-03
CGA:  33    -0.669918764664E+03    0.99034E-05   -0.42806E-05  8424   0.529E-03 0.531E-03
   9 F= -.66991876E+03 E0= -.66991876E+03  d E =0.904681E-02  mag=     2.0000
       N       E                     dE             d eps       ncg     rms          ort
SDA:   1    -0.665636474942E+03    0.42823E+01    0.00000E+00  8424   0.129E+02 0.000E+00
CGA:   2    -0.668308682604E+03   -0.26722E+01   -0.13745E+00  8424   0.558E+01-0.549E-01
CGA:   3    -0.669479379603E+03   -0.11707E+01   -0.11714E+01  8424   0.173E+01-0.823E-02
CGA:   4    -0.669760194417E+03   -0.28081E+00   -0.28006E+00  8424   0.408E+00 0.770E-02
CGA:   5    -0.669829538671E+03   -0.69344E-01   -0.68491E-01  8424   0.814E-01 0.884E-02
CGA:   6    -0.669846053562E+03   -0.16515E-01   -0.15890E-01  8424   0.177E-01 0.540E-02
CGA:   7    -0.669849758093E+03   -0.37045E-02   -0.32437E-02  8424   0.488E-02 0.511E-02
CGA:   8    -0.669850630973E+03   -0.87288E-03   -0.75466E-03  8424   0.218E-02 0.348E-02
CGA:   9    -0.669850823385E+03   -0.19241E-03   -0.19169E-03  8424   0.143E-02 0.171E-02
CGA:  10    -0.669850889981E+03   -0.66596E-04   -0.94397E-04  8424   0.117E-02 0.128E-02
CGA:  11    -0.669850920953E+03   -0.30973E-04   -0.64900E-04  8424   0.102E-02 0.108E-02
CGA:  12    -0.669850935022E+03   -0.14068E-04   -0.49415E-04  8424   0.921E-03 0.962E-03
CGA:  13    -0.669850939603E+03   -0.45814E-05   -0.39691E-04  8424   0.845E-03 0.875E-03
CGA:  14    -0.669850938378E+03    0.12257E-05   -0.32956E-04  8424   0.787E-03 0.809E-03
CGA:  15    -0.669850933413E+03    0.49643E-05   -0.27986E-04  8424   0.739E-03 0.757E-03
CGA:  16    -0.669850925973E+03    0.74403E-05   -0.24147E-04  8424   0.699E-03 0.714E-03
CGA:  17    -0.669850916877E+03    0.90958E-05   -0.21087E-04  8424   0.665E-03 0.677E-03
CGA:  18    -0.669850906697E+03    0.10180E-04   -0.18605E-04  8424   0.636E-03 0.646E-03
CGA:  19    -0.669850895833E+03    0.10864E-04   -0.16560E-04  8424   0.611E-03 0.620E-03
CGA:  20    -0.669850884564E+03    0.11270E-04   -0.14839E-04  8424   0.588E-03 0.597E-03
CGA:  21    -0.669850873092E+03    0.11472E-04   -0.13376E-04  8424   0.569E-03 0.576E-03
CGA:  22    -0.669850861566E+03    0.11525E-04   -0.12121E-04  8424   0.551E-03 0.558E-03
CGA:  23    -0.669850850097E+03    0.11470E-04   -0.11033E-04  8424   0.535E-03 0.541E-03
CGA:  24    -0.669850838762E+03    0.11334E-04   -0.10082E-04  8424   0.521E-03 0.526E-03
CGA:  25    -0.669850827622E+03    0.11141E-04   -0.92450E-05  8424   0.508E-03 0.513E-03
CGA:  26    -0.669850816717E+03    0.10905E-04   -0.85031E-05  8424   0.496E-03 0.501E-03
CGA:  27    -0.669850806078E+03    0.10639E-04   -0.78424E-05  8424   0.485E-03 0.489E-03
CGA:  28    -0.669850795727E+03    0.10351E-04   -0.72515E-05  8424   0.475E-03 0.479E-03
CGA:  29    -0.669850785677E+03    0.10050E-04   -0.67209E-05  8424   0.466E-03 0.470E-03
CGA:  30    -0.669850775938E+03    0.97394E-05   -0.62426E-05  8424   0.458E-03 0.461E-03
  10 F= -.66985078E+03 E0= -.66985078E+03  d E =0.679887E-01  mag=     2.0000
       N       E                     dE             d eps       ncg     rms          ort
SDA:   1    -0.668899598187E+03    0.95119E+00    0.00000E+00  8424   0.328E+01 0.000E+00
CGA:   2    -0.669538696691E+03   -0.63910E+00   -0.63547E+00  8424   0.127E+01 0.251E-01
CGA:   3    -0.669815688701E+03   -0.27699E+00   -0.27577E+00  8424   0.432E+00 0.690E-02
CGA:   4    -0.669887575135E+03   -0.71886E-01   -0.71216E-01  8424   0.105E+00 0.641E-02
CGA:   5    -0.669905673145E+03   -0.18098E-01   -0.17498E-01  8424   0.204E-01 0.608E-02
CGA:   6    -0.669909674652E+03   -0.40015E-02   -0.35890E-02  8424   0.431E-02 0.428E-02
CGA:   7    -0.669910349077E+03   -0.67442E-03   -0.57481E-03  8424   0.181E-02 0.285E-02
CGA:   8    -0.669910469244E+03   -0.12017E-03   -0.12890E-03  8424   0.125E-02 0.148E-02
CGA:   9    -0.669910512855E+03   -0.43611E-04   -0.68304E-04  8424   0.102E-02 0.112E-02
CGA:  10    -0.669910531398E+03   -0.18543E-04   -0.46735E-04  8424   0.887E-03 0.946E-03
CGA:  11    -0.669910538021E+03   -0.66227E-05   -0.35255E-04  8424   0.795E-03 0.835E-03
CGA:  12    -0.669910538093E+03   -0.72152E-07   -0.28081E-04  8424   0.728E-03 0.756E-03
CGA:  13    -0.669910534284E+03    0.38096E-05   -0.23167E-04  8424   0.676E-03 0.697E-03
CGA:  14    -0.669910528078E+03    0.62059E-05   -0.19586E-04  8424   0.635E-03 0.651E-03
CGA:  15    -0.669910520369E+03    0.77089E-05   -0.16861E-04  8424   0.601E-03 0.614E-03
CGA:  16    -0.669910511723E+03    0.86458E-05   -0.14718E-04  8424   0.572E-03 0.583E-03
CGA:  17    -0.669910502515E+03    0.92086E-05   -0.12987E-04  8424   0.547E-03 0.556E-03
CGA:  18    -0.669910492997E+03    0.95176E-05   -0.11561E-04  8424   0.526E-03 0.534E-03
CGA:  19    -0.669910483347E+03    0.96501E-05   -0.10365E-04  8424   0.508E-03 0.514E-03
  11 F= -.66991048E+03 E0= -.66991048E+03  d E =-.597074E-01  mag=     2.0000
       N       E                     dE             d eps       ncg     rms          ort
SDA:   1    -0.669713978021E+03    0.19651E+00    0.00000E+00  8424   0.637E+00 0.000E+00
CGA:   2    -0.669840966250E+03   -0.12699E+00   -0.12601E+00  8424   0.256E+00 0.684E-02
CGA:   3    -0.669897083552E+03   -0.56117E-01   -0.55082E-01  8424   0.850E-01 0.678E-02
CGA:   4    -0.669911407271E+03   -0.14324E-01   -0.13902E-01  8424   0.198E-01 0.468E-02
CGA:   5    -0.669914758450E+03   -0.33512E-02   -0.30779E-02  8424   0.368E-02 0.373E-02
CGA:   6    -0.669915292636E+03   -0.53419E-03   -0.46718E-03  8424   0.139E-02 0.228E-02
CGA:   7    -0.669915370585E+03   -0.77949E-04   -0.92162E-04  8424   0.917E-03 0.111E-02
CGA:   8    -0.669915390501E+03   -0.19917E-04   -0.44537E-04  8424   0.746E-03 0.823E-03
CGA:   9    -0.669915394733E+03   -0.42315E-05   -0.29810E-04  8424   0.647E-03 0.692E-03
CGA:  10    -0.669915392192E+03    0.25403E-05   -0.22283E-04  8424   0.581E-03 0.610E-03
CGA:  11    -0.669915386249E+03    0.59435E-05   -0.17681E-04  8424   0.533E-03 0.554E-03
CGA:  12    -0.669915378486E+03    0.77627E-05   -0.14571E-04  8424   0.497E-03 0.512E-03
CGA:  13    -0.669915369744E+03    0.87423E-05   -0.12326E-04  8424   0.468E-03 0.479E-03
CGA:  14    -0.669915360505E+03    0.92389E-05   -0.10630E-04  8424   0.444E-03 0.453E-03
  12 F= -.66991536E+03 E0= -.66991536E+03  d E =-.487716E-02  mag=     2.0000
       N       E                     dE             d eps       ncg     rms          ort
SDA:   1    -0.669668818045E+03    0.24655E+00    0.00000E+00  8424   0.648E+00 0.000E+00
CGA:   2    -0.669828117510E+03   -0.15930E+00   -0.15834E+00  8424   0.334E+00 0.522E-02
CGA:   3    -0.669894739070E+03   -0.66622E-01   -0.65932E-01  8424   0.836E-01 0.548E-02
CGA:   4    -0.669907958250E+03   -0.13219E-01   -0.12958E-01  8424   0.180E-01 0.347E-02
CGA:   5    -0.669910968832E+03   -0.30106E-02   -0.28075E-02  8424   0.342E-02 0.295E-02
CGA:   6    -0.669911483402E+03   -0.51457E-03   -0.45520E-03  8424   0.126E-02 0.199E-02
CGA:   7    -0.669911559133E+03   -0.75731E-04   -0.89971E-04  8424   0.804E-03 0.981E-03
CGA:   8    -0.669911576727E+03   -0.17593E-04   -0.41728E-04  8424   0.648E-03 0.718E-03
CGA:   9    -0.669911579432E+03   -0.27047E-05   -0.27489E-04  8424   0.558E-03 0.599E-03
CGA:  10    -0.669911575854E+03    0.35780E-05   -0.20276E-04  8424   0.498E-03 0.525E-03
CGA:  11    -0.669911569207E+03    0.66467E-05   -0.15900E-04  8424   0.455E-03 0.474E-03
CGA:  12    -0.669911560986E+03    0.82211E-05   -0.12967E-04  8424   0.422E-03 0.436E-03
CGA:  13    -0.669911551973E+03    0.90131E-05   -0.10868E-04  8424   0.395E-03 0.407E-03
  13 F= -.66991155E+03 E0= -.66991155E+03  d E =0.380853E-02  mag=     2.0000
       N       E                     dE             d eps       ncg     rms          ort
SDA:   1    -0.664683896889E+03    0.52277E+01    0.00000E+00  8424   0.137E+02 0.000E+00
CGA:   2    -0.668169985729E+03   -0.34861E+01   -0.34824E+01  8424   0.697E+01 0.224E-01
CGA:   3    -0.669504742958E+03   -0.13348E+01   -0.13347E+01  8424   0.167E+01-0.398E-03
CGA:   4    -0.669771195662E+03   -0.26645E+00   -0.26617E+00  8424   0.390E+00 0.350E-02
CGA:   5    -0.669838797233E+03   -0.67602E-01   -0.67291E-01  8424   0.820E-01 0.364E-02
CGA:   6    -0.669855421043E+03   -0.16624E-01   -0.16317E-01  8424   0.185E-01 0.292E-02
CGA:   7    -0.669859517132E+03   -0.40961E-02   -0.38286E-02  8424   0.502E-02 0.263E-02
CGA:   8    -0.669860624821E+03   -0.11077E-02   -0.96583E-03  8424   0.167E-02 0.216E-02
CGA:   9    -0.669860909771E+03   -0.28495E-03   -0.27337E-03  8424   0.884E-03 0.145E-02
CGA:  10    -0.669860974399E+03   -0.64628E-04   -0.78044E-04  8424   0.640E-03 0.736E-03
CGA:  11    -0.669860997646E+03   -0.23247E-04   -0.44437E-04  8424   0.542E-03 0.585E-03
CGA:  12    -0.669861007288E+03   -0.96419E-05   -0.32235E-04  8424   0.483E-03 0.509E-03
CGA:  13    -0.669861010123E+03   -0.28346E-05   -0.25348E-04  8424   0.440E-03 0.459E-03
CGA:  14    -0.669861009026E+03    0.10962E-05   -0.20810E-04  8424   0.408E-03 0.422E-03
CGA:  15    -0.669861005496E+03    0.35309E-05   -0.17556E-04  8424   0.383E-03 0.394E-03
CGA:  16    -0.669861000403E+03    0.50927E-05   -0.15095E-04  8424   0.362E-03 0.371E-03
CGA:  17    -0.669860994296E+03    0.61071E-05   -0.13161E-04  8424   0.344E-03 0.352E-03
CGA:  18    -0.669860987537E+03    0.67590E-05   -0.11600E-04  8424   0.329E-03 0.335E-03
CGA:  19    -0.669860980373E+03    0.71639E-05   -0.10312E-04  8424   0.316E-03 0.321E-03
  14 F= -.66986098E+03 E0= -.66986098E+03  d E =0.505716E-01  mag=     2.0000
       N       E                     dE             d eps       ncg     rms          ort
SDA:   1    -0.668343103664E+03    0.15179E+01    0.00000E+00  8424   0.494E+01 0.000E+00
CGA:   2    -0.669336523572E+03   -0.99342E+00   -0.99102E+00  8424   0.201E+01 0.204E-01
CGA:   3    -0.669768252443E+03   -0.43173E+00   -0.43174E+00  8424   0.657E+00-0.803E-03
CGA:   4    -0.669875814891E+03   -0.10756E+00   -0.10737E+00  8424   0.160E+00 0.264E-02
CGA:   5    -0.669902965777E+03   -0.27151E-01   -0.26919E-01  8424   0.320E-01 0.321E-02
CGA:   6    -0.669909345638E+03   -0.63799E-02   -0.62024E-02  8424   0.691E-02 0.196E-02
CGA:   7    -0.669910724420E+03   -0.13788E-02   -0.12482E-02  8424   0.190E-02 0.198E-02
CGA:   8    -0.669911006357E+03   -0.28194E-03   -0.27496E-03  8424   0.881E-03 0.142E-02
CGA:   9    -0.669911056911E+03   -0.50555E-04   -0.70321E-04  8424   0.595E-03 0.706E-03
CGA:  10    -0.669911068442E+03   -0.11531E-04   -0.36082E-04  8424   0.490E-03 0.535E-03
CGA:  11    -0.669911068931E+03   -0.48906E-06   -0.24840E-04  8424   0.430E-03 0.455E-03
CGA:  12    -0.669911064612E+03    0.43193E-05   -0.18937E-04  8424   0.389E-03 0.405E-03
CGA:  13    -0.669911057871E+03    0.67413E-05   -0.15235E-04  8424   0.358E-03 0.370E-03
CGA:  14    -0.669911049846E+03    0.80243E-05   -0.12672E-04  8424   0.335E-03 0.343E-03
CGA:  15    -0.669911041154E+03    0.86924E-05   -0.10784E-04  8424   0.315E-03 0.322E-03
  15 F= -.66991104E+03 E0= -.66991104E+03  d E =-.500608E-01  mag=     2.0000
       N       E                     dE             d eps       ncg     rms          ort
SDA:   1    -0.669855658204E+03    0.55392E-01    0.00000E+00  8424   0.160E+00 0.000E+00
CGA:   2    -0.669890260939E+03   -0.34603E-01   -0.34319E-01  8424   0.759E-01 0.220E-02
CGA:   3    -0.669906790183E+03   -0.16529E-01   -0.16180E-01  8424   0.225E-01 0.296E-02
CGA:   4    -0.669910352742E+03   -0.35626E-02   -0.34701E-02  8424   0.442E-02 0.185E-02
CGA:   5    -0.669911010304E+03   -0.65756E-03   -0.61884E-03  8424   0.916E-03 0.138E-02
CGA:   6    -0.669911082693E+03   -0.72389E-04   -0.92630E-04  8424   0.490E-03 0.787E-03
CGA:   7    -0.669911087492E+03   -0.47985E-05   -0.25590E-04  8424   0.369E-03 0.422E-03
CGA:   8    -0.669911082934E+03    0.45577E-05   -0.15089E-04  8424   0.311E-03 0.338E-03
CGA:   9    -0.669911075589E+03    0.73454E-05   -0.10685E-04  8424   0.275E-03 0.292E-03
  16 F= -.66991108E+03 E0= -.66991108E+03  d E =-.344349E-04  mag=     2.0000
       N       E                     dE             d eps       ncg     rms          ort
SDA:   1    -0.660970734132E+03    0.89403E+01    0.00000E+00  8424   0.214E+02 0.000E+00
CGA:   2    -0.667360572577E+03   -0.63898E+01   -0.63963E+01  8424   0.116E+02-0.319E-01
CGA:   3    -0.669381327764E+03   -0.20208E+01   -0.20192E+01  8424   0.231E+01 0.183E-01
CGA:   4    -0.669752293730E+03   -0.37097E+00   -0.37083E+00  8424   0.554E+00 0.203E-02
CGA:   5    -0.669848909459E+03   -0.96616E-01   -0.96493E-01  8424   0.121E+00 0.172E-02
CGA:   6    -0.669873373906E+03   -0.24464E-01   -0.24193E-01  8424   0.276E-01 0.301E-02
CGA:   7    -0.669879567702E+03   -0.61938E-02   -0.60323E-02  8424   0.792E-02 0.163E-02
CGA:   8    -0.669881417054E+03   -0.18494E-02   -0.16785E-02  8424   0.240E-02 0.212E-02
CGA:   9    -0.669881927252E+03   -0.51020E-03   -0.46522E-03  8424   0.106E-02 0.153E-02
CGA:  10    -0.669882061235E+03   -0.13398E-03   -0.13328E-03  8424   0.634E-03 0.774E-03
CGA:  11    -0.669882096766E+03   -0.35531E-04   -0.56266E-04  8424   0.516E-03 0.570E-03
CGA:  12    -0.669882111238E+03   -0.14471E-04   -0.38107E-04  8424   0.445E-03 0.478E-03
CGA:  13    -0.669882115643E+03   -0.44051E-05   -0.28355E-04  8424   0.396E-03 0.419E-03
CGA:  14    -0.669882114551E+03    0.10915E-05   -0.22237E-04  8424   0.360E-03 0.377E-03
CGA:  15    -0.669882110253E+03    0.42980E-05   -0.18048E-04  8424   0.332E-03 0.345E-03
CGA:  16    -0.669882104029E+03    0.62238E-05   -0.15011E-04  8424   0.309E-03 0.320E-03
CGA:  17    -0.669882096648E+03    0.73813E-05   -0.12718E-04  8424   0.290E-03 0.299E-03
CGA:  18    -0.669882088593E+03    0.80551E-05   -0.10933E-04  8424   0.275E-03 0.282E-03
  17 F= -.66988209E+03 E0= -.66988209E+03  d E =0.289870E-01  mag=     2.0000
       N       E                     dE             d eps       ncg     rms          ort
SDA:   1    -0.662369191286E+03    0.75129E+01    0.00000E+00  8424   0.214E+02 0.000E+00
CGA:   2    -0.667179108794E+03   -0.48099E+01   -0.48006E+01  8424   0.101E+02 0.759E-01
CGA:   3    -0.669231900539E+03   -0.20528E+01   -0.20549E+01  8424   0.281E+01-0.234E-01
CGA:   4    -0.669680859878E+03   -0.44896E+00   -0.44867E+00  8424   0.655E+00 0.527E-02
CGA:   5    -0.669793715159E+03   -0.11286E+00   -0.11256E+00  8424   0.140E+00 0.480E-02
CGA:   6    -0.669821822072E+03   -0.28107E-01   -0.28070E-01  8424   0.326E-01 0.417E-03
CGA:   7    -0.669828857844E+03   -0.70358E-02   -0.68449E-02  8424   0.899E-02 0.212E-02
CGA:   8    -0.669830997277E+03   -0.21394E-02   -0.19931E-02  8424   0.248E-02 0.173E-02
CGA:   9    -0.669831612979E+03   -0.61570E-03   -0.55098E-03  8424   0.902E-03 0.111E-02
CGA:  10    -0.669831759261E+03   -0.14628E-03   -0.15584E-03  8424   0.504E-03 0.831E-03
CGA:  11    -0.669831784439E+03   -0.25179E-04   -0.43810E-04  8424   0.376E-03 0.430E-03
CGA:  12    -0.669831791847E+03   -0.74079E-05   -0.26953E-04  8424   0.320E-03 0.346E-03
CGA:  13    -0.669831792315E+03   -0.46741E-06   -0.19673E-04  8424   0.285E-03 0.301E-03
CGA:  14    -0.669831789340E+03    0.29752E-05   -0.15464E-04  8424   0.260E-03 0.272E-03
CGA:  15    -0.669831784478E+03    0.48616E-05   -0.12684E-04  8424   0.242E-03 0.250E-03
CGA:  16    -0.669831778541E+03    0.59366E-05   -0.10697E-04  8424   0.228E-03 0.234E-03
  18 F= -.66983178E+03 E0= -.66983178E+03  d E =0.503101E-01  mag=     2.0000
       N       E                     dE             d eps       ncg     rms          ort
SDA:   1    -0.669148036733E+03    0.68375E+00    0.00000E+00  8424   0.231E+01 0.000E+00
CGA:   2    -0.669621261193E+03   -0.47322E+00   -0.47262E+00  8424   0.956E+00 0.597E-02
CGA:   3    -0.669822477447E+03   -0.20122E+00   -0.20106E+00  8424   0.307E+00 0.146E-02
CGA:   4    -0.669872714655E+03   -0.50237E-01   -0.50150E-01  8424   0.750E-01 0.187E-02
CGA:   5    -0.669885648971E+03   -0.12934E-01   -0.12854E-01  8424   0.154E-01 0.159E-02
CGA:   6    -0.669888611919E+03   -0.29629E-02   -0.28867E-02  8424   0.323E-02 0.124E-02
CGA:   7    -0.669889193880E+03   -0.58196E-03   -0.54576E-03  8424   0.945E-03 0.118E-02
CGA:   8    -0.669889308577E+03   -0.11470E-03   -0.13327E-03  8424   0.468E-03 0.779E-03
CGA:   9    -0.669889323291E+03   -0.14713E-04   -0.34751E-04  8424   0.332E-03 0.387E-03
CGA:  10    -0.669889321628E+03    0.16623E-05   -0.18628E-04  8424   0.278E-03 0.301E-03
CGA:  11    -0.669889315732E+03    0.58968E-05   -0.13057E-04  8424   0.246E-03 0.259E-03
CGA:  12    -0.669889308217E+03    0.75142E-05   -0.10044E-04  8424   0.223E-03 0.232E-03
  19 F= -.66988931E+03 E0= -.66988931E+03  d E =-.575297E-01  mag=     2.0000
       N       E                     dE             d eps       ncg     rms          ort
SDA:   1    -0.669189444335E+03    0.69987E+00    0.00000E+00  8424   0.204E+01 0.000E+00
CGA:   2    -0.669651397581E+03   -0.46195E+00   -0.46143E+00  8424   0.952E+00 0.420E-02
CGA:   3    -0.669843501700E+03   -0.19210E+00   -0.19199E+00  8424   0.269E+00 0.111E-02
CGA:   4    -0.669886803989E+03   -0.43302E-01   -0.43234E-01  8424   0.641E-01 0.161E-02
CGA:   5    -0.669897834980E+03   -0.11031E-01   -0.10960E-01  8424   0.133E-01 0.144E-02
CGA:   6    -0.669900409420E+03   -0.25744E-02   -0.25068E-02  8424   0.282E-02 0.110E-02
CGA:   7    -0.669900929259E+03   -0.51984E-03   -0.48715E-03  8424   0.822E-03 0.100E-02
CGA:   8    -0.669901030913E+03   -0.10165E-03   -0.11701E-03  8424   0.404E-03 0.666E-03
CGA:   9    -0.669901043812E+03   -0.12899E-04   -0.30274E-04  8424   0.286E-03 0.333E-03
CGA:  10    -0.669901042502E+03    0.13107E-05   -0.16251E-04  8424   0.239E-03 0.259E-03
CGA:  11    -0.669901037465E+03    0.50367E-05   -0.11369E-04  8424   0.211E-03 0.223E-03
  20 F= -.66990104E+03 E0= -.66990104E+03  d E =-.117292E-01  mag=     2.0000
       N       E                     dE             d eps       ncg     rms          ort
SDA:   1    -0.669818825062E+03    0.82217E-01    0.00000E+00  8424   0.200E+00 0.000E+00
CGA:   2    -0.669876652431E+03   -0.57827E-01   -0.57557E-01  8424   0.107E+00 0.154E-02
CGA:   3    -0.669895959652E+03   -0.19307E-01   -0.19255E-01  8424   0.222E-01 0.926E-03
CGA:   4    -0.669899440756E+03   -0.34811E-02   -0.34580E-02  8424   0.500E-02 0.781E-03
CGA:   5    -0.669900257687E+03   -0.81693E-03   -0.79596E-03  8424   0.974E-03 0.772E-03
CGA:   6    -0.669900387175E+03   -0.12949E-03   -0.13414E-03  8424   0.339E-03 0.540E-03
CGA:   7    -0.669900397031E+03   -0.98559E-05   -0.24457E-04  8424   0.216E-03 0.264E-03
CGA:   8    -0.669900393958E+03    0.30730E-05   -0.11092E-04  8424   0.174E-03 0.193E-03
  21 F= -.66990039E+03 E0= -.66990039E+03  d E =0.643507E-03  mag=     2.0000
       N       E                     dE             d eps       ncg     rms          ort
SDA:   1    -0.651604511598E+03    0.18296E+02    0.00000E+00  8424   0.486E+02 0.000E+00
CGA:   2    -0.663453664029E+03   -0.11849E+02   -0.11834E+02  8424   0.255E+02 0.118E+00
CGA:   3    -0.668513907664E+03   -0.50602E+01   -0.50626E+01  8424   0.645E+01-0.334E-01
CGA:   4    -0.669518910853E+03   -0.10050E+01   -0.10048E+01  8424   0.141E+01 0.425E-02
CGA:   5    -0.669761456651E+03   -0.24255E+00   -0.24234E+00  8424   0.303E+00 0.455E-02
CGA:   6    -0.669824048889E+03   -0.62592E-01   -0.62645E-01  8424   0.731E-01-0.747E-03
CGA:   7    -0.669839791977E+03   -0.15743E-01   -0.15662E-01  8424   0.204E-01 0.101E-02
CGA:   8    -0.669844861028E+03   -0.50691E-02   -0.50103E-02  8424   0.630E-02 0.562E-03
CGA:   9    -0.669846678067E+03   -0.18170E-02   -0.18111E-02  8424   0.226E-02 0.430E-04
CGA:  10    -0.669847292676E+03   -0.61461E-03   -0.56353E-03  8424   0.763E-03 0.528E-03
CGA:  11    -0.669847528123E+03   -0.23545E-03   -0.21398E-03  8424   0.250E-03 0.297E-03
CGA:  12    -0.669847573365E+03   -0.45242E-04   -0.48957E-04  8424   0.123E-03 0.208E-03
CGA:  13    -0.669847576632E+03   -0.32669E-05   -0.10753E-04  8424   0.928E-04 0.106E-03
  22 F= -.66984758E+03 E0= -.66984758E+03  d E =0.528173E-01  mag=     2.0000
       N       E                     dE             d eps       ncg     rms          ort
SDA:   1    -0.664010994780E+03    0.58366E+01    0.00000E+00  8424   0.171E+02 0.000E+00
CGA:   2    -0.667775464143E+03   -0.37645E+01   -0.37615E+01  8424   0.781E+01 0.369E-01
CGA:   3    -0.669378817442E+03   -0.16034E+01   -0.16038E+01  8424   0.223E+01-0.839E-02
CGA:   4    -0.669735333751E+03   -0.35652E+00   -0.35651E+00  8424   0.519E+00 0.171E-02
CGA:   5    -0.669824594971E+03   -0.89261E-01   -0.89230E-01  8424   0.109E+00 0.194E-02
CGA:   6    -0.669846716137E+03   -0.22121E-01   -0.22118E-01  8424   0.259E-01 0.665E-04
CGA:   7    -0.669852278286E+03   -0.55621E-02   -0.55021E-02  8424   0.711E-02 0.113E-02
CGA:   8    -0.669853986029E+03   -0.17077E-02   -0.16610E-02  8424   0.197E-02 0.757E-03
CGA:   9    -0.669854498817E+03   -0.51279E-03   -0.48447E-03  8424   0.613E-03 0.493E-03
CGA:  10    -0.669854612901E+03   -0.11408E-03   -0.11934E-03  8424   0.287E-03 0.414E-03
CGA:  11    -0.669854636330E+03   -0.23429E-04   -0.34069E-04  8424   0.178E-03 0.218E-03
CGA:  12    -0.669854639804E+03   -0.34736E-05   -0.15752E-04  8424   0.144E-03 0.160E-03
CGA:  13    -0.669854638320E+03    0.14834E-05   -0.10408E-04  8424   0.124E-03 0.134E-03
  23 F= -.66985464E+03 E0= -.66985464E+03  d E =-.706169E-02  mag=     2.0000
       N       E                     dE             d eps       ncg     rms          ort
SDA:   1    -0.668648634763E+03    0.12060E+01    0.00000E+00  8424   0.380E+01 0.000E+00
CGA:   2    -0.669446563500E+03   -0.79793E+00   -0.79752E+00  8424   0.164E+01 0.614E-02
CGA:   3    -0.669791271159E+03   -0.34471E+00   -0.34481E+00  8424   0.506E+00-0.205E-02
CGA:   4    -0.669872892333E+03   -0.81621E-01   -0.81619E-01  8424   0.120E+00 0.427E-03
CGA:   5    -0.669893316426E+03   -0.20424E-01   -0.20414E-01  8424   0.244E-01 0.786E-03
CGA:   6    -0.669898258200E+03   -0.49418E-02   -0.49361E-02  8424   0.572E-02 0.130E-03
CGA:   7    -0.669899446534E+03   -0.11883E-02   -0.11661E-02  8424   0.150E-02 0.526E-03
CGA:   8    -0.669899759735E+03   -0.31320E-03   -0.30332E-03  8424   0.412E-03 0.454E-03
CGA:   9    -0.669899822982E+03   -0.63246E-04   -0.71809E-04  8424   0.183E-03 0.285E-03
CGA:  10    -0.669899828493E+03   -0.55109E-05   -0.16296E-04  8424   0.125E-03 0.147E-03
  24 F= -.66989983E+03 E0= -.66989983E+03  d E =-.451902E-01  mag=     2.0000
       N       E                     dE             d eps       ncg     rms          ort
SDA:   1    -0.669861425859E+03    0.38397E-01    0.00000E+00  8424   0.103E+00 0.000E+00
CGA:   2    -0.669887316022E+03   -0.25890E-01   -0.25845E-01  8424   0.534E-01 0.456E-03
CGA:   3    -0.669897647026E+03   -0.10331E-01   -0.10318E-01  8424   0.130E-01 0.395E-03
CGA:   4    -0.669899681654E+03   -0.20346E-02   -0.20366E-02  8424   0.288E-02 0.379E-03
CGA:   5    -0.669900145505E+03   -0.46385E-03   -0.46510E-03  8424   0.564E-03 0.360E-03
CGA:   6    -0.669900222394E+03   -0.76889E-04   -0.84034E-04  8424   0.170E-03 0.259E-03
CGA:   7    -0.669900227867E+03   -0.54728E-05   -0.18910E-04  8424   0.918E-04 0.163E-03
  25 F= -.66990023E+03 E0= -.66990023E+03  d E =-.399374E-03  mag=     2.0000
       N       E                     dE             d eps       ncg     rms          ort
SDA:   1    -0.664239333182E+03    0.56609E+01    0.00000E+00  8424   0.130E+02 0.000E+00
CGA:   2    -0.668688600312E+03   -0.44493E+01   -0.44553E+01  8424   0.582E+01-0.309E-01
CGA:   3    -0.669619557280E+03   -0.93096E+00   -0.93093E+00  8424   0.113E+01 0.155E-01
CGA:   4    -0.669816214599E+03   -0.19666E+00   -0.19666E+00  8424   0.299E+00-0.187E-03
CGA:   5    -0.669867722496E+03   -0.51508E-01   -0.51515E-01  8424   0.652E-01-0.649E-03
CGA:   6    -0.669880583756E+03   -0.12861E-01   -0.12817E-01  8424   0.148E-01 0.121E-02
CGA:   7    -0.669884139733E+03   -0.35560E-02   -0.35671E-02  8424   0.504E-02-0.151E-03
CGA:   8    -0.669885326667E+03   -0.11869E-02   -0.11555E-02  8424   0.154E-02 0.479E-03
CGA:   9    -0.669885734480E+03   -0.40781E-03   -0.38152E-03  8424   0.549E-03 0.466E-03
CGA:  10    -0.669885883154E+03   -0.14867E-03   -0.14079E-03  8424   0.230E-03 0.318E-03
CGA:  11    -0.669885904104E+03   -0.20950E-04   -0.28836E-04  8424   0.128E-03 0.164E-03
CGA:  12    -0.669885906295E+03   -0.21913E-05   -0.11473E-04  8424   0.101E-03 0.114E-03
  26 F= -.66988591E+03 E0= -.66988591E+03  d E =0.143216E-01  mag=     2.0000
       N       E                     dE             d eps       ncg     rms          ort
SDA:   1    -0.663413724040E+03    0.64722E+01    0.00000E+00  8424   0.200E+02 0.000E+00
CGA:   2    -0.667363711721E+03   -0.39500E+01   -0.39472E+01  8424   0.837E+01 0.609E-01
CGA:   3    -0.669200485130E+03   -0.18368E+01   -0.18374E+01  8424   0.282E+01-0.116E-01
CGA:   4    -0.669652160134E+03   -0.45168E+00   -0.45169E+00  8424   0.632E+00 0.175E-02
CGA:   5    -0.669758466137E+03   -0.10631E+00   -0.10630E+00  8424   0.131E+00 0.176E-02
CGA:   6    -0.669785242281E+03   -0.26776E-01   -0.26844E-01  8424   0.315E-01-0.178E-02
CGA:   7    -0.669791820043E+03   -0.65778E-02   -0.65531E-02  8424   0.854E-02 0.573E-03
CGA:   8    -0.669793899138E+03   -0.20791E-02   -0.20702E-02  8424   0.238E-02 0.130E-03
CGA:   9    -0.669794586314E+03   -0.68718E-03   -0.73355E-03  8424   0.103E-02-0.360E-03
CGA:  10    -0.669794847246E+03   -0.26093E-03   -0.26249E-03  8424   0.462E-03-0.142E-04
CGA:  11    -0.669794175783E+03    0.67146E-03   -0.38544E-03  8424   0.509E-02-0.126E-02
CGA:  12    -0.669795029694E+03   -0.85391E-03   -0.92879E-03  8424   0.783E-03 0.474E-03
CGA:  13    -0.669795340143E+03   -0.31045E-03   -0.36133E-03  8424   0.106E-02-0.567E-03
CGA:  14    -0.669795404500E+03   -0.64358E-04   -0.12379E-03  8424   0.178E-03 0.270E-03
CGA:  15    -0.669795446816E+03   -0.42316E-04   -0.46686E-04  8424   0.107E-03 0.372E-04
CGA:  16    -0.669795576322E+03   -0.12951E-03    0.36845E-04  8424   0.170E-03-0.370E-04
CGA:  17    -0.669795723854E+03   -0.14753E-03    0.16572E-04  8424   0.308E-03 0.396E-05
CGA:  18    -0.669795588748E+03    0.13511E-03   -0.26534E-03  8424   0.311E-02-0.829E-03
CGA:  19    -0.669796317284E+03   -0.72854E-03   -0.57862E-03  8424   0.127E-02-0.940E-03
CGA:  20    -0.669796588377E+03   -0.27109E-03   -0.27468E-03  8424   0.247E-03 0.132E-03
CGA:  21    -0.669796641138E+03   -0.52761E-04   -0.64177E-04  8424   0.133E-03 0.112E-03
[...]
CGA:   4    -0.669872235663E+03   -0.11855E+00   -0.11857E+00  8424   0.170E+00 0.996E-04
CGA:   5    -0.669901040383E+03   -0.28805E-01   -0.28868E-01  8424   0.348E-01 0.869E-03
CGA:   6    -0.669908136159E+03   -0.70958E-02   -0.71063E-02  8424   0.813E-02 0.325E-03
CGA:   7    -0.669909812456E+03   -0.16763E-02   -0.16902E-02  8424   0.215E-02 0.499E-03
CGA:   8    -0.669910292045E+03   -0.47959E-03   -0.48681E-03  8424   0.581E-03 0.380E-03
CGA:   9    -0.669910397736E+03   -0.10569E-03   -0.12067E-03  8424   0.210E-03 0.272E-03
CGA:  10    -0.669910405539E+03   -0.78030E-05   -0.33132E-04  8424   0.127E-03 0.208E-03
  49 F= -.66991041E+03 E0= -.66991041E+03  d E =-.451446E-01  mag=     2.0000
       N       E                     dE             d eps       ncg     rms          ort
SDA:   1    -0.669529105945E+03    0.38129E+00    0.00000E+00  8424   0.117E+01 0.000E+00
CGA:   2    -0.669763277514E+03   -0.23417E+00   -0.23421E+00  8424   0.491E+00 0.175E-02
CGA:   3    -0.669869987716E+03   -0.10671E+00   -0.10671E+00  8424   0.163E+00-0.767E-03
CGA:   4    -0.669896450457E+03   -0.26463E-01   -0.26483E-01  8424   0.378E-01 0.371E-03
CGA:   5    -0.669902710534E+03   -0.62601E-02   -0.62988E-02  8424   0.737E-02 0.838E-03
CGA:   6    -0.669904127251E+03   -0.14167E-02   -0.14294E-02  8424   0.164E-02 0.626E-03
CGA:   7    -0.669904411927E+03   -0.28468E-03   -0.30324E-03  8424   0.451E-03 0.482E-03
CGA:   8    -0.669904452894E+03   -0.40967E-04   -0.69961E-04  8424   0.214E-03 0.333E-03
CGA:   9    -0.669904450893E+03    0.20007E-05   -0.18273E-04  8424   0.147E-03 0.173E-03
  50 F= -.66990445E+03 E0= -.66990445E+03  d E =0.595465E-02  mag=     2.0000
       N       E                     dE             d eps       ncg     rms          ort
SDA:   1    -0.669213329063E+03    0.69112E+00    0.00000E+00  8424   0.194E+01 0.000E+00
CGA:   2    -0.669643434606E+03   -0.43011E+00   -0.43003E+00  8424   0.870E+00 0.181E-02
CGA:   3    -0.669820711104E+03   -0.17728E+00   -0.17730E+00  8424   0.259E+00-0.226E-02
CGA:   4    -0.669863340957E+03   -0.42630E-01   -0.42645E-01  8424   0.629E-01 0.534E-03
CGA:   5    -0.669873644741E+03   -0.10304E-01   -0.10346E-01  8424   0.117E-01 0.158E-02
CGA:   6    -0.669875913288E+03   -0.22685E-02   -0.22691E-02  8424   0.262E-02 0.108E-02
CGA:   7    -0.669876443790E+03   -0.53050E-03   -0.53261E-03  8424   0.760E-03 0.632E-03
CGA:   8    -0.669876562024E+03   -0.11823E-03   -0.13810E-03  8424   0.318E-03 0.462E-03
CGA:   9    -0.669876572108E+03   -0.10084E-04   -0.31527E-04  8424   0.203E-03 0.243E-03
CGA:  10    -0.669876565729E+03    0.63787E-05   -0.14257E-04  8424   0.169E-03 0.183E-03
  51 F= -.66987657E+03 E0= -.66987657E+03  d E =0.278852E-01  mag=     2.0000
       N       E                     dE             d eps       ncg     rms          ort
SDA:   1    -0.642003806862E+03    0.27873E+02    0.00000E+00  8424   0.880E+02 0.000E+00
CGA:   2    -0.659136155205E+03   -0.17132E+02   -0.17093E+02  8424   0.359E+02 0.109E+01
CGA:   3    -0.667085162878E+03   -0.79490E+01   -0.79594E+01  8424   0.111E+02-0.179E+00
CGA:   4    -0.668885191315E+03   -0.18000E+01   -0.18004E+01  8424   0.261E+01 0.117E-01
CGA:   5    -0.669321852843E+03   -0.43666E+00   -0.43672E+00  8424   0.553E+00 0.599E-02
CGA:   6    -0.669436851904E+03   -0.11500E+00   -0.11511E+00  8424   0.135E+00-0.324E-02
CGA:   7    -0.669466269547E+03   -0.29418E-01   -0.29370E-01  8424   0.385E-01 0.110E-02
CGA:   8    -0.669475727733E+03   -0.94582E-02   -0.93964E-02  8424   0.115E-01 0.963E-03
CGA:   9    -0.669479113077E+03   -0.33853E-02   -0.35238E-02  8424   0.498E-02-0.118E-02
CGA:  10    -0.669480407671E+03   -0.12946E-02   -0.12944E-02  8424   0.211E-02 0.146E-05
CGA:  11    -0.669480759992E+03   -0.35232E-03   -0.12654E-02  8424   0.447E-02-0.225E-02
CGA:  12    -0.669481383906E+03   -0.62391E-03   -0.66510E-03  8424   0.688E-03 0.650E-03
CGA:  13    -0.669481456364E+03   -0.72458E-04   -0.47374E-03  8424   0.200E-02-0.102E-02
CGA:  14    -0.669481811976E+03   -0.35561E-03   -0.36501E-03  8424   0.312E-03 0.201E-03
CGA:  15    -0.669481981335E+03   -0.16936E-03    0.43289E-03  8424   0.102E-03-0.340E-04
CGA:  16    -0.669482052007E+03   -0.70672E-04    0.14241E-04  8424   0.508E-04 0.328E-04
CGA:  17    -0.669482134157E+03   -0.82150E-04    0.44652E-05  8424   0.414E-04 0.443E-04
CGA:  18    -0.669482198156E+03   -0.63999E-04    0.19367E-05  8424   0.331E-04 0.211E-04
CGA:  19    -0.669482231057E+03   -0.32901E-04    0.31297E-05  8424   0.325E-04 0.165E-04
CGA:  20    -0.669482324839E+03   -0.93782E-04    0.16976E-05  8424   0.262E-04 0.445E-04
CGA:  21    -0.669482381531E+03   -0.56692E-04    0.78443E-06  8424   0.256E-04 0.152E-04
CGA:  22    -0.669482411484E+03   -0.29953E-04    0.18301E-05  8424   0.261E-04 0.132E-04
CGA:  23    -0.669482467200E+03   -0.55717E-04    0.79278E-06  8424   0.271E-04 0.109E-04
CGA:  24    -0.669482551766E+03   -0.84566E-04    0.11255E-05  8424   0.229E-04 0.366E-04
CGA:  25    -0.669482577471E+03   -0.25705E-04    0.17512E-05  8424   0.246E-04 0.939E-05
CGA:  26    -0.669482659810E+03   -0.82339E-04    0.92823E-06  8424   0.207E-04 0.333E-04
CGA:  27    -0.669482710761E+03   -0.50951E-04    0.52772E-06  8424   0.221E-04 0.851E-05
CGA:  28    -0.669482787260E+03   -0.76498E-04    0.80206E-06  8424   0.189E-04 0.301E-04
CGA:  29    -0.669482809038E+03   -0.21779E-04    0.13865E-05  8424   0.206E-04 0.761E-05
CGA:  30    -0.669482884001E+03   -0.74962E-04    0.69157E-06  8424   0.176E-04 0.280E-04
CGA:  31    -0.669482931685E+03   -0.47684E-04    0.39926E-06  8424   0.190E-04 0.699E-05
CGA:  32    -0.669483001468E+03   -0.69783E-04    0.62675E-06  8424   0.165E-04 0.258E-04
CGA:  33    -0.669483019940E+03   -0.18472E-04    0.12609E-05  8424   0.180E-04 0.632E-05
CGA:  34    -0.669483088613E+03   -0.68674E-04    0.55158E-06  8424   0.156E-04 0.242E-04
CGA:  35    -0.669483133789E+03   -0.45175E-04    0.32702E-06  8424   0.168E-04 0.581E-05
CGA:  36    -0.669483197693E+03   -0.63904E-04    0.51256E-06  8424   0.148E-04 0.225E-04
CGA:  37    -0.669483213395E+03   -0.15702E-04    0.12524E-05  8424   0.160E-04 0.528E-05
CGA:  38    -0.669483276390E+03   -0.62995E-04    0.45384E-06  8424   0.142E-04 0.211E-04
CGA:  39    -0.669483319291E+03   -0.42902E-04    0.28279E-06  8424   0.150E-04 0.490E-05
CGA:  40    -0.669483377536E+03   -0.58244E-04    0.42693E-06  8424   0.135E-04 0.196E-04
CGA:  41    -0.669483391363E+03   -0.13828E-04    0.12205E-05  8424   0.141E-04 0.462E-05
CGA:  42    -0.669483448774E+03   -0.57411E-04    0.37453E-06  8424   0.129E-04 0.183E-04
CGA:  43    -0.669483488741E+03   -0.39967E-04    0.24818E-06  8424   0.129E-04 0.462E-05
CGA:  44    -0.669483540791E+03   -0.52050E-04    0.35507E-06  8424   0.120E-04 0.168E-04
CGA:  45    -0.669483554776E+03   -0.13985E-04    0.86211E-06  8424   0.115E-04 0.489E-05
CGA:  46    -0.669483606189E+03   -0.51413E-04    0.30300E-06  8424   0.110E-04 0.154E-04
CGA:  47    -0.669483641252E+03   -0.35064E-04    0.20617E-06  8424   0.995E-05 0.539E-05
CGA:  48    -0.669483687094E+03   -0.45841E-04    0.28778E-06  8424   0.997E-05 0.141E-04
CGA:  49    -0.669483703530E+03   -0.16436E-04    0.42711E-06  8424   0.866E-05 0.584E-05
CGA:  50    -0.669483735049E+03   -0.31519E-04    0.13930E-06  8424   0.834E-05 0.612E-05
CGA:  51    -0.669483751133E+03   -0.16084E-04    0.28922E-06  8424   0.816E-05 0.610E-05
CGA:  52    -0.669483781725E+03   -0.30592E-04    0.12688E-06  8424   0.805E-05 0.600E-05
CGA:  53    -0.669483797421E+03   -0.15696E-04    0.27560E-06  8424   0.799E-05 0.585E-05
CGA:  54    -0.669483827568E+03   -0.30147E-04    0.12326E-06  8424   0.797E-05 0.566E-05
CGA:  55    -0.669483842429E+03   -0.14862E-04    0.28936E-06  8424   0.801E-05 0.542E-05
CGA:  56    -0.669483872578E+03   -0.30149E-04    0.12378E-06  8424   0.810E-05 0.514E-05
CGA:  57    -0.669483886196E+03   -0.13618E-04    0.33735E-06  8424   0.826E-05 0.479E-05
CGA:  58    -0.669483916767E+03   -0.30570E-04    0.13029E-06  8424   0.852E-05 0.437E-05
CGA:  59    -0.669483928720E+03   -0.11953E-04    0.45897E-06  8424   0.890E-05 0.384E-05
CGA:  60    -0.669483972839E+03   -0.44120E-04    0.22321E-06  8424   0.809E-05 0.127E-04
CGA:  61    -0.669484003050E+03   -0.30211E-04    0.12618E-06  8424   0.843E-05 0.366E-05
CGA:  62    -0.669484044946E+03   -0.41896E-04    0.21162E-06  8424   0.767E-05 0.120E-04
CGA:  63    -0.669484055523E+03   -0.10577E-04    0.42407E-06  8424   0.804E-05 0.347E-05
CGA:  64    -0.669484096863E+03   -0.41340E-04    0.19381E-06  8424   0.728E-05 0.115E-04
CGA:  65    -0.669484125538E+03   -0.28675E-04    0.10711E-06  8424   0.761E-05 0.331E-05
CGA:  66    -0.669484164586E+03   -0.39048E-04    0.18442E-06  8424   0.691E-05 0.109E-04
CGA:  67    -0.669484174042E+03   -0.94567E-05    0.38688E-06  8424   0.724E-05 0.314E-05
  52 F= -.66948417E+03 E0= -.66948417E+03  d E =0.392392E+00  mag=     2.0000
       N       E                     dE             d eps       ncg     rms          ort
SDA:   1    -0.661442636423E+03    0.80415E+01    0.00000E+00  8424   0.263E+02 0.000E+00
CGA:   2    -0.666688077959E+03   -0.52454E+01   -0.52511E+01  8424   0.112E+02 0.901E-01
CGA:   3    -0.669128357663E+03   -0.24403E+01   -0.24399E+01  8424   0.347E+01-0.259E-01
CGA:   4    -0.669687735040E+03   -0.55938E+00   -0.55961E+00  8424   0.808E+00 0.110E-03
CGA:   5    -0.669824259421E+03   -0.13652E+00   -0.13664E+00  8424   0.168E+00 0.162E-02
CGA:   6    -0.669858743465E+03   -0.34484E-01   -0.34471E-01  8424   0.399E-01-0.961E-03
CGA:   7    -0.669867245973E+03   -0.85025E-02   -0.85051E-02  8424   0.108E-01 0.690E-03
CGA:   8    -0.669869945945E+03   -0.27000E-02   -0.26955E-02  8424   0.317E-02 0.161E-03
CGA:   9    -0.669870870264E+03   -0.92432E-03   -0.94716E-03  8424   0.133E-02-0.306E-03
CGA:  10    -0.669871196348E+03   -0.32608E-03   -0.31999E-03  8424   0.513E-03 0.139E-03
CGA:  11    -0.669871387636E+03   -0.19129E-03   -0.28672E-03  8424   0.654E-03-0.342E-03
CGA:  12    -0.669871472024E+03   -0.84388E-04   -0.98567E-04  8424   0.122E-03 0.160E-03
CGA:  13    -0.669871495508E+03   -0.23485E-04   -0.97132E-04  8424   0.443E-03-0.182E-03
CGA:  14    -0.669871584161E+03   -0.88653E-04   -0.91467E-04  8424   0.618E-04 0.574E-04
CGA:  15    -0.669871627262E+03   -0.43101E-04    0.39880E-04  8424   0.393E-04 0.122E-04
CGA:  16    -0.669871652749E+03   -0.25487E-04    0.83293E-04  8424   0.325E-04 0.292E-04
CGA:  17    -0.669871671870E+03   -0.19121E-04   -0.39606E-04  8424   0.176E-03-0.220E-04
CGA:  18    -0.669871165142E+03    0.50673E-03   -0.21165E-03  8424   0.528E-02-0.795E-03
CGA:  19    -0.669871682804E+03   -0.51766E-03   -0.64499E-03  8424   0.400E-03 0.570E-03
CGA:  20    -0.669871781284E+03   -0.98480E-04   -0.10067E-03  8424   0.743E-04 0.200E-04
CGA:  21    -0.669871849134E+03   -0.67850E-04    0.40218E-04  8424   0.127E-03-0.639E-04
CGA:  22    -0.669871843828E+03    0.53061E-05   -0.97574E-05  8424   0.339E-04 0.596E-04
  53 F= -.66987184E+03 E0= -.66987184E+03  d E =-.387670E+00  mag=     2.0000
       N       E                     dE             d eps       ncg     rms          ort
SDA:   1    -0.668023031508E+03    0.18488E+01    0.00000E+00  8424   0.576E+01 0.000E+00
CGA:   2    -0.669206270136E+03   -0.11832E+01   -0.11845E+01  8424   0.252E+01 0.377E-02
CGA:   3    -0.669744166044E+03   -0.53790E+00   -0.53759E+00  8424   0.779E+00-0.244E-02
CGA:   4    -0.669869358693E+03   -0.12519E+00   -0.12522E+00  8424   0.180E+00 0.331E-04
CGA:   5    -0.669899830140E+03   -0.30471E-01   -0.30567E-01  8424   0.366E-01 0.751E-03
CGA:   6    -0.669907284185E+03   -0.74540E-02   -0.74753E-02  8424   0.856E-02 0.266E-03
CGA:   7    -0.669909062983E+03   -0.17788E-02   -0.18056E-02  8424   0.231E-02 0.387E-03
CGA:   8    -0.669909593363E+03   -0.53038E-03   -0.54420E-03  8424   0.640E-03 0.279E-03
CGA:   9    -0.669909721267E+03   -0.12790E-03   -0.14401E-03  8424   0.214E-03 0.224E-03
CGA:  10    -0.669909732405E+03   -0.11138E-04   -0.37127E-04  8424   0.124E-03 0.185E-03
CGA:  11    -0.669909727996E+03    0.44089E-05   -0.12386E-04  8424   0.904E-04 0.104E-03
  54 F= -.66990973E+03 E0= -.66990973E+03  d E =-.378842E-01  mag=     2.0000
       N       E                     dE             d eps       ncg     rms          ort
SDA:   1    -0.669491045764E+03    0.41869E+00    0.00000E+00  8424   0.126E+01 0.000E+00
CGA:   2    -0.669744665208E+03   -0.25362E+00   -0.25371E+00  8424   0.530E+00 0.129E-02
CGA:   3    -0.669859367690E+03   -0.11470E+00   -0.11467E+00  8424   0.174E+00-0.106E-02
CGA:   4    -0.669887561858E+03   -0.28194E-01   -0.28206E-01  8424   0.407E-01 0.145E-03
CGA:   5    -0.669894308544E+03   -0.67467E-02   -0.67981E-02  8424   0.790E-02 0.718E-03
CGA:   6    -0.669895837738E+03   -0.15292E-02   -0.15512E-02  8424   0.177E-02 0.533E-03
CGA:   7    -0.669896175546E+03   -0.33781E-03   -0.35344E-03  8424   0.473E-03 0.351E-03
CGA:   8    -0.669896242140E+03   -0.66594E-04   -0.86595E-04  8424   0.182E-03 0.259E-03
CGA:   9    -0.669896244713E+03   -0.25722E-05   -0.19081E-04  8424   0.112E-03 0.136E-03
  55 F= -.66989624E+03 E0= -.66989624E+03  d E =0.134833E-01  mag=     2.0000
       N       E                     dE             d eps       ncg     rms          ort
SDA:   1    -0.669543438655E+03    0.35280E+00    0.00000E+00  8424   0.984E+00 0.000E+00
CGA:   2    -0.669771160710E+03   -0.22772E+00   -0.22771E+00  8424   0.426E+00 0.317E-03
CGA:   3    -0.669854588808E+03   -0.83428E-01   -0.83403E-01  8424   0.125E+00-0.146E-02
CGA:   4    -0.669875787639E+03   -0.21199E-01   -0.21219E-01  8424   0.321E-01 0.460E-03
CGA:   5    -0.669880963981E+03   -0.51763E-02   -0.52374E-02  8424   0.589E-02 0.127E-02
CGA:   6    -0.669882017029E+03   -0.10530E-02   -0.10809E-02  8424   0.129E-02 0.881E-03
CGA:   7    -0.669882244870E+03   -0.22784E-03   -0.24715E-03  8424   0.436E-03 0.491E-03
CGA:   8    -0.669882288927E+03   -0.44057E-04   -0.73136E-04  8424   0.222E-03 0.349E-03
CGA:   9    -0.669882287407E+03    0.15203E-05   -0.19124E-04  8424   0.156E-03 0.181E-03
CGA:  10    -0.669882278822E+03    0.85852E-05   -0.10025E-04  8424   0.133E-03 0.143E-03
  56 F= -.66988228E+03 E0= -.66988228E+03  d E =0.139659E-01  mag=     2.0000
       N       E                     dE             d eps       ncg     rms          ort
SDA:   1    -0.647860142437E+03    0.22022E+02    0.00000E+00  8424   0.691E+02 0.000E+00
CGA:   2    -0.661442683704E+03   -0.13583E+02   -0.13567E+02  8424   0.284E+02 0.622E+00
CGA:   3    -0.667641818009E+03   -0.61991E+01   -0.62040E+01  8424   0.880E+01-0.107E+00
CGA:   4    -0.669083062185E+03   -0.14412E+01   -0.14416E+01  8424   0.210E+01 0.746E-02
CGA:   5    -0.669435772826E+03   -0.35271E+00   -0.35281E+00  8424   0.439E+00 0.436E-02
CGA:   6    -0.669526625268E+03   -0.90852E-01   -0.90924E-01  8424   0.106E+00-0.296E-02
CGA:   7    -0.669549771374E+03   -0.23146E-01   -0.23103E-01  8424   0.303E-01 0.120E-02
CGA:   8    -0.669557251241E+03   -0.74799E-02   -0.74436E-02  8424   0.911E-02 0.627E-03
CGA:   9    -0.669559940705E+03   -0.26895E-02   -0.28056E-02  8424   0.399E-02-0.102E-02
CGA:  10    -0.669561019538E+03   -0.10788E-02   -0.11079E-02  8424   0.186E-02-0.245E-03
CGA:  11    -0.669560693923E+03    0.32562E-03   -0.13395E-02  8424   0.763E-02-0.294E-02
CGA:  12    -0.669561804161E+03   -0.11102E-02   -0.11721E-02  8424   0.115E-02 0.829E-03
CGA:  13    -0.669562176543E+03   -0.37238E-03   -0.57160E-03  8424   0.141E-02-0.886E-03
CGA:  14    -0.669562409528E+03   -0.23299E-03   -0.24269E-03  8424   0.246E-03 0.152E-03
CGA:  15    -0.669562565663E+03   -0.15613E-03    0.13668E-03  8424   0.928E-04 0.157E-04
CGA:  16    -0.669562671641E+03   -0.10598E-03    0.87575E-05  8424   0.654E-04 0.631E-04
CGA:  17    -0.669562727720E+03   -0.56078E-04    0.90094E-05  8424   0.424E-04 0.404E-04
CGA:  18    -0.669562799359E+03   -0.71639E-04    0.18668E-05  8424   0.381E-04 0.337E-04
CGA:  19    -0.669562847117E+03   -0.47759E-04    0.26179E-05  8424   0.357E-04 0.303E-04
CGA:  20    -0.669562914622E+03   -0.67504E-04    0.13543E-05  8424   0.338E-04 0.277E-04
CGA:  21    -0.669562958399E+03   -0.43777E-04    0.22065E-05  8424   0.329E-04 0.251E-04
CGA:  22    -0.669563023830E+03   -0.65431E-04    0.11637E-05  8424   0.323E-04 0.228E-04
CGA:  23    -0.669563063130E+03   -0.39300E-04    0.23228E-05  8424   0.326E-04 0.202E-04
CGA:  24    -0.669563128180E+03   -0.65050E-04    0.11539E-05  8424   0.335E-04 0.175E-04
CGA:  25    -0.669563162410E+03   -0.34230E-04    0.32432E-05  8424   0.354E-04 0.141E-04
CGA:  26    -0.669563265434E+03   -0.10302E-03    0.17221E-05  8424   0.302E-04 0.484E-04
CGA:  27    -0.669563327811E+03   -0.62377E-04    0.10221E-05  8424   0.316E-04 0.130E-04
CGA:  28    -0.669563422834E+03   -0.95023E-04    0.14988E-05  8424   0.277E-04 0.439E-04
CGA:  29    -0.669563451840E+03   -0.29006E-04    0.25670E-05  8424   0.297E-04 0.118E-04
CGA:  30    -0.669563544997E+03   -0.93157E-04    0.13212E-05  8424   0.258E-04 0.412E-04
CGA:  31    -0.669563602686E+03   -0.57689E-04    0.78649E-06  8424   0.274E-04 0.111E-04
CGA:  32    -0.669563688857E+03   -0.86171E-04    0.12221E-05  8424   0.241E-04 0.382E-04
CGA:  33    -0.669563713686E+03   -0.24829E-04    0.22942E-05  8424   0.259E-04 0.103E-04
CGA:  34    -0.669563798441E+03   -0.84755E-04    0.10956E-05  8424   0.226E-04 0.361E-04
CGA:  35    -0.669563852245E+03   -0.53804E-04    0.63976E-06  8424   0.241E-04 0.979E-05
CGA:  36    -0.669563930661E+03   -0.78416E-04    0.10372E-05  8424   0.213E-04 0.337E-04
CGA:  37    -0.669563952013E+03   -0.21352E-04    0.21355E-05  8424   0.229E-04 0.921E-05
CGA:  38    -0.669564029219E+03   -0.77206E-04    0.93577E-06  8424   0.201E-04 0.319E-04
CGA:  39    -0.669564079475E+03   -0.50256E-04    0.53164E-06  8424   0.213E-04 0.890E-05
CGA:  40    -0.669564150757E+03   -0.71282E-04    0.89570E-06  8424   0.189E-04 0.299E-04
CGA:  41    -0.669564169427E+03   -0.18671E-04    0.19399E-05  8424   0.200E-04 0.859E-05
CGA:  42    -0.669564239542E+03   -0.70114E-04    0.80728E-06  8424   0.177E-04 0.282E-04
CGA:  43    -0.669564286048E+03   -0.46506E-04    0.44126E-06  8424   0.183E-04 0.857E-05
CGA:  44    -0.669564350303E+03   -0.64256E-04    0.77602E-06  8424   0.165E-04 0.263E-04
CGA:  45    -0.669564367663E+03   -0.17360E-04    0.15073E-05  8424   0.168E-04 0.864E-05
CGA:  46    -0.669564412761E+03   -0.45098E-04    0.40671E-06  8424   0.179E-04 0.739E-05
CGA:  47    -0.669564474485E+03   -0.61724E-04    0.71943E-06  8424   0.159E-04 0.252E-04
CGA:  48    -0.669564488807E+03   -0.14322E-04    0.19723E-05  8424   0.168E-04 0.708E-05
CGA:  49    -0.669564549267E+03   -0.60460E-04    0.65110E-06  8424   0.151E-04 0.238E-04
CGA:  50    -0.669564591350E+03   -0.42083E-04    0.34894E-06  8424   0.157E-04 0.690E-05
CGA:  51    -0.669564647170E+03   -0.55820E-04    0.62988E-06  8424   0.142E-04 0.224E-04
CGA:  52    -0.669564660082E+03   -0.12911E-04    0.17281E-05  8424   0.146E-04 0.682E-05
CGA:  53    -0.669564714681E+03   -0.54599E-04    0.56309E-06  8424   0.133E-04 0.209E-04
CGA:  54    -0.669564752887E+03   -0.38207E-04    0.30001E-06  8424   0.132E-04 0.696E-05
CGA:  55    -0.669564764452E+03   -0.11564E-04    0.17315E-05  8424   0.137E-04 0.633E-05
CGA:  56    -0.669564816211E+03   -0.51759E-04    0.52553E-06  8424   0.125E-04 0.198E-04
CGA:  57    -0.669564853310E+03   -0.37100E-04    0.26907E-06  8424   0.127E-04 0.623E-05
CGA:  58    -0.669564900970E+03   -0.47660E-04    0.50783E-06  8424   0.118E-04 0.186E-04
CGA:  59    -0.669564911637E+03   -0.10667E-04    0.14348E-05  8424   0.119E-04 0.613E-05
CGA:  60    -0.669564947563E+03   -0.35926E-04    0.24989E-06  8424   0.123E-04 0.555E-05
CGA:  61    -0.669564992890E+03   -0.45327E-04    0.47549E-06  8424   0.112E-04 0.177E-04
CGA:  62    -0.669565001674E+03   -0.87840E-05    0.19231E-05  8424   0.116E-04 0.537E-05
