       N       E                     dE             d eps       ncg     rms          ort
DAV:   1     0.826627226940E+04    0.82663E+04   -0.24658E+05  8424   0.238E+03
DAV:   2     0.920088753554E+03   -0.73462E+04   -0.68953E+04  8424   0.656E+02
DAV:   3    -0.674338692713E+03   -0.15944E+04   -0.14012E+04  8424   0.282E+02
DAV:   4    -0.830463205496E+03   -0.15612E+03   -0.15344E+03  8424   0.859E+01
DAV:   5    -0.832961262125E+03   -0.24981E+01   -0.24872E+01  8424   0.122E+01
SDA:   6    -0.251766101102E+03    0.58120E+03   -0.24872E+01  8424   0.465E+04 0.000E+00
CGA:   7    -0.497648563425E+03   -0.24588E+03   -0.43452E+03  8424   0.151E+04 0.144E+03
CGA:   8    -0.613774497629E+03   -0.11613E+03   -0.39401E+02  8424   0.381E+03 0.643E+03
CGA:   9    -0.628706473422E+03   -0.14932E+02   -0.28563E+02  8424   0.726E+03-0.203E+02
CGA:  10    -0.640163568719E+03   -0.11457E+02   -0.24741E+02  8424   0.312E+03-0.146E+03
CGA:  11    -0.649596490591E+03   -0.94329E+01   -0.96666E+01  8424   0.133E+03-0.712E+02
CGA:  12    -0.649136120639E+03    0.46037E+00   -0.64856E+01  8424   0.276E+03-0.462E+02
CGA:  13    -0.655659453562E+03   -0.65233E+01   -0.68915E+01  8424   0.358E+03-0.207E+03
CGA:  14    -0.655624496794E+03    0.34957E-01   -0.26514E+02  8424   0.159E+03-0.166E+02
CGA:  15    -0.658999229916E+03   -0.33747E+01   -0.86551E+01  8424   0.292E+03-0.705E+02
CGA:  16    -0.651637615372E+03    0.73616E+01   -0.78898E+01  8424   0.442E+03-0.774E+02
CGA:  17    -0.657631355317E+03   -0.59937E+01   -0.13843E+02  8424   0.985E+02-0.108E+03
CGA:  18    -0.662051249314E+03   -0.44199E+01   -0.27300E+01  8424   0.354E+02 0.399E+02
CGA:  19    -0.661753740110E+03    0.29751E+00   -0.15652E+01  8424   0.171E+03-0.114E+03
CGA:  20    -0.661494054953E+03    0.25969E+00   -0.85475E+01  8424   0.111E+03-0.710E+02
CGA:  21    -0.665678859708E+03   -0.41848E+01   -0.26114E+01  8424   0.559E+02-0.473E+02
CGA:  22    -0.664789027535E+03    0.88983E+00   -0.10103E+01  8424   0.152E+03-0.432E+02
CGA:  23    -0.660973559155E+03    0.38155E+01   -0.62319E+01  8424   0.218E+03-0.102E+03
CGA:  24    -0.659324668620E+03    0.16489E+01   -0.84415E+01  8424   0.213E+03-0.167E+03
CGA:  25    -0.659812868482E+03   -0.48820E+00   -0.81581E+01  8424   0.187E+03-0.183E+03
CGA:  26    -0.662031856651E+03   -0.22190E+01   -0.66297E+01  8424   0.179E+03-0.199E+03
CGA:  27    -0.663380311837E+03   -0.13485E+01   -0.60816E+01  8424   0.218E+03-0.241E+03
CGA:  28    -0.663233751777E+03    0.14656E+00   -0.81375E+01  8424   0.162E+03-0.146E+03
CGA:  29    -0.665983050352E+03   -0.27493E+01   -0.50645E+01  8424   0.109E+03-0.163E+03
CGA:  30    -0.666677654922E+03   -0.69460E+00   -0.35641E+01  8424   0.526E+02-0.597E+02
CGA:  31    -0.667854520336E+03   -0.11769E+01   -0.11629E+01  8424   0.213E+01-0.525E+01
CGA:  32    -0.668012622490E+03   -0.15810E+00   -0.15866E+00  8424   0.244E+01 0.164E+00
CGA:  33    -0.668204612215E+03   -0.19199E+00   -0.19193E+00  8424   0.246E+01-0.466E-01
CGA:  34    -0.668392254951E+03   -0.18764E+00   -0.18533E+00  8424   0.673E+00-0.476E-01
CGA:  35    -0.668490988835E+03   -0.98734E-01   -0.87764E-01  8424   0.328E+00 0.177E+00
CGA:  36    -0.668549718472E+03   -0.58730E-01   -0.55242E-01  8424   0.378E+00 0.569E-01
CGA:  37    -0.668598009180E+03   -0.48291E-01   -0.49811E-01  8424   0.528E+00-0.472E-01
CGA:  38    -0.668637522835E+03   -0.39514E-01   -0.39548E-01  8424   0.303E+00-0.120E-01
CGA:  39    -0.668658317147E+03   -0.20794E-01   -0.21308E-01  8424   0.183E+00-0.208E-01
CGA:  40    -0.668681644997E+03   -0.23328E-01   -0.27004E-01  8424   0.210E+00-0.479E-01
CGA:  41    -0.668673281807E+03    0.83632E-02   -0.13822E-01  8424   0.139E+01-0.281E+00
CGA:  42    -0.668783275990E+03   -0.10999E+00   -0.13654E+00  8424   0.376E+00-0.767E-01
CGA:  43    -0.668858135582E+03   -0.74860E-01   -0.75840E-01  8424   0.249E+00-0.164E-01
CGA:  44    -0.668938261348E+03   -0.80126E-01   -0.79797E-01  8424   0.188E+00-0.530E-02
CGA:  45    -0.669002827309E+03   -0.64566E-01   -0.82547E-01  8424   0.258E+00-0.595E-01
CGA:  46    -0.669041884377E+03   -0.39057E-01   -0.42799E-01  8424   0.136E+00-0.641E-01
CGA:  47    -0.669071667323E+03   -0.29783E-01   -0.41090E-01  8424   0.162E+00-0.520E-01
CGA:  48    -0.669095260045E+03   -0.23593E-01   -0.25539E-01  8424   0.890E-01-0.364E-01
CGA:  49    -0.669114909249E+03   -0.19649E-01   -0.22142E-01  8424   0.754E-01-0.210E-01
CGA:  50    -0.669131203655E+03   -0.16294E-01   -0.17649E-01  8424   0.579E-01-0.142E-01
CGA:  51    -0.669143581148E+03   -0.12377E-01   -0.12464E-01  8424   0.328E-01-0.174E-02
CGA:  52    -0.669151518910E+03   -0.79378E-02   -0.78006E-02  8424   0.218E-01 0.495E-02
CGA:  53    -0.669158362776E+03   -0.68439E-02   -0.66293E-02  8424   0.135E-01 0.466E-02
CGA:  54    -0.669163420818E+03   -0.50580E-02   -0.47495E-02  8424   0.114E-01 0.446E-02
CGA:  55    -0.669167297124E+03   -0.38763E-02   -0.37541E-02  8424   0.637E-02 0.513E-02
CGA:  56    -0.669170137637E+03   -0.28405E-02   -0.26131E-02  8424   0.627E-02 0.392E-02
CGA:  57    -0.669171737610E+03   -0.16000E-02   -0.15955E-02  8424   0.485E-02 0.160E-03
CGA:  58    -0.669174469852E+03   -0.27322E-02   -0.23772E-02  8424   0.447E-02 0.138E-02
CGA:  59    -0.669179680301E+03   -0.52104E-02   -0.52285E-02  8424   0.143E-01-0.202E-03
CGA:  60    -0.669187012615E+03   -0.73323E-02   -0.88175E-02  8424   0.342E-01-0.451E-02
CGA:  61    -0.669193948211E+03   -0.69356E-02   -0.69424E-02  8424   0.296E-01-0.554E-02
CGA:  62    -0.669200360769E+03   -0.64126E-02   -0.62594E-02  8424   0.280E-01-0.467E-02
CGA:  63    -0.669208015956E+03   -0.76552E-02   -0.79343E-02  8424   0.294E-01-0.814E-02
CGA:  64    -0.669212918240E+03   -0.49023E-02   -0.44453E-02  8424   0.239E-01-0.715E-02
CGA:  65    -0.669217558165E+03   -0.46399E-02   -0.43883E-02  8424   0.207E-01-0.692E-02
CGA:  66    -0.669220550226E+03   -0.29921E-02   -0.26526E-02  8424   0.142E-01-0.393E-02
CGA:  67    -0.669223375369E+03   -0.28251E-02   -0.27783E-02  8424   0.174E-01-0.181E-02
CGA:  68    -0.669227185843E+03   -0.38105E-02   -0.37963E-02  8424   0.127E-01-0.179E-02
CGA:  69    -0.669229239782E+03   -0.20539E-02   -0.20215E-02  8424   0.744E-02-0.871E-03
CGA:  70    -0.669231024673E+03   -0.17849E-02   -0.17842E-02  8424   0.766E-02-0.352E-03
CGA:  71    -0.669233034961E+03   -0.20103E-02   -0.20123E-02  8424   0.811E-02-0.112E-02
CGA:  72    -0.669235406666E+03   -0.23717E-02   -0.28408E-02  8424   0.101E-01-0.428E-02
CGA:  73    -0.669238484386E+03   -0.30777E-02   -0.31121E-02  8424   0.861E-02-0.127E-02
CGA:  74    -0.669241522531E+03   -0.30381E-02   -0.54808E-02  8424   0.168E-01-0.547E-02
CGA:  75    -0.669245023239E+03   -0.35007E-02   -0.35213E-02  8424   0.533E-02 0.258E-03
CGA:  76    -0.669246837009E+03   -0.18138E-02   -0.18700E-02  8424   0.306E-02-0.122E-02
CGA:  77    -0.669244441996E+03    0.23950E-02   -0.17309E-02  8424   0.484E-01-0.472E-02
CGA:  78    -0.669252880110E+03   -0.84381E-02   -0.81321E-02  8424   0.945E-02-0.152E-02
CGA:  79    -0.669256079873E+03   -0.31998E-02   -0.31150E-02  8424   0.301E-02-0.453E-03
CGA:  80    -0.669257618991E+03   -0.15391E-02   -0.15798E-02  8424   0.424E-02-0.135E-02
CGA:  81    -0.669256877640E+03    0.74135E-03   -0.27654E-02  8424   0.341E-01-0.546E-02
CGA:  82    -0.669263326169E+03   -0.64485E-02   -0.61147E-02  8424   0.800E-02-0.110E-02
CGA:  83    -0.669266590146E+03   -0.32640E-02   -0.31426E-02  8424   0.416E-02-0.933E-03
CGA:  84    -0.669268410489E+03   -0.18203E-02   -0.16609E-02  8424   0.515E-02-0.206E-02
CGA:  85    -0.669269781449E+03   -0.13710E-02   -0.13522E-02  8424   0.854E-02-0.323E-02
CGA:  86    -0.669272455754E+03   -0.26743E-02   -0.24081E-02  8424   0.473E-02-0.111E-02
CGA:  87    -0.669274059821E+03   -0.16041E-02   -0.14462E-02  8424   0.333E-02-0.981E-03
CGA:  88    -0.669269446324E+03    0.46135E-02   -0.40021E-02  8424   0.513E-01-0.865E-02
CGA:  89    -0.669278520011E+03   -0.90737E-02   -0.90977E-02  8424   0.975E-02 0.546E-03
CGA:  90    -0.669282135524E+03   -0.36155E-02   -0.33119E-02  8424   0.552E-02-0.153E-02
CGA:  91    -0.669284599968E+03   -0.24644E-02   -0.24736E-02  8424   0.357E-02-0.209E-02
CGA:  92    -0.669283786963E+03    0.81300E-03   -0.21988E-02  8424   0.390E-01-0.657E-02
CGA:  93    -0.669289297192E+03   -0.55102E-02   -0.56369E-02  8424   0.359E-02 0.603E-03
CGA:  94    -0.669291389298E+03   -0.20921E-02   -0.24161E-02  8424   0.800E-02-0.247E-02
CGA:  95    -0.669292973519E+03   -0.15842E-02   -0.14886E-02  8424   0.145E-02-0.266E-03
CGA:  96    -0.669284760353E+03    0.82132E-02   -0.26789E-02  8424   0.823E-01-0.786E-02
CGA:  97    -0.669297098769E+03   -0.12338E-01   -0.12503E-01  8424   0.865E-02 0.145E-02
CGA:  98    -0.669299761415E+03   -0.26626E-02   -0.23166E-02  8424   0.991E-03-0.115E-02
CGA:  99    -0.669301084078E+03   -0.13227E-02    0.60175E-03  8424   0.184E-02-0.109E-03
CGA: 100    -0.669305091072E+03   -0.40070E-02    0.37261E-03  8424   0.251E-02 0.380E-03
CGA: 101    -0.669312265526E+03   -0.71745E-02    0.73239E-03  8424   0.209E-02 0.104E-02
CGA: 102    -0.669319537546E+03   -0.72720E-02    0.66418E-03  8424   0.360E-02 0.587E-03
CGA: 103    -0.669333635982E+03   -0.14098E-01    0.71862E-03  8424   0.310E-02 0.149E-02
CGA: 104    -0.669347415471E+03   -0.13779E-01    0.65354E-03  8424   0.283E-02 0.988E-03
CGA: 105    -0.669360258352E+03   -0.12843E-01    0.48582E-03  8424   0.664E-02-0.891E-03
CGA: 106    -0.669390874927E+03   -0.30617E-01    0.24625E-03  8424   0.902E-02-0.333E-02
CGA: 107    -0.669392812575E+03   -0.19376E-02   -0.19144E-02  8424   0.156E-02-0.744E-04
CGA: 108    -0.669393334704E+03   -0.52213E-03   -0.50682E-03  8424   0.565E-03-0.773E-04
CGA: 109    -0.669393518035E+03   -0.18333E-03   -0.18981E-03  8424   0.338E-03 0.353E-04
CGA: 110    -0.669393754723E+03   -0.23669E-03   -0.25253E-03  8424   0.968E-03-0.946E-04
CGA: 111    -0.669394233103E+03   -0.47838E-03   -0.53178E-03  8424   0.257E-02-0.352E-03
CGA: 112    -0.669374423654E+03    0.19809E-01   -0.11406E-01  8424   0.900E-01-0.133E-01
CGA: 113    -0.669395980054E+03   -0.21556E-01   -0.20856E-01  8424   0.281E-01-0.891E-03
CGA: 114    -0.669406184262E+03   -0.10204E-01   -0.98190E-02  8424   0.186E-01-0.681E-03
CGA: 115    -0.669414362658E+03   -0.81784E-02   -0.74645E-02  8424   0.909E-02-0.148E-02
CGA: 116    -0.669418442319E+03   -0.40797E-02   -0.35716E-02  8424   0.491E-02-0.114E-02
CGA: 117    -0.669421847550E+03   -0.34052E-02   -0.32053E-02  8424   0.802E-02-0.157E-02
CGA: 118    -0.669424253377E+03   -0.24058E-02   -0.17345E-02  8424   0.403E-02-0.130E-02
CGA: 119    -0.669427140698E+03   -0.28873E-02   -0.29903E-02  8424   0.960E-02-0.213E-02
CGA: 120    -0.669429146670E+03   -0.20060E-02   -0.21201E-02  8424   0.232E-02 0.210E-03
CGA: 121    -0.669430175775E+03   -0.10291E-02   -0.10554E-02  8424   0.182E-02 0.848E-04
CGA: 122    -0.669431194352E+03   -0.10186E-02   -0.10211E-02  8424   0.134E-02 0.204E-04
CGA: 123    -0.669431759601E+03   -0.56525E-03   -0.55165E-03  8424   0.133E-02-0.424E-04
CGA: 124    -0.669432732454E+03   -0.97285E-03   -0.11083E-02  8424   0.580E-02-0.139E-02
CGA: 125    -0.669433969104E+03   -0.12366E-02   -0.11547E-02  8424   0.164E-02-0.123E-03
CGA: 126    -0.669435106600E+03   -0.11375E-02   -0.99823E-03  8424   0.412E-02-0.126E-02
CGA: 127    -0.669435937973E+03   -0.83137E-03   -0.75618E-03  8424   0.870E-03-0.120E-03
CGA: 128    -0.669436506584E+03   -0.56861E-03   -0.63382E-03  8424   0.479E-02-0.129E-02
CGA: 129    -0.669437353462E+03   -0.84688E-03   -0.81496E-03  8424   0.785E-03-0.363E-04
CGA: 130    -0.669437883927E+03   -0.53047E-03   -0.51416E-03  8424   0.307E-02-0.102E-02
CGA: 131    -0.669438499363E+03   -0.61544E-03   -0.57209E-03  8424   0.625E-03-0.781E-04
CGA: 132    -0.669438373865E+03    0.12550E-03   -0.67228E-03  8424   0.101E-01-0.177E-02
CGA: 133    -0.669439964384E+03   -0.15905E-02   -0.16142E-02  8424   0.121E-02 0.125E-03
CGA: 134    -0.669440572061E+03   -0.60768E-03   -0.45443E-03  8424   0.778E-03-0.555E-03
CGA: 135    -0.669441551664E+03   -0.97960E-03    0.16152E-03  8424   0.990E-03-0.318E-04
CGA: 136    -0.669443680250E+03   -0.21286E-02    0.39102E-03  8424   0.172E-02-0.769E-04
CGA: 137    -0.669447598339E+03   -0.39181E-02    0.52944E-03  8424   0.272E-02-0.198E-03
CGA: 138    -0.669455069614E+03   -0.74713E-02    0.52666E-03  8424   0.404E-02-0.182E-03
CGA: 139    -0.669467601073E+03   -0.12531E-01    0.73587E-03  8424   0.322E-02-0.174E-03
CGA: 140    -0.669477574187E+03   -0.99731E-02    0.63064E-03  8424   0.926E-02-0.283E-02
CGA: 141    -0.669478803813E+03   -0.12296E-02   -0.13580E-02  8424   0.804E-03 0.356E-03
CGA: 142    -0.669479095049E+03   -0.29124E-03   -0.27816E-03  8424   0.215E-03-0.493E-04
CGA: 143    -0.669479342797E+03   -0.24775E-03    0.21299E-02  8424   0.224E-03 0.844E-04
CGA: 144    -0.669477177521E+03    0.21653E-02   -0.11794E-02  8424   0.298E-01-0.113E-02
CGA: 145    -0.669481889805E+03   -0.47123E-02   -0.44721E-02  8424   0.189E-02-0.169E-02
CGA: 146    -0.669482446470E+03   -0.55667E-03   -0.48114E-03  8424   0.280E-03-0.143E-03
CGA: 147    -0.669483329397E+03   -0.88293E-03    0.18464E-03  8424   0.166E-02-0.233E-03
CGA: 148    -0.669483530982E+03   -0.20158E-03   -0.24359E-03  8424   0.281E-03 0.261E-04
CGA: 149    -0.669482469241E+03    0.10617E-02   -0.52634E-03  8424   0.498E-02-0.475E-03
CGA: 150    -0.669481940838E+03    0.52840E-03   -0.14766E-02  8424   0.702E-02 0.150E-02
CGA: 151    -0.669467715239E+03    0.14226E-01   -0.15652E-02  8424   0.286E-01 0.921E-02
CGA: 152    -0.669463603373E+03    0.41119E-02   -0.90822E-02  8424   0.451E-01 0.179E-01
CGA: 153    -0.669469800130E+03   -0.61968E-02   -0.17158E-01  8424   0.336E-01 0.878E-02
CGA: 154    -0.669452416236E+03    0.17384E-01   -0.89257E-02  8424   0.531E-01 0.278E-01
CGA: 155    -0.669458593794E+03   -0.61776E-02   -0.19671E-01  8424   0.482E-01 0.277E-01
CGA: 156    -0.669465990878E+03   -0.73971E-02   -0.19219E-01  8424   0.351E-01 0.193E-01
CGA: 157    -0.669474635546E+03   -0.86447E-02   -0.17565E-01  8424   0.183E-01 0.109E-01
CGA: 158    -0.669470999321E+03    0.36362E-02   -0.54087E-02  8424   0.240E-01 0.182E-01
CGA: 159    -0.669482135205E+03   -0.11136E-01   -0.12833E-01  8424   0.100E-01 0.237E-02
CGA: 160    -0.669484393753E+03   -0.22585E-02   -0.28047E-02  8424   0.618E-02 0.306E-04
CGA: 161    -0.669486663247E+03   -0.22695E-02   -0.23058E-02  8424   0.157E-02-0.116E-02
CGA: 162    -0.669487036654E+03   -0.37341E-03   -0.29453E-03  8424   0.856E-03-0.178E-03
CGA: 163    -0.669488136945E+03   -0.11003E-02    0.31391E-02  8424   0.642E-03 0.212E-04
CGA: 164    -0.669488588744E+03   -0.45180E-03   -0.33211E-03  8424   0.249E-02-0.661E-03
CGA: 165    -0.669488991472E+03   -0.40273E-03   -0.31233E-03  8424   0.214E-03-0.177E-03
CGA: 166    -0.669489369531E+03   -0.37806E-03    0.12786E-03  8424   0.411E-03 0.106E-04
CGA: 167    -0.669490209533E+03   -0.84000E-03    0.25853E-03  8424   0.138E-02-0.578E-03
CGA: 168    -0.669490366096E+03   -0.15656E-03   -0.17049E-03  8424   0.190E-03 0.309E-04
CGA: 169    -0.669490764012E+03   -0.39792E-03    0.87128E-04  8424   0.186E-03 0.626E-05
CGA: 170    -0.669491329107E+03   -0.56509E-03    0.41438E-04  8424   0.605E-03-0.209E-03
CGA: 171    -0.669491454777E+03   -0.12567E-03   -0.11483E-03  8424   0.121E-03-0.257E-04
CGA: 172    -0.669491821958E+03   -0.36718E-03    0.20049E-04  8424   0.212E-03-0.313E-04
CGA: 173    -0.669492439697E+03   -0.61774E-03    0.19828E-04  8424   0.715E-03-0.247E-03
CGA: 174    -0.669492692064E+03   -0.25237E-03   -0.16713E-03  8424   0.519E-03-0.241E-03
CGA: 175    -0.669491824817E+03    0.86725E-03   -0.51513E-03  8424   0.846E-02-0.150E-02
CGA: 176    -0.669493297108E+03   -0.14723E-02   -0.13233E-02  8424   0.213E-02-0.369E-03
CGA: 177    -0.669494052606E+03   -0.75550E-03   -0.71284E-03  8424   0.418E-03-0.175E-03
CGA: 178    -0.669494249899E+03   -0.19729E-03   -0.12378E-03  8424   0.360E-03-0.284E-03
CGA: 179    -0.669494351373E+03   -0.10147E-03   -0.70911E-04  8424   0.115E-03-0.823E-04
CGA: 180    -0.669494660421E+03   -0.30905E-03    0.11394E-04  8424   0.352E-03-0.724E-04
CGA: 181    -0.669494723558E+03   -0.63137E-04   -0.49879E-04  8424   0.504E-04-0.323E-04
CGA: 182    -0.669494975206E+03   -0.25165E-03    0.29036E-05  8424   0.110E-03-0.364E-05
CGA: 183    -0.669495711855E+03   -0.73665E-03    0.46622E-05  8424   0.672E-04 0.568E-04
CGA: 184    -0.669495939139E+03   -0.22728E-03    0.81201E-05  8424   0.659E-04-0.579E-06
CGA: 185    -0.669496284444E+03   -0.34531E-03    0.43504E-05  8424   0.265E-03-0.416E-04
CGA: 186    -0.669496428198E+03   -0.14375E-03   -0.76743E-04  8424   0.557E-03-0.279E-03
CGA: 187    -0.669496495658E+03   -0.67460E-04   -0.63548E-04  8424   0.277E-04-0.902E-05
CGA: 188    -0.669496696724E+03   -0.20107E-03    0.10615E-05  8424   0.255E-04 0.211E-04
CGA: 189    -0.669496877728E+03   -0.18100E-03    0.10325E-05  8424   0.421E-04 0.133E-04
CGA: 190    -0.669497060111E+03   -0.18238E-03    0.31317E-05  8424   0.158E-03-0.307E-04
CGA: 191    -0.669497130512E+03   -0.70401E-04   -0.42814E-04  8424   0.186E-03-0.121E-03
CGA: 192    -0.669497219232E+03   -0.88720E-04   -0.91227E-04  8424   0.162E-02-0.483E-03
CGA: 193    -0.669497386375E+03   -0.16714E-03   -0.18452E-03  8424   0.310E-04 0.501E-04
CGA: 194    -0.669497553644E+03   -0.16727E-03    0.16306E-05  8424   0.762E-04-0.436E-05
CGA: 195    -0.669498145137E+03   -0.59149E-03    0.17738E-05  8424   0.140E-03 0.502E-04
CGA: 196    -0.669498001238E+03    0.14390E-03   -0.13827E-03  8424   0.263E-02-0.545E-03
CGA: 197    -0.669498567607E+03   -0.56637E-03   -0.49582E-03  8424   0.128E-03-0.232E-03
CGA: 198    -0.669498589110E+03   -0.21503E-04   -0.75188E-04  8424   0.139E-02-0.326E-03
CGA: 199    -0.669498851774E+03   -0.26266E-03   -0.20066E-03  8424   0.647E-04-0.183E-03
CGA: 200    -0.669498974754E+03   -0.12298E-03    0.99298E-05  8424   0.231E-03-0.590E-04
   1 F= -.66949897E+03 E0= -.66949897E+03  d E =-.669499E+03  mag=     2.0000
       N       E                     dE             d eps       ncg     rms          ort
SDA:   1    -0.669505652630E+03   -0.68009E-02    0.00000E+00  8424   0.178E-01 0.000E+00
CGA:   2    -0.669508099818E+03   -0.24472E-02   -0.23055E-02  8424   0.419E-02-0.546E-03
CGA:   3    -0.669509226938E+03   -0.11271E-02   -0.10763E-02  8424   0.160E-02-0.288E-03
CGA:   4    -0.669509598873E+03   -0.37193E-03   -0.31472E-03  8424   0.576E-03-0.257E-03
CGA:   5    -0.669509755702E+03   -0.15683E-03   -0.10295E-03  8424   0.334E-03-0.257E-03
CGA:   6    -0.669509961508E+03   -0.20581E-03    0.11037E-03  8424   0.531E-03-0.242E-03
CGA:   7    -0.669510078783E+03   -0.11728E-03   -0.91466E-04  8424   0.180E-03-0.108E-03
CGA:   8    -0.669510237384E+03   -0.15860E-03    0.76001E-04  8424   0.200E-03-0.970E-04
CGA:   9    -0.669510317674E+03   -0.80290E-04   -0.79586E-04  8424   0.610E-03-0.285E-03
CGA:  10    -0.669510439526E+03   -0.12185E-03   -0.95842E-04  8424   0.531E-04-0.107E-03
CGA:  11    -0.669510572669E+03   -0.13314E-03    0.29197E-05  8424   0.446E-04-0.630E-05
CGA:  12    -0.669510804544E+03   -0.23187E-03    0.11556E-05  8424   0.221E-04 0.300E-04
CGA:  13    -0.669510928979E+03   -0.12444E-03    0.68369E-06  8424   0.240E-04 0.991E-05
CGA:  14    -0.669511169985E+03   -0.24101E-03    0.85618E-06  8424   0.282E-04 0.254E-04
CGA:  15    -0.669511295025E+03   -0.12504E-03    0.11594E-05  8424   0.490E-04-0.101E-05
CGA:  16    -0.669511597122E+03   -0.30210E-03    0.12674E-05  8424   0.537E-04 0.154E-04
CGA:  17    -0.669512060602E+03   -0.46348E-03    0.18384E-05  8424   0.534E-04 0.532E-04
CGA:  18    -0.669512184436E+03   -0.12383E-03    0.52287E-05  8424   0.186E-03-0.544E-04
CGA:  19    -0.669512218547E+03   -0.34111E-04   -0.25551E-04  8424   0.273E-04-0.341E-04
CGA:  20    -0.669512348206E+03   -0.12966E-03    0.62164E-06  8424   0.211E-04 0.997E-05
CGA:  21    -0.669512539875E+03   -0.19167E-03    0.68780E-06  8424   0.180E-04 0.214E-04
CGA:  22    -0.669512651069E+03   -0.11119E-03    0.47115E-06  8424   0.476E-04-0.526E-06
CGA:  23    -0.669513027801E+03   -0.37673E-03    0.88244E-06  8424   0.486E-04 0.435E-04
CGA:  24    -0.669513076759E+03   -0.48958E-04    0.26849E-04  8424   0.249E-03-0.786E-04
CGA:  25    -0.669513170658E+03   -0.93899E-04   -0.53922E-04  8424   0.308E-03-0.251E-03
CGA:  26    -0.669513206005E+03   -0.35347E-04   -0.33248E-04  8424   0.133E-04-0.797E-05
CGA:  27    -0.669513303474E+03   -0.97469E-04    0.23807E-06  8424   0.125E-04 0.116E-04
CGA:  28    -0.669513395614E+03   -0.92140E-04    0.23672E-06  8424   0.155E-04 0.951E-05
CGA:  29    -0.669513485227E+03   -0.89613E-04    0.38588E-06  8424   0.302E-04 0.254E-05
CGA:  30    -0.669513751361E+03   -0.26613E-03    0.64554E-06  8424   0.218E-04 0.325E-04
CGA:  31    -0.669513843121E+03   -0.91760E-04    0.78861E-06  8424   0.406E-04-0.740E-05
CGA:  32    -0.669514095678E+03   -0.25256E-03    0.38823E-06  8424   0.645E-04 0.208E-04
CGA:  33    -0.669514159741E+03   -0.64064E-04    0.28579E-04  8424   0.985E-04-0.592E-04
CGA:  34    -0.669514253919E+03   -0.94178E-04    0.50290E-04  8424   0.162E-03-0.104E-03
CGA:  35    -0.669514310176E+03   -0.56256E-04   -0.47731E-04  8424   0.170E-03-0.140E-03
CGA:  36    -0.669514370868E+03   -0.60692E-04   -0.56563E-04  8424   0.344E-03-0.216E-03
CGA:  37    -0.669514457950E+03   -0.87082E-04   -0.65043E-04  8424   0.810E-04-0.137E-03
CGA:  38    -0.669514544252E+03   -0.86302E-04    0.52963E-05  8424   0.383E-04-0.956E-05
CGA:  39    -0.669514695257E+03   -0.15100E-03    0.10488E-05  8424   0.351E-04-0.278E-05
CGA:  40    -0.669514880543E+03   -0.18529E-03    0.76274E-06  8424   0.137E-04 0.198E-04
CGA:  41    -0.669514955233E+03   -0.74691E-04    0.34019E-06  8424   0.173E-04 0.259E-05
CGA:  42    -0.669515129217E+03   -0.17398E-03    0.30940E-06  8424   0.152E-04 0.191E-04
CGA:  43    -0.669515204787E+03   -0.75570E-04    0.41600E-06  8424   0.153E-04 0.174E-05
CGA:  44    -0.669515354962E+03   -0.15017E-03    0.24759E-06  8424   0.150E-04 0.158E-04
CGA:  45    -0.669515428357E+03   -0.73396E-04    0.42155E-06  8424   0.118E-04 0.298E-05
CGA:  46    -0.669515556849E+03   -0.12849E-03    0.19606E-06  8424   0.124E-04 0.135E-04
CGA:  47    -0.669515629855E+03   -0.73006E-04    0.28202E-06  8424   0.918E-05 0.508E-05
CGA:  48    -0.669515753746E+03   -0.12389E-03    0.17061E-06  8424   0.106E-04 0.124E-04
CGA:  49    -0.669515823145E+03   -0.69399E-04    0.21273E-06  8424   0.803E-05 0.595E-05
CGA:  50    -0.669515892507E+03   -0.69362E-04    0.11883E-06  8424   0.740E-05 0.696E-05
CGA:  51    -0.669515961464E+03   -0.68957E-04    0.10069E-06  8424   0.718E-05 0.709E-05
CGA:  52    -0.669516029445E+03   -0.67981E-04    0.96228E-07  8424   0.706E-05 0.704E-05
CGA:  53    -0.669516097734E+03   -0.68290E-04    0.92291E-07  8424   0.696E-05 0.696E-05
CGA:  54    -0.669516164607E+03   -0.66872E-04    0.91562E-07  8424   0.686E-05 0.685E-05
CGA:  55    -0.669516232288E+03   -0.67681E-04    0.87953E-07  8424   0.679E-05 0.674E-05
CGA:  56    -0.669516297671E+03   -0.65383E-04    0.89234E-07  8424   0.676E-05 0.660E-05
CGA:  57    -0.669516365310E+03   -0.67639E-04    0.85184E-07  8424   0.687E-05 0.638E-05
CGA:  58    -0.669516427872E+03   -0.62561E-04    0.95908E-07  8424   0.751E-05 0.589E-05
CGA:  59    -0.669516497260E+03   -0.69389E-04    0.10309E-06  8424   0.101E-04 0.440E-05
CGA:  60    -0.669516552124E+03   -0.54864E-04    0.24847E-06  8424   0.200E-04-0.828E-06
CGA:  61    -0.669516742128E+03   -0.19000E-03    0.22251E-06  8424   0.221E-04 0.177E-04
CGA:  62    -0.669516818496E+03   -0.76368E-04    0.93372E-06  8424   0.661E-04-0.250E-04
CGA:  63    -0.669516836940E+03   -0.18444E-04   -0.13059E-04  8424   0.368E-04-0.371E-04
CGA:  64    -0.669516910452E+03   -0.73512E-04    0.31252E-05  8424   0.124E-03-0.545E-04
CGA:  65    -0.669516929679E+03   -0.19227E-04   -0.16330E-04  8424   0.914E-05-0.142E-04
CGA:  66    -0.669516994608E+03   -0.64930E-04    0.11618E-06  8424   0.755E-05 0.455E-05
CGA:  67    -0.669517103029E+03   -0.10842E-03    0.13406E-06  8424   0.580E-05 0.102E-04
CGA:  68    -0.669517157554E+03   -0.54525E-04    0.70183E-07  8424   0.681E-05 0.460E-05
CGA:  69    -0.669517215359E+03   -0.57806E-04    0.92076E-07  8424   0.109E-04 0.237E-05
CGA:  70    -0.669517361247E+03   -0.14589E-03    0.16849E-06  8424   0.643E-05 0.138E-04
CGA:  71    -0.669517409752E+03   -0.48505E-04    0.98663E-07  8424   0.936E-05 0.248E-05
CGA:  72    -0.669517542971E+03   -0.13322E-03    0.14286E-06  8424   0.605E-05 0.123E-04
CGA:  73    -0.669517602604E+03   -0.59634E-04    0.69585E-07  8424   0.788E-05 0.265E-05
CGA:  74    -0.669517722117E+03   -0.11951E-03    0.12107E-06  8424   0.564E-05 0.109E-04
CGA:  75    -0.669517765211E+03   -0.43094E-04    0.85318E-07  8424   0.667E-05 0.285E-05
CGA:  76    -0.669517826189E+03   -0.60978E-04    0.83062E-07  8424   0.852E-05 0.129E-05
CGA:  77    -0.669517940891E+03   -0.11470E-03    0.10126E-06  8424   0.735E-05 0.992E-05
CGA:  78    -0.669517976425E+03   -0.35534E-04    0.18616E-06  8424   0.912E-05 0.127E-06
CGA:  79    -0.669518085595E+03   -0.10917E-03    0.88292E-07  8424   0.882E-05 0.904E-05
CGA:  80    -0.669518150124E+03   -0.64529E-04    0.13994E-06  8424   0.103E-04-0.168E-05
CGA:  81    -0.669518254308E+03   -0.10418E-03    0.74585E-07  8424   0.107E-04 0.805E-05
CGA:  82    -0.669518279587E+03   -0.25279E-04    0.66646E-06  8424   0.116E-04-0.370E-05
CGA:  83    -0.669518374156E+03   -0.94569E-04    0.67784E-07  8424   0.120E-04 0.721E-05
CGA:  84    -0.669518442967E+03   -0.68811E-04    0.24791E-06  8424   0.116E-04-0.467E-05
CGA:  85    -0.669518532049E+03   -0.89082E-04    0.62464E-07  8424   0.111E-04 0.662E-05
CGA:  86    -0.669518553028E+03   -0.20979E-04    0.93806E-06  8424   0.968E-05-0.354E-05
CGA:  87    -0.669518635364E+03   -0.82336E-04    0.58584E-07  8424   0.860E-05 0.609E-05
CGA:  88    -0.669518698250E+03   -0.62885E-04    0.13679E-06  8424   0.693E-05-0.122E-05
CGA:  89    -0.669518774418E+03   -0.76168E-04    0.51844E-07  8424   0.624E-05 0.553E-05
CGA:  90    -0.669518801178E+03   -0.26760E-04    0.18134E-06  8424   0.487E-05 0.685E-06
CGA:  91    -0.669518875468E+03   -0.74290E-04    0.43678E-07  8424   0.480E-05 0.509E-05
CGA:  92    -0.669518927693E+03   -0.52225E-04    0.49717E-07  8424   0.379E-05 0.163E-05
CGA:  93    -0.669518999885E+03   -0.72192E-04    0.39512E-07  8424   0.405E-05 0.481E-05
CGA:  94    -0.669519030827E+03   -0.30941E-04    0.61230E-07  8424   0.327E-05 0.197E-05
CGA:  95    -0.669519101972E+03   -0.71145E-04    0.36705E-07  8424   0.361E-05 0.462E-05
CGA:  96    -0.669519148052E+03   -0.46080E-04    0.31594E-07  8424   0.296E-05 0.206E-05
CGA:  97    -0.669519180705E+03   -0.32653E-04    0.30226E-07  8424   0.277E-05 0.231E-05
CGA:  98    -0.669519223641E+03   -0.42936E-04    0.19718E-07  8424   0.268E-05 0.235E-05
CGA:  99    -0.669519257285E+03   -0.33644E-04    0.23800E-07  8424   0.262E-05 0.234E-05
CGA: 100    -0.669519298875E+03   -0.41590E-04    0.18258E-07  8424   0.259E-05 0.231E-05
CGA: 101    -0.669519332184E+03   -0.33308E-04    0.22416E-07  8424   0.257E-05 0.225E-05
CGA: 102    -0.669519373345E+03   -0.41161E-04    0.17677E-07  8424   0.257E-05 0.218E-05
CGA: 103    -0.669519405540E+03   -0.32195E-04    0.22834E-07  8424   0.258E-05 0.209E-05
CGA: 104    -0.669519446775E+03   -0.41235E-04    0.17883E-07  8424   0.263E-05 0.198E-05
CGA: 105    -0.669519477428E+03   -0.30653E-04    0.25365E-07  8424   0.272E-05 0.183E-05
CGA: 106    -0.669519518952E+03   -0.41525E-04    0.19744E-07  8424   0.288E-05 0.163E-05
CGA: 107    -0.669519547950E+03   -0.28997E-04    0.32275E-07  8424   0.313E-05 0.135E-05
CGA: 108    -0.669519621481E+03   -0.73531E-04    0.31915E-07  8424   0.271E-05 0.449E-05
CGA: 109    -0.669519663021E+03   -0.41540E-04    0.19571E-07  8424   0.289E-05 0.131E-05
CGA: 110    -0.669519733595E+03   -0.70573E-04    0.28738E-07  8424   0.256E-05 0.419E-05
CGA: 111    -0.669519759371E+03   -0.25776E-04    0.28757E-07  8424   0.269E-05 0.126E-05
CGA: 112    -0.669519827839E+03   -0.68468E-04    0.25893E-07  8424   0.242E-05 0.393E-05
CGA: 113    -0.669519868003E+03   -0.40164E-04    0.16028E-07  8424   0.250E-05 0.122E-05
CGA: 114    -0.669519891887E+03   -0.23884E-04    0.29743E-07  8424   0.260E-05 0.106E-05
CGA: 115    -0.669519957362E+03   -0.65475E-04    0.22975E-07  8424   0.238E-05 0.363E-05
CGA: 116    -0.669519997079E+03   -0.39717E-04    0.15775E-07  8424   0.246E-05 0.991E-06
CGA: 117    -0.669520060189E+03   -0.63110E-04    0.21081E-07  8424   0.228E-05 0.341E-05
CGA: 118    -0.669520082007E+03   -0.21818E-04    0.26996E-07  8424   0.232E-05 0.927E-06
CGA: 119    -0.669520143296E+03   -0.61289E-04    0.19153E-07  8424   0.217E-05 0.321E-05
CGA: 120    -0.669520181476E+03   -0.38181E-04    0.13596E-07  8424   0.220E-05 0.869E-06
CGA: 121    -0.669520240626E+03   -0.59150E-04    0.17552E-07  8424   0.207E-05 0.302E-05
CGA: 122    -0.669520260717E+03   -0.20091E-04    0.24256E-07  8424   0.208E-05 0.813E-06
CGA: 123    -0.669520318147E+03   -0.57430E-04    0.16036E-07  8424   0.197E-05 0.284E-05
CGA: 124    -0.669520354732E+03   -0.36584E-04    0.11685E-07  8424   0.197E-05 0.765E-06
CGA: 125    -0.669520410301E+03   -0.55569E-04    0.14689E-07  8424   0.188E-05 0.268E-05
CGA: 126    -0.669520428895E+03   -0.18594E-04    0.21468E-07  8424   0.186E-05 0.721E-06
CGA: 127    -0.669520482846E+03   -0.53951E-04    0.13470E-07  8424   0.178E-05 0.253E-05
CGA: 128    -0.669520517790E+03   -0.34944E-04    0.99440E-08  8424   0.176E-05 0.685E-06
CGA: 129    -0.669520570048E+03   -0.52258E-04    0.12357E-07  8424   0.169E-05 0.238E-05
CGA: 130    -0.669520587395E+03   -0.17346E-04    0.18524E-07  8424   0.166E-05 0.653E-06
CGA: 131    -0.669520638204E+03   -0.50809E-04    0.11341E-07  8424   0.159E-05 0.225E-05
CGA: 132    -0.669520671397E+03   -0.33193E-04    0.83384E-08  8424   0.155E-05 0.630E-06
CGA: 133    -0.669520720513E+03   -0.49117E-04    0.10437E-07  8424   0.150E-05 0.211E-05
CGA: 134    -0.669520736944E+03   -0.16431E-04    0.15334E-07  8424   0.145E-05 0.613E-06
CGA: 135    -0.669520784838E+03   -0.47894E-04    0.95464E-08  8424   0.140E-05 0.199E-05
CGA: 136    -0.669520816045E+03   -0.31207E-04    0.68580E-08  8424   0.135E-05 0.605E-06
CGA: 137    -0.669520862071E+03   -0.46025E-04    0.88176E-08  8424   0.131E-05 0.187E-05
CGA: 138    -0.669520878050E+03   -0.15980E-04    0.11920E-07  8424   0.124E-05 0.603E-06
CGA: 139    -0.669520923085E+03   -0.45034E-04    0.79938E-08  8424   0.121E-05 0.176E-05
CGA: 140    -0.669520951920E+03   -0.28836E-04    0.55311E-08  8424   0.114E-05 0.609E-06
CGA: 141    -0.669520967743E+03   -0.15823E-04    0.90645E-08  8424   0.112E-05 0.609E-06
CGA: 142    -0.669520996087E+03   -0.28343E-04    0.47841E-08  8424   0.111E-05 0.590E-06
CGA: 143    -0.669521011461E+03   -0.15374E-04    0.89081E-08  8424   0.111E-05 0.563E-06
CGA: 144    -0.669521039569E+03   -0.28108E-04    0.47660E-08  8424   0.112E-05 0.530E-06
CGA: 145    -0.669521082558E+03   -0.42989E-04    0.68603E-08  8424   0.105E-05 0.162E-05
CGA: 146    -0.669521097066E+03   -0.14508E-04    0.84731E-08  8424   0.106E-05 0.497E-06
CGA: 147    -0.669521139272E+03   -0.42206E-04    0.63035E-08  8424   0.996E-06 0.154E-05
CGA: 148    -0.669521166095E+03   -0.26823E-04    0.40157E-08  8424   0.101E-05 0.468E-06
CGA: 149    -0.669521206806E+03   -0.40711E-04    0.58600E-08  8424   0.944E-06 0.145E-05
CGA: 150    -0.669521220308E+03   -0.13502E-04    0.73164E-08  8424   0.961E-06 0.438E-06
CGA: 151    -0.669521260420E+03   -0.40112E-04    0.53543E-08  8424   0.894E-06 0.138E-05
CGA: 152    -0.669521285928E+03   -0.25508E-04    0.33939E-08  8424   0.912E-06 0.413E-06
CGA: 153    -0.669521324456E+03   -0.38528E-04    0.49952E-08  8424   0.847E-06 0.131E-05
CGA: 154    -0.669521337094E+03   -0.12638E-04    0.62806E-08  8424   0.866E-06 0.388E-06
CGA: 155    -0.669521375136E+03   -0.38043E-04    0.45391E-08  8424   0.802E-06 0.124E-05
CGA: 156    -0.669521399302E+03   -0.24166E-04    0.28808E-08  8424   0.819E-06 0.367E-06
CGA: 157    -0.669521435666E+03   -0.36364E-04    0.42385E-08  8424   0.760E-06 0.117E-05
CGA: 158    -0.669521447603E+03   -0.11937E-04    0.53395E-08  8424   0.774E-06 0.347E-06
CGA: 159    -0.669521483508E+03   -0.35905E-04    0.38240E-08  8424   0.719E-06 0.110E-05
CGA: 160    -0.669521506241E+03   -0.22733E-04    0.24585E-08  8424   0.725E-06 0.332E-06
CGA: 161    -0.669521540323E+03   -0.34082E-04    0.35604E-08  8424   0.680E-06 0.104E-05
CGA: 162    -0.669521551837E+03   -0.11514E-04    0.44195E-08  8424   0.676E-06 0.319E-06
CGA: 163    -0.669521585378E+03   -0.33541E-04    0.31749E-08  8424   0.642E-06 0.968E-06
CGA: 164    -0.669521606417E+03   -0.21039E-04    0.21128E-08  8424   0.622E-06 0.313E-06
CGA: 165    -0.669521637926E+03   -0.31509E-04    0.29302E-08  8424   0.604E-06 0.899E-06
CGA: 166    -0.669521649487E+03   -0.11561E-04    0.34571E-08  8424   0.567E-06 0.310E-06
CGA: 167    -0.669521669444E+03   -0.19956E-04    0.17362E-08  8424   0.550E-06 0.319E-06
CGA: 168    -0.669521680566E+03   -0.11123E-04    0.29800E-08  8424   0.545E-06 0.313E-06
CGA: 169    -0.669521700452E+03   -0.19886E-04    0.16110E-08  8424   0.546E-06 0.300E-06
CGA: 170    -0.669521710988E+03   -0.10536E-04    0.31010E-08  8424   0.552E-06 0.281E-06
CGA: 171    -0.669521731001E+03   -0.20013E-04    0.16409E-08  8424   0.562E-06 0.258E-06
CGA: 172    -0.669521761156E+03   -0.30155E-04    0.24318E-08  8424   0.523E-06 0.809E-06
CGA: 173    -0.669521770971E+03   -0.98147E-05    0.30542E-08  8424   0.536E-06 0.242E-06
   2 F= -.66952177E+03 E0= -.66952177E+03  d E =-.227962E-01  mag=     2.0000
       N       E                     dE             d eps       ncg     rms          ort
SDA:   1    -0.667535173080E+03    0.19866E+01    0.00000E+00  8424   0.666E+01 0.000E+00
CGA:   2    -0.668997481971E+03   -0.14623E+01   -0.14634E+01  8424   0.288E+01 0.320E-02
CGA:   3    -0.669573419815E+03   -0.57594E+00   -0.57585E+00  8424   0.849E+00-0.389E-03
CGA:   4    -0.669716103029E+03   -0.14268E+00   -0.14263E+00  8424   0.217E+00-0.546E-03
CGA:   5    -0.669753861778E+03   -0.37759E-01   -0.37741E-01  8424   0.436E-01-0.196E-03
CGA:   6    -0.669762510122E+03   -0.86483E-02   -0.86248E-02  8424   0.101E-01-0.237E-03
CGA:   7    -0.669764815022E+03   -0.23049E-02   -0.23099E-02  8424   0.314E-02 0.742E-04
CGA:   8    -0.669765579364E+03   -0.76434E-03   -0.77029E-03  8424   0.960E-03 0.123E-03
CGA:   9    -0.669765851733E+03   -0.27237E-03   -0.27309E-03  8424   0.338E-03 0.450E-04
CGA:  10    -0.669765938972E+03   -0.87239E-04   -0.90353E-04  8424   0.129E-03 0.926E-04
CGA:  11    -0.669765986679E+03   -0.47707E-04   -0.47621E-04  8424   0.606E-04 0.377E-04
CGA:  12    -0.669766006935E+03   -0.20256E-04   -0.20929E-04  8424   0.373E-04 0.336E-04
CGA:  13    -0.669766017546E+03   -0.10611E-04   -0.10634E-04  8424   0.226E-04 0.204E-04
CGA:  14    -0.669766032775E+03   -0.15229E-04    0.17989E-04  8424   0.199E-04 0.188E-04
CGA:  15    -0.669766040351E+03   -0.75761E-05   -0.66851E-05  8424   0.189E-04 0.176E-04
   3 F= -.66976604E+03 E0= -.66976604E+03  d E =-.244269E+00  mag=     2.0000
       N       E                     dE             d eps       ncg     rms          ort
SDA:   1    -0.661582626717E+03    0.81834E+01    0.00000E+00  8424   0.233E+02 0.000E+00
CGA:   2    -0.667254970995E+03   -0.56723E+01   -0.56747E+01  8424   0.106E+02 0.175E-01
CGA:   3    -0.669247846024E+03   -0.19929E+01   -0.19923E+01  8424   0.283E+01 0.795E-03
CGA:   4    -0.669735424570E+03   -0.48758E+00   -0.48754E+00  8424   0.742E+00-0.144E-02
CGA:   5    -0.669862741928E+03   -0.12732E+00   -0.12727E+00  8424   0.149E+00-0.786E-03
CGA:   6    -0.669892463632E+03   -0.29722E-01   -0.29679E-01  8424   0.362E-01-0.633E-03
CGA:   7    -0.669901013513E+03   -0.85499E-02   -0.85478E-02  8424   0.122E-01-0.812E-04
CGA:   8    -0.669904182202E+03   -0.31687E-02   -0.31700E-02  8424   0.425E-02 0.200E-03
CGA:   9    -0.669905464604E+03   -0.12824E-02   -0.12849E-02  8424   0.174E-02-0.816E-04
CGA:  10    -0.669906048787E+03   -0.58418E-03   -0.58515E-03  8424   0.797E-03-0.159E-04
CGA:  11    -0.669906355143E+03   -0.30636E-03   -0.34650E-03  8424   0.661E-03-0.244E-03
CGA:  12    -0.669906544350E+03   -0.18921E-03   -0.23172E-03  8424   0.757E-03-0.199E-03
CGA:  13    -0.669906872190E+03   -0.32784E-03    0.11353E-02  8424   0.536E-03 0.163E-03
CGA:  14    -0.669907279764E+03   -0.40757E-03    0.12100E-02  8424   0.331E-03 0.240E-03
CGA:  15    -0.669907607308E+03   -0.32754E-03    0.39678E-03  8424   0.225E-03 0.199E-03
CGA:  16    -0.669907762499E+03   -0.15519E-03    0.17645E-03  8424   0.147E-03 0.421E-04
CGA:  17    -0.669907915910E+03   -0.15341E-03    0.48951E-04  8424   0.981E-04 0.667E-04
CGA:  18    -0.669908108229E+03   -0.19232E-03    0.15704E-04  8424   0.795E-04 0.106E-03
CGA:  19    -0.669908212977E+03   -0.10475E-03    0.91085E-05  8424   0.730E-04 0.379E-04
CGA:  20    -0.669908368889E+03   -0.15591E-03    0.10506E-04  8424   0.555E-04 0.796E-04
CGA:  21    -0.669908451850E+03   -0.82960E-04    0.51236E-05  8424   0.468E-04 0.461E-04
CGA:  22    -0.669908539613E+03   -0.87763E-04    0.30486E-05  8424   0.459E-04 0.441E-04
CGA:  23    -0.669908613583E+03   -0.73971E-04    0.37610E-05  8424   0.462E-04 0.423E-04
CGA:  24    -0.669908706550E+03   -0.92966E-04    0.27164E-05  8424   0.483E-04 0.395E-04
CGA:  25    -0.669908768074E+03   -0.61524E-04    0.58911E-05  8424   0.551E-04 0.338E-04
CGA:  26    -0.669908874358E+03   -0.10628E-03    0.34396E-05  8424   0.731E-04 0.210E-04
CGA:  27    -0.669909057200E+03   -0.18284E-03    0.69115E-05  8424   0.514E-04 0.966E-04
CGA:  28    -0.669909105739E+03   -0.48539E-04    0.11884E-04  8424   0.664E-04 0.204E-04
CGA:  29    -0.669909293455E+03   -0.18772E-03    0.54243E-05  8424   0.476E-04 0.886E-04
CGA:  30    -0.669909395565E+03   -0.10211E-03    0.25665E-05  8424   0.584E-04 0.208E-04
CGA:  31    -0.669909560999E+03   -0.16543E-03    0.50913E-05  8424   0.440E-04 0.797E-04
CGA:  32    -0.669909614562E+03   -0.53563E-04    0.58369E-05  8424   0.477E-04 0.228E-04
CGA:  33    -0.669909718495E+03   -0.10393E-03    0.25143E-05  8424   0.574E-04 0.152E-04
CGA:  34    -0.669909878354E+03   -0.15986E-03    0.41796E-05  8424   0.469E-04 0.722E-04
CGA:  35    -0.669909923801E+03   -0.45446E-04    0.10168E-04  8424   0.509E-04 0.145E-04
CGA:  36    -0.669910083982E+03   -0.16018E-03    0.30821E-05  8424   0.452E-04 0.626E-04
CGA:  37    -0.669910176985E+03   -0.93003E-04    0.25800E-05  8424   0.412E-04 0.165E-04
CGA:  38    -0.669910306945E+03   -0.12996E-03    0.27426E-05  8424   0.413E-04 0.528E-04
CGA:  39    -0.669910368964E+03   -0.62019E-04    0.37897E-05  8424   0.326E-04 0.201E-04
CGA:  40    -0.669910497307E+03   -0.12834E-03    0.19657E-05  8424   0.367E-04 0.458E-04
CGA:  41    -0.669910572709E+03   -0.75402E-04    0.20988E-05  8424   0.280E-04 0.222E-04
CGA:  42    -0.669910637230E+03   -0.64521E-04    0.13719E-05  8424   0.262E-04 0.250E-04
CGA:  43    -0.669910710413E+03   -0.73183E-04    0.99468E-06  8424   0.255E-04 0.251E-04
CGA:  44    -0.669910773495E+03   -0.63082E-04    0.11386E-05  8424   0.251E-04 0.246E-04
CGA:  45    -0.669910847130E+03   -0.73635E-04    0.90226E-06  8424   0.249E-04 0.240E-04
CGA:  46    -0.669910906739E+03   -0.59609E-04    0.11593E-05  8424   0.250E-04 0.232E-04
CGA:  47    -0.669910983826E+03   -0.77086E-04    0.84182E-06  8424   0.257E-04 0.220E-04
CGA:  48    -0.669911035442E+03   -0.51617E-04    0.15183E-05  8424   0.277E-04 0.199E-04
CGA:  49    -0.669911121370E+03   -0.85928E-04    0.92954E-06  8424   0.327E-04 0.158E-04
CGA:  50    -0.669911155962E+03   -0.34592E-04    0.57757E-05  8424   0.440E-04 0.746E-05
CGA:  51    -0.669911313147E+03   -0.15719E-03    0.19610E-05  8424   0.348E-04 0.525E-04
CGA:  52    -0.669911410524E+03   -0.97377E-04    0.13214E-05  8424   0.502E-04 0.101E-05
CGA:  53    -0.669911566579E+03   -0.15605E-03    0.17867E-05  8424   0.462E-04 0.503E-04
CGA:  54    -0.669911576497E+03   -0.99182E-05   -0.98056E-05  8424   0.370E-04-0.161E-05
   4 F= -.66991158E+03 E0= -.66991158E+03  d E =-.145536E+00  mag=     2.0000
       N       E                     dE             d eps       ncg     rms          ort
SDA:   1    -0.669496990474E+03    0.41458E+00    0.00000E+00  8424   0.136E+01 0.000E+00
CGA:   2    -0.669791448895E+03   -0.29446E+00   -0.29458E+00  8424   0.578E+00 0.134E-02
CGA:   3    -0.669910008394E+03   -0.11856E+00   -0.11844E+00  8424   0.177E+00-0.142E-02
CGA:   4    -0.669939752274E+03   -0.29744E-01   -0.29723E-01  8424   0.444E-01-0.223E-03
CGA:   5    -0.669947337124E+03   -0.75849E-02   -0.75758E-02  8424   0.879E-02-0.987E-04
CGA:   6    -0.669949195211E+03   -0.18581E-02   -0.18341E-02  8424   0.224E-02-0.406E-03
CGA:   7    -0.669949700740E+03   -0.50553E-03   -0.50248E-03  8424   0.731E-03-0.102E-03
CGA:   8    -0.669949902393E+03   -0.20165E-03   -0.20558E-03  8424   0.330E-03-0.128E-03
CGA:   9    -0.669949876190E+03    0.26203E-04   -0.20276E-03  8424   0.149E-02-0.480E-03
CGA:  10    -0.669950113268E+03   -0.23708E-03   -0.24362E-03  8424   0.184E-03 0.517E-04
CGA:  11    -0.669950002603E+03    0.11066E-03   -0.19277E-03  8424   0.145E-02-0.417E-03
CGA:  12    -0.669950272817E+03   -0.27021E-03   -0.28191E-03  8424   0.194E-03 0.925E-04
CGA:  13    -0.669949962498E+03    0.31032E-03   -0.23151E-03  8424   0.274E-02-0.671E-03
CGA:  14    -0.669950361697E+03   -0.39920E-03   -0.45799E-03  8424   0.421E-03 0.315E-03
CGA:  15    -0.669950532786E+03   -0.17109E-03   -0.18655E-03  8424   0.308E-03-0.294E-03
CGA:  16    -0.669950566752E+03   -0.33967E-04   -0.46774E-04  8424   0.554E-04 0.655E-04
CGA:  17    -0.669950619494E+03   -0.52741E-04    0.69376E-04  8424   0.373E-04-0.998E-05
CGA:  18    -0.669950693257E+03   -0.73763E-04    0.20023E-05  8424   0.476E-04 0.163E-04
CGA:  19    -0.669950814720E+03   -0.12146E-03    0.70777E-05  8424   0.382E-04 0.418E-04
CGA:  20    -0.669950857142E+03   -0.42423E-04    0.99872E-05  8424   0.186E-04 0.102E-04
CGA:  21    -0.669950913337E+03   -0.56195E-04    0.15628E-05  8424   0.191E-04 0.179E-04
CGA:  22    -0.669950948391E+03   -0.35054E-04    0.18775E-05  8424   0.167E-04 0.115E-04
CGA:  23    -0.669950986299E+03   -0.37908E-04    0.11978E-05  8424   0.225E-04 0.840E-05
CGA:  24    -0.669951013929E+03   -0.27629E-04    0.46579E-05  8424   0.455E-04-0.393E-05
CGA:  25    -0.669951118095E+03   -0.10417E-03    0.20360E-05  8424   0.584E-04 0.356E-04
CGA:  26    -0.669951046591E+03    0.71504E-04   -0.46319E-04  8424   0.162E-02-0.259E-03
CGA:  27    -0.669951219664E+03   -0.17307E-03   -0.18178E-03  8424   0.132E-04 0.352E-04
CGA:  28    -0.669951252180E+03   -0.32515E-04    0.94222E-06  8424   0.179E-04 0.805E-05
CGA:  29    -0.669951286437E+03   -0.34257E-04    0.17665E-05  8424   0.350E-04-0.133E-05
CGA:  30    -0.669951387579E+03   -0.10114E-03    0.16130E-05  8424   0.370E-04 0.301E-04
CGA:  31    -0.669951387623E+03   -0.44020E-07   -0.21968E-04  8424   0.392E-03-0.893E-04
CGA:  32    -0.669951455512E+03   -0.67888E-04   -0.55551E-04  8424   0.248E-04-0.565E-04
CGA:  33    -0.669951491597E+03   -0.36086E-04    0.25895E-05  8424   0.259E-04-0.106E-05
CGA:  34    -0.669951555964E+03   -0.64367E-04    0.15906E-05  8424   0.114E-04 0.199E-04
CGA:  35    -0.669951594242E+03   -0.38277E-04    0.52454E-06  8424   0.114E-04 0.684E-05
CGA:  36    -0.669951612350E+03   -0.18109E-04    0.15583E-05  8424   0.143E-04 0.532E-05
CGA:  37    -0.669951687383E+03   -0.75033E-04    0.88838E-06  8424   0.108E-04 0.186E-04
CGA:  38    -0.669951722469E+03   -0.35085E-04    0.51195E-06  8424   0.960E-05 0.643E-05
CGA:  39    -0.669951744613E+03   -0.22144E-04    0.72747E-06  8424   0.101E-04 0.634E-05
CGA:  40    -0.669951782944E+03   -0.38331E-04    0.39799E-06  8424   0.125E-04 0.464E-05
CGA:  41    -0.669951847488E+03   -0.64543E-04    0.77584E-06  8424   0.927E-05 0.171E-04
CGA:  42    -0.669951863547E+03   -0.16059E-04    0.10912E-05  8424   0.101E-04 0.506E-05
CGA:  43    -0.669951906048E+03   -0.42502E-04    0.34782E-06  8424   0.121E-04 0.329E-05
CGA:  44    -0.669951966620E+03   -0.60572E-04    0.63971E-06  8424   0.988E-05 0.155E-04
CGA:  45    -0.669951975269E+03   -0.86494E-05    0.67726E-05  8424   0.115E-04 0.269E-05
   5 F= -.66995198E+03 E0= -.66995198E+03  d E =-.403988E-01  mag=     2.0000
       N       E                     dE             d eps       ncg     rms          ort
SDA:   1    -0.668926579259E+03    0.10254E+01    0.00000E+00  8424   0.294E+01 0.000E+00
CGA:   2    -0.669626986910E+03   -0.70041E+00   -0.70069E+00  8424   0.137E+01 0.135E-02
CGA:   3    -0.669895152065E+03   -0.26817E+00   -0.26788E+00  8424   0.377E+00-0.157E-02
CGA:   4    -0.669957512294E+03   -0.62360E-01   -0.62351E-01  8424   0.903E-01-0.101E-03
CGA:   5    -0.669972879355E+03   -0.15367E-01   -0.15392E-01  8424   0.184E-01 0.140E-03
CGA:   6    -0.669976682463E+03   -0.38031E-02   -0.37812E-02  8424   0.450E-02-0.194E-03
CGA:   7    -0.669977687357E+03   -0.10049E-02   -0.10088E-02  8424   0.138E-02 0.442E-04
CGA:   8    -0.669978031568E+03   -0.34421E-03   -0.34721E-03  8424   0.462E-03 0.494E-04
CGA:   9    -0.669978166581E+03   -0.13501E-03   -0.13590E-03  8424   0.194E-03 0.390E-04
CGA:  10    -0.669978204062E+03   -0.37481E-04   -0.45768E-04  8424   0.913E-04 0.937E-04
CGA:  11    -0.669978218716E+03   -0.14654E-04   -0.24275E-04  8424   0.552E-04 0.784E-04
CGA:  12    -0.669978226451E+03   -0.77354E-05   -0.11305E-04  8424   0.376E-04 0.394E-04
   6 F= -.66997823E+03 E0= -.66997823E+03  d E =-.262512E-01  mag=     2.0000
       N       E                     dE             d eps       ncg     rms          ort
SDA:   1    -0.669732499159E+03    0.24572E+00    0.00000E+00  8424   0.733E+00 0.000E+00
CGA:   2    -0.669899834293E+03   -0.16734E+00   -0.16738E+00  8424   0.354E+00 0.538E-03
CGA:   3    -0.669972419054E+03   -0.72585E-01   -0.72521E-01  8424   0.972E-01-0.853E-03
CGA:   4    -0.669987810448E+03   -0.15391E-01   -0.15422E-01  8424   0.222E-01 0.247E-03
CGA:   5    -0.669991562591E+03   -0.37521E-02   -0.37856E-02  8424   0.449E-02 0.329E-03
CGA:   6    -0.669992491948E+03   -0.92936E-03   -0.93292E-03  8424   0.116E-02 0.580E-04
CGA:   7    -0.669992716578E+03   -0.22463E-03   -0.23423E-03  8424   0.321E-03 0.153E-03
CGA:   8    -0.669992769584E+03   -0.53006E-04   -0.64735E-04  8424   0.125E-03 0.144E-03
CGA:   9    -0.669992781229E+03   -0.11645E-04   -0.24580E-04  8424   0.746E-04 0.108E-03
CGA:  10    -0.669992781103E+03    0.12617E-06   -0.83909E-05  8424   0.561E-04 0.622E-04
   7 F= -.66999278E+03 E0= -.66999278E+03  d E =-.145547E-01  mag=     2.0000
       N       E                     dE             d eps       ncg     rms          ort
SDA:   1    -0.666822236434E+03    0.31705E+01    0.00000E+00  8424   0.796E+01 0.000E+00
CGA:   2    -0.669111239836E+03   -0.22890E+01   -0.22889E+01  8424   0.399E+01 0.474E-03
CGA:   3    -0.669830414471E+03   -0.71917E+00   -0.71914E+00  8424   0.885E+00-0.800E-03
CGA:   4    -0.669975181324E+03   -0.14477E+00   -0.14486E+00  8424   0.213E+00 0.119E-02
CGA:   5    -0.670011466943E+03   -0.36286E-01   -0.36340E-01  8424   0.455E-01 0.846E-03
CGA:   6    -0.670020853420E+03   -0.93865E-02   -0.93937E-02  8424   0.113E-01 0.318E-03
CGA:   7    -0.670023325853E+03   -0.24724E-02   -0.24768E-02  8424   0.339E-02 0.450E-03
CGA:   8    -0.670024168959E+03   -0.84311E-03   -0.83800E-03  8424   0.115E-02 0.447E-03
CGA:   9    -0.670024452770E+03   -0.28381E-03   -0.28652E-03  8424   0.454E-03 0.417E-03
CGA:  10    -0.670024528498E+03   -0.75727E-04   -0.99667E-04  8424   0.253E-03 0.365E-03
CGA:  11    -0.670024544131E+03   -0.15633E-04   -0.33503E-04  8424   0.168E-03 0.197E-03
CGA:  12    -0.670024544413E+03   -0.28209E-06   -0.17812E-04  8424   0.144E-03 0.155E-03
CGA:  13    -0.670024540783E+03    0.36297E-05   -0.13082E-04  8424   0.130E-03 0.137E-03
CGA:  14    -0.670024535525E+03    0.52582E-05   -0.10523E-04  8424   0.120E-03 0.125E-03
   8 F= -.67002454E+03 E0= -.67002454E+03  d E =-.317544E-01  mag=     2.0000
       N       E                     dE             d eps       ncg     rms          ort
SDA:   1    -0.666576294219E+03    0.34482E+01    0.00000E+00  8424   0.984E+01 0.000E+00
CGA:   2    -0.668766188124E+03   -0.21899E+01   -0.21894E+01  8424   0.468E+01 0.141E-01
CGA:   3    -0.669734257623E+03   -0.96807E+00   -0.96810E+00  8424   0.134E+01-0.198E-02
CGA:   4    -0.669947911070E+03   -0.21365E+00   -0.21371E+00  8424   0.305E+00 0.145E-02
CGA:   5    -0.670000111756E+03   -0.52201E-01   -0.52232E-01  8424   0.625E-01 0.126E-02
CGA:   6    -0.670012905020E+03   -0.12793E-01   -0.12793E-01  8424   0.153E-01-0.260E-04
CGA:   7    -0.670016111949E+03   -0.32069E-02   -0.31938E-02  8424   0.410E-02 0.848E-03
CGA:   8    -0.670017017926E+03   -0.90598E-03   -0.89510E-03  8424   0.113E-02 0.871E-03
CGA:   9    -0.670017258545E+03   -0.24062E-03   -0.24842E-03  8424   0.439E-03 0.552E-03
CGA:  10    -0.670017304677E+03   -0.46132E-04   -0.77859E-04  8424   0.255E-03 0.421E-03
CGA:  11    -0.670017304764E+03   -0.86307E-07   -0.22552E-04  8424   0.195E-03 0.220E-03
CGA:  12    -0.670017298924E+03    0.58392E-05   -0.14364E-04  8424   0.168E-03 0.181E-03
CGA:  13    -0.670017291120E+03    0.78045E-05   -0.10760E-04  8424   0.152E-03 0.160E-03
   9 F= -.67001729E+03 E0= -.67001729E+03  d E =0.724441E-02  mag=     2.0000
       N       E                     dE             d eps       ncg     rms          ort
SDA:   1    -0.668922707984E+03    0.10946E+01    0.00000E+00  8424   0.322E+01 0.000E+00
CGA:   2    -0.669660855489E+03   -0.73815E+00   -0.73805E+00  8424   0.148E+01 0.942E-03
CGA:   3    -0.669956631390E+03   -0.29578E+00   -0.29579E+00  8424   0.407E+00-0.705E-03
CGA:   4    -0.670023090888E+03   -0.66459E-01   -0.66462E-01  8424   0.993E-01 0.220E-03
CGA:   5    -0.670040141765E+03   -0.17051E-01   -0.17051E-01  8424   0.200E-01 0.512E-03
CGA:   6    -0.670044097723E+03   -0.39560E-02   -0.39421E-02  8424   0.456E-02 0.581E-03
CGA:   7    -0.670045080537E+03   -0.98281E-03   -0.96548E-03  8424   0.128E-02 0.537E-03
CGA:   8    -0.670045345980E+03   -0.26544E-03   -0.26170E-03  8424   0.401E-03 0.466E-03
CGA:   9    -0.670045396459E+03   -0.50478E-04   -0.67379E-04  8424   0.207E-03 0.324E-03
CGA:  10    -0.670045402363E+03   -0.59040E-05   -0.19357E-04  8424   0.147E-03 0.170E-03
CGA:  11    -0.670045400293E+03    0.20697E-05   -0.10794E-04  8424   0.125E-03 0.135E-03
  10 F= -.67004540E+03 E0= -.67004540E+03  d E =-.281092E-01  mag=     2.0000
       N       E                     dE             d eps       ncg     rms          ort
SDA:   1    -0.669713895824E+03    0.33151E+00    0.00000E+00  8424   0.983E+00 0.000E+00
CGA:   2    -0.669934092861E+03   -0.22020E+00   -0.22012E+00  8424   0.453E+00 0.101E-02
CGA:   3    -0.670025908121E+03   -0.91815E-01   -0.91822E-01  8424   0.129E+00-0.238E-03
CGA:   4    -0.670046829346E+03   -0.20921E-01   -0.20921E-01  8424   0.310E-01 0.984E-04
CGA:   5    -0.670052117982E+03   -0.52886E-02   -0.52859E-02  8424   0.631E-02 0.439E-03
CGA:   6    -0.670053324713E+03   -0.12067E-02   -0.11955E-02  8424   0.139E-02 0.499E-03
CGA:   7    -0.670053597215E+03   -0.27250E-03   -0.26760E-03  8424   0.399E-03 0.379E-03
CGA:   8    -0.670053656843E+03   -0.59628E-04   -0.68179E-04  8424   0.178E-03 0.266E-03
CGA:   9    -0.670053663431E+03   -0.65877E-05   -0.16569E-04  8424   0.119E-03 0.140E-03
  11 F= -.67005366E+03 E0= -.67005366E+03  d E =-.826314E-02  mag=     2.0000
       N       E                     dE             d eps       ncg     rms          ort
SDA:   1    -0.669393182084E+03    0.66047E+00    0.00000E+00  8424   0.168E+01 0.000E+00
CGA:   2    -0.669855823032E+03   -0.46264E+00   -0.46257E+00  8424   0.881E+00 0.437E-03
CGA:   3    -0.670016256831E+03   -0.16043E+00   -0.16044E+00  8424   0.196E+00-0.159E-03
CGA:   4    -0.670047995598E+03   -0.31739E-01   -0.31740E-01  8424   0.463E-01 0.591E-03
CGA:   5    -0.670055917617E+03   -0.79220E-02   -0.79176E-02  8424   0.961E-02 0.608E-03
CGA:   6    -0.670057859130E+03   -0.19415E-02   -0.19263E-02  8424   0.221E-02 0.442E-03
CGA:   7    -0.670058301242E+03   -0.44211E-03   -0.43208E-03  8424   0.604E-03 0.459E-03
CGA:   8    -0.670058398462E+03   -0.97220E-04   -0.10522E-03  8424   0.253E-03 0.360E-03
CGA:   9    -0.670058412153E+03   -0.13691E-04   -0.25820E-04  8424   0.160E-03 0.192E-03
CGA:  10    -0.670058411278E+03    0.87524E-06   -0.11839E-04  8424   0.132E-03 0.144E-03
  12 F= -.67005841E+03 E0= -.67005841E+03  d E =-.474785E-02  mag=     2.0000
       N       E                     dE             d eps       ncg     rms          ort
SDA:   1    -0.660701149821E+03    0.93573E+01    0.00000E+00  8424   0.283E+02 0.000E+00
CGA:   2    -0.666456031456E+03   -0.57549E+01   -0.57474E+01  8424   0.120E+02 0.118E+00
CGA:   3    -0.669029749321E+03   -0.25737E+01   -0.25757E+01  8424   0.382E+01-0.322E-01
CGA:   4    -0.669653862616E+03   -0.62411E+00   -0.62408E+00  8424   0.914E+00 0.349E-02
CGA:   5    -0.669808473141E+03   -0.15461E+00   -0.15457E+00  8424   0.188E+00 0.336E-02
CGA:   6    -0.669846576611E+03   -0.38103E-01   -0.38178E-01  8424   0.452E-01-0.178E-02
CGA:   7    -0.669856232943E+03   -0.96563E-02   -0.95915E-02  8424   0.127E-01 0.122E-02
CGA:   8    -0.669859298687E+03   -0.30657E-02   -0.30115E-02  8424   0.361E-02 0.804E-03
CGA:   9    -0.669860383020E+03   -0.10843E-02   -0.10923E-02  8424   0.141E-02-0.696E-04
CGA:  10    -0.669860703852E+03   -0.32083E-03   -0.30203E-03  8424   0.535E-03 0.419E-03
CGA:  11    -0.669860879425E+03   -0.17557E-03   -0.16237E-03  8424   0.247E-03 0.223E-03
CGA:  12    -0.669860965537E+03   -0.86112E-04   -0.79143E-04  8424   0.140E-03 0.145E-03
CGA:  13    -0.669860973295E+03   -0.77581E-05   -0.15633E-04  8424   0.982E-04 0.113E-03
CGA:  14    -0.669860980904E+03   -0.76094E-05   -0.12281E-04  8424   0.832E-04 0.893E-04
  13 F= -.66986098E+03 E0= -.66986098E+03  d E =0.197430E+00  mag=     2.0000
       N       E                     dE             d eps       ncg     rms          ort
SDA:   1    -0.665463777587E+03    0.43972E+01    0.00000E+00  8424   0.144E+02 0.000E+00
CGA:   2    -0.668374662185E+03   -0.29109E+01   -0.29094E+01  8424   0.595E+01 0.367E-01
CGA:   3    -0.669639570557E+03   -0.12649E+01   -0.12652E+01  8424   0.188E+01-0.713E-02
CGA:   4    -0.669946375905E+03   -0.30681E+00   -0.30681E+00  8424   0.456E+00-0.195E-03
CGA:   5    -0.670024913218E+03   -0.78537E-01   -0.78541E-01  8424   0.956E-01 0.142E-02
CGA:   6    -0.670043805168E+03   -0.18892E-01   -0.18879E-01  8424   0.220E-01 0.566E-03
CGA:   7    -0.670048536879E+03   -0.47317E-02   -0.46960E-02  8424   0.617E-02 0.963E-03
CGA:   8    -0.670050014933E+03   -0.14781E-02   -0.14460E-02  8424   0.169E-02 0.680E-03
CGA:   9    -0.670050414031E+03   -0.39910E-03   -0.38590E-03  8424   0.513E-03 0.515E-03
CGA:  10    -0.670050487883E+03   -0.73852E-04   -0.91253E-04  8424   0.251E-03 0.388E-03
CGA:  11    -0.670050497882E+03   -0.99986E-05   -0.25569E-04  8424   0.170E-03 0.202E-03
CGA:  12    -0.670050496372E+03    0.15098E-05   -0.13327E-04  8424   0.140E-03 0.153E-03
  14 F= -.67005050E+03 E0= -.67005050E+03  d E =-.189515E+00  mag=     2.0000
       N       E                     dE             d eps       ncg     rms          ort
SDA:   1    -0.669856230726E+03    0.19427E+00    0.00000E+00  8424   0.632E+00 0.000E+00
CGA:   2    -0.669986101503E+03   -0.12987E+00   -0.12983E+00  8424   0.265E+00 0.954E-03
CGA:   3    -0.670041715618E+03   -0.55614E-01   -0.55607E-01  8424   0.848E-01 0.121E-03
CGA:   4    -0.670055658765E+03   -0.13943E-01   -0.13945E-01  8424   0.205E-01 0.357E-03
CGA:   5    -0.670059110875E+03   -0.34521E-02   -0.34528E-02  8424   0.403E-02 0.525E-03
CGA:   6    -0.670059860275E+03   -0.74940E-03   -0.74396E-03  8424   0.860E-03 0.491E-03
CGA:   7    -0.670059996543E+03   -0.13627E-03   -0.14373E-03  8424   0.269E-03 0.366E-03
CGA:   8    -0.670060014893E+03   -0.18350E-04   -0.36196E-04  8424   0.142E-03 0.242E-03
CGA:   9    -0.670060012459E+03    0.24335E-05   -0.94193E-05  8424   0.106E-03 0.121E-03
  15 F= -.67006001E+03 E0= -.67006001E+03  d E =-.951609E-02  mag=     2.0000
       N       E                     dE             d eps       ncg     rms          ort
SDA:   1    -0.669753839620E+03    0.30618E+00    0.00000E+00  8424   0.896E+00 0.000E+00
CGA:   2    -0.669955796940E+03   -0.20196E+00   -0.20189E+00  8424   0.407E+00 0.833E-03
CGA:   3    -0.670037025246E+03   -0.81228E-01   -0.81248E-01  8424   0.116E+00-0.523E-03
CGA:   4    -0.670056180315E+03   -0.19155E-01   -0.19152E-01  8424   0.283E-01 0.503E-03
CGA:   5    -0.670060927853E+03   -0.47475E-02   -0.47428E-02  8424   0.552E-02 0.677E-03
CGA:   6    -0.670062005789E+03   -0.10779E-02   -0.10649E-02  8424   0.121E-02 0.465E-03
CGA:   7    -0.670062225802E+03   -0.22001E-03   -0.21810E-03  8424   0.348E-03 0.392E-03
CGA:   8    -0.670062263499E+03   -0.37697E-04   -0.51448E-04  8424   0.170E-03 0.272E-03
CGA:   9    -0.670062266113E+03   -0.26139E-05   -0.13661E-04  8424   0.119E-03 0.139E-03
  16 F= -.67006227E+03 E0= -.67006227E+03  d E =-.225365E-02  mag=     2.0000
       N       E                     dE             d eps       ncg     rms          ort
SDA:   1    -0.669914122568E+03    0.14814E+00    0.00000E+00  8424   0.370E+00 0.000E+00
CGA:   2    -0.670024465812E+03   -0.11034E+00   -0.11038E+00  8424   0.154E+00-0.287E-03
CGA:   3    -0.670051625099E+03   -0.27159E-01   -0.27149E-01  8424   0.383E-01 0.545E-03
CGA:   4    -0.670058391859E+03   -0.67668E-02   -0.67578E-02  8424   0.954E-02 0.535E-03
CGA:   5    -0.670059932581E+03   -0.15407E-02   -0.15411E-02  8424   0.181E-02 0.517E-03
CGA:   6    -0.670060248293E+03   -0.31571E-03   -0.31371E-03  8424   0.412E-03 0.420E-03
CGA:   7    -0.670060301812E+03   -0.53519E-04   -0.63059E-04  8424   0.182E-03 0.264E-03
CGA:   8    -0.670060307960E+03   -0.61483E-05   -0.16098E-04  8424   0.120E-03 0.142E-03
  17 F= -.67006031E+03 E0= -.67006031E+03  d E =0.195815E-02  mag=     2.0000
       N       E                     dE             d eps       ncg     rms          ort
SDA:   1    -0.660164030979E+03    0.98963E+01    0.00000E+00  8424   0.306E+02 0.000E+00
CGA:   2    -0.666293985006E+03   -0.61300E+01   -0.61223E+01  8424   0.125E+02 0.124E+00
CGA:   3    -0.668961106236E+03   -0.26671E+01   -0.26686E+01  8424   0.407E+01-0.240E-01
CGA:   4    -0.669635619595E+03   -0.67451E+00   -0.67449E+00  8424   0.100E+01 0.830E-03
CGA:   5    -0.669805565137E+03   -0.16995E+00   -0.16991E+00  8424   0.202E+00 0.250E-02
CGA:   6    -0.669846285826E+03   -0.40721E-01   -0.40812E-01  8424   0.477E-01-0.207E-02
CGA:   7    -0.669856644155E+03   -0.10358E-01   -0.10335E-01  8424   0.138E-01 0.377E-03
CGA:   8    -0.669860059163E+03   -0.34150E-02   -0.34289E-02  8424   0.415E-02-0.166E-03
CGA:   9    -0.669861251970E+03   -0.11928E-02   -0.14423E-02  8424   0.258E-02-0.135E-02
CGA:  10    -0.669861742595E+03   -0.49062E-03   -0.60753E-03  8424   0.148E-02-0.680E-03
CGA:  11    -0.669862162023E+03   -0.41943E-03    0.22514E-02  8424   0.540E-03 0.321E-03
CGA:  12    -0.669862425867E+03   -0.26384E-03    0.67757E-03  8424   0.222E-03 0.146E-03
CGA:  13    -0.669862578378E+03   -0.15251E-03    0.55674E-04  8424   0.128E-03 0.121E-03
CGA:  14    -0.669862675550E+03   -0.97172E-04    0.11116E-04  8424   0.723E-04 0.826E-04
CGA:  15    -0.669862754929E+03   -0.79380E-04    0.33738E-05  8424   0.596E-04 0.642E-04
CGA:  16    -0.669862830711E+03   -0.75782E-04    0.22468E-05  8424   0.523E-04 0.551E-04
CGA:  17    -0.669862902772E+03   -0.72061E-04    0.17582E-05  8424   0.469E-04 0.491E-04
CGA:  18    -0.669862972816E+03   -0.70044E-04    0.14194E-05  8424   0.428E-04 0.445E-04
CGA:  19    -0.669863040916E+03   -0.68099E-04    0.11911E-05  8424   0.396E-04 0.410E-04
CGA:  20    -0.669863107595E+03   -0.66680E-04    0.10242E-05  8424   0.371E-04 0.382E-04
CGA:  21    -0.669863173014E+03   -0.65419E-04    0.90580E-06  8424   0.352E-04 0.360E-04
CGA:  22    -0.669863237424E+03   -0.64410E-04    0.81889E-06  8424   0.337E-04 0.344E-04
CGA:  23    -0.669863300933E+03   -0.63509E-04    0.75501E-06  8424   0.325E-04 0.330E-04
CGA:  24    -0.669863363677E+03   -0.62744E-04    0.70602E-06  8424   0.315E-04 0.319E-04
CGA:  25    -0.669863425705E+03   -0.62028E-04    0.66791E-06  8424   0.306E-04 0.310E-04
CGA:  26    -0.669863487107E+03   -0.61402E-04    0.63655E-06  8424   0.299E-04 0.302E-04
CGA:  27    -0.669863547875E+03   -0.60768E-04    0.61080E-06  8424   0.292E-04 0.295E-04
CGA:  28    -0.669863608111E+03   -0.60236E-04    0.58773E-06  8424   0.286E-04 0.289E-04
CGA:  29    -0.669863667706E+03   -0.59595E-04    0.56877E-06  8424   0.281E-04 0.283E-04
CGA:  30    -0.669863726933E+03   -0.59226E-04    0.54876E-06  8424   0.276E-04 0.278E-04
CGA:  31    -0.669863785254E+03   -0.58322E-04    0.53642E-06  8424   0.271E-04 0.273E-04
CGA:  32    -0.669863843993E+03   -0.58738E-04    0.51150E-06  8424   0.267E-04 0.268E-04
CGA:  33    -0.669863899737E+03   -0.55745E-04    0.52833E-06  8424   0.269E-04 0.261E-04
CGA:  34    -0.669863960833E+03   -0.61096E-04    0.48003E-06  8424   0.299E-04 0.241E-04
CGA:  35    -0.669864006654E+03   -0.45821E-04    0.87403E-06  8424   0.455E-04 0.160E-04
CGA:  36    -0.669864079120E+03   -0.72465E-04    0.12607E-05  8424   0.107E-03-0.167E-04
CGA:  37    -0.669864267961E+03   -0.18884E-03    0.95493E-06  8424   0.219E-03 0.559E-04
CGA:  38    -0.669864278322E+03   -0.10361E-04   -0.14049E-04  8424   0.240E-04 0.305E-04
CGA:  39    -0.669864325517E+03   -0.47195E-04    0.63307E-06  8424   0.444E-04 0.164E-04
CGA:  40    -0.669864394984E+03   -0.69467E-04    0.11670E-05  8424   0.665E-04-0.793E-05
CGA:  41    -0.669864524930E+03   -0.12995E-03    0.85934E-06  8424   0.777E-04 0.528E-04
CGA:  42    -0.669864538858E+03   -0.13929E-04   -0.16948E-04  8424   0.191E-03-0.762E-04
CGA:  43    -0.669864635131E+03   -0.96273E-04    0.43777E-04  8424   0.274E-03-0.188E-03
CGA:  44    -0.669864650708E+03   -0.15577E-04   -0.20468E-04  8424   0.238E-04 0.462E-04
CGA:  45    -0.669864689868E+03   -0.39159E-04    0.80587E-06  8424   0.404E-04 0.101E-04
CGA:  46    -0.669864822328E+03   -0.13246E-03    0.90418E-06  8424   0.518E-04 0.554E-04
CGA:  47    -0.669864892037E+03   -0.69709E-04    0.15948E-05  8424   0.475E-04-0.898E-05
CGA:  48    -0.669864981867E+03   -0.89830E-04    0.62038E-06  8424   0.450E-04 0.382E-04
CGA:  49    -0.669865007863E+03   -0.25996E-04    0.60755E-05  8424   0.381E-04-0.191E-05
CGA:  50    -0.669865091532E+03   -0.83669E-04    0.57567E-06  8424   0.363E-04 0.354E-04
CGA:  51    -0.669865153864E+03   -0.62332E-04    0.81636E-06  8424   0.298E-04 0.549E-05
CGA:  52    -0.669865235568E+03   -0.81705E-04    0.51750E-06  8424   0.301E-04 0.333E-04
CGA:  53    -0.669865265839E+03   -0.30271E-04    0.14110E-05  8424   0.248E-04 0.989E-05
CGA:  54    -0.669865343782E+03   -0.77943E-04    0.50119E-06  8424   0.264E-04 0.320E-04
CGA:  55    -0.669865399157E+03   -0.55374E-04    0.46352E-06  8424   0.220E-04 0.119E-04
CGA:  56    -0.669865478627E+03   -0.79470E-04    0.45935E-06  8424   0.241E-04 0.311E-04
CGA:  57    -0.669865509921E+03   -0.31294E-04    0.78108E-06  8424   0.204E-04 0.127E-04
CGA:  58    -0.669865559134E+03   -0.49213E-04    0.30358E-06  8424   0.187E-04 0.147E-04
CGA:  59    -0.669865595212E+03   -0.36078E-04    0.36180E-06  8424   0.177E-04 0.156E-04
CGA:  60    -0.669865639853E+03   -0.44641E-04    0.24959E-06  8424   0.171E-04 0.160E-04
CGA:  61    -0.669865677795E+03   -0.37942E-04    0.28102E-06  8424   0.167E-04 0.161E-04
CGA:  62    -0.669865720174E+03   -0.42379E-04    0.23516E-06  8424   0.165E-04 0.161E-04
CGA:  63    -0.669865758481E+03   -0.38307E-04    0.25548E-06  8424   0.163E-04 0.160E-04
CGA:  64    -0.669865799699E+03   -0.41218E-04    0.22792E-06  8424   0.161E-04 0.158E-04
CGA:  65    -0.669865837631E+03   -0.37932E-04    0.24513E-06  8424   0.159E-04 0.156E-04
CGA:  66    -0.669865878198E+03   -0.40567E-04    0.22184E-06  8424   0.158E-04 0.155E-04
CGA:  67    -0.669865915390E+03   -0.37191E-04    0.24095E-06  8424   0.157E-04 0.152E-04
CGA:  68    -0.669865955563E+03   -0.40174E-04    0.21665E-06  8424   0.156E-04 0.150E-04
CGA:  69    -0.669865991857E+03   -0.36294E-04    0.24057E-06  8424   0.155E-04 0.148E-04
CGA:  70    -0.669866031739E+03   -0.39882E-04    0.21298E-06  8424   0.154E-04 0.146E-04
CGA:  71    -0.669866067139E+03   -0.35400E-04    0.24226E-06  8424   0.153E-04 0.143E-04
CGA:  72    -0.669866106684E+03   -0.39545E-04    0.21070E-06  8424   0.152E-04 0.141E-04
CGA:  73    -0.669866141322E+03   -0.34638E-04    0.24323E-06  8424   0.152E-04 0.138E-04
CGA:  74    -0.669866180383E+03   -0.39061E-04    0.20849E-06  8424   0.150E-04 0.136E-04
CGA:  75    -0.669866214455E+03   -0.34071E-04    0.24054E-06  8424   0.149E-04 0.135E-04
CGA:  76    -0.669866252858E+03   -0.38403E-04    0.20491E-06  8424   0.147E-04 0.133E-04
CGA:  77    -0.669866286537E+03   -0.33679E-04    0.23325E-06  8424   0.146E-04 0.132E-04
CGA:  78    -0.669866324154E+03   -0.37617E-04    0.19960E-06  8424   0.144E-04 0.131E-04
CGA:  79    -0.669866357542E+03   -0.33389E-04    0.22289E-06  8424   0.142E-04 0.130E-04
CGA:  80    -0.669866394324E+03   -0.36781E-04    0.19328E-06  8424   0.140E-04 0.129E-04
CGA:  81    -0.669866427445E+03   -0.33122E-04    0.21188E-06  8424   0.138E-04 0.128E-04
CGA:  82    -0.669866463412E+03   -0.35966E-04    0.18688E-06  8424   0.136E-04 0.127E-04
CGA:  83    -0.669866496236E+03   -0.32824E-04    0.20191E-06  8424   0.134E-04 0.126E-04
CGA:  84    -0.669866531448E+03   -0.35212E-04    0.18099E-06  8424   0.133E-04 0.125E-04
CGA:  85    -0.669866563919E+03   -0.32471E-04    0.19362E-06  8424   0.131E-04 0.124E-04
CGA:  86    -0.669866598448E+03   -0.34529E-04    0.17578E-06  8424   0.130E-04 0.123E-04
CGA:  87    -0.669866630511E+03   -0.32063E-04    0.18696E-06  8424   0.128E-04 0.122E-04
CGA:  88    -0.669866664419E+03   -0.33909E-04    0.17121E-06  8424   0.127E-04 0.121E-04
CGA:  89    -0.669866696032E+03   -0.31613E-04    0.18160E-06  8424   0.126E-04 0.119E-04
CGA:  90    -0.669866729369E+03   -0.33336E-04    0.16717E-06  8424   0.124E-04 0.118E-04
CGA:  91    -0.669866760506E+03   -0.31137E-04    0.17718E-06  8424   0.123E-04 0.117E-04
CGA:  92    -0.669866793300E+03   -0.32794E-04    0.16353E-06  8424   0.122E-04 0.115E-04
CGA:  93    -0.669866823954E+03   -0.30654E-04    0.17331E-06  8424   0.121E-04 0.114E-04
CGA:  94    -0.669866856221E+03   -0.32267E-04    0.16014E-06  8424   0.120E-04 0.113E-04
CGA:  95    -0.669866886396E+03   -0.30175E-04    0.16966E-06  8424   0.119E-04 0.112E-04
CGA:  96    -0.669866918142E+03   -0.31746E-04    0.15685E-06  8424   0.118E-04 0.110E-04
CGA:  97    -0.669866947851E+03   -0.29709E-04    0.16596E-06  8424   0.117E-04 0.109E-04
CGA:  98    -0.669866979074E+03   -0.31223E-04    0.15352E-06  8424   0.115E-04 0.108E-04
CGA:  99    -0.669867008333E+03   -0.29259E-04    0.16204E-06  8424   0.114E-04 0.107E-04
CGA: 100    -0.669867039031E+03   -0.30698E-04    0.15007E-06  8424   0.113E-04 0.106E-04
CGA: 101    -0.669867067856E+03   -0.28825E-04    0.15790E-06  8424   0.112E-04 0.105E-04
CGA: 102    -0.669867098029E+03   -0.30173E-04    0.14652E-06  8424   0.111E-04 0.103E-04
CGA: 103    -0.669867126431E+03   -0.28402E-04    0.15361E-06  8424   0.110E-04 0.102E-04
CGA: 104    -0.669867156084E+03   -0.29652E-04    0.14291E-06  8424   0.109E-04 0.101E-04
CGA: 105    -0.669867184069E+03   -0.27986E-04    0.14932E-06  8424   0.107E-04 0.100E-04
CGA: 106    -0.669867213208E+03   -0.29139E-04    0.13933E-06  8424   0.106E-04 0.995E-05
CGA: 107    -0.669867240781E+03   -0.27572E-04    0.14514E-06  8424   0.105E-04 0.985E-05
CGA: 108    -0.669867269417E+03   -0.28637E-04    0.13584E-06  8424   0.104E-04 0.976E-05
CGA: 109    -0.669867296577E+03   -0.27160E-04    0.14116E-06  8424   0.103E-04 0.966E-05
CGA: 110    -0.669867324724E+03   -0.28147E-04    0.13250E-06  8424   0.102E-04 0.956E-05
CGA: 111    -0.669867351472E+03   -0.26747E-04    0.13742E-06  8424   0.101E-04 0.947E-05
CGA: 112    -0.669867379141E+03   -0.27669E-04    0.12931E-06  8424   0.999E-05 0.937E-05
CGA: 113    -0.669867405476E+03   -0.26336E-04    0.13391E-06  8424   0.989E-05 0.928E-05
CGA: 114    -0.669867432679E+03   -0.27203E-04    0.12627E-06  8424   0.979E-05 0.919E-05
CGA: 115    -0.669867458604E+03   -0.25925E-04    0.13061E-06  8424   0.970E-05 0.909E-05
CGA: 116    -0.669867485351E+03   -0.26746E-04    0.12337E-06  8424   0.960E-05 0.900E-05
CGA: 117    -0.669867510868E+03   -0.25517E-04    0.12747E-06  8424   0.951E-05 0.891E-05
CGA: 118    -0.669867537167E+03   -0.26299E-04    0.12056E-06  8424   0.941E-05 0.882E-05
CGA: 119    -0.669867562280E+03   -0.25114E-04    0.12445E-06  8424   0.932E-05 0.872E-05
CGA: 120    -0.669867588139E+03   -0.25859E-04    0.11784E-06  8424   0.923E-05 0.864E-05
CGA: 121    -0.669867612854E+03   -0.24715E-04    0.12152E-06  8424   0.914E-05 0.855E-05
CGA: 122    -0.669867638279E+03   -0.25425E-04    0.11518E-06  8424   0.905E-05 0.846E-05
CGA: 123    -0.669867662601E+03   -0.24322E-04    0.11864E-06  8424   0.896E-05 0.837E-05
CGA: 124    -0.669867687599E+03   -0.24998E-04    0.11256E-06  8424   0.887E-05 0.829E-05
CGA: 125    -0.669867711533E+03   -0.23934E-04    0.11582E-06  8424   0.878E-05 0.821E-05
CGA: 126    -0.669867736110E+03   -0.24577E-04    0.10999E-06  8424   0.870E-05 0.813E-05
CGA: 127    -0.669867759661E+03   -0.23551E-04    0.11305E-06  8424   0.861E-05 0.804E-05
CGA: 128    -0.669867783823E+03   -0.24162E-04    0.10747E-06  8424   0.853E-05 0.797E-05
CGA: 129    -0.669867806997E+03   -0.23174E-04    0.11035E-06  8424   0.844E-05 0.789E-05
CGA: 130    -0.669867830750E+03   -0.23754E-04    0.10501E-06  8424   0.836E-05 0.781E-05
CGA: 131    -0.669867853552E+03   -0.22801E-04    0.10771E-06  8424   0.828E-05 0.773E-05
CGA: 132    -0.669867876903E+03   -0.23351E-04    0.10261E-06  8424   0.819E-05 0.766E-05
CGA: 133    -0.669867899336E+03   -0.22433E-04    0.10515E-06  8424   0.811E-05 0.758E-05
CGA: 134    -0.669867922292E+03   -0.22956E-04    0.10027E-06  8424   0.803E-05 0.751E-05
CGA: 135    -0.669867944360E+03   -0.22069E-04    0.10268E-06  8424   0.795E-05 0.743E-05
CGA: 136    -0.669867966928E+03   -0.22567E-04    0.98006E-07  8424   0.788E-05 0.736E-05
CGA: 137    -0.669867988636E+03   -0.21709E-04    0.10030E-06  8424   0.780E-05 0.729E-05
CGA: 138    -0.669868010821E+03   -0.22185E-04    0.95810E-07  8424   0.772E-05 0.722E-05
CGA: 139    -0.669868032174E+03   -0.21353E-04    0.97997E-07  8424   0.765E-05 0.714E-05
CGA: 140    -0.669868053983E+03   -0.21809E-04    0.93680E-07  8424   0.757E-05 0.707E-05
CGA: 141    -0.669868074985E+03   -0.21001E-04    0.95771E-07  8424   0.750E-05 0.700E-05
CGA: 142    -0.669868096424E+03   -0.21439E-04    0.91612E-07  8424   0.743E-05 0.694E-05
CGA: 143    -0.669868117078E+03   -0.20655E-04    0.93614E-07  8424   0.735E-05 0.687E-05
CGA: 144    -0.669868138154E+03   -0.21075E-04    0.89603E-07  8424   0.728E-05 0.680E-05
CGA: 145    -0.669868158465E+03   -0.20312E-04    0.91522E-07  8424   0.721E-05 0.673E-05
CGA: 146    -0.669868179182E+03   -0.20717E-04    0.87647E-07  8424   0.714E-05 0.667E-05
CGA: 147    -0.669868199156E+03   -0.19974E-04    0.89488E-07  8424   0.707E-05 0.660E-05
CGA: 148    -0.669868219520E+03   -0.20364E-04    0.85742E-07  8424   0.701E-05 0.654E-05
CGA: 149    -0.669868239161E+03   -0.19641E-04    0.87511E-07  8424   0.694E-05 0.647E-05
CGA: 150    -0.669868259177E+03   -0.20017E-04    0.83886E-07  8424   0.687E-05 0.641E-05
CGA: 151    -0.669868278489E+03   -0.19311E-04    0.85587E-07  8424   0.680E-05 0.635E-05
CGA: 152    -0.669868298163E+03   -0.19675E-04    0.82076E-07  8424   0.674E-05 0.629E-05
CGA: 153    -0.669868317150E+03   -0.18987E-04    0.83715E-07  8424   0.667E-05 0.623E-05
CGA: 154    -0.669868336488E+03   -0.19338E-04    0.80314E-07  8424   0.661E-05 0.617E-05
CGA: 155    -0.669868355155E+03   -0.18667E-04    0.81893E-07  8424   0.655E-05 0.611E-05
CGA: 156    -0.669868374161E+03   -0.19006E-04    0.78598E-07  8424   0.648E-05 0.605E-05
CGA: 157    -0.669868392512E+03   -0.18351E-04    0.80124E-07  8424   0.642E-05 0.599E-05
CGA: 158    -0.669868411192E+03   -0.18680E-04    0.76927E-07  8424   0.636E-05 0.593E-05
CGA: 159    -0.669868429232E+03   -0.18040E-04    0.78407E-07  8424   0.630E-05 0.588E-05
CGA: 160    -0.669868447590E+03   -0.18358E-04    0.75301E-07  8424   0.624E-05 0.582E-05
CGA: 161    -0.669868465322E+03   -0.17732E-04    0.76738E-07  8424   0.618E-05 0.576E-05
CGA: 162    -0.669868483364E+03   -0.18042E-04    0.73721E-07  8424   0.612E-05 0.571E-05
CGA: 163    -0.669868500793E+03   -0.17429E-04    0.75117E-07  8424   0.606E-05 0.565E-05
CGA: 164    -0.669868518524E+03   -0.17730E-04    0.72183E-07  8424   0.601E-05 0.560E-05
CGA: 165    -0.669868535654E+03   -0.17130E-04    0.73545E-07  8424   0.595E-05 0.555E-05
CGA: 166    -0.669868553077E+03   -0.17423E-04    0.70688E-07  8424   0.589E-05 0.549E-05
CGA: 167    -0.669868569913E+03   -0.16836E-04    0.72016E-07  8424   0.584E-05 0.544E-05
CGA: 168    -0.669868587035E+03   -0.17122E-04    0.69232E-07  8424   0.578E-05 0.539E-05
CGA: 169    -0.669868603579E+03   -0.16545E-04    0.70533E-07  8424   0.573E-05 0.534E-05
CGA: 170    -0.669868620404E+03   -0.16824E-04    0.67816E-07  8424   0.567E-05 0.529E-05
CGA: 171    -0.669868636662E+03   -0.16258E-04    0.69089E-07  8424   0.562E-05 0.524E-05
CGA: 172    -0.669868653193E+03   -0.16532E-04    0.66437E-07  8424   0.557E-05 0.519E-05
CGA: 173    -0.669868669169E+03   -0.15975E-04    0.67686E-07  8424   0.551E-05 0.514E-05
CGA: 174    -0.669868685412E+03   -0.16243E-04    0.65097E-07  8424   0.546E-05 0.509E-05
CGA: 175    -0.669868701109E+03   -0.15697E-04    0.66321E-07  8424   0.541E-05 0.504E-05
CGA: 176    -0.669868717068E+03   -0.15959E-04    0.63790E-07  8424   0.536E-05 0.500E-05
CGA: 177    -0.669868732490E+03   -0.15422E-04    0.64995E-07  8424   0.531E-05 0.495E-05
CGA: 178    -0.669868748170E+03   -0.15680E-04    0.62517E-07  8424   0.526E-05 0.490E-05
CGA: 179    -0.669868763322E+03   -0.15152E-04    0.63704E-07  8424   0.521E-05 0.486E-05
CGA: 180    -0.669868778726E+03   -0.15405E-04    0.61280E-07  8424   0.516E-05 0.481E-05
CGA: 181    -0.669868793611E+03   -0.14884E-04    0.62450E-07  8424   0.511E-05 0.477E-05
CGA: 182    -0.669868808745E+03   -0.15134E-04    0.60074E-07  8424   0.507E-05 0.472E-05
CGA: 183    -0.669868823366E+03   -0.14622E-04    0.61229E-07  8424   0.502E-05 0.468E-05
CGA: 184    -0.669868838233E+03   -0.14867E-04    0.58901E-07  8424   0.497E-05 0.463E-05
CGA: 185    -0.669868852595E+03   -0.14362E-04    0.60043E-07  8424   0.493E-05 0.459E-05
CGA: 186    -0.669868867199E+03   -0.14604E-04    0.57758E-07  8424   0.488E-05 0.455E-05
CGA: 187    -0.669868881306E+03   -0.14107E-04    0.58890E-07  8424   0.484E-05 0.450E-05
CGA: 188    -0.669868895651E+03   -0.14346E-04    0.56645E-07  8424   0.479E-05 0.446E-05
CGA: 189    -0.669868909506E+03   -0.13855E-04    0.57769E-07  8424   0.475E-05 0.442E-05
CGA: 190    -0.669868923597E+03   -0.14091E-04    0.55562E-07  8424   0.470E-05 0.438E-05
CGA: 191    -0.669868937203E+03   -0.13606E-04    0.56678E-07  8424   0.466E-05 0.434E-05
CGA: 192    -0.669868951043E+03   -0.13840E-04    0.54509E-07  8424   0.462E-05 0.430E-05
CGA: 193    -0.669868964405E+03   -0.13362E-04    0.55618E-07  8424   0.457E-05 0.426E-05
CGA: 194    -0.669868977998E+03   -0.13593E-04    0.53482E-07  8424   0.453E-05 0.422E-05
CGA: 195    -0.669868991118E+03   -0.13120E-04    0.54587E-07  8424   0.449E-05 0.418E-05
CGA: 196    -0.669869004468E+03   -0.13350E-04    0.52482E-07  8424   0.445E-05 0.414E-05
CGA: 197    -0.669869017351E+03   -0.12883E-04    0.53584E-07  8424   0.441E-05 0.411E-05
CGA: 198    -0.669869030462E+03   -0.13111E-04    0.51509E-07  8424   0.437E-05 0.407E-05
CGA: 199    -0.669869043111E+03   -0.12648E-04    0.52608E-07  8424   0.433E-05 0.403E-05
CGA: 200    -0.669869055986E+03   -0.12875E-04    0.50561E-07  8424   0.429E-05 0.399E-05
  18 F= -.66986906E+03 E0= -.66986906E+03  d E =0.191252E+00  mag=     2.0000
       N       E                     dE             d eps       ncg     rms          ort
SDA:   1    -0.663641935784E+03    0.62271E+01    0.00000E+00  8424   0.202E+02 0.000E+00
CGA:   2    -0.667743422963E+03   -0.41015E+01   -0.40994E+01  8424   0.824E+01 0.551E-01
CGA:   3    -0.669471946860E+03   -0.17285E+01   -0.17290E+01  8424   0.261E+01-0.144E-01
CGA:   4    -0.669907265619E+03   -0.43532E+00   -0.43533E+00  8424   0.655E+00 0.270E-03
CGA:   5    -0.670018968313E+03   -0.11170E+00   -0.11172E+00  8424   0.131E+00 0.217E-02
CGA:   6    -0.670045221266E+03   -0.26253E-01   -0.26257E-01  8424   0.304E-01-0.202E-03
CGA:   7    -0.670051844846E+03   -0.66236E-02   -0.65779E-02  8424   0.871E-02 0.119E-02
CGA:   8    -0.670053938458E+03   -0.20936E-02   -0.20551E-02  8424   0.239E-02 0.822E-03
CGA:   9    -0.670054571208E+03   -0.63275E-03   -0.60846E-03  8424   0.761E-03 0.481E-03
CGA:  10    -0.670054700926E+03   -0.12972E-03   -0.14361E-03  8424   0.352E-03 0.496E-03
CGA:  11    -0.670054729433E+03   -0.28506E-04   -0.43915E-04  8424   0.212E-03 0.261E-03
CGA:  12    -0.670054733342E+03   -0.39091E-05   -0.20137E-04  8424   0.170E-03 0.189E-03
CGA:  13    -0.670054731006E+03    0.23356E-05   -0.13228E-04  8424   0.147E-03 0.158E-03
  19 F= -.67005473E+03 E0= -.67005473E+03  d E =-.185675E+00  mag=     2.0000
       N       E                     dE             d eps       ncg     rms          ort
SDA:   1    -0.669865530723E+03    0.18920E+00    0.00000E+00  8424   0.601E+00 0.000E+00
CGA:   2    -0.669989115418E+03   -0.12358E+00   -0.12354E+00  8424   0.258E+00 0.980E-03
CGA:   3    -0.670043562281E+03   -0.54447E-01   -0.54445E-01  8424   0.818E-01-0.192E-04
CGA:   4    -0.670056900099E+03   -0.13338E-01   -0.13341E-01  8424   0.192E-01 0.374E-03
CGA:   5    -0.670060107995E+03   -0.32079E-02   -0.32100E-02  8424   0.380E-02 0.594E-03
CGA:   6    -0.670060819152E+03   -0.71116E-03   -0.70562E-03  8424   0.811E-03 0.530E-03
CGA:   7    -0.670060938850E+03   -0.11970E-03   -0.13071E-03  8424   0.268E-03 0.382E-03
CGA:   8    -0.670060952612E+03   -0.13762E-04   -0.34712E-04  8424   0.150E-03 0.259E-03
CGA:   9    -0.670060948728E+03    0.38844E-05   -0.94447E-05  8424   0.117E-03 0.131E-03
  20 F= -.67006095E+03 E0= -.67006095E+03  d E =-.621772E-02  mag=     2.0000
       N       E                     dE             d eps       ncg     rms          ort
SDA:   1    -0.668817217388E+03    0.12437E+01    0.00000E+00  8424   0.358E+01 0.000E+00
CGA:   2    -0.669602768951E+03   -0.78555E+00   -0.78509E+00  8424   0.164E+01 0.604E-02
CGA:   3    -0.669937828736E+03   -0.33506E+00   -0.33515E+00  8424   0.471E+00-0.209E-02
CGA:   4    -0.670015153410E+03   -0.77325E-01   -0.77322E-01  8424   0.112E+00 0.502E-03
CGA:   5    -0.670034143050E+03   -0.18990E-01   -0.18978E-01  8424   0.228E-01 0.127E-02
CGA:   6    -0.670038719580E+03   -0.45765E-02   -0.45459E-02  8424   0.503E-02 0.839E-03
CGA:   7    -0.670039771137E+03   -0.10516E-02   -0.10256E-02  8424   0.134E-02 0.754E-03
CGA:   8    -0.670040020509E+03   -0.24937E-03   -0.25041E-03  8424   0.452E-03 0.621E-03
CGA:   9    -0.670040064415E+03   -0.43906E-04   -0.68697E-04  8424   0.239E-03 0.413E-03
CGA:  10    -0.670040063999E+03    0.41667E-06   -0.17618E-04  8424   0.182E-03 0.206E-03
CGA:  11    -0.670040057836E+03    0.61629E-05   -0.10505E-04  8424   0.157E-03 0.168E-03
[...]
CGA:  15    -0.669735026104E+03   -0.53653E-04    0.92323E-05  8424   0.385E-04 0.369E-04
CGA:  16    -0.669735094344E+03   -0.68239E-04    0.19131E-05  8424   0.358E-04 0.328E-04
CGA:  17    -0.669735138621E+03   -0.44277E-04    0.30809E-05  8424   0.346E-04 0.304E-04
CGA:  18    -0.669735207967E+03   -0.69346E-04    0.14513E-05  8424   0.340E-04 0.283E-04
CGA:  19    -0.669735247859E+03   -0.39891E-04    0.31833E-05  8424   0.341E-04 0.259E-04
CGA:  20    -0.669735320498E+03   -0.72639E-04    0.13181E-05  8424   0.349E-04 0.232E-04
CGA:  21    -0.669735354159E+03   -0.33661E-04    0.47689E-05  8424   0.370E-04 0.199E-04
CGA:  22    -0.669735432528E+03   -0.78369E-04    0.14424E-05  8424   0.406E-04 0.154E-04
CGA:  23    -0.669735544670E+03   -0.11214E-03    0.25023E-05  8424   0.337E-04 0.554E-04
CGA:  24    -0.669735573469E+03   -0.28798E-04    0.60586E-05  8424   0.374E-04 0.140E-04
CGA:  25    -0.669735688757E+03   -0.11529E-03    0.19975E-05  8424   0.313E-04 0.513E-04
CGA:  26    -0.669735765334E+03   -0.76577E-04    0.10168E-05  8424   0.348E-04 0.130E-04
CGA:  27    -0.669735874651E+03   -0.10932E-03    0.18076E-05  8424   0.293E-04 0.478E-04
CGA:  28    -0.669735901623E+03   -0.26972E-04    0.44331E-05  8424   0.327E-04 0.121E-04
CGA:  29    -0.669736013289E+03   -0.11167E-03    0.15158E-05  8424   0.277E-04 0.449E-04
CGA:  30    -0.669736088282E+03   -0.74993E-04    0.78968E-06  8424   0.307E-04 0.113E-04
CGA:  31    -0.669736193631E+03   -0.10535E-03    0.14137E-05  8424   0.262E-04 0.421E-04
CGA:  32    -0.669736218469E+03   -0.24838E-04    0.36990E-05  8424   0.289E-04 0.107E-04
CGA:  33    -0.669736325148E+03   -0.10668E-03    0.12151E-05  8424   0.248E-04 0.396E-04
CGA:  34    -0.669736398158E+03   -0.73011E-04    0.64196E-06  8424   0.271E-04 0.103E-04
CGA:  35    -0.669736498222E+03   -0.10006E-03    0.11449E-05  8424   0.235E-04 0.371E-04
CGA:  36    -0.669736521699E+03   -0.23477E-04    0.29739E-05  8424   0.251E-04 0.102E-04
CGA:  37    -0.669736621902E+03   -0.10020E-03    0.99087E-06  8424   0.220E-04 0.347E-04
CGA:  38    -0.669736691153E+03   -0.69251E-04    0.52678E-06  8424   0.227E-04 0.104E-04
CGA:  39    -0.669736783790E+03   -0.92637E-04    0.93164E-06  8424   0.205E-04 0.321E-04
CGA:  40    -0.669736808981E+03   -0.25190E-04    0.17769E-05  8424   0.202E-04 0.110E-04
CGA:  41    -0.669736875725E+03   -0.66744E-04    0.45419E-06  8424   0.211E-04 0.986E-05
CGA:  42    -0.669736966600E+03   -0.90876E-04    0.83227E-06  8424   0.191E-04 0.308E-04
CGA:  43    -0.669736989789E+03   -0.23189E-04    0.16970E-05  8424   0.196E-04 0.975E-05
CGA:  44    -0.669737056004E+03   -0.66214E-04    0.43037E-06  8424   0.206E-04 0.853E-05
CGA:  45    -0.669737144271E+03   -0.88267E-04    0.75110E-06  8424   0.188E-04 0.290E-04
CGA:  46    -0.669737164615E+03   -0.20344E-04    0.20312E-05  8424   0.194E-04 0.827E-05
CGA:  47    -0.669737252260E+03   -0.87645E-04    0.66838E-06  8424   0.179E-04 0.274E-04
CGA:  48    -0.669737315185E+03   -0.62925E-04    0.37343E-06  8424   0.182E-04 0.809E-05
CGA:  49    -0.669737397610E+03   -0.82425E-04    0.63460E-06  8424   0.170E-04 0.258E-04
CGA:  50    -0.669737418029E+03   -0.20419E-04    0.15402E-05  8424   0.168E-04 0.807E-05
CGA:  51    -0.669737499279E+03   -0.81250E-04    0.55991E-06  8424   0.161E-04 0.241E-04
CGA:  52    -0.669737557222E+03   -0.57943E-04    0.33001E-06  8424   0.153E-04 0.819E-05
CGA:  53    -0.669737578086E+03   -0.20864E-04    0.11227E-05  8424   0.150E-04 0.836E-05
CGA:  54    -0.669737635348E+03   -0.57262E-04    0.28415E-06  8424   0.149E-04 0.824E-05
CGA:  55    -0.669737655268E+03   -0.19920E-04    0.11165E-05  8424   0.149E-04 0.794E-05
CGA:  56    -0.669737712455E+03   -0.57187E-04    0.28166E-06  8424   0.151E-04 0.750E-05
CGA:  57    -0.669737730640E+03   -0.18185E-04    0.13550E-05  8424   0.155E-04 0.690E-05
CGA:  58    -0.669737807616E+03   -0.76976E-04    0.48758E-06  8424   0.144E-04 0.222E-04
CGA:  59    -0.669737864026E+03   -0.56410E-04    0.26700E-06  8424   0.148E-04 0.661E-05
CGA:  60    -0.669737938189E+03   -0.74163E-04    0.46667E-06  8424   0.138E-04 0.213E-04
CGA:  61    -0.669737954701E+03   -0.16511E-04    0.12493E-05  8424   0.143E-04 0.631E-05
CGA:  62    -0.669738028408E+03   -0.73708E-04    0.43169E-06  8424   0.132E-04 0.205E-04
CGA:  63    -0.669738082529E+03   -0.54120E-04    0.23086E-06  8424   0.136E-04 0.608E-05
CGA:  64    -0.669738152835E+03   -0.70307E-04    0.41459E-06  8424   0.126E-04 0.196E-04
CGA:  65    -0.669738168003E+03   -0.15168E-04    0.11359E-05  8424   0.130E-04 0.586E-05
CGA:  66    -0.669738237823E+03   -0.69820E-04    0.37969E-06  8424   0.121E-04 0.187E-04
CGA:  67    -0.669738289436E+03   -0.51613E-04    0.20182E-06  8424   0.123E-04 0.569E-05
CGA:  68    -0.669738355575E+03   -0.66139E-04    0.36418E-06  8424   0.116E-04 0.178E-04
CGA:  69    -0.669738369930E+03   -0.14355E-04    0.98431E-06  8424   0.117E-04 0.555E-05
CGA:  70    -0.669738435303E+03   -0.65373E-04    0.33147E-06  8424   0.111E-04 0.170E-04
CGA:  71    -0.669738483936E+03   -0.48633E-04    0.17894E-06  8424   0.109E-04 0.547E-05
CGA:  72    -0.669738545603E+03   -0.61668E-04    0.31559E-06  8424   0.106E-04 0.161E-04
CGA:  73    -0.669738560000E+03   -0.14397E-04    0.77594E-06  8424   0.102E-04 0.543E-05
CGA:  74    -0.669738606518E+03   -0.46517E-04    0.15902E-06  8424   0.100E-04 0.549E-05
CGA:  75    -0.669738620538E+03   -0.14020E-04    0.70137E-06  8424   0.988E-05 0.545E-05
CGA:  76    -0.669738666298E+03   -0.45760E-04    0.15090E-06  8424   0.983E-05 0.533E-05
CGA:  77    -0.669738679796E+03   -0.13498E-04    0.71215E-06  8424   0.985E-05 0.515E-05
CGA:  78    -0.669738725284E+03   -0.45488E-04    0.15090E-06  8424   0.994E-05 0.490E-05
CGA:  79    -0.669738783665E+03   -0.58380E-04    0.27472E-06  8424   0.944E-05 0.147E-04
CGA:  80    -0.669738796051E+03   -0.12386E-04    0.73481E-06  8424   0.956E-05 0.473E-05
CGA:  81    -0.669738840854E+03   -0.44803E-04    0.14402E-06  8424   0.976E-05 0.438E-05
CGA:  82    -0.669738897374E+03   -0.56520E-04    0.25907E-06  8424   0.919E-05 0.140E-04
CGA:  83    -0.669738908303E+03   -0.10929E-04    0.84382E-06  8424   0.938E-05 0.423E-05
CGA:  84    -0.669738963993E+03   -0.55691E-04    0.24200E-06  8424   0.882E-05 0.135E-04
CGA:  85    -0.669739007032E+03   -0.43039E-04    0.12714E-06  8424   0.904E-05 0.406E-05
CGA:  86    -0.669739060507E+03   -0.53475E-04    0.23449E-06  8424   0.849E-05 0.130E-04
CGA:  87    -0.669739070290E+03   -0.97832E-05    0.82313E-06  8424   0.866E-05 0.393E-05
  49 F= -.66973907E+03 E0= -.66973907E+03  d E =0.250221E+00  mag=     2.0000
       N       E                     dE             d eps       ncg     rms          ort
SDA:   1    -0.644251837564E+03    0.25487E+02    0.00000E+00  8424   0.884E+02 0.000E+00
CGA:   2    -0.660405007828E+03   -0.16153E+02   -0.16236E+02  8424   0.322E+02 0.275E+00
CGA:   3    -0.667419233299E+03   -0.70142E+01   -0.70089E+01  8424   0.106E+02-0.765E-01
CGA:   4    -0.669228810929E+03   -0.18096E+01   -0.18112E+01  8424   0.279E+01 0.452E-02
CGA:   5    -0.669694308158E+03   -0.46550E+00   -0.46631E+00  8424   0.601E+00 0.549E-02
CGA:   6    -0.669813290224E+03   -0.11898E+00   -0.11888E+00  8424   0.133E+00-0.232E-02
CGA:   7    -0.669843010751E+03   -0.29721E-01   -0.29734E-01  8424   0.408E-01 0.109E-02
CGA:   8    -0.669852842655E+03   -0.98319E-02   -0.98308E-02  8424   0.120E-01 0.350E-03
CGA:   9    -0.669856297645E+03   -0.34550E-02   -0.35027E-02  8424   0.445E-02-0.917E-03
CGA:  10    -0.669857479029E+03   -0.11814E-02   -0.11882E-02  8424   0.184E-02-0.136E-03
CGA:  11    -0.669858066156E+03   -0.58713E-03   -0.72499E-03  8424   0.151E-02-0.838E-03
CGA:  12    -0.669858238426E+03   -0.17227E-03   -0.16626E-03  8424   0.629E-03-0.128E-03
CGA:  13    -0.669858402718E+03   -0.16429E-03   -0.17570E-03  8424   0.490E-03-0.198E-03
CGA:  14    -0.669855432477E+03    0.29702E-02   -0.16100E-02  8424   0.196E-01-0.255E-02
CGA:  15    -0.669858098209E+03   -0.26657E-02   -0.28448E-02  8424   0.288E-02 0.652E-03
CGA:  16    -0.669858966228E+03   -0.86802E-03   -0.86198E-03  8424   0.358E-03-0.412E-04
CGA:  17    -0.669859064106E+03   -0.97879E-04   -0.10140E-03  8424   0.121E-03 0.239E-04
CGA:  18    -0.669859075770E+03   -0.11664E-04   -0.24747E-04  8424   0.461E-04 0.557E-04
CGA:  19    -0.669859084786E+03   -0.90158E-05   -0.15171E-04  8424   0.326E-04 0.324E-04
CGA:  20    -0.669859102763E+03   -0.17977E-04   -0.21132E-04  8424   0.120E-03-0.132E-04
CGA:  21    -0.669859107038E+03   -0.42753E-05   -0.12793E-04  8424   0.129E-03 0.341E-04
CGA:  22    -0.669859113899E+03   -0.68606E-05   -0.21950E-04  8424   0.419E-04 0.532E-04
CGA:  23    -0.669859130711E+03   -0.16812E-04   -0.17621E-04  8424   0.634E-04 0.753E-05
CGA:  24    -0.669859190420E+03   -0.59709E-04    0.45244E-03  8424   0.121E-03-0.135E-04
CGA:  25    -0.669859287775E+03   -0.97356E-04    0.58155E-04  8424   0.334E-03-0.665E-04
CGA:  26    -0.669859347393E+03   -0.59617E-04   -0.68184E-04  8424   0.838E-04 0.468E-04
CGA:  27    -0.669858215688E+03    0.11317E-02   -0.61124E-03  8424   0.527E-02-0.672E-03
CGA:  28    -0.669859238554E+03   -0.10229E-02   -0.11185E-02  8424   0.125E-02 0.202E-03
CGA:  29    -0.669859599723E+03   -0.36117E-03   -0.32486E-03  8424   0.822E-04-0.878E-04
CGA:  30    -0.669859616947E+03   -0.17224E-04   -0.22434E-04  8424   0.232E-04 0.148E-04
CGA:  31    -0.669859631422E+03   -0.14475E-04   -0.12936E-04  8424   0.351E-04-0.101E-04
CGA:  32    -0.669859638077E+03   -0.66548E-05   -0.59648E-05  8424   0.331E-04-0.262E-05
CGA:  33    -0.669859650298E+03   -0.12221E-04   -0.11905E-04  8424   0.606E-04-0.240E-05
CGA:  34    -0.669859619712E+03    0.30585E-04   -0.70071E-04  8424   0.823E-03-0.167E-03
CGA:  35    -0.669859806059E+03   -0.18635E-03   -0.18109E-03  8424   0.216E-03-0.132E-04
CGA:  36    -0.669859863692E+03   -0.57633E-04   -0.47499E-04  8424   0.434E-04-0.266E-04
CGA:  37    -0.669859935381E+03   -0.71689E-04    0.18393E-04  8424   0.451E-04-0.284E-05
CGA:  38    -0.669859959791E+03   -0.24411E-04   -0.19232E-04  8424   0.106E-03-0.403E-04
CGA:  39    -0.669859997562E+03   -0.37771E-04   -0.19643E-04  8424   0.414E-04-0.460E-04
CGA:  40    -0.669860001846E+03   -0.42844E-05   -0.58213E-05  8424   0.589E-05 0.491E-05
  50 F= -.66986000E+03 E0= -.66986000E+03  d E =-.120932E+00  mag=     2.0000
       N       E                     dE             d eps       ncg     rms          ort
SDA:   1    -0.669435094242E+03    0.42490E+00    0.00000E+00  8424   0.148E+01 0.000E+00
CGA:   2    -0.669760215551E+03   -0.32512E+00   -0.32546E+00  8424   0.670E+00 0.295E-03
CGA:   3    -0.669897956439E+03   -0.13774E+00   -0.13764E+00  8424   0.200E+00-0.515E-04
CGA:   4    -0.669929999142E+03   -0.32043E-01   -0.32071E-01  8424   0.473E-01 0.569E-04
CGA:   5    -0.669938143711E+03   -0.81446E-02   -0.81634E-02  8424   0.982E-02 0.481E-04
CGA:   6    -0.669940106749E+03   -0.19630E-02   -0.19505E-02  8424   0.227E-02-0.482E-04
CGA:   7    -0.669940581697E+03   -0.47495E-03   -0.48878E-03  8424   0.654E-03 0.579E-04
CGA:   8    -0.669940731251E+03   -0.14955E-03   -0.15641E-03  8424   0.186E-03 0.326E-04
CGA:   9    -0.669940776179E+03   -0.44928E-04   -0.48844E-04  8424   0.580E-04 0.215E-04
CGA:  10    -0.669940784062E+03   -0.78831E-05   -0.13349E-04  8424   0.229E-04 0.252E-04
  51 F= -.66994078E+03 E0= -.66994078E+03  d E =-.807822E-01  mag=     2.0000
       N       E                     dE             d eps       ncg     rms          ort
SDA:   1    -0.646055505383E+03    0.23885E+02    0.00000E+00  8424   0.773E+02 0.000E+00
CGA:   2    -0.661059727970E+03   -0.15004E+02   -0.15149E+02  8424   0.303E+02-0.127E+00
CGA:   3    -0.667536990003E+03   -0.64773E+01   -0.64551E+01  8424   0.957E+01 0.749E-01
CGA:   4    -0.669155804591E+03   -0.16188E+01   -0.16219E+01  8424   0.243E+01 0.512E-02
CGA:   5    -0.669567451158E+03   -0.41165E+00   -0.41312E+00  8424   0.520E+00 0.225E-02
CGA:   6    -0.669670331834E+03   -0.10288E+00   -0.10271E+00  8424   0.116E+00-0.727E-03
CGA:   7    -0.669696274865E+03   -0.25943E-01   -0.26088E-01  8424   0.354E-01 0.112E-02
CGA:   8    -0.669704775850E+03   -0.85010E-02   -0.85532E-02  8424   0.105E-01 0.490E-03
CGA:   9    -0.669707781779E+03   -0.30059E-02   -0.29881E-02  8424   0.367E-02-0.300E-03
CGA:  10    -0.669708770837E+03   -0.98906E-03   -0.10017E-02  8424   0.140E-02 0.224E-03
CGA:  11    -0.669709251624E+03   -0.48079E-03   -0.47970E-03  8424   0.595E-03-0.908E-04
CGA:  12    -0.669709361425E+03   -0.10980E-03   -0.12348E-03  8424   0.214E-03 0.121E-03
CGA:  13    -0.669709429121E+03   -0.67696E-04   -0.70745E-04  8424   0.116E-03 0.561E-04
CGA:  14    -0.669709484215E+03   -0.55094E-04   -0.53379E-04  8424   0.116E-03 0.434E-04
CGA:  15    -0.669709508583E+03   -0.24368E-04   -0.35369E-04  8424   0.974E-04 0.102E-03
CGA:  16    -0.669709532954E+03   -0.24371E-04   -0.26718E-04  8424   0.513E-04 0.484E-04
CGA:  17    -0.669709552070E+03   -0.19116E-04   -0.21372E-04  8424   0.459E-04 0.533E-04
CGA:  18    -0.669709568671E+03   -0.16601E-04   -0.15732E-04  8424   0.396E-04 0.345E-04
CGA:  19    -0.669709582269E+03   -0.13597E-04   -0.13163E-04  8424   0.419E-04 0.319E-04
CGA:  20    -0.669709596172E+03   -0.13903E-04   -0.13727E-04  8424   0.569E-04 0.225E-04
CGA:  21    -0.669709603315E+03   -0.71438E-05   -0.10089E-04  8424   0.416E-04 0.204E-04
CGA:  22    -0.669709636129E+03   -0.32813E-04   -0.25440E-04  8424   0.608E-04 0.523E-04
CGA:  23    -0.669709646561E+03   -0.10432E-04   -0.11702E-04  8424   0.467E-04 0.975E-05
CGA:  24    -0.669709678982E+03   -0.32421E-04   -0.24859E-04  8424   0.517E-04 0.506E-04
CGA:  25    -0.669709694312E+03   -0.15331E-04   -0.15211E-04  8424   0.790E-04-0.485E-05
CGA:  26    -0.669709776035E+03   -0.81723E-04   -0.55716E-04  8424   0.132E-03 0.519E-04
CGA:  27    -0.669709787175E+03   -0.11140E-04   -0.18291E-04  8424   0.267E-04 0.349E-04
CGA:  28    -0.669709797612E+03   -0.10437E-04   -0.10642E-04  8424   0.491E-04 0.123E-04
CGA:  29    -0.669709984858E+03   -0.18725E-03   -0.26116E-04  8424   0.618E-03-0.676E-05
CGA:  30    -0.669709903906E+03    0.80952E-04   -0.91256E-03  8424   0.109E-01-0.319E-02
CGA:  31    -0.669712556903E+03   -0.26530E-02   -0.27954E-02  8424   0.152E-02 0.356E-03
CGA:  32    -0.669712827416E+03   -0.27051E-03   -0.32316E-03  8424   0.277E-03 0.120E-03
CGA:  33    -0.669712801092E+03    0.26324E-04   -0.50183E-04  8424   0.155E-03 0.170E-03
CGA:  34    -0.669712772947E+03    0.28145E-04   -0.26460E-04  8424   0.120E-03 0.128E-03
CGA:  35    -0.669712744259E+03    0.28688E-04   -0.18730E-04  8424   0.109E-03 0.113E-03
CGA:  36    -0.669712716391E+03    0.27867E-04   -0.15587E-04  8424   0.103E-03 0.106E-03
CGA:  37    -0.669712690011E+03    0.26380E-04   -0.13846E-04  8424   0.989E-04 0.101E-03
CGA:  38    -0.669712664984E+03    0.25027E-04   -0.12544E-04  8424   0.957E-04 0.971E-04
CGA:  39    -0.669712641246E+03    0.23738E-04   -0.11517E-04  8424   0.931E-04 0.943E-04
CGA:  40    -0.669712618712E+03    0.22534E-04   -0.10657E-04  8424   0.909E-04 0.919E-04
CGA:  41    -0.669712597301E+03    0.21411E-04   -0.99135E-05  8424   0.890E-04 0.899E-04
CGA:  42    -0.669712576941E+03    0.20360E-04   -0.92571E-05  8424   0.873E-04 0.881E-04
CGA:  43    -0.669712557564E+03    0.19377E-04   -0.86686E-05  8424   0.858E-04 0.865E-04
CGA:  44    -0.669712539110E+03    0.18454E-04   -0.81357E-05  8424   0.845E-04 0.851E-04
CGA:  45    -0.669712521523E+03    0.17586E-04   -0.76497E-05  8424   0.833E-04 0.839E-04
CGA:  46    -0.669712504754E+03    0.16770E-04   -0.72036E-05  8424   0.822E-04 0.827E-04
CGA:  47    -0.669712488755E+03    0.15998E-04   -0.67925E-05  8424   0.811E-04 0.816E-04
CGA:  48    -0.669712473487E+03    0.15269E-04   -0.64122E-05  8424   0.802E-04 0.806E-04
CGA:  49    -0.669712458910E+03    0.14577E-04   -0.60594E-05  8424   0.793E-04 0.797E-04
CGA:  50    -0.669712444988E+03    0.13921E-04   -0.57313E-05  8424   0.785E-04 0.788E-04
CGA:  51    -0.669712431690E+03    0.13298E-04   -0.54257E-05  8424   0.777E-04 0.780E-04
CGA:  52    -0.669712418985E+03    0.12706E-04   -0.51404E-05  8424   0.770E-04 0.773E-04
CGA:  53    -0.669712406842E+03    0.12143E-04   -0.48736E-05  8424   0.763E-04 0.766E-04
CGA:  54    -0.669712395235E+03    0.11607E-04   -0.46237E-05  8424   0.756E-04 0.759E-04
CGA:  55    -0.669712384138E+03    0.11097E-04   -0.43895E-05  8424   0.750E-04 0.753E-04
CGA:  56    -0.669712373528E+03    0.10611E-04   -0.41696E-05  8424   0.745E-04 0.747E-04
CGA:  57    -0.669712363380E+03    0.10148E-04   -0.39630E-05  8424   0.739E-04 0.742E-04
CGA:  58    -0.669712353673E+03    0.97065E-05   -0.37685E-05  8424   0.734E-04 0.736E-04
  52 F= -.66971235E+03 E0= -.66971235E+03  d E =0.228430E+00  mag=     2.0000
       N       E                     dE             d eps       ncg     rms          ort
SDA:   1    -0.652379554726E+03    0.17333E+02    0.00000E+00  8424   0.596E+02 0.000E+00
CGA:   2    -0.663513907418E+03   -0.11134E+02   -0.11155E+02  8424   0.222E+02 0.295E+00
CGA:   3    -0.668318289092E+03   -0.48044E+01   -0.48045E+01  8424   0.728E+01-0.696E-01
CGA:   4    -0.669553650111E+03   -0.12354E+01   -0.12361E+01  8424   0.191E+01 0.535E-02
CGA:   5    -0.669873112225E+03   -0.31946E+00   -0.31981E+00  8424   0.413E+00 0.520E-02
CGA:   6    -0.669954208372E+03   -0.81096E-01   -0.81071E-01  8424   0.913E-01-0.171E-02
CGA:   7    -0.669974387389E+03   -0.20179E-01   -0.20161E-01  8424   0.277E-01 0.141E-02
CGA:   8    -0.669981038020E+03   -0.66506E-02   -0.66276E-02  8424   0.812E-02 0.892E-03
CGA:   9    -0.669983341966E+03   -0.23039E-02   -0.23014E-02  8424   0.290E-02 0.363E-04
CGA:  10    -0.669984082600E+03   -0.74063E-03   -0.72179E-03  8424   0.116E-02 0.558E-03
CGA:  11    -0.669984460681E+03   -0.37808E-03   -0.36180E-03  8424   0.504E-03 0.353E-03
CGA:  12    -0.669984588123E+03   -0.12744E-03   -0.13303E-03  8424   0.281E-03 0.344E-03
CGA:  13    -0.669984621248E+03   -0.33125E-04   -0.45310E-04  8424   0.193E-03 0.215E-03
CGA:  14    -0.669984643259E+03   -0.22011E-04   -0.31377E-04  8424   0.172E-03 0.180E-03
CGA:  15    -0.669984654901E+03   -0.11642E-04   -0.23879E-04  8424   0.163E-03 0.167E-03
CGA:  16    -0.669984664745E+03   -0.98441E-05   -0.21813E-04  8424   0.157E-03 0.160E-03
CGA:  17    -0.669984672734E+03   -0.79894E-05   -0.20025E-04  8424   0.153E-03 0.155E-03
CGA:  18    -0.669984679529E+03   -0.67946E-05   -0.18717E-04  8424   0.150E-03 0.151E-03
CGA:  19    -0.669984685414E+03   -0.58854E-05   -0.17640E-04  8424   0.147E-03 0.148E-03
CGA:  20    -0.669984690587E+03   -0.51724E-05   -0.16721E-04  8424   0.144E-03 0.146E-03
CGA:  21    -0.669984695183E+03   -0.45964E-05   -0.15915E-04  8424   0.142E-03 0.143E-03
CGA:  22    -0.669984699305E+03   -0.41216E-05   -0.15195E-04  8424   0.140E-03 0.141E-03
CGA:  23    -0.669984703029E+03   -0.37244E-05   -0.14544E-04  8424   0.138E-03 0.139E-03
CGA:  24    -0.669984706418E+03   -0.33890E-05   -0.13949E-04  8424   0.137E-03 0.138E-03
CGA:  25    -0.669984709520E+03   -0.31017E-05   -0.13401E-04  8424   0.135E-03 0.136E-03
CGA:  26    -0.669984712376E+03   -0.28562E-05   -0.12894E-04  8424   0.134E-03 0.135E-03
CGA:  27    -0.669984715020E+03   -0.26437E-05   -0.12422E-04  8424   0.133E-03 0.133E-03
CGA:  28    -0.669984717478E+03   -0.24583E-05   -0.11980E-04  8424   0.131E-03 0.132E-03
CGA:  29    -0.669984719774E+03   -0.22957E-05   -0.11564E-04  8424   0.130E-03 0.131E-03
CGA:  30    -0.669984721926E+03   -0.21523E-05   -0.11172E-04  8424   0.129E-03 0.130E-03
CGA:  31    -0.669984723951E+03   -0.20247E-05   -0.10801E-04  8424   0.128E-03 0.129E-03
CGA:  32    -0.669984725862E+03   -0.19108E-05   -0.10448E-04  8424   0.127E-03 0.128E-03
CGA:  33    -0.669984727670E+03   -0.18081E-05   -0.10113E-04  8424   0.126E-03 0.127E-03
