       N       E                     dE             d eps       ncg     rms          ort
DAV:   1     0.827426372582E+04    0.82743E+04   -0.24657E+05  8424   0.238E+03
DAV:   2     0.920843498141E+03   -0.73534E+04   -0.69014E+04  8424   0.657E+02
DAV:   3    -0.673719019516E+03   -0.15946E+04   -0.14015E+04  8424   0.282E+02
DAV:   4    -0.830153997408E+03   -0.15643E+03   -0.15370E+03  8424   0.858E+01
DAV:   5    -0.832658798119E+03   -0.25048E+01   -0.24941E+01  8424   0.122E+01
SDA:   6    -0.261605213249E+03    0.57105E+03   -0.24941E+01  8424   0.380E+04 0.000E+00
CGA:   7    -0.604887284118E+03   -0.34328E+03   -0.41540E+03  8424   0.379E+03 0.512E+02
CGA:   8    -0.637984673541E+03   -0.33097E+02   -0.23075E+02  8424   0.114E+03 0.919E+02
CGA:   9    -0.649044843320E+03   -0.11060E+02   -0.15526E+02  8424   0.349E+03-0.507E+01
CGA:  10    -0.651432936150E+03   -0.23881E+01   -0.10586E+02  8424   0.142E+03-0.206E+03
CGA:  11    -0.655353619117E+03   -0.39207E+01   -0.13053E+02  8424   0.710E+02 0.123E+02
CGA:  12    -0.656303128890E+03   -0.94951E+00   -0.50440E+01  8424   0.266E+03-0.394E+02
CGA:  13    -0.657965393092E+03   -0.16623E+01   -0.20064E+02  8424   0.781E+02-0.503E+02
CGA:  14    -0.659432872314E+03   -0.14675E+01   -0.31064E+01  8424   0.415E+03-0.111E+03
CGA:  15    -0.663001442620E+03   -0.35686E+01   -0.29301E+02  8424   0.394E+02-0.410E+02
CGA:  16    -0.664667973227E+03   -0.16665E+01   -0.10166E+01  8424   0.239E+02 0.242E+02
CGA:  17    -0.665542995965E+03   -0.87502E+00   -0.53065E+00  8424   0.133E+02 0.155E+02
CGA:  18    -0.665986492058E+03   -0.44350E+00   -0.24975E+00  8424   0.843E+01 0.104E+02
CGA:  19    -0.666315137791E+03   -0.32865E+00   -0.17632E+00  8424   0.587E+01 0.724E+01
CGA:  20    -0.666650253201E+03   -0.33512E+00   -0.18401E+00  8424   0.349E+01 0.459E+01
CGA:  21    -0.667027631997E+03   -0.37738E+00   -0.32493E+00  8424   0.556E+01-0.275E+00
CGA:  22    -0.667687265679E+03   -0.65963E+00   -0.67097E+00  8424   0.513E+01-0.692E+00
CGA:  23    -0.668002173527E+03   -0.31491E+00   -0.29160E+00  8424   0.174E+01 0.576E+00
CGA:  24    -0.668098215987E+03   -0.96042E-01   -0.99755E-01  8424   0.185E+01-0.571E-01
CGA:  25    -0.668232838064E+03   -0.13462E+00   -0.13661E+00  8424   0.147E+01 0.402E-01
CGA:  26    -0.668300239390E+03   -0.67401E-01   -0.77534E-01  8424   0.910E+00-0.921E-01
CGA:  27    -0.668358645590E+03   -0.58406E-01   -0.62718E-01  8424   0.481E+00-0.530E-02
CGA:  28    -0.668400256612E+03   -0.41611E-01   -0.43308E-01  8424   0.277E+00 0.247E-01
CGA:  29    -0.668439551267E+03   -0.39295E-01   -0.38143E-01  8424   0.187E+00 0.328E-01
CGA:  30    -0.668468706716E+03   -0.29155E-01   -0.28492E-01  8424   0.118E+00 0.167E-01
CGA:  31    -0.668488371403E+03   -0.19665E-01   -0.19431E-01  8424   0.463E-01 0.497E-02
CGA:  32    -0.668500732015E+03   -0.12361E-01   -0.18025E-01  8424   0.100E+00-0.206E-01
CGA:  33    -0.668506780218E+03   -0.60482E-02   -0.57789E-02  8424   0.698E-01-0.881E-02
CGA:  34    -0.668515131172E+03   -0.83510E-02   -0.84216E-02  8424   0.748E-01-0.745E-02
CGA:  35    -0.668525225840E+03   -0.10095E-01   -0.10596E-01  8424   0.122E+00-0.161E-01
CGA:  36    -0.667666101791E+03    0.85912E+00   -0.28214E+00  8424   0.126E+02-0.172E+01
CGA:  37    -0.668402771579E+03   -0.73667E+00   -0.11251E+01  8424   0.359E+01-0.449E+01
CGA:  38    -0.668695426427E+03   -0.29265E+00   -0.29156E+00  8424   0.358E+00 0.706E-01
CGA:  39    -0.668757908500E+03   -0.62482E-01   -0.61768E-01  8424   0.213E+00-0.381E-02
CGA:  40    -0.668815771193E+03   -0.57863E-01   -0.55718E-01  8424   0.146E+00 0.217E-01
CGA:  41    -0.668857873142E+03   -0.42102E-01   -0.43288E-01  8424   0.209E+00-0.257E-01
CGA:  42    -0.668911767932E+03   -0.53895E-01   -0.64753E-01  8424   0.334E+00-0.715E-01
CGA:  43    -0.668961113401E+03   -0.49345E-01   -0.48703E-01  8424   0.256E+00-0.708E-01
CGA:  44    -0.668998313419E+03   -0.37200E-01   -0.34903E-01  8424   0.160E+00-0.448E-01
CGA:  45    -0.669033626736E+03   -0.35313E-01   -0.41023E-01  8424   0.254E+00-0.663E-01
CGA:  46    -0.669065851292E+03   -0.32225E-01   -0.30521E-01  8424   0.185E+00-0.621E-01
CGA:  47    -0.669085925666E+03   -0.20074E-01   -0.18072E-01  8424   0.947E-01-0.197E-01
CGA:  48    -0.669102581307E+03   -0.16656E-01   -0.16310E-01  8424   0.956E-01-0.116E-01
CGA:  49    -0.669121667081E+03   -0.19086E-01   -0.19164E-01  8424   0.929E-01-0.147E-01
CGA:  50    -0.669136437788E+03   -0.14771E-01   -0.14409E-01  8424   0.681E-01-0.915E-02
CGA:  51    -0.669147543536E+03   -0.11106E-01   -0.11078E-01  8424   0.518E-01-0.718E-03
CGA:  52    -0.669156183070E+03   -0.86395E-02   -0.87951E-02  8424   0.364E-01 0.290E-02
CGA:  53    -0.669163928388E+03   -0.77453E-02   -0.77927E-02  8424   0.348E-01 0.311E-02
CGA:  54    -0.669171451731E+03   -0.75233E-02   -0.75788E-02  8424   0.236E-01 0.347E-02
CGA:  55    -0.669175488958E+03   -0.40372E-02   -0.42052E-02  8424   0.144E-01 0.319E-02
CGA:  56    -0.669178566566E+03   -0.30776E-02   -0.31354E-02  8424   0.107E-01 0.279E-02
CGA:  57    -0.669180961469E+03   -0.23949E-02   -0.24167E-02  8424   0.752E-02 0.913E-03
CGA:  58    -0.669183553649E+03   -0.25922E-02   -0.27301E-02  8424   0.123E-01-0.124E-02
CGA:  59    -0.669185797482E+03   -0.22438E-02   -0.22488E-02  8424   0.110E-01-0.267E-02
CGA:  60    -0.669187886894E+03   -0.20894E-02   -0.23916E-02  8424   0.170E-01-0.537E-02
CGA:  61    -0.669189693990E+03   -0.18071E-02   -0.23193E-02  8424   0.213E-01-0.119E-01
CGA:  62    -0.669195548926E+03   -0.58549E-02   -0.59700E-02  8424   0.127E-01-0.200E-02
CGA:  63    -0.669199585692E+03   -0.40368E-02   -0.72724E-02  8424   0.271E-01-0.795E-02
CGA:  64    -0.669204733073E+03   -0.51474E-02   -0.49747E-02  8424   0.618E-02-0.288E-02
CGA:  65    -0.669206457634E+03   -0.17246E-02   -0.23063E-02  8424   0.691E-02-0.333E-02
CGA:  66    -0.669208181687E+03   -0.17241E-02   -0.17176E-02  8424   0.485E-02-0.281E-02
CGA:  67    -0.669209628453E+03   -0.14468E-02    0.24601E+00  8424   0.224E-02 0.455E-03
CGA:  68    -0.669211008214E+03   -0.13798E-02    0.25266E-02  8424   0.243E-02 0.515E-03
CGA:  69    -0.669213385979E+03   -0.23778E-02    0.63832E-03  8424   0.159E-02 0.126E-02
CGA:  70    -0.669214303760E+03   -0.91778E-03    0.13216E-02  8424   0.899E-03 0.275E-03
CGA:  71    -0.669215297599E+03   -0.99384E-03    0.15076E-03  8424   0.875E-03 0.779E-03
CGA:  72    -0.669216009090E+03   -0.71149E-03    0.17670E-03  8424   0.610E-03 0.561E-03
CGA:  73    -0.669216664263E+03   -0.65517E-03    0.67163E-04  8424   0.595E-03 0.591E-03
CGA:  74    -0.669217306072E+03   -0.64181E-03    0.64774E-04  8424   0.588E-03 0.589E-03
CGA:  75    -0.669217945168E+03   -0.63910E-03    0.63403E-04  8424   0.584E-03 0.585E-03
CGA:  76    -0.669218576780E+03   -0.63161E-03    0.63337E-04  8424   0.580E-03 0.581E-03
CGA:  77    -0.669219204299E+03   -0.62752E-03    0.62790E-04  8424   0.576E-03 0.576E-03
CGA:  78    -0.669219826685E+03   -0.62239E-03    0.62574E-04  8424   0.573E-03 0.572E-03
CGA:  79    -0.669220444015E+03   -0.61733E-03    0.62532E-04  8424   0.571E-03 0.567E-03
CGA:  80    -0.669221057783E+03   -0.61377E-03    0.62660E-04  8424   0.573E-03 0.560E-03
CGA:  81    -0.669221664709E+03   -0.60693E-03    0.64697E-04  8424   0.586E-03 0.546E-03
CGA:  82    -0.669222267211E+03   -0.60250E-03    0.70064E-04  8424   0.629E-03 0.515E-03
CGA:  83    -0.669222854838E+03   -0.58763E-03    0.91348E-04  8424   0.749E-03 0.435E-03
CGA:  84    -0.669223427388E+03   -0.57255E-03    0.17944E-03  8424   0.107E-02 0.230E-03
CGA:  85    -0.669224904426E+03   -0.14770E-02    0.15998E-03  8424   0.783E-03 0.137E-02
CGA:  86    -0.669225453088E+03   -0.54866E-03    0.24828E-03  8424   0.115E-02 0.155E-03
CGA:  87    -0.669226931432E+03   -0.14783E-02    0.15108E-03  8424   0.917E-03 0.135E-02
CGA:  88    -0.669227451751E+03   -0.52032E-03    0.88274E-03  8424   0.147E-02-0.728E-04
CGA:  89    -0.669228921349E+03   -0.14696E-02    0.14465E-03  8424   0.157E-02 0.132E-02
CGA:  90    -0.669229313478E+03   -0.39213E-03   -0.47065E-03  8424   0.479E-02-0.159E-02
CGA:  91    -0.669229989679E+03   -0.67620E-03   -0.59769E-03  8424   0.818E-03-0.616E-03
CGA:  92    -0.669230644066E+03   -0.65439E-03    0.10246E-03  8424   0.528E-03 0.596E-03
CGA:  93    -0.669231236836E+03   -0.59277E-03    0.51151E-04  8424   0.537E-03 0.480E-03
CGA:  94    -0.669231738485E+03   -0.50165E-03    0.74178E-04  8424   0.555E-03 0.460E-03
CGA:  95    -0.669232349928E+03   -0.61144E-03    0.55736E-04  8424   0.588E-03 0.428E-03
CGA:  96    -0.669232811840E+03   -0.46191E-03    0.12286E-03  8424   0.643E-03 0.379E-03
CGA:  97    -0.669233453359E+03   -0.64152E-03    0.77855E-04  8424   0.733E-03 0.302E-03
CGA:  98    -0.669234624850E+03   -0.11715E-02    0.11073E-03  8424   0.625E-03 0.106E-02
CGA:  99    -0.669235059209E+03   -0.43436E-03    0.18979E-03  8424   0.693E-03 0.308E-03
CGA: 100    -0.669236222727E+03   -0.11635E-02    0.99971E-04  8424   0.605E-03 0.102E-02
CGA: 101    -0.669236849426E+03   -0.62670E-03    0.68171E-04  8424   0.656E-03 0.314E-03
CGA: 102    -0.669237263981E+03   -0.41456E-03    0.28919E-03  8424   0.726E-03 0.247E-03
CGA: 103    -0.669238406847E+03   -0.11429E-02    0.93862E-04  8424   0.653E-03 0.988E-03
CGA: 104    -0.669239043631E+03   -0.63678E-03    0.82913E-04  8424   0.709E-03 0.235E-03
CGA: 105    -0.669240148291E+03   -0.11047E-02    0.90029E-04  8424   0.651E-03 0.953E-03
CGA: 106    -0.669240552162E+03   -0.40387E-03    0.31373E-03  8424   0.696E-03 0.221E-03
CGA: 107    -0.669241645856E+03   -0.10937E-02    0.83588E-04  8424   0.649E-03 0.923E-03
CGA: 108    -0.669242277238E+03   -0.63138E-03    0.82714E-04  8424   0.679E-03 0.209E-03
CGA: 109    -0.669243339791E+03   -0.10626E-02    0.79507E-04  8424   0.645E-03 0.890E-03
CGA: 110    -0.669243734647E+03   -0.39486E-03    0.33305E-03  8424   0.662E-03 0.200E-03
CGA: 111    -0.669244778784E+03   -0.10441E-02    0.74374E-04  8424   0.637E-03 0.858E-03
CGA: 112    -0.669245403016E+03   -0.62423E-03    0.80098E-04  8424   0.637E-03 0.197E-03
CGA: 113    -0.669246419852E+03   -0.10168E-02    0.70179E-04  8424   0.624E-03 0.826E-03
CGA: 114    -0.669246811053E+03   -0.39120E-03    0.28591E-03  8424   0.609E-03 0.199E-03
CGA: 115    -0.669247804109E+03   -0.99306E-03    0.66047E-04  8424   0.605E-03 0.795E-03
CGA: 116    -0.669248415100E+03   -0.61099E-03    0.71371E-04  8424   0.575E-03 0.208E-03
CGA: 117    -0.669249385526E+03   -0.97043E-03    0.61894E-04  8424   0.581E-03 0.764E-03
CGA: 118    -0.669249779603E+03   -0.39408E-03    0.19163E-03  8424   0.540E-03 0.221E-03
CGA: 119    -0.669250723879E+03   -0.94428E-03    0.58798E-04  8424   0.555E-03 0.735E-03
CGA: 120    -0.669251315006E+03   -0.59113E-03    0.59115E-04  8424   0.504E-03 0.236E-03
CGA: 121    -0.669252244959E+03   -0.92995E-03    0.54823E-04  8424   0.529E-03 0.708E-03
CGA: 122    -0.669252644765E+03   -0.39981E-03    0.12293E-03  8424   0.474E-03 0.248E-03
CGA: 123    -0.669253547474E+03   -0.90271E-03    0.52834E-04  8424   0.505E-03 0.684E-03
CGA: 124    -0.669254116454E+03   -0.56898E-03    0.48576E-04  8424   0.445E-03 0.259E-03
CGA: 125    -0.669254529740E+03   -0.41329E-03    0.62556E-04  8424   0.413E-03 0.296E-03
CGA: 126    -0.669255060164E+03   -0.53042E-03    0.31870E-04  8424   0.393E-03 0.315E-03
CGA: 127    -0.669255489920E+03   -0.42976E-03    0.39939E-04  8424   0.380E-03 0.326E-03
CGA: 128    -0.669255999499E+03   -0.50958E-03    0.27336E-04  8424   0.371E-03 0.331E-03
CGA: 129    -0.669256436564E+03   -0.43707E-03    0.33115E-04  8424   0.365E-03 0.333E-03
CGA: 130    -0.669256935380E+03   -0.49882E-03    0.25537E-04  8424   0.361E-03 0.333E-03
CGA: 131    -0.669257372855E+03   -0.43748E-03    0.30657E-04  8424   0.358E-03 0.331E-03
CGA: 132    -0.669257867157E+03   -0.49430E-03    0.24625E-04  8424   0.356E-03 0.329E-03
CGA: 133    -0.669258299860E+03   -0.43270E-03    0.30148E-04  8424   0.356E-03 0.325E-03
CGA: 134    -0.669258794108E+03   -0.49425E-03    0.24205E-04  8424   0.356E-03 0.319E-03
CGA: 135    -0.669259217501E+03   -0.42339E-03    0.31306E-04  8424   0.359E-03 0.313E-03
CGA: 136    -0.669259715756E+03   -0.49825E-03    0.24464E-04  8424   0.364E-03 0.304E-03
CGA: 137    -0.669260124904E+03   -0.40915E-03    0.35187E-04  8424   0.372E-03 0.292E-03
CGA: 138    -0.669260631711E+03   -0.50681E-03    0.26180E-04  8424   0.386E-03 0.276E-03
CGA: 139    -0.669261019944E+03   -0.38823E-03    0.46023E-04  8424   0.408E-03 0.254E-03
CGA: 140    -0.669261541088E+03   -0.52114E-03    0.31721E-04  8424   0.442E-03 0.221E-03
CGA: 141    -0.669261897562E+03   -0.35647E-03    0.86294E-04  8424   0.496E-03 0.173E-03
CGA: 142    -0.669262864738E+03   -0.96718E-03    0.46464E-04  8424   0.437E-03 0.681E-03
CGA: 143    -0.669263392096E+03   -0.52736E-03    0.37496E-04  8424   0.487E-03 0.164E-03
CGA: 144    -0.669264329853E+03   -0.93776E-03    0.45024E-04  8424   0.434E-03 0.661E-03
CGA: 145    -0.669264672762E+03   -0.34291E-03    0.89512E-04  8424   0.482E-03 0.152E-03
CGA: 146    -0.669265609136E+03   -0.93637E-03    0.42152E-04  8424   0.434E-03 0.644E-03
CGA: 147    -0.669266130031E+03   -0.52090E-03    0.37359E-04  8424   0.479E-03 0.140E-03
CGA: 148    -0.669267042403E+03   -0.91237E-03    0.40835E-04  8424   0.436E-03 0.626E-03
CGA: 149    -0.669267369243E+03   -0.32684E-03    0.10365E-03  8424   0.481E-03 0.123E-03
CGA: 150    -0.669268276835E+03   -0.90759E-03    0.38492E-04  8424   0.441E-03 0.610E-03
CGA: 151    -0.669268795009E+03   -0.51817E-03    0.39573E-04  8424   0.484E-03 0.105E-03
CGA: 152    -0.669269682395E+03   -0.88739E-03    0.37095E-04  8424   0.451E-03 0.592E-03
CGA: 153    -0.669269989818E+03   -0.30742E-03    0.14620E-03  8424   0.492E-03 0.834E-04
CGA: 154    -0.669270867059E+03   -0.87724E-03    0.35163E-04  8424   0.464E-03 0.575E-03
CGA: 155    -0.669271386997E+03   -0.51994E-03    0.45050E-04  8424   0.500E-03 0.603E-04
CGA: 156    -0.669272245508E+03   -0.85851E-03    0.33646E-04  8424   0.478E-03 0.556E-03
CGA: 157    -0.669272532712E+03   -0.28720E-03    0.27114E-03  8424   0.508E-03 0.376E-04
CGA: 158    -0.669273374555E+03   -0.84184E-03    0.32031E-04  8424   0.489E-03 0.537E-03
CGA: 159    -0.669273897617E+03   -0.52306E-03    0.51723E-04  8424   0.507E-03 0.211E-04
CGA: 160    -0.669274718165E+03   -0.82055E-03    0.30574E-04  8424   0.490E-03 0.515E-03
CGA: 161    -0.669274993412E+03   -0.27525E-03    0.44055E-03  8424   0.494E-03 0.170E-04
CGA: 162    -0.669275792838E+03   -0.79943E-03    0.29101E-04  8424   0.475E-03 0.493E-03
CGA: 163    -0.669276309562E+03   -0.51672E-03    0.48828E-04  8424   0.460E-03 0.320E-04
CGA: 164    -0.669277080690E+03   -0.77113E-03    0.27836E-04  8424   0.442E-03 0.470E-03
CGA: 165    -0.669277364547E+03   -0.28386E-03    0.18108E-03  8424   0.410E-03 0.649E-04
CGA: 166    -0.669278114865E+03   -0.75032E-03    0.26057E-04  8424   0.396E-03 0.447E-03
CGA: 167    -0.669278603180E+03   -0.48831E-03    0.32771E-04  8424   0.353E-03 0.107E-03
CGA: 168    -0.669279323912E+03   -0.72073E-03    0.24664E-04  8424   0.351E-03 0.425E-03
CGA: 169    -0.669279632251E+03   -0.30834E-03    0.55736E-04  8424   0.305E-03 0.145E-03
CGA: 170    -0.669280337426E+03   -0.70517E-03    0.23009E-04  8424   0.315E-03 0.408E-03
CGA: 171    -0.669280785664E+03   -0.44824E-03    0.20658E-04  8424   0.270E-03 0.171E-03
CGA: 172    -0.669281106706E+03   -0.32104E-03    0.23801E-04  8424   0.259E-03 0.184E-03
CGA: 173    -0.669281528591E+03   -0.42188E-03    0.13975E-04  8424   0.252E-03 0.190E-03
CGA: 174    -0.669281856116E+03   -0.32753E-03    0.19042E-04  8424   0.246E-03 0.193E-03
CGA: 175    -0.669282267240E+03   -0.41112E-03    0.12757E-04  8424   0.242E-03 0.195E-03
CGA: 176    -0.669282597200E+03   -0.32996E-03    0.16930E-04  8424   0.239E-03 0.196E-03
CGA: 177    -0.669283001684E+03   -0.40448E-03    0.12111E-04  8424   0.236E-03 0.195E-03
CGA: 178    -0.669283330448E+03   -0.32876E-03    0.16082E-04  8424   0.235E-03 0.194E-03
CGA: 179    -0.669283731867E+03   -0.40142E-03    0.11831E-04  8424   0.235E-03 0.192E-03
CGA: 180    -0.669284055993E+03   -0.32413E-03    0.16190E-04  8424   0.236E-03 0.188E-03
CGA: 181    -0.669284457688E+03   -0.40169E-03    0.11898E-04  8424   0.238E-03 0.184E-03
CGA: 182    -0.669284773566E+03   -0.31588E-03    0.17436E-04  8424   0.242E-03 0.178E-03
CGA: 183    -0.669285179075E+03   -0.40551E-03    0.12490E-04  8424   0.248E-03 0.170E-03
CGA: 184    -0.669285482289E+03   -0.30321E-03    0.20819E-04  8424   0.258E-03 0.159E-03
CGA: 185    -0.669285895915E+03   -0.41363E-03    0.14165E-04  8424   0.272E-03 0.144E-03
CGA: 186    -0.669286180126E+03   -0.28421E-03    0.30203E-04  8424   0.294E-03 0.124E-03
CGA: 187    -0.669286924848E+03   -0.74472E-03    0.20927E-04  8424   0.266E-03 0.423E-03
CGA: 188    -0.669287339097E+03   -0.41425E-03    0.15296E-04  8424   0.286E-03 0.122E-03
CGA: 189    -0.669288062597E+03   -0.72350E-03    0.20485E-04  8424   0.260E-03 0.413E-03
CGA: 190    -0.669288340730E+03   -0.27813E-03    0.27588E-04  8424   0.279E-03 0.120E-03
CGA: 191    -0.669289064156E+03   -0.72343E-03    0.19425E-04  8424   0.254E-03 0.404E-03
CGA: 192    -0.669289467920E+03   -0.40376E-03    0.14172E-04  8424   0.271E-03 0.118E-03
CGA: 193    -0.669290172124E+03   -0.70420E-03    0.19020E-04  8424   0.248E-03 0.394E-03
CGA: 194    -0.669290444097E+03   -0.27197E-03    0.25219E-04  8424   0.264E-03 0.117E-03
CGA: 195    -0.669291146337E+03   -0.70224E-03    0.18063E-04  8424   0.243E-03 0.385E-03
CGA: 196    -0.669291540476E+03   -0.39414E-03    0.13104E-04  8424   0.257E-03 0.116E-03
CGA: 197    -0.669292224505E+03   -0.68403E-03    0.17644E-04  8424   0.237E-03 0.376E-03
CGA: 198    -0.669292490534E+03   -0.26603E-03    0.23052E-04  8424   0.249E-03 0.115E-03
CGA: 199    -0.669293170636E+03   -0.68010E-03    0.16779E-04  8424   0.232E-03 0.367E-03
CGA: 200    -0.669293555727E+03   -0.38509E-03    0.12102E-04  8424   0.241E-03 0.114E-03
   1 F= -.66929356E+03 E0= -.66929356E+03  d E =-.669294E+03  mag=     2.0000
       N       E                     dE             d eps       ncg     rms          ort
SDA:   1    -0.669305107057E+03   -0.11936E-01    0.00000E+00  8424   0.108E-01 0.000E+00
CGA:   2    -0.669307669847E+03   -0.25628E-02   -0.25458E-02  8424   0.611E-02-0.141E-02
CGA:   3    -0.669308967202E+03   -0.12974E-02   -0.12935E-02  8424   0.287E-02-0.131E-02
CGA:   4    -0.669309534730E+03   -0.56753E-03   -0.60174E-03  8424   0.291E-02-0.168E-02
CGA:   5    -0.669310011940E+03   -0.47721E-03   -0.41483E-03  8424   0.957E-03-0.598E-03
CGA:   6    -0.669310519201E+03   -0.50726E-03    0.24286E-03  8424   0.378E-03 0.805E-04
CGA:   7    -0.669310990354E+03   -0.47115E-03    0.36137E-04  8424   0.251E-03 0.177E-03
CGA:   8    -0.669311590710E+03   -0.60036E-03    0.18776E-04  8424   0.249E-03 0.250E-03
CGA:   9    -0.669311911508E+03   -0.32080E-03    0.18055E-04  8424   0.189E-03 0.122E-03
CGA:  10    -0.669312431479E+03   -0.51997E-03    0.12099E-04  8424   0.199E-03 0.250E-03
CGA:  11    -0.669312728303E+03   -0.29682E-03    0.11554E-04  8424   0.160E-03 0.140E-03
CGA:  12    -0.669313026504E+03   -0.29820E-03    0.67456E-05  8424   0.154E-03 0.148E-03
CGA:  13    -0.669313315048E+03   -0.28854E-03    0.64808E-05  8424   0.152E-03 0.149E-03
CGA:  14    -0.669313611044E+03   -0.29600E-03    0.60458E-05  8424   0.150E-03 0.149E-03
CGA:  15    -0.669313896663E+03   -0.28562E-03    0.62311E-05  8424   0.150E-03 0.148E-03
CGA:  16    -0.669314192713E+03   -0.29605E-03    0.58826E-05  8424   0.150E-03 0.147E-03
CGA:  17    -0.669314472713E+03   -0.28000E-03    0.63233E-05  8424   0.150E-03 0.145E-03
CGA:  18    -0.669314771713E+03   -0.29900E-03    0.58510E-05  8424   0.152E-03 0.142E-03
CGA:  19    -0.669315041968E+03   -0.27025E-03    0.69326E-05  8424   0.157E-03 0.137E-03
CGA:  20    -0.669315347848E+03   -0.30588E-03    0.63121E-05  8424   0.167E-03 0.128E-03
CGA:  21    -0.669315602772E+03   -0.25492E-03    0.93928E-05  8424   0.185E-03 0.113E-03
CGA:  22    -0.669315919345E+03   -0.31657E-03    0.88619E-05  8424   0.218E-03 0.872E-04
CGA:  23    -0.669316538350E+03   -0.61900E-03    0.13018E-04  8424   0.180E-03 0.316E-03
CGA:  24    -0.669316779351E+03   -0.24100E-03    0.12261E-04  8424   0.203E-03 0.918E-04
CGA:  25    -0.669317100906E+03   -0.32155E-03    0.10771E-04  8424   0.240E-03 0.605E-04
CGA:  26    -0.669317715292E+03   -0.61439E-03    0.12323E-04  8424   0.211E-03 0.309E-03
CGA:  27    -0.669317936818E+03   -0.22153E-03    0.21829E-04  8424   0.244E-03 0.491E-04
CGA:  28    -0.669318537275E+03   -0.60046E-03    0.11679E-04  8424   0.222E-03 0.298E-03
CGA:  29    -0.669318866995E+03   -0.32972E-03    0.13038E-04  8424   0.252E-03 0.341E-04
CGA:  30    -0.669319454499E+03   -0.58750E-03    0.11100E-04  8424   0.238E-03 0.287E-03
CGA:  31    -0.669319657708E+03   -0.20321E-03    0.37805E-04  8424   0.260E-03 0.172E-04
CGA:  32    -0.669320225245E+03   -0.56754E-03    0.10556E-04  8424   0.253E-03 0.275E-03
CGA:  33    -0.669320564208E+03   -0.33896E-03    0.17241E-04  8424   0.263E-03 0.410E-05
CGA:  34    -0.669321114102E+03   -0.54989E-03    0.99520E-05  8424   0.258E-03 0.263E-03
CGA:  35    -0.669321308064E+03   -0.19396E-03    0.56538E-04  8424   0.253E-03 0.233E-05
CGA:  36    -0.669321834817E+03   -0.52675E-03    0.94877E-05  8424   0.248E-03 0.250E-03
CGA:  37    -0.669322171252E+03   -0.33644E-03    0.16663E-04  8424   0.229E-03 0.165E-04
CGA:  38    -0.669322677868E+03   -0.50662E-03    0.89720E-05  8424   0.225E-03 0.238E-03
CGA:  39    -0.669322880653E+03   -0.20279E-03    0.31788E-04  8424   0.198E-03 0.400E-04
CGA:  40    -0.669323370151E+03   -0.48950E-03    0.84950E-05  8424   0.201E-03 0.228E-03
CGA:  41    -0.669323687357E+03   -0.31721E-03    0.10746E-04  8424   0.172E-03 0.625E-04
CGA:  42    -0.669324168538E+03   -0.48118E-03    0.80169E-05  8424   0.181E-03 0.220E-03
CGA:  43    -0.669324382849E+03   -0.21431E-03    0.15251E-04  8424   0.155E-03 0.775E-04
CGA:  44    -0.669324852175E+03   -0.46933E-03    0.78604E-05  8424   0.168E-03 0.215E-03
CGA:  45    -0.669325151976E+03   -0.29980E-03    0.76038E-05  8424   0.143E-03 0.862E-04
CGA:  46    -0.669325377159E+03   -0.22518E-03    0.77353E-05  8424   0.132E-03 0.101E-03
CGA:  47    -0.669325653674E+03   -0.27651E-03    0.47998E-05  8424   0.126E-03 0.108E-03
CGA:  48    -0.669325889794E+03   -0.23612E-03    0.52943E-05  8424   0.123E-03 0.111E-03
CGA:  49    -0.669326155795E+03   -0.26600E-03    0.42516E-05  8424   0.121E-03 0.113E-03
CGA:  50    -0.669326395921E+03   -0.24013E-03    0.46899E-05  8424   0.120E-03 0.113E-03
CGA:  51    -0.669326657777E+03   -0.26186E-03    0.41053E-05  8424   0.119E-03 0.113E-03
CGA:  52    -0.669326897647E+03   -0.23987E-03    0.45542E-05  8424   0.119E-03 0.112E-03
CGA:  53    -0.669327158533E+03   -0.26089E-03    0.40751E-05  8424   0.119E-03 0.111E-03
CGA:  54    -0.669327395440E+03   -0.23691E-03    0.46566E-05  8424   0.120E-03 0.110E-03
CGA:  55    -0.669327657394E+03   -0.26195E-03    0.41706E-05  8424   0.123E-03 0.107E-03
CGA:  56    -0.669327889143E+03   -0.23175E-03    0.51027E-05  8424   0.126E-03 0.103E-03
CGA:  57    -0.669328153883E+03   -0.26474E-03    0.45927E-05  8424   0.133E-03 0.972E-04
CGA:  58    -0.669328377962E+03   -0.22408E-03    0.64639E-05  8424   0.144E-03 0.878E-04
CGA:  59    -0.669328647038E+03   -0.26908E-03    0.60534E-05  8424   0.162E-03 0.728E-04
CGA:  60    -0.669328859517E+03   -0.21248E-03    0.11401E-04  8424   0.192E-03 0.485E-04
CGA:  61    -0.669329398566E+03   -0.53905E-03    0.87046E-05  8424   0.168E-03 0.247E-03
CGA:  62    -0.669329673041E+03   -0.27447E-03    0.85208E-05  8424   0.200E-03 0.383E-04
CGA:  63    -0.669330209397E+03   -0.53636E-03    0.84936E-05  8424   0.179E-03 0.244E-03
CGA:  64    -0.669330404218E+03   -0.19482E-03    0.17435E-04  8424   0.219E-03 0.202E-04
CGA:  65    -0.669330939778E+03   -0.53556E-03    0.83380E-05  8424   0.205E-03 0.242E-03
CGA:  66    -0.669331225490E+03   -0.28571E-03    0.13155E-04  8424   0.256E-03-0.133E-04
CGA:  67    -0.669331766283E+03   -0.54079E-03    0.78816E-05  8424   0.260E-03 0.236E-03
CGA:  68    -0.669331925670E+03   -0.15939E-03    0.11704E-03  8424   0.336E-03-0.828E-04
CGA:  69    -0.669332453295E+03   -0.52762E-03    0.73643E-05  8424   0.393E-03 0.224E-03
CGA:  70    -0.669332771946E+03   -0.31865E-03    0.70653E-04  8424   0.524E-03-0.243E-03
CGA:  71    -0.669332886377E+03   -0.11443E-03   -0.10406E-03  8424   0.384E-03-0.241E-03
CGA:  72    -0.669333304764E+03   -0.41839E-03    0.77824E-05  8424   0.272E-03 0.199E-03
CGA:  73    -0.669333604557E+03   -0.29979E-03    0.25011E-04  8424   0.329E-03-0.938E-04
CGA:  74    -0.669334116160E+03   -0.51160E-03    0.65512E-05  8424   0.373E-03 0.212E-03
CGA:  75    -0.669334191980E+03   -0.75820E-04   -0.13205E-03  8424   0.139E-02-0.493E-03
CGA:  76    -0.669334516313E+03   -0.32433E-03   -0.39136E-03  8424   0.310E-02-0.187E-02
CGA:  77    -0.669334811749E+03   -0.29544E-03   -0.32911E-03  8424   0.107E-03 0.239E-03
CGA:  78    -0.669335010096E+03   -0.19835E-03    0.53592E-05  8424   0.148E-03 0.701E-04
CGA:  79    -0.669335279540E+03   -0.26944E-03    0.63542E-05  8424   0.160E-03 0.429E-04
CGA:  80    -0.669335750826E+03   -0.47129E-03    0.66559E-05  8424   0.150E-03 0.205E-03
CGA:  81    -0.669335924899E+03   -0.17407E-03    0.12771E-04  8424   0.161E-03 0.382E-04
CGA:  82    -0.669336389273E+03   -0.46437E-03    0.64068E-05  8424   0.153E-03 0.200E-03
CGA:  83    -0.669336660876E+03   -0.27160E-03    0.67788E-05  8424   0.161E-03 0.339E-04
CGA:  84    -0.669337115966E+03   -0.45509E-03    0.61645E-05  8424   0.154E-03 0.195E-03
CGA:  85    -0.669337281326E+03   -0.16536E-03    0.15115E-04  8424   0.159E-03 0.304E-04
CGA:  86    -0.669337726507E+03   -0.44518E-03    0.59126E-05  8424   0.155E-03 0.189E-03
CGA:  87    -0.669337998430E+03   -0.27192E-03    0.69988E-05  8424   0.155E-03 0.292E-04
CGA:  88    -0.669338433084E+03   -0.43465E-03    0.56353E-05  8424   0.152E-03 0.182E-03
CGA:  89    -0.669338593867E+03   -0.16078E-03    0.15280E-04  8424   0.148E-03 0.306E-04
CGA:  90    -0.669339016500E+03   -0.42263E-03    0.53904E-05  8424   0.147E-03 0.176E-03
CGA:  91    -0.669339283555E+03   -0.26705E-03    0.63576E-05  8424   0.138E-03 0.350E-04
CGA:  92    -0.669339696551E+03   -0.41300E-03    0.50967E-05  8424   0.139E-03 0.169E-03
CGA:  93    -0.669339858243E+03   -0.16169E-03    0.11870E-04  8424   0.128E-03 0.408E-04
CGA:  94    -0.669340258798E+03   -0.40055E-03    0.48887E-05  8424   0.131E-03 0.163E-03
CGA:  95    -0.669340515743E+03   -0.25695E-03    0.51336E-05  8424   0.117E-03 0.469E-04
CGA:  96    -0.669340911194E+03   -0.39545E-03    0.45930E-05  8424   0.123E-03 0.157E-03
CGA:  97    -0.669341075822E+03   -0.16463E-03    0.83429E-05  8424   0.109E-03 0.519E-04
CGA:  98    -0.669341458458E+03   -0.38264E-03    0.44686E-05  8424   0.117E-03 0.152E-03
CGA:  99    -0.669341704257E+03   -0.24580E-03    0.41347E-05  8424   0.102E-03 0.557E-04
CGA: 100    -0.669342087379E+03   -0.38312E-03    0.41779E-05  8424   0.111E-03 0.147E-03
CGA: 101    -0.669342253235E+03   -0.16586E-03    0.63034E-05  8424   0.960E-04 0.578E-04
CGA: 102    -0.669342482502E+03   -0.22927E-03    0.29075E-05  8424   0.882E-04 0.671E-04
CGA: 103    -0.669342662033E+03   -0.17953E-03    0.32795E-05  8424   0.839E-04 0.716E-04
CGA: 104    -0.669342877186E+03   -0.21515E-03    0.23254E-05  8424   0.814E-04 0.737E-04
CGA: 105    -0.669343062868E+03   -0.18568E-03    0.26105E-05  8424   0.799E-04 0.745E-04
CGA: 106    -0.669343271499E+03   -0.20863E-03    0.21631E-05  8424   0.789E-04 0.745E-04
CGA: 107    -0.669343458289E+03   -0.18679E-03    0.24132E-05  8424   0.782E-04 0.741E-04
CGA: 108    -0.669343664309E+03   -0.20602E-03    0.20983E-05  8424   0.779E-04 0.734E-04
CGA: 109    -0.669343849197E+03   -0.18489E-03    0.23753E-05  8424   0.778E-04 0.724E-04
CGA: 110    -0.669344054789E+03   -0.20559E-03    0.20799E-05  8424   0.782E-04 0.710E-04
CGA: 111    -0.669344235705E+03   -0.18092E-03    0.24641E-05  8424   0.792E-04 0.691E-04
CGA: 112    -0.669344442494E+03   -0.20679E-03    0.21449E-05  8424   0.810E-04 0.665E-04
CGA: 113    -0.669344617596E+03   -0.17510E-03    0.27852E-05  8424   0.843E-04 0.628E-04
CGA: 114    -0.669344827053E+03   -0.20946E-03    0.24286E-05  8424   0.897E-04 0.573E-04
CGA: 115    -0.669344994187E+03   -0.16713E-03    0.37457E-05  8424   0.985E-04 0.492E-04
CGA: 116    -0.669345207723E+03   -0.21354E-03    0.33708E-05  8424   0.113E-03 0.368E-04
CGA: 117    -0.669345614108E+03   -0.40639E-03    0.41609E-05  8424   0.977E-04 0.152E-03
CGA: 118    -0.669345770492E+03   -0.15638E-03    0.50328E-05  8424   0.112E-03 0.337E-04
CGA: 119    -0.669346171854E+03   -0.40136E-03    0.39583E-05  8424   0.975E-04 0.148E-03
CGA: 120    -0.669346385654E+03   -0.21380E-03    0.32844E-05  8424   0.112E-03 0.298E-04
CGA: 121    -0.669346780239E+03   -0.39458E-03    0.37868E-05  8424   0.986E-04 0.144E-03
CGA: 122    -0.669346924235E+03   -0.14400E-03    0.58065E-05  8424   0.114E-03 0.244E-04
CGA: 123    -0.669347314125E+03   -0.38989E-03    0.36007E-05  8424   0.102E-03 0.140E-03
CGA: 124    -0.669347529929E+03   -0.21580E-03    0.35760E-05  8424   0.117E-03 0.172E-04
CGA: 125    -0.669347913870E+03   -0.38394E-03    0.34117E-05  8424   0.108E-03 0.135E-03
CGA: 126    -0.669348041980E+03   -0.12811E-03    0.87960E-05  8424   0.125E-03 0.640E-05
CGA: 127    -0.669348419034E+03   -0.37705E-03    0.32397E-05  8424   0.119E-03 0.130E-03
CGA: 128    -0.669348641620E+03   -0.22259E-03    0.49542E-05  8424   0.138E-03-0.921E-05
CGA: 129    -0.669349014660E+03   -0.37304E-03    0.29990E-05  8424   0.137E-03 0.124E-03
CGA: 130    -0.669349119933E+03   -0.10527E-03    0.27630E-04  8424   0.158E-03-0.319E-04
CGA: 131    -0.669349479374E+03   -0.35944E-03    0.28327E-05  8424   0.165E-03 0.118E-03
CGA: 132    -0.669349716929E+03   -0.23756E-03    0.98869E-05  8424   0.186E-03-0.623E-04
CGA: 133    -0.669350072254E+03   -0.35532E-03    0.25653E-05  8424   0.197E-03 0.110E-03
CGA: 134    -0.669349948989E+03    0.12326E-03   -0.12988E-03  8424   0.312E-02-0.606E-03
CGA: 135    -0.669350615718E+03   -0.66673E-03   -0.53898E-03  8424   0.809E-03-0.145E-02
CGA: 136    -0.669348263327E+03    0.23524E-02   -0.12655E-02  8424   0.282E-01-0.221E-02
CGA: 137    -0.669352104184E+03   -0.38409E-02   -0.34114E-02  8424   0.192E-03-0.132E-02
CGA: 138    -0.669346751619E+03    0.53526E-02   -0.29427E-02  8424   0.501E-01-0.239E-02
CGA: 139    -0.669353711350E+03   -0.69597E-02   -0.65102E-02  8424   0.176E-02-0.551E-03
CGA: 140    -0.669354182141E+03   -0.47079E-03   -0.38388E-03  8424   0.103E-03-0.153E-03
CGA: 141    -0.669354556171E+03   -0.37403E-03    0.21807E-04  8424   0.610E-03-0.100E-03
CGA: 142    -0.669354762127E+03   -0.20596E-03   -0.11195E-03  8424   0.161E-03-0.164E-03
CGA: 143    -0.669355182939E+03   -0.42081E-03    0.30075E-04  8424   0.668E-03-0.125E-03
CGA: 144    -0.669355390686E+03   -0.20775E-03   -0.11987E-03  8424   0.167E-03-0.160E-03
CGA: 145    -0.669355739522E+03   -0.34884E-03    0.47207E-04  8424   0.788E-03-0.167E-03
CGA: 146    -0.669355981537E+03   -0.24202E-03   -0.13924E-03  8424   0.200E-03-0.196E-03
CGA: 147    -0.669356271963E+03   -0.29043E-03    0.11810E-03  8424   0.983E-03-0.232E-03
CGA: 148    -0.669356533206E+03   -0.26124E-03   -0.16126E-03  8424   0.200E-03-0.197E-03
CGA: 149    -0.669356749870E+03   -0.21666E-03    0.13372E-02  8424   0.101E-02-0.260E-03
CGA: 150    -0.669357038999E+03   -0.28913E-03   -0.17013E-03  8424   0.242E-03-0.248E-03
CGA: 151    -0.669347635766E+03    0.94032E-02   -0.51788E-02  8424   0.823E-01-0.295E-02
CGA: 152    -0.669358562981E+03   -0.10927E-01   -0.10697E-01  8424   0.597E-02-0.269E-02
CGA: 153    -0.669359780043E+03   -0.12171E-02   -0.12612E-02  8424   0.250E-03 0.509E-04
CGA: 154    -0.669360080713E+03   -0.30067E-03   -0.14613E-03  8424   0.893E-03-0.330E-03
CGA: 155    -0.669360181060E+03   -0.10035E-03   -0.12257E-03  8424   0.108E-03 0.264E-04
CGA: 156    -0.669360520993E+03   -0.33993E-03    0.98646E-04  8424   0.935E-03-0.233E-03
CGA: 157    -0.669360743049E+03   -0.22206E-03   -0.19564E-03  8424   0.201E-03-0.344E-04
CGA: 158    -0.669361002171E+03   -0.25912E-03   -0.13084E-03  8424   0.193E-02-0.484E-03
CGA: 159    -0.669361188076E+03   -0.18591E-03   -0.24069E-03  8424   0.141E-03 0.755E-04
CGA: 160    -0.669349799156E+03    0.11389E-01   -0.62896E-02  8424   0.523E-01-0.252E-02
CGA: 161    -0.669362091900E+03   -0.12293E-01   -0.13117E-01  8424   0.726E-02 0.332E-03
CGA: 162    -0.669361915619E+03    0.17628E-03   -0.18093E-02  8424   0.101E-01-0.613E-03
CGA: 163    -0.669341292480E+03    0.20623E-01   -0.20787E-02  8424   0.785E-01 0.225E-02
CGA: 164    -0.668875269735E+03    0.46602E+00   -0.60147E-02  8424   0.189E+01 0.181E+00
CGA: 165    -0.669023070220E+03   -0.14780E+00   -0.11685E+01  8424   0.800E+00 0.951E-01
CGA: 166    -0.668497330378E+03    0.52574E+00   -0.21685E+00  8424   0.145E+01 0.229E+00
CGA: 167    -0.668405138305E+03    0.92192E-01   -0.57968E+00  8424   0.276E+01 0.537E+00
CGA: 168    -0.668725302595E+03   -0.32016E+00   -0.10052E+01  8424   0.105E+01 0.775E+00
CGA: 169    -0.668862510614E+03   -0.13721E+00   -0.44539E+00  8424   0.512E+00-0.344E-01
CGA: 170    -0.669122979397E+03   -0.26047E+00   -0.19469E+00  8424   0.631E+00 0.303E+00
CGA: 171    -0.669192655324E+03   -0.69676E-01   -0.14825E+00  8424   0.291E+00-0.180E-01
CGA: 172    -0.669297275186E+03   -0.10462E+00   -0.85185E-01  8424   0.112E+00 0.347E-01
CGA: 173    -0.669346063068E+03   -0.48788E-01   -0.51533E-01  8424   0.510E-01-0.331E-03
CGA: 174    -0.669357356454E+03   -0.11293E-01   -0.10377E-01  8424   0.175E-01 0.291E-02
CGA: 175    -0.669364492469E+03   -0.71360E-02   -0.71322E-02  8424   0.654E-02 0.110E-03
CGA: 176    -0.669367173343E+03   -0.26809E-02   -0.28176E-02  8424   0.238E-02-0.790E-03
CGA: 177    -0.669367830080E+03   -0.65674E-03   -0.60325E-03  8424   0.148E-02-0.320E-03
CGA: 178    -0.669368264066E+03   -0.43399E-03   -0.36667E-03  8424   0.683E-03-0.135E-03
CGA: 179    -0.669368201795E+03    0.62272E-04   -0.90607E-03  8424   0.511E-02-0.141E-02
CGA: 180    -0.669368974498E+03   -0.77270E-03   -0.92282E-03  8424   0.125E-02 0.205E-03
CGA: 181    -0.669369704249E+03   -0.72975E-03   -0.61894E-03  8424   0.111E-02-0.319E-03
CGA: 182    -0.669370087267E+03   -0.38302E-03   -0.28265E-03  8424   0.617E-03-0.181E-03
CGA: 183    -0.669370412274E+03   -0.32501E-03   -0.21259E-03  8424   0.716E-03-0.238E-03
CGA: 184    -0.669370631733E+03   -0.21946E-03   -0.13999E-03  8424   0.908E-03-0.183E-03
CGA: 185    -0.669368832740E+03    0.17990E-02   -0.59915E-04  8424   0.695E-02 0.112E-02
CGA: 186    -0.669366864543E+03    0.19682E-02   -0.18772E-02  8424   0.114E-01 0.255E-02
CGA: 187    -0.669342187812E+03    0.24677E-01   -0.20182E-02  8424   0.746E-01 0.279E-01
CGA: 188    -0.669345240491E+03   -0.30527E-02   -0.23169E-01  8424   0.678E-01 0.236E-01
CGA: 189    -0.669243231455E+03    0.10201E+00   -0.13068E-01  8424   0.330E+00 0.955E-01
CGA: 190    -0.669268551581E+03   -0.25320E-01   -0.10190E+00  8424   0.241E+00 0.108E+00
CGA: 191    -0.669216405570E+03    0.52146E-01   -0.68153E-01  8424   0.266E+00 0.186E+00
CGA: 192    -0.669275376834E+03   -0.58971E-01   -0.85990E-01  8424   0.166E+00 0.973E-01
CGA: 193    -0.669276649746E+03   -0.12729E-02   -0.53433E-01  8424   0.162E+00 0.129E+00
CGA: 194    -0.669319317052E+03   -0.42667E-01   -0.56839E-01  8424   0.868E-01 0.553E-01
CGA: 195    -0.669342837731E+03   -0.23521E-01   -0.35896E-01  8424   0.480E-01 0.400E-01
CGA: 196    -0.669349286108E+03   -0.64484E-02   -0.17082E-01  8424   0.364E-01 0.299E-01
CGA: 197    -0.669363040263E+03   -0.13754E-01   -0.15139E-01  8424   0.635E-02 0.198E-02
CGA: 198    -0.650057416810E+03    0.19306E+02   -0.12487E-01  8424   0.756E+02-0.311E+02
CGA: 199    -0.661539725705E+03   -0.11482E+02   -0.25324E+02  8424   0.140E+02 0.151E+02
CGA: 200    -0.662344704840E+03   -0.80498E+00   -0.47832E+01  8424   0.554E+01-0.241E+01
   2 F= -.66234470E+03 E0= -.66233973E+03  d E =0.694885E+01  mag=     1.9650
       N       E                     dE             d eps       ncg     rms          ort
SDA:   1    -0.183513699326E+03    0.47803E+03    0.00000E+00  8424   0.186E+04 0.000E+00
CGA:   2    -0.273325362349E+03   -0.89812E+02   -0.21405E+03  8424   0.251E+04-0.120E+04
CGA:   3    -0.390609431242E+03   -0.11728E+03   -0.39197E+03  8424   0.294E+04 0.542E+03
CGA:   4    -0.147113107099E+03    0.24350E+03   -0.38667E+03  8424   0.260E+04 0.104E+04
CGA:   5    -0.789430553026E+02    0.68170E+02   -0.64121E+03  8424   0.243E+04 0.289E+03
CGA:   6     0.285948304088E+02    0.10754E+03   -0.45073E+03  8424   0.237E+04-0.117E+03
CGA:   7     0.138183025714E+03    0.10959E+03   -0.40622E+03  8424   0.255E+04-0.172E+03
CGA:   8     0.349141038632E+03    0.21096E+03   -0.38995E+03  8424   0.271E+04-0.374E+03
CGA:   9     0.281361051528E+03   -0.67780E+02   -0.18270E+03  8424   0.186E+04-0.995E+03
CGA:  10     0.957249680287E+02   -0.18564E+03   -0.17388E+03  8424   0.189E+04 0.103E+04
CGA:  11    -0.100101194086E+03   -0.19583E+03   -0.42195E+03  8424   0.199E+04 0.206E+03
CGA:  12    -0.492731864157E+02    0.50828E+02   -0.22997E+03  8424   0.293E+04-0.114E+04
CGA:  13    -0.256661550966E+02    0.23607E+02   -0.33366E+03  8424   0.291E+04-0.225E+03
CGA:  14    -0.611257871127E+02   -0.35460E+02   -0.29893E+03  8424   0.293E+04-0.156E+04
CGA:  15    -0.808452877257E+02   -0.19720E+02   -0.28577E+03  8424   0.253E+04-0.183E+03
CGA:  16    -0.722322972558E+02    0.86130E+01   -0.26459E+03  8424   0.173E+04-0.748E+03
CGA:  17    -0.100542702896E+03   -0.28310E+02   -0.86121E+02  8424   0.204E+04-0.331E+03
CGA:  18    -0.949330191035E+02    0.56097E+01   -0.19839E+03  8424   0.147E+04-0.355E+03
CGA:  19    -0.131182779551E+03   -0.36250E+02   -0.81512E+02  8424   0.150E+04-0.518E+02
CGA:  20    -0.113506847934E+03    0.17676E+02   -0.18361E+03  8424   0.166E+04-0.810E+02
CGA:  21    -0.198847922327E+03   -0.85341E+02   -0.22506E+03  8424   0.628E+03-0.221E+01
CGA:  22    -0.286943204854E+03   -0.88095E+02   -0.85871E+02  8424   0.357E+03 0.150E+03
CGA:  23    -0.401171948106E+03   -0.11423E+03   -0.11197E+03  8424   0.711E+03-0.386E+02
CGA:  24    -0.151465478012E+03    0.24971E+03   -0.47106E+02  8424   0.278E+04 0.178E+03
CGA:  25    -0.979941984557E+02    0.53471E+02   -0.36333E+03  8424   0.246E+04-0.139E+04
CGA:  26    -0.358875477695E+03   -0.26088E+03   -0.34604E+03  8424   0.649E+03-0.106E+03
CGA:  27    -0.475891145130E+03   -0.11702E+03   -0.11634E+03  8424   0.180E+03-0.117E+01
CGA:  28    -0.521785472831E+03   -0.45894E+02   -0.58008E+02  8424   0.453E+03-0.131E+03
CGA:  29    -0.547087730459E+03   -0.25302E+02   -0.52054E+02  8424   0.148E+03-0.677E+02
CGA:  30    -0.565493688599E+03   -0.18406E+02   -0.12865E+02  8424   0.499E+02 0.381E+02
CGA:  31    -0.578666966337E+03   -0.13173E+02   -0.13180E+02  8424   0.143E+03 0.143E-01
CGA:  32    -0.598551492976E+03   -0.19885E+02   -0.21307E+02  8424   0.130E+03 0.914E-01
CGA:  33    -0.608861042086E+03   -0.10310E+02   -0.11883E+02  8424   0.556E+02 0.599E+01
CGA:  34    -0.615912125523E+03   -0.70511E+01   -0.78378E+01  8424   0.496E+02 0.177E-01
CGA:  35    -0.621839887505E+03   -0.59278E+01   -0.66130E+01  8424   0.431E+02-0.102E+01
CGA:  36    -0.628846717956E+03   -0.70068E+01   -0.67331E+01  8424   0.327E+02-0.504E+00
CGA:  37    -0.633161350895E+03   -0.43146E+01   -0.41914E+01  8424   0.315E+02 0.848E-01
CGA:  38    -0.636779691452E+03   -0.36183E+01   -0.38247E+01  8424   0.383E+02-0.998E+00
CGA:  39    -0.641633754835E+03   -0.48541E+01   -0.50285E+01  8424   0.266E+02 0.155E+00
CGA:  40    -0.644213476750E+03   -0.25797E+01   -0.25539E+01  8424   0.187E+02-0.130E+00
CGA:  41    -0.647549470674E+03   -0.33360E+01   -0.33563E+01  8424   0.270E+02 0.503E+00
CGA:  42    -0.650418405080E+03   -0.28689E+01   -0.30951E+01  8424   0.176E+02 0.156E-01
CGA:  43    -0.652697910764E+03   -0.22795E+01   -0.22847E+01  8424   0.157E+02-0.651E-01
CGA:  44    -0.654747720603E+03   -0.20498E+01   -0.20868E+01  8424   0.136E+02 0.334E-02
CGA:  45    -0.656528300204E+03   -0.17806E+01   -0.17863E+01  8424   0.137E+02-0.212E+00
CGA:  46    -0.658469277853E+03   -0.19410E+01   -0.19533E+01  8424   0.116E+02 0.579E-03
CGA:  47    -0.659879059833E+03   -0.14098E+01   -0.14464E+01  8424   0.882E+01-0.592E-03
CGA:  48    -0.661376225043E+03   -0.14972E+01   -0.14977E+01  8424   0.894E+01-0.819E-01
CGA:  49    -0.662662782090E+03   -0.12866E+01   -0.12878E+01  8424   0.668E+01-0.142E+00
CGA:  50    -0.663554672054E+03   -0.89189E+00   -0.89198E+00  8424   0.515E+01-0.130E+00
CGA:  51    -0.664349090928E+03   -0.79442E+00   -0.79503E+00  8424   0.479E+01-0.517E-01
CGA:  52    -0.665061875371E+03   -0.71278E+00   -0.71330E+00  8424   0.359E+01-0.327E-01
CGA:  53    -0.665564812143E+03   -0.50294E+00   -0.50258E+00  8424   0.281E+01-0.521E-01
CGA:  54    -0.666027802550E+03   -0.46299E+00   -0.46282E+00  8424   0.275E+01-0.955E-01
CGA:  55    -0.666417835670E+03   -0.39003E+00   -0.38834E+00  8424   0.201E+01-0.818E-01
CGA:  56    -0.666693749374E+03   -0.27591E+00   -0.27463E+00  8424   0.168E+01-0.392E-01
CGA:  57    -0.666957671902E+03   -0.26392E+00   -0.26369E+00  8424   0.162E+01-0.237E-01
CGA:  58    -0.667171789287E+03   -0.21412E+00   -0.21334E+00  8424   0.121E+01-0.117E-01
SDA:  59    -0.667336680537E+03   -0.16489E+00   -0.16424E+00  8424   0.106E+01-0.178E-01
CGA:  60    -0.667620084891E+03   -0.28340E+00   -0.28562E+00  8424   0.107E+01-0.210E-01
CGA:  61    -0.668012342659E+03   -0.39226E+00   -0.40047E+00  8424   0.487E+00-0.498E-01
CGA:  62    -0.668162097018E+03   -0.14975E+00   -0.25556E+00  8424   0.123E+01-0.291E+00
CGA:  63    -0.668311402362E+03   -0.14931E+00   -0.14899E+00  8424   0.248E+00-0.120E-01
CGA:  64    -0.668375773806E+03   -0.64371E-01   -0.94435E-01  8424   0.585E+00-0.135E+00
CGA:  65    -0.668445579870E+03   -0.69806E-01   -0.70463E-01  8424   0.142E+00 0.495E-02
CGA:  66    -0.668479109167E+03   -0.33529E-01   -0.34026E-01  8424   0.190E+00-0.826E-02
CGA:  67    -0.668488673487E+03   -0.95643E-02   -0.82460E-01  8424   0.114E+01-0.257E+00
CGA:  68    -0.668575473196E+03   -0.86800E-01   -0.83450E-01  8424   0.184E+00 0.184E-01
CGA:  69    -0.668610078441E+03   -0.34605E-01   -0.34541E-01  8424   0.839E-01-0.247E-02
CGA:  70    -0.668622396476E+03   -0.12318E-01   -0.12275E-01  8424   0.308E-01-0.107E-02
CGA:  71    -0.668639671918E+03   -0.17275E-01   -0.17070E-01  8424   0.858E-01-0.155E-02
CGA:  72    -0.668652698902E+03   -0.13027E-01   -0.12398E-01  8424   0.116E+00-0.880E-02
CGA:  73    -0.668672808550E+03   -0.20110E-01   -0.19637E-01  8424   0.109E+00-0.180E-01
CGA:  74    -0.668683936190E+03   -0.11128E-01   -0.97408E-02  8424   0.934E-01-0.633E-02
CGA:  75    -0.668697107721E+03   -0.13172E-01   -0.12408E-01  8424   0.946E-01-0.113E-01
CGA:  76    -0.668709058751E+03   -0.11951E-01   -0.11166E-01  8424   0.991E-01-0.187E-01
CGA:  77    -0.668729016543E+03   -0.19958E-01   -0.24612E-01  8424   0.180E+00-0.446E-01
CGA:  78    -0.668742390451E+03   -0.13374E-01   -0.85817E-02  8424   0.204E+00-0.654E-02
CGA:  79    -0.668770678202E+03   -0.28288E-01   -0.21328E-01  8424   0.289E+00-0.188E-01
CGA:  80    -0.668793689681E+03   -0.23011E-01   -0.18799E-01  8424   0.368E+00-0.373E-01
CGA:  81    -0.668830242603E+03   -0.36553E-01   -0.29475E-01  8424   0.455E+00-0.633E-01
CGA:  82    -0.668875211934E+03   -0.44969E-01   -0.33602E-01  8424   0.454E+00-0.964E-01
CGA:  83    -0.668914569038E+03   -0.39357E-01   -0.24598E-01  8424   0.376E+00-0.508E-01
CGA:  84    -0.668948479767E+03   -0.33911E-01   -0.26779E-01  8424   0.365E+00-0.126E+00
CGA:  85    -0.669002669618E+03   -0.54190E-01   -0.17429E-01  8424   0.518E+00-0.293E-01
CGA:  86    -0.669026148387E+03   -0.23479E-01   -0.14929E-01  8424   0.565E+00-0.384E-02
CGA:  87    -0.669045661170E+03   -0.19513E-01   -0.16154E-01  8424   0.502E+00-0.140E+00
CGA:  88    -0.669060118907E+03   -0.14458E-01   -0.93125E-02  8424   0.435E+00-0.159E-01
CGA:  89    -0.669078205519E+03   -0.18087E-01   -0.12941E-01  8424   0.357E+00-0.289E-01
CGA:  90    -0.669092884878E+03   -0.14679E-01   -0.10856E-01  8424   0.323E+00-0.401E-01
CGA:  91    -0.669106165349E+03   -0.13280E-01   -0.99607E-02  8424   0.327E+00-0.456E-01
CGA:  92    -0.669119824390E+03   -0.13659E-01   -0.10462E-01  8424   0.355E+00-0.544E-01
CGA:  93    -0.669134752425E+03   -0.14928E-01   -0.11430E-01  8424   0.383E+00-0.600E-01
CGA:  94    -0.669150569859E+03   -0.15817E-01   -0.12174E-01  8424   0.378E+00-0.618E-01
CGA:  95    -0.669165477566E+03   -0.14908E-01   -0.11506E-01  8424   0.340E+00-0.492E-01
CGA:  96    -0.669178610052E+03   -0.13132E-01   -0.10505E-01  8424   0.301E+00-0.330E-01
CGA:  97    -0.669190276058E+03   -0.11666E-01   -0.98924E-02  8424   0.290E+00-0.200E-01
SDA:  98    -0.669201641770E+03   -0.11366E-01   -0.10265E-01  8424   0.310E+00-0.111E-01
CGA:  99    -0.669289386802E+03   -0.87745E-01   -0.80322E-01  8424   0.174E+00 0.475E-01
CGA: 100    -0.669363364149E+03   -0.73977E-01   -0.59809E-01  8424   0.576E-01 0.756E-01
CGA: 101    -0.669388687172E+03   -0.25323E-01   -0.19750E-01  8424   0.364E-01 0.467E-01
CGA: 102    -0.669398659625E+03   -0.99725E-02   -0.80500E-02  8424   0.240E-01 0.201E-01
CGA: 103    -0.669404934083E+03   -0.62745E-02   -0.49487E-02  8424   0.181E-01 0.174E-01
CGA: 104    -0.669409474057E+03   -0.45400E-02   -0.35753E-02  8424   0.148E-01 0.152E-01
CGA: 105    -0.669412901151E+03   -0.34271E-02   -0.27636E-02  8424   0.125E-01 0.133E-01
CGA: 106    -0.669415482831E+03   -0.25817E-02   -0.21810E-02  8424   0.109E-01 0.116E-01
CGA: 107    -0.669417515638E+03   -0.20328E-02   -0.17956E-02  8424   0.968E-02 0.103E-01
CGA: 108    -0.669419107220E+03   -0.15916E-02   -0.14885E-02  8424   0.869E-02 0.922E-02
CGA: 109    -0.669420386391E+03   -0.12792E-02   -0.12624E-02  8424   0.789E-02 0.833E-02
CGA: 110    -0.669421418267E+03   -0.10319E-02   -0.10801E-02  8424   0.722E-02 0.759E-02
CGA: 111    -0.669422261714E+03   -0.84345E-03   -0.93603E-03  8424   0.665E-02 0.697E-02
CGA: 112    -0.669422955669E+03   -0.69396E-03   -0.81829E-03  8424   0.617E-02 0.644E-02
CGA: 113    -0.669423531151E+03   -0.57548E-03   -0.72166E-03  8424   0.576E-02 0.599E-02
CGA: 114    -0.669424011236E+03   -0.48008E-03   -0.64116E-03  8424   0.540E-02 0.560E-02
CGA: 115    -0.669424413953E+03   -0.40272E-03   -0.57352E-03  8424   0.508E-02 0.526E-02
CGA: 116    -0.669424753343E+03   -0.33939E-03   -0.51611E-03  8424   0.481E-02 0.497E-02
CGA: 117    -0.669425040512E+03   -0.28717E-03   -0.46698E-03  8424   0.457E-02 0.471E-02
CGA: 118    -0.669425284317E+03   -0.24381E-03   -0.42461E-03  8424   0.435E-02 0.447E-02
CGA: 119    -0.669425491883E+03   -0.20757E-03   -0.38780E-03  8424   0.416E-02 0.427E-02
CGA: 120    -0.669425668990E+03   -0.17711E-03   -0.35563E-03  8424   0.398E-02 0.408E-02
CGA: 121    -0.669425820368E+03   -0.15138E-03   -0.32733E-03  8424   0.383E-02 0.392E-02
CGA: 122    -0.669425949908E+03   -0.12954E-03   -0.30230E-03  8424   0.369E-02 0.377E-02
CGA: 123    -0.669426060838E+03   -0.11093E-03   -0.28005E-03  8424   0.356E-02 0.363E-02
CGA: 124    -0.669426155852E+03   -0.95014E-04   -0.26017E-03  8424   0.344E-02 0.351E-02
CGA: 125    -0.669426237203E+03   -0.81351E-04   -0.24234E-03  8424   0.333E-02 0.340E-02
CGA: 126    -0.669426306781E+03   -0.69578E-04   -0.22628E-03  8424   0.323E-02 0.329E-02
CGA: 127    -0.669426366184E+03   -0.59403E-04   -0.21174E-03  8424   0.314E-02 0.320E-02
CGA: 128    -0.669426416771E+03   -0.50587E-04   -0.19855E-03  8424   0.306E-02 0.311E-02
CGA: 129    -0.669426459705E+03   -0.42934E-04   -0.18653E-03  8424   0.298E-02 0.303E-02
CGA: 130    -0.669426495981E+03   -0.36276E-04   -0.17554E-03  8424   0.291E-02 0.295E-02
CGA: 131    -0.669426526456E+03   -0.30475E-04   -0.16548E-03  8424   0.285E-02 0.288E-02
CGA: 132    -0.669426551866E+03   -0.25410E-04   -0.15623E-03  8424   0.278E-02 0.282E-02
CGA: 133    -0.669426572853E+03   -0.20988E-04   -0.14771E-03  8424   0.273E-02 0.276E-02
CGA: 134    -0.669426589970E+03   -0.17116E-04   -0.13984E-03  8424   0.267E-02 0.270E-02
CGA: 135    -0.669426603700E+03   -0.13730E-04   -0.13256E-03  8424   0.262E-02 0.265E-02
CGA: 136    -0.669426614462E+03   -0.10762E-04   -0.12580E-03  8424   0.258E-02 0.260E-02
CGA: 137    -0.669426622624E+03   -0.81627E-05   -0.11952E-03  8424   0.253E-02 0.256E-02
CGA: 138    -0.669426628507E+03   -0.58827E-05   -0.11367E-03  8424   0.249E-02 0.251E-02
CGA: 139    -0.669426632394E+03   -0.38873E-05   -0.10821E-03  8424   0.245E-02 0.247E-02
CGA: 140    -0.669426634533E+03   -0.21383E-05   -0.10310E-03  8424   0.241E-02 0.244E-02
CGA: 141    -0.669426635143E+03   -0.60986E-06   -0.98325E-04  8424   0.238E-02 0.240E-02
CGA: 142    -0.669426634415E+03    0.72791E-06   -0.93843E-04  8424   0.235E-02 0.237E-02
CGA: 143    -0.669426632523E+03    0.18917E-05   -0.89635E-04  8424   0.232E-02 0.233E-02
CGA: 144    -0.669426629614E+03    0.29087E-05   -0.85675E-04  8424   0.229E-02 0.230E-02
CGA: 145    -0.669426625827E+03    0.37874E-05   -0.81949E-04  8424   0.226E-02 0.227E-02
CGA: 146    -0.669426621274E+03    0.45524E-05   -0.78433E-04  8424   0.223E-02 0.225E-02
CGA: 147    -0.669426616064E+03    0.52103E-05   -0.75115E-04  8424   0.221E-02 0.222E-02
CGA: 148    -0.669426610286E+03    0.57781E-05   -0.71978E-04  8424   0.218E-02 0.220E-02
CGA: 149    -0.669426604029E+03    0.62567E-05   -0.69013E-04  8424   0.216E-02 0.217E-02
CGA: 150    -0.669426597358E+03    0.66718E-05   -0.66201E-04  8424   0.214E-02 0.215E-02
CGA: 151    -0.669426590350E+03    0.70078E-05   -0.63542E-04  8424   0.212E-02 0.213E-02
CGA: 152    -0.669426583044E+03    0.73061E-05   -0.61008E-04  8424   0.210E-02 0.211E-02
CGA: 153    -0.669426575512E+03    0.75317E-05   -0.58611E-04  8424   0.208E-02 0.209E-02
CGA: 154    -0.669426567780E+03    0.77322E-05   -0.56323E-04  8424   0.206E-02 0.207E-02
CGA: 155    -0.669426559904E+03    0.78755E-05   -0.54155E-04  8424   0.205E-02 0.206E-02
CGA: 156    -0.669426551908E+03    0.79965E-05   -0.52083E-04  8424   0.203E-02 0.204E-02
CGA: 157    -0.669426543831E+03    0.80763E-05   -0.50114E-04  8424   0.202E-02 0.202E-02
CGA: 158    -0.669426535696E+03    0.81351E-05   -0.48233E-04  8424   0.200E-02 0.201E-02
CGA: 159    -0.669426527532E+03    0.81642E-05   -0.46440E-04  8424   0.199E-02 0.199E-02
CGA: 160    -0.669426519357E+03    0.81755E-05   -0.44725E-04  8424   0.197E-02 0.198E-02
CGA: 161    -0.669426511193E+03    0.81635E-05   -0.43088E-04  8424   0.196E-02 0.197E-02
CGA: 162    -0.669426503055E+03    0.81377E-05   -0.41522E-04  8424   0.195E-02 0.196E-02
CGA: 163    -0.669426494962E+03    0.80936E-05   -0.40025E-04  8424   0.194E-02 0.194E-02
CGA: 164    -0.669426486923E+03    0.80389E-05   -0.38590E-04  8424   0.193E-02 0.193E-02
CGA: 165    -0.669426478953E+03    0.79697E-05   -0.37217E-04  8424   0.191E-02 0.192E-02
CGA: 166    -0.669426471060E+03    0.78932E-05   -0.35901E-04  8424   0.190E-02 0.191E-02
CGA: 167    -0.669426463256E+03    0.78043E-05   -0.34640E-04  8424   0.189E-02 0.190E-02
CGA: 168    -0.669426455545E+03    0.77108E-05   -0.33429E-04  8424   0.188E-02 0.189E-02
CGA: 169    -0.669426447938E+03    0.76066E-05   -0.32269E-04  8424   0.188E-02 0.188E-02
CGA: 170    -0.669426440438E+03    0.75004E-05   -0.31154E-04  8424   0.187E-02 0.187E-02
CGA: 171    -0.669426433053E+03    0.73847E-05   -0.30085E-04  8424   0.186E-02 0.186E-02
CGA: 172    -0.669426425784E+03    0.72690E-05   -0.29055E-04  8424   0.185E-02 0.185E-02
CGA: 173    -0.669426418639E+03    0.71451E-05   -0.28069E-04  8424   0.184E-02 0.185E-02
CGA: 174    -0.669426411616E+03    0.70231E-05   -0.27118E-04  8424   0.183E-02 0.184E-02
CGA: 175    -0.669426404724E+03    0.68921E-05   -0.26206E-04  8424   0.183E-02 0.183E-02
CGA: 176    -0.669426397958E+03    0.67662E-05   -0.25326E-04  8424   0.182E-02 0.182E-02
CGA: 177    -0.669426391327E+03    0.66306E-05   -0.24484E-04  8424   0.181E-02 0.182E-02
CGA: 178    -0.669426384824E+03    0.65029E-05   -0.23668E-04  8424   0.181E-02 0.181E-02
CGA: 179    -0.669426378461E+03    0.63633E-05   -0.22889E-04  8424   0.180E-02 0.180E-02
CGA: 180    -0.669426372225E+03    0.62360E-05   -0.22131E-04  8424   0.179E-02 0.180E-02
CGA: 181    -0.669426366131E+03    0.60939E-05   -0.21410E-04  8424   0.179E-02 0.179E-02
CGA: 182    -0.669426360162E+03    0.59685E-05   -0.20706E-04  8424   0.178E-02 0.178E-02
CGA: 183    -0.669426354338E+03    0.58244E-05   -0.20037E-04  8424   0.178E-02 0.178E-02
CGA: 184    -0.669426348635E+03    0.57034E-05   -0.19382E-04  8424   0.177E-02 0.177E-02
CGA: 185    -0.669426343077E+03    0.55578E-05   -0.18763E-04  8424   0.177E-02 0.177E-02
CGA: 186    -0.669426337634E+03    0.54425E-05   -0.18152E-04  8424   0.176E-02 0.176E-02
CGA: 187    -0.669426332339E+03    0.52957E-05   -0.17578E-04  8424   0.176E-02 0.176E-02
CGA: 188    -0.669426327151E+03    0.51877E-05   -0.17006E-04  8424   0.175E-02 0.175E-02
CGA: 189    -0.669426322111E+03    0.50400E-05   -0.16475E-04  8424   0.175E-02 0.175E-02
CGA: 190    -0.669426317171E+03    0.49404E-05   -0.15940E-04  8424   0.174E-02 0.174E-02
CGA: 191    -0.669426312377E+03    0.47931E-05   -0.15447E-04  8424   0.174E-02 0.174E-02
CGA: 192    -0.669426307675E+03    0.47023E-05   -0.14945E-04  8424   0.173E-02 0.174E-02
CGA: 193    -0.669426303119E+03    0.45557E-05   -0.14488E-04  8424   0.173E-02 0.173E-02
CGA: 194    -0.669426298646E+03    0.44735E-05   -0.14017E-04  8424   0.173E-02 0.173E-02
CGA: 195    -0.669426294317E+03    0.43289E-05   -0.13592E-04  8424   0.172E-02 0.172E-02
CGA: 196    -0.669426290062E+03    0.42546E-05   -0.13149E-04  8424   0.172E-02 0.172E-02
CGA: 197    -0.669426285950E+03    0.41127E-05   -0.12755E-04  8424   0.172E-02 0.172E-02
CGA: 198    -0.669426281906E+03    0.40439E-05   -0.12340E-04  8424   0.171E-02 0.171E-02
CGA: 199    -0.669426278001E+03    0.39052E-05   -0.11973E-04  8424   0.171E-02 0.171E-02
CGA: 200    -0.669426274160E+03    0.38411E-05   -0.11583E-04  8424   0.171E-02 0.171E-02
   3 F= -.66942627E+03 E0= -.66942627E+03  d E =-.708157E+01  mag=     2.0000
       N       E                     dE             d eps       ncg     rms          ort
SDA:   1    -0.669094027035E+03    0.33225E+00    0.00000E+00  8424   0.118E+01 0.000E+00
CGA:   2    -0.669274517495E+03   -0.18049E+00   -0.12445E+00  8424   0.493E+00 0.685E+00
CGA:   3    -0.669406820247E+03   -0.13230E+00   -0.72801E-01  8424   0.171E+00 0.258E+00
CGA:   4    -0.669477048182E+03   -0.70228E-01   -0.15590E-01  8424   0.516E-01 0.499E-01
CGA:   5    -0.669488213749E+03   -0.11166E-01   -0.10695E-01  8424   0.207E-01 0.672E-02
CGA:   6    -0.669492396001E+03   -0.41823E-02   -0.36987E-02  8424   0.345E-02 0.755E-02
CGA:   7    -0.669492796313E+03   -0.40031E-03   -0.42365E-03  8424   0.209E-02 0.322E-02
CGA:   8    -0.669492889144E+03   -0.92831E-04   -0.14482E-03  8424   0.178E-02 0.190E-02
CGA:   9    -0.669492941149E+03   -0.52005E-04   -0.10942E-03  8424   0.163E-02 0.169E-02
CGA:  10    -0.669492974698E+03   -0.33549E-04   -0.92076E-04  8424   0.153E-02 0.157E-02
CGA:  11    -0.669492996732E+03   -0.22034E-04   -0.80271E-04  8424   0.145E-02 0.148E-02
CGA:  12    -0.669493010779E+03   -0.14047E-04   -0.71338E-04  8424   0.138E-02 0.141E-02
CGA:  13    -0.669493018998E+03   -0.82190E-05   -0.64218E-04  8424   0.133E-02 0.135E-02
CGA:  14    -0.669493022844E+03   -0.38463E-05   -0.58362E-04  8424   0.128E-02 0.130E-02
CGA:  15    -0.669493023356E+03   -0.51248E-06   -0.53444E-04  8424   0.124E-02 0.126E-02
CGA:  16    -0.669493021303E+03    0.20529E-05   -0.49249E-04  8424   0.121E-02 0.122E-02
CGA:  17    -0.669493017272E+03    0.40312E-05   -0.45632E-04  8424   0.118E-02 0.119E-02
CGA:  18    -0.669493011735E+03    0.55373E-05   -0.42502E-04  8424   0.115E-02 0.116E-02
CGA:  19    -0.669493005038E+03    0.66966E-05   -0.39747E-04  8424   0.113E-02 0.114E-02
CGA:  20    -0.669492997454E+03    0.75843E-05   -0.37301E-04  8424   0.111E-02 0.111E-02
CGA:  21    -0.669492989199E+03    0.82553E-05   -0.35115E-04  8424   0.109E-02 0.110E-02
CGA:  22    -0.669492980446E+03    0.87529E-05   -0.33149E-04  8424   0.107E-02 0.108E-02
CGA:  23    -0.669492971335E+03    0.91113E-05   -0.31369E-04  8424   0.106E-02 0.106E-02
CGA:  24    -0.669492961977E+03    0.93572E-05   -0.29751E-04  8424   0.104E-02 0.105E-02
CGA:  25    -0.669492952465E+03    0.95124E-05   -0.28271E-04  8424   0.103E-02 0.103E-02
CGA:  26    -0.669492942871E+03    0.95941E-05   -0.26911E-04  8424   0.102E-02 0.102E-02
CGA:  27    -0.669492933255E+03    0.96163E-05   -0.25657E-04  8424   0.101E-02 0.101E-02
CGA:  28    -0.669492923664E+03    0.95904E-05   -0.24496E-04  8424   0.998E-03 0.100E-02
CGA:  29    -0.669492914138E+03    0.95259E-05   -0.23416E-04  8424   0.990E-03 0.994E-03
CGA:  30    -0.669492904708E+03    0.94299E-05   -0.22409E-04  8424   0.982E-03 0.986E-03
CGA:  31    -0.669492895399E+03    0.93090E-05   -0.21467E-04  8424   0.975E-03 0.978E-03
CGA:  32    -0.669492886231E+03    0.91681E-05   -0.20584E-04  8424   0.968E-03 0.971E-03
CGA:  33    -0.669492877220E+03    0.90115E-05   -0.19752E-04  8424   0.962E-03 0.965E-03
CGA:  34    -0.669492868377E+03    0.88426E-05   -0.18969E-04  8424   0.956E-03 0.959E-03
CGA:  35    -0.669492859713E+03    0.86643E-05   -0.18229E-04  8424   0.951E-03 0.953E-03
CGA:  36    -0.669492851234E+03    0.84791E-05   -0.17528E-04  8424   0.946E-03 0.948E-03
CGA:  37    -0.669492842945E+03    0.82891E-05   -0.16863E-04  8424   0.941E-03 0.943E-03
CGA:  38    -0.669492834850E+03    0.80951E-05   -0.16232E-04  8424   0.937E-03 0.939E-03
CGA:  39    -0.669492826950E+03    0.78998E-05   -0.15632E-04  8424   0.933E-03 0.934E-03
CGA:  40    -0.669492819247E+03    0.77029E-05   -0.15061E-04  8424   0.929E-03 0.931E-03
CGA:  41    -0.669492811740E+03    0.75066E-05   -0.14516E-04  8424   0.925E-03 0.927E-03
CGA:  42    -0.669492804430E+03    0.73108E-05   -0.13995E-04  8424   0.922E-03 0.923E-03
CGA:  43    -0.669492797313E+03    0.71170E-05   -0.13498E-04  8424   0.919E-03 0.920E-03
CGA:  44    -0.669492790388E+03    0.69248E-05   -0.13022E-04  8424   0.916E-03 0.917E-03
CGA:  45    -0.669492783652E+03    0.67353E-05   -0.12566E-04  8424   0.913E-03 0.914E-03
CGA:  46    -0.669492777104E+03    0.65484E-05   -0.12130E-04  8424   0.910E-03 0.911E-03
CGA:  47    -0.669492770739E+03    0.63649E-05   -0.11711E-04  8424   0.908E-03 0.909E-03
CGA:  48    -0.669492764555E+03    0.61846E-05   -0.11310E-04  8424   0.905E-03 0.906E-03
CGA:  49    -0.669492758546E+03    0.60081E-05   -0.10924E-04  8424   0.903E-03 0.904E-03
CGA:  50    -0.669492752711E+03    0.58350E-05   -0.10554E-04  8424   0.901E-03 0.902E-03
CGA:  51    -0.669492747046E+03    0.56659E-05   -0.10198E-04  8424   0.899E-03 0.900E-03
   4 F= -.66949275E+03 E0= -.66949275E+03  d E =-.664729E-01  mag=     2.0000
       N       E                     dE             d eps       ncg     rms          ort
SDA:   1    -0.646387124625E+03    0.23106E+02    0.00000E+00  8424   0.680E+02 0.000E+00
CGA:   2    -0.661136559892E+03   -0.14749E+02   -0.25531E+01  8424   0.212E+02 0.154E+02
CGA:   3    -0.667054670611E+03   -0.59181E+01   -0.71085E-04  8424   0.156E+02-0.772E+01
CGA:   4    -0.668152408303E+03   -0.10977E+01   -0.10969E+01  8424   0.535E+01 0.378E-01
CGA:   5    -0.668851895975E+03   -0.69949E+00   -0.69806E+00  8424   0.253E+01 0.351E-01
CGA:   6    -0.669209283370E+03   -0.35739E+00   -0.35679E+00  8424   0.102E+01 0.123E-01
CGA:   7    -0.669365873022E+03   -0.15659E+00   -0.15656E+00  8424   0.546E+00 0.450E-03
CGA:   8    -0.669458287103E+03   -0.92414E-01   -0.91897E-01  8424   0.281E+00 0.730E-02
CGA:   9    -0.669503418100E+03   -0.45131E-01   -0.44630E-01  8424   0.118E+00 0.914E-02
CGA:  10    -0.669522991335E+03   -0.19573E-01   -0.19395E-01  8424   0.474E-01 0.327E-02
CGA:  11    -0.669531768682E+03   -0.87773E-02   -0.86932E-02  8424   0.241E-01 0.116E-02
CGA:  12    -0.669536029422E+03   -0.42607E-02   -0.40569E-02  8424   0.110E-01 0.380E-02
CGA:  13    -0.669537777684E+03   -0.17483E-02   -0.16753E-02  8424   0.506E-02 0.406E-02
CGA:  14    -0.669538589578E+03   -0.81189E-03   -0.80630E-03  8424   0.265E-02 0.313E-02
CGA:  15    -0.669539107614E+03   -0.51804E-03   -0.43952E-03  8424   0.116E-02 0.154E-02
CGA:  16    -0.669539174278E+03   -0.66664E-04   -0.99508E-04  8424   0.940E-03 0.104E-02
CGA:  17    -0.669539209769E+03   -0.35491E-04   -0.70802E-04  8424   0.818E-03 0.874E-03
CGA:  18    -0.669539228469E+03   -0.18700E-04   -0.54893E-04  8424   0.741E-03 0.777E-03
CGA:  19    -0.669539237719E+03   -0.92502E-05   -0.45175E-04  8424   0.688E-03 0.712E-03
CGA:  20    -0.669539241286E+03   -0.35671E-05   -0.38693E-04  8424   0.649E-03 0.667E-03
CGA:  21    -0.669539241241E+03    0.45187E-07   -0.34056E-04  8424   0.620E-03 0.634E-03
CGA:  22    -0.669539238805E+03    0.24360E-05   -0.30555E-04  8424   0.597E-03 0.608E-03
CGA:  23    -0.669539234742E+03    0.40632E-05   -0.27798E-04  8424   0.578E-03 0.587E-03
CGA:  24    -0.669539229560E+03    0.51816E-05   -0.25562E-04  8424   0.564E-03 0.570E-03
CGA:  25    -0.669539223654E+03    0.59059E-05   -0.23754E-04  8424   0.551E-03 0.556E-03
CGA:  26    -0.669539217246E+03    0.64085E-05   -0.22204E-04  8424   0.540E-03 0.545E-03
CGA:  27    -0.669539210489E+03    0.67565E-05   -0.20845E-04  8424   0.531E-03 0.535E-03
CGA:  28    -0.669539203501E+03    0.69880E-05   -0.19639E-04  8424   0.523E-03 0.526E-03
CGA:  29    -0.669539196369E+03    0.71323E-05   -0.18558E-04  8424   0.515E-03 0.518E-03
CGA:  30    -0.669539189159E+03    0.72095E-05   -0.17580E-04  8424   0.509E-03 0.511E-03
CGA:  31    -0.669539181925E+03    0.72341E-05   -0.16688E-04  8424   0.503E-03 0.505E-03
CGA:  32    -0.669539174707E+03    0.72182E-05   -0.15871E-04  8424   0.497E-03 0.500E-03
CGA:  33    -0.669539167537E+03    0.71697E-05   -0.15119E-04  8424   0.492E-03 0.494E-03
CGA:  34    -0.669539160442E+03    0.70954E-05   -0.14422E-04  8424   0.488E-03 0.490E-03
CGA:  35    -0.669539153440E+03    0.70015E-05   -0.13776E-04  8424   0.484E-03 0.486E-03
CGA:  36    -0.669539146549E+03    0.68912E-05   -0.13173E-04  8424   0.480E-03 0.482E-03
CGA:  37    -0.669539139781E+03    0.67685E-05   -0.12610E-04  8424   0.477E-03 0.478E-03
CGA:  38    -0.669539133145E+03    0.66362E-05   -0.12082E-04  8424   0.473E-03 0.475E-03
CGA:  39    -0.669539126648E+03    0.64969E-05   -0.11586E-04  8424   0.471E-03 0.472E-03
CGA:  40    -0.669539120295E+03    0.63522E-05   -0.11118E-04  8424   0.468E-03 0.469E-03
CGA:  41    -0.669539114091E+03    0.62040E-05   -0.10677E-04  8424   0.465E-03 0.466E-03
CGA:  42    -0.669539108038E+03    0.60535E-05   -0.10260E-04  8424   0.463E-03 0.464E-03
   5 F= -.66953911E+03 E0= -.66953911E+03  d E =-.463610E-01  mag=     2.0000
       N       E                     dE             d eps       ncg     rms          ort
SDA:   1    -0.668023339093E+03    0.15158E+01    0.00000E+00  8424   0.491E+01 0.000E+00
CGA:   2    -0.669125900650E+03   -0.11026E+01   -0.10997E+01  8424   0.194E+01 0.168E-01
CGA:   3    -0.669511965773E+03   -0.38607E+00   -0.38504E+00  8424   0.612E+00 0.716E-02
CGA:   4    -0.669618354848E+03   -0.10639E+00   -0.10588E+00  8424   0.159E+00 0.489E-02
CGA:   5    -0.669645558018E+03   -0.27203E-01   -0.27043E-01  8424   0.317E-01 0.168E-02
CGA:   6    -0.669651919489E+03   -0.63615E-02   -0.62268E-02  8424   0.741E-02 0.116E-02
CGA:   7    -0.669653449135E+03   -0.15296E-02   -0.13194E-02  8424   0.232E-02 0.241E-02
CGA:   8    -0.669653864498E+03   -0.41536E-03   -0.36207E-03  8424   0.123E-02 0.186E-02
CGA:   9    -0.669653987125E+03   -0.12263E-03   -0.11749E-03  8424   0.864E-03 0.992E-03
CGA:  10    -0.669654045066E+03   -0.57941E-04   -0.67752E-04  8424   0.740E-03 0.792E-03
CGA:  11    -0.669654082396E+03   -0.37330E-04   -0.51584E-04  8424   0.666E-03 0.697E-03
CGA:  12    -0.669654108634E+03   -0.26238E-04   -0.42432E-04  8424   0.615E-03 0.636E-03
CGA:  13    -0.669654127858E+03   -0.19224E-04   -0.36321E-04  8424   0.577E-03 0.593E-03
CGA:  14    -0.669654142256E+03   -0.14397E-04   -0.31868E-04  8424   0.547E-03 0.559E-03
CGA:  15    -0.669654153152E+03   -0.10896E-04   -0.28441E-04  8424   0.523E-03 0.533E-03
CGA:  16    -0.669654161419E+03   -0.82672E-05   -0.25702E-04  8424   0.503E-03 0.511E-03
CGA:  17    -0.669654167663E+03   -0.62434E-05   -0.23453E-04  8424   0.486E-03 0.493E-03
CGA:  18    -0.669654172322E+03   -0.46589E-05   -0.21568E-04  8424   0.471E-03 0.478E-03
CGA:  19    -0.669654175723E+03   -0.34010E-05   -0.19961E-04  8424   0.459E-03 0.464E-03
CGA:  20    -0.669654178116E+03   -0.23933E-05   -0.18574E-04  8424   0.448E-03 0.453E-03
CGA:  21    -0.669654179697E+03   -0.15805E-05   -0.17362E-04  8424   0.438E-03 0.442E-03
CGA:  22    -0.669654180618E+03   -0.92125E-06   -0.16294E-04  8424   0.430E-03 0.433E-03
CGA:  23    -0.669654181003E+03   -0.38552E-06   -0.15345E-04  8424   0.422E-03 0.425E-03
CGA:  24    -0.669654180952E+03    0.51066E-07   -0.14495E-04  8424   0.415E-03 0.418E-03
CGA:  25    -0.669654180546E+03    0.40665E-06   -0.13729E-04  8424   0.409E-03 0.412E-03
CGA:  26    -0.669654179849E+03    0.69652E-06   -0.13035E-04  8424   0.404E-03 0.406E-03
CGA:  27    -0.669654178918E+03    0.93151E-06   -0.12402E-04  8424   0.399E-03 0.401E-03
CGA:  28    -0.669654177796E+03    0.11214E-05   -0.11822E-04  8424   0.394E-03 0.396E-03
CGA:  29    -0.669654176523E+03    0.12737E-05   -0.11289E-04  8424   0.390E-03 0.392E-03
CGA:  30    -0.669654175127E+03    0.13955E-05   -0.10795E-04  8424   0.386E-03 0.388E-03
CGA:  31    -0.669654173636E+03    0.14912E-05   -0.10338E-04  8424   0.383E-03 0.385E-03
   6 F= -.66965417E+03 E0= -.66965417E+03  d E =-.115066E+00  mag=     2.0000
       N       E                     dE             d eps       ncg     rms          ort
SDA:   1    -0.668637347972E+03    0.10168E+01    0.00000E+00  8424   0.290E+01 0.000E+00
CGA:   2    -0.669365309962E+03   -0.72796E+00   -0.72802E+00  8424   0.132E+01-0.455E-03
CGA:   3    -0.669617949719E+03   -0.25264E+00   -0.25105E+00  8424   0.358E+00 0.124E-01
CGA:   4    -0.669678922441E+03   -0.60973E-01   -0.60840E-01  8424   0.877E-01 0.131E-02
CGA:   5    -0.669693851970E+03   -0.14930E-01   -0.14956E-01  8424   0.181E-01-0.289E-03
CGA:   6    -0.669697427020E+03   -0.35750E-02   -0.34218E-02  8424   0.420E-02 0.140E-02
CGA:   7    -0.669698349686E+03   -0.92267E-03   -0.79514E-03  8424   0.137E-02 0.141E-02
CGA:   8    -0.669698606465E+03   -0.25678E-03   -0.22216E-03  8424   0.759E-03 0.112E-02
CGA:   9    -0.669698682261E+03   -0.75796E-04   -0.73022E-04  8424   0.555E-03 0.625E-03
CGA:  10    -0.669698724527E+03   -0.42267E-04   -0.46464E-04  8424   0.483E-03 0.512E-03
CGA:  11    -0.669698754368E+03   -0.29840E-04   -0.36829E-04  8424   0.440E-03 0.458E-03
CGA:  12    -0.669698777195E+03   -0.22827E-04   -0.31233E-04  8424   0.411E-03 0.423E-03
CGA:  13    -0.669698795429E+03   -0.18234E-04   -0.27430E-04  8424   0.389E-03 0.398E-03
CGA:  14    -0.669698810408E+03   -0.14980E-04   -0.24622E-04  8424   0.372E-03 0.379E-03
CGA:  15    -0.669698822964E+03   -0.12556E-04   -0.22438E-04  8424   0.359E-03 0.364E-03
CGA:  16    -0.669698833651E+03   -0.10687E-04   -0.20676E-04  8424   0.347E-03 0.352E-03
CGA:  17    -0.669698842864E+03   -0.92131E-05   -0.19217E-04  8424   0.338E-03 0.342E-03
CGA:  18    -0.669698850893E+03   -0.80285E-05   -0.17985E-04  8424   0.330E-03 0.333E-03
CGA:  19    -0.669698857957E+03   -0.70639E-05   -0.16927E-04  8424   0.323E-03 0.326E-03
CGA:  20    -0.669698864226E+03   -0.62694E-05   -0.16008E-04  8424   0.316E-03 0.319E-03
CGA:  21    -0.669698869835E+03   -0.56092E-05   -0.15199E-04  8424   0.311E-03 0.313E-03
CGA:  22    -0.669698874892E+03   -0.50564E-05   -0.14482E-04  8424   0.306E-03 0.309E-03
CGA:  23    -0.669698879482E+03   -0.45902E-05   -0.13839E-04  8424   0.302E-03 0.304E-03
CGA:  24    -0.669698883677E+03   -0.41947E-05   -0.13260E-04  8424   0.299E-03 0.300E-03
CGA:  25    -0.669698887534E+03   -0.38575E-05   -0.12734E-04  8424   0.295E-03 0.297E-03
CGA:  26    -0.669698891103E+03   -0.35684E-05   -0.12253E-04  8424   0.292E-03 0.294E-03
CGA:  27    -0.669698894422E+03   -0.33191E-05   -0.11811E-04  8424   0.290E-03 0.291E-03
CGA:  28    -0.669698897525E+03   -0.31029E-05   -0.11403E-04  8424   0.287E-03 0.289E-03
CGA:  29    -0.669698900440E+03   -0.29149E-05   -0.11023E-04  8424   0.285E-03 0.286E-03
CGA:  30    -0.669698903189E+03   -0.27499E-05   -0.10669E-04  8424   0.283E-03 0.284E-03
CGA:  31    -0.669698905795E+03   -0.26052E-05   -0.10337E-04  8424   0.282E-03 0.282E-03
CGA:  32    -0.669698908272E+03   -0.24773E-05   -0.10025E-04  8424   0.280E-03 0.281E-03
   7 F= -.66969891E+03 E0= -.66969891E+03  d E =-.447346E-01  mag=     2.0000
       N       E                     dE             d eps       ncg     rms          ort
SDA:   1    -0.656855276674E+03    0.12844E+02    0.00000E+00  8424   0.331E+02 0.000E+00
CGA:   2    -0.665861804505E+03   -0.90065E+01   -0.90185E+01  8424   0.164E+02-0.518E-01
CGA:   3    -0.668883815635E+03   -0.30220E+01   -0.30145E+01  8424   0.390E+01 0.633E-01
CGA:   4    -0.669531811891E+03   -0.64800E+00   -0.64800E+00  8424   0.935E+00-0.638E-03
CGA:   5    -0.669690185268E+03   -0.15837E+00   -0.15884E+00  8424   0.198E+00-0.530E-02
CGA:   6    -0.669730554422E+03   -0.40369E-01   -0.40109E-01  8424   0.484E-01 0.215E-02
CGA:   7    -0.669741741812E+03   -0.11187E-01   -0.11133E-01  8424   0.153E-01 0.397E-03
CGA:   8    -0.669745502449E+03   -0.37606E-02   -0.35238E-02  8424   0.471E-02 0.180E-02
CGA:   9    -0.669746958241E+03   -0.14558E-02   -0.12903E-02  8424   0.179E-02 0.117E-02
CGA:  10    -0.669747672160E+03   -0.71392E-03   -0.62225E-03  8424   0.932E-03 0.544E-03
CGA:  11    -0.669747956048E+03   -0.28389E-03   -0.23540E-03  8424   0.487E-03 0.651E-03
CGA:  12    -0.669748045015E+03   -0.88966E-04   -0.76678E-04  8424   0.314E-03 0.361E-03
CGA:  13    -0.669748101462E+03   -0.56447E-04   -0.48207E-04  8424   0.274E-03 0.290E-03
CGA:  14    -0.669748144656E+03   -0.43194E-04   -0.39007E-04  8424   0.257E-03 0.265E-03
CGA:  15    -0.669748183109E+03   -0.38454E-04   -0.35618E-04  8424   0.247E-03 0.252E-03
CGA:  16    -0.669748219237E+03   -0.36128E-04   -0.33890E-04  8424   0.241E-03 0.244E-03
CGA:  17    -0.669748254017E+03   -0.34780E-04   -0.32852E-04  8424   0.236E-03 0.238E-03
CGA:  18    -0.669748288094E+03   -0.34077E-04   -0.32245E-04  8424   0.232E-03 0.234E-03
CGA:  19    -0.669748321868E+03   -0.33774E-04   -0.31905E-04  8424   0.230E-03 0.231E-03
CGA:  20    -0.669748355631E+03   -0.33764E-04   -0.31759E-04  8424   0.227E-03 0.228E-03
CGA:  21    -0.669748389613E+03   -0.33982E-04   -0.31762E-04  8424   0.225E-03 0.226E-03
CGA:  22    -0.669748424008E+03   -0.34395E-04   -0.31891E-04  8424   0.223E-03 0.224E-03
CGA:  23    -0.669748458982E+03   -0.34974E-04   -0.32125E-04  8424   0.222E-03 0.222E-03
CGA:  24    -0.669748494687E+03   -0.35705E-04   -0.32457E-04  8424   0.220E-03 0.221E-03
CGA:  25    -0.669748531276E+03   -0.36588E-04   -0.32883E-04  8424   0.219E-03 0.220E-03
CGA:  26    -0.669748568900E+03   -0.37625E-04   -0.33404E-04  8424   0.218E-03 0.218E-03
CGA:  27    -0.669748607724E+03   -0.38824E-04   -0.34025E-04  8424   0.217E-03 0.217E-03
CGA:  28    -0.669748647923E+03   -0.40199E-04   -0.34751E-04  8424   0.215E-03 0.216E-03
CGA:  29    -0.669748689694E+03   -0.41770E-04   -0.35595E-04  8424   0.214E-03 0.215E-03
CGA:  30    -0.669748733255E+03   -0.43561E-04   -0.36568E-04  8424   0.213E-03 0.214E-03
CGA:  31    -0.669748778857E+03   -0.45603E-04   -0.37687E-04  8424   0.212E-03 0.213E-03
CGA:  32    -0.669748826793E+03   -0.47936E-04   -0.38977E-04  8424   0.211E-03 0.212E-03
CGA:  33    -0.669748877086E+03   -0.50294E-04   -0.40341E-04  8424   0.214E-03 0.210E-03
CGA:  34    -0.669748925751E+03   -0.48664E-04   -0.40253E-04  8424   0.254E-03 0.197E-03
CGA:  35    -0.669748954492E+03   -0.28741E-04   -0.31645E-04  8424   0.362E-03 0.123E-03
CGA:  36    -0.669749094129E+03   -0.13964E-03   -0.11048E-03  8424   0.283E-03 0.491E-03
CGA:  37    -0.669749121235E+03   -0.27107E-04   -0.30637E-04  8424   0.392E-03 0.841E-04
CGA:  38    -0.669749266528E+03   -0.14529E-03   -0.11175E-03  8424   0.380E-03 0.457E-03
CGA:  39    -0.669749303679E+03   -0.37151E-04   -0.40523E-04  8424   0.297E-03 0.747E-04
CGA:  40    -0.669749414410E+03   -0.11073E-03   -0.83737E-04  8424   0.459E-03 0.308E-03
CGA:  41    -0.669749462305E+03   -0.47895E-04   -0.51088E-04  8424   0.272E-03 0.751E-04
CGA:  42    -0.669749565687E+03   -0.10338E-03   -0.79357E-04  8424   0.497E-03 0.239E-03
CGA:  43    -0.669749621264E+03   -0.55578E-04   -0.58518E-04  8424   0.281E-03 0.755E-04
CGA:  44    -0.669749719943E+03   -0.98679E-04   -0.80500E-04  8424   0.517E-03 0.188E-03
CGA:  45    -0.669749787371E+03   -0.67428E-04   -0.69382E-04  8424   0.286E-03 0.776E-04
CGA:  46    -0.669749893535E+03   -0.10616E-03   -0.88816E-04  8424   0.564E-03 0.151E-03
CGA:  47    -0.669749969736E+03   -0.76201E-04   -0.78066E-04  8424   0.312E-03 0.731E-04
CGA:  48    -0.669750077928E+03   -0.10819E-03   -0.95602E-04  8424   0.536E-03 0.112E-03
CGA:  49    -0.669751079159E+03   -0.10012E-02   -0.55255E-03  8424   0.508E-03 0.698E-03
CGA:  50    -0.669751162491E+03   -0.83333E-04   -0.83640E-04  8424   0.393E-03 0.849E-05
CGA:  51    -0.669751299940E+03   -0.13745E-03   -0.34283E-03  8424   0.360E-02-0.327E-03
CGA:  52    -0.669751786502E+03   -0.48656E-03   -0.48839E-03  8424   0.934E-03 0.187E-04
CGA:  53    -0.669751955378E+03   -0.16888E-03   -0.16458E-03  8424   0.310E-03-0.900E-04
CGA:  54    -0.669752098761E+03   -0.14338E-03    0.20252E-03  8424   0.268E-03 0.258E-03
CGA:  55    -0.669752187144E+03   -0.88383E-04   -0.35979E-04  8424   0.306E-02-0.289E-03
CGA:  56    -0.669752837917E+03   -0.65077E-03   -0.62405E-03  8424   0.843E-03-0.135E-03
CGA:  57    -0.669752949718E+03   -0.11180E-03   -0.11462E-03  8424   0.285E-03 0.968E-05
CGA:  58    -0.669753205844E+03   -0.25613E-03    0.33391E-03  8424   0.349E-03 0.218E-03
CGA:  59    -0.669753344132E+03   -0.13829E-03   -0.20369E-03  8424   0.200E-02-0.327E-03
CGA:  60    -0.669753567789E+03   -0.22366E-03   -0.24630E-03  8424   0.318E-03 0.829E-04
CGA:  61    -0.669753548801E+03    0.18988E-04   -0.33972E-03  8424   0.434E-02-0.561E-03
CGA:  62    -0.669754221074E+03   -0.67227E-03   -0.68574E-03  8424   0.630E-03 0.514E-04
CGA:  63    -0.669754414625E+03   -0.19355E-03   -0.16483E-03  8424   0.603E-03-0.208E-03
CGA:  64    -0.669754795834E+03   -0.38121E-03    0.38635E-03  8424   0.657E-03 0.234E-03
CGA:  65    -0.669755519139E+03   -0.72331E-03    0.13746E-01  8424   0.817E-03 0.386E-03
CGA:  66    -0.669755705921E+03   -0.18678E-03   -0.14711E-03  8424   0.452E-03-0.189E-03
CGA:  67    -0.669756040136E+03   -0.33421E-03    0.24983E-03  8424   0.304E-03 0.236E-03
CGA:  68    -0.669755492780E+03    0.54736E-03   -0.51282E-03  8424   0.899E-02-0.823E-03
CGA:  69    -0.669757027858E+03   -0.15351E-02   -0.14654E-02  8424   0.117E-02-0.250E-03
CGA:  70    -0.669757267659E+03   -0.23980E-03   -0.22354E-03  8424   0.280E-03-0.702E-04
CGA:  71    -0.669757595057E+03   -0.32740E-03    0.11458E-03  8424   0.239E-03 0.201E-03
CGA:  72    -0.669757869370E+03   -0.27431E-03    0.13789E-03  8424   0.241E-03 0.128E-03
CGA:  73    -0.669758081467E+03   -0.21210E-03    0.10685E-02  8424   0.377E-03 0.767E-04
CGA:  74    -0.669758779863E+03   -0.69840E-03    0.15520E-03  8424   0.317E-03 0.402E-03
CGA:  75    -0.669756320322E+03    0.24595E-02   -0.13277E-02  8424   0.206E-01-0.142E-02
CGA:  76    -0.669760270257E+03   -0.39499E-02   -0.37801E-02  8424   0.278E-02-0.435E-03
CGA:  77    -0.669760624122E+03   -0.35386E-03   -0.51825E-03  8424   0.802E-03 0.764E-04
CGA:  78    -0.669760891223E+03   -0.26710E-03   -0.32237E-03  8424   0.100E-02 0.973E-04
CGA:  79    -0.669761164962E+03   -0.27374E-03   -0.37414E-03  8424   0.175E-02 0.434E-03
CGA:  80    -0.669755905173E+03    0.52598E-02   -0.20486E-03  8424   0.159E-01 0.371E-02
CGA:  81    -0.669755206409E+03    0.69876E-03   -0.43534E-02  8424   0.190E-01 0.613E-02
CGA:  82    -0.669735983396E+03    0.19223E-01   -0.41952E-02  8424   0.538E-01 0.279E-01
CGA:  83    -0.669744633906E+03   -0.86505E-02   -0.16677E-01  8424   0.418E-01 0.187E-01
CGA:  84    -0.669726271323E+03    0.18363E-01   -0.10389E-01  8424   0.768E-01 0.407E-01
CGA:  85    -0.669736727309E+03   -0.10456E-01   -0.22552E-01  8424   0.596E-01 0.292E-01
CGA:  86    -0.669725838341E+03    0.10889E-01   -0.16896E-01  8424   0.580E-01 0.514E-01
CGA:  87    -0.669744013782E+03   -0.18175E-01   -0.20371E-01  8424   0.379E-01 0.120E-01
CGA:  88    -0.669747182828E+03   -0.31690E-02   -0.10861E-01  8424   0.350E-01 0.248E-01
CGA:  89    -0.669758843523E+03   -0.11661E-01   -0.13583E-01  8424   0.470E-02 0.429E-02
CGA:  90    -0.669762956125E+03   -0.41126E-02   -0.41832E-02  8424   0.171E-02-0.454E-03
CGA:  91    -0.630545097009E+03    0.39218E+02    0.77424E+01  8424   0.742E+02-0.354E+01
CGA:  92    -0.654340020749E+03   -0.23795E+02   -0.45308E+02  8424   0.197E+02-0.168E+01
CGA:  93    -0.660931880985E+03   -0.65919E+01   -0.66097E+00  8424   0.209E+02 0.210E+02
CGA:  94    -0.662416775198E+03   -0.14849E+01   -0.46512E+01  8424   0.558E+01-0.377E+01
CGA:  95    -0.665291909795E+03   -0.28751E+01   -0.25595E+01  8424   0.129E+02-0.413E+01
CGA:  96    -0.665017550882E+03    0.27436E+00   -0.24088E+00  8424   0.222E+02 0.113E+02
CGA:  97    -0.667399093304E+03   -0.23815E+01   -0.33215E+01  8424   0.922E+01-0.256E+00
CGA:  98    -0.668056650015E+03   -0.65756E+00   -0.31970E+01  8424   0.850E+01-0.815E+00
CGA:  99    -0.669020610376E+03   -0.96396E+00   -0.19810E+01  8424   0.141E+01-0.112E+01
CGA: 100    -0.669064567625E+03   -0.43957E-01   -0.33117E+00  8424   0.116E+01 0.275E-01
CGA: 101    -0.668686618249E+03    0.37795E+00   -0.29676E+00  8424   0.183E+01 0.358E+00
CGA: 102    -0.667979297519E+03    0.70732E+00   -0.40745E+00  8424   0.138E+02 0.132E+02
CGA: 103    -0.669055368189E+03   -0.10761E+01   -0.47271E+01  8424   0.198E+01 0.630E+00
CGA: 104    -0.669479231784E+03   -0.42386E+00   -0.73914E+00  8424   0.106E+01 0.467E+00
CGA: 105    -0.669639178554E+03   -0.15995E+00   -0.38284E+00  8424   0.367E+00 0.177E-01
CGA: 106    -0.669701464007E+03   -0.62285E-01   -0.78098E-01  8424   0.248E+00 0.111E+00
CGA: 107    -0.669740416750E+03   -0.38953E-01   -0.92546E-01  8424   0.143E+00 0.395E-01
CGA: 108    -0.669765915026E+03   -0.25498E-01   -0.25175E-01  8424   0.132E-01-0.904E-03
CGA: 109    -0.669770107183E+03   -0.41922E-02   -0.43428E-02  8424   0.699E-02 0.138E-02
CGA: 110    -0.669771720759E+03   -0.16136E-02   -0.17920E-02  8424   0.187E-02-0.534E-03
CGA: 111    -0.669772632059E+03   -0.91130E-03   -0.91296E-03  8424   0.117E-02-0.365E-03
CGA: 112    -0.669772996549E+03   -0.36449E-03   -0.87213E-03  8424   0.349E-02-0.114E-02
CGA: 113    -0.669773704700E+03   -0.70815E-03   -0.64657E-03  8424   0.991E-03-0.176E-03
CGA: 114    -0.669774240273E+03   -0.53557E-03   -0.58507E-03  8424   0.210E-02-0.523E-03
CGA: 115    -0.669774719647E+03   -0.47937E-03   -0.39912E-03  8424   0.566E-03-0.237E-03
CGA: 116    -0.669774969013E+03   -0.24937E-03   -0.23471E-03  8424   0.117E-02-0.319E-03
CGA: 117    -0.669775284558E+03   -0.31555E-03   -0.22693E-03  8424   0.449E-03-0.282E-03
CGA: 118    -0.668365887839E+03    0.14094E+01   -0.42982E+01  8424   0.195E+00-0.315E-01
CGA: 119    -0.668802760090E+03   -0.43687E+00    0.36567E+00  8424   0.430E+01-0.640E+00
[...]
CGA:  36    -0.669825269811E+03   -0.58863E-04    0.31060E-06  8424   0.212E-04 0.432E-05
CGA:  37    -0.669825378961E+03   -0.10915E-03    0.39422E-06  8424   0.177E-04 0.259E-04
CGA:  38    -0.669825414141E+03   -0.35180E-04    0.62538E-06  8424   0.225E-04 0.229E-05
CGA:  39    -0.669825521952E+03   -0.10781E-03    0.36527E-06  8424   0.199E-04 0.248E-04
CGA:  40    -0.669825581554E+03   -0.59601E-04    0.42441E-06  8424   0.265E-04-0.175E-05
CGA:  41    -0.669825688689E+03   -0.10714E-03    0.33022E-06  8424   0.268E-04 0.233E-04
CGA:  42    -0.669825712444E+03   -0.23755E-04    0.34588E-05  8424   0.374E-04-0.113E-04
CGA:  43    -0.669825814601E+03   -0.10216E-03    0.27492E-06  8424   0.479E-04 0.194E-04
CGA:  44    -0.669825885273E+03   -0.70671E-04    0.25672E-05  8424   0.680E-04-0.371E-04
CGA:  45    -0.669825893702E+03   -0.84290E-05   -0.82284E-05  8424   0.117E-04-0.183E-05
  33 F= -.66982589E+03 E0= -.66982589E+03  d E =0.425243E-01  mag=     2.0000
       N       E                     dE             d eps       ncg     rms          ort
SDA:   1    -0.641490715936E+03    0.28335E+02    0.00000E+00  8424   0.850E+02 0.000E+00
CGA:   2    -0.659437098351E+03   -0.17946E+02   -0.17961E+02  8424   0.365E+02 0.442E+00
CGA:   3    -0.667126515895E+03   -0.76894E+01   -0.76869E+01  8424   0.109E+02-0.706E-01
CGA:   4    -0.668917773162E+03   -0.17913E+01   -0.17921E+01  8424   0.264E+01 0.410E-02
CGA:   5    -0.669364075800E+03   -0.44630E+00   -0.44676E+00  8424   0.543E+00 0.606E-02
CGA:   6    -0.669473603879E+03   -0.10953E+00   -0.10952E+00  8424   0.129E+00-0.179E-03
CGA:   7    -0.669502749427E+03   -0.29146E-01   -0.29137E-01  8424   0.394E-01 0.121E-02
CGA:   8    -0.669512458397E+03   -0.97090E-02   -0.97033E-02  8424   0.123E-01 0.227E-03
CGA:   9    -0.669516002309E+03   -0.35439E-02   -0.35892E-02  8424   0.486E-02-0.646E-03
CGA:  10    -0.669517371844E+03   -0.13695E-02   -0.13622E-02  8424   0.188E-02 0.100E-03
CGA:  11    -0.669518012115E+03   -0.64027E-03   -0.68573E-03  8424   0.895E-03-0.350E-03
CGA:  12    -0.669518243891E+03   -0.23178E-03   -0.24333E-03  8424   0.444E-03-0.117E-03
CGA:  13    -0.669518428665E+03   -0.18477E-03    0.52854E-01  8424   0.205E-03 0.116E-03
CGA:  14    -0.669518575251E+03   -0.14659E-03    0.16776E-03  8424   0.126E-03 0.110E-03
CGA:  15    -0.669518589072E+03   -0.13822E-04   -0.13125E-03  8424   0.101E-02-0.147E-03
CGA:  16    -0.669518830902E+03   -0.24183E-03   -0.21585E-03  8424   0.409E-03-0.395E-03
CGA:  17    -0.669518890709E+03   -0.59807E-04   -0.59823E-04  8424   0.104E-03-0.203E-06
CGA:  18    -0.669518502145E+03    0.38856E-03   -0.21083E-03  8424   0.378E-02-0.382E-03
CGA:  19    -0.669519303809E+03   -0.80166E-03   -0.69288E-03  8424   0.373E-03-0.344E-03
CGA:  20    -0.669519335434E+03   -0.31626E-04   -0.51027E-04  8424   0.423E-04 0.580E-04
CGA:  21    -0.669519357936E+03   -0.22502E-04   -0.38173E-04  8424   0.361E-03-0.511E-04
CGA:  22    -0.669519500024E+03   -0.14209E-03   -0.92971E-04  8424   0.237E-03-0.218E-03
CGA:  23    -0.669519506631E+03   -0.66069E-05   -0.27242E-04  8424   0.311E-04 0.577E-04
CGA:  24    -0.669519519679E+03   -0.13048E-04   -0.12727E-04  8424   0.802E-04-0.301E-05
CGA:  25    -0.669519675546E+03   -0.15587E-03    0.11579E-04  8424   0.345E-03 0.194E-04
CGA:  26    -0.669520696105E+03   -0.10206E-02    0.57732E-04  8424   0.462E-03 0.170E-03
CGA:  27    -0.669522189169E+03   -0.14931E-02    0.10860E-03  8424   0.647E-03-0.103E-03
CGA:  28    -0.669524233948E+03   -0.20448E-02    0.31842E-04  8424   0.962E-03-0.294E-03
CGA:  29    -0.669527794818E+03   -0.35609E-02    0.17905E-04  8424   0.837E-03-0.127E-02
CGA:  30    -0.669527966728E+03   -0.17191E-03   -0.17489E-03  8424   0.143E-03 0.119E-04
CGA:  31    -0.669527938079E+03    0.28649E-04   -0.13368E-04  8424   0.107E-03 0.122E-03
CGA:  32    -0.669527914181E+03    0.23898E-04   -0.80051E-05  8424   0.847E-04 0.927E-04
CGA:  33    -0.669527893534E+03    0.20647E-04   -0.58353E-05  8424   0.762E-04 0.795E-04
CGA:  34    -0.669527874907E+03    0.18627E-04   -0.49401E-05  8424   0.717E-04 0.735E-04
CGA:  35    -0.669527857734E+03    0.17173E-04   -0.43741E-05  8424   0.686E-04 0.699E-04
CGA:  36    -0.669527841721E+03    0.16013E-04   -0.39396E-05  8424   0.663E-04 0.673E-04
CGA:  37    -0.669527826694E+03    0.15027E-04   -0.35817E-05  8424   0.645E-04 0.653E-04
CGA:  38    -0.669527812539E+03    0.14155E-04   -0.32781E-05  8424   0.630E-04 0.636E-04
CGA:  39    -0.669527799172E+03    0.13367E-04   -0.30162E-05  8424   0.617E-04 0.622E-04
CGA:  40    -0.669527786528E+03    0.12644E-04   -0.27876E-05  8424   0.606E-04 0.611E-04
CGA:  41    -0.669527774553E+03    0.11975E-04   -0.25859E-05  8424   0.596E-04 0.600E-04
CGA:  42    -0.669527763199E+03    0.11353E-04   -0.24066E-05  8424   0.588E-04 0.591E-04
CGA:  43    -0.669527752427E+03    0.10772E-04   -0.22458E-05  8424   0.580E-04 0.583E-04
CGA:  44    -0.669527742199E+03    0.10228E-04   -0.21007E-05  8424   0.573E-04 0.576E-04
CGA:  45    -0.669527732481E+03    0.97176E-05   -0.19690E-05  8424   0.567E-04 0.569E-04
  34 F= -.66952773E+03 E0= -.66952773E+03  d E =0.298161E+00  mag=     2.0000
       N       E                     dE             d eps       ncg     rms          ort
SDA:   1    -0.665296844152E+03    0.42309E+01    0.00000E+00  8424   0.146E+02 0.000E+00
CGA:   2    -0.668191143076E+03   -0.28943E+01   -0.28954E+01  8424   0.572E+01 0.269E-01
CGA:   3    -0.669407894329E+03   -0.12168E+01   -0.12167E+01  8424   0.189E+01-0.731E-02
CGA:   4    -0.669724692996E+03   -0.31680E+00   -0.31687E+00  8424   0.484E+00 0.691E-03
CGA:   5    -0.669807621245E+03   -0.82928E-01   -0.82974E-01  8424   0.982E-01 0.836E-03
CGA:   6    -0.669827171839E+03   -0.19551E-01   -0.19537E-01  8424   0.223E-01-0.920E-03
CGA:   7    -0.669832035141E+03   -0.48633E-02   -0.48590E-02  8424   0.660E-02 0.549E-03
CGA:   8    -0.669833608255E+03   -0.15731E-02   -0.15654E-02  8424   0.185E-02 0.418E-03
CGA:   9    -0.669834130255E+03   -0.52200E-03   -0.51487E-03  8424   0.644E-03 0.146E-03
CGA:  10    -0.669834279713E+03   -0.14946E-03   -0.14969E-03  8424   0.269E-03 0.260E-03
CGA:  11    -0.669834350208E+03   -0.70495E-04   -0.74213E-04  8424   0.146E-03 0.187E-03
CGA:  12    -0.669834382010E+03   -0.31802E-04   -0.31624E-04  8424   0.883E-04 0.877E-04
CGA:  13    -0.669834383386E+03   -0.13757E-05   -0.98631E-05  8424   0.779E-04 0.817E-04
  35 F= -.66983438E+03 E0= -.66983438E+03  d E =-.306651E+00  mag=     2.0000
       N       E                     dE             d eps       ncg     rms          ort
SDA:   1    -0.668320578783E+03    0.15138E+01    0.00000E+00  8424   0.483E+01 0.000E+00
CGA:   2    -0.669312152074E+03   -0.99157E+00   -0.99158E+00  8424   0.199E+01 0.569E-02
CGA:   3    -0.669729354850E+03   -0.41720E+00   -0.41721E+00  8424   0.636E+00-0.172E-02
CGA:   4    -0.669835004136E+03   -0.10565E+00   -0.10567E+00  8424   0.159E+00 0.257E-03
CGA:   5    -0.669862197645E+03   -0.27194E-01   -0.27208E-01  8424   0.317E-01 0.418E-03
CGA:   6    -0.669868530693E+03   -0.63330E-02   -0.63327E-02  8424   0.735E-02-0.106E-03
CGA:   7    -0.669870096449E+03   -0.15658E-02   -0.15608E-02  8424   0.212E-02 0.466E-03
CGA:   8    -0.669870574835E+03   -0.47839E-03   -0.47508E-03  8424   0.600E-03 0.422E-03
CGA:   9    -0.669870710859E+03   -0.13602E-03   -0.13886E-03  8424   0.245E-03 0.278E-03
CGA:  10    -0.669870744034E+03   -0.33176E-04   -0.48647E-04  8424   0.154E-03 0.230E-03
CGA:  11    -0.669870751176E+03   -0.71417E-05   -0.17896E-04  8424   0.115E-03 0.129E-03
CGA:  12    -0.669870752997E+03   -0.18216E-05   -0.11835E-04  8424   0.102E-03 0.108E-03
  36 F= -.66987075E+03 E0= -.66987075E+03  d E =-.363696E-01  mag=     2.0000
       N       E                     dE             d eps       ncg     rms          ort
SDA:   1    -0.669600887864E+03    0.26986E+00    0.00000E+00  8424   0.705E+00 0.000E+00
CGA:   2    -0.669783956076E+03   -0.18307E+00   -0.18304E+00  8424   0.373E+00 0.306E-03
CGA:   3    -0.669853848902E+03   -0.69893E-01   -0.69893E-01  8424   0.867E-01 0.767E-04
CGA:   4    -0.669867706421E+03   -0.13858E-01   -0.13860E-01  8424   0.201E-01 0.854E-04
CGA:   5    -0.669871159516E+03   -0.34531E-02   -0.34556E-02  8424   0.433E-02 0.154E-03
CGA:   6    -0.669872011808E+03   -0.85229E-03   -0.85030E-03  8424   0.995E-03 0.248E-03
CGA:   7    -0.669872200566E+03   -0.18876E-03   -0.19043E-03  8424   0.298E-03 0.258E-03
CGA:   8    -0.669872242048E+03   -0.41481E-04   -0.51710E-04  8424   0.150E-03 0.207E-03
CGA:   9    -0.669872250994E+03   -0.89464E-05   -0.17154E-04  8424   0.102E-03 0.116E-03
  37 F= -.66987225E+03 E0= -.66987225E+03  d E =-.149800E-02  mag=     2.0000
       N       E                     dE             d eps       ncg     rms          ort
SDA:   1    -0.661678301660E+03    0.81939E+01    0.00000E+00  8424   0.203E+02 0.000E+00
CGA:   2    -0.667420332389E+03   -0.57420E+01   -0.57429E+01  8424   0.109E+02-0.899E-02
CGA:   3    -0.669364436214E+03   -0.19441E+01   -0.19441E+01  8424   0.230E+01 0.350E-02
CGA:   4    -0.669735343967E+03   -0.37091E+00   -0.37090E+00  8424   0.548E+00-0.931E-03
CGA:   5    -0.669830787317E+03   -0.95443E-01   -0.95443E-01  8424   0.120E+00-0.103E-03
CGA:   6    -0.669855054219E+03   -0.24267E-01   -0.24249E-01  8424   0.277E-01 0.830E-03
CGA:   7    -0.669861219088E+03   -0.61649E-02   -0.61523E-02  8424   0.834E-02 0.317E-03
CGA:   8    -0.669863250656E+03   -0.20316E-02   -0.19964E-02  8424   0.257E-02 0.659E-03
CGA:   9    -0.669863981656E+03   -0.73100E-03   -0.70069E-03  8424   0.901E-03 0.455E-03
CGA:  10    -0.669864243889E+03   -0.26223E-03   -0.24622E-03  8424   0.359E-03 0.373E-03
CGA:  11    -0.669864312779E+03   -0.68890E-04   -0.79327E-04  8424   0.171E-03 0.295E-03
CGA:  12    -0.669864321415E+03   -0.86363E-05   -0.19327E-04  8424   0.118E-03 0.139E-03
CGA:  13    -0.669864321176E+03    0.23883E-06   -0.10360E-04  8424   0.995E-04 0.108E-03
  38 F= -.66986432E+03 E0= -.66986432E+03  d E =0.792982E-02  mag=     2.0000
       N       E                     dE             d eps       ncg     rms          ort
SDA:   1    -0.669459739982E+03    0.40458E+00    0.00000E+00  8424   0.104E+01 0.000E+00
CGA:   2    -0.669752053391E+03   -0.29231E+00   -0.29236E+00  8424   0.539E+00-0.587E-03
CGA:   3    -0.669848279627E+03   -0.96226E-01   -0.96227E-01  8424   0.115E+00 0.397E-03
CGA:   4    -0.669866927917E+03   -0.18648E-01   -0.18657E-01  8424   0.280E-01 0.452E-03
CGA:   5    -0.669871748497E+03   -0.48206E-02   -0.48239E-02  8424   0.581E-02 0.401E-03
CGA:   6    -0.669872896961E+03   -0.11485E-02   -0.11433E-02  8424   0.132E-02 0.356E-03
CGA:   7    -0.669873171239E+03   -0.27428E-03   -0.27082E-03  8424   0.383E-03 0.262E-03
CGA:   8    -0.669873236116E+03   -0.64877E-04   -0.70720E-04  8424   0.165E-03 0.219E-03
CGA:   9    -0.669873247222E+03   -0.11106E-04   -0.19003E-04  8424   0.104E-03 0.123E-03
CGA:  10    -0.669873248262E+03   -0.10401E-05   -0.92904E-05  8424   0.876E-04 0.945E-04
  39 F= -.66987325E+03 E0= -.66987325E+03  d E =-.892709E-02  mag=     2.0000
       N       E                     dE             d eps       ncg     rms          ort
SDA:   1    -0.647706796460E+03    0.22166E+02    0.00000E+00  8424   0.533E+02 0.000E+00
CGA:   2    -0.663876113251E+03   -0.16169E+02   -0.16186E+02  8424   0.280E+02-0.107E+00
CGA:   3    -0.668609291997E+03   -0.47332E+01   -0.47337E+01  8424   0.548E+01 0.575E-01
CGA:   4    -0.669524794715E+03   -0.91550E+00   -0.91550E+00  8424   0.137E+01-0.720E-04
CGA:   5    -0.669762918215E+03   -0.23812E+00   -0.23812E+00  8424   0.306E+00-0.669E-03
CGA:   6    -0.669824573181E+03   -0.61655E-01   -0.61575E-01  8424   0.719E-01 0.283E-02
CGA:   7    -0.669841496249E+03   -0.16923E-01   -0.16978E-01  8424   0.243E-01-0.937E-03
CGA:   8    -0.669847530249E+03   -0.60340E-02   -0.59767E-02  8424   0.824E-02 0.807E-03
CGA:   9    -0.669849956264E+03   -0.24260E-02   -0.23749E-02  8424   0.309E-02 0.523E-03
CGA:  10    -0.669850972875E+03   -0.10166E-02   -0.98323E-03  8424   0.109E-02 0.295E-03
CGA:  11    -0.669851200755E+03   -0.22788E-03   -0.22823E-03  8424   0.314E-03 0.441E-03
CGA:  12    -0.669851243156E+03   -0.42401E-04   -0.57931E-04  8424   0.153E-03 0.257E-03
CGA:  13    -0.669851248386E+03   -0.52298E-05   -0.15975E-04  8424   0.109E-03 0.127E-03
  40 F= -.66985125E+03 E0= -.66985125E+03  d E =0.219999E-01  mag=     2.0000
       N       E                     dE             d eps       ncg     rms          ort
SDA:   1    -0.665793501757E+03    0.40577E+01    0.00000E+00  8424   0.981E+01 0.000E+00
CGA:   2    -0.668852136725E+03   -0.30586E+01   -0.30600E+01  8424   0.480E+01-0.101E-01
CGA:   3    -0.669657257644E+03   -0.80512E+00   -0.80524E+00  8424   0.957E+00 0.449E-02
CGA:   4    -0.669818378471E+03   -0.16112E+00   -0.16111E+00  8424   0.246E+00-0.750E-03
CGA:   5    -0.669861177069E+03   -0.42799E-01   -0.42792E-01  8424   0.525E-01-0.668E-03
CGA:   6    -0.669871684117E+03   -0.10507E-01   -0.10501E-01  8424   0.121E-01 0.360E-03
CGA:   7    -0.669874491886E+03   -0.28078E-02   -0.28055E-02  8424   0.387E-02 0.507E-04
CGA:   8    -0.669875408118E+03   -0.91623E-03   -0.89846E-03  8424   0.119E-02 0.396E-03
CGA:   9    -0.669875752757E+03   -0.34464E-03   -0.32803E-03  8424   0.444E-03 0.274E-03
CGA:  10    -0.669875885283E+03   -0.13253E-03   -0.12493E-03  8424   0.185E-03 0.204E-03
CGA:  11    -0.669875917373E+03   -0.32090E-04   -0.39795E-04  8424   0.931E-04 0.166E-03
CGA:  12    -0.669875920397E+03   -0.30243E-05   -0.97480E-05  8424   0.667E-04 0.775E-04
  41 F= -.66987592E+03 E0= -.66987592E+03  d E =-.246720E-01  mag=     2.0000
       N       E                     dE             d eps       ncg     rms          ort
SDA:   1    -0.664453948737E+03    0.54220E+01    0.00000E+00  8424   0.133E+02 0.000E+00
CGA:   2    -0.668299830254E+03   -0.38459E+01   -0.38465E+01  8424   0.711E+01-0.579E-02
CGA:   3    -0.669551300319E+03   -0.12515E+01   -0.12515E+01  8424   0.148E+01 0.790E-03
CGA:   4    -0.669790501893E+03   -0.23920E+00   -0.23919E+00  8424   0.354E+00-0.773E-03
CGA:   5    -0.669852307379E+03   -0.61805E-01   -0.61804E-01  8424   0.780E-01-0.210E-03
CGA:   6    -0.669868009986E+03   -0.15703E-01   -0.15696E-01  8424   0.178E-01 0.375E-03
CGA:   7    -0.669871994129E+03   -0.39841E-02   -0.39773E-02  8424   0.541E-02 0.188E-03
CGA:   8    -0.669873312127E+03   -0.13180E-02   -0.12983E-02  8424   0.167E-02 0.394E-03
CGA:   9    -0.669873790938E+03   -0.47881E-03   -0.46111E-03  8424   0.592E-03 0.262E-03
CGA:  10    -0.669873966760E+03   -0.17582E-03   -0.16511E-03  8424   0.233E-03 0.224E-03
CGA:  11    -0.669874014745E+03   -0.47985E-04   -0.53268E-04  8424   0.107E-03 0.177E-03
CGA:  12    -0.669874021619E+03   -0.68740E-05   -0.13005E-04  8424   0.716E-04 0.846E-04
  42 F= -.66987402E+03 E0= -.66987402E+03  d E =0.189878E-02  mag=     2.0000
       N       E                     dE             d eps       ncg     rms          ort
SDA:   1    -0.614112992869E+03    0.55761E+02    0.00000E+00  8424   0.167E+03 0.000E+00
CGA:   2    -0.648297635245E+03   -0.34185E+02   -0.34140E+02  8424   0.742E+02 0.149E+01
CGA:   3    -0.664683601264E+03   -0.16386E+02   -0.16398E+02  8424   0.230E+02-0.285E+00
CGA:   4    -0.668365765452E+03   -0.36822E+01   -0.36836E+01  8424   0.511E+01 0.170E-01
CGA:   5    -0.669217006147E+03   -0.85124E+00   -0.85161E+00  8424   0.107E+01 0.125E-01
CGA:   6    -0.669437761818E+03   -0.22076E+00   -0.22083E+00  8424   0.261E+00-0.391E-02
CGA:   7    -0.669494513631E+03   -0.56752E-01   -0.56644E-01  8424   0.738E-01 0.349E-02
CGA:   8    -0.669512750110E+03   -0.18236E-01   -0.18213E-01  8424   0.228E-01 0.419E-03
CGA:   9    -0.669519223775E+03   -0.64737E-02   -0.66491E-02  8424   0.904E-02-0.178E-02
CGA:  10    -0.669521688302E+03   -0.24645E-02   -0.24820E-02  8424   0.367E-02-0.173E-03
CGA:  11    -0.669522796555E+03   -0.11083E-02   -0.16552E-02  8424   0.347E-02-0.212E-02
CGA:  12    -0.669523343882E+03   -0.54733E-03   -0.56822E-03  8424   0.579E-03 0.412E-03
CGA:  13    -0.669523619875E+03   -0.27599E-03    0.12128E-01  8424   0.186E-03 0.173E-03
CGA:  14    -0.669523791019E+03   -0.17114E-03    0.37725E-04  8424   0.117E-03 0.118E-03
CGA:  15    -0.669523858040E+03   -0.67021E-04    0.35786E-04  8424   0.850E-04 0.734E-04
CGA:  16    -0.669523960350E+03   -0.10231E-03    0.48773E-05  8424   0.750E-04 0.660E-04
CGA:  17    -0.669524022499E+03   -0.62149E-04    0.83053E-05  8424   0.688E-04 0.626E-04
CGA:  18    -0.669524109153E+03   -0.86654E-04    0.36842E-05  8424   0.642E-04 0.601E-04
CGA:  19    -0.669524171111E+03   -0.61958E-04    0.53039E-05  8424   0.608E-04 0.578E-04
CGA:  20    -0.669524248627E+03   -0.77516E-04    0.31974E-05  8424   0.582E-04 0.558E-04
CGA:  21    -0.669524309105E+03   -0.60479E-04    0.42273E-05  8424   0.561E-04 0.540E-04
CGA:  22    -0.669524381261E+03   -0.72155E-04    0.29173E-05  8424   0.545E-04 0.523E-04
CGA:  23    -0.669524439438E+03   -0.58177E-04    0.37907E-05  8424   0.532E-04 0.508E-04
CGA:  24    -0.669524508436E+03   -0.68998E-04    0.27294E-05  8424   0.521E-04 0.494E-04
CGA:  25    -0.669524563920E+03   -0.55484E-04    0.36455E-05  8424   0.513E-04 0.481E-04
CGA:  26    -0.669524631009E+03   -0.67089E-04    0.26004E-05  8424   0.506E-04 0.467E-04
CGA:  27    -0.669524683726E+03   -0.52718E-04    0.36736E-05  8424   0.502E-04 0.454E-04
CGA:  28    -0.669524749549E+03   -0.65822E-04    0.25312E-05  8424   0.499E-04 0.440E-04
CGA:  29    -0.669524799683E+03   -0.50135E-04    0.38398E-05  8424   0.498E-04 0.425E-04
CGA:  30    -0.669524864450E+03   -0.64767E-04    0.25407E-05  8424   0.498E-04 0.409E-04
CGA:  31    -0.669524912402E+03   -0.47952E-04    0.41477E-05  8424   0.502E-04 0.392E-04
CGA:  32    -0.669524975999E+03   -0.63597E-04    0.26636E-05  8424   0.507E-04 0.373E-04
CGA:  33    -0.669525022347E+03   -0.46347E-04    0.46372E-05  8424   0.516E-04 0.352E-04
CGA:  34    -0.669525084391E+03   -0.62045E-04    0.29706E-05  8424   0.529E-04 0.329E-04
CGA:  35    -0.669525129864E+03   -0.45473E-04    0.54217E-05  8424   0.546E-04 0.301E-04
CGA:  36    -0.669525189730E+03   -0.59866E-04    0.36363E-05  8424   0.570E-04 0.269E-04
CGA:  37    -0.669525298717E+03   -0.10899E-03    0.44362E-05  8424   0.521E-04 0.836E-04
CGA:  38    -0.669525341007E+03   -0.42291E-04    0.59956E-05  8424   0.540E-04 0.262E-04
CGA:  39    -0.669525399170E+03   -0.58163E-04    0.37020E-05  8424   0.567E-04 0.228E-04
CGA:  40    -0.669525504529E+03   -0.10536E-03    0.40900E-05  8424   0.522E-04 0.793E-04
CGA:  41    -0.669525543905E+03   -0.39375E-04    0.70488E-05  8424   0.542E-04 0.219E-04
CGA:  42    -0.669525642718E+03   -0.98813E-04    0.40103E-05  8424   0.503E-04 0.758E-04
CGA:  43    -0.669525702153E+03   -0.59435E-04    0.29739E-05  8424   0.522E-04 0.209E-04
CGA:  44    -0.669525801602E+03   -0.99448E-04    0.35997E-05  8424   0.487E-04 0.729E-04
CGA:  45    -0.669525834490E+03   -0.32888E-04    0.86681E-05  8424   0.501E-04 0.202E-04
CGA:  46    -0.669525927634E+03   -0.93144E-04    0.35617E-05  8424   0.471E-04 0.698E-04
CGA:  47    -0.669525989091E+03   -0.61457E-04    0.23979E-05  8424   0.481E-04 0.195E-04
CGA:  48    -0.669526083245E+03   -0.94154E-04    0.31710E-05  8424   0.456E-04 0.671E-04
CGA:  49    -0.669526110219E+03   -0.26974E-04    0.12210E-04  8424   0.461E-04 0.190E-04
CGA:  50    -0.669526198387E+03   -0.88168E-04    0.31519E-05  8424   0.442E-04 0.644E-04
CGA:  51    -0.669526261696E+03   -0.63309E-04    0.19608E-05  8424   0.441E-04 0.185E-04
CGA:  52    -0.669526351008E+03   -0.89312E-04    0.28019E-05  8424   0.427E-04 0.618E-04
CGA:  53    -0.669526373171E+03   -0.22163E-04    0.20098E-04  8424   0.423E-04 0.181E-04
CGA:  54    -0.669526456957E+03   -0.83785E-04    0.27906E-05  8424   0.413E-04 0.595E-04
