       N       E                     dE             d eps       ncg     rms          ort
DAV:   1     0.827377697063E+04    0.82738E+04   -0.24667E+05  8424   0.238E+03
DAV:   2     0.919393083357E+03   -0.73544E+04   -0.69035E+04  8424   0.657E+02
DAV:   3    -0.674846911972E+03   -0.15942E+04   -0.14018E+04  8424   0.282E+02
DAV:   4    -0.830254621498E+03   -0.15541E+03   -0.15271E+03  8424   0.857E+01
DAV:   5    -0.832739399590E+03   -0.24848E+01   -0.24740E+01  8424   0.121E+01
SDA:   6    -0.261433620028E+03    0.57131E+03   -0.24740E+01  8424   0.386E+04 0.000E+00
CGA:   7    -0.605032642464E+03   -0.34360E+03   -0.41824E+03  8424   0.369E+03 0.694E+02
CGA:   8    -0.637665504003E+03   -0.32633E+02   -0.22113E+02  8424   0.124E+03 0.131E+03
CGA:   9    -0.648570395235E+03   -0.10905E+02   -0.17084E+02  8424   0.325E+03-0.267E+01
CGA:  10    -0.652150544406E+03   -0.35801E+01   -0.11298E+02  8424   0.109E+03-0.167E+03
CGA:  11    -0.657270650406E+03   -0.51201E+01   -0.10352E+02  8424   0.125E+03-0.258E+01
CGA:  12    -0.658297325300E+03   -0.10267E+01   -0.82444E+01  8424   0.134E+03-0.129E+02
CGA:  13    -0.659081188513E+03   -0.78386E+00   -0.75069E+01  8424   0.204E+03-0.221E+02
CGA:  14    -0.652514878918E+03    0.65663E+01   -0.76400E+01  8424   0.135E+03-0.990E+02
CGA:  15    -0.657761582350E+03   -0.52467E+01   -0.29764E+01  8424   0.593E+02-0.314E+02
CGA:  16    -0.660492671934E+03   -0.27311E+01   -0.34279E+01  8424   0.148E+03-0.119E+02
CGA:  17    -0.663900399025E+03   -0.34077E+01   -0.42389E+01  8424   0.835E+02-0.247E+02
CGA:  18    -0.664021044815E+03   -0.12065E+00   -0.22856E+01  8424   0.581E+02-0.503E+02
CGA:  19    -0.665784359374E+03   -0.17633E+01   -0.21099E+01  8424   0.177E+02-0.799E+01
CGA:  20    -0.667442931164E+03   -0.16586E+01   -0.16755E+01  8424   0.517E+01 0.478E+00
CGA:  21    -0.667911742168E+03   -0.46881E+00   -0.53294E+00  8424   0.506E+01 0.543E+00
CGA:  22    -0.668200674100E+03   -0.28893E+00   -0.26705E+00  8424   0.145E+01 0.267E+00
CGA:  23    -0.668444751857E+03   -0.24408E+00   -0.23579E+00  8424   0.925E+00 0.185E+00
CGA:  24    -0.668574373631E+03   -0.12962E+00   -0.12991E+00  8424   0.380E+00 0.976E-01
CGA:  25    -0.668630308661E+03   -0.55935E-01   -0.56085E-01  8424   0.405E+00-0.833E-02
CGA:  26    -0.668678973009E+03   -0.48664E-01   -0.48880E-01  8424   0.186E+00 0.247E-01
CGA:  27    -0.668731013366E+03   -0.52040E-01   -0.49105E-01  8424   0.208E+00 0.207E-01
CGA:  28    -0.668758421274E+03   -0.27408E-01   -0.26942E-01  8424   0.176E+00-0.135E-01
CGA:  29    -0.668790001581E+03   -0.31580E-01   -0.51489E-01  8424   0.647E+00-0.109E+00
CGA:  30    -0.668854031521E+03   -0.64030E-01   -0.66138E-01  8424   0.122E+00-0.191E-01
CGA:  31    -0.668894204285E+03   -0.40173E-01   -0.70671E-01  8424   0.504E+00-0.675E-01
CGA:  32    -0.668950721712E+03   -0.56517E-01   -0.56728E-01  8424   0.879E-01-0.156E-01
CGA:  33    -0.668978570065E+03   -0.27848E-01   -0.33835E-01  8424   0.181E+00-0.251E-01
CGA:  34    -0.668856258029E+03    0.12231E+00   -0.65188E-01  8424   0.161E+01-0.325E+00
CGA:  35    -0.669126641954E+03   -0.27038E+00   -0.27237E+00  8424   0.333E+00-0.274E-01
CGA:  36    -0.669197235714E+03   -0.70594E-01   -0.70194E-01  8424   0.480E-01-0.412E-02
CGA:  37    -0.669211885980E+03   -0.14650E-01   -0.14719E-01  8424   0.215E-01-0.675E-02
CGA:  38    -0.669218179520E+03   -0.62935E-02   -0.64361E-02  8424   0.196E-01-0.302E-02
CGA:  39    -0.669223421062E+03   -0.52415E-02   -0.12609E-01  8424   0.623E-01-0.162E-01
CGA:  40    -0.669233523538E+03   -0.10102E-01   -0.10108E-01  8424   0.104E-01 0.394E-03
CGA:  41    -0.669237456613E+03   -0.39331E-02   -0.42122E-02  8424   0.108E-01-0.328E-02
CGA:  42    -0.669240360928E+03   -0.29043E-02   -0.35727E-02  8424   0.101E-01-0.419E-02
CGA:  43    -0.669207692718E+03    0.32668E-01   -0.17784E-01  8424   0.246E+00-0.259E-01
CGA:  44    -0.669249013593E+03   -0.41321E-01   -0.40991E-01  8424   0.359E-01 0.189E-02
CGA:  45    -0.669259611866E+03   -0.10598E-01   -0.10263E-01  8424   0.129E-01-0.129E-02
CGA:  46    -0.669264025831E+03   -0.44140E-02   -0.45091E-02  8424   0.551E-02 0.514E-03
CGA:  47    -0.669265682019E+03   -0.16562E-02   -0.17102E-02  8424   0.273E-02 0.210E-03
CGA:  48    -0.669266589741E+03   -0.90772E-03   -0.10027E-02  8424   0.128E-02 0.505E-03
CGA:  49    -0.669268052667E+03   -0.14629E-02   -0.13647E-02  8424   0.225E-02 0.229E-03
CGA:  50    -0.669270130764E+03   -0.20781E-02   -0.35425E-02  8424   0.193E-01-0.216E-02
CGA:  51    -0.669273438314E+03   -0.33075E-02   -0.35030E-02  8424   0.443E-02 0.530E-03
CGA:  52    -0.669276268972E+03   -0.28307E-02   -0.30482E-02  8424   0.751E-02-0.216E-02
CGA:  53    -0.669278044344E+03   -0.17754E-02   -0.11972E-02  8424   0.533E-02-0.215E-02
CGA:  54    -0.669280153666E+03   -0.21093E-02   -0.18953E-02  8424   0.855E-02-0.343E-02
CGA:  55    -0.669282688544E+03   -0.25349E-02   -0.24099E-02  8424   0.391E-02-0.460E-03
CGA:  56    -0.669283912906E+03   -0.12244E-02   -0.12208E-02  8424   0.255E-02-0.464E-05
CGA:  57    -0.669285378306E+03   -0.14654E-02   -0.15882E-02  8424   0.332E-02-0.138E-02
CGA:  58    -0.669286402199E+03   -0.10239E-02   -0.93022E-03  8424   0.182E-02-0.366E-03
CGA:  59    -0.669285622481E+03    0.77972E-03   -0.20571E-02  8424   0.275E-01-0.382E-02
CGA:  60    -0.669289386999E+03   -0.37645E-02   -0.38935E-02  8424   0.267E-02 0.697E-03
CGA:  61    -0.669290633192E+03   -0.12462E-02   -0.11884E-02  8424   0.197E-02-0.546E-03
CGA:  62    -0.669290404622E+03    0.22857E-03   -0.21175E-02  8424   0.114E-01-0.293E-02
CGA:  63    -0.669293922586E+03   -0.35180E-02   -0.32405E-02  8424   0.531E-02-0.963E-03
CGA:  64    -0.669295870895E+03   -0.19483E-02   -0.18170E-02  8424   0.176E-02-0.707E-03
CGA:  65    -0.669296511016E+03   -0.64012E-03   -0.12345E-02  8424   0.879E-02-0.232E-02
CGA:  66    -0.669298050363E+03   -0.15393E-02   -0.16140E-02  8424   0.147E-02 0.219E-03
CGA:  67    -0.669298868587E+03   -0.81822E-03   -0.97777E-03  8424   0.555E-02-0.158E-02
CGA:  68    -0.669299800725E+03   -0.93214E-03   -0.97544E-03  8424   0.861E-03 0.128E-03
CGA:  69    -0.669277906449E+03    0.21894E-01   -0.11956E-01  8424   0.158E+00-0.852E-02
CGA:  70    -0.669303803610E+03   -0.25897E-01   -0.26132E-01  8424   0.135E-01 0.435E-02
CGA:  71    -0.669306961095E+03   -0.31575E-02   -0.27821E-02  8424   0.668E-03-0.568E-03
CGA:  72    -0.669308420343E+03   -0.14592E-02    0.10468E-02  8424   0.115E-02 0.886E-05
CGA:  73    -0.669311852777E+03   -0.34324E-02    0.79752E-03  8424   0.597E-02-0.496E-03
CGA:  74    -0.669327665631E+03   -0.15813E-01    0.93946E-03  8424   0.280E-01-0.431E-02
CGA:  75    -0.669334826544E+03   -0.71609E-02   -0.73548E-02  8424   0.721E-02 0.342E-03
CGA:  76    -0.669337594452E+03   -0.27679E-02   -0.23706E-02  8424   0.365E-02-0.789E-03
CGA:  77    -0.669338594211E+03   -0.99976E-03   -0.83064E-03  8424   0.467E-03-0.295E-03
CGA:  78    -0.669339988335E+03   -0.13941E-02    0.17093E-03  8424   0.720E-03 0.429E-04
CGA:  79    -0.669343367223E+03   -0.33789E-02    0.19095E-03  8424   0.129E-02 0.617E-04
CGA:  80    -0.669350022914E+03   -0.66557E-02    0.29322E-03  8424   0.377E-02 0.795E-04
CGA:  81    -0.669373760215E+03   -0.23737E-01    0.60321E-03  8424   0.626E-02 0.400E-03
CGA:  82    -0.669415193585E+03   -0.41433E-01    0.10353E-02  8424   0.228E-01-0.856E-02
CGA:  83    -0.669418691041E+03   -0.34975E-02   -0.38040E-02  8424   0.229E-02 0.348E-03
CGA:  84    -0.669419243084E+03   -0.55204E-03   -0.71995E-03  8424   0.990E-03 0.361E-03
CGA:  85    -0.669419691403E+03   -0.44832E-03   -0.45467E-03  8424   0.653E-03 0.120E-04
CGA:  86    -0.669419695632E+03   -0.42290E-05   -0.15093E-03  8424   0.293E-03 0.286E-03
CGA:  87    -0.669419649421E+03    0.46211E-04   -0.83125E-04  8424   0.254E-03 0.250E-03
CGA:  88    -0.669419751412E+03   -0.10199E-03   -0.11370E-03  8424   0.322E-03 0.473E-04
CGA:  89    -0.669419705070E+03    0.46342E-04   -0.82436E-04  8424   0.183E-03 0.277E-03
CGA:  90    -0.669419672203E+03    0.32867E-04   -0.29948E-04  8424   0.127E-03 0.129E-03
CGA:  91    -0.669419664854E+03    0.73492E-05   -0.35095E-04  8424   0.120E-03 0.120E-03
CGA:  92    -0.669419647584E+03    0.17270E-04   -0.27459E-04  8424   0.117E-03 0.117E-03
CGA:  93    -0.669419640385E+03    0.71984E-05   -0.30710E-04  8424   0.115E-03 0.115E-03
CGA:  94    -0.669419626192E+03    0.14193E-04   -0.25670E-04  8424   0.113E-03 0.113E-03
CGA:  95    -0.669419621107E+03    0.50850E-05   -0.28798E-04  8424   0.112E-03 0.112E-03
CGA:  96    -0.669419608689E+03    0.12418E-04   -0.23827E-04  8424   0.111E-03 0.110E-03
CGA:  97    -0.669419607081E+03    0.16081E-05   -0.27975E-04  8424   0.110E-03 0.108E-03
CGA:  98    -0.669419594969E+03    0.12112E-04   -0.21560E-04  8424   0.109E-03 0.106E-03
CGA:  99    -0.669419598575E+03   -0.36062E-05   -0.28277E-04  8424   0.112E-03 0.104E-03
CGA: 100    -0.669419585665E+03    0.12911E-04   -0.18969E-04  8424   0.109E-03 0.101E-03
CGA: 101    -0.669419594192E+03   -0.85273E-05   -0.28699E-04  8424   0.116E-03 0.981E-04
CGA: 102    -0.669419581672E+03    0.12520E-04   -0.17350E-04  8424   0.108E-03 0.967E-04
CGA: 103    -0.669419592013E+03   -0.10340E-04   -0.27896E-04  8424   0.116E-03 0.953E-04
CGA: 104    -0.669419581899E+03    0.10113E-04   -0.16995E-04  8424   0.106E-03 0.945E-04
CGA: 105    -0.669419593156E+03   -0.11257E-04   -0.26859E-04  8424   0.113E-03 0.938E-04
CGA: 106    -0.669419585793E+03    0.73638E-05   -0.16953E-04  8424   0.105E-03 0.929E-04
CGA: 107    -0.669419598219E+03   -0.12426E-04   -0.26118E-04  8424   0.112E-03 0.921E-04
CGA: 108    -0.669419593377E+03    0.48415E-05   -0.16960E-04  8424   0.104E-03 0.912E-04
CGA: 109    -0.669419607194E+03   -0.13817E-04   -0.25643E-04  8424   0.111E-03 0.902E-04
CGA: 110    -0.669419604705E+03    0.24889E-05   -0.17033E-04  8424   0.103E-03 0.892E-04
CGA: 111    -0.669419620121E+03   -0.15416E-04   -0.25424E-04  8424   0.111E-03 0.880E-04
CGA: 112    -0.669419619868E+03    0.25314E-06   -0.17195E-04  8424   0.102E-03 0.868E-04
CGA: 113    -0.669419637057E+03   -0.17190E-04   -0.25439E-04  8424   0.112E-03 0.854E-04
CGA: 114    -0.669419638987E+03   -0.19294E-05   -0.17476E-04  8424   0.102E-03 0.839E-04
CGA: 115    -0.669419658063E+03   -0.19076E-04   -0.25662E-04  8424   0.115E-03 0.821E-04
CGA: 116    -0.669419662195E+03   -0.41327E-05   -0.17916E-04  8424   0.103E-03 0.804E-04
CGA: 117    -0.669419683175E+03   -0.20979E-04   -0.26049E-04  8424   0.119E-03 0.782E-04
CGA: 118    -0.669419689613E+03   -0.64383E-05   -0.18562E-04  8424   0.104E-03 0.761E-04
CGA: 119    -0.669419712391E+03   -0.22778E-04   -0.26541E-04  8424   0.124E-03 0.735E-04
CGA: 120    -0.669419721318E+03   -0.89264E-05   -0.19454E-04  8424   0.105E-03 0.709E-04
CGA: 121    -0.669419745648E+03   -0.24330E-04   -0.27062E-04  8424   0.130E-03 0.680E-04
CGA: 122    -0.669419757304E+03   -0.11656E-04   -0.20617E-04  8424   0.108E-03 0.649E-04
CGA: 123    -0.669419798157E+03   -0.40853E-04   -0.43620E-04  8424   0.140E-03 0.157E-03
CGA: 124    -0.669419826757E+03   -0.28601E-04   -0.30447E-04  8424   0.169E-03 0.257E-04
CGA: 125    -0.669419924637E+03   -0.97879E-04   -0.77086E-04  8424   0.143E-03 0.197E-03
CGA: 126    -0.669419940088E+03   -0.15451E-04   -0.22505E-04  8424   0.108E-03 0.531E-04
CGA: 127    -0.669420045068E+03   -0.10498E-03   -0.73564E-04  8424   0.181E-03 0.141E-03
CGA: 128    -0.669420092211E+03   -0.47143E-04   -0.44286E-04  8424   0.303E-03-0.593E-04
CGA: 129    -0.669420804431E+03   -0.71222E-03   -0.28403E-02  8424   0.219E-02 0.134E-03
CGA: 130    -0.669421834983E+03   -0.10306E-02   -0.10060E-02  8424   0.400E-02-0.575E-03
CGA: 131    -0.669427161129E+03   -0.53261E-02    0.10319E-02  8424   0.351E-02 0.173E-02
CGA: 132    -0.669429914846E+03   -0.27537E-02   -0.17756E-02  8424   0.208E-01-0.723E-02
CGA: 133    -0.669431886729E+03   -0.19719E-02   -0.20784E-02  8424   0.131E-03 0.267E-03
CGA: 134    -0.669432253355E+03   -0.36663E-03    0.17853E-04  8424   0.230E-03 0.464E-04
CGA: 135    -0.669433445182E+03   -0.11918E-02    0.26382E-04  8424   0.351E-03 0.156E-03
CGA: 136    -0.669433589400E+03   -0.14422E-03   -0.10656E-03  8424   0.604E-03-0.203E-03
CGA: 137    -0.669433926559E+03   -0.33716E-03   -0.19878E-03  8424   0.209E-02-0.911E-03
CGA: 138    -0.669434101777E+03   -0.17522E-03   -0.22407E-03  8424   0.945E-04 0.133E-03
CGA: 139    -0.669434454973E+03   -0.35320E-03    0.79960E-05  8424   0.227E-03 0.582E-04
CGA: 140    -0.669434882475E+03   -0.42750E-03    0.48466E-04  8424   0.142E-02-0.333E-03
CGA: 141    -0.669435000769E+03   -0.11829E-03   -0.15434E-03  8424   0.928E-04 0.104E-03
CGA: 142    -0.669435349230E+03   -0.34846E-03    0.72813E-05  8424   0.204E-03 0.654E-04
CGA: 143    -0.669435794052E+03   -0.44482E-03    0.29821E-04  8424   0.103E-02-0.234E-03
CGA: 144    -0.669435880029E+03   -0.85977E-04   -0.11570E-03  8424   0.924E-04 0.909E-04
CGA: 145    -0.669436224007E+03   -0.34398E-03    0.69296E-05  8424   0.197E-03 0.688E-04
CGA: 146    -0.669436670377E+03   -0.44637E-03    0.24520E-04  8424   0.842E-03-0.190E-03
CGA: 147    -0.669436743763E+03   -0.73385E-04   -0.97849E-04  8424   0.925E-04 0.797E-04
CGA: 148    -0.669437086513E+03   -0.34275E-03    0.65003E-05  8424   0.182E-03 0.746E-04
CGA: 149    -0.669437526479E+03   -0.43997E-03    0.18823E-04  8424   0.639E-03-0.132E-03
CGA: 150    -0.669437592561E+03   -0.66081E-04   -0.80447E-04  8424   0.954E-04 0.508E-04
CGA: 151    -0.669437954064E+03   -0.36150E-03    0.58190E-05  8424   0.149E-03 0.902E-04
CGA: 152    -0.669438374198E+03   -0.42013E-03    0.11256E-04  8424   0.379E-03-0.368E-04
CGA: 153    -0.669439582957E+03   -0.12088E-02    0.12735E-04  8424   0.685E-03 0.259E-03
CGA: 154    -0.669439661629E+03   -0.78672E-04   -0.92246E-04  8424   0.101E-03 0.522E-04
CGA: 155    -0.669440021482E+03   -0.35985E-03    0.61708E-05  8424   0.143E-03 0.863E-04
CGA: 156    -0.669440414446E+03   -0.39296E-03    0.10273E-04  8424   0.240E-03 0.839E-05
CGA: 157    -0.669441281939E+03   -0.86749E-03    0.13755E-04  8424   0.227E-03 0.230E-03
CGA: 158    -0.669441524259E+03   -0.24232E-03    0.10525E-03  8424   0.302E-03-0.652E-04
CGA: 159    -0.669442307555E+03   -0.78330E-03    0.10718E-04  8424   0.361E-03 0.146E-03
CGA: 160    -0.669443681175E+03   -0.13736E-02    0.42754E-04  8424   0.368E-03 0.213E-03
CGA: 161    -0.669443807104E+03   -0.12593E-03   -0.11281E-03  8424   0.383E-03-0.181E-03
CGA: 162    -0.669444484561E+03   -0.67746E-03    0.10101E-04  8424   0.392E-03 0.163E-03
CGA: 163    -0.669445643667E+03   -0.11591E-02    0.59584E-04  8424   0.671E-03-0.813E-04
CGA: 164    -0.669447666939E+03   -0.20233E-02    0.24559E-04  8424   0.122E-02 0.357E-03
CGA: 165    -0.669447857293E+03   -0.19035E-03   -0.20596E-03  8424   0.114E-03 0.751E-04
CGA: 166    -0.669448206901E+03   -0.34961E-03    0.74332E-05  8424   0.129E-03 0.725E-04
CGA: 167    -0.669448546364E+03   -0.33946E-03    0.90165E-05  8424   0.115E-03 0.634E-04
CGA: 168    -0.669449136735E+03   -0.59037E-03    0.84765E-05  8424   0.126E-03 0.168E-03
CGA: 169    -0.669449449473E+03   -0.31274E-03    0.96188E-05  8424   0.106E-03 0.696E-04
CGA: 170    -0.669449775988E+03   -0.32651E-03    0.59755E-05  8424   0.973E-04 0.824E-04
CGA: 171    -0.669450080956E+03   -0.30497E-03    0.54067E-05  8424   0.946E-04 0.868E-04
CGA: 172    -0.669450409916E+03   -0.32896E-03    0.46004E-05  8424   0.940E-04 0.880E-04
CGA: 173    -0.669450708358E+03   -0.29844E-03    0.51394E-05  8424   0.948E-04 0.876E-04
CGA: 174    -0.669451046848E+03   -0.33849E-03    0.44548E-05  8424   0.973E-04 0.859E-04
CGA: 175    -0.669451328979E+03   -0.28213E-03    0.59889E-05  8424   0.103E-03 0.816E-04
CGA: 176    -0.669451689221E+03   -0.36024E-03    0.49964E-05  8424   0.117E-03 0.723E-04
CGA: 177    -0.669451932319E+03   -0.24310E-03    0.11511E-04  8424   0.147E-03 0.517E-04
CGA: 178    -0.669452663954E+03   -0.73163E-03    0.10375E-04  8424   0.113E-03 0.207E-03
CGA: 179    -0.669453041232E+03   -0.37728E-03    0.58363E-05  8424   0.139E-03 0.548E-04
CGA: 180    -0.669453730630E+03   -0.68940E-03    0.10560E-04  8424   0.109E-03 0.202E-03
CGA: 181    -0.669453981186E+03   -0.25056E-03    0.92240E-05  8424   0.128E-03 0.601E-04
CGA: 182    -0.669454373501E+03   -0.39232E-03    0.73102E-05  8424   0.168E-03 0.315E-04
CGA: 183    -0.669455090348E+03   -0.71685E-03    0.10415E-04  8424   0.141E-03 0.207E-03
CGA: 184    -0.669455296985E+03   -0.20664E-03    0.25695E-04  8424   0.190E-03 0.123E-04
CGA: 185    -0.669456035712E+03   -0.73873E-03    0.96598E-05  8424   0.177E-03 0.203E-03
CGA: 186    -0.669456450830E+03   -0.41512E-03    0.14573E-04  8424   0.240E-03-0.324E-04
CGA: 187    -0.669457171404E+03   -0.72057E-03    0.89094E-05  8424   0.269E-03 0.188E-03
CGA: 188    -0.669457225141E+03   -0.53737E-04   -0.17044E-03  8424   0.156E-02-0.436E-03
CGA: 189    -0.669457806681E+03   -0.58154E-03   -0.62209E-03  8424   0.316E-02-0.203E-02
CGA: 190    -0.669458141950E+03   -0.33527E-03   -0.44604E-03  8424   0.139E-03 0.467E-03
CGA: 191    -0.669458332737E+03   -0.19079E-03    0.46476E-04  8424   0.270E-03-0.450E-04
CGA: 192    -0.669459143961E+03   -0.81122E-03    0.66644E-05  8424   0.695E-03 0.103E-03
CGA: 193    -0.669462098899E+03   -0.29549E-02    0.55526E-04  8424   0.300E-03 0.638E-03
CGA: 194    -0.669462326572E+03   -0.22767E-03    0.17000E-02  8424   0.238E-03-0.109E-03
CGA: 195    -0.669462887500E+03   -0.56093E-03    0.69198E-05  8424   0.204E-03 0.130E-03
CGA: 196    -0.669463227022E+03   -0.33952E-03    0.29903E-04  8424   0.130E-03-0.651E-05
CGA: 197    -0.669463691219E+03   -0.46420E-03    0.57898E-05  8424   0.125E-03 0.120E-03
CGA: 198    -0.669463978273E+03   -0.28705E-03    0.10768E-04  8424   0.893E-04 0.474E-04
CGA: 199    -0.669464469401E+03   -0.49113E-03    0.51326E-05  8424   0.104E-03 0.119E-03
CGA: 200    -0.669464764743E+03   -0.29534E-03    0.67444E-05  8424   0.804E-04 0.582E-04
   1 F= -.66946476E+03 E0= -.66946476E+03  d E =-.669465E+03  mag=     2.0000
       N       E                     dE             d eps       ncg     rms          ort
SDA:   1    -0.669473187679E+03   -0.87183E-02    0.00000E+00  8424   0.763E-02 0.000E+00
CGA:   2    -0.669475014161E+03   -0.18265E-02   -0.17721E-02  8424   0.388E-02-0.403E-03
CGA:   3    -0.669475948583E+03   -0.93442E-03   -0.85373E-03  8424   0.159E-02-0.630E-03
CGA:   4    -0.669476333511E+03   -0.38493E-03   -0.30067E-03  8424   0.103E-02-0.656E-03
CGA:   5    -0.669462467601E+03    0.13866E-01   -0.76067E-02  8424   0.124E+00-0.808E-02
CGA:   6    -0.669476640562E+03   -0.14173E-01   -0.14123E-01  8424   0.121E-01-0.349E-04
CGA:   7    -0.669479558721E+03   -0.29182E-02   -0.28370E-02  8424   0.250E-02-0.219E-03
CGA:   8    -0.669480364101E+03   -0.80538E-03   -0.71101E-03  8424   0.111E-02-0.316E-03
CGA:   9    -0.669480907124E+03   -0.54302E-03   -0.47497E-03  8424   0.174E-02-0.816E-03
CGA:  10    -0.669481263983E+03   -0.35686E-03   -0.29817E-03  8424   0.280E-03-0.147E-03
CGA:  11    -0.669481763926E+03   -0.49994E-03    0.92031E-04  8424   0.327E-03-0.804E-04
CGA:  12    -0.669482595353E+03   -0.83143E-03    0.28654E-04  8424   0.439E-03-0.610E-04
CGA:  13    -0.669484249296E+03   -0.16539E-02    0.30720E-04  8424   0.741E-03 0.434E-04
CGA:  14    -0.669487448279E+03   -0.31990E-02    0.87487E-04  8424   0.909E-03 0.197E-03
CGA:  15    -0.669491889054E+03   -0.44408E-02    0.12685E-03  8424   0.143E-02-0.922E-04
CGA:  16    -0.669498988351E+03   -0.70993E-02    0.88179E-04  8424   0.321E-02-0.322E-03
CGA:  17    -0.669517079234E+03   -0.18091E-01    0.12250E-03  8424   0.328E-02-0.787E-03
CGA:  18    -0.669537042216E+03   -0.19963E-01    0.10816E-03  8424   0.570E-02-0.327E-02
CGA:  19    -0.669537578582E+03   -0.53637E-03   -0.72180E-03  8424   0.677E-03 0.428E-03
CGA:  20    -0.669537572995E+03    0.55869E-05   -0.13099E-03  8424   0.320E-03 0.387E-03
CGA:  21    -0.669537536381E+03    0.36614E-04   -0.44119E-04  8424   0.202E-03 0.214E-03
CGA:  22    -0.669537482220E+03    0.54161E-04   -0.19873E-04  8424   0.176E-03 0.186E-03
CGA:  23    -0.669537431791E+03    0.50429E-04   -0.15275E-04  8424   0.164E-03 0.167E-03
CGA:  24    -0.669537382684E+03    0.49107E-04   -0.12923E-04  8424   0.166E-03 0.155E-03
CGA:  25    -0.669537330113E+03    0.52571E-04   -0.12592E-04  8424   0.199E-03 0.152E-03
CGA:  26    -0.669537262533E+03    0.67580E-04   -0.16189E-04  8424   0.293E-03 0.160E-03
CGA:  27    -0.669537184595E+03    0.77938E-04   -0.28994E-04  8424   0.391E-03 0.179E-03
CGA:  28    -0.669537110980E+03    0.73615E-04   -0.43633E-04  8424   0.372E-03 0.181E-03
CGA:  29    -0.669536980975E+03    0.13000E-03   -0.45821E-04  8424   0.382E-03 0.452E-03
CGA:  30    -0.669536931756E+03    0.49220E-04   -0.40070E-04  8424   0.365E-03 0.186E-03
CGA:  31    -0.669536828356E+03    0.10340E-03   -0.43778E-04  8424   0.238E-03 0.376E-03
CGA:  32    -0.669536795836E+03    0.32520E-04   -0.18427E-04  8424   0.243E-03 0.167E-03
CGA:  33    -0.669536762625E+03    0.33211E-04   -0.18574E-04  8424   0.162E-03 0.144E-03
CGA:  34    -0.669536734480E+03    0.28145E-04   -0.89562E-05  8424   0.169E-03 0.131E-03
CGA:  35    -0.669536705888E+03    0.28592E-04   -0.91783E-05  8424   0.130E-03 0.124E-03
CGA:  36    -0.669536682493E+03    0.23395E-04   -0.56193E-05  8424   0.131E-03 0.117E-03
CGA:  37    -0.669536659420E+03    0.23073E-04   -0.53653E-05  8424   0.119E-03 0.117E-03
CGA:  38    -0.669536638164E+03    0.21256E-04   -0.43367E-05  8424   0.113E-03 0.112E-03
CGA:  39    -0.669536618409E+03    0.19756E-04   -0.38124E-05  8424   0.111E-03 0.110E-03
CGA:  40    -0.669536599584E+03    0.18825E-04   -0.35140E-05  8424   0.108E-03 0.109E-03
CGA:  41    -0.669536581826E+03    0.17758E-04   -0.32238E-05  8424   0.107E-03 0.107E-03
CGA:  42    -0.669536564921E+03    0.16905E-04   -0.30185E-05  8424   0.106E-03 0.106E-03
CGA:  43    -0.669536548858E+03    0.16063E-04   -0.28225E-05  8424   0.105E-03 0.105E-03
CGA:  44    -0.669536533596E+03    0.15262E-04   -0.26456E-05  8424   0.104E-03 0.104E-03
CGA:  45    -0.669536519071E+03    0.14525E-04   -0.24911E-05  8424   0.103E-03 0.103E-03
CGA:  46    -0.669536505241E+03    0.13830E-04   -0.23507E-05  8424   0.102E-03 0.102E-03
CGA:  47    -0.669536492069E+03    0.13172E-04   -0.22218E-05  8424   0.102E-03 0.102E-03
CGA:  48    -0.669536479518E+03    0.12551E-04   -0.21031E-05  8424   0.101E-03 0.101E-03
CGA:  49    -0.669536467556E+03    0.11962E-04   -0.19932E-05  8424   0.101E-03 0.101E-03
CGA:  50    -0.669536456153E+03    0.11403E-04   -0.18904E-05  8424   0.100E-03 0.100E-03
CGA:  51    -0.669536445281E+03    0.10872E-04   -0.17939E-05  8424   0.997E-04 0.998E-04
CGA:  52    -0.669536434913E+03    0.10368E-04   -0.17035E-05  8424   0.994E-04 0.994E-04
CGA:  53    -0.669536425022E+03    0.98904E-05   -0.16187E-05  8424   0.990E-04 0.991E-04
   2 F= -.66953643E+03 E0= -.66953643E+03  d E =-.716603E-01  mag=     2.0000
       N       E                     dE             d eps       ncg     rms          ort
SDA:   1    -0.669259580292E+03    0.27685E+00    0.00000E+00  8424   0.114E+01 0.000E+00
CGA:   2    -0.669507495108E+03   -0.24791E+00   -0.24763E+00  8424   0.505E+00 0.294E-02
CGA:   3    -0.669610435755E+03   -0.10294E+00   -0.10277E+00  8424   0.146E+00 0.216E-02
CGA:   4    -0.669634337178E+03   -0.23901E-01   -0.23853E-01  8424   0.349E-01 0.145E-02
CGA:   5    -0.669640372045E+03   -0.60349E-02   -0.59954E-02  8424   0.712E-02 0.102E-02
CGA:   6    -0.669641745231E+03   -0.13732E-02   -0.13292E-02  8424   0.156E-02 0.921E-03
CGA:   7    -0.669641979736E+03   -0.23451E-03   -0.23631E-03  8424   0.577E-03 0.828E-03
CGA:   8    -0.669642009265E+03   -0.29529E-04   -0.50845E-04  8424   0.369E-03 0.447E-03
CGA:   9    -0.669642011431E+03   -0.21664E-05   -0.24406E-04  8424   0.301E-03 0.330E-03
CGA:  10    -0.669642007011E+03    0.44205E-05   -0.16505E-04  8424   0.262E-03 0.279E-03
CGA:  11    -0.669642000049E+03    0.69612E-05   -0.12478E-04  8424   0.236E-03 0.247E-03
CGA:  12    -0.669641992000E+03    0.80490E-05   -0.10003E-04  8424   0.218E-03 0.226E-03
   3 F= -.66964199E+03 E0= -.66964199E+03  d E =-.105567E+00  mag=     2.0000
       N       E                     dE             d eps       ncg     rms          ort
SDA:   1    -0.653386662178E+03    0.16255E+02    0.00000E+00  8424   0.466E+02 0.000E+00
CGA:   2    -0.664257445430E+03   -0.10871E+02   -0.10851E+02  8424   0.219E+02 0.171E+00
CGA:   3    -0.668584717577E+03   -0.43273E+01   -0.43297E+01  8424   0.573E+01-0.323E-01
CGA:   4    -0.669512533618E+03   -0.92782E+00   -0.92756E+00  8424   0.138E+01 0.494E-02
CGA:   5    -0.669750552551E+03   -0.23802E+00   -0.23780E+00  8424   0.289E+00 0.419E-02
CGA:   6    -0.669809070792E+03   -0.58518E-01   -0.58475E-01  8424   0.678E-01 0.549E-03
CGA:   7    -0.669824175213E+03   -0.15104E-01   -0.14881E-01  8424   0.198E-01 0.257E-02
CGA:   8    -0.669828989150E+03   -0.48139E-02   -0.45854E-02  8424   0.574E-02 0.262E-02
CGA:   9    -0.669830612240E+03   -0.16231E-02   -0.14803E-02  8424   0.205E-02 0.164E-02
CGA:  10    -0.669831083516E+03   -0.47128E-03   -0.44057E-03  8424   0.101E-02 0.141E-02
CGA:  11    -0.669831207454E+03   -0.12394E-03   -0.13373E-03  8424   0.612E-03 0.746E-03
CGA:  12    -0.669831248651E+03   -0.41197E-04   -0.63830E-04  8424   0.497E-03 0.549E-03
CGA:  13    -0.669831265312E+03   -0.16662E-04   -0.43056E-04  8424   0.434E-03 0.464E-03
CGA:  14    -0.669831271451E+03   -0.61386E-05   -0.32930E-04  8424   0.393E-03 0.413E-03
CGA:  15    -0.669831271904E+03   -0.45290E-06   -0.26690E-04  8424   0.363E-03 0.378E-03
CGA:  16    -0.669831268972E+03    0.29323E-05   -0.22400E-04  8424   0.339E-03 0.351E-03
CGA:  17    -0.669831263918E+03    0.50536E-05   -0.19247E-04  8424   0.321E-03 0.330E-03
CGA:  18    -0.669831257504E+03    0.64144E-05   -0.16822E-04  8424   0.306E-03 0.313E-03
CGA:  19    -0.669831250213E+03    0.72905E-05   -0.14894E-04  8424   0.293E-03 0.299E-03
CGA:  20    -0.669831242370E+03    0.78432E-05   -0.13322E-04  8424   0.282E-03 0.287E-03
CGA:  21    -0.669831234196E+03    0.81735E-05   -0.12015E-04  8424   0.272E-03 0.277E-03
CGA:  22    -0.669831225849E+03    0.83470E-05   -0.10911E-04  8424   0.264E-03 0.268E-03
   4 F= -.66983123E+03 E0= -.66983123E+03  d E =-.189234E+00  mag=     2.0000
       N       E                     dE             d eps       ncg     rms          ort
SDA:   1    -0.668592638510E+03    0.12386E+01    0.00000E+00  8424   0.337E+01 0.000E+00
CGA:   2    -0.669467652051E+03   -0.87501E+00   -0.87474E+00  8424   0.168E+01 0.146E-02
CGA:   3    -0.669779958133E+03   -0.31231E+00   -0.31222E+00  8424   0.389E+00 0.101E-02
CGA:   4    -0.669842898274E+03   -0.62940E-01   -0.62871E-01  8424   0.948E-01 0.146E-02
CGA:   5    -0.669859332862E+03   -0.16435E-01   -0.16353E-01  8424   0.195E-01 0.150E-02
CGA:   6    -0.669863215162E+03   -0.38823E-02   -0.37910E-02  8424   0.432E-02 0.130E-02
CGA:   7    -0.669864121647E+03   -0.90649E-03   -0.84169E-03  8424   0.124E-02 0.112E-02
CGA:   8    -0.669864341376E+03   -0.21973E-03   -0.21276E-03  8424   0.562E-03 0.818E-03
CGA:   9    -0.669864387472E+03   -0.46096E-04   -0.57377E-04  8424   0.371E-03 0.435E-03
CGA:  10    -0.669864399939E+03   -0.12467E-04   -0.28871E-04  8424   0.311E-03 0.336E-03
CGA:  11    -0.669864403687E+03   -0.37478E-05   -0.20624E-04  8424   0.277E-03 0.291E-03
CGA:  12    -0.669864403366E+03    0.32072E-06   -0.16192E-04  8424   0.253E-03 0.263E-03
CGA:  13    -0.669864400813E+03    0.25530E-05   -0.13346E-04  8424   0.236E-03 0.243E-03
CGA:  14    -0.669864396940E+03    0.38726E-05   -0.11335E-04  8424   0.222E-03 0.227E-03
   5 F= -.66986440E+03 E0= -.66986440E+03  d E =-.331711E-01  mag=     2.0000
       N       E                     dE             d eps       ncg     rms          ort
SDA:   1    -0.668963948769E+03    0.90045E+00    0.00000E+00  8424   0.213E+01 0.000E+00
CGA:   2    -0.669644749911E+03   -0.68080E+00   -0.68163E+00  8424   0.106E+01-0.404E-02
CGA:   3    -0.669819595692E+03   -0.17485E+00   -0.17464E+00  8424   0.205E+00 0.432E-02
CGA:   4    -0.669853759903E+03   -0.34164E-01   -0.34110E-01  8424   0.527E-01 0.120E-02
CGA:   5    -0.669862862831E+03   -0.91029E-02   -0.90581E-02  8424   0.110E-01 0.933E-03
CGA:   6    -0.669865002389E+03   -0.21396E-02   -0.20682E-02  8424   0.239E-02 0.120E-02
CGA:   7    -0.669865498738E+03   -0.49635E-03   -0.46145E-03  8424   0.741E-03 0.764E-03
CGA:   8    -0.669865609913E+03   -0.11117E-03   -0.11746E-03  8424   0.384E-03 0.573E-03
CGA:   9    -0.669865628687E+03   -0.18774E-04   -0.32928E-04  8424   0.277E-03 0.316E-03
CGA:  10    -0.669865633004E+03   -0.43164E-05   -0.19207E-04  8424   0.236E-03 0.253E-03
CGA:  11    -0.669865632607E+03    0.39663E-06   -0.14123E-04  8424   0.212E-03 0.222E-03
CGA:  12    -0.669865629971E+03    0.26364E-05   -0.11254E-04  8424   0.195E-03 0.202E-03
   6 F= -.66986563E+03 E0= -.66986563E+03  d E =-.123303E-02  mag=     2.0000
       N       E                     dE             d eps       ncg     rms          ort
SDA:   1    -0.660128094972E+03    0.97375E+01    0.00000E+00  8424   0.237E+02 0.000E+00
CGA:   2    -0.667054674741E+03   -0.69266E+01   -0.69328E+01  8424   0.128E+02-0.358E-01
CGA:   3    -0.669295008329E+03   -0.22403E+01   -0.22390E+01  8424   0.261E+01 0.213E-01
CGA:   4    -0.669714335215E+03   -0.41933E+00   -0.41926E+00  8424   0.625E+00 0.163E-02
CGA:   5    -0.669823386643E+03   -0.10905E+00   -0.10901E+00  8424   0.137E+00 0.885E-03
CGA:   6    -0.669851124850E+03   -0.27738E-01   -0.27594E-01  8424   0.314E-01 0.201E-02
CGA:   7    -0.669858244454E+03   -0.71196E-02   -0.70943E-02  8424   0.959E-02 0.283E-03
CGA:   8    -0.669860569506E+03   -0.23251E-02   -0.22259E-02  8424   0.296E-02 0.108E-02
CGA:   9    -0.669861397478E+03   -0.82797E-03   -0.75372E-03  8424   0.105E-02 0.863E-03
CGA:  10    -0.669861683385E+03   -0.28591E-03   -0.25779E-03  8424   0.489E-03 0.648E-03
CGA:  11    -0.669861746575E+03   -0.63190E-04   -0.67323E-04  8424   0.286E-03 0.352E-03
CGA:  12    -0.669861766207E+03   -0.19632E-04   -0.30543E-04  8424   0.233E-03 0.258E-03
CGA:  13    -0.669861773980E+03   -0.77730E-05   -0.20540E-04  8424   0.204E-03 0.218E-03
CGA:  14    -0.669861776759E+03   -0.27783E-05   -0.15739E-04  8424   0.185E-03 0.194E-03
CGA:  15    -0.669861776858E+03   -0.99437E-07   -0.12800E-04  8424   0.171E-03 0.178E-03
CGA:  16    -0.669861775373E+03    0.14853E-05   -0.10792E-04  8424   0.161E-03 0.166E-03
   7 F= -.66986178E+03 E0= -.66986178E+03  d E =0.385460E-02  mag=     2.0000
       N       E                     dE             d eps       ncg     rms          ort
SDA:   1    -0.619885769702E+03    0.49976E+02    0.00000E+00  8424   0.143E+03 0.000E+00
CGA:   2    -0.651281609615E+03   -0.31396E+02   -0.31264E+02  8424   0.672E+02 0.137E+01
CGA:   3    -0.665567544659E+03   -0.14286E+02   -0.14307E+02  8424   0.195E+02-0.263E+00
CGA:   4    -0.668653179280E+03   -0.30856E+01   -0.30848E+01  8424   0.434E+01 0.230E-01
CGA:   5    -0.669388342672E+03   -0.73516E+00   -0.73468E+00  8424   0.938E+00 0.133E-01
CGA:   6    -0.669581598621E+03   -0.19326E+00   -0.19346E+00  8424   0.225E+00-0.318E-02
CGA:   7    -0.669631126496E+03   -0.49528E-01   -0.49295E-01  8424   0.659E-01 0.305E-02
CGA:   8    -0.669647564500E+03   -0.16438E-01   -0.16312E-01  8424   0.204E-01 0.130E-02
CGA:   9    -0.669653477999E+03   -0.59135E-02   -0.60315E-02  8424   0.794E-02-0.862E-03
CGA:  10    -0.669655686488E+03   -0.22085E-02   -0.21426E-02  8424   0.293E-02 0.535E-03
CGA:  11    -0.669656688509E+03   -0.10020E-02   -0.10564E-02  8424   0.116E-02-0.317E-03
CGA:  12    -0.669656928832E+03   -0.24032E-03   -0.22824E-03  8424   0.395E-03 0.260E-03
CGA:  13    -0.669657072895E+03   -0.14406E-03   -0.13535E-03  8424   0.221E-03 0.821E-04
CGA:  14    -0.669657193249E+03   -0.12035E-03   -0.12002E-03  8424   0.291E-03-0.275E-05
CGA:  15    -0.669657250446E+03   -0.57197E-04   -0.56708E-04  8424   0.275E-03 0.178E-03
CGA:  16    -0.669657330476E+03   -0.80031E-04   -0.72075E-04  8424   0.106E-03 0.118E-03
CGA:  17    -0.669657399415E+03   -0.68938E-04   -0.56440E-04  8424   0.947E-04 0.705E-04
CGA:  18    -0.669657416251E+03   -0.16836E-04   -0.18074E-04  8424   0.725E-04 0.762E-04
CGA:  19    -0.669657530907E+03   -0.11466E-03   -0.70914E-04  8424   0.106E-03 0.544E-04
CGA:  20    -0.669657528163E+03    0.27440E-05   -0.95967E-05  8424   0.713E-04 0.798E-04
CGA:  21    -0.669657540070E+03   -0.11907E-04   -0.14277E-04  8424   0.646E-04 0.639E-04
CGA:  22    -0.669657572069E+03   -0.31999E-04    0.14141E-03  8424   0.631E-04 0.616E-04
CGA:  23    -0.669657587440E+03   -0.15371E-04   -0.15105E-04  8424   0.626E-04 0.604E-04
CGA:  24    -0.669657621549E+03   -0.34108E-04    0.46594E-04  8424   0.623E-04 0.593E-04
CGA:  25    -0.669657632428E+03   -0.10879E-04   -0.12723E-04  8424   0.614E-04 0.587E-04
CGA:  26    -0.669657667110E+03   -0.34682E-04    0.34440E-04  8424   0.613E-04 0.580E-04
CGA:  27    -0.669657677427E+03   -0.10317E-04   -0.12270E-04  8424   0.604E-04 0.573E-04
CGA:  28    -0.669657713091E+03   -0.35664E-04    0.25847E-04  8424   0.606E-04 0.567E-04
CGA:  29    -0.669657722473E+03   -0.93817E-05   -0.11641E-04  8424   0.594E-04 0.561E-04
CGA:  30    -0.669657758617E+03   -0.36145E-04    0.21299E-04  8424   0.597E-04 0.555E-04
CGA:  31    -0.669657768017E+03   -0.94003E-05   -0.11487E-04  8424   0.586E-04 0.549E-04
CGA:  32    -0.669657804956E+03   -0.36938E-04    0.17599E-04  8424   0.590E-04 0.543E-04
CGA:  33    -0.669657814008E+03   -0.90517E-05   -0.11165E-04  8424   0.578E-04 0.538E-04
CGA:  34    -0.669657851363E+03   -0.37356E-04    0.15281E-04  8424   0.582E-04 0.532E-04
CGA:  35    -0.669657860771E+03   -0.94072E-05   -0.11203E-04  8424   0.572E-04 0.526E-04
CGA:  36    -0.669657898942E+03   -0.38172E-04    0.13222E-04  8424   0.577E-04 0.519E-04
CGA:  37    -0.669657908173E+03   -0.92303E-05   -0.10998E-04  8424   0.565E-04 0.514E-04
CGA:  38    -0.669657946671E+03   -0.38498E-04    0.11961E-04  8424   0.572E-04 0.508E-04
CGA:  39    -0.669657956595E+03   -0.99239E-05   -0.11245E-04  8424   0.563E-04 0.500E-04
CGA:  40    -0.669657996080E+03   -0.39486E-04    0.10737E-04  8424   0.572E-04 0.491E-04
CGA:  41    -0.669658005648E+03   -0.95681E-05   -0.10998E-04  8424   0.559E-04 0.485E-04
CGA:  42    -0.669658045136E+03   -0.39488E-04    0.10190E-04  8424   0.568E-04 0.479E-04
CGA:  43    -0.669658056008E+03   -0.10872E-04   -0.11615E-04  8424   0.566E-04 0.466E-04
CGA:  44    -0.669658096982E+03   -0.40974E-04    0.95515E-05  8424   0.580E-04 0.453E-04
CGA:  45    -0.669658106599E+03   -0.96172E-05   -0.10978E-04  8424   0.559E-04 0.448E-04
   8 F= -.66965811E+03 E0= -.66965811E+03  d E =0.203669E+00  mag=     2.0000
       N       E                     dE             d eps       ncg     rms          ort
SDA:   1    -0.664802344919E+03    0.48558E+01    0.00000E+00  8424   0.146E+02 0.000E+00
CGA:   2    -0.668075547525E+03   -0.32732E+01   -0.32730E+01  8424   0.679E+01 0.227E-01
CGA:   3    -0.669454541635E+03   -0.13790E+01   -0.13789E+01  8424   0.188E+01-0.585E-02
CGA:   4    -0.669756487826E+03   -0.30195E+00   -0.30199E+00  8424   0.441E+00 0.304E-03
CGA:   5    -0.669832335984E+03   -0.75848E-01   -0.75879E-01  8424   0.931E-01 0.560E-03
CGA:   6    -0.669851230267E+03   -0.18894E-01   -0.18889E-01  8424   0.215E-01-0.509E-03
CGA:   7    -0.669855971734E+03   -0.47415E-02   -0.47392E-02  8424   0.626E-02 0.238E-03
CGA:   8    -0.669857492588E+03   -0.15209E-02   -0.15169E-02  8424   0.184E-02 0.146E-03
CGA:   9    -0.669858058281E+03   -0.56569E-03   -0.58031E-03  8424   0.810E-03-0.157E-03
CGA:  10    -0.669858278259E+03   -0.21998E-03   -0.21651E-03  8424   0.333E-03 0.455E-04
CGA:  11    -0.669858408289E+03   -0.13003E-03   -0.17200E-03  8424   0.362E-03-0.160E-03
CGA:  12    -0.669858455321E+03   -0.47032E-04   -0.46925E-04  8424   0.262E-03 0.427E-05
CGA:  13    -0.669858541167E+03   -0.85846E-04   -0.86590E-04  8424   0.258E-03-0.136E-04
CGA:  14    -0.669858034696E+03    0.50647E-03   -0.28517E-03  8424   0.460E-02-0.720E-03
CGA:  15    -0.669858917007E+03   -0.88231E-03   -0.94671E-03  8424   0.106E-02 0.275E-03
CGA:  16    -0.669859238461E+03   -0.32145E-03   -0.29255E-03  8424   0.249E-03-0.175E-03
CGA:  17    -0.669859289351E+03   -0.50890E-04   -0.53727E-04  8424   0.966E-04 0.172E-04
CGA:  18    -0.669859342518E+03   -0.53167E-04   -0.99829E-04  8424   0.425E-03-0.869E-04
CGA:  19    -0.669859474730E+03   -0.13221E-03   -0.11204E-03  8424   0.257E-03-0.116E-03
CGA:  20    -0.669859521119E+03   -0.46389E-04   -0.42333E-04  8424   0.846E-04-0.206E-04
CGA:  21    -0.669859594032E+03   -0.72913E-04    0.14064E-03  8424   0.116E-03 0.124E-04
CGA:  22    -0.669859766016E+03   -0.17198E-03    0.52004E-04  8424   0.200E-03-0.142E-04
CGA:  23    -0.669860094160E+03   -0.32814E-03    0.30149E-04  8424   0.265E-03 0.905E-04
CGA:  24    -0.669860607804E+03   -0.51364E-03    0.13746E-03  8424   0.414E-03 0.713E-04
CGA:  25    -0.669861565537E+03   -0.95773E-03    0.94164E-04  8424   0.587E-03 0.234E-04
CGA:  26    -0.669863167295E+03   -0.16018E-02    0.62871E-04  8424   0.688E-03 0.175E-03
CGA:  27    -0.669865169641E+03   -0.20023E-02    0.11248E-03  8424   0.123E-02-0.265E-03
CGA:  28    -0.669869190533E+03   -0.40209E-02    0.29745E-04  8424   0.176E-02-0.953E-03
CGA:  29    -0.669869681971E+03   -0.49144E-03   -0.45643E-03  8424   0.543E-03-0.219E-03
CGA:  30    -0.669869766757E+03   -0.84786E-04   -0.85697E-04  8424   0.824E-04 0.380E-05
CGA:  31    -0.669869116769E+03    0.64999E-03   -0.34990E-03  8424   0.523E-02-0.397E-03
CGA:  32    -0.669870177665E+03   -0.10609E-02   -0.92387E-03  8424   0.387E-03-0.253E-03
CGA:  33    -0.669870237997E+03   -0.60332E-04   -0.82896E-04  8424   0.789E-04 0.471E-04
CGA:  34    -0.669870287027E+03   -0.49030E-04   -0.82209E-04  8424   0.532E-03-0.133E-03
CGA:  35    -0.669870377520E+03   -0.90493E-04   -0.95395E-04  8424   0.633E-04 0.100E-04
CGA:  36    -0.669870404784E+03   -0.27265E-04   -0.60182E-04  8424   0.559E-03-0.124E-03
CGA:  37    -0.669870487803E+03   -0.83018E-04   -0.86707E-04  8424   0.766E-04 0.748E-05
CGA:  38    -0.669870538671E+03   -0.50868E-04   -0.49051E-04  8424   0.208E-03-0.886E-04
CGA:  39    -0.669870585745E+03   -0.47073E-04   -0.43291E-04  8424   0.550E-04-0.849E-05
CGA:  40    -0.669870575285E+03    0.10459E-04   -0.53876E-04  8424   0.959E-03-0.165E-03
CGA:  41    -0.669870705289E+03   -0.13000E-03   -0.13588E-03  8424   0.111E-03 0.133E-04
CGA:  42    -0.669870763634E+03   -0.58345E-04   -0.43807E-04  8424   0.749E-04-0.621E-04
CGA:  43    -0.669870795500E+03   -0.31866E-04   -0.24913E-04  8424   0.559E-04-0.251E-04
CGA:  44    -0.669870878435E+03   -0.82934E-04    0.12817E-04  8424   0.256E-03-0.444E-04
CGA:  45    -0.669870915019E+03   -0.36585E-04   -0.36787E-04  8424   0.384E-04 0.619E-06
CGA:  46    -0.669870971610E+03   -0.56591E-04    0.40072E-04  8424   0.113E-03-0.349E-04
CGA:  47    -0.669871004592E+03   -0.32982E-04   -0.26696E-04  8424   0.443E-04-0.187E-04
CGA:  48    -0.669871063815E+03   -0.59223E-04    0.23835E-04  8424   0.233E-03-0.489E-04
CGA:  49    -0.669871097209E+03   -0.33394E-04   -0.31569E-04  8424   0.319E-04-0.418E-05
CGA:  50    -0.669871154710E+03   -0.57501E-04    0.11851E-04  8424   0.736E-04-0.172E-04
CGA:  51    -0.669871184352E+03   -0.29642E-04   -0.22347E-04  8424   0.676E-04-0.314E-04
CGA:  52    -0.669871264555E+03   -0.80204E-04    0.10443E-04  8424   0.227E-03-0.434E-04
CGA:  53    -0.669871307485E+03   -0.42929E-04   -0.38162E-04  8424   0.483E-04-0.134E-04
CGA:  54    -0.669871355289E+03   -0.47804E-04    0.31351E-03  8424   0.203E-03-0.598E-04
CGA:  55    -0.669871388587E+03   -0.33298E-04   -0.30028E-04  8424   0.380E-04-0.906E-05
CGA:  56    -0.669871441456E+03   -0.52869E-04    0.18184E-04  8424   0.982E-04-0.264E-04
CGA:  57    -0.669871470160E+03   -0.28704E-04   -0.21641E-04  8424   0.544E-04-0.263E-04
CGA:  58    -0.669871537478E+03   -0.67318E-04    0.12220E-04  8424   0.144E-03-0.327E-04
CGA:  59    -0.669871568451E+03   -0.30973E-04   -0.25719E-04  8424   0.449E-04-0.177E-04
CGA:  60    -0.669871623671E+03   -0.55219E-04    0.17452E-04  8424   0.126E-03-0.328E-04
CGA:  61    -0.669871651743E+03   -0.28072E-04   -0.22309E-04  8424   0.447E-04-0.203E-04
CGA:  62    -0.669871712587E+03   -0.60844E-04    0.10316E-04  8424   0.928E-04-0.207E-04
CGA:  63    -0.669871893265E+03   -0.18068E-03    0.36502E-05  8424   0.107E-03 0.467E-04
CGA:  64    -0.669871930933E+03   -0.37668E-04   -0.31188E-04  8424   0.772E-04-0.422E-04
CGA:  65    -0.669871997833E+03   -0.66900E-04    0.16192E-04  8424   0.224E-03-0.500E-04
CGA:  66    -0.669872037152E+03   -0.39318E-04   -0.34392E-04  8424   0.494E-04-0.173E-04
CGA:  67    -0.669872091833E+03   -0.54681E-04    0.23578E-04  8424   0.100E-03-0.308E-04
CGA:  68    -0.669872120050E+03   -0.28217E-04   -0.21936E-04  8424   0.651E-04-0.306E-04
CGA:  69    -0.669872190602E+03   -0.70552E-04    0.10664E-04  8424   0.107E-03-0.229E-04
CGA:  70    -0.669872378201E+03   -0.18760E-03    0.63250E-05  8424   0.720E-04 0.648E-04
CGA:  71    -0.669872407485E+03   -0.29284E-04   -0.25532E-04  8424   0.175E-03-0.629E-04
CGA:  72    -0.669872445652E+03   -0.38167E-04   -0.26193E-04  8424   0.471E-04-0.458E-04
CGA:  73    -0.669872504391E+03   -0.58738E-04    0.62278E-05  8424   0.326E-04 0.932E-05
CGA:  74    -0.669872600086E+03   -0.95696E-04    0.37642E-05  8424   0.262E-04 0.272E-04
CGA:  75    -0.669872637373E+03   -0.37287E-04    0.66775E-05  8424   0.946E-04-0.926E-05
CGA:  76    -0.669872843785E+03   -0.20641E-03    0.37779E-05  8424   0.301E-03 0.446E-04
CGA:  77    -0.669873661870E+03   -0.81808E-03    0.67016E-04  8424   0.638E-03 0.396E-04
CGA:  78    -0.669875789565E+03   -0.21277E-02    0.53392E-04  8424   0.250E-03 0.765E-03
CGA:  79    -0.669875826765E+03   -0.37200E-04   -0.31660E-04  8424   0.457E-04-0.205E-04
CGA:  80    -0.669875916205E+03   -0.89440E-04    0.45717E-05  8424   0.322E-04 0.300E-04
CGA:  81    -0.669875985652E+03   -0.69447E-04    0.34509E-05  8424   0.360E-04 0.250E-04
CGA:  82    -0.669876060606E+03   -0.74954E-04    0.40617E-05  8424   0.709E-04 0.130E-04
CGA:  83    -0.669876275660E+03   -0.21505E-03    0.97733E-05  8424   0.469E-04 0.807E-04
CGA:  84    -0.669876350334E+03   -0.74674E-04    0.84476E-05  8424   0.547E-04 0.111E-04
CGA:  85    -0.669876508742E+03   -0.15841E-03    0.63869E-05  8424   0.663E-04 0.553E-04
CGA:  86    -0.669876590589E+03   -0.81846E-04    0.21157E-04  8424   0.107E-03-0.126E-04
CGA:  87    -0.669876768229E+03   -0.17764E-03    0.10051E-04  8424   0.172E-03 0.184E-04
CGA:  88    -0.669877195000E+03   -0.42677E-03    0.22247E-04  8424   0.151E-03 0.156E-03
CGA:  89    -0.669877253667E+03   -0.58667E-04   -0.54861E-04  8424   0.534E-03-0.181E-03
CGA:  90    -0.669877318969E+03   -0.65302E-04   -0.61666E-04  8424   0.389E-04-0.131E-04
CGA:  91    -0.669877409146E+03   -0.90177E-04    0.31775E-05  8424   0.344E-04 0.334E-04
CGA:  92    -0.669877485917E+03   -0.76771E-04    0.31670E-05  8424   0.358E-04 0.307E-04
CGA:  93    -0.669877576675E+03   -0.90758E-04    0.27355E-05  8424   0.427E-04 0.278E-04
CGA:  94    -0.669877634561E+03   -0.57887E-04    0.95029E-05  8424   0.742E-04 0.135E-04
CGA:  95    -0.669877875574E+03   -0.24101E-03    0.77637E-05  8424   0.482E-04 0.904E-04
CGA:  96    -0.669877972744E+03   -0.97170E-04    0.51805E-05  8424   0.595E-04 0.149E-04
CGA:  97    -0.669878152068E+03   -0.17932E-03    0.68413E-05  8424   0.577E-04 0.702E-04
CGA:  98    -0.669878245178E+03   -0.93110E-04    0.90716E-05  8424   0.534E-04 0.130E-04
CGA:  99    -0.669878405377E+03   -0.16020E-03    0.52603E-05  8424   0.571E-04 0.612E-04
CGA: 100    -0.669878501999E+03   -0.96622E-04    0.82438E-05  8424   0.454E-04 0.192E-04
CGA: 101    -0.669878654531E+03   -0.15253E-03    0.46922E-05  8424   0.526E-04 0.563E-04
CGA: 102    -0.669878750974E+03   -0.96442E-04    0.66061E-05  8424   0.418E-04 0.246E-04
CGA: 103    -0.669878905911E+03   -0.15494E-03    0.47214E-05  8424   0.501E-04 0.550E-04
CGA: 104    -0.669879003342E+03   -0.97431E-04    0.57066E-05  8424   0.399E-04 0.275E-04
CGA: 105    -0.669879089447E+03   -0.86105E-04    0.38588E-05  8424   0.421E-04 0.289E-04
CGA: 106    -0.669879189281E+03   -0.99834E-04    0.35382E-05  8424   0.486E-04 0.246E-04
CGA: 107    -0.669879263591E+03   -0.74310E-04    0.84807E-05  8424   0.644E-04 0.150E-04
CGA: 108    -0.669879489648E+03   -0.22606E-03    0.59640E-05  8424   0.566E-04 0.778E-04
CGA: 109    -0.669879587529E+03   -0.97881E-04    0.78708E-05  8424   0.533E-04 0.148E-04
CGA: 110    -0.669879767329E+03   -0.17980E-03    0.47776E-05  8424   0.576E-04 0.646E-04
CGA: 111    -0.669879867045E+03   -0.99715E-04    0.79718E-05  8424   0.481E-04 0.183E-04
CGA: 112    -0.669880038484E+03   -0.17144E-03    0.44285E-05  8424   0.563E-04 0.583E-04
CGA: 113    -0.669880139837E+03   -0.10135E-03    0.72879E-05  8424   0.482E-04 0.209E-04
CGA: 114    -0.669880313842E+03   -0.17401E-03    0.48009E-05  8424   0.612E-04 0.527E-04
CGA: 115    -0.669880414814E+03   -0.10097E-03    0.92416E-05  8424   0.713E-04 0.127E-04
CGA: 116    -0.669880617959E+03   -0.20314E-03    0.73126E-05  8424   0.891E-04 0.403E-04
CGA: 117    -0.669880715629E+03   -0.97671E-04    0.34401E-04  8424   0.125E-03-0.118E-04
CGA: 118    -0.669880934803E+03   -0.21917E-03    0.11699E-04  8424   0.161E-03-0.118E-04
CGA: 119    -0.669881339620E+03   -0.40482E-03    0.98380E-05  8424   0.172E-03 0.135E-03
CGA: 120    -0.669880923485E+03    0.41613E-03   -0.21427E-03  8424   0.618E-02-0.725E-03
CGA: 121    -0.669881643378E+03   -0.71989E-03   -0.71187E-03  8424   0.366E-03-0.307E-04
CGA: 122    -0.669881809360E+03   -0.16598E-03   -0.19626E-03  8424   0.331E-03-0.218E-03
CGA: 123    -0.669881944676E+03   -0.13532E-03   -0.13223E-03  8424   0.128E-02-0.444E-03
CGA: 124    -0.669882033209E+03   -0.88532E-04   -0.12544E-03  8424   0.522E-04 0.121E-03
CGA: 125    -0.669882105450E+03   -0.72241E-04    0.18002E-04  8424   0.152E-03-0.206E-04
CGA: 126    -0.669882461659E+03   -0.35621E-03    0.45382E-05  8424   0.563E-03-0.304E-04
CGA: 127    -0.669884095271E+03   -0.16336E-02    0.24138E-04  8424   0.173E-02 0.263E-04
CGA: 128    -0.669889862575E+03   -0.57673E-02    0.11542E-03  8424   0.188E-02-0.124E-03
CGA: 129    -0.669895687194E+03   -0.58246E-02    0.10377E-03  8424   0.602E-02-0.342E-02
CGA: 130    -0.669896559756E+03   -0.87256E-03   -0.75569E-03  8424   0.292E-03-0.451E-03
CGA: 131    -0.669896559760E+03   -0.39108E-08   -0.31672E-04  8424   0.720E-04 0.122E-03
   9 F= -.66989656E+03 E0= -.66989656E+03  d E =-.238453E+00  mag=     2.0000
       N       E                     dE             d eps       ncg     rms          ort
SDA:   1    -0.669274792289E+03    0.62177E+00    0.00000E+00  8424   0.151E+01 0.000E+00
CGA:   2    -0.669734811283E+03   -0.46002E+00   -0.46000E+00  8424   0.779E+00-0.623E-03
CGA:   3    -0.669867845182E+03   -0.13303E+00   -0.13313E+00  8424   0.153E+00 0.555E-03
CGA:   4    -0.669892901830E+03   -0.25057E-01   -0.25092E-01  8424   0.385E-01 0.178E-03
CGA:   5    -0.669899592564E+03   -0.66907E-02   -0.67044E-02  8424   0.815E-02 0.808E-04
CGA:   6    -0.669901240033E+03   -0.16475E-02   -0.16580E-02  8424   0.188E-02 0.875E-04
CGA:   7    -0.669901637911E+03   -0.39788E-03   -0.40761E-03  8424   0.543E-03 0.961E-04
CGA:   8    -0.669901748379E+03   -0.11047E-03   -0.12173E-03  8424   0.167E-03 0.115E-03
CGA:   9    -0.669901773024E+03   -0.24645E-04   -0.36251E-04  8424   0.727E-04 0.915E-04
CGA:  10    -0.669901775439E+03   -0.24148E-05   -0.10379E-04  8424   0.421E-04 0.508E-04
  10 F= -.66990178E+03 E0= -.66990178E+03  d E =-.521568E-02  mag=     2.0000
       N       E                     dE             d eps       ncg     rms          ort
SDA:   1    -0.664223922187E+03    0.56779E+01    0.00000E+00  8424   0.136E+02 0.000E+00
CGA:   2    -0.668372937189E+03   -0.41490E+01   -0.41493E+01  8424   0.710E+01-0.105E-01
CGA:   3    -0.669579272611E+03   -0.12063E+01   -0.12073E+01  8424   0.140E+01 0.427E-02
CGA:   4    -0.669807477153E+03   -0.22820E+00   -0.22825E+00  8424   0.347E+00 0.247E-03
CGA:   5    -0.669867888865E+03   -0.60412E-01   -0.60403E-01  8424   0.753E-01-0.144E-03
CGA:   6    -0.669883148473E+03   -0.15260E-01   -0.15283E-01  8424   0.173E-01 0.361E-03
CGA:   7    -0.669887102714E+03   -0.39542E-02   -0.39478E-02  8424   0.545E-02-0.175E-03
CGA:   8    -0.669888433478E+03   -0.13308E-02   -0.13332E-02  8424   0.176E-02 0.162E-03
CGA:   9    -0.669888956781E+03   -0.52330E-03   -0.52159E-03  8424   0.680E-03 0.663E-04
CGA:  10    -0.669889171608E+03   -0.21483E-03   -0.21212E-03  8424   0.248E-03 0.710E-04
CGA:  11    -0.669889224489E+03   -0.52881E-04   -0.57915E-04  8424   0.758E-04 0.943E-04
CGA:  12    -0.669889232943E+03   -0.84534E-05   -0.15473E-04  8424   0.402E-04 0.615E-04
  11 F= -.66988923E+03 E0= -.66988923E+03  d E =0.125425E-01  mag=     2.0000
       N       E                     dE             d eps       ncg     rms          ort
SDA:   1    -0.639568953226E+03    0.30320E+02    0.00000E+00  8424   0.747E+02 0.000E+00
CGA:   2    -0.660841755702E+03   -0.21273E+02   -0.21276E+02  8424   0.405E+02-0.595E-01
CGA:   3    -0.668017394238E+03   -0.71756E+01   -0.71832E+01  8424   0.843E+01 0.319E-01
CGA:   4    -0.669375524308E+03   -0.13581E+01   -0.13583E+01  8424   0.200E+01 0.919E-03
CGA:   5    -0.669724935944E+03   -0.34941E+00   -0.34941E+00  8424   0.447E+00-0.414E-03
CGA:   6    -0.669816565040E+03   -0.91629E-01   -0.91661E-01  8424   0.107E+00 0.817E-03
CGA:   7    -0.669840965611E+03   -0.24401E-01   -0.24386E-01  8424   0.346E-01-0.139E-02
CGA:   8    -0.669849745350E+03   -0.87797E-02   -0.87816E-02  8424   0.120E-01-0.963E-04
CGA:   9    -0.669853427218E+03   -0.36819E-02   -0.37592E-02  8424   0.527E-02-0.104E-02
CGA:  10    -0.669855037552E+03   -0.16103E-02   -0.17266E-02  8424   0.253E-02-0.100E-02
CGA:  11    -0.669855659543E+03   -0.62199E-03   -0.72208E-03  8424   0.138E-02-0.961E-03
CGA:  12    -0.669855869818E+03   -0.21028E-03   -0.36666E-03  8424   0.185E-02-0.892E-03
CGA:  13    -0.669856249072E+03   -0.37925E-03   -0.35071E-03  8424   0.800E-03-0.395E-03
CGA:  14    -0.669856459746E+03   -0.21067E-03   -0.26332E-03  8424   0.637E-03-0.330E-03
CGA:  15    -0.669856759372E+03   -0.29963E-03    0.99499E-04  8424   0.244E-03 0.368E-04
CGA:  16    -0.669856943624E+03   -0.18425E-03    0.10072E-03  8424   0.865E-04 0.799E-04
CGA:  17    -0.669857096183E+03   -0.15256E-03    0.10239E-04  8424   0.600E-04 0.424E-04
CGA:  18    -0.669857284163E+03   -0.18798E-03    0.40444E-05  8424   0.550E-04 0.483E-04
CGA:  19    -0.669857353885E+03   -0.69722E-04    0.53171E-05  8424   0.381E-04 0.332E-04
CGA:  20    -0.669857453537E+03   -0.99652E-04    0.12986E-05  8424   0.398E-04 0.257E-04
CGA:  21    -0.669857501900E+03   -0.48363E-04    0.41440E-05  8424   0.483E-04 0.180E-04
CGA:  22    -0.669857678424E+03   -0.17652E-03    0.25063E-05  8424   0.351E-04 0.664E-04
CGA:  23    -0.669857780100E+03   -0.10168E-03    0.10570E-05  8424   0.415E-04 0.189E-04
CGA:  24    -0.669857814870E+03   -0.34770E-04    0.96646E-05  8424   0.565E-04 0.786E-05
CGA:  25    -0.669857991598E+03   -0.17673E-03    0.22756E-05  8424   0.458E-04 0.650E-04
CGA:  26    -0.669858109754E+03   -0.11816E-03    0.15915E-05  8424   0.666E-04-0.234E-05
CGA:  27    -0.669858288075E+03   -0.17832E-03    0.19616E-05  8424   0.665E-04 0.612E-04
CGA:  28    -0.669858290515E+03   -0.24394E-05   -0.68678E-05  8424   0.246E-04 0.271E-04
  12 F= -.66985829E+03 E0= -.66985829E+03  d E =0.309424E-01  mag=     2.0000
       N       E                     dE             d eps       ncg     rms          ort
SDA:   1    -0.647927314523E+03    0.21931E+02    0.00000E+00  8424   0.708E+02 0.000E+00
CGA:   2    -0.661332740399E+03   -0.13405E+02   -0.13456E+02  8424   0.280E+02 0.171E+00
CGA:   3    -0.667567684974E+03   -0.62349E+01   -0.62315E+01  8424   0.968E+01-0.481E-01
CGA:   4    -0.669155938535E+03   -0.15883E+01   -0.15891E+01  8424   0.227E+01 0.157E-02
CGA:   5    -0.669534119751E+03   -0.37818E+00   -0.37874E+00  8424   0.469E+00 0.429E-02
CGA:   6    -0.669628701530E+03   -0.94582E-01   -0.94518E-01  8424   0.108E+00-0.146E-02
CGA:   7    -0.669652029440E+03   -0.23328E-01   -0.23358E-01  8424   0.309E-01 0.111E-02
CGA:   8    -0.669659616680E+03   -0.75872E-02   -0.75871E-02  8424   0.894E-02 0.564E-04
CGA:   9    -0.669662140809E+03   -0.25241E-02   -0.25638E-02  8424   0.341E-02-0.885E-03
CGA:  10    -0.669663076539E+03   -0.93573E-03   -0.95305E-03  8424   0.154E-02-0.260E-03
CGA:  11    -0.669663270373E+03   -0.19383E-03   -0.96576E-03  8424   0.411E-02-0.180E-02
CGA:  12    -0.669663954634E+03   -0.68426E-03   -0.71007E-03  8424   0.624E-03 0.268E-03
CGA:  13    -0.669660472813E+03    0.34818E-02   -0.18753E-02  8424   0.231E-01-0.329E-02
CGA:  14    -0.669663993055E+03   -0.35202E-02   -0.37970E-02  8424   0.378E-02 0.888E-03
CGA:  15    -0.669665131143E+03   -0.11381E-02   -0.10529E-02  8424   0.476E-03-0.435E-03
CGA:  16    -0.669665331625E+03   -0.20048E-03   -0.21458E-03  8424   0.643E-03-0.260E-03
CGA:  17    -0.669665487262E+03   -0.15564E-03   -0.11810E-03  8424   0.211E-03-0.137E-03
CGA:  18    -0.669665695365E+03   -0.20810E-03    0.89020E-04  8424   0.226E-03-0.595E-04
CGA:  19    -0.669666014615E+03   -0.31925E-03    0.29682E-04  8424   0.201E-03 0.262E-04
CGA:  20    -0.669666560375E+03   -0.54576E-03    0.28611E-04  8424   0.268E-03 0.234E-04
CGA:  21    -0.669667216081E+03   -0.65571E-03    0.45373E-04  8424   0.265E-03 0.414E-04
CGA:  22    -0.669668150124E+03   -0.93404E-03    0.27933E-04  8424   0.199E-03 0.885E-04
CGA:  23    -0.669668881489E+03   -0.73136E-03    0.28029E-04  8424   0.195E-03 0.640E-04
CGA:  24    -0.669669739954E+03   -0.85846E-03    0.20744E-04  8424   0.232E-03 0.287E-04
CGA:  25    -0.669670762621E+03   -0.10227E-02    0.17864E-04  8424   0.219E-03 0.310E-04
CGA:  26    -0.669671850104E+03   -0.10875E-02    0.14057E-04  8424   0.192E-03 0.447E-04
CGA:  27    -0.669672764622E+03   -0.91452E-03    0.14780E-04  8424   0.325E-03-0.601E-04
CGA:  28    -0.669674379807E+03   -0.16152E-02    0.69245E-05  8424   0.290E-03-0.157E-03
CGA:  29    -0.669675815908E+03   -0.14361E-02    0.34270E-05  8424   0.195E-03-0.534E-04
CGA:  30    -0.669676757746E+03   -0.94184E-03    0.62360E-05  8424   0.301E-03-0.172E-03
CGA:  31    -0.669676773593E+03   -0.15847E-04   -0.33101E-04  8424   0.323E-04 0.516E-04
CGA:  32    -0.669676764158E+03    0.94357E-05   -0.20179E-05  8424   0.242E-04 0.306E-04
  13 F= -.66967676E+03 E0= -.66967676E+03  d E =0.181526E+00  mag=     2.0000
       N       E                     dE             d eps       ncg     rms          ort
SDA:   1    -0.667127020629E+03    0.25498E+01    0.00000E+00  8424   0.834E+01 0.000E+00
CGA:   2    -0.668876749877E+03   -0.17497E+01   -0.17522E+01  8424   0.363E+01 0.617E-03
CGA:   3    -0.669635033514E+03   -0.75828E+00   -0.75775E+00  8424   0.109E+01 0.842E-04
CGA:   4    -0.669812060457E+03   -0.17703E+00   -0.17714E+00  8424   0.257E+00 0.231E-03
CGA:   5    -0.669856570362E+03   -0.44510E-01   -0.44594E-01  8424   0.550E-01 0.323E-03
CGA:   6    -0.669867676394E+03   -0.11106E-01   -0.11077E-01  8424   0.125E-01-0.199E-03
CGA:   7    -0.669870303792E+03   -0.26274E-02   -0.26667E-02  8424   0.356E-02 0.301E-03
CGA:   8    -0.669871097851E+03   -0.79406E-03   -0.82857E-03  8424   0.950E-03 0.309E-03
CGA:   9    -0.669871326132E+03   -0.22828E-03   -0.24455E-03  8424   0.301E-03 0.169E-03
CGA:  10    -0.669871360100E+03   -0.33968E-04   -0.61361E-04  8424   0.135E-03 0.176E-03
CGA:  11    -0.669871361875E+03   -0.17747E-05   -0.19000E-04  8424   0.780E-04 0.958E-04
  14 F= -.66987136E+03 E0= -.66987136E+03  d E =-.194598E+00  mag=     2.0000
       N       E                     dE             d eps       ncg     rms          ort
SDA:   1    -0.668891909174E+03    0.97945E+00    0.00000E+00  8424   0.292E+01 0.000E+00
CGA:   2    -0.669546773717E+03   -0.65486E+00   -0.65509E+00  8424   0.136E+01 0.143E-02
CGA:   3    -0.669821054518E+03   -0.27428E+00   -0.27423E+00  8424   0.373E+00-0.314E-03
CGA:   4    -0.669880988888E+03   -0.59934E-01   -0.59983E-01  8424   0.875E-01 0.298E-03
CGA:   5    -0.669896116689E+03   -0.15128E-01   -0.15169E-01  8424   0.186E-01 0.339E-03
CGA:   6    -0.669899871225E+03   -0.37545E-02   -0.37636E-02  8424   0.424E-02 0.111E-03
CGA:   7    -0.669900734012E+03   -0.86279E-03   -0.88473E-03  8424   0.118E-02 0.318E-03
CGA:   8    -0.669900960005E+03   -0.22599E-03   -0.24941E-03  8424   0.333E-03 0.309E-03
CGA:   9    -0.669901001965E+03   -0.41961E-04   -0.65347E-04  8424   0.148E-03 0.205E-03
CGA:  10    -0.669901002065E+03   -0.99069E-07   -0.16886E-04  8424   0.955E-04 0.112E-03
  15 F= -.66990100E+03 E0= -.66990100E+03  d E =-.296402E-01  mag=     2.0000
       N       E                     dE             d eps       ncg     rms          ort
SDA:   1    -0.669773014682E+03    0.12799E+00    0.00000E+00  8424   0.328E+00 0.000E+00
CGA:   2    -0.669863464038E+03   -0.90449E-01   -0.90446E-01  8424   0.171E+00 0.849E-04
CGA:   3    -0.669894108904E+03   -0.30645E-01   -0.30680E-01  8424   0.366E-01 0.493E-03
CGA:   4    -0.669900000281E+03   -0.58914E-02   -0.59154E-02  8424   0.882E-02 0.280E-03
CGA:   5    -0.669901501482E+03   -0.15012E-02   -0.15186E-02  8424   0.183E-02 0.245E-03
CGA:   6    -0.669901831307E+03   -0.32982E-03   -0.34383E-03  8424   0.399E-03 0.252E-03
CGA:   7    -0.669901877948E+03   -0.46641E-04   -0.64659E-04  8424   0.142E-03 0.195E-03
CGA:   8    -0.669901876844E+03    0.11037E-05   -0.18761E-04  8424   0.843E-04 0.140E-03
  16 F= -.66990188E+03 E0= -.66990188E+03  d E =-.874779E-03  mag=     2.0000
       N       E                     dE             d eps       ncg     rms          ort
SDA:   1    -0.668148933703E+03    0.17529E+01    0.00000E+00  8424   0.420E+01 0.000E+00
CGA:   2    -0.669435787723E+03   -0.12869E+01   -0.12872E+01  8424   0.217E+01-0.407E-02
CGA:   3    -0.669803966169E+03   -0.36818E+00   -0.36834E+00  8424   0.427E+00 0.259E-02
CGA:   4    -0.669874325929E+03   -0.70360E-01   -0.70376E-01  8424   0.107E+00 0.252E-03
CGA:   5    -0.669892954106E+03   -0.18628E-01   -0.18635E-01  8424   0.230E-01 0.144E-03
CGA:   6    -0.669897526586E+03   -0.45725E-02   -0.45796E-02  8424   0.516E-02 0.504E-03
CGA:   7    -0.669898694724E+03   -0.11681E-02   -0.11665E-02  8424   0.158E-02 0.176E-03
CGA:   8    -0.669899049237E+03   -0.35451E-03   -0.35341E-03  8424   0.479E-03 0.304E-03
CGA:   9    -0.669899137246E+03   -0.88009E-04   -0.98636E-04  8424   0.202E-03 0.265E-03
CGA:  10    -0.669899157909E+03   -0.20662E-04   -0.29648E-04  8424   0.115E-03 0.140E-03
CGA:  11    -0.669899157993E+03   -0.84638E-07   -0.11355E-04  8424   0.941E-04 0.104E-03
  17 F= -.66989916E+03 E0= -.66989916E+03  d E =0.271885E-02  mag=     2.0000
       N       E                     dE             d eps       ncg     rms          ort
SDA:   1    -0.661815509616E+03    0.80836E+01    0.00000E+00  8424   0.210E+02 0.000E+00
CGA:   2    -0.667167395571E+03   -0.53519E+01   -0.53496E+01  8424   0.112E+02 0.270E-01
CGA:   3    -0.669322605554E+03   -0.21552E+01   -0.21552E+01  8424   0.265E+01-0.292E-02
CGA:   4    -0.669738843481E+03   -0.41624E+00   -0.41629E+00  8424   0.595E+00 0.453E-03
CGA:   5    -0.669841302856E+03   -0.10246E+00   -0.10248E+00  8424   0.127E+00 0.647E-03
CGA:   6    -0.669867477445E+03   -0.26175E-01   -0.26170E-01  8424   0.298E-01 0.379E-03
CGA:   7    -0.669874053449E+03   -0.65760E-02   -0.65725E-02  8424   0.861E-02 0.145E-03
CGA:   8    -0.669876150539E+03   -0.20971E-02   -0.20816E-02  8424   0.263E-02 0.357E-03
CGA:   9    -0.669876902909E+03   -0.75237E-03   -0.73743E-03  8424   0.918E-03 0.213E-03
CGA:  10    -0.669877158757E+03   -0.25585E-03   -0.24392E-03  8424   0.335E-03 0.277E-03
CGA:  11    -0.669877232722E+03   -0.73965E-04   -0.79116E-04  8424   0.140E-03 0.216E-03
CGA:  12    -0.669877243967E+03   -0.11245E-04   -0.18643E-04  8424   0.867E-04 0.105E-03
CGA:  13    -0.669877244246E+03   -0.27887E-06   -0.84274E-05  8424   0.723E-04 0.789E-04
  18 F= -.66987724E+03 E0= -.66987724E+03  d E =0.219137E-01  mag=     2.0000
       N       E                     dE             d eps       ncg     rms          ort
SDA:   1    -0.645277675748E+03    0.24600E+02    0.00000E+00  8424   0.854E+02 0.000E+00
CGA:   2    -0.660446142833E+03   -0.15168E+02   -0.15193E+02  8424   0.296E+02 0.994E+00
CGA:   3    -0.667133254384E+03   -0.66871E+01   -0.66934E+01  8424   0.101E+02-0.140E+00
CGA:   4    -0.668845005304E+03   -0.17118E+01   -0.17122E+01  8424   0.264E+01 0.614E-02
CGA:   5    -0.669284717148E+03   -0.43971E+00   -0.43999E+00  8424   0.545E+00 0.739E-02
CGA:   6    -0.669396021539E+03   -0.11130E+00   -0.11132E+00  8424   0.125E+00-0.840E-03
CGA:   7    -0.669424137841E+03   -0.28116E-01   -0.28063E-01  8424   0.383E-01 0.147E-02
CGA:   8    -0.669433483102E+03   -0.93453E-02   -0.92992E-02  8424   0.112E-01 0.941E-03
CGA:   9    -0.669436706281E+03   -0.32232E-02   -0.32637E-02  8424   0.433E-02-0.452E-03
CGA:  10    -0.669437848669E+03   -0.11424E-02   -0.11111E-02  8424   0.163E-02 0.447E-03
CGA:  11    -0.669438451459E+03   -0.60279E-03   -0.61131E-03  8424   0.741E-03-0.643E-04
CGA:  12    -0.669438648058E+03   -0.19660E-03   -0.18921E-03  8424   0.298E-03 0.126E-03
CGA:  13    -0.669438795622E+03   -0.14756E-03   -0.15335E-03  8424   0.272E-03-0.280E-04
CGA:  14    -0.669438595077E+03    0.20054E-03   -0.13948E-03  8424   0.236E-02-0.496E-03
CGA:  15    -0.669439131292E+03   -0.53621E-03   -0.56820E-03  8424   0.459E-03 0.193E-03
CGA:  16    -0.669439353070E+03   -0.22178E-03   -0.33131E-03  8424   0.108E-02-0.407E-03
CGA:  17    -0.669439426632E+03   -0.73562E-04   -0.14321E-03  8424   0.183E-03 0.250E-03
CGA:  18    -0.669439482232E+03   -0.55600E-04   -0.59598E-04  8424   0.114E-03 0.296E-04
CGA:  19    -0.669439617722E+03   -0.13549E-03    0.84124E-04  8424   0.210E-03-0.740E-04
CGA:  20    -0.669439616369E+03    0.13525E-05   -0.24666E-04  8424   0.701E-04 0.952E-04
CGA:  21    -0.669439622358E+03   -0.59885E-05   -0.16076E-04  8424   0.548E-04 0.457E-04
  19 F= -.66943962E+03 E0= -.66943962E+03  d E =0.437622E+00  mag=     2.0000
       N       E                     dE             d eps       ncg     rms          ort
SDA:   1    -0.663970433289E+03    0.54692E+01    0.00000E+00  8424   0.194E+02 0.000E+00
CGA:   2    -0.667688959095E+03   -0.37185E+01   -0.37461E+01  8424   0.750E+01-0.319E-01
CGA:   3    -0.669285695762E+03   -0.15967E+01   -0.15930E+01  8424   0.241E+01 0.643E-02
CGA:   4    -0.669695365854E+03   -0.40967E+00   -0.41005E+00  8424   0.631E+00 0.119E-03
CGA:   5    -0.669802543413E+03   -0.10718E+00   -0.10737E+00  8424   0.130E+00 0.257E-03
CGA:   6    -0.669828579325E+03   -0.26036E-01   -0.25942E-01  8424   0.285E-01-0.668E-03
CGA:   7    -0.669834900797E+03   -0.63215E-02   -0.63419E-02  8424   0.857E-02 0.193E-03
CGA:   8    -0.669836928579E+03   -0.20278E-02   -0.20462E-02  8424   0.238E-02 0.219E-03
CGA:   9    -0.669837616421E+03   -0.68784E-03   -0.68466E-03  8424   0.874E-03-0.896E-04
CGA:  10    -0.669837839543E+03   -0.22312E-03   -0.22710E-03  8424   0.337E-03 0.880E-04
CGA:  11    -0.669837981343E+03   -0.14180E-03   -0.14794E-03  8424   0.229E-03-0.727E-04
CGA:  12    -0.669838025755E+03   -0.44412E-04   -0.46115E-04  8424   0.114E-03 0.274E-04
CGA:  13    -0.669838066958E+03   -0.41203E-04   -0.41059E-04  8424   0.807E-04 0.158E-04
CGA:  14    -0.669838116631E+03   -0.49672E-04   -0.66203E-04  8424   0.248E-03-0.447E-04
CGA:  15    -0.669838153176E+03   -0.36545E-04   -0.45477E-04  8424   0.627E-04 0.590E-04
CGA:  16    -0.669838184391E+03   -0.31215E-04   -0.46242E-04  8424   0.142E-03-0.567E-04
CGA:  17    -0.669838202183E+03   -0.17792E-04   -0.24714E-04  8424   0.371E-04 0.416E-04
CGA:  18    -0.669838221943E+03   -0.19761E-04   -0.21044E-04  8424   0.479E-04-0.126E-04
CGA:  19    -0.669838129030E+03    0.92913E-04   -0.52188E-04  8424   0.807E-03-0.971E-04
CGA:  20    -0.669838406009E+03   -0.27698E-03   -0.28140E-03  8424   0.118E-03 0.162E-04
CGA:  21    -0.669838479259E+03   -0.73250E-04   -0.70345E-04  8424   0.479E-03-0.181E-03
CGA:  22    -0.669838489962E+03   -0.10703E-04   -0.58231E-04  8424   0.415E-04 0.991E-04
CGA:  23    -0.669838492274E+03   -0.23119E-05   -0.81752E-05  8424   0.198E-04 0.141E-04
CGA:  24    -0.669838536469E+03   -0.44195E-04    0.14879E-04  8424   0.534E-04-0.120E-04
CGA:  25    -0.669838548563E+03   -0.12094E-04   -0.12777E-04  8424   0.152E-04 0.206E-05
CGA:  26    -0.669838589921E+03   -0.41358E-04    0.30163E-05  8424   0.173E-04 0.505E-05
CGA:  27    -0.669838639152E+03   -0.49232E-04    0.63952E-05  8424   0.258E-04 0.942E-05
CGA:  28    -0.669838673909E+03   -0.34757E-04    0.28382E-04  8424   0.607E-04-0.170E-04
CGA:  29    -0.669838677762E+03   -0.38529E-05   -0.87778E-05  8424   0.859E-05 0.124E-04
  20 F= -.66983868E+03 E0= -.66983868E+03  d E =-.399055E+00  mag=     2.0000
       N       E                     dE             d eps       ncg     rms          ort
SDA:   1    -0.667767586765E+03    0.20711E+01    0.00000E+00  8424   0.691E+01 0.000E+00
CGA:   2    -0.669128293797E+03   -0.13607E+01   -0.13682E+01  8424   0.272E+01-0.132E-01
CGA:   3    -0.669703931905E+03   -0.57564E+00   -0.57434E+00  8424   0.884E+00 0.449E-02
CGA:   4    -0.669852958788E+03   -0.14903E+00   -0.14909E+00  8424   0.228E+00 0.244E-03
CGA:   5    -0.669891846234E+03   -0.38887E-01   -0.38987E-01  8424   0.459E-01 0.159E-03
CGA:   6    -0.669901070228E+03   -0.92240E-02   -0.91819E-02  8424   0.102E-01-0.160E-03
CGA:   7    -0.669903315700E+03   -0.22455E-02   -0.22567E-02  8424   0.304E-02 0.482E-04
CGA:   8    -0.669904047421E+03   -0.73172E-03   -0.73705E-03  8424   0.843E-03 0.271E-04
CGA:   9    -0.669904306373E+03   -0.25895E-03   -0.24964E-03  8424   0.331E-03-0.710E-04
CGA:  10    -0.669904396195E+03   -0.89822E-04   -0.90280E-04  8424   0.137E-03 0.348E-05
CGA:  11    -0.669904455638E+03   -0.59443E-04   -0.87118E-04  8424   0.296E-03-0.129E-03
CGA:  12    -0.669904494861E+03   -0.39223E-04   -0.50445E-04  8424   0.502E-04 0.442E-04
CGA:  13    -0.669904271456E+03    0.22341E-03   -0.97209E-04  8424   0.169E-02-0.253E-03
CGA:  14    -0.669904519581E+03   -0.24812E-03   -0.29267E-03  8424   0.302E-03 0.147E-03
CGA:  15    -0.669904623184E+03   -0.10360E-03   -0.88867E-04  8424   0.703E-04-0.784E-04
CGA:  16    -0.669904636572E+03   -0.13387E-04   -0.14253E-04  8424   0.291E-04 0.478E-05
CGA:  17    -0.669904663976E+03   -0.27404E-04    0.71199E-02  8424   0.305E-04-0.337E-05
CGA:  18    -0.669904708656E+03   -0.44681E-04    0.67783E-05  8424   0.336E-04 0.127E-04
CGA:  19    -0.669904771861E+03   -0.63204E-04    0.20787E-04  8424   0.196E-04 0.216E-04
CGA:  20    -0.669904807629E+03   -0.35768E-04    0.40333E-05  8424   0.166E-04 0.866E-06
CGA:  21    -0.669904811434E+03   -0.38051E-05   -0.49378E-05  8424   0.147E-04 0.699E-05
  21 F= -.66990481E+03 E0= -.66990481E+03  d E =-.661337E-01  mag=     2.0000
       N       E                     dE             d eps       ncg     rms          ort
SDA:   1    -0.669822667806E+03    0.82140E-01    0.00000E+00  8424   0.261E+00 0.000E+00
CGA:   2    -0.669877791566E+03   -0.55124E-01   -0.55184E-01  8424   0.114E+00 0.200E-03
CGA:   3    -0.669901311035E+03   -0.23519E-01   -0.23477E-01  8424   0.348E-01-0.205E-03
CGA:   4    -0.669906987271E+03   -0.56762E-02   -0.56856E-02  8424   0.846E-02 0.335E-04
CGA:   5    -0.669908417293E+03   -0.14300E-02   -0.14469E-02  8424   0.173E-02 0.726E-04
CGA:   6    -0.669908765417E+03   -0.34812E-03   -0.34838E-03  8424   0.408E-03 0.100E-05
CGA:   7    -0.669908855069E+03   -0.89652E-04   -0.90226E-04  8424   0.126E-03 0.355E-05
CGA:   8    -0.669908894019E+03   -0.38949E-04   -0.37558E-04  8424   0.583E-04-0.187E-04
CGA:   9    -0.669908911785E+03   -0.17767E-04   -0.17590E-04  8424   0.403E-04-0.147E-04
CGA:  10    -0.669908925125E+03   -0.13340E-04   -0.16090E-04  8424   0.518E-04-0.168E-04
CGA:  11    -0.669908864642E+03    0.60483E-04   -0.42318E-04  8424   0.525E-03-0.104E-03
CGA:  12    -0.669908978292E+03   -0.11365E-03   -0.11139E-03  8424   0.107E-03-0.107E-04
CGA:  13    -0.669909013714E+03   -0.35422E-04   -0.35190E-04  8424   0.494E-04-0.294E-05
CGA:  14    -0.669909033213E+03   -0.19499E-04   -0.26843E-04  8424   0.178E-03-0.500E-04
CGA:  15    -0.669909043256E+03   -0.10043E-04   -0.18821E-04  8424   0.155E-04 0.282E-04
CGA:  16    -0.669909048836E+03   -0.55804E-05   -0.52678E-05  8424   0.173E-04-0.292E-05
CGA:  17    -0.669909062151E+03   -0.13315E-04    0.14093E-04  8424   0.360E-04-0.180E-04
CGA:  18    -0.669909064026E+03   -0.18750E-05   -0.49314E-05  8424   0.965E-05 0.117E-04
CGA:  19    -0.669909074432E+03   -0.10406E-04    0.41957E-04  8424   0.937E-05-0.446E-05
CGA:  20    -0.669909090072E+03   -0.15641E-04    0.31917E-06  8424   0.190E-04-0.316E-05
CGA:  21    -0.669909116438E+03   -0.26366E-04    0.14025E-05  8424   0.253E-04-0.226E-05
CGA:  22    -0.669909161658E+03   -0.45220E-04    0.26159E-05  8424   0.418E-04 0.230E-05
CGA:  23    -0.669909268883E+03   -0.10723E-03    0.42458E-05  8424   0.364E-04 0.202E-05
CGA:  24    -0.669909356090E+03   -0.87206E-04    0.37262E-05  8424   0.224E-04 0.434E-06
CGA:  25    -0.669909430405E+03   -0.74315E-04    0.13401E-05  8424   0.169E-04 0.306E-06
CGA:  26    -0.669909491017E+03   -0.60612E-04    0.90955E-06  8424   0.180E-04-0.635E-05
CGA:  27    -0.669909552807E+03   -0.61790E-04    0.34994E-06  8424   0.189E-04-0.863E-05
CGA:  28    -0.669909646944E+03   -0.94137E-04    0.16504E-06  8424   0.182E-04-0.395E-05
CGA:  29    -0.669909730271E+03   -0.83328E-04    0.42179E-06  8424   0.154E-04-0.757E-05
CGA:  30    -0.669909799902E+03   -0.69630E-04    0.18907E-06  8424   0.190E-04-0.122E-04
CGA:  31    -0.669909826473E+03   -0.26571E-04    0.44569E-05  8424   0.559E-04-0.225E-04
CGA:  32    -0.669909822802E+03    0.36715E-05   -0.36924E-05  8424   0.988E-05 0.232E-04
  22 F= -.66990982E+03 E0= -.66990982E+03  d E =-.501137E-02  mag=     2.0000
       N       E                     dE             d eps       ncg     rms          ort
SDA:   1    -0.669715725634E+03    0.19410E+00    0.00000E+00  8424   0.565E+00 0.000E+00
CGA:   2    -0.669842061516E+03   -0.12634E+00   -0.12635E+00  8424   0.260E+00-0.148E-04
CGA:   3    -0.669894420083E+03   -0.52359E-01   -0.52330E-01  8424   0.750E-01-0.225E-03
CGA:   4    -0.669906578682E+03   -0.12159E-01   -0.12184E-01  8424   0.179E-01 0.136E-03
CGA:   5    -0.669909597512E+03   -0.30188E-02   -0.30540E-02  8424   0.366E-02 0.218E-03
CGA:   6    -0.669910308779E+03   -0.71127E-03   -0.72418E-03  8424   0.823E-03 0.102E-03
CGA:   7    -0.669910488400E+03   -0.17962E-03   -0.18339E-03  8424   0.243E-03 0.382E-04
CGA:   8    -0.669910543493E+03   -0.55093E-04   -0.57714E-04  8424   0.718E-04 0.313E-04
CGA:   9    -0.669910553397E+03   -0.99040E-05   -0.14225E-04  8424   0.252E-04 0.330E-04
  23 F= -.66991055E+03 E0= -.66991055E+03  d E =-.730596E-03  mag=     2.0000
       N       E                     dE             d eps       ncg     rms          ort
SDA:   1    -0.669741234841E+03    0.16931E+00    0.00000E+00  8424   0.432E+00 0.000E+00
CGA:   2    -0.669860883342E+03   -0.11965E+00   -0.11965E+00  8424   0.204E+00-0.306E-03
CGA:   3    -0.669898238309E+03   -0.37355E-01   -0.37315E-01  8424   0.501E-01-0.376E-03
CGA:   4    -0.669906487740E+03   -0.82494E-02   -0.82848E-02  8424   0.121E-01 0.295E-03
CGA:   5    -0.669908475109E+03   -0.19874E-02   -0.20248E-02  8424   0.241E-02 0.334E-03
CGA:   6    -0.669908955522E+03   -0.48041E-03   -0.48945E-03  8424   0.573E-03 0.121E-03
CGA:   7    -0.669909080428E+03   -0.12491E-03   -0.12825E-03  8424   0.177E-03 0.605E-04
CGA:   8    -0.669909113659E+03   -0.33232E-04   -0.37674E-04  8424   0.585E-04 0.604E-04
CGA:   9    -0.669909116784E+03   -0.31248E-05   -0.97140E-05  8424   0.310E-04 0.476E-04
  24 F= -.66990912E+03 E0= -.66990912E+03  d E =0.143661E-02  mag=     2.0000
       N       E                     dE             d eps       ncg     rms          ort
SDA:   1    -0.659109562449E+03    0.10800E+02    0.00000E+00  8424   0.334E+02 0.000E+00
CGA:   2    -0.665797655250E+03   -0.66881E+01   -0.67000E+01  8424   0.139E+02 0.927E-01
CGA:   3    -0.668720350042E+03   -0.29227E+01   -0.29211E+01  8424   0.436E+01-0.206E-01
CGA:   4    -0.669443708314E+03   -0.72336E+00   -0.72400E+00  8424   0.107E+01 0.240E-02
CGA:   5    -0.669624765853E+03   -0.18106E+00   -0.18127E+00  8424   0.229E+00 0.206E-02
CGA:   6    -0.669669897184E+03   -0.45131E-01   -0.45087E-01  8424   0.533E-01-0.114E-02
CGA:   7    -0.669681356477E+03   -0.11459E-01   -0.11478E-01  8424   0.154E-01 0.108E-02
CGA:   8    -0.669685151475E+03   -0.37950E-02   -0.37904E-02  8424   0.462E-02 0.557E-03
CGA:   9    -0.669686482102E+03   -0.13306E-02   -0.13309E-02  8424   0.171E-02-0.721E-05
CGA:  10    -0.669686978603E+03   -0.49650E-03   -0.48596E-03  8424   0.712E-03 0.210E-03
CGA:  11    -0.669687276822E+03   -0.29822E-03   -0.30816E-03  8424   0.442E-03-0.697E-04
CGA:  12    -0.669687368872E+03   -0.92050E-04   -0.93405E-04  8424   0.226E-03 0.122E-03
CGA:  13    -0.669687476639E+03   -0.10777E-03   -0.10354E-03  8424   0.215E-03 0.338E-04
CGA:  14    -0.669687207478E+03    0.26916E-03   -0.17308E-03  8424   0.313E-02-0.506E-03
CGA:  15    -0.669687836555E+03   -0.62908E-03   -0.67844E-03  8424   0.736E-03 0.206E-03
CGA:  16    -0.669688156698E+03   -0.32014E-03   -0.29483E-03  8424   0.693E-03-0.370E-03
CGA:  17    -0.669688197305E+03   -0.40607E-04   -0.83288E-04  8424   0.109E-03 0.134E-03
CGA:  18    -0.669688241739E+03   -0.44434E-04   -0.44676E-04  8424   0.135E-03 0.235E-05
CGA:  19    -0.669688394824E+03   -0.15309E-03    0.90697E-04  8424   0.334E-03-0.799E-04
CGA:  20    -0.669688431394E+03   -0.36569E-04   -0.54697E-04  8424   0.948E-04 0.705E-04
CGA:  21    -0.669688037298E+03    0.39410E-03   -0.19097E-03  8424   0.264E-02-0.469E-03
CGA:  22    -0.669688586462E+03   -0.54916E-03   -0.59097E-03  8424   0.633E-03 0.170E-03
CGA:  23    -0.669688750094E+03   -0.16363E-03   -0.13505E-03  8424   0.123E-03-0.111E-03
CGA:  24    -0.669688773083E+03   -0.22989E-04   -0.26267E-04  8424   0.480E-04 0.173E-04
CGA:  25    -0.669688831944E+03   -0.58862E-04    0.51383E-04  8424   0.465E-04 0.160E-04
CGA:  26    -0.669688913537E+03   -0.81593E-04    0.26719E-04  8424   0.490E-04 0.476E-04
CGA:  27    -0.669688934579E+03   -0.21042E-04   -0.42128E-04  8424   0.335E-03-0.505E-04
CGA:  28    -0.669688982293E+03   -0.47714E-04   -0.46233E-04  8424   0.535E-04-0.446E-05
CGA:  29    -0.669688382086E+03    0.60021E-03   -0.32345E-03  8424   0.398E-02-0.318E-03
CGA:  30    -0.669689043765E+03   -0.66168E-03   -0.72839E-03  8424   0.869E-03 0.114E-03
CGA:  31    -0.669689225830E+03   -0.18207E-03   -0.15944E-03  8424   0.431E-04-0.387E-04
CGA:  32    -0.669689243026E+03   -0.17196E-04   -0.17263E-04  8424   0.418E-04-0.424E-07
CGA:  33    -0.669689313340E+03   -0.70314E-04    0.96121E-04  8424   0.219E-03-0.217E-04
CGA:  34    -0.669689320724E+03   -0.73842E-05   -0.26127E-04  8424   0.355E-04 0.311E-04
CGA:  35    -0.669689333080E+03   -0.12356E-04   -0.13995E-04  8424   0.333E-04 0.440E-05
CGA:  36    -0.669689316178E+03    0.16902E-04   -0.45768E-04  8424   0.110E-02-0.118E-03
CGA:  37    -0.669689404267E+03   -0.88090E-04   -0.12846E-03  8424   0.103E-03 0.714E-04
CGA:  38    -0.669689445908E+03   -0.41641E-04   -0.39503E-04  8424   0.387E-04-0.694E-05
CGA:  39    -0.669689471427E+03   -0.25519E-04   -0.21490E-04  8424   0.308E-03-0.612E-04
CGA:  40    -0.669689480783E+03   -0.93559E-05   -0.31561E-04  8424   0.231E-04 0.404E-04
  25 F= -.66968948E+03 E0= -.66968948E+03  d E =0.219636E+00  mag=     2.0000
       N       E                     dE             d eps       ncg     rms          ort
SDA:   1    -0.664825739114E+03    0.48637E+01    0.00000E+00  8424   0.162E+02 0.000E+00
CGA:   2    -0.668044842140E+03   -0.32191E+01   -0.32534E+01  8424   0.665E+01-0.465E-01
CGA:   3    -0.669425789142E+03   -0.13809E+01   -0.13733E+01  8424   0.205E+01 0.405E-01
CGA:   4    -0.669774804692E+03   -0.34902E+00   -0.35012E+00  8424   0.522E+00 0.896E-03
CGA:   5    -0.669863516224E+03   -0.88712E-01   -0.89162E-01  8424   0.114E+00 0.435E-03
CGA:   6    -0.669885592264E+03   -0.22076E-01   -0.21967E-01  8424   0.257E-01-0.210E-03
CGA:   7    -0.669891156764E+03   -0.55645E-02   -0.56540E-02  8424   0.761E-02 0.301E-03
CGA:   8    -0.669892991479E+03   -0.18347E-02   -0.18579E-02  8424   0.228E-02 0.899E-04
CGA:   9    -0.669893616354E+03   -0.62488E-03   -0.62407E-03  8424   0.769E-03-0.387E-05
CGA:  10    -0.669893823792E+03   -0.20744E-03   -0.22051E-03  8424   0.301E-03 0.691E-04
CGA:  11    -0.669893932117E+03   -0.10832E-03   -0.10900E-03  8424   0.136E-03 0.451E-05
CGA:  12    -0.669893948554E+03   -0.16436E-04   -0.29381E-04  8424   0.590E-04 0.522E-04
CGA:  13    -0.669893957711E+03   -0.91578E-05   -0.17840E-04  8424   0.361E-04 0.376E-04
CGA:  14    -0.669893964753E+03   -0.70412E-05   -0.10107E-04  8424   0.246E-04 0.195E-04
  26 F= -.66989396E+03 E0= -.66989396E+03  d E =-.204484E+00  mag=     2.0000
       N       E                     dE             d eps       ncg     rms          ort
SDA:   1    -0.669374542572E+03    0.51942E+00    0.00000E+00  8424   0.164E+01 0.000E+00
CGA:   2    -0.669714243268E+03   -0.33970E+00   -0.34001E+00  8424   0.710E+00 0.543E-03
CGA:   3    -0.669862590906E+03   -0.14835E+00   -0.14822E+00  8424   0.219E+00-0.604E-03
CGA:   4    -0.669898315938E+03   -0.35725E-01   -0.35756E-01  8424   0.528E-01 0.109E-03
CGA:   5    -0.669907295486E+03   -0.89795E-02   -0.90411E-02  8424   0.109E-01 0.284E-03
CGA:   6    -0.669909471458E+03   -0.21760E-02   -0.21901E-02  8424   0.251E-02 0.807E-04
CGA:   7    -0.669909995833E+03   -0.52437E-03   -0.53850E-03  8424   0.727E-03 0.941E-04
CGA:   8    -0.669910168053E+03   -0.17222E-03   -0.17999E-03  8424   0.228E-03 0.666E-04
CGA:   9    -0.669910213105E+03   -0.45052E-04   -0.54343E-04  8424   0.852E-04 0.711E-04
CGA:  10    -0.669910218270E+03   -0.51647E-05   -0.17764E-04  8424   0.521E-04 0.684E-04
  27 F= -.66991022E+03 E0= -.66991022E+03  d E =-.162535E-01  mag=     2.0000
       N       E                     dE             d eps       ncg     rms          ort
SDA:   1    -0.669798042776E+03    0.11217E+00    0.00000E+00  8424   0.351E+00 0.000E+00
CGA:   2    -0.669870874877E+03   -0.72832E-01   -0.72847E-01  8424   0.148E+00 0.303E-04
CGA:   3    -0.669901938355E+03   -0.31063E-01   -0.31026E-01  8424   0.471E-01-0.367E-03
CGA:   4    -0.669909667031E+03   -0.77287E-02   -0.77302E-02  8424   0.114E-01 0.746E-05
CGA:   5    -0.669911575828E+03   -0.19088E-02   -0.19365E-02  8424   0.232E-02 0.202E-03
CGA:   6    -0.669912016263E+03   -0.44044E-03   -0.45484E-03  8424   0.518E-03 0.135E-03
CGA:   7    -0.669912126810E+03   -0.11055E-03   -0.11553E-03  8424   0.163E-03 0.602E-04
CGA:   8    -0.669912160092E+03   -0.33282E-04   -0.37656E-04  8424   0.618E-04 0.535E-04
CGA:   9    -0.669912164926E+03   -0.48342E-05   -0.11865E-04  8424   0.362E-04 0.499E-04
  28 F= -.66991216E+03 E0= -.66991216E+03  d E =-.194666E-02  mag=     2.0000
       N       E                     dE             d eps       ncg     rms          ort
SDA:   1    -0.669847183254E+03    0.64977E-01    0.00000E+00  8424   0.184E+00 0.000E+00
CGA:   2    -0.669891141323E+03   -0.43958E-01   -0.43954E-01  8424   0.804E-01-0.162E-03
[...]
CGA:   6    -0.669911966939E+03   -0.45381E-03   -0.46435E-03  8424   0.550E-03 0.394E-03
CGA:   7    -0.669912053990E+03   -0.87051E-04   -0.98082E-04  8424   0.183E-03 0.231E-03
CGA:   8    -0.669912067262E+03   -0.13271E-04   -0.27865E-04  8424   0.979E-04 0.158E-03
CGA:   9    -0.669912065421E+03    0.18406E-05   -0.77049E-05  8424   0.720E-04 0.822E-04
  33 F= -.66991207E+03 E0= -.66991207E+03  d E =-.580843E-02  mag=     2.0000
       N       E                     dE             d eps       ncg     rms          ort
SDA:   1    -0.669512463903E+03    0.39960E+00    0.00000E+00  8424   0.115E+01 0.000E+00
CGA:   2    -0.669782939463E+03   -0.27048E+00   -0.27036E+00  8424   0.513E+00 0.198E-02
CGA:   3    -0.669882970460E+03   -0.10003E+00   -0.10006E+00  8424   0.148E+00-0.289E-02
CGA:   4    -0.669907592511E+03   -0.24622E-01   -0.24630E-01  8424   0.372E-01 0.429E-03
CGA:   5    -0.669913640168E+03   -0.60477E-02   -0.60763E-02  8424   0.713E-02 0.131E-02
CGA:   6    -0.669914994910E+03   -0.13547E-02   -0.13549E-02  8424   0.159E-02 0.720E-03
CGA:   7    -0.669915299991E+03   -0.30508E-03   -0.30844E-03  8424   0.482E-03 0.467E-03
CGA:   8    -0.669915369675E+03   -0.69684E-04   -0.84973E-04  8424   0.216E-03 0.324E-03
CGA:   9    -0.669915376323E+03   -0.66478E-05   -0.20762E-04  8424   0.140E-03 0.166E-03
  34 F= -.66991538E+03 E0= -.66991538E+03  d E =-.331090E-02  mag=     2.0000
       N       E                     dE             d eps       ncg     rms          ort
SDA:   1    -0.669872444919E+03    0.42925E-01    0.00000E+00  8424   0.118E+00 0.000E+00
CGA:   2    -0.669901808866E+03   -0.29364E-01   -0.29299E-01  8424   0.562E-01 0.835E-03
CGA:   3    -0.669912589144E+03   -0.10780E-01   -0.10779E-01  8424   0.144E-01 0.861E-04
CGA:   4    -0.669914895885E+03   -0.23067E-02   -0.23136E-02  8424   0.336E-02 0.438E-03
CGA:   5    -0.669915401097E+03   -0.50521E-03   -0.51866E-03  8424   0.632E-03 0.538E-03
CGA:   6    -0.669915468008E+03   -0.66911E-04   -0.86326E-04  8424   0.218E-03 0.347E-03
CGA:   7    -0.669915469959E+03   -0.19515E-05   -0.17132E-04  8424   0.133E-03 0.165E-03
  35 F= -.66991547E+03 E0= -.66991547E+03  d E =-.936363E-04  mag=     2.0000
       N       E                     dE             d eps       ncg     rms          ort
SDA:   1    -0.669282765417E+03    0.63270E+00    0.00000E+00  8424   0.150E+01 0.000E+00
CGA:   2    -0.669762847418E+03   -0.48008E+00   -0.48012E+00  8424   0.687E+00-0.332E-03
CGA:   3    -0.669877528360E+03   -0.11468E+00   -0.11468E+00  8424   0.143E+00 0.371E-03
CGA:   4    -0.669901923099E+03   -0.24395E-01   -0.24394E-01  8424   0.369E-01 0.365E-03
CGA:   5    -0.669908212804E+03   -0.62897E-02   -0.62889E-02  8424   0.757E-02 0.620E-03
CGA:   6    -0.669909653188E+03   -0.14404E-02   -0.14290E-02  8424   0.162E-02 0.674E-03
CGA:   7    -0.669909972655E+03   -0.31947E-03   -0.31531E-03  8424   0.492E-03 0.489E-03
CGA:   8    -0.669910031423E+03   -0.58768E-04   -0.77025E-04  8424   0.238E-03 0.366E-03
CGA:   9    -0.669910034331E+03   -0.29074E-05   -0.19458E-04  8424   0.166E-03 0.193E-03
CGA:  10    -0.669910029687E+03    0.46439E-05   -0.10427E-04  8424   0.139E-03 0.150E-03
  36 F= -.66991003E+03 E0= -.66991003E+03  d E =0.544027E-02  mag=     2.0000
       N       E                     dE             d eps       ncg     rms          ort
SDA:   1    -0.669213923258E+03    0.69611E+00    0.00000E+00  8424   0.184E+01 0.000E+00
CGA:   2    -0.669668704920E+03   -0.45478E+00   -0.45460E+00  8424   0.948E+00 0.169E-02
CGA:   3    -0.669853166502E+03   -0.18446E+00   -0.18447E+00  8424   0.240E+00-0.430E-03
CGA:   4    -0.669891096399E+03   -0.37930E-01   -0.37930E-01  8424   0.544E-01 0.153E-03
CGA:   5    -0.669900407675E+03   -0.93113E-02   -0.93058E-02  8424   0.113E-01 0.469E-03
CGA:   6    -0.669902648636E+03   -0.22410E-02   -0.22209E-02  8424   0.254E-02 0.579E-03
CGA:   7    -0.669903137022E+03   -0.48839E-03   -0.47843E-03  8424   0.650E-03 0.570E-03
CGA:   8    -0.669903227952E+03   -0.90931E-04   -0.10406E-03  8424   0.267E-03 0.411E-03
CGA:   9    -0.669903238236E+03   -0.10283E-04   -0.24543E-04  8424   0.170E-03 0.206E-03
CGA:  10    -0.669903235791E+03    0.24443E-05   -0.11354E-04  8424   0.138E-03 0.152E-03
  37 F= -.66990324E+03 E0= -.66990324E+03  d E =0.679390E-02  mag=     2.0000
       N       E                     dE             d eps       ncg     rms          ort
SDA:   1    -0.656179802505E+03    0.13723E+02    0.00000E+00  8424   0.436E+02 0.000E+00
CGA:   2    -0.664694616928E+03   -0.85148E+01   -0.84879E+01  8424   0.169E+02 0.443E+00
CGA:   3    -0.668373634570E+03   -0.36790E+01   -0.36842E+01  8424   0.558E+01-0.742E-01
CGA:   4    -0.669308002083E+03   -0.93437E+00   -0.93424E+00  8424   0.142E+01 0.404E-02
CGA:   5    -0.669544984102E+03   -0.23698E+00   -0.23692E+00  8424   0.283E+00 0.353E-02
CGA:   6    -0.669602171748E+03   -0.57188E-01   -0.57269E-01  8424   0.666E-01-0.175E-02
CGA:   7    -0.669617038033E+03   -0.14866E-01   -0.14794E-01  8424   0.197E-01 0.109E-02
CGA:   8    -0.669621894348E+03   -0.48563E-02   -0.47910E-02  8424   0.566E-02 0.833E-03
CGA:   9    -0.669623573581E+03   -0.16792E-02   -0.17285E-02  8424   0.231E-02-0.386E-03
CGA:  10    -0.669624189627E+03   -0.61605E-03   -0.60136E-03  8424   0.900E-03 0.134E-03
CGA:  11    -0.669624487322E+03   -0.29769E-03   -0.48051E-03  8424   0.107E-02-0.559E-03
CGA:  12    -0.669624664078E+03   -0.17676E-03   -0.18133E-03  8424   0.185E-03 0.192E-03
CGA:  13    -0.669624300762E+03    0.36332E-03   -0.20412E-03  8424   0.278E-02-0.605E-03
CGA:  14    -0.669624814009E+03   -0.51325E-03   -0.54614E-03  8424   0.472E-03 0.215E-03
CGA:  15    -0.669624985265E+03   -0.17126E-03   -0.16833E-03  8424   0.358E-03-0.277E-03
CGA:  16    -0.669625009489E+03   -0.24224E-04   -0.44270E-04  8424   0.659E-04 0.920E-04
CGA:  17    -0.669625032826E+03   -0.23337E-04   -0.23760E-04  8424   0.731E-04 0.919E-05
CGA:  18    -0.669625108968E+03   -0.76142E-04    0.34972E-04  8424   0.118E-03 0.533E-05
CGA:  19    -0.669625256346E+03   -0.14738E-03    0.26831E-04  8424   0.217E-03 0.788E-04
CGA:  20    -0.669625281044E+03   -0.24698E-04   -0.34169E-04  8424   0.596E-04 0.553E-04
CGA:  21    -0.669625332779E+03   -0.51735E-04    0.14693E-03  8424   0.370E-04 0.130E-04
CGA:  22    -0.669625396883E+03   -0.64104E-04    0.58963E-05  8424   0.592E-04 0.187E-04
CGA:  23    -0.669625404212E+03   -0.73293E-05   -0.10671E-04  8424   0.305E-04 0.238E-04
CGA:  24    -0.669625443634E+03   -0.39421E-04    0.14123E-04  8424   0.300E-04 0.246E-04
CGA:  25    -0.669625486944E+03   -0.43310E-04    0.35981E-05  8424   0.339E-04 0.126E-04
CGA:  26    -0.669625540193E+03   -0.53249E-04    0.98073E-05  8424   0.252E-04 0.393E-04
CGA:  27    -0.669625560875E+03   -0.20682E-04    0.12527E-04  8424   0.210E-04 0.180E-04
CGA:  28    -0.669625596125E+03   -0.35250E-04    0.19549E-05  8424   0.233E-04 0.163E-04
CGA:  29    -0.669625610268E+03   -0.14143E-04   -0.14171E-04  8424   0.988E-04-0.534E-06
CGA:  30    -0.669625753008E+03   -0.14274E-03    0.12575E-04  8424   0.943E-04 0.906E-04
CGA:  31    -0.669625821979E+03   -0.68971E-04    0.13258E-03  8424   0.282E-03-0.128E-03
CGA:  32    -0.669625826563E+03   -0.45841E-05   -0.24237E-04  8424   0.321E-04 0.813E-04
  38 F= -.66962583E+03 E0= -.66962583E+03  d E =0.277409E+00  mag=     2.0000
       N       E                     dE             d eps       ncg     rms          ort
SDA:   1    -0.665893822702E+03    0.37320E+01    0.00000E+00  8424   0.131E+02 0.000E+00
CGA:   2    -0.668416220018E+03   -0.25224E+01   -0.25294E+01  8424   0.499E+01 0.738E-02
CGA:   3    -0.669487877573E+03   -0.10717E+01   -0.10708E+01  8424   0.170E+01-0.349E-02
CGA:   4    -0.669771494429E+03   -0.28362E+00   -0.28377E+00  8424   0.437E+00-0.549E-04
CGA:   5    -0.669845872181E+03   -0.74378E-01   -0.74489E-01  8424   0.875E-01 0.639E-03
CGA:   6    -0.669863317307E+03   -0.17445E-01   -0.17402E-01  8424   0.198E-01-0.519E-03
CGA:   7    -0.669867684125E+03   -0.43668E-02   -0.43710E-02  8424   0.591E-02 0.730E-04
CGA:   8    -0.669869158866E+03   -0.14747E-02   -0.14719E-02  8424   0.175E-02-0.106E-03
CGA:   9    -0.669869685732E+03   -0.52687E-03   -0.54157E-03  8424   0.817E-03-0.346E-03
CGA:  10    -0.669869903262E+03   -0.21753E-03   -0.23331E-03  8424   0.471E-03-0.196E-03
CGA:  11    -0.669867461252E+03    0.24420E-02   -0.13150E-02  8424   0.145E-01-0.207E-02
CGA:  12    -0.669869836977E+03   -0.23757E-02   -0.24954E-02  8424   0.195E-02 0.345E-03
CGA:  13    -0.669870505966E+03   -0.66899E-03   -0.60878E-03  8424   0.835E-03-0.321E-03
CGA:  14    -0.669870669876E+03   -0.16391E-03   -0.17226E-03  8424   0.289E-03 0.353E-04
CGA:  15    -0.669870804192E+03   -0.13432E-03   -0.23597E-03  8424   0.675E-03-0.327E-03
CGA:  16    -0.669871000427E+03   -0.19623E-03   -0.18350E-03  8424   0.108E-03-0.595E-04
CGA:  17    -0.669871048670E+03   -0.48243E-04   -0.38861E-04  8424   0.271E-03-0.114E-03
CGA:  18    -0.669871097789E+03   -0.49118E-04   -0.38648E-04  8424   0.279E-04-0.317E-04
CGA:  19    -0.669871160346E+03   -0.62558E-04    0.31352E-05  8424   0.376E-04-0.624E-05
CGA:  20    -0.669871299024E+03   -0.13868E-03    0.15789E-05  8424   0.498E-04 0.134E-06
CGA:  21    -0.669871547260E+03   -0.24824E-03    0.25641E-05  8424   0.250E-04 0.238E-04
CGA:  22    -0.669871710652E+03   -0.16339E-03    0.21882E-05  8424   0.536E-04 0.896E-06
CGA:  23    -0.669872114305E+03   -0.40365E-03    0.18126E-05  8424   0.610E-04 0.119E-04
CGA:  24    -0.669872616918E+03   -0.50261E-03    0.26588E-05  8424   0.146E-03 0.913E-05
CGA:  25    -0.669873838974E+03   -0.12221E-02    0.54575E-05  8424   0.107E-03-0.320E-04
CGA:  26    -0.669874752343E+03   -0.91337E-03    0.17406E-05  8424   0.160E-03-0.640E-04
CGA:  27    -0.669874766923E+03   -0.14580E-04   -0.23311E-04  8424   0.232E-04 0.282E-04
CGA:  28    -0.669874764387E+03    0.25358E-05   -0.32383E-05  8424   0.133E-04 0.179E-04
  39 F= -.66987476E+03 E0= -.66987476E+03  d E =-.248938E+00  mag=     2.0000
       N       E                     dE             d eps       ncg     rms          ort
SDA:   1    -0.669051715873E+03    0.82305E+00    0.00000E+00  8424   0.276E+01 0.000E+00
CGA:   2    -0.669595158383E+03   -0.54344E+00   -0.54441E+00  8424   0.108E+01 0.141E-04
CGA:   3    -0.669824686841E+03   -0.22953E+00   -0.22940E+00  8424   0.366E+00-0.145E-03
CGA:   4    -0.669885871811E+03   -0.61185E-01   -0.61232E-01  8424   0.934E-01 0.168E-03
CGA:   5    -0.669901610457E+03   -0.15739E-01   -0.15834E-01  8424   0.180E-01 0.436E-03
CGA:   6    -0.669905106457E+03   -0.34960E-02   -0.35410E-02  8424   0.404E-02 0.263E-03
CGA:   7    -0.669905928659E+03   -0.82220E-03   -0.86268E-03  8424   0.113E-02 0.274E-03
CGA:   8    -0.669906137623E+03   -0.20896E-03   -0.24653E-03  8424   0.298E-03 0.256E-03
CGA:   9    -0.669906157515E+03   -0.19892E-04   -0.54699E-04  8424   0.120E-03 0.180E-03
CGA:  10    -0.669906147119E+03    0.10397E-04   -0.11894E-04  8424   0.798E-04 0.948E-04
CGA:  11    -0.669906134891E+03    0.12228E-04   -0.58388E-05  8424   0.669E-04 0.726E-04
CGA:  12    -0.669906123373E+03    0.11517E-04   -0.40835E-05  8424   0.595E-04 0.628E-04
CGA:  13    -0.669906112699E+03    0.10674E-04   -0.31602E-05  8424   0.545E-04 0.567E-04
CGA:  14    -0.669906102816E+03    0.98831E-05   -0.25738E-05  8424   0.509E-04 0.524E-04
  40 F= -.66990610E+03 E0= -.66990610E+03  d E =-.313384E-01  mag=     2.0000
       N       E                     dE             d eps       ncg     rms          ort
SDA:   1    -0.669784716290E+03    0.12140E+00    0.00000E+00  8424   0.383E+00 0.000E+00
CGA:   2    -0.669864808994E+03   -0.80093E-01   -0.80127E-01  8424   0.161E+00 0.528E-03
CGA:   3    -0.669898295818E+03   -0.33487E-01   -0.33482E-01  8424   0.511E-01-0.114E-03
CGA:   4    -0.669906771498E+03   -0.84757E-02   -0.85001E-02  8424   0.125E-01 0.270E-03
CGA:   5    -0.669908792237E+03   -0.20207E-02   -0.20623E-02  8424   0.236E-02 0.469E-03
CGA:   6    -0.669909194573E+03   -0.40234E-03   -0.42994E-03  8424   0.511E-03 0.382E-03
CGA:   7    -0.669909251255E+03   -0.56682E-04   -0.82943E-04  8424   0.177E-03 0.252E-03
CGA:   8    -0.669909248354E+03    0.29017E-05   -0.23263E-04  8424   0.994E-04 0.174E-03
  41 F= -.66990925E+03 E0= -.66990925E+03  d E =-.314554E-02  mag=     2.0000
       N       E                     dE             d eps       ncg     rms          ort
SDA:   1    -0.669720917951E+03    0.18833E+00    0.00000E+00  8424   0.503E+00 0.000E+00
CGA:   2    -0.669852475890E+03   -0.13156E+00   -0.13154E+00  8424   0.239E+00 0.490E-03
CGA:   3    -0.669897070384E+03   -0.44594E-01   -0.44572E-01  8424   0.601E-01-0.598E-03
CGA:   4    -0.669907001348E+03   -0.99310E-02   -0.99534E-02  8424   0.146E-01 0.392E-03
CGA:   5    -0.669909377158E+03   -0.23758E-02   -0.24137E-02  8424   0.291E-02 0.677E-03
CGA:   6    -0.669909885043E+03   -0.50788E-03   -0.52949E-03  8424   0.635E-03 0.500E-03
CGA:   7    -0.669909967503E+03   -0.82460E-04   -0.10581E-03  8424   0.232E-03 0.321E-03
CGA:   8    -0.669909973178E+03   -0.56749E-05   -0.23873E-04  8424   0.137E-03 0.168E-03
  42 F= -.66990997E+03 E0= -.66990997E+03  d E =-.724824E-03  mag=     2.0000
       N       E                     dE             d eps       ncg     rms          ort
SDA:   1    -0.669716309870E+03    0.19366E+00    0.00000E+00  8424   0.468E+00 0.000E+00
CGA:   2    -0.669859503022E+03   -0.14319E+00   -0.14315E+00  8424   0.223E+00 0.366E-03
CGA:   3    -0.669898121466E+03   -0.38618E-01   -0.38614E-01  8424   0.493E-01-0.153E-03
CGA:   4    -0.669906321560E+03   -0.82001E-02   -0.82141E-02  8424   0.121E-01 0.382E-03
CGA:   5    -0.669908293905E+03   -0.19723E-02   -0.19945E-02  8424   0.241E-02 0.593E-03
CGA:   6    -0.669908715104E+03   -0.42120E-03   -0.43465E-03  8424   0.540E-03 0.486E-03
CGA:   7    -0.669908779655E+03   -0.64550E-04   -0.85115E-04  8424   0.213E-03 0.309E-03
CGA:   8    -0.669908782019E+03   -0.23646E-05   -0.19310E-04  8424   0.137E-03 0.163E-03
  43 F= -.66990878E+03 E0= -.66990878E+03  d E =0.119116E-02  mag=     2.0000
       N       E                     dE             d eps       ncg     rms          ort
SDA:   1    -0.669268210920E+03    0.64057E+00    0.00000E+00  8424   0.159E+01 0.000E+00
CGA:   2    -0.669715657553E+03   -0.44745E+00   -0.44743E+00  8424   0.853E+00 0.819E-05
CGA:   3    -0.669867881098E+03   -0.15222E+00   -0.15222E+00  8424   0.184E+00 0.224E-04
CGA:   4    -0.669897412014E+03   -0.29531E-01   -0.29534E-01  8424   0.436E-01 0.109E-03
CGA:   5    -0.669904927151E+03   -0.75151E-02   -0.75203E-02  8424   0.943E-02 0.368E-03
CGA:   6    -0.669906761641E+03   -0.18345E-02   -0.18309E-02  8424   0.207E-02 0.501E-03
CGA:   7    -0.669907172709E+03   -0.41107E-03   -0.41027E-03  8424   0.564E-03 0.403E-03
CGA:   8    -0.669907257295E+03   -0.84586E-04   -0.97794E-04  8424   0.227E-03 0.324E-03
CGA:   9    -0.669907266593E+03   -0.92976E-05   -0.23194E-04  8424   0.141E-03 0.170E-03
CGA:  10    -0.669907264086E+03    0.25067E-05   -0.10639E-04  8424   0.115E-03 0.126E-03
  44 F= -.66990726E+03 E0= -.66990726E+03  d E =0.151793E-02  mag=     2.0000
       N       E                     dE             d eps       ncg     rms          ort
SDA:   1    -0.650217296480E+03    0.19690E+02    0.00000E+00  8424   0.502E+02 0.000E+00
CGA:   2    -0.663553450913E+03   -0.13336E+02   -0.13334E+02  8424   0.270E+02 0.135E-01
CGA:   3    -0.668571459959E+03   -0.50180E+01   -0.50179E+01  8424   0.613E+01 0.184E-02
CGA:   4    -0.669544467154E+03   -0.97301E+00   -0.97302E+00  8424   0.141E+01-0.116E-02
CGA:   5    -0.669788745321E+03   -0.24428E+00   -0.24428E+00  8424   0.311E+00 0.105E-02
CGA:   6    -0.669852025338E+03   -0.63280E-01   -0.63243E-01  8424   0.731E-01 0.119E-02
CGA:   7    -0.669868276374E+03   -0.16251E-01   -0.16228E-01  8424   0.220E-01 0.495E-03
CGA:   8    -0.669873759309E+03   -0.54829E-02   -0.54223E-02  8424   0.701E-02 0.904E-03
CGA:   9    -0.669875828199E+03   -0.20689E-02   -0.20352E-02  8424   0.255E-02 0.343E-03
CGA:  10    -0.669876612425E+03   -0.78423E-03   -0.74411E-03  8424   0.901E-03 0.432E-03
CGA:  11    -0.669876860492E+03   -0.24807E-03   -0.23653E-03  8424   0.273E-03 0.338E-03
CGA:  12    -0.669876905928E+03   -0.45435E-04   -0.55381E-04  8424   0.135E-03 0.222E-03
CGA:  13    -0.669876910006E+03   -0.40786E-05   -0.13935E-04  8424   0.984E-04 0.113E-03
  45 F= -.66987691E+03 E0= -.66987691E+03  d E =0.303541E-01  mag=     2.0000
       N       E                     dE             d eps       ncg     rms          ort
SDA:   1    -0.652924175181E+03    0.16953E+02    0.00000E+00  8424   0.511E+02 0.000E+00
CGA:   2    -0.663575038959E+03   -0.10651E+02   -0.10639E+02  8424   0.217E+02 0.281E+00
CGA:   3    -0.668149024362E+03   -0.45740E+01   -0.45761E+01  8424   0.667E+01-0.585E-01
CGA:   4    -0.669248071678E+03   -0.10990E+01   -0.10992E+01  8424   0.165E+01 0.367E-02
CGA:   5    -0.669527126204E+03   -0.27905E+00   -0.27912E+00  8424   0.336E+00 0.382E-02
CGA:   6    -0.669594678721E+03   -0.67553E-01   -0.67595E-01  8424   0.794E-01-0.222E-02
CGA:   7    -0.669612305648E+03   -0.17627E-01   -0.17589E-01  8424   0.238E-01 0.934E-03
CGA:   8    -0.669618229317E+03   -0.59237E-02   -0.59282E-02  8424   0.730E-02-0.741E-04
CGA:   9    -0.669620364094E+03   -0.21348E-02   -0.22694E-02  8424   0.336E-02-0.109E-02
CGA:  10    -0.669621279768E+03   -0.91567E-03   -0.10249E-02  8424   0.186E-02-0.668E-03
CGA:  11    -0.669620240925E+03    0.10388E-02   -0.13266E-02  8424   0.109E-01-0.346E-02
CGA:  12    -0.669622004970E+03   -0.17640E-02   -0.18090E-02  8424   0.155E-02 0.633E-03
CGA:  13    -0.669622533646E+03   -0.52868E-03   -0.73035E-03  8424   0.192E-02-0.946E-03
CGA:  14    -0.669622822882E+03   -0.28924E-03   -0.30248E-03  8424   0.341E-03 0.154E-03
CGA:  15    -0.669623001830E+03   -0.17895E-03    0.28196E-02  8424   0.127E-03 0.772E-04
CGA:  16    -0.669623158301E+03   -0.15647E-03    0.16937E-04  8424   0.111E-03 0.102E-03
CGA:  17    -0.669623232172E+03   -0.73871E-04    0.34204E-04  8424   0.786E-04 0.585E-04
CGA:  18    -0.669623331864E+03   -0.99692E-04    0.56916E-05  8424   0.719E-04 0.500E-04
CGA:  19    -0.669623396731E+03   -0.64868E-04    0.96888E-05  8424   0.690E-04 0.446E-04
CGA:  20    -0.669623489122E+03   -0.92391E-04    0.45903E-05  8424   0.681E-04 0.397E-04
CGA:  21    -0.669623551320E+03   -0.62199E-04    0.89410E-05  8424   0.700E-04 0.337E-04
CGA:  22    -0.669623704891E+03   -0.15357E-03    0.60517E-05  8424   0.591E-04 0.994E-04
CGA:  23    -0.669623792731E+03   -0.87840E-04    0.33600E-05  8424   0.611E-04 0.315E-04
CGA:  24    -0.669623848818E+03   -0.56087E-04    0.79514E-05  8424   0.655E-04 0.260E-04
CGA:  25    -0.669623998100E+03   -0.14928E-03    0.47750E-05  8424   0.571E-04 0.907E-04
CGA:  26    -0.669624085260E+03   -0.87159E-04    0.31159E-05  8424   0.607E-04 0.246E-04
CGA:  27    -0.669624229955E+03   -0.14469E-03    0.41807E-05  8424   0.535E-04 0.847E-04
CGA:  28    -0.669624278685E+03   -0.48731E-04    0.70727E-05  8424   0.583E-04 0.226E-04
CGA:  29    -0.669624422452E+03   -0.14377E-03    0.37849E-05  8424   0.507E-04 0.810E-04
CGA:  30    -0.669624508607E+03   -0.86155E-04    0.23723E-05  8424   0.548E-04 0.214E-04
CGA:  31    -0.669624646252E+03   -0.13765E-03    0.34645E-05  8424   0.479E-04 0.762E-04
CGA:  32    -0.669624689658E+03   -0.43406E-04    0.64051E-05  8424   0.526E-04 0.198E-04
CGA:  33    -0.669624827339E+03   -0.13768E-03    0.30935E-05  8424   0.456E-04 0.726E-04
CGA:  34    -0.669624911635E+03   -0.84296E-04    0.19009E-05  8424   0.497E-04 0.186E-04
CGA:  35    -0.669625042535E+03   -0.13090E-03    0.28801E-05  8424   0.433E-04 0.684E-04
CGA:  36    -0.669625081764E+03   -0.39229E-04    0.57970E-05  8424   0.476E-04 0.173E-04
CGA:  37    -0.669625213067E+03   -0.13130E-03    0.25525E-05  8424   0.414E-04 0.650E-04
