       N       E                     dE             d eps       ncg     rms          ort
DAV:   1     0.827095900859E+04    0.82710E+04   -0.24657E+05  8424   0.238E+03
DAV:   2     0.919860451321E+03   -0.73511E+04   -0.68985E+04  8424   0.656E+02
DAV:   3    -0.674373346293E+03   -0.15942E+04   -0.14021E+04  8424   0.282E+02
DAV:   4    -0.830298177913E+03   -0.15592E+03   -0.15322E+03  8424   0.857E+01
DAV:   5    -0.832802418721E+03   -0.25042E+01   -0.24930E+01  8424   0.122E+01
SDA:   6    -0.258816514365E+03    0.57399E+03   -0.24930E+01  8424   0.393E+04 0.000E+00
CGA:   7    -0.602480336224E+03   -0.34366E+03   -0.41801E+03  8424   0.414E+03 0.100E+03
CGA:   8    -0.634425584669E+03   -0.31945E+02   -0.22599E+02  8424   0.224E+03 0.197E+03
CGA:   9    -0.635425890956E+03   -0.10003E+01   -0.24373E+02  8424   0.577E+03-0.858E+02
CGA:  10    -0.648446252709E+03   -0.13020E+02   -0.81171E+01  8424   0.202E+03-0.550E+02
CGA:  11    -0.651444185760E+03   -0.29979E+01   -0.10665E+02  8424   0.880E+02-0.517E+02
CGA:  12    -0.653603637883E+03   -0.21595E+01   -0.48511E+01  8424   0.240E+03-0.305E+02
CGA:  13    -0.658225412697E+03   -0.46218E+01   -0.69196E+01  8424   0.116E+03-0.494E+02
CGA:  14    -0.662347866661E+03   -0.41225E+01   -0.35580E+01  8424   0.393E+02-0.274E+02
CGA:  15    -0.662012485384E+03    0.33538E+00   -0.22340E+01  8424   0.138E+03-0.364E+00
CGA:  16    -0.660708050833E+03    0.13044E+01   -0.48445E+01  8424   0.626E+02-0.764E+02
CGA:  17    -0.662029018104E+03   -0.13210E+01   -0.28399E+01  8424   0.129E+03-0.951E+02
CGA:  18    -0.659182042651E+03    0.28470E+01   -0.54676E+01  8424   0.385E+03-0.138E+03
CGA:  19    -0.658832183046E+03    0.34986E+00   -0.22950E+02  8424   0.163E+03-0.876E+02
CGA:  20    -0.663694629664E+03   -0.48624E+01   -0.55388E+01  8424   0.109E+03-0.165E+02
CGA:  21    -0.659749331024E+03    0.39453E+01   -0.27858E+01  8424   0.389E+03-0.303E+03
CGA:  22    -0.660592617857E+03   -0.84329E+00   -0.20622E+02  8424   0.166E+03-0.104E+03
CGA:  23    -0.665002707381E+03   -0.44101E+01   -0.48593E+01  8424   0.102E+03 0.576E+02
CGA:  24    -0.659633347315E+03    0.53694E+01   -0.42297E+01  8424   0.334E+03-0.243E+03
CGA:  25    -0.660927966441E+03   -0.12946E+01   -0.15693E+02  8424   0.159E+03-0.988E+02
CGA:  26    -0.666755249730E+03   -0.58273E+01   -0.41133E+01  8424   0.313E+02 0.290E+02
CGA:  27    -0.666996252782E+03   -0.24100E+00   -0.92978E+00  8424   0.360E+02-0.211E+02
CGA:  28    -0.667678335610E+03   -0.68208E+00   -0.83107E+00  8424   0.746E+01-0.134E+02
CGA:  29    -0.667929262248E+03   -0.25093E+00   -0.25841E+00  8424   0.220E+01-0.155E+00
CGA:  30    -0.668072810609E+03   -0.14355E+00   -0.16113E+00  8424   0.109E+01 0.337E+00
CGA:  31    -0.668144374157E+03   -0.71564E-01   -0.75592E-01  8424   0.135E+01-0.165E-01
CGA:  32    -0.668290212432E+03   -0.14584E+00   -0.15369E+00  8424   0.979E+00-0.316E+00
CGA:  33    -0.668348263566E+03   -0.58051E-01   -0.59923E-01  8424   0.291E+00 0.613E-01
CGA:  34    -0.668379563299E+03   -0.31300E-01   -0.31158E-01  8424   0.415E+00 0.133E-01
CGA:  35    -0.668417285655E+03   -0.37722E-01   -0.38001E-01  8424   0.175E+00 0.328E-01
CGA:  36    -0.668438551443E+03   -0.21266E-01   -0.20996E-01  8424   0.153E+00 0.122E-01
CGA:  37    -0.668453725671E+03   -0.15174E-01   -0.15168E-01  8424   0.874E-01 0.110E-01
CGA:  38    -0.668462336897E+03   -0.86112E-02   -0.86128E-02  8424   0.802E-01 0.445E-02
CGA:  39    -0.668473953460E+03   -0.11617E-01   -0.11735E-01  8424   0.703E-01-0.295E-02
CGA:  40    -0.668481210103E+03   -0.72566E-02   -0.71235E-02  8424   0.501E-01 0.946E-02
CGA:  41    -0.668489247651E+03   -0.80375E-02   -0.81187E-02  8424   0.828E-01-0.175E-02
CGA:  42    -0.668504032936E+03   -0.14785E-01   -0.13710E-01  8424   0.938E-01 0.104E-01
CGA:  43    -0.668512130555E+03   -0.80976E-02   -0.39551E-01  8424   0.655E+00-0.143E+00
CGA:  44    -0.668558080972E+03   -0.45950E-01   -0.49220E-01  8424   0.142E+00 0.198E-02
CGA:  45    -0.668578233156E+03   -0.20152E-01   -0.19982E-01  8424   0.144E+00 0.487E-02
CGA:  46    -0.668625849804E+03   -0.47617E-01   -0.57844E-01  8424   0.216E+00-0.391E-01
CGA:  47    -0.668655950764E+03   -0.30101E-01   -0.33231E-01  8424   0.230E+00-0.373E-01
CGA:  48    -0.668704312473E+03   -0.48362E-01   -0.61742E-01  8424   0.282E+00-0.763E-01
CGA:  49    -0.668745120196E+03   -0.40808E-01   -0.46252E-01  8424   0.302E+00-0.578E-01
CGA:  50    -0.668315084250E+03    0.43004E+00   -0.19856E+00  8424   0.303E+01-0.908E+00
CGA:  51    -0.668790474301E+03   -0.47539E+00   -0.48150E+00  8424   0.711E+00-0.123E-01
CGA:  52    -0.669019807064E+03   -0.22933E+00   -0.22826E+00  8424   0.295E+00 0.998E-02
CGA:  53    -0.669108394318E+03   -0.88587E-01   -0.88709E-01  8424   0.171E+00-0.279E-02
CGA:  54    -0.669161949193E+03   -0.53555E-01   -0.53425E-01  8424   0.145E+00-0.190E-02
CGA:  55    -0.669203654668E+03   -0.41705E-01   -0.41901E-01  8424   0.599E-01-0.612E-02
CGA:  56    -0.669226915674E+03   -0.23261E-01   -0.24976E-01  8424   0.465E-01-0.103E-01
CGA:  57    -0.669241805308E+03   -0.14890E-01   -0.17767E-01  8424   0.587E-01-0.152E-01
CGA:  58    -0.669254763803E+03   -0.12958E-01   -0.15402E-01  8424   0.424E-01-0.240E-01
CGA:  59    -0.669260743809E+03   -0.59800E-02   -0.15643E-01  8424   0.686E-01-0.292E-01
CGA:  60    -0.669275270265E+03   -0.14526E-01   -0.14351E-01  8424   0.231E-01-0.215E-02
CGA:  61    -0.669282694294E+03   -0.74240E-02   -0.73695E-02  8424   0.160E-01 0.210E-02
CGA:  62    -0.669290317613E+03   -0.76233E-02   -0.77104E-02  8424   0.991E-02-0.690E-03
CGA:  63    -0.669294824699E+03   -0.45071E-02   -0.49018E-02  8424   0.925E-02-0.198E-02
CGA:  64    -0.669297848840E+03   -0.30241E-02   -0.33160E-02  8424   0.777E-02-0.237E-02
CGA:  65    -0.669299777731E+03   -0.19289E-02   -0.37267E-02  8424   0.166E-01-0.585E-02
CGA:  66    -0.669302997425E+03   -0.32197E-02   -0.31819E-02  8424   0.420E-02-0.265E-03
CGA:  67    -0.669299874949E+03    0.31225E-02   -0.63485E-02  8424   0.686E-01-0.792E-02
CGA:  68    -0.669309928163E+03   -0.10053E-01   -0.10098E-01  8424   0.662E-02 0.495E-03
CGA:  69    -0.669312130606E+03   -0.22024E-02   -0.21317E-02  8424   0.282E-02-0.109E-02
CGA:  70    -0.669312300635E+03   -0.17003E-03   -0.22182E-02  8424   0.155E-01-0.367E-02
CGA:  71    -0.669315507878E+03   -0.32072E-02   -0.30513E-02  8424   0.323E-02-0.730E-03
CGA:  72    -0.669316705379E+03   -0.11975E-02   -0.11873E-02  8424   0.308E-02-0.788E-03
CGA:  73    -0.669308882241E+03    0.78231E-02   -0.38204E-02  8424   0.698E-01-0.948E-02
CGA:  74    -0.669320515979E+03   -0.11634E-01   -0.11698E-01  8424   0.123E-01 0.805E-03
CGA:  75    -0.669324864488E+03   -0.43485E-02   -0.42080E-02  8424   0.495E-02-0.133E-02
CGA:  76    -0.669326309383E+03   -0.14449E-02   -0.13146E-02  8424   0.131E-02-0.926E-03
CGA:  77    -0.669327615182E+03   -0.13058E-02    0.56438E-03  8424   0.995E-03 0.498E-03
CGA:  78    -0.669329205691E+03   -0.15905E-02    0.87971E-03  8424   0.987E-03 0.567E-03
CGA:  79    -0.669315716804E+03    0.13489E-01   -0.72901E-02  8424   0.121E+00-0.701E-02
CGA:  80    -0.669332992407E+03   -0.17276E-01   -0.17373E-01  8424   0.694E-02 0.378E-02
CGA:  81    -0.669334924223E+03   -0.19318E-02   -0.16787E-02  8424   0.144E-02-0.489E-03
CGA:  82    -0.669335831847E+03   -0.90762E-03   -0.13107E-02  8424   0.565E-02-0.164E-02
CGA:  83    -0.669337451150E+03   -0.16193E-02   -0.14996E-02  8424   0.145E-02-0.251E-03
CGA:  84    -0.669338352114E+03   -0.90096E-03   -0.76169E-03  8424   0.249E-02-0.834E-03
CGA:  85    -0.669339117112E+03   -0.76500E-03   -0.57137E-03  8424   0.114E-02-0.407E-03
CGA:  86    -0.669311456688E+03    0.27660E-01   -0.15009E-01  8424   0.191E+00-0.857E-02
CGA:  87    -0.669342719408E+03   -0.31263E-01   -0.32633E-01  8424   0.343E-01-0.114E-01
CGA:  88    -0.669350417443E+03   -0.76980E-02   -0.77772E-02  8424   0.743E-03 0.292E-03
CGA:  89    -0.669351297349E+03   -0.87991E-03   -0.62553E-03  8424   0.384E-02-0.809E-03
CGA:  90    -0.669351940519E+03   -0.64317E-03   -0.64158E-03  8424   0.555E-03 0.115E-04
CGA:  91    -0.669313262528E+03    0.38678E-01   -0.21227E-01  8424   0.226E+00-0.721E-02
CGA:  92    -0.669351737619E+03   -0.38475E-01   -0.36524E-01  8424   0.391E-01 0.166E-01
CGA:  93    -0.669363383061E+03   -0.11645E-01   -0.11114E-01  8424   0.314E-02-0.529E-03
CGA:  94    -0.669364468944E+03   -0.10859E-02   -0.85024E-03  8424   0.674E-03-0.148E-03
CGA:  95    -0.669365155568E+03   -0.68662E-03   -0.33265E-03  8424   0.118E-02-0.293E-03
CGA:  96    -0.669362518696E+03    0.26369E-02   -0.17231E-02  8424   0.670E-01-0.499E-02
CGA:  97    -0.669373420746E+03   -0.10902E-01   -0.10763E-01  8424   0.926E-02 0.381E-02
CGA:  98    -0.669376566129E+03   -0.31454E-02   -0.28021E-02  8424   0.153E-02-0.270E-03
CGA:  99    -0.669377349105E+03   -0.78298E-03   -0.52090E-03  8424   0.577E-03-0.217E-03
CGA: 100    -0.669367816491E+03    0.95326E-02   -0.24423E-02  8424   0.675E-01-0.358E-02
CGA: 101    -0.669381945801E+03   -0.14129E-01   -0.13814E-01  8424   0.153E-01-0.288E-02
CGA: 102    -0.669386001338E+03   -0.40555E-02   -0.39643E-02  8424   0.238E-02 0.333E-04
CGA: 103    -0.669387192363E+03   -0.11910E-02   -0.79285E-03  8424   0.102E-02-0.342E-03
CGA: 104    -0.669388199083E+03   -0.10067E-02   -0.54763E-03  8424   0.158E-02-0.544E-03
CGA: 105    -0.669388838761E+03   -0.63968E-03   -0.37292E-03  8424   0.593E-03-0.229E-03
CGA: 106    -0.669390428496E+03   -0.15897E-02    0.25374E-02  8424   0.305E-02-0.530E-03
CGA: 107    -0.669391433136E+03   -0.10046E-02   -0.68302E-03  8424   0.114E-02-0.308E-03
CGA: 108    -0.669392326227E+03   -0.89309E-03   -0.55833E-03  8424   0.973E-03-0.437E-03
CGA: 109    -0.669394303535E+03   -0.19773E-02    0.13371E-02  8424   0.104E-01-0.128E-02
CGA: 110    -0.669395852760E+03   -0.15492E-02   -0.15808E-02  8424   0.120E-02 0.258E-03
CGA: 111    -0.669397064679E+03   -0.12119E-02   -0.88918E-03  8424   0.161E-02-0.647E-03
CGA: 112    -0.669397572392E+03   -0.50771E-03   -0.38168E-03  8424   0.474E-03-0.130E-03
CGA: 113    -0.669399065554E+03   -0.14932E-02    0.51785E-03  8424   0.373E-02-0.518E-03
CGA: 114    -0.669399689113E+03   -0.62356E-03   -0.62655E-03  8424   0.530E-03 0.439E-04
CGA: 115    -0.669384192697E+03    0.15496E-01   -0.25556E-02  8424   0.927E-01-0.497E-02
CGA: 116    -0.669402193865E+03   -0.18001E-01   -0.17851E-01  8424   0.158E-01 0.246E-02
CGA: 117    -0.669406968104E+03   -0.47742E-02   -0.43392E-02  8424   0.316E-02-0.566E-03
CGA: 118    -0.669408196662E+03   -0.12286E-02   -0.98993E-03  8424   0.560E-03-0.273E-03
CGA: 119    -0.669409496344E+03   -0.12997E-02    0.25874E-02  8424   0.382E-02-0.710E-03
CGA: 120    -0.669410292529E+03   -0.79619E-03   -0.75774E-03  8424   0.684E-03-0.225E-04
CGA: 121    -0.669411008379E+03   -0.71585E-03   -0.77157E-03  8424   0.639E-02-0.135E-02
CGA: 122    -0.669412218937E+03   -0.12106E-02   -0.12021E-02  8424   0.108E-02 0.695E-04
CGA: 123    -0.669413114074E+03   -0.89514E-03   -0.52387E-03  8424   0.121E-02-0.657E-03
CGA: 124    -0.669413549030E+03   -0.43496E-03   -0.31488E-03  8424   0.525E-03-0.155E-03
CGA: 125    -0.669414871112E+03   -0.13221E-02    0.48244E-03  8424   0.449E-02-0.721E-03
CGA: 126    -0.669415660689E+03   -0.78958E-03   -0.76733E-03  8424   0.614E-03 0.247E-04
CGA: 127    -0.669415856151E+03   -0.19546E-03   -0.79134E-03  8424   0.926E-02-0.178E-02
CGA: 128    -0.669417738831E+03   -0.18827E-02   -0.18881E-02  8424   0.148E-02 0.668E-04
CGA: 129    -0.669418497396E+03   -0.75856E-03   -0.45010E-03  8424   0.659E-03-0.505E-03
CGA: 130    -0.669419979215E+03   -0.14818E-02    0.21089E-03  8424   0.186E-02-0.197E-03
CGA: 131    -0.669426342839E+03   -0.63636E-02    0.33276E-03  8424   0.422E-02-0.225E-04
CGA: 132    -0.669442528509E+03   -0.16186E-01    0.15795E-02  8424   0.107E-01-0.123E-02
CGA: 133    -0.669487939192E+03   -0.45411E-01    0.14332E-02  8424   0.394E-01-0.892E-02
CGA: 134    -0.669494009618E+03   -0.60704E-02   -0.63295E-02  8424   0.459E-02 0.144E-02
CGA: 135    -0.669495279808E+03   -0.12702E-02   -0.12452E-02  8424   0.387E-03-0.381E-04
CGA: 136    -0.669495442579E+03   -0.16277E-03   -0.16696E-03  8424   0.211E-03 0.817E-05
CGA: 137    -0.669495449891E+03   -0.73115E-05   -0.68212E-04  8424   0.197E-03 0.122E-03
CGA: 138    -0.669495571561E+03   -0.12167E-03   -0.10987E-03  8424   0.444E-03-0.550E-04
CGA: 139    -0.669495631804E+03   -0.60243E-04   -0.10610E-03  8424   0.454E-03 0.922E-04
CGA: 140    -0.669495759173E+03   -0.12737E-03   -0.19618E-03  8424   0.663E-03 0.153E-03
CGA: 141    -0.669496237804E+03   -0.47863E-03   -0.47445E-03  8424   0.112E-02-0.122E-03
CGA: 142    -0.669487491532E+03    0.87463E-02   -0.45047E-02  8424   0.694E-01-0.626E-02
CGA: 143    -0.669501933578E+03   -0.14442E-01   -0.15351E-01  8424   0.181E-01 0.141E-02
CGA: 144    -0.669507152212E+03   -0.52186E-02   -0.50241E-02  8424   0.303E-02-0.409E-03
CGA: 145    -0.669508305343E+03   -0.11531E-02   -0.10857E-02  8424   0.251E-02-0.100E-03
CGA: 146    -0.669509971505E+03   -0.16662E-02   -0.17563E-02  8424   0.273E-02 0.162E-03
CGA: 147    -0.669511322098E+03   -0.13506E-02   -0.13154E-02  8424   0.103E-02-0.116E-03
CGA: 148    -0.669511946299E+03   -0.62420E-03   -0.59997E-03  8424   0.895E-03-0.759E-04
CGA: 149    -0.669512396765E+03   -0.45047E-03   -0.45055E-03  8424   0.109E-02-0.319E-04
CGA: 150    -0.669513344659E+03   -0.94789E-03   -0.80391E-03  8424   0.273E-02-0.593E-03
CGA: 151    -0.669513685542E+03   -0.34088E-03   -0.44179E-03  8424   0.426E-03 0.135E-03
CGA: 152    -0.669514088613E+03   -0.40307E-03   -0.35210E-03  8424   0.116E-02-0.249E-03
CGA: 153    -0.669514407714E+03   -0.31910E-03   -0.29336E-03  8424   0.243E-03-0.348E-04
CGA: 154    -0.669513741923E+03    0.66579E-03   -0.56266E-03  8424   0.120E-01-0.872E-03
CGA: 155    -0.669515384340E+03   -0.16424E-02   -0.17983E-02  8424   0.933E-03 0.373E-03
CGA: 156    -0.669515864928E+03   -0.48059E-03   -0.37769E-03  8424   0.243E-03-0.177E-03
CGA: 157    -0.669516047114E+03   -0.18219E-03   -0.15116E-03  8424   0.881E-03-0.174E-03
CGA: 158    -0.669516336799E+03   -0.28968E-03   -0.19891E-03  8424   0.188E-03-0.128E-03
CGA: 159    -0.669516658902E+03   -0.32210E-03    0.66878E-03  8424   0.558E-03-0.917E-04
CGA: 160    -0.669517854404E+03   -0.11955E-02    0.98307E-04  8424   0.112E-02-0.836E-04
CGA: 161    -0.669521774258E+03   -0.39199E-02    0.33401E-03  8424   0.214E-02 0.616E-04
CGA: 162    -0.669527317063E+03   -0.55428E-02    0.28655E-02  8424   0.117E-01-0.341E-02
CGA: 163    -0.669529776693E+03   -0.24596E-02   -0.22061E-02  8424   0.115E-02-0.417E-03
CGA: 164    -0.669530155442E+03   -0.37875E-03   -0.38000E-03  8424   0.157E-03 0.102E-05
CGA: 165    -0.669530264179E+03   -0.10874E-03   -0.65921E-04  8424   0.305E-03-0.102E-03
CGA: 166    -0.669530314376E+03   -0.50197E-04   -0.49284E-04  8424   0.539E-04-0.907E-06
CGA: 167    -0.669530538733E+03   -0.22436E-03    0.12871E-04  8424   0.751E-04 0.191E-04
CGA: 168    -0.669530828865E+03   -0.29013E-03    0.49579E-04  8424   0.198E-03 0.150E-04
CGA: 169    -0.669532043803E+03   -0.12149E-02    0.41687E-04  8424   0.202E-03-0.202E-04
CGA: 170    -0.669533137004E+03   -0.10932E-02    0.25227E-04  8424   0.823E-03-0.248E-03
CGA: 171    -0.669533307382E+03   -0.17038E-03   -0.15693E-03  8424   0.153E-03-0.218E-04
CGA: 172    -0.669528892875E+03    0.44145E-02   -0.24003E-02  8424   0.327E-01-0.125E-02
CGA: 173    -0.669533525140E+03   -0.46323E-02   -0.47965E-02  8424   0.191E-02 0.109E-02
CGA: 174    -0.669534099506E+03   -0.57437E-03   -0.51545E-03  8424   0.624E-03-0.818E-04
CGA: 175    -0.669534198118E+03   -0.98613E-04   -0.26131E-03  8424   0.833E-03 0.116E-03
CGA: 176    -0.669529224121E+03    0.49740E-02   -0.13995E-03  8424   0.126E-01 0.158E-02
CGA: 177    -0.669492794203E+03    0.36430E-01   -0.29682E-02  8424   0.117E+00 0.167E-01
CGA: 178    -0.669320119006E+03    0.17268E+00   -0.34052E-01  8424   0.504E+00 0.863E-01
CGA: 179    -0.668936539752E+03    0.38358E+00   -0.16831E+00  8424   0.136E+01 0.374E+00
CGA: 180    -0.668914362883E+03    0.22177E-01   -0.63420E+00  8424   0.101E+01 0.486E+00
CGA: 181    -0.668869775022E+03    0.44588E-01   -0.51730E+00  8424   0.922E+00 0.794E+00
CGA: 182    -0.669310984589E+03   -0.44121E+00   -0.53865E+00  8424   0.425E+00 0.226E+00
CGA: 183    -0.669475632418E+03   -0.16465E+00   -0.28685E+00  8424   0.125E+00-0.251E-02
CGA: 184    -0.669481550599E+03   -0.59182E-02   -0.32435E-01  8424   0.128E+00 0.170E-01
CGA: 185    -0.669509788301E+03   -0.28238E-01   -0.35764E-01  8424   0.643E-01 0.711E-02
CGA: 186    -0.669517783088E+03   -0.79948E-02   -0.88228E-02  8424   0.162E-01 0.502E-02
CGA: 187    -0.669523194563E+03   -0.54115E-02   -0.53730E-02  8424   0.280E-01-0.895E-03
CGA: 188    -0.669530238288E+03   -0.70437E-02   -0.65485E-02  8424   0.155E-01-0.218E-02
CGA: 189    -0.669531916884E+03   -0.16786E-02   -0.19634E-02  8424   0.605E-02-0.143E-02
CGA: 190    -0.669532777703E+03   -0.86082E-03   -0.11218E-02  8424   0.529E-02-0.465E-03
CGA: 191    -0.669533726481E+03   -0.94878E-03   -0.96910E-03  8424   0.286E-02-0.703E-03
CGA: 192    -0.669534451200E+03   -0.72472E-03   -0.44387E-03  8424   0.215E-02-0.406E-03
CGA: 193    -0.669535194866E+03   -0.74367E-03   -0.55162E-03  8424   0.262E-02-0.595E-03
CGA: 194    -0.669535482809E+03   -0.28794E-03   -0.27419E-03  8424   0.982E-03-0.361E-03
CGA: 195    -0.669535565384E+03   -0.82575E-04   -0.10741E-03  8424   0.539E-03-0.225E-04
CGA: 196    -0.669535713524E+03   -0.14814E-03   -0.12876E-03  8424   0.580E-03-0.121E-03
CGA: 197    -0.669535902650E+03   -0.18913E-03   -0.10052E-03  8424   0.408E-03-0.306E-03
CGA: 198    -0.669536076734E+03   -0.17408E-03   -0.17536E-03  8424   0.191E-03 0.108E-04
CGA: 199    -0.669536307485E+03   -0.23075E-03    0.10789E-02  8424   0.219E-03-0.792E-04
CGA: 200    -0.669536380296E+03   -0.72811E-04   -0.63980E-04  8424   0.216E-03-0.139E-03
   1 F= -.66953638E+03 E0= -.66953638E+03  d E =-.669536E+03  mag=     2.0000
       N       E                     dE             d eps       ncg     rms          ort
SDA:   1    -0.669540073248E+03   -0.37658E-02    0.00000E+00  8424   0.255E-01 0.000E+00
CGA:   2    -0.669543571983E+03   -0.34987E-02   -0.32639E-02  8424   0.436E-02-0.733E-03
CGA:   3    -0.669544667910E+03   -0.10959E-02   -0.10476E-02  8424   0.199E-02-0.171E-03
CGA:   4    -0.669545085754E+03   -0.41784E-03   -0.38306E-03  8424   0.502E-03-0.109E-03
CGA:   5    -0.669545192158E+03   -0.10640E-03   -0.82664E-04  8424   0.155E-03-0.720E-04
CGA:   6    -0.669545245108E+03   -0.52950E-04   -0.37753E-04  8424   0.130E-03-0.752E-04
CGA:   7    -0.669545344630E+03   -0.99522E-04    0.28754E-04  8424   0.208E-03-0.917E-04
CGA:   8    -0.669545409734E+03   -0.65104E-04   -0.48041E-04  8424   0.126E-03-0.694E-04
CGA:   9    -0.669545490063E+03   -0.80329E-04    0.73446E-03  8424   0.158E-03-0.855E-04
CGA:  10    -0.669545541671E+03   -0.51609E-04   -0.40576E-04  8424   0.846E-04-0.532E-04
CGA:  11    -0.669545615793E+03   -0.74122E-04    0.28178E-04  8424   0.123E-03-0.602E-04
CGA:  12    -0.669545653735E+03   -0.37942E-04   -0.29804E-04  8424   0.709E-04-0.382E-04
CGA:  13    -0.669545739577E+03   -0.85841E-04    0.11206E-04  8424   0.128E-03-0.552E-04
CGA:  14    -0.669545765096E+03   -0.25519E-04   -0.22412E-04  8424   0.406E-04-0.115E-04
CGA:  15    -0.669545839119E+03   -0.74024E-04    0.60207E-05  8424   0.565E-04-0.243E-04
CGA:  16    -0.669545862473E+03   -0.23354E-04   -0.18869E-04  8424   0.113E-03-0.464E-04
CGA:  17    -0.669545910838E+03   -0.48366E-04   -0.26908E-04  8424   0.161E-03-0.115E-03
CGA:  18    -0.669545925855E+03   -0.15016E-04   -0.17205E-04  8424   0.866E-05 0.718E-05
CGA:  19    -0.669545974034E+03   -0.48180E-04    0.32201E-06  8424   0.134E-04 0.785E-05
CGA:  20    -0.669546027789E+03   -0.53755E-04    0.67702E-06  8424   0.449E-04-0.435E-05
CGA:  21    -0.669546234935E+03   -0.20715E-03    0.80998E-06  8424   0.123E-03 0.247E-04
CGA:  22    -0.669546247729E+03   -0.12794E-04   -0.13651E-04  8424   0.963E-05 0.298E-05
CGA:  23    -0.669546295601E+03   -0.47872E-04    0.36219E-06  8424   0.115E-04 0.885E-05
CGA:  24    -0.669546346404E+03   -0.50803E-04    0.46979E-06  8424   0.239E-04 0.304E-05
CGA:  25    -0.669546483444E+03   -0.13704E-03    0.12071E-05  8424   0.154E-04 0.268E-04
CGA:  26    -0.669546526278E+03   -0.42834E-04    0.11522E-05  8424   0.207E-04 0.955E-06
CGA:  27    -0.669546636848E+03   -0.11057E-03    0.77111E-06  8424   0.213E-04 0.194E-04
CGA:  28    -0.669546674961E+03   -0.38113E-04    0.31429E-05  8424   0.201E-04-0.114E-05
CGA:  29    -0.669546764503E+03   -0.89542E-04    0.72121E-06  8424   0.215E-04 0.151E-04
CGA:  30    -0.669546810391E+03   -0.45888E-04    0.23694E-05  8424   0.181E-04 0.150E-05
CGA:  31    -0.669546898282E+03   -0.87891E-04    0.76736E-06  8424   0.240E-04 0.112E-04
CGA:  32    -0.669546930375E+03   -0.32093E-04    0.63604E-05  8424   0.341E-04-0.427E-05
CGA:  33    -0.669547036754E+03   -0.10638E-03    0.13847E-05  8424   0.409E-04 0.549E-05
CGA:  34    -0.669547224709E+03   -0.18795E-03    0.22381E-05  8424   0.443E-04 0.358E-04
CGA:  35    -0.669547240552E+03   -0.15843E-04   -0.20449E-04  8424   0.208E-03-0.614E-04
CGA:  36    -0.669547303295E+03   -0.62743E-04   -0.40084E-04  8424   0.940E-04-0.115E-03
CGA:  37    -0.669547316009E+03   -0.12714E-04   -0.12293E-04  8424   0.123E-04-0.165E-05
CGA:  38    -0.669547364378E+03   -0.48369E-04    0.49821E-06  8424   0.112E-04 0.118E-04
CGA:  39    -0.669547410581E+03   -0.46203E-04    0.44690E-06  8424   0.143E-04 0.890E-05
CGA:  40    -0.669547443374E+03   -0.32793E-04    0.12480E-05  8424   0.326E-04 0.157E-05
CGA:  41    -0.669547585309E+03   -0.14194E-03    0.15357E-05  8424   0.244E-04 0.361E-04
CGA:  42    -0.669547638149E+03   -0.52840E-04    0.23039E-05  8424   0.917E-04-0.217E-04
CGA:  43    -0.669547647834E+03   -0.96855E-05   -0.10553E-04  8424   0.118E-04 0.343E-05
   2 F= -.66954765E+03 E0= -.66954765E+03  d E =-.112675E-01  mag=     2.0000
       N       E                     dE             d eps       ncg     rms          ort
SDA:   1    -0.669544739945E+03    0.28982E-02    0.00000E+00  8424   0.120E+00 0.000E+00
CGA:   2    -0.669569353589E+03   -0.24614E-01   -0.24625E-01  8424   0.518E-01 0.558E-04
CGA:   3    -0.669580466365E+03   -0.11113E-01   -0.11059E-01  8424   0.163E-01-0.404E-03
CGA:   4    -0.669583106004E+03   -0.26396E-02   -0.26227E-02  8424   0.387E-02-0.970E-04
CGA:   5    -0.669583784189E+03   -0.67818E-03   -0.66713E-03  8424   0.829E-03-0.703E-04
CGA:   6    -0.669583991824E+03   -0.20764E-03   -0.19490E-03  8424   0.296E-03-0.150E-03
CGA:   7    -0.669584071767E+03   -0.79943E-04   -0.87326E-04  8424   0.340E-03-0.181E-03
CGA:   8    -0.669584150646E+03   -0.78879E-04   -0.65363E-04  8424   0.126E-03-0.104E-03
CGA:   9    -0.669584219951E+03   -0.69305E-04    0.53358E-04  8424   0.534E-04-0.186E-04
CGA:  10    -0.669584303753E+03   -0.83802E-04    0.37491E-05  8424   0.314E-04 0.132E-04
CGA:  11    -0.669584396084E+03   -0.92331E-04    0.22621E-05  8424   0.231E-04 0.204E-04
CGA:  12    -0.669584445872E+03   -0.49788E-04    0.15073E-05  8424   0.203E-04 0.853E-05
CGA:  13    -0.669584533490E+03   -0.87618E-04    0.11042E-05  8424   0.212E-04 0.234E-04
CGA:  14    -0.669584583848E+03   -0.50358E-04    0.12155E-05  8424   0.186E-04 0.107E-04
CGA:  15    -0.669584627043E+03   -0.43194E-04    0.10926E-05  8424   0.267E-04 0.782E-05
CGA:  16    -0.669584744937E+03   -0.11789E-03    0.15262E-05  8424   0.196E-04 0.334E-04
CGA:  17    -0.669584794004E+03   -0.49066E-04    0.10440E-05  8424   0.164E-04 0.121E-04
CGA:  18    -0.669584839944E+03   -0.45940E-04    0.75218E-06  8424   0.167E-04 0.134E-04
CGA:  19    -0.669584889643E+03   -0.49699E-04    0.71230E-06  8424   0.211E-04 0.117E-04
CGA:  20    -0.669584929596E+03   -0.39953E-04    0.16672E-05  8424   0.397E-04 0.277E-05
CGA:  21    -0.669585068303E+03   -0.13871E-03    0.18185E-05  8424   0.313E-04 0.444E-04
CGA:  22    -0.669585119256E+03   -0.50954E-04    0.31334E-05  8424   0.756E-04-0.150E-04
CGA:  23    -0.669585271565E+03   -0.15231E-03    0.12172E-05  8424   0.182E-03 0.259E-04
CGA:  24    -0.669585693597E+03   -0.42203E-03    0.22146E-04  8424   0.244E-03 0.252E-04
CGA:  25    -0.669586398534E+03   -0.70494E-03    0.14514E-04  8424   0.779E-04 0.215E-03
CGA:  26    -0.669586409443E+03   -0.10909E-04   -0.38328E-04  8424   0.560E-03-0.156E-03
CGA:  27    -0.669586491673E+03   -0.82229E-04   -0.72538E-04  8424   0.404E-04-0.495E-04
CGA:  28    -0.669586552923E+03   -0.61250E-04    0.35273E-05  8424   0.450E-04 0.151E-06
CGA:  29    -0.669586649657E+03   -0.96734E-04    0.29620E-05  8424   0.311E-04 0.387E-04
CGA:  30    -0.669586706010E+03   -0.56353E-04    0.26056E-05  8424   0.299E-04 0.838E-05
CGA:  31    -0.669586797980E+03   -0.91970E-04    0.21051E-05  8424   0.310E-04 0.318E-04
CGA:  32    -0.669586845064E+03   -0.47084E-04    0.34669E-05  8424   0.224E-04 0.133E-04
CGA:  33    -0.669586931991E+03   -0.86927E-04    0.15180E-05  8424   0.271E-04 0.292E-04
CGA:  34    -0.669586979130E+03   -0.47140E-04    0.24226E-05  8424   0.211E-04 0.164E-04
CGA:  35    -0.669587034356E+03   -0.55226E-04    0.10473E-05  8424   0.223E-04 0.173E-04
CGA:  36    -0.669587073490E+03   -0.39133E-04    0.19727E-05  8424   0.279E-04 0.145E-04
CGA:  37    -0.669587137736E+03   -0.64246E-04    0.16533E-05  8424   0.461E-04 0.471E-05
CGA:  38    -0.669587270135E+03   -0.13240E-03    0.29261E-05  8424   0.364E-04 0.535E-04
CGA:  39    -0.669587293225E+03   -0.23090E-04    0.69218E-03  8424   0.732E-04-0.917E-05
CGA:  40    -0.669587435352E+03   -0.14213E-03    0.27541E-05  8424   0.110E-03 0.503E-04
CGA:  41    -0.669587518803E+03   -0.83452E-04    0.82483E-04  8424   0.303E-03-0.133E-03
CGA:  42    -0.669587535361E+03   -0.16558E-04   -0.28729E-04  8424   0.261E-04 0.555E-04
CGA:  43    -0.669587564117E+03   -0.28756E-04    0.87642E-05  8424   0.787E-04-0.457E-05
CGA:  44    -0.669587735654E+03   -0.17154E-03    0.29402E-05  8424   0.276E-03 0.237E-04
CGA:  45    -0.669588555450E+03   -0.81980E-03    0.19716E-04  8424   0.356E-03 0.180E-03
CGA:  46    -0.669588658449E+03   -0.10300E-03   -0.10112E-03  8424   0.990E-04-0.969E-04
CGA:  47    -0.669588739513E+03   -0.81064E-04    0.12710E-04  8424   0.103E-03-0.170E-04
CGA:  48    -0.669588857014E+03   -0.11750E-03    0.10179E-04  8424   0.569E-04 0.391E-04
CGA:  49    -0.669588978480E+03   -0.12147E-03    0.76259E-05  8424   0.528E-04 0.298E-04
CGA:  50    -0.669589040247E+03   -0.61767E-04    0.85757E-05  8424   0.929E-04-0.193E-04
CGA:  51    -0.669589177353E+03   -0.13711E-03    0.31468E-05  8424   0.127E-03 0.412E-04
CGA:  52    -0.669589399588E+03   -0.22224E-03    0.27913E-04  8424   0.265E-03-0.205E-04
CGA:  53    -0.669589978695E+03   -0.57911E-03    0.10186E-04  8424   0.592E-03 0.160E-03
CGA:  54    -0.669590084019E+03   -0.10532E-03   -0.85174E-04  8424   0.808E-04-0.127E-03
CGA:  55    -0.669590133289E+03   -0.49270E-04    0.29573E-04  8424   0.533E-04 0.340E-06
CGA:  56    -0.669590248562E+03   -0.11527E-03    0.29784E-05  8424   0.258E-04 0.375E-04
CGA:  57    -0.669590289618E+03   -0.41056E-04    0.22483E-05  8424   0.262E-04 0.215E-04
CGA:  58    -0.669590365193E+03   -0.75576E-04    0.99338E-06  8424   0.307E-04 0.185E-04
CGA:  59    -0.669590385503E+03   -0.20309E-04    0.37330E-04  8424   0.431E-04 0.110E-04
CGA:  60    -0.669590526001E+03   -0.14050E-03    0.27989E-05  8424   0.314E-04 0.571E-04
CGA:  61    -0.669590616384E+03   -0.90383E-04    0.11955E-05  8424   0.436E-04 0.102E-04
CGA:  62    -0.669590744512E+03   -0.12813E-03    0.30713E-05  8424   0.330E-04 0.566E-04
CGA:  63    -0.669590758800E+03   -0.14289E-04   -0.20501E-04  8424   0.207E-03-0.197E-04
CGA:  64    -0.669590959527E+03   -0.20073E-03    0.57943E-04  8424   0.538E-03-0.284E-03
CGA:  65    -0.669590953252E+03    0.62746E-05   -0.40901E-04  8424   0.844E-04 0.201E-03
   3 F= -.66959095E+03 E0= -.66959095E+03  d E =-.433054E-01  mag=     2.0000
       N       E                     dE             d eps       ncg     rms          ort
SDA:   1    -0.644684532783E+03    0.24906E+02    0.00000E+00  8424   0.816E+02 0.000E+00
CGA:   2    -0.660321791172E+03   -0.15637E+02   -0.15764E+02  8424   0.331E+02 0.130E+00
CGA:   3    -0.667537502738E+03   -0.72157E+01   -0.72045E+01  8424   0.103E+02-0.331E-01
CGA:   4    -0.669233705613E+03   -0.16962E+01   -0.16987E+01  8424   0.249E+01 0.433E-02
CGA:   5    -0.669648576155E+03   -0.41487E+00   -0.41586E+00  8424   0.521E+00 0.438E-02
CGA:   6    -0.669755393498E+03   -0.10682E+00   -0.10677E+00  8424   0.124E+00-0.620E-03
CGA:   7    -0.669782381629E+03   -0.26988E-01   -0.27086E-01  8424   0.358E-01 0.209E-02
CGA:   8    -0.669791049218E+03   -0.86676E-02   -0.86947E-02  8424   0.109E-01 0.114E-02
CGA:   9    -0.669794058432E+03   -0.30092E-02   -0.30071E-02  8424   0.393E-02 0.339E-03
CGA:  10    -0.669795069570E+03   -0.10111E-02   -0.10202E-02  8424   0.153E-02 0.914E-03
CGA:  11    -0.669795539689E+03   -0.47012E-03   -0.47574E-03  8424   0.594E-03 0.575E-03
CGA:  12    -0.669795658612E+03   -0.11892E-03   -0.15194E-03  8424   0.307E-03 0.440E-03
CGA:  13    -0.669795675267E+03   -0.16655E-04   -0.44070E-04  8424   0.211E-03 0.241E-03
CGA:  14    -0.669795682119E+03   -0.68520E-05   -0.29020E-04  8424   0.181E-03 0.194E-03
CGA:  15    -0.669795681175E+03    0.94344E-06   -0.21298E-04  8424   0.166E-03 0.173E-03
CGA:  16    -0.669795677825E+03    0.33497E-05   -0.17873E-04  8424   0.156E-03 0.161E-03
CGA:  17    -0.669795673162E+03    0.46631E-05   -0.15574E-04  8424   0.148E-03 0.152E-03
CGA:  18    -0.669795667739E+03    0.54236E-05   -0.13868E-04  8424   0.142E-03 0.145E-03
CGA:  19    -0.669795661869E+03    0.58693E-05   -0.12525E-04  8424   0.137E-03 0.140E-03
CGA:  20    -0.669795655749E+03    0.61207E-05   -0.11424E-04  8424   0.133E-03 0.135E-03
CGA:  21    -0.669795649503E+03    0.62453E-05   -0.10497E-04  8424   0.129E-03 0.131E-03
   4 F= -.66979565E+03 E0= -.66979565E+03  d E =-.204696E+00  mag=     2.0000
       N       E                     dE             d eps       ncg     rms          ort
SDA:   1    -0.668498924340E+03    0.12967E+01    0.00000E+00  8424   0.428E+01 0.000E+00
CGA:   2    -0.669377597435E+03   -0.87867E+00   -0.87857E+00  8424   0.179E+01 0.720E-02
CGA:   3    -0.669755219736E+03   -0.37762E+00   -0.37765E+00  8424   0.570E+00-0.139E-02
CGA:   4    -0.669848276735E+03   -0.93057E-01   -0.93089E-01  8424   0.138E+00 0.924E-03
CGA:   5    -0.669871834475E+03   -0.23558E-01   -0.23580E-01  8424   0.282E-01 0.899E-03
CGA:   6    -0.669877485796E+03   -0.56513E-02   -0.56505E-02  8424   0.661E-02 0.120E-03
CGA:   7    -0.669878874514E+03   -0.13887E-02   -0.13807E-02  8424   0.184E-02 0.516E-03
CGA:   8    -0.669879290791E+03   -0.41628E-03   -0.41079E-03  8424   0.537E-03 0.399E-03
CGA:   9    -0.669879402293E+03   -0.11150E-03   -0.11619E-03  8424   0.229E-03 0.286E-03
CGA:  10    -0.669879421690E+03   -0.19397E-04   -0.29963E-04  8424   0.145E-03 0.168E-03
CGA:  11    -0.669879426545E+03   -0.48548E-05   -0.15755E-04  8424   0.124E-03 0.133E-03
CGA:  12    -0.669879427310E+03   -0.76507E-06   -0.11635E-04  8424   0.113E-03 0.117E-03
   5 F= -.66987943E+03 E0= -.66987943E+03  d E =-.837778E-01  mag=     2.0000
       N       E                     dE             d eps       ncg     rms          ort
SDA:   1    -0.669345446034E+03    0.53398E+00    0.00000E+00  8424   0.165E+01 0.000E+00
CGA:   2    -0.669691854079E+03   -0.34641E+00   -0.34630E+00  8424   0.714E+00 0.266E-02
CGA:   3    -0.669840464375E+03   -0.14861E+00   -0.14863E+00  8424   0.218E+00-0.693E-03
CGA:   4    -0.669875805864E+03   -0.35341E-01   -0.35349E-01  8424   0.523E-01 0.438E-03
CGA:   5    -0.669884696008E+03   -0.88901E-02   -0.88955E-02  8424   0.107E-01 0.578E-03
CGA:   6    -0.669886853043E+03   -0.21570E-02   -0.21534E-02  8424   0.252E-02 0.170E-03
CGA:   7    -0.669887394192E+03   -0.54115E-03   -0.53469E-03  8424   0.733E-03 0.219E-03
CGA:   8    -0.669887571123E+03   -0.17693E-03   -0.17122E-03  8424   0.244E-03 0.168E-03
CGA:   9    -0.669887627185E+03   -0.56061E-04   -0.55631E-04  8424   0.121E-03 0.139E-03
CGA:  10    -0.669887641053E+03   -0.13869E-04   -0.17388E-04  8424   0.799E-04 0.896E-04
CGA:  11    -0.669887647727E+03   -0.66734E-05   -0.10428E-04  8424   0.702E-04 0.742E-04
   6 F= -.66988765E+03 E0= -.66988765E+03  d E =-.822042E-02  mag=     2.0000
       N       E                     dE             d eps       ncg     rms          ort
SDA:   1    -0.669585196140E+03    0.30244E+00    0.00000E+00  8424   0.856E+00 0.000E+00
CGA:   2    -0.669776277478E+03   -0.19108E+00   -0.19102E+00  8424   0.389E+00 0.116E-02
CGA:   3    -0.669854546334E+03   -0.78269E-01   -0.78286E-01  8424   0.110E+00-0.764E-03
CGA:   4    -0.669872414398E+03   -0.17868E-01   -0.17874E-01  8424   0.264E-01 0.365E-03
CGA:   5    -0.669876855168E+03   -0.44408E-02   -0.44472E-02  8424   0.536E-02 0.635E-03
CGA:   6    -0.669877928863E+03   -0.10737E-02   -0.10684E-02  8424   0.123E-02 0.309E-03
CGA:   7    -0.669878194737E+03   -0.26587E-03   -0.26131E-03  8424   0.376E-03 0.210E-03
CGA:   8    -0.669878273613E+03   -0.78876E-04   -0.78921E-04  8424   0.150E-03 0.173E-03
CGA:   9    -0.669878293856E+03   -0.20243E-04   -0.27684E-04  8424   0.923E-04 0.139E-03
CGA:  10    -0.669878296697E+03   -0.28411E-05   -0.90652E-05  8424   0.714E-04 0.789E-04
   7 F= -.66987830E+03 E0= -.66987830E+03  d E =0.935103E-02  mag=     2.0000
       N       E                     dE             d eps       ncg     rms          ort
SDA:   1    -0.655046291648E+03    0.14832E+02    0.00000E+00  8424   0.478E+02 0.000E+00
CGA:   2    -0.664118958442E+03   -0.90727E+01   -0.90591E+01  8424   0.184E+02 0.419E+00
CGA:   3    -0.668192108826E+03   -0.40732E+01   -0.40775E+01  8424   0.621E+01-0.744E-01
CGA:   4    -0.669217272735E+03   -0.10252E+01   -0.10252E+01  8424   0.153E+01 0.446E-02
CGA:   5    -0.669472092966E+03   -0.25482E+00   -0.25486E+00  8424   0.311E+00 0.571E-02
CGA:   6    -0.669535063445E+03   -0.62970E-01   -0.63002E-01  8424   0.738E-01-0.105E-02
CGA:   7    -0.669551148897E+03   -0.16085E-01   -0.16003E-01  8424   0.216E-01 0.183E-02
CGA:   8    -0.669556396773E+03   -0.52479E-02   -0.52056E-02  8424   0.633E-02 0.701E-03
CGA:   9    -0.669558206156E+03   -0.18094E-02   -0.18155E-02  8424   0.236E-02-0.645E-04
CGA:  10    -0.669558832499E+03   -0.62634E-03   -0.59380E-03  8424   0.910E-03 0.453E-03
CGA:  11    -0.669559186236E+03   -0.35374E-03   -0.33369E-03  8424   0.424E-03 0.163E-03
CGA:  12    -0.669559321282E+03   -0.13505E-03   -0.12405E-03  8424   0.223E-03 0.195E-03
CGA:  13    -0.669559404411E+03   -0.83129E-04   -0.76113E-04  8424   0.167E-03 0.183E-03
CGA:  14    -0.669559497519E+03   -0.93107E-04   -0.78447E-04  8424   0.169E-03 0.521E-04
CGA:  15    -0.669559583601E+03   -0.86082E-04   -0.68788E-04  8424   0.126E-03 0.171E-03
CGA:  16    -0.669559682649E+03   -0.99048E-04   -0.85013E-04  8424   0.200E-03 0.288E-04
CGA:  17    -0.669559750862E+03   -0.68214E-04   -0.64137E-04  8424   0.157E-03 0.180E-03
CGA:  18    -0.669559595808E+03    0.15505E-03   -0.10462E-03  8424   0.271E-02-0.334E-03
CGA:  19    -0.669559914133E+03   -0.31832E-03   -0.40485E-03  8424   0.450E-03 0.301E-03
CGA:  20    -0.669560063775E+03   -0.14964E-03   -0.14479E-03  8424   0.119E-03-0.373E-04
CGA:  21    -0.669560157015E+03   -0.93239E-04    0.90863E-03  8424   0.133E-03 0.592E-04
CGA:  22    -0.669560324366E+03   -0.16735E-03   -0.16352E-03  8424   0.600E-03-0.135E-05
CGA:  23    -0.669560864216E+03   -0.53985E-03    0.32759E-02  8424   0.122E-02 0.103E-03
CGA:  24    -0.669562359655E+03   -0.14954E-02    0.16232E-02  8424   0.295E-02-0.157E-03
CGA:  25    -0.669566239276E+03   -0.38796E-02    0.77743E-03  8424   0.212E-02-0.308E-02
CGA:  26    -0.669566694406E+03   -0.45513E-03   -0.50169E-03  8424   0.412E-03 0.232E-03
CGA:  27    -0.669566850509E+03   -0.15610E-03   -0.14118E-03  8424   0.364E-03-0.127E-03
CGA:  28    -0.669566858881E+03   -0.83722E-05   -0.41148E-04  8424   0.209E-03 0.127E-03
CGA:  29    -0.669566849533E+03    0.93479E-05   -0.30933E-04  8424   0.103E-03 0.134E-03
CGA:  30    -0.669566881844E+03   -0.32311E-04   -0.34569E-04  8424   0.554E-04 0.399E-04
CGA:  31    -0.669566883749E+03   -0.19051E-05   -0.14051E-04  8424   0.438E-04 0.580E-04
CGA:  32    -0.669566888517E+03   -0.47674E-05   -0.10305E-04  8424   0.363E-04 0.381E-04
   8 F= -.66956689E+03 E0= -.66956689E+03  d E =0.311408E+00  mag=     2.0000
       N       E                     dE             d eps       ncg     rms          ort
SDA:   1    -0.661128474236E+03    0.84384E+01    0.00000E+00  8424   0.280E+02 0.000E+00
CGA:   2    -0.666678540646E+03   -0.55501E+01   -0.55835E+01  8424   0.114E+02-0.246E-01
CGA:   3    -0.669075610843E+03   -0.23971E+01   -0.23912E+01  8424   0.358E+01 0.960E-02
CGA:   4    -0.669672908281E+03   -0.59730E+00   -0.59810E+00  8424   0.901E+00 0.194E-02
CGA:   5    -0.669825755154E+03   -0.15285E+00   -0.15324E+00  8424   0.189E+00 0.110E-02
CGA:   6    -0.669863327402E+03   -0.37572E-01   -0.37441E-01  8424   0.439E-01-0.927E-03
CGA:   7    -0.669872928377E+03   -0.96010E-02   -0.96701E-02  8424   0.131E-01 0.655E-03
CGA:   8    -0.669876081144E+03   -0.31528E-02   -0.31747E-02  8424   0.398E-02 0.267E-03
CGA:   9    -0.669877202220E+03   -0.11211E-02   -0.11217E-02  8424   0.148E-02 0.133E-04
CGA:  10    -0.669877636483E+03   -0.43426E-03   -0.43781E-03  8424   0.678E-03 0.175E-03
CGA:  11    -0.669877921711E+03   -0.28523E-03   -0.28370E-03  8424   0.438E-03 0.209E-04
CGA:  12    -0.669878045942E+03   -0.12423E-03   -0.12924E-03  8424   0.270E-03 0.163E-03
CGA:  13    -0.669878181425E+03   -0.13548E-03   -0.12979E-03  8424   0.253E-03 0.152E-03
CGA:  14    -0.669878270062E+03   -0.88637E-04   -0.87089E-04  8424   0.179E-03 0.548E-04
CGA:  15    -0.669878362483E+03   -0.92421E-04   -0.83489E-04  8424   0.155E-03 0.131E-03
CGA:  16    -0.669878413018E+03   -0.50534E-04   -0.50297E-04  8424   0.135E-03 0.578E-04
CGA:  17    -0.669878510322E+03   -0.97304E-04   -0.84403E-04  8424   0.197E-03 0.922E-04
CGA:  18    -0.669878542796E+03   -0.32474E-04   -0.40262E-04  8424   0.115E-03 0.626E-04
CGA:  19    -0.669878630712E+03   -0.87917E-04   -0.78974E-04  8424   0.186E-03 0.421E-04
CGA:  20    -0.669878824509E+03   -0.19380E-03   -0.14341E-03  8424   0.265E-03 0.200E-03
CGA:  21    -0.669878910197E+03   -0.85688E-04   -0.85785E-04  8424   0.188E-03 0.393E-05
CGA:  22    -0.669878960502E+03   -0.50305E-04   -0.51009E-04  8424   0.130E-03 0.798E-05
CGA:  23    -0.669879102536E+03   -0.14203E-03   -0.10162E-03  8424   0.159E-03 0.922E-04
CGA:  24    -0.669877439824E+03    0.16627E-02   -0.89710E-03  8424   0.161E-01-0.104E-02
CGA:  25    -0.669879099706E+03   -0.16599E-02   -0.19650E-02  8424   0.795E-03 0.608E-03
CGA:  26    -0.669879391735E+03   -0.29203E-03   -0.28783E-03  8424   0.226E-03-0.157E-04
CGA:  27    -0.669879497725E+03   -0.10599E-03   -0.74484E-04  8424   0.287E-03-0.114E-03
CGA:  28    -0.669879504246E+03   -0.65216E-05   -0.35280E-04  8424   0.547E-04 0.601E-04
CGA:  29    -0.669879520504E+03   -0.16258E-04   -0.22185E-04  8424   0.937E-04 0.239E-04
CGA:  30    -0.669879673128E+03   -0.15262E-03    0.11093E-01  8424   0.222E-03 0.654E-05
CGA:  31    -0.669880029767E+03   -0.35664E-03    0.20592E-03  8424   0.560E-03 0.707E-04
CGA:  32    -0.669881023666E+03   -0.99390E-03    0.10881E-02  8424   0.107E-02 0.557E-04
CGA:  33    -0.669883270731E+03   -0.22471E-02    0.48578E-03  8424   0.137E-02-0.137E-02
CGA:  34    -0.669883440000E+03   -0.16927E-03   -0.21026E-03  8424   0.192E-03 0.100E-03
CGA:  35    -0.669883473239E+03   -0.33239E-04   -0.47013E-04  8424   0.436E-04 0.434E-04
CGA:  36    -0.669883480897E+03   -0.76578E-05   -0.12256E-04  8424   0.224E-04 0.153E-04
   9 F= -.66988348E+03 E0= -.66988348E+03  d E =-.316592E+00  mag=     2.0000
       N       E                     dE             d eps       ncg     rms          ort
SDA:   1    -0.669792874776E+03    0.90598E-01    0.00000E+00  8424   0.315E+00 0.000E+00
CGA:   2    -0.669856046844E+03   -0.63172E-01   -0.63214E-01  8424   0.133E+00 0.923E-04
CGA:   3    -0.669884840453E+03   -0.28794E-01   -0.28818E-01  8424   0.438E-01 0.694E-04
CGA:   4    -0.669891863085E+03   -0.70226E-02   -0.70448E-02  8424   0.100E-01 0.675E-04
CGA:   5    -0.669893547920E+03   -0.16848E-02   -0.17011E-02  8424   0.206E-02 0.563E-04
CGA:   6    -0.669893955294E+03   -0.40737E-03   -0.41620E-03  8424   0.479E-03 0.369E-04
CGA:   7    -0.669894048966E+03   -0.93672E-04   -0.10144E-03  8424   0.136E-03 0.356E-04
CGA:   8    -0.669894071608E+03   -0.22642E-04   -0.30143E-04  8424   0.441E-04 0.360E-04
CGA:   9    -0.669894072443E+03   -0.83503E-06   -0.85975E-05  8424   0.235E-04 0.310E-04
  10 F= -.66989407E+03 E0= -.66989407E+03  d E =-.105915E-01  mag=     2.0000
       N       E                     dE             d eps       ncg     rms          ort
SDA:   1    -0.667225053429E+03    0.26690E+01    0.00000E+00  8424   0.795E+01 0.000E+00
CGA:   2    -0.668877722539E+03   -0.16527E+01   -0.16575E+01  8424   0.352E+01-0.217E-02
CGA:   3    -0.669622980234E+03   -0.74526E+00   -0.74436E+00  8424   0.107E+01 0.801E-03
CGA:   4    -0.669795335784E+03   -0.17236E+00   -0.17240E+00  8424   0.243E+00 0.167E-03
CGA:   5    -0.669836521379E+03   -0.41186E-01   -0.41273E-01  8424   0.513E-01 0.362E-03
CGA:   6    -0.669847035249E+03   -0.10514E-01   -0.10493E-01  8424   0.120E-01-0.150E-03
CGA:   7    -0.669849660627E+03   -0.26254E-02   -0.26170E-02  8424   0.343E-02-0.740E-04
CGA:   8    -0.669850546065E+03   -0.88544E-03   -0.87270E-03  8424   0.109E-02-0.174E-03
CGA:   9    -0.669850886212E+03   -0.34015E-03   -0.34116E-03  8424   0.561E-03-0.272E-03
CGA:  10    -0.669851043768E+03   -0.15756E-03   -0.18578E-03  8424   0.498E-03-0.246E-03
CGA:  11    -0.669851234539E+03   -0.19077E-03    0.15466E-02  8424   0.244E-03-0.134E-03
CGA:  12    -0.669851366268E+03   -0.13173E-03    0.25496E-03  8424   0.146E-03-0.245E-04
CGA:  13    -0.669851526042E+03   -0.15977E-03    0.26322E-04  8424   0.935E-04 0.774E-05
CGA:  14    -0.669851663262E+03   -0.13722E-03    0.14845E-04  8424   0.516E-04 0.271E-04
CGA:  15    -0.669851773457E+03   -0.11019E-03    0.73856E-05  8424   0.308E-04 0.182E-04
CGA:  16    -0.669851884319E+03   -0.11086E-03    0.23028E-05  8424   0.205E-04 0.129E-04
CGA:  17    -0.669851983687E+03   -0.99368E-04    0.11623E-05  8424   0.181E-04 0.134E-04
CGA:  18    -0.669852027220E+03   -0.43534E-04    0.11499E-05  8424   0.112E-04 0.751E-05
CGA:  19    -0.669852081523E+03   -0.54303E-04    0.62463E-06  8424   0.109E-04 0.101E-04
CGA:  20    -0.669852123842E+03   -0.42319E-04    0.37067E-06  8424   0.113E-04 0.496E-05
CGA:  21    -0.669852191030E+03   -0.67188E-04    0.52597E-06  8424   0.986E-05 0.117E-04
CGA:  22    -0.669852228699E+03   -0.37670E-04    0.34413E-06  8424   0.807E-05 0.549E-05
CGA:  23    -0.669852257706E+03   -0.29007E-04    0.30343E-06  8424   0.111E-04 0.409E-05
CGA:  24    -0.669852299929E+03   -0.42223E-04    0.38709E-06  8424   0.242E-04-0.265E-05
CGA:  25    -0.669852408826E+03   -0.10890E-03    0.38461E-06  8424   0.364E-04 0.169E-04
CGA:  26    -0.669852415039E+03   -0.62134E-05   -0.54188E-05  8424   0.944E-05-0.438E-05
  11 F= -.66985242E+03 E0= -.66985242E+03  d E =0.416574E-01  mag=     2.0000
       N       E                     dE             d eps       ncg     rms          ort
SDA:   1    -0.669017568649E+03    0.83484E+00    0.00000E+00  8424   0.237E+01 0.000E+00
CGA:   2    -0.669539066934E+03   -0.52150E+00   -0.52169E+00  8424   0.108E+01 0.129E-03
CGA:   3    -0.669760102532E+03   -0.22104E+00   -0.22100E+00  8424   0.323E+00-0.223E-03
CGA:   4    -0.669812571274E+03   -0.52469E-01   -0.52493E-01  8424   0.766E-01 0.123E-03
CGA:   5    -0.669825501172E+03   -0.12930E-01   -0.12960E-01  8424   0.152E-01 0.210E-03
CGA:   6    -0.669828572979E+03   -0.30718E-02   -0.30698E-02  8424   0.362E-02-0.236E-04
CGA:   7    -0.669829425198E+03   -0.85222E-03   -0.84373E-03  8424   0.120E-02-0.143E-03
CGA:   8    -0.669829745084E+03   -0.31989E-03   -0.31766E-03  8424   0.471E-03-0.158E-03
CGA:   9    -0.669829876003E+03   -0.13092E-03   -0.19975E-03  8424   0.707E-03-0.347E-03
CGA:  10    -0.669830009250E+03   -0.13325E-03   -0.13087E-03  8424   0.129E-03-0.211E-04
CGA:  11    -0.669830090648E+03   -0.81398E-04    0.16499E-03  8424   0.465E-04 0.100E-04
CGA:  12    -0.669830153879E+03   -0.63231E-04    0.63870E-05  8424   0.299E-04 0.261E-04
CGA:  13    -0.669830205229E+03   -0.51350E-04    0.22864E-05  8424   0.229E-04 0.173E-04
CGA:  14    -0.669830240116E+03   -0.34887E-04    0.20940E-05  8424   0.231E-04 0.158E-04
CGA:  15    -0.669830294185E+03   -0.54069E-04    0.11327E-05  8424   0.280E-04 0.121E-04
CGA:  16    -0.669830313944E+03   -0.19759E-04    0.20071E-04  8424   0.447E-04 0.158E-05
CGA:  17    -0.669830422827E+03   -0.10888E-03    0.23659E-05  8424   0.371E-04 0.445E-04
CGA:  18    -0.669830488617E+03   -0.65790E-04    0.27016E-05  8424   0.740E-04-0.184E-04
CGA:  19    -0.669830608990E+03   -0.12037E-03    0.12247E-05  8424   0.142E-03 0.270E-04
CGA:  20    -0.669830813471E+03   -0.20448E-03    0.35337E-04  8424   0.189E-03-0.194E-04
CGA:  21    -0.669831218038E+03   -0.40457E-03    0.74076E-05  8424   0.963E-04 0.123E-03
CGA:  22    -0.669831297106E+03   -0.79068E-04    0.35335E-04  8424   0.253E-03-0.133E-03
CGA:  23    -0.669831300532E+03   -0.34259E-05   -0.19768E-04  8424   0.282E-04 0.761E-04
  12 F= -.66983130E+03 E0= -.66983130E+03  d E =0.211145E-01  mag=     2.0000
       N       E                     dE             d eps       ncg     rms          ort
SDA:   1    -0.648659864022E+03    0.21171E+02    0.00000E+00  8424   0.694E+02 0.000E+00
CGA:   2    -0.661638057668E+03   -0.12978E+02   -0.13070E+02  8424   0.271E+02 0.142E+00
CGA:   3    -0.667662175687E+03   -0.60241E+01   -0.60175E+01  8424   0.897E+01-0.448E-01
CGA:   4    -0.669131334147E+03   -0.14692E+01   -0.14706E+01  8424   0.214E+01 0.235E-02
CGA:   5    -0.669488039483E+03   -0.35671E+00   -0.35733E+00  8424   0.450E+00 0.268E-02
CGA:   6    -0.669580257378E+03   -0.92218E-01   -0.92127E-01  8424   0.106E+00-0.164E-02
CGA:   7    -0.669603058279E+03   -0.22801E-01   -0.22843E-01  8424   0.295E-01 0.116E-02
CGA:   8    -0.669610183101E+03   -0.71248E-02   -0.71317E-02  8424   0.853E-02 0.538E-03
CGA:   9    -0.669612614180E+03   -0.24311E-02   -0.24487E-02  8424   0.316E-02-0.568E-03
CGA:  10    -0.669613507570E+03   -0.89339E-03   -0.89769E-03  8424   0.144E-02-0.843E-04
CGA:  11    -0.669613939830E+03   -0.43226E-03   -0.76316E-03  8424   0.231E-02-0.115E-02
CGA:  12    -0.669614278025E+03   -0.33819E-03   -0.36377E-03  8424   0.382E-03 0.228E-03
CGA:  13    -0.669612141297E+03    0.21367E-02   -0.11511E-02  8424   0.134E-01-0.204E-02
CGA:  14    -0.669614463213E+03   -0.23219E-02   -0.24311E-02  8424   0.257E-02 0.362E-03
CGA:  15    -0.669615185611E+03   -0.72240E-03   -0.63159E-03  8424   0.435E-03-0.400E-03
CGA:  16    -0.669615335743E+03   -0.15013E-03   -0.13580E-03  8424   0.345E-03-0.169E-03
CGA:  17    -0.669615532588E+03   -0.19685E-03    0.12568E-02  8424   0.643E-03-0.252E-03
CGA:  18    -0.669615676659E+03   -0.14407E-03   -0.11230E-03  8424   0.210E-03-0.115E-03
CGA:  19    -0.669615846197E+03   -0.16954E-03    0.29328E-03  8424   0.203E-03-0.101E-03
CGA:  20    -0.669616144365E+03   -0.29817E-03    0.10178E-04  8424   0.243E-03-0.495E-04
CGA:  21    -0.669616574509E+03   -0.43014E-03    0.24060E-04  8424   0.240E-03-0.301E-04
CGA:  22    -0.669617213461E+03   -0.63895E-03    0.18515E-04  8424   0.262E-03-0.119E-04
CGA:  23    -0.669617899675E+03   -0.68621E-03    0.25360E-04  8424   0.289E-03-0.610E-04
CGA:  24    -0.669618843265E+03   -0.94359E-03    0.12517E-04  8424   0.300E-03-0.563E-04
CGA:  25    -0.669619845837E+03   -0.10026E-02    0.14065E-04  8424   0.258E-03-0.133E-04
CGA:  26    -0.669620865368E+03   -0.10195E-02    0.14449E-04  8424   0.368E-03-0.724E-04
CGA:  27    -0.669622238724E+03   -0.13734E-02    0.11692E-04  8424   0.419E-03-0.206E-03
CGA:  28    -0.669622340012E+03   -0.10129E-03   -0.80083E-04  8424   0.215E-03-0.865E-04
CGA:  29    -0.669622386363E+03   -0.46351E-04   -0.43960E-04  8424   0.226E-04-0.144E-04
CGA:  30    -0.669622428256E+03   -0.41893E-04    0.31807E-05  8424   0.185E-04-0.396E-05
CGA:  31    -0.669622475167E+03   -0.46911E-04    0.11843E-05  8424   0.393E-04-0.990E-05
CGA:  32    -0.669622489945E+03   -0.14778E-04   -0.96775E-05  8424   0.466E-04-0.300E-04
CGA:  33    -0.669622504821E+03   -0.14875E-04   -0.86217E-05  8424   0.258E-04-0.281E-04
CGA:  34    -0.669622513612E+03   -0.87910E-05   -0.52535E-05  8424   0.224E-04-0.184E-04
CGA:  35    -0.669622532312E+03   -0.18700E-04    0.54640E-04  8424   0.149E-03-0.512E-04
CGA:  36    -0.669622545380E+03   -0.13069E-04   -0.14941E-04  8424   0.248E-05 0.661E-05
CGA:  37    -0.669622567866E+03   -0.22485E-04    0.45169E-07  8424   0.512E-05 0.118E-05
CGA:  38    -0.669622632929E+03   -0.65063E-04    0.13397E-06  8424   0.202E-05 0.606E-05
CGA:  39    -0.669622647004E+03   -0.14075E-04    0.45219E-07  8424   0.290E-05 0.127E-05
CGA:  40    -0.669622677366E+03   -0.30362E-04    0.41516E-07  8424   0.871E-05-0.120E-05
CGA:  41    -0.669622757544E+03   -0.80179E-04    0.47781E-07  8424   0.237E-04 0.327E-05
CGA:  42    -0.669622942694E+03   -0.18515E-03    0.91815E-06  8424   0.355E-04-0.389E-05
CGA:  43    -0.669623301221E+03   -0.35853E-03    0.36473E-06  8424   0.685E-05 0.123E-04
CGA:  44    -0.669623396219E+03   -0.94998E-04    0.13382E-06  8424   0.321E-04-0.983E-05
CGA:  45    -0.669623391986E+03    0.42330E-05   -0.16235E-05  8424   0.105E-04 0.182E-04
  13 F= -.66962339E+03 E0= -.66962339E+03  d E =0.207909E+00  mag=     2.0000
       N       E                     dE             d eps       ncg     rms          ort
SDA:   1    -0.667263828027E+03    0.23596E+01    0.00000E+00  8424   0.792E+01 0.000E+00
CGA:   2    -0.668898448049E+03   -0.16346E+01   -0.16368E+01  8424   0.337E+01 0.335E-02
CGA:   3    -0.669605392066E+03   -0.70694E+00   -0.70645E+00  8424   0.104E+01-0.105E-02
CGA:   4    -0.669774124180E+03   -0.16873E+00   -0.16889E+00  8424   0.250E+00 0.326E-03
CGA:   5    -0.669817425556E+03   -0.43301E-01   -0.43370E-01  8424   0.538E-01 0.364E-03
CGA:   6    -0.669828257242E+03   -0.10832E-01   -0.10784E-01  8424   0.122E-01-0.427E-03
CGA:   7    -0.669830896223E+03   -0.26390E-02   -0.26498E-02  8424   0.355E-02 0.120E-03
CGA:   8    -0.669831768851E+03   -0.87263E-03   -0.87416E-03  8424   0.106E-02 0.256E-04
CGA:   9    -0.669832070070E+03   -0.30122E-03   -0.30053E-03  8424   0.385E-03-0.415E-04
CGA:  10    -0.669832171589E+03   -0.10152E-03   -0.10261E-03  8424   0.151E-03 0.519E-04
CGA:  11    -0.669832239221E+03   -0.67631E-04   -0.70640E-04  8424   0.107E-03-0.273E-04
CGA:  12    -0.669832252197E+03   -0.12976E-04   -0.17192E-04  8424   0.591E-04 0.389E-04
CGA:  13    -0.669832261962E+03   -0.97651E-05   -0.14401E-04  8424   0.363E-04 0.383E-04
CGA:  14    -0.669832277822E+03   -0.15860E-04   -0.14674E-04  8424   0.299E-04 0.103E-04
CGA:  15    -0.669832275851E+03    0.19713E-05   -0.42687E-05  8424   0.226E-04 0.333E-04
  14 F= -.66983228E+03 E0= -.66983228E+03  d E =-.208884E+00  mag=     2.0000
       N       E                     dE             d eps       ncg     rms          ort
SDA:   1    -0.668250625765E+03    0.15817E+01    0.00000E+00  8424   0.507E+01 0.000E+00
CGA:   2    -0.669289649731E+03   -0.10390E+01   -0.10397E+01  8424   0.217E+01 0.410E-02
CGA:   3    -0.669750226467E+03   -0.46058E+00   -0.46050E+00  8424   0.682E+00-0.834E-03
CGA:   4    -0.669860061162E+03   -0.10983E+00   -0.10992E+00  8424   0.160E+00 0.600E-03
CGA:   5    -0.669887489531E+03   -0.27428E-01   -0.27496E-01  8424   0.335E-01 0.680E-03
CGA:   6    -0.669894249340E+03   -0.67598E-02   -0.67637E-02  8424   0.767E-02 0.604E-04
CGA:   7    -0.669895841601E+03   -0.15923E-02   -0.16097E-02  8424   0.210E-02 0.356E-03
CGA:   8    -0.669896298146E+03   -0.45655E-03   -0.47069E-03  8424   0.563E-03 0.338E-03
CGA:   9    -0.669896398856E+03   -0.10071E-03   -0.11882E-03  8424   0.197E-03 0.250E-03
CGA:  10    -0.669896404759E+03   -0.59037E-05   -0.32029E-04  8424   0.118E-03 0.189E-03
  15 F= -.66989640E+03 E0= -.66989640E+03  d E =-.641289E-01  mag=     2.0000
       N       E                     dE             d eps       ncg     rms          ort
SDA:   1    -0.669752451165E+03    0.14395E+00    0.00000E+00  8424   0.419E+00 0.000E+00
CGA:   2    -0.669848869087E+03   -0.96418E-01   -0.96421E-01  8424   0.203E+00 0.461E-03
CGA:   3    -0.669889115378E+03   -0.40246E-01   -0.40258E-01  8424   0.535E-01 0.285E-03
CGA:   4    -0.669897639310E+03   -0.85239E-02   -0.85507E-02  8424   0.123E-01 0.356E-03
CGA:   5    -0.669899707549E+03   -0.20682E-02   -0.20910E-02  8424   0.259E-02 0.373E-03
CGA:   6    -0.669900189577E+03   -0.48203E-03   -0.49460E-03  8424   0.567E-03 0.302E-03
CGA:   7    -0.669900269074E+03   -0.79497E-04   -0.96270E-04  8424   0.179E-03 0.231E-03
CGA:   8    -0.669900272913E+03   -0.38395E-05   -0.24245E-04  8424   0.101E-03 0.163E-03
  16 F= -.66990027E+03 E0= -.66990027E+03  d E =-.386815E-02  mag=     2.0000
       N       E                     dE             d eps       ncg     rms          ort
SDA:   1    -0.666882993019E+03    0.30173E+01    0.00000E+00  8424   0.762E+01 0.000E+00
CGA:   2    -0.668957748330E+03   -0.20748E+01   -0.20739E+01  8424   0.393E+01 0.915E-02
CGA:   3    -0.669672675157E+03   -0.71493E+00   -0.71477E+00  8424   0.867E+00-0.218E-02
CGA:   4    -0.669813681644E+03   -0.14101E+00   -0.14103E+00  8424   0.207E+00 0.471E-03
CGA:   5    -0.669849364126E+03   -0.35682E-01   -0.35712E-01  8424   0.449E-01 0.772E-03
CGA:   6    -0.669858447095E+03   -0.90830E-02   -0.90840E-02  8424   0.104E-01 0.304E-03
CGA:   7    -0.669860818995E+03   -0.23719E-02   -0.23725E-02  8424   0.329E-02-0.279E-04
CGA:   8    -0.669861647751E+03   -0.82876E-03   -0.82682E-03  8424   0.112E-02 0.418E-04
CGA:   9    -0.669861960065E+03   -0.31231E-03   -0.30574E-03  8424   0.413E-03 0.108E-03
CGA:  10    -0.669862075629E+03   -0.11556E-03   -0.11079E-03  8424   0.159E-03 0.143E-03
CGA:  11    -0.669862114767E+03   -0.39138E-04   -0.41290E-04  8424   0.712E-04 0.105E-03
CGA:  12    -0.669862125694E+03   -0.10927E-04   -0.12656E-04  8424   0.436E-04 0.502E-04
CGA:  13    -0.669862128419E+03   -0.27244E-05   -0.58285E-05  8424   0.378E-04 0.404E-04
  17 F= -.66986213E+03 E0= -.66986213E+03  d E =0.381445E-01  mag=     2.0000
       N       E                     dE             d eps       ncg     rms          ort
SDA:   1    -0.633899472987E+03    0.35963E+02    0.00000E+00  8424   0.143E+03 0.000E+00
CGA:   2    -0.655818078939E+03   -0.21919E+02   -0.22263E+02  8424   0.417E+02 0.183E+01
CGA:   3    -0.665934887273E+03   -0.10117E+02   -0.10130E+02  8424   0.152E+02-0.278E+00
CGA:   4    -0.668499031660E+03   -0.25641E+01   -0.25661E+01  8424   0.392E+01 0.177E-01
CGA:   5    -0.669133078892E+03   -0.63405E+00   -0.63496E+00  8424   0.793E+00 0.897E-02
CGA:   6    -0.669303470998E+03   -0.17039E+00   -0.17042E+00  8424   0.209E+00-0.186E-02
CGA:   7    -0.669349676875E+03   -0.46206E-01   -0.46177E-01  8424   0.635E-01 0.122E-02
CGA:   8    -0.669364896754E+03   -0.15220E-01   -0.15212E-01  8424   0.188E-01 0.194E-03
CGA:   9    -0.669370248177E+03   -0.53514E-02   -0.54904E-02  8424   0.749E-02-0.157E-02
CGA:  10    -0.669372390059E+03   -0.21419E-02   -0.22951E-02  8424   0.402E-02-0.120E-02
CGA:  11    -0.669372926176E+03   -0.53612E-03   -0.20312E-02  8424   0.817E-02-0.386E-02
CGA:  12    -0.669374253880E+03   -0.13277E-02   -0.13476E-02  8424   0.137E-02 0.293E-03
CGA:  13    -0.669372716436E+03    0.15374E-02   -0.14730E-02  8424   0.156E-01-0.374E-02
CGA:  14    -0.669375084005E+03   -0.23676E-02   -0.24235E-02  8424   0.237E-02 0.495E-03
CGA:  15    -0.669375845078E+03   -0.76107E-03   -0.86438E-03  8424   0.109E-02-0.114E-02
CGA:  16    -0.669376150172E+03   -0.30509E-03    0.55591E-02  8424   0.508E-03-0.819E-04
CGA:  17    -0.669376491174E+03   -0.34100E-03    0.17888E-03  8424   0.182E-03 0.374E-04
CGA:  18    -0.669376791952E+03   -0.30078E-03    0.13971E-04  8424   0.111E-03 0.578E-04
CGA:  19    -0.669377099459E+03   -0.30751E-03    0.67791E-05  8424   0.754E-04 0.615E-04
CGA:  20    -0.669377257771E+03   -0.15831E-03    0.34698E-05  8424   0.505E-04 0.430E-04
CGA:  21    -0.669377408781E+03   -0.15101E-03    0.14777E-05  8424   0.538E-04 0.333E-04
CGA:  22    -0.669377549631E+03   -0.14085E-03    0.18552E-05  8424   0.671E-04 0.220E-04
CGA:  23    -0.669377880162E+03   -0.33053E-03    0.22972E-05  8424   0.479E-04 0.896E-04
CGA:  24    -0.669378022859E+03   -0.14270E-03    0.14098E-05  8424   0.606E-04 0.217E-04
CGA:  25    -0.669378341595E+03   -0.31874E-03    0.20550E-05  8424   0.423E-04 0.836E-04
CGA:  26    -0.669378475300E+03   -0.13370E-03    0.11619E-05  8424   0.509E-04 0.238E-04
CGA:  27    -0.669378610957E+03   -0.13566E-03    0.17171E-05  8424   0.745E-04 0.790E-05
CGA:  28    -0.669378942788E+03   -0.33183E-03    0.18659E-05  8424   0.596E-04 0.831E-04
CGA:  29    -0.669379065942E+03   -0.12315E-03    0.27978E-05  8424   0.983E-04-0.110E-04
CGA:  30    -0.669379408498E+03   -0.34256E-03    0.15426E-05  8424   0.116E-03 0.764E-04
CGA:  31    -0.669379525581E+03   -0.11708E-03    0.17803E-04  8424   0.242E-03-0.105E-03
CGA:  32    -0.669379565360E+03   -0.39779E-04   -0.87810E-04  8424   0.139E-02-0.507E-03
CGA:  33    -0.669379766239E+03   -0.20088E-03   -0.16775E-03  8424   0.751E-04-0.218E-03
CGA:  34    -0.669379889307E+03   -0.12307E-03    0.31544E-05  8424   0.655E-04-0.445E-06
CGA:  35    -0.669380126710E+03   -0.23740E-03    0.14707E-05  8424   0.297E-04 0.539E-04
CGA:  36    -0.669380243265E+03   -0.11655E-03    0.61743E-06  8424   0.333E-04 0.220E-04
CGA:  37    -0.669380359021E+03   -0.11576E-03    0.79642E-06  8424   0.431E-04 0.150E-04
CGA:  38    -0.669380625846E+03   -0.26682E-03    0.11787E-05  8424   0.300E-04 0.599E-04
CGA:  39    -0.669380736770E+03   -0.11092E-03    0.66741E-06  8424   0.367E-04 0.166E-04
CGA:  40    -0.669380847558E+03   -0.11079E-03    0.10383E-05  8424   0.541E-04 0.480E-05
CGA:  41    -0.669381123115E+03   -0.27556E-03    0.10845E-05  8424   0.449E-04 0.595E-04
CGA:  42    -0.669381225764E+03   -0.10265E-03    0.17973E-05  8424   0.746E-04-0.110E-04
CGA:  43    -0.669381508583E+03   -0.28282E-03    0.88207E-06  8424   0.952E-04 0.537E-04
CGA:  44    -0.669381605798E+03   -0.97215E-04    0.13657E-04  8424   0.195E-03-0.916E-04
CGA:  45    -0.669381601628E+03    0.41704E-05   -0.84459E-04  8424   0.176E-02-0.529E-03
CGA:  46    -0.669381831431E+03   -0.22980E-03   -0.20294E-03  8424   0.419E-04-0.170E-03
CGA:  47    -0.669381933954E+03   -0.10252E-03    0.12298E-05  8424   0.433E-04 0.291E-05
CGA:  48    -0.669382142332E+03   -0.20838E-03    0.82499E-06  8424   0.242E-04 0.425E-04
CGA:  49    -0.669382240849E+03   -0.98517E-04    0.48137E-06  8424   0.301E-04 0.117E-04
CGA:  50    -0.669382460197E+03   -0.21935E-03    0.72468E-06  8424   0.216E-04 0.427E-04
CGA:  51    -0.669382553320E+03   -0.93124E-04    0.40296E-06  8424   0.246E-04 0.134E-04
CGA:  52    -0.669382648239E+03   -0.94919E-04    0.52018E-06  8424   0.328E-04 0.768E-05
CGA:  53    -0.669382867005E+03   -0.21877E-03    0.66834E-06  8424   0.244E-04 0.413E-04
CGA:  54    -0.669382954566E+03   -0.87561E-04    0.56335E-06  8424   0.320E-04 0.612E-05
CGA:  55    -0.669383164192E+03   -0.20963E-03    0.60191E-06  8424   0.252E-04 0.379E-04
CGA:  56    -0.669383254036E+03   -0.89845E-04    0.58788E-06  8424   0.307E-04 0.445E-05
CGA:  57    -0.669383447350E+03   -0.19331E-03    0.52853E-06  8424   0.264E-04 0.328E-04
CGA:  58    -0.669383529992E+03   -0.82642E-04    0.71627E-06  8424   0.256E-04 0.477E-05
CGA:  59    -0.669383696666E+03   -0.16667E-03    0.42864E-06  8424   0.242E-04 0.260E-04
CGA:  60    -0.669383781769E+03   -0.85103E-04    0.57029E-06  8424   0.170E-04 0.909E-05
CGA:  61    -0.669383920245E+03   -0.13848E-03    0.30827E-06  8424   0.194E-04 0.215E-04
CGA:  62    -0.669384000969E+03   -0.80724E-04    0.37597E-06  8424   0.140E-04 0.117E-04
CGA:  63    -0.669384080585E+03   -0.79616E-04    0.19061E-06  8424   0.132E-04 0.130E-04
CGA:  64    -0.669384158938E+03   -0.78352E-04    0.17287E-06  8424   0.129E-04 0.130E-04
CGA:  65    -0.669384237036E+03   -0.78098E-04    0.16580E-06  8424   0.127E-04 0.128E-04
CGA:  66    -0.669384313879E+03   -0.76843E-04    0.16259E-06  8424   0.125E-04 0.126E-04
CGA:  67    -0.669384390689E+03   -0.76810E-04    0.15704E-06  8424   0.123E-04 0.123E-04
CGA:  68    -0.669384465701E+03   -0.75013E-04    0.15597E-06  8424   0.121E-04 0.121E-04
CGA:  69    -0.669384541665E+03   -0.75964E-04    0.14986E-06  8424   0.121E-04 0.118E-04
CGA:  70    -0.669384613841E+03   -0.72176E-04    0.15810E-06  8424   0.126E-04 0.112E-04
CGA:  71    -0.669384690271E+03   -0.76430E-04    0.16020E-06  8424   0.145E-04 0.985E-05
CGA:  72    -0.669384756683E+03   -0.66412E-04    0.25407E-06  8424   0.212E-04 0.578E-05
CGA:  73    -0.669384936807E+03   -0.18012E-03    0.37859E-06  8424   0.132E-04 0.281E-04
CGA:  74    -0.669385012440E+03   -0.75632E-04    0.17870E-06  8424   0.174E-04 0.669E-05
CGA:  75    -0.669385070913E+03   -0.58473E-04    0.43207E-06  8424   0.297E-04-0.929E-06
CGA:  76    -0.669385257348E+03   -0.18643E-03    0.32485E-06  8424   0.307E-04 0.273E-04
CGA:  77    -0.669385338665E+03   -0.81317E-04    0.10218E-05  8424   0.638E-04-0.235E-04
CGA:  78    -0.669385090294E+03    0.24837E-03   -0.61103E-04  8424   0.386E-02-0.447E-03
CGA:  79    -0.669385602345E+03   -0.51205E-03   -0.43498E-03  8424   0.583E-04-0.413E-03
CGA:  80    -0.669385646975E+03   -0.44631E-04    0.16069E-04  8424   0.117E-03-0.543E-04
CGA:  81    -0.669385722668E+03   -0.75692E-04    0.15303E-03  8424   0.378E-03-0.191E-03
CGA:  82    -0.669385762363E+03   -0.39696E-04   -0.39610E-04  8424   0.913E-05-0.503E-06
CGA:  83    -0.669385829811E+03   -0.67447E-04    0.10578E-06  8424   0.906E-05 0.863E-05
CGA:  84    -0.669385895586E+03   -0.65775E-04    0.10746E-06  8424   0.960E-05 0.772E-05
CGA:  85    -0.669385957821E+03   -0.62235E-04    0.12875E-06  8424   0.113E-04 0.642E-05
CGA:  86    -0.669386023401E+03   -0.65579E-04    0.17265E-06  8424   0.164E-04 0.313E-05
CGA:  87    -0.669386178488E+03   -0.15509E-03    0.24388E-06  8424   0.117E-04 0.201E-04
CGA:  88    -0.669386235233E+03   -0.56745E-04    0.21765E-06  8424   0.169E-04 0.166E-05
CGA:  89    -0.669386384420E+03   -0.14919E-03    0.21461E-06  8424   0.140E-04 0.184E-04
CGA:  90    -0.669386447731E+03   -0.63310E-04    0.28113E-06  8424   0.196E-04-0.177E-05
CGA:  91    -0.669386587522E+03   -0.13979E-03    0.17914E-06  8424   0.205E-04 0.156E-04
CGA:  92    -0.669386637192E+03   -0.49670E-04    0.87869E-06  8424   0.246E-04-0.842E-05
CGA:  93    -0.669386761512E+03   -0.12432E-03    0.14416E-06  8424   0.273E-04 0.114E-04
CGA:  94    -0.669386962019E+03   -0.20051E-03    0.71408E-06  8424   0.261E-04 0.733E-05
CGA:  95    -0.669387193632E+03   -0.23161E-03    0.40827E-06  8424   0.208E-04 0.194E-04
CGA:  96    -0.669387243132E+03   -0.49501E-04    0.90508E-06  8424   0.117E-04-0.431E-05
CGA:  97    -0.669387323792E+03   -0.80660E-04    0.91156E-07  8424   0.974E-05 0.868E-05
CGA:  98    -0.669387370983E+03   -0.47190E-04    0.18064E-06  8424   0.615E-05 0.329E-05
CGA:  99    -0.669387449595E+03   -0.78612E-04    0.72599E-07  8424   0.723E-05 0.777E-05
CGA: 100    -0.669387497683E+03   -0.48089E-04    0.94236E-07  8424   0.520E-05 0.441E-05
CGA: 101    -0.669387544162E+03   -0.46479E-04    0.49271E-07  8424   0.493E-05 0.488E-05
CGA: 102    -0.669387590183E+03   -0.46021E-04    0.44627E-07  8424   0.483E-05 0.486E-05
CGA: 103    -0.669387636035E+03   -0.45852E-04    0.42938E-07  8424   0.475E-05 0.478E-05
CGA: 104    -0.669387681024E+03   -0.44988E-04    0.42281E-07  8424   0.467E-05 0.470E-05
CGA: 105    -0.669387726133E+03   -0.45110E-04    0.40741E-07  8424   0.460E-05 0.462E-05
CGA: 106    -0.669387769990E+03   -0.43857E-04    0.40617E-07  8424   0.453E-05 0.453E-05
CGA: 107    -0.669387814505E+03   -0.44514E-04    0.38819E-07  8424   0.449E-05 0.444E-05
CGA: 108    -0.669387856913E+03   -0.42409E-04    0.40098E-07  8424   0.452E-05 0.430E-05
CGA: 109    -0.669387901237E+03   -0.44323E-04    0.38823E-07  8424   0.479E-05 0.404E-05
CGA: 110    -0.669387941390E+03   -0.40153E-04    0.48520E-07  8424   0.580E-05 0.336E-05
CGA: 111    -0.669387986330E+03   -0.44940E-04    0.63977E-07  8424   0.921E-05 0.134E-05
CGA: 112    -0.669388095003E+03   -0.10867E-03    0.99858E-07  8424   0.635E-05 0.109E-04
CGA: 113    -0.669388129142E+03   -0.34139E-04    0.10476E-06  8424   0.115E-04-0.317E-06
CGA: 114    -0.669388240908E+03   -0.11177E-03    0.88965E-07  8424   0.117E-04 0.105E-04
CGA: 115    -0.669388289250E+03   -0.48342E-04    0.26077E-06  8424   0.293E-04-0.106E-04
CGA: 116    -0.669388274481E+03    0.14769E-04   -0.16299E-04  8424   0.536E-03-0.113E-03
CGA: 117    -0.669388382207E+03   -0.10773E-03   -0.75088E-04  8424   0.898E-04-0.210E-03
CGA: 118    -0.669387693169E+03    0.68904E-03   -0.37466E-03  8424   0.866E-02-0.502E-03
CGA: 119    -0.669388681306E+03   -0.98814E-03   -0.88633E-03  8424   0.122E-04-0.271E-03
CGA: 120    -0.669388715558E+03   -0.34252E-04    0.15800E-05  8424   0.126E-03-0.289E-04
CGA: 121    -0.669388762082E+03   -0.46524E-04   -0.21022E-04  8424   0.531E-04-0.756E-04
CGA: 122    -0.669388771485E+03   -0.94036E-05   -0.65571E-05  8424   0.526E-05-0.783E-05
  18 F= -.66938877E+03 E0= -.66938877E+03  d E =0.473357E+00  mag=     2.0000
       N       E                     dE             d eps       ncg     rms          ort
SDA:   1    -0.660138841173E+03    0.92499E+01    0.00000E+00  8424   0.329E+02 0.000E+00
CGA:   2    -0.666203130958E+03   -0.60643E+01   -0.62764E+01  8424   0.130E+02-0.406E+00
CGA:   3    -0.668974748284E+03   -0.27716E+01   -0.27496E+01  8424   0.379E+01 0.114E+00
CGA:   4    -0.669626287287E+03   -0.65154E+00   -0.65353E+00  8424   0.964E+00 0.704E-02
CGA:   5    -0.669786278437E+03   -0.15999E+00   -0.16082E+00  8424   0.206E+00-0.601E-03
CGA:   6    -0.669828163985E+03   -0.41886E-01   -0.41756E-01  8424   0.474E-01-0.363E-03
CGA:   7    -0.669838799427E+03   -0.10635E-01   -0.10673E-01  8424   0.141E-01 0.190E-03
CGA:   8    -0.669842135249E+03   -0.33358E-02   -0.33569E-02  8424   0.426E-02 0.132E-03
CGA:   9    -0.669843354135E+03   -0.12189E-02   -0.12025E-02  8424   0.159E-02-0.152E-03
CGA:  10    -0.669843816619E+03   -0.46248E-03   -0.46250E-03  8424   0.699E-03-0.312E-06
CGA:  11    -0.669844084566E+03   -0.26795E-03   -0.26907E-03  8424   0.456E-03-0.186E-03
CGA:  12    -0.669844178083E+03   -0.93517E-04   -0.91118E-04  8424   0.213E-03-0.235E-04
CGA:  13    -0.669844268439E+03   -0.90356E-04   -0.11135E-03  8424   0.330E-03-0.119E-03
CGA:  14    -0.669844349699E+03   -0.81260E-04   -0.81665E-04  8424   0.840E-04 0.274E-05
CGA:  15    -0.669844390760E+03   -0.41060E-04   -0.43504E-04  8424   0.142E-03-0.183E-04
CGA:  16    -0.669844432239E+03   -0.41479E-04   -0.41417E-04  8424   0.120E-03-0.873E-05
CGA:  17    -0.669844497341E+03   -0.65102E-04   -0.78263E-04  8424   0.211E-03-0.474E-04
CGA:  18    -0.669844551225E+03   -0.53885E-04   -0.71530E-04  8424   0.496E-03-0.125E-03
CGA:  19    -0.669844644478E+03   -0.93253E-04   -0.96617E-04  8424   0.175E-03 0.159E-04
CGA:  20    -0.669844720934E+03   -0.76455E-04   -0.77257E-04  8424   0.101E-03-0.246E-04
CGA:  21    -0.669844760176E+03   -0.39242E-04   -0.38638E-04  8424   0.501E-04 0.118E-04
CGA:  22    -0.669844787906E+03   -0.27730E-04   -0.36283E-04  8424   0.100E-03-0.350E-04
CGA:  23    -0.669844796710E+03   -0.88041E-05   -0.15121E-04  8424   0.220E-04 0.241E-04
CGA:  24    -0.669844808091E+03   -0.11381E-04   -0.11390E-04  8424   0.283E-04-0.712E-06
CGA:  25    -0.669844535106E+03    0.27299E-03   -0.14703E-03  8424   0.159E-02-0.163E-03
CGA:  26    -0.669844789381E+03   -0.25428E-03   -0.29619E-03  8424   0.318E-03 0.779E-04
CGA:  27    -0.669844914133E+03   -0.12475E-03   -0.11407E-03  8424   0.923E-04-0.298E-04
CGA:  28    -0.669844942547E+03   -0.28413E-04   -0.27222E-04  8424   0.474E-04-0.342E-05
CGA:  29    -0.669844974108E+03   -0.31562E-04   -0.32266E-04  8424   0.342E-04-0.174E-04
CGA:  30    -0.669844987558E+03   -0.13450E-04   -0.11069E-04  8424   0.574E-04-0.155E-04
CGA:  31    -0.669845008756E+03   -0.21198E-04   -0.15864E-04  8424   0.801E-04-0.359E-04
CGA:  32    -0.669845017494E+03   -0.87380E-05   -0.16730E-04  8424   0.302E-04 0.180E-04
CGA:  33    -0.669845040964E+03   -0.23470E-04   -0.24277E-04  8424   0.802E-04-0.318E-04
CGA:  34    -0.669845042888E+03   -0.19242E-05   -0.12036E-04  8424   0.181E-04 0.210E-04
  19 F= -.66984504E+03 E0= -.66984504E+03  d E =-.456271E+00  mag=     2.0000
       N       E                     dE             d eps       ncg     rms          ort
SDA:   1    -0.668320156485E+03    0.15249E+01    0.00000E+00  8424   0.491E+01 0.000E+00
CGA:   2    -0.669303459087E+03   -0.98330E+00   -0.98956E+00  8424   0.207E+01-0.106E-01
CGA:   3    -0.669746551875E+03   -0.44309E+00   -0.44197E+00  8424   0.661E+00 0.525E-02
CGA:   4    -0.669854996425E+03   -0.10844E+00   -0.10856E+00  8424   0.154E+00 0.588E-03
CGA:   5    -0.669880965897E+03   -0.25969E-01   -0.26087E-01  8424   0.313E-01 0.218E-03
CGA:   6    -0.669887350689E+03   -0.63848E-02   -0.63755E-02  8424   0.736E-02-0.267E-04
CGA:   7    -0.669888929358E+03   -0.15787E-02   -0.15968E-02  8424   0.207E-02 0.618E-04
CGA:   8    -0.669889428649E+03   -0.49929E-03   -0.50576E-03  8424   0.606E-03 0.260E-04
CGA:   9    -0.669889591367E+03   -0.16272E-03   -0.16563E-03  8424   0.213E-03 0.139E-04
CGA:  10    -0.669889632820E+03   -0.41453E-04   -0.54193E-04  8424   0.866E-04 0.589E-04
CGA:  11    -0.669889651802E+03   -0.18982E-04   -0.27451E-04  8424   0.417E-04 0.409E-04
CGA:  12    -0.669889654527E+03   -0.27252E-05   -0.11848E-04  8424   0.269E-04 0.361E-04
  20 F= -.66988965E+03 E0= -.66988965E+03  d E =-.446116E-01  mag=     2.0000
       N       E                     dE             d eps       ncg     rms          ort
SDA:   1    -0.669247280245E+03    0.64237E+00    0.00000E+00  8424   0.175E+01 0.000E+00
CGA:   2    -0.669675138026E+03   -0.42786E+00   -0.42803E+00  8424   0.874E+00-0.793E-05
CGA:   3    -0.669842517393E+03   -0.16738E+00   -0.16733E+00  8424   0.214E+00 0.100E-03
CGA:   4    -0.669877013581E+03   -0.34496E-01   -0.34538E-01  8424   0.499E-01 0.229E-03
CGA:   5    -0.669885511970E+03   -0.84984E-02   -0.85697E-02  8424   0.106E-01 0.326E-03
CGA:   6    -0.669887618895E+03   -0.21069E-02   -0.21468E-02  8424   0.240E-02 0.227E-03
CGA:   7    -0.669888114420E+03   -0.49552E-03   -0.51859E-03  8424   0.695E-03 0.149E-03
CGA:   8    -0.669888242594E+03   -0.12817E-03   -0.15307E-03  8424   0.206E-03 0.164E-03
CGA:   9    -0.669888252335E+03   -0.97414E-05   -0.37339E-04  8424   0.933E-04 0.135E-03
  21 F= -.66988825E+03 E0= -.66988825E+03  d E =0.140219E-02  mag=     2.0000
       N       E                     dE             d eps       ncg     rms          ort
SDA:   1    -0.667960740127E+03    0.19275E+01    0.00000E+00  8424   0.484E+01 0.000E+00
CGA:   2    -0.669271080323E+03   -0.13103E+01   -0.13105E+01  8424   0.249E+01 0.291E-03
CGA:   3    -0.669726964427E+03   -0.45588E+00   -0.45574E+00  8424   0.564E+00 0.669E-03
CGA:   4    -0.669818509163E+03   -0.91545E-01   -0.91612E-01  8424   0.133E+00 0.650E-03
CGA:   5    -0.669841142520E+03   -0.22633E-01   -0.22758E-01  8424   0.281E-01 0.867E-03
CGA:   6    -0.669846771220E+03   -0.56287E-02   -0.56978E-02  8424   0.643E-02 0.668E-03
CGA:   7    -0.669848158457E+03   -0.13872E-02   -0.14177E-02  8424   0.190E-02 0.362E-03
CGA:   8    -0.669848547411E+03   -0.38895E-03   -0.42432E-03  8424   0.574E-03 0.422E-03
CGA:   9    -0.669848605188E+03   -0.57777E-04   -0.10732E-03  8424   0.255E-03 0.360E-03
CGA:  10    -0.669848599272E+03    0.59162E-05   -0.28039E-04  8424   0.163E-03 0.195E-03
CGA:  11    -0.669848583976E+03    0.15296E-04   -0.13245E-04  8424   0.135E-03 0.147E-03
CGA:  12    -0.669848568219E+03    0.15757E-04   -0.91321E-05  8424   0.118E-03 0.126E-03
CGA:  13    -0.669848553025E+03    0.15194E-04   -0.69546E-05  8424   0.107E-03 0.113E-03
CGA:  14    -0.669848538639E+03    0.14386E-04   -0.55783E-05  8424   0.992E-04 0.103E-03
CGA:  15    -0.669848525104E+03    0.13535E-04   -0.46234E-05  8424   0.929E-04 0.958E-04
CGA:  16    -0.669848512398E+03    0.12706E-04   -0.39201E-05  8424   0.878E-04 0.902E-04
CGA:  17    -0.669848500475E+03    0.11923E-04   -0.33803E-05  8424   0.837E-04 0.855E-04
CGA:  18    -0.669848489283E+03    0.11191E-04   -0.29528E-05  8424   0.801E-04 0.817E-04
CGA:  19    -0.669848478772E+03    0.10512E-04   -0.26059E-05  8424   0.771E-04 0.784E-04
CGA:  20    -0.669848468891E+03    0.98804E-05   -0.23191E-05  8424   0.745E-04 0.756E-04
  22 F= -.66984847E+03 E0= -.66984847E+03  d E =0.397834E-01  mag=     2.0000
       N       E                     dE             d eps       ncg     rms          ort
SDA:   1    -0.625031747945E+03    0.44817E+02    0.00000E+00  8424   0.177E+03 0.000E+00
CGA:   2    -0.652298524640E+03   -0.27267E+02   -0.27478E+02  8424   0.520E+02 0.401E+01
CGA:   3    -0.665146666754E+03   -0.12848E+02   -0.12874E+02  8424   0.185E+02-0.389E+00
CGA:   4    -0.668265185724E+03   -0.31185E+01   -0.31193E+01  8424   0.477E+01 0.345E-01
CGA:   5    -0.669043349019E+03   -0.77816E+00   -0.77862E+00  8424   0.989E+00 0.156E-01
CGA:   6    -0.669257704039E+03   -0.21436E+00   -0.21437E+00  8424   0.263E+00-0.556E-03
CGA:   7    -0.669316394831E+03   -0.58691E-01   -0.58567E-01  8424   0.799E-01 0.274E-02
CGA:   8    -0.669335584439E+03   -0.19190E-01   -0.19075E-01  8424   0.235E-01 0.206E-02
CGA:   9    -0.669342201685E+03   -0.66172E-02   -0.66235E-02  8424   0.841E-02-0.745E-04
CGA:  10    -0.669344562163E+03   -0.23605E-02   -0.22927E-02  8424   0.325E-02 0.792E-03
CGA:  11    -0.669345754178E+03   -0.11920E-02   -0.11805E-02  8424   0.138E-02 0.774E-04
CGA:  12    -0.669346059751E+03   -0.30557E-03   -0.29952E-03  8424   0.518E-03 0.503E-03
CGA:  13    -0.669346203500E+03   -0.14375E-03   -0.14299E-03  8424   0.270E-03 0.318E-03
CGA:  14    -0.669346290427E+03   -0.86926E-04   -0.76347E-04  8424   0.166E-03 0.127E-03
CGA:  15    -0.669346307851E+03   -0.17424E-04   -0.32360E-04  8424   0.132E-03 0.207E-03
CGA:  16    -0.669346312407E+03   -0.45564E-05   -0.14977E-04  8424   0.112E-03 0.119E-03
CGA:  17    -0.669346318460E+03   -0.60527E-05   -0.13881E-04  8424   0.104E-03 0.108E-03
CGA:  18    -0.669346322706E+03   -0.42463E-05   -0.12088E-04  8424   0.994E-04 0.102E-03
CGA:  19    -0.669346325878E+03   -0.31719E-05   -0.10901E-04  8424   0.955E-04 0.973E-04
  23 F= -.66934633E+03 E0= -.66934633E+03  d E =0.502143E+00  mag=     2.0000
       N       E                     dE             d eps       ncg     rms          ort
SDA:   1    -0.657475329079E+03    0.11871E+02    0.00000E+00  8424   0.425E+02 0.000E+00
CGA:   2    -0.665117237403E+03   -0.76419E+01   -0.76430E+01  8424   0.161E+02 0.603E+00
CGA:   3    -0.668749119192E+03   -0.36319E+01   -0.36377E+01  8424   0.490E+01-0.107E+00
CGA:   4    -0.669571184370E+03   -0.82207E+00   -0.82230E+00  8424   0.122E+01 0.642E-02
CGA:   5    -0.669773196382E+03   -0.20201E+00   -0.20210E+00  8424   0.263E+00 0.331E-02
CGA:   6    -0.669827231027E+03   -0.54035E-01   -0.54069E-01  8424   0.614E-01-0.144E-02
CGA:   7    -0.669840936330E+03   -0.13705E-01   -0.13693E-01  8424   0.179E-01 0.288E-03
CGA:   8    -0.669845276130E+03   -0.43398E-02   -0.43249E-02  8424   0.537E-02 0.267E-03
CGA:   9    -0.669846847268E+03   -0.15711E-02   -0.16344E-02  8424   0.232E-02-0.564E-03
CGA:  10    -0.669847437755E+03   -0.59049E-03   -0.59004E-03  8424   0.967E-03 0.430E-05
CGA:  11    -0.669847629804E+03   -0.19205E-03   -0.57019E-03  8424   0.201E-02-0.970E-03
CGA:  12    -0.669847922846E+03   -0.29304E-03   -0.30862E-03  8424   0.317E-03 0.246E-03
CGA:  13    -0.669847922045E+03    0.80086E-06   -0.24241E-03  8424   0.125E-02-0.522E-03
CGA:  14    -0.669848130854E+03   -0.20881E-03   -0.21853E-03  8424   0.206E-03 0.154E-03
CGA:  15    -0.669846832117E+03    0.12987E-02   -0.69954E-03  8424   0.855E-02-0.127E-02
CGA:  16    -0.669848068488E+03   -0.12364E-02   -0.13451E-02  8424   0.138E-02 0.407E-03
CGA:  17    -0.669848462460E+03   -0.39397E-03   -0.36456E-03  8424   0.140E-03-0.183E-03
CGA:  18    -0.669848493811E+03   -0.31350E-04   -0.32106E-04  8424   0.689E-04 0.510E-05
CGA:  19    -0.669848572799E+03   -0.78989E-04    0.36647E-04  8424   0.106E-03-0.239E-04
CGA:  20    -0.669848695228E+03   -0.12243E-03    0.11186E-04  8424   0.119E-03 0.229E-04
CGA:  21    -0.669848895353E+03   -0.20012E-03    0.39806E-04  8424   0.150E-03 0.538E-04
CGA:  22    -0.669849206212E+03   -0.31086E-03    0.55241E-04  8424   0.262E-03-0.341E-04
CGA:  23    -0.669849694931E+03   -0.48872E-03    0.19904E-04  8424   0.321E-03 0.188E-04
CGA:  24    -0.669850341625E+03   -0.64669E-03    0.50502E-04  8424   0.732E-03-0.114E-03
CGA:  25    -0.669851895730E+03   -0.15541E-02    0.29929E-04  8424   0.979E-03-0.759E-03
CGA:  26    -0.669852158767E+03   -0.26304E-03   -0.26844E-03  8424   0.152E-03 0.431E-04
CGA:  27    -0.669852197176E+03   -0.38409E-04   -0.37484E-04  8424   0.979E-04-0.596E-05
CGA:  28    -0.669852230239E+03   -0.33063E-04   -0.33228E-04  8424   0.412E-04 0.500E-05
CGA:  29    -0.669852230306E+03   -0.66371E-07   -0.68331E-05  8424   0.250E-04 0.300E-04
CGA:  30    -0.669852245954E+03   -0.15648E-04   -0.22124E-04  8424   0.893E-04-0.127E-04
CGA:  31    -0.669852252419E+03   -0.64658E-05   -0.11337E-04  8424   0.168E-04 0.180E-04
  24 F= -.66985225E+03 E0= -.66985225E+03  d E =-.505927E+00  mag=     2.0000
       N       E                     dE             d eps       ncg     rms          ort
SDA:   1    -0.667998610732E+03    0.18536E+01    0.00000E+00  8424   0.548E+01 0.000E+00
CGA:   2    -0.669226271165E+03   -0.12277E+01   -0.12304E+01  8424   0.258E+01-0.229E-03
CGA:   3    -0.669742807654E+03   -0.51654E+00   -0.51574E+00  8424   0.685E+00 0.173E-02
CGA:   4    -0.669854623913E+03   -0.11182E+00   -0.11186E+00  8424   0.161E+00 0.212E-03
CGA:   5    -0.669882067537E+03   -0.27444E-01   -0.27508E-01  8424   0.340E-01 0.282E-03
CGA:   6    -0.669889028802E+03   -0.69613E-02   -0.69615E-02  8424   0.787E-02 0.102E-05
CGA:   7    -0.669890780240E+03   -0.17514E-02   -0.17507E-02  8424   0.235E-02-0.797E-05
CGA:   8    -0.669891381369E+03   -0.60113E-03   -0.59829E-03  8424   0.758E-03-0.399E-04
CGA:   9    -0.669891606522E+03   -0.22515E-03   -0.22405E-03  8424   0.312E-03-0.496E-04
CGA:  10    -0.669891695050E+03   -0.88529E-04   -0.88808E-04  8424   0.125E-03 0.157E-04
CGA:  11    -0.669891748920E+03   -0.53870E-04   -0.65051E-04  8424   0.136E-03-0.652E-04
CGA:  12    -0.669891770589E+03   -0.21669E-04   -0.25136E-04  8424   0.310E-04 0.238E-04
CGA:  13    -0.669891799087E+03   -0.28498E-04    0.27656E-04  8424   0.246E-04 0.732E-05
CGA:  14    -0.669891820412E+03   -0.21325E-04    0.54338E-04  8424   0.236E-04 0.174E-04
CGA:  15    -0.669891835064E+03   -0.14653E-04   -0.19191E-04  8424   0.575E-04-0.960E-05
CGA:  16    -0.669891868516E+03   -0.33452E-04    0.14298E-04  8424   0.753E-04 0.689E-05
CGA:  17    -0.669891940916E+03   -0.72399E-04    0.61761E-04  8424   0.547E-04 0.392E-04
[...]
CGA:  25    -0.669054601591E+03    0.52494E-04   -0.43364E-03  8424   0.401E-02-0.143E-02
CGA:  26    -0.669055396364E+03   -0.79477E-03   -0.68258E-03  8424   0.106E-02-0.612E-03
CGA:  27    -0.669055685029E+03   -0.28866E-03   -0.27369E-03  8424   0.323E-03-0.358E-03
CGA:  28    -0.669056030548E+03   -0.34552E-03    0.27344E-04  8424   0.262E-03-0.720E-04
CGA:  29    -0.669056464947E+03   -0.43440E-03    0.16789E-04  8424   0.138E-03-0.224E-05
CGA:  30    -0.669056941197E+03   -0.47625E-03    0.58525E-05  8424   0.805E-04 0.480E-04
CGA:  31    -0.669057389190E+03   -0.44799E-03    0.37411E-05  8424   0.467E-04 0.585E-04
CGA:  32    -0.669057592952E+03   -0.20376E-03    0.15094E-05  8424   0.514E-04 0.200E-04
CGA:  33    -0.669057981187E+03   -0.38823E-03    0.18957E-05  8424   0.472E-04 0.486E-04
CGA:  34    -0.669058181619E+03   -0.20043E-03    0.15717E-05  8424   0.449E-04 0.184E-04
CGA:  35    -0.669058529135E+03   -0.34752E-03    0.15168E-05  8424   0.489E-04 0.397E-04
CGA:  36    -0.669058719326E+03   -0.19019E-03    0.18157E-05  8424   0.511E-04 0.116E-04
CGA:  37    -0.669059064222E+03   -0.34490E-03    0.15735E-05  8424   0.537E-04 0.339E-04
CGA:  38    -0.669059256559E+03   -0.19234E-03    0.22021E-05  8424   0.468E-04 0.900E-05
CGA:  39    -0.669059560535E+03   -0.30398E-03    0.13282E-05  8424   0.567E-04 0.246E-04
CGA:  40    -0.669059741438E+03   -0.18090E-03    0.26944E-05  8424   0.630E-04-0.155E-05
CGA:  41    -0.669060065140E+03   -0.32370E-03    0.15846E-05  8424   0.667E-04 0.175E-04
CGA:  42    -0.669060596694E+03   -0.53155E-03    0.18241E-05  8424   0.554E-04 0.731E-04
CGA:  43    -0.669060774237E+03   -0.17754E-03    0.26118E-05  8424   0.103E-03-0.233E-04
CGA:  44    -0.669061196540E+03   -0.42230E-03    0.11103E-05  8424   0.137E-03 0.114E-04
CGA:  45    -0.669061850863E+03   -0.65432E-03    0.49661E-05  8424   0.360E-03-0.434E-04
CGA:  46    -0.669063811901E+03   -0.19610E-02    0.39889E-05  8424   0.888E-03 0.530E-04
CGA:  47    -0.669068903824E+03   -0.50919E-02    0.28095E-04  8424   0.160E-02-0.779E-03
CGA:  48    -0.669069106182E+03   -0.20236E-03   -0.22552E-03  8424   0.198E-03 0.116E-03
CGA:  49    -0.669069097286E+03    0.88967E-05   -0.14370E-03  8424   0.862E-03-0.446E-03
CGA:  50    -0.669069244513E+03   -0.14723E-03   -0.16350E-03  8424   0.139E-03 0.101E-03
CGA:  51    -0.669069282712E+03   -0.38199E-04   -0.75740E-04  8424   0.474E-03-0.262E-03
CGA:  52    -0.669069334172E+03   -0.51461E-04   -0.62743E-04  8424   0.539E-04 0.522E-04
CGA:  53    -0.669069396590E+03   -0.62418E-04    0.18970E-04  8424   0.135E-04-0.187E-04
CGA:  54    -0.669069450634E+03   -0.54044E-04    0.18590E-06  8424   0.154E-04 0.478E-06
CGA:  55    -0.669069531061E+03   -0.80427E-04    0.42265E-06  8424   0.633E-05 0.310E-05
CGA:  56    -0.669069603084E+03   -0.72023E-04    0.99841E-07  8424   0.448E-05 0.578E-05
CGA:  57    -0.669069642295E+03   -0.39211E-04    0.64049E-07  8424   0.445E-05 0.184E-05
CGA:  58    -0.669069707720E+03   -0.65425E-04    0.74105E-07  8424   0.419E-05 0.430E-05
CGA:  59    -0.669069741730E+03   -0.34009E-04    0.64856E-07  8424   0.322E-05 0.221E-05
CGA:  60    -0.669069770810E+03   -0.29081E-04    0.44367E-07  8424   0.425E-05 0.178E-05
CGA:  61    -0.669069809451E+03   -0.38641E-04    0.58239E-07  8424   0.851E-05-0.424E-06
CGA:  62    -0.669069906811E+03   -0.97360E-04    0.73445E-07  8424   0.962E-05 0.736E-05
CGA:  63    -0.669069921297E+03   -0.14486E-04    0.13423E-05  8424   0.308E-04-0.115E-04
CGA:  64    -0.669069969591E+03   -0.48294E-04    0.39833E-05  8424   0.124E-03-0.558E-04
CGA:  65    -0.669069975280E+03   -0.56885E-05   -0.11298E-04  8424   0.581E-05 0.226E-04
  44 F= -.66906998E+03 E0= -.66906998E+03  d E =0.781764E+00  mag=     2.0000
       N       E                     dE             d eps       ncg     rms          ort
SDA:   1    -0.646594459504E+03    0.22476E+02    0.00000E+00  8424   0.758E+02 0.000E+00
CGA:   2    -0.661136672242E+03   -0.14542E+02   -0.14693E+02  8424   0.306E+02-0.673E-01
CGA:   3    -0.667742858160E+03   -0.66062E+01   -0.65883E+01  8424   0.919E+01 0.108E-01
CGA:   4    -0.669292478923E+03   -0.15496E+01   -0.15522E+01  8424   0.230E+01 0.331E-02
CGA:   5    -0.669679446414E+03   -0.38697E+00   -0.38802E+00  8424   0.489E+00 0.338E-02
CGA:   6    -0.669779582524E+03   -0.10014E+00   -0.10004E+00  8424   0.111E+00-0.826E-03
CGA:   7    -0.669804402696E+03   -0.24820E-01   -0.24926E-01  8424   0.335E-01 0.143E-02
CGA:   8    -0.669812726654E+03   -0.83240E-02   -0.83639E-02  8424   0.105E-01 0.857E-03
CGA:   9    -0.669815679714E+03   -0.29531E-02   -0.29564E-02  8424   0.387E-02 0.218E-03
CGA:  10    -0.669816630788E+03   -0.95107E-03   -0.98763E-03  8424   0.146E-02 0.930E-03
CGA:  11    -0.669817057446E+03   -0.42666E-03   -0.44868E-03  8424   0.549E-03 0.543E-03
CGA:  12    -0.669817156904E+03   -0.99458E-04   -0.13997E-03  8424   0.286E-03 0.405E-03
CGA:  13    -0.669817165070E+03   -0.81661E-05   -0.40076E-04  8424   0.198E-03 0.227E-03
CGA:  14    -0.669817165409E+03   -0.33919E-06   -0.26172E-04  8424   0.170E-03 0.182E-03
CGA:  15    -0.669817159426E+03    0.59825E-05   -0.19096E-04  8424   0.156E-03 0.162E-03
CGA:  16    -0.669817151561E+03    0.78658E-05   -0.15827E-04  8424   0.146E-03 0.151E-03
CGA:  17    -0.669817142812E+03    0.87483E-05   -0.13652E-04  8424   0.139E-03 0.142E-03
CGA:  18    -0.669817133652E+03    0.91601E-05   -0.12043E-04  8424   0.133E-03 0.136E-03
CGA:  19    -0.669817124336E+03    0.93164E-05   -0.10776E-04  8424   0.128E-03 0.130E-03
  45 F= -.66981712E+03 E0= -.66981712E+03  d E =-.747149E+00  mag=     2.0000
       N       E                     dE             d eps       ncg     rms          ort
SDA:   1    -0.668462831067E+03    0.13543E+01    0.00000E+00  8424   0.417E+01 0.000E+00
CGA:   2    -0.669380809781E+03   -0.91798E+00   -0.91798E+00  8424   0.186E+01 0.729E-02
CGA:   3    -0.669754997971E+03   -0.37419E+00   -0.37409E+00  8424   0.533E+00-0.385E-02
CGA:   4    -0.669844482133E+03   -0.89484E-01   -0.89503E-01  8424   0.132E+00 0.376E-03
CGA:   5    -0.669866440615E+03   -0.21958E-01   -0.22033E-01  8424   0.263E-01 0.148E-02
CGA:   6    -0.669871719272E+03   -0.52787E-02   -0.52915E-02  8424   0.602E-02 0.843E-03
CGA:   7    -0.669873031952E+03   -0.13127E-02   -0.13138E-02  8424   0.183E-02 0.617E-03
CGA:   8    -0.669873448696E+03   -0.41674E-03   -0.41944E-03  8424   0.605E-03 0.524E-03
CGA:   9    -0.669873537075E+03   -0.88379E-04   -0.11605E-03  8424   0.305E-03 0.432E-03
CGA:  10    -0.669873542038E+03   -0.49633E-05   -0.31378E-04  8424   0.214E-03 0.247E-03
CGA:  11    -0.669873535460E+03    0.65773E-05   -0.17628E-04  8424   0.185E-03 0.198E-03
CGA:  12    -0.669873526424E+03    0.90361E-05   -0.13235E-04  8424   0.168E-03 0.176E-03
CGA:  13    -0.669873516565E+03    0.98596E-05   -0.10781E-04  8424   0.156E-03 0.161E-03
  46 F= -.66987352E+03 E0= -.66987352E+03  d E =-.563922E-01  mag=     2.0000
       N       E                     dE             d eps       ncg     rms          ort
SDA:   1    -0.666555863532E+03    0.33177E+01    0.00000E+00  8424   0.966E+01 0.000E+00
CGA:   2    -0.668799360117E+03   -0.22435E+01   -0.22409E+01  8424   0.416E+01 0.369E-01
CGA:   3    -0.669616004596E+03   -0.81664E+00   -0.81688E+00  8424   0.116E+01-0.121E-01
CGA:   4    -0.669814441345E+03   -0.19844E+00   -0.19844E+00  8424   0.293E+00 0.815E-03
CGA:   5    -0.669863700784E+03   -0.49259E-01   -0.49304E-01  8424   0.603E-01 0.319E-02
CGA:   6    -0.669875749607E+03   -0.12049E-01   -0.12019E-01  8424   0.135E-01 0.188E-02
CGA:   7    -0.669878877896E+03   -0.31283E-02   -0.30792E-02  8424   0.446E-02 0.128E-02
CGA:   8    -0.669879965727E+03   -0.10878E-02   -0.10525E-02  8424   0.143E-02 0.111E-02
CGA:   9    -0.669880222199E+03   -0.25647E-03   -0.28194E-03  8424   0.646E-03 0.919E-03
CGA:  10    -0.669880252548E+03   -0.30349E-04   -0.69119E-04  8424   0.423E-03 0.502E-03
CGA:  11    -0.669880249699E+03    0.28492E-05   -0.34832E-04  8424   0.353E-03 0.384E-03
CGA:  12    -0.669880239353E+03    0.10346E-04   -0.24659E-04  8424   0.313E-03 0.331E-03
CGA:  13    -0.669880226117E+03    0.13235E-04   -0.19178E-04  8424   0.285E-03 0.298E-03
CGA:  14    -0.669880211696E+03    0.14421E-04   -0.15648E-04  8424   0.264E-03 0.274E-03
CGA:  15    -0.669880196883E+03    0.14814E-04   -0.13155E-04  8424   0.248E-03 0.255E-03
CGA:  16    -0.669880182090E+03    0.14793E-04   -0.11291E-04  8424   0.235E-03 0.241E-03
CGA:  17    -0.669880167547E+03    0.14543E-04   -0.98393E-05  8424   0.224E-03 0.229E-03
CGA:  18    -0.669880153382E+03    0.14165E-04   -0.86743E-05  8424   0.215E-03 0.219E-03
CGA:  19    -0.669880139668E+03    0.13714E-04   -0.77191E-05  8424   0.207E-03 0.210E-03
CGA:  20    -0.669880126444E+03    0.13223E-04   -0.69219E-05  8424   0.200E-03 0.203E-03
CGA:  21    -0.669880113729E+03    0.12716E-04   -0.62464E-05  8424   0.194E-03 0.196E-03
CGA:  22    -0.669880101525E+03    0.12204E-04   -0.56671E-05  8424   0.188E-03 0.191E-03
CGA:  23    -0.669880089830E+03    0.11695E-04   -0.51654E-05  8424   0.183E-03 0.186E-03
CGA:  24    -0.669880078632E+03    0.11197E-04   -0.47271E-05  8424   0.179E-03 0.181E-03
CGA:  25    -0.669880067920E+03    0.10712E-04   -0.43417E-05  8424   0.175E-03 0.177E-03
CGA:  26    -0.669880057677E+03    0.10243E-04   -0.40004E-05  8424   0.172E-03 0.173E-03
CGA:  27    -0.669880047887E+03    0.97903E-05   -0.36967E-05  8424   0.168E-03 0.170E-03
  47 F= -.66988005E+03 E0= -.66988005E+03  d E =-.653132E-02  mag=     2.0000
       N       E                     dE             d eps       ncg     rms          ort
SDA:   1    -0.669523395046E+03    0.35666E+00    0.00000E+00  8424   0.101E+01 0.000E+00
CGA:   2    -0.669769842898E+03   -0.24645E+00   -0.24597E+00  8424   0.462E+00 0.312E-02
CGA:   3    -0.669860182008E+03   -0.90339E-01   -0.90503E-01  8424   0.128E+00-0.179E-02
CGA:   4    -0.669881418476E+03   -0.21236E-01   -0.21103E-01  8424   0.307E-01 0.223E-02
CGA:   5    -0.669886404831E+03   -0.49864E-02   -0.48546E-02  8424   0.550E-02 0.281E-02
CGA:   6    -0.669887396174E+03   -0.99134E-03   -0.91503E-03  8424   0.141E-02 0.182E-02
CGA:   7    -0.669887575292E+03   -0.17912E-03   -0.19132E-03  8424   0.677E-03 0.109E-02
CGA:   8    -0.669887603294E+03   -0.28001E-04   -0.49781E-04  8424   0.486E-03 0.563E-03
CGA:   9    -0.669887607080E+03   -0.37863E-05   -0.27523E-04  8424   0.407E-03 0.442E-03
CGA:  10    -0.669887603441E+03    0.36386E-05   -0.19296E-04  8424   0.360E-03 0.381E-03
CGA:  11    -0.669887596584E+03    0.68569E-05   -0.14790E-04  8424   0.327E-03 0.341E-03
CGA:  12    -0.669887588194E+03    0.83907E-05   -0.11913E-04  8424   0.302E-03 0.313E-03
  48 F= -.66988759E+03 E0= -.66988759E+03  d E =-.754031E-02  mag=     2.0000
       N       E                     dE             d eps       ncg     rms          ort
SDA:   1    -0.600492919232E+03    0.69395E+02    0.00000E+00  8424   0.237E+03 0.000E+00
CGA:   2    -0.642204019591E+03   -0.41711E+02   -0.40681E+02  8424   0.834E+02 0.131E+02
CGA:   3    -0.663417368361E+03   -0.21213E+02   -0.21278E+02  8424   0.266E+02-0.729E+00
CGA:   4    -0.667766151639E+03   -0.43488E+01   -0.43386E+01  8424   0.662E+01 0.124E+00
CGA:   5    -0.668874449150E+03   -0.11083E+01   -0.11054E+01  8424   0.145E+01 0.424E-01
CGA:   6    -0.669192067435E+03   -0.31762E+00   -0.31761E+00  8424   0.396E+00-0.221E-03
CGA:   7    -0.669282126754E+03   -0.90059E-01   -0.89623E-01  8424   0.125E+00 0.400E-02
CGA:   8    -0.669313192694E+03   -0.31066E-01   -0.30681E-01  8424   0.392E-01 0.321E-02
CGA:   9    -0.669324730623E+03   -0.11538E-01   -0.11816E-01  8424   0.153E-01-0.169E-02
CGA:  10    -0.669329024758E+03   -0.42941E-02   -0.43495E-02  8424   0.619E-02-0.348E-03
CGA:  11    -0.669330886997E+03   -0.18622E-02   -0.24937E-02  8424   0.417E-02-0.237E-02
CGA:  12    -0.669331435863E+03   -0.54887E-03   -0.54517E-03  8424   0.176E-02 0.655E-04
CGA:  13    -0.669331934096E+03   -0.49823E-03   -0.53767E-03  8424   0.113E-02-0.285E-03
CGA:  14    -0.669331308732E+03    0.62536E-03   -0.77342E-03  8424   0.678E-02-0.217E-02
CGA:  15    -0.669332330671E+03   -0.10219E-02   -0.10648E-02  8424   0.131E-02 0.990E-03
CGA:  16    -0.669332809728E+03   -0.47906E-03   -0.51993E-03  8424   0.453E-03-0.276E-03
CGA:  17    -0.669332911488E+03   -0.10176E-03   -0.10152E-03  8424   0.229E-03 0.208E-05
CGA:  18    -0.669332955612E+03   -0.44124E-04   -0.45360E-04  8424   0.120E-03 0.998E-04
CGA:  19    -0.669333003315E+03   -0.47703E-04   -0.44327E-04  8424   0.898E-04 0.678E-04
CGA:  20    -0.669332832827E+03    0.17049E-03   -0.95688E-04  8424   0.266E-02-0.260E-03
CGA:  21    -0.669333125965E+03   -0.29314E-03   -0.32568E-03  8424   0.136E-03 0.123E-03
CGA:  22    -0.669333148040E+03   -0.22076E-04   -0.30195E-04  8424   0.562E-04 0.505E-04
CGA:  23    -0.669333181142E+03   -0.33101E-04   -0.60927E-04  8424   0.402E-03-0.676E-04
CGA:  24    -0.669333225572E+03   -0.44430E-04   -0.61573E-04  8424   0.894E-04 0.736E-04
CGA:  25    -0.669333259091E+03   -0.33519E-04   -0.33990E-04  8424   0.533E-04 0.838E-05
CGA:  26    -0.669333311786E+03   -0.52695E-04    0.49525E-04  8424   0.911E-04 0.279E-04
CGA:  27    -0.669333314682E+03   -0.28960E-05   -0.13057E-04  8424   0.409E-04 0.444E-04
CGA:  28    -0.669333325204E+03   -0.10521E-04   -0.14477E-04  8424   0.454E-04 0.318E-04
CGA:  29    -0.669333367866E+03   -0.42662E-04    0.24567E-04  8424   0.791E-04 0.266E-05
CGA:  30    -0.669333516144E+03   -0.14828E-03   -0.97451E-04  8424   0.107E-03 0.530E-04
CGA:  31    -0.669333525788E+03   -0.96436E-05   -0.19273E-04  8424   0.342E-04 0.449E-04
CGA:  32    -0.669333543214E+03   -0.17426E-04   -0.17523E-04  8424   0.423E-04 0.356E-05
CGA:  33    -0.669333583636E+03   -0.40423E-04   -0.32766E-04  8424   0.150E-03 0.197E-04
CGA:  34    -0.669333829810E+03   -0.24617E-03   -0.17304E-03  8424   0.197E-03 0.117E-03
CGA:  35    -0.669333914000E+03   -0.84190E-04   -0.10311E-03  8424   0.448E-03-0.179E-03
CGA:  36    -0.669333923240E+03   -0.92395E-05   -0.44273E-04  8424   0.453E-04 0.108E-03
  49 F= -.66933392E+03 E0= -.66933392E+03  d E =0.553665E+00  mag=     2.0000
       N       E                     dE             d eps       ncg     rms          ort
SDA:   1    -0.636326177802E+03    0.33008E+02    0.00000E+00  8424   0.144E+03 0.000E+00
CGA:   2    -0.657641239080E+03   -0.21315E+02   -0.23821E+02  8424   0.414E+02-0.311E+01
CGA:   3    -0.666986999162E+03   -0.93458E+01   -0.92977E+01  8424   0.117E+02 0.359E+00
CGA:   4    -0.669078949989E+03   -0.20920E+01   -0.21016E+01  8424   0.322E+01 0.596E-01
CGA:   5    -0.669611915497E+03   -0.53297E+00   -0.53729E+00  8424   0.698E+00-0.267E-03
CGA:   6    -0.669759980808E+03   -0.14807E+00   -0.14822E+00  8424   0.169E+00 0.142E-02
CGA:   7    -0.669798348821E+03   -0.38368E-01   -0.38491E-01  8424   0.528E-01 0.931E-03
CGA:   8    -0.669811130461E+03   -0.12782E-01   -0.12894E-01  8424   0.164E-01 0.118E-02
CGA:   9    -0.669815798535E+03   -0.46681E-02   -0.46835E-02  8424   0.595E-02 0.275E-03
CGA:  10    -0.669817443648E+03   -0.16451E-02   -0.16829E-02  8424   0.222E-02 0.703E-03
CGA:  11    -0.669818107731E+03   -0.66408E-03   -0.68608E-03  8424   0.759E-03 0.413E-03
CGA:  12    -0.669818249131E+03   -0.14140E-03   -0.18768E-03  8424   0.304E-03 0.392E-03
CGA:  13    -0.669818278057E+03   -0.28926E-04   -0.56471E-04  8424   0.172E-03 0.204E-03
CGA:  14    -0.669818273828E+03    0.42289E-05   -0.23437E-04  8424   0.144E-03 0.155E-03
CGA:  15    -0.669818264786E+03    0.90423E-05   -0.16609E-04  8424   0.128E-03 0.135E-03
CGA:  16    -0.669818253913E+03    0.10873E-04   -0.13040E-04  8424   0.118E-03 0.123E-03
CGA:  17    -0.669818242429E+03    0.11484E-04   -0.10806E-04  8424   0.111E-03 0.114E-03
CGA:  18    -0.669818230818E+03    0.11611E-04   -0.92165E-05  8424   0.105E-03 0.108E-03
CGA:  19    -0.669818219328E+03    0.11490E-04   -0.80187E-05  8424   0.100E-03 0.102E-03
CGA:  20    -0.669818208092E+03    0.11236E-04   -0.70715E-05  8424   0.962E-04 0.981E-04
CGA:  21    -0.669818197186E+03    0.10906E-04   -0.63062E-05  8424   0.928E-04 0.944E-04
CGA:  22    -0.669818186650E+03    0.10537E-04   -0.56708E-05  8424   0.899E-04 0.913E-04
CGA:  23    -0.669818176501E+03    0.10148E-04   -0.51363E-05  8424   0.873E-04 0.885E-04
CGA:  24    -0.669818166748E+03    0.97530E-05   -0.46760E-05  8424   0.850E-04 0.861E-04
  50 F= -.66981817E+03 E0= -.66981817E+03  d E =-.484244E+00  mag=     2.0000
       N       E                     dE             d eps       ncg     rms          ort
SDA:   1    -0.668777476922E+03    0.10407E+01    0.00000E+00  8424   0.338E+01 0.000E+00
CGA:   2    -0.669476317657E+03   -0.69884E+00   -0.69882E+00  8424   0.143E+01 0.631E-02
CGA:   3    -0.669778108339E+03   -0.30179E+00   -0.30181E+00  8424   0.447E+00-0.241E-02
CGA:   4    -0.669851045399E+03   -0.72937E-01   -0.72952E-01  8424   0.109E+00 0.265E-03
CGA:   5    -0.669869563933E+03   -0.18519E-01   -0.18547E-01  8424   0.220E-01 0.852E-03
CGA:   6    -0.669873967879E+03   -0.44039E-02   -0.44050E-02  8424   0.492E-02 0.369E-03
CGA:   7    -0.669874978417E+03   -0.10105E-02   -0.10100E-02  8424   0.134E-02 0.542E-03
CGA:   8    -0.669875233805E+03   -0.25539E-03   -0.26611E-03  8424   0.395E-03 0.480E-03
CGA:   9    -0.669875277025E+03   -0.43220E-04   -0.66532E-04  8424   0.192E-03 0.307E-03
CGA:  10    -0.669875276339E+03    0.68619E-06   -0.16712E-04  8424   0.137E-03 0.159E-03
  51 F= -.66987528E+03 E0= -.66987528E+03  d E =-.571096E-01  mag=     2.0000
       N       E                     dE             d eps       ncg     rms          ort
SDA:   1    -0.668883989332E+03    0.99129E+00    0.00000E+00  8424   0.271E+01 0.000E+00
CGA:   2    -0.669556194185E+03   -0.67220E+00   -0.67208E+00  8424   0.133E+01 0.158E-02
CGA:   3    -0.669813407271E+03   -0.25721E+00   -0.25722E+00  8424   0.341E+00-0.204E-02
CGA:   4    -0.669868368642E+03   -0.54961E-01   -0.54968E-01  8424   0.813E-01 0.250E-03
CGA:   5    -0.669882229811E+03   -0.13861E-01   -0.13879E-01  8424   0.164E-01 0.109E-02
CGA:   6    -0.669885476061E+03   -0.32463E-02   -0.32394E-02  8424   0.374E-02 0.750E-03
CGA:   7    -0.669886267096E+03   -0.79103E-03   -0.78325E-03  8424   0.104E-02 0.556E-03
CGA:   8    -0.669886457963E+03   -0.19087E-03   -0.19990E-03  8424   0.354E-03 0.463E-03
CGA:   9    -0.669886486452E+03   -0.28489E-04   -0.54411E-04  8424   0.194E-03 0.325E-03
CGA:  10    -0.669886482810E+03    0.36424E-05   -0.14416E-04  8424   0.148E-03 0.168E-03
  52 F= -.66988648E+03 E0= -.66988648E+03  d E =-.112065E-01  mag=     2.0000
       N       E                     dE             d eps       ncg     rms          ort
SDA:   1    -0.666273843195E+03    0.36126E+01    0.00000E+00  8424   0.888E+01 0.000E+00
CGA:   2    -0.668833238303E+03   -0.25594E+01   -0.25597E+01  8424   0.460E+01-0.313E-02
CGA:   3    -0.669649604807E+03   -0.81637E+00   -0.81637E+00  8424   0.100E+01-0.199E-02
CGA:   4    -0.669812942824E+03   -0.16334E+00   -0.16334E+00  8424   0.242E+00 0.261E-03
CGA:   5    -0.669854570548E+03   -0.41628E-01   -0.41635E-01  8424   0.506E-01 0.166E-02
CGA:   6    -0.669864816961E+03   -0.10246E-01   -0.10212E-01  8424   0.119E-01 0.140E-02
CGA:   7    -0.669867506984E+03   -0.26900E-02   -0.26662E-02  8424   0.353E-02 0.569E-03
CGA:   8    -0.669868328164E+03   -0.82118E-03   -0.79591E-03  8424   0.107E-02 0.704E-03
CGA:   9    -0.669868523134E+03   -0.19497E-03   -0.20715E-03  8424   0.451E-03 0.626E-03
CGA:  10    -0.669868555123E+03   -0.31989E-04   -0.52975E-04  8424   0.275E-03 0.337E-03
CGA:  11    -0.669868556084E+03   -0.96134E-06   -0.23584E-04  8424   0.225E-03 0.248E-03
CGA:  12    -0.669868550984E+03    0.51000E-05   -0.16031E-04  8424   0.195E-03 0.209E-03
CGA:  13    -0.669868543534E+03    0.74502E-05   -0.12074E-04  8424   0.176E-03 0.185E-03
