       N       E                     dE             d eps       ncg     rms          ort
DAV:   1     0.827038936026E+04    0.82704E+04   -0.24661E+05  8424   0.238E+03
DAV:   2     0.919195105401E+03   -0.73512E+04   -0.68990E+04  8424   0.657E+02
DAV:   3    -0.674837524343E+03   -0.15940E+04   -0.14016E+04  8424   0.282E+02
DAV:   4    -0.830432477388E+03   -0.15559E+03   -0.15290E+03  8424   0.857E+01
DAV:   5    -0.832926195107E+03   -0.24937E+01   -0.24827E+01  8424   0.122E+01
SDA:   6    -0.259699337967E+03    0.57323E+03   -0.24827E+01  8424   0.402E+04 0.000E+00
CGA:   7    -0.600524862199E+03   -0.34083E+03   -0.41562E+03  8424   0.423E+03 0.153E+03
CGA:   8    -0.631216673792E+03   -0.30692E+02   -0.19011E+02  8424   0.173E+03 0.291E+03
CGA:   9    -0.646593995697E+03   -0.15377E+02   -0.20293E+02  8424   0.123E+03 0.578E+01
CGA:  10    -0.656313593702E+03   -0.97196E+01   -0.12163E+02  8424   0.592E+02-0.183E+02
CGA:  11    -0.660788925211E+03   -0.44753E+01   -0.40289E+01  8424   0.651E+02-0.506E+02
CGA:  12    -0.661207896698E+03   -0.41897E+00   -0.42680E+01  8424   0.799E+02-0.332E+02
CGA:  13    -0.662685215740E+03   -0.14773E+01   -0.48831E+01  8424   0.621E+02-0.439E+02
CGA:  14    -0.664246478347E+03   -0.15613E+01   -0.35844E+01  8424   0.598E+02-0.468E+02
CGA:  15    -0.665009213750E+03   -0.76274E+00   -0.37376E+01  8424   0.401E+02-0.301E+02
CGA:  16    -0.666437893505E+03   -0.14287E+01   -0.20917E+01  8424   0.186E+02-0.217E+02
CGA:  17    -0.666978850740E+03   -0.54096E+00   -0.10803E+01  8424   0.103E+02-0.691E+01
CGA:  18    -0.668108426325E+03   -0.11296E+01   -0.11564E+01  8424   0.625E+01-0.621E+00
CGA:  19    -0.668555248532E+03   -0.44682E+00   -0.52523E+00  8424   0.193E+01-0.177E+00
CGA:  20    -0.668741571766E+03   -0.18632E+00   -0.18617E+00  8424   0.934E+00 0.216E-01
CGA:  21    -0.668909095063E+03   -0.16752E+00   -0.16034E+00  8424   0.416E+00 0.148E+00
CGA:  22    -0.668962295166E+03   -0.53200E-01   -0.52878E-01  8424   0.290E+00 0.553E-03
CGA:  23    -0.669042727322E+03   -0.80432E-01   -0.75971E-01  8424   0.187E+00 0.299E-01
CGA:  24    -0.669086441468E+03   -0.43714E-01   -0.45696E-01  8424   0.227E+00-0.231E-01
CGA:  25    -0.669157077079E+03   -0.70636E-01   -0.73076E-01  8424   0.374E+00-0.178E-01
CGA:  26    -0.669226591715E+03   -0.69515E-01   -0.73910E-01  8424   0.264E+00-0.883E-01
CGA:  27    -0.669090600766E+03    0.13599E+00   -0.76253E-01  8424   0.174E+01-0.469E+00
CGA:  28    -0.669330726138E+03   -0.24013E+00   -0.24121E+00  8424   0.414E+00-0.284E-01
CGA:  29    -0.669507882157E+03   -0.17716E+00   -0.17818E+00  8424   0.240E+00-0.675E-02
CGA:  30    -0.669567783779E+03   -0.59902E-01   -0.59715E-01  8424   0.632E-01-0.534E-02
CGA:  31    -0.669586309942E+03   -0.18526E-01   -0.18523E-01  8424   0.397E-01 0.132E-02
CGA:  32    -0.669598277256E+03   -0.11967E-01   -0.11967E-01  8424   0.154E-01-0.161E-03
CGA:  33    -0.669603499684E+03   -0.52224E-02   -0.52290E-02  8424   0.779E-02-0.152E-03
CGA:  34    -0.669606855429E+03   -0.33557E-02   -0.37229E-02  8424   0.102E-01-0.205E-02
CGA:  35    -0.669609528473E+03   -0.26730E-02   -0.40406E-02  8424   0.217E-01-0.608E-02
CGA:  36    -0.669613605211E+03   -0.40767E-02   -0.39415E-02  8424   0.794E-02-0.102E-02
CGA:  37    -0.669616673770E+03   -0.30686E-02   -0.33248E-02  8424   0.596E-02-0.203E-02
CGA:  38    -0.669617693642E+03   -0.10199E-02   -0.31861E-02  8424   0.208E-01-0.546E-02
CGA:  39    -0.669620915507E+03   -0.32219E-02   -0.32697E-02  8424   0.438E-02 0.306E-03
CGA:  40    -0.669622867627E+03   -0.19521E-02   -0.23400E-02  8424   0.645E-02-0.198E-02
CGA:  41    -0.669624102947E+03   -0.12353E-02   -0.13240E-02  8424   0.570E-02-0.253E-02
CGA:  42    -0.669626481727E+03   -0.23788E-02    0.88909E-01  8424   0.620E-02 0.868E-03
CGA:  43    -0.669599313907E+03    0.27168E-01   -0.14877E-01  8424   0.209E+00-0.242E-01
CGA:  44    -0.669636512810E+03   -0.37199E-01   -0.36954E-01  8424   0.511E-01 0.553E-03
CGA:  45    -0.669650777141E+03   -0.14264E-01   -0.14005E-01  8424   0.837E-02-0.110E-02
CGA:  46    -0.669652628752E+03   -0.18516E-02   -0.19134E-02  8424   0.132E-02 0.168E-03
CGA:  47    -0.669653443779E+03   -0.81503E-03   -0.13836E-02  8424   0.721E-02-0.126E-02
CGA:  48    -0.669654721982E+03   -0.12782E-02   -0.13979E-02  8424   0.131E-02 0.310E-03
CGA:  49    -0.669655483308E+03   -0.76133E-03   -0.11574E-02  8424   0.562E-02-0.146E-02
CGA:  50    -0.669656592138E+03   -0.11088E-02   -0.11904E-02  8424   0.150E-02 0.226E-03
CGA:  51    -0.669657396128E+03   -0.80399E-03   -0.70694E-03  8424   0.247E-02-0.891E-03
CGA:  52    -0.669657966604E+03   -0.57048E-03   -0.53424E-03  8424   0.110E-02-0.103E-03
CGA:  53    -0.669659129343E+03   -0.11627E-02    0.13864E-01  8424   0.194E-02-0.289E-03
CGA:  54    -0.669661977281E+03   -0.28479E-02    0.45797E-03  8424   0.227E-02 0.118E-02
CGA:  55    -0.669662936750E+03   -0.95947E-03   -0.91259E-03  8424   0.106E-02-0.340E-03
CGA:  56    -0.669663979554E+03   -0.10428E-02    0.30828E-02  8424   0.368E-02-0.508E-03
CGA:  57    -0.669668604304E+03   -0.46247E-02    0.41304E-03  8424   0.903E-02 0.945E-03
CGA:  58    -0.669652622838E+03    0.15981E-01   -0.15592E-01  8424   0.443E+00-0.417E-01
CGA:  59    -0.669707423989E+03   -0.54801E-01   -0.56479E-01  8424   0.613E-02-0.194E-01
CGA:  60    -0.669708545336E+03   -0.11213E-02   -0.12345E-02  8424   0.102E-02 0.342E-03
CGA:  61    -0.669709095299E+03   -0.54996E-03   -0.48016E-03  8424   0.173E-02-0.765E-03
CGA:  62    -0.669709444591E+03   -0.34929E-03   -0.30532E-03  8424   0.431E-03-0.121E-03
CGA:  63    -0.669710279660E+03   -0.83507E-03    0.10067E-03  8424   0.671E-03-0.128E-03
CGA:  64    -0.669712011054E+03   -0.17314E-02    0.47185E-04  8424   0.759E-03 0.267E-03
CGA:  65    -0.669714583933E+03   -0.25729E-02    0.20170E-03  8424   0.562E-03 0.234E-03
CGA:  66    -0.669717178609E+03   -0.25947E-02    0.77991E-04  8424   0.111E-02 0.155E-03
CGA:  67    -0.669722867596E+03   -0.56890E-02    0.12606E-03  8424   0.108E-02 0.464E-03
CGA:  68    -0.669729284610E+03   -0.64170E-02    0.12763E-03  8424   0.148E-02 0.399E-03
CGA:  69    -0.669738898745E+03   -0.96141E-02    0.14523E-03  8424   0.156E-02 0.118E-04
CGA:  70    -0.669749700656E+03   -0.10802E-01    0.71112E-04  8424   0.156E-02 0.297E-03
CGA:  71    -0.669761049232E+03   -0.11349E-01    0.96649E-04  8424   0.344E-02-0.112E-02
CGA:  72    -0.669761537422E+03   -0.48819E-03   -0.53105E-03  8424   0.410E-03 0.129E-03
CGA:  73    -0.669761790691E+03   -0.25327E-03   -0.28967E-03  8424   0.797E-03-0.203E-03
CGA:  74    -0.669761921083E+03   -0.13039E-03   -0.13398E-03  8424   0.976E-03 0.527E-05
CGA:  75    -0.669762431493E+03   -0.51041E-03   -0.50995E-03  8424   0.126E-02-0.333E-04
CGA:  76    -0.669762948585E+03   -0.51709E-03   -0.43650E-03  8424   0.122E-02-0.657E-03
CGA:  77    -0.669763178581E+03   -0.23000E-03   -0.26606E-03  8424   0.335E-03 0.132E-03
CGA:  78    -0.669763355233E+03   -0.17665E-03   -0.25931E-03  8424   0.100E-02-0.377E-03
CGA:  79    -0.669763513269E+03   -0.15804E-03   -0.19379E-03  8424   0.236E-03 0.122E-03
CGA:  80    -0.669763629109E+03   -0.11584E-03   -0.18581E-03  8424   0.715E-03-0.311E-03
CGA:  81    -0.669763796747E+03   -0.16764E-03   -0.17703E-03  8424   0.218E-03 0.394E-04
CGA:  82    -0.669758369409E+03    0.54273E-02   -0.29693E-02  8424   0.361E-01-0.237E-02
CGA:  83    -0.669763850130E+03   -0.54807E-02   -0.57263E-02  8424   0.414E-02 0.129E-02
CGA:  84    -0.669765175021E+03   -0.13249E-02   -0.12439E-02  8424   0.130E-03-0.152E-03
CGA:  85    -0.669765464340E+03   -0.28932E-03    0.11281E-03  8424   0.334E-03-0.445E-04
CGA:  86    -0.669766123314E+03   -0.65897E-03    0.10035E-03  8424   0.160E-02-0.195E-03
CGA:  87    -0.669766666401E+03   -0.54309E-03   -0.40280E-03  8424   0.605E-03-0.260E-03
CGA:  88    -0.669766832775E+03   -0.16637E-03   -0.12881E-03  8424   0.140E-03-0.726E-04
CGA:  89    -0.669767239333E+03   -0.40656E-03    0.37980E-04  8424   0.130E-03 0.500E-04
CGA:  90    -0.669767947074E+03   -0.70774E-03    0.39688E-04  8424   0.441E-03 0.541E-04
CGA:  91    -0.669770604366E+03   -0.26573E-02    0.12636E-03  8424   0.732E-03 0.327E-03
CGA:  92    -0.669770965561E+03   -0.36119E-03   -0.27113E-03  8424   0.417E-03-0.240E-03
CGA:  93    -0.669771178685E+03   -0.21312E-03   -0.16502E-03  8424   0.136E-02-0.347E-03
CGA:  94    -0.669771569464E+03   -0.39078E-03   -0.26597E-03  8424   0.331E-03-0.244E-03
CGA:  95    -0.669771748218E+03   -0.17875E-03   -0.22137E-03  8424   0.150E-02-0.364E-03
CGA:  96    -0.669772191957E+03   -0.44374E-03   -0.30423E-03  8424   0.411E-03-0.286E-03
CGA:  97    -0.669772408341E+03   -0.21638E-03   -0.17647E-03  8424   0.732E-03-0.274E-03
CGA:  98    -0.669772703471E+03   -0.29513E-03   -0.18439E-03  8424   0.432E-03-0.268E-03
CGA:  99    -0.669771342247E+03    0.13612E-02   -0.54428E-03  8424   0.163E-01-0.144E-02
CGA: 100    -0.669774242384E+03   -0.29001E-02   -0.26410E-02  8424   0.175E-02-0.658E-03
CGA: 101    -0.669774652831E+03   -0.41045E-03   -0.38191E-03  8424   0.161E-03-0.615E-04
CGA: 102    -0.669775101806E+03   -0.44897E-03    0.44319E-04  8424   0.243E-03-0.346E-05
CGA: 103    -0.669776028979E+03   -0.92717E-03    0.40713E-04  8424   0.502E-03 0.117E-03
CGA: 104    -0.669778736888E+03   -0.27079E-02    0.14239E-03  8424   0.502E-03 0.374E-03
CGA: 105    -0.669778903112E+03   -0.16622E-03   -0.12600E-03  8424   0.289E-03-0.966E-04
CGA: 106    -0.669779561042E+03   -0.65793E-03    0.63304E-04  8424   0.698E-03-0.103E-03
CGA: 107    -0.669781594287E+03   -0.20332E-02    0.57657E-04  8424   0.695E-03 0.332E-03
CGA: 108    -0.669783812276E+03   -0.22180E-02    0.48773E-03  8424   0.270E-02-0.286E-03
CGA: 109    -0.669791125580E+03   -0.73133E-02    0.19904E-03  8424   0.169E-01-0.398E-02
CGA: 110    -0.669796182678E+03   -0.50571E-02   -0.48008E-02  8424   0.201E-02-0.722E-03
CGA: 111    -0.669796549161E+03   -0.36648E-03   -0.34491E-03  8424   0.351E-03-0.382E-04
CGA: 112    -0.669797144026E+03   -0.59486E-03    0.24266E-03  8424   0.493E-03-0.149E-03
CGA: 113    -0.669798406041E+03   -0.12620E-02    0.32058E-04  8424   0.594E-03 0.181E-03
CGA: 114    -0.669800560869E+03   -0.21548E-02    0.20440E-03  8424   0.712E-03 0.119E-03
CGA: 115    -0.669803788184E+03   -0.32273E-02    0.12101E-03  8424   0.908E-03 0.408E-03
CGA: 116    -0.669804114797E+03   -0.32661E-03   -0.27414E-03  8424   0.572E-03-0.173E-03
CGA: 117    -0.669804900187E+03   -0.78539E-03    0.30818E-03  8424   0.133E-02-0.429E-03
CGA: 118    -0.669805217268E+03   -0.31708E-03   -0.28872E-03  8424   0.397E-03-0.739E-04
CGA: 119    -0.669805831875E+03   -0.61461E-03    0.24475E-03  8424   0.907E-03-0.283E-03
CGA: 120    -0.669806084980E+03   -0.25311E-03   -0.21173E-03  8424   0.354E-03-0.121E-03
CGA: 121    -0.669806752831E+03   -0.66785E-03    0.87426E-04  8424   0.772E-03-0.172E-03
CGA: 122    -0.669808649520E+03   -0.18967E-02    0.33205E-04  8424   0.103E-02 0.281E-03
CGA: 123    -0.669811537775E+03   -0.28883E-02    0.45454E-03  8424   0.319E-02-0.400E-03
CGA: 124    -0.669820293622E+03   -0.87558E-02    0.17719E-03  8424   0.123E-01-0.231E-02
CGA: 125    -0.669823552983E+03   -0.32594E-02   -0.30881E-02  8424   0.127E-02-0.577E-03
CGA: 126    -0.669823797737E+03   -0.24475E-03   -0.21096E-03  8424   0.201E-03-0.876E-04
CGA: 127    -0.669824365101E+03   -0.56736E-03    0.25272E-04  8424   0.145E-03 0.516E-04
CGA: 128    -0.669825183297E+03   -0.81820E-03    0.14290E-04  8424   0.127E-03 0.170E-03
CGA: 129    -0.669825592613E+03   -0.40932E-03    0.15634E-04  8424   0.164E-03 0.533E-04
CGA: 130    -0.669826601211E+03   -0.10086E-02    0.19050E-04  8424   0.241E-03 0.136E-03
CGA: 131    -0.669826896399E+03   -0.29519E-03    0.35522E-03  8424   0.906E-03-0.208E-03
CGA: 132    -0.669827235246E+03   -0.33885E-03   -0.19809E-03  8424   0.505E-03-0.470E-03
CGA: 133    -0.669827360355E+03   -0.12511E-03   -0.90892E-04  8424   0.177E-03-0.105E-03
CGA: 134    -0.669827936926E+03   -0.57657E-03    0.10732E-04  8424   0.867E-04 0.115E-03
CGA: 135    -0.669828338634E+03   -0.40171E-03    0.56727E-05  8424   0.881E-04 0.835E-04
CGA: 136    -0.669828749530E+03   -0.41090E-03    0.57160E-05  8424   0.110E-03 0.753E-04
CGA: 137    -0.669829082886E+03   -0.33336E-03    0.12768E-04  8424   0.327E-03 0.483E-05
CGA: 138    -0.669830696124E+03   -0.16132E-02    0.21783E-04  8424   0.257E-03 0.324E-03
CGA: 139    -0.669831023858E+03   -0.32773E-03    0.20506E-03  8424   0.161E-02-0.429E-03
CGA: 140    -0.669831223921E+03   -0.20006E-03   -0.20164E-03  8424   0.901E-04 0.552E-05
CGA: 141    -0.669831615994E+03   -0.39207E-03    0.59022E-05  8424   0.110E-03 0.668E-04
CGA: 142    -0.669831985959E+03   -0.36996E-03    0.10054E-04  8424   0.239E-03 0.718E-05
CGA: 143    -0.669833147204E+03   -0.11612E-02    0.15644E-04  8424   0.231E-03 0.203E-03
CGA: 144    -0.669833453429E+03   -0.30623E-03    0.13217E-03  8424   0.353E-03-0.129E-03
CGA: 145    -0.669833847122E+03   -0.39369E-03    0.45192E-03  8424   0.845E-03-0.367E-03
CGA: 146    -0.669834002515E+03   -0.15539E-03   -0.15041E-03  8424   0.114E-03-0.171E-04
CGA: 147    -0.669834416956E+03   -0.41444E-03    0.82441E-05  8424   0.130E-03 0.372E-04
CGA: 148    -0.669835224291E+03   -0.80733E-03    0.94810E-05  8424   0.111E-03 0.157E-03
CGA: 149    -0.669835503849E+03   -0.27956E-03    0.14336E-04  8424   0.154E-03 0.142E-04
CGA: 150    -0.669836319093E+03   -0.81524E-03    0.95377E-05  8424   0.148E-03 0.129E-03
CGA: 151    -0.669836698919E+03   -0.37983E-03    0.18735E-04  8424   0.110E-03 0.998E-05
CGA: 152    -0.669837231069E+03   -0.53215E-03    0.67452E-05  8424   0.129E-03 0.927E-04
CGA: 153    -0.669837605934E+03   -0.37486E-03    0.13565E-04  8424   0.159E-03 0.376E-05
CGA: 154    -0.669838246600E+03   -0.64067E-03    0.11326E-04  8424   0.212E-03 0.587E-04
CGA: 155    -0.669839544155E+03   -0.12976E-02    0.16977E-04  8424   0.136E-03 0.248E-03
CGA: 156    -0.669839946905E+03   -0.40275E-03    0.13809E-04  8424   0.292E-03-0.506E-04
CGA: 157    -0.669840858692E+03   -0.91179E-03    0.94005E-05  8424   0.448E-03 0.197E-04
CGA: 158    -0.669842362603E+03   -0.15039E-02    0.44478E-04  8424   0.126E-02-0.529E-04
CGA: 159    -0.669847634842E+03   -0.52722E-02    0.60756E-04  8424   0.224E-02 0.389E-03
CGA: 160    -0.669857787764E+03   -0.10153E-01    0.23958E-03  8424   0.818E-02-0.263E-02
CGA: 161    -0.669858679709E+03   -0.89195E-03   -0.10929E-02  8424   0.537E-03 0.665E-03
CGA: 162    -0.669858878667E+03   -0.19896E-03   -0.18934E-03  8424   0.139E-03-0.850E-04
CGA: 163    -0.669859155709E+03   -0.27704E-03    0.14834E-04  8424   0.375E-03-0.130E-03
CGA: 164    -0.669859162485E+03   -0.67762E-05   -0.42152E-04  8424   0.597E-04 0.110E-03
CGA: 165    -0.669859186479E+03   -0.23994E-04   -0.21740E-04  8424   0.104E-03-0.169E-04
CGA: 166    -0.669859443533E+03   -0.25705E-03    0.48429E-05  8424   0.343E-03-0.599E-04
CGA: 167    -0.669859779497E+03   -0.33596E-03    0.37287E-03  8424   0.568E-03-0.297E-03
CGA: 168    -0.669859781456E+03   -0.19594E-05   -0.57516E-04  8424   0.757E-04 0.179E-03
   1 F= -.66985978E+03 E0= -.66985978E+03  d E =-.669860E+03  mag=     2.0000
       N       E                     dE             d eps       ncg     rms          ort
SDA:   1    -0.669860175730E+03   -0.39623E-03    0.00000E+00  8424   0.370E-03 0.000E+00
CGA:   2    -0.669860305420E+03   -0.12969E-03   -0.12406E-03  8424   0.472E-03-0.123E-03
CGA:   3    -0.669859927642E+03    0.37778E-03   -0.26867E-03  8424   0.561E-02-0.137E-02
CGA:   4    -0.669860566876E+03   -0.63923E-03   -0.67218E-03  8424   0.116E-02 0.117E-03
CGA:   5    -0.669860975134E+03   -0.40826E-03   -0.39268E-03  8424   0.652E-03-0.271E-03
CGA:   6    -0.669861129786E+03   -0.15465E-03   -0.11098E-03  8424   0.366E-03-0.268E-03
CGA:   7    -0.669861299466E+03   -0.16968E-03    0.99157E-03  8424   0.365E-03-0.152E-03
CGA:   8    -0.669861624767E+03   -0.32530E-03    0.39330E-04  8424   0.359E-03-0.976E-04
CGA:   9    -0.669862054412E+03   -0.42965E-03    0.42589E-04  8424   0.266E-03 0.122E-04
CGA:  10    -0.669862479760E+03   -0.42535E-03    0.49201E-04  8424   0.200E-03-0.251E-04
CGA:  11    -0.669862904224E+03   -0.42446E-03    0.16204E-04  8424   0.142E-03 0.293E-04
CGA:  12    -0.669863310496E+03   -0.40627E-03    0.13203E-04  8424   0.983E-04 0.590E-04
CGA:  13    -0.669863707295E+03   -0.39680E-03    0.94641E-05  8424   0.804E-04 0.490E-04
CGA:  14    -0.669864109320E+03   -0.40203E-03    0.66495E-05  8424   0.750E-04 0.560E-04
CGA:  15    -0.669864228281E+03   -0.11896E-03    0.12824E-04  8424   0.791E-04-0.623E-05
CGA:  16    -0.669864393845E+03   -0.16556E-03    0.67627E-05  8424   0.107E-03-0.116E-04
CGA:  17    -0.669864758254E+03   -0.36441E-03    0.40185E-05  8424   0.870E-04 0.538E-04
CGA:  18    -0.669864882127E+03   -0.12387E-03    0.18470E-04  8424   0.766E-04 0.326E-05
CGA:  19    -0.669865036777E+03   -0.15465E-03    0.95008E-05  8424   0.122E-03-0.324E-04
CGA:  20    -0.669865401690E+03   -0.36491E-03    0.22842E-05  8424   0.140E-03 0.169E-04
CGA:  21    -0.669865927272E+03   -0.52558E-03    0.88460E-05  8424   0.311E-03 0.279E-04
CGA:  22    -0.669867202367E+03   -0.12751E-02    0.19982E-04  8424   0.227E-03 0.156E-03
CGA:  23    -0.669865850488E+03    0.13519E-02   -0.38924E-03  8424   0.119E-01-0.130E-02
CGA:  24    -0.669867394942E+03   -0.15445E-02   -0.16222E-02  8424   0.118E-02 0.236E-03
CGA:  25    -0.669867707380E+03   -0.31244E-03   -0.30646E-03  8424   0.205E-03-0.343E-04
CGA:  26    -0.669867896434E+03   -0.18905E-03    0.31550E-03  8424   0.382E-03-0.214E-03
CGA:  27    -0.669867909030E+03   -0.12596E-04   -0.44165E-04  8424   0.542E-04 0.104E-03
CGA:  28    -0.669867831356E+03    0.77674E-04   -0.70369E-04  8424   0.127E-02-0.242E-03
CGA:  29    -0.669868276486E+03   -0.44513E-03   -0.32756E-03  8424   0.562E-03-0.661E-03
CGA:  30    -0.669868281549E+03   -0.50624E-05   -0.58234E-04  8424   0.646E-04 0.165E-03
   2 F= -.66986828E+03 E0= -.66986828E+03  d E =-.850009E-02  mag=     2.0000
       N       E                     dE             d eps       ncg     rms          ort
SDA:   1    -0.669574745904E+03    0.29353E+00    0.00000E+00  8424   0.780E+00 0.000E+00
CGA:   2    -0.669770865069E+03   -0.19612E+00   -0.19610E+00  8424   0.411E+00-0.362E-03
CGA:   3    -0.669851372538E+03   -0.80507E-01   -0.80465E-01  8424   0.101E+00-0.231E-03
CGA:   4    -0.669867244425E+03   -0.15872E-01   -0.15866E-01  8424   0.225E-01-0.377E-04
CGA:   5    -0.669871079980E+03   -0.38356E-02   -0.38378E-02  8424   0.472E-02 0.713E-05
CGA:   6    -0.669872080187E+03   -0.10002E-02   -0.99145E-03  8424   0.117E-02-0.601E-04
CGA:   7    -0.669872395136E+03   -0.31495E-03   -0.29769E-03  8424   0.468E-03-0.185E-03
CGA:   8    -0.669872535041E+03   -0.13991E-03   -0.17480E-03  8424   0.702E-03-0.358E-03
CGA:   9    -0.669872683632E+03   -0.14859E-03   -0.13057E-03  8424   0.163E-03-0.110E-03
CGA:  10    -0.669872796709E+03   -0.11308E-03    0.11754E-03  8424   0.714E-04-0.256E-04
CGA:  11    -0.669872926144E+03   -0.12943E-03    0.48299E-05  8424   0.427E-04 0.982E-05
CGA:  12    -0.669873071860E+03   -0.14572E-03    0.24670E-05  8424   0.336E-04 0.266E-04
CGA:  13    -0.669873152724E+03   -0.80864E-04    0.22899E-05  8424   0.382E-04 0.583E-05
CGA:  14    -0.669873300359E+03   -0.14763E-03    0.20151E-05  8424   0.382E-04 0.239E-04
CGA:  15    -0.669873387730E+03   -0.87371E-04    0.28031E-05  8424   0.401E-04 0.236E-05
CGA:  16    -0.669873526515E+03   -0.13879E-03    0.19417E-05  8424   0.483E-04 0.162E-04
CGA:  17    -0.669873784855E+03   -0.25834E-03    0.25474E-05  8424   0.348E-04 0.570E-04
CGA:  18    -0.669873868573E+03   -0.83718E-04    0.23731E-05  8424   0.446E-04 0.525E-05
CGA:  19    -0.669874019492E+03   -0.15092E-03    0.26652E-05  8424   0.380E-04 0.152E-04
CGA:  20    -0.669874235042E+03   -0.21555E-03    0.16897E-05  8424   0.345E-04 0.484E-04
CGA:  21    -0.669874318724E+03   -0.83681E-04    0.23228E-05  8424   0.309E-04 0.126E-04
CGA:  22    -0.669874443894E+03   -0.12517E-03    0.21665E-05  8424   0.368E-04 0.126E-04
CGA:  23    -0.669874678662E+03   -0.23477E-03    0.15818E-05  8424   0.365E-04 0.440E-04
CGA:  24    -0.669874757684E+03   -0.79023E-04    0.28900E-05  8424   0.202E-04 0.182E-04
CGA:  25    -0.669874865109E+03   -0.10742E-03    0.12333E-05  8424   0.216E-04 0.181E-04
CGA:  26    -0.669874939099E+03   -0.73990E-04    0.92723E-06  8424   0.271E-04 0.115E-04
CGA:  27    -0.669874999159E+03   -0.60060E-04    0.20707E-05  8424   0.659E-04-0.693E-05
CGA:  28    -0.669875236609E+03   -0.23745E-03    0.13843E-05  8424   0.115E-03 0.443E-04
CGA:  29    -0.669875254827E+03   -0.18218E-04   -0.52698E-04  8424   0.102E-02-0.296E-03
CGA:  30    -0.669875366629E+03   -0.11180E-03   -0.11178E-03  8424   0.194E-04 0.844E-06
CGA:  31    -0.669875440953E+03   -0.74324E-04    0.69702E-06  8424   0.236E-04 0.109E-04
CGA:  32    -0.669875499145E+03   -0.58192E-04    0.14950E-05  8424   0.331E-04 0.404E-05
CGA:  33    -0.669875668497E+03   -0.16935E-03    0.11891E-05  8424   0.297E-04 0.365E-04
CGA:  34    -0.669875740709E+03   -0.72211E-04    0.19130E-05  8424   0.327E-04-0.294E-06
CGA:  35    -0.669875880325E+03   -0.13962E-03    0.10071E-05  8424   0.335E-04 0.309E-04
CGA:  36    -0.669875948073E+03   -0.67748E-04    0.28110E-05  8424   0.283E-04-0.224E-06
CGA:  37    -0.669876073855E+03   -0.12578E-03    0.83727E-06  8424   0.284E-04 0.273E-04
CGA:  38    -0.669876142574E+03   -0.68720E-04    0.18340E-05  8424   0.210E-04 0.637E-05
CGA:  39    -0.669876258532E+03   -0.11596E-03    0.76147E-06  8424   0.229E-04 0.249E-04
CGA:  40    -0.669876326782E+03   -0.68250E-04    0.11252E-05  8424   0.172E-04 0.108E-04
CGA:  41    -0.669876443439E+03   -0.11666E-03    0.73041E-06  8424   0.203E-04 0.243E-04
CGA:  42    -0.669876510955E+03   -0.67516E-04    0.86528E-06  8424   0.159E-04 0.123E-04
CGA:  43    -0.669876577202E+03   -0.66247E-04    0.51438E-06  8424   0.150E-04 0.140E-04
CGA:  44    -0.669876643617E+03   -0.66414E-04    0.44903E-06  8424   0.147E-04 0.144E-04
CGA:  45    -0.669876709790E+03   -0.66174E-04    0.43392E-06  8424   0.146E-04 0.145E-04
CGA:  46    -0.669876776080E+03   -0.66290E-04    0.42604E-06  8424   0.145E-04 0.145E-04
CGA:  47    -0.669876842235E+03   -0.66155E-04    0.42261E-06  8424   0.145E-04 0.144E-04
CGA:  48    -0.669876908404E+03   -0.66169E-04    0.41891E-06  8424   0.144E-04 0.144E-04
CGA:  49    -0.669876974472E+03   -0.66068E-04    0.41651E-06  8424   0.144E-04 0.143E-04
CGA:  50    -0.669877040398E+03   -0.65926E-04    0.41526E-06  8424   0.144E-04 0.142E-04
CGA:  51    -0.669877106451E+03   -0.66052E-04    0.41435E-06  8424   0.145E-04 0.140E-04
CGA:  52    -0.669877171580E+03   -0.65129E-04    0.43108E-06  8424   0.153E-04 0.135E-04
CGA:  53    -0.669877238076E+03   -0.66496E-04    0.47377E-06  8424   0.190E-04 0.117E-04
CGA:  54    -0.669877298878E+03   -0.60802E-04    0.85574E-06  8424   0.355E-04 0.369E-05
CGA:  55    -0.669877489101E+03   -0.19022E-03    0.12609E-05  8424   0.237E-04 0.411E-04
CGA:  56    -0.669877554394E+03   -0.65293E-04    0.12879E-05  8424   0.535E-04-0.581E-05
CGA:  57    -0.669877762655E+03   -0.20826E-03    0.10171E-05  8424   0.848E-04 0.361E-04
CGA:  58    -0.669877786828E+03   -0.24173E-04   -0.33598E-04  8424   0.446E-03-0.159E-03
CGA:  59    -0.669877868391E+03   -0.81563E-04   -0.62186E-04  8424   0.452E-04-0.970E-04
CGA:  60    -0.669877935156E+03   -0.66765E-04    0.31211E-05  8424   0.433E-04-0.553E-05
CGA:  61    -0.669878067019E+03   -0.13186E-03    0.14681E-05  8424   0.146E-04 0.257E-04
CGA:  62    -0.669878132291E+03   -0.65272E-04    0.41565E-06  8424   0.159E-04 0.112E-04
CGA:  63    -0.669878186547E+03   -0.54256E-04    0.62657E-06  8424   0.227E-04 0.776E-05
CGA:  64    -0.669878341820E+03   -0.15527E-03    0.92847E-06  8424   0.149E-04 0.311E-04
CGA:  65    -0.669878404803E+03   -0.62983E-04    0.45075E-06  8424   0.153E-04 0.103E-04
CGA:  66    -0.669878462384E+03   -0.57580E-04    0.53742E-06  8424   0.164E-04 0.934E-05
CGA:  67    -0.669878528864E+03   -0.66480E-04    0.52772E-06  8424   0.186E-04 0.766E-05
CGA:  68    -0.669878655546E+03   -0.12668E-03    0.74201E-06  8424   0.164E-04 0.262E-04
CGA:  69    -0.669878714609E+03   -0.59063E-04    0.60784E-06  8424   0.157E-04 0.831E-05
CGA:  70    -0.669878776864E+03   -0.62255E-04    0.51863E-06  8424   0.150E-04 0.892E-05
CGA:  71    -0.669878833712E+03   -0.56847E-04    0.51626E-06  8424   0.144E-04 0.942E-05
CGA:  72    -0.669878897666E+03   -0.63955E-04    0.41584E-06  8424   0.144E-04 0.954E-05
CGA:  73    -0.669878951044E+03   -0.53378E-04    0.51352E-06  8424   0.151E-04 0.906E-05
CGA:  74    -0.669879018334E+03   -0.67290E-04    0.42989E-06  8424   0.167E-04 0.780E-05
CGA:  75    -0.669879065476E+03   -0.47142E-04    0.84143E-06  8424   0.202E-04 0.521E-05
CGA:  76    -0.669879198737E+03   -0.13326E-03    0.65762E-06  8424   0.171E-04 0.260E-04
CGA:  77    -0.669879267367E+03   -0.68629E-04    0.55162E-06  8424   0.207E-04 0.424E-05
CGA:  78    -0.669879394731E+03   -0.12736E-03    0.65896E-06  8424   0.180E-04 0.252E-04
CGA:  79    -0.669879442535E+03   -0.47803E-04    0.97716E-06  8424   0.214E-04 0.287E-05
CGA:  80    -0.669879571722E+03   -0.12919E-03    0.59058E-06  8424   0.196E-04 0.239E-04
CGA:  81    -0.669879636423E+03   -0.64701E-04    0.80284E-06  8424   0.213E-04 0.149E-05
CGA:  82    -0.669879752671E+03   -0.11625E-03    0.56272E-06  8424   0.205E-04 0.217E-04
CGA:  83    -0.669879804537E+03   -0.51866E-04    0.11854E-05  8424   0.190E-04 0.165E-05
CGA:  84    -0.669879915224E+03   -0.11069E-03    0.47011E-06  8424   0.188E-04 0.192E-04
CGA:  85    -0.669879973005E+03   -0.57781E-04    0.84390E-06  8424   0.148E-04 0.426E-05
CGA:  86    -0.669880070715E+03   -0.97710E-04    0.41496E-06  8424   0.158E-04 0.173E-04
CGA:  87    -0.669880126866E+03   -0.56151E-04    0.58986E-06  8424   0.119E-04 0.676E-05
CGA:  88    -0.669880222804E+03   -0.95938E-04    0.37043E-06  8424   0.139E-04 0.164E-04
CGA:  89    -0.669880276939E+03   -0.54135E-04    0.46430E-06  8424   0.107E-04 0.776E-05
CGA:  90    -0.669880331529E+03   -0.54591E-04    0.26335E-06  8424   0.996E-05 0.913E-05
CGA:  91    -0.669880385248E+03   -0.53719E-04    0.22821E-06  8424   0.973E-05 0.939E-05
CGA:  92    -0.669880438932E+03   -0.53684E-04    0.21729E-06  8424   0.963E-05 0.940E-05
CGA:  93    -0.669880492848E+03   -0.53916E-04    0.21141E-06  8424   0.957E-05 0.934E-05
CGA:  94    -0.669880545678E+03   -0.52829E-04    0.21354E-06  8424   0.954E-05 0.924E-05
CGA:  95    -0.669880600103E+03   -0.54425E-04    0.20530E-06  8424   0.958E-05 0.910E-05
CGA:  96    -0.669880651304E+03   -0.51200E-04    0.22171E-06  8424   0.973E-05 0.887E-05
CGA:  97    -0.669880707353E+03   -0.56050E-04    0.20680E-06  8424   0.101E-04 0.846E-05
CGA:  98    -0.669880754814E+03   -0.47461E-04    0.27248E-06  8424   0.110E-04 0.770E-05
CGA:  99    -0.669880815104E+03   -0.60290E-04    0.24841E-06  8424   0.130E-04 0.621E-05
CGA: 100    -0.669880854318E+03   -0.39214E-04    0.59560E-06  8424   0.172E-04 0.316E-05
CGA: 101    -0.669880978697E+03   -0.12438E-03    0.45091E-06  8424   0.141E-04 0.209E-04
CGA: 102    -0.669881042402E+03   -0.63705E-04    0.39501E-06  8424   0.189E-04 0.120E-05
CGA: 103    -0.669881160896E+03   -0.11849E-03    0.43634E-06  8424   0.174E-04 0.202E-04
CGA: 104    -0.669881196223E+03   -0.35326E-04    0.13743E-05  8424   0.240E-04-0.350E-05
CGA: 105    -0.669881317615E+03   -0.12139E-03    0.36674E-06  8424   0.273E-04 0.186E-04
CGA: 106    -0.669881383538E+03   -0.65923E-04    0.16856E-05  8424   0.377E-04-0.158E-04
CGA: 107    -0.669881222434E+03    0.16110E-03   -0.48322E-04  8424   0.175E-02-0.220E-03
CGA: 108    -0.669881610941E+03   -0.38851E-03   -0.31587E-03  8424   0.931E-04-0.370E-03
CGA: 109    -0.669881623255E+03   -0.12314E-04   -0.13836E-04  8424   0.839E-05 0.847E-05
CGA: 110    -0.669881681487E+03   -0.58232E-04    0.20827E-06  8424   0.113E-04 0.636E-05
CGA: 111    -0.669881738059E+03   -0.56572E-04    0.33959E-06  8424   0.144E-04 0.247E-05
CGA: 112    -0.669881854041E+03   -0.11598E-03    0.37930E-06  8424   0.125E-04 0.172E-04
CGA: 113    -0.669881902214E+03   -0.48173E-04    0.50773E-06  8424   0.156E-04 0.694E-06
CGA: 114    -0.669882019946E+03   -0.11773E-03    0.32915E-06  8424   0.150E-04 0.162E-04
CGA: 115    -0.669882070044E+03   -0.50098E-04    0.72980E-06  8424   0.183E-04-0.244E-05
CGA: 116    -0.669882178795E+03   -0.10875E-03    0.30705E-06  8424   0.194E-04 0.150E-04
CGA: 117    -0.669882229804E+03   -0.51009E-04    0.13045E-05  8424   0.229E-04-0.751E-05
CGA: 118    -0.669882339618E+03   -0.10981E-03    0.25377E-06  8424   0.259E-04 0.136E-04
CGA: 119    -0.669882381706E+03   -0.42088E-04    0.36647E-05  8424   0.289E-04-0.142E-04
CGA: 120    -0.669882431874E+03   -0.50168E-04    0.36379E-05  8424   0.317E-04-0.174E-04
CGA: 121    -0.669882479876E+03   -0.48002E-04    0.51225E-05  8424   0.343E-04-0.203E-04
CGA: 122    -0.669882522756E+03   -0.42880E-04    0.82339E-05  8424   0.362E-04-0.226E-04
CGA: 123    -0.669882577014E+03   -0.54258E-04    0.59267E-05  8424   0.374E-04-0.243E-04
CGA: 124    -0.669882613540E+03   -0.36527E-04    0.18380E-04  8424   0.377E-04-0.253E-04
CGA: 125    -0.669882672377E+03   -0.58836E-04    0.57479E-05  8424   0.373E-04-0.254E-04
CGA: 126    -0.669882704968E+03   -0.32591E-04    0.30463E-04  8424   0.361E-04-0.247E-04
CGA: 127    -0.669882765627E+03   -0.60659E-04    0.48124E-05  8424   0.343E-04-0.233E-04
CGA: 128    -0.669882796862E+03   -0.31235E-04    0.22674E-04  8424   0.320E-04-0.214E-04
CGA: 129    -0.669882857013E+03   -0.60151E-04    0.35365E-05  8424   0.295E-04-0.191E-04
CGA: 130    -0.669882888346E+03   -0.31333E-04    0.10885E-04  8424   0.268E-04-0.166E-04
CGA: 131    -0.669882947037E+03   -0.58692E-04    0.23304E-05  8424   0.242E-04-0.140E-04
CGA: 132    -0.669882978538E+03   -0.31500E-04    0.52722E-05  8424   0.217E-04-0.116E-04
CGA: 133    -0.669883064022E+03   -0.85484E-04    0.21054E-06  8424   0.195E-04 0.111E-04
CGA: 134    -0.669883118369E+03   -0.54347E-04    0.12084E-05  8424   0.175E-04-0.755E-05
CGA: 135    -0.669883200661E+03   -0.82292E-04    0.19904E-06  8424   0.161E-04 0.106E-04
CGA: 136    -0.669883235144E+03   -0.34483E-04    0.14548E-05  8424   0.145E-04-0.462E-05
CGA: 137    -0.669883316508E+03   -0.81364E-04    0.18533E-06  8424   0.135E-04 0.102E-04
CGA: 138    -0.669883366296E+03   -0.49788E-04    0.58654E-06  8424   0.123E-04-0.251E-05
CGA: 139    -0.669883446903E+03   -0.80607E-04    0.17627E-06  8424   0.118E-04 0.993E-05
CGA: 140    -0.669883481856E+03   -0.34953E-04    0.67609E-06  8424   0.109E-04-0.119E-05
CGA: 141    -0.669883561552E+03   -0.79696E-04    0.17073E-06  8424   0.106E-04 0.973E-05
CGA: 142    -0.669883609146E+03   -0.47594E-04    0.36385E-06  8424   0.100E-04-0.362E-06
CGA: 143    -0.669883689049E+03   -0.79903E-04    0.16473E-06  8424   0.986E-05 0.957E-05
CGA: 144    -0.669883723291E+03   -0.34241E-04    0.45903E-06  8424   0.943E-05 0.114E-06
CGA: 145    -0.669883802150E+03   -0.78859E-04    0.16203E-06  8424   0.931E-05 0.943E-05
CGA: 146    -0.669883848712E+03   -0.46562E-04    0.27899E-06  8424   0.902E-05 0.373E-06
CGA: 147    -0.669883927838E+03   -0.79126E-04    0.15603E-06  8424   0.892E-05 0.927E-05
CGA: 148    -0.669883960712E+03   -0.32874E-04    0.38549E-06  8424   0.873E-05 0.486E-06
CGA: 149    -0.669884038387E+03   -0.77675E-04    0.15296E-06  8424   0.863E-05 0.910E-05
CGA: 150    -0.669884084336E+03   -0.45949E-04    0.24018E-06  8424   0.849E-05 0.520E-06
CGA: 151    -0.669884161913E+03   -0.77578E-04    0.14636E-06  8424   0.840E-05 0.890E-05
CGA: 152    -0.669884193023E+03   -0.31110E-04    0.36090E-06  8424   0.832E-05 0.500E-06
CGA: 153    -0.669884268979E+03   -0.75955E-04    0.14333E-06  8424   0.823E-05 0.872E-05
CGA: 154    -0.669884314436E+03   -0.45457E-04    0.21968E-06  8424   0.820E-05 0.438E-06
CGA: 155    -0.669884390103E+03   -0.75668E-04    0.13792E-06  8424   0.811E-05 0.854E-05
CGA: 156    -0.669884419403E+03   -0.29300E-04    0.35910E-06  8424   0.817E-05 0.324E-06
CGA: 157    -0.669884493953E+03   -0.74550E-04    0.13527E-06  8424   0.806E-05 0.839E-05
CGA: 158    -0.669884538918E+03   -0.44965E-04    0.21279E-06  8424   0.823E-05 0.135E-06
CGA: 159    -0.669884613058E+03   -0.74140E-04    0.13202E-06  8424   0.812E-05 0.827E-05
CGA: 160    -0.669884640628E+03   -0.27570E-04    0.38866E-06  8424   0.846E-05-0.171E-06
CGA: 161    -0.669884714598E+03   -0.73970E-04    0.12930E-06  8424   0.834E-05 0.816E-05
CGA: 162    -0.669884759090E+03   -0.44492E-04    0.23197E-06  8424   0.890E-05-0.659E-06
CGA: 163    -0.669884832431E+03   -0.73341E-04    0.12795E-06  8424   0.884E-05 0.806E-05
CGA: 164    -0.669884858147E+03   -0.25716E-04    0.51765E-06  8424   0.971E-05-0.145E-05
CGA: 165    -0.669884932251E+03   -0.74105E-04    0.12404E-06  8424   0.982E-05 0.794E-05
CGA: 166    -0.669884976601E+03   -0.44350E-04    0.33169E-06  8424   0.111E-04-0.275E-05
CGA: 167    -0.669885049687E+03   -0.73086E-04    0.12227E-06  8424   0.116E-04 0.772E-05
CGA: 168    -0.669885072807E+03   -0.23119E-04    0.11783E-05  8424   0.136E-04-0.496E-05
CGA: 169    -0.669885147049E+03   -0.74242E-04    0.11390E-06  8424   0.151E-04 0.729E-05
CGA: 170    -0.669885192214E+03   -0.45165E-04    0.84593E-06  8424   0.180E-04-0.883E-05
CGA: 171    -0.669885209645E+03   -0.17431E-04    0.91489E-05  8424   0.232E-04-0.131E-04
CGA: 172    -0.669885260833E+03   -0.51187E-04    0.19922E-05  8424   0.307E-04-0.194E-04
CGA: 173    -0.669885270226E+03   -0.93938E-05   -0.81695E-05  8424   0.141E-04-0.133E-04
   3 F= -.66988527E+03 E0= -.66988527E+03  d E =-.169887E-01  mag=     2.0000
       N       E                     dE             d eps       ncg     rms          ort
SDA:   1    -0.668235666473E+03    0.16496E+01    0.00000E+00  8424   0.396E+01 0.000E+00
CGA:   2    -0.669410067375E+03   -0.11744E+01   -0.11743E+01  8424   0.216E+01-0.173E-02
CGA:   3    -0.669789034007E+03   -0.37897E+00   -0.37908E+00  8424   0.436E+00-0.130E-03
CGA:   4    -0.669858176061E+03   -0.69142E-01   -0.69134E-01  8424   0.103E+00-0.865E-04
CGA:   5    -0.669876170405E+03   -0.17994E-01   -0.18005E-01  8424   0.221E-01 0.504E-04
CGA:   6    -0.669880660522E+03   -0.44901E-02   -0.45091E-02  8424   0.519E-02 0.154E-03
CGA:   7    -0.669881840051E+03   -0.11795E-02   -0.11720E-02  8424   0.157E-02-0.802E-04
CGA:   8    -0.669882251878E+03   -0.41183E-03   -0.40831E-03  8424   0.570E-03-0.716E-04
CGA:   9    -0.669882433721E+03   -0.18184E-03   -0.18495E-03  8424   0.302E-03-0.110E-03
CGA:  10    -0.669882477198E+03   -0.43477E-04   -0.16760E-03  8424   0.755E-03-0.332E-03
CGA:  11    -0.669882622647E+03   -0.14545E-03   -0.14236E-03  8424   0.115E-03-0.218E-04
CGA:  12    -0.669882696438E+03   -0.73792E-04    0.96422E-03  8424   0.384E-04 0.168E-05
CGA:  13    -0.669882743678E+03   -0.47239E-04    0.72964E-05  8424   0.262E-04 0.705E-05
CGA:  14    -0.669882806163E+03   -0.62485E-04    0.24006E-05  8424   0.198E-04 0.779E-05
CGA:  15    -0.669882888897E+03   -0.82735E-04    0.10522E-05  8424   0.125E-04 0.133E-04
CGA:  16    -0.669882912806E+03   -0.23909E-04    0.10363E-05  8424   0.927E-05 0.633E-05
CGA:  17    -0.669882958993E+03   -0.46187E-04    0.22523E-06  8424   0.121E-04 0.409E-05
CGA:  18    -0.669883022003E+03   -0.63010E-04    0.62153E-06  8424   0.784E-05 0.146E-04
CGA:  19    -0.669883046355E+03   -0.24352E-04    0.33646E-06  8424   0.726E-05 0.548E-05
CGA:  20    -0.669883087026E+03   -0.40671E-04    0.15432E-06  8424   0.836E-05 0.489E-05
CGA:  21    -0.669883098815E+03   -0.11789E-04    0.11576E-05  8424   0.122E-04 0.252E-05
CGA:  22    -0.669883176516E+03   -0.77701E-04    0.39425E-06  8424   0.847E-05 0.151E-04
CGA:  23    -0.669883225597E+03   -0.49081E-04    0.17344E-06  8424   0.119E-04 0.186E-05
CGA:  24    -0.669883293231E+03   -0.67633E-04    0.38003E-06  8424   0.936E-05 0.137E-04
CGA:  25    -0.669883300976E+03   -0.77457E-05    0.55397E-05  8424   0.119E-04 0.711E-06
   4 F= -.66988330E+03 E0= -.66988330E+03  d E =0.196925E-02  mag=     2.0000
       N       E                     dE             d eps       ncg     rms          ort
SDA:   1    -0.667595849977E+03    0.22874E+01    0.00000E+00  8424   0.568E+01 0.000E+00
CGA:   2    -0.669165079324E+03   -0.15692E+01   -0.15693E+01  8424   0.309E+01-0.117E-02
CGA:   3    -0.669731271018E+03   -0.56619E+00   -0.56611E+00  8424   0.671E+00 0.451E-04
CGA:   4    -0.669836853247E+03   -0.10558E+00   -0.10553E+00  8424   0.155E+00-0.431E-03
CGA:   5    -0.669863726614E+03   -0.26873E-01   -0.26841E-01  8424   0.332E-01-0.279E-03
CGA:   6    -0.669870593490E+03   -0.68669E-02   -0.68445E-02  8424   0.794E-02-0.242E-03
CGA:   7    -0.669872449424E+03   -0.18559E-02   -0.18287E-02  8424   0.251E-02-0.427E-03
CGA:   8    -0.669873132964E+03   -0.68354E-03   -0.68112E-03  8424   0.109E-02-0.418E-03
CGA:   9    -0.669873139798E+03   -0.68340E-05   -0.64049E-03  8424   0.420E-02-0.154E-02
CGA:  10    -0.669873862451E+03   -0.72265E-03   -0.71307E-03  8424   0.539E-03-0.676E-04
CGA:  11    -0.669869063869E+03    0.47986E-02   -0.25929E-02  8424   0.299E-01-0.346E-02
CGA:  12    -0.669873699068E+03   -0.46352E-02   -0.47865E-02  8424   0.470E-02 0.444E-03
CGA:  13    -0.669874941275E+03   -0.12422E-02   -0.11258E-02  8424   0.102E-02-0.389E-03
CGA:  14    -0.669875160456E+03   -0.21918E-03   -0.19566E-03  8424   0.175E-03-0.746E-04
CGA:  15    -0.669875426239E+03   -0.26578E-03    0.66281E-04  8424   0.273E-03-0.103E-03
CGA:  16    -0.669875489780E+03   -0.63540E-04   -0.46237E-04  8424   0.871E-04-0.510E-04
CGA:  17    -0.669875742040E+03   -0.25226E-03    0.65967E-05  8424   0.133E-03-0.426E-04
CGA:  18    -0.669876240339E+03   -0.49830E-03    0.25994E-05  8424   0.133E-03 0.385E-05
CGA:  19    -0.669876982222E+03   -0.74188E-03    0.73533E-05  8424   0.859E-04 0.281E-04
CGA:  20    -0.669877564456E+03   -0.58223E-03    0.54320E-05  8424   0.131E-03 0.226E-05
CGA:  21    -0.669878669327E+03   -0.11049E-02    0.44428E-05  8424   0.265E-03-0.405E-04
CGA:  22    -0.669880960325E+03   -0.22910E-02    0.38030E-05  8424   0.294E-03 0.197E-04
CGA:  23    -0.669883629076E+03   -0.26688E-02    0.10169E-04  8424   0.620E-03-0.574E-04
CGA:  24    -0.669889505028E+03   -0.58760E-02    0.11117E-04  8424   0.105E-02-0.659E-03
CGA:  25    -0.669889647599E+03   -0.14257E-03   -0.19127E-03  8424   0.269E-03 0.157E-03
CGA:  26    -0.669889722643E+03   -0.75044E-04   -0.72406E-04  8424   0.424E-04-0.112E-04
CGA:  27    -0.669889715851E+03    0.67923E-05   -0.40115E-05  8424   0.241E-04 0.296E-04
   5 F= -.66988972E+03 E0= -.66988972E+03  d E =-.641487E-02  mag=     2.0000
       N       E                     dE             d eps       ncg     rms          ort
SDA:   1    -0.666991988470E+03    0.28977E+01    0.00000E+00  8424   0.772E+01 0.000E+00
CGA:   2    -0.668849629517E+03   -0.18576E+01   -0.18590E+01  8424   0.406E+01 0.345E-03
CGA:   3    -0.669663192091E+03   -0.81356E+00   -0.81310E+00  8424   0.105E+01 0.232E-03
CGA:   4    -0.669826885112E+03   -0.16369E+00   -0.16370E+00  8424   0.227E+00-0.179E-03
CGA:   5    -0.669865742838E+03   -0.38858E-01   -0.38860E-01  8424   0.468E-01-0.549E-04
CGA:   6    -0.669875429399E+03   -0.96866E-02   -0.96583E-02  8424   0.116E-01-0.165E-03
CGA:   7    -0.669877949243E+03   -0.25198E-02   -0.25162E-02  8424   0.320E-02-0.248E-04
CGA:   8    -0.669878795383E+03   -0.84614E-03   -0.82784E-03  8424   0.110E-02-0.173E-03
CGA:   9    -0.669879164668E+03   -0.36929E-03   -0.36629E-03  8424   0.651E-03-0.304E-03
CGA:  10    -0.669879138338E+03    0.26330E-04   -0.37827E-03  8424   0.263E-02-0.921E-03
CGA:  11    -0.669879630294E+03   -0.49196E-03   -0.47544E-03  8424   0.414E-03-0.825E-04
CGA:  12    -0.669879790359E+03   -0.16007E-03   -0.21658E-03  8424   0.843E-03-0.337E-03
CGA:  13    -0.669879935809E+03   -0.14545E-03   -0.13031E-03  8424   0.163E-03-0.665E-04
CGA:  14    -0.669880065692E+03   -0.12988E-03    0.16423E-03  8424   0.145E-03-0.729E-04
CGA:  15    -0.669880228786E+03   -0.16309E-03    0.85136E-05  8424   0.126E-03-0.195E-04
CGA:  16    -0.669880496026E+03   -0.26724E-03    0.87153E-05  8424   0.593E-04 0.318E-04
CGA:  17    -0.669880686344E+03   -0.19032E-03    0.55466E-05  8424   0.429E-04 0.175E-04
CGA:  18    -0.669880923010E+03   -0.23667E-03    0.21464E-05  8424   0.492E-04 0.221E-04
CGA:  19    -0.669880982739E+03   -0.59729E-04    0.14066E-04  8424   0.904E-04-0.201E-04
CGA:  20    -0.669881203032E+03   -0.22029E-03    0.21579E-05  8424   0.103E-03-0.150E-04
CGA:  21    -0.669881553409E+03   -0.35038E-03    0.35235E-05  8424   0.244E-03-0.229E-04
CGA:  22    -0.669882405225E+03   -0.85182E-03    0.68713E-05  8424   0.287E-03 0.624E-05
CGA:  23    -0.669883394383E+03   -0.98916E-03    0.15299E-04  8424   0.775E-03-0.168E-03
CGA:  24    -0.669883577839E+03   -0.18346E-03   -0.13625E-03  8424   0.215E-03-0.244E-03
CGA:  25    -0.669883634020E+03   -0.56181E-04   -0.70062E-04  8424   0.246E-03-0.118E-03
CGA:  26    -0.669883724704E+03   -0.90685E-04   -0.70807E-04  8424   0.415E-03-0.255E-03
CGA:  27    -0.669883758798E+03   -0.34093E-04   -0.43540E-04  8424   0.118E-04 0.368E-04
CGA:  28    -0.669883803232E+03   -0.44434E-04    0.56598E-06  8424   0.279E-04 0.467E-06
CGA:  29    -0.669883985176E+03   -0.18194E-03    0.63298E-06  8424   0.339E-04 0.191E-04
CGA:  30    -0.669884057181E+03   -0.72005E-04    0.28826E-05  8424   0.940E-04-0.383E-04
CGA:  31    -0.669884067941E+03   -0.10760E-04   -0.11324E-04  8424   0.729E-05 0.244E-05
CGA:  32    -0.669884119775E+03   -0.51834E-04    0.13600E-06  8424   0.780E-05 0.639E-05
CGA:  33    -0.669884175206E+03   -0.55431E-04    0.13782E-06  8424   0.105E-04 0.414E-05
CGA:  34    -0.669884210929E+03   -0.35723E-04    0.43402E-06  8424   0.219E-04-0.170E-05
CGA:  35    -0.669884359081E+03   -0.14815E-03    0.28156E-06  8424   0.285E-04 0.173E-04
CGA:  36    -0.669884427796E+03   -0.68715E-04    0.18681E-05  8424   0.897E-04-0.370E-04
CGA:  37    -0.669884435131E+03   -0.73349E-05   -0.96579E-05  8424   0.616E-05 0.101E-04
   6 F= -.66988444E+03 E0= -.66988444E+03  d E =0.528072E-02  mag=     2.0000
       N       E                     dE             d eps       ncg     rms          ort
SDA:   1    -0.666782929683E+03    0.31015E+01    0.00000E+00  8424   0.798E+01 0.000E+00
CGA:   2    -0.668865759445E+03   -0.20828E+01   -0.20831E+01  8424   0.425E+01 0.875E-04
CGA:   3    -0.669674562904E+03   -0.80880E+00   -0.80858E+00  8424   0.982E+00-0.210E-03
CGA:   4    -0.669829120923E+03   -0.15456E+00   -0.15454E+00  8424   0.224E+00-0.428E-03
CGA:   5    -0.669867900105E+03   -0.38779E-01   -0.38768E-01  8424   0.471E-01-0.147E-03
CGA:   6    -0.669877643604E+03   -0.97435E-02   -0.97224E-02  8424   0.113E-01-0.226E-03
CGA:   7    -0.669880216815E+03   -0.25732E-02   -0.25551E-02  8424   0.335E-02-0.262E-03
CGA:   8    -0.669881076748E+03   -0.85993E-03   -0.85406E-03  8424   0.118E-02-0.182E-03
CGA:   9    -0.669881470651E+03   -0.39390E-03   -0.48624E-03  8424   0.120E-02-0.633E-03
CGA:  10    -0.669881711568E+03   -0.24092E-03   -0.23514E-03  8424   0.233E-03-0.563E-04
CGA:  11    -0.669881885342E+03   -0.17377E-03    0.97685E-04  8424   0.883E-04-0.805E-05
CGA:  12    -0.669881995304E+03   -0.10996E-03    0.10465E-04  8424   0.595E-04 0.154E-04
CGA:  13    -0.669882171645E+03   -0.17634E-03    0.31099E-05  8424   0.405E-04 0.306E-04
CGA:  14    -0.669882253305E+03   -0.81660E-04    0.24434E-05  8424   0.280E-04 0.160E-04
CGA:  15    -0.669882391225E+03   -0.13792E-03    0.11439E-05  8424   0.283E-04 0.286E-04
CGA:  16    -0.669882467830E+03   -0.76604E-04    0.11533E-05  8424   0.247E-04 0.157E-04
CGA:  17    -0.669882552435E+03   -0.84605E-04    0.75139E-06  8424   0.334E-04 0.111E-04
CGA:  18    -0.669882733613E+03   -0.18118E-03    0.13171E-05  8424   0.217E-04 0.439E-04
CGA:  19    -0.669882807048E+03   -0.73435E-04    0.66845E-06  8424   0.228E-04 0.150E-04
CGA:  20    -0.669882887817E+03   -0.80769E-04    0.66232E-06  8424   0.328E-04 0.948E-05
CGA:  21    -0.669883071839E+03   -0.18402E-03    0.11903E-05  8424   0.202E-04 0.434E-04
CGA:  22    -0.669883142228E+03   -0.70389E-04    0.60194E-06  8424   0.247E-04 0.123E-04
CGA:  23    -0.669883221157E+03   -0.78929E-04    0.81835E-06  8424   0.426E-04 0.236E-05
CGA:  24    -0.669883421540E+03   -0.20038E-03    0.10878E-05  8424   0.347E-04 0.450E-04
CGA:  25    -0.669883480432E+03   -0.58891E-04    0.26982E-05  8424   0.745E-04-0.168E-04
CGA:  26    -0.669883696639E+03   -0.21621E-03    0.65719E-06  8424   0.155E-03 0.274E-04
CGA:  27    -0.669884257859E+03   -0.56122E-03    0.88879E-05  8424   0.198E-03-0.935E-06
CGA:  28    -0.669885024119E+03   -0.76626E-03    0.51333E-05  8424   0.707E-04 0.142E-03
CGA:  29    -0.669885075003E+03   -0.50884E-04    0.46037E-04  8424   0.163E-03-0.792E-04
CGA:  30    -0.669885124099E+03   -0.49096E-04   -0.41674E-04  8424   0.310E-03-0.198E-03
CGA:  31    -0.669885169186E+03   -0.45087E-04   -0.38101E-04  8424   0.217E-04-0.413E-04
CGA:  32    -0.669885240888E+03   -0.71702E-04    0.46631E-06  8424   0.180E-04 0.660E-05
CGA:  33    -0.669885346343E+03   -0.10545E-03    0.48007E-06  8424   0.115E-04 0.209E-04
CGA:  34    -0.669885407859E+03   -0.61517E-04    0.19255E-06  8424   0.120E-04 0.101E-04
CGA:  35    -0.669885459229E+03   -0.51370E-04    0.26088E-06  8424   0.138E-04 0.882E-05
CGA:  36    -0.669885525208E+03   -0.65979E-04    0.26086E-06  8424   0.183E-04 0.574E-05
CGA:  37    -0.669885656915E+03   -0.13171E-03    0.46348E-06  8424   0.129E-04 0.251E-04
CGA:  38    -0.669885703030E+03   -0.46115E-04    0.34371E-06  8424   0.164E-04 0.618E-05
CGA:  39    -0.669885832710E+03   -0.12968E-03    0.40557E-06  8424   0.118E-04 0.233E-04
CGA:  40    -0.669885895655E+03   -0.62945E-04    0.19963E-06  8424   0.138E-04 0.706E-05
CGA:  41    -0.669885937160E+03   -0.41505E-04    0.45099E-06  8424   0.183E-04 0.381E-05
CGA:  42    -0.669886065975E+03   -0.12882E-03    0.38001E-06  8424   0.145E-04 0.228E-04
CGA:  43    -0.669886132871E+03   -0.66896E-04    0.28595E-06  8424   0.191E-04 0.231E-05
CGA:  44    -0.669886255383E+03   -0.12251E-03    0.35853E-06  8424   0.165E-04 0.215E-04
CGA:  45    -0.669886290457E+03   -0.35074E-04    0.84928E-06  8424   0.216E-04-0.611E-06
CGA:  46    -0.669886411664E+03   -0.12121E-03    0.31625E-06  8424   0.211E-04 0.197E-04
CGA:  47    -0.669886482383E+03   -0.70719E-04    0.60973E-06  8424   0.259E-04-0.560E-05
CGA:  48    -0.669886593925E+03   -0.11154E-03    0.28900E-06  8424   0.274E-04 0.168E-04
CGA:  49    -0.669886621824E+03   -0.27899E-04    0.48474E-05  8424   0.289E-04-0.104E-04
CGA:  50    -0.669886727999E+03   -0.10618E-03    0.26848E-06  8424   0.276E-04 0.138E-04
CGA:  51    -0.669886898092E+03   -0.17009E-03    0.91224E-06  8424   0.310E-04 0.736E-05
CGA:  52    -0.669887107753E+03   -0.20966E-03    0.65867E-06  8424   0.275E-04 0.283E-04
CGA:  53    -0.669887136096E+03   -0.28343E-04    0.47633E-05  8424   0.221E-04-0.864E-05
CGA:  54    -0.669887226351E+03   -0.90255E-04    0.22568E-06  8424   0.177E-04 0.115E-04
CGA:  55    -0.669887283323E+03   -0.56972E-04    0.53308E-06  8424   0.113E-04 0.134E-05
CGA:  56    -0.669887354515E+03   -0.71192E-04    0.18456E-06  8424   0.108E-04 0.103E-04
CGA:  57    -0.669887397896E+03   -0.43381E-04    0.24895E-06  8424   0.745E-05 0.569E-05
CGA:  58    -0.669887445443E+03   -0.47547E-04    0.10262E-06  8424   0.705E-05 0.641E-05
CGA:  59    -0.669887487652E+03   -0.42210E-04    0.10436E-06  8424   0.691E-05 0.648E-05
CGA:  60    -0.669887534724E+03   -0.47071E-04    0.88771E-07  8424   0.684E-05 0.643E-05
CGA:  61    -0.669887576081E+03   -0.41357E-04    0.10005E-06  8424   0.681E-05 0.634E-05
CGA:  62    -0.669887623435E+03   -0.47354E-04    0.85408E-07  8424   0.682E-05 0.620E-05
CGA:  63    -0.669887663032E+03   -0.39597E-04    0.10450E-06  8424   0.691E-05 0.601E-05
CGA:  64    -0.669887711566E+03   -0.48534E-04    0.85885E-07  8424   0.712E-05 0.572E-05
CGA:  65    -0.669887748298E+03   -0.36732E-04    0.12438E-06  8424   0.753E-05 0.528E-05
CGA:  66    -0.669887799252E+03   -0.50955E-04    0.97546E-07  8424   0.831E-05 0.457E-05
CGA:  67    -0.669887831435E+03   -0.32183E-04    0.20173E-06  8424   0.975E-05 0.337E-05
CGA:  68    -0.669887925300E+03   -0.93865E-04    0.17512E-06  8424   0.805E-05 0.134E-04
CGA:  69    -0.669887977613E+03   -0.52313E-04    0.10894E-06  8424   0.939E-05 0.323E-05
CGA:  70    -0.669888066910E+03   -0.89297E-04    0.16966E-06  8424   0.782E-05 0.129E-04
CGA:  71    -0.669888096924E+03   -0.30014E-04    0.19152E-06  8424   0.908E-05 0.306E-05
CGA:  72    -0.669888186809E+03   -0.89886E-04    0.15461E-06  8424   0.763E-05 0.124E-04
CGA:  73    -0.669888237621E+03   -0.50811E-04    0.10059E-06  8424   0.873E-05 0.289E-05
CGA:  74    -0.669888322275E+03   -0.84654E-04    0.14911E-06  8424   0.749E-05 0.118E-04
CGA:  75    -0.669888350836E+03   -0.28561E-04    0.18530E-06  8424   0.843E-05 0.269E-05
CGA:  76    -0.669888435584E+03   -0.84748E-04    0.13446E-06  8424   0.741E-05 0.112E-04
CGA:  77    -0.669888484427E+03   -0.48842E-04    0.98602E-07  8424   0.812E-05 0.248E-05
CGA:  78    -0.669888563975E+03   -0.79549E-04    0.12848E-06  8424   0.734E-05 0.107E-04
CGA:  79    -0.669888591717E+03   -0.27742E-04    0.18306E-06  8424   0.781E-05 0.229E-05
CGA:  80    -0.669888670575E+03   -0.78858E-04    0.11539E-06  8424   0.725E-05 0.101E-04
CGA:  81    -0.669888716900E+03   -0.46324E-04    0.99835E-07  8424   0.743E-05 0.217E-05
CGA:  82    -0.669888790742E+03   -0.73843E-04    0.10923E-06  8424   0.707E-05 0.947E-05
CGA:  83    -0.669888818589E+03   -0.27847E-04    0.16823E-06  8424   0.696E-05 0.216E-05
CGA:  84    -0.669888891169E+03   -0.72580E-04    0.98138E-07  8424   0.678E-05 0.890E-05
CGA:  85    -0.669888934137E+03   -0.42968E-04    0.94295E-07  8424   0.641E-05 0.227E-05
CGA:  86    -0.669889002377E+03   -0.68240E-04    0.92555E-07  8424   0.639E-05 0.836E-05
CGA:  87    -0.669889031165E+03   -0.28788E-04    0.13025E-06  8424   0.585E-05 0.245E-05
CGA:  88    -0.669889098210E+03   -0.67045E-04    0.84115E-07  8424   0.598E-05 0.790E-05
CGA:  89    -0.669889137523E+03   -0.39313E-04    0.79720E-07  8424   0.535E-05 0.263E-05
CGA:  90    -0.669889201601E+03   -0.64078E-04    0.79643E-07  8424   0.558E-05 0.751E-05
CGA:  91    -0.669889231167E+03   -0.29565E-04    0.94724E-07  8424   0.493E-05 0.276E-05
CGA:  92    -0.669889294355E+03   -0.63188E-04    0.73891E-07  8424   0.525E-05 0.718E-05
CGA:  93    -0.669889330616E+03   -0.36261E-04    0.66316E-07  8424   0.461E-05 0.282E-05
CGA:  94    -0.669889360188E+03   -0.29572E-04    0.63255E-07  8424   0.429E-05 0.315E-05
CGA:  95    -0.669889395711E+03   -0.35523E-04    0.44601E-07  8424   0.409E-05 0.332E-05
CGA:  96    -0.669889425170E+03   -0.29459E-04    0.49457E-07  8424   0.396E-05 0.340E-05
CGA:  97    -0.669889460136E+03   -0.34966E-04    0.38473E-07  8424   0.388E-05 0.342E-05
CGA:  98    -0.669889489276E+03   -0.29140E-04    0.44734E-07  8424   0.382E-05 0.341E-05
CGA:  99    -0.669889524059E+03   -0.34783E-04    0.35878E-07  8424   0.379E-05 0.338E-05
CGA: 100    -0.669889552445E+03   -0.28386E-04    0.43821E-07  8424   0.377E-05 0.332E-05
CGA: 101    -0.669889587487E+03   -0.35042E-04    0.34743E-07  8424   0.379E-05 0.324E-05
CGA: 102    -0.669889614594E+03   -0.27108E-04    0.46226E-07  8424   0.385E-05 0.312E-05
CGA: 103    -0.669889650427E+03   -0.35833E-04    0.35333E-07  8424   0.397E-05 0.295E-05
CGA: 104    -0.669889675592E+03   -0.25165E-04    0.55177E-07  8424   0.419E-05 0.271E-05
CGA: 105    -0.669889712965E+03   -0.37374E-04    0.40278E-07  8424   0.458E-05 0.233E-05
CGA: 106    -0.669889735169E+03   -0.22204E-04    0.85997E-07  8424   0.528E-05 0.173E-05
CGA: 107    -0.669889801224E+03   -0.66055E-04    0.68449E-07  8424   0.448E-05 0.713E-05
CGA: 108    -0.669889839601E+03   -0.38377E-04    0.44917E-07  8424   0.518E-05 0.159E-05
CGA: 109    -0.669889903065E+03   -0.63464E-04    0.66288E-07  8424   0.441E-05 0.688E-05
CGA: 110    -0.669889923065E+03   -0.20000E-04    0.89286E-07  8424   0.513E-05 0.140E-05
CGA: 111    -0.669889986910E+03   -0.63845E-04    0.61131E-07  8424   0.443E-05 0.664E-05
CGA: 112    -0.669890025008E+03   -0.38098E-04    0.44151E-07  8424   0.513E-05 0.116E-05
CGA: 113    -0.669890085874E+03   -0.60866E-04    0.58765E-07  8424   0.453E-05 0.636E-05
CGA: 114    -0.669890103511E+03   -0.17637E-04    0.10919E-06  8424   0.524E-05 0.823E-06
CGA: 115    -0.669890164331E+03   -0.60821E-04    0.53604E-07  8424   0.478E-05 0.608E-05
CGA: 116    -0.669890202657E+03   -0.38326E-04    0.51404E-07  8424   0.545E-05 0.368E-06
CGA: 117    -0.669890260642E+03   -0.57984E-04    0.50636E-07  8424   0.518E-05 0.577E-05
CGA: 118    -0.669890275393E+03   -0.14751E-04    0.18187E-06  8424   0.580E-05-0.222E-06
CGA: 119    -0.669890332466E+03   -0.57073E-04    0.45853E-07  8424   0.571E-05 0.544E-05
CGA: 120    -0.669890371468E+03   -0.39002E-04    0.73145E-07  8424   0.618E-05-0.883E-06
CGA: 121    -0.669890425418E+03   -0.53950E-04    0.42915E-07  8424   0.618E-05 0.510E-05
CGA: 122    -0.669890437774E+03   -0.12357E-04    0.34648E-06  8424   0.639E-05-0.142E-05
CGA: 123    -0.669890490421E+03   -0.52647E-04    0.39003E-07  8424   0.634E-05 0.479E-05
CGA: 124    -0.669890528531E+03   -0.38110E-04    0.93272E-07  8424   0.617E-05-0.156E-05
CGA: 125    -0.669890577125E+03   -0.48594E-04    0.37833E-07  8424   0.594E-05 0.450E-05
CGA: 126    -0.669890590205E+03   -0.13081E-04    0.29125E-06  8424   0.546E-05-0.116E-05
CGA: 127    -0.669890638331E+03   -0.48125E-04    0.33978E-07  8424   0.514E-05 0.424E-05
CGA: 128    -0.669890672168E+03   -0.33838E-04    0.68417E-07  8424   0.450E-05-0.423E-06
CGA: 129    -0.669890716371E+03   -0.44203E-04    0.32698E-07  8424   0.425E-05 0.398E-05
CGA: 130    -0.669890732618E+03   -0.16247E-04    0.10468E-06  8424   0.363E-05 0.310E-06
CGA: 131    -0.669890776926E+03   -0.44308E-04    0.28829E-07  8424   0.355E-05 0.376E-05
CGA: 132    -0.669890805907E+03   -0.28982E-04    0.37433E-07  8424   0.301E-05 0.819E-06
CGA: 133    -0.669890848106E+03   -0.42199E-04    0.27412E-07  8424   0.307E-05 0.359E-05
CGA: 134    -0.669890866439E+03   -0.18333E-04    0.45558E-07  8424   0.262E-05 0.110E-05
CGA: 135    -0.669890908576E+03   -0.42137E-04    0.25330E-07  8424   0.275E-05 0.345E-05
CGA: 136    -0.669890934469E+03   -0.25892E-04    0.25015E-07  8424   0.237E-05 0.124E-05
CGA: 137    -0.669890975565E+03   -0.41096E-04    0.24263E-07  8424   0.254E-05 0.334E-05
CGA: 138    -0.669890994520E+03   -0.18955E-04    0.29452E-07  8424   0.220E-05 0.130E-05
CGA: 139    -0.669891018909E+03   -0.24389E-04    0.16817E-07  8424   0.204E-05 0.147E-05
CGA: 140    -0.669891038052E+03   -0.19143E-04    0.18577E-07  8424   0.194E-05 0.155E-05
CGA: 141    -0.669891061762E+03   -0.23710E-04    0.13368E-07  8424   0.188E-05 0.159E-05
CGA: 142    -0.669891080949E+03   -0.19187E-04    0.15590E-07  8424   0.183E-05 0.161E-05
CGA: 143    -0.669891104283E+03   -0.23334E-04    0.12098E-07  8424   0.181E-05 0.160E-05
CGA: 144    -0.669891123183E+03   -0.18899E-04    0.14620E-07  8424   0.179E-05 0.158E-05
CGA: 145    -0.669891146469E+03   -0.23287E-04    0.11505E-07  8424   0.178E-05 0.156E-05
CGA: 146    -0.669891164723E+03   -0.18254E-04    0.14754E-07  8424   0.179E-05 0.152E-05
CGA: 147    -0.669891188304E+03   -0.23581E-04    0.11363E-07  8424   0.181E-05 0.146E-05
CGA: 148    -0.669891205514E+03   -0.17210E-04    0.16325E-07  8424   0.187E-05 0.138E-05
CGA: 149    -0.669891229816E+03   -0.24302E-04    0.12092E-07  8424   0.198E-05 0.126E-05
CGA: 150    -0.669891245440E+03   -0.15624E-04    0.21656E-07  8424   0.217E-05 0.108E-05
CGA: 151    -0.669891271114E+03   -0.25675E-04    0.15464E-07  8424   0.251E-05 0.783E-06
CGA: 152    -0.669891314135E+03   -0.43021E-04    0.22809E-07  8424   0.213E-05 0.335E-05
CGA: 153    -0.669891327780E+03   -0.13645E-04    0.29244E-07  8424   0.249E-05 0.694E-06
CGA: 154    -0.669891370838E+03   -0.43058E-04    0.21187E-07  8424   0.212E-05 0.323E-05
CGA: 155    -0.669891396499E+03   -0.25660E-04    0.14728E-07  8424   0.250E-05 0.576E-06
CGA: 156    -0.669891437894E+03   -0.41395E-04    0.20401E-07  8424   0.216E-05 0.311E-05
CGA: 157    -0.669891449650E+03   -0.11757E-04    0.35685E-07  8424   0.256E-05 0.405E-06
CGA: 158    -0.669891491040E+03   -0.41389E-04    0.18673E-07  8424   0.230E-05 0.298E-05
CGA: 159    -0.669891517178E+03   -0.26138E-04    0.17052E-07  8424   0.272E-05 0.145E-06
CGA: 160    -0.669891557004E+03   -0.39826E-04    0.17577E-07  8424   0.257E-05 0.284E-05
CGA: 161    -0.669891566076E+03   -0.90723E-05    0.69712E-07  8424   0.303E-05-0.257E-06
   7 F= -.66989157E+03 E0= -.66989157E+03  d E =-.713095E-02  mag=     2.0000
       N       E                     dE             d eps       ncg     rms          ort
SDA:   1    -0.666456127868E+03    0.34354E+01    0.00000E+00  8424   0.908E+01 0.000E+00
CGA:   2    -0.668691567558E+03   -0.22354E+01   -0.22358E+01  8424   0.482E+01 0.445E-02
CGA:   3    -0.669643595724E+03   -0.95203E+00   -0.95178E+00  8424   0.122E+01-0.177E-02
CGA:   4    -0.669832431288E+03   -0.18884E+00   -0.18889E+00  8424   0.265E+00 0.122E-03
CGA:   5    -0.669877802753E+03   -0.45371E-01   -0.45401E-01  8424   0.550E-01 0.228E-03
CGA:   6    -0.669889111817E+03   -0.11309E-01   -0.11307E-01  8424   0.135E-01-0.377E-04
CGA:   7    -0.669891989072E+03   -0.28773E-02   -0.28887E-02  8424   0.367E-02 0.233E-03
CGA:   8    -0.669892907515E+03   -0.91844E-03   -0.91918E-03  8424   0.118E-02 0.504E-04
CGA:   9    -0.669893232880E+03   -0.32537E-03   -0.32468E-03  8424   0.426E-03 0.536E-04
CGA:  10    -0.669893377917E+03   -0.14504E-03   -0.14307E-03  8424   0.195E-03 0.316E-04
CGA:  11    -0.669893436226E+03   -0.58310E-04   -0.57756E-04  8424   0.776E-04 0.465E-04
CGA:  12    -0.669893456815E+03   -0.20588E-04   -0.22176E-04  8424   0.450E-04 0.468E-04
CGA:  13    -0.669893464509E+03   -0.76945E-05   -0.94055E-05  8424   0.301E-04 0.318E-04
   8 F= -.66989346E+03 E0= -.66989346E+03  d E =-.189843E-02  mag=     2.0000
       N       E                     dE             d eps       ncg     rms          ort
SDA:   1    -0.665860451815E+03    0.40330E+01    0.00000E+00  8424   0.105E+02 0.000E+00
CGA:   2    -0.668528029347E+03   -0.26676E+01   -0.26676E+01  8424   0.564E+01 0.322E-02
CGA:   3    -0.669623169781E+03   -0.10951E+01   -0.10950E+01  8424   0.134E+01-0.156E-02
CGA:   4    -0.669831199657E+03   -0.20803E+00   -0.20807E+00  8424   0.296E+00-0.104E-05
CGA:   5    -0.669882088064E+03   -0.50888E-01   -0.50924E-01  8424   0.620E-01 0.380E-03
CGA:   6    -0.669894866462E+03   -0.12778E-01   -0.12787E-01  8424   0.148E-01 0.226E-03
CGA:   7    -0.669898063677E+03   -0.31972E-02   -0.32066E-02  8424   0.404E-02 0.340E-03
CGA:   8    -0.669899007620E+03   -0.94394E-03   -0.94901E-03  8424   0.120E-02 0.421E-03
CGA:   9    -0.669899315103E+03   -0.30748E-03   -0.30992E-03  8424   0.417E-03 0.308E-03
CGA:  10    -0.669899391028E+03   -0.75926E-04   -0.93168E-04  8424   0.204E-03 0.273E-03
CGA:  11    -0.669899405877E+03   -0.14849E-04   -0.28987E-04  8424   0.122E-03 0.148E-03
CGA:  12    -0.669899405434E+03    0.44299E-06   -0.13254E-04  8424   0.100E-03 0.110E-03
   9 F= -.66989941E+03 E0= -.66989941E+03  d E =-.594093E-02  mag=     2.0000
       N       E                     dE             d eps       ncg     rms          ort
SDA:   1    -0.665091114696E+03    0.48083E+01    0.00000E+00  8424   0.124E+02 0.000E+00
CGA:   2    -0.668313046006E+03   -0.32219E+01   -0.32214E+01  8424   0.663E+01 0.900E-02
CGA:   3    -0.669575199853E+03   -0.12622E+01   -0.12620E+01  8424   0.157E+01-0.230E-02
CGA:   4    -0.669820309198E+03   -0.24511E+00   -0.24517E+00  8424   0.354E+00 0.603E-03
CGA:   5    -0.669881284857E+03   -0.60976E-01   -0.61013E-01  8424   0.746E-01 0.761E-03
CGA:   6    -0.669896390779E+03   -0.15106E-01   -0.15115E-01  8424   0.179E-01 0.690E-03
CGA:   7    -0.669900191802E+03   -0.38010E-02   -0.38039E-02  8424   0.483E-02 0.884E-03
CGA:   8    -0.669901312029E+03   -0.11202E-02   -0.11161E-02  8424   0.142E-02 0.693E-03
CGA:   9    -0.669901600349E+03   -0.28832E-03   -0.30449E-03  8424   0.508E-03 0.617E-03
CGA:  10    -0.669901659014E+03   -0.58665E-04   -0.95270E-04  8424   0.272E-03 0.443E-03
CGA:  11    -0.669901662986E+03   -0.39722E-05   -0.27911E-04  8424   0.192E-03 0.225E-03
CGA:  12    -0.669901655428E+03    0.75578E-05   -0.14721E-04  8424   0.161E-03 0.176E-03
CGA:  13    -0.669901645609E+03    0.98189E-05   -0.10342E-04  8424   0.142E-03 0.152E-03
  10 F= -.66990165E+03 E0= -.66990165E+03  d E =-.224017E-02  mag=     2.0000
       N       E                     dE             d eps       ncg     rms          ort
SDA:   1    -0.664458937871E+03    0.54427E+01    0.00000E+00  8424   0.145E+02 0.000E+00
CGA:   2    -0.668009185595E+03   -0.35502E+01   -0.35487E+01  8424   0.751E+01 0.187E-01
CGA:   3    -0.669499752189E+03   -0.14906E+01   -0.14907E+01  8424   0.189E+01-0.689E-02
CGA:   4    -0.669795727694E+03   -0.29598E+00   -0.29600E+00  8424   0.422E+00 0.131E-03
CGA:   5    -0.669868047246E+03   -0.72320E-01   -0.72335E-01  8424   0.875E-01 0.964E-03
CGA:   6    -0.669886035881E+03   -0.17989E-01   -0.17985E-01  8424   0.210E-01 0.185E-03
CGA:   7    -0.669890607399E+03   -0.45715E-02   -0.45544E-02  8424   0.572E-02 0.557E-03
CGA:   8    -0.669891940979E+03   -0.13336E-02   -0.13103E-02  8424   0.163E-02 0.657E-03
CGA:   9    -0.669892377817E+03   -0.43684E-03   -0.41974E-03  8424   0.544E-03 0.407E-03
CGA:  10    -0.669892478765E+03   -0.10095E-03   -0.11123E-03  8424   0.256E-03 0.365E-03
CGA:  11    -0.669892497957E+03   -0.19192E-04   -0.31854E-04  8424   0.156E-03 0.192E-03
CGA:  12    -0.669892500028E+03   -0.20715E-05   -0.14867E-04  8424   0.125E-03 0.139E-03
  11 F= -.66989250E+03 E0= -.66989250E+03  d E =0.914558E-02  mag=     2.0000
       N       E                     dE             d eps       ncg     rms          ort
SDA:   1    -0.664031785250E+03    0.58607E+01    0.00000E+00  8424   0.159E+02 0.000E+00
CGA:   2    -0.667832424513E+03   -0.38006E+01   -0.37973E+01  8424   0.804E+01 0.428E-01
CGA:   3    -0.669434056292E+03   -0.16016E+01   -0.16020E+01  8424   0.210E+01-0.131E-01
CGA:   4    -0.669764448043E+03   -0.33039E+00   -0.33043E+00  8424   0.474E+00 0.946E-03
CGA:   5    -0.669845923134E+03   -0.81475E-01   -0.81484E-01  8424   0.101E+00 0.969E-03
CGA:   6    -0.669866180389E+03   -0.20257E-01   -0.20258E-01  8424   0.243E-01-0.635E-04
CGA:   7    -0.669871412655E+03   -0.52323E-02   -0.52092E-02  8424   0.676E-02 0.673E-03
CGA:   8    -0.669873112932E+03   -0.17003E-02   -0.16945E-02  8424   0.212E-02 0.922E-04
CGA:   9    -0.669873683312E+03   -0.57038E-03   -0.55854E-03  8424   0.710E-03 0.159E-03
CGA:  10    -0.669873907272E+03   -0.22396E-03   -0.21275E-03  8424   0.272E-03 0.124E-03
CGA:  11    -0.669873984989E+03   -0.77717E-04   -0.73817E-04  8424   0.940E-04 0.104E-03
CGA:  12    -0.669873998927E+03   -0.13938E-04   -0.18415E-04  8424   0.523E-04 0.829E-04
CGA:  13    -0.669874001340E+03   -0.24136E-05   -0.59096E-05  8424   0.385E-04 0.437E-04
  12 F= -.66987400E+03 E0= -.66987400E+03  d E =0.184987E-01  mag=     2.0000
       N       E                     dE             d eps       ncg     rms          ort
SDA:   1    -0.666112230390E+03    0.37618E+01    0.00000E+00  8424   0.106E+02 0.000E+00
CGA:   2    -0.668565976487E+03   -0.24537E+01   -0.24528E+01  8424   0.511E+01 0.153E-01
CGA:   3    -0.669590131499E+03   -0.10242E+01   -0.10243E+01  8424   0.141E+01-0.939E-02
CGA:   4    -0.669815128634E+03   -0.22500E+00   -0.22500E+00  8424   0.328E+00-0.331E-03
CGA:   5    -0.669871527215E+03   -0.56399E-01   -0.56405E-01  8424   0.692E-01 0.375E-03
CGA:   6    -0.669885472246E+03   -0.13945E-01   -0.13958E-01  8424   0.166E-01-0.802E-03
CGA:   7    -0.669889051505E+03   -0.35793E-02   -0.35697E-02  8424   0.476E-02 0.300E-03
CGA:   8    -0.669890217325E+03   -0.11658E-02   -0.11584E-02  8424   0.143E-02 0.142E-03
CGA:   9    -0.669890639175E+03   -0.42185E-03   -0.42408E-03  8424   0.548E-03-0.232E-04
CGA:  10    -0.669890781382E+03   -0.14221E-03   -0.13550E-03  8424   0.197E-03 0.119E-03
CGA:  11    -0.669890855012E+03   -0.73630E-04   -0.69964E-04  8424   0.853E-04 0.383E-04
CGA:  12    -0.669890878558E+03   -0.23545E-04   -0.22620E-04  8424   0.449E-04 0.463E-04
CGA:  13    -0.669890887459E+03   -0.89012E-05   -0.89997E-05  8424   0.275E-04 0.307E-04
  13 F= -.66989089E+03 E0= -.66989089E+03  d E =-.168861E-01  mag=     2.0000
       N       E                     dE             d eps       ncg     rms          ort
SDA:   1    -0.664098562300E+03    0.57923E+01    0.00000E+00  8424   0.155E+02 0.000E+00
CGA:   2    -0.667857477494E+03   -0.37589E+01   -0.37578E+01  8424   0.798E+01 0.208E-01
CGA:   3    -0.669436083977E+03   -0.15786E+01   -0.15785E+01  8424   0.207E+01-0.772E-02
CGA:   4    -0.669760206813E+03   -0.32412E+00   -0.32421E+00  8424   0.463E+00 0.843E-03
CGA:   5    -0.669839582911E+03   -0.79376E-01   -0.79400E-01  8424   0.971E-01 0.604E-03
CGA:   6    -0.669859278077E+03   -0.19695E-01   -0.19695E-01  8424   0.239E-01-0.458E-03
CGA:   7    -0.669864501798E+03   -0.52237E-02   -0.52244E-02  8424   0.682E-02-0.442E-04
CGA:   8    -0.669866300441E+03   -0.17986E-02   -0.18549E-02  8424   0.264E-02-0.816E-03
CGA:   9    -0.669866986295E+03   -0.68585E-03   -0.87431E-03  8424   0.194E-02-0.111E-02
CGA:  10    -0.669861791851E+03    0.51944E-02   -0.27971E-02  8424   0.308E-01-0.583E-02
CGA:  11    -0.669866788569E+03   -0.49967E-02   -0.50458E-02  8424   0.433E-02 0.201E-03
CGA:  12    -0.669868223793E+03   -0.14352E-02   -0.14052E-02  8424   0.246E-02-0.509E-03
CGA:  13    -0.669868748400E+03   -0.52461E-03   -0.50751E-03  8424   0.971E-03-0.115E-03
CGA:  14    -0.669868860785E+03   -0.11239E-03   -0.79043E-03  8424   0.350E-02-0.140E-02
CGA:  15    -0.669869489316E+03   -0.62853E-03   -0.64771E-03  8424   0.670E-03 0.928E-04
CGA:  16    -0.669869737004E+03   -0.24769E-03   -0.21176E-03  8424   0.680E-03-0.470E-03
CGA:  17    -0.669869823253E+03   -0.86249E-04   -0.89648E-04  8424   0.932E-04 0.145E-04
CGA:  18    -0.669869988891E+03   -0.16564E-03    0.12887E-04  8424   0.519E-04-0.186E-04
CGA:  19    -0.669870184698E+03   -0.19581E-03    0.14199E-05  8424   0.270E-04 0.200E-04
CGA:  20    -0.669870397339E+03   -0.21264E-03    0.10277E-05  8424   0.173E-04 0.743E-05
CGA:  21    -0.669870641703E+03   -0.24436E-03    0.28772E-06  8424   0.177E-04 0.130E-04
CGA:  22    -0.669870746004E+03   -0.10430E-03    0.46853E-06  8424   0.153E-04 0.438E-05
CGA:  23    -0.669870944688E+03   -0.19868E-03    0.26654E-06  8424   0.182E-04 0.750E-05
CGA:  24    -0.669871278039E+03   -0.33335E-03    0.31938E-06  8424   0.128E-04 0.232E-04
CGA:  25    -0.669871372102E+03   -0.94064E-04    0.26151E-06  8424   0.124E-04 0.457E-05
CGA:  26    -0.669871564630E+03   -0.19253E-03    0.21484E-06  8424   0.132E-04 0.735E-05
CGA:  27    -0.669871652079E+03   -0.87449E-04    0.30463E-06  8424   0.197E-04 0.223E-06
CGA:  28    -0.669871884518E+03   -0.23244E-03    0.25132E-06  8424   0.154E-04 0.674E-05
CGA:  29    -0.669872155902E+03   -0.27138E-03    0.22674E-06  8424   0.175E-04 0.165E-04
CGA:  30    -0.669872228769E+03   -0.72867E-04    0.69035E-06  8424   0.427E-04-0.110E-04
CGA:  31    -0.669872316393E+03   -0.87625E-04    0.44018E-05  8424   0.196E-03-0.787E-04
CGA:  32    -0.669872348958E+03   -0.32565E-04   -0.25904E-04  8424   0.112E-04-0.282E-04
CGA:  33    -0.669872437705E+03   -0.88746E-04    0.14169E-06  8424   0.134E-04 0.663E-06
CGA:  34    -0.669872614464E+03   -0.17676E-03    0.15477E-06  8424   0.491E-05 0.113E-04
CGA:  35    -0.669872688717E+03   -0.74254E-04    0.43282E-07  8424   0.513E-05 0.454E-05
CGA:  36    -0.669872765473E+03   -0.76756E-04    0.45786E-07  8424   0.651E-05 0.371E-05
CGA:  37    -0.669872831713E+03   -0.66240E-04    0.87424E-07  8424   0.126E-04 0.532E-06
CGA:  38    -0.669873047939E+03   -0.21623E-03    0.11441E-06  8424   0.101E-04 0.130E-04
CGA:  39    -0.669873123454E+03   -0.75515E-04    0.18844E-06  8424   0.244E-04-0.694E-05
CGA:  40    -0.669873168328E+03   -0.44875E-04    0.27621E-05  8424   0.711E-04-0.332E-04
CGA:  41    -0.669873252276E+03   -0.83948E-04    0.19285E-04  8424   0.217E-03-0.116E-03
CGA:  42    -0.669873278349E+03   -0.26073E-04   -0.27590E-04  8424   0.418E-05 0.663E-05
CGA:  43    -0.669873344932E+03   -0.66583E-04    0.34774E-07  8424   0.534E-05 0.295E-05
CGA:  44    -0.669873406893E+03   -0.61961E-04    0.58293E-07  8424   0.682E-05 0.143E-05
CGA:  45    -0.669873548531E+03   -0.14164E-03    0.65555E-07  8424   0.551E-05 0.835E-05
CGA:  46    -0.669873610843E+03   -0.62313E-04    0.61905E-07  8424   0.673E-05 0.789E-06
CGA:  47    -0.669873744459E+03   -0.13362E-03    0.54914E-07  8424   0.601E-05 0.744E-05
CGA:  48    -0.669873797694E+03   -0.53235E-04    0.87651E-07  8424   0.693E-05-0.808E-07
CGA:  49    -0.669873919489E+03   -0.12180E-03    0.47480E-07  8424   0.666E-05 0.656E-05
CGA:  50    -0.669873980251E+03   -0.60762E-04    0.93949E-07  8424   0.712E-05-0.954E-06
CGA:  51    -0.669874094412E+03   -0.11416E-03    0.40283E-07  8424   0.695E-05 0.578E-05
CGA:  52    -0.669874139519E+03   -0.45107E-04    0.14271E-06  8424   0.682E-05-0.133E-05
CGA:  53    -0.669874241756E+03   -0.10224E-03    0.36762E-07  8424   0.644E-05 0.516E-05
CGA:  54    -0.669874300877E+03   -0.59121E-04    0.90366E-07  8424   0.584E-05-0.923E-06
CGA:  55    -0.669874397472E+03   -0.96595E-04    0.32030E-07  8424   0.535E-05 0.465E-05
CGA:  56    -0.669874437258E+03   -0.39787E-04    0.94515E-07  8424   0.462E-05-0.872E-07
CGA:  57    -0.669874525813E+03   -0.88554E-04    0.28757E-07  8424   0.428E-05 0.424E-05
CGA:  58    -0.669874580871E+03   -0.55059E-04    0.41886E-07  8424   0.363E-05 0.629E-06
CGA:  59    -0.669874667000E+03   -0.86128E-04    0.24847E-07  8424   0.351E-05 0.391E-05
CGA:  60    -0.669874704024E+03   -0.37024E-04    0.42341E-07  8424   0.301E-05 0.104E-05
CGA:  61    -0.669874786070E+03   -0.82046E-04    0.22802E-07  8424   0.300E-05 0.368E-05
CGA:  62    -0.669874836698E+03   -0.50629E-04    0.22049E-07  8424   0.261E-05 0.123E-05
CGA:  63    -0.669874917283E+03   -0.80585E-04    0.20640E-07  8424   0.264E-05 0.348E-05
CGA:  64    -0.669874952135E+03   -0.34853E-04    0.25204E-07  8424   0.233E-05 0.130E-05
CGA:  65    -0.669875029797E+03   -0.77662E-04    0.19054E-07  8424   0.237E-05 0.329E-05
CGA:  66    -0.669875076201E+03   -0.46403E-04    0.14972E-07  8424   0.209E-05 0.132E-05
CGA:  67    -0.669875110241E+03   -0.34040E-04    0.15965E-07  8424   0.202E-05 0.137E-05
CGA:  68    -0.669875154645E+03   -0.44404E-04    0.11298E-07  8424   0.200E-05 0.135E-05
CGA:  69    -0.669875188290E+03   -0.33645E-04    0.14737E-07  8424   0.201E-05 0.128E-05
CGA:  70    -0.669875231537E+03   -0.43247E-04    0.11439E-07  8424   0.204E-05 0.119E-05
CGA:  71    -0.669875264117E+03   -0.32580E-04    0.15891E-07  8424   0.210E-05 0.107E-05
CGA:  72    -0.669875306463E+03   -0.42347E-04    0.12861E-07  8424   0.219E-05 0.923E-06
CGA:  73    -0.669875382157E+03   -0.75693E-04    0.16148E-07  8424   0.197E-05 0.308E-05
CGA:  74    -0.669875412058E+03   -0.29902E-04    0.16240E-07  8424   0.207E-05 0.847E-06
CGA:  75    -0.669875484573E+03   -0.72515E-04    0.14764E-07  8424   0.186E-05 0.288E-05
CGA:  76    -0.669875524873E+03   -0.40300E-04    0.10516E-07  8424   0.194E-05 0.779E-06
CGA:  77    -0.669875594356E+03   -0.69483E-04    0.13405E-07  8424   0.175E-05 0.269E-05
CGA:  78    -0.669875620685E+03   -0.26329E-04    0.14503E-07  8424   0.184E-05 0.710E-06
CGA:  79    -0.669875687612E+03   -0.66927E-04    0.12194E-07  8424   0.165E-05 0.252E-05
CGA:  80    -0.669875725722E+03   -0.38110E-04    0.87944E-08  8424   0.173E-05 0.646E-06
CGA:  81    -0.669875789631E+03   -0.63909E-04    0.11140E-07  8424   0.156E-05 0.235E-05
CGA:  82    -0.669875812901E+03   -0.23270E-04    0.13139E-07  8424   0.165E-05 0.581E-06
CGA:  83    -0.669875874633E+03   -0.61732E-04    0.10102E-07  8424   0.149E-05 0.220E-05
CGA:  84    -0.669875910602E+03   -0.35969E-04    0.75350E-08  8424   0.156E-05 0.519E-06
CGA:  85    -0.669875969393E+03   -0.58792E-04    0.92510E-08  8424   0.142E-05 0.206E-05
CGA:  86    -0.669875989903E+03   -0.20509E-04    0.12253E-07  8424   0.149E-05 0.457E-06
CGA:  87    -0.669876046714E+03   -0.56811E-04    0.83687E-08  8424   0.136E-05 0.192E-05
CGA:  88    -0.669876080691E+03   -0.33978E-04    0.66356E-08  8424   0.142E-05 0.400E-06
CGA:  89    -0.669876134611E+03   -0.53919E-04    0.76622E-08  8424   0.130E-05 0.179E-05
CGA:  90    -0.669876152620E+03   -0.18009E-04    0.11783E-07  8424   0.135E-05 0.347E-06
CGA:  91    -0.669876204620E+03   -0.52001E-04    0.68971E-08  8424   0.125E-05 0.166E-05
CGA:  92    -0.669876236613E+03   -0.31993E-04    0.59535E-08  8424   0.128E-05 0.307E-06
CGA:  93    -0.669876285488E+03   -0.48874E-04    0.63035E-08  8424   0.119E-05 0.154E-05
CGA:  94    -0.669876301613E+03   -0.16125E-04    0.10946E-07  8424   0.118E-05 0.287E-06
CGA:  95    -0.669876348573E+03   -0.46960E-04    0.55891E-08  8424   0.111E-05 0.141E-05
CGA:  96    -0.669876377945E+03   -0.29372E-04    0.51240E-08  8424   0.106E-05 0.299E-06
CGA:  97    -0.669876421085E+03   -0.43140E-04    0.50848E-08  8424   0.101E-05 0.128E-05
CGA:  98    -0.669876436803E+03   -0.15718E-04    0.80938E-08  8424   0.912E-06 0.340E-06
CGA:  99    -0.669876478210E+03   -0.41407E-04    0.43641E-08  8424   0.901E-06 0.115E-05
CGA: 100    -0.669876503652E+03   -0.25441E-04    0.38975E-08  8424   0.770E-06 0.391E-06
CGA: 101    -0.669876541339E+03   -0.37687E-04    0.39326E-08  8424   0.801E-06 0.105E-05
CGA: 102    -0.669876557881E+03   -0.16543E-04    0.47782E-08  8424   0.663E-06 0.423E-06
CGA: 103    -0.669876580697E+03   -0.22816E-04    0.23438E-08  8424   0.618E-06 0.474E-06
CGA: 104    -0.669876597141E+03   -0.16444E-04    0.28392E-08  8424   0.600E-06 0.480E-06
CGA: 105    -0.669876619330E+03   -0.22189E-04    0.19679E-08  8424   0.593E-06 0.470E-06
CGA: 106    -0.669876635171E+03   -0.15841E-04    0.27169E-08  8424   0.595E-06 0.451E-06
CGA: 107    -0.669876657274E+03   -0.22103E-04    0.19430E-08  8424   0.605E-06 0.424E-06
CGA: 108    -0.669876672007E+03   -0.14733E-04    0.30443E-08  8424   0.625E-06 0.388E-06
CGA: 109    -0.669876694438E+03   -0.22431E-04    0.21153E-08  8424   0.658E-06 0.341E-06
CGA: 110    -0.669876707669E+03   -0.13231E-04    0.40361E-08  8424   0.707E-06 0.279E-06
CGA: 111    -0.669876744973E+03   -0.37304E-04    0.32984E-08  8424   0.620E-06 0.982E-06
CGA: 112    -0.669876767071E+03   -0.22099E-04    0.21155E-08  8424   0.669E-06 0.256E-06
CGA: 113    -0.669876802347E+03   -0.35276E-04    0.30656E-08  8424   0.587E-06 0.921E-06
CGA: 114    -0.669876813887E+03   -0.11540E-04    0.36855E-08  8424   0.635E-06 0.232E-06
CGA: 115    -0.669876848350E+03   -0.34463E-04    0.27585E-08  8424   0.557E-06 0.864E-06
CGA: 116    -0.669876869178E+03   -0.20828E-04    0.18099E-08  8424   0.605E-06 0.208E-06
CGA: 117    -0.669876901641E+03   -0.32463E-04    0.25776E-08  8424   0.532E-06 0.810E-06
CGA: 118    -0.669876911702E+03   -0.10061E-04    0.34782E-08  8424   0.581E-06 0.183E-06
CGA: 119    -0.669876943538E+03   -0.31836E-04    0.23183E-08  8424   0.512E-06 0.761E-06
CGA: 120    -0.669876963246E+03   -0.19708E-04    0.16131E-08  8424   0.561E-06 0.156E-06
CGA: 121    -0.669876993198E+03   -0.29951E-04    0.21669E-08  8424   0.498E-06 0.714E-06
CGA: 122    -0.669877001760E+03   -0.85624E-05    0.35917E-08  8424   0.549E-06 0.125E-06
  14 F= -.66987700E+03 E0= -.66987700E+03  d E =0.138857E-01  mag=     2.0000
       N       E                     dE             d eps       ncg     rms          ort
SDA:   1    -0.667187844661E+03    0.26891E+01    0.00000E+00  8424   0.770E+01 0.000E+00
CGA:   2    -0.668938723500E+03   -0.17509E+01   -0.17519E+01  8424   0.365E+01 0.236E-02
CGA:   3    -0.669674262112E+03   -0.73554E+00   -0.73502E+00  8424   0.102E+01-0.204E-02
CGA:   4    -0.669838891068E+03   -0.16463E+00   -0.16459E+00  8424   0.242E+00-0.522E-03
CGA:   5    -0.669880340128E+03   -0.41449E-01   -0.41465E-01  8424   0.501E-01 0.295E-04
CGA:   6    -0.669890441027E+03   -0.10101E-01   -0.10068E-01  8424   0.118E-01-0.292E-03
CGA:   7    -0.669893047093E+03   -0.26061E-02   -0.26130E-02  8424   0.347E-02 0.782E-04
CGA:   8    -0.669893871941E+03   -0.82485E-03   -0.83131E-03  8424   0.102E-02 0.945E-04
CGA:   9    -0.669894162094E+03   -0.29015E-03   -0.29055E-03  8424   0.362E-03 0.154E-04
CGA:  10    -0.669894249149E+03   -0.87055E-04   -0.91517E-04  8424   0.128E-03 0.855E-04
CGA:  11    -0.669894284533E+03   -0.35383E-04   -0.38224E-04  8424   0.495E-04 0.492E-04
CGA:  12    -0.669894292809E+03   -0.82759E-05   -0.12563E-04  8424   0.270E-04 0.379E-04
  15 F= -.66989429E+03 E0= -.66989429E+03  d E =-.172910E-01  mag=     2.0000
       N       E                     dE             d eps       ncg     rms          ort
SDA:   1    -0.669229627011E+03    0.66466E+00    0.00000E+00  8424   0.169E+01 0.000E+00
CGA:   2    -0.669668223938E+03   -0.43860E+00   -0.43861E+00  8424   0.913E+00 0.211E-03
CGA:   3    -0.669842379437E+03   -0.17416E+00   -0.17409E+00  8424   0.211E+00-0.832E-03
CGA:   4    -0.669875471515E+03   -0.33092E-01   -0.33063E-01  8424   0.472E-01-0.271E-03
CGA:   5    -0.669883625710E+03   -0.81542E-02   -0.81501E-02  8424   0.100E-01-0.504E-04
CGA:   6    -0.669885694655E+03   -0.20689E-02   -0.20675E-02  8424   0.241E-02-0.254E-04
CGA:   7    -0.669886222131E+03   -0.52748E-03   -0.52770E-03  8424   0.688E-03 0.474E-05
CGA:   8    -0.669886394424E+03   -0.17229E-03   -0.17244E-03  8424   0.231E-03 0.135E-04
CGA:   9    -0.669886475635E+03   -0.81211E-04   -0.87218E-04  8424   0.157E-03-0.547E-04
CGA:  10    -0.669886519401E+03   -0.43766E-04   -0.49679E-04  8424   0.119E-03-0.404E-04
CGA:  11    -0.669886089835E+03    0.42957E-03   -0.23171E-03  8424   0.247E-02-0.407E-03
CGA:  12    -0.669886557988E+03   -0.46815E-03   -0.49623E-03  8424   0.397E-03 0.940E-04
CGA:  13    -0.669886736764E+03   -0.17878E-03   -0.16816E-03  8424   0.336E-03-0.141E-03
CGA:  14    -0.669886752810E+03   -0.16046E-04   -0.33326E-04  8424   0.153E-03 0.528E-04
CGA:  15    -0.669886772222E+03   -0.19412E-04   -0.30456E-04  8424   0.931E-04 0.377E-04
CGA:  16    -0.669886823806E+03   -0.51584E-04   -0.54745E-04  8424   0.224E-03-0.140E-03
CGA:  17    -0.669886846475E+03   -0.22668E-04   -0.36472E-04  8424   0.448E-04 0.480E-04
CGA:  18    -0.669886860374E+03   -0.13899E-04   -0.37075E-04  8424   0.224E-03-0.947E-04
CGA:  19    -0.669886882704E+03   -0.22330E-04   -0.35523E-04  8424   0.450E-04 0.456E-04
CGA:  20    -0.669886898039E+03   -0.15335E-04   -0.35334E-04  8424   0.195E-03-0.919E-04
CGA:  21    -0.669886920734E+03   -0.22695E-04   -0.33010E-04  8424   0.395E-04 0.375E-04
CGA:  22    -0.669886919978E+03    0.75539E-06   -0.36389E-04  8424   0.315E-03-0.109E-03
CGA:  23    -0.669886950933E+03   -0.30955E-04   -0.47179E-04  8424   0.596E-04 0.545E-04
CGA:  24    -0.669886980099E+03   -0.29166E-04   -0.27235E-04  8424   0.449E-04-0.447E-04
CGA:  25    -0.669886991794E+03   -0.11695E-04   -0.11877E-04  8424   0.124E-04 0.101E-05
CGA:  26    -0.669887016123E+03   -0.24328E-04    0.21137E-05  8424   0.347E-04-0.637E-05
CGA:  27    -0.669887016339E+03   -0.21603E-06   -0.36234E-05  8424   0.781E-05 0.107E-04
  16 F= -.66988702E+03 E0= -.66988702E+03  d E =0.727647E-02  mag=     2.0000
       N       E                     dE             d eps       ncg     rms          ort
SDA:   1    -0.663983927308E+03    0.59031E+01    0.00000E+00  8424   0.158E+02 0.000E+00
CGA:   2    -0.667901544197E+03   -0.39176E+01   -0.39219E+01  8424   0.799E+01 0.132E-02
CGA:   3    -0.669445984176E+03   -0.15444E+01   -0.15427E+01  8424   0.196E+01 0.578E-02
CGA:   4    -0.669761728498E+03   -0.31574E+00   -0.31573E+00  8424   0.459E+00-0.146E-03
CGA:   5    -0.669841502684E+03   -0.79774E-01   -0.79800E-01  8424   0.997E-01-0.733E-04
CGA:   6    -0.669861546545E+03   -0.20044E-01   -0.20024E-01  8424   0.232E-01-0.126E-03
CGA:   7    -0.669866740258E+03   -0.51937E-02   -0.52062E-02  8424   0.686E-02 0.884E-04
CGA:   8    -0.669868497263E+03   -0.17570E-02   -0.17423E-02  8424   0.226E-02-0.144E-03
CGA:   9    -0.669869168495E+03   -0.67123E-03   -0.66220E-03  8424   0.903E-03-0.177E-03
CGA:  10    -0.669869496309E+03   -0.32781E-03   -0.35304E-03  8424   0.664E-03-0.331E-03
CGA:  11    -0.669869647759E+03   -0.15145E-03   -0.15993E-03  8424   0.425E-03-0.301E-03
CGA:  12    -0.669866411246E+03    0.32365E-02   -0.17562E-02  8424   0.181E-01-0.198E-02
CGA:  13    -0.669869548197E+03   -0.31370E-02   -0.31779E-02  8424   0.315E-02 0.105E-03
CGA:  14    -0.669870361650E+03   -0.81345E-03   -0.77223E-03  8424   0.748E-03-0.110E-03
CGA:  15    -0.669870559892E+03   -0.19824E-03   -0.20556E-03  8424   0.285E-03 0.232E-04
CGA:  16    -0.669870708578E+03   -0.14869E-03   -0.13328E-03  8424   0.362E-03-0.116E-03
CGA:  17    -0.669870749469E+03   -0.40891E-04   -0.37705E-04  8424   0.136E-03-0.812E-05
CGA:  18    -0.669870784472E+03   -0.35003E-04   -0.27763E-04  8424   0.109E-03-0.209E-04
CGA:  19    -0.669870517561E+03    0.26691E-03   -0.11420E-03  8424   0.241E-02-0.546E-03
CGA:  20    -0.669870882447E+03   -0.36489E-03   -0.43336E-03  8424   0.568E-03 0.176E-03
CGA:  21    -0.669871077832E+03   -0.19538E-03   -0.15955E-03  8424   0.134E-03-0.122E-03
CGA:  22    -0.669871107191E+03   -0.29359E-04   -0.29107E-04  8424   0.583E-04-0.958E-06
CGA:  23    -0.669871192209E+03   -0.85018E-04    0.39283E-04  8424   0.974E-04-0.407E-04
CGA:  24    -0.669871197703E+03   -0.54942E-05   -0.12664E-04  8424   0.173E-04 0.180E-04
  17 F= -.66987120E+03 E0= -.66987120E+03  d E =0.158186E-01  mag=     2.0000
       N       E                     dE             d eps       ncg     rms          ort
SDA:   1    -0.668929918359E+03    0.94127E+00    0.00000E+00  8424   0.277E+01 0.000E+00
CGA:   2    -0.669550413083E+03   -0.62049E+00   -0.62088E+00  8424   0.130E+01 0.416E-04
CGA:   3    -0.669814421846E+03   -0.26401E+00   -0.26378E+00  8424   0.370E+00-0.385E-03
CGA:   4    -0.669873688208E+03   -0.59266E-01   -0.59273E-01  8424   0.866E-01-0.609E-04
CGA:   5    -0.669888645082E+03   -0.14957E-01   -0.14986E-01  8424   0.185E-01 0.795E-04
CGA:   6    -0.669892340504E+03   -0.36954E-02   -0.36852E-02  8424   0.423E-02-0.435E-04
CGA:   7    -0.669893260482E+03   -0.91998E-03   -0.93128E-03  8424   0.124E-02 0.518E-04
CGA:   8    -0.669893537837E+03   -0.27735E-03   -0.29029E-03  8424   0.349E-03 0.664E-04
CGA:   9    -0.669893623121E+03   -0.85284E-04   -0.92397E-04  8424   0.111E-03 0.429E-04
CGA:  10    -0.669893636795E+03   -0.13674E-04   -0.24642E-04  8424   0.446E-04 0.521E-04
CGA:  11    -0.669893636056E+03    0.73923E-06   -0.93065E-05  8424   0.235E-04 0.392E-04
  18 F= -.66989364E+03 E0= -.66989364E+03  d E =-.224384E-01  mag=     2.0000
       N       E                     dE             d eps       ncg     rms          ort
SDA:   1    -0.669369959263E+03    0.52368E+00    0.00000E+00  8424   0.135E+01 0.000E+00
CGA:   2    -0.669720232510E+03   -0.35027E+00   -0.35030E+00  8424   0.717E+00-0.224E-04
CGA:   3    -0.669855765755E+03   -0.13553E+00   -0.13549E+00  8424   0.169E+00-0.263E-03
CGA:   4    -0.669882417510E+03   -0.26652E-01   -0.26649E-01  8424   0.386E-01-0.352E-04
CGA:   5    -0.669889081843E+03   -0.66643E-02   -0.66800E-02  8424   0.836E-02 0.834E-04
CGA:   6    -0.669890746192E+03   -0.16643E-02   -0.16794E-02  8424   0.191E-02 0.107E-03
CGA:   7    -0.669891142436E+03   -0.39624E-03   -0.40899E-03  8424   0.529E-03 0.106E-03
CGA:   8    -0.669891241626E+03   -0.99191E-04   -0.11360E-03  8424   0.150E-03 0.118E-03
CGA:   9    -0.669891257566E+03   -0.15940E-04   -0.29700E-04  8424   0.623E-04 0.870E-04
CGA:  10    -0.669891256117E+03    0.14496E-05   -0.74294E-05  8424   0.381E-04 0.461E-04
  19 F= -.66989126E+03 E0= -.66989126E+03  d E =0.237994E-02  mag=     2.0000
       N       E                     dE             d eps       ncg     rms          ort
SDA:   1    -0.662710849970E+03    0.71804E+01    0.00000E+00  8424   0.183E+02 0.000E+00
CGA:   2    -0.667599617897E+03   -0.48888E+01   -0.48890E+01  8424   0.978E+01 0.311E-02
CGA:   3    -0.669412007897E+03   -0.18124E+01   -0.18123E+01  8424   0.218E+01-0.343E-03
CGA:   4    -0.669759957048E+03   -0.34795E+00   -0.34792E+00  8424   0.506E+00-0.425E-03
CGA:   5    -0.669848218160E+03   -0.88261E-01   -0.88290E-01  8424   0.112E+00 0.170E-03
CGA:   6    -0.669870737034E+03   -0.22519E-01   -0.22548E-01  8424   0.257E-01 0.394E-03
CGA:   7    -0.669876443404E+03   -0.57064E-02   -0.57156E-02  8424   0.755E-02 0.190E-03
CGA:   8    -0.669878309388E+03   -0.18660E-02   -0.18702E-02  8424   0.238E-02 0.196E-03
CGA:   9    -0.669878971571E+03   -0.66218E-03   -0.66157E-03  8424   0.824E-03 0.134E-03
CGA:  10    -0.669879224508E+03   -0.25294E-03   -0.25038E-03  8424   0.296E-03 0.120E-03
CGA:  11    -0.669879287206E+03   -0.62699E-04   -0.70213E-04  8424   0.920E-04 0.124E-03
CGA:  12    -0.669879293896E+03   -0.66892E-05   -0.17315E-04  8424   0.474E-04 0.804E-04
  20 F= -.66987929E+03 E0= -.66987929E+03  d E =0.119622E-01  mag=     2.0000
       N       E                     dE             d eps       ncg     rms          ort
SDA:   1    -0.668210392750E+03    0.16689E+01    0.00000E+00  8424   0.487E+01 0.000E+00
CGA:   2    -0.669282673006E+03   -0.10723E+01   -0.10724E+01  8424   0.225E+01 0.269E-02
CGA:   3    -0.669746634674E+03   -0.46396E+00   -0.46385E+00  8424   0.661E+00-0.266E-02
CGA:   4    -0.669852342412E+03   -0.10571E+00   -0.10570E+00  8424   0.153E+00-0.219E-03
CGA:   5    -0.669878647394E+03   -0.26305E-01   -0.26330E-01  8424   0.320E-01 0.331E-03
CGA:   6    -0.669885070471E+03   -0.64231E-02   -0.64207E-02  8424   0.746E-02-0.680E-04
CGA:   7    -0.669886694486E+03   -0.16240E-02   -0.16266E-02  8424   0.213E-02 0.144E-03
CGA:   8    -0.669887195673E+03   -0.50119E-03   -0.50175E-03  8424   0.599E-03 0.126E-03
CGA:   9    -0.669887359675E+03   -0.16400E-03   -0.16266E-03  8424   0.197E-03 0.636E-04
CGA:  10    -0.669887397889E+03   -0.38214E-04   -0.42279E-04  8424   0.810E-04 0.952E-04
CGA:  11    -0.669887408792E+03   -0.10903E-04   -0.17310E-04  8424   0.436E-04 0.709E-04
CGA:  12    -0.669887411516E+03   -0.27240E-05   -0.59119E-05  8424   0.292E-04 0.338E-04
  21 F= -.66988741E+03 E0= -.66988741E+03  d E =-.811762E-02  mag=     2.0000
       N       E                     dE             d eps       ncg     rms          ort
SDA:   1    -0.669815538360E+03    0.71870E-01    0.00000E+00  8424   0.242E+00 0.000E+00
CGA:   2    -0.669864899028E+03   -0.49361E-01   -0.49368E-01  8424   0.984E-01 0.481E-03
CGA:   3    -0.669885627159E+03   -0.20728E-01   -0.20730E-01  8424   0.316E-01 0.239E-03
CGA:   4    -0.669890822624E+03   -0.51955E-02   -0.52030E-02  8424   0.779E-02 0.139E-03
CGA:   5    -0.669892177134E+03   -0.13545E-02   -0.13580E-02  8424   0.164E-02 0.830E-04
CGA:   6    -0.669892484029E+03   -0.30689E-03   -0.30940E-03  8424   0.348E-03 0.972E-04
CGA:   7    -0.669892543420E+03   -0.59391E-04   -0.63449E-04  8424   0.996E-04 0.104E-03
CGA:   8    -0.669892554597E+03   -0.11177E-04   -0.16716E-04  8424   0.453E-04 0.693E-04
CGA:   9    -0.669892555115E+03   -0.51774E-06   -0.43755E-05  8424   0.302E-04 0.355E-04
  22 F= -.66989256E+03 E0= -.66989256E+03  d E =-.514360E-02  mag=     2.0000
       N       E                     dE             d eps       ncg     rms          ort
SDA:   1    -0.669606593465E+03    0.28596E+00    0.00000E+00  8424   0.727E+00 0.000E+00
CGA:   2    -0.669804298470E+03   -0.19771E+00   -0.19769E+00  8424   0.388E+00 0.955E-04
CGA:   3    -0.669875389160E+03   -0.71091E-01   -0.71091E-01  8424   0.857E-01-0.435E-04
CGA:   4    -0.669889098349E+03   -0.13709E-01   -0.13707E-01  8424   0.202E-01-0.591E-04
CGA:   5    -0.669892608177E+03   -0.35098E-02   -0.35104E-02  8424   0.440E-02 0.267E-04
CGA:   6    -0.669893467357E+03   -0.85918E-03   -0.85896E-03  8424   0.980E-03 0.153E-03
CGA:   7    -0.669893675751E+03   -0.20839E-03   -0.20729E-03  8424   0.268E-03 0.104E-03
CGA:   8    -0.669893734453E+03   -0.58702E-04   -0.58460E-04  8424   0.844E-04 0.797E-04
CGA:   9    -0.669893745728E+03   -0.11275E-04   -0.14910E-04  8424   0.418E-04 0.624E-04
CGA:  10    -0.669893747610E+03   -0.18820E-05   -0.45796E-05  8424   0.279E-04 0.329E-04
  23 F= -.66989375E+03 E0= -.66989375E+03  d E =-.119250E-02  mag=     2.0000
       N       E                     dE             d eps       ncg     rms          ort
SDA:   1    -0.662626631469E+03    0.72671E+01    0.00000E+00  8424   0.181E+02 0.000E+00
CGA:   2    -0.667666743744E+03   -0.50401E+01   -0.50406E+01  8424   0.979E+01-0.564E-02
CGA:   3    -0.669434796243E+03   -0.17681E+01   -0.17681E+01  8424   0.210E+01 0.174E-02
CGA:   4    -0.669770488088E+03   -0.33569E+00   -0.33568E+00  8424   0.493E+00-0.926E-03
CGA:   5    -0.669856513640E+03   -0.86026E-01   -0.86026E-01  8424   0.109E+00 0.388E-05
CGA:   6    -0.669878423531E+03   -0.21910E-01   -0.21896E-01  8424   0.251E-01 0.846E-03
CGA:   7    -0.669884015774E+03   -0.55922E-02   -0.55875E-02  8424   0.745E-02 0.133E-03
CGA:   8    -0.669885855542E+03   -0.18398E-02   -0.18233E-02  8424   0.233E-02 0.294E-03
CGA:   9    -0.669886513213E+03   -0.65767E-03   -0.64157E-03  8424   0.793E-03 0.216E-03
CGA:  10    -0.669886772853E+03   -0.25964E-03   -0.24729E-03  8424   0.293E-03 0.135E-03
CGA:  11    -0.669886837377E+03   -0.64524E-04   -0.65556E-04  8424   0.970E-04 0.145E-03
CGA:  12    -0.669886848615E+03   -0.11238E-04   -0.17968E-04  8424   0.505E-04 0.905E-04
CGA:  13    -0.669886848998E+03   -0.38297E-06   -0.47363E-05  8424   0.378E-04 0.432E-04
  24 F= -.66988685E+03 E0= -.66988685E+03  d E =0.689861E-02  mag=     2.0000
       N       E                     dE             d eps       ncg     rms          ort
SDA:   1    -0.666459595311E+03    0.34273E+01    0.00000E+00  8424   0.100E+02 0.000E+00
CGA:   2    -0.668624328902E+03   -0.21647E+01   -0.21641E+01  8424   0.453E+01 0.148E-01
CGA:   3    -0.669570599776E+03   -0.94627E+00   -0.94647E+00  8424   0.137E+01-0.825E-02
CGA:   4    -0.669790221142E+03   -0.21962E+00   -0.21962E+00  8424   0.317E+00-0.343E-03
CGA:   5    -0.669844230231E+03   -0.54009E-01   -0.54026E-01  8424   0.654E-01 0.106E-02
CGA:   6    -0.669857369262E+03   -0.13139E-01   -0.13139E-01  8424   0.152E-01-0.285E-04
CGA:   7    -0.669860679254E+03   -0.33100E-02   -0.32948E-02  8424   0.427E-02 0.488E-03
CGA:   8    -0.669861688218E+03   -0.10090E-02   -0.99603E-03  8424   0.116E-02 0.326E-03
CGA:   9    -0.669862000465E+03   -0.31225E-03   -0.30275E-03  8424   0.358E-03 0.174E-03
CGA:  10    -0.669862067017E+03   -0.66552E-04   -0.70542E-04  8424   0.148E-03 0.200E-03
CGA:  11    -0.669862081304E+03   -0.14286E-04   -0.20007E-04  8424   0.816E-04 0.104E-03
CGA:  12    -0.669862082978E+03   -0.16740E-05   -0.80556E-05  8424   0.636E-04 0.717E-04
  25 F= -.66986208E+03 E0= -.66986208E+03  d E =0.247660E-01  mag=     2.0000
       N       E                     dE             d eps       ncg     rms          ort
SDA:   1    -0.669498322312E+03    0.36376E+00    0.00000E+00  8424   0.124E+01 0.000E+00
CGA:   2    -0.669749901861E+03   -0.25158E+00   -0.25153E+00  8424   0.501E+00 0.195E-02
CGA:   3    -0.669855782453E+03   -0.10588E+00   -0.10587E+00  8424   0.165E+00 0.321E-03
CGA:   4    -0.669882858022E+03   -0.27076E-01   -0.27083E-01  8424   0.405E-01 0.400E-03
CGA:   5    -0.669889882623E+03   -0.70246E-02   -0.70262E-02  8424   0.848E-02 0.231E-03
CGA:   6    -0.669891531287E+03   -0.16487E-02   -0.16468E-02  8424   0.186E-02 0.134E-03
CGA:   7    -0.669891904091E+03   -0.37280E-03   -0.36868E-03  8424   0.490E-03 0.269E-03
CGA:   8    -0.669892001518E+03   -0.97428E-04   -0.98454E-04  8424   0.146E-03 0.187E-03
CGA:   9    -0.669892017701E+03   -0.16183E-04   -0.23707E-04  8424   0.712E-04 0.119E-03
CGA:  10    -0.669892017823E+03   -0.12221E-06   -0.58186E-05  8424   0.513E-04 0.594E-04
  26 F= -.66989202E+03 E0= -.66989202E+03  d E =-.299348E-01  mag=     2.0000
       N       E                     dE             d eps       ncg     rms          ort
SDA:   1    -0.669676310932E+03    0.21571E+00    0.00000E+00  8424   0.652E+00 0.000E+00
CGA:   2    -0.669818841920E+03   -0.14253E+00   -0.14248E+00  8424   0.290E+00 0.882E-03
CGA:   3    -0.669878119503E+03   -0.59278E-01   -0.59264E-01  8424   0.850E-01 0.346E-03
CGA:   4    -0.669891924895E+03   -0.13805E-01   -0.13808E-01  8424   0.205E-01 0.238E-03
CGA:   5    -0.669895504975E+03   -0.35801E-02   -0.35797E-02  8424   0.432E-02 0.139E-03
CGA:   6    -0.669896339100E+03   -0.83412E-03   -0.83113E-03  8424   0.946E-03 0.152E-03
CGA:   7    -0.669896527121E+03   -0.18802E-03   -0.18496E-03  8424   0.253E-03 0.186E-03
CGA:   8    -0.669896572278E+03   -0.45158E-04   -0.47322E-04  8424   0.898E-04 0.128E-03
CGA:   9    -0.669896578428E+03   -0.61499E-05   -0.10036E-04  8424   0.521E-04 0.641E-04
  27 F= -.66989658E+03 E0= -.66989658E+03  d E =-.456060E-02  mag=     2.0000
       N       E                     dE             d eps       ncg     rms          ort
SDA:   1    -0.668955536062E+03    0.94104E+00    0.00000E+00  8424   0.271E+01 0.000E+00
CGA:   2    -0.669549023147E+03   -0.59349E+00   -0.59328E+00  8424   0.120E+01 0.337E-02
CGA:   3    -0.669794729430E+03   -0.24571E+00   -0.24571E+00  8424   0.352E+00-0.307E-03
CGA:   4    -0.669851931129E+03   -0.57202E-01   -0.57205E-01  8424   0.853E-01 0.447E-03
CGA:   5    -0.669866763379E+03   -0.14832E-01   -0.14830E-01  8424   0.180E-01 0.355E-03
CGA:   6    -0.669870293083E+03   -0.35297E-02   -0.35255E-02  8424   0.405E-02 0.157E-03
CGA:   7    -0.669871165756E+03   -0.87267E-03   -0.86016E-03  8424   0.113E-02 0.312E-03
CGA:   8    -0.669871438194E+03   -0.27244E-03   -0.26418E-03  8424   0.318E-03 0.186E-03
CGA:   9    -0.669871507767E+03   -0.69573E-04   -0.68210E-04  8424   0.114E-03 0.143E-03
CGA:  10    -0.669871524049E+03   -0.16282E-04   -0.21054E-04  8424   0.626E-04 0.101E-03
CGA:  11    -0.669871527420E+03   -0.33713E-05   -0.67332E-05  8424   0.446E-04 0.515E-04
  28 F= -.66987153E+03 E0= -.66987153E+03  d E =0.250510E-01  mag=     2.0000
       N       E                     dE             d eps       ncg     rms          ort
SDA:   1    -0.669470092998E+03    0.40143E+00    0.00000E+00  8424   0.129E+01 0.000E+00
CGA:   2    -0.669743406488E+03   -0.27331E+00   -0.27325E+00  8424   0.552E+00 0.110E-02
CGA:   3    -0.669857949418E+03   -0.11454E+00   -0.11458E+00  8424   0.169E+00-0.109E-02
CGA:   4    -0.669885545576E+03   -0.27596E-01   -0.27596E-01  8424   0.413E-01-0.137E-04
CGA:   5    -0.669892688334E+03   -0.71428E-02   -0.71418E-02  8424   0.860E-02 0.253E-03
CGA:   6    -0.669894393630E+03   -0.17053E-02   -0.17054E-02  8424   0.195E-02-0.652E-05
CGA:   7    -0.669894815260E+03   -0.42163E-03   -0.41699E-03  8424   0.554E-03 0.107E-03
CGA:   8    -0.669894934368E+03   -0.11911E-03   -0.11594E-03  8424   0.146E-03 0.124E-03
CGA:   9    -0.669894963883E+03   -0.29516E-04   -0.30030E-04  8424   0.560E-04 0.770E-04
CGA:  10    -0.669894966800E+03   -0.29171E-05   -0.58542E-05  8424   0.352E-04 0.423E-04
  29 F= -.66989497E+03 E0= -.66989497E+03  d E =-.234394E-01  mag=     2.0000
       N       E                     dE             d eps       ncg     rms          ort
SDA:   1    -0.669818225497E+03    0.76738E-01    0.00000E+00  8424   0.231E+00 0.000E+00
CGA:   2    -0.669869915767E+03   -0.51690E-01   -0.51691E-01  8424   0.106E+00-0.450E-04
CGA:   3    -0.669891395620E+03   -0.21480E-01   -0.21486E-01  8424   0.303E-01-0.184E-03
CGA:   4    -0.669896259562E+03   -0.48639E-02   -0.48649E-02  8424   0.721E-02 0.989E-04
CGA:   5    -0.669897493974E+03   -0.12344E-02   -0.12343E-02  8424   0.147E-02 0.184E-03
CGA:   6    -0.669897775610E+03   -0.28164E-03   -0.27978E-03  8424   0.318E-03 0.119E-03
CGA:   7    -0.669897834582E+03   -0.58972E-04   -0.58898E-04  8424   0.907E-04 0.975E-04
CGA:   8    -0.669897842905E+03   -0.83231E-05   -0.12797E-04  8424   0.442E-04 0.713E-04
  30 F= -.66989784E+03 E0= -.66989784E+03  d E =-.287610E-02  mag=     2.0000
       N       E                     dE             d eps       ncg     rms          ort
SDA:   1    -0.669739326409E+03    0.15851E+00    0.00000E+00  8424   0.402E+00 0.000E+00
CGA:   2    -0.669849149218E+03   -0.10982E+00   -0.10990E+00  8424   0.212E+00-0.763E-03
CGA:   3    -0.669888016058E+03   -0.38867E-01   -0.38864E-01  8424   0.468E-01 0.133E-03
CGA:   4    -0.669895509290E+03   -0.74932E-02   -0.74949E-02  8424   0.111E-01 0.183E-03
CGA:   5    -0.669897421785E+03   -0.19125E-02   -0.19120E-02  8424   0.229E-02 0.234E-03
CGA:   6    -0.669897865857E+03   -0.44407E-03   -0.44022E-03  8424   0.501E-03 0.199E-03
CGA:   7    -0.669897967758E+03   -0.10190E-03   -0.10016E-03  8424   0.138E-03 0.124E-03
CGA:   8    -0.669897983925E+03   -0.16167E-04   -0.20881E-04  8424   0.626E-04 0.961E-04
CGA:   9    -0.669897984954E+03   -0.10289E-05   -0.52497E-05  8424   0.425E-04 0.501E-04
  31 F= -.66989798E+03 E0= -.66989798E+03  d E =-.142049E-03  mag=     2.0000
       N       E                     dE             d eps       ncg     rms          ort
SDA:   1    -0.668680591822E+03    0.12174E+01    0.00000E+00  8424   0.349E+01 0.000E+00
CGA:   2    -0.669449825395E+03   -0.76923E+00   -0.76888E+00  8424   0.161E+01 0.491E-02
CGA:   3    -0.669780096956E+03   -0.33027E+00   -0.33031E+00  8424   0.477E+00-0.109E-02
CGA:   4    -0.669856164855E+03   -0.76068E-01   -0.76072E-01  8424   0.111E+00 0.784E-03
CGA:   5    -0.669875141127E+03   -0.18976E-01   -0.18973E-01  8424   0.230E-01 0.471E-03
CGA:   6    -0.669879738961E+03   -0.45978E-02   -0.45976E-02  8424   0.538E-02 0.221E-05
CGA:   7    -0.669880885320E+03   -0.11464E-02   -0.11330E-02  8424   0.149E-02 0.300E-03
CGA:   8    -0.669881258499E+03   -0.37318E-03   -0.36663E-03  8424   0.428E-03 0.101E-03
CGA:   9    -0.669881363569E+03   -0.10507E-03   -0.99982E-04  8424   0.131E-03 0.107E-03
CGA:  10    -0.669881392526E+03   -0.28958E-04   -0.28821E-04  8424   0.593E-04 0.796E-04
CGA:  11    -0.669881400942E+03   -0.84158E-05   -0.91827E-05  8424   0.328E-04 0.402E-04
  32 F= -.66988140E+03 E0= -.66988140E+03  d E =0.165840E-01  mag=     2.0000
       N       E                     dE             d eps       ncg     rms          ort
SDA:   1    -0.669025147871E+03    0.85624E+00    0.00000E+00  8424   0.282E+01 0.000E+00
CGA:   2    -0.669578458736E+03   -0.55331E+00   -0.55317E+00  8424   0.109E+01 0.424E-02
CGA:   3    -0.669813316377E+03   -0.23486E+00   -0.23495E+00  8424   0.375E+00-0.232E-02
CGA:   4    -0.669875436289E+03   -0.62120E-01   -0.62119E-01  8424   0.940E-01-0.194E-03
CGA:   5    -0.669891579034E+03   -0.16143E-01   -0.16143E-01  8424   0.192E-01 0.422E-03
CGA:   6    -0.669895401591E+03   -0.38226E-02   -0.38257E-02  8424   0.428E-02-0.123E-03
CGA:   7    -0.669896322787E+03   -0.92120E-03   -0.91523E-03  8424   0.122E-02 0.143E-03
CGA:   8    -0.669896604416E+03   -0.28163E-03   -0.27532E-03  8424   0.312E-03 0.147E-03
CGA:   9    -0.669896689319E+03   -0.84902E-04   -0.81516E-04  8424   0.953E-04 0.610E-04
CGA:  10    -0.669896701870E+03   -0.12551E-04   -0.15538E-04  8424   0.467E-04 0.676E-04
CGA:  11    -0.669896703431E+03   -0.15609E-05   -0.45690E-05  8424   0.315E-04 0.374E-04
