       N       E                     dE             d eps       ncg     rms          ort
DAV:   1     0.826258512111E+04    0.82626E+04   -0.24658E+05  8424   0.238E+03
DAV:   2     0.917876547470E+03   -0.73447E+04   -0.68936E+04  8424   0.656E+02
DAV:   3    -0.675075744492E+03   -0.15930E+04   -0.14003E+04  8424   0.282E+02
DAV:   4    -0.830794799412E+03   -0.15572E+03   -0.15301E+03  8424   0.857E+01
DAV:   5    -0.833297037870E+03   -0.25022E+01   -0.24910E+01  8424   0.122E+01
SDA:   6    -0.254480580324E+03    0.57882E+03   -0.24910E+01  8424   0.400E+04 0.000E+00
CGA:   7    -0.540947609160E+03   -0.28647E+03   -0.40107E+03  8424   0.618E+04-0.486E+03
CGA:   8    -0.545503105466E+03   -0.45555E+01   -0.27726E+03  8424   0.110E+04-0.216E+04
CGA:   9    -0.573071662308E+03   -0.27569E+02   -0.33940E+02  8424   0.342E+04-0.261E+04
CGA:  10    -0.621730966952E+03   -0.48659E+02   -0.26983E+03  8424   0.348E+03 0.514E+02
CGA:  11    -0.640466304225E+03   -0.18735E+02   -0.12679E+02  8424   0.157E+03 0.228E+03
CGA:  12    -0.648628063256E+03   -0.81618E+01   -0.31173E+01  8424   0.123E+03 0.184E+03
CGA:  13    -0.653073535423E+03   -0.44455E+01   -0.27309E+01  8424   0.456E+02 0.675E+02
CGA:  14    -0.655698132252E+03   -0.26246E+01   -0.16836E+01  8424   0.312E+02 0.186E+02
CGA:  15    -0.660458165493E+03   -0.47600E+01   -0.42763E+01  8424   0.684E+02-0.319E+00
CGA:  16    -0.661687566941E+03   -0.12294E+01   -0.21023E+01  8424   0.595E+02-0.575E+02
CGA:  17    -0.663068221812E+03   -0.13807E+01   -0.43845E+01  8424   0.265E+02-0.833E+00
CGA:  18    -0.664450426291E+03   -0.13822E+01   -0.73066E+00  8424   0.161E+02 0.236E+02
CGA:  19    -0.665114387441E+03   -0.66396E+00   -0.42241E+00  8424   0.421E+01 0.496E+01
CGA:  20    -0.665398924971E+03   -0.28454E+00   -0.24712E+00  8424   0.108E+02 0.487E+00
CGA:  21    -0.665639732972E+03   -0.24081E+00   -0.17234E+00  8424   0.159E+02 0.128E+01
CGA:  22    -0.664113370112E+03    0.15264E+01   -0.33175E+00  8424   0.118E+03-0.111E+03
CGA:  23    -0.665237545809E+03   -0.11242E+01   -0.61281E+01  8424   0.214E+02-0.176E+02
CGA:  24    -0.666120562572E+03   -0.88302E+00   -0.48516E+00  8424   0.136E+02 0.172E+02
CGA:  25    -0.666646975580E+03   -0.52641E+00   -0.29445E+00  8424   0.424E+01 0.850E+01
CGA:  26    -0.666824787782E+03   -0.17781E+00   -0.13994E+00  8424   0.192E+01 0.724E+00
CGA:  27    -0.667035243742E+03   -0.21046E+00   -0.20891E+00  8424   0.509E+01-0.202E+00
CGA:  28    -0.667163796113E+03   -0.12855E+00   -0.87561E-01  8424   0.503E+01 0.196E+01
CGA:  29    -0.667370989237E+03   -0.20719E+00   -0.24453E+00  8424   0.255E+01-0.398E+00
CGA:  30    -0.667499421876E+03   -0.12843E+00   -0.15066E+00  8424   0.851E+00 0.135E+00
CGA:  31    -0.667634442217E+03   -0.13502E+00   -0.12799E+00  8424   0.541E+00 0.717E-01
CGA:  32    -0.667715227498E+03   -0.80785E-01   -0.84199E-01  8424   0.731E+00-0.886E-01
CGA:  33    -0.667759805893E+03   -0.44578E-01   -0.46600E-01  8424   0.433E+00 0.165E-01
CGA:  34    -0.667810870445E+03   -0.51065E-01   -0.49404E-01  8424   0.214E+00 0.364E-01
CGA:  35    -0.667857854866E+03   -0.46984E-01   -0.52448E-01  8424   0.425E+00-0.409E-01
CGA:  36    -0.667898962095E+03   -0.41107E-01   -0.40499E-01  8424   0.230E+00 0.378E-02
CGA:  37    -0.667931955725E+03   -0.32994E-01   -0.34196E-01  8424   0.124E+00-0.291E-01
CGA:  38    -0.667946214969E+03   -0.14259E-01   -0.27381E-01  8424   0.394E+00-0.874E-01
CGA:  39    -0.667972821868E+03   -0.26607E-01   -0.28164E-01  8424   0.785E-01 0.870E-02
CGA:  40    -0.667989293526E+03   -0.16472E-01   -0.22159E-01  8424   0.140E+00-0.341E-01
CGA:  41    -0.668009488192E+03   -0.20195E-01   -0.25473E-01  8424   0.150E+00-0.277E-01
CGA:  42    -0.668025947496E+03   -0.16459E-01   -0.16629E-01  8424   0.581E-01-0.175E-01
CGA:  43    -0.668035881762E+03   -0.99343E-02   -0.14601E-01  8424   0.105E+00-0.302E-01
CGA:  44    -0.668048218301E+03   -0.12337E-01   -0.12466E-01  8424   0.467E-01 0.587E-02
CGA:  45    -0.668056803365E+03   -0.85851E-02   -0.92472E-02  8424   0.444E-01-0.128E-01
CGA:  46    -0.668067597994E+03   -0.10795E-01   -0.12001E-01  8424   0.461E-01-0.559E-02
CGA:  47    -0.668073358946E+03   -0.57610E-02   -0.17803E-01  8424   0.138E+00-0.427E-01
CGA:  48    -0.668086107341E+03   -0.12748E-01   -0.13310E-01  8424   0.498E-01 0.450E-02
CGA:  49    -0.668099592747E+03   -0.13485E-01   -0.18447E-01  8424   0.822E-01-0.250E-01
CGA:  50    -0.668110561648E+03   -0.10969E-01   -0.11080E-01  8424   0.279E-01 0.284E-02
CGA:  51    -0.668115908615E+03   -0.53470E-02   -0.57774E-02  8424   0.410E-01-0.139E-01
CGA:  52    -0.668123974746E+03   -0.80661E-02    0.11991E-01  8424   0.508E-01 0.119E-01
CGA:  53    -0.668127887235E+03   -0.39125E-02   -0.25294E-01  8424   0.633E+00-0.128E+00
CGA:  54    -0.668174576917E+03   -0.46690E-01   -0.45140E-01  8424   0.274E-01-0.268E-01
CGA:  55    -0.668179453767E+03   -0.48768E-02   -0.15103E-01  8424   0.229E+00-0.275E-01
CGA:  56    -0.668199299187E+03   -0.19845E-01   -0.18723E-01  8424   0.434E-01-0.111E-01
CGA:  57    -0.668207949972E+03   -0.86508E-02   -0.88295E-02  8424   0.432E-01-0.613E-02
CGA:  58    -0.668223129043E+03   -0.15179E-01    0.51653E-01  8424   0.397E-01 0.304E-01
CGA:  59    -0.668231776124E+03   -0.86471E-02   -0.88309E-02  8424   0.455E-01-0.597E-02
CGA:  60    -0.668238350011E+03   -0.65739E-02   -0.61920E-02  8424   0.773E-01-0.406E-02
CGA:  61    -0.668252239769E+03   -0.13890E-01   -0.19482E-01  8424   0.355E+00-0.527E-01
CGA:  62    -0.668269730657E+03   -0.17491E-01   -0.17288E-01  8424   0.353E-01-0.217E-01
CGA:  63    -0.668273875230E+03   -0.41446E-02   -0.43035E-02  8424   0.118E-01 0.281E-02
CGA:  64    -0.668277791724E+03   -0.39165E-02   -0.38619E-02  8424   0.607E-01 0.449E-03
CGA:  65    -0.668295219357E+03   -0.17428E-01   -0.18775E-01  8424   0.137E+00-0.112E-01
CGA:  66    -0.668310894450E+03   -0.15675E-01   -0.14114E-01  8424   0.264E+00 0.389E-02
CGA:  67    -0.668322275035E+03   -0.11381E-01   -0.66519E-02  8424   0.276E+00 0.166E+00
CGA:  68    -0.668380937351E+03   -0.58662E-01   -0.58772E-01  8424   0.769E-01-0.277E-02
CGA:  69    -0.668400417407E+03   -0.19480E-01   -0.20198E-01  8424   0.108E+00-0.781E-02
CGA:  70    -0.668413885406E+03   -0.13468E-01   -0.14075E-01  8424   0.772E-01 0.205E-02
CGA:  71    -0.668427426625E+03   -0.13541E-01   -0.13852E-01  8424   0.225E-01 0.117E-01
CGA:  72    -0.668433353616E+03   -0.59270E-02   -0.58511E-02  8424   0.129E-01 0.141E-02
CGA:  73    -0.668437567296E+03   -0.42137E-02   -0.42797E-02  8424   0.666E-02-0.625E-03
CGA:  74    -0.668440210096E+03   -0.26428E-02   -0.34301E-02  8424   0.997E-02-0.235E-02
CGA:  75    -0.668442150860E+03   -0.19408E-02   -0.25175E-02  8424   0.110E-01-0.344E-02
CGA:  76    -0.668443552651E+03   -0.14018E-02   -0.39696E-02  8424   0.185E-01-0.826E-02
CGA:  77    -0.668448188060E+03   -0.46354E-02   -0.46497E-02  8424   0.692E-02-0.108E-02
CGA:  78    -0.668450808115E+03   -0.26201E-02   -0.29360E-02  8424   0.733E-02-0.151E-02
CGA:  79    -0.668452883106E+03   -0.20750E-02   -0.23442E-02  8424   0.614E-02-0.175E-02
CGA:  80    -0.668453440463E+03   -0.55736E-03   -0.37543E-02  8424   0.205E-01-0.602E-02
CGA:  81    -0.668457146574E+03   -0.37061E-02   -0.37119E-02  8424   0.412E-02 0.262E-04
CGA:  82    -0.668458989317E+03   -0.18427E-02   -0.23140E-02  8424   0.622E-02-0.169E-02
CGA:  83    -0.668460174998E+03   -0.11857E-02   -0.17567E-02  8424   0.829E-02-0.315E-02
CGA:  84    -0.668462332825E+03   -0.21578E-02   -0.21105E-02  8424   0.428E-02-0.941E-03
CGA:  85    -0.668463687354E+03   -0.13545E-02   -0.15698E-02  8424   0.396E-02-0.192E-02
CGA:  86    -0.668465198525E+03   -0.15112E-02    0.24908E-02  8424   0.241E-02 0.375E-03
CGA:  87    -0.668466899008E+03   -0.17005E-02    0.74828E-02  8424   0.177E-02 0.721E-03
CGA:  88    -0.668468534561E+03   -0.16356E-02    0.21474E-02  8424   0.176E-02 0.703E-03
CGA:  89    -0.668470791824E+03   -0.22573E-02    0.76013E-03  8424   0.146E-02 0.149E-02
CGA:  90    -0.668462932656E+03    0.78592E-02   -0.41979E-02  8424   0.713E-01-0.653E-02
CGA:  91    -0.668473309121E+03   -0.10376E-01   -0.10877E-01  8424   0.825E-02-0.259E-02
CGA:  92    -0.668475747736E+03   -0.24386E-02   -0.22867E-02  8424   0.167E-02-0.598E-03
CGA:  93    -0.668476459503E+03   -0.71177E-03   -0.59348E-03  8424   0.284E-02-0.845E-03
CGA:  94    -0.668477147759E+03   -0.68826E-03   -0.54746E-03  8424   0.109E-02-0.431E-03
CGA:  95    -0.668478488153E+03   -0.13404E-02    0.51843E-03  8424   0.102E-02 0.353E-03
CGA:  96    -0.668480725157E+03   -0.22370E-02    0.52506E-03  8424   0.187E-02 0.596E-03
CGA:  97    -0.668481288608E+03   -0.56345E-03   -0.44736E-03  8424   0.127E-02-0.451E-03
CGA:  98    -0.668482964880E+03   -0.16763E-02    0.30395E-03  8424   0.994E-03 0.609E-03
CGA:  99    -0.668485067439E+03   -0.21026E-02    0.77448E-03  8424   0.284E-02 0.221E-03
CGA: 100    -0.668492496429E+03   -0.74290E-02    0.71449E-03  8424   0.526E-02 0.267E-02
CGA: 101    -0.668493537920E+03   -0.10415E-02   -0.92099E-03  8424   0.902E-03-0.394E-03
CGA: 102    -0.668494689257E+03   -0.11513E-02    0.43025E-03  8424   0.859E-03 0.240E-03
CGA: 103    -0.668496737512E+03   -0.20483E-02    0.25956E-03  8424   0.139E-02 0.627E-03
CGA: 104    -0.668497299957E+03   -0.56244E-03   -0.45998E-03  8424   0.255E-02-0.737E-03
CGA: 105    -0.668497911080E+03   -0.61112E-03   -0.44132E-03  8424   0.956E-03-0.553E-03
CGA: 106    -0.668499252341E+03   -0.13413E-02    0.17160E-03  8424   0.594E-03 0.561E-03
CGA: 107    -0.668500109258E+03   -0.85692E-03    0.22418E-03  8424   0.129E-02 0.881E-04
CGA: 108    -0.668503212304E+03   -0.31030E-02    0.25296E-03  8424   0.942E-03 0.140E-02
CGA: 109    -0.668499867654E+03    0.33447E-02   -0.14462E-02  8424   0.474E-01-0.444E-02
CGA: 110    -0.668506836105E+03   -0.69685E-02   -0.69100E-02  8424   0.674E-03-0.371E-03
CGA: 111    -0.668507865312E+03   -0.10292E-02    0.28169E-03  8424   0.109E-02 0.945E-04
CGA: 112    -0.668510493319E+03   -0.26280E-02    0.25989E-03  8424   0.126E-02 0.798E-03
CGA: 113    -0.668510474812E+03    0.18507E-04   -0.11898E-02  8424   0.152E-01-0.264E-02
CGA: 114    -0.668512769143E+03   -0.22943E-02   -0.22297E-02  8424   0.170E-02-0.486E-03
CGA: 115    -0.668513510977E+03   -0.74183E-03   -0.11096E-02  8424   0.641E-02-0.204E-02
CGA: 116    -0.668514827329E+03   -0.13164E-02   -0.12007E-02  8424   0.159E-02-0.427E-03
CGA: 117    -0.668515130533E+03   -0.30320E-03   -0.11731E-02  8424   0.124E-01-0.286E-02
CGA: 118    -0.668517143914E+03   -0.20134E-02   -0.19545E-02  8424   0.198E-02-0.412E-03
CGA: 119    -0.668518082010E+03   -0.93810E-03   -0.10121E-02  8424   0.395E-02-0.171E-02
CGA: 120    -0.668519050437E+03   -0.96843E-03   -0.83017E-03  8424   0.149E-02-0.531E-03
CGA: 121    -0.668490953597E+03    0.28097E-01   -0.15058E-01  8424   0.233E+00-0.126E-01
CGA: 122    -0.668522456451E+03   -0.31503E-01   -0.36345E-01  8424   0.319E-01-0.257E-01
CGA: 123    -0.668528905600E+03   -0.64491E-02   -0.60574E-02  8424   0.128E-02-0.168E-04
CGA: 124    -0.668529844172E+03   -0.93857E-03   -0.70444E-03  8424   0.282E-02-0.959E-03
CGA: 125    -0.668530653462E+03   -0.80929E-03   -0.59762E-03  8424   0.102E-02-0.367E-03
CGA: 126    -0.668490169239E+03    0.40484E-01   -0.22666E-01  8424   0.347E+00-0.108E-01
CGA: 127    -0.668532308970E+03   -0.42140E-01   -0.29934E-01  8424   0.597E-01 0.135E+00
CGA: 128    -0.668542252463E+03   -0.99435E-02   -0.87667E-02  8424   0.119E-01 0.818E-02
CGA: 129    -0.668545137551E+03   -0.28851E-02   -0.26141E-02  8424   0.323E-02-0.274E-03
CGA: 130    -0.668545854356E+03   -0.71680E-03   -0.50718E-03  8424   0.120E-02-0.222E-03
CGA: 131    -0.668546859120E+03   -0.10048E-02   -0.49538E-03  8424   0.218E-02-0.738E-03
CGA: 132    -0.668547781708E+03   -0.92259E-03   -0.61573E-03  8424   0.899E-03-0.365E-03
CGA: 133    -0.668544285562E+03    0.34961E-02   -0.18100E-02  8424   0.673E-01-0.399E-02
CGA: 134    -0.668553517971E+03   -0.92324E-02   -0.77432E-02  8424   0.384E-02 0.101E-01
CGA: 135    -0.668554802384E+03   -0.12844E-02   -0.10103E-02  8424   0.248E-02-0.293E-03
CGA: 136    -0.668555713490E+03   -0.91111E-03   -0.53780E-03  8424   0.885E-03-0.484E-03
CGA: 137    -0.668557381475E+03   -0.16680E-02    0.21367E-02  8424   0.894E-02-0.111E-02
CGA: 138    -0.668559008254E+03   -0.16268E-02   -0.13866E-02  8424   0.108E-02-0.206E-04
CGA: 139    -0.668559932107E+03   -0.92385E-03   -0.60940E-03  8424   0.233E-02-0.808E-03
CGA: 140    -0.668560746515E+03   -0.81441E-03   -0.55654E-03  8424   0.839E-03-0.358E-03
CGA: 141    -0.668555741321E+03    0.50052E-02   -0.17238E-02  8424   0.772E-01-0.446E-02
CGA: 142    -0.668566372505E+03   -0.10631E-01   -0.94294E-02  8424   0.343E-02 0.728E-02
CGA: 143    -0.668567519697E+03   -0.11472E-02   -0.91845E-03  8424   0.103E-02-0.335E-03
CGA: 144    -0.668568282396E+03   -0.76270E-03   -0.41013E-03  8424   0.277E-02-0.775E-03
CGA: 145    -0.668568947565E+03   -0.66517E-03   -0.45968E-03  8424   0.570E-03-0.214E-03
CGA: 146    -0.668570476589E+03   -0.15290E-02    0.30850E-03  8424   0.197E-02-0.218E-03
CGA: 147    -0.668577420136E+03   -0.69435E-02    0.21596E-03  8424   0.460E-02 0.214E-03
CGA: 148    -0.668598208573E+03   -0.20788E-01    0.15261E-02  8424   0.863E-02 0.665E-03
CGA: 149    -0.668640864339E+03   -0.42656E-01    0.26841E-02  8424   0.232E-01-0.387E-02
CGA: 150    -0.668727138870E+03   -0.86275E-01    0.18108E-02  8424   0.187E+00-0.821E-01
CGA: 151    -0.668756532350E+03   -0.29393E-01   -0.34799E-01  8424   0.413E-01-0.127E-01
CGA: 152    -0.668763768852E+03   -0.72365E-02   -0.87909E-02  8424   0.648E-02 0.351E-02
CGA: 153    -0.668764173844E+03   -0.40499E-03   -0.19433E-02  8424   0.321E-02 0.300E-02
CGA: 154    -0.668763357456E+03    0.81639E-03   -0.91572E-03  8424   0.262E-02 0.304E-02
CGA: 155    -0.668762823521E+03    0.53394E-03   -0.54577E-03  8424   0.204E-02 0.207E-02
CGA: 156    -0.668762273038E+03    0.55048E-03   -0.40626E-03  8424   0.186E-02 0.189E-02
CGA: 157    -0.668761732376E+03    0.54066E-03   -0.34171E-03  8424   0.174E-02 0.178E-02
CGA: 158    -0.668761216241E+03    0.51613E-03   -0.30144E-03  8424   0.166E-02 0.169E-02
CGA: 159    -0.668760726658E+03    0.48958E-03   -0.27055E-03  8424   0.159E-02 0.162E-02
CGA: 160    -0.668760262234E+03    0.46442E-03   -0.24510E-03  8424   0.154E-02 0.156E-02
CGA: 161    -0.668759822372E+03    0.43986E-03   -0.22396E-03  8424   0.149E-02 0.151E-02
CGA: 162    -0.668759405522E+03    0.41685E-03   -0.20575E-03  8424   0.145E-02 0.147E-02
CGA: 163    -0.668759010461E+03    0.39506E-03   -0.18995E-03  8424   0.141E-02 0.143E-02
CGA: 164    -0.668758635871E+03    0.37459E-03   -0.17604E-03  8424   0.137E-02 0.139E-02
CGA: 165    -0.668758280552E+03    0.35532E-03   -0.16369E-03  8424   0.134E-02 0.136E-02
CGA: 166    -0.668757943356E+03    0.33720E-03   -0.15264E-03  8424   0.132E-02 0.133E-02
CGA: 167    -0.668757623211E+03    0.32014E-03   -0.14268E-03  8424   0.129E-02 0.130E-02
CGA: 168    -0.668757319115E+03    0.30410E-03   -0.13365E-03  8424   0.127E-02 0.128E-02
CGA: 169    -0.668757030128E+03    0.28899E-03   -0.12542E-03  8424   0.125E-02 0.126E-02
CGA: 170    -0.668756755378E+03    0.27475E-03   -0.11788E-03  8424   0.123E-02 0.124E-02
CGA: 171    -0.668756494049E+03    0.26133E-03   -0.11096E-03  8424   0.121E-02 0.122E-02
CGA: 172    -0.668756245378E+03    0.24867E-03   -0.10459E-03  8424   0.119E-02 0.120E-02
CGA: 173    -0.668756008653E+03    0.23672E-03   -0.98707E-04  8424   0.118E-02 0.118E-02
CGA: 174    -0.668755783209E+03    0.22544E-03   -0.93263E-04  8424   0.116E-02 0.117E-02
CGA: 175    -0.668755568421E+03    0.21479E-03   -0.88214E-04  8424   0.115E-02 0.115E-02
CGA: 176    -0.668755363707E+03    0.20471E-03   -0.83520E-04  8424   0.113E-02 0.114E-02
CGA: 177    -0.668755168518E+03    0.19519E-03   -0.79149E-04  8424   0.112E-02 0.113E-02
CGA: 178    -0.668754982340E+03    0.18618E-03   -0.75068E-04  8424   0.111E-02 0.112E-02
CGA: 179    -0.668754804690E+03    0.17765E-03   -0.71249E-04  8424   0.110E-02 0.111E-02
CGA: 180    -0.668754635113E+03    0.16958E-03   -0.67668E-04  8424   0.109E-02 0.110E-02
CGA: 181    -0.668754473184E+03    0.16193E-03   -0.64304E-04  8424   0.108E-02 0.109E-02
CGA: 182    -0.668754318515E+03    0.15467E-03   -0.61141E-04  8424   0.108E-02 0.108E-02
CGA: 183    -0.668754170738E+03    0.14778E-03   -0.58162E-04  8424   0.107E-02 0.107E-02
CGA: 184    -0.668754029510E+03    0.14123E-03   -0.55352E-04  8424   0.106E-02 0.106E-02
CGA: 185    -0.668753894511E+03    0.13500E-03   -0.52702E-04  8424   0.105E-02 0.106E-02
CGA: 186    -0.668753765440E+03    0.12907E-03   -0.50201E-04  8424   0.105E-02 0.105E-02
CGA: 187    -0.668753642015E+03    0.12343E-03   -0.47836E-04  8424   0.104E-02 0.104E-02
CGA: 188    -0.668753523994E+03    0.11802E-03   -0.45609E-04  8424   0.103E-02 0.104E-02
CGA: 189    -0.668753411109E+03    0.11289E-03   -0.43489E-04  8424   0.103E-02 0.103E-02
CGA: 190    -0.668753303153E+03    0.10796E-03   -0.41491E-04  8424   0.102E-02 0.102E-02
CGA: 191    -0.668753199961E+03    0.10319E-03   -0.39608E-04  8424   0.102E-02 0.102E-02
CGA: 192    -0.668753101279E+03    0.98682E-04   -0.37770E-04  8424   0.101E-02 0.101E-02
CGA: 193    -0.668753007252E+03    0.94027E-04   -0.36151E-04  8424   0.101E-02 0.100E-02
CGA: 194    -0.668752917256E+03    0.89996E-04   -0.34390E-04  8424   0.101E-02 0.996E-03
CGA: 195    -0.668752831781E+03    0.85474E-04   -0.33126E-04  8424   0.101E-02 0.990E-03
CGA: 196    -0.668752749360E+03    0.82422E-04   -0.31441E-04  8424   0.999E-03 0.987E-03
CGA: 197    -0.668752670769E+03    0.78591E-04   -0.30357E-04  8424   0.992E-03 0.987E-03
CGA: 198    -0.668752594825E+03    0.75944E-04   -0.28782E-04  8424   0.986E-03 0.985E-03
CGA: 199    -0.668752522249E+03    0.72576E-04   -0.27637E-04  8424   0.982E-03 0.983E-03
CGA: 200    -0.668752452473E+03    0.69776E-04   -0.26319E-04  8424   0.978E-03 0.980E-03
   1 F= -.66875245E+03 E0= -.66875245E+03  d E =-.668752E+03  mag=     4.0000
       N       E                     dE             d eps       ncg     rms          ort
SDA:   1    -0.668754026351E+03   -0.15041E-02    0.00000E+00  8424   0.628E-02 0.000E+00
CGA:   2    -0.668754640618E+03   -0.61427E-03   -0.65478E-03  8424   0.293E-02 0.372E-02
CGA:   3    -0.668754737513E+03   -0.96895E-04   -0.20803E-03  8424   0.227E-02 0.254E-02
CGA:   4    -0.668754753134E+03   -0.15621E-04   -0.12996E-03  8424   0.192E-02 0.207E-02
CGA:   5    -0.668754737832E+03    0.15302E-04   -0.94131E-04  8424   0.170E-02 0.180E-02
CGA:   6    -0.668754708169E+03    0.29662E-04   -0.73318E-04  8424   0.155E-02 0.162E-02
CGA:   7    -0.668754671396E+03    0.36774E-04   -0.59737E-04  8424   0.144E-02 0.149E-02
CGA:   8    -0.668754631156E+03    0.40239E-04   -0.50200E-04  8424   0.135E-02 0.139E-02
CGA:   9    -0.668754589443E+03    0.41713E-04   -0.43148E-04  8424   0.128E-02 0.131E-02
CGA:  10    -0.668754547405E+03    0.42038E-04   -0.37731E-04  8424   0.122E-02 0.124E-02
CGA:  11    -0.668754505727E+03    0.41678E-04   -0.33442E-04  8424   0.117E-02 0.119E-02
CGA:  12    -0.668754464823E+03    0.40904E-04   -0.29966E-04  8424   0.113E-02 0.115E-02
CGA:  13    -0.668754424944E+03    0.39879E-04   -0.27091E-04  8424   0.109E-02 0.111E-02
CGA:  14    -0.668754386236E+03    0.38708E-04   -0.24674E-04  8424   0.107E-02 0.108E-02
CGA:  15    -0.668754348783E+03    0.37453E-04   -0.22613E-04  8424   0.104E-02 0.105E-02
CGA:  16    -0.668754312622E+03    0.36161E-04   -0.20834E-04  8424   0.102E-02 0.103E-02
CGA:  17    -0.668754277764E+03    0.34858E-04   -0.19281E-04  8424   0.998E-03 0.101E-02
CGA:  18    -0.668754244201E+03    0.33563E-04   -0.17914E-04  8424   0.981E-03 0.988E-03
CGA:  19    -0.668754211911E+03    0.32290E-04   -0.16700E-04  8424   0.965E-03 0.972E-03
CGA:  20    -0.668754180866E+03    0.31045E-04   -0.15615E-04  8424   0.951E-03 0.958E-03
CGA:  21    -0.668754151031E+03    0.29835E-04   -0.14637E-04  8424   0.939E-03 0.945E-03
CGA:  22    -0.668754122370E+03    0.28661E-04   -0.13752E-04  8424   0.928E-03 0.933E-03
CGA:  23    -0.668754094842E+03    0.27528E-04   -0.12947E-04  8424   0.918E-03 0.922E-03
CGA:  24    -0.668754068409E+03    0.26433E-04   -0.12210E-04  8424   0.908E-03 0.913E-03
CGA:  25    -0.668754043030E+03    0.25379E-04   -0.11533E-04  8424   0.900E-03 0.904E-03
CGA:  26    -0.668754018665E+03    0.24365E-04   -0.10909E-04  8424   0.892E-03 0.896E-03
CGA:  27    -0.668753995276E+03    0.23389E-04   -0.10332E-04  8424   0.886E-03 0.889E-03
CGA:  28    -0.668753972824E+03    0.22451E-04   -0.97966E-05  8424   0.879E-03 0.882E-03
CGA:  29    -0.668753951273E+03    0.21552E-04   -0.92983E-05  8424   0.873E-03 0.876E-03
CGA:  30    -0.668753930586E+03    0.20686E-04   -0.88335E-05  8424   0.868E-03 0.870E-03
CGA:  31    -0.668753910730E+03    0.19856E-04   -0.83988E-05  8424   0.863E-03 0.865E-03
CGA:  32    -0.668753891671E+03    0.19059E-04   -0.79915E-05  8424   0.858E-03 0.860E-03
CGA:  33    -0.668753873376E+03    0.18295E-04   -0.76092E-05  8424   0.854E-03 0.856E-03
CGA:  34    -0.668753855815E+03    0.17560E-04   -0.72497E-05  8424   0.850E-03 0.852E-03
CGA:  35    -0.668753838958E+03    0.16857E-04   -0.69110E-05  8424   0.846E-03 0.848E-03
CGA:  36    -0.668753822777E+03    0.16181E-04   -0.65917E-05  8424   0.843E-03 0.844E-03
CGA:  37    -0.668753807244E+03    0.15533E-04   -0.62900E-05  8424   0.840E-03 0.841E-03
CGA:  38    -0.668753792333E+03    0.14911E-04   -0.60048E-05  8424   0.837E-03 0.838E-03
CGA:  39    -0.668753778018E+03    0.14315E-04   -0.57347E-05  8424   0.834E-03 0.835E-03
CGA:  40    -0.668753764276E+03    0.13742E-04   -0.54789E-05  8424   0.831E-03 0.832E-03
CGA:  41    -0.668753751083E+03    0.13193E-04   -0.52362E-05  8424   0.829E-03 0.830E-03
CGA:  42    -0.668753738418E+03    0.12666E-04   -0.50058E-05  8424   0.826E-03 0.827E-03
CGA:  43    -0.668753726258E+03    0.12160E-04   -0.47869E-05  8424   0.824E-03 0.825E-03
CGA:  44    -0.668753714584E+03    0.11674E-04   -0.45788E-05  8424   0.822E-03 0.823E-03
CGA:  45    -0.668753703375E+03    0.11209E-04   -0.43809E-05  8424   0.820E-03 0.821E-03
CGA:  46    -0.668753692613E+03    0.10762E-04   -0.41925E-05  8424   0.818E-03 0.819E-03
CGA:  47    -0.668753682280E+03    0.10333E-04   -0.40130E-05  8424   0.817E-03 0.817E-03
CGA:  48    -0.668753672359E+03    0.99211E-05   -0.38420E-05  8424   0.815E-03 0.816E-03
   2 F= -.66875367E+03 E0= -.66875367E+03  d E =-.121989E-02  mag=     4.0000
       N       E                     dE             d eps       ncg     rms          ort
SDA:   1    -0.668562011760E+03    0.19167E+00    0.00000E+00  8424   0.769E+00 0.000E+00
CGA:   2    -0.668702827594E+03   -0.14082E+00   -0.52246E-01  8424   0.258E+00 0.323E+00
CGA:   3    -0.668792758866E+03   -0.89931E-01   -0.63925E-02  8424   0.105E+00 0.192E-01
CGA:   4    -0.668813303212E+03   -0.20544E-01   -0.19136E-01  8424   0.282E-01 0.136E-01
CGA:   5    -0.668818310944E+03   -0.50077E-02   -0.43945E-02  8424   0.817E-02 0.924E-02
CGA:   6    -0.668819418502E+03   -0.11076E-02   -0.10045E-02  8424   0.355E-02 0.576E-02
CGA:   7    -0.668819637063E+03   -0.21856E-03   -0.24085E-03  8424   0.240E-02 0.289E-02
CGA:   8    -0.668819704799E+03   -0.67736E-04   -0.12098E-03  8424   0.193E-02 0.215E-02
CGA:   9    -0.668819726589E+03   -0.21790E-04   -0.79971E-04  8424   0.166E-02 0.179E-02
CGA:  10    -0.668819728260E+03   -0.16707E-05   -0.59223E-04  8424   0.148E-02 0.157E-02
CGA:  11    -0.668819719708E+03    0.85514E-05   -0.46776E-04  8424   0.136E-02 0.142E-02
CGA:  12    -0.668819705563E+03    0.14145E-04   -0.38514E-04  8424   0.126E-02 0.131E-02
CGA:  13    -0.668819688267E+03    0.17296E-04   -0.32646E-04  8424   0.119E-02 0.122E-02
CGA:  14    -0.668819669212E+03    0.19056E-04   -0.28267E-04  8424   0.113E-02 0.116E-02
CGA:  15    -0.668819649236E+03    0.19975E-04   -0.24877E-04  8424   0.108E-02 0.111E-02
CGA:  16    -0.668819628873E+03    0.20363E-04   -0.22181E-04  8424   0.105E-02 0.106E-02
CGA:  17    -0.668819608470E+03    0.20403E-04   -0.19999E-04  8424   0.101E-02 0.103E-02
CGA:  18    -0.668819588246E+03    0.20224E-04   -0.18183E-04  8424   0.984E-03 0.996E-03
CGA:  19    -0.668819568347E+03    0.19899E-04   -0.16644E-04  8424   0.959E-03 0.970E-03
CGA:  20    -0.668819548867E+03    0.19480E-04   -0.15320E-04  8424   0.938E-03 0.947E-03
CGA:  21    -0.668819529870E+03    0.18997E-04   -0.14167E-04  8424   0.919E-03 0.927E-03
CGA:  22    -0.668819511395E+03    0.18475E-04   -0.13154E-04  8424   0.903E-03 0.909E-03
CGA:  23    -0.668819493465E+03    0.17930E-04   -0.12254E-04  8424   0.888E-03 0.894E-03
CGA:  24    -0.668819476094E+03    0.17371E-04   -0.11450E-04  8424   0.874E-03 0.880E-03
CGA:  25    -0.668819459287E+03    0.16808E-04   -0.10725E-04  8424   0.862E-03 0.867E-03
CGA:  26    -0.668819443041E+03    0.16246E-04   -0.10069E-04  8424   0.851E-03 0.856E-03
CGA:  27    -0.668819427351E+03    0.15690E-04   -0.94723E-05  8424   0.841E-03 0.845E-03
CGA:  28    -0.668819412208E+03    0.15142E-04   -0.89262E-05  8424   0.832E-03 0.836E-03
CGA:  29    -0.668819397603E+03    0.14606E-04   -0.84249E-05  8424   0.824E-03 0.827E-03
CGA:  30    -0.668819383520E+03    0.14083E-04   -0.79627E-05  8424   0.816E-03 0.819E-03
CGA:  31    -0.668819369948E+03    0.13572E-04   -0.75355E-05  8424   0.809E-03 0.812E-03
CGA:  32    -0.668819356872E+03    0.13076E-04   -0.71391E-05  8424   0.803E-03 0.805E-03
CGA:  33    -0.668819344278E+03    0.12594E-04   -0.67705E-05  8424   0.797E-03 0.799E-03
CGA:  34    -0.668819332150E+03    0.12128E-04   -0.64269E-05  8424   0.791E-03 0.793E-03
CGA:  35    -0.668819320474E+03    0.11676E-04   -0.61059E-05  8424   0.786E-03 0.788E-03
CGA:  36    -0.668819309234E+03    0.11240E-04   -0.58054E-05  8424   0.781E-03 0.783E-03
CGA:  37    -0.668819298416E+03    0.10818E-04   -0.55235E-05  8424   0.776E-03 0.778E-03
CGA:  38    -0.668819288007E+03    0.10409E-04   -0.52588E-05  8424   0.772E-03 0.774E-03
CGA:  39    -0.668819277990E+03    0.10017E-04   -0.50096E-05  8424   0.768E-03 0.770E-03
CGA:  40    -0.668819268352E+03    0.96381E-05   -0.47750E-05  8424   0.764E-03 0.766E-03
   3 F= -.66881927E+03 E0= -.66881927E+03  d E =-.655960E-01  mag=     4.0000
       N       E                     dE             d eps       ncg     rms          ort
SDA:   1    -0.654950682886E+03    0.13869E+02    0.00000E+00  8424   0.406E+02 0.000E+00
CGA:   2    -0.663193663780E+03   -0.82430E+01   -0.23250E+01  8424   0.131E+02 0.141E+02
CGA:   3    -0.667733356221E+03   -0.45397E+01   -0.15224E+00  8424   0.524E+01-0.110E+01
CGA:   4    -0.668544064243E+03   -0.81071E+00   -0.80878E+00  8424   0.169E+01 0.194E-01
CGA:   5    -0.668828941771E+03   -0.28488E+00   -0.28354E+00  8424   0.416E+00 0.151E-01
CGA:   6    -0.668913873167E+03   -0.84931E-01   -0.83428E-01  8424   0.132E+00 0.133E-01
CGA:   7    -0.668943516103E+03   -0.29643E-01   -0.28165E-01  8424   0.524E-01 0.128E-01
CGA:   8    -0.668955660440E+03   -0.12144E-01   -0.11098E-01  8424   0.180E-01 0.109E-01
CGA:   9    -0.668959499609E+03   -0.38392E-02   -0.34185E-02  8424   0.673E-02 0.758E-02
CGA:  10    -0.668960616492E+03   -0.11169E-02   -0.10766E-02  8424   0.344E-02 0.533E-02
CGA:  11    -0.668960915839E+03   -0.29935E-03   -0.32766E-03  8424   0.240E-02 0.282E-02
CGA:  12    -0.668961030086E+03   -0.11425E-03   -0.17951E-03  8424   0.199E-02 0.218E-02
CGA:  13    -0.668961083999E+03   -0.53913E-04   -0.12746E-03  8424   0.176E-02 0.187E-02
CGA:  14    -0.668961109287E+03   -0.25287E-04   -0.10007E-03  8424   0.161E-02 0.168E-02
CGA:  15    -0.668961118650E+03   -0.93634E-05   -0.82997E-04  8424   0.150E-02 0.155E-02
CGA:  16    -0.668961118319E+03    0.33106E-06   -0.71229E-04  8424   0.142E-02 0.145E-02
CGA:  17    -0.668961111742E+03    0.65769E-05   -0.62553E-04  8424   0.135E-02 0.138E-02
CGA:  18    -0.668961100998E+03    0.10744E-04   -0.55843E-04  8424   0.130E-02 0.132E-02
CGA:  19    -0.668961087416E+03    0.13581E-04   -0.50462E-04  8424   0.125E-02 0.127E-02
CGA:  20    -0.668961071890E+03    0.15526E-04   -0.46024E-04  8424   0.121E-02 0.123E-02
CGA:  21    -0.668961055040E+03    0.16850E-04   -0.42284E-04  8424   0.118E-02 0.120E-02
CGA:  22    -0.668961037307E+03    0.17733E-04   -0.39073E-04  8424   0.115E-02 0.117E-02
CGA:  23    -0.668961019017E+03    0.18290E-04   -0.36279E-04  8424   0.113E-02 0.114E-02
CGA:  24    -0.668961000411E+03    0.18606E-04   -0.33818E-04  8424   0.111E-02 0.112E-02
CGA:  25    -0.668960981671E+03    0.18740E-04   -0.31629E-04  8424   0.109E-02 0.109E-02
CGA:  26    -0.668960962936E+03    0.18735E-04   -0.29666E-04  8424   0.107E-02 0.108E-02
CGA:  27    -0.668960944313E+03    0.18623E-04   -0.27895E-04  8424   0.105E-02 0.106E-02
CGA:  28    -0.668960925884E+03    0.18429E-04   -0.26286E-04  8424   0.104E-02 0.104E-02
CGA:  29    -0.668960907714E+03    0.18170E-04   -0.24818E-04  8424   0.102E-02 0.103E-02
CGA:  30    -0.668960889851E+03    0.17863E-04   -0.23472E-04  8424   0.101E-02 0.102E-02
CGA:  31    -0.668960872333E+03    0.17518E-04   -0.22234E-04  8424   0.999E-03 0.100E-02
CGA:  32    -0.668960855189E+03    0.17145E-04   -0.21090E-04  8424   0.988E-03 0.993E-03
CGA:  33    -0.668960838438E+03    0.16751E-04   -0.20031E-04  8424   0.979E-03 0.983E-03
CGA:  34    -0.668960822094E+03    0.16344E-04   -0.19046E-04  8424   0.969E-03 0.974E-03
CGA:  35    -0.668960806167E+03    0.15927E-04   -0.18128E-04  8424   0.961E-03 0.965E-03
CGA:  36    -0.668960790661E+03    0.15505E-04   -0.17271E-04  8424   0.953E-03 0.957E-03
CGA:  37    -0.668960775580E+03    0.15081E-04   -0.16468E-04  8424   0.946E-03 0.949E-03
CGA:  38    -0.668960760922E+03    0.14658E-04   -0.15716E-04  8424   0.939E-03 0.942E-03
CGA:  39    -0.668960746685E+03    0.14237E-04   -0.15008E-04  8424   0.933E-03 0.936E-03
CGA:  40    -0.668960732863E+03    0.13821E-04   -0.14342E-04  8424   0.927E-03 0.929E-03
CGA:  41    -0.668960719453E+03    0.13410E-04   -0.13713E-04  8424   0.921E-03 0.924E-03
CGA:  42    -0.668960706448E+03    0.13005E-04   -0.13120E-04  8424   0.916E-03 0.918E-03
CGA:  43    -0.668960693840E+03    0.12608E-04   -0.12559E-04  8424   0.911E-03 0.913E-03
CGA:  44    -0.668960681621E+03    0.12219E-04   -0.12027E-04  8424   0.906E-03 0.908E-03
CGA:  45    -0.668960669784E+03    0.11838E-04   -0.11523E-04  8424   0.902E-03 0.904E-03
CGA:  46    -0.668960658318E+03    0.11465E-04   -0.11045E-04  8424   0.898E-03 0.900E-03
CGA:  47    -0.668960647217E+03    0.11102E-04   -0.10591E-04  8424   0.894E-03 0.896E-03
CGA:  48    -0.668960636469E+03    0.10747E-04   -0.10160E-04  8424   0.890E-03 0.892E-03
CGA:  49    -0.668960626067E+03    0.10402E-04   -0.97489E-05  8424   0.887E-03 0.888E-03
CGA:  50    -0.668960616002E+03    0.10066E-04   -0.93577E-05  8424   0.884E-03 0.885E-03
CGA:  51    -0.668960606263E+03    0.97389E-05   -0.89849E-05  8424   0.880E-03 0.882E-03
   4 F= -.66896061E+03 E0= -.66896061E+03  d E =-.141338E+00  mag=     4.0000
       N       E                     dE             d eps       ncg     rms          ort
SDA:   1    -0.668376437908E+03    0.58418E+00    0.00000E+00  8424   0.202E+01 0.000E+00
CGA:   2    -0.668780352722E+03   -0.40391E+00   -0.29108E-01  8424   0.734E+00 0.100E+00
CGA:   3    -0.668950740227E+03   -0.17039E+00   -0.16828E+00  8424   0.254E+00 0.125E-01
CGA:   4    -0.668993835720E+03   -0.43095E-01   -0.42140E-01  8424   0.636E-01 0.937E-02
CGA:   5    -0.669005109206E+03   -0.11273E-01   -0.10561E-01  8424   0.126E-01 0.761E-02
CGA:   6    -0.669007440427E+03   -0.23312E-02   -0.19736E-02  8424   0.357E-02 0.519E-02
CGA:   7    -0.669007897891E+03   -0.45746E-03   -0.42619E-03  8424   0.202E-02 0.329E-02
CGA:   8    -0.669007996404E+03   -0.98513E-04   -0.12360E-03  8424   0.161E-02 0.179E-02
CGA:   9    -0.669008045667E+03   -0.49263E-04   -0.83662E-04  8424   0.142E-02 0.150E-02
CGA:  10    -0.669008073744E+03   -0.28077E-04   -0.65163E-04  8424   0.129E-02 0.135E-02
CGA:  11    -0.669008090063E+03   -0.16319E-04   -0.53978E-04  8424   0.120E-02 0.124E-02
CGA:  12    -0.669008099048E+03   -0.89854E-05   -0.46330E-04  8424   0.113E-02 0.116E-02
CGA:  13    -0.669008103137E+03   -0.40888E-05   -0.40701E-04  8424   0.108E-02 0.110E-02
CGA:  14    -0.669008103810E+03   -0.67301E-06   -0.36345E-04  8424   0.104E-02 0.106E-02
CGA:  15    -0.669008102029E+03    0.17811E-05   -0.32849E-04  8424   0.100E-02 0.102E-02
CGA:  16    -0.669008098450E+03    0.35796E-05   -0.29965E-04  8424   0.972E-03 0.984E-03
CGA:  17    -0.669008093536E+03    0.49139E-05   -0.27532E-04  8424   0.945E-03 0.955E-03
CGA:  18    -0.669008087626E+03    0.59093E-05   -0.25444E-04  8424   0.922E-03 0.931E-03
CGA:  19    -0.669008080975E+03    0.66517E-05   -0.23627E-04  8424   0.902E-03 0.910E-03
CGA:  20    -0.669008073774E+03    0.72007E-05   -0.22027E-04  8424   0.884E-03 0.891E-03
CGA:  21    -0.669008066173E+03    0.76010E-05   -0.20604E-04  8424   0.867E-03 0.874E-03
CGA:  22    -0.669008058291E+03    0.78824E-05   -0.19329E-04  8424   0.853E-03 0.858E-03
CGA:  23    -0.669008050219E+03    0.80711E-05   -0.18180E-04  8424   0.839E-03 0.844E-03
CGA:  24    -0.669008042034E+03    0.81857E-05   -0.17136E-04  8424   0.827E-03 0.832E-03
CGA:  25    -0.669008033794E+03    0.82400E-05   -0.16184E-04  8424   0.816E-03 0.821E-03
CGA:  26    -0.669008025548E+03    0.82459E-05   -0.15312E-04  8424   0.806E-03 0.810E-03
CGA:  27    -0.669008017335E+03    0.82131E-05   -0.14509E-04  8424   0.797E-03 0.800E-03
CGA:  28    -0.669008009186E+03    0.81487E-05   -0.13768E-04  8424   0.788E-03 0.792E-03
CGA:  29    -0.669008001127E+03    0.80587E-05   -0.13082E-04  8424   0.780E-03 0.783E-03
CGA:  30    -0.669007993179E+03    0.79482E-05   -0.12445E-04  8424   0.773E-03 0.776E-03
CGA:  31    -0.669007985358E+03    0.78213E-05   -0.11851E-04  8424   0.766E-03 0.769E-03
CGA:  32    -0.669007977676E+03    0.76814E-05   -0.11297E-04  8424   0.760E-03 0.762E-03
CGA:  33    -0.669007970145E+03    0.75312E-05   -0.10779E-04  8424   0.754E-03 0.756E-03
CGA:  34    -0.669007962772E+03    0.73735E-05   -0.10293E-04  8424   0.749E-03 0.751E-03
   5 F= -.66900796E+03 E0= -.66900796E+03  d E =-.473565E-01  mag=     4.0000
       N       E                     dE             d eps       ncg     rms          ort
SDA:   1    -0.667628245640E+03    0.13797E+01    0.00000E+00  8424   0.418E+01 0.000E+00
CGA:   2    -0.668536811052E+03   -0.90857E+00   -0.36383E-01  8424   0.192E+01-0.166E+00
CGA:   3    -0.668898875068E+03   -0.36206E+00   -0.36156E+00  8424   0.528E+00 0.335E-02
CGA:   4    -0.668986233553E+03   -0.87358E-01   -0.86845E-01  8424   0.130E+00 0.537E-02
CGA:   5    -0.669008901232E+03   -0.22668E-01   -0.22110E-01  8424   0.269E-01 0.597E-02
CGA:   6    -0.669014264922E+03   -0.53637E-02   -0.49280E-02  8424   0.607E-02 0.454E-02
CGA:   7    -0.669015383711E+03   -0.11188E-02   -0.94838E-03  8424   0.253E-02 0.346E-02
CGA:   8    -0.669015657817E+03   -0.27411E-03   -0.25057E-03  8424   0.165E-02 0.195E-02
CGA:   9    -0.669015774774E+03   -0.11696E-03   -0.12978E-03  8424   0.137E-02 0.149E-02
CGA:  10    -0.669015844517E+03   -0.69743E-04   -0.93740E-04  8424   0.122E-02 0.128E-02
CGA:  11    -0.669015890671E+03   -0.46154E-04   -0.74778E-04  8424   0.112E-02 0.116E-02
CGA:  12    -0.669015922740E+03   -0.32069E-04   -0.62743E-04  8424   0.104E-02 0.107E-02
CGA:  13    -0.669015945551E+03   -0.22811E-04   -0.54297E-04  8424   0.984E-03 0.101E-02
CGA:  14    -0.669015961890E+03   -0.16340E-04   -0.47975E-04  8424   0.938E-03 0.956E-03
CGA:  15    -0.669015973519E+03   -0.11628E-04   -0.43030E-04  8424   0.900E-03 0.915E-03
CGA:  16    -0.669015981612E+03   -0.80937E-05   -0.39031E-04  8424   0.868E-03 0.881E-03
CGA:  17    -0.669015986993E+03   -0.53811E-05   -0.35714E-04  8424   0.841E-03 0.852E-03
CGA:  18    -0.669015990280E+03   -0.32863E-05   -0.32927E-04  8424   0.818E-03 0.828E-03
CGA:  19    -0.669015991922E+03   -0.16419E-05   -0.30539E-04  8424   0.798E-03 0.806E-03
CGA:  20    -0.669015992262E+03   -0.34006E-06   -0.28466E-04  8424   0.781E-03 0.788E-03
CGA:  21    -0.669015991566E+03    0.69531E-06   -0.26647E-04  8424   0.765E-03 0.772E-03
CGA:  22    -0.669015990046E+03    0.15209E-05   -0.25036E-04  8424   0.751E-03 0.757E-03
CGA:  23    -0.669015987866E+03    0.21790E-05   -0.23597E-04  8424   0.739E-03 0.744E-03
CGA:  24    -0.669015985164E+03    0.27027E-05   -0.22304E-04  8424   0.728E-03 0.733E-03
CGA:  25    -0.669015982047E+03    0.31171E-05   -0.21134E-04  8424   0.718E-03 0.722E-03
CGA:  26    -0.669015978604E+03    0.34423E-05   -0.20070E-04  8424   0.709E-03 0.713E-03
CGA:  27    -0.669015974910E+03    0.36943E-05   -0.19096E-04  8424   0.701E-03 0.704E-03
CGA:  28    -0.669015971024E+03    0.38865E-05   -0.18202E-04  8424   0.694E-03 0.697E-03
CGA:  29    -0.669015966995E+03    0.40285E-05   -0.17376E-04  8424   0.687E-03 0.690E-03
CGA:  30    -0.669015962865E+03    0.41299E-05   -0.16612E-04  8424   0.681E-03 0.683E-03
CGA:  31    -0.669015958668E+03    0.41974E-05   -0.15900E-04  8424   0.675E-03 0.678E-03
CGA:  32    -0.669015954431E+03    0.42365E-05   -0.15237E-04  8424   0.670E-03 0.672E-03
CGA:  33    -0.669015950179E+03    0.42522E-05   -0.14616E-04  8424   0.665E-03 0.667E-03
CGA:  34    -0.669015945930E+03    0.42486E-05   -0.14034E-04  8424   0.661E-03 0.663E-03
CGA:  35    -0.669015941701E+03    0.42291E-05   -0.13485E-04  8424   0.657E-03 0.659E-03
CGA:  36    -0.669015937505E+03    0.41960E-05   -0.12968E-04  8424   0.653E-03 0.655E-03
CGA:  37    -0.669015933353E+03    0.41523E-05   -0.12480E-04  8424   0.650E-03 0.651E-03
CGA:  38    -0.669015929254E+03    0.40994E-05   -0.12017E-04  8424   0.647E-03 0.648E-03
CGA:  39    -0.669015925215E+03    0.40391E-05   -0.11578E-04  8424   0.644E-03 0.645E-03
CGA:  40    -0.669015921241E+03    0.39732E-05   -0.11161E-04  8424   0.641E-03 0.642E-03
CGA:  41    -0.669015917339E+03    0.39026E-05   -0.10763E-04  8424   0.638E-03 0.640E-03
CGA:  42    -0.669015913510E+03    0.38289E-05   -0.10384E-04  8424   0.636E-03 0.637E-03
CGA:  43    -0.669015909758E+03    0.37525E-05   -0.10023E-04  8424   0.634E-03 0.635E-03
   6 F= -.66901591E+03 E0= -.66901591E+03  d E =-.794699E-02  mag=     4.0000
       N       E                     dE             d eps       ncg     rms          ort
SDA:   1    -0.667194260154E+03    0.18217E+01    0.00000E+00  8424   0.499E+01 0.000E+00
CGA:   2    -0.668404810437E+03   -0.12106E+01   -0.91639E-01  8424   0.210E+01 0.286E+00
CGA:   3    -0.668866903213E+03   -0.46209E+00   -0.46185E+00  8424   0.620E+00 0.121E-02
CGA:   4    -0.668967661712E+03   -0.10076E+00   -0.10045E+00  8424   0.147E+00 0.326E-02
CGA:   5    -0.668993012852E+03   -0.25351E-01   -0.24997E-01  8424   0.315E-01 0.379E-02
CGA:   6    -0.668999462265E+03   -0.64494E-02   -0.60773E-02  8424   0.766E-02 0.346E-02
CGA:   7    -0.669001140096E+03   -0.16778E-02   -0.14258E-02  8424   0.283E-02 0.308E-02
CGA:   8    -0.669001724955E+03   -0.58486E-03   -0.49926E-03  8424   0.168E-02 0.241E-02
CGA:   9    -0.669001948673E+03   -0.22372E-03   -0.19269E-03  8424   0.123E-02 0.136E-02
CGA:  10    -0.669002076296E+03   -0.12762E-03   -0.12127E-03  8424   0.110E-02 0.115E-02
CGA:  11    -0.669002173756E+03   -0.97460E-04   -0.10000E-03  8424   0.102E-02 0.105E-02
CGA:  12    -0.669002254257E+03   -0.80501E-04   -0.87770E-04  8424   0.967E-03 0.990E-03
CGA:  13    -0.669002323591E+03   -0.69334E-04   -0.79475E-04  8424   0.927E-03 0.944E-03
CGA:  14    -0.669002384932E+03   -0.61340E-04   -0.73343E-04  8424   0.894E-03 0.908E-03
CGA:  15    -0.669002440250E+03   -0.55318E-04   -0.68562E-04  8424   0.868E-03 0.880E-03
CGA:  16    -0.669002490887E+03   -0.50638E-04   -0.64707E-04  8424   0.846E-03 0.856E-03
CGA:  17    -0.669002537816E+03   -0.46928E-04   -0.61526E-04  8424   0.828E-03 0.836E-03
CGA:  18    -0.669002581762E+03   -0.43946E-04   -0.58856E-04  8424   0.812E-03 0.819E-03
CGA:  19    -0.669002623279E+03   -0.41517E-04   -0.56581E-04  8424   0.799E-03 0.805E-03
CGA:  20    -0.669002662795E+03   -0.39516E-04   -0.54618E-04  8424   0.787E-03 0.792E-03
CGA:  21    -0.669002700646E+03   -0.37851E-04   -0.52904E-04  8424   0.777E-03 0.782E-03
CGA:  22    -0.669002737100E+03   -0.36454E-04   -0.51394E-04  8424   0.768E-03 0.772E-03
CGA:  23    -0.669002772373E+03   -0.35273E-04   -0.50049E-04  8424   0.760E-03 0.763E-03
CGA:  24    -0.669002806639E+03   -0.34266E-04   -0.48844E-04  8424   0.753E-03 0.756E-03
CGA:  25    -0.669002840042E+03   -0.33402E-04   -0.47755E-04  8424   0.746E-03 0.749E-03
CGA:  26    -0.669002872698E+03   -0.32657E-04   -0.46763E-04  8424   0.740E-03 0.743E-03
CGA:  27    -0.669002904706E+03   -0.32008E-04   -0.45856E-04  8424   0.735E-03 0.738E-03
CGA:  28    -0.669002936147E+03   -0.31441E-04   -0.45020E-04  8424   0.730E-03 0.733E-03
CGA:  29    -0.669002967090E+03   -0.30942E-04   -0.44247E-04  8424   0.726E-03 0.728E-03
CGA:  30    -0.669002997592E+03   -0.30502E-04   -0.43528E-04  8424   0.722E-03 0.724E-03
CGA:  31    -0.669003027702E+03   -0.30111E-04   -0.42857E-04  8424   0.719E-03 0.720E-03
CGA:  32    -0.669003057464E+03   -0.29761E-04   -0.42228E-04  8424   0.715E-03 0.717E-03
CGA:  33    -0.669003086913E+03   -0.29449E-04   -0.41637E-04  8424   0.712E-03 0.714E-03
CGA:  34    -0.669003116081E+03   -0.29168E-04   -0.41080E-04  8424   0.709E-03 0.711E-03
CGA:  35    -0.669003144997E+03   -0.28916E-04   -0.40553E-04  8424   0.707E-03 0.708E-03
CGA:  36    -0.669003173685E+03   -0.28688E-04   -0.40053E-04  8424   0.704E-03 0.706E-03
CGA:  37    -0.669003202166E+03   -0.28481E-04   -0.39579E-04  8424   0.702E-03 0.703E-03
CGA:  38    -0.669003230448E+03   -0.28282E-04   -0.39121E-04  8424   0.700E-03 0.701E-03
CGA:  39    -0.669003258510E+03   -0.28062E-04   -0.38665E-04  8424   0.700E-03 0.698E-03
CGA:  40    -0.669003285892E+03   -0.27382E-04   -0.38000E-04  8424   0.715E-03 0.690E-03
CGA:  41    -0.669003310641E+03   -0.24749E-04   -0.36419E-04  8424   0.791E-03 0.650E-03
CGA:  42    -0.669003329933E+03   -0.19291E-04   -0.33365E-04  8424   0.900E-03 0.545E-03
CGA:  43    -0.669003349074E+03   -0.19141E-04   -0.33358E-04  8424   0.891E-03 0.480E-03
CGA:  44    -0.669003368734E+03   -0.19660E-04   -0.33698E-04  8424   0.839E-03 0.512E-03
CGA:  45    -0.669003391837E+03   -0.23103E-04   -0.35108E-04  8424   0.825E-03 0.546E-03
CGA:  46    -0.669003410491E+03   -0.18653E-04   -0.32209E-04  8424   0.802E-03 0.571E-03
CGA:  47    -0.669003434936E+03   -0.24446E-04   -0.34368E-04  8424   0.916E-03 0.530E-03
CGA:  48    -0.669003447925E+03   -0.12989E-04   -0.28002E-04  8424   0.840E-03 0.499E-03
CGA:  49    -0.669003470165E+03   -0.22239E-04   -0.32328E-04  8424   0.914E-03 0.489E-03
CGA:  50    -0.669003485998E+03   -0.15834E-04   -0.29149E-04  8424   0.808E-03 0.508E-03
CGA:  51    -0.669003508063E+03   -0.22065E-04   -0.31743E-04  8424   0.802E-03 0.554E-03
CGA:  52    -0.669003528201E+03   -0.20139E-04   -0.30544E-04  8424   0.751E-03 0.584E-03
CGA:  53    -0.669003551309E+03   -0.23108E-04   -0.31363E-04  8424   0.722E-03 0.622E-03
CGA:  54    -0.669003574197E+03   -0.22888E-04   -0.30625E-04  8424   0.696E-03 0.649E-03
CGA:  55    -0.669003597880E+03   -0.23684E-04   -0.30402E-04  8424   0.683E-03 0.667E-03
CGA:  56    -0.669003621258E+03   -0.23378E-04   -0.29818E-04  8424   0.677E-03 0.674E-03
CGA:  57    -0.669003644712E+03   -0.23455E-04   -0.29579E-04  8424   0.675E-03 0.675E-03
CGA:  58    -0.669003667953E+03   -0.23240E-04   -0.29274E-04  8424   0.674E-03 0.674E-03
CGA:  59    -0.669003691281E+03   -0.23328E-04   -0.29142E-04  8424   0.673E-03 0.673E-03
CGA:  60    -0.669003714452E+03   -0.23171E-04   -0.28895E-04  8424   0.672E-03 0.672E-03
CGA:  61    -0.669003737727E+03   -0.23275E-04   -0.28783E-04  8424   0.672E-03 0.671E-03
CGA:  62    -0.669003760856E+03   -0.23129E-04   -0.28553E-04  8424   0.671E-03 0.670E-03
CGA:  63    -0.669003784084E+03   -0.23228E-04   -0.28450E-04  8424   0.671E-03 0.669E-03
CGA:  64    -0.669003807224E+03   -0.23140E-04   -0.28260E-04  8424   0.670E-03 0.667E-03
CGA:  65    -0.669003830422E+03   -0.23198E-04   -0.28141E-04  8424   0.669E-03 0.666E-03
CGA:  66    -0.669003853659E+03   -0.23237E-04   -0.28011E-04  8424   0.667E-03 0.666E-03
CGA:  67    -0.669003876857E+03   -0.23197E-04   -0.27841E-04  8424   0.666E-03 0.665E-03
CGA:  68    -0.669003900158E+03   -0.23301E-04   -0.27747E-04  8424   0.665E-03 0.664E-03
CGA:  69    -0.669003923334E+03   -0.23177E-04   -0.27548E-04  8424   0.664E-03 0.664E-03
CGA:  70    -0.669003946637E+03   -0.23303E-04   -0.27480E-04  8424   0.663E-03 0.663E-03
CGA:  71    -0.669003969787E+03   -0.23150E-04   -0.27280E-04  8424   0.663E-03 0.662E-03
CGA:  72    -0.669003993105E+03   -0.23318E-04   -0.27245E-04  8424   0.662E-03 0.661E-03
CGA:  73    -0.669004016256E+03   -0.23151E-04   -0.27047E-04  8424   0.661E-03 0.660E-03
CGA:  74    -0.669004039641E+03   -0.23386E-04   -0.27050E-04  8424   0.660E-03 0.660E-03
CGA:  75    -0.669004062827E+03   -0.23186E-04   -0.26840E-04  8424   0.660E-03 0.659E-03
CGA:  76    -0.669004086324E+03   -0.23497E-04   -0.26885E-04  8424   0.659E-03 0.658E-03
CGA:  77    -0.669004109561E+03   -0.23236E-04   -0.26651E-04  8424   0.658E-03 0.658E-03
CGA:  78    -0.669004133194E+03   -0.23633E-04   -0.26747E-04  8424   0.657E-03 0.657E-03
CGA:  79    -0.669004156520E+03   -0.23327E-04   -0.26499E-04  8424   0.656E-03 0.656E-03
CGA:  80    -0.669004180283E+03   -0.23763E-04   -0.26620E-04  8424   0.656E-03 0.655E-03
CGA:  81    -0.669004203726E+03   -0.23443E-04   -0.26373E-04  8424   0.655E-03 0.655E-03
CGA:  82    -0.669004227596E+03   -0.23870E-04   -0.26496E-04  8424   0.654E-03 0.654E-03
CGA:  83    -0.669004251163E+03   -0.23567E-04   -0.26262E-04  8424   0.653E-03 0.653E-03
CGA:  84    -0.669004275142E+03   -0.23979E-04   -0.26385E-04  8424   0.653E-03 0.653E-03
CGA:  85    -0.669004298828E+03   -0.23686E-04   -0.26163E-04  8424   0.652E-03 0.652E-03
CGA:  86    -0.669004322942E+03   -0.24114E-04   -0.26300E-04  8424   0.651E-03 0.651E-03
CGA:  87    -0.669004346757E+03   -0.23815E-04   -0.26080E-04  8424   0.651E-03 0.650E-03
CGA:  88    -0.669004371044E+03   -0.24287E-04   -0.26245E-04  8424   0.650E-03 0.650E-03
CGA:  89    -0.669004395009E+03   -0.23965E-04   -0.26020E-04  8424   0.649E-03 0.649E-03
CGA:  90    -0.669004419498E+03   -0.24489E-04   -0.26215E-04  8424   0.649E-03 0.648E-03
CGA:  91    -0.669004443643E+03   -0.24145E-04   -0.25984E-04  8424   0.648E-03 0.648E-03
CGA:  92    -0.669004468352E+03   -0.24709E-04   -0.26205E-04  8424   0.647E-03 0.647E-03
CGA:  93    -0.669004492708E+03   -0.24356E-04   -0.25975E-04  8424   0.646E-03 0.646E-03
CGA:  94    -0.669004517644E+03   -0.24937E-04   -0.26210E-04  8424   0.646E-03 0.645E-03
CGA:  95    -0.669004542231E+03   -0.24586E-04   -0.25988E-04  8424   0.645E-03 0.645E-03
CGA:  96    -0.669004567400E+03   -0.25169E-04   -0.26229E-04  8424   0.644E-03 0.644E-03
CGA:  97    -0.669004592229E+03   -0.24829E-04   -0.26017E-04  8424   0.643E-03 0.643E-03
CGA:  98    -0.669004617648E+03   -0.25419E-04   -0.26267E-04  8424   0.643E-03 0.643E-03
CGA:  99    -0.669004642733E+03   -0.25085E-04   -0.26064E-04  8424   0.642E-03 0.642E-03
CGA: 100    -0.669004668429E+03   -0.25696E-04   -0.26330E-04  8424   0.641E-03 0.641E-03
CGA: 101    -0.669004693789E+03   -0.25360E-04   -0.26131E-04  8424   0.641E-03 0.640E-03
CGA: 102    -0.669004719793E+03   -0.26004E-04   -0.26418E-04  8424   0.640E-03 0.640E-03
CGA: 103    -0.669004745455E+03   -0.25662E-04   -0.26222E-04  8424   0.639E-03 0.639E-03
CGA: 104    -0.669004771796E+03   -0.26341E-04   -0.26532E-04  8424   0.638E-03 0.638E-03
CGA: 105    -0.669004797790E+03   -0.25994E-04   -0.26338E-04  8424   0.638E-03 0.637E-03
CGA: 106    -0.669004824492E+03   -0.26702E-04   -0.26668E-04  8424   0.637E-03 0.637E-03
CGA: 107    -0.669004850848E+03   -0.26356E-04   -0.26480E-04  8424   0.636E-03 0.636E-03
CGA: 108    -0.669004877933E+03   -0.27085E-04   -0.26825E-04  8424   0.635E-03 0.635E-03
CGA: 109    -0.669004904678E+03   -0.26745E-04   -0.26646E-04  8424   0.635E-03 0.634E-03
CGA: 110    -0.669004932171E+03   -0.27493E-04   -0.27006E-04  8424   0.634E-03 0.634E-03
CGA: 111    -0.669004959331E+03   -0.27160E-04   -0.26836E-04  8424   0.633E-03 0.633E-03
CGA: 112    -0.669004987262E+03   -0.27931E-04   -0.27213E-04  8424   0.632E-03 0.632E-03
CGA: 113    -0.669005014867E+03   -0.27605E-04   -0.27051E-04  8424   0.631E-03 0.631E-03
CGA: 114    -0.669005043274E+03   -0.28408E-04   -0.27450E-04  8424   0.631E-03 0.630E-03
CGA: 115    -0.669005071358E+03   -0.28084E-04   -0.27296E-04  8424   0.630E-03 0.630E-03
CGA: 116    -0.669005100280E+03   -0.28922E-04   -0.27718E-04  8424   0.629E-03 0.629E-03
CGA: 117    -0.669005128883E+03   -0.28603E-04   -0.27571E-04  8424   0.628E-03 0.628E-03
CGA: 118    -0.669005158362E+03   -0.29479E-04   -0.28018E-04  8424   0.627E-03 0.627E-03
CGA: 119    -0.669005187524E+03   -0.29162E-04   -0.27879E-04  8424   0.627E-03 0.626E-03
CGA: 120    -0.669005217600E+03   -0.30076E-04   -0.28350E-04  8424   0.626E-03 0.625E-03
CGA: 121    -0.669005247366E+03   -0.29766E-04   -0.28221E-04  8424   0.625E-03 0.625E-03
CGA: 122    -0.669005278083E+03   -0.30717E-04   -0.28716E-04  8424   0.624E-03 0.624E-03
CGA: 123    -0.669005308500E+03   -0.30418E-04   -0.28599E-04  8424   0.623E-03 0.623E-03
CGA: 124    -0.669005339907E+03   -0.31407E-04   -0.29121E-04  8424   0.622E-03 0.622E-03
CGA: 125    -0.669005371027E+03   -0.31120E-04   -0.29016E-04  8424   0.621E-03 0.621E-03
CGA: 126    -0.669005403182E+03   -0.32155E-04   -0.29568E-04  8424   0.621E-03 0.620E-03
CGA: 127    -0.669005435062E+03   -0.31880E-04   -0.29476E-04  8424   0.620E-03 0.619E-03
CGA: 128    -0.669005468027E+03   -0.32966E-04   -0.30060E-04  8424   0.619E-03 0.619E-03
CGA: 129    -0.669005500733E+03   -0.32705E-04   -0.29984E-04  8424   0.618E-03 0.618E-03
CGA: 130    -0.669005534581E+03   -0.33848E-04   -0.30604E-04  8424   0.617E-03 0.617E-03
CGA: 131    -0.669005568184E+03   -0.33603E-04   -0.30543E-04  8424   0.616E-03 0.616E-03
CGA: 132    -0.669005602994E+03   -0.34810E-04   -0.31203E-04  8424   0.615E-03 0.615E-03
CGA: 133    -0.669005637574E+03   -0.34580E-04   -0.31159E-04  8424   0.614E-03 0.614E-03
CGA: 134    -0.669005673429E+03   -0.35855E-04   -0.31862E-04  8424   0.614E-03 0.613E-03
CGA: 135    -0.669005709076E+03   -0.35647E-04   -0.31838E-04  8424   0.613E-03 0.612E-03
CGA: 136    -0.669005746071E+03   -0.36995E-04   -0.32587E-04  8424   0.612E-03 0.611E-03
CGA: 137    -0.669005782884E+03   -0.36813E-04   -0.32585E-04  8424   0.611E-03 0.610E-03
CGA: 138    -0.669005821126E+03   -0.38242E-04   -0.33385E-04  8424   0.610E-03 0.609E-03
CGA: 139    -0.669005859216E+03   -0.38090E-04   -0.33410E-04  8424   0.609E-03 0.609E-03
CGA: 140    -0.669005898826E+03   -0.39610E-04   -0.34266E-04  8424   0.608E-03 0.608E-03
CGA: 141    -0.669005938320E+03   -0.39494E-04   -0.34320E-04  8424   0.607E-03 0.607E-03
CGA: 142    -0.669005979436E+03   -0.41116E-04   -0.35238E-04  8424   0.606E-03 0.606E-03
CGA: 143    -0.669006020475E+03   -0.41039E-04   -0.35325E-04  8424   0.605E-03 0.605E-03
CGA: 144    -0.669006063252E+03   -0.42778E-04   -0.36315E-04  8424   0.604E-03 0.604E-03
CGA: 145    -0.669006105998E+03   -0.42746E-04   -0.36437E-04  8424   0.603E-03 0.603E-03
CGA: 146    -0.669006150614E+03   -0.44615E-04   -0.37507E-04  8424   0.603E-03 0.602E-03
CGA: 147    -0.669006195250E+03   -0.44637E-04   -0.37672E-04  8424   0.602E-03 0.601E-03
CGA: 148    -0.669006241902E+03   -0.46652E-04   -0.38829E-04  8424   0.601E-03 0.600E-03
CGA: 149    -0.669006288638E+03   -0.46736E-04   -0.39042E-04  8424   0.600E-03 0.599E-03
CGA: 150    -0.669006337554E+03   -0.48915E-04   -0.40299E-04  8424   0.599E-03 0.598E-03
CGA: 151    -0.669006386627E+03   -0.49073E-04   -0.40567E-04  8424   0.598E-03 0.596E-03
CGA: 152    -0.669006438066E+03   -0.51439E-04   -0.41936E-04  8424   0.596E-03 0.595E-03
CGA: 153    -0.669006489750E+03   -0.51684E-04   -0.42268E-04  8424   0.595E-03 0.594E-03
CGA: 154    -0.669006544008E+03   -0.54258E-04   -0.43762E-04  8424   0.594E-03 0.593E-03
CGA: 155    -0.669006598619E+03   -0.54611E-04   -0.44171E-04  8424   0.593E-03 0.592E-03
CGA: 156    -0.669006656040E+03   -0.57421E-04   -0.45806E-04  8424   0.592E-03 0.590E-03
CGA: 157    -0.669006713947E+03   -0.57907E-04   -0.46307E-04  8424   0.591E-03 0.589E-03
CGA: 158    -0.669006774935E+03   -0.60988E-04   -0.48104E-04  8424   0.589E-03 0.588E-03
CGA: 159    -0.669006836571E+03   -0.61636E-04   -0.48715E-04  8424   0.588E-03 0.586E-03
CGA: 160    -0.669006901606E+03   -0.65035E-04   -0.50702E-04  8424   0.587E-03 0.585E-03
CGA: 161    -0.669006967485E+03   -0.65879E-04   -0.51445E-04  8424   0.585E-03 0.583E-03
CGA: 162    -0.669007037144E+03   -0.69659E-04   -0.53659E-04  8424   0.584E-03 0.581E-03
CGA: 163    -0.669007107890E+03   -0.70746E-04   -0.54564E-04  8424   0.582E-03 0.579E-03
CGA: 164    -0.669007182879E+03   -0.74989E-04   -0.57054E-04  8424   0.581E-03 0.578E-03
CGA: 165    -0.669007259264E+03   -0.76384E-04   -0.58164E-04  8424   0.579E-03 0.576E-03
CGA: 166    -0.669007340459E+03   -0.81195E-04   -0.60993E-04  8424   0.578E-03 0.574E-03
CGA: 167    -0.669007423445E+03   -0.82986E-04   -0.62366E-04  8424   0.577E-03 0.571E-03
CGA: 168    -0.669007511943E+03   -0.88498E-04   -0.65620E-04  8424   0.576E-03 0.569E-03
CGA: 169    -0.669007602734E+03   -0.90791E-04   -0.67333E-04  8424   0.575E-03 0.567E-03
CGA: 170    -0.669007699898E+03   -0.97164E-04   -0.71125E-04  8424   0.574E-03 0.564E-03
CGA: 171    -0.669007799949E+03   -0.10005E-03   -0.73270E-04  8424   0.573E-03 0.561E-03
CGA: 172    -0.669007907382E+03   -0.10743E-03   -0.77742E-04  8424   0.574E-03 0.557E-03
CGA: 173    -0.669008018256E+03   -0.11087E-03   -0.80405E-04  8424   0.575E-03 0.552E-03
CGA: 174    -0.669008137465E+03   -0.11921E-03   -0.85698E-04  8424   0.579E-03 0.546E-03
CGA: 175    -0.669008260074E+03   -0.12261E-03   -0.88849E-04  8424   0.585E-03 0.538E-03
CGA: 176    -0.669008391096E+03   -0.13102E-03   -0.94958E-04  8424   0.596E-03 0.525E-03
CGA: 177    -0.669008523498E+03   -0.13240E-03   -0.98179E-04  8424   0.612E-03 0.508E-03
CGA: 178    -0.669008662399E+03   -0.13890E-03   -0.10472E-03  8424   0.637E-03 0.484E-03
CGA: 179    -0.669008799119E+03   -0.13672E-03   -0.10734E-03  8424   0.657E-03 0.456E-03
CGA: 180    -0.669008941723E+03   -0.14260E-03   -0.11416E-03  8424   0.686E-03 0.428E-03
CGA: 181    -0.669009081799E+03   -0.14008E-03   -0.11623E-03  8424   0.694E-03 0.405E-03
CGA: 182    -0.669009230209E+03   -0.14841E-03   -0.12362E-03  8424   0.722E-03 0.384E-03
CGA: 183    -0.669009375760E+03   -0.14555E-03   -0.12491E-03  8424   0.720E-03 0.366E-03
CGA: 184    -0.669009531357E+03   -0.15560E-03   -0.13298E-03  8424   0.755E-03 0.347E-03
CGA: 185    -0.669010058930E+03   -0.52757E-03   -0.33228E-03  8424   0.694E-03 0.111E-02
CGA: 186    -0.669010233996E+03   -0.17507E-03   -0.14862E-03  8424   0.824E-03 0.319E-03
CGA: 187    -0.669011025763E+03   -0.79177E-03   -0.47904E-03  8424   0.593E-03 0.117E-02
CGA: 188    -0.669011306015E+03   -0.28025E-03   -0.21024E-03  8424   0.103E-02 0.336E-03
CGA: 189    -0.669011480944E+03   -0.17493E-03   -0.17372E-03  8424   0.824E-03 0.123E-03
CGA: 190    -0.669012608228E+03   -0.11273E-02   -0.63878E-03  8424   0.101E-02 0.896E-03
CGA: 191    -0.669012793849E+03   -0.18562E-03   -0.18583E-03  8424   0.867E-03 0.739E-04
CGA: 192    -0.669014812437E+03   -0.20186E-02   -0.81549E-02  8424   0.129E-02 0.799E-03
CGA: 193    -0.669015097134E+03   -0.28470E-03   -0.28192E-03  8424   0.871E-03-0.258E-04
CGA: 194    -0.669015813531E+03   -0.71640E-03   -0.79889E-03  8424   0.527E-02-0.161E-03
CGA: 195    -0.669012129241E+03    0.36843E-02   -0.29364E-02  8424   0.746E-01-0.823E-02
CGA: 196    -0.669029511724E+03   -0.17382E-01   -0.18315E-01  8424   0.133E-01-0.607E-04
CGA: 197    -0.669030235650E+03   -0.72393E-03   -0.25882E-02  8424   0.663E-02 0.337E-03
CGA: 198    -0.669027812147E+03    0.24235E-02   -0.12790E-02  8424   0.147E-01 0.357E-02
CGA: 199    -0.669026520003E+03    0.12921E-02   -0.35402E-02  8424   0.182E-01 0.389E-02
CGA: 200    -0.669001729040E+03    0.24791E-01   -0.28958E-02  8424   0.685E-01 0.297E-01
   7 F= -.66900173E+03 E0= -.66900173E+03  d E =0.141807E-01  mag=     4.0000
       N       E                     dE             d eps       ncg     rms          ort
SDA:   1    -0.641330123346E+03    0.27696E+02    0.00000E+00  8424   0.917E+02 0.000E+00
CGA:   2    -0.658711888218E+03   -0.17382E+02   -0.17799E+02  8424   0.339E+02-0.365E+00
CGA:   3    -0.665973728160E+03   -0.72618E+01   -0.72391E+01  8424   0.111E+02 0.305E+00
CGA:   4    -0.667863957862E+03   -0.18902E+01   -0.19024E+01  8424   0.286E+01 0.185E+00
CGA:   5    -0.668350530912E+03   -0.48657E+00   -0.49723E+00  8424   0.756E+00 0.157E-01
CGA:   6    -0.668472615388E+03   -0.12208E+00   -0.12602E+00  8424   0.217E+00 0.685E-01
CGA:   7    -0.668506438088E+03   -0.33823E-01   -0.37973E-01  8424   0.125E+00-0.481E-02
CGA:   8    -0.668520617619E+03   -0.14180E-01   -0.16223E-01  8424   0.716E-01 0.489E-02
CGA:   9    -0.668529508311E+03   -0.88907E-02   -0.95694E-02  8424   0.307E-01-0.427E-02
CGA:  10    -0.668534799087E+03   -0.52908E-02   -0.48648E-02  8424   0.152E-01 0.105E-02
CGA:  11    -0.668537797312E+03   -0.29982E-02   -0.29225E-02  8424   0.771E-02 0.161E-03
CGA:  12    -0.668539586100E+03   -0.17888E-02   -0.17482E-02  8424   0.488E-02-0.185E-03
CGA:  13    -0.668540871603E+03   -0.12855E-02   -0.12588E-02  8424   0.287E-02-0.416E-03
CGA:  14    -0.668541966437E+03   -0.10948E-02   -0.12525E-02  8424   0.375E-02-0.164E-02
CGA:  15    -0.668543279178E+03   -0.13127E-02   -0.12802E-02  8424   0.211E-02-0.805E-03
CGA:  16    -0.623582315260E+03    0.44961E+02    0.83244E+01  8424   0.276E+02-0.287E+01
CGA:  17    -0.625660797127E+03   -0.20785E+01   -0.33445E+01  8424   0.490E+02-0.126E+02
CGA:  18    -0.624192607229E+03    0.14682E+01   -0.23504E+01  8424   0.433E+02-0.169E+02
CGA:  19    -0.618183821510E+03    0.60088E+01   -0.36478E+01  8424   0.150E+03 0.486E+01
CGA:  20    -0.519693653411E+03    0.98490E+02   -0.13660E+02  8424   0.571E+03-0.855E+02
CGA:  21    -0.510457251904E+03    0.92364E+01   -0.84245E+02  8424   0.791E+03 0.116E+03
CGA:  22    -0.545879142293E+03   -0.35422E+02   -0.15047E+03  8424   0.976E+03-0.354E+03
CGA:  23    -0.500289941722E+03    0.45589E+02   -0.53097E+02  8424   0.702E+03 0.191E+03
CGA:  24    -0.523018171472E+03   -0.22728E+02   -0.97182E+02  8424   0.893E+03 0.631E+02
CGA:  25    -0.495443547297E+03    0.27575E+02   -0.12241E+03  8424   0.141E+04-0.369E+03
CGA:  26    -0.421193379322E+03    0.74250E+02   -0.10017E+03  8424   0.112E+04-0.960E+02
CGA:  27    -0.521039822827E+03   -0.99846E+02   -0.12472E+03  8424   0.116E+04 0.440E+03
CGA:  28    -0.537909209447E+03   -0.16869E+02   -0.25423E+03  8424   0.614E+03-0.221E+03
CGA:  29    -0.585264369198E+03   -0.47355E+02   -0.51024E+02  8424   0.311E+03 0.143E+03
CGA:  30    -0.622118123914E+03   -0.36854E+02   -0.57829E+02  8424   0.926E+02-0.166E+02
CGA:  31    -0.642756677000E+03   -0.20639E+02   -0.22230E+02  8424   0.455E+02 0.108E+02
CGA:  32    -0.652634008079E+03   -0.98773E+01   -0.11978E+02  8424   0.176E+02 0.139E+01
CGA:  33    -0.657388426179E+03   -0.47544E+01   -0.47749E+01  8424   0.189E+02 0.522E+00
CGA:  34    -0.659884464699E+03   -0.24960E+01   -0.23426E+01  8424   0.725E+01 0.319E+01
CGA:  35    -0.661880678261E+03   -0.19962E+01   -0.19911E+01  8424   0.573E+01 0.282E-01
CGA:  36    -0.663322919139E+03   -0.14422E+01   -0.14894E+01  8424   0.442E+01 0.165E+00
CGA:  37    -0.664254033074E+03   -0.93111E+00   -0.92616E+00  8424   0.306E+01-0.428E-01
CGA:  38    -0.664901673847E+03   -0.64764E+00   -0.64146E+00  8424   0.287E+01 0.264E-01
CGA:  39    -0.665493424266E+03   -0.59175E+00   -0.57515E+00  8424   0.203E+01-0.160E-01
CGA:  40    -0.665863614510E+03   -0.37019E+00   -0.37332E+00  8424   0.146E+01-0.770E-02
CGA:  41    -0.666185896790E+03   -0.32228E+00   -0.31553E+00  8424   0.121E+01-0.204E-01
CGA:  42    -0.666415375170E+03   -0.22948E+00   -0.21696E+00  8424   0.926E+00 0.166E-01
CGA:  43    -0.666595339739E+03   -0.17996E+00   -0.16919E+00  8424   0.856E+00 0.162E-01
CGA:  44    -0.666739539796E+03   -0.14420E+00   -0.13844E+00  8424   0.734E+00 0.131E-01
CGA:  45    -0.666858263143E+03   -0.11872E+00   -0.11489E+00  8424   0.659E+00 0.242E-01
CGA:  46    -0.666962196643E+03   -0.10393E+00   -0.95767E-01  8424   0.601E+00-0.887E-02
CGA:  47    -0.667036128447E+03   -0.73932E-01   -0.68145E-01  8424   0.539E+00 0.282E-01
CGA:  48    -0.667105922439E+03   -0.69794E-01   -0.64447E-01  8424   0.544E+00 0.274E-01
CGA:  49    -0.667169844903E+03   -0.63922E-01   -0.61911E-01  8424   0.577E+00 0.280E-01
CGA:  50    -0.667232423044E+03   -0.62578E-01   -0.54259E-01  8424   0.559E+00 0.233E-02
SDA:  51    -0.667283384115E+03   -0.50961E-01   -0.50535E-01  8424   0.626E+00 0.229E-01
CGA:  52    -0.667448184876E+03   -0.16480E+00   -0.37654E+00  8424   0.596E+01-0.798E+00
CGA:  53    -0.667955064295E+03   -0.50688E+00   -0.66617E+00  8424   0.106E+01-0.772E+00
CGA:  54    -0.668149394829E+03   -0.19433E+00   -0.18490E+00  8424   0.767E+00-0.303E-01
CGA:  55    -0.668415919014E+03   -0.26652E+00   -0.24945E+00  8424   0.716E+00 0.135E+00
CGA:  56    -0.668551015238E+03   -0.13510E+00   -0.13043E+00  8424   0.342E+00 0.115E-01
CGA:  57    -0.668635349579E+03   -0.84334E-01   -0.84366E-01  8424   0.168E+00 0.432E-02
CGA:  58    -0.668678336931E+03   -0.42987E-01   -0.42995E-01  8424   0.177E+00-0.203E-02
CGA:  59    -0.668711624296E+03   -0.33287E-01   -0.32122E-01  8424   0.108E+00 0.237E-02
CGA:  60    -0.668737767113E+03   -0.26143E-01   -0.26109E-01  8424   0.108E+00-0.100E-03
CGA:  61    -0.668759935703E+03   -0.22169E-01   -0.22480E-01  8424   0.117E+00 0.106E-02
CGA:  62    -0.668786302503E+03   -0.26367E-01   -0.26205E-01  8424   0.847E-01-0.263E-02
CGA:  63    -0.668819482320E+03   -0.33180E-01   -0.35912E-01  8424   0.189E+00-0.151E-01
CGA:  64    -0.668862928947E+03   -0.43447E-01   -0.43497E-01  8424   0.223E+00-0.169E-01
CGA:  65    -0.668915752647E+03   -0.52824E-01   -0.53637E-01  8424   0.257E+00-0.718E-01
CGA:  66    -0.668953598256E+03   -0.37846E-01   -0.31652E-01  8424   0.255E+00-0.612E-01
CGA:  67    -0.668983369820E+03   -0.29772E-01   -0.23655E-01  8424   0.175E+00-0.461E-01
CGA:  68    -0.669010008946E+03   -0.26639E-01   -0.23328E-01  8424   0.161E+00-0.455E-01
CGA:  69    -0.669032232264E+03   -0.22223E-01   -0.19450E-01  8424   0.121E+00-0.378E-01
CGA:  70    -0.669047257999E+03   -0.15026E-01   -0.13129E-01  8424   0.924E-01-0.209E-01
CGA:  71    -0.669063065994E+03   -0.15808E-01   -0.15265E-01  8424   0.104E+00-0.183E-01
CGA:  72    -0.669077810443E+03   -0.14744E-01   -0.13935E-01  8424   0.807E-01-0.145E-01
CGA:  73    -0.669089747949E+03   -0.11938E-01   -0.11638E-01  8424   0.746E-01-0.586E-02
CGA:  74    -0.669102680771E+03   -0.12933E-01   -0.13017E-01  8424   0.718E-01 0.178E-02
CGA:  75    -0.669114007587E+03   -0.11327E-01   -0.11754E-01  8424   0.552E-01 0.664E-02
CGA:  76    -0.669124668468E+03   -0.10661E-01   -0.11042E-01  8424   0.564E-01 0.990E-02
CGA:  77    -0.669136294125E+03   -0.11626E-01   -0.12144E-01  8424   0.442E-01 0.136E-01
CGA:  78    -0.669144222744E+03   -0.79286E-02   -0.87033E-02  8424   0.297E-01 0.128E-01
CGA:  79    -0.669149996020E+03   -0.57733E-02   -0.63768E-02  8424   0.246E-01 0.126E-01
CGA:  80    -0.669155186803E+03   -0.51908E-02   -0.57584E-02  8424   0.178E-01 0.119E-01
CGA:  81    -0.669159256702E+03   -0.40699E-02   -0.44433E-02  8424   0.147E-01 0.915E-02
CGA:  82    -0.669163865030E+03   -0.46083E-02   -0.44028E-02  8424   0.114E-01 0.219E-02
CGA:  83    -0.669169786418E+03   -0.59214E-02   -0.49086E-02  8424   0.664E-02 0.610E-02
CGA:  84    -0.669171811563E+03   -0.20251E-02   -0.19188E-02  8424   0.374E-02 0.152E-02
CGA:  85    -0.669173113047E+03   -0.13015E-02   -0.11853E-02  8424   0.299E-02 0.330E-02
CGA:  86    -0.669174083972E+03   -0.97092E-03   -0.86396E-03  8424   0.194E-02 0.164E-02
CGA:  87    -0.669174597445E+03   -0.51347E-03   -0.48060E-03  8424   0.164E-02 0.163E-02
CGA:  88    -0.669175184062E+03   -0.58662E-03   -0.48729E-03  8424   0.148E-02 0.145E-02
CGA:  89    -0.669175463433E+03   -0.27937E-03   -0.30953E-03  8424   0.134E-02 0.130E-02
CGA:  90    -0.669175871996E+03   -0.40856E-03   -0.36126E-03  8424   0.123E-02 0.119E-02
CGA:  91    -0.669176069431E+03   -0.19744E-03   -0.23992E-03  8424   0.113E-02 0.110E-02
CGA:  92    -0.669176364387E+03   -0.29496E-03   -0.27832E-03  8424   0.105E-02 0.103E-02
CGA:  93    -0.669176522853E+03   -0.15847E-03   -0.19922E-03  8424   0.976E-03 0.968E-03
CGA:  94    -0.669176743710E+03   -0.22086E-03   -0.22248E-03  8424   0.916E-03 0.916E-03
CGA:  95    -0.669176877770E+03   -0.13406E-03   -0.17127E-03  8424   0.865E-03 0.867E-03
CGA:  96    -0.669177049098E+03   -0.17133E-03   -0.18374E-03  8424   0.819E-03 0.825E-03
CGA:  97    -0.669177165487E+03   -0.11639E-03   -0.15040E-03  8424   0.780E-03 0.787E-03
CGA:  98    -0.669177303080E+03   -0.13759E-03   -0.15610E-03  8424   0.744E-03 0.753E-03
CGA:  99    -0.669177405624E+03   -0.10254E-03   -0.13398E-03  8424   0.714E-03 0.722E-03
CGA: 100    -0.669177519856E+03   -0.11423E-03   -0.13582E-03  8424   0.686E-03 0.694E-03
CGA: 101    -0.669177611192E+03   -0.91336E-04   -0.12064E-03  8424   0.661E-03 0.669E-03
CGA: 102    -0.669177708867E+03   -0.97675E-04   -0.12047E-03  8424   0.638E-03 0.646E-03
CGA: 103    -0.669177791084E+03   -0.82216E-04   -0.10964E-03  8424   0.617E-03 0.624E-03
CGA: 104    -0.669177876623E+03   -0.85539E-04   -0.10846E-03  8424   0.598E-03 0.604E-03
CGA: 105    -0.669177951452E+03   -0.74829E-04   -0.10047E-03  8424   0.581E-03 0.586E-03
CGA: 106    -0.669178027714E+03   -0.76263E-04   -0.98745E-04  8424   0.564E-03 0.569E-03
CGA: 107    -0.669178096569E+03   -0.68855E-04   -0.92762E-04  8424   0.549E-03 0.553E-03
CGA: 108    -0.669178165444E+03   -0.68875E-04   -0.90641E-04  8424   0.535E-03 0.538E-03
CGA: 109    -0.669178229433E+03   -0.63989E-04   -0.86200E-04  8424   0.522E-03 0.525E-03
CGA: 110    -0.669178292260E+03   -0.62827E-04   -0.83737E-04  8424   0.509E-03 0.512E-03
CGA: 111    -0.669178352206E+03   -0.59946E-04   -0.80525E-04  8424   0.498E-03 0.499E-03
CGA: 112    -0.669178410027E+03   -0.57821E-04   -0.77784E-04  8424   0.486E-03 0.488E-03
CGA: 113    -0.669178466510E+03   -0.56483E-04   -0.75526E-04  8424   0.476E-03 0.477E-03
CGA: 114    -0.669178520169E+03   -0.53659E-04   -0.72608E-04  8424   0.466E-03 0.467E-03
CGA: 115    -0.669178573599E+03   -0.53430E-04   -0.71062E-04  8424   0.456E-03 0.457E-03
CGA: 116    -0.669178623759E+03   -0.50160E-04   -0.68071E-04  8424   0.447E-03 0.448E-03
CGA: 117    -0.669178674466E+03   -0.50707E-04   -0.67050E-04  8424   0.438E-03 0.440E-03
CGA: 118    -0.669178721627E+03   -0.47161E-04   -0.64054E-04  8424   0.430E-03 0.431E-03
CGA: 119    -0.669178769911E+03   -0.48284E-04   -0.63444E-04  8424   0.422E-03 0.423E-03
CGA: 120    -0.669178814446E+03   -0.44535E-04   -0.60464E-04  8424   0.414E-03 0.416E-03
CGA: 121    -0.669178860590E+03   -0.46144E-04   -0.60204E-04  8424   0.407E-03 0.408E-03
CGA: 122    -0.669178902784E+03   -0.42194E-04   -0.57227E-04  8424   0.400E-03 0.402E-03
CGA: 123    -0.669178947035E+03   -0.44251E-04   -0.57284E-04  8424   0.394E-03 0.395E-03
CGA: 124    -0.669178987121E+03   -0.40085E-04   -0.54289E-04  8424   0.387E-03 0.388E-03
CGA: 125    -0.669179029677E+03   -0.42556E-04   -0.54635E-04  8424   0.381E-03 0.382E-03
CGA: 126    -0.669179067858E+03   -0.38181E-04   -0.51613E-04  8424   0.375E-03 0.376E-03
CGA: 127    -0.669179108866E+03   -0.41008E-04   -0.52208E-04  8424   0.370E-03 0.371E-03
CGA: 128    -0.669179145333E+03   -0.36466E-04   -0.49173E-04  8424   0.364E-03 0.365E-03
CGA: 129    -0.669179184898E+03   -0.39565E-04   -0.49966E-04  8424   0.359E-03 0.360E-03
CGA: 130    -0.669179219823E+03   -0.34925E-04   -0.46943E-04  8424   0.354E-03 0.355E-03
CGA: 131    -0.669179258028E+03   -0.38205E-04   -0.47883E-04  8424   0.349E-03 0.350E-03
CGA: 132    -0.669179291563E+03   -0.33535E-04   -0.44900E-04  8424   0.344E-03 0.345E-03
CGA: 133    -0.669179328484E+03   -0.36921E-04   -0.45943E-04  8424   0.340E-03 0.340E-03
CGA: 134    -0.669179360749E+03   -0.32266E-04   -0.43018E-04  8424   0.335E-03 0.336E-03
CGA: 135    -0.669179396468E+03   -0.35719E-04   -0.44141E-04  8424   0.331E-03 0.332E-03
CGA: 136    -0.669179427560E+03   -0.31092E-04   -0.41274E-04  8424   0.327E-03 0.328E-03
CGA: 137    -0.669179462162E+03   -0.34602E-04   -0.42468E-04  8424   0.323E-03 0.324E-03
CGA: 138    -0.669179492158E+03   -0.29996E-04   -0.39653E-04  8424   0.319E-03 0.320E-03
CGA: 139    -0.669179525724E+03   -0.33566E-04   -0.40914E-04  8424   0.315E-03 0.316E-03
CGA: 140    -0.669179554694E+03   -0.28970E-04   -0.38141E-04  8424   0.312E-03 0.312E-03
CGA: 141    -0.669179587293E+03   -0.32599E-04   -0.39466E-04  8424   0.308E-03 0.309E-03
CGA: 142    -0.669179615304E+03   -0.28011E-04   -0.36730E-04  8424   0.305E-03 0.305E-03
CGA: 143    -0.669179646993E+03   -0.31689E-04   -0.38111E-04  8424   0.302E-03 0.302E-03
CGA: 144    -0.669179674111E+03   -0.27118E-04   -0.35414E-04  8424   0.298E-03 0.299E-03
CGA: 145    -0.669179704935E+03   -0.30824E-04   -0.36836E-04  8424   0.295E-03 0.296E-03
CGA: 146    -0.669179731221E+03   -0.26286E-04   -0.34184E-04  8424   0.292E-03 0.292E-03
CGA: 147    -0.669179761218E+03   -0.29998E-04   -0.35634E-04  8424   0.289E-03 0.289E-03
CGA: 148    -0.669179786728E+03   -0.25510E-04   -0.33032E-04  8424   0.286E-03 0.287E-03
CGA: 149    -0.669179815936E+03   -0.29207E-04   -0.34499E-04  8424   0.283E-03 0.284E-03
CGA: 150    -0.669179840716E+03   -0.24780E-04   -0.31949E-04  8424   0.281E-03 0.281E-03
CGA: 151    -0.669179869168E+03   -0.28452E-04   -0.33424E-04  8424   0.278E-03 0.278E-03
CGA: 152    -0.669179893257E+03   -0.24089E-04   -0.30927E-04  8424   0.275E-03 0.276E-03
CGA: 153    -0.669179920988E+03   -0.27730E-04   -0.32407E-04  8424   0.273E-03 0.273E-03
CGA: 154    -0.669179944420E+03   -0.23432E-04   -0.29961E-04  8424   0.270E-03 0.271E-03
CGA: 155    -0.669179971461E+03   -0.27041E-04   -0.31443E-04  8424   0.268E-03 0.268E-03
CGA: 156    -0.669179994265E+03   -0.22805E-04   -0.29045E-04  8424   0.265E-03 0.266E-03
CGA: 157    -0.669180020646E+03   -0.26381E-04   -0.30526E-04  8424   0.263E-03 0.263E-03
CGA: 158    -0.669180042855E+03   -0.22208E-04   -0.28176E-04  8424   0.261E-03 0.261E-03
CGA: 159    -0.669180068603E+03   -0.25748E-04   -0.29654E-04  8424   0.258E-03 0.259E-03
CGA: 160    -0.669180090245E+03   -0.21643E-04   -0.27351E-04  8424   0.256E-03 0.256E-03
CGA: 161    -0.669180115387E+03   -0.25141E-04   -0.28823E-04  8424   0.254E-03 0.254E-03
CGA: 162    -0.669180136493E+03   -0.21106E-04   -0.26569E-04  8424   0.252E-03 0.252E-03
CGA: 163    -0.669180161054E+03   -0.24561E-04   -0.28032E-04  8424   0.250E-03 0.250E-03
CGA: 164    -0.669180181652E+03   -0.20598E-04   -0.25827E-04  8424   0.248E-03 0.248E-03
CGA: 165    -0.669180205658E+03   -0.24007E-04   -0.27279E-04  8424   0.246E-03 0.246E-03
CGA: 166    -0.669180225773E+03   -0.20115E-04   -0.25121E-04  8424   0.244E-03 0.244E-03
CGA: 167    -0.669180249251E+03   -0.23478E-04   -0.26562E-04  8424   0.242E-03 0.242E-03
CGA: 168    -0.669180268906E+03   -0.19655E-04   -0.24450E-04  8424   0.240E-03 0.240E-03
CGA: 169    -0.669180291880E+03   -0.22974E-04   -0.25880E-04  8424   0.238E-03 0.238E-03
CGA: 170    -0.669180311098E+03   -0.19218E-04   -0.23812E-04  8424   0.236E-03 0.236E-03
CGA: 171    -0.669180333590E+03   -0.22492E-04   -0.25229E-04  8424   0.234E-03 0.234E-03
CGA: 172    -0.669180352390E+03   -0.18801E-04   -0.23203E-04  8424   0.233E-03 0.233E-03
CGA: 173    -0.669180374422E+03   -0.22032E-04   -0.24609E-04  8424   0.231E-03 0.231E-03
CGA: 174    -0.669180392825E+03   -0.18404E-04   -0.22624E-04  8424   0.229E-03 0.229E-03
CGA: 175    -0.669180414416E+03   -0.21590E-04   -0.24017E-04  8424   0.227E-03 0.228E-03
CGA: 176    -0.669180432441E+03   -0.18025E-04   -0.22071E-04  8424   0.226E-03 0.226E-03
CGA: 177    -0.669180453609E+03   -0.21168E-04   -0.23451E-04  8424   0.224E-03 0.224E-03
CGA: 178    -0.669180471274E+03   -0.17664E-04   -0.21545E-04  8424   0.222E-03 0.223E-03
CGA: 179    -0.669180492037E+03   -0.20764E-04   -0.22911E-04  8424   0.221E-03 0.221E-03
CGA: 180    -0.669180509358E+03   -0.17320E-04   -0.21042E-04  8424   0.219E-03 0.219E-03
CGA: 181    -0.669180529734E+03   -0.20377E-04   -0.22395E-04  8424   0.218E-03 0.218E-03
CGA: 182    -0.669180546725E+03   -0.16991E-04   -0.20563E-04  8424   0.216E-03 0.216E-03
CGA: 183    -0.669180566731E+03   -0.20006E-04   -0.21902E-04  8424   0.215E-03 0.215E-03
CGA: 184    -0.669180583408E+03   -0.16677E-04   -0.20105E-04  8424   0.213E-03 0.213E-03
CGA: 185    -0.669180603059E+03   -0.19651E-04   -0.21430E-04  8424   0.212E-03 0.212E-03
CGA: 186    -0.669180619435E+03   -0.16376E-04   -0.19667E-04  8424   0.210E-03 0.211E-03
CGA: 187    -0.669180638745E+03   -0.19309E-04   -0.20979E-04  8424   0.209E-03 0.209E-03
CGA: 188    -0.669180654834E+03   -0.16089E-04   -0.19249E-04  8424   0.208E-03 0.208E-03
CGA: 189    -0.669180673815E+03   -0.18981E-04   -0.20547E-04  8424   0.206E-03 0.206E-03
CGA: 190    -0.669180689629E+03   -0.15814E-04   -0.18849E-04  8424   0.205E-03 0.205E-03
CGA: 191    -0.669180708295E+03   -0.18665E-04   -0.20132E-04  8424   0.204E-03 0.204E-03
CGA: 192    -0.669180723845E+03   -0.15551E-04   -0.18466E-04  8424   0.202E-03 0.203E-03
CGA: 193    -0.669180742206E+03   -0.18360E-04   -0.19734E-04  8424   0.201E-03 0.201E-03
CGA: 194    -0.669180757503E+03   -0.15297E-04   -0.18099E-04  8424   0.200E-03 0.200E-03
CGA: 195    -0.669180775568E+03   -0.18065E-04   -0.19352E-04  8424   0.199E-03 0.199E-03
CGA: 196    -0.669180790621E+03   -0.15053E-04   -0.17747E-04  8424   0.197E-03 0.198E-03
CGA: 197    -0.669180808399E+03   -0.17779E-04   -0.18983E-04  8424   0.196E-03 0.196E-03
CGA: 198    -0.669180823216E+03   -0.14816E-04   -0.17408E-04  8424   0.195E-03 0.195E-03
CGA: 199    -0.669180840716E+03   -0.17500E-04   -0.18628E-04  8424   0.194E-03 0.194E-03
CGA: 200    -0.669180855303E+03   -0.14587E-04   -0.17081E-04  8424   0.193E-03 0.193E-03
   8 F= -.66918086E+03 E0= -.66918086E+03  d E =-.179126E+00  mag=     2.0000
       N       E                     dE             d eps       ncg     rms          ort
SDA:   1    -0.659215694906E+03    0.99651E+01    0.00000E+00  8424   0.337E+02 0.000E+00
CGA:   2    -0.665945655783E+03   -0.67300E+01   -0.67070E+01  8424   0.133E+02 0.232E+00
CGA:   3    -0.668790735371E+03   -0.28451E+01   -0.28498E+01  8424   0.426E+01-0.490E-01
CGA:   4    -0.669504870379E+03   -0.71414E+00   -0.71401E+00  8424   0.109E+01 0.984E-03
CGA:   5    -0.669690830350E+03   -0.18596E+00   -0.18572E+00  8424   0.223E+00 0.384E-02
CGA:   6    -0.669735567823E+03   -0.44737E-01   -0.44909E-01  8424   0.502E-01-0.207E-02
CGA:   7    -0.669746585256E+03   -0.11017E-01   -0.10784E-01  8424   0.145E-01 0.241E-02
CGA:   8    -0.669750154206E+03   -0.35690E-02   -0.33843E-02  8424   0.402E-02 0.188E-02
CGA:   9    -0.669751305741E+03   -0.11515E-02   -0.10519E-02  8424   0.138E-02 0.983E-03
CGA:  10    -0.669751584585E+03   -0.27884E-03   -0.26183E-03  8424   0.703E-03 0.983E-03
CGA:  11    -0.669751671056E+03   -0.86471E-04   -0.90431E-04  8424   0.450E-03 0.535E-03
CGA:  12    -0.669751711156E+03   -0.40100E-04   -0.50017E-04  8424   0.368E-03 0.404E-03
CGA:  13    -0.669751732227E+03   -0.21071E-04   -0.34835E-04  8424   0.325E-03 0.344E-03
CGA:  14    -0.669751744938E+03   -0.12711E-04   -0.27502E-04  8424   0.296E-03 0.309E-03
CGA:  15    -0.669751752860E+03   -0.79223E-05   -0.22916E-04  8424   0.275E-03 0.285E-03
CGA:  16    -0.669751757727E+03   -0.48667E-05   -0.19711E-04  8424   0.259E-03 0.266E-03
CGA:  17    -0.669751760517E+03   -0.27897E-05   -0.17316E-04  8424   0.245E-03 0.251E-03
CGA:  18    -0.669751761834E+03   -0.13175E-05   -0.15443E-04  8424   0.235E-03 0.240E-03
CGA:  19    -0.669751762079E+03   -0.24486E-06   -0.13930E-04  8424   0.226E-03 0.230E-03
CGA:  20    -0.669751761528E+03    0.55063E-06   -0.12678E-04  8424   0.218E-03 0.221E-03
CGA:  21    -0.669751760381E+03    0.11475E-05   -0.11621E-04  8424   0.211E-03 0.214E-03
CGA:  22    -0.669751758784E+03    0.15971E-05   -0.10717E-04  8424   0.205E-03 0.208E-03
   9 F= -.66975176E+03 E0= -.66975176E+03  d E =-.570903E+00  mag=     2.0000
       N       E                     dE             d eps       ncg     rms          ort
SDA:   1    -0.668196528898E+03    0.15552E+01    0.00000E+00  8424   0.489E+01 0.000E+00
CGA:   2    -0.669267819552E+03   -0.10713E+01   -0.10697E+01  8424   0.204E+01 0.137E-01
CGA:   3    -0.669682781323E+03   -0.41496E+00   -0.41564E+00  8424   0.619E+00-0.761E-02
CGA:   4    -0.669787380928E+03   -0.10460E+00   -0.10460E+00  8424   0.160E+00-0.150E-03
CGA:   5    -0.669814623095E+03   -0.27242E-01   -0.27155E-01  8424   0.317E-01 0.164E-02
CGA:   6    -0.669820977040E+03   -0.63539E-02   -0.63090E-02  8424   0.720E-02 0.578E-03
CGA:   7    -0.669822532426E+03   -0.15554E-02   -0.14657E-02  8424   0.212E-02 0.117E-02
CGA:   8    -0.669823025645E+03   -0.49322E-03   -0.44498E-03  8424   0.753E-03 0.907E-03
CGA:   9    -0.669823169811E+03   -0.14417E-03   -0.14258E-03  8424   0.410E-03 0.627E-03
CGA:  10    -0.669823201116E+03   -0.31306E-04   -0.41307E-04  8424   0.300E-03 0.339E-03
CGA:  11    -0.669823212639E+03   -0.11523E-04   -0.24574E-04  8424   0.262E-03 0.278E-03
CGA:  12    -0.669823218283E+03   -0.56439E-05   -0.19045E-04  8424   0.239E-03 0.249E-03
CGA:  13    -0.669823220932E+03   -0.26493E-05   -0.15862E-04  8424   0.223E-03 0.230E-03
CGA:  14    -0.669823221773E+03   -0.84046E-06   -0.13685E-04  8424   0.210E-03 0.216E-03
CGA:  15    -0.669823221425E+03    0.34799E-06   -0.12061E-04  8424   0.200E-03 0.205E-03
CGA:  16    -0.669823220257E+03    0.11675E-05   -0.10782E-04  8424   0.192E-03 0.195E-03
  10 F= -.66982322E+03 E0= -.66982322E+03  d E =-.714615E-01  mag=     2.0000
       N       E                     dE             d eps       ncg     rms          ort
SDA:   1    -0.667989875065E+03    0.18333E+01    0.00000E+00  8424   0.509E+01 0.000E+00
CGA:   2    -0.669289658894E+03   -0.12998E+01   -0.12989E+01  8424   0.216E+01 0.599E-02
CGA:   3    -0.669703460383E+03   -0.41380E+00   -0.41441E+00  8424   0.612E+00-0.809E-02
CGA:   4    -0.669808683303E+03   -0.10522E+00   -0.10526E+00  8424   0.157E+00-0.705E-03
CGA:   5    -0.669835110620E+03   -0.26427E-01   -0.26348E-01  8424   0.316E-01 0.173E-02
CGA:   6    -0.669841482607E+03   -0.63720E-02   -0.63049E-02  8424   0.745E-02 0.919E-03
CGA:   7    -0.669843243458E+03   -0.17609E-02   -0.16748E-02  8424   0.250E-02 0.952E-03
CGA:   8    -0.669843880291E+03   -0.63683E-03   -0.57653E-03  8424   0.882E-03 0.844E-03
CGA:   9    -0.669844079491E+03   -0.19920E-03   -0.18574E-03  8424   0.454E-03 0.638E-03
CGA:  10    -0.669844127210E+03   -0.47719E-04   -0.54140E-04  8424   0.303E-03 0.351E-03
CGA:  11    -0.669844145450E+03   -0.18239E-04   -0.29291E-04  8424   0.257E-03 0.277E-03
CGA:  12    -0.669844155617E+03   -0.10167E-04   -0.22048E-04  8424   0.230E-03 0.243E-03
CGA:  13    -0.669844161627E+03   -0.60099E-05   -0.17937E-04  8424   0.211E-03 0.220E-03
CGA:  14    -0.669844165110E+03   -0.34830E-05   -0.15175E-04  8424   0.196E-03 0.203E-03
CGA:  15    -0.669844166925E+03   -0.18159E-05   -0.13155E-04  8424   0.185E-03 0.190E-03
[...]
CGA:   8    -0.669886481287E+03   -0.18670E-04   -0.22540E-04  8424   0.539E-04 0.767E-04
CGA:   9    -0.669886485016E+03   -0.37290E-05   -0.65188E-05  8424   0.330E-04 0.390E-04
  23 F= -.66988649E+03 E0= -.66988649E+03  d E =-.106826E-01  mag=     2.0000
       N       E                     dE             d eps       ncg     rms          ort
SDA:   1    -0.666181140232E+03    0.37053E+01    0.00000E+00  8424   0.107E+02 0.000E+00
CGA:   2    -0.668544694133E+03   -0.23636E+01   -0.23628E+01  8424   0.481E+01 0.159E-01
CGA:   3    -0.669523411010E+03   -0.97872E+00   -0.97887E+00  8424   0.141E+01-0.782E-02
CGA:   4    -0.669750736042E+03   -0.22733E+00   -0.22735E+00  8424   0.339E+00 0.868E-03
CGA:   5    -0.669809464479E+03   -0.58728E-01   -0.58748E-01  8424   0.728E-01 0.153E-02
CGA:   6    -0.669823884087E+03   -0.14420E-01   -0.14422E-01  8424   0.167E-01-0.224E-03
CGA:   7    -0.669827526308E+03   -0.36422E-02   -0.36291E-02  8424   0.489E-02 0.394E-03
CGA:   8    -0.669828769878E+03   -0.12436E-02   -0.12439E-02  8424   0.155E-02-0.566E-05
CGA:   9    -0.669829222872E+03   -0.45299E-03   -0.47603E-03  8424   0.660E-03-0.198E-03
CGA:  10    -0.669829394018E+03   -0.17115E-03   -0.17195E-03  8424   0.259E-03-0.831E-05
CGA:  11    -0.669829445610E+03   -0.51591E-04   -0.15607E-03  8424   0.512E-03-0.257E-03
CGA:  12    -0.669829535799E+03   -0.90190E-04   -0.92572E-04  8424   0.721E-04 0.589E-04
CGA:  13    -0.669829575067E+03   -0.39267E-04    0.77604E-04  8424   0.292E-04 0.292E-04
CGA:  14    -0.669829598043E+03   -0.22977E-04    0.16366E-04  8424   0.223E-04 0.229E-04
CGA:  15    -0.669829608174E+03   -0.10131E-04    0.68022E-04  8424   0.164E-04 0.160E-04
CGA:  16    -0.669829623132E+03   -0.14958E-04    0.16527E-05  8424   0.150E-04 0.146E-04
CGA:  17    -0.669829632640E+03   -0.95080E-05    0.36594E-05  8424   0.141E-04 0.138E-04
  24 F= -.66982963E+03 E0= -.66982963E+03  d E =0.568524E-01  mag=     2.0000
       N       E                     dE             d eps       ncg     rms          ort
SDA:   1    -0.660218946995E+03    0.96107E+01    0.00000E+00  8424   0.311E+02 0.000E+00
CGA:   2    -0.666261522694E+03   -0.60426E+01   -0.60470E+01  8424   0.123E+02 0.878E-01
CGA:   3    -0.668874615890E+03   -0.26131E+01   -0.26129E+01  8424   0.406E+01-0.282E-01
CGA:   4    -0.669549705483E+03   -0.67509E+00   -0.67547E+00  8424   0.101E+01 0.317E-02
CGA:   5    -0.669721842206E+03   -0.17214E+00   -0.17232E+00  8424   0.222E+00 0.329E-02
CGA:   6    -0.669765162942E+03   -0.43321E-01   -0.43296E-01  8424   0.497E-01-0.130E-02
CGA:   7    -0.669775819972E+03   -0.10657E-01   -0.10653E-01  8424   0.145E-01 0.111E-02
CGA:   8    -0.669779339441E+03   -0.35195E-02   -0.35070E-02  8424   0.416E-02 0.495E-03
CGA:   9    -0.669780500660E+03   -0.11612E-02   -0.11557E-02  8424   0.138E-02 0.997E-04
CGA:  10    -0.669780852623E+03   -0.35196E-03   -0.34337E-03  8424   0.513E-03 0.320E-03
CGA:  11    -0.669781017215E+03   -0.16459E-03   -0.15843E-03  8424   0.216E-03 0.185E-03
CGA:  12    -0.669781057007E+03   -0.39793E-04   -0.48924E-04  8424   0.117E-03 0.172E-03
CGA:  13    -0.669781063804E+03   -0.67969E-05   -0.15093E-04  8424   0.831E-04 0.947E-04
  25 F= -.66978106E+03 E0= -.66978106E+03  d E =0.485688E-01  mag=     2.0000
       N       E                     dE             d eps       ncg     rms          ort
SDA:   1    -0.668587582388E+03    0.11935E+01    0.00000E+00  8424   0.407E+01 0.000E+00
CGA:   2    -0.669413274083E+03   -0.82569E+00   -0.82573E+00  8424   0.164E+01 0.580E-02
CGA:   3    -0.669758966063E+03   -0.34569E+00   -0.34570E+00  8424   0.540E+00-0.231E-02
CGA:   4    -0.669847147824E+03   -0.88182E-01   -0.88198E-01  8424   0.133E+00 0.286E-03
CGA:   5    -0.669870340520E+03   -0.23193E-01   -0.23209E-01  8424   0.287E-01 0.491E-03
CGA:   6    -0.669876000168E+03   -0.56596E-02   -0.56582E-02  8424   0.643E-02-0.209E-03
CGA:   7    -0.669877356854E+03   -0.13567E-02   -0.13540E-02  8424   0.183E-02 0.305E-03
CGA:   8    -0.669877806838E+03   -0.44998E-03   -0.44597E-03  8424   0.533E-03 0.138E-03
CGA:   9    -0.669877960986E+03   -0.15415E-03   -0.15112E-03  8424   0.191E-03 0.511E-04
CGA:  10    -0.669878002443E+03   -0.41457E-04   -0.42110E-04  8424   0.869E-04 0.916E-04
CGA:  11    -0.669878024559E+03   -0.22116E-04   -0.23726E-04  8424   0.526E-04 0.688E-04
CGA:  12    -0.669878039899E+03   -0.15340E-04   -0.13714E-04  8424   0.351E-04 0.297E-04
CGA:  13    -0.669878040817E+03   -0.91791E-06   -0.39711E-05  8424   0.302E-04 0.316E-04
  26 F= -.66987804E+03 E0= -.66987804E+03  d E =-.969770E-01  mag=     2.0000
       N       E                     dE             d eps       ncg     rms          ort
SDA:   1    -0.668951546662E+03    0.92649E+00    0.00000E+00  8424   0.291E+01 0.000E+00
CGA:   2    -0.669551906849E+03   -0.60036E+00   -0.60034E+00  8424   0.120E+01 0.365E-02
CGA:   3    -0.669804470731E+03   -0.25256E+00   -0.25258E+00  8424   0.388E+00-0.187E-02
CGA:   4    -0.669867573723E+03   -0.63103E-01   -0.63110E-01  8424   0.944E-01 0.112E-03
CGA:   5    -0.669883937825E+03   -0.16364E-01   -0.16375E-01  8424   0.201E-01 0.395E-03
CGA:   6    -0.669887919729E+03   -0.39819E-02   -0.39817E-02  8424   0.454E-02-0.740E-04
CGA:   7    -0.669888888346E+03   -0.96862E-03   -0.96562E-03  8424   0.130E-02 0.209E-03
CGA:   8    -0.669889215034E+03   -0.32669E-03   -0.32427E-03  8424   0.393E-03 0.615E-04
CGA:   9    -0.669889332476E+03   -0.11744E-03   -0.11711E-03  8424   0.155E-03 0.355E-05
CGA:  10    -0.669889371626E+03   -0.39150E-04   -0.37508E-04  8424   0.673E-04 0.489E-04
CGA:  11    -0.669889397884E+03   -0.26258E-04   -0.24299E-04  8424   0.404E-04 0.288E-04
CGA:  12    -0.669889416942E+03   -0.19058E-04   -0.16904E-04  8424   0.330E-04 0.254E-04
CGA:  13    -0.669889425574E+03   -0.86316E-05   -0.80727E-05  8424   0.196E-04 0.186E-04
  27 F= -.66988943E+03 E0= -.66988943E+03  d E =-.113848E-01  mag=     2.0000
       N       E                     dE             d eps       ncg     rms          ort
SDA:   1    -0.669208258116E+03    0.68116E+00    0.00000E+00  8424   0.179E+01 0.000E+00
CGA:   2    -0.669642923057E+03   -0.43466E+00   -0.43478E+00  8424   0.893E+00 0.332E-03
CGA:   3    -0.669818096258E+03   -0.17517E+00   -0.17510E+00  8424   0.227E+00-0.309E-03
CGA:   4    -0.669854245119E+03   -0.36149E-01   -0.36175E-01  8424   0.524E-01 0.102E-03
CGA:   5    -0.669863350476E+03   -0.91054E-02   -0.91345E-02  8424   0.113E-01 0.141E-03
CGA:   6    -0.669865588768E+03   -0.22383E-02   -0.22479E-02  8424   0.267E-02 0.584E-04
CGA:   7    -0.669866143414E+03   -0.55465E-03   -0.57099E-03  8424   0.769E-03 0.119E-03
CGA:   8    -0.669866314483E+03   -0.17107E-03   -0.18190E-03  8424   0.236E-03 0.929E-04
CGA:   9    -0.669866363119E+03   -0.48636E-04   -0.58079E-04  8424   0.906E-04 0.802E-04
CGA:  10    -0.669866370642E+03   -0.75234E-05   -0.19611E-04  8424   0.524E-04 0.710E-04
  28 F= -.66986637E+03 E0= -.66986637E+03  d E =0.230549E-01  mag=     2.0000
       N       E                     dE             d eps       ncg     rms          ort
SDA:   1    -0.663708647901E+03    0.61577E+01    0.00000E+00  8424   0.195E+02 0.000E+00
CGA:   2    -0.667574073307E+03   -0.38654E+01   -0.38746E+01  8424   0.787E+01 0.133E-01
CGA:   3    -0.669238900055E+03   -0.16648E+01   -0.16626E+01  8424   0.258E+01-0.512E-02
CGA:   4    -0.669664215086E+03   -0.42532E+00   -0.42582E+00  8424   0.635E+00 0.672E-03
CGA:   5    -0.669772992348E+03   -0.10878E+00   -0.10902E+00  8424   0.138E+00 0.148E-02
CGA:   6    -0.669799828221E+03   -0.26836E-01   -0.26782E-01  8424   0.310E-01-0.531E-03
CGA:   7    -0.669806488850E+03   -0.66606E-02   -0.67015E-02  8424   0.904E-02 0.598E-03
CGA:   8    -0.669808682737E+03   -0.21939E-02   -0.22032E-02  8424   0.263E-02 0.218E-03
CGA:   9    -0.669809389243E+03   -0.70651E-03   -0.70832E-03  8424   0.844E-03 0.110E-03
CGA:  10    -0.669809594147E+03   -0.20490E-03   -0.21276E-03  8424   0.316E-03 0.215E-03
CGA:  11    -0.669809675558E+03   -0.81411E-04   -0.89304E-04  8424   0.137E-03 0.152E-03
CGA:  12    -0.669809690157E+03   -0.14599E-04   -0.30618E-04  8424   0.818E-04 0.129E-03
CGA:  13    -0.669809689081E+03    0.10760E-05   -0.94646E-05  8424   0.620E-04 0.691E-04
  29 F= -.66980969E+03 E0= -.66980969E+03  d E =0.566816E-01  mag=     2.0000
       N       E                     dE             d eps       ncg     rms          ort
SDA:   1    -0.667758527896E+03    0.20512E+01    0.00000E+00  8424   0.677E+01 0.000E+00
CGA:   2    -0.669122938469E+03   -0.13644E+01   -0.13651E+01  8424   0.271E+01 0.762E-02
CGA:   3    -0.669695639032E+03   -0.57270E+00   -0.57256E+00  8424   0.900E+00-0.264E-02
CGA:   4    -0.669842989223E+03   -0.14735E+00   -0.14742E+00  8424   0.222E+00 0.636E-03
CGA:   5    -0.669881473231E+03   -0.38484E-01   -0.38549E-01  8424   0.475E-01 0.854E-03
CGA:   6    -0.669890755314E+03   -0.92821E-02   -0.92830E-02  8424   0.105E-01 0.125E-04
CGA:   7    -0.669892943337E+03   -0.21880E-02   -0.22073E-02  8424   0.293E-02 0.669E-03
CGA:   8    -0.669893595007E+03   -0.65167E-03   -0.66278E-03  8424   0.783E-03 0.470E-03
CGA:   9    -0.669893750910E+03   -0.15590E-03   -0.17110E-03  8424   0.258E-03 0.322E-03
CGA:  10    -0.669893765322E+03   -0.14413E-04   -0.41992E-04  8424   0.143E-03 0.234E-03
CGA:  11    -0.669893759765E+03    0.55571E-05   -0.12019E-04  8424   0.108E-03 0.123E-03
  30 F= -.66989376E+03 E0= -.66989376E+03  d E =-.840707E-01  mag=     2.0000
       N       E                     dE             d eps       ncg     rms          ort
SDA:   1    -0.669456700237E+03    0.43707E+00    0.00000E+00  8424   0.128E+01 0.000E+00
CGA:   2    -0.669732347814E+03   -0.27565E+00   -0.27564E+00  8424   0.561E+00 0.140E-02
CGA:   3    -0.669848408559E+03   -0.11606E+00   -0.11606E+00  8424   0.171E+00-0.127E-04
CGA:   4    -0.669875785282E+03   -0.27377E-01   -0.27399E-01  8424   0.404E-01 0.410E-03
CGA:   5    -0.669882735269E+03   -0.69500E-02   -0.69695E-02  8424   0.846E-02 0.512E-03
CGA:   6    -0.669884348645E+03   -0.16134E-02   -0.16213E-02  8424   0.184E-02 0.427E-03
CGA:   7    -0.669884678361E+03   -0.32972E-03   -0.34329E-03  8424   0.495E-03 0.463E-03
CGA:   8    -0.669884733523E+03   -0.55162E-04   -0.79975E-04  8424   0.208E-03 0.324E-03
CGA:   9    -0.669884734896E+03   -0.13726E-05   -0.19088E-04  8424   0.135E-03 0.161E-03
  31 F= -.66988473E+03 E0= -.66988473E+03  d E =0.902487E-02  mag=     2.0000
       N       E                     dE             d eps       ncg     rms          ort
SDA:   1    -0.666692380889E+03    0.31924E+01    0.00000E+00  8424   0.970E+01 0.000E+00
CGA:   2    -0.668699074983E+03   -0.20067E+01   -0.20063E+01  8424   0.411E+01 0.179E-01
CGA:   3    -0.669568854599E+03   -0.86978E+00   -0.86994E+00  8424   0.132E+01-0.690E-02
CGA:   4    -0.669781787070E+03   -0.21293E+00   -0.21299E+00  8424   0.313E+00 0.127E-02
CGA:   5    -0.669835652492E+03   -0.53865E-01   -0.53895E-01  8424   0.661E-01 0.154E-02
CGA:   6    -0.669848635496E+03   -0.12983E-01   -0.12982E-01  8424   0.151E-01 0.867E-04
CGA:   7    -0.669851835940E+03   -0.32004E-02   -0.31827E-02  8424   0.418E-02 0.866E-03
CGA:   8    -0.669852817897E+03   -0.98196E-03   -0.96678E-03  8424   0.112E-02 0.538E-03
CGA:   9    -0.669853062014E+03   -0.24412E-03   -0.24373E-03  8424   0.358E-03 0.423E-03
CGA:  10    -0.669853099944E+03   -0.37930E-04   -0.59773E-04  8424   0.192E-03 0.309E-03
CGA:  11    -0.669853101707E+03   -0.17638E-05   -0.17516E-04  8424   0.141E-03 0.162E-03
CGA:  12    -0.669853097514E+03    0.41930E-05   -0.10161E-04  8424   0.119E-03 0.129E-03
  32 F= -.66985310E+03 E0= -.66985310E+03  d E =0.316374E-01  mag=     2.0000
       N       E                     dE             d eps       ncg     rms          ort
SDA:   1    -0.664292001914E+03    0.55611E+01    0.00000E+00  8424   0.179E+02 0.000E+00
CGA:   2    -0.667805753638E+03   -0.35138E+01   -0.35121E+01  8424   0.700E+01 0.519E-01
CGA:   3    -0.669304524242E+03   -0.14988E+01   -0.14995E+01  8424   0.239E+01-0.171E-01
CGA:   4    -0.669699057158E+03   -0.39453E+00   -0.39456E+00  8424   0.590E+00 0.212E-02
CGA:   5    -0.669800327915E+03   -0.10127E+00   -0.10128E+00  8424   0.125E+00 0.308E-02
CGA:   6    -0.669824791638E+03   -0.24464E-01   -0.24469E-01  8424   0.280E-01-0.277E-03
CGA:   7    -0.669830711048E+03   -0.59194E-02   -0.58639E-02  8424   0.774E-02 0.163E-02
CGA:   8    -0.669832544658E+03   -0.18336E-02   -0.17938E-02  8424   0.205E-02 0.957E-03
CGA:   9    -0.669833055612E+03   -0.51095E-03   -0.49167E-03  8424   0.606E-03 0.569E-03
CGA:  10    -0.669833136868E+03   -0.81256E-04   -0.10318E-03  8424   0.298E-03 0.458E-03
CGA:  11    -0.669833146879E+03   -0.10011E-04   -0.29288E-04  8424   0.203E-03 0.240E-03
CGA:  12    -0.669833144606E+03    0.22730E-05   -0.15642E-04  8424   0.167E-03 0.183E-03
CGA:  13    -0.669833138859E+03    0.57467E-05   -0.10724E-04  8424   0.146E-03 0.156E-03
  33 F= -.66983314E+03 E0= -.66983314E+03  d E =0.199587E-01  mag=     2.0000
       N       E                     dE             d eps       ncg     rms          ort
SDA:   1    -0.669708522926E+03    0.12462E+00    0.00000E+00  8424   0.436E+00 0.000E+00
CGA:   2    -0.669804860194E+03   -0.96337E-01   -0.96271E-01  8424   0.199E+00 0.101E-02
CGA:   3    -0.669845504241E+03   -0.40644E-01   -0.40619E-01  8424   0.589E-01 0.580E-03
CGA:   4    -0.669854883621E+03   -0.93794E-02   -0.93823E-02  8424   0.139E-01 0.509E-03
CGA:   5    -0.669857231983E+03   -0.23484E-02   -0.23464E-02  8424   0.277E-02 0.510E-03
CGA:   6    -0.669857710548E+03   -0.47857E-03   -0.47748E-03  8424   0.590E-03 0.525E-03
CGA:   7    -0.669857770572E+03   -0.60023E-04   -0.79369E-04  8424   0.244E-03 0.377E-03
CGA:   8    -0.669857771459E+03   -0.88743E-06   -0.18030E-04  8424   0.163E-03 0.195E-03
  34 F= -.66985777E+03 E0= -.66985777E+03  d E =-.246326E-01  mag=     2.0000
       N       E                     dE             d eps       ncg     rms          ort
SDA:   1    -0.664773426177E+03    0.50843E+01    0.00000E+00  8424   0.158E+02 0.000E+00
CGA:   2    -0.668006743058E+03   -0.32333E+01   -0.32306E+01  8424   0.653E+01 0.437E-01
CGA:   3    -0.669382571479E+03   -0.13758E+01   -0.13767E+01  8424   0.210E+01-0.154E-01
CGA:   4    -0.669725273646E+03   -0.34270E+00   -0.34268E+00  8424   0.514E+00 0.225E-02
CGA:   5    -0.669813985424E+03   -0.88712E-01   -0.88674E-01  8424   0.109E+00 0.243E-02
CGA:   6    -0.669835337738E+03   -0.21352E-01   -0.21372E-01  8424   0.248E-01-0.556E-03
CGA:   7    -0.669840634932E+03   -0.52972E-02   -0.52366E-02  8424   0.699E-02 0.116E-02
CGA:   8    -0.669842326354E+03   -0.16914E-02   -0.16490E-02  8424   0.192E-02 0.681E-03
CGA:   9    -0.669842813252E+03   -0.48690E-03   -0.46125E-03  8424   0.570E-03 0.481E-03
CGA:  10    -0.669842908579E+03   -0.95327E-04   -0.10436E-03  8424   0.270E-03 0.399E-03
CGA:  11    -0.669842928307E+03   -0.19728E-04   -0.30839E-04  8424   0.172E-03 0.208E-03
CGA:  12    -0.669842930815E+03   -0.25075E-05   -0.14782E-04  8424   0.140E-03 0.155E-03
  35 F= -.66984293E+03 E0= -.66984293E+03  d E =0.148406E-01  mag=     2.0000
       N       E                     dE             d eps       ncg     rms          ort
SDA:   1    -0.668106900042E+03    0.17360E+01    0.00000E+00  8424   0.560E+01 0.000E+00
CGA:   2    -0.669246776268E+03   -0.11399E+01   -0.11393E+01  8424   0.228E+01 0.110E-01
CGA:   3    -0.669728781705E+03   -0.48201E+00   -0.48214E+00  8424   0.748E+00-0.269E-02
CGA:   4    -0.669851240452E+03   -0.12246E+00   -0.12246E+00  8424   0.183E+00 0.852E-03
CGA:   5    -0.669882832979E+03   -0.31593E-01   -0.31578E-01  8424   0.380E-01 0.131E-02
CGA:   6    -0.669890275581E+03   -0.74426E-02   -0.74279E-02  8424   0.839E-02 0.454E-03
CGA:   7    -0.669891997365E+03   -0.17218E-02   -0.16852E-02  8424   0.222E-02 0.105E-02
CGA:   8    -0.669892451058E+03   -0.45369E-03   -0.44398E-03  8424   0.639E-03 0.790E-03
CGA:   9    -0.669892538042E+03   -0.86983E-04   -0.10743E-03  8424   0.293E-03 0.486E-03
CGA:  10    -0.669892542844E+03   -0.48023E-05   -0.24318E-04  8424   0.205E-03 0.241E-03
CGA:  11    -0.669892537426E+03    0.54179E-05   -0.12830E-04  8424   0.172E-03 0.187E-03
  36 F= -.66989254E+03 E0= -.66989254E+03  d E =-.496066E-01  mag=     2.0000
       N       E                     dE             d eps       ncg     rms          ort
SDA:   1    -0.668064567552E+03    0.18280E+01    0.00000E+00  8424   0.508E+01 0.000E+00
CGA:   2    -0.669219297705E+03   -0.11547E+01   -0.11540E+01  8424   0.239E+01 0.806E-02
CGA:   3    -0.669706503662E+03   -0.48721E+00   -0.48731E+00  8424   0.674E+00-0.225E-02
CGA:   4    -0.669814456398E+03   -0.10795E+00   -0.10795E+00  8424   0.157E+00 0.578E-03
CGA:   5    -0.669841467765E+03   -0.27011E-01   -0.26991E-01  8424   0.324E-01 0.131E-02
CGA:   6    -0.669847865830E+03   -0.63981E-02   -0.63627E-02  8424   0.727E-02 0.941E-03
CGA:   7    -0.669849364793E+03   -0.14990E-02   -0.14577E-02  8424   0.189E-02 0.115E-02
CGA:   8    -0.669849720343E+03   -0.35555E-03   -0.35481E-03  8424   0.625E-03 0.863E-03
CGA:   9    -0.669849785714E+03   -0.65371E-04   -0.96325E-04  8424   0.325E-03 0.562E-03
CGA:  10    -0.669849787084E+03   -0.13694E-05   -0.24447E-04  8424   0.244E-03 0.278E-03
CGA:  11    -0.669849779938E+03    0.71453E-05   -0.14251E-04  8424   0.208E-03 0.224E-03
CGA:  12    -0.669849770703E+03    0.92352E-05   -0.10306E-04  8424   0.186E-03 0.196E-03
  37 F= -.66984977E+03 E0= -.66984977E+03  d E =0.427667E-01  mag=     2.0000
       N       E                     dE             d eps       ncg     rms          ort
SDA:   1    -0.664502422032E+03    0.53474E+01    0.00000E+00  8424   0.167E+02 0.000E+00
CGA:   2    -0.667896269329E+03   -0.33938E+01   -0.33902E+01  8424   0.685E+01 0.502E-01
CGA:   3    -0.669354402306E+03   -0.14581E+01   -0.14593E+01  8424   0.226E+01-0.164E-01
CGA:   4    -0.669722190951E+03   -0.36779E+00   -0.36774E+00  8424   0.547E+00 0.234E-02
CGA:   5    -0.669816184424E+03   -0.93993E-01   -0.93927E-01  8424   0.114E+00 0.255E-02
CGA:   6    -0.669838737094E+03   -0.22553E-01   -0.22593E-01  8424   0.264E-01-0.836E-03
CGA:   7    -0.669844413636E+03   -0.56765E-02   -0.56133E-02  8424   0.746E-02 0.988E-03
CGA:   8    -0.669846241792E+03   -0.18282E-02   -0.17962E-02  8424   0.207E-02 0.406E-03
CGA:   9    -0.669846802257E+03   -0.56047E-03   -0.53847E-03  8424   0.631E-03 0.246E-03
CGA:  10    -0.669846938814E+03   -0.13656E-03   -0.12978E-03  8424   0.249E-03 0.311E-03
CGA:  11    -0.669846983535E+03   -0.44721E-04   -0.50680E-04  8424   0.131E-03 0.220E-03
CGA:  12    -0.669846993115E+03   -0.95795E-05   -0.14743E-04  8424   0.899E-04 0.105E-03
  38 F= -.66984699E+03 E0= -.66984699E+03  d E =0.277759E-02  mag=     2.0000
       N       E                     dE             d eps       ncg     rms          ort
SDA:   1    -0.668211818591E+03    0.16352E+01    0.00000E+00  8424   0.529E+01 0.000E+00
CGA:   2    -0.669281444515E+03   -0.10696E+01   -0.10690E+01  8424   0.214E+01 0.107E-01
CGA:   3    -0.669737534330E+03   -0.45609E+00   -0.45623E+00  8424   0.716E+00-0.269E-02
CGA:   4    -0.669854575529E+03   -0.11704E+00   -0.11704E+00  8424   0.174E+00 0.725E-03
CGA:   5    -0.669884444694E+03   -0.29869E-01   -0.29856E-01  8424   0.356E-01 0.117E-02
CGA:   6    -0.669891445490E+03   -0.70008E-02   -0.69895E-02  8424   0.793E-02 0.325E-03
CGA:   7    -0.669893078957E+03   -0.16335E-02   -0.15988E-02  8424   0.209E-02 0.933E-03
CGA:   8    -0.669893514084E+03   -0.43513E-03   -0.42342E-03  8424   0.581E-03 0.688E-03
CGA:   9    -0.669893599338E+03   -0.85254E-04   -0.10026E-03  8424   0.259E-03 0.421E-03
CGA:  10    -0.669893605238E+03   -0.59000E-05   -0.22301E-04  8424   0.179E-03 0.211E-03
CGA:  11    -0.669893601310E+03    0.39279E-05   -0.11603E-04  8424   0.150E-03 0.163E-03
