       N       E                     dE             d eps       ncg     rms          ort
DAV:   1     0.826649997851E+04    0.82665E+04   -0.24634E+05  8424   0.238E+03
DAV:   2     0.918737544212E+03   -0.73478E+04   -0.68972E+04  8424   0.656E+02
DAV:   3    -0.674643173834E+03   -0.15934E+04   -0.14005E+04  8424   0.282E+02
DAV:   4    -0.830511986258E+03   -0.15587E+03   -0.15317E+03  8424   0.856E+01
DAV:   5    -0.833006314789E+03   -0.24943E+01   -0.24835E+01  8424   0.121E+01
SDA:   6    -0.262216255464E+03    0.57079E+03   -0.24835E+01  8424   0.401E+04 0.000E+00
CGA:   7    -0.524999831887E+03   -0.26278E+03   -0.39151E+03  8424   0.524E+04-0.133E+03
CGA:   8    -0.529145958933E+03   -0.41461E+01   -0.23720E+03  8424   0.212E+04-0.153E+04
CGA:   9    -0.495197418176E+03    0.33949E+02   -0.75054E+02  8424   0.210E+04-0.986E+03
CGA:  10    -0.584347488913E+03   -0.89150E+02   -0.40152E+02  8424   0.824E+03-0.341E+03
CGA:  11    -0.620311416106E+03   -0.35964E+02   -0.51516E+02  8424   0.884E+03-0.275E+02
CGA:  12    -0.633752326705E+03   -0.13441E+02   -0.31928E+02  8424   0.622E+03-0.610E+02
CGA:  13    -0.644454492652E+03   -0.10702E+02   -0.19508E+02  8424   0.390E+03-0.530E+03
CGA:  14    -0.645921128256E+03   -0.14666E+01   -0.24554E+02  8424   0.567E+03-0.198E+03
CGA:  15    -0.648475680993E+03   -0.25546E+01   -0.29871E+02  8424   0.809E+03-0.577E+03
CGA:  16    -0.654308763940E+03   -0.58331E+01   -0.43646E+02  8424   0.240E+03-0.261E+03
CGA:  17    -0.662756858340E+03   -0.84481E+01   -0.55615E+01  8424   0.163E+02-0.907E+01
CGA:  18    -0.663438197868E+03   -0.68134E+00   -0.97290E+00  8424   0.307E+02-0.282E+01
CGA:  19    -0.664609101993E+03   -0.11709E+01   -0.13252E+01  8424   0.301E+02-0.159E+02
CGA:  20    -0.664995982241E+03   -0.38688E+00   -0.16254E+01  8424   0.302E+02-0.124E+02
CGA:  21    -0.665416820105E+03   -0.42084E+00   -0.78803E+00  8424   0.279E+02-0.989E+01
CGA:  22    -0.666032800285E+03   -0.61598E+00   -0.35910E+00  8424   0.126E+02 0.966E+01
CGA:  23    -0.666202108117E+03   -0.16931E+00   -0.49855E+00  8424   0.146E+02-0.917E+01
CGA:  24    -0.666463835886E+03   -0.26173E+00   -0.71891E+00  8424   0.659E+01-0.360E+01
CGA:  25    -0.666802991358E+03   -0.33916E+00   -0.34309E+00  8424   0.311E+01 0.211E+00
CGA:  26    -0.667009450983E+03   -0.20646E+00   -0.22358E+00  8424   0.223E+01-0.337E-01
CGA:  27    -0.667236239584E+03   -0.22679E+00   -0.24188E+00  8424   0.362E+01-0.157E+01
CGA:  28    -0.667314052703E+03   -0.77813E-01   -0.14873E+00  8424   0.161E+01-0.120E+01
CGA:  29    -0.667416757365E+03   -0.10270E+00   -0.10371E+00  8424   0.572E+00 0.108E+00
CGA:  30    -0.667494270261E+03   -0.77513E-01   -0.74738E-01  8424   0.746E+00 0.703E-01
CGA:  31    -0.667586345173E+03   -0.92075E-01   -0.99958E-01  8424   0.113E+01-0.316E+00
CGA:  32    -0.667614850446E+03   -0.28505E-01   -0.24865E-01  8424   0.145E+01 0.373E-01
CGA:  33    -0.667680484876E+03   -0.65634E-01   -0.64564E-01  8424   0.514E+00-0.405E-01
CGA:  34    -0.667717287209E+03   -0.36802E-01   -0.38611E-01  8424   0.496E+00-0.544E-02
CGA:  35    -0.667754053022E+03   -0.36766E-01   -0.36916E-01  8424   0.262E+00 0.256E-04
CGA:  36    -0.667795406860E+03   -0.41354E-01   -0.44888E-01  8424   0.263E+00-0.430E-01
CGA:  37    -0.667827830348E+03   -0.32423E-01   -0.32051E-01  8424   0.205E+00-0.590E-03
CGA:  38    -0.667854470615E+03   -0.26640E-01   -0.30168E-01  8424   0.290E+00-0.625E-01
CGA:  39    -0.667870042047E+03   -0.15571E-01   -0.15252E-01  8424   0.216E+00-0.166E-01
CGA:  40    -0.667884429490E+03   -0.14387E-01   -0.14086E-01  8424   0.151E+00-0.193E-01
CGA:  41    -0.667900534104E+03   -0.16105E-01   -0.16086E-01  8424   0.179E+00-0.175E-02
CGA:  42    -0.667918115766E+03   -0.17582E-01   -0.17491E-01  8424   0.202E+00-0.215E-01
CGA:  43    -0.667935243100E+03   -0.17127E-01   -0.16770E-01  8424   0.426E+00-0.347E-01
CGA:  44    -0.667960138298E+03   -0.24895E-01   -0.27360E-01  8424   0.567E+00-0.562E-02
CGA:  45    -0.667975318139E+03   -0.15180E-01   -0.86542E-02  8424   0.372E+00 0.353E+00
CGA:  46    -0.668010293217E+03   -0.34975E-01   -0.34945E-01  8424   0.267E+00-0.801E-02
CGA:  47    -0.668053563056E+03   -0.43270E-01   -0.42214E-01  8424   0.220E+00 0.132E-01
CGA:  48    -0.668144435008E+03   -0.90872E-01   -0.10128E+00  8424   0.328E+00-0.331E-01
CGA:  49    -0.668190622230E+03   -0.46187E-01   -0.48555E-01  8424   0.244E+00-0.398E-01
CGA:  50    -0.668232511790E+03   -0.41890E-01   -0.43111E-01  8424   0.232E+00-0.199E-01
CGA:  51    -0.668284284738E+03   -0.51773E-01   -0.54366E-01  8424   0.186E+00-0.178E-01
CGA:  52    -0.668326997129E+03   -0.42712E-01   -0.54762E-01  8424   0.142E+00-0.628E-01
CGA:  53    -0.668347238954E+03   -0.20242E-01   -0.31013E-01  8424   0.137E+00-0.548E-01
CGA:  54    -0.668363929025E+03   -0.16690E-01   -0.18870E-01  8424   0.701E-01-0.285E-01
CGA:  55    -0.668379269226E+03   -0.15340E-01   -0.17711E-01  8424   0.793E-01-0.143E-01
CGA:  56    -0.668394707124E+03   -0.15438E-01   -0.16254E-01  8424   0.570E-01-0.858E-02
CGA:  57    -0.668407908224E+03   -0.13201E-01   -0.13258E-01  8424   0.384E-01-0.709E-03
CGA:  58    -0.668416528594E+03   -0.86204E-02   -0.83423E-02  8424   0.235E-01 0.546E-02
CGA:  59    -0.668422835388E+03   -0.63068E-02   -0.59475E-02  8424   0.173E-01 0.733E-02
CGA:  60    -0.668428478679E+03   -0.56433E-02   -0.52432E-02  8424   0.103E-01 0.701E-02
CGA:  61    -0.668431739824E+03   -0.32611E-02   -0.31090E-02  8424   0.707E-02 0.407E-02
CGA:  62    -0.668434141648E+03   -0.24018E-02   -0.22297E-02  8424   0.403E-02 0.367E-02
CGA:  63    -0.668435260851E+03   -0.11192E-02   -0.10653E-02  8424   0.282E-02 0.645E-03
CGA:  64    -0.668436900054E+03   -0.16392E-02   -0.17034E-02  8424   0.483E-02-0.229E-03
CGA:  65    -0.668438583923E+03   -0.16839E-02   -0.16514E-02  8424   0.493E-02 0.809E-04
CGA:  66    -0.668440698337E+03   -0.21144E-02   -0.19578E-02  8424   0.462E-02 0.697E-03
CGA:  67    -0.668444020932E+03   -0.33226E-02   -0.37233E-02  8424   0.121E-01-0.120E-02
CGA:  68    -0.668446594748E+03   -0.25738E-02   -0.28785E-02  8424   0.144E-01-0.501E-02
CGA:  69    -0.668403016074E+03    0.43579E-01   -0.24256E-01  8424   0.265E+00-0.499E-01
CGA:  70    -0.668453836280E+03   -0.50820E-01   -0.50730E-01  8424   0.616E-01-0.204E-02
CGA:  71    -0.668473535972E+03   -0.19700E-01   -0.19596E-01  8424   0.304E-01-0.552E-03
CGA:  72    -0.668484930014E+03   -0.11394E-01   -0.11341E-01  8424   0.266E-01-0.134E-02
CGA:  73    -0.668492206819E+03   -0.72768E-02   -0.70739E-02  8424   0.171E-01-0.140E-02
CGA:  74    -0.668498948109E+03   -0.67413E-02   -0.67307E-02  8424   0.142E-01-0.164E-02
CGA:  75    -0.668506319391E+03   -0.73713E-02   -0.91213E-02  8424   0.175E-01-0.647E-02
CGA:  76    -0.668509061494E+03   -0.27421E-02   -0.21811E-02  8424   0.754E-02-0.291E-02
CGA:  77    -0.668510178662E+03   -0.11172E-02   -0.58203E-02  8424   0.437E-01-0.967E-02
CGA:  78    -0.668519584670E+03   -0.94060E-02   -0.89690E-02  8424   0.722E-02-0.198E-02
CGA:  79    -0.668522186092E+03   -0.26014E-02   -0.25547E-02  8424   0.659E-02-0.693E-03
CGA:  80    -0.668523230276E+03   -0.10442E-02   -0.71624E-02  8424   0.532E-01-0.816E-02
CGA:  81    -0.668531249337E+03   -0.80191E-02   -0.80740E-02  8424   0.758E-02-0.848E-03
CGA:  82    -0.668533644024E+03   -0.23947E-02   -0.22191E-02  8424   0.384E-02-0.107E-02
CGA:  83    -0.668535220575E+03   -0.15766E-02   -0.17555E-02  8424   0.692E-02-0.224E-02
CGA:  84    -0.668536670963E+03   -0.14504E-02   -0.12757E-02  8424   0.241E-02-0.602E-03
CGA:  85    -0.668531644776E+03    0.50262E-02   -0.35606E-02  8424   0.581E-01-0.732E-02
CGA:  86    -0.668540647098E+03   -0.90023E-02   -0.85295E-02  8424   0.104E-01 0.162E-02
CGA:  87    -0.668544112655E+03   -0.34656E-02   -0.32788E-02  8424   0.190E-02-0.109E-02
CGA:  88    -0.668545810295E+03   -0.16976E-02    0.78326E-02  8424   0.227E-02-0.452E-03
CGA:  89    -0.668548855958E+03   -0.30457E-02    0.47980E-03  8424   0.203E-02 0.860E-03
CGA:  90    -0.668553089977E+03   -0.42340E-02    0.11134E-02  8424   0.258E-02 0.706E-03
CGA:  91    -0.668560065460E+03   -0.69755E-02    0.73092E-03  8424   0.209E-02 0.196E-02
CGA:  92    -0.668561100605E+03   -0.10351E-02   -0.12568E-02  8424   0.516E-02-0.173E-02
CGA:  93    -0.668562673956E+03   -0.15734E-02   -0.12445E-02  8424   0.198E-02-0.142E-02
CGA:  94    -0.668564070076E+03   -0.13961E-02    0.81629E-02  8424   0.406E-02-0.787E-03
CGA:  95    -0.668568800275E+03   -0.47302E-02    0.53668E-03  8424   0.310E-02 0.116E-02
CGA:  96    -0.668573542139E+03   -0.47419E-02    0.34105E-02  8424   0.102E-01-0.190E-02
CGA:  97    -0.668574941846E+03   -0.13997E-02   -0.13292E-02  8424   0.646E-03 0.670E-05
CGA:  98    -0.668576039534E+03   -0.10977E-02    0.16529E-03  8424   0.107E-02 0.125E-03
CGA:  99    -0.668579442144E+03   -0.34026E-02    0.14750E-03  8424   0.852E-03 0.105E-02
CGA: 100    -0.668580601831E+03   -0.11597E-02    0.37710E-03  8424   0.122E-02-0.128E-03
CGA: 101    -0.668583341772E+03   -0.27399E-02    0.12115E-03  8424   0.161E-02 0.576E-03
CGA: 102    -0.668588347261E+03   -0.50055E-02    0.39764E-03  8424   0.140E-02 0.986E-03
CGA: 103    -0.668582314466E+03    0.60328E-02   -0.23462E-02  8424   0.561E-01-0.685E-02
CGA: 104    -0.668592763077E+03   -0.10449E-01   -0.10354E-01  8424   0.297E-02-0.923E-03
CGA: 105    -0.668593712588E+03   -0.94951E-03   -0.77619E-03  8424   0.127E-02-0.745E-03
CGA: 106    -0.668595627766E+03   -0.19152E-02    0.21534E-03  8424   0.717E-03 0.178E-03
CGA: 107    -0.668597639815E+03   -0.20120E-02    0.12835E-03  8424   0.897E-03 0.340E-03
CGA: 108    -0.668601541887E+03   -0.39021E-02    0.15657E-03  8424   0.674E-03 0.885E-03
CGA: 109    -0.668602617964E+03   -0.10761E-02    0.25159E-03  8424   0.220E-02-0.418E-03
CGA: 110    -0.668603116492E+03   -0.49853E-03   -0.37948E-03  8424   0.622E-03-0.411E-03
CGA: 111    -0.668604480890E+03   -0.13644E-02    0.63039E-04  8424   0.490E-03 0.269E-03
CGA: 112    -0.668606737209E+03   -0.22563E-02    0.67878E-04  8424   0.520E-03 0.457E-03
CGA: 113    -0.668607408760E+03   -0.67155E-03    0.32216E-03  8424   0.183E-02-0.314E-03
CGA: 114    -0.668608224414E+03   -0.81565E-03   -0.51218E-03  8424   0.271E-02-0.161E-02
CGA: 115    -0.668608663287E+03   -0.43887E-03   -0.38172E-03  8424   0.374E-03-0.168E-03
CGA: 116    -0.668609726261E+03   -0.10630E-02    0.32260E-04  8424   0.435E-03 0.246E-03
CGA: 117    -0.668610717239E+03   -0.99098E-03    0.61428E-04  8424   0.165E-02-0.210E-03
CGA: 118    -0.668614947484E+03   -0.42302E-02    0.41291E-04  8424   0.696E-02 0.172E-03
CGA: 119    -0.668635652664E+03   -0.20705E-01    0.83815E-03  8424   0.754E-02 0.184E-02
CGA: 120    -0.668657492299E+03   -0.21840E-01    0.13348E-02  8424   0.202E-01-0.526E-02
CGA: 121    -0.668660361526E+03   -0.28692E-02   -0.25311E-02  8424   0.687E-03-0.138E-02
CGA: 122    -0.668660623491E+03   -0.26196E-03   -0.18927E-03  8424   0.120E-02-0.552E-03
CGA: 123    -0.668660767747E+03   -0.14426E-03   -0.14667E-03  8424   0.157E-03 0.166E-05
CGA: 124    -0.668661076728E+03   -0.30898E-03    0.22316E-04  8424   0.200E-03 0.912E-04
CGA: 125    -0.668661461950E+03   -0.38522E-03    0.29667E-04  8424   0.370E-03-0.370E-04
CGA: 126    -0.668662330135E+03   -0.86818E-03    0.24034E-04  8424   0.486E-03 0.268E-03
CGA: 127    -0.668662488298E+03   -0.15816E-03   -0.13829E-03  8424   0.306E-03-0.164E-03
CGA: 128    -0.668663065467E+03   -0.57717E-03    0.15873E-04  8424   0.232E-03 0.174E-03
CGA: 129    -0.668663384929E+03   -0.31946E-03    0.64181E-04  8424   0.259E-03-0.299E-04
CGA: 130    -0.668664050336E+03   -0.66541E-03    0.16735E-04  8424   0.276E-03 0.215E-03
CGA: 131    -0.668664359167E+03   -0.30883E-03    0.13757E-03  8424   0.267E-03-0.543E-04
CGA: 132    -0.668664971782E+03   -0.61261E-03    0.16698E-04  8424   0.279E-03 0.193E-03
CGA: 133    -0.668665296297E+03   -0.32452E-03    0.12344E-03  8424   0.257E-03-0.433E-04
CGA: 134    -0.668665882490E+03   -0.58619E-03    0.18206E-04  8424   0.288E-03 0.167E-03
CGA: 135    -0.668666190517E+03   -0.30803E-03    0.16976E-03  8424   0.297E-03-0.571E-04
CGA: 136    -0.668666787745E+03   -0.59723E-03    0.22379E-04  8424   0.372E-03 0.130E-03
CGA: 137    -0.668667923512E+03   -0.11358E-02    0.64732E-04  8424   0.199E-03 0.324E-03
CGA: 138    -0.668668200846E+03   -0.27733E-03    0.53731E-04  8424   0.401E-03-0.361E-04
CGA: 139    -0.668669074310E+03   -0.87346E-03    0.28232E-04  8424   0.480E-03 0.231E-03
CGA: 140    -0.668669238327E+03   -0.16402E-03   -0.25300E-03  8424   0.232E-02-0.702E-03
CGA: 141    -0.668669628424E+03   -0.39010E-03   -0.34695E-03  8424   0.222E-03-0.196E-03
CGA: 142    -0.668669948061E+03   -0.31964E-03    0.39922E-04  8424   0.217E-03 0.288E-04
CGA: 143    -0.668670553575E+03   -0.60551E-03    0.22667E-04  8424   0.148E-03 0.223E-03
CGA: 144    -0.668670849282E+03   -0.29571E-03    0.19007E-04  8424   0.134E-03 0.755E-04
CGA: 145    -0.668671127514E+03   -0.27823E-03    0.16244E-04  8424   0.130E-03 0.839E-04
CGA: 146    -0.668671422775E+03   -0.29526E-03    0.13528E-04  8424   0.136E-03 0.839E-04
CGA: 147    -0.668671685396E+03   -0.26262E-03    0.18357E-04  8424   0.164E-03 0.699E-04
CGA: 148    -0.668671982263E+03   -0.29687E-03    0.24779E-04  8424   0.259E-03 0.187E-04
CGA: 149    -0.668672716910E+03   -0.73465E-03    0.25292E-04  8424   0.222E-03 0.277E-03
CGA: 150    -0.668672935262E+03   -0.21835E-03    0.17532E-03  8424   0.390E-03-0.635E-04
CGA: 151    -0.668673673913E+03   -0.73865E-03    0.23176E-04  8424   0.543E-03 0.234E-03
CGA: 152    -0.668673795230E+03   -0.12132E-03   -0.32198E-03  8424   0.316E-02-0.101E-02
CGA: 153    -0.668674285002E+03   -0.48977E-03   -0.49537E-03  8424   0.178E-03 0.336E-04
CGA: 154    -0.668674573086E+03   -0.28808E-03    0.33796E-04  8424   0.198E-03 0.345E-04
CGA: 155    -0.668675176266E+03   -0.60318E-03    0.20491E-04  8424   0.205E-03 0.233E-03
CGA: 156    -0.668675428397E+03   -0.25213E-03    0.69641E-04  8424   0.222E-03 0.942E-05
CGA: 157    -0.668675996747E+03   -0.56835E-03    0.21300E-04  8424   0.230E-03 0.204E-03
CGA: 158    -0.668676276773E+03   -0.28003E-03    0.80281E-04  8424   0.180E-03 0.146E-04
CGA: 159    -0.668676750900E+03   -0.47413E-03    0.17385E-04  8424   0.187E-03 0.189E-03
CGA: 160    -0.668677027145E+03   -0.27625E-03    0.41445E-04  8424   0.147E-03 0.530E-04
CGA: 161    -0.668677493588E+03   -0.46644E-03    0.16946E-04  8424   0.165E-03 0.184E-03
CGA: 162    -0.668677762563E+03   -0.26897E-03    0.29826E-04  8424   0.133E-03 0.699E-04
CGA: 163    -0.668678229871E+03   -0.46731E-03    0.17223E-04  8424   0.156E-03 0.182E-03
CGA: 164    -0.668678496974E+03   -0.26710E-03    0.25477E-04  8424   0.130E-03 0.749E-04
CGA: 165    -0.668678965908E+03   -0.46893E-03    0.17693E-04  8424   0.152E-03 0.182E-03
CGA: 166    -0.668679228258E+03   -0.26235E-03    0.24648E-04  8424   0.130E-03 0.751E-04
CGA: 167    -0.668679698093E+03   -0.46983E-03    0.18003E-04  8424   0.151E-03 0.181E-03
CGA: 168    -0.668679959427E+03   -0.26133E-03    0.24531E-04  8424   0.131E-03 0.730E-04
CGA: 169    -0.668680428838E+03   -0.46941E-03    0.18250E-04  8424   0.152E-03 0.180E-03
CGA: 170    -0.668680686378E+03   -0.25754E-03    0.25686E-04  8424   0.134E-03 0.695E-04
CGA: 171    -0.668681154811E+03   -0.46843E-03    0.18376E-04  8424   0.155E-03 0.178E-03
CGA: 172    -0.668681411439E+03   -0.25663E-03    0.27092E-04  8424   0.138E-03 0.647E-04
CGA: 173    -0.668681877818E+03   -0.46638E-03    0.18554E-04  8424   0.159E-03 0.175E-03
CGA: 174    -0.668682130947E+03   -0.25313E-03    0.30091E-04  8424   0.143E-03 0.585E-04
CGA: 175    -0.668682595468E+03   -0.46452E-03    0.18738E-04  8424   0.166E-03 0.171E-03
CGA: 176    -0.668682847767E+03   -0.25230E-03    0.34134E-04  8424   0.150E-03 0.505E-04
CGA: 177    -0.668683309113E+03   -0.46135E-03    0.19081E-04  8424   0.175E-03 0.166E-03
CGA: 178    -0.668683558287E+03   -0.24917E-03    0.41584E-04  8424   0.160E-03 0.403E-04
CGA: 179    -0.668684016566E+03   -0.45828E-03    0.19454E-04  8424   0.188E-03 0.159E-03
CGA: 180    -0.668684265084E+03   -0.24852E-03    0.52829E-04  8424   0.173E-03 0.270E-04
CGA: 181    -0.668684718651E+03   -0.45357E-03    0.20067E-04  8424   0.205E-03 0.149E-03
CGA: 182    -0.668684964605E+03   -0.24595E-03    0.75055E-04  8424   0.190E-03 0.101E-04
CGA: 183    -0.668685413250E+03   -0.44864E-03    0.20742E-04  8424   0.228E-03 0.138E-03
CGA: 184    -0.668685658796E+03   -0.24555E-03    0.11809E-03  8424   0.213E-03-0.121E-04
CGA: 185    -0.668686100684E+03   -0.44189E-03    0.21884E-04  8424   0.259E-03 0.122E-03
CGA: 186    -0.668686344644E+03   -0.24396E-03    0.24973E-03  8424   0.242E-03-0.407E-04
CGA: 187    -0.668686778524E+03   -0.43388E-03    0.23210E-04  8424   0.299E-03 0.102E-03
CGA: 188    -0.668687612772E+03   -0.83425E-03    0.55376E-04  8424   0.155E-03 0.296E-03
CGA: 189    -0.668687813422E+03   -0.20065E-03    0.46600E-04  8424   0.343E-03-0.350E-04
CGA: 190    -0.668688521092E+03   -0.70767E-03    0.21564E-04  8424   0.514E-03 0.240E-03
CGA: 191    -0.668688683765E+03   -0.16267E-03   -0.12253E-03  8424   0.408E-03-0.261E-03
CGA: 192    -0.668688818256E+03   -0.13449E-03   -0.10258E-03  8424   0.441E-03-0.246E-03
CGA: 193    -0.668688965834E+03   -0.14758E-03   -0.11040E-03  8424   0.501E-03-0.292E-03
CGA: 194    -0.668689097409E+03   -0.13158E-03   -0.99184E-04  8424   0.277E-03-0.191E-03
CGA: 195    -0.668689443862E+03   -0.34645E-03    0.17260E-04  8424   0.118E-03 0.148E-03
CGA: 196    -0.668689640664E+03   -0.19680E-03    0.16265E-04  8424   0.230E-03 0.184E-04
CGA: 197    -0.668690258747E+03   -0.61808E-03    0.21687E-04  8424   0.156E-03 0.256E-03
CGA: 198    -0.668690434466E+03   -0.17572E-03    0.50685E-04  8424   0.431E-03-0.740E-04
CGA: 199    -0.668691123606E+03   -0.68914E-03    0.12773E-04  8424   0.121E-02 0.138E-03
CGA: 200    -0.668693499973E+03   -0.23764E-02    0.27658E-03  8424   0.146E-02 0.132E-03
   1 F= -.66869350E+03 E0= -.66869350E+03  d E =-.668693E+03  mag=     4.0000
       N       E                     dE             d eps       ncg     rms          ort
SDA:   1    -0.668697694319E+03   -0.65707E-02    0.00000E+00  8424   0.515E-02 0.000E+00
CGA:   2    -0.668698238255E+03   -0.54394E-03   -0.57037E-03  8424   0.605E-03 0.103E-03
CGA:   3    -0.668698450797E+03   -0.21254E-03   -0.21107E-03  8424   0.744E-03-0.195E-03
CGA:   4    -0.668696171678E+03    0.22791E-02   -0.67738E-03  8424   0.193E-01-0.299E-02
CGA:   5    -0.668698512136E+03   -0.23405E-02   -0.23062E-02  8424   0.406E-02-0.107E-03
CGA:   6    -0.668699967294E+03   -0.14552E-02   -0.14348E-02  8424   0.277E-02-0.684E-03
CGA:   7    -0.668700523904E+03   -0.55661E-03   -0.45451E-03  8424   0.652E-03-0.553E-03
CGA:   8    -0.668700717594E+03   -0.19369E-03   -0.26638E-03  8424   0.140E-02-0.534E-03
CGA:   9    -0.668700999924E+03   -0.28233E-03   -0.24438E-03  8424   0.368E-03-0.187E-03
CGA:  10    -0.668701241464E+03   -0.24154E-03    0.28043E-02  8424   0.387E-03-0.122E-03
CGA:  11    -0.668701636806E+03   -0.39534E-03    0.45393E-04  8424   0.308E-03 0.440E-05
CGA:  12    -0.668702164355E+03   -0.52755E-03    0.44993E-04  8424   0.237E-03 0.727E-04
CGA:  13    -0.668702762217E+03   -0.59786E-03    0.30901E-04  8424   0.165E-03 0.175E-03
CGA:  14    -0.668702974328E+03   -0.21211E-03    0.41875E-04  8424   0.142E-03 0.212E-04
CGA:  15    -0.668703310717E+03   -0.33639E-03    0.16097E-04  8424   0.173E-03 0.472E-04
CGA:  16    -0.668703901149E+03   -0.59043E-03    0.17460E-04  8424   0.149E-03 0.166E-03
CGA:  17    -0.668704095067E+03   -0.19392E-03    0.36437E-04  8424   0.143E-03 0.281E-04
CGA:  18    -0.668704429586E+03   -0.33452E-03    0.19188E-04  8424   0.138E-03 0.652E-04
CGA:  19    -0.668704938079E+03   -0.50849E-03    0.15374E-04  8424   0.136E-03 0.144E-03
CGA:  20    -0.668705150179E+03   -0.21210E-03    0.22901E-04  8424   0.156E-03 0.300E-04
CGA:  21    -0.668705546025E+03   -0.39585E-03    0.19565E-04  8424   0.142E-03 0.688E-04
CGA:  22    -0.668706066185E+03   -0.52016E-03    0.15485E-04  8424   0.155E-03 0.136E-03
CGA:  23    -0.668706275439E+03   -0.20925E-03    0.35078E-04  8424   0.197E-03 0.108E-04
CGA:  24    -0.668706657953E+03   -0.38251E-03    0.26831E-04  8424   0.154E-03 0.698E-04
CGA:  25    -0.668707127119E+03   -0.46917E-03    0.18893E-04  8424   0.192E-03 0.102E-03
CGA:  26    -0.668707366925E+03   -0.23981E-03    0.52258E-04  8424   0.232E-03-0.241E-04
CGA:  27    -0.668707774717E+03   -0.40779E-03    0.21999E-04  8424   0.174E-03 0.793E-04
CGA:  28    -0.668708216170E+03   -0.44145E-03    0.27721E-04  8424   0.233E-03 0.604E-04
CGA:  29    -0.668709064838E+03   -0.84867E-03    0.22027E-04  8424   0.291E-03 0.247E-03
CGA:  30    -0.668709288018E+03   -0.22318E-03    0.15396E-02  8424   0.264E-03-0.109E-03
CGA:  31    -0.668709615470E+03   -0.32745E-03    0.18331E-04  8424   0.264E-03 0.762E-04
CGA:  32    -0.668710138987E+03   -0.52352E-03    0.58637E-04  8424   0.166E-03 0.684E-04
CGA:  33    -0.668710690512E+03   -0.55152E-03    0.15183E-04  8424   0.176E-03 0.164E-03
CGA:  34    -0.668710870056E+03   -0.17954E-03    0.87394E-04  8424   0.239E-03-0.386E-04
CGA:  35    -0.668711302245E+03   -0.43219E-03    0.16279E-04  8424   0.250E-03 0.773E-04
CGA:  36    -0.668711977495E+03   -0.67525E-03    0.34860E-04  8424   0.272E-03 0.137E-03
CGA:  37    -0.668712078248E+03   -0.10075E-03   -0.99550E-04  8424   0.765E-03-0.278E-03
CGA:  38    -0.668712253664E+03   -0.17542E-03   -0.13139E-03  8424   0.191E-03-0.218E-03
CGA:  39    -0.668712492162E+03   -0.23850E-03    0.17340E-04  8424   0.801E-04 0.676E-04
CGA:  40    -0.668712762211E+03   -0.27005E-03    0.79643E-05  8424   0.743E-04 0.943E-04
CGA:  41    -0.668712953542E+03   -0.19133E-03    0.52066E-05  8424   0.945E-04 0.509E-04
CGA:  42    -0.668713108121E+03   -0.15458E-03    0.13428E-04  8424   0.177E-03 0.105E-04
CGA:  43    -0.668713636603E+03   -0.52848E-03    0.13044E-04  8424   0.146E-03 0.192E-03
CGA:  44    -0.668713832390E+03   -0.19579E-03    0.30403E-04  8424   0.374E-03-0.884E-04
CGA:  45    -0.668713913050E+03   -0.80660E-04   -0.65887E-04  8424   0.138E-03-0.808E-04
CGA:  46    -0.668714167414E+03   -0.25436E-03    0.81516E-05  8424   0.802E-04 0.920E-04
CGA:  47    -0.668714362520E+03   -0.19511E-03    0.57118E-05  8424   0.124E-03 0.380E-04
CGA:  48    -0.668714817017E+03   -0.45450E-03    0.12629E-04  8424   0.760E-04 0.169E-03
CGA:  49    -0.668714972071E+03   -0.15505E-03    0.69990E-05  8424   0.100E-03 0.481E-04
CGA:  50    -0.668715175326E+03   -0.20326E-03    0.92673E-05  8424   0.194E-03 0.109E-05
CGA:  51    -0.668715708520E+03   -0.53319E-03    0.12033E-04  8424   0.195E-03 0.188E-03
CGA:  52    -0.668715774737E+03   -0.66218E-04   -0.62087E-04  8424   0.358E-03-0.127E-03
CGA:  53    -0.668713917677E+03    0.18571E-02   -0.44826E-03  8424   0.238E-01-0.256E-02
CGA:  54    -0.668716564708E+03   -0.26470E-02   -0.28603E-02  8424   0.219E-03 0.761E-03
CGA:  55    -0.668716627652E+03   -0.62943E-04   -0.53282E-04  8424   0.183E-03-0.671E-04
CGA:  56    -0.668716969265E+03   -0.34161E-03    0.91213E-05  8424   0.209E-03 0.933E-04
CGA:  57    -0.668717215473E+03   -0.24621E-03    0.67598E-04  8424   0.324E-03-0.126E-03
CGA:  58    -0.668717291799E+03   -0.76325E-04   -0.71002E-04  8424   0.110E-03-0.348E-04
CGA:  59    -0.668717555150E+03   -0.26335E-03    0.67705E-05  8424   0.906E-04 0.830E-04
CGA:  60    -0.668717757226E+03   -0.20208E-03    0.80888E-05  8424   0.904E-04 0.407E-04
CGA:  61    -0.668718117708E+03   -0.36048E-03    0.86889E-05  8424   0.920E-04 0.128E-03
CGA:  62    -0.668718293001E+03   -0.17529E-03    0.10505E-04  8424   0.828E-04 0.439E-04
CGA:  63    -0.668718641687E+03   -0.34869E-03    0.77281E-05  8424   0.909E-04 0.119E-03
CGA:  64    -0.668718829989E+03   -0.18830E-03    0.90719E-05  8424   0.779E-04 0.473E-04
CGA:  65    -0.668719008329E+03   -0.17834E-03    0.66829E-05  8424   0.764E-04 0.538E-04
CGA:  66    -0.668719192176E+03   -0.18385E-03    0.61090E-05  8424   0.911E-04 0.487E-04
CGA:  67    -0.668719361042E+03   -0.16887E-03    0.10874E-04  8424   0.158E-03 0.165E-04
CGA:  68    -0.668719858603E+03   -0.49756E-03    0.12961E-04  8424   0.116E-03 0.177E-03
CGA:  69    -0.668720041866E+03   -0.18326E-03    0.18420E-04  8424   0.213E-03-0.177E-04
CGA:  70    -0.668720547342E+03   -0.50548E-03    0.11632E-04  8424   0.258E-03 0.143E-03
CGA:  71    -0.668720628499E+03   -0.81158E-04   -0.13244E-03  8424   0.104E-02-0.349E-03
CGA:  72    -0.668720888221E+03   -0.25972E-03   -0.20522E-03  8424   0.299E-03-0.316E-03
CGA:  73    -0.668721123066E+03   -0.23484E-03    0.68683E-04  8424   0.279E-03-0.558E-04
CGA:  74    -0.668721504343E+03   -0.38128E-03    0.31803E-04  8424   0.850E-04 0.129E-03
CGA:  75    -0.668721827242E+03   -0.32290E-03    0.88234E-05  8424   0.118E-03 0.737E-04
CGA:  76    -0.668721953794E+03   -0.12655E-03    0.46143E-04  8424   0.264E-03-0.402E-04
CGA:  77    -0.668722454950E+03   -0.50116E-03    0.10735E-04  8424   0.477E-03 0.130E-03
CGA:  78    -0.668723669209E+03   -0.12143E-02    0.96817E-04  8424   0.987E-03-0.183E-04
CGA:  79    -0.668726380970E+03   -0.27118E-02    0.59173E-04  8424   0.154E-02 0.532E-03
CGA:  80    -0.668726534968E+03   -0.15400E-03   -0.18940E-03  8424   0.927E-04 0.150E-03
CGA:  81    -0.668726621721E+03   -0.86752E-04    0.85033E-04  8424   0.152E-03-0.195E-04
CGA:  82    -0.668726989454E+03   -0.36773E-03    0.62655E-05  8424   0.279E-03 0.837E-04
CGA:  83    -0.668727223725E+03   -0.23427E-03    0.25504E-03  8424   0.273E-03-0.166E-03
CGA:  84    -0.668727274993E+03   -0.51268E-04   -0.52632E-04  8424   0.733E-04 0.827E-05
CGA:  85    -0.668727441164E+03   -0.16617E-03    0.59173E-05  8424   0.913E-04 0.370E-04
CGA:  86    -0.668727606575E+03   -0.16541E-03    0.96386E-05  8424   0.106E-03 0.413E-05
CGA:  87    -0.668727896145E+03   -0.28957E-03    0.68615E-05  8424   0.113E-03 0.866E-04
CGA:  88    -0.668727997939E+03   -0.10179E-03    0.64029E-04  8424   0.850E-04-0.109E-06
CGA:  89    -0.668728240983E+03   -0.24304E-03    0.46388E-05  8424   0.872E-04 0.792E-04
CGA:  90    -0.668728390040E+03   -0.14906E-03    0.10142E-04  8424   0.646E-04 0.223E-04
CGA:  91    -0.668728611246E+03   -0.22121E-03    0.47180E-05  8424   0.736E-04 0.757E-04
CGA:  92    -0.668728734439E+03   -0.12319E-03    0.88742E-05  8424   0.564E-04 0.316E-04
CGA:  93    -0.668728957241E+03   -0.22280E-03    0.45982E-05  8424   0.667E-04 0.752E-04
CGA:  94    -0.668729091132E+03   -0.13389E-03    0.59982E-05  8424   0.517E-04 0.356E-04
CGA:  95    -0.668729212155E+03   -0.12102E-03    0.37177E-05  8424   0.506E-04 0.412E-04
CGA:  96    -0.668729337598E+03   -0.12544E-03    0.33434E-05  8424   0.567E-04 0.386E-04
CGA:  97    -0.668729456589E+03   -0.11899E-03    0.47734E-05  8424   0.791E-04 0.263E-04
CGA:  98    -0.668729752287E+03   -0.29570E-03    0.73504E-05  8424   0.515E-04 0.110E-03
CGA:  99    -0.668729876355E+03   -0.12407E-03    0.35517E-05  8424   0.639E-04 0.340E-04
CGA: 100    -0.668729985997E+03   -0.10964E-03    0.73683E-05  8424   0.114E-03 0.878E-05
CGA: 101    -0.668730316894E+03   -0.33090E-03    0.81782E-05  8424   0.871E-04 0.125E-03
CGA: 102    -0.668730436014E+03   -0.11912E-03    0.15191E-04  8424   0.201E-03-0.364E-04
CGA: 103    -0.668730811286E+03   -0.37527E-03    0.54989E-05  8424   0.423E-03 0.870E-04
CGA: 104    -0.668731687465E+03   -0.87618E-03    0.94980E-04  8424   0.737E-03-0.229E-04
CGA: 105    -0.668733381501E+03   -0.16940E-02    0.47423E-04  8424   0.630E-03 0.520E-03
CGA: 106    -0.668733546378E+03   -0.16488E-03   -0.11890E-03  8424   0.262E-03-0.297E-03
CGA: 107    -0.668733692702E+03   -0.14632E-03    0.40463E-04  8424   0.125E-03 0.341E-05
CGA: 108    -0.668732688807E+03    0.10039E-02   -0.54089E-03  8424   0.111E-01-0.705E-03
CGA: 109    -0.668734639032E+03   -0.19502E-02   -0.16088E-02  8424   0.406E-03-0.751E-03
CGA: 110    -0.668734701715E+03   -0.62682E-04   -0.57095E-04  8424   0.599E-04-0.140E-04
CGA: 111    -0.668734791083E+03   -0.89368E-04    0.45600E-04  8424   0.176E-03-0.211E-05
CGA: 112    -0.668735395264E+03   -0.60418E-03    0.22515E-04  8424   0.120E-03 0.100E-03
CGA: 113    -0.668735574838E+03   -0.17957E-03    0.10777E-03  8424   0.369E-03-0.772E-04
CGA: 114    -0.668735591316E+03   -0.16478E-04   -0.43842E-04  8424   0.454E-04 0.612E-04
CGA: 115    -0.668735616406E+03   -0.25090E-04   -0.45473E-04  8424   0.499E-03-0.657E-04
CGA: 116    -0.668735887565E+03   -0.27116E-03   -0.16059E-03  8424   0.605E-03-0.461E-03
CGA: 117    -0.668735897215E+03   -0.96498E-05   -0.71203E-04  8424   0.573E-04 0.143E-03
CGA: 118    -0.668735898939E+03   -0.17240E-05   -0.10416E-04  8424   0.360E-04 0.227E-04
   2 F= -.66873590E+03 E0= -.66873590E+03  d E =-.423990E-01  mag=     4.0000
       N       E                     dE             d eps       ncg     rms          ort
SDA:   1    -0.668736771334E+03   -0.87412E-03    0.00000E+00  8424   0.134E-02 0.000E+00
CGA:   2    -0.668736866403E+03   -0.95069E-04   -0.16613E-03  8424   0.165E-03 0.185E-03
CGA:   3    -0.668736908703E+03   -0.42299E-04   -0.46366E-04  8424   0.141E-03 0.165E-04
CGA:   4    -0.668736598903E+03    0.30980E-03   -0.21767E-03  8424   0.328E-02-0.576E-03
CGA:   5    -0.668737076141E+03   -0.47724E-03   -0.46351E-03  8424   0.100E-02-0.368E-04
CGA:   6    -0.668737440301E+03   -0.36416E-03   -0.31833E-03  8424   0.681E-03-0.249E-03
CGA:   7    -0.668737629553E+03   -0.18925E-03   -0.13133E-03  8424   0.301E-03-0.243E-03
CGA:   8    -0.668737700026E+03   -0.70473E-04   -0.65992E-04  8424   0.179E-03-0.320E-04
CGA:   9    -0.668737725189E+03   -0.25163E-04   -0.13957E-03  8424   0.155E-02-0.290E-03
CGA:  10    -0.668738010718E+03   -0.28553E-03   -0.25051E-03  8424   0.162E-03-0.104E-03
CGA:  11    -0.668737639474E+03    0.37124E-03   -0.24198E-03  8424   0.368E-02-0.550E-03
CGA:  12    -0.668738258476E+03   -0.61900E-03   -0.62934E-03  8424   0.507E-03 0.281E-04
CGA:  13    -0.668738394405E+03   -0.13593E-03   -0.13775E-03  8424   0.124E-03 0.687E-05
CGA:  14    -0.668738439668E+03   -0.45262E-04   -0.36254E-04  8424   0.107E-03-0.418E-04
CGA:  15    -0.668738554285E+03   -0.11462E-03    0.27452E-04  8424   0.117E-03 0.460E-05
CGA:  16    -0.668738784773E+03   -0.23049E-03    0.32888E-04  8424   0.116E-03 0.387E-04
CGA:  17    -0.668739093548E+03   -0.30878E-03    0.37613E-04  8424   0.102E-03 0.731E-04
CGA:  18    -0.668739142923E+03   -0.49375E-04   -0.42161E-04  8424   0.315E-03-0.915E-04
CGA:  19    -0.668739183862E+03   -0.40939E-04   -0.39163E-04  8424   0.308E-04-0.388E-05
CGA:  20    -0.668739234034E+03   -0.50172E-04    0.96043E-05  8424   0.336E-04 0.199E-04
CGA:  21    -0.668739306128E+03   -0.72093E-04    0.62162E-05  8424   0.707E-04 0.149E-05
CGA:  22    -0.668739465010E+03   -0.15888E-03    0.13587E-04  8424   0.674E-04 0.586E-04
CGA:  23    -0.668739483671E+03   -0.18661E-04   -0.19573E-04  8424   0.369E-04 0.490E-05
CGA:  24    -0.668739567661E+03   -0.83990E-04    0.70581E-05  8424   0.468E-04 0.195E-04
CGA:  25    -0.668739006498E+03    0.56116E-03   -0.30243E-03  8424   0.427E-02-0.279E-03
CGA:  26    -0.668739780257E+03   -0.77376E-03   -0.72370E-03  8424   0.708E-03-0.123E-03
CGA:  27    -0.668739933963E+03   -0.15371E-03   -0.14580E-03  8424   0.554E-04-0.128E-04
CGA:  28    -0.668739941364E+03   -0.74013E-05   -0.12422E-04  8424   0.311E-04 0.899E-05
CGA:  29    -0.668740039678E+03   -0.98314E-04    0.16772E-04  8424   0.598E-04 0.173E-04
CGA:  30    -0.666285204071E+03    0.24548E+01   -0.14434E-03  8424   0.789E+01-0.389E+00
CGA:  31    -0.668729566080E+03   -0.24444E+01   -0.40410E+01  8424   0.525E-01-0.159E-01
CGA:  32    -0.668724926680E+03    0.46394E-02   -0.75580E-02  8424   0.294E-01 0.609E-02
CGA:  33    -0.668652631058E+03    0.72296E-01   -0.38373E-02  8424   0.181E+00 0.368E-01
CGA:  34    -0.668645199809E+03    0.74312E-02   -0.50992E-01  8424   0.191E+00 0.869E-01
CGA:  35    -0.668492712726E+03    0.15249E+00   -0.51067E-01  8424   0.333E+00 0.267E+00
CGA:  36    -0.668565598163E+03   -0.72885E-01   -0.10561E+00  8424   0.296E+00 0.217E+00
CGA:  37    -0.668687132036E+03   -0.12153E+00   -0.13768E+00  8424   0.192E+00 0.114E-01
CGA:  38    -0.668719493322E+03   -0.32361E-01   -0.41125E-01  8424   0.472E-01 0.426E-02
CGA:  39    -0.668735404172E+03   -0.15911E-01   -0.15191E-01  8424   0.148E-01-0.218E-02
CGA:  40    -0.668737456881E+03   -0.20527E-02   -0.23850E-02  8424   0.262E-02 0.619E-03
CGA:  41    -0.668739163948E+03   -0.17071E-02   -0.17023E-02  8424   0.233E-02-0.200E-03
CGA:  42    -0.668740102839E+03   -0.93889E-03   -0.74027E-03  8424   0.194E-02-0.469E-03
CGA:  43    -0.668740386257E+03   -0.28342E-03   -0.30413E-03  8424   0.412E-03 0.960E-04
CGA:  44    -0.668740419337E+03   -0.33081E-04   -0.77157E-04  8424   0.225E-03 0.112E-03
CGA:  45    -0.668740548636E+03   -0.12930E-03   -0.12728E-03  8424   0.377E-03-0.186E-04
CGA:  46    -0.668740686897E+03   -0.13826E-03   -0.87886E-04  8424   0.187E-03-0.159E-03
CGA:  47    -0.668740719241E+03   -0.32343E-04   -0.23673E-04  8424   0.167E-03-0.242E-04
CGA:  48    -0.668740752812E+03   -0.33571E-04   -0.34017E-04  8424   0.147E-03 0.562E-05
CGA:  49    -0.668740826943E+03   -0.74131E-04   -0.66272E-04  8424   0.230E-03-0.108E-03
CGA:  50    -0.668740927714E+03   -0.10077E-03   -0.88111E-04  8424   0.362E-03-0.106E-03
CGA:  51    -0.668740980703E+03   -0.52989E-04   -0.45171E-04  8424   0.220E-03-0.281E-04
CGA:  52    -0.668740996098E+03   -0.15394E-04   -0.26607E-04  8424   0.106E-03 0.323E-04
CGA:  53    -0.668741010188E+03   -0.14091E-04   -0.21420E-04  8424   0.684E-04 0.256E-04
CGA:  54    -0.668741044008E+03   -0.33819E-04   -0.27098E-04  8424   0.111E-03-0.511E-04
CGA:  55    -0.668741074623E+03   -0.30616E-04   -0.23601E-04  8424   0.518E-04-0.304E-04
CGA:  56    -0.668740996257E+03    0.78367E-04   -0.53694E-04  8424   0.116E-02-0.134E-03
CGA:  57    -0.668741132711E+03   -0.13645E-03   -0.15079E-03  8424   0.108E-03 0.332E-04
CGA:  58    -0.668741166054E+03   -0.33343E-04   -0.32721E-04  8424   0.272E-04-0.370E-05
CGA:  59    -0.668741190421E+03   -0.24367E-04    0.34197E-03  8424   0.270E-04-0.620E-05
CGA:  60    -0.668741217378E+03   -0.26957E-04    0.11428E-04  8424   0.299E-04 0.135E-04
CGA:  61    -0.668741230963E+03   -0.13585E-04   -0.13526E-04  8424   0.536E-04-0.138E-04
CGA:  62    -0.668741242177E+03   -0.11214E-04   -0.17324E-04  8424   0.144E-03-0.425E-04
CGA:  63    -0.668741284870E+03   -0.42693E-04   -0.39254E-04  8424   0.585E-04-0.181E-04
CGA:  64    -0.668741297701E+03   -0.12831E-04   -0.12414E-04  8424   0.221E-04-0.209E-05
CGA:  65    -0.668741304749E+03   -0.70481E-05   -0.18634E-04  8424   0.113E-03-0.272E-04
CGA:  66    -0.668741334186E+03   -0.29437E-04   -0.27784E-04  8424   0.206E-04-0.756E-05
CGA:  67    -0.668741332249E+03    0.19376E-05   -0.19268E-04  8424   0.285E-03-0.389E-04
CGA:  68    -0.668741362955E+03   -0.30706E-04   -0.34813E-04  8424   0.139E-04 0.102E-04
CGA:  69    -0.668741367998E+03   -0.50429E-05   -0.19066E-04  8424   0.906E-04-0.164E-04
CGA:  70    -0.668741395243E+03   -0.27245E-04   -0.23783E-04  8424   0.350E-04-0.142E-04
CGA:  71    -0.668741402700E+03   -0.74570E-05   -0.73928E-05  8424   0.165E-04-0.332E-06
CGA:  72    -0.668741411606E+03   -0.89061E-05   -0.14339E-04  8424   0.654E-04-0.140E-04
CGA:  73    -0.668741432301E+03   -0.20695E-04   -0.18461E-04  8424   0.166E-04-0.102E-04
CGA:  74    -0.668741441058E+03   -0.87571E-05   -0.11423E-04  8424   0.529E-04-0.833E-05
   3 F= -.66874144E+03 E0= -.66874144E+03  d E =-.554212E-02  mag=     4.0000
       N       E                     dE             d eps       ncg     rms          ort
SDA:   1    -0.661383311155E+03    0.73581E+01    0.00000E+00  8424   0.213E+02 0.000E+00
CGA:   2    -0.666578026527E+03   -0.51947E+01   -0.52015E+01  8424   0.929E+01 0.347E-02
CGA:   3    -0.668326557545E+03   -0.17485E+01   -0.17503E+01  8424   0.259E+01 0.130E-01
CGA:   4    -0.668769842794E+03   -0.44329E+00   -0.44401E+00  8424   0.689E+00 0.794E-03
CGA:   5    -0.668885720585E+03   -0.11588E+00   -0.11596E+00  8424   0.133E+00 0.122E-03
CGA:   6    -0.668912310634E+03   -0.26590E-01   -0.26585E-01  8424   0.333E-01-0.677E-04
CGA:   7    -0.668919943238E+03   -0.76326E-02   -0.76855E-02  8424   0.116E-01 0.268E-03
CGA:   8    -0.668922821078E+03   -0.28778E-02   -0.29391E-02  8424   0.415E-02 0.370E-03
CGA:   9    -0.668923942706E+03   -0.11216E-02   -0.11608E-02  8424   0.159E-02 0.288E-03
CGA:  10    -0.668924424751E+03   -0.48204E-03   -0.50749E-03  8424   0.708E-03 0.252E-03
CGA:  11    -0.668924632614E+03   -0.20786E-03   -0.23081E-03  8424   0.307E-03 0.202E-03
CGA:  12    -0.668924712513E+03   -0.79899E-04   -0.10302E-03  8424   0.183E-03 0.180E-03
CGA:  13    -0.668924754285E+03   -0.41771E-04   -0.51525E-04  8424   0.110E-03 0.969E-04
CGA:  14    -0.668924779248E+03   -0.24963E-04   -0.32235E-04  8424   0.921E-04 0.864E-04
CGA:  15    -0.668924798339E+03   -0.19091E-04   -0.26156E-04  8424   0.816E-04 0.798E-04
CGA:  16    -0.668924816331E+03   -0.17992E-04   -0.23716E-04  8424   0.751E-04 0.737E-04
CGA:  17    -0.668924830754E+03   -0.14423E-04   -0.20585E-04  8424   0.706E-04 0.681E-04
CGA:  18    -0.668924846286E+03   -0.15532E-04   -0.20181E-04  8424   0.679E-04 0.627E-04
CGA:  19    -0.668924857459E+03   -0.11173E-04   -0.17174E-04  8424   0.651E-04 0.581E-04
CGA:  20    -0.668924872682E+03   -0.15224E-04   -0.18657E-04  8424   0.658E-04 0.531E-04
CGA:  21    -0.668924880800E+03   -0.81178E-05   -0.14475E-04  8424   0.614E-04 0.496E-04
CGA:  22    -0.668924896873E+03   -0.16073E-04   -0.18148E-04  8424   0.666E-04 0.453E-04
CGA:  23    -0.668924902794E+03   -0.59201E-05   -0.12539E-04  8424   0.570E-04 0.437E-04
CGA:  24    -0.668924920093E+03   -0.17299E-04   -0.17955E-04  8424   0.662E-04 0.409E-04
CGA:  25    -0.668924924818E+03   -0.47250E-05   -0.11239E-04  8424   0.527E-04 0.403E-04
CGA:  26    -0.668924943389E+03   -0.18571E-04   -0.17892E-04  8424   0.649E-04 0.383E-04
CGA:  27    -0.668924947467E+03   -0.40778E-05   -0.10306E-04  8424   0.492E-04 0.377E-04
CGA:  28    -0.668924967348E+03   -0.19881E-04   -0.18016E-04  8424   0.646E-04 0.358E-04
CGA:  29    -0.668924971096E+03   -0.37484E-05   -0.96802E-05  8424   0.463E-04 0.351E-04
CGA:  30    -0.668924992337E+03   -0.21241E-04   -0.18304E-04  8424   0.655E-04 0.333E-04
CGA:  31    -0.668924996023E+03   -0.36857E-05   -0.93123E-05  8424   0.437E-04 0.327E-04
CGA:  32    -0.668925009944E+03   -0.13921E-04   -0.16789E-04  8424   0.696E-04 0.582E-04
CGA:  33    -0.668925029210E+03   -0.19266E-04   -0.18975E-04  8424   0.117E-03-0.102E-04
CGA:  34    -0.668925076292E+03   -0.47083E-04   -0.38686E-04  8424   0.141E-03 0.945E-04
CGA:  35    -0.668925084109E+03   -0.78163E-05   -0.14741E-04  8424   0.347E-04 0.344E-04
   4 F= -.66892508E+03 E0= -.66892508E+03  d E =-.183643E+00  mag=     4.0000
       N       E                     dE             d eps       ncg     rms          ort
SDA:   1    -0.668493269040E+03    0.43181E+00    0.00000E+00  8424   0.149E+01 0.000E+00
CGA:   2    -0.668796050904E+03   -0.30278E+00   -0.30276E+00  8424   0.583E+00 0.482E-03
CGA:   3    -0.668921114896E+03   -0.12506E+00   -0.12506E+00  8424   0.194E+00-0.119E-03
CGA:   4    -0.668953591260E+03   -0.32476E-01   -0.32495E-01  8424   0.485E-01 0.817E-04
CGA:   5    -0.668961903560E+03   -0.83123E-02   -0.83072E-02  8424   0.983E-02-0.613E-04
CGA:   6    -0.668963922624E+03   -0.20191E-02   -0.20037E-02  8424   0.241E-02-0.230E-03
CGA:   7    -0.668964468935E+03   -0.54631E-03   -0.54513E-03  8424   0.772E-03-0.335E-04
CGA:   8    -0.668964669611E+03   -0.20068E-03   -0.20059E-03  8424   0.296E-03-0.309E-04
CGA:   9    -0.668964752045E+03   -0.82434E-04   -0.16663E-03  8424   0.710E-03-0.264E-03
CGA:  10    -0.668964887398E+03   -0.13535E-03   -0.13352E-03  8424   0.138E-03-0.198E-04
CGA:  11    -0.668964973021E+03   -0.85623E-04    0.12655E-03  8424   0.586E-04 0.311E-04
CGA:  12    -0.668965036518E+03   -0.63498E-04    0.16707E-04  8424   0.484E-04 0.460E-04
CGA:  13    -0.668965074538E+03   -0.38020E-04    0.16191E-04  8424   0.371E-04 0.298E-04
CGA:  14    -0.668965115704E+03   -0.41166E-04    0.51531E-05  8424   0.340E-04 0.305E-04
CGA:  15    -0.668965151521E+03   -0.35817E-04    0.52667E-05  8424   0.324E-04 0.309E-04
CGA:  16    -0.668965191899E+03   -0.40378E-04    0.36131E-05  8424   0.315E-04 0.305E-04
CGA:  17    -0.668965225909E+03   -0.34010E-04    0.46374E-05  8424   0.311E-04 0.298E-04
CGA:  18    -0.668965266236E+03   -0.40327E-04    0.32227E-05  8424   0.311E-04 0.287E-04
CGA:  19    -0.668965297754E+03   -0.31518E-04    0.52153E-05  8424   0.320E-04 0.271E-04
CGA:  20    -0.668965338944E+03   -0.41190E-04    0.33561E-05  8424   0.348E-04 0.242E-04
CGA:  21    -0.668965366024E+03   -0.27079E-04    0.11943E-04  8424   0.420E-04 0.185E-04
CGA:  22    -0.668965408917E+03   -0.42893E-04    0.69476E-05  8424   0.600E-04 0.600E-05
CGA:  23    -0.668965494929E+03   -0.86012E-04    0.75415E-05  8424   0.491E-04 0.664E-04
CGA:  24    -0.668965509924E+03   -0.14995E-04   -0.15843E-04  8424   0.112E-03-0.191E-04
CGA:  25    -0.668965602020E+03   -0.92096E-04    0.69017E-05  8424   0.207E-03 0.584E-04
CGA:  26    -0.668965659394E+03   -0.57373E-04   -0.49869E-04  8424   0.290E-03-0.196E-03
CGA:  27    -0.668965682432E+03   -0.23038E-04   -0.29729E-04  8424   0.242E-04 0.380E-04
CGA:  28    -0.668965704251E+03   -0.21820E-04    0.76075E-05  8424   0.454E-04 0.140E-04
CGA:  29    -0.668965747045E+03   -0.42794E-04    0.81091E-05  8424   0.740E-04-0.116E-04
CGA:  30    -0.668965827618E+03   -0.80572E-04    0.43241E-05  8424   0.945E-04 0.524E-04
CGA:  31    -0.668965834668E+03   -0.70505E-05   -0.10299E-04  8424   0.212E-04 0.202E-04
   5 F= -.66896583E+03 E0= -.66896583E+03  d E =-.407506E-01  mag=     4.0000
       N       E                     dE             d eps       ncg     rms          ort
SDA:   1    -0.667988401733E+03    0.97743E+00    0.00000E+00  8424   0.286E+01 0.000E+00
CGA:   2    -0.668670096930E+03   -0.68170E+00   -0.68159E+00  8424   0.126E+01-0.233E-02
CGA:   3    -0.668922870002E+03   -0.25277E+00   -0.25284E+00  8424   0.350E+00 0.541E-03
CGA:   4    -0.668981173131E+03   -0.58303E-01   -0.58346E-01  8424   0.868E-01 0.334E-03
CGA:   5    -0.668996050189E+03   -0.14877E-01   -0.14854E-01  8424   0.177E-01-0.303E-03
CGA:   6    -0.668999764809E+03   -0.37146E-02   -0.36943E-02  8424   0.480E-02-0.527E-03
CGA:   7    -0.669000876226E+03   -0.11114E-02   -0.11101E-02  8424   0.161E-02-0.167E-03
CGA:   8    -0.669001310637E+03   -0.43441E-03   -0.44007E-03  8424   0.726E-03-0.156E-03
CGA:   9    -0.669001377242E+03   -0.66605E-04   -0.44755E-03  8424   0.255E-02-0.879E-03
CGA:  10    -0.669001835669E+03   -0.45843E-03   -0.45050E-03  8424   0.381E-03-0.859E-04
CGA:  11    -0.669002038123E+03   -0.20245E-03    0.13254E-02  8424   0.119E-03 0.598E-04
CGA:  12    -0.669002165598E+03   -0.12747E-03    0.24525E-04  8424   0.753E-04 0.724E-04
CGA:  13    -0.669002244029E+03   -0.78431E-04    0.10344E-04  8424   0.559E-04 0.489E-04
CGA:  14    -0.669002323347E+03   -0.79318E-04    0.44058E-05  8424   0.504E-04 0.479E-04
CGA:  15    -0.669002397648E+03   -0.74300E-04    0.37468E-05  8424   0.476E-04 0.470E-04
CGA:  16    -0.669002473325E+03   -0.75677E-04    0.31529E-05  8424   0.459E-04 0.456E-04
CGA:  17    -0.669002544902E+03   -0.71577E-04    0.31223E-05  8424   0.446E-04 0.441E-04
CGA:  18    -0.669002618148E+03   -0.73246E-04    0.28115E-05  8424   0.437E-04 0.426E-04
CGA:  19    -0.669002686784E+03   -0.68636E-04    0.29501E-05  8424   0.434E-04 0.408E-04
CGA:  20    -0.669002758428E+03   -0.71644E-04    0.27192E-05  8424   0.441E-04 0.385E-04
CGA:  21    -0.669002823325E+03   -0.64897E-04    0.32886E-05  8424   0.469E-04 0.350E-04
CGA:  22    -0.669002894047E+03   -0.70722E-04    0.33611E-05  8424   0.539E-04 0.286E-04
CGA:  23    -0.669002952873E+03   -0.58826E-04    0.67440E-05  8424   0.705E-04 0.160E-04
CGA:  24    -0.669003106942E+03   -0.15407E-03    0.55494E-05  8424   0.534E-04 0.881E-04
CGA:  25    -0.669003174972E+03   -0.68030E-04    0.50408E-05  8424   0.724E-04 0.102E-04
CGA:  26    -0.669003323985E+03   -0.14901E-03    0.50611E-05  8424   0.581E-04 0.835E-04
CGA:  27    -0.669003371920E+03   -0.47935E-04    0.13830E-04  8424   0.866E-04-0.287E-05
CGA:  28    -0.669003519634E+03   -0.14771E-03    0.45688E-05  8424   0.859E-04 0.797E-04
CGA:  29    -0.669003586118E+03   -0.66483E-04    0.24714E-04  8424   0.149E-03-0.484E-04
CGA:  30    -0.669003616860E+03   -0.30743E-04   -0.26477E-04  8424   0.845E-04-0.492E-04
CGA:  31    -0.669003707339E+03   -0.90479E-04    0.35638E-05  8424   0.493E-04 0.521E-04
CGA:  32    -0.669003770571E+03   -0.63232E-04    0.44036E-05  8424   0.688E-04 0.142E-05
CGA:  33    -0.669003900843E+03   -0.13027E-03    0.36457E-05  8424   0.634E-04 0.688E-04
CGA:  34    -0.669003295064E+03    0.60578E-03   -0.32883E-03  8424   0.771E-02-0.496E-03
CGA:  35    -0.669004243989E+03   -0.94893E-03   -0.85624E-03  8424   0.478E-04-0.229E-03
CGA:  36    -0.669004331668E+03   -0.87679E-04    0.99173E-05  8424   0.167E-03-0.276E-04
CGA:  37    -0.669004354221E+03   -0.22552E-04   -0.22407E-04  8424   0.313E-04-0.494E-06
CGA:  38    -0.669004441364E+03   -0.87144E-04    0.31768E-05  8424   0.371E-04 0.211E-04
CGA:  39    -0.669004525298E+03   -0.83934E-04    0.52230E-05  8424   0.687E-04-0.291E-05
CGA:  40    -0.669004723811E+03   -0.19851E-03    0.54676E-05  8424   0.780E-04 0.503E-04
CGA:  41    -0.669004706915E+03    0.16896E-04   -0.72095E-04  8424   0.753E-03-0.185E-03
CGA:  42    -0.669004906691E+03   -0.19978E-03   -0.17228E-03  8424   0.822E-04-0.117E-03
CGA:  43    -0.669004935752E+03   -0.29060E-04   -0.44742E-04  8424   0.270E-03-0.825E-04
CGA:  44    -0.669005055680E+03   -0.11993E-03   -0.92834E-04  8424   0.291E-03-0.228E-03
CGA:  45    -0.669005076876E+03   -0.21195E-04   -0.39333E-04  8424   0.273E-04 0.564E-04
CGA:  46    -0.669005114472E+03   -0.37596E-04    0.23384E-04  8424   0.760E-04-0.151E-04
CGA:  47    -0.669005205890E+03   -0.91418E-04    0.46016E-04  8424   0.137E-03-0.677E-04
CGA:  48    -0.669005218764E+03   -0.12874E-04   -0.21608E-04  8424   0.196E-04 0.308E-04
CGA:  49    -0.669005265009E+03   -0.46245E-04    0.40854E-05  8424   0.428E-04 0.181E-05
CGA:  50    -0.669005442637E+03   -0.17763E-03    0.28905E-05  8424   0.961E-04 0.354E-04
CGA:  51    -0.669005417192E+03    0.25445E-04   -0.82058E-04  8424   0.868E-03-0.252E-03
CGA:  52    -0.669005587102E+03   -0.16991E-03   -0.17424E-03  8424   0.229E-04 0.166E-04
CGA:  53    -0.669005618395E+03   -0.31293E-04    0.93902E-05  8424   0.486E-04-0.499E-05
CGA:  54    -0.669005762414E+03   -0.14402E-03    0.24711E-05  8424   0.736E-04 0.317E-04
CGA:  55    -0.669005779978E+03   -0.17564E-04   -0.44532E-04  8424   0.533E-03-0.159E-03
CGA:  56    -0.669005842789E+03   -0.62811E-04   -0.72996E-04  8424   0.210E-04 0.340E-04
CGA:  57    -0.669005890228E+03   -0.47439E-04    0.32308E-05  8424   0.319E-04-0.367E-05
CGA:  58    -0.669005988962E+03   -0.98734E-04    0.16724E-05  8424   0.519E-04 0.188E-04
CGA:  59    -0.669006004353E+03   -0.15391E-04   -0.14646E-04  8424   0.176E-04-0.514E-05
CGA:  60    -0.669006061547E+03   -0.57195E-04    0.10163E-05  8424   0.169E-04 0.106E-04
CGA:  61    -0.669006082679E+03   -0.21132E-04    0.73329E-05  8424   0.234E-04 0.585E-06
CGA:  62    -0.669006165995E+03   -0.83315E-04    0.16608E-05  8424   0.232E-04 0.174E-04
CGA:  63    -0.669006199707E+03   -0.33712E-04    0.67679E-05  8424   0.181E-04-0.270E-05
CGA:  64    -0.669006252538E+03   -0.52831E-04    0.11583E-05  8424   0.163E-04 0.144E-04
CGA:  65    -0.669006281840E+03   -0.29302E-04    0.30379E-05  8424   0.115E-04 0.299E-05
CGA:  66    -0.669006327792E+03   -0.45952E-04    0.95243E-06  8424   0.118E-04 0.125E-04
CGA:  67    -0.669006356748E+03   -0.28957E-04    0.13064E-05  8424   0.874E-05 0.530E-05
CGA:  68    -0.669006400217E+03   -0.43469E-04    0.86696E-06  8424   0.985E-05 0.117E-04
CGA:  69    -0.669006425881E+03   -0.25664E-04    0.99146E-06  8424   0.766E-05 0.566E-05
CGA:  70    -0.669006447848E+03   -0.21968E-04    0.67083E-06  8424   0.730E-05 0.623E-05
CGA:  71    -0.669006474681E+03   -0.26832E-04    0.45757E-06  8424   0.772E-05 0.592E-05
CGA:  72    -0.669006490317E+03   -0.15636E-04    0.11609E-05  8424   0.999E-05 0.455E-05
CGA:  73    -0.669006523595E+03   -0.33278E-04    0.71216E-06  8424   0.190E-04-0.242E-06
CGA:  74    -0.669006587176E+03   -0.63581E-04    0.12660E-05  8424   0.182E-04 0.176E-04
CGA:  75    -0.669006587983E+03   -0.80691E-06   -0.25446E-05  8424   0.593E-05 0.616E-05
   6 F= -.66900659E+03 E0= -.66900659E+03  d E =-.407533E-01  mag=     4.0000
       N       E                     dE             d eps       ncg     rms          ort
SDA:   1    -0.668435504863E+03    0.57108E+00    0.00000E+00  8424   0.150E+01 0.000E+00
CGA:   2    -0.668872018098E+03   -0.43651E+00   -0.43634E+00  8424   0.669E+00-0.992E-03
CGA:   3    -0.668993233299E+03   -0.12122E+00   -0.12142E+00  8424   0.162E+00 0.178E-03
CGA:   4    -0.669020415341E+03   -0.27182E-01   -0.27241E-01  8424   0.420E-01 0.227E-03
CGA:   5    -0.669027594527E+03   -0.71792E-02   -0.71308E-02  8424   0.852E-02-0.238E-03
CGA:   6    -0.669029504746E+03   -0.19102E-02   -0.18593E-02  8424   0.255E-02-0.343E-03
CGA:   7    -0.669030099450E+03   -0.59470E-03   -0.57823E-03  8424   0.936E-03-0.132E-03
CGA:   8    -0.669030399677E+03   -0.30023E-03   -0.29524E-03  8424   0.591E-03-0.224E-03
CGA:   9    -0.669030106970E+03    0.29271E-03   -0.43561E-03  8424   0.484E-02-0.119E-02
CGA:  10    -0.669030914170E+03   -0.80720E-03   -0.79217E-03  8424   0.590E-03-0.687E-04
CGA:  11    -0.669031117962E+03   -0.20379E-03   -0.38115E-03  8424   0.154E-02-0.630E-03
CGA:  12    -0.669031399391E+03   -0.28143E-03   -0.28131E-03  8424   0.172E-03-0.715E-06
CGA:  13    -0.669031532084E+03   -0.13269E-03    0.15450E-02  8424   0.954E-04-0.472E-04
CGA:  14    -0.669031676711E+03   -0.14463E-03    0.74056E-05  8424   0.767E-04 0.141E-04
CGA:  15    -0.669031912192E+03   -0.23548E-03    0.65305E-05  8424   0.544E-04 0.309E-04
CGA:  16    -0.669032163675E+03   -0.25148E-03    0.42925E-05  8424   0.346E-04 0.466E-04
CGA:  17    -0.669032237195E+03   -0.73521E-04    0.36025E-05  8424   0.273E-04 0.146E-04
CGA:  18    -0.669032385704E+03   -0.14851E-03    0.18001E-05  8424   0.294E-04 0.260E-04
CGA:  19    -0.669032460415E+03   -0.74711E-04    0.23378E-05  8424   0.289E-04 0.115E-04
CGA:  20    -0.669032620220E+03   -0.15980E-03    0.17802E-05  8424   0.282E-04 0.261E-04
CGA:  21    -0.669032688040E+03   -0.67820E-04    0.24438E-05  8424   0.247E-04 0.116E-04
CGA:  22    -0.669032822701E+03   -0.13466E-03    0.15958E-05  8424   0.269E-04 0.227E-04
CGA:  23    -0.669032891981E+03   -0.69280E-04    0.21117E-05  8424   0.269E-04 0.904E-05
CGA:  24    -0.669033031961E+03   -0.13998E-03    0.16292E-05  8424   0.272E-04 0.216E-04
CGA:  25    -0.669033093483E+03   -0.61522E-04    0.25707E-05  8424   0.248E-04 0.801E-05
CGA:  26    -0.669033213554E+03   -0.12007E-03    0.15335E-05  8424   0.277E-04 0.181E-04
CGA:  27    -0.669033276442E+03   -0.62888E-04    0.26125E-05  8424   0.289E-04 0.440E-05
CGA:  28    -0.669033400901E+03   -0.12446E-03    0.16147E-05  8424   0.307E-04 0.154E-04
CGA:  29    -0.669033457193E+03   -0.56292E-04    0.40601E-05  8424   0.269E-04 0.277E-05
CGA:  30    -0.669033558900E+03   -0.10171E-03    0.15367E-05  8424   0.332E-04 0.107E-04
CGA:  31    -0.669033745417E+03   -0.18652E-03    0.20197E-05  8424   0.237E-04 0.412E-04
CGA:  32    -0.669033795977E+03   -0.50560E-04    0.24610E-05  8424   0.343E-04-0.338E-06
CGA:  33    -0.669033918909E+03   -0.12293E-03    0.16699E-05  8424   0.278E-04 0.141E-04
CGA:  34    -0.669034066033E+03   -0.14712E-03    0.18660E-05  8424   0.352E-04 0.274E-04
CGA:  35    -0.669034097205E+03   -0.31172E-04    0.38411E-04  8424   0.907E-04-0.289E-04
CGA:  36    -0.669034129944E+03   -0.32739E-04   -0.23065E-04  8424   0.109E-03-0.785E-04
CGA:  37    -0.669034154707E+03   -0.24763E-04   -0.18348E-04  8424   0.274E-04-0.317E-04
CGA:  38    -0.669034207694E+03   -0.52987E-04    0.12631E-05  8424   0.109E-04 0.100E-04
CGA:  39    -0.669034268083E+03   -0.60389E-04    0.58408E-06  8424   0.985E-05 0.136E-04
CGA:  40    -0.669034302772E+03   -0.34689E-04    0.45871E-06  8424   0.120E-04 0.770E-05
CGA:  41    -0.669034345046E+03   -0.42274E-04    0.56413E-06  8424   0.234E-04 0.233E-05
CGA:  42    -0.669034453352E+03   -0.10831E-03    0.11563E-05  8424   0.141E-04 0.265E-04
CGA:  43    -0.669034475761E+03   -0.22410E-04    0.21167E-05  8424   0.350E-04-0.401E-05
CGA:  44    -0.669034587635E+03   -0.11187E-03    0.86903E-06  8424   0.639E-04 0.220E-04
CGA:  45    -0.669034300163E+03    0.28747E-03   -0.70912E-04  8424   0.424E-02-0.479E-03
CGA:  46    -0.669034710840E+03   -0.41068E-03   -0.46371E-03  8424   0.208E-04 0.183E-03
CGA:  47    -0.669034717777E+03   -0.69368E-05   -0.10579E-04  8424   0.128E-03-0.356E-04
CGA:  48    -0.669034768020E+03   -0.50243E-04   -0.35245E-04  8424   0.169E-03-0.132E-03
CGA:  49    -0.669034779422E+03   -0.11402E-04   -0.18847E-04  8424   0.971E-05 0.274E-04
CGA:  50    -0.669034798259E+03   -0.18837E-04    0.16606E-05  8424   0.305E-04-0.443E-05
CGA:  51    -0.669034895883E+03   -0.97625E-04    0.44002E-06  8424   0.147E-03-0.580E-05
CGA:  52    -0.669035473416E+03   -0.57753E-03    0.39902E-05  8424   0.294E-03 0.462E-04
CGA:  53    -0.669036651001E+03   -0.11776E-02    0.22858E-04  8424   0.359E-03-0.123E-03
CGA:  54    -0.669037900706E+03   -0.12497E-02    0.54707E-05  8424   0.233E-03-0.278E-03
CGA:  55    -0.669037924133E+03   -0.23427E-04   -0.34547E-04  8424   0.204E-04 0.502E-04
CGA:  56    -0.669037919078E+03    0.50545E-05   -0.11913E-05  8424   0.144E-04 0.201E-04
   7 F= -.66903792E+03 E0= -.66903792E+03  d E =-.313311E-01  mag=     4.0000
       N       E                     dE             d eps       ncg     rms          ort
SDA:   1    -0.667611356531E+03    0.14266E+01    0.00000E+00  8424   0.352E+01 0.000E+00
CGA:   2    -0.668682519490E+03   -0.10712E+01   -0.10711E+01  8424   0.165E+01-0.259E-02
CGA:   3    -0.668971920425E+03   -0.28940E+00   -0.28954E+00  8424   0.359E+00 0.915E-03
CGA:   4    -0.669031254691E+03   -0.59334E-01   -0.59435E-01  8424   0.959E-01 0.704E-03
CGA:   5    -0.669047735508E+03   -0.16481E-01   -0.16491E-01  8424   0.193E-01 0.577E-04
CGA:   6    -0.669051937792E+03   -0.42023E-02   -0.41924E-02  8424   0.554E-02-0.117E-03
CGA:   7    -0.669053139653E+03   -0.12019E-02   -0.12080E-02  8424   0.182E-02 0.745E-04
CGA:   8    -0.669053615316E+03   -0.47566E-03   -0.48010E-03  8424   0.666E-03 0.122E-03
CGA:   9    -0.669053830763E+03   -0.21545E-03   -0.21518E-03  8424   0.329E-03 0.308E-04
CGA:  10    -0.669053941296E+03   -0.11053E-03   -0.10996E-03  8424   0.161E-03 0.227E-04
CGA:  11    -0.669054006625E+03   -0.65330E-04   -0.66497E-04  8424   0.107E-03-0.137E-04
CGA:  12    -0.669054049907E+03   -0.43282E-04   -0.44596E-04  8424   0.849E-04-0.941E-05
CGA:  13    -0.669054074703E+03   -0.24796E-04   -0.24559E-04  8424   0.501E-04 0.255E-04
CGA:  14    -0.669054101570E+03   -0.26867E-04   -0.58873E-04  8424   0.190E-03-0.554E-04
CGA:  15    -0.669054144382E+03   -0.42811E-04   -0.43619E-04  8424   0.279E-04 0.735E-05
CGA:  16    -0.669054155987E+03   -0.11606E-04   -0.17256E-04  8424   0.628E-04-0.217E-04
CGA:  17    -0.669054166827E+03   -0.10840E-04   -0.11331E-04  8424   0.116E-04 0.294E-05
CGA:  18    -0.669054168376E+03   -0.15485E-05   -0.25276E-05  8424   0.660E-05 0.755E-05
   8 F= -.66905417E+03 E0= -.66905417E+03  d E =-.162493E-01  mag=     4.0000
       N       E                     dE             d eps       ncg     rms          ort
SDA:   1    -0.668182374335E+03    0.87179E+00    0.00000E+00  8424   0.240E+01 0.000E+00
CGA:   2    -0.668758490986E+03   -0.57612E+00   -0.57669E+00  8424   0.115E+01-0.196E-02
CGA:   3    -0.668994609686E+03   -0.23612E+00   -0.23580E+00  8424   0.296E+00-0.339E-03
CGA:   4    -0.669040409848E+03   -0.45800E-01   -0.45930E-01  8424   0.710E-01 0.616E-03
CGA:   5    -0.669052679650E+03   -0.12270E-01   -0.12395E-01  8424   0.142E-01 0.330E-03
CGA:   6    -0.669055662607E+03   -0.29830E-02   -0.29726E-02  8424   0.412E-02-0.353E-04
CGA:   7    -0.669056528813E+03   -0.86621E-03   -0.87894E-03  8424   0.114E-02 0.419E-04
CGA:   8    -0.669056797712E+03   -0.26890E-03   -0.28761E-03  8424   0.405E-03 0.751E-04
CGA:   9    -0.669056899352E+03   -0.10164E-03   -0.11282E-03  8424   0.163E-03 0.499E-04
CGA:  10    -0.669056913617E+03   -0.14264E-04   -0.36568E-04  8424   0.723E-04 0.813E-04
CGA:  11    -0.669056908720E+03    0.48965E-05   -0.16182E-04  8424   0.437E-04 0.676E-04
   9 F= -.66905691E+03 E0= -.66905691E+03  d E =-.274034E-02  mag=     4.0000
       N       E                     dE             d eps       ncg     rms          ort
SDA:   1    -0.668868666228E+03    0.18825E+00    0.00000E+00  8424   0.529E+00 0.000E+00
CGA:   2    -0.669004623333E+03   -0.13596E+00   -0.13600E+00  8424   0.235E+00 0.128E-03
CGA:   3    -0.669049431352E+03   -0.44808E-01   -0.44676E-01  8424   0.655E-01-0.554E-03
CGA:   4    -0.669060492084E+03   -0.11061E-01   -0.11082E-01  8424   0.160E-01 0.909E-04
CGA:   5    -0.669063061698E+03   -0.25696E-02   -0.26366E-02  8424   0.312E-02 0.284E-03
CGA:   6    -0.669063651983E+03   -0.59028E-03   -0.62103E-03  8424   0.754E-03 0.161E-03
CGA:   7    -0.669063798701E+03   -0.14672E-03   -0.16495E-03  8424   0.234E-03 0.108E-03
CGA:   8    -0.669063830516E+03   -0.31815E-04   -0.48994E-04  8424   0.818E-04 0.929E-04
CGA:   9    -0.669063826330E+03    0.41862E-05   -0.13313E-04  8424   0.455E-04 0.721E-04
  10 F= -.66906383E+03 E0= -.66906383E+03  d E =-.691761E-02  mag=     4.0000
       N       E                     dE             d eps       ncg     rms          ort
SDA:   1    -0.668913124632E+03    0.15071E+00    0.00000E+00  8424   0.401E+00 0.000E+00
CGA:   2    -0.669028313220E+03   -0.11519E+00   -0.11520E+00  8424   0.172E+00 0.182E-03
CGA:   3    -0.669059540199E+03   -0.31227E-01   -0.31127E-01  8424   0.458E-01-0.658E-03
CGA:   4    -0.669067283156E+03   -0.77430E-02   -0.77716E-02  8424   0.116E-01 0.184E-03
CGA:   5    -0.669069102505E+03   -0.18193E-02   -0.18759E-02  8424   0.220E-02 0.364E-03
CGA:   6    -0.669069512973E+03   -0.41047E-03   -0.43347E-03  8424   0.542E-03 0.196E-03
CGA:   7    -0.669069599981E+03   -0.87008E-04   -0.10630E-03  8424   0.174E-03 0.158E-03
CGA:   8    -0.669069608388E+03   -0.84073E-05   -0.29254E-04  8424   0.842E-04 0.126E-03
  11 F= -.66906961E+03 E0= -.66906961E+03  d E =-.578206E-02  mag=     4.0000
       N       E                     dE             d eps       ncg     rms          ort
SDA:   1    -0.668969222133E+03    0.10038E+00    0.00000E+00  8424   0.265E+00 0.000E+00
CGA:   2    -0.669048930822E+03   -0.79709E-01   -0.79706E-01  8424   0.120E+00 0.108E-03
CGA:   3    -0.669069992105E+03   -0.21061E-01   -0.21072E-01  8424   0.277E-01 0.924E-04
CGA:   4    -0.669074720099E+03   -0.47280E-02   -0.47437E-02  8424   0.712E-02 0.149E-03
CGA:   5    -0.669075891246E+03   -0.11711E-02   -0.11925E-02  8424   0.144E-02 0.208E-03
CGA:   6    -0.669076142661E+03   -0.25142E-03   -0.26740E-03  8424   0.331E-03 0.193E-03
CGA:   7    -0.669076186805E+03   -0.44143E-04   -0.59071E-04  8424   0.119E-03 0.146E-03
CGA:   8    -0.669076187610E+03   -0.80495E-06   -0.17503E-04  8424   0.682E-04 0.110E-03
  12 F= -.66907619E+03 E0= -.66907619E+03  d E =-.657922E-02  mag=     4.0000
       N       E                     dE             d eps       ncg     rms          ort
SDA:   1    -0.668457024906E+03    0.61916E+00    0.00000E+00  8424   0.153E+01 0.000E+00
CGA:   2    -0.668936735025E+03   -0.47971E+00   -0.47987E+00  8424   0.712E+00-0.209E-02
CGA:   3    -0.669055631840E+03   -0.11890E+00   -0.11911E+00  8424   0.155E+00 0.254E-02
CGA:   4    -0.669082331044E+03   -0.26699E-01   -0.26704E-01  8424   0.404E-01 0.421E-04
CGA:   5    -0.669089239655E+03   -0.69086E-02   -0.68823E-02  8424   0.890E-02-0.414E-03
CGA:   6    -0.669090976162E+03   -0.17365E-02   -0.17391E-02  8424   0.222E-02 0.752E-04
CGA:   7    -0.669091466553E+03   -0.49039E-03   -0.49145E-03  8424   0.750E-03 0.104E-03
CGA:   8    -0.669091637909E+03   -0.17136E-03   -0.17284E-03  8424   0.269E-03 0.159E-03
CGA:   9    -0.669091699465E+03   -0.61557E-04   -0.65391E-04  8424   0.122E-03 0.134E-03
CGA:  10    -0.669091729534E+03   -0.30069E-04   -0.34074E-04  8424   0.723E-04 0.964E-04
CGA:  11    -0.669091740245E+03   -0.10710E-04   -0.12962E-04  8424   0.431E-04 0.485E-04
CGA:  12    -0.669091740715E+03   -0.47035E-06   -0.48851E-05  8424   0.376E-04 0.401E-04
  13 F= -.66909174E+03 E0= -.66909174E+03  d E =-.155531E-01  mag=     4.0000
       N       E                     dE             d eps       ncg     rms          ort
SDA:   1    -0.668281866446E+03    0.80987E+00    0.00000E+00  8424   0.223E+01 0.000E+00
CGA:   2    -0.668839288811E+03   -0.55742E+00   -0.55749E+00  8424   0.105E+01-0.192E-02
CGA:   3    -0.669041577630E+03   -0.20229E+00   -0.20235E+00  8424   0.278E+00 0.302E-02
CGA:   4    -0.669088191675E+03   -0.46614E-01   -0.46623E-01  8424   0.677E-01 0.116E-03
CGA:   5    -0.669099673538E+03   -0.11482E-01   -0.11455E-01  8424   0.137E-01-0.664E-03
CGA:   6    -0.669102492047E+03   -0.28185E-02   -0.28185E-02  8424   0.350E-02-0.197E-03
CGA:   7    -0.669103304768E+03   -0.81272E-03   -0.81719E-03  8424   0.119E-02-0.158E-03
CGA:   8    -0.669103598493E+03   -0.29372E-03   -0.29520E-03  8424   0.418E-03-0.298E-04
CGA:   9    -0.669103736939E+03   -0.13845E-03   -0.16980E-03  8424   0.369E-03-0.154E-03
CGA:  10    -0.669103852626E+03   -0.11569E-03    0.22459E-03  8424   0.179E-03 0.415E-04
CGA:  11    -0.669103951568E+03   -0.98942E-04    0.19464E-03  8424   0.935E-04 0.313E-04
CGA:  12    -0.669104017780E+03   -0.66212E-04    0.34475E-04  8424   0.569E-04 0.377E-04
CGA:  13    -0.669104076270E+03   -0.58490E-04    0.13792E-04  8424   0.456E-04 0.377E-04
CGA:  14    -0.669104104816E+03   -0.28546E-04    0.12445E-04  8424   0.239E-04 0.247E-04
CGA:  15    -0.669104122922E+03   -0.18105E-04    0.37771E-05  8424   0.200E-04 0.207E-04
CGA:  16    -0.669104144869E+03   -0.21948E-04    0.15238E-05  8424   0.185E-04 0.189E-04
CGA:  17    -0.669104162958E+03   -0.18088E-04    0.17204E-05  8424   0.175E-04 0.178E-04
CGA:  18    -0.669104183695E+03   -0.20738E-04    0.11762E-05  8424   0.168E-04 0.169E-04
CGA:  19    -0.669104201109E+03   -0.17414E-04    0.14109E-05  8424   0.163E-04 0.163E-04
CGA:  20    -0.669104221721E+03   -0.20611E-04    0.98067E-06  8424   0.159E-04 0.157E-04
CGA:  21    -0.669104237621E+03   -0.15900E-04    0.14127E-05  8424   0.156E-04 0.151E-04
CGA:  22    -0.669104259257E+03   -0.21637E-04    0.82593E-06  8424   0.156E-04 0.144E-04
CGA:  23    -0.669104272615E+03   -0.13357E-04    0.18930E-05  8424   0.160E-04 0.136E-04
CGA:  24    -0.669104296439E+03   -0.23824E-04    0.75494E-06  8424   0.168E-04 0.124E-04
CGA:  25    -0.669104306172E+03   -0.97336E-05    0.61711E-05  8424   0.184E-04 0.106E-04
  14 F= -.66910431E+03 E0= -.66910431E+03  d E =-.125655E-01  mag=     4.0000
       N       E                     dE             d eps       ncg     rms          ort
SDA:   1    -0.668537040836E+03    0.56726E+00    0.00000E+00  8424   0.150E+01 0.000E+00
CGA:   2    -0.668931222106E+03   -0.39418E+00   -0.39422E+00  8424   0.740E+00-0.105E-02
CGA:   3    -0.669069115584E+03   -0.13789E+00   -0.13788E+00  8424   0.173E+00-0.428E-03
CGA:   4    -0.669097667078E+03   -0.28551E-01   -0.28538E-01  8424   0.444E-01-0.291E-03
CGA:   5    -0.669105300383E+03   -0.76333E-02   -0.76268E-02  8424   0.927E-02-0.144E-03
CGA:   6    -0.669107170170E+03   -0.18698E-02   -0.18701E-02  8424   0.229E-02 0.163E-04
CGA:   7    -0.669107717748E+03   -0.54758E-03   -0.55178E-03  8424   0.863E-03-0.174E-03
CGA:   8    -0.669107952904E+03   -0.23516E-03   -0.29910E-03  8424   0.764E-03-0.407E-03
CGA:   9    -0.669108010391E+03   -0.57487E-04   -0.18646E-03  8424   0.946E-03-0.548E-03
CGA:  10    -0.669108252504E+03   -0.24211E-03   -0.24837E-03  8424   0.479E-03-0.249E-03
CGA:  11    -0.669108360071E+03   -0.10757E-03   -0.13565E-03  8424   0.250E-03-0.193E-03
CGA:  12    -0.669108477964E+03   -0.11789E-03    0.30145E-04  8424   0.866E-04 0.291E-04
CGA:  13    -0.669108559157E+03   -0.81193E-04    0.16872E-04  8424   0.385E-04 0.148E-04
CGA:  14    -0.669108622807E+03   -0.63650E-04    0.29663E-05  8424   0.205E-04 0.149E-04
CGA:  15    -0.669108693693E+03   -0.70886E-04    0.86421E-06  8424   0.169E-04 0.135E-04
CGA:  16    -0.669108731664E+03   -0.37971E-04    0.58268E-06  8424   0.990E-05 0.990E-05
CGA:  17    -0.669108766327E+03   -0.34663E-04    0.19900E-06  8424   0.894E-05 0.887E-05
CGA:  18    -0.669108801335E+03   -0.35008E-04    0.15806E-06  8424   0.864E-05 0.840E-05
CGA:  19    -0.669108835453E+03   -0.34118E-04    0.15125E-06  8424   0.849E-05 0.805E-05
CGA:  20    -0.669108869864E+03   -0.34411E-04    0.14439E-06  8424   0.846E-05 0.771E-05
CGA:  21    -0.669108903129E+03   -0.33265E-04    0.14896E-06  8424   0.859E-05 0.728E-05
CGA:  22    -0.669108937407E+03   -0.34279E-04    0.14871E-06  8424   0.900E-05 0.667E-05
CGA:  23    -0.669108969371E+03   -0.31964E-04    0.17800E-06  8424   0.990E-05 0.571E-05
CGA:  24    -0.669109003819E+03   -0.34448E-04    0.20048E-06  8424   0.117E-04 0.410E-05
CGA:  25    -0.669109075605E+03   -0.71785E-04    0.26151E-06  8424   0.923E-05 0.160E-04
CGA:  26    -0.669109105950E+03   -0.30345E-04    0.19992E-06  8424   0.109E-04 0.389E-05
CGA:  27    -0.669109176001E+03   -0.70051E-04    0.23377E-06  8424   0.861E-05 0.150E-04
CGA:  28    -0.669109209038E+03   -0.33037E-04    0.15590E-06  8424   0.102E-04 0.374E-05
CGA:  29    -0.669109277543E+03   -0.68505E-04    0.21032E-06  8424   0.803E-05 0.141E-04
CGA:  30    -0.669109305325E+03   -0.27782E-04    0.16390E-06  8424   0.932E-05 0.370E-05
CGA:  31    -0.669109370529E+03   -0.65204E-04    0.19173E-06  8424   0.745E-05 0.132E-04
CGA:  32    -0.669109403456E+03   -0.32927E-04    0.11493E-06  8424   0.836E-05 0.377E-05
CGA:  33    -0.669109429481E+03   -0.26025E-04    0.19325E-06  8424   0.101E-04 0.229E-05
CGA:  34    -0.669109493221E+03   -0.63740E-04    0.17461E-06  8424   0.849E-05 0.125E-04
CGA:  35    -0.669109526567E+03   -0.33346E-04    0.14966E-06  8424   0.101E-04 0.160E-05
CGA:  36    -0.669109590457E+03   -0.63889E-04    0.15042E-06  8424   0.894E-05 0.116E-04
CGA:  37    -0.669109610716E+03   -0.20259E-04    0.30537E-06  8424   0.103E-04 0.685E-06
CGA:  38    -0.669109668200E+03   -0.57484E-04    0.14265E-06  8424   0.965E-05 0.107E-04
CGA:  39    -0.669109705439E+03   -0.37239E-04    0.17349E-06  8424   0.103E-04-0.223E-06
CGA:  40    -0.669109763321E+03   -0.57883E-04    0.11563E-06  8424   0.996E-05 0.961E-05
CGA:  41    -0.669109776743E+03   -0.13422E-04    0.70549E-06  8424   0.949E-05-0.461E-06
CGA:  42    -0.669109825796E+03   -0.49053E-04    0.11134E-06  8424   0.914E-05 0.863E-05
CGA:  43    -0.669109865321E+03   -0.39525E-04    0.14446E-06  8424   0.777E-05 0.424E-06
CGA:  44    -0.669109913763E+03   -0.48442E-04    0.90069E-07  8424   0.759E-05 0.780E-05
CGA:  45    -0.669109926326E+03   -0.12563E-04    0.39515E-06  8424   0.608E-05 0.169E-05
CGA:  46    -0.669109969608E+03   -0.43283E-04    0.84459E-07  8424   0.633E-05 0.718E-05
CGA:  47    -0.669110004870E+03   -0.35262E-04    0.75353E-07  8424   0.504E-05 0.248E-05
CGA:  48    -0.669110049766E+03   -0.44896E-04    0.72029E-07  8424   0.554E-05 0.678E-05
CGA:  49    -0.669110064100E+03   -0.14334E-04    0.16028E-06  8424   0.448E-05 0.279E-05
CGA:  50    -0.669110093474E+03   -0.29374E-04    0.44763E-07  8424   0.405E-05 0.331E-05
CGA:  51    -0.669110113130E+03   -0.19655E-04    0.56150E-07  8424   0.384E-05 0.350E-05
CGA:  52    -0.669110138542E+03   -0.25412E-04    0.37903E-07  8424   0.372E-05 0.354E-05
CGA:  53    -0.669110159822E+03   -0.21280E-04    0.43090E-07  8424   0.364E-05 0.352E-05
CGA:  54    -0.669110183823E+03   -0.24001E-04    0.36174E-07  8424   0.358E-05 0.348E-05
CGA:  55    -0.669110205196E+03   -0.21373E-04    0.39672E-07  8424   0.354E-05 0.343E-05
CGA:  56    -0.669110228736E+03   -0.23540E-04    0.34803E-07  8424   0.351E-05 0.336E-05
CGA:  57    -0.669110249519E+03   -0.20783E-04    0.39152E-07  8424   0.350E-05 0.328E-05
CGA:  58    -0.669110273078E+03   -0.23559E-04    0.34010E-07  8424   0.353E-05 0.317E-05
CGA:  59    -0.669110292838E+03   -0.19760E-04    0.41839E-07  8424   0.361E-05 0.302E-05
CGA:  60    -0.669110316813E+03   -0.23975E-04    0.35641E-07  8424   0.380E-05 0.279E-05
CGA:  61    -0.669110335125E+03   -0.18311E-04    0.53239E-07  8424   0.417E-05 0.243E-05
CGA:  62    -0.669110359942E+03   -0.24818E-04    0.46177E-07  8424   0.485E-05 0.183E-05
CGA:  63    -0.669110405427E+03   -0.45484E-04    0.70122E-07  8424   0.394E-05 0.681E-05
CGA:  64    -0.669110421982E+03   -0.16556E-04    0.64253E-07  8424   0.453E-05 0.180E-05
CGA:  65    -0.669110466306E+03   -0.44324E-04    0.64331E-07  8424   0.370E-05 0.644E-05
CGA:  66    -0.669110490462E+03   -0.24156E-04    0.37103E-07  8424   0.421E-05 0.179E-05
CGA:  67    -0.669110532937E+03   -0.42475E-04    0.60005E-07  8424   0.346E-05 0.609E-05
CGA:  68    -0.669110547797E+03   -0.14859E-04    0.55045E-07  8424   0.384E-05 0.182E-05
CGA:  69    -0.669110572085E+03   -0.24288E-04    0.39795E-07  8424   0.450E-05 0.124E-05
CGA:  70    -0.669110613900E+03   -0.41815E-04    0.55097E-07  8424   0.382E-05 0.582E-05
CGA:  71    -0.669110626429E+03   -0.12529E-04    0.82870E-07  8424   0.443E-05 0.103E-05
CGA:  72    -0.669110666389E+03   -0.39960E-04    0.51358E-07  8424   0.386E-05 0.549E-05
CGA:  73    -0.669110691742E+03   -0.25353E-04    0.38528E-07  8424   0.443E-05 0.759E-06
CGA:  74    -0.669110731017E+03   -0.39275E-04    0.46389E-07  8424   0.401E-05 0.518E-05
CGA:  75    -0.669110739922E+03   -0.89051E-05    0.14042E-06  8424   0.447E-05 0.436E-06
  15 F= -.66911074E+03 E0= -.66911074E+03  d E =-.643375E-02  mag=     4.0000
       N       E                     dE             d eps       ncg     rms          ort
SDA:   1    -0.668997462032E+03    0.11327E+00    0.00000E+00  8424   0.329E+00 0.000E+00
CGA:   2    -0.669073057786E+03   -0.75596E-01   -0.75598E-01  8424   0.158E+00 0.447E-04
CGA:   3    -0.669104802665E+03   -0.31745E-01   -0.31740E-01  8424   0.438E-01-0.123E-03
CGA:   4    -0.669111811043E+03   -0.70084E-02   -0.69917E-02  8424   0.104E-01-0.209E-03
CGA:   5    -0.669113622730E+03   -0.18117E-02   -0.18010E-02  8424   0.219E-02-0.168E-03
CGA:   6    -0.669114068219E+03   -0.44549E-03   -0.44356E-03  8424   0.565E-03-0.645E-04
CGA:   7    -0.669114204345E+03   -0.13613E-03   -0.13794E-03  8424   0.234E-03-0.104E-03
CGA:   8    -0.669114118358E+03    0.85987E-04   -0.14187E-03  8424   0.147E-02-0.448E-03
CGA:   9    -0.669114336333E+03   -0.21797E-03   -0.21519E-03  8424   0.162E-03-0.246E-04
CGA:  10    -0.669113462005E+03    0.87433E-03   -0.47081E-03  8424   0.526E-02-0.809E-03
CGA:  11    -0.669114375435E+03   -0.91343E-03   -0.92618E-03  8424   0.698E-03 0.439E-04
CGA:  12    -0.669114590105E+03   -0.21467E-03   -0.20217E-03  8424   0.979E-04-0.768E-04
CGA:  13    -0.669114628275E+03   -0.38170E-04   -0.37841E-04  8424   0.570E-04-0.417E-04
CGA:  14    -0.669114722839E+03   -0.94564E-04    0.31849E-05  8424   0.870E-04-0.378E-04
CGA:  15    -0.669114723027E+03   -0.18815E-06   -0.92026E-05  8424   0.150E-04 0.269E-04
CGA:  16    -0.669114704233E+03    0.18794E-04   -0.18799E-04  8424   0.368E-03-0.706E-04
CGA:  17    -0.669114851169E+03   -0.14694E-03   -0.89628E-04  8424   0.294E-03-0.275E-03
CGA:  18    -0.669114853188E+03   -0.20197E-05   -0.27189E-04  8424   0.207E-04 0.724E-04
  16 F= -.66911485E+03 E0= -.66911485E+03  d E =-.411327E-02  mag=     4.0000
       N       E                     dE             d eps       ncg     rms          ort
SDA:   1    -0.667108428833E+03    0.20064E+01    0.00000E+00  8424   0.555E+01 0.000E+00
CGA:   2    -0.668412288543E+03   -0.13039E+01   -0.13043E+01  8424   0.270E+01-0.161E-02
CGA:   3    -0.668962172123E+03   -0.54988E+00   -0.55012E+00  8424   0.707E+00 0.151E-02
CGA:   4    -0.669071914320E+03   -0.10974E+00   -0.10977E+00  8424   0.167E+00-0.527E-03
CGA:   5    -0.669101121873E+03   -0.29208E-01   -0.29114E-01  8424   0.335E-01-0.509E-03
CGA:   6    -0.669107962489E+03   -0.68406E-02   -0.68528E-02  8424   0.936E-02 0.697E-04
CGA:   7    -0.669109985806E+03   -0.20233E-02   -0.20126E-02  8424   0.261E-02-0.768E-04
CGA:   8    -0.669110708988E+03   -0.72318E-03   -0.71143E-03  8424   0.105E-02-0.155E-03
CGA:   9    -0.669111001179E+03   -0.29219E-03   -0.28671E-03  8424   0.457E-03-0.958E-04
CGA:  10    -0.669111007505E+03   -0.63262E-05   -0.33566E-03  8424   0.227E-02-0.711E-03
CGA:  11    -0.669111373839E+03   -0.36633E-03   -0.37440E-03  8424   0.254E-03 0.399E-04
CGA:  12    -0.669111446324E+03   -0.72485E-04   -0.18213E-03  8424   0.766E-03-0.316E-03
CGA:  13    -0.669111603753E+03   -0.15743E-03   -0.15288E-03  8424   0.137E-03-0.259E-04
CGA:  14    -0.669110647641E+03    0.95611E-03   -0.22835E-03  8424   0.783E-02-0.874E-03
CGA:  15    -0.669111749556E+03   -0.11019E-02   -0.11318E-02  8424   0.766E-03 0.122E-03
CGA:  16    -0.669111992195E+03   -0.24264E-03   -0.23038E-03  8424   0.101E-03-0.997E-04
CGA:  17    -0.669112011425E+03   -0.19230E-04   -0.55737E-04  8424   0.589E-03-0.166E-03
CGA:  18    -0.669112129984E+03   -0.11856E-03   -0.92582E-04  8424   0.583E-04-0.976E-04
CGA:  19    -0.669111842600E+03    0.28738E-03   -0.86626E-04  8424   0.320E-02-0.274E-03
CGA:  20    -0.669112369613E+03   -0.52701E-03   -0.43781E-03  8424   0.186E-03-0.269E-03
CGA:  21    -0.669112420149E+03   -0.50536E-04   -0.47935E-04  8424   0.478E-04-0.144E-04
CGA:  22    -0.669112504533E+03   -0.84384E-04    0.90037E-05  8424   0.127E-03-0.435E-04
CGA:  23    -0.669112516571E+03   -0.12038E-04   -0.15008E-04  8424   0.117E-04 0.894E-05
CGA:  24    -0.669112569668E+03   -0.53097E-04    0.71433E-06  8424   0.144E-04 0.461E-05
CGA:  25    -0.669112691248E+03   -0.12158E-03    0.73784E-06  8424   0.375E-04 0.161E-05
CGA:  26    -0.669113032244E+03   -0.34100E-03    0.10870E-05  8424   0.637E-04 0.257E-04
CGA:  27    -0.669113051192E+03   -0.18948E-04   -0.16085E-04  8424   0.491E-04-0.156E-04
CGA:  28    -0.669113128198E+03   -0.77006E-04    0.55332E-05  8424   0.390E-04-0.262E-04
CGA:  29    -0.669113111045E+03    0.17153E-04   -0.35046E-04  8424   0.639E-03-0.111E-03
CGA:  30    -0.669113230311E+03   -0.11927E-03   -0.87540E-04  8424   0.601E-04-0.102E-03
CGA:  31    -0.669113248457E+03   -0.18146E-04   -0.15866E-04  8424   0.343E-04-0.188E-04
CGA:  32    -0.669113324433E+03   -0.75976E-04    0.18315E-05  8424   0.593E-04-0.210E-04
CGA:  33    -0.669113328826E+03   -0.43937E-05   -0.69174E-05  8424   0.918E-05 0.810E-05
  17 F= -.66911333E+03 E0= -.66911333E+03  d E =0.152436E-02  mag=     4.0000
       N       E                     dE             d eps       ncg     rms          ort
SDA:   1    -0.657543744124E+03    0.11570E+02    0.00000E+00  8424   0.346E+02 0.000E+00
CGA:   2    -0.664724711892E+03   -0.71810E+01   -0.72263E+01  8424   0.151E+02-0.500E-01
CGA:   3    -0.667883040539E+03   -0.31583E+01   -0.31512E+01  8424   0.440E+01 0.273E-01
CGA:   4    -0.668600881015E+03   -0.71784E+00   -0.71878E+00  8424   0.109E+01 0.395E-02
CGA:   5    -0.668788327321E+03   -0.18745E+00   -0.18799E+00  8424   0.226E+00 0.145E-02
CGA:   6    -0.668834394997E+03   -0.46068E-01   -0.45945E-01  8424   0.543E-01-0.680E-03
CGA:   7    -0.668846132462E+03   -0.11737E-01   -0.11782E-01  8424   0.162E-01 0.301E-03
CGA:   8    -0.668850224533E+03   -0.40921E-02   -0.41016E-02  8424   0.520E-02 0.885E-04
CGA:   9    -0.668851789228E+03   -0.15647E-02   -0.15422E-02  8424   0.220E-02-0.406E-03
CGA:  10    -0.668852356211E+03   -0.56698E-03   -0.57370E-03  8424   0.864E-03 0.101E-03
CGA:  11    -0.668852727234E+03   -0.37102E-03   -0.41098E-03  8424   0.740E-03-0.365E-03
CGA:  12    -0.668852880192E+03   -0.15296E-03   -0.15673E-03  8424   0.530E-03-0.231E-03
CGA:  13    -0.668852072441E+03    0.80775E-03   -0.50414E-03  8424   0.597E-02-0.128E-02
CGA:  14    -0.668853416106E+03   -0.13437E-02   -0.13185E-02  8424   0.124E-02-0.139E-03
CGA:  15    -0.668853667244E+03   -0.25114E-03   -0.24990E-03  8424   0.324E-03-0.695E-05
CGA:  16    -0.668853816943E+03   -0.14970E-03   -0.16238E-03  8424   0.338E-03-0.106E-03
CGA:  17    -0.668850328993E+03    0.34879E-02   -0.18930E-02  8424   0.216E-01-0.194E-02
CGA:  18    -0.668852978440E+03   -0.26494E-02   -0.28631E-02  8424   0.255E-02 0.606E-03
CGA:  19    -0.668854069573E+03   -0.10911E-02   -0.10634E-02  8424   0.139E-02-0.101E-03
CGA:  20    -0.668854615824E+03   -0.54625E-03   -0.50685E-03  8424   0.641E-03-0.137E-03
CGA:  21    -0.668854756903E+03   -0.14108E-03   -0.14710E-03  8424   0.179E-03 0.149E-04
CGA:  22    -0.668854864600E+03   -0.10770E-03   -0.13853E-03  8424   0.760E-03-0.255E-03
CGA:  23    -0.668854947900E+03   -0.83300E-04   -0.11815E-03  8424   0.872E-04 0.723E-04
CGA:  24    -0.668854998093E+03   -0.50193E-04   -0.71484E-04  8424   0.471E-03-0.161E-03
CGA:  25    -0.668855070727E+03   -0.72634E-04   -0.82757E-04  8424   0.563E-04 0.228E-04
CGA:  26    -0.668855143034E+03   -0.72307E-04    0.89854E-03  8424   0.247E-03-0.854E-04
CGA:  27    -0.668855165863E+03   -0.22830E-04   -0.34348E-04  8424   0.252E-04 0.252E-04
CGA:  28    -0.668855219907E+03   -0.54044E-04    0.11722E-04  8424   0.633E-04-0.234E-04
CGA:  29    -0.668855256754E+03   -0.36847E-04   -0.34167E-04  8424   0.122E-03-0.716E-04
CGA:  30    -0.668855308825E+03   -0.52071E-04   -0.40338E-04  8424   0.354E-04-0.482E-04
CGA:  31    -0.668855369840E+03   -0.61015E-04    0.39511E-05  8424   0.177E-04 0.546E-05
CGA:  32    -0.668855465063E+03   -0.95223E-04    0.18341E-05  8424   0.536E-04-0.661E-05
CGA:  33    -0.668855741892E+03   -0.27683E-03    0.15011E-05  8424   0.146E-03 0.576E-05
CGA:  34    -0.668856501625E+03   -0.75973E-03    0.14395E-04  8424   0.451E-03-0.596E-04
CGA:  35    -0.668859114621E+03   -0.26130E-02    0.97935E-05  8424   0.900E-03-0.402E-03
CGA:  36    -0.668859305283E+03   -0.19066E-03   -0.17083E-03  8424   0.825E-04-0.539E-04
CGA:  37    -0.668859299691E+03    0.55917E-05   -0.89442E-05  8424   0.205E-04 0.339E-04
  18 F= -.66885930E+03 E0= -.66885930E+03  d E =0.254029E+00  mag=     4.0000
       N       E                     dE             d eps       ncg     rms          ort
SDA:   1    -0.665262384937E+03    0.35969E+01    0.00000E+00  8424   0.119E+02 0.000E+00
CGA:   2    -0.667673228318E+03   -0.24108E+01   -0.24253E+01  8424   0.509E+01-0.253E-01
CGA:   3    -0.668750226166E+03   -0.10770E+01   -0.10746E+01  8424   0.155E+01 0.112E-01
CGA:   4    -0.669002329304E+03   -0.25210E+00   -0.25228E+00  8424   0.379E+00 0.106E-03
CGA:   5    -0.669067995746E+03   -0.65666E-01   -0.65797E-01  8424   0.805E-01 0.127E-03
CGA:   6    -0.669083957873E+03   -0.15962E-01   -0.16003E-01  8424   0.188E-01 0.183E-03
CGA:   7    -0.669087958479E+03   -0.40006E-02   -0.40551E-02  8424   0.541E-02 0.250E-03
CGA:   8    -0.669089256933E+03   -0.12985E-02   -0.13338E-02  8424   0.165E-02 0.200E-03
CGA:   9    -0.669089641352E+03   -0.38442E-03   -0.41473E-03  8424   0.525E-03 0.180E-03
CGA:  10    -0.669089746037E+03   -0.10468E-03   -0.13462E-03  8424   0.208E-03 0.175E-03
CGA:  11    -0.669089765607E+03   -0.19569E-04   -0.50318E-04  8424   0.993E-04 0.145E-03
CGA:  12    -0.669089762140E+03    0.34669E-05   -0.14078E-04  8424   0.617E-04 0.726E-04
[...]
CGA:  16    -0.669105285282E+03    0.25127E-02   -0.13631E-02  8424   0.164E-01-0.130E-02
CGA:  17    -0.669107756212E+03   -0.24709E-02   -0.25134E-02  8424   0.250E-02 0.198E-03
CGA:  18    -0.669108487507E+03   -0.73129E-03   -0.66612E-03  8424   0.265E-03-0.141E-03
CGA:  19    -0.669108620603E+03   -0.13310E-03   -0.11505E-03  8424   0.157E-03-0.727E-04
CGA:  20    -0.669105997131E+03    0.26235E-02   -0.30785E-03  8424   0.262E-01-0.147E-02
CGA:  21    -0.669108947371E+03   -0.29502E-02   -0.31411E-02  8424   0.112E-02 0.751E-03
CGA:  22    -0.669109436748E+03   -0.48938E-03   -0.46239E-03  8424   0.422E-03-0.763E-04
CGA:  23    -0.669109650786E+03   -0.21404E-03   -0.14020E-03  8424   0.357E-03-0.191E-03
CGA:  24    -0.669109688003E+03   -0.37217E-04   -0.33301E-04  8424   0.143E-03-0.117E-04
CGA:  25    -0.669109700178E+03   -0.12175E-04   -0.25089E-04  8424   0.155E-03 0.137E-06
CGA:  26    -0.669109666489E+03    0.33689E-04   -0.32422E-04  8424   0.525E-03 0.388E-04
CGA:  27    -0.669106292117E+03    0.33744E-02   -0.29125E-04  8424   0.949E-02 0.201E-02
CGA:  28    -0.669103313180E+03    0.29789E-02   -0.20910E-02  8424   0.225E-01 0.559E-02
CGA:  29    -0.669099712892E+03    0.36003E-02   -0.55753E-02  8424   0.243E-01 0.700E-02
CGA:  30    -0.669068999498E+03    0.30713E-01   -0.40847E-02  8424   0.994E-01 0.448E-01
CGA:  31    -0.669064640254E+03    0.43592E-02   -0.23383E-01  8424   0.121E+00 0.398E-01
CGA:  32    -0.668945767648E+03    0.11887E+00   -0.22046E-01  8424   0.346E+00 0.191E+00
CGA:  33    -0.668980595236E+03   -0.34828E-01   -0.88419E-01  8424   0.385E+00 0.139E+00
CGA:  34    -0.668846947572E+03    0.13365E+00   -0.92645E-01  8424   0.462E+00 0.373E+00
CGA:  35    -0.668962276832E+03   -0.11533E+00   -0.14332E+00  8424   0.211E+00 0.200E+00
CGA:  36    -0.669078867347E+03   -0.11659E+00   -0.12060E+00  8424   0.754E-01-0.111E-01
CGA:  37    -0.669094394201E+03   -0.15527E-01   -0.20848E-01  8424   0.104E-01 0.519E-02
CGA:  38    -0.669101531252E+03   -0.71371E-02   -0.72024E-02  8424   0.806E-02-0.129E-02
CGA:  39    -0.669103741040E+03   -0.22098E-02   -0.18727E-02  8424   0.654E-02-0.117E-02
CGA:  40    -0.669106105383E+03   -0.23643E-02   -0.22684E-02  8424   0.375E-02-0.764E-03
CGA:  41    -0.669107507120E+03   -0.14017E-02   -0.13501E-02  8424   0.249E-02-0.383E-03
CGA:  42    -0.669108170312E+03   -0.66319E-03   -0.58470E-03  8424   0.220E-02-0.130E-03
CGA:  43    -0.669108786884E+03   -0.61657E-03   -0.57455E-03  8424   0.165E-02-0.698E-05
CGA:  44    -0.669109183048E+03   -0.39616E-03   -0.37182E-03  8424   0.154E-02 0.541E-05
CGA:  45    -0.669109635648E+03   -0.45260E-03   -0.39305E-03  8424   0.137E-02-0.206E-03
CGA:  46    -0.669109923712E+03   -0.28806E-03   -0.22065E-03  8424   0.125E-02-0.187E-03
CGA:  47    -0.669110175937E+03   -0.25222E-03   -0.19121E-03  8424   0.116E-02-0.177E-03
CGA:  48    -0.669110381927E+03   -0.20599E-03   -0.14817E-03  8424   0.104E-02-0.167E-03
CGA:  49    -0.669110600176E+03   -0.21825E-03   -0.14681E-03  8424   0.106E-02-0.268E-03
CGA:  50    -0.669110784642E+03   -0.18447E-03   -0.10200E-03  8424   0.896E-03-0.293E-03
CGA:  51    -0.669110946709E+03   -0.16207E-03   -0.84061E-04  8424   0.852E-03-0.306E-03
CGA:  52    -0.669111102051E+03   -0.15534E-03   -0.77558E-04  8424   0.904E-03-0.340E-03
CGA:  53    -0.669111239646E+03   -0.13759E-03   -0.60657E-04  8424   0.827E-03-0.312E-03
CGA:  54    -0.669111392572E+03   -0.15293E-03   -0.70469E-04  8424   0.849E-03-0.389E-03
CGA:  55    -0.669111546699E+03   -0.15413E-03   -0.58807E-04  8424   0.920E-03-0.476E-03
CGA:  56    -0.669112068505E+03   -0.52181E-03   -0.64552E-03  8424   0.337E-02-0.319E-03
CGA:  57    -0.669112425376E+03   -0.35687E-03   -0.32975E-03  8424   0.141E-02-0.130E-03
CGA:  58    -0.669112545748E+03   -0.12037E-03   -0.11666E-03  8424   0.327E-03-0.140E-04
CGA:  59    -0.669112605999E+03   -0.60251E-04   -0.54274E-04  8424   0.282E-03-0.422E-04
CGA:  60    -0.669112669168E+03   -0.63169E-04   -0.48690E-04  8424   0.175E-03-0.140E-03
CGA:  61    -0.669112732052E+03   -0.62883E-04    0.64760E-04  8424   0.399E-03-0.121E-03
CGA:  62    -0.669112791984E+03   -0.59932E-04   -0.60981E-04  8424   0.827E-04 0.721E-05
CGA:  63    -0.669112844962E+03   -0.52979E-04    0.14036E-03  8424   0.180E-04-0.390E-05
CGA:  64    -0.669112881035E+03   -0.36073E-04    0.94273E-06  8424   0.101E-04 0.993E-05
CGA:  65    -0.669112903806E+03   -0.22771E-04    0.50962E-06  8424   0.810E-05 0.317E-05
CGA:  66    -0.669112948955E+03   -0.45150E-04    0.24291E-06  8424   0.529E-05 0.476E-05
CGA:  67    -0.669112970355E+03   -0.21399E-04    0.12802E-06  8424   0.438E-05 0.218E-05
CGA:  68    -0.669113013182E+03   -0.42828E-04    0.81508E-07  8424   0.401E-05 0.370E-05
CGA:  69    -0.669113034352E+03   -0.21169E-04    0.71592E-07  8424   0.353E-05 0.205E-05
CGA:  70    -0.669113058514E+03   -0.24163E-04    0.47235E-07  8424   0.567E-05 0.818E-06
CGA:  71    -0.669113115467E+03   -0.56952E-04    0.77367E-07  8424   0.381E-05 0.664E-05
CGA:  72    -0.669113133894E+03   -0.18428E-04    0.75084E-07  8424   0.691E-05-0.585E-07
CGA:  73    -0.669113194332E+03   -0.60438E-04    0.68608E-07  8424   0.669E-05 0.652E-05
CGA:  74    -0.669113219024E+03   -0.24692E-04    0.18016E-06  8424   0.161E-04-0.528E-05
CGA:  75    -0.669112870800E+03    0.34822E-03   -0.19173E-03  8424   0.421E-02-0.238E-03
CGA:  76    -0.669113361894E+03   -0.49109E-03   -0.44073E-03  8424   0.104E-04-0.129E-03
CGA:  77    -0.669113375184E+03   -0.13290E-04    0.84328E-05  8424   0.929E-04-0.240E-04
CGA:  78    -0.669113409726E+03   -0.34542E-04   -0.16618E-04  8424   0.407E-04-0.547E-04
CGA:  79    -0.669113414250E+03   -0.45243E-05   -0.45064E-05  8424   0.230E-05-0.394E-07
  33 F= -.66911341E+03 E0= -.66911341E+03  d E =0.275716E-01  mag=     4.0000
       N       E                     dE             d eps       ncg     rms          ort
SDA:   1    -0.653791666367E+03    0.15322E+02    0.00000E+00  8424   0.428E+02 0.000E+00
CGA:   2    -0.664178217462E+03   -0.10387E+02   -0.10415E+02  8424   0.188E+02-0.156E-01
CGA:   3    -0.667843841264E+03   -0.36656E+01   -0.36616E+01  8424   0.503E+01 0.425E-01
CGA:   4    -0.668711235952E+03   -0.86739E+00   -0.86728E+00  8424   0.134E+01 0.807E-02
CGA:   5    -0.668939154554E+03   -0.22792E+00   -0.22882E+00  8424   0.267E+00 0.257E-02
CGA:   6    -0.668992716527E+03   -0.53562E-01   -0.53944E-01  8424   0.650E-01 0.163E-02
CGA:   7    -0.669007807450E+03   -0.15091E-01   -0.15184E-01  8424   0.221E-01 0.476E-03
CGA:   8    -0.669013522861E+03   -0.57154E-02   -0.57403E-02  8424   0.738E-02 0.172E-03
CGA:   9    -0.669015442346E+03   -0.19195E-02   -0.19777E-02  8424   0.257E-02 0.454E-03
CGA:  10    -0.669016106247E+03   -0.66390E-03   -0.72838E-03  8424   0.970E-03 0.534E-03
CGA:  11    -0.669016269525E+03   -0.16328E-03   -0.24495E-03  8424   0.362E-03 0.474E-03
CGA:  12    -0.669016276948E+03   -0.74236E-05   -0.81402E-04  8424   0.209E-03 0.333E-03
CGA:  13    -0.669016267798E+03    0.91502E-05   -0.28858E-04  8424   0.151E-03 0.170E-03
CGA:  14    -0.669016250378E+03    0.17419E-04   -0.16668E-04  8424   0.134E-03 0.142E-03
CGA:  15    -0.669016232122E+03    0.18256E-04   -0.12969E-04  8424   0.124E-03 0.129E-03
CGA:  16    -0.669016214101E+03    0.18021E-04   -0.10896E-04  8424   0.118E-03 0.121E-03
CGA:  17    -0.669016196627E+03    0.17474E-04   -0.94955E-05  8424   0.113E-03 0.115E-03
CGA:  18    -0.669016179807E+03    0.16820E-04   -0.84557E-05  8424   0.109E-03 0.111E-03
CGA:  19    -0.669016163672E+03    0.16135E-04   -0.76369E-05  8424   0.106E-03 0.107E-03
CGA:  20    -0.669016148221E+03    0.15451E-04   -0.69660E-05  8424   0.103E-03 0.105E-03
CGA:  21    -0.669016133438E+03    0.14783E-04   -0.64005E-05  8424   0.101E-03 0.102E-03
CGA:  22    -0.669016119301E+03    0.14137E-04   -0.59136E-05  8424   0.990E-04 0.100E-03
CGA:  23    -0.669016105784E+03    0.13517E-04   -0.54879E-05  8424   0.973E-04 0.981E-04
CGA:  24    -0.669016092862E+03    0.12922E-04   -0.51111E-05  8424   0.958E-04 0.965E-04
CGA:  25    -0.669016080507E+03    0.12355E-04   -0.47743E-05  8424   0.944E-04 0.950E-04
CGA:  26    -0.669016068695E+03    0.11813E-04   -0.44711E-05  8424   0.932E-04 0.937E-04
CGA:  27    -0.669016057397E+03    0.11297E-04   -0.41993E-05  8424   0.922E-04 0.926E-04
CGA:  28    -0.669016046591E+03    0.10807E-04   -0.39532E-05  8424   0.912E-04 0.916E-04
CGA:  29    -0.669016036252E+03    0.10339E-04   -0.37279E-05  8424   0.904E-04 0.907E-04
CGA:  30    -0.669016026358E+03    0.98937E-05   -0.35206E-05  8424   0.896E-04 0.899E-04
  34 F= -.66901603E+03 E0= -.66901603E+03  d E =0.973879E-01  mag=     4.0000
       N       E                     dE             d eps       ncg     rms          ort
SDA:   1    -0.666053080017E+03    0.29630E+01    0.00000E+00  8424   0.918E+01 0.000E+00
CGA:   2    -0.668069599445E+03   -0.20165E+01   -0.20157E+01  8424   0.400E+01 0.145E-01
CGA:   3    -0.668873226685E+03   -0.80363E+00   -0.80371E+00  8424   0.116E+01-0.300E-02
CGA:   4    -0.669068586868E+03   -0.19536E+00   -0.19537E+00  8424   0.294E+00 0.393E-03
CGA:   5    -0.669119117914E+03   -0.50531E-01   -0.50530E-01  8424   0.597E-01-0.332E-03
CGA:   6    -0.669131201906E+03   -0.12084E-01   -0.12106E-01  8424   0.139E-01-0.853E-03
CGA:   7    -0.669134119906E+03   -0.29180E-02   -0.28888E-02  8424   0.392E-02 0.872E-03
CGA:   8    -0.669135029994E+03   -0.91009E-03   -0.88427E-03  8424   0.109E-02 0.777E-03
CGA:   9    -0.669135288801E+03   -0.25881E-03   -0.25294E-03  8424   0.404E-03 0.470E-03
CGA:  10    -0.669135345939E+03   -0.57138E-04   -0.75418E-04  8424   0.228E-03 0.358E-03
CGA:  11    -0.669135355791E+03   -0.98526E-05   -0.23864E-04  8424   0.164E-03 0.189E-03
CGA:  12    -0.669135356635E+03   -0.84393E-06   -0.14238E-04  8424   0.140E-03 0.151E-03
CGA:  13    -0.669135354122E+03    0.25130E-05   -0.10323E-04  8424   0.126E-03 0.132E-03
  35 F= -.66913535E+03 E0= -.66913535E+03  d E =-.119328E+00  mag=     4.0000
       N       E                     dE             d eps       ncg     rms          ort
SDA:   1    -0.668360699760E+03    0.77466E+00    0.00000E+00  8424   0.219E+01 0.000E+00
CGA:   2    -0.668899548560E+03   -0.53885E+00   -0.53863E+00  8424   0.987E+00 0.241E-02
CGA:   3    -0.669083843820E+03   -0.18430E+00   -0.18424E+00  8424   0.263E+00 0.255E-02
CGA:   4    -0.669129474030E+03   -0.45630E-01   -0.45631E-01  8424   0.683E-01-0.248E-03
CGA:   5    -0.669141204938E+03   -0.11731E-01   -0.11736E-01  8424   0.142E-01-0.981E-03
CGA:   6    -0.669143984712E+03   -0.27798E-02   -0.27864E-02  8424   0.333E-02-0.206E-03
CGA:   7    -0.669144662334E+03   -0.67762E-03   -0.66407E-03  8424   0.963E-03 0.398E-03
CGA:   8    -0.669144850199E+03   -0.18787E-03   -0.18669E-03  8424   0.322E-03 0.400E-03
CGA:   9    -0.669144897182E+03   -0.46983E-04   -0.58128E-04  8424   0.168E-03 0.260E-03
CGA:  10    -0.669144910921E+03   -0.13739E-04   -0.20058E-04  8424   0.113E-03 0.130E-03
CGA:  11    -0.669144913983E+03   -0.30621E-05   -0.10528E-04  8424   0.958E-04 0.103E-03
  36 F= -.66914491E+03 E0= -.66914491E+03  d E =-.955986E-02  mag=     4.0000
       N       E                     dE             d eps       ncg     rms          ort
SDA:   1    -0.668680839555E+03    0.46407E+00    0.00000E+00  8424   0.122E+01 0.000E+00
CGA:   2    -0.669003780556E+03   -0.32294E+00   -0.32288E+00  8424   0.576E+00 0.515E-03
CGA:   3    -0.669108839921E+03   -0.10506E+00   -0.10500E+00  8424   0.147E+00 0.316E-02
CGA:   4    -0.669134194828E+03   -0.25355E-01   -0.25357E-01  8424   0.380E-01-0.314E-03
CGA:   5    -0.669140657239E+03   -0.64624E-02   -0.64686E-02  8424   0.778E-02-0.102E-02
CGA:   6    -0.669142174470E+03   -0.15172E-02   -0.15230E-02  8424   0.197E-02-0.162E-03
CGA:   7    -0.669142569045E+03   -0.39458E-03   -0.38737E-03  8424   0.566E-03 0.209E-03
CGA:   8    -0.669142674427E+03   -0.10538E-03   -0.10539E-03  8424   0.192E-03 0.239E-03
CGA:   9    -0.669142701754E+03   -0.27327E-04   -0.34230E-04  8424   0.104E-03 0.159E-03
CGA:  10    -0.669142714269E+03   -0.12515E-04   -0.14580E-04  8424   0.684E-04 0.781E-04
CGA:  11    -0.669142718903E+03   -0.46348E-05   -0.78067E-05  8424   0.578E-04 0.623E-04
  37 F= -.66914272E+03 E0= -.66914272E+03  d E =0.219508E-02  mag=     4.0000
       N       E                     dE             d eps       ncg     rms          ort
SDA:   1    -0.664086186899E+03    0.50565E+01    0.00000E+00  8424   0.127E+02 0.000E+00
CGA:   2    -0.667573704960E+03   -0.34875E+01   -0.34881E+01  8424   0.658E+01-0.523E-02
CGA:   3    -0.668763955458E+03   -0.11903E+01   -0.11901E+01  8424   0.150E+01 0.944E-02
CGA:   4    -0.669010626016E+03   -0.24667E+00   -0.24667E+00  8424   0.361E+00-0.822E-03
CGA:   5    -0.669071692008E+03   -0.61066E-01   -0.61075E-01  8424   0.750E-01-0.247E-02
CGA:   6    -0.669087052353E+03   -0.15360E-01   -0.15381E-01  8424   0.190E-01-0.523E-03
CGA:   7    -0.669091210707E+03   -0.41584E-02   -0.41568E-02  8424   0.579E-02 0.266E-04
CGA:   8    -0.669092606717E+03   -0.13960E-02   -0.13754E-02  8424   0.187E-02 0.307E-03
CGA:   9    -0.669093190226E+03   -0.58351E-03   -0.58268E-03  8424   0.804E-03 0.555E-05
CGA:  10    -0.669093428162E+03   -0.23794E-03   -0.45475E-03  8424   0.128E-02-0.568E-03
CGA:  11    -0.669093648393E+03   -0.22023E-03   -0.22319E-03  8424   0.188E-03 0.117E-03
CGA:  12    -0.669093599768E+03    0.48625E-04   -0.19681E-03  8424   0.106E-02-0.326E-03
CGA:  13    -0.669093819239E+03   -0.21947E-03   -0.22216E-03  8424   0.210E-03 0.991E-04
CGA:  14    -0.669092712737E+03    0.11065E-02   -0.59583E-03  8424   0.857E-02-0.117E-02
CGA:  15    -0.669093786515E+03   -0.10738E-02   -0.12104E-02  8424   0.115E-02 0.471E-03
CGA:  16    -0.669094128178E+03   -0.34166E-03   -0.34036E-03  8424   0.126E-03-0.105E-04
CGA:  17    -0.669094241397E+03   -0.11322E-03    0.21311E-03  8424   0.172E-03-0.428E-04
CGA:  18    -0.669094261450E+03   -0.20053E-04   -0.88248E-04  8424   0.784E-03-0.190E-03
CGA:  19    -0.669094490730E+03   -0.22928E-03   -0.20073E-03  8424   0.380E-03-0.169E-03
CGA:  20    -0.669094540732E+03   -0.50001E-04   -0.58001E-04  8424   0.794E-04 0.354E-04
CGA:  21    -0.669094570708E+03   -0.29977E-04   -0.29274E-04  8424   0.120E-03-0.110E-04
CGA:  22    -0.669094715909E+03   -0.14520E-03    0.27579E-04  8424   0.184E-03-0.290E-04
CGA:  23    -0.669095014186E+03   -0.29828E-03    0.16916E-04  8424   0.406E-03 0.266E-04
CGA:  24    -0.669095704149E+03   -0.68996E-03    0.11070E-03  8424   0.287E-03 0.136E-03
CGA:  25    -0.669096216014E+03   -0.51186E-03    0.11686E-03  8424   0.367E-03 0.991E-04
CGA:  26    -0.669097155104E+03   -0.93909E-03    0.72765E-04  8424   0.237E-03 0.233E-04
CGA:  27    -0.669097822961E+03   -0.66786E-03    0.22113E-04  8424   0.167E-03 0.590E-04
CGA:  28    -0.669098237863E+03   -0.41490E-03    0.28331E-04  8424   0.208E-03-0.174E-04
CGA:  29    -0.669098956849E+03   -0.71899E-03    0.98683E-05  8424   0.149E-03 0.326E-04
CGA:  30    -0.669099570842E+03   -0.61399E-03    0.10171E-04  8424   0.185E-03-0.186E-04
CGA:  31    -0.669100229592E+03   -0.65875E-03    0.80491E-05  8424   0.204E-03-0.689E-04
CGA:  32    -0.669101093406E+03   -0.86381E-03    0.35108E-05  8424   0.231E-03-0.743E-05
CGA:  33    -0.669102245555E+03   -0.11521E-02    0.82480E-05  8424   0.275E-03-0.136E-03
CGA:  34    -0.669102256755E+03   -0.11200E-04   -0.36438E-04  8424   0.592E-04 0.936E-04
CGA:  35    -0.669102271984E+03   -0.15229E-04   -0.17532E-04  8424   0.338E-04 0.136E-04
CGA:  36    -0.669102345746E+03   -0.73762E-04    0.59568E-05  8424   0.425E-04-0.226E-04
CGA:  37    -0.669102358048E+03   -0.12303E-04   -0.12117E-04  8424   0.187E-04-0.204E-05
CGA:  38    -0.669102410718E+03   -0.52670E-04    0.11315E-05  8424   0.199E-04-0.330E-05
CGA:  39    -0.669102483222E+03   -0.72504E-04    0.62736E-06  8424   0.161E-04 0.128E-04
CGA:  40    -0.669102489423E+03   -0.62010E-05   -0.11726E-04  8424   0.743E-04-0.159E-04
CGA:  41    -0.669102579104E+03   -0.89681E-04    0.27373E-04  8424   0.222E-03-0.109E-03
CGA:  42    -0.669102578868E+03    0.23618E-06   -0.20842E-04  8424   0.253E-04 0.704E-04
  38 F= -.66910258E+03 E0= -.66910258E+03  d E =0.401400E-01  mag=     4.0000
       N       E                     dE             d eps       ncg     rms          ort
SDA:   1    -0.652144187624E+03    0.16958E+02    0.00000E+00  8424   0.466E+02 0.000E+00
CGA:   2    -0.663852410531E+03   -0.11708E+02   -0.11726E+02  8424   0.205E+02 0.135E-01
CGA:   3    -0.667713192562E+03   -0.38608E+01   -0.38574E+01  8424   0.556E+01 0.229E-01
CGA:   4    -0.668672462094E+03   -0.95927E+00   -0.95900E+00  8424   0.144E+01 0.740E-02
CGA:   5    -0.668919624575E+03   -0.24716E+00   -0.24804E+00  8424   0.296E+00 0.445E-02
CGA:   6    -0.668978297860E+03   -0.58673E-01   -0.58978E-01  8424   0.705E-01 0.219E-02
CGA:   7    -0.668995171570E+03   -0.16874E-01   -0.16947E-01  8424   0.246E-01 0.824E-03
CGA:   8    -0.669001415203E+03   -0.62436E-02   -0.62915E-02  8424   0.827E-02 0.706E-03
CGA:   9    -0.669003563169E+03   -0.21480E-02   -0.22003E-02  8424   0.288E-02 0.892E-03
CGA:  10    -0.669004204491E+03   -0.64132E-03   -0.73369E-03  8424   0.111E-02 0.109E-02
CGA:  11    -0.669004339673E+03   -0.13518E-03   -0.25500E-03  8424   0.531E-03 0.837E-03
CGA:  12    -0.669004348574E+03   -0.89011E-05   -0.74814E-04  8424   0.345E-03 0.406E-03
CGA:  13    -0.669004326533E+03    0.22041E-04   -0.37541E-04  8424   0.296E-03 0.319E-03
CGA:  14    -0.669004300378E+03    0.26155E-04   -0.27906E-04  8424   0.268E-03 0.282E-03
CGA:  15    -0.669004273375E+03    0.27003E-04   -0.22694E-04  8424   0.250E-03 0.259E-03
CGA:  16    -0.669004246601E+03    0.26774E-04   -0.19311E-04  8424   0.236E-03 0.243E-03
CGA:  17    -0.669004220492E+03    0.26109E-04   -0.16886E-04  8424   0.226E-03 0.231E-03
CGA:  18    -0.669004195235E+03    0.25257E-04   -0.15035E-04  8424   0.218E-03 0.222E-03
CGA:  19    -0.669004170907E+03    0.24328E-04   -0.13559E-04  8424   0.211E-03 0.215E-03
CGA:  20    -0.669004147531E+03    0.23376E-04   -0.12344E-04  8424   0.205E-03 0.208E-03
CGA:  21    -0.669004125101E+03    0.22430E-04   -0.11321E-04  8424   0.201E-03 0.203E-03
CGA:  22    -0.669004103597E+03    0.21504E-04   -0.10443E-04  8424   0.196E-03 0.198E-03
CGA:  23    -0.669004082992E+03    0.20606E-04   -0.96781E-05  8424   0.193E-03 0.194E-03
CGA:  24    -0.669004063252E+03    0.19739E-04   -0.90041E-05  8424   0.189E-03 0.191E-03
CGA:  25    -0.669004044345E+03    0.18907E-04   -0.84042E-05  8424   0.187E-03 0.188E-03
CGA:  26    -0.669004026236E+03    0.18109E-04   -0.78656E-05  8424   0.184E-03 0.185E-03
CGA:  27    -0.669004008892E+03    0.17344E-04   -0.73793E-05  8424   0.182E-03 0.183E-03
CGA:  28    -0.669003992279E+03    0.16614E-04   -0.69406E-05  8424   0.180E-03 0.181E-03
CGA:  29    -0.669003976363E+03    0.15916E-04   -0.65405E-05  8424   0.178E-03 0.179E-03
CGA:  30    -0.669003961115E+03    0.15248E-04   -0.61732E-05  8424   0.176E-03 0.177E-03
CGA:  31    -0.669003946504E+03    0.14610E-04   -0.58345E-05  8424   0.175E-03 0.175E-03
CGA:  32    -0.669003932504E+03    0.14000E-04   -0.55211E-05  8424   0.173E-03 0.174E-03
CGA:  33    -0.669003919088E+03    0.13416E-04   -0.52303E-05  8424   0.172E-03 0.172E-03
CGA:  34    -0.669003906230E+03    0.12858E-04   -0.49598E-05  8424   0.171E-03 0.171E-03
CGA:  35    -0.669003893906E+03    0.12324E-04   -0.47074E-05  8424   0.170E-03 0.170E-03
CGA:  36    -0.669003882094E+03    0.11812E-04   -0.44716E-05  8424   0.169E-03 0.169E-03
CGA:  37    -0.669003870771E+03    0.11323E-04   -0.42507E-05  8424   0.168E-03 0.168E-03
CGA:  38    -0.669003859916E+03    0.10854E-04   -0.40436E-05  8424   0.167E-03 0.167E-03
CGA:  39    -0.669003849511E+03    0.10406E-04   -0.38489E-05  8424   0.166E-03 0.166E-03
CGA:  40    -0.669003839534E+03    0.99766E-05   -0.36658E-05  8424   0.165E-03 0.166E-03
