       N       E                     dE             d eps       ncg     rms          rms(c)
DAV:   1     0.830632154543E+04    0.83063E+04   -0.23611E+05 34308   0.219E+03
DAV:   2     0.121794492763E+04   -0.70884E+04   -0.66627E+04 33696   0.635E+02
DAV:   3    -0.316595006462E+03   -0.15345E+04   -0.13432E+04 35940   0.272E+02
DAV:   4    -0.470364742418E+03   -0.15377E+03   -0.15114E+03 36840   0.835E+01
DAV:   5    -0.472912452126E+03   -0.25477E+01   -0.25372E+01 36816   0.121E+01    0.110E+02
DAV:   6    -0.577968549791E+03   -0.10506E+03   -0.94405E+02 45792   0.135E+02    0.155E+02
DAV:   7    -0.402063528073E+03    0.17591E+03   -0.30129E+02 38880   0.103E+02    0.632E+01
DAV:   8    -0.424027017405E+03   -0.21963E+02   -0.16081E+02 39132   0.666E+01    0.764E+01
DAV:   9    -0.412447338367E+03    0.11580E+02   -0.52341E+01 38352   0.498E+01    0.492E+01
DAV:  10    -0.419334134032E+03   -0.68868E+01   -0.40957E+01 37764   0.288E+01    0.627E+01
DAV:  11    -0.407052218706E+03    0.12282E+02   -0.21128E+01 37248   0.214E+01    0.325E+01
DAV:  12    -0.401373910223E+03    0.56783E+01   -0.75900E+00 36912   0.241E+01    0.241E+01
DAV:  13    -0.401555790653E+03   -0.18188E+00   -0.31936E+00 37116   0.868E+00    0.198E+01
DAV:  14    -0.401973191055E+03   -0.41740E+00   -0.11158E+00 37476   0.731E+00    0.174E+01
DAV:  15    -0.402431683993E+03   -0.45849E+00   -0.17619E+00 39300   0.806E+00    0.119E+01
DAV:  16    -0.403107282514E+03   -0.67560E+00   -0.30443E+00 41340   0.980E+00    0.584E+00
DAV:  17    -0.403012428781E+03    0.94854E-01   -0.10358E+00 36696   0.602E+00    0.389E+00
DAV:  18    -0.402998069833E+03    0.14359E-01   -0.31519E-01 36948   0.345E+00    0.328E+00
DAV:  19    -0.402971666154E+03    0.26404E-01   -0.38608E-01 43140   0.291E+00    0.279E+00
DAV:  20    -0.402957930388E+03    0.13736E-01   -0.12531E-01 43680   0.231E+00    0.260E+00
DAV:  21    -0.402951549711E+03    0.63807E-02   -0.64458E-02 40512   0.170E+00    0.276E+00
DAV:  22    -0.402950288014E+03    0.12617E-02   -0.35113E-02 43416   0.997E-01    0.296E+00
DAV:  23    -0.402949088701E+03    0.11993E-02   -0.41322E-02 36852   0.111E+00    0.250E+00
DAV:  24    -0.402947487200E+03    0.16015E-02   -0.40354E-01 42336   0.267E+00    0.137E+00
DAV:  25    -0.402953527576E+03   -0.60404E-02   -0.62571E-02 45072   0.127E+00    0.147E+00
DAV:  26    -0.402954526375E+03   -0.99880E-03   -0.35616E-02 43872   0.905E-01    0.216E+00
DAV:  27    -0.402957008472E+03   -0.24821E-02   -0.13344E-02 35436   0.260E-01    0.225E+00
DAV:  28    -0.402953406294E+03    0.36022E-02   -0.10873E-03 45576   0.188E-01    0.210E+00
DAV:  29    -0.402952255603E+03    0.11507E-02   -0.10245E-03 43428   0.998E-02    0.195E+00
DAV:  30    -0.402954263262E+03   -0.20077E-02   -0.12376E-03 42036   0.150E-01    0.222E+00
DAV:  31    -0.402952601886E+03    0.16614E-02   -0.95364E-04 42288   0.166E-01    0.220E+00
DAV:  32    -0.402940972325E+03    0.11630E-01   -0.34104E-02 46416   0.102E+00    0.151E+00
DAV:  33    -0.402942250694E+03   -0.12784E-02   -0.71901E-02 46200   0.130E+00    0.166E+00
DAV:  34    -0.402949566709E+03   -0.73160E-02   -0.29762E-02 44292   0.677E-01    0.180E+00
DAV:  35    -0.402949848724E+03   -0.28202E-03   -0.54815E-03 39600   0.223E-01    0.167E+00
DAV:  36    -0.402948384499E+03    0.14642E-02   -0.92487E-03 47664   0.463E-01    0.137E+00
DAV:  37    -0.402941683886E+03    0.67006E-02   -0.38658E-02 46356   0.703E-01    0.661E-01
DAV:  38    -0.402942232819E+03   -0.54893E-03   -0.19242E-02 42864   0.535E-01    0.618E-01
DAV:  39    -0.402942375934E+03   -0.14311E-03   -0.94463E-03 40080   0.332E-01    0.432E-01
DAV:  40    -0.402941898821E+03    0.47711E-03   -0.32323E-03 46944   0.197E-01    0.346E-01
DAV:  41    -0.402941010572E+03    0.88825E-03   -0.45169E-03 44484   0.250E-01    0.221E-01
DAV:  42    -0.402940847087E+03    0.16349E-03   -0.17568E-03 41292   0.126E-01    0.179E-01
DAV:  43    -0.402941006047E+03   -0.15896E-03   -0.45401E-04 36720   0.112E-01    0.189E-01
DAV:  44    -0.402940832042E+03    0.17401E-03   -0.53192E-04 38016   0.862E-02    0.156E-01
DAV:  45    -0.402940744746E+03    0.87296E-04   -0.12969E-04 33000   0.546E-02    0.126E-01
DAV:  46    -0.402940768382E+03   -0.23636E-04   -0.88715E-05 34272   0.419E-02    0.117E-01
DAV:  47    -0.402940712983E+03    0.55399E-04   -0.40255E-05 23784   0.367E-02    0.950E-02
DAV:  48    -0.402940663804E+03    0.49178E-04   -0.44925E-05 25968   0.352E-02    0.698E-02
DAV:  49    -0.402940662996E+03    0.80845E-06   -0.26698E-05 27444   0.138E-02
   1 F= -.40294066E+03 E0= -.40292748E+03  d E =-.402941E+03  mag=     0.0673
       N       E                     dE             d eps       ncg     rms          rms(c)
DAV:   1    -0.402975082429E+03   -0.34419E-01   -0.22660E-02 50232   0.157E+00    0.119E-01
DAV:   2    -0.402976502709E+03   -0.14203E-02   -0.13477E-02 37692   0.262E-01    0.130E-01
DAV:   3    -0.402976596791E+03   -0.94082E-04   -0.11066E-03 36756   0.182E-01    0.124E-01
DAV:   4    -0.402976646938E+03   -0.50147E-04   -0.10214E-04 34752   0.465E-02    0.128E-01
DAV:   5    -0.402976497780E+03    0.14916E-03   -0.17484E-04 32724   0.665E-02    0.931E-02
DAV:   6    -0.402976407739E+03    0.90041E-04   -0.23037E-04 37824   0.986E-02    0.575E-02
DAV:   7    -0.402976429950E+03   -0.22211E-04   -0.12840E-04 35064   0.649E-02    0.532E-02
DAV:   8    -0.402976437631E+03   -0.76807E-05   -0.14653E-04 34308   0.663E-02    0.298E-02
DAV:   9    -0.402976449418E+03   -0.11787E-04   -0.66763E-05 22968   0.331E-02    0.196E-02
DAV:  10    -0.402976457177E+03   -0.77589E-05   -0.43103E-05 21828   0.285E-02
   2 F= -.40297646E+03 E0= -.40296308E+03  d E =-.357942E-01  mag=     0.0181
       N       E                     dE             d eps       ncg     rms          rms(c)
DAV:   1    -0.401784701956E+03    0.11917E+01   -0.35974E+01 50484   0.613E+01    0.552E+00
DAV:   2    -0.404050399730E+03   -0.22657E+01   -0.22766E+01 36588   0.111E+01    0.531E+00
DAV:   3    -0.404008781057E+03    0.41619E-01   -0.23593E+00 37044   0.765E+00    0.245E+00
DAV:   4    -0.403992618049E+03    0.16163E-01   -0.18746E-01 36396   0.259E+00    0.160E+00
DAV:   5    -0.404008816086E+03   -0.16198E-01   -0.10016E-01 37524   0.211E+00    0.159E+00
DAV:   6    -0.403998217285E+03    0.10599E-01   -0.89119E-02 36768   0.174E+00    0.543E-01
DAV:   7    -0.403997211497E+03    0.10058E-02   -0.13661E-02 37008   0.812E-01    0.313E-01
DAV:   8    -0.403996894956E+03    0.31654E-03   -0.49646E-03 36924   0.492E-01    0.170E-01
DAV:   9    -0.403996863514E+03    0.31443E-04   -0.13052E-03 38076   0.225E-01    0.131E-01
DAV:  10    -0.403997006224E+03   -0.14271E-03   -0.45820E-04 36864   0.105E-01    0.147E-01
DAV:  11    -0.403996938849E+03    0.67375E-04   -0.81202E-05 35340   0.363E-02    0.135E-01
DAV:  12    -0.403996741811E+03    0.19704E-03   -0.38400E-04 38424   0.117E-01    0.979E-02
DAV:  13    -0.403996670858E+03    0.70953E-04   -0.36118E-04 41544   0.107E-01    0.627E-02
DAV:  14    -0.403996665062E+03    0.57967E-05   -0.19474E-04 35844   0.898E-02    0.377E-02
DAV:  15    -0.403996665893E+03   -0.83170E-06   -0.82247E-05 33372   0.480E-02
   3 F= -.40399667E+03 E0= -.40398298E+03  d E =-.102021E+01  mag=    -0.0004
       N       E                     dE             d eps       ncg     rms          rms(c)
DAV:   1    -0.402767922337E+03    0.12287E+01   -0.44989E+01 48180   0.604E+01    0.487E+00
DAV:   2    -0.404851485444E+03   -0.20836E+01   -0.20950E+01 36780   0.118E+01    0.579E+00
DAV:   3    -0.404742885647E+03    0.10860E+00   -0.23327E+00 37104   0.801E+00    0.208E+00
DAV:   4    -0.404741316054E+03    0.15696E-02   -0.17758E-01 37152   0.245E+00    0.155E+00
DAV:   5    -0.404749681889E+03   -0.83658E-02   -0.97561E-02 37152   0.215E+00    0.147E+00
DAV:   6    -0.404742204037E+03    0.74779E-02   -0.67931E-02 36756   0.165E+00    0.535E-01
DAV:   7    -0.404741506600E+03    0.69744E-03   -0.21671E-02 37284   0.837E-01    0.345E-01
DAV:   8    -0.404740892205E+03    0.61440E-03   -0.66618E-03 36924   0.506E-01    0.171E-01
DAV:   9    -0.404740804630E+03    0.87574E-04   -0.16409E-03 40464   0.254E-01    0.116E-01
DAV:  10    -0.404740755830E+03    0.48800E-04   -0.77174E-04 36852   0.194E-01    0.844E-02
DAV:  11    -0.404740723497E+03    0.32333E-04   -0.41314E-04 36936   0.146E-01    0.542E-02
DAV:  12    -0.404740710501E+03    0.12996E-04   -0.16355E-04 36144   0.746E-02    0.289E-02
DAV:  13    -0.404740711044E+03   -0.54338E-06   -0.73817E-05 34968   0.511E-02
   4 F= -.40474071E+03 E0= -.40472701E+03  d E =-.744045E+00  mag=     0.0061
       N       E                     dE             d eps       ncg     rms          rms(c)
DAV:   1    -0.404787576117E+03   -0.46866E-01   -0.29250E+01 39420   0.252E+01    0.168E+00
DAV:   2    -0.405099120155E+03   -0.31154E+00   -0.32937E+00 40812   0.556E+00    0.187E+00
DAV:   3    -0.405092112157E+03    0.70080E-02   -0.29195E-01 37056   0.302E+00    0.931E-01
DAV:   4    -0.405087887370E+03    0.42248E-02   -0.28198E-02 37164   0.114E+00    0.609E-01
DAV:   5    -0.405088961862E+03   -0.10745E-02   -0.19278E-02 37404   0.103E+00    0.638E-01
DAV:   6    -0.405086456971E+03    0.25049E-02   -0.16213E-02 37152   0.911E-01    0.190E-01
DAV:   7    -0.405086681200E+03   -0.22423E-03   -0.41077E-03 38016   0.349E-01    0.192E-01
DAV:   8    -0.405086649938E+03    0.31262E-04   -0.15394E-03 37176   0.216E-01    0.133E-01
DAV:   9    -0.405086792920E+03   -0.14298E-03   -0.37023E-04 36636   0.856E-02    0.152E-01
DAV:  10    -0.405086724690E+03    0.68230E-04   -0.64938E-05 30336   0.372E-02    0.146E-01
DAV:  11    -0.405086362038E+03    0.36265E-03   -0.64305E-04 40896   0.127E-01    0.986E-02
DAV:  12    -0.405086280323E+03    0.81715E-04   -0.49006E-04 42792   0.115E-01    0.658E-02
DAV:  13    -0.405086303334E+03   -0.23011E-04   -0.28053E-04 36636   0.102E-01    0.450E-02
DAV:  14    -0.405086320701E+03   -0.17366E-04   -0.15224E-04 35928   0.822E-02    0.307E-02
DAV:  15    -0.405086322068E+03   -0.13679E-05   -0.37191E-05 25152   0.458E-02
   5 F= -.40508632E+03 E0= -.40507296E+03  d E =-.345611E+00  mag=    -0.0031
       N       E                     dE             d eps       ncg     rms          rms(c)
DAV:   1    -0.404096905639E+03    0.98942E+00   -0.83027E+01 41616   0.530E+01    0.309E+00
DAV:   2    -0.405328066034E+03   -0.12312E+01   -0.12769E+01 36456   0.799E+00    0.230E+00
DAV:   3    -0.405346093419E+03   -0.18027E-01   -0.61892E-01 37152   0.430E+00    0.193E+00
DAV:   4    -0.405326403557E+03    0.19690E-01   -0.15615E-01 38496   0.239E+00    0.110E+00
DAV:   5    -0.405329251538E+03   -0.28480E-02   -0.69244E-02 38784   0.166E+00    0.113E+00
DAV:   6    -0.405321799397E+03    0.74521E-02   -0.62281E-02 39108   0.158E+00    0.436E-01
DAV:   7    -0.405322386582E+03   -0.58719E-03   -0.19979E-02 37860   0.794E-01    0.343E-01
DAV:   8    -0.405321811723E+03    0.57486E-03   -0.80279E-03 36864   0.536E-01    0.141E-01
DAV:   9    -0.405321838537E+03   -0.26813E-04   -0.12475E-03 36840   0.214E-01    0.113E-01
DAV:  10    -0.405321807066E+03    0.31471E-04   -0.56852E-04 36948   0.185E-01    0.732E-02
DAV:  11    -0.405321848185E+03   -0.41119E-04   -0.25447E-04 37476   0.967E-02    0.445E-02
DAV:  12    -0.405321861474E+03   -0.13289E-04   -0.15518E-04 36660   0.861E-02    0.316E-02
DAV:  13    -0.405321864572E+03   -0.30982E-05   -0.36276E-05 26592   0.399E-02
   6 F= -.40532186E+03 E0= -.40530901E+03  d E =-.235543E+00  mag=    -0.0151
       N       E                     dE             d eps       ncg     rms          rms(c)
DAV:   1    -0.403520710845E+03    0.18012E+01   -0.44406E+01 46536   0.699E+01    0.390E+00
DAV:   2    -0.405313551677E+03   -0.17928E+01   -0.18521E+01 36444   0.920E+00    0.291E+00
DAV:   3    -0.405359102785E+03   -0.45551E-01   -0.10634E+00 37560   0.547E+00    0.254E+00
DAV:   4    -0.405326947293E+03    0.32155E-01   -0.28860E-01 37368   0.281E+00    0.140E+00
DAV:   5    -0.405330430857E+03   -0.34836E-02   -0.97453E-02 37908   0.168E+00    0.131E+00
DAV:   6    -0.405324485043E+03    0.59458E-02   -0.66756E-02 40368   0.155E+00    0.590E-01
DAV:   7    -0.405324270013E+03    0.21503E-03   -0.25305E-02 36924   0.107E+00    0.391E-01
DAV:   8    -0.405323779366E+03    0.49065E-03   -0.10059E-02 37212   0.625E-01    0.193E-01
DAV:   9    -0.405323703986E+03    0.75380E-04   -0.23406E-03 36540   0.305E-01    0.124E-01
DAV:  10    -0.405323648237E+03    0.55748E-04   -0.56806E-04 36804   0.163E-01    0.871E-02
DAV:  11    -0.405323668308E+03   -0.20071E-04   -0.32255E-04 36816   0.132E-01    0.745E-02
DAV:  12    -0.405323721336E+03   -0.53028E-04   -0.20451E-04 38136   0.921E-02    0.619E-02
DAV:  13    -0.405323749589E+03   -0.28253E-04   -0.65024E-05 34212   0.358E-02    0.643E-02
DAV:  14    -0.405323720698E+03    0.28891E-04   -0.15026E-05 20316   0.244E-02    0.616E-02
DAV:  15    -0.405323578483E+03    0.14222E-03   -0.25050E-04 39804   0.101E-01    0.443E-02
DAV:  16    -0.405323563009E+03    0.15474E-04   -0.13392E-04 35076   0.599E-02    0.300E-02
DAV:  17    -0.405323567654E+03   -0.46451E-05   -0.49475E-05 27264   0.259E-02
   7 F= -.40532357E+03 E0= -.40531117E+03  d E =-.170308E-02  mag=    -0.0113
       N       E                     dE             d eps       ncg     rms          rms(c)
DAV:   1    -0.404937246349E+03    0.38632E+00   -0.10089E+01 47400   0.349E+01    0.183E+00
DAV:   2    -0.405386736510E+03   -0.44949E+00   -0.46506E+00 37176   0.424E+00    0.109E+00
DAV:   3    -0.405392624088E+03   -0.58876E-02   -0.11338E-01 37548   0.167E+00    0.979E-01
DAV:   4    -0.405389275039E+03    0.33490E-02   -0.45515E-02 36924   0.126E+00    0.658E-01
DAV:   5    -0.405390103325E+03   -0.82829E-03   -0.19890E-02 41508   0.795E-01    0.512E-01
DAV:   6    -0.405388707605E+03    0.13957E-02   -0.14141E-02 38832   0.815E-01    0.206E-01
DAV:   7    -0.405388616446E+03    0.91159E-04   -0.33257E-03 37836   0.342E-01    0.131E-01
DAV:   8    -0.405388572465E+03    0.43981E-04   -0.10649E-03 37644   0.194E-01    0.755E-02
DAV:   9    -0.405388566941E+03    0.55246E-05   -0.28696E-04 36588   0.112E-01    0.573E-02
DAV:  10    -0.405388573206E+03   -0.62653E-05   -0.88981E-05 35316   0.642E-02
   8 F= -.40538857E+03 E0= -.40537608E+03  d E =-.650056E-01  mag=    -0.0883
       N       E                     dE             d eps       ncg     rms          rms(c)
DAV:   1    -0.405363956591E+03    0.24610E-01   -0.32544E+00 42960   0.102E+01    0.565E-01
DAV:   2    -0.405410129991E+03   -0.46173E-01   -0.47345E-01 36768   0.156E+00    0.418E-01
DAV:   3    -0.405410918930E+03   -0.78894E-03   -0.21356E-02 36852   0.802E-01    0.377E-01
DAV:   4    -0.405410231161E+03    0.68777E-03   -0.61842E-03 36936   0.463E-01    0.215E-01
DAV:   5    -0.405410537686E+03   -0.30653E-03   -0.22839E-03 41388   0.321E-01    0.238E-01
DAV:   6    -0.405410626837E+03   -0.89151E-04   -0.18037E-03 39348   0.287E-01    0.152E-01
DAV:   7    -0.405410907515E+03   -0.28068E-03   -0.50897E-04 38220   0.102E-01    0.163E-01
DAV:   8    -0.405410896617E+03    0.10898E-04   -0.11658E-04 34800   0.314E-02    0.162E-01
DAV:   9    -0.405410884700E+03    0.11917E-04   -0.20533E-06 18720   0.686E-03    0.163E-01
DAV:  10    -0.405410937008E+03   -0.52308E-04   -0.54084E-06 18720   0.151E-02    0.163E-01
DAV:  11    -0.405410611886E+03    0.32512E-03   -0.13441E-04 34788   0.916E-02    0.163E-01
DAV:  12    -0.405409560489E+03    0.10514E-02   -0.32599E-03 44280   0.338E-01    0.171E-01
DAV:  13    -0.405409764555E+03   -0.20407E-03   -0.12957E-03 36540   0.137E-01    0.130E-01
DAV:  14    -0.405409790235E+03   -0.25680E-04   -0.46697E-04 40560   0.131E-01    0.823E-02
DAV:  15    -0.405409793556E+03   -0.33204E-05   -0.15614E-04 36036   0.678E-02    0.538E-02
DAV:  16    -0.405409799512E+03   -0.59565E-05   -0.70262E-05 32544   0.541E-02
   9 F= -.40540980E+03 E0= -.40539722E+03  d E =-.212263E-01  mag=    -0.0103
       N       E                     dE             d eps       ncg     rms          rms(c)
DAV:   1    -0.405245227931E+03    0.16457E+00   -0.15061E+01 42048   0.207E+01    0.112E+00
DAV:   2    -0.405432589455E+03   -0.18736E+00   -0.19134E+00 36768   0.312E+00    0.723E-01
DAV:   3    -0.405434237242E+03   -0.16478E-02   -0.58435E-02 37212   0.129E+00    0.625E-01
DAV:   4    -0.405432370354E+03    0.18669E-02   -0.17333E-02 38424   0.864E-01    0.400E-01
DAV:   5    -0.405432445003E+03   -0.74649E-04   -0.83258E-03 40944   0.615E-01    0.358E-01
DAV:   6    -0.405431754151E+03    0.69085E-03   -0.74824E-03 37692   0.565E-01    0.149E-01
DAV:   7    -0.405431833011E+03   -0.78860E-04   -0.21464E-03 37764   0.279E-01    0.112E-01
DAV:   8    -0.405431810288E+03    0.22724E-04   -0.75240E-04 37680   0.176E-01    0.574E-02
DAV:   9    -0.405431833118E+03   -0.22830E-04   -0.13581E-04 35544   0.699E-02    0.499E-02
DAV:  10    -0.405431858506E+03   -0.25388E-04   -0.79934E-05 33876   0.639E-02    0.470E-02
DAV:  11    -0.405431899142E+03   -0.40636E-04   -0.48830E-05 23700   0.387E-02    0.510E-02
DAV:  12    -0.405431885130E+03    0.14013E-04   -0.18681E-05 22212   0.191E-02    0.484E-02
DAV:  13    -0.405431828923E+03    0.56206E-04   -0.10700E-04 26736   0.579E-02    0.359E-02
DAV:  14    -0.405431814005E+03    0.14919E-04   -0.11231E-04 33276   0.495E-02    0.244E-02
DAV:  15    -0.405431819805E+03   -0.57999E-05   -0.36689E-05 25728   0.269E-02
  10 F= -.40543182E+03 E0= -.40541927E+03  d E =-.220203E-01  mag=     0.0006
       N       E                     dE             d eps       ncg     rms          rms(c)
DAV:   1    -0.404968496537E+03    0.46332E+00   -0.14237E+01 45672   0.353E+01    0.181E+00
DAV:   2    -0.405430629668E+03   -0.46213E+00   -0.47348E+00 37224   0.450E+00    0.103E+00
DAV:   3    -0.405434447286E+03   -0.38176E-02   -0.88149E-02 38328   0.138E+00    0.803E-01
DAV:   4    -0.405433652986E+03    0.79430E-03   -0.26539E-02 38880   0.117E+00    0.657E-01
DAV:   5    -0.405433672153E+03   -0.19166E-04   -0.18373E-02 40164   0.838E-01    0.458E-01
DAV:   6    -0.405432473354E+03    0.11988E-02   -0.11772E-02 38280   0.684E-01    0.170E-01
DAV:   7    -0.405432480428E+03   -0.70738E-05   -0.28931E-03 37320   0.306E-01    0.121E-01
DAV:   8    -0.405432443521E+03    0.36907E-04   -0.99149E-04 36756   0.194E-01    0.677E-02
DAV:   9    -0.405432431588E+03    0.11933E-04   -0.25051E-04 36912   0.108E-01    0.497E-02
DAV:  10    -0.405432426938E+03    0.46503E-05   -0.11525E-04 35556   0.749E-02    0.334E-02
DAV:  11    -0.405432436918E+03   -0.99796E-05   -0.79942E-05 34500   0.636E-02
  11 F= -.40543244E+03 E0= -.40541988E+03  d E =-.617113E-03  mag=    -0.0226
       N       E                     dE             d eps       ncg     rms          rms(c)
DAV:   1    -0.405343469710E+03    0.88957E-01   -0.30441E+00 45792   0.166E+01    0.806E-01
DAV:   2    -0.405441896929E+03   -0.98427E-01   -0.10131E+00 36312   0.212E+00    0.472E-01
DAV:   3    -0.405442992482E+03   -0.10956E-02   -0.22941E-02 36960   0.699E-01    0.385E-01
DAV:   4    -0.405442759337E+03    0.23315E-03   -0.66469E-03 38052   0.575E-01    0.303E-01
DAV:   5    -0.405442787600E+03   -0.28263E-04   -0.37145E-03 41940   0.381E-01    0.225E-01
DAV:   6    -0.405442574815E+03    0.21278E-03   -0.23157E-03 37512   0.356E-01    0.104E-01
DAV:   7    -0.405442691367E+03   -0.11655E-03   -0.49745E-04 38304   0.116E-01    0.104E-01
DAV:   8    -0.405442727132E+03   -0.35765E-04   -0.11491E-04 35952   0.375E-02    0.105E-01
DAV:   9    -0.405442652061E+03    0.75071E-04   -0.42577E-05 22656   0.371E-02    0.963E-02
DAV:  10    -0.405442470372E+03    0.18169E-03   -0.44917E-04 41064   0.108E-01    0.746E-02
DAV:  11    -0.405442403317E+03    0.67055E-04   -0.33939E-04 40536   0.819E-02    0.487E-02
DAV:  12    -0.405442401409E+03    0.19084E-05   -0.11102E-04 32520   0.505E-02    0.399E-02
DAV:  13    -0.405442394544E+03    0.68651E-05   -0.88577E-05 33204   0.528E-02
  12 F= -.40544239E+03 E0= -.40542978E+03  d E =-.995763E-02  mag=    -0.0037
       N       E                     dE             d eps       ncg     rms          rms(c)
DAV:   1    -0.405409439806E+03    0.32962E-01   -0.19461E+00 44748   0.936E+00    0.509E-01
DAV:   2    -0.405447258401E+03   -0.37819E-01   -0.38553E-01 36876   0.132E+00    0.333E-01
DAV:   3    -0.405447674706E+03   -0.41630E-03   -0.11662E-02 37548   0.580E-01    0.268E-01
DAV:   4    -0.405447355769E+03    0.31894E-03   -0.29002E-03 37380   0.377E-01    0.178E-01
DAV:   5    -0.405447453925E+03   -0.98156E-04   -0.18749E-03 42252   0.276E-01    0.174E-01
DAV:   6    -0.405447260550E+03    0.19338E-03   -0.14504E-03 37992   0.265E-01    0.534E-02
DAV:   7    -0.405447283684E+03   -0.23134E-04   -0.32873E-04 39468   0.985E-02    0.473E-02
DAV:   8    -0.405447276970E+03    0.67134E-05   -0.12367E-04 35244   0.700E-02    0.247E-02
DAV:   9    -0.405447281407E+03   -0.44366E-05   -0.18279E-05 19368   0.250E-02
  13 F= -.40544728E+03 E0= -.40543469E+03  d E =-.488686E-02  mag=    -0.0315
       N       E                     dE             d eps       ncg     rms          rms(c)
DAV:   1    -0.405430819315E+03    0.16458E-01   -0.98676E-01 44700   0.677E+00    0.347E-01
DAV:   2    -0.405449097374E+03   -0.18278E-01   -0.18578E-01 37320   0.957E-01    0.222E-01
DAV:   3    -0.405449265671E+03   -0.16830E-03   -0.47292E-03 37020   0.363E-01    0.181E-01
DAV:   4    -0.405449157351E+03    0.10832E-03   -0.13061E-03 37284   0.254E-01    0.130E-01
DAV:   5    -0.405449239059E+03   -0.81707E-04   -0.86050E-04 42420   0.190E-01    0.120E-01
DAV:   6    -0.405449246981E+03   -0.79227E-05   -0.62390E-04 37824   0.165E-01    0.827E-02
DAV:   7    -0.405449298208E+03   -0.51227E-04   -0.11768E-04 35712   0.415E-02    0.858E-02
DAV:   8    -0.405449261490E+03    0.36719E-04   -0.27574E-05 22968   0.278E-02    0.823E-02
DAV:   9    -0.405449068250E+03    0.19324E-03   -0.48488E-04 41868   0.114E-01    0.526E-02
DAV:  10    -0.405449051576E+03    0.16674E-04   -0.22999E-04 39672   0.730E-02    0.357E-02
DAV:  11    -0.405449057349E+03   -0.57731E-05   -0.74751E-05 30336   0.435E-02
  14 F= -.40544906E+03 E0= -.40543650E+03  d E =-.177594E-02  mag=    -0.0113
       N       E                     dE             d eps       ncg     rms          rms(c)
DAV:   1    -0.405309562057E+03    0.13949E+00   -0.61056E+00 45600   0.197E+01    0.955E-01
DAV:   2    -0.405450970297E+03   -0.14141E+00   -0.14312E+00 36648   0.260E+00    0.536E-01
DAV:   3    -0.405452003534E+03   -0.10332E-02   -0.26763E-02 38232   0.749E-01    0.424E-01
DAV:   4    -0.405451706523E+03    0.29701E-03   -0.88299E-03 37764   0.630E-01    0.340E-01
DAV:   5    -0.405451670880E+03    0.35644E-04   -0.62137E-03 41316   0.473E-01    0.258E-01
DAV:   6    -0.405451251645E+03    0.41923E-03   -0.41176E-03 38484   0.408E-01    0.874E-02
DAV:   7    -0.405451295955E+03   -0.44310E-04   -0.84535E-04 37956   0.153E-01    0.705E-02
DAV:   8    -0.405451288554E+03    0.74007E-05   -0.21884E-04 35388   0.929E-02    0.462E-02
DAV:   9    -0.405451303878E+03   -0.15323E-04   -0.39101E-05 26796   0.356E-02    0.465E-02
DAV:  10    -0.405451322436E+03   -0.18559E-04   -0.19418E-05 19272   0.222E-02    0.494E-02
DAV:  11    -0.405451314977E+03    0.74592E-05   -0.71430E-06 18780   0.121E-02
  15 F= -.40545131E+03 E0= -.40543876E+03  d E =-.225763E-02  mag=    -0.0586
       N       E                     dE             d eps       ncg     rms          rms(c)
DAV:   1    -0.405152204505E+03    0.29912E+00   -0.10604E+01 45696   0.284E+01    0.138E+00
DAV:   2    -0.405445020806E+03   -0.29282E+00   -0.29823E+00 37716   0.368E+00    0.817E-01
DAV:   3    -0.405446695817E+03   -0.16750E-02   -0.53287E-02 38124   0.120E+00    0.698E-01
DAV:   4    -0.405445219376E+03    0.14764E-02   -0.23630E-02 37500   0.907E-01    0.507E-01
DAV:   5    -0.405445431569E+03   -0.21219E-03   -0.12717E-02 41184   0.650E-01    0.395E-01
DAV:   6    -0.405444594302E+03    0.83727E-03   -0.86903E-03 37956   0.660E-01    0.159E-01
DAV:   7    -0.405444747912E+03   -0.15361E-03   -0.15107E-03 37800   0.204E-01    0.129E-01
DAV:   8    -0.405444852197E+03   -0.10428E-03   -0.34862E-04 36564   0.948E-02    0.124E-01
DAV:   9    -0.405444859318E+03   -0.71211E-05   -0.58079E-05 33372   0.220E-02
  16 F= -.40544486E+03 E0= -.40543260E+03  d E =0.645566E-02  mag=    -0.2513
       N       E                     dE             d eps       ncg     rms          rms(c)
DAV:   1    -0.405336478990E+03    0.10837E+00   -0.24833E+00 48468   0.185E+01    0.909E-01
DAV:   2    -0.405454258266E+03   -0.11778E+00   -0.12132E+00 37068   0.224E+00    0.551E-01
DAV:   3    -0.405455839290E+03   -0.15810E-02   -0.27141E-02 37980   0.792E-01    0.486E-01
DAV:   4    -0.405455312308E+03    0.52698E-03   -0.75488E-03 37752   0.572E-01    0.347E-01
DAV:   5    -0.405456184568E+03   -0.87226E-03   -0.39738E-03 42444   0.414E-01    0.304E-01
DAV:   6    -0.405456205472E+03   -0.20904E-04   -0.33171E-03 39048   0.430E-01    0.128E-01
DAV:   7    -0.405456487707E+03   -0.28223E-03   -0.88198E-04 38832   0.174E-01    0.903E-02
DAV:   8    -0.405456617656E+03   -0.12995E-03   -0.54764E-04 37224   0.163E-01    0.702E-02
DAV:   9    -0.405456667874E+03   -0.50218E-04   -0.22050E-04 36192   0.116E-01    0.367E-02
DAV:  10    -0.405456706429E+03   -0.38555E-04   -0.97271E-05 35328   0.672E-02    0.273E-02
DAV:  11    -0.405456720403E+03   -0.13973E-04   -0.52112E-05 32508   0.478E-02    0.182E-02
DAV:  12    -0.405456725535E+03   -0.51322E-05   -0.20559E-05 22044   0.255E-02
  17 F= -.40545673E+03 E0= -.40544689E+03  d E =-.118662E-01  mag=    -0.9018
       N       E                     dE             d eps       ncg     rms          rms(c)
DAV:   1    -0.405446351167E+03    0.10369E-01   -0.31966E-01 46164   0.566E+00    0.279E-01
DAV:   2    -0.405457835602E+03   -0.11484E-01   -0.11774E-01 36948   0.713E-01    0.173E-01
DAV:   3    -0.405457979740E+03   -0.14414E-03   -0.28498E-03 37032   0.260E-01    0.143E-01
DAV:   4    -0.405457929713E+03    0.50028E-04   -0.77359E-04 37692   0.187E-01    0.106E-01
DAV:   5    -0.405457927436E+03    0.22763E-05   -0.25943E-04 41916   0.113E-01    0.725E-02
DAV:   6    -0.405457919009E+03    0.84272E-05   -0.20445E-04 37644   0.123E-01    0.350E-02
DAV:   7    -0.405457920462E+03   -0.14531E-05   -0.87532E-05 32904   0.532E-02
  18 F= -.40545792E+03 E0= -.40544817E+03  d E =-.119493E-02  mag=    -0.9089
