       N       E                     dE             d eps       ncg     rms          ort
DAV:   1     0.102702801573E+05    0.10270E+05   -0.42476E+05 10640   0.155E+03
DAV:   2    -0.121070217667E+03   -0.10391E+05   -0.98067E+04 10640   0.474E+02
DAV:   3    -0.152348002407E+04   -0.14024E+04   -0.13069E+04 10640   0.181E+02
DAV:   4    -0.160482448637E+04   -0.81344E+02   -0.79150E+02 10640   0.460E+01
DAV:   5    -0.160716483364E+04   -0.23403E+01   -0.23329E+01 10640   0.835E+00
SDA:   6    -0.727730375572E+03    0.87943E+03   -0.23329E+01 10640   0.292E+04 0.000E+00
CGA:   7    -0.112576527397E+04   -0.39803E+03   -0.39656E+03 10640   0.134E+04-0.258E+02
CGA:   8    -0.114292422705E+04   -0.17159E+02   -0.75879E+02 10640   0.151E+04-0.901E+03
CGA:   9    -0.114521083845E+04   -0.22866E+01   -0.74122E+02 10640   0.242E+04-0.161E+04
CGA:  10    -0.111788851166E+04    0.27322E+02   -0.13401E+03 10640   0.314E+04-0.212E+04
CGA:  11    -0.110979787002E+04    0.80906E+01   -0.16067E+03 10640   0.408E+04-0.348E+04
CGA:  12    -0.106048397737E+04    0.49314E+02   -0.23021E+03 10640   0.523E+04-0.406E+04
CGA:  13    -0.104989568324E+04    0.10588E+02   -0.27995E+03 10640   0.573E+04-0.525E+04
CGA:  14    -0.103241912245E+04    0.17477E+02   -0.31230E+03 10640   0.623E+04-0.571E+04
CGA:  15    -0.104202599505E+04   -0.96069E+01   -0.33062E+03 10640   0.628E+04-0.620E+04
CGA:  16    -0.104747912473E+04   -0.54531E+01   -0.33483E+03 10640   0.612E+04-0.603E+04
CGA:  17    -0.108521971413E+04   -0.37741E+02   -0.31180E+03 10640   0.572E+04-0.617E+04
CGA:  18    -0.111455686342E+04   -0.29337E+02   -0.28852E+03 10640   0.463E+04-0.499E+04
CGA:  19    -0.118497941585E+04   -0.70423E+02   -0.21052E+03 10640   0.299E+04-0.405E+04
CGA:  20    -0.123504267916E+04   -0.50063E+02   -0.12328E+03 10640   0.118E+04-0.184E+04
CGA:  21    -0.126172048575E+04   -0.26678E+02   -0.39935E+02 10640   0.152E+03-0.344E+03
CGA:  22    -0.126652298299E+04   -0.48025E+01   -0.38815E+01 10640   0.208E+02 0.235E+02
CGA:  23    -0.126871763800E+04   -0.21947E+01   -0.21971E+01 10640   0.559E+02-0.107E+00
CGA:  24    -0.127572513033E+04   -0.70075E+01   -0.69668E+01 10640   0.794E+02 0.216E+01
CGA:  25    -0.127782349803E+04   -0.20984E+01   -0.18867E+01 10640   0.143E+02-0.923E+00
CGA:  26    -0.127818969679E+04   -0.36620E+00   -0.39833E+00 10640   0.832E+01-0.152E+01
CGA:  27    -0.127860039417E+04   -0.41070E+00   -0.43661E+00 10640   0.127E+02-0.639E+00
CGA:  28    -0.127946576991E+04   -0.86538E+00   -0.89784E+00 10640   0.121E+02-0.317E+00
CGA:  29    -0.128007985330E+04   -0.61408E+00   -0.49681E+00 10640   0.626E+01 0.117E+01
CGA:  30    -0.128047076293E+04   -0.39091E+00   -0.37525E+00 10640   0.452E+01-0.367E+00
CGA:  31    -0.128076273373E+04   -0.29197E+00   -0.28895E+00 10640   0.529E+01-0.409E+00
CGA:  32    -0.128128256078E+04   -0.51983E+00   -0.53301E+00 10640   0.555E+01-0.928E+00
CGA:  33    -0.128154947808E+04   -0.26692E+00   -0.24830E+00 10640   0.272E+01-0.537E+00
CGA:  34    -0.128177235776E+04   -0.22288E+00   -0.22135E+00 10640   0.372E+01-0.417E+00
CGA:  35    -0.128219215689E+04   -0.41980E+00   -0.44617E+00 10640   0.336E+01-0.655E+00
CGA:  36    -0.128242416716E+04   -0.23201E+00   -0.22692E+00 10640   0.137E+01-0.443E+00
CGA:  37    -0.128258488711E+04   -0.16072E+00   -0.17273E+00 10640   0.151E+01-0.257E+00
CGA:  38    -0.128278253553E+04   -0.19765E+00   -0.20643E+00 10640   0.139E+01-0.159E+00
CGA:  39    -0.128295464526E+04   -0.17211E+00   -0.17560E+00 10640   0.473E+00-0.125E+00
CGA:  40    -0.128303810209E+04   -0.83457E-01   -0.83090E-01 10640   0.418E+00 0.385E-02
CGA:  41    -0.128311932494E+04   -0.81223E-01   -0.74419E-01 10640   0.213E+00 0.998E-01
CGA:  42    -0.128315473858E+04   -0.35414E-01   -0.33956E-01 10640   0.111E+00 0.896E-01
CGA:  43    -0.128317727728E+04   -0.22539E-01   -0.20974E-01 10640   0.826E-01 0.790E-01
CGA:  44    -0.128319369622E+04   -0.16419E-01   -0.14558E-01 10640   0.421E-01 0.299E-01
CGA:  45    -0.128320246897E+04   -0.87728E-02   -0.78821E-02 10640   0.316E-01 0.439E-01
CGA:  46    -0.128320582161E+04   -0.33526E-02   -0.35129E-02 10640   0.214E-01 0.234E-01
CGA:  47    -0.128320803195E+04   -0.22103E-02   -0.23602E-02 10640   0.187E-01 0.198E-01
CGA:  48    -0.128320967852E+04   -0.16466E-02   -0.19095E-02 10640   0.166E-01 0.175E-01
CGA:  49    -0.128321095811E+04   -0.12796E-02   -0.15975E-02 10640   0.149E-01 0.156E-01
CGA:  50    -0.128321196172E+04   -0.10036E-02   -0.13541E-02 10640   0.135E-01 0.141E-01
CGA:  51    -0.128321275877E+04   -0.79705E-03   -0.11627E-02 10640   0.124E-01 0.129E-01
CGA:  52    -0.128321339868E+04   -0.63991E-03   -0.10094E-02 10640   0.114E-01 0.118E-01
CGA:  53    -0.128321391759E+04   -0.51890E-03   -0.88494E-03 10640   0.105E-01 0.109E-01
CGA:  54    -0.128321434221E+04   -0.42462E-03   -0.78244E-03 10640   0.978E-02 0.101E-01
CGA:  55    -0.128321469257E+04   -0.35036E-03   -0.69702E-03 10640   0.914E-02 0.944E-02
CGA:  56    -0.128321498381E+04   -0.29124E-03   -0.62505E-03 10640   0.858E-02 0.884E-02
CGA:  57    -0.128321522756E+04   -0.24374E-03   -0.56384E-03 10640   0.808E-02 0.831E-02
CGA:  58    -0.128321543281E+04   -0.20525E-03   -0.51132E-03 10640   0.763E-02 0.784E-02
CGA:  59    -0.128321560658E+04   -0.17378E-03   -0.46587E-03 10640   0.724E-02 0.742E-02
CGA:  60    -0.128321575444E+04   -0.14785E-03   -0.42626E-03 10640   0.688E-02 0.705E-02
CGA:  61    -0.128321588078E+04   -0.12634E-03   -0.39151E-03 10640   0.656E-02 0.671E-02
CGA:  62    -0.128321598916E+04   -0.10838E-03   -0.36083E-03 10640   0.626E-02 0.640E-02
CGA:  63    -0.128321608244E+04   -0.93282E-04   -0.33359E-03 10640   0.600E-02 0.613E-02
CGA:  64    -0.128321616296E+04   -0.80521E-04   -0.30929E-03 10640   0.576E-02 0.587E-02
CGA:  65    -0.128321623264E+04   -0.69680E-04   -0.28751E-03 10640   0.553E-02 0.564E-02
CGA:  66    -0.128321629308E+04   -0.60436E-04   -0.26790E-03 10640   0.533E-02 0.543E-02
CGA:  67    -0.128321634559E+04   -0.52515E-04   -0.25018E-03 10640   0.514E-02 0.523E-02
CGA:  68    -0.128321639129E+04   -0.45698E-04   -0.23411E-03 10640   0.497E-02 0.505E-02
CGA:  69    -0.128321643110E+04   -0.39813E-04   -0.21949E-03 10640   0.481E-02 0.488E-02
CGA:  70    -0.128321646582E+04   -0.34716E-04   -0.20614E-03 10640   0.466E-02 0.473E-02
CGA:  71    -0.128321649611E+04   -0.30290E-04   -0.19392E-03 10640   0.452E-02 0.459E-02
CGA:  72    -0.128321652255E+04   -0.26436E-04   -0.18270E-03 10640   0.439E-02 0.445E-02
CGA:  73    -0.128321654562E+04   -0.23070E-04   -0.17238E-03 10640   0.427E-02 0.433E-02
CGA:  74    -0.128321656574E+04   -0.20125E-04   -0.16286E-03 10640   0.416E-02 0.421E-02
CGA:  75    -0.128321658329E+04   -0.17549E-04   -0.15407E-03 10640   0.405E-02 0.410E-02
CGA:  76    -0.128321659858E+04   -0.15291E-04   -0.14592E-03 10640   0.395E-02 0.400E-02
CGA:  77    -0.128321661189E+04   -0.13310E-04   -0.13836E-03 10640   0.386E-02 0.390E-02
CGA:  78    -0.128321662346E+04   -0.11568E-04   -0.13134E-03 10640   0.377E-02 0.381E-02
CGA:  79    -0.128321663349E+04   -0.10034E-04   -0.12480E-03 10640   0.369E-02 0.373E-02
CGA:  80    -0.128321664218E+04   -0.86840E-05   -0.11869E-03 10640   0.361E-02 0.365E-02
CGA:  81    -0.128321664967E+04   -0.74952E-05   -0.11300E-03 10640   0.354E-02 0.357E-02
CGA:  82    -0.128321665612E+04   -0.64484E-05   -0.10766E-03 10640   0.347E-02 0.350E-02
CGA:  83    -0.128321666165E+04   -0.55241E-05   -0.10267E-03 10640   0.340E-02 0.343E-02
CGA:  84    -0.128321666636E+04   -0.47092E-05   -0.97985E-04 10640   0.334E-02 0.337E-02
CGA:  85    -0.128321667035E+04   -0.39906E-05   -0.93585E-04 10640   0.328E-02 0.331E-02
CGA:  86    -0.128321667370E+04   -0.33585E-05   -0.89447E-04 10640   0.322E-02 0.325E-02
CGA:  87    -0.128321667650E+04   -0.28007E-05   -0.85551E-04 10640   0.317E-02 0.320E-02
CGA:  88    -0.128321667881E+04   -0.23095E-05   -0.81879E-04 10640   0.312E-02 0.314E-02
CGA:  89    -0.128321668069E+04   -0.18777E-05   -0.78415E-04 10640   0.307E-02 0.309E-02
CGA:  90    -0.128321668219E+04   -0.14972E-05   -0.75142E-04 10640   0.302E-02 0.305E-02
CGA:  91    -0.128321668335E+04   -0.11637E-05   -0.72048E-04 10640   0.298E-02 0.300E-02
CGA:  92    -0.128321668422E+04   -0.87056E-06   -0.69119E-04 10640   0.294E-02 0.296E-02
CGA:  93    -0.128321668484E+04   -0.61419E-06   -0.66345E-04 10640   0.290E-02 0.292E-02
CGA:  94    -0.128321668523E+04   -0.39050E-06   -0.63716E-04 10640   0.286E-02 0.288E-02
CGA:  95    -0.128321668542E+04   -0.19540E-06   -0.61220E-04 10640   0.282E-02 0.284E-02
CGA:  96    -0.128321668545E+04   -0.26288E-07   -0.58851E-04 10640   0.279E-02 0.281E-02
CGA:  97    -0.128321668533E+04    0.11992E-06   -0.56599E-04 10640   0.276E-02 0.277E-02
CGA:  98    -0.128321668508E+04    0.24709E-06   -0.54457E-04 10640   0.272E-02 0.274E-02
CGA:  99    -0.128321668473E+04    0.35469E-06   -0.52419E-04 10640   0.269E-02 0.271E-02
CGA: 100    -0.128321668428E+04    0.44761E-06   -0.50477E-04 10640   0.266E-02 0.268E-02
CGA: 101    -0.128321668376E+04    0.52555E-06   -0.48626E-04 10640   0.264E-02 0.265E-02
CGA: 102    -0.128321668316E+04    0.59167E-06   -0.46861E-04 10640   0.261E-02 0.262E-02
CGA: 103    -0.128321668252E+04    0.64645E-06   -0.45176E-04 10640   0.258E-02 0.260E-02
CGA: 104    -0.128321668183E+04    0.69191E-06   -0.43566E-04 10640   0.256E-02 0.257E-02
CGA: 105    -0.128321668110E+04    0.72846E-06   -0.42029E-04 10640   0.253E-02 0.255E-02
CGA: 106    -0.128321668034E+04    0.75853E-06   -0.40559E-04 10640   0.251E-02 0.252E-02
CGA: 107    -0.128321667956E+04    0.77971E-06   -0.39152E-04 10640   0.249E-02 0.250E-02
CGA: 108    -0.128321667876E+04    0.79619E-06   -0.37806E-04 10640   0.247E-02 0.248E-02
CGA: 109    -0.128321667796E+04    0.80713E-06   -0.36517E-04 10640   0.245E-02 0.246E-02
CGA: 110    -0.128321667714E+04    0.81409E-06   -0.35282E-04 10640   0.243E-02 0.244E-02
CGA: 111    -0.128321667632E+04    0.81789E-06   -0.34097E-04 10640   0.241E-02 0.242E-02
CGA: 112    -0.128321667551E+04    0.81694E-06   -0.32961E-04 10640   0.239E-02 0.240E-02
CGA: 113    -0.128321667469E+04    0.81276E-06   -0.31872E-04 10640   0.237E-02 0.238E-02
CGA: 114    -0.128321667389E+04    0.80804E-06   -0.30825E-04 10640   0.235E-02 0.236E-02
CGA: 115    -0.128321667309E+04    0.79910E-06   -0.29820E-04 10640   0.234E-02 0.235E-02
CGA: 116    -0.128321667230E+04    0.78876E-06   -0.28855E-04 10640   0.232E-02 0.233E-02
CGA: 117    -0.128321667152E+04    0.77656E-06   -0.27926E-04 10640   0.231E-02 0.231E-02
CGA: 118    -0.128321667076E+04    0.76456E-06   -0.27034E-04 10640   0.229E-02 0.230E-02
CGA: 119    -0.128321667001E+04    0.74972E-06   -0.26175E-04 10640   0.228E-02 0.229E-02
CGA: 120    -0.128321666927E+04    0.73464E-06   -0.25349E-04 10640   0.226E-02 0.227E-02
CGA: 121    -0.128321666855E+04    0.71936E-06   -0.24553E-04 10640   0.225E-02 0.226E-02
CGA: 122    -0.128321666785E+04    0.70288E-06   -0.23787E-04 10640   0.224E-02 0.224E-02
CGA: 123    -0.128321666716E+04    0.68671E-06   -0.23049E-04 10640   0.223E-02 0.223E-02
CGA: 124    -0.128321666649E+04    0.66933E-06   -0.22338E-04 10640   0.221E-02 0.222E-02
CGA: 125    -0.128321666584E+04    0.65227E-06   -0.21652E-04 10640   0.220E-02 0.221E-02
CGA: 126    -0.128321666521E+04    0.63489E-06   -0.20991E-04 10640   0.219E-02 0.220E-02
CGA: 127    -0.128321666459E+04    0.61831E-06   -0.20353E-04 10640   0.218E-02 0.219E-02
CGA: 128    -0.128321666399E+04    0.60101E-06   -0.19738E-04 10640   0.217E-02 0.217E-02
CGA: 129    -0.128321666340E+04    0.58314E-06   -0.19144E-04 10640   0.216E-02 0.216E-02
CGA: 130    -0.128321666284E+04    0.56762E-06   -0.18570E-04 10640   0.215E-02 0.215E-02
CGA: 131    -0.128321666229E+04    0.55079E-06   -0.18017E-04 10640   0.214E-02 0.214E-02
CGA: 132    -0.128321666175E+04    0.53462E-06   -0.17481E-04 10640   0.213E-02 0.214E-02
CGA: 133    -0.128321666123E+04    0.51969E-06   -0.16964E-04 10640   0.212E-02 0.213E-02
CGA: 134    -0.128321666073E+04    0.50615E-06   -0.16463E-04 10640   0.211E-02 0.212E-02
CGA: 135    -0.128321666023E+04    0.49098E-06   -0.15980E-04 10640   0.211E-02 0.211E-02
CGA: 136    -0.128321665976E+04    0.47615E-06   -0.15513E-04 10640   0.210E-02 0.210E-02
CGA: 137    -0.128321665930E+04    0.46097E-06   -0.15062E-04 10640   0.209E-02 0.209E-02
CGA: 138    -0.128321665885E+04    0.44835E-06   -0.14624E-04 10640   0.208E-02 0.209E-02
CGA: 139    -0.128321665841E+04    0.43440E-06   -0.14202E-04 10640   0.207E-02 0.208E-02
CGA: 140    -0.128321665799E+04    0.42065E-06   -0.13792E-04 10640   0.207E-02 0.207E-02
CGA: 141    -0.128321665759E+04    0.40738E-06   -0.13397E-04 10640   0.206E-02 0.206E-02
CGA: 142    -0.128321665719E+04    0.39370E-06   -0.13014E-04 10640   0.205E-02 0.206E-02
CGA: 143    -0.128321665681E+04    0.38055E-06   -0.12643E-04 10640   0.205E-02 0.205E-02
CGA: 144    -0.128321665644E+04    0.36817E-06   -0.12284E-04 10640   0.204E-02 0.204E-02
CGA: 145    -0.128321665609E+04    0.35551E-06   -0.11936E-04 10640   0.203E-02 0.204E-02
CGA: 146    -0.128321665575E+04    0.34310E-06   -0.11599E-04 10640   0.203E-02 0.203E-02
CGA: 147    -0.128321665541E+04    0.33147E-06   -0.11273E-04 10640   0.202E-02 0.203E-02
CGA: 148    -0.128321665509E+04    0.31997E-06   -0.10957E-04 10640   0.202E-02 0.202E-02
CGA: 149    -0.128321665479E+04    0.30783E-06   -0.10650E-04 10640   0.201E-02 0.201E-02
CGA: 150    -0.128321665449E+04    0.29798E-06   -0.10353E-04 10640   0.201E-02 0.201E-02
CGA: 151    -0.128321665420E+04    0.28738E-06   -0.10065E-04 10640   0.200E-02 0.200E-02
   1 F= -.12832167E+04 E0= -.12832162E+04  d E =-.128322E+04  mag=    47.0000
       N       E                     dE             d eps       ncg     rms          ort
SDA:   1    -0.128321661755E+04    0.36936E-04    0.00000E+00 10640   0.239E-02 0.000E+00
CGA:   2    -0.128321665105E+04   -0.33498E-04   -0.28360E-04 10640   0.223E-02 0.232E-02
CGA:   3    -0.128321668059E+04   -0.29544E-04   -0.25748E-04 10640   0.211E-02 0.218E-02
CGA:   4    -0.128321670715E+04   -0.26552E-04   -0.23741E-04 10640   0.202E-02 0.207E-02
CGA:   5    -0.128321673134E+04   -0.24195E-04   -0.22137E-04 10640   0.193E-02 0.198E-02
CGA:   6    -0.128321675362E+04   -0.22283E-04   -0.20820E-04 10640   0.187E-02 0.190E-02
CGA:   7    -0.128321677432E+04   -0.20694E-04   -0.19709E-04 10640   0.181E-02 0.184E-02
CGA:   8    -0.128321679366E+04   -0.19343E-04   -0.18752E-04 10640   0.175E-02 0.178E-02
CGA:   9    -0.128321681183E+04   -0.18174E-04   -0.17914E-04 10640   0.171E-02 0.173E-02
CGA:  10    -0.128321682898E+04   -0.17148E-04   -0.17169E-04 10640   0.166E-02 0.169E-02
CGA:  11    -0.128321684522E+04   -0.16238E-04   -0.16500E-04 10640   0.163E-02 0.165E-02
CGA:  12    -0.128321686064E+04   -0.15419E-04   -0.15892E-04 10640   0.159E-02 0.161E-02
CGA:  13    -0.128321687532E+04   -0.14679E-04   -0.15335E-04 10640   0.156E-02 0.158E-02
CGA:  14    -0.128321688932E+04   -0.14003E-04   -0.14822E-04 10640   0.153E-02 0.154E-02
CGA:  15    -0.128321690270E+04   -0.13384E-04   -0.14344E-04 10640   0.150E-02 0.152E-02
CGA:  16    -0.128321691551E+04   -0.12810E-04   -0.13898E-04 10640   0.148E-02 0.149E-02
CGA:  17    -0.128321692779E+04   -0.12280E-04   -0.13481E-04 10640   0.145E-02 0.147E-02
CGA:  18    -0.128321693958E+04   -0.11787E-04   -0.13088E-04 10640   0.143E-02 0.144E-02
CGA:  19    -0.128321695091E+04   -0.11326E-04   -0.12717E-04 10640   0.141E-02 0.142E-02
CGA:  20    -0.128321696180E+04   -0.10894E-04   -0.12365E-04 10640   0.139E-02 0.140E-02
CGA:  21    -0.128321697229E+04   -0.10490E-04   -0.12032E-04 10640   0.137E-02 0.138E-02
CGA:  22    -0.128321698240E+04   -0.10109E-04   -0.11714E-04 10640   0.136E-02 0.137E-02
CGA:  23    -0.128321699215E+04   -0.97500E-05   -0.11412E-04 10640   0.134E-02 0.135E-02
CGA:  24    -0.128321700156E+04   -0.94117E-05   -0.11122E-04 10640   0.133E-02 0.133E-02
CGA:  25    -0.128321701065E+04   -0.90910E-05   -0.10845E-04 10640   0.131E-02 0.132E-02
CGA:  26    -0.128321701944E+04   -0.87889E-05   -0.10581E-04 10640   0.130E-02 0.130E-02
CGA:  27    -0.128321702794E+04   -0.85014E-05   -0.10327E-04 10640   0.128E-02 0.129E-02
CGA:  28    -0.128321703617E+04   -0.82282E-05   -0.10082E-04 10640   0.127E-02 0.128E-02
   2 F= -.12832170E+04 E0= -.12832167E+04  d E =-.381971E-03  mag=    47.0000
       N       E                     dE             d eps       ncg     rms          ort
SDA:   1    -0.128312140607E+04    0.95622E-01    0.00000E+00 10640   0.316E+00 0.000E+00
CGA:   2    -0.128315405020E+04   -0.32644E-01   -0.49967E-01 10640   0.190E+00 0.239E+00
CGA:   3    -0.128318831963E+04   -0.34269E-01   -0.35081E-01 10640   0.963E-01 0.128E+00
CGA:   4    -0.128321809586E+04   -0.29776E-01   -0.18722E-01 10640   0.331E-01 0.534E-01
CGA:   5    -0.128323386813E+04   -0.15772E-01   -0.36178E-02 10640   0.424E-02 0.935E-02
CGA:   6    -0.128323464540E+04   -0.77727E-03   -0.32611E-03 10640   0.191E-01-0.532E-02
CGA:   7    -0.128323616640E+04   -0.15210E-02   -0.17241E-02 10640   0.220E-02 0.224E-02
CGA:   8    -0.128323660323E+04   -0.43683E-03   -0.43797E-03 10640   0.135E-02 0.685E-03
CGA:   9    -0.128323714436E+04   -0.54113E-03   -0.59679E-03 10640   0.210E-02-0.358E-03
CGA:  10    -0.128323721775E+04   -0.73387E-04   -0.13049E-03 10640   0.140E-02 0.546E-03
CGA:  11    -0.128323727489E+04   -0.57139E-04   -0.13300E-03 10640   0.942E-03 0.704E-03
CGA:  12    -0.128323660504E+04    0.66985E-03   -0.44897E-03 10640   0.160E-01-0.186E-02
CGA:  13    -0.128323798644E+04   -0.13814E-02   -0.14897E-02 10640   0.177E-02 0.579E-03
CGA:  14    -0.128323836535E+04   -0.37891E-03   -0.40043E-03 10640   0.574E-03 0.230E-03
CGA:  15    -0.128323858723E+04   -0.22188E-03   -0.22747E-03 10640   0.107E-02-0.132E-03
CGA:  16    -0.128323865463E+04   -0.67403E-04   -0.11039E-03 10640   0.686E-03 0.240E-03
CGA:  17    -0.128323871879E+04   -0.64160E-04   -0.10397E-03 10640   0.632E-03 0.223E-03
CGA:  18    -0.128323912723E+04   -0.40844E-03   -0.50293E-03 10640   0.335E-02-0.335E-03
CGA:  19    -0.128323962993E+04   -0.50270E-03   -0.43675E-03 10640   0.723E-03-0.374E-03
CGA:  20    -0.128323969910E+04   -0.69177E-04   -0.10164E-03 10640   0.169E-03 0.232E-03
CGA:  21    -0.128323975862E+04   -0.59518E-04   -0.59380E-04 10640   0.248E-03-0.591E-05
CGA:  22    -0.128323933187E+04    0.42675E-03   -0.28018E-03 10640   0.404E-02-0.815E-03
CGA:  23    -0.128323969568E+04   -0.36381E-03   -0.51432E-03 10640   0.123E-02 0.757E-03
CGA:  24    -0.128324017732E+04   -0.48164E-03   -0.48289E-03 10640   0.365E-03-0.205E-03
CGA:  25    -0.128324026954E+04   -0.92221E-04   -0.81288E-04 10640   0.374E-03-0.192E-03
CGA:  26    -0.128324025614E+04    0.13403E-04   -0.28691E-04 10640   0.108E-03 0.173E-03
CGA:  27    -0.128324024495E+04    0.11195E-04   -0.10353E-04 10640   0.612E-04 0.886E-04
CGA:  28    -0.128324007162E+04    0.17333E-03   -0.96247E-04 10640   0.178E-02-0.178E-03
CGA:  29    -0.128324015875E+04   -0.87127E-04   -0.18273E-03 10640   0.315E-03 0.235E-03
CGA:  30    -0.128324025767E+04   -0.98924E-04   -0.10254E-03 10640   0.149E-03 0.155E-04
CGA:  31    -0.128324025218E+04    0.54844E-05   -0.10439E-03 10640   0.321E-02-0.682E-03
CGA:  32    -0.128324033872E+04   -0.86537E-04   -0.27834E-03 10640   0.216E-03 0.508E-03
CGA:  33    -0.128324031852E+04    0.20204E-04   -0.25103E-04 10640   0.117E-03 0.115E-03
CGA:  34    -0.128324032481E+04   -0.62929E-05   -0.10744E-03 10640   0.131E-02-0.229E-03
CGA:  35    -0.128324033233E+04   -0.75219E-05   -0.10789E-03 10640   0.105E-03 0.258E-03
CGA:  36    -0.128324032253E+04    0.97996E-05   -0.11302E-04 10640   0.568E-04 0.549E-04
CGA:  37    -0.128324040718E+04   -0.84648E-04    0.20608E-04 10640   0.909E-04-0.158E-04
CGA:  38    -0.128324040233E+04    0.48461E-05   -0.48972E-05 10640   0.363E-04 0.256E-04
   3 F= -.12832404E+04 E0= -.12832402E+04  d E =-.233662E-01  mag=    47.0000
       N       E                     dE             d eps       ncg     rms          ort
SDA:   1    -0.128070996796E+04    0.25304E+01    0.00000E+00 10640   0.703E+01 0.000E+00
CGA:   2    -0.128247678086E+04   -0.17668E+01   -0.17691E+01 10640   0.298E+01 0.151E-01
CGA:   3    -0.128314042314E+04   -0.66364E+00   -0.66130E+00 10640   0.627E+00-0.207E-01
CGA:   4    -0.128325010212E+04   -0.10968E+00   -0.10893E+00 10640   0.122E+00-0.226E-02
CGA:   5    -0.128327557260E+04   -0.25470E-01   -0.24420E-01 10640   0.300E-01-0.580E-02
CGA:   6    -0.128328131261E+04   -0.57400E-02   -0.57646E-02 10640   0.114E-01 0.283E-03
CGA:   7    -0.128328369089E+04   -0.23783E-02   -0.22378E-02 10640   0.423E-02-0.800E-03
CGA:   8    -0.128328475765E+04   -0.10668E-02   -0.99602E-03 10640   0.275E-02-0.648E-03
CGA:   9    -0.128328547353E+04   -0.71588E-03   -0.65235E-03 10640   0.217E-02-0.832E-03
CGA:  10    -0.128325675508E+04    0.28718E-01   -0.15919E-01 10640   0.235E+00-0.164E-01
CGA:  11    -0.128327999016E+04   -0.23235E-01   -0.23295E-01 10640   0.247E-01 0.901E-02
CGA:  12    -0.128328578023E+04   -0.57901E-02   -0.63156E-02 10640   0.783E-02 0.146E-02
CGA:  13    -0.128328781659E+04   -0.20364E-02   -0.20833E-02 10640   0.633E-02 0.118E-03
CGA:  14    -0.128328870271E+04   -0.88612E-03   -0.12899E-02 10640   0.175E-02 0.110E-02
CGA:  15    -0.128328894916E+04   -0.24645E-03   -0.42282E-03 10640   0.985E-03 0.498E-03
CGA:  16    -0.128328910666E+04   -0.15750E-03   -0.23029E-03 10640   0.250E-03 0.202E-03
CGA:  17    -0.128328904646E+04    0.60201E-04   -0.30625E-04 10640   0.151E-03 0.214E-03
CGA:  18    -0.128328900781E+04    0.38652E-04   -0.12285E-04 10640   0.103E-03 0.121E-03
CGA:  19    -0.128328897845E+04    0.29358E-04   -0.78144E-05 10640   0.822E-04 0.913E-04
CGA:  20    -0.128328895389E+04    0.24563E-04   -0.54942E-05 10640   0.706E-04 0.759E-04
CGA:  21    -0.128328893258E+04    0.21313E-04   -0.41776E-05 10640   0.629E-04 0.664E-04
CGA:  22    -0.128328891372E+04    0.18855E-04   -0.33497E-05 10640   0.574E-04 0.599E-04
CGA:  23    -0.128328889683E+04    0.16894E-04   -0.27800E-05 10640   0.532E-04 0.551E-04
CGA:  24    -0.128328888155E+04    0.15274E-04   -0.23620E-05 10640   0.499E-04 0.514E-04
CGA:  25    -0.128328886765E+04    0.13905E-04   -0.20411E-05 10640   0.472E-04 0.484E-04
CGA:  26    -0.128328885492E+04    0.12726E-04   -0.17863E-05 10640   0.449E-04 0.459E-04
CGA:  27    -0.128328884322E+04    0.11697E-04   -0.15788E-05 10640   0.430E-04 0.438E-04
CGA:  28    -0.128328883243E+04    0.10790E-04   -0.14065E-05 10640   0.413E-04 0.420E-04
CGA:  29    -0.128328882245E+04    0.99829E-05   -0.12614E-05 10640   0.398E-04 0.405E-04
   4 F= -.12832888E+04 E0= -.12832888E+04  d E =-.484201E-01  mag=    47.0000
       N       E                     dE             d eps       ncg     rms          ort
SDA:   1    -0.128267207573E+04    0.61676E+00    0.00000E+00 10640   0.182E+01 0.000E+00
CGA:   2    -0.128308559978E+04   -0.41352E+00   -0.41380E+00 10640   0.792E+00 0.666E-02
CGA:   3    -0.128326123678E+04   -0.17564E+00   -0.17538E+00 10640   0.201E+00-0.627E-02
CGA:   4    -0.128329126390E+04   -0.30027E-01   -0.30294E-01 10640   0.371E-01 0.283E-02
CGA:   5    -0.128329919066E+04   -0.79268E-02   -0.77219E-02 10640   0.113E-01-0.318E-02
CGA:   6    -0.128330105058E+04   -0.18599E-02   -0.18286E-02 10640   0.362E-02-0.340E-03
CGA:   7    -0.128330172476E+04   -0.67418E-03   -0.67813E-03 10640   0.990E-03 0.636E-04
CGA:   8    -0.128330201231E+04   -0.28755E-03   -0.30666E-03 10640   0.106E-02-0.414E-03
CGA:   9    -0.128330209171E+04   -0.79404E-04   -0.85165E-04 10640   0.469E-03 0.486E-04
CGA:  10    -0.128330217540E+04   -0.83689E-04   -0.80895E-04 10640   0.368E-03-0.306E-04
CGA:  11    -0.128330235838E+04   -0.18298E-03    0.66495E-03 10640   0.300E-03-0.221E-03
CGA:  12    -0.128330241851E+04   -0.60129E-04   -0.60270E-04 10640   0.746E-04 0.318E-05
CGA:  13    -0.128330215759E+04    0.26092E-03   -0.87307E-04 10640   0.368E-02-0.381E-03
CGA:  14    -0.128330249396E+04   -0.33637E-03   -0.34635E-03 10640   0.207E-03 0.666E-04
CGA:  15    -0.128330256256E+04   -0.68602E-04   -0.89380E-04 10640   0.226E-03-0.148E-03
CGA:  16    -0.128330259690E+04   -0.34340E-04   -0.33556E-04 10640   0.433E-04-0.501E-05
CGA:  17    -0.128330260202E+04   -0.51178E-05   -0.65581E-05 10640   0.119E-04 0.112E-04
CGA:  18    -0.128330261122E+04   -0.91941E-05    0.19037E-04 10640   0.159E-04 0.213E-05
   5 F= -.12833026E+04 E0= -.12833026E+04  d E =-.137888E-01  mag=    47.0000
       N       E                     dE             d eps       ncg     rms          ort
SDA:   1    -0.128102680150E+04    0.22758E+01    0.00000E+00 10640   0.633E+01 0.000E+00
CGA:   2    -0.128254508280E+04   -0.15183E+01   -0.15188E+01 10640   0.277E+01 0.147E-01
CGA:   3    -0.128317134985E+04   -0.62627E+00   -0.62560E+00 10640   0.581E+00-0.168E-01
CGA:   4    -0.128326692723E+04   -0.95577E-01   -0.95431E-01 10640   0.113E+00-0.602E-03
CGA:   5    -0.128328975670E+04   -0.22829E-01   -0.22470E-01 10640   0.320E-01-0.546E-02
CGA:   6    -0.128329522027E+04   -0.54636E-02   -0.54210E-02 10640   0.115E-01-0.408E-03
CGA:   7    -0.128329750254E+04   -0.22823E-02   -0.22598E-02 10640   0.313E-02-0.361E-03
CGA:   8    -0.128329843434E+04   -0.93181E-03   -0.10375E-02 10640   0.336E-02-0.123E-02
CGA:   9    -0.128329884872E+04   -0.41438E-03   -0.37975E-03 10640   0.151E-02-0.457E-03
CGA:  10    -0.128328954271E+04    0.93060E-02   -0.50215E-02 10640   0.558E-01-0.814E-02
CGA:  11    -0.128329964091E+04   -0.10098E-01   -0.99614E-02 10640   0.777E-02-0.556E-03
CGA:  12    -0.128330041837E+04   -0.77746E-03   -0.10955E-02 10640   0.181E-02 0.109E-02
CGA:  13    -0.128330078837E+04   -0.37000E-03   -0.46938E-03 10640   0.873E-03 0.472E-03
CGA:  14    -0.128330114959E+04   -0.36122E-03   -0.34558E-03 10640   0.951E-03-0.136E-03
CGA:  15    -0.128330115948E+04   -0.98900E-05   -0.10024E-03 10640   0.431E-03 0.305E-03
CGA:  16    -0.128330113063E+04    0.28852E-04   -0.45785E-04 10640   0.153E-03 0.229E-03
CGA:  17    -0.128330115758E+04   -0.26954E-04   -0.35285E-04 10640   0.522E-04 0.519E-04
CGA:  18    -0.128330115149E+04    0.60925E-05   -0.72223E-05 10640   0.278E-04 0.476E-04
   6 F= -.12833012E+04 E0= -.12833011E+04  d E =0.145973E-02  mag=    47.0000
       N       E                     dE             d eps       ncg     rms          ort
SDA:   1    -0.128209288218E+04    0.12083E+01    0.00000E+00 10640   0.390E+01 0.000E+00
CGA:   2    -0.128285997868E+04   -0.76710E+00   -0.76654E+00 10640   0.144E+01-0.372E-02
CGA:   3    -0.128322532937E+04   -0.36535E+00   -0.36613E+00 10640   0.373E+00 0.767E-02
CGA:   4    -0.128328308974E+04   -0.57760E-01   -0.58601E-01 10640   0.553E-01 0.454E-02
CGA:   5    -0.128329433967E+04   -0.11250E-01   -0.11425E-01 10640   0.144E-01 0.138E-02
CGA:   6    -0.128329714623E+04   -0.28066E-02   -0.28814E-02 10640   0.535E-02 0.587E-03
CGA:   7    -0.128329819273E+04   -0.10465E-02   -0.10273E-02 10640   0.162E-02-0.133E-03
CGA:   8    -0.128329856354E+04   -0.37081E-03   -0.36504E-03 10640   0.700E-03-0.681E-04
CGA:   9    -0.128329863108E+04   -0.67542E-04   -0.10541E-03 10640   0.245E-03 0.250E-03
CGA:  10    -0.128329863187E+04   -0.78622E-06   -0.39541E-04 10640   0.140E-03 0.212E-03
CGA:  11    -0.128329862755E+04    0.43215E-05   -0.14853E-04 10640   0.930E-04 0.103E-03
   7 F= -.12832986E+04 E0= -.12832986E+04  d E =0.252394E-02  mag=    47.0000
       N       E                     dE             d eps       ncg     rms          ort
SDA:   1    -0.128310552194E+04    0.19311E+00    0.00000E+00 10640   0.657E+00 0.000E+00
CGA:   2    -0.128323545807E+04   -0.12994E+00   -0.12986E+00 10640   0.245E+00-0.866E-03
CGA:   3    -0.128329644648E+04   -0.60988E-01   -0.61003E-01 10640   0.666E-01 0.701E-03
CGA:   4    -0.128330727985E+04   -0.10833E-01   -0.10686E-01 10640   0.112E-01-0.137E-02
CGA:   5    -0.128330905943E+04   -0.17796E-02   -0.18772E-02 10640   0.251E-02 0.108E-02
CGA:   6    -0.128330964318E+04   -0.58375E-03   -0.58233E-03 10640   0.103E-02-0.280E-04
CGA:   7    -0.128330978459E+04   -0.14141E-03   -0.15966E-03 10640   0.252E-03 0.184E-03
CGA:   8    -0.128330981653E+04   -0.31940E-04   -0.43890E-04 10640   0.955E-04 0.116E-03
CGA:   9    -0.128330984959E+04   -0.33064E-04   -0.33224E-04 10640   0.779E-04 0.206E-04
CGA:  10    -0.128330985827E+04   -0.86739E-05   -0.13097E-04 10640   0.457E-04 0.412E-04
   8 F= -.12833099E+04 E0= -.12833098E+04  d E =-.112307E-01  mag=    47.0000
       N       E                     dE             d eps       ncg     rms          ort
SDA:   1    -0.128315120347E+04    0.15865E+00    0.00000E+00 10640   0.455E+00 0.000E+00
CGA:   2    -0.128325524564E+04   -0.10404E+00   -0.10404E+00 10640   0.200E+00-0.660E-03
CGA:   3    -0.128330078178E+04   -0.45536E-01   -0.45545E-01 10640   0.413E-01 0.155E-02
CGA:   4    -0.128330777170E+04   -0.69899E-02   -0.68852E-02 10640   0.833E-02-0.154E-02
CGA:   5    -0.128330907363E+04   -0.13019E-02   -0.13576E-02 10640   0.182E-02 0.933E-03
CGA:   6    -0.128330955162E+04   -0.47799E-03   -0.48069E-03 10640   0.914E-03-0.244E-03
CGA:   7    -0.128330966284E+04   -0.11122E-03   -0.11908E-03 10640   0.256E-03 0.103E-03
CGA:   8    -0.128330969624E+04   -0.33407E-04   -0.41071E-04 10640   0.105E-03 0.966E-04
CGA:   9    -0.128330973703E+04   -0.40783E-04   -0.43615E-04 10640   0.153E-03-0.345E-04
CGA:  10    -0.128330975129E+04   -0.14262E-04   -0.13743E-04 10640   0.124E-03-0.586E-05
CGA:  11    -0.128330976301E+04   -0.11719E-04   -0.14140E-04 10640   0.105E-03 0.239E-04
CGA:  12    -0.128330977861E+04   -0.15603E-04   -0.17756E-04 10640   0.669E-04 0.297E-04
CGA:  13    -0.128330979185E+04   -0.13238E-04   -0.13347E-04 10640   0.590E-04 0.176E-05
CGA:  14    -0.128330979906E+04   -0.72110E-05   -0.87199E-05 10640   0.584E-04 0.233E-04
   9 F= -.12833098E+04 E0= -.12833098E+04  d E =0.592072E-04  mag=    47.0000
       N       E                     dE             d eps       ncg     rms          ort
SDA:   1    -0.128265276220E+04    0.65703E+00    0.00000E+00 10640   0.191E+01 0.000E+00
CGA:   2    -0.128307373404E+04   -0.42097E+00   -0.42107E+00 10640   0.819E+00-0.430E-02
CGA:   3    -0.128326475243E+04   -0.19102E+00   -0.19080E+00 10640   0.188E+00 0.634E-02
CGA:   4    -0.128329277281E+04   -0.28020E-01   -0.28084E-01 10640   0.368E-01 0.118E-02
CGA:   5    -0.128329909260E+04   -0.63198E-02   -0.63595E-02 10640   0.103E-01 0.152E-02
CGA:   6    -0.128330116613E+04   -0.20735E-02   -0.20730E-02 10640   0.329E-02-0.132E-03
CGA:   7    -0.128330195155E+04   -0.78541E-03   -0.81403E-03 10640   0.137E-02-0.540E-03
CGA:   8    -0.128330215240E+04   -0.20085E-03   -0.20141E-03 10640   0.540E-03 0.249E-04
CGA:   9    -0.128330230379E+04   -0.15139E-03   -0.15150E-03 10640   0.266E-03-0.129E-05
CGA:  10    -0.128330238961E+04   -0.85815E-04   -0.84465E-04 10640   0.173E-03 0.114E-04
CGA:  11    -0.128330241444E+04   -0.24833E-04   -0.28873E-04 10640   0.840E-04 0.829E-04
CGA:  12    -0.128330245811E+04   -0.43672E-04   -0.40676E-04 10640   0.941E-04 0.239E-04
CGA:  13    -0.128330239833E+04    0.59786E-04   -0.11769E-03 10640   0.156E-02-0.237E-03
CGA:  14    -0.128330253203E+04   -0.13370E-03   -0.16277E-03 10640   0.251E-03 0.205E-03
CGA:  15    -0.128330259666E+04   -0.64637E-04   -0.65229E-04 10640   0.119E-03 0.456E-04
CGA:  16    -0.128330261945E+04   -0.22781E-04   -0.60091E-04 10640   0.479E-03-0.202E-03
CGA:  17    -0.128330264517E+04   -0.25720E-04   -0.43522E-04 10640   0.603E-04 0.112E-03
CGA:  18    -0.128330265211E+04   -0.69449E-05   -0.96517E-05 10640   0.360E-04 0.238E-04
CGA:  19    -0.128330267645E+04   -0.24340E-04    0.29333E-03 10640   0.208E-04 0.825E-06
CGA:  20    -0.128330269096E+04   -0.14509E-04    0.58376E-05 10640   0.303E-04-0.498E-05
CGA:  21    -0.128330270515E+04   -0.14192E-04    0.92792E-05 10640   0.505E-04 0.109E-04
CGA:  22    -0.128330271742E+04   -0.12266E-04   -0.46832E-04 10640   0.408E-03-0.807E-04
CGA:  23    -0.128330279746E+04   -0.80045E-04   -0.66041E-04 10640   0.131E-03-0.141E-03
CGA:  24    -0.128330280735E+04   -0.98915E-05   -0.12830E-04 10640   0.298E-04 0.279E-04
  10 F= -.12833028E+04 E0= -.12833028E+04  d E =0.699171E-02  mag=    47.0000
       N       E                     dE             d eps       ncg     rms          ort
SDA:   1    -0.128252634060E+04    0.77646E+00    0.00000E+00 10640   0.207E+01 0.000E+00
CGA:   2    -0.128303804311E+04   -0.51170E+00   -0.51171E+00 10640   0.102E+01-0.915E-03
CGA:   3    -0.128324560250E+04   -0.20756E+00   -0.20760E+00 10640   0.242E+00 0.114E-02
CGA:   4    -0.128327944388E+04   -0.33841E-01   -0.33992E-01 10640   0.462E-01 0.182E-02
CGA:   5    -0.128328801568E+04   -0.85718E-02   -0.85790E-02 10640   0.124E-01 0.206E-03
CGA:   6    -0.128329045214E+04   -0.24365E-02   -0.24262E-02 10640   0.366E-02-0.263E-03
CGA:   7    -0.128329119141E+04   -0.73928E-03   -0.74028E-03 10640   0.115E-02 0.475E-04
CGA:   8    -0.128329145294E+04   -0.26153E-03   -0.26095E-03 10640   0.617E-03-0.972E-04
CGA:   9    -0.128329155474E+04   -0.10180E-03   -0.10595E-03 10640   0.221E-03 0.102E-03
CGA:  10    -0.128329162800E+04   -0.73255E-04   -0.70874E-04 10640   0.105E-03 0.496E-04
CGA:  11    -0.128329167363E+04   -0.45628E-04   -0.46179E-04 10640   0.127E-03-0.441E-05
CGA:  12    -0.128329167885E+04   -0.52200E-05   -0.13123E-04 10640   0.673E-04 0.620E-04
  11 F= -.12832917E+04 E0= -.12832916E+04  d E =0.111285E-01  mag=    47.0000
       N       E                     dE             d eps       ncg     rms          ort
SDA:   1    -0.128286778696E+04    0.42389E+00    0.00000E+00 10640   0.138E+01 0.000E+00
CGA:   2    -0.128313897038E+04   -0.27118E+00   -0.27117E+00 10640   0.518E+00 0.113E-03
CGA:   3    -0.128326849211E+04   -0.12952E+00   -0.12944E+00 10640   0.141E+00 0.264E-02
CGA:   4    -0.128329024148E+04   -0.21749E-01   -0.21840E-01 10640   0.217E-01 0.144E-02
CGA:   5    -0.128329481867E+04   -0.45772E-02   -0.45640E-02 10640   0.712E-02-0.122E-02
CGA:   6    -0.128329592983E+04   -0.11112E-02   -0.11240E-02 10640   0.215E-02 0.266E-03
CGA:   7    -0.128329641163E+04   -0.48180E-03   -0.48176E-03 10640   0.689E-03-0.150E-03
CGA:   8    -0.128329656488E+04   -0.15325E-03   -0.15668E-03 10640   0.440E-03-0.120E-03
CGA:   9    -0.128329661568E+04   -0.50803E-04   -0.55802E-04 10640   0.146E-03 0.790E-04
CGA:  10    -0.128329665614E+04   -0.40456E-04   -0.39932E-04 10640   0.103E-03 0.294E-04
CGA:  11    -0.128329668813E+04   -0.31989E-04   -0.34807E-04 10640   0.166E-03-0.435E-04
CGA:  12    -0.128329669641E+04   -0.82843E-05   -0.10974E-04 10640   0.140E-03 0.253E-04
CGA:  13    -0.128329670257E+04   -0.61625E-05   -0.13066E-04 10640   0.692E-04 0.521E-04
CGA:  14    -0.128329670829E+04   -0.57120E-05   -0.10232E-04 10640   0.687E-04 0.456E-04
CGA:  15    -0.128329671868E+04   -0.10396E-04   -0.27760E-04 10640   0.375E-03-0.855E-04
CGA:  16    -0.128329673917E+04   -0.20491E-04   -0.28634E-04 10640   0.207E-04 0.609E-04
CGA:  17    -0.128329673853E+04    0.64194E-06   -0.14879E-05 10640   0.135E-04 0.149E-04
  12 F= -.12832967E+04 E0= -.12832967E+04  d E =-.505968E-02  mag=    47.0000
       N       E                     dE             d eps       ncg     rms          ort
SDA:   1    -0.128316210163E+04    0.13464E+00    0.00000E+00 10640   0.405E+00 0.000E+00
CGA:   2    -0.128324880962E+04   -0.86708E-01   -0.86697E-01 10640   0.164E+00 0.763E-03
CGA:   3    -0.128328822374E+04   -0.39414E-01   -0.39424E-01 10640   0.402E-01-0.319E-03
CGA:   4    -0.128329433975E+04   -0.61160E-02   -0.61463E-02 10640   0.704E-02 0.665E-03
CGA:   5    -0.128329588562E+04   -0.15459E-02   -0.15711E-02 10640   0.307E-02-0.116E-02
CGA:   6    -0.128329628376E+04   -0.39814E-03   -0.39355E-03 10640   0.859E-03-0.959E-04
CGA:   7    -0.128329644257E+04   -0.15881E-03   -0.15921E-03 10640   0.193E-03 0.761E-04
CGA:   8    -0.128329571630E+04    0.72627E-03   -0.39173E-03 10640   0.637E-02-0.930E-03
CGA:   9    -0.128329634173E+04   -0.62543E-03   -0.72896E-03 10640   0.968E-03 0.448E-03
CGA:  10    -0.128329659113E+04   -0.24940E-03   -0.23037E-03 10640   0.266E-03-0.153E-03
CGA:  11    -0.128329666620E+04   -0.75069E-04   -0.69454E-04 10640   0.385E-03-0.188E-03
CGA:  12    -0.128329667450E+04   -0.83067E-05   -0.31289E-04 10640   0.486E-04 0.905E-04
  13 F= -.12832967E+04 E0= -.12832967E+04  d E =0.640280E-04  mag=    47.0000
       N       E                     dE             d eps       ncg     rms          ort
SDA:   1    -0.128321353157E+04    0.83135E-01    0.00000E+00 10640   0.240E+00 0.000E+00
CGA:   2    -0.128326511944E+04   -0.51588E-01   -0.51491E-01 10640   0.995E-01-0.920E-03
CGA:   3    -0.128328825529E+04   -0.23136E-01   -0.23191E-01 10640   0.251E-01 0.716E-03
CGA:   4    -0.128329173460E+04   -0.34793E-02   -0.36083E-02 10640   0.476E-02 0.818E-03
CGA:   5    -0.128329251516E+04   -0.78056E-03   -0.82486E-03 10640   0.123E-02 0.350E-03
CGA:   6    -0.128329277944E+04   -0.26428E-03   -0.26509E-03 10640   0.369E-03 0.990E-05
CGA:   7    -0.128329287806E+04   -0.98617E-04   -0.97366E-04 10640   0.156E-03-0.524E-04
CGA:   8    -0.128329291591E+04   -0.37848E-04   -0.47685E-04 10640   0.363E-03-0.135E-03
CGA:   9    -0.128329293031E+04   -0.14409E-04   -0.28832E-04 10640   0.410E-04 0.702E-04
CGA:  10    -0.128329292837E+04    0.19444E-05   -0.39036E-05 10640   0.259E-04 0.296E-04
  14 F= -.12832929E+04 E0= -.12832929E+04  d E =0.374613E-02  mag=    47.0000
       N       E                     dE             d eps       ncg     rms          ort
SDA:   1    -0.128283899484E+04    0.45394E+00    0.00000E+00 10640   0.129E+01 0.000E+00
CGA:   2    -0.128312819591E+04   -0.28920E+00   -0.28902E+00 10640   0.558E+00-0.446E-02
CGA:   3    -0.128325751318E+04   -0.12932E+00   -0.12944E+00 10640   0.115E+00 0.446E-02
CGA:   4    -0.128327583360E+04   -0.18320E-01   -0.18510E-01 10640   0.203E-01 0.191E-02
CGA:   5    -0.128327985432E+04   -0.40207E-02   -0.40743E-02 10640   0.475E-02 0.961E-03
CGA:   6    -0.128328108724E+04   -0.12329E-02   -0.12298E-02 10640   0.238E-02-0.766E-03
CGA:   7    -0.128328139348E+04   -0.30624E-03   -0.31480E-03 10640   0.570E-03 0.979E-04
CGA:   8    -0.128328156270E+04   -0.16922E-03   -0.17679E-03 10640   0.383E-03-0.148E-03
CGA:   9    -0.128328162552E+04   -0.62819E-04   -0.61984E-04 10640   0.239E-03-0.269E-04
CGA:  10    -0.128328164415E+04   -0.18629E-04   -0.28304E-04 10640   0.924E-04 0.805E-04
CGA:  11    -0.128328165506E+04   -0.10913E-04   -0.15860E-04 10640   0.494E-04 0.437E-04
CGA:  12    -0.128328167437E+04   -0.19312E-04   -0.19633E-04 10640   0.385E-04-0.953E-05
CGA:  13    -0.128328167782E+04   -0.34463E-05   -0.46267E-05 10640   0.382E-04 0.132E-04
  15 F= -.12832817E+04 E0= -.12832817E+04  d E =0.112506E-01  mag=    47.0000
       N       E                     dE             d eps       ncg     rms          ort
SDA:   1    -0.128292708791E+04    0.35459E+00    0.00000E+00 10640   0.101E+01 0.000E+00
CGA:   2    -0.128315300321E+04   -0.22592E+00   -0.22593E+00 10640   0.437E+00 0.183E-02
CGA:   3    -0.128325627618E+04   -0.10327E+00   -0.10328E+00 10640   0.896E-01-0.159E-02
CGA:   4    -0.128327102409E+04   -0.14748E-01   -0.14722E-01 10640   0.156E-01-0.390E-03
CGA:   5    -0.128327465292E+04   -0.36288E-02   -0.36392E-02 10640   0.404E-02-0.139E-02
CGA:   6    -0.128327537043E+04   -0.71751E-03   -0.72818E-03 10640   0.955E-03 0.362E-03
CGA:   7    -0.128327563802E+04   -0.26759E-03   -0.27485E-03 10640   0.497E-03-0.190E-03
CGA:   8    -0.128327566096E+04   -0.22941E-04   -0.43304E-04 10640   0.208E-03 0.171E-03
CGA:   9    -0.128327568477E+04   -0.23806E-04   -0.33595E-04 10640   0.111E-03 0.961E-04
CGA:  10    -0.128327576180E+04   -0.77028E-04    0.18216E-03 10640   0.755E-04-0.195E-05
CGA:  11    -0.128327582433E+04   -0.62533E-04    0.85221E-05 10640   0.727E-04 0.414E-05
CGA:  12    -0.128327584019E+04   -0.15863E-04   -0.15902E-04 10640   0.500E-04 0.380E-05
CGA:  13    -0.128327584038E+04   -0.19124E-06   -0.44569E-05 10640   0.350E-04 0.323E-04
  16 F= -.12832758E+04 E0= -.12832758E+04  d E =0.583743E-02  mag=    47.0000
       N       E                     dE             d eps       ncg     rms          ort
SDA:   1    -0.128317773359E+04    0.98107E-01    0.00000E+00 10640   0.319E+00 0.000E+00
CGA:   2    -0.128324347481E+04   -0.65741E-01   -0.65723E-01 10640   0.127E+00-0.235E-02
CGA:   3    -0.128327326734E+04   -0.29793E-01   -0.29744E-01 10640   0.326E-01 0.206E-02
CGA:   4    -0.128327861934E+04   -0.53520E-02   -0.52947E-02 10640   0.606E-02-0.105E-02
CGA:   5    -0.128327950298E+04   -0.88364E-03   -0.92456E-03 10640   0.142E-02 0.769E-03
CGA:   6    -0.128327977777E+04   -0.27478E-03   -0.28149E-03 10640   0.418E-03 0.204E-03
CGA:   7    -0.128327989921E+04   -0.12145E-03   -0.12414E-03 10640   0.189E-03-0.507E-04
CGA:   8    -0.128327990275E+04   -0.35373E-05   -0.14381E-04 10640   0.799E-04 0.881E-04
  17 F= -.12832799E+04 E0= -.12832799E+04  d E =-.406237E-02  mag=    47.0000
       N       E                     dE             d eps       ncg     rms          ort
SDA:   1    -0.128323783734E+04    0.42062E-01    0.00000E+00 10640   0.114E+00 0.000E+00
CGA:   2    -0.128326553115E+04   -0.27694E-01   -0.27752E-01 10640   0.549E-01-0.126E-02
CGA:   3    -0.128327676761E+04   -0.11236E-01   -0.11224E-01 10640   0.116E-01 0.160E-02
CGA:   4    -0.128327841275E+04   -0.16451E-02   -0.16930E-02 10640   0.208E-02 0.830E-03
CGA:   5    -0.128327880571E+04   -0.39296E-03   -0.39709E-03 10640   0.570E-03 0.219E-03
CGA:   6    -0.128327893398E+04   -0.12827E-03   -0.12830E-03 10640   0.199E-03-0.433E-05
CGA:   7    -0.128327898264E+04   -0.48665E-04   -0.52766E-04 10640   0.128E-03-0.579E-04
CGA:   8    -0.128327899509E+04   -0.12446E-04   -0.12754E-04 10640   0.423E-04 0.541E-05
CGA:   9    -0.128327899946E+04   -0.43705E-05   -0.57488E-05 10640   0.251E-04 0.207E-04
  18 F= -.12832790E+04 E0= -.12832790E+04  d E =0.903292E-03  mag=    47.0000
       N       E                     dE             d eps       ncg     rms          ort
SDA:   1    -0.128115131704E+04    0.21277E+01    0.00000E+00 10640   0.552E+01 0.000E+00
CGA:   2    -0.128260856138E+04   -0.14572E+01   -0.14588E+01 10640   0.267E+01-0.196E-01
CGA:   3    -0.128314878604E+04   -0.54022E+00   -0.54006E+00 10640   0.532E+00 0.143E-01
CGA:   4    -0.128322766154E+04   -0.78876E-01   -0.79112E-01 10640   0.120E+00 0.619E-02
CGA:   5    -0.128324905394E+04   -0.21392E-01   -0.21415E-01 10640   0.317E-01 0.165E-02
CGA:   6    -0.128325515724E+04   -0.61033E-02   -0.61033E-02 10640   0.924E-02-0.326E-03
CGA:   7    -0.128325740011E+04   -0.22429E-02   -0.23604E-02 10640   0.431E-02-0.171E-02
CGA:   8    -0.128325799336E+04   -0.59325E-03   -0.59274E-03 10640   0.159E-02-0.109E-04
CGA:   9    -0.128325838752E+04   -0.39416E-03   -0.38738E-03 10640   0.580E-03 0.130E-03
CGA:  10    -0.128325855189E+04   -0.16437E-03   -0.15809E-03 10640   0.293E-03 0.110E-03
CGA:  11    -0.128325864074E+04   -0.88850E-04   -0.86367E-04 10640   0.160E-03 0.484E-04
CGA:  12    -0.128325871782E+04   -0.77086E-04    0.54591E-03 10640   0.904E-04 0.804E-04
CGA:  13    -0.128325874738E+04   -0.29558E-04   -0.27929E-04 10640   0.113E-03 0.148E-04
CGA:  14    -0.128325880563E+04   -0.58248E-04    0.16323E-03 10640   0.631E-04 0.525E-04
CGA:  15    -0.128325885000E+04   -0.44375E-04    0.56904E-04 10640   0.554E-04 0.723E-04
CGA:  16    -0.128325885704E+04   -0.70416E-05   -0.85759E-05 10640   0.380E-04 0.303E-04
CGA:  17    -0.128325887733E+04   -0.20286E-04    0.12271E-04 10640   0.360E-04 0.254E-04
CGA:  18    -0.128325888213E+04   -0.48017E-05   -0.57750E-05 10640   0.319E-04 0.230E-04
  19 F= -.12832589E+04 E0= -.12832588E+04  d E =0.201173E-01  mag=    47.0000
       N       E                     dE             d eps       ncg     rms          ort
SDA:   1    -0.128221341433E+04    0.10455E+01    0.00000E+00 10640   0.340E+01 0.000E+00
CGA:   2    -0.128287478534E+04   -0.66137E+00   -0.66143E+00 10640   0.123E+01 0.883E-02
CGA:   3    -0.128318560507E+04   -0.31082E+00   -0.31106E+00 10640   0.361E+00-0.609E-02
CGA:   4    -0.128324078881E+04   -0.55184E-01   -0.55210E-01 10640   0.544E-01 0.102E-02
CGA:   5    -0.128325236676E+04   -0.11578E-01   -0.11599E-01 10640   0.149E-01-0.177E-02
CGA:   6    -0.128325520971E+04   -0.28430E-02   -0.28444E-02 10640   0.444E-02 0.439E-03
CGA:   7    -0.128325613310E+04   -0.92339E-03   -0.92339E-03 10640   0.136E-02 0.344E-05
CGA:   8    -0.128325645776E+04   -0.32467E-03   -0.32960E-03 10640   0.848E-03-0.117E-03
CGA:   9    -0.128325663077E+04   -0.17300E-03   -0.17475E-03 10640   0.504E-03-0.766E-04
CGA:  10    -0.128325520373E+04    0.14270E-02   -0.77423E-03 10640   0.139E-01-0.189E-02
CGA:  11    -0.128325662095E+04   -0.14172E-02   -0.14940E-02 10640   0.204E-02 0.359E-03
CGA:  12    -0.128325706995E+04   -0.44900E-03   -0.46230E-03 10640   0.543E-03 0.975E-04
CGA:  13    -0.128325723785E+04   -0.16790E-03   -0.16665E-03 10640   0.472E-03-0.202E-04
CGA:  14    -0.128325730601E+04   -0.68161E-04   -0.80786E-04 10640   0.139E-03 0.741E-04
CGA:  15    -0.128325736698E+04   -0.60974E-04   -0.61765E-04 10640   0.162E-03-0.185E-04
CGA:  16    -0.128325740165E+04   -0.34673E-04   -0.27170E-04 10640   0.925E-04-0.504E-04
CGA:  17    -0.128325741220E+04   -0.10547E-04   -0.13126E-04 10640   0.695E-04 0.195E-04
CGA:  18    -0.128325742196E+04   -0.97573E-05   -0.14123E-04 10640   0.433E-04 0.268E-04
CGA:  19    -0.128325742549E+04   -0.35292E-05   -0.53835E-04 10640   0.497E-03-0.891E-04
CGA:  20    -0.128325748485E+04   -0.59361E-04   -0.63997E-04 10640   0.931E-04 0.223E-04
CGA:  21    -0.128325751669E+04   -0.31837E-04   -0.31378E-04 10640   0.810E-04-0.284E-04
CGA:  22    -0.128325753649E+04   -0.19803E-04   -0.17362E-04 10640   0.134E-03-0.821E-04
CGA:  23    -0.128325754318E+04   -0.66887E-05   -0.13824E-04 10640   0.304E-04 0.309E-04
  20 F= -.12832575E+04 E0= -.12832575E+04  d E =0.133895E-02  mag=    47.0000
       N       E                     dE             d eps       ncg     rms          ort
SDA:   1    -0.128266434471E+04    0.59319E+00    0.00000E+00 10640   0.181E+01 0.000E+00
CGA:   2    -0.128305476596E+04   -0.39042E+00   -0.39076E+00 10640   0.772E+00 0.350E-02
CGA:   3    -0.128323366388E+04   -0.17890E+00   -0.17872E+00 10640   0.205E+00-0.268E-02
CGA:   4    -0.128326341342E+04   -0.29750E-01   -0.29722E-01 10640   0.364E-01-0.287E-04
CGA:   5    -0.128327034571E+04   -0.69323E-02   -0.68606E-02 10640   0.109E-01-0.606E-03
CGA:   6    -0.128327226591E+04   -0.19202E-02   -0.19106E-02 10640   0.326E-02-0.743E-04
CGA:   7    -0.128327286393E+04   -0.59802E-03   -0.61476E-03 10640   0.879E-03 0.176E-03
CGA:   8    -0.128327309911E+04   -0.23517E-03   -0.23138E-03 10640   0.495E-03-0.113E-03
CGA:   9    -0.128327317748E+04   -0.78369E-04   -0.82591E-04 10640   0.184E-03 0.481E-04
CGA:  10    -0.128327317703E+04    0.45146E-06   -0.15674E-03 10640   0.900E-03-0.315E-03
CGA:  11    -0.128327329466E+04   -0.11764E-03   -0.13622E-03 10640   0.158E-03 0.124E-03
CGA:  12    -0.128327333272E+04   -0.38053E-04   -0.35335E-04 10640   0.795E-04-0.276E-04
CGA:  13    -0.128327334024E+04   -0.75268E-05   -0.10103E-04 10640   0.297E-04 0.191E-04
  21 F= -.12832733E+04 E0= -.12832733E+04  d E =-.157971E-01  mag=    47.0000
       N       E                     dE             d eps       ncg     rms          ort
SDA:   1    -0.128306360680E+04    0.20973E+00    0.00000E+00 10640   0.552E+00 0.000E+00
CGA:   2    -0.128319710417E+04   -0.13350E+00   -0.13350E+00 10640   0.257E+00 0.213E-03
CGA:   3    -0.128325312864E+04   -0.56024E-01   -0.56040E-01 10640   0.553E-01 0.192E-03
CGA:   4    -0.128326116939E+04   -0.80407E-02   -0.81072E-02 10640   0.116E-01 0.618E-03
CGA:   5    -0.128326337109E+04   -0.22017E-02   -0.21601E-02 10640   0.355E-02-0.510E-03
CGA:   6    -0.128326403281E+04   -0.66173E-03   -0.64298E-03 10640   0.110E-02-0.258E-03
CGA:   7    -0.128326425291E+04   -0.22010E-03   -0.21851E-03 10640   0.319E-03-0.350E-04
CGA:   8    -0.128326432956E+04   -0.76648E-04   -0.76170E-04 10640   0.212E-03-0.574E-04
CGA:   9    -0.128326437584E+04   -0.46282E-04   -0.47748E-04 10640   0.176E-03-0.708E-04
CGA:  10    -0.128326419040E+04    0.18544E-03   -0.10948E-03 10640   0.224E-02-0.433E-03
CGA:  11    -0.128326444379E+04   -0.25339E-03   -0.24164E-03 10640   0.356E-03-0.607E-04
CGA:  12    -0.128326451418E+04   -0.70395E-04   -0.73830E-04 10640   0.752E-04 0.514E-04
CGA:  13    -0.128326452907E+04   -0.14887E-04   -0.17972E-04 10640   0.328E-04 0.452E-04
CGA:  14    -0.128326455013E+04   -0.21064E-04    0.25828E-04 10640   0.224E-04 0.141E-04
CGA:  15    -0.128326455179E+04   -0.16566E-05   -0.44922E-05 10640   0.111E-04 0.212E-04
  22 F= -.12832646E+04 E0= -.12832645E+04  d E =0.878845E-02  mag=    47.0000
       N       E                     dE             d eps       ncg     rms          ort
SDA:   1    -0.128209782311E+04    0.11667E+01    0.00000E+00 10640   0.331E+01 0.000E+00
CGA:   2    -0.128283711382E+04   -0.73929E+00   -0.73912E+00 10640   0.144E+01-0.464E-02
CGA:   3    -0.128316982610E+04   -0.33271E+00   -0.33289E+00 10640   0.339E+00 0.602E-02
CGA:   4    -0.128321953406E+04   -0.49708E-01   -0.49914E-01 10640   0.681E-01 0.250E-02
CGA:   5    -0.128323145828E+04   -0.11924E-01   -0.11965E-01 10640   0.190E-01 0.597E-03
CGA:   6    -0.128323510728E+04   -0.36490E-02   -0.36433E-02 10640   0.583E-02-0.795E-04
CGA:   7    -0.128323653004E+04   -0.14228E-02   -0.14237E-02 10640   0.233E-02-0.654E-03
CGA:   8    -0.128323693845E+04   -0.40842E-03   -0.40528E-03 10640   0.110E-02-0.609E-04
CGA:   9    -0.128323726016E+04   -0.32171E-03   -0.33364E-03 10640   0.827E-03-0.169E-03
CGA:  10    -0.128323743155E+04   -0.17139E-03   -0.17139E-03 10640   0.500E-03 0.478E-04
CGA:  11    -0.128323762567E+04   -0.19412E-03   -0.21991E-03 10640   0.697E-03-0.154E-03
CGA:  12    -0.128323776405E+04   -0.13838E-03   -0.14679E-03 10640   0.792E-03-0.171E-03
CGA:  13    -0.128323798347E+04   -0.21943E-03   -0.29146E-03 10640   0.107E-02-0.325E-03
CGA:  14    -0.128323809463E+04   -0.11116E-03   -0.36092E-03 10640   0.222E-02-0.846E-03
CGA:  15    -0.128323837958E+04   -0.28495E-03   -0.31034E-03 10640   0.735E-03 0.183E-03
CGA:  16    -0.128323855994E+04   -0.18036E-03   -0.18449E-03 10640   0.223E-03 0.947E-04
CGA:  17    -0.128323863427E+04   -0.74330E-04   -0.75518E-04 10640   0.288E-03-0.437E-04
CGA:  18    -0.128323865390E+04   -0.19627E-04   -0.32704E-04 10640   0.140E-03 0.979E-04
CGA:  19    -0.128323865690E+04   -0.30060E-05   -0.15605E-04 10640   0.437E-04 0.685E-04
  23 F= -.12832387E+04 E0= -.12832386E+04  d E =0.258949E-01  mag=    47.0000
       N       E                     dE             d eps       ncg     rms          ort
SDA:   1    -0.126934677320E+04    0.13892E+02    0.00000E+00 10640   0.471E+02 0.000E+00
CGA:   2    -0.127790015616E+04   -0.85534E+01   -0.85592E+01 10640   0.159E+02 0.823E-01
CGA:   3    -0.128191261515E+04   -0.40125E+01   -0.40122E+01 10640   0.568E+01 0.194E-01
CGA:   4    -0.128272724004E+04   -0.81462E+00   -0.80730E+00 10640   0.912E+00 0.402E-01
CGA:   5    -0.128288751064E+04   -0.16027E+00   -0.16013E+00 10640   0.262E+00-0.445E-02
CGA:   6    -0.128293650835E+04   -0.48998E-01   -0.49061E-01 10640   0.791E-01 0.190E-02
CGA:   7    -0.128295307258E+04   -0.16564E-01   -0.16581E-01 10640   0.230E-01 0.724E-03
CGA:   8    -0.128295777902E+04   -0.47064E-02   -0.46801E-02 10640   0.986E-02-0.736E-03
CGA:   9    -0.128295991199E+04   -0.21330E-02   -0.21363E-02 10640   0.436E-02 0.348E-03
CGA:  10    -0.128296131898E+04   -0.14070E-02   -0.14731E-02 10640   0.364E-02-0.702E-03
CGA:  11    -0.128296208790E+04   -0.76891E-03   -0.78740E-03 10640   0.286E-02-0.930E-03
CGA:  12    -0.128296261072E+04   -0.52282E-03   -0.52503E-03 10640   0.142E-02-0.284E-03
CGA:  13    -0.128296266903E+04   -0.58309E-04   -0.10101E-02 10640   0.808E-02-0.173E-02
CGA:  14    -0.128296338150E+04   -0.71247E-03   -0.86131E-03 10640   0.141E-02 0.986E-03
CGA:  15    -0.128296376834E+04   -0.38683E-03   -0.38876E-03 10640   0.693E-03 0.151E-03
CGA:  16    -0.128296395722E+04   -0.18889E-03   -0.18739E-03 10640   0.634E-03-0.104E-03
CGA:  17    -0.128296401266E+04   -0.55441E-04   -0.82313E-04 10640   0.404E-03 0.255E-03
CGA:  18    -0.128296406114E+04   -0.48482E-04   -0.74256E-04 10640   0.219E-03 0.212E-03
CGA:  19    -0.128296286931E+04    0.11918E-02   -0.64329E-03 10640   0.159E-01-0.117E-02
CGA:  20    -0.128296409175E+04   -0.12224E-02   -0.14643E-02 10640   0.631E-03 0.114E-02
CGA:  21    -0.128296424599E+04   -0.15424E-03   -0.15457E-03 10640   0.434E-03 0.266E-05
CGA:  22    -0.128296436367E+04   -0.11768E-03   -0.96396E-04 10640   0.156E-03-0.105E-03
CGA:  23    -0.128296435760E+04    0.60635E-05   -0.12944E-04 10640   0.884E-04 0.630E-04
CGA:  24    -0.128296435851E+04   -0.90796E-06   -0.16507E-04 10640   0.768E-04 0.591E-04
CGA:  25    -0.128296445248E+04   -0.93970E-04    0.24657E-04 10640   0.225E-03-0.332E-04
CGA:  26    -0.128296448128E+04   -0.28796E-04   -0.30071E-04 10640   0.295E-03 0.754E-05
CGA:  27    -0.128296447229E+04    0.89875E-05   -0.25521E-04 10640   0.134E-03 0.118E-03
CGA:  28    -0.128296447392E+04   -0.16300E-05   -0.20634E-04 10640   0.121E-03 0.752E-04
CGA:  29    -0.128296459170E+04   -0.11778E-03    0.53406E-04 10640   0.340E-03-0.879E-04
CGA:  30    -0.128296457137E+04    0.20335E-04   -0.20032E-04 10640   0.662E-04 0.141E-03
CGA:  31    -0.128296455942E+04    0.11940E-04   -0.35034E-05 10640   0.279E-04 0.522E-04
CGA:  32    -0.128296455532E+04    0.41059E-05   -0.17418E-05 10640   0.208E-04 0.228E-04
  24 F= -.12829646E+04 E0= -.12829645E+04  d E =0.274102E+00  mag=    47.0000
       N       E                     dE             d eps       ncg     rms          ort
SDA:   1    -0.127870551045E+04    0.42590E+01    0.00000E+00 10640   0.151E+02 0.000E+00
CGA:   2    -0.128154814659E+04   -0.28426E+01   -0.28422E+01 10640   0.532E+01-0.511E-02
CGA:   3    -0.128286811349E+04   -0.13200E+01   -0.13209E+01 10640   0.183E+01 0.136E-01
CGA:   4    -0.128312455348E+04   -0.25644E+00   -0.25692E+00 10640   0.299E+00 0.119E-01
CGA:   5    -0.128317654634E+04   -0.51993E-01   -0.52249E-01 10640   0.825E-01 0.257E-02
CGA:   6    -0.128319304141E+04   -0.16495E-01   -0.16485E-01 10640   0.240E-01-0.793E-04
CGA:   7    -0.128319820951E+04   -0.51681E-02   -0.51627E-02 10640   0.703E-02-0.608E-04
CGA:   8    -0.128319979976E+04   -0.15903E-02   -0.15404E-02 10640   0.397E-02-0.954E-03
CGA:   9    -0.128320054540E+04   -0.74564E-03   -0.73184E-03 10640   0.162E-02-0.244E-03
CGA:  10    -0.128320089749E+04   -0.35208E-03   -0.35877E-03 10640   0.576E-03 0.228E-03
CGA:  11    -0.128320109793E+04   -0.20044E-03   -0.19861E-03 10640   0.368E-03 0.476E-04
CGA:  12    -0.128320115464E+04   -0.56715E-04   -0.70009E-04 10640   0.172E-03 0.147E-03
CGA:  13    -0.128320123967E+04   -0.85028E-04   -0.20541E-03 10640   0.820E-03-0.206E-03
CGA:  14    -0.128320141667E+04   -0.17700E-03   -0.17226E-03 10640   0.296E-03-0.576E-04
CGA:  15    -0.128320142292E+04   -0.62570E-05   -0.29101E-04 10640   0.941E-04 0.126E-03
CGA:  16    -0.128320142277E+04    0.14959E-06   -0.12217E-04 10640   0.571E-04 0.662E-04
CGA:  17    -0.128320146196E+04   -0.39187E-04    0.27626E-04 10640   0.474E-04 0.295E-04
CGA:  18    -0.128320145887E+04    0.30937E-05   -0.37607E-05 10640   0.333E-04 0.362E-04
  25 F= -.12832015E+04 E0= -.12832014E+04  d E =-.236904E+00  mag=    47.0000
       N       E                     dE             d eps       ncg     rms          ort
SDA:   1    -0.128251397846E+04    0.68748E+00    0.00000E+00 10640   0.237E+01 0.000E+00
CGA:   2    -0.128296383293E+04   -0.44985E+00   -0.44965E+00 10640   0.846E+00-0.286E-02
CGA:   3    -0.128317216732E+04   -0.20833E+00   -0.20837E+00 10640   0.290E+00 0.535E-02
CGA:   4    -0.128321232743E+04   -0.40160E-01   -0.40392E-01 10640   0.473E-01 0.256E-02
CGA:   5    -0.128322070613E+04   -0.83787E-02   -0.83941E-02 10640   0.128E-01 0.254E-03
CGA:   6    -0.128322328684E+04   -0.25807E-02   -0.25820E-02 10640   0.376E-02 0.421E-04
CGA:   7    -0.128322415226E+04   -0.86542E-03   -0.86271E-03 10640   0.131E-02-0.217E-03
CGA:   8    -0.128322437915E+04   -0.22689E-03   -0.22598E-03 10640   0.545E-03-0.130E-04
CGA:   9    -0.128322454259E+04   -0.16345E-03   -0.17375E-03 10640   0.439E-03-0.122E-03
CGA:  10    -0.128322458898E+04   -0.46382E-04   -0.54623E-04 10640   0.185E-03 0.101E-03
CGA:  11    -0.128322462017E+04   -0.31192E-04   -0.38104E-04 10640   0.106E-03 0.983E-04
CGA:  12    -0.128322465152E+04   -0.31354E-04   -0.35363E-04 10640   0.267E-03-0.402E-04
CGA:  13    -0.128322466824E+04   -0.16718E-04   -0.22391E-04 10640   0.212E-03 0.542E-04
CGA:  14    -0.128322467581E+04   -0.75676E-05   -0.19395E-04 10640   0.734E-04 0.749E-04
CGA:  15    -0.128322467972E+04   -0.39115E-05   -0.10356E-04 10640   0.762E-04 0.528E-04
CGA:  16    -0.128322469638E+04   -0.16656E-04   -0.28007E-04 10640   0.339E-03-0.769E-04
CGA:  17    -0.128322471375E+04   -0.17374E-04   -0.26024E-04 10640   0.254E-04 0.583E-04
CGA:  18    -0.128322471339E+04    0.35438E-06   -0.23165E-05 10640   0.210E-04 0.188E-04
  26 F= -.12832247E+04 E0= -.12832247E+04  d E =-.232545E-01  mag=    47.0000
       N       E                     dE             d eps       ncg     rms          ort
SDA:   1    -0.128313879106E+04    0.85923E-01    0.00000E+00 10640   0.275E+00 0.000E+00
CGA:   2    -0.128319575579E+04   -0.56965E-01   -0.56972E-01 10640   0.109E+00 0.552E-03
CGA:   3    -0.128322204919E+04   -0.26293E-01   -0.26272E-01 10640   0.267E-01 0.114E-02
CGA:   4    -0.128322616479E+04   -0.41156E-02   -0.41138E-02 10640   0.513E-02-0.132E-04
CGA:   5    -0.128322716655E+04   -0.10018E-02   -0.98908E-03 10640   0.189E-02-0.461E-03
CGA:   6    -0.128322749383E+04   -0.32727E-03   -0.31889E-03 10640   0.638E-03-0.250E-03
CGA:   7    -0.128322757604E+04   -0.82214E-04   -0.88462E-04 10640   0.129E-03 0.110E-03
CGA:   8    -0.128322760047E+04   -0.24430E-04   -0.26404E-04 10640   0.521E-04 0.506E-04
CGA:   9    -0.128322761558E+04   -0.15109E-04   -0.15170E-04 10640   0.384E-04 0.195E-04
CGA:  10    -0.128322763480E+04   -0.19224E-04   -0.22917E-04 10640   0.692E-04-0.168E-04
CGA:  11    -0.128322765629E+04   -0.21489E-04    0.18269E-04 10640   0.716E-04-0.311E-04
CGA:  12    -0.128322767415E+04   -0.17860E-04    0.32063E-03 10640   0.841E-04-0.272E-04
CGA:  13    -0.128322767875E+04   -0.45991E-05   -0.54859E-05 10640   0.664E-04 0.693E-05
  27 F= -.12832277E+04 E0= -.12832276E+04  d E =-.296536E-02  mag=    47.0000
       N       E                     dE             d eps       ncg     rms          ort
SDA:   1    -0.128270762670E+04    0.52005E+00    0.00000E+00 10640   0.170E+01 0.000E+00
CGA:   2    -0.128303274694E+04   -0.32512E+00   -0.32515E+00 10640   0.605E+00 0.182E-02
CGA:   3    -0.128318777281E+04   -0.15503E+00   -0.15481E+00 10640   0.179E+00 0.457E-02
CGA:   4    -0.128321394864E+04   -0.26176E-01   -0.26354E-01 10640   0.291E-01 0.297E-02
CGA:   5    -0.128321956878E+04   -0.56201E-02   -0.55857E-02 10640   0.101E-01-0.166E-02
CGA:   6    -0.128322124606E+04   -0.16773E-02   -0.16710E-02 10640   0.299E-02-0.177E-03
CGA:   7    -0.128322184472E+04   -0.59865E-03   -0.59887E-03 10640   0.678E-03 0.886E-04
CGA:   8    -0.128322202117E+04   -0.17646E-03   -0.18202E-03 10640   0.425E-03-0.102E-03
CGA:   9    -0.128322206127E+04   -0.40099E-04   -0.48741E-04 10640   0.152E-03 0.117E-03
CGA:  10    -0.128322209669E+04   -0.35415E-04   -0.36229E-04 10640   0.107E-03 0.448E-04
CGA:  11    -0.128322142777E+04    0.66892E-03   -0.36029E-03 10640   0.581E-02-0.760E-03
CGA:  12    -0.128322194041E+04   -0.51264E-03   -0.60575E-03 10640   0.832E-03 0.363E-03
CGA:  13    -0.128322209524E+04   -0.15483E-03   -0.18016E-03 10640   0.168E-03 0.163E-03
CGA:  14    -0.128322216475E+04   -0.69510E-04   -0.68179E-04 10640   0.383E-03-0.114E-03
CGA:  15    -0.128322216505E+04   -0.29874E-06   -0.29418E-04 10640   0.512E-04 0.107E-03
  28 F= -.12832222E+04 E0= -.12832221E+04  d E =0.551370E-02  mag=    47.0000
       N       E                     dE             d eps       ncg     rms          ort
SDA:   1    -0.128301240355E+04    0.20976E+00    0.00000E+00 10640   0.619E+00 0.000E+00
CGA:   2    -0.128314245600E+04   -0.13005E+00   -0.13021E+00 10640   0.244E+00 0.152E-02
CGA:   3    -0.128320204286E+04   -0.59587E-01   -0.59658E-01 10640   0.523E-01 0.905E-03
CGA:   4    -0.128321090935E+04   -0.88665E-02   -0.88362E-02 10640   0.942E-02-0.197E-03
CGA:   5    -0.128321314166E+04   -0.22323E-02   -0.21584E-02 10640   0.261E-02-0.951E-03
CGA:   6    -0.128321357700E+04   -0.43533E-03   -0.45114E-03 10640   0.720E-03 0.144E-03
CGA:   7    -0.128321373494E+04   -0.15794E-03   -0.15535E-03 10640   0.263E-03-0.268E-04
CGA:   8    -0.128321376178E+04   -0.26846E-04   -0.38288E-04 10640   0.909E-04 0.806E-04
CGA:   9    -0.128321379868E+04   -0.36899E-04   -0.37066E-04 10640   0.938E-04-0.642E-05
CGA:  10    -0.128321388004E+04   -0.81355E-04    0.20157E-04 10640   0.120E-03-0.443E-04
CGA:  11    -0.128321392090E+04   -0.40859E-04    0.74795E-04 10640   0.114E-03-0.645E-04
CGA:  12    -0.128321392249E+04   -0.15898E-05   -0.12977E-04 10640   0.512E-04 0.655E-04
CGA:  13    -0.128321393088E+04   -0.83932E-05   -0.10594E-04 10640   0.254E-04 0.305E-04
  29 F= -.12832139E+04 E0= -.12832139E+04  d E =0.823417E-02  mag=    47.0000
       N       E                     dE             d eps       ncg     rms          ort
SDA:   1    -0.128288023801E+04    0.33368E+00    0.00000E+00 10640   0.964E+00 0.000E+00
CGA:   2    -0.128307937983E+04   -0.19914E+00   -0.19916E+00 10640   0.382E+00 0.525E-03
CGA:   3    -0.128317239065E+04   -0.93011E-01   -0.93081E-01 10640   0.955E-01 0.329E-02
CGA:   4    -0.128318714225E+04   -0.14752E-01   -0.14783E-01 10640   0.177E-01 0.321E-03
CGA:   5    -0.128319039780E+04   -0.32556E-02   -0.32287E-02 10640   0.552E-02-0.325E-03
CGA:   6    -0.128319138176E+04   -0.98396E-03   -0.97239E-03 10640   0.175E-02-0.147E-03
CGA:   7    -0.128319173313E+04   -0.35137E-03   -0.35249E-03 10640   0.449E-03 0.283E-04
CGA:   8    -0.128319183887E+04   -0.10574E-03   -0.10570E-03 10640   0.229E-03-0.163E-05
CGA:   9    -0.128319188088E+04   -0.42017E-04   -0.44483E-04 10640   0.976E-04 0.474E-04
CGA:  10    -0.128319191456E+04   -0.33674E-04   -0.84935E-04 10640   0.357E-03-0.108E-03
CGA:  11    -0.128319195129E+04   -0.36733E-04   -0.47221E-04 10640   0.843E-04 0.772E-04
CGA:  12    -0.128319196833E+04   -0.17041E-04   -0.18386E-04 10640   0.308E-04 0.163E-04
CGA:  13    -0.128319198302E+04   -0.14691E-04   -0.13778E-04 10640   0.318E-04 0.763E-05
CGA:  14    -0.128319198878E+04   -0.57553E-05   -0.75076E-05 10640   0.244E-04 0.233E-04
  30 F= -.12831920E+04 E0= -.12831920E+04  d E =0.219421E-01  mag=    47.0000
       N       E                     dE             d eps       ncg     rms          ort
SDA:   1    -0.128259500904E+04    0.59697E+00    0.00000E+00 10640   0.159E+01 0.000E+00
CGA:   2    -0.128296722037E+04   -0.37221E+00   -0.37227E+00 10640   0.710E+00 0.248E-02
CGA:   3    -0.128312215878E+04   -0.15494E+00   -0.15486E+00 10640   0.181E+00-0.154E-02
CGA:   4    -0.128314842119E+04   -0.26262E-01   -0.26127E-01 10640   0.383E-01-0.107E-02
CGA:   5    -0.128315507826E+04   -0.66571E-02   -0.66444E-02 10640   0.938E-02-0.978E-04
CGA:   6    -0.128315691557E+04   -0.18373E-02   -0.18340E-02 10640   0.268E-02-0.565E-04
CGA:   7    -0.128315749358E+04   -0.57800E-03   -0.58007E-03 10640   0.821E-03 0.803E-04
CGA:   8    -0.128315766848E+04   -0.17490E-03   -0.17449E-03 10640   0.425E-03-0.941E-05
CGA:   9    -0.128315777211E+04   -0.10364E-03   -0.10373E-03 10640   0.221E-03-0.158E-04
CGA:  10    -0.128315761703E+04    0.15509E-03   -0.19727E-03 10640   0.264E-02-0.513E-03
CGA:  11    -0.128315787815E+04   -0.26113E-03   -0.27222E-03 10640   0.373E-03 0.709E-04
CGA:  12    -0.128315795864E+04   -0.80484E-04   -0.82836E-04 10640   0.842E-04 0.461E-04
CGA:  13    -0.128315799793E+04   -0.39297E-04   -0.42008E-04 10640   0.114E-03-0.152E-04
CGA:  14    -0.128315801912E+04   -0.21185E-04   -0.19610E-04 10640   0.677E-04-0.246E-04
CGA:  15    -0.128315763141E+04    0.38771E-03   -0.20906E-03 10640   0.298E-02-0.327E-03
CGA:  16    -0.128315798534E+04   -0.35393E-03   -0.34755E-03 10640   0.462E-03-0.171E-05
CGA:  17    -0.128315809757E+04   -0.11223E-03   -0.11120E-03 10640   0.234E-03-0.379E-05
CGA:  18    -0.128315813357E+04   -0.36000E-04   -0.43469E-04 10640   0.750E-04 0.278E-04
CGA:  19    -0.128315817845E+04   -0.44881E-04   -0.49583E-04 10640   0.903E-04-0.332E-04
CGA:  20    -0.128315820374E+04   -0.25292E-04   -0.15266E-04 10640   0.794E-04-0.653E-04
CGA:  21    -0.128315820360E+04    0.14454E-06   -0.85873E-05 10640   0.223E-04 0.258E-04
  31 F= -.12831582E+04 E0= -.12831582E+04  d E =0.337852E-01  mag=    47.0000
       N       E                     dE             d eps       ncg     rms          ort
SDA:   1    -0.127396918147E+04    0.91890E+01    0.00000E+00 10640   0.284E+02 0.000E+00
CGA:   2    -0.127970290387E+04   -0.57337E+01   -0.57278E+01 10640   0.112E+02 0.266E-01
CGA:   3    -0.128230228650E+04   -0.25994E+01   -0.26087E+01 10640   0.367E+01 0.561E-02
CGA:   4    -0.128280769289E+04   -0.50541E+00   -0.49912E+00 10640   0.613E+00 0.700E-01
CGA:   5    -0.128291962128E+04   -0.11193E+00   -0.11291E+00 10640   0.165E+00 0.414E-02
CGA:   6    -0.128295158929E+04   -0.31968E-01   -0.32278E-01 10640   0.451E-01 0.216E-02
CGA:   7    -0.128296197345E+04   -0.10384E-01   -0.10243E-01 10640   0.162E-01-0.988E-03
CGA:   8    -0.128296484223E+04   -0.28688E-02   -0.28612E-02 10640   0.640E-02 0.556E-04
CGA:   9    -0.128296651496E+04   -0.16727E-02   -0.16641E-02 10640   0.302E-02-0.896E-04
CGA:  10    -0.128296690692E+04   -0.39196E-03   -0.54364E-03 10640   0.117E-02 0.939E-03
CGA:  11    -0.128296710131E+04   -0.19439E-03   -0.29335E-03 10640   0.499E-03 0.680E-03
CGA:  12    -0.128296731022E+04   -0.20891E-03   -0.20019E-03 10640   0.490E-03 0.121E-03
CGA:  13    -0.128296731733E+04   -0.71076E-05   -0.82416E-04 10640   0.270E-03 0.382E-03
CGA:  14    -0.128296734645E+04   -0.29119E-04   -0.52313E-04 10640   0.177E-03 0.179E-03
CGA:  15    -0.128296736017E+04   -0.13719E-04   -0.33415E-04 10640   0.164E-03 0.153E-03
CGA:  16    -0.128296738732E+04   -0.27151E-04   -0.37769E-04 10640   0.168E-03 0.131E-03
CGA:  17    -0.128296739098E+04   -0.36660E-05   -0.23648E-04 10640   0.145E-03 0.121E-03
CGA:  18    -0.128296741871E+04   -0.27729E-04   -0.34427E-04 10640   0.156E-03 0.110E-03
CGA:  19    -0.128296741956E+04   -0.84531E-06   -0.19279E-04 10640   0.125E-03 0.107E-03
CGA:  20    -0.128296744325E+04   -0.23691E-04   -0.29195E-04 10640   0.127E-03 0.104E-03
CGA:  21    -0.128296744478E+04   -0.15346E-05   -0.16709E-04 10640   0.110E-03 0.994E-04
CGA:  22    -0.128296746574E+04   -0.20954E-04   -0.25376E-04 10640   0.111E-03 0.950E-04
CGA:  23    -0.128296746761E+04   -0.18718E-05   -0.14693E-04 10640   0.983E-04 0.907E-04
CGA:  24    -0.128296748621E+04   -0.18603E-04   -0.22191E-04 10640   0.971E-04 0.868E-04
CGA:  25    -0.128296748848E+04   -0.22656E-05   -0.13083E-04 10640   0.881E-04 0.829E-04
CGA:  26    -0.128296750507E+04   -0.16594E-04   -0.19524E-04 10640   0.862E-04 0.794E-04
CGA:  27    -0.128296750767E+04   -0.25952E-05   -0.11743E-04 10640   0.794E-04 0.759E-04
CGA:  28    -0.128296752249E+04   -0.14819E-04   -0.17246E-04 10640   0.770E-04 0.727E-04
CGA:  29    -0.128296752535E+04   -0.28659E-05   -0.10613E-04 10640   0.718E-04 0.696E-04
CGA:  30    -0.128296753858E+04   -0.13231E-04   -0.15279E-04 10640   0.693E-04 0.667E-04
CGA:  31    -0.128296754167E+04   -0.30828E-05   -0.96500E-05 10640   0.652E-04 0.639E-04
CGA:  32    -0.128296755346E+04   -0.11797E-04   -0.13565E-04 10640   0.627E-04 0.613E-04
CGA:  33    -0.128296755671E+04   -0.32507E-05   -0.88197E-05 10640   0.595E-04 0.587E-04
CGA:  34    -0.128296756721E+04   -0.10495E-04   -0.12060E-04 10640   0.570E-04 0.564E-04
CGA:  35    -0.128296757058E+04   -0.33730E-05   -0.80959E-05 10640   0.544E-04 0.541E-04
CGA:  36    -0.128296757989E+04   -0.93116E-05   -0.10734E-04 10640   0.521E-04 0.519E-04
  32 F= -.12829676E+04 E0= -.12829676E+04  d E =0.190624E+00  mag=    47.0000
       N       E                     dE             d eps       ncg     rms          ort
SDA:   1    -0.126905240572E+04    0.13915E+02    0.00000E+00 10640   0.472E+02 0.000E+00
CGA:   2    -0.127791575975E+04   -0.88634E+01   -0.88650E+01 10640   0.166E+02 0.692E-01
CGA:   3    -0.128210223213E+04   -0.41865E+01   -0.41854E+01 10640   0.513E+01 0.130E-02
CGA:   4    -0.128287272430E+04   -0.77049E+00   -0.76854E+00 10640   0.814E+00 0.206E-02
CGA:   5    -0.128302310040E+04   -0.15038E+00   -0.15008E+00 10640   0.260E+00-0.976E-02
CGA:   6    -0.128306786742E+04   -0.44767E-01   -0.44687E-01 10640   0.784E-01-0.154E-02
CGA:   7    -0.128308342734E+04   -0.15560E-01   -0.15581E-01 10640   0.197E-01 0.182E-02
CGA:   8    -0.128308790475E+04   -0.44774E-02   -0.44821E-02 10640   0.871E-02-0.437E-03
CGA:   9    -0.128308974848E+04   -0.18437E-02   -0.18417E-02 10640   0.373E-02 0.545E-03
CGA:  10    -0.128308981691E+04   -0.68431E-04   -0.26957E-02 10640   0.197E-01-0.560E-02
CGA:  11    -0.128309190691E+04   -0.20900E-02   -0.21654E-02 10640   0.327E-02 0.684E-03
CGA:  12    -0.128309262433E+04   -0.71742E-03   -0.71737E-03 10640   0.795E-03 0.859E-06
CGA:  13    -0.128309194358E+04    0.68075E-03   -0.83468E-03 10640   0.105E-01-0.184E-02
CGA:  14    -0.128309296773E+04   -0.10241E-02   -0.11620E-02 10640   0.136E-02 0.926E-03
CGA:  15    -0.128309339410E+04   -0.42637E-03   -0.43672E-03 10640   0.840E-03-0.317E-03
CGA:  16    -0.128309354028E+04   -0.14618E-03   -0.13597E-03 10640   0.448E-03-0.193E-03
CGA:  17    -0.128309358732E+04   -0.47032E-04   -0.57236E-04 10640   0.232E-03 0.107E-03
CGA:  18    -0.128309364666E+04   -0.59344E-04   -0.61287E-04 10640   0.191E-03 0.450E-04
CGA:  19    -0.128309347253E+04    0.17413E-03   -0.21867E-03 10640   0.321E-02-0.558E-03
CGA:  20    -0.128309376979E+04   -0.29726E-03   -0.35219E-03 10640   0.545E-03 0.319E-03
CGA:  21    -0.128309392414E+04   -0.15434E-03   -0.15455E-03 10640   0.217E-03 0.950E-05
CGA:  22    -0.128309397770E+04   -0.53566E-04   -0.85037E-04 10640   0.579E-03-0.293E-03
CGA:  23    -0.128309398639E+04   -0.86901E-05   -0.47811E-04 10640   0.989E-04 0.196E-03
  33 F= -.12830940E+04 E0= -.12830939E+04  d E =-.126406E+00  mag=    47.0000
       N       E                     dE             d eps       ncg     rms          ort
SDA:   1    -0.128165193649E+04    0.14420E+01    0.00000E+00 10640   0.506E+01 0.000E+00
CGA:   2    -0.128260898400E+04   -0.95705E+00   -0.95621E+00 10640   0.179E+01-0.941E-02
CGA:   3    -0.128305214184E+04   -0.44316E+00   -0.44332E+00 10640   0.597E+00 0.115E-01
CGA:   4    -0.128313631615E+04   -0.84174E-01   -0.84727E-01 10640   0.985E-01 0.560E-02
CGA:   5    -0.128315296267E+04   -0.16647E-01   -0.16826E-01 10640   0.274E-01 0.223E-02
CGA:   6    -0.128315828605E+04   -0.53234E-02   -0.53745E-02 10640   0.730E-02 0.906E-03
CGA:   7    -0.128316008174E+04   -0.17957E-02   -0.17927E-02 10640   0.237E-02-0.325E-03
CGA:   8    -0.128316053050E+04   -0.44876E-03   -0.43937E-03 10640   0.113E-02-0.175E-03
CGA:   9    -0.128316076310E+04   -0.23260E-03   -0.23105E-03 10640   0.442E-03-0.653E-04
CGA:  10    -0.128316078819E+04   -0.25094E-04   -0.51672E-04 10640   0.166E-03 0.225E-03
CGA:  11    -0.128316078436E+04    0.38290E-05   -0.14658E-04 10640   0.993E-04 0.125E-03
  34 F= -.12831608E+04 E0= -.12831608E+04  d E =-.667980E-01  mag=    47.0000
       N       E                     dE             d eps       ncg     rms          ort
SDA:   1    -0.128310215969E+04    0.58628E-01    0.00000E+00 10640   0.199E+00 0.000E+00
CGA:   2    -0.128314114492E+04   -0.38985E-01   -0.38938E-01 10640   0.735E-01-0.174E-02
CGA:   3    -0.128315879380E+04   -0.17649E-01   -0.17594E-01 10640   0.197E-01 0.258E-02
CGA:   4    -0.128316180750E+04   -0.30137E-02   -0.30512E-02 10640   0.332E-02 0.532E-03
CGA:   5    -0.128316236770E+04   -0.56020E-03   -0.57471E-03 10640   0.971E-03 0.297E-03
CGA:   6    -0.128316255625E+04   -0.18855E-03   -0.19140E-03 10640   0.291E-03 0.838E-04
CGA:   7    -0.128316264192E+04   -0.85672E-04   -0.90176E-04 10640   0.151E-03-0.624E-04
CGA:   8    -0.128316265290E+04   -0.10976E-04   -0.14285E-04 10640   0.539E-04 0.344E-04
CGA:   9    -0.128316266192E+04   -0.90262E-05   -0.10180E-04 10640   0.333E-04 0.196E-04
  35 F= -.12831627E+04 E0= -.12831626E+04  d E =-.187756E-02  mag=    47.0000
       N       E                     dE             d eps       ncg     rms          ort
SDA:   1    -0.128267894690E+04    0.48371E+00    0.00000E+00 10640   0.144E+01 0.000E+00
CGA:   2    -0.128298702073E+04   -0.30807E+00   -0.30809E+00 10640   0.585E+00-0.257E-02
CGA:   3    -0.128312678268E+04   -0.13976E+00   -0.13955E+00 10640   0.130E+00 0.663E-02
CGA:   4    -0.128314854906E+04   -0.21766E-01   -0.21748E-01 10640   0.222E-01-0.396E-03
CGA:   5    -0.128315317313E+04   -0.46241E-02   -0.46237E-02 10640   0.490E-02 0.180E-03
CGA:   6    -0.128315442940E+04   -0.12563E-02   -0.13031E-02 10640   0.246E-02-0.825E-03
CGA:   7    -0.128315467008E+04   -0.24068E-03   -0.26608E-03 10640   0.644E-03 0.322E-03
CGA:   8    -0.128315481110E+04   -0.14102E-03   -0.14135E-03 10640   0.330E-03 0.280E-04
CGA:   9    -0.128315292452E+04    0.18866E-02   -0.10191E-02 10640   0.175E-01-0.211E-02
CGA:  10    -0.128315443953E+04   -0.15150E-02   -0.17585E-02 10640   0.193E-02 0.122E-02
CGA:  11    -0.128315491003E+04   -0.47051E-03   -0.48370E-03 10640   0.509E-03 0.105E-03
CGA:  12    -0.128315508243E+04   -0.17239E-03   -0.13534E-03 10640   0.713E-03-0.361E-03
CGA:  13    -0.128315509234E+04   -0.99124E-05   -0.58407E-04 10640   0.920E-04 0.184E-03
CGA:  14    -0.128315508989E+04    0.24514E-05   -0.10521E-04 10640   0.558E-04 0.530E-04
CGA:  15    -0.128315514439E+04   -0.54504E-04    0.17812E-04 10640   0.628E-04 0.430E-05
CGA:  16    -0.128315514588E+04   -0.14898E-05   -0.82669E-05 10640   0.197E-04 0.337E-04
  36 F= -.12831551E+04 E0= -.12831551E+04  d E =0.751604E-02  mag=    47.0000
       N       E                     dE             d eps       ncg     rms          ort
SDA:   1    -0.128261469936E+04    0.54045E+00    0.00000E+00 10640   0.161E+01 0.000E+00
CGA:   2    -0.128294495938E+04   -0.33026E+00   -0.32996E+00 10640   0.629E+00-0.267E-02
CGA:   3    -0.128309870782E+04   -0.15375E+00   -0.15398E+00 10640   0.159E+00 0.431E-02
CGA:   4    -0.128312307232E+04   -0.24364E-01   -0.24529E-01 10640   0.287E-01 0.128E-02
CGA:   5    -0.128312811724E+04   -0.50449E-02   -0.50944E-02 10640   0.854E-02 0.472E-03
CGA:   6    -0.128312962364E+04   -0.15064E-02   -0.15159E-02 10640   0.263E-02 0.102E-03
CGA:   7    -0.128313030568E+04   -0.68204E-03   -0.67204E-03 10640   0.101E-02-0.421E-03
CGA:   8    -0.128313046201E+04   -0.15633E-03   -0.15606E-03 10640   0.390E-03-0.813E-06
CGA:   9    -0.128313058342E+04   -0.12141E-03   -0.16679E-03 10640   0.695E-03-0.288E-03
CGA:  10    -0.128313063071E+04   -0.47289E-04   -0.71123E-04 10640   0.132E-03 0.137E-03
CGA:  11    -0.128313065120E+04   -0.20492E-04   -0.25090E-04 10640   0.439E-04 0.416E-04
CGA:  12    -0.128313026521E+04    0.38599E-03   -0.20802E-03 10640   0.400E-02-0.338E-03
CGA:  13    -0.128313059374E+04   -0.32853E-03   -0.38530E-03 10640   0.460E-03 0.176E-03
CGA:  14    -0.128313075843E+04   -0.16469E-03   -0.15501E-03 10640   0.996E-04-0.691E-04
CGA:  15    -0.128313087495E+04   -0.11652E-03    0.37717E-04 10640   0.432E-03-0.118E-03
CGA:  16    -0.128313085232E+04    0.22631E-04   -0.30014E-04 10640   0.534E-04 0.139E-03
CGA:  17    -0.128313084069E+04    0.11629E-04   -0.31007E-05 10640   0.200E-04 0.377E-04
CGA:  18    -0.128313083689E+04    0.38039E-05   -0.13328E-05 10640   0.117E-04 0.147E-04
  37 F= -.12831308E+04 E0= -.12831308E+04  d E =0.243090E-01  mag=    47.0000
       N       E                     dE             d eps       ncg     rms          ort
SDA:   1    -0.125814547932E+04    0.24985E+02    0.00000E+00 10640   0.839E+02 0.000E+00
CGA:   2    -0.127357378059E+04   -0.15428E+02   -0.15463E+02 10640   0.283E+02 0.213E+00
CGA:   3    -0.128084642789E+04   -0.72726E+01   -0.72791E+01 10640   0.927E+01 0.130E-01
CGA:   4    -0.128220882974E+04   -0.13624E+01   -0.13497E+01 10640   0.150E+01 0.903E-01
CGA:   5    -0.128247015887E+04   -0.26133E+00   -0.26117E+00 10640   0.482E+00-0.863E-02
CGA:   6    -0.128255568052E+04   -0.85522E-01   -0.85306E-01 10640   0.134E+00 0.197E-02
CGA:   7    -0.128258542655E+04   -0.29746E-01   -0.29678E-01 10640   0.359E-01-0.451E-03
CGA:   8    -0.128259248541E+04   -0.70589E-02   -0.71239E-02 10640   0.151E-01 0.544E-03
CGA:   9    -0.128259586363E+04   -0.33782E-02   -0.33830E-02 10640   0.722E-02 0.750E-04
CGA:  10    -0.128259799089E+04   -0.21273E-02   -0.20926E-02 10640   0.484E-02-0.983E-03
CGA:  11    -0.128259924538E+04   -0.12545E-02   -0.11848E-02 10640   0.463E-02-0.183E-02
CGA:  12    -0.128259991355E+04   -0.66816E-03   -0.58034E-03 10640   0.168E-02-0.736E-03
CGA:  13    -0.128260047894E+04   -0.56540E-03   -0.64982E-03 10640   0.206E-02-0.574E-03
CGA:  14    -0.128260070932E+04   -0.23038E-03   -0.23255E-03 10640   0.131E-02 0.150E-04
CGA:  15    -0.128260102180E+04   -0.31248E-03   -0.32246E-03 10640   0.109E-02 0.143E-03
CGA:  16    -0.128260134319E+04   -0.32139E-03   -0.31222E-03 10640   0.882E-03-0.178E-03
CGA:  17    -0.128260145105E+04   -0.10787E-03   -0.13054E-03 10640   0.565E-03 0.171E-03
CGA:  18    -0.128260148559E+04   -0.34536E-04   -0.85103E-04 10640   0.281E-03 0.288E-03
CGA:  19    -0.128260152975E+04   -0.44157E-04   -0.53483E-04 10640   0.160E-03 0.916E-04
CGA:  20    -0.128260153725E+04   -0.75021E-05   -0.27730E-04 10640   0.742E-04 0.129E-03
  38 F= -.12826015E+04 E0= -.12826015E+04  d E =0.529300E+00  mag=    47.0000
       N       E                     dE             d eps       ncg     rms          ort
SDA:   1    -0.127478262818E+04    0.78189E+01    0.00000E+00 10640   0.275E+02 0.000E+00
CGA:   2    -0.128002623980E+04   -0.52436E+01   -0.52416E+01 10640   0.994E+01-0.207E-01
CGA:   3    -0.128246511329E+04   -0.24389E+01   -0.24398E+01 10640   0.333E+01 0.337E-01
CGA:   4    -0.128293442607E+04   -0.46931E+00   -0.47033E+00 10640   0.554E+00 0.154E-01
CGA:   5    -0.128302839008E+04   -0.93964E-01   -0.94453E-01 10640   0.156E+00 0.700E-02
CGA:   6    -0.128305900631E+04   -0.30616E-01   -0.30701E-01 10640   0.424E-01 0.144E-02
CGA:   7    -0.128306852912E+04   -0.95228E-02   -0.95144E-02 10640   0.129E-01-0.236E-03
CGA:   8    -0.128307115254E+04   -0.26234E-02   -0.25708E-02 10640   0.639E-02-0.103E-02
CGA:   9    -0.128307242947E+04   -0.12769E-02   -0.12672E-02 10640   0.248E-02-0.288E-03
CGA:  10    -0.128307286559E+04   -0.43612E-03   -0.46701E-03 10640   0.746E-03 0.631E-03
CGA:  11    -0.128307297438E+04   -0.10879E-03   -0.15007E-03 10640   0.310E-03 0.494E-03
CGA:  12    -0.128307304238E+04   -0.68002E-04   -0.70299E-04 10640   0.165E-03 0.180E-03
CGA:  13    -0.128307305875E+04   -0.16375E-04   -0.26212E-04 10640   0.126E-03 0.122E-03
CGA:  14    -0.128307307862E+04   -0.19863E-04   -0.23970E-04 10640   0.104E-03 0.920E-04
CGA:  15    -0.128307308561E+04   -0.69898E-05   -0.14278E-04 10640   0.837E-04 0.761E-04
CGA:  16    -0.128307309365E+04   -0.80398E-05   -0.12998E-04 10640   0.714E-04 0.682E-04
  39 F= -.12830731E+04 E0= -.12830730E+04  d E =-.471556E+00  mag=    47.0000
       N       E                     dE             d eps       ncg     rms          ort
[...]
CGA:  10    -0.128307910619E+04   -0.23353E-04   -0.24761E-04 10640   0.145E-03-0.738E-04
CGA:  11    -0.128307914055E+04   -0.34363E-04   -0.30020E-04 10640   0.153E-03-0.655E-04
CGA:  12    -0.128307915338E+04   -0.12822E-04   -0.13182E-04 10640   0.629E-04 0.335E-05
CGA:  13    -0.128307915482E+04   -0.14404E-05   -0.46675E-05 10640   0.206E-04 0.169E-04
  44 F= -.12830792E+04 E0= -.12830791E+04  d E =0.732970E-02  mag=    47.0000
       N       E                     dE             d eps       ncg     rms          ort
SDA:   1    -0.128232481018E+04    0.75434E+00    0.00000E+00 10640   0.242E+01 0.000E+00
CGA:   2    -0.128280466981E+04   -0.47986E+00   -0.47962E+00 10640   0.889E+00-0.449E-02
CGA:   3    -0.128302955841E+04   -0.22489E+00   -0.22487E+00 10640   0.230E+00 0.207E-02
CGA:   4    -0.128306555433E+04   -0.35996E-01   -0.36204E-01 10640   0.363E-01 0.238E-02
CGA:   5    -0.128307260210E+04   -0.70478E-02   -0.71167E-02 10640   0.987E-02 0.149E-02
CGA:   6    -0.128307438178E+04   -0.17797E-02   -0.18142E-02 10640   0.368E-02 0.572E-03
CGA:   7    -0.128307516229E+04   -0.78051E-03   -0.77509E-03 10640   0.109E-02-0.145E-03
CGA:   8    -0.128307539358E+04   -0.23129E-03   -0.23151E-03 10640   0.442E-03 0.183E-04
CGA:   9    -0.128307544942E+04   -0.55844E-04   -0.69351E-04 10640   0.161E-03 0.173E-03
CGA:  10    -0.128307545585E+04   -0.64271E-05   -0.24469E-04 10640   0.954E-04 0.151E-03
  45 F= -.12830755E+04 E0= -.12830754E+04  d E =0.369897E-02  mag=    47.0000
       N       E                     dE             d eps       ncg     rms          ort
SDA:   1    -0.128298455536E+04    0.90894E-01    0.00000E+00 10640   0.302E+00 0.000E+00
CGA:   2    -0.128304201646E+04   -0.57461E-01   -0.57503E-01 10640   0.105E+00 0.168E-02
CGA:   3    -0.128306981530E+04   -0.27799E-01   -0.27853E-01 10640   0.303E-01-0.120E-02
CGA:   4    -0.128307436901E+04   -0.45537E-02   -0.45515E-02 10640   0.489E-02-0.279E-04
CGA:   5    -0.128307540382E+04   -0.10348E-02   -0.10328E-02 10640   0.209E-02-0.723E-03
CGA:   6    -0.128307568262E+04   -0.27880E-03   -0.27494E-03 10640   0.581E-03-0.614E-04
CGA:   7    -0.128307576331E+04   -0.80682E-04   -0.88193E-04 10640   0.122E-03 0.137E-03
CGA:   8    -0.128307579279E+04   -0.29485E-04   -0.29593E-04 10640   0.686E-04 0.913E-05
CGA:   9    -0.128307580114E+04   -0.83473E-05   -0.98580E-05 10640   0.277E-04 0.205E-04
CGA:  10    -0.128307581243E+04   -0.11295E-04   -0.14218E-04 10640   0.618E-04-0.154E-04
CGA:  11    -0.128307584818E+04   -0.35741E-04    0.18671E-04 10640   0.905E-04-0.541E-04
CGA:  12    -0.128307584727E+04    0.90587E-06   -0.49134E-05 10640   0.164E-04 0.367E-04
  46 F= -.12830758E+04 E0= -.12830758E+04  d E =-.391421E-03  mag=    47.0000
       N       E                     dE             d eps       ncg     rms          ort
SDA:   1    -0.128297533422E+04    0.10051E+00    0.00000E+00 10640   0.305E+00 0.000E+00
CGA:   2    -0.128303511603E+04   -0.59782E-01   -0.59782E-01 10640   0.112E+00 0.640E-03
CGA:   3    -0.128306336062E+04   -0.28245E-01   -0.28186E-01 10640   0.288E-01 0.107E-02
CGA:   4    -0.128306795986E+04   -0.45992E-02   -0.45808E-02 10640   0.536E-02-0.428E-03
CGA:   5    -0.128306898097E+04   -0.10211E-02   -0.10186E-02 10640   0.208E-02-0.520E-03
CGA:   6    -0.128306929857E+04   -0.31760E-03   -0.31320E-03 10640   0.591E-03-0.140E-03
CGA:   7    -0.128306941573E+04   -0.11715E-03   -0.11719E-03 10640   0.125E-03-0.154E-05
CGA:   8    -0.128306943314E+04   -0.17408E-04   -0.19446E-04 10640   0.421E-04 0.498E-04
CGA:   9    -0.128306931490E+04    0.11823E-03   -0.65247E-04 10640   0.781E-03-0.179E-03
CGA:  10    -0.128306949035E+04   -0.17545E-03   -0.17038E-03 10640   0.123E-03-0.369E-04
CGA:  11    -0.128306945959E+04    0.30767E-04   -0.85256E-04 10640   0.137E-02-0.305E-03
CGA:  12    -0.128306953256E+04   -0.72974E-04   -0.12698E-03 10640   0.112E-03 0.202E-03
CGA:  13    -0.128306953815E+04   -0.55894E-05   -0.15941E-04 10640   0.389E-04 0.452E-04
CGA:  14    -0.128306955028E+04   -0.12129E-04   -0.10913E-04 10640   0.154E-04-0.852E-05
CGA:  15    -0.128306955032E+04   -0.42335E-07   -0.12900E-05 10640   0.829E-05 0.549E-05
  47 F= -.12830696E+04 E0= -.12830695E+04  d E =0.629695E-02  mag=    47.0000
       N       E                     dE             d eps       ncg     rms          ort
SDA:   1    -0.128293373128E+04    0.13582E+00    0.00000E+00 10640   0.383E+00 0.000E+00
CGA:   2    -0.128301349991E+04   -0.79769E-01   -0.80014E-01 10640   0.175E+00 0.254E-02
CGA:   3    -0.128304960662E+04   -0.36107E-01   -0.35997E-01 10640   0.618E-01-0.101E-02
CGA:   4    -0.128305847784E+04   -0.88712E-02   -0.87707E-02 10640   0.925E-02-0.561E-03
CGA:   5    -0.128306034246E+04   -0.18646E-02   -0.18230E-02 10640   0.263E-02-0.425E-03
CGA:   6    -0.128306092173E+04   -0.57927E-03   -0.54364E-03 10640   0.116E-02-0.486E-03
CGA:   7    -0.128306102799E+04   -0.10625E-03   -0.12924E-03 10640   0.261E-03 0.156E-03
CGA:   8    -0.128306105738E+04   -0.29394E-04   -0.42660E-04 10640   0.103E-03 0.988E-04
CGA:   9    -0.128306109178E+04   -0.34395E-04   -0.33449E-04 10640   0.106E-03-0.263E-04
CGA:  10    -0.128306111264E+04   -0.20860E-04   -0.20115E-04 10640   0.998E-04-0.478E-04
CGA:  11    -0.128306115814E+04   -0.45507E-04    0.13669E-04 10640   0.116E-03-0.426E-04
CGA:  12    -0.128306125535E+04   -0.97211E-04    0.52542E-05 10640   0.147E-03-0.957E-04
CGA:  13    -0.128306126536E+04   -0.10001E-04   -0.17631E-04 10640   0.599E-04 0.515E-04
CGA:  14    -0.128306127246E+04   -0.71061E-05   -0.12020E-04 10640   0.317E-04 0.435E-04
CGA:  15    -0.128306128316E+04   -0.10699E-04   -0.14192E-04 10640   0.138E-03-0.182E-04
CGA:  16    -0.128306129031E+04   -0.71489E-05   -0.10779E-04 10640   0.933E-05 0.198E-04
  48 F= -.12830613E+04 E0= -.12830612E+04  d E =0.826001E-02  mag=    47.0000
       N       E                     dE             d eps       ncg     rms          ort
SDA:   1    -0.128294649184E+04    0.11479E+00    0.00000E+00 10640   0.393E+00 0.000E+00
CGA:   2    -0.128302363342E+04   -0.77142E-01   -0.76952E-01 10640   0.157E+00-0.343E-02
CGA:   3    -0.128305780755E+04   -0.34174E-01   -0.34264E-01 10640   0.543E-01 0.348E-02
CGA:   4    -0.128306541015E+04   -0.76026E-02   -0.77469E-02 10640   0.833E-02 0.144E-02
CGA:   5    -0.128306685225E+04   -0.14421E-02   -0.14744E-02 10640   0.212E-02 0.488E-03
CGA:   6    -0.128306722082E+04   -0.36857E-03   -0.39134E-03 10640   0.506E-03 0.369E-03
CGA:   7    -0.128306740435E+04   -0.18353E-03   -0.23288E-03 10640   0.580E-03-0.310E-03
CGA:   8    -0.128306743788E+04   -0.33526E-04   -0.55778E-04 10640   0.107E-03 0.155E-03
CGA:   9    -0.128306745277E+04   -0.14888E-04   -0.18606E-04 10640   0.395E-04 0.384E-04
CGA:  10    -0.128306746673E+04   -0.13965E-04   -0.17693E-04 10640   0.996E-04-0.370E-04
CGA:  11    -0.128306746172E+04    0.50171E-05   -0.51807E-05 10640   0.351E-04 0.561E-04
  49 F= -.12830675E+04 E0= -.12830674E+04  d E =-.617141E-02  mag=    47.0000
       N       E                     dE             d eps       ncg     rms          ort
SDA:   1    -0.128301343703E+04    0.54030E-01    0.00000E+00 10640   0.205E+00 0.000E+00
CGA:   2    -0.128305233441E+04   -0.38897E-01   -0.38892E-01 10640   0.761E-01-0.119E-03
CGA:   3    -0.128307077027E+04   -0.18436E-01   -0.18463E-01 10640   0.279E-01-0.989E-03
CGA:   4    -0.128307466124E+04   -0.38910E-02   -0.38362E-02 10640   0.470E-02-0.691E-03
CGA:   5    -0.128307536938E+04   -0.70814E-03   -0.72380E-03 10640   0.106E-02 0.294E-03
CGA:   6    -0.128307556658E+04   -0.19719E-03   -0.20282E-03 10640   0.239E-03 0.195E-03
CGA:   7    -0.128307562766E+04   -0.61086E-04   -0.60676E-04 10640   0.576E-04 0.665E-04
CGA:   8    -0.128307563397E+04   -0.63084E-05   -0.95838E-05 10640   0.254E-04 0.418E-04
  50 F= -.12830756E+04 E0= -.12830756E+04  d E =-.817226E-02  mag=    47.0000
       N       E                     dE             d eps       ncg     rms          ort
SDA:   1    -0.128306611637E+04    0.95113E-02    0.00000E+00 10640   0.485E-01 0.000E+00
CGA:   2    -0.128307782961E+04   -0.11713E-01   -0.11765E-01 10640   0.222E-01-0.123E-02
CGA:   3    -0.128308228446E+04   -0.44548E-02   -0.44523E-02 10640   0.438E-02 0.936E-03
CGA:   4    -0.128308310079E+04   -0.81633E-03   -0.81159E-03 10640   0.985E-03-0.185E-03
CGA:   5    -0.128308320484E+04   -0.10405E-03   -0.12346E-03 10640   0.223E-03 0.273E-03
CGA:   6    -0.128308323986E+04   -0.35021E-04   -0.39794E-04 10640   0.718E-04 0.813E-04
CGA:   7    -0.128308326680E+04   -0.26945E-04   -0.33546E-04 10640   0.956E-04-0.449E-04
CGA:   8    -0.128308326399E+04    0.28100E-05   -0.53615E-05 10640   0.356E-04 0.558E-04
  51 F= -.12830833E+04 E0= -.12830832E+04  d E =-.763002E-02  mag=    47.0000
       N       E                     dE             d eps       ncg     rms          ort
SDA:   1    -0.128285441321E+04    0.22885E+00    0.00000E+00 10640   0.810E+00 0.000E+00
CGA:   2    -0.128301108315E+04   -0.15667E+00   -0.15666E+00 10640   0.306E+00 0.159E-02
CGA:   3    -0.128308315869E+04   -0.72076E-01   -0.72241E-01 10640   0.116E+00-0.354E-02
CGA:   4    -0.128309924186E+04   -0.16083E-01   -0.15981E-01 10640   0.199E-01-0.191E-02
CGA:   5    -0.128310262126E+04   -0.33794E-02   -0.33792E-02 10640   0.469E-02 0.123E-04
CGA:   6    -0.128310353460E+04   -0.91334E-03   -0.91219E-03 10640   0.127E-02 0.178E-03
CGA:   7    -0.128310379784E+04   -0.26324E-03   -0.26138E-03 10640   0.353E-03 0.188E-03
CGA:   8    -0.128310387616E+04   -0.78318E-04   -0.78086E-04 10640   0.140E-03 0.528E-04
CGA:   9    -0.128310390260E+04   -0.26441E-04   -0.27531E-04 10640   0.559E-04 0.619E-04
CGA:  10    -0.128310392883E+04   -0.26225E-04   -0.24227E-04 10640   0.354E-04 0.176E-04
CGA:  11    -0.128310384958E+04    0.79243E-04   -0.44425E-04 10640   0.840E-03-0.129E-03
CGA:  12    -0.128310390856E+04   -0.58978E-04   -0.79586E-04 10640   0.118E-03 0.827E-04
CGA:  13    -0.128310392824E+04   -0.19679E-04   -0.25861E-04 10640   0.555E-04 0.440E-04
CGA:  14    -0.128310394870E+04   -0.20462E-04   -0.19628E-04 10640   0.773E-04-0.109E-04
CGA:  15    -0.128310395107E+04   -0.23697E-05   -0.66989E-05 10640   0.466E-04 0.195E-04
  52 F= -.12831040E+04 E0= -.12831039E+04  d E =-.206871E-01  mag=    47.0000
       N       E                     dE             d eps       ncg     rms          ort
SDA:   1    -0.128260428944E+04    0.49966E+00    0.00000E+00 10640   0.157E+01 0.000E+00
CGA:   2    -0.128296014209E+04   -0.35585E+00   -0.35537E+00 10640   0.683E+00-0.580E-02
CGA:   3    -0.128310498751E+04   -0.14485E+00   -0.14490E+00 10640   0.198E+00 0.298E-02
CGA:   4    -0.128313401167E+04   -0.29024E-01   -0.29035E-01 10640   0.397E-01-0.382E-03
CGA:   5    -0.128314049715E+04   -0.64855E-02   -0.66329E-02 10640   0.938E-02 0.129E-02
CGA:   6    -0.128314225558E+04   -0.17584E-02   -0.18108E-02 10640   0.255E-02 0.550E-03
CGA:   7    -0.128314299244E+04   -0.73686E-03   -0.73409E-03 10640   0.130E-02-0.412E-03
CGA:   8    -0.128314314494E+04   -0.15250E-03   -0.16436E-03 10640   0.433E-03 0.949E-04
CGA:   9    -0.128314326105E+04   -0.11611E-03   -0.11682E-03 10640   0.198E-03 0.354E-04
CGA:  10    -0.128314332883E+04   -0.67782E-04   -0.81600E-04 10640   0.445E-03-0.125E-03
CGA:  11    -0.128314332658E+04    0.22493E-05   -0.31526E-04 10640   0.883E-04 0.165E-03
  53 F= -.12831433E+04 E0= -.12831433E+04  d E =-.393755E-01  mag=    47.0000
       N       E                     dE             d eps       ncg     rms          ort
SDA:   1    -0.128266118634E+04    0.48214E+00    0.00000E+00 10640   0.150E+01 0.000E+00
CGA:   2    -0.128297073941E+04   -0.30955E+00   -0.30943E+00 10640   0.601E+00-0.196E-02
CGA:   3    -0.128311475112E+04   -0.14401E+00   -0.14403E+00 10640   0.170E+00 0.143E-02
CGA:   4    -0.128313823860E+04   -0.23487E-01   -0.23662E-01 10640   0.316E-01 0.188E-02
CGA:   5    -0.128314367489E+04   -0.54363E-02   -0.54554E-02 10640   0.874E-02 0.275E-03
CGA:   6    -0.128314535369E+04   -0.16788E-02   -0.16866E-02 10640   0.236E-02 0.161E-03
CGA:   7    -0.128314595128E+04   -0.59759E-03   -0.59967E-03 10640   0.905E-03-0.224E-03
CGA:   8    -0.128314608814E+04   -0.13686E-03   -0.13816E-03 10640   0.364E-03 0.198E-04
CGA:   9    -0.128314619016E+04   -0.10202E-03   -0.10319E-03 10640   0.186E-03-0.285E-04
CGA:  10    -0.128314621241E+04   -0.22252E-04   -0.27944E-04 10640   0.768E-04 0.745E-04
CGA:  11    -0.128314622432E+04   -0.11911E-04   -0.16412E-04 10640   0.391E-04 0.542E-04
CGA:  12    -0.128314624130E+04   -0.16979E-04   -0.19809E-04 10640   0.123E-03-0.103E-04
CGA:  13    -0.128314624416E+04   -0.28621E-05   -0.88912E-05 10640   0.748E-04 0.409E-04
  54 F= -.12831462E+04 E0= -.12831462E+04  d E =-.291758E-02  mag=    47.0000
       N       E                     dE             d eps       ncg     rms          ort
SDA:   1    -0.128193317630E+04    0.12131E+01    0.00000E+00 10640   0.362E+01 0.000E+00
CGA:   2    -0.128266964994E+04   -0.73647E+00   -0.73653E+00 10640   0.145E+01 0.541E-02
CGA:   3    -0.128299888858E+04   -0.32924E+00   -0.32925E+00 10640   0.496E+00 0.371E-02
CGA:   4    -0.128306759169E+04   -0.68703E-01   -0.68793E-01 10640   0.870E-01 0.454E-02
CGA:   5    -0.128308366858E+04   -0.16077E-01   -0.15995E-01 10640   0.226E-01-0.195E-02
CGA:   6    -0.128308815762E+04   -0.44890E-02   -0.44644E-02 10640   0.764E-02-0.123E-02
CGA:   7    -0.128308952406E+04   -0.13664E-02   -0.13723E-02 10640   0.226E-02 0.203E-03
CGA:   8    -0.128309002126E+04   -0.49720E-03   -0.49658E-03 10640   0.937E-03-0.117E-03
CGA:   9    -0.128309026970E+04   -0.24844E-03   -0.25886E-03 10640   0.725E-03-0.142E-03
CGA:  10    -0.128309042185E+04   -0.15215E-03   -0.16116E-03 10640   0.574E-03-0.224E-03
CGA:  11    -0.128309061554E+04   -0.19369E-03    0.50504E-03 10640   0.232E-03-0.417E-04
CGA:  12    -0.128309072022E+04   -0.10468E-03    0.28778E-03 10640   0.107E-03 0.775E-04
CGA:  13    -0.128309078723E+04   -0.67015E-04    0.32863E-03 10640   0.747E-04 0.649E-04
CGA:  14    -0.128309078108E+04    0.61545E-05   -0.60308E-04 10640   0.987E-03-0.114E-03
CGA:  15    -0.128309086252E+04   -0.81441E-04   -0.87112E-04 10640   0.523E-04 0.373E-04
CGA:  16    -0.128309089302E+04   -0.30503E-04    0.45217E-04 10640   0.270E-04 0.149E-04
CGA:  17    -0.128309092335E+04   -0.30326E-04    0.54272E-05 10640   0.359E-04 0.118E-04
CGA:  18    -0.128309096963E+04   -0.46284E-04    0.76322E-05 10640   0.312E-04 0.377E-04
CGA:  19    -0.128309097925E+04   -0.96220E-05   -0.96780E-05 10640   0.391E-04-0.876E-06
CGA:  20    -0.128309100630E+04   -0.27047E-04    0.10948E-04 10640   0.242E-04 0.104E-04
CGA:  21    -0.128309103440E+04   -0.28097E-04    0.44951E-05 10640   0.256E-04 0.192E-04
CGA:  22    -0.128309104171E+04   -0.73141E-05   -0.10379E-04 10640   0.837E-04-0.194E-04
CGA:  23    -0.128309106129E+04   -0.19579E-04   -0.16000E-04 10640   0.616E-04-0.546E-04
CGA:  24    -0.128309106519E+04   -0.38984E-05   -0.57517E-05 10640   0.793E-05 0.118E-04
  55 F= -.12830911E+04 E0= -.12830910E+04  d E =0.551790E-01  mag=    47.0000
       N       E                     dE             d eps       ncg     rms          ort
SDA:   1    -0.126703992135E+04    0.16051E+02    0.00000E+00 10640   0.574E+02 0.000E+00
CGA:   2    -0.127689424016E+04   -0.98543E+01   -0.99448E+01 10640   0.186E+02 0.249E+00
CGA:   3    -0.128154893854E+04   -0.46547E+01   -0.46572E+01 10640   0.737E+01-0.165E+00
CGA:   4    -0.128260268440E+04   -0.10537E+01   -0.10659E+01 10640   0.113E+01-0.479E-02
CGA:   5    -0.128279060349E+04   -0.18792E+00   -0.18793E+00 10640   0.329E+00 0.116E-02
CGA:   6    -0.128285108644E+04   -0.60483E-01   -0.60582E-01 10640   0.968E-01 0.267E-02
CGA:   7    -0.128287284106E+04   -0.21755E-01   -0.21735E-01 10640   0.297E-01-0.222E-02
CGA:   8    -0.128287837584E+04   -0.55348E-02   -0.55450E-02 10640   0.108E-01 0.341E-03
CGA:   9    -0.128288128249E+04   -0.29067E-02   -0.29436E-02 10640   0.725E-02-0.891E-03
CGA:  10    -0.128288279347E+04   -0.15110E-02   -0.15090E-02 10640   0.406E-02-0.509E-03
CGA:  11    -0.128288391035E+04   -0.11169E-02   -0.11987E-02 10640   0.320E-02-0.941E-03
CGA:  12    -0.128288454914E+04   -0.63879E-03   -0.66064E-03 10640   0.232E-02-0.638E-03
CGA:  13    -0.128288512092E+04   -0.57179E-03   -0.82229E-03 10640   0.407E-02-0.122E-02
CGA:  14    -0.128288553654E+04   -0.41561E-03   -0.46046E-03 10640   0.111E-02 0.348E-03
CGA:  15    -0.128288586649E+04   -0.32995E-03   -0.32296E-03 10640   0.512E-03 0.255E-03
CGA:  16    -0.128288609878E+04   -0.23230E-03   -0.22727E-03 10640   0.863E-03 0.401E-04
CGA:  17    -0.128288621839E+04   -0.11961E-03   -0.14388E-03 10640   0.369E-03 0.260E-03
CGA:  18    -0.128288626959E+04   -0.51196E-04   -0.70331E-04 10640   0.291E-03 0.198E-03
CGA:  19    -0.128288634299E+04   -0.73401E-04   -0.12559E-03 10640   0.152E-02-0.269E-03
CGA:  20    -0.128288644605E+04   -0.10306E-03   -0.12623E-03 10640   0.100E-03 0.146E-03
CGA:  21    -0.128288646622E+04   -0.20170E-04   -0.22317E-04 10640   0.135E-03 0.590E-04
CGA:  22    -0.128288635103E+04    0.11518E-03   -0.11304E-03 10640   0.387E-02-0.379E-03
CGA:  23    -0.128288663208E+04   -0.28104E-03   -0.32374E-03 10640   0.959E-04 0.248E-03
CGA:  24    -0.128288663578E+04   -0.37005E-05   -0.11593E-04 10640   0.673E-04 0.545E-04
CGA:  25    -0.128288667126E+04   -0.35479E-04    0.17591E-03 10640   0.780E-04 0.496E-04
CGA:  26    -0.128288668671E+04   -0.15454E-04   -0.16572E-04 10640   0.975E-04 0.287E-04
CGA:  27    -0.128288702676E+04   -0.34005E-03   -0.18446E-03 10640   0.220E-03 0.622E-04
CGA:  28    -0.128288704382E+04   -0.17062E-04   -0.20567E-04 10640   0.236E-04 0.105E-04
CGA:  29    -0.128288706918E+04   -0.25364E-04    0.31084E-04 10640   0.443E-04 0.157E-04
CGA:  30    -0.128288707089E+04   -0.17046E-05   -0.56832E-05 10640   0.204E-04 0.129E-04
  56 F= -.12828871E+04 E0= -.12828870E+04  d E =0.203994E+00  mag=    47.0000
       N       E                     dE             d eps       ncg     rms          ort
SDA:   1    -0.127853987381E+04    0.43472E+01    0.00000E+00 10640   0.151E+02 0.000E+00
CGA:   2    -0.128139280331E+04   -0.28529E+01   -0.28517E+01 10640   0.535E+01 0.851E-02
CGA:   3    -0.128273903384E+04   -0.13462E+01   -0.13491E+01 10640   0.182E+01 0.643E-02
CGA:   4    -0.128299171284E+04   -0.25268E+00   -0.25159E+00 10640   0.301E+00 0.185E-01
CGA:   5    -0.128304347920E+04   -0.51766E-01   -0.51967E-01 10640   0.839E-01 0.114E-02
CGA:   6    -0.128306014594E+04   -0.16667E-01   -0.16627E-01 10640   0.243E-01-0.210E-03
CGA:   7    -0.128306546778E+04   -0.53218E-02   -0.52939E-02 10640   0.728E-02-0.159E-03
CGA:   8    -0.128306699246E+04   -0.15247E-02   -0.14413E-02 10640   0.343E-02-0.521E-03
CGA:   9    -0.128306778091E+04   -0.78845E-03   -0.75184E-03 10640   0.172E-02-0.319E-03
CGA:  10    -0.128306814686E+04   -0.36595E-03   -0.36815E-03 10640   0.747E-03 0.236E-04
CGA:  11    -0.128306838377E+04   -0.23691E-03   -0.23303E-03 10640   0.604E-03-0.128E-03
CGA:  12    -0.128306849253E+04   -0.10877E-03   -0.10561E-03 10640   0.298E-03-0.244E-04
CGA:  13    -0.128306855702E+04   -0.64485E-04   -0.22051E-03 10640   0.137E-02-0.357E-03
CGA:  14    -0.128306875122E+04   -0.19420E-03   -0.18800E-03 10640   0.407E-03-0.269E-04
CGA:  15    -0.128306881050E+04   -0.59281E-04   -0.68925E-04 10640   0.885E-04 0.575E-04
CGA:  16    -0.128306881906E+04   -0.85601E-05   -0.17439E-04 10640   0.569E-04 0.553E-04
CGA:  17    -0.128306845068E+04    0.36838E-03   -0.19862E-03 10640   0.496E-02-0.275E-03
CGA:  18    -0.128306884800E+04   -0.39733E-03   -0.47060E-03 10640   0.264E-03 0.188E-03
CGA:  19    -0.128306886699E+04   -0.18982E-04   -0.43504E-04 10640   0.726E-04 0.601E-04
CGA:  20    -0.128306889267E+04   -0.25687E-04   -0.21349E-04 10640   0.397E-04-0.140E-04
CGA:  21    -0.128306889401E+04   -0.13370E-05   -0.58398E-05 10640   0.286E-04 0.129E-04
