       N       E                     dE             d eps       ncg     rms          ort
DAV:   1     0.102794841736E+05    0.10279E+05   -0.42396E+05 10640   0.155E+03
DAV:   2    -0.115637601734E+03   -0.10395E+05   -0.98122E+04 10640   0.474E+02
DAV:   3    -0.152209850605E+04   -0.14065E+04   -0.13101E+04 10640   0.181E+02
DAV:   4    -0.160421144674E+04   -0.82113E+02   -0.79904E+02 10640   0.462E+01
DAV:   5    -0.160658072787E+04   -0.23693E+01   -0.23618E+01 10640   0.838E+00
SDA:   6    -0.727925344260E+03    0.87866E+03   -0.23618E+01 10640   0.291E+04 0.000E+00
CGA:   7    -0.113408002541E+04   -0.40615E+03   -0.40282E+03 10640   0.102E+04-0.107E+02
CGA:   8    -0.115592729227E+04   -0.21847E+02   -0.58557E+02 10640   0.124E+04-0.595E+03
CGA:   9    -0.115688197839E+04   -0.95469E+00   -0.61010E+02 10640   0.195E+04-0.117E+04
CGA:  10    -0.112976070492E+04    0.27121E+02   -0.10635E+03 10640   0.276E+04-0.176E+04
CGA:  11    -0.112400808896E+04    0.57526E+01   -0.13813E+03 10640   0.336E+04-0.285E+04
CGA:  12    -0.108252851722E+04    0.41480E+02   -0.18641E+03 10640   0.458E+04-0.353E+04
CGA:  13    -0.108029356340E+04    0.22350E+01   -0.23905E+03 10640   0.492E+04-0.457E+04
CGA:  14    -0.107474357749E+04    0.55500E+01   -0.25704E+03 10640   0.524E+04-0.488E+04
CGA:  15    -0.110476820329E+04   -0.30025E+02   -0.25851E+03 10640   0.469E+04-0.494E+04
CGA:  16    -0.114707278929E+04   -0.42305E+02   -0.21788E+03 10640   0.378E+04-0.431E+04
CGA:  17    -0.120806025969E+04   -0.60987E+02   -0.15367E+03 10640   0.187E+04-0.269E+04
CGA:  18    -0.124716251612E+04   -0.39102E+02   -0.66822E+02 10640   0.450E+03-0.854E+03
CGA:  19    -0.125871178667E+04   -0.11549E+02   -0.79579E+01 10640   0.707E+02 0.103E+03
CGA:  20    -0.126107139087E+04   -0.23596E+01   -0.24542E+01 10640   0.424E+02-0.570E+01
CGA:  21    -0.126807583781E+04   -0.70044E+01   -0.67881E+01 10640   0.165E+03 0.384E+01
CGA:  22    -0.127492561741E+04   -0.68498E+01   -0.62540E+01 10640   0.598E+02-0.455E+02
CGA:  23    -0.127620818703E+04   -0.12826E+01   -0.13665E+01 10640   0.300E+02-0.218E+01
CGA:  24    -0.127673796997E+04   -0.52978E+00   -0.75076E+00 10640   0.161E+02-0.795E+01
CGA:  25    -0.127761427733E+04   -0.87631E+00   -0.93541E+00 10640   0.225E+02-0.268E+00
CGA:  26    -0.127865436604E+04   -0.10401E+01   -0.98685E+00 10640   0.121E+02 0.265E+00
CGA:  27    -0.127950021500E+04   -0.84585E+00   -0.88041E+00 10640   0.624E+01-0.554E+00
CGA:  28    -0.128030833532E+04   -0.80812E+00   -0.78445E+00 10640   0.431E+01 0.321E+00
CGA:  29    -0.128091726335E+04   -0.60893E+00   -0.61490E+00 10640   0.381E+01-0.388E+00
CGA:  30    -0.128150176306E+04   -0.58450E+00   -0.60929E+00 10640   0.266E+01-0.513E+00
CGA:  31    -0.128194165351E+04   -0.43989E+00   -0.47655E+00 10640   0.265E+01-0.441E+00
CGA:  32    -0.128231624643E+04   -0.37459E+00   -0.39028E+00 10640   0.133E+01-0.343E+00
CGA:  33    -0.128254626504E+04   -0.23002E+00   -0.25171E+00 10640   0.117E+01-0.235E+00
CGA:  34    -0.128277866219E+04   -0.23240E+00   -0.27522E+00 10640   0.722E+00-0.258E+00
CGA:  35    -0.128288051852E+04   -0.10186E+00   -0.10399E+00 10640   0.334E+00-0.552E-01
CGA:  36    -0.128298393548E+04   -0.10342E+00   -0.98846E-01 10640   0.161E+00 0.265E-01
CGA:  37    -0.128301699422E+04   -0.33059E-01   -0.31300E-01 10640   0.779E-01 0.485E-01
CGA:  38    -0.128303893412E+04   -0.21940E-01   -0.19425E-01 10640   0.419E-01 0.550E-01
CGA:  39    -0.128304729669E+04   -0.83626E-02   -0.75861E-02 10640   0.255E-01 0.237E-01
CGA:  40    -0.128305107582E+04   -0.37791E-02   -0.38010E-02 10640   0.189E-01 0.198E-01
CGA:  41    -0.128305349558E+04   -0.24198E-02   -0.26141E-02 10640   0.156E-01 0.167E-01
CGA:  42    -0.128305514330E+04   -0.16477E-02   -0.19704E-02 10640   0.133E-01 0.142E-01
CGA:  43    -0.128305631012E+04   -0.11668E-02   -0.15581E-02 10640   0.117E-01 0.124E-01
CGA:  44    -0.128305718399E+04   -0.87387E-03   -0.12841E-02 10640   0.105E-01 0.110E-01
CGA:  45    -0.128305785180E+04   -0.66780E-03   -0.10805E-02 10640   0.946E-02 0.991E-02
CGA:  46    -0.128305837378E+04   -0.52199E-03   -0.92558E-03 10640   0.862E-02 0.900E-02
CGA:  47    -0.128305878914E+04   -0.41536E-03   -0.80405E-03 10640   0.792E-02 0.824E-02
CGA:  48    -0.128305912483E+04   -0.33569E-03   -0.70653E-03 10640   0.731E-02 0.759E-02
CGA:  49    -0.128305939994E+04   -0.27511E-03   -0.62684E-03 10640   0.680E-02 0.704E-02
CGA:  50    -0.128305962829E+04   -0.22835E-03   -0.56074E-03 10640   0.635E-02 0.656E-02
CGA:  51    -0.128305982006E+04   -0.19177E-03   -0.50518E-03 10640   0.595E-02 0.614E-02
CGA:  52    -0.128305998285E+04   -0.16279E-03   -0.45795E-03 10640   0.560E-02 0.577E-02
CGA:  53    -0.128306012245E+04   -0.13960E-03   -0.41741E-03 10640   0.529E-02 0.544E-02
CGA:  54    -0.128306024332E+04   -0.12087E-03   -0.38229E-03 10640   0.502E-02 0.515E-02
CGA:  55    -0.128306034891E+04   -0.10559E-03   -0.35164E-03 10640   0.477E-02 0.489E-02
CGA:  56    -0.128306044193E+04   -0.93021E-04   -0.32470E-03 10640   0.454E-02 0.465E-02
CGA:  57    -0.128306052453E+04   -0.82603E-04   -0.30087E-03 10640   0.434E-02 0.444E-02
CGA:  58    -0.128306059844E+04   -0.73908E-04   -0.27966E-03 10640   0.415E-02 0.424E-02
CGA:  59    -0.128306066504E+04   -0.66600E-04   -0.26070E-03 10640   0.398E-02 0.406E-02
CGA:  60    -0.128306072545E+04   -0.60411E-04   -0.24366E-03 10640   0.383E-02 0.390E-02
CGA:  61    -0.128306078060E+04   -0.55151E-04   -0.22829E-03 10640   0.368E-02 0.375E-02
CGA:  62    -0.128306083126E+04   -0.50658E-04   -0.21437E-03 10640   0.355E-02 0.361E-02
CGA:  63    -0.128306087806E+04   -0.46800E-04   -0.20171E-03 10640   0.343E-02 0.349E-02
CGA:  64    -0.128306092153E+04   -0.43470E-04   -0.19017E-03 10640   0.331E-02 0.337E-02
CGA:  65    -0.128306096211E+04   -0.40580E-04   -0.17961E-03 10640   0.321E-02 0.326E-02
CGA:  66    -0.128306100017E+04   -0.38064E-04   -0.16992E-03 10640   0.311E-02 0.316E-02
CGA:  67    -0.128306103604E+04   -0.35864E-04   -0.16101E-03 10640   0.302E-02 0.306E-02
CGA:  68    -0.128306106997E+04   -0.33936E-04   -0.15280E-03 10640   0.293E-02 0.297E-02
CGA:  69    -0.128306110221E+04   -0.32237E-04   -0.14521E-03 10640   0.285E-02 0.289E-02
CGA:  70    -0.128306113295E+04   -0.30736E-04   -0.13817E-03 10640   0.278E-02 0.281E-02
CGA:  71    -0.128306116230E+04   -0.29354E-04   -0.13163E-03 10640   0.271E-02 0.274E-02
CGA:  72    -0.128306119048E+04   -0.28182E-04   -0.12556E-03 10640   0.264E-02 0.267E-02
CGA:  73    -0.128306121763E+04   -0.27152E-04   -0.11993E-03 10640   0.258E-02 0.261E-02
CGA:  74    -0.128306124386E+04   -0.26225E-04   -0.11466E-03 10640   0.252E-02 0.255E-02
CGA:  75    -0.128306126925E+04   -0.25389E-04   -0.10974E-03 10640   0.246E-02 0.249E-02
CGA:  76    -0.128306129388E+04   -0.24634E-04   -0.10514E-03 10640   0.241E-02 0.243E-02
CGA:  77    -0.128306131783E+04   -0.23950E-04   -0.10082E-03 10640   0.236E-02 0.238E-02
CGA:  78    -0.128306134116E+04   -0.23330E-04   -0.96766E-04 10640   0.231E-02 0.233E-02
CGA:  79    -0.128306136393E+04   -0.22764E-04   -0.92956E-04 10640   0.226E-02 0.229E-02
CGA:  80    -0.128306138618E+04   -0.22251E-04   -0.89371E-04 10640   0.222E-02 0.224E-02
CGA:  81    -0.128306140796E+04   -0.21778E-04   -0.85992E-04 10640   0.218E-02 0.220E-02
CGA:  82    -0.128306142929E+04   -0.21334E-04   -0.82801E-04 10640   0.214E-02 0.216E-02
CGA:  83    -0.128306145022E+04   -0.20933E-04   -0.79790E-04 10640   0.210E-02 0.212E-02
CGA:  84    -0.128306147079E+04   -0.20564E-04   -0.76946E-04 10640   0.207E-02 0.208E-02
CGA:  85    -0.128306149101E+04   -0.20222E-04   -0.74254E-04 10640   0.203E-02 0.205E-02
CGA:  86    -0.128306151091E+04   -0.19901E-04   -0.71703E-04 10640   0.200E-02 0.202E-02
CGA:  87    -0.128306153051E+04   -0.19599E-04   -0.69283E-04 10640   0.197E-02 0.198E-02
CGA:  88    -0.128306154982E+04   -0.19315E-04   -0.66985E-04 10640   0.194E-02 0.195E-02
CGA:  89    -0.128306156887E+04   -0.19046E-04   -0.64802E-04 10640   0.191E-02 0.192E-02
CGA:  90    -0.128306158766E+04   -0.18789E-04   -0.62724E-04 10640   0.188E-02 0.189E-02
CGA:  91    -0.128306160620E+04   -0.18543E-04   -0.60746E-04 10640   0.185E-02 0.187E-02
CGA:  92    -0.128306162450E+04   -0.18301E-04   -0.58858E-04 10640   0.183E-02 0.184E-02
CGA:  93    -0.128306164257E+04   -0.18064E-04   -0.57056E-04 10640   0.180E-02 0.182E-02
CGA:  94    -0.128306166042E+04   -0.17852E-04   -0.55343E-04 10640   0.178E-02 0.179E-02
CGA:  95    -0.128306167806E+04   -0.17647E-04   -0.53708E-04 10640   0.176E-02 0.177E-02
CGA:  96    -0.128306169551E+04   -0.17449E-04   -0.52146E-04 10640   0.174E-02 0.175E-02
CGA:  97    -0.128306171277E+04   -0.17256E-04   -0.50651E-04 10640   0.172E-02 0.173E-02
CGA:  98    -0.128306172984E+04   -0.17068E-04   -0.49220E-04 10640   0.169E-02 0.170E-02
CGA:  99    -0.128306174672E+04   -0.16882E-04   -0.47849E-04 10640   0.168E-02 0.168E-02
CGA: 100    -0.128306176342E+04   -0.16702E-04   -0.46536E-04 10640   0.166E-02 0.167E-02
CGA: 101    -0.128306177994E+04   -0.16523E-04   -0.45276E-04 10640   0.164E-02 0.165E-02
CGA: 102    -0.128306179630E+04   -0.16350E-04   -0.44068E-04 10640   0.162E-02 0.163E-02
CGA: 103    -0.128306181247E+04   -0.16179E-04   -0.42907E-04 10640   0.160E-02 0.161E-02
CGA: 104    -0.128306182848E+04   -0.16010E-04   -0.41792E-04 10640   0.159E-02 0.159E-02
CGA: 105    -0.128306184433E+04   -0.15844E-04   -0.40720E-04 10640   0.157E-02 0.158E-02
CGA: 106    -0.128306186001E+04   -0.15680E-04   -0.39690E-04 10640   0.155E-02 0.156E-02
CGA: 107    -0.128306187553E+04   -0.15519E-04   -0.38698E-04 10640   0.154E-02 0.155E-02
CGA: 108    -0.128306189089E+04   -0.15360E-04   -0.37743E-04 10640   0.152E-02 0.153E-02
CGA: 109    -0.128306190609E+04   -0.15202E-04   -0.36824E-04 10640   0.151E-02 0.152E-02
CGA: 110    -0.128306192114E+04   -0.15046E-04   -0.35938E-04 10640   0.150E-02 0.150E-02
CGA: 111    -0.128306193603E+04   -0.14893E-04   -0.35084E-04 10640   0.148E-02 0.149E-02
CGA: 112    -0.128306195077E+04   -0.14740E-04   -0.34260E-04 10640   0.147E-02 0.148E-02
CGA: 113    -0.128306196536E+04   -0.14590E-04   -0.33465E-04 10640   0.146E-02 0.146E-02
CGA: 114    -0.128306197980E+04   -0.14441E-04   -0.32697E-04 10640   0.145E-02 0.145E-02
CGA: 115    -0.128306199410E+04   -0.14293E-04   -0.31956E-04 10640   0.143E-02 0.144E-02
CGA: 116    -0.128306200824E+04   -0.14148E-04   -0.31239E-04 10640   0.142E-02 0.143E-02
CGA: 117    -0.128306202225E+04   -0.14004E-04   -0.30548E-04 10640   0.141E-02 0.142E-02
CGA: 118    -0.128306203611E+04   -0.13860E-04   -0.29878E-04 10640   0.140E-02 0.140E-02
CGA: 119    -0.128306204983E+04   -0.13718E-04   -0.29230E-04 10640   0.139E-02 0.139E-02
CGA: 120    -0.128306206340E+04   -0.13576E-04   -0.28603E-04 10640   0.138E-02 0.138E-02
CGA: 121    -0.128306207683E+04   -0.13433E-04   -0.27995E-04 10640   0.137E-02 0.137E-02
CGA: 122    -0.128306209013E+04   -0.13295E-04   -0.27407E-04 10640   0.136E-02 0.136E-02
CGA: 123    -0.128306210329E+04   -0.13161E-04   -0.26839E-04 10640   0.135E-02 0.135E-02
CGA: 124    -0.128306211632E+04   -0.13028E-04   -0.26289E-04 10640   0.134E-02 0.134E-02
CGA: 125    -0.128306212922E+04   -0.12898E-04   -0.25756E-04 10640   0.133E-02 0.133E-02
CGA: 126    -0.128306214198E+04   -0.12769E-04   -0.25240E-04 10640   0.132E-02 0.133E-02
CGA: 127    -0.128306215462E+04   -0.12640E-04   -0.24739E-04 10640   0.131E-02 0.132E-02
CGA: 128    -0.128306216714E+04   -0.12514E-04   -0.24253E-04 10640   0.130E-02 0.131E-02
CGA: 129    -0.128306217953E+04   -0.12388E-04   -0.23781E-04 10640   0.130E-02 0.130E-02
CGA: 130    -0.128306219179E+04   -0.12264E-04   -0.23323E-04 10640   0.129E-02 0.129E-02
CGA: 131    -0.128306220393E+04   -0.12142E-04   -0.22879E-04 10640   0.128E-02 0.128E-02
CGA: 132    -0.128306221595E+04   -0.12020E-04   -0.22447E-04 10640   0.127E-02 0.128E-02
CGA: 133    -0.128306222785E+04   -0.11899E-04   -0.22027E-04 10640   0.126E-02 0.127E-02
CGA: 134    -0.128306223963E+04   -0.11781E-04   -0.21620E-04 10640   0.126E-02 0.126E-02
CGA: 135    -0.128306225130E+04   -0.11664E-04   -0.21224E-04 10640   0.125E-02 0.125E-02
CGA: 136    -0.128306226284E+04   -0.11548E-04   -0.20839E-04 10640   0.124E-02 0.125E-02
CGA: 137    -0.128306227428E+04   -0.11434E-04   -0.20465E-04 10640   0.123E-02 0.124E-02
CGA: 138    -0.128306228560E+04   -0.11320E-04   -0.20100E-04 10640   0.123E-02 0.123E-02
CGA: 139    -0.128306229681E+04   -0.11209E-04   -0.19746E-04 10640   0.122E-02 0.122E-02
CGA: 140    -0.128306230791E+04   -0.11098E-04   -0.19402E-04 10640   0.121E-02 0.122E-02
CGA: 141    -0.128306231889E+04   -0.10988E-04   -0.19066E-04 10640   0.121E-02 0.121E-02
CGA: 142    -0.128306232977E+04   -0.10882E-04   -0.18740E-04 10640   0.120E-02 0.121E-02
CGA: 143    -0.128306234055E+04   -0.10775E-04   -0.18422E-04 10640   0.120E-02 0.120E-02
CGA: 144    -0.128306235122E+04   -0.10669E-04   -0.18112E-04 10640   0.119E-02 0.119E-02
CGA: 145    -0.128306236178E+04   -0.10566E-04   -0.17811E-04 10640   0.118E-02 0.119E-02
CGA: 146    -0.128306237225E+04   -0.10465E-04   -0.17517E-04 10640   0.118E-02 0.118E-02
CGA: 147    -0.128306238261E+04   -0.10364E-04   -0.17231E-04 10640   0.117E-02 0.118E-02
CGA: 148    -0.128306239288E+04   -0.10265E-04   -0.16953E-04 10640   0.117E-02 0.117E-02
CGA: 149    -0.128306240305E+04   -0.10168E-04   -0.16682E-04 10640   0.116E-02 0.116E-02
CGA: 150    -0.128306241312E+04   -0.10072E-04   -0.16417E-04 10640   0.116E-02 0.116E-02
CGA: 151    -0.128306242310E+04   -0.99779E-05   -0.16159E-04 10640   0.115E-02 0.115E-02
CGA: 152    -0.128306243298E+04   -0.98846E-05   -0.15908E-04 10640   0.115E-02 0.115E-02
CGA: 153    -0.128306244277E+04   -0.97932E-05   -0.15663E-04 10640   0.114E-02 0.114E-02
CGA: 154    -0.128306245248E+04   -0.97027E-05   -0.15423E-04 10640   0.114E-02 0.114E-02
CGA: 155    -0.128306246209E+04   -0.96121E-05   -0.15190E-04 10640   0.113E-02 0.113E-02
CGA: 156    -0.128306247161E+04   -0.95251E-05   -0.14962E-04 10640   0.113E-02 0.113E-02
CGA: 157    -0.128306248105E+04   -0.94377E-05   -0.14739E-04 10640   0.112E-02 0.112E-02
CGA: 158    -0.128306249040E+04   -0.93516E-05   -0.14522E-04 10640   0.112E-02 0.112E-02
CGA: 159    -0.128306249967E+04   -0.92670E-05   -0.14310E-04 10640   0.111E-02 0.111E-02
CGA: 160    -0.128306250885E+04   -0.91844E-05   -0.14104E-04 10640   0.111E-02 0.111E-02
CGA: 161    -0.128306251796E+04   -0.91019E-05   -0.13901E-04 10640   0.110E-02 0.111E-02
CGA: 162    -0.128306252698E+04   -0.90203E-05   -0.13704E-04 10640   0.110E-02 0.110E-02
CGA: 163    -0.128306253592E+04   -0.89403E-05   -0.13510E-04 10640   0.109E-02 0.110E-02
CGA: 164    -0.128306254478E+04   -0.88620E-05   -0.13322E-04 10640   0.109E-02 0.109E-02
CGA: 165    -0.128306255356E+04   -0.87851E-05   -0.13138E-04 10640   0.109E-02 0.109E-02
CGA: 166    -0.128306256227E+04   -0.87080E-05   -0.12958E-04 10640   0.108E-02 0.108E-02
CGA: 167    -0.128306257090E+04   -0.86321E-05   -0.12782E-04 10640   0.108E-02 0.108E-02
CGA: 168    -0.128306257946E+04   -0.85590E-05   -0.12611E-04 10640   0.107E-02 0.108E-02
CGA: 169    -0.128306258795E+04   -0.84853E-05   -0.12442E-04 10640   0.107E-02 0.107E-02
CGA: 170    -0.128306259636E+04   -0.84126E-05   -0.12277E-04 10640   0.107E-02 0.107E-02
CGA: 171    -0.128306260470E+04   -0.83423E-05   -0.12117E-04 10640   0.106E-02 0.106E-02
CGA: 172    -0.128306261298E+04   -0.82719E-05   -0.11960E-04 10640   0.106E-02 0.106E-02
CGA: 173    -0.128306262118E+04   -0.82033E-05   -0.11806E-04 10640   0.106E-02 0.106E-02
CGA: 174    -0.128306262931E+04   -0.81358E-05   -0.11656E-04 10640   0.105E-02 0.105E-02
CGA: 175    -0.128306263738E+04   -0.80676E-05   -0.11508E-04 10640   0.105E-02 0.105E-02
CGA: 176    -0.128306264538E+04   -0.80031E-05   -0.11365E-04 10640   0.104E-02 0.105E-02
CGA: 177    -0.128306265332E+04   -0.79371E-05   -0.11223E-04 10640   0.104E-02 0.104E-02
CGA: 178    -0.128306266120E+04   -0.78732E-05   -0.11085E-04 10640   0.104E-02 0.104E-02
CGA: 179    -0.128306266901E+04   -0.78100E-05   -0.10950E-04 10640   0.103E-02 0.104E-02
CGA: 180    -0.128306267675E+04   -0.77481E-05   -0.10818E-04 10640   0.103E-02 0.103E-02
CGA: 181    -0.128306268444E+04   -0.76869E-05   -0.10689E-04 10640   0.103E-02 0.103E-02
CGA: 182    -0.128306269207E+04   -0.76268E-05   -0.10562E-04 10640   0.102E-02 0.103E-02
CGA: 183    -0.128306269963E+04   -0.75676E-05   -0.10438E-04 10640   0.102E-02 0.102E-02
CGA: 184    -0.128306270714E+04   -0.75092E-05   -0.10317E-04 10640   0.102E-02 0.102E-02
CGA: 185    -0.128306271459E+04   -0.74507E-05   -0.10198E-04 10640   0.101E-02 0.102E-02
CGA: 186    -0.128306272199E+04   -0.73950E-05   -0.10082E-04 10640   0.101E-02 0.101E-02
   1 F= -.12830627E+04 E0= -.12830627E+04  d E =-.128306E+04  mag=    47.0000
       N       E                     dE             d eps       ncg     rms          ort
SDA:   1    -0.128306312188E+04   -0.40728E-03    0.00000E+00 10640   0.593E-02 0.000E+00
CGA:   2    -0.128306385804E+04   -0.73616E-03   -0.61762E-03 10640   0.286E-02 0.382E-02
CGA:   3    -0.128306427840E+04   -0.42036E-03   -0.26217E-03 10640   0.192E-02 0.228E-02
CGA:   4    -0.128306452474E+04   -0.24634E-03   -0.15425E-03 10640   0.151E-02 0.169E-02
CGA:   5    -0.128306470372E+04   -0.17898E-03   -0.11441E-03 10640   0.125E-02 0.137E-02
CGA:   6    -0.128306484420E+04   -0.14048E-03   -0.91698E-04 10640   0.108E-02 0.116E-02
CGA:   7    -0.128306496019E+04   -0.11599E-03   -0.77165E-04 10640   0.949E-03 0.101E-02
CGA:   8    -0.128306505990E+04   -0.99711E-04   -0.67412E-04 10640   0.853E-03 0.897E-03
CGA:   9    -0.128306514864E+04   -0.88741E-04   -0.60755E-04 10640   0.778E-03 0.813E-03
CGA:  10    -0.128306523004E+04   -0.81408E-04   -0.56228E-04 10640   0.720E-03 0.747E-03
CGA:  11    -0.128306530677E+04   -0.76721E-04   -0.53255E-04 10640   0.673E-03 0.695E-03
CGA:  12    -0.128306538084E+04   -0.74077E-04   -0.51485E-04 10640   0.635E-03 0.653E-03
CGA:  13    -0.128306545390E+04   -0.73062E-04   -0.50674E-04 10640   0.603E-03 0.618E-03
CGA:  14    -0.128306552735E+04   -0.73451E-04   -0.50686E-04 10640   0.576E-03 0.589E-03
CGA:  15    -0.128306560246E+04   -0.75110E-04   -0.51438E-04 10640   0.553E-03 0.564E-03
CGA:  16    -0.128306568043E+04   -0.77969E-04   -0.52883E-04 10640   0.532E-03 0.542E-03
CGA:  17    -0.128306576248E+04   -0.82042E-04   -0.55020E-04 10640   0.513E-03 0.522E-03
CGA:  18    -0.128306584984E+04   -0.87364E-04   -0.57862E-04 10640   0.495E-03 0.504E-03
CGA:  19    -0.128306594390E+04   -0.94063E-04   -0.61470E-04 10640   0.478E-03 0.487E-03
CGA:  20    -0.128306604621E+04   -0.10231E-03   -0.65932E-04 10640   0.461E-03 0.469E-03
CGA:  21    -0.128306615858E+04   -0.11236E-03   -0.71377E-04 10640   0.443E-03 0.452E-03
CGA:  22    -0.128306628320E+04   -0.12463E-03   -0.78020E-04 10640   0.424E-03 0.434E-03
CGA:  23    -0.128306642290E+04   -0.13970E-03   -0.86166E-04 10640   0.404E-03 0.414E-03
CGA:  24    -0.128306658142E+04   -0.15852E-03   -0.96311E-04 10640   0.382E-03 0.393E-03
CGA:  25    -0.128306676406E+04   -0.18264E-03   -0.10927E-03 10640   0.358E-03 0.370E-03
CGA:  26    -0.128306697879E+04   -0.21473E-03   -0.12648E-03 10640   0.330E-03 0.344E-03
CGA:  27    -0.128306723867E+04   -0.25988E-03   -0.15065E-03 10640   0.298E-03 0.314E-03
CGA:  28    -0.128306756733E+04   -0.32866E-03   -0.18763E-03 10640   0.259E-03 0.278E-03
CGA:  29    -0.128306802489E+04   -0.45757E-03   -0.22473E-02 10640   0.208E-03 0.232E-03
CGA:  30    -0.128306869223E+04   -0.66734E-03   -0.17956E-02 10640   0.139E-03 0.169E-03
CGA:  31    -0.128306948136E+04   -0.78913E-03   -0.10219E-02 10640   0.127E-03 0.926E-04
CGA:  32    -0.128306949443E+04   -0.13069E-04   -0.26463E-04 10640   0.105E-03 0.184E-04
CGA:  33    -0.128306966751E+04   -0.17307E-03   -0.17846E-03 10640   0.125E-02-0.124E-04
CGA:  34    -0.128306995266E+04   -0.28515E-03   -0.30161E-03 10640   0.110E-02-0.290E-05
CGA:  35    -0.128307006664E+04   -0.11398E-03   -0.15160E-03 10640   0.465E-03 0.700E-05
CGA:  36    -0.128307008198E+04   -0.15340E-04   -0.57211E-04 10640   0.278E-03-0.375E-05
CGA:  37    -0.128306966344E+04    0.41853E-03   -0.27664E-04 10640   0.203E-02 0.975E-04
CGA:  38    -0.128303738752E+04    0.32276E-01   -0.51712E-04 10640   0.149E+00 0.231E-01
CGA:  39    -0.128301429714E+04    0.23090E-01   -0.43923E-01 10640   0.230E+00 0.444E-01
CGA:  40    -0.128275845676E+04    0.25584E+00   -0.53957E-01 10640   0.105E+01 0.186E+00
CGA:  41    -0.128269821553E+04    0.60241E-01   -0.32002E+00 10640   0.116E+01 0.319E+00
CGA:  42    -0.128221419533E+04    0.48402E+00   -0.34209E+00 10640   0.234E+01 0.112E+01
CGA:  43    -0.128278563777E+04   -0.57144E+00   -0.88977E+00 10640   0.608E+00 0.416E+00
CGA:  44    -0.128286137471E+04   -0.75737E-01   -0.21489E+00 10640   0.606E+00 0.207E+00
CGA:  45    -0.128256393881E+04    0.29744E+00   -0.14902E+00 10640   0.110E+01 0.572E+00
CGA:  46    -0.128281979989E+04   -0.25586E+00   -0.40131E+00 10640   0.458E+00 0.324E+00
CGA:  47    -0.128296669262E+04   -0.14689E+00   -0.19531E+00 10640   0.257E+00 0.123E+00
CGA:  48    -0.128301262225E+04   -0.45930E-01   -0.64309E-01 10640   0.183E+00 0.303E-01
CGA:  49    -0.128302602657E+04   -0.13404E-01   -0.50402E-01 10640   0.853E-01 0.904E-01
CGA:  50    -0.128304806159E+04   -0.22035E-01   -0.33145E-01 10640   0.750E-01-0.979E-02
CGA:  51    -0.128305032132E+04   -0.22597E-02   -0.10309E-01 10640   0.260E-01-0.111E-01
CGA:  52    -0.128305962682E+04   -0.93055E-02   -0.87545E-02 10640   0.370E-01-0.140E-02
CGA:  53    -0.128306390416E+04   -0.42773E-02   -0.40115E-02 10640   0.806E-02 0.281E-02
CGA:  54    -0.128306519901E+04   -0.12948E-02   -0.13269E-02 10640   0.643E-02 0.284E-03
CGA:  55    -0.128306650244E+04   -0.13034E-02   -0.14520E-02 10640   0.533E-02-0.108E-03
CGA:  56    -0.128306720584E+04   -0.70340E-03   -0.77780E-03 10640   0.220E-02-0.116E-03
CGA:  57    -0.128306754434E+04   -0.33850E-03   -0.39019E-03 10640   0.242E-02 0.259E-03
CGA:  58    -0.128306844470E+04   -0.90036E-03   -0.93438E-03 10640   0.279E-02 0.534E-03
CGA:  59    -0.128306899041E+04   -0.54571E-03   -0.51141E-03 10640   0.121E-02 0.440E-04
CGA:  60    -0.128306938020E+04   -0.38979E-03   -0.36961E-03 10640   0.153E-02-0.103E-03
CGA:  61    -0.128306949591E+04   -0.11571E-03   -0.16258E-03 10640   0.782E-03 0.318E-03
CGA:  62    -0.128306953446E+04   -0.38546E-04   -0.87805E-04 10640   0.403E-03 0.209E-03
CGA:  63    -0.128306960331E+04   -0.68855E-04   -0.82831E-04 10640   0.564E-03 0.869E-04
CGA:  64    -0.128306974102E+04   -0.13770E-03   -0.11460E-03 10640   0.474E-03-0.565E-04
CGA:  65    -0.128306979111E+04   -0.50097E-04   -0.34780E-04 10640   0.244E-03-0.267E-04
CGA:  66    -0.128306980910E+04   -0.17988E-04   -0.19315E-04 10640   0.208E-03 0.134E-04
CGA:  67    -0.128306982030E+04   -0.11195E-04   -0.21633E-04 10640   0.255E-03 0.535E-04
CGA:  68    -0.128306984139E+04   -0.21089E-04   -0.34129E-04 10640   0.258E-03 0.790E-04
CGA:  69    -0.128306987472E+04   -0.33337E-04   -0.34688E-04 10640   0.186E-03 0.285E-04
CGA:  70    -0.128306990916E+04   -0.34435E-04   -0.24173E-04 10640   0.175E-03-0.418E-04
CGA:  71    -0.128306992967E+04   -0.20515E-04   -0.13066E-04 10640   0.203E-03-0.246E-04
CGA:  72    -0.128306994171E+04   -0.12036E-04   -0.11762E-04 10640   0.174E-03 0.147E-04
CGA:  73    -0.128306994700E+04   -0.52904E-05   -0.10730E-04 10640   0.123E-03 0.369E-04
   2 F= -.12830699E+04 E0= -.12830699E+04  d E =-.722501E-02  mag=    47.0000
       N       E                     dE             d eps       ncg     rms          ort
SDA:   1    -0.128306615489E+04    0.37868E-02    0.00000E+00 10640   0.208E-01 0.000E+00
CGA:   2    -0.128306989405E+04   -0.37392E-02   -0.37697E-02 10640   0.736E-02 0.482E-03
CGA:   3    -0.128307176475E+04   -0.18707E-02   -0.18715E-02 10640   0.268E-02-0.132E-03
CGA:   4    -0.128307208632E+04   -0.32157E-03   -0.35135E-03 10640   0.339E-03 0.275E-03
CGA:   5    -0.128307217982E+04   -0.93494E-04   -0.94987E-04 10640   0.166E-03-0.885E-04
CGA:   6    -0.128307220727E+04   -0.27448E-04   -0.26443E-04 10640   0.861E-04-0.444E-04
CGA:   7    -0.128307221167E+04   -0.44052E-05   -0.68911E-05 10640   0.297E-04 0.195E-04
   3 F= -.12830722E+04 E0= -.12830722E+04  d E =-.226467E-02  mag=    47.0000
       N       E                     dE             d eps       ncg     rms          ort
SDA:   1    -0.126770378807E+04    0.15368E+02    0.00000E+00 10640   0.496E+02 0.000E+00
CGA:   2    -0.127734722379E+04   -0.96434E+01   -0.96438E+01 10640   0.180E+02 0.295E-01
CGA:   3    -0.128189554421E+04   -0.45483E+01   -0.45456E+01 10640   0.500E+01 0.562E-01
CGA:   4    -0.128265693947E+04   -0.76140E+00   -0.76112E+00 10640   0.848E+00 0.283E-01
CGA:   5    -0.128281388727E+04   -0.15695E+00   -0.15692E+00 10640   0.266E+00-0.419E-02
CGA:   6    -0.128285912598E+04   -0.45239E-01   -0.45217E-01 10640   0.845E-01 0.860E-03
CGA:   7    -0.128287651608E+04   -0.17390E-01   -0.17388E-01 10640   0.232E-01-0.112E-03
CGA:   8    -0.128288177078E+04   -0.52547E-02   -0.52805E-02 10640   0.119E-01-0.196E-02
CGA:   9    -0.128288391768E+04   -0.21469E-02   -0.21634E-02 10640   0.450E-02 0.965E-03
CGA:  10    -0.128288543645E+04   -0.15188E-02   -0.15140E-02 10640   0.257E-02 0.509E-04
CGA:  11    -0.128288626946E+04   -0.83301E-03   -0.97707E-03 10640   0.430E-02-0.923E-03
CGA:  12    -0.128288662436E+04   -0.35490E-03   -0.37603E-03 10640   0.212E-02 0.229E-03
CGA:  13    -0.128288686674E+04   -0.24238E-03   -0.28425E-03 10640   0.172E-02 0.437E-03
CGA:  14    -0.128288734159E+04   -0.47485E-03   -0.47262E-03 10640   0.160E-02 0.218E-03
CGA:  15    -0.128288774430E+04   -0.40271E-03   -0.40510E-03 10640   0.233E-02-0.401E-03
CGA:  16    -0.128288804069E+04   -0.29639E-03   -0.30374E-03 10640   0.267E-02 0.139E-03
CGA:  17    -0.128288832025E+04   -0.27956E-03   -0.34008E-03 10640   0.175E-02 0.607E-03
CGA:  18    -0.128288861641E+04   -0.29616E-03   -0.32294E-03 10640   0.136E-02 0.421E-03
CGA:  19    -0.128288898417E+04   -0.36776E-03   -0.37312E-03 10640   0.164E-02-0.435E-03
CGA:  20    -0.128288915891E+04   -0.17474E-03   -0.15379E-03 10640   0.129E-02-0.305E-03
CGA:  21    -0.128288924933E+04   -0.90422E-04   -0.98917E-04 10640   0.927E-03 0.717E-04
CGA:  22    -0.128288935180E+04   -0.10248E-03   -0.11843E-03 10640   0.903E-03 0.196E-03
CGA:  23    -0.128288952839E+04   -0.17659E-03   -0.17481E-03 10640   0.709E-03-0.547E-04
CGA:  24    -0.128288965244E+04   -0.12405E-03   -0.16105E-03 10640   0.105E-02-0.792E-03
CGA:  25    -0.128288975625E+04   -0.10380E-03   -0.12434E-03 10640   0.296E-03 0.265E-03
CGA:  26    -0.128288987035E+04   -0.11410E-03   -0.12345E-03 10640   0.213E-03-0.664E-04
CGA:  27    -0.128288994137E+04   -0.71020E-04    0.22350E-03 10640   0.137E-03-0.684E-04
CGA:  28    -0.128288996909E+04   -0.27717E-04   -0.28444E-04 10640   0.160E-03-0.709E-05
CGA:  29    -0.128288999709E+04   -0.28001E-04   -0.28298E-04 10640   0.580E-04 0.159E-04
CGA:  30    -0.128289003515E+04   -0.38058E-04    0.14125E-04 10640   0.446E-04 0.551E-06
CGA:  31    -0.128289005780E+04   -0.22654E-04    0.19879E-04 10640   0.302E-04 0.194E-04
CGA:  32    -0.128289006134E+04   -0.35445E-05   -0.51797E-05 10640   0.131E-04 0.192E-04
   4 F= -.12828901E+04 E0= -.12828900E+04  d E =0.182150E+00  mag=    47.0000
       N       E                     dE             d eps       ncg     rms          ort
SDA:   1    -0.127711427575E+04    0.57758E+01    0.00000E+00 10640   0.194E+02 0.000E+00
CGA:   2    -0.128089039193E+04   -0.37761E+01   -0.37762E+01 10640   0.701E+01 0.558E-02
CGA:   3    -0.128268181231E+04   -0.17914E+01   -0.17913E+01 10640   0.189E+01-0.301E-03
CGA:   4    -0.128297714364E+04   -0.29533E+00   -0.29528E+00 10640   0.305E+00-0.315E-02
CGA:   5    -0.128303632761E+04   -0.59184E-01   -0.59199E-01 10640   0.840E-01 0.325E-02
CGA:   6    -0.128305260840E+04   -0.16281E-01   -0.16267E-01 10640   0.326E-01-0.166E-02
CGA:   7    -0.128305835275E+04   -0.57443E-02   -0.57491E-02 10640   0.867E-02 0.320E-03
CGA:   8    -0.128306035560E+04   -0.20029E-02   -0.20250E-02 10640   0.470E-02-0.671E-03
CGA:   9    -0.128306142876E+04   -0.10732E-02   -0.11454E-02 10640   0.368E-02-0.112E-02
CGA:  10    -0.128306210921E+04   -0.68045E-03   -0.70602E-03 10640   0.175E-02-0.528E-03
CGA:  11    -0.128306248680E+04   -0.37759E-03   -0.85299E-03 10640   0.389E-02-0.131E-02
CGA:  12    -0.128306299032E+04   -0.50351E-03   -0.51024E-03 10640   0.115E-02 0.797E-04
CGA:  13    -0.128306328204E+04   -0.29172E-03   -0.29350E-03 10640   0.552E-03-0.569E-04
CGA:  14    -0.128306347768E+04   -0.19564E-03   -0.23102E-03 10640   0.106E-02-0.161E-03
CGA:  15    -0.128306359892E+04   -0.12124E-03   -0.12966E-03 10640   0.495E-03 0.140E-03
CGA:  16    -0.128306368264E+04   -0.83720E-04   -0.90639E-04 10640   0.383E-03 0.102E-03
CGA:  17    -0.128306381272E+04   -0.13008E-03   -0.13067E-03 10640   0.400E-03-0.127E-04
CGA:  18    -0.128306388912E+04   -0.76407E-04   -0.77741E-04 10640   0.364E-03 0.459E-04
CGA:  19    -0.128306399336E+04   -0.10424E-03   -0.10194E-03 10640   0.460E-03 0.897E-04
CGA:  20    -0.128306415598E+04   -0.16262E-03   -0.16891E-03 10640   0.386E-03-0.105E-03
CGA:  21    -0.128306423651E+04   -0.80529E-04   -0.85101E-04 10640   0.402E-03-0.942E-04
CGA:  22    -0.128306427241E+04   -0.35903E-04   -0.43116E-04 10640   0.210E-03 0.723E-04
CGA:  23    -0.128306429416E+04   -0.21756E-04   -0.29077E-04 10640   0.986E-04 0.636E-04
CGA:  24    -0.128306432073E+04   -0.26562E-04   -0.26795E-04 10640   0.868E-04 0.137E-04
CGA:  25    -0.128306433392E+04   -0.13189E-04   -0.14166E-04 10640   0.396E-04 0.116E-04
CGA:  26    -0.128306433484E+04   -0.92157E-06   -0.40015E-05 10640   0.276E-04 0.236E-04
   5 F= -.12830643E+04 E0= -.12830643E+04  d E =-.174273E+00  mag=    47.0000
       N       E                     dE             d eps       ncg     rms          ort
SDA:   1    -0.128294746478E+04    0.11687E+00    0.00000E+00 10640   0.382E+00 0.000E+00
CGA:   2    -0.128302130708E+04   -0.73842E-01   -0.73855E-01 10640   0.135E+00 0.863E-03
CGA:   3    -0.128305692901E+04   -0.35622E-01   -0.35688E-01 10640   0.362E-01-0.126E-02
CGA:   4    -0.128306265559E+04   -0.57266E-02   -0.57062E-02 10640   0.562E-02-0.390E-03
CGA:   5    -0.128306382105E+04   -0.11655E-02   -0.11656E-02 10640   0.141E-02-0.842E-04
CGA:   6    -0.128306413368E+04   -0.31263E-03   -0.31386E-03 10640   0.584E-03-0.670E-04
CGA:   7    -0.128306421119E+04   -0.77511E-04   -0.80476E-04 10640   0.147E-03 0.465E-04
CGA:   8    -0.128306424101E+04   -0.29813E-04   -0.30235E-04 10640   0.507E-04 0.281E-04
CGA:   9    -0.128306409108E+04    0.14993E-03   -0.82214E-04 10640   0.138E-02-0.213E-03
CGA:  10    -0.128306423516E+04   -0.14408E-03   -0.16347E-03 10640   0.230E-03 0.785E-04
CGA:  11    -0.128306431276E+04   -0.77599E-04   -0.73430E-04 10640   0.111E-03-0.692E-04
CGA:  12    -0.128306432201E+04   -0.92495E-05   -0.11372E-04 10640   0.458E-04 0.101E-04
   6 F= -.12830643E+04 E0= -.12830643E+04  d E =0.128276E-04  mag=    47.0000
       N       E                     dE             d eps       ncg     rms          ort
SDA:   1    -0.128239902775E+04    0.66529E+00    0.00000E+00 10640   0.200E+01 0.000E+00
CGA:   2    -0.128280320082E+04   -0.40417E+00   -0.40442E+00 10640   0.765E+00 0.182E-02
CGA:   3    -0.128299579991E+04   -0.19260E+00   -0.19257E+00 10640   0.194E+00-0.494E-03
CGA:   4    -0.128302619130E+04   -0.30391E-01   -0.30458E-01 10640   0.329E-01 0.449E-03
CGA:   5    -0.128303251280E+04   -0.63215E-02   -0.62841E-02 10640   0.101E-01-0.270E-03
CGA:   6    -0.128303425817E+04   -0.17454E-02   -0.17267E-02 10640   0.362E-02-0.121E-03
CGA:   7    -0.128303495968E+04   -0.70151E-03   -0.70413E-03 10640   0.864E-03 0.290E-04
CGA:   8    -0.128303520920E+04   -0.24951E-03   -0.24676E-03 10640   0.566E-03-0.158E-03
CGA:   9    -0.128303528770E+04   -0.78503E-04   -0.83391E-04 10640   0.241E-03 0.419E-04
CGA:  10    -0.128303538044E+04   -0.92740E-04   -0.10902E-03 10640   0.303E-03-0.128E-03
CGA:  11    -0.128303545479E+04   -0.74349E-04   -0.69545E-04 10640   0.131E-03-0.680E-04
CGA:  12    -0.128303546959E+04   -0.14803E-04   -0.16589E-04 10640   0.637E-04 0.135E-04
CGA:  13    -0.128303549275E+04   -0.23157E-04   -0.23032E-04 10640   0.670E-04 0.300E-05
CGA:  14    -0.128303554949E+04   -0.56741E-04    0.26536E-04 10640   0.863E-04 0.406E-05
CGA:  15    -0.128303561590E+04   -0.66409E-04    0.54613E-04 10640   0.753E-04 0.301E-04
CGA:  16    -0.128303563777E+04   -0.21871E-04   -0.22660E-04 10640   0.532E-04 0.103E-04
CGA:  17    -0.128303568463E+04   -0.46855E-04    0.25463E-04 10640   0.324E-04 0.253E-04
CGA:  18    -0.128303572066E+04   -0.36036E-04    0.22206E-04 10640   0.400E-04 0.206E-05
CGA:  19    -0.128303573463E+04   -0.13966E-04   -0.14725E-04 10640   0.509E-04-0.146E-04
CGA:  20    -0.128303574389E+04   -0.92576E-05   -0.11255E-04 10640   0.725E-04-0.378E-04
CGA:  21    -0.128303576534E+04   -0.21456E-04   -0.21987E-04 10640   0.112E-03-0.567E-04
CGA:  22    -0.128303576783E+04   -0.24859E-05   -0.92412E-05 10640   0.124E-04 0.322E-04
   7 F= -.12830358E+04 E0= -.12830357E+04  d E =0.285542E-01  mag=    47.0000
       N       E                     dE             d eps       ncg     rms          ort
SDA:   1    -0.128268682067E+04    0.34894E+00    0.00000E+00 10640   0.949E+00 0.000E+00
CGA:   2    -0.128290409513E+04   -0.21727E+00   -0.21736E+00 10640   0.413E+00 0.212E-02
CGA:   3    -0.128299773403E+04   -0.93639E-01   -0.93632E-01 10640   0.950E-01-0.269E-03
CGA:   4    -0.128301199380E+04   -0.14260E-01   -0.14282E-01 10640   0.202E-01 0.355E-03
CGA:   5    -0.128301558400E+04   -0.35902E-02   -0.35443E-02 10640   0.611E-02-0.508E-03
CGA:   6    -0.128301666610E+04   -0.10821E-02   -0.10740E-02 10640   0.171E-02-0.966E-04
CGA:   7    -0.128301706016E+04   -0.39406E-03   -0.39274E-03 10640   0.508E-03-0.631E-04
CGA:   8    -0.128301716554E+04   -0.10539E-03   -0.10490E-03 10640   0.278E-03-0.119E-04
CGA:   9    -0.128301723860E+04   -0.73059E-04   -0.74673E-04 10640   0.220E-03-0.649E-04
CGA:  10    -0.128301724614E+04   -0.75328E-05   -0.94468E-04 10640   0.909E-03-0.282E-03
CGA:  11    -0.128301735651E+04   -0.11037E-03   -0.10121E-03 10640   0.178E-03-0.569E-04
CGA:  12    -0.128301739420E+04   -0.37690E-04   -0.38366E-04 10640   0.395E-04 0.226E-04
CGA:  13    -0.128301740799E+04   -0.13791E-04   -0.13229E-04 10640   0.220E-04 0.142E-04
CGA:  14    -0.128301742567E+04   -0.17682E-04    0.28340E-04 10640   0.146E-04 0.119E-04
CGA:  15    -0.128301742972E+04   -0.40419E-05   -0.40092E-05 10640   0.176E-04 0.225E-05
   8 F= -.12830174E+04 E0= -.12830174E+04  d E =0.183381E-01  mag=    47.0000
       N       E                     dE             d eps       ncg     rms          ort
SDA:   1    -0.126833760321E+04    0.14680E+02    0.00000E+00 10640   0.496E+02 0.000E+00
CGA:   2    -0.127749061744E+04   -0.91530E+01   -0.91557E+01 10640   0.169E+02 0.695E-01
CGA:   3    -0.128177542136E+04   -0.42848E+01   -0.42852E+01 10640   0.526E+01 0.702E-01
CGA:   4    -0.128256903015E+04   -0.79361E+00   -0.79212E+00 10640   0.900E+00 0.260E-01
CGA:   5    -0.128272657824E+04   -0.15755E+00   -0.15802E+00 10640   0.273E+00 0.804E-02
CGA:   6    -0.128277645892E+04   -0.49881E-01   -0.49883E-01 10640   0.852E-01 0.127E-03
CGA:   7    -0.128279427067E+04   -0.17812E-01   -0.17809E-01 10640   0.246E-01 0.799E-04
CGA:   8    -0.128279957876E+04   -0.53081E-02   -0.52802E-02 10640   0.113E-01-0.944E-03
CGA:   9    -0.128280215926E+04   -0.25805E-02   -0.25798E-02 10640   0.575E-02-0.147E-03
CGA:  10    -0.128280334484E+04   -0.11856E-02   -0.12162E-02 10640   0.241E-02 0.116E-02
CGA:  11    -0.128280406717E+04   -0.72233E-03   -0.71607E-03 10640   0.131E-02 0.762E-03
CGA:  12    -0.128280454121E+04   -0.47403E-03   -0.45895E-03 10640   0.954E-03 0.564E-03
CGA:  13    -0.128280496278E+04   -0.42157E-03   -0.39373E-03 10640   0.726E-03 0.586E-03
CGA:  14    -0.128280525010E+04   -0.28732E-03   -0.37121E-03 10640   0.247E-02-0.315E-03
CGA:  15    -0.128280538062E+04   -0.13051E-03   -0.17608E-03 10640   0.209E-02 0.342E-03
CGA:  16    -0.128280552697E+04   -0.14635E-03   -0.23149E-03 10640   0.114E-02 0.557E-03
CGA:  17    -0.128280577501E+04   -0.24804E-03   -0.27209E-03 10640   0.154E-02 0.427E-03
CGA:  18    -0.128280620522E+04   -0.43020E-03   -0.42867E-03 10640   0.119E-02-0.574E-04
CGA:  19    -0.128280643182E+04   -0.22661E-03   -0.23191E-03 10640   0.146E-02 0.129E-03
CGA:  20    -0.128280664561E+04   -0.21379E-03   -0.25737E-03 10640   0.109E-02 0.541E-03
CGA:  21    -0.128280683596E+04   -0.19035E-03   -0.22293E-03 10640   0.637E-03 0.380E-03
CGA:  22    -0.128280707549E+04   -0.23952E-03   -0.25726E-03 10640   0.102E-02-0.264E-03
CGA:  23    -0.128280715544E+04   -0.79955E-04   -0.73073E-04 10640   0.907E-03-0.774E-04
CGA:  24    -0.128280721749E+04   -0.62050E-04   -0.74555E-04 10640   0.484E-03 0.825E-04
CGA:  25    -0.128280726505E+04   -0.47563E-04   -0.57677E-04 10640   0.409E-03 0.869E-04
CGA:  26    -0.128280735825E+04   -0.93202E-04   -0.90967E-04 10640   0.420E-03-0.953E-04
CGA:  27    -0.128280742575E+04   -0.67493E-04   -0.52107E-04 10640   0.298E-03-0.308E-03
CGA:  28    -0.128280746005E+04   -0.34300E-04   -0.42903E-04 10640   0.101E-03 0.130E-03
CGA:  29    -0.128280747994E+04   -0.19894E-04   -0.22881E-04 10640   0.311E-04 0.597E-04
CGA:  30    -0.128280747654E+04    0.34041E-05   -0.29914E-04 10640   0.317E-03-0.439E-04
CGA:  31    -0.128280749625E+04   -0.19707E-04   -0.29698E-04 10640   0.290E-04 0.682E-04
CGA:  32    -0.128280749817E+04   -0.19243E-05   -0.36728E-05 10640   0.138E-04 0.134E-04
   9 F= -.12828075E+04 E0= -.12828075E+04  d E =0.209932E+00  mag=    47.0000
       N       E                     dE             d eps       ncg     rms          ort
SDA:   1    -0.127365523867E+04    0.91523E+01    0.00000E+00 10640   0.326E+02 0.000E+00
CGA:   2    -0.127954890481E+04   -0.58937E+01   -0.58933E+01 10640   0.111E+02 0.438E-01
CGA:   3    -0.128233587295E+04   -0.27870E+01   -0.27854E+01 10640   0.380E+01 0.323E-01
CGA:   4    -0.128288582130E+04   -0.54995E+00   -0.54787E+00 10640   0.648E+00 0.358E-02
CGA:   5    -0.128299682969E+04   -0.11101E+00   -0.11088E+00 10640   0.189E+00-0.133E-02
CGA:   6    -0.128303227338E+04   -0.35444E-01   -0.35370E-01 10640   0.553E-01-0.200E-02
CGA:   7    -0.128304379944E+04   -0.11526E-01   -0.11524E-01 10640   0.166E-01-0.221E-03
CGA:   8    -0.128304704539E+04   -0.32459E-02   -0.32479E-02 10640   0.666E-02 0.131E-03
CGA:   9    -0.128304896093E+04   -0.19155E-02   -0.20167E-02 10640   0.541E-02-0.121E-02
CGA:  10    -0.128305003332E+04   -0.10724E-02   -0.10986E-02 10640   0.361E-02-0.983E-03
CGA:  11    -0.128305030956E+04   -0.27625E-03   -0.16541E-02 10640   0.130E-01-0.409E-02
CGA:  12    -0.128305162869E+04   -0.13191E-02   -0.13831E-02 10640   0.236E-02 0.529E-03
CGA:  13    -0.128305221274E+04   -0.58405E-03   -0.58223E-03 10640   0.843E-03 0.398E-03
CGA:  14    -0.128305256505E+04   -0.35231E-03   -0.34758E-03 10640   0.111E-02 0.383E-04
CGA:  15    -0.128305279250E+04   -0.22745E-03   -0.23479E-03 10640   0.537E-03 0.200E-03
CGA:  16    -0.128305298198E+04   -0.18948E-03   -0.18981E-03 10640   0.721E-03-0.838E-05
CGA:  17    -0.128305320725E+04   -0.22527E-03   -0.29936E-03 10640   0.117E-02-0.420E-03
CGA:  18    -0.128305336989E+04   -0.16264E-03   -0.18628E-03 10640   0.452E-03 0.263E-03
CGA:  19    -0.128305354587E+04   -0.17598E-03   -0.17543E-03 10640   0.258E-03 0.672E-05
CGA:  20    -0.128305368390E+04   -0.13803E-03    0.52820E-03 10640   0.180E-03 0.128E-03
CGA:  21    -0.128305373027E+04   -0.46366E-04   -0.24577E-03 10640   0.125E-02-0.305E-03
CGA:  22    -0.128305398447E+04   -0.25421E-03   -0.23483E-03 10640   0.549E-03-0.205E-03
CGA:  23    -0.128305402843E+04   -0.43957E-04   -0.60294E-04 10640   0.122E-03 0.113E-03
CGA:  24    -0.128305402952E+04   -0.10871E-05   -0.14002E-04 10640   0.738E-04 0.739E-04
CGA:  25    -0.128305390815E+04    0.12137E-03   -0.71773E-04 10640   0.242E-02-0.174E-03
CGA:  26    -0.128305413927E+04   -0.23112E-03   -0.24659E-03 10640   0.225E-03 0.465E-04
CGA:  27    -0.128305417059E+04   -0.31323E-04   -0.43124E-04 10640   0.373E-04 0.438E-04
CGA:  28    -0.128305393672E+04    0.23387E-03   -0.81945E-04 10640   0.295E-02-0.227E-03
CGA:  29    -0.128305420300E+04   -0.26628E-03   -0.32612E-03 10640   0.271E-03 0.168E-03
CGA:  30    -0.128305426978E+04   -0.66780E-04   -0.69704E-04 10640   0.612E-04 0.117E-04
CGA:  31    -0.128305404492E+04    0.22486E-03   -0.75898E-04 10640   0.403E-02-0.425E-03
CGA:  32    -0.128305430925E+04   -0.26433E-03   -0.38535E-03 10640   0.179E-03 0.333E-03
CGA:  33    -0.128305431418E+04   -0.49326E-05   -0.27398E-04 10640   0.730E-04 0.637E-04
CGA:  34    -0.128305434729E+04   -0.33104E-04   -0.28241E-04 10640   0.328E-04-0.253E-04
CGA:  35    -0.128305435551E+04   -0.82245E-05   -0.50495E-05 10640   0.443E-04-0.137E-04
CGA:  36    -0.128305436756E+04   -0.12048E-04   -0.28124E-04 10640   0.278E-03-0.263E-04
CGA:  37    -0.128305441902E+04   -0.51465E-04   -0.43687E-04 10640   0.436E-04-0.227E-04
CGA:  38    -0.128305441980E+04   -0.77277E-06   -0.56691E-05 10640   0.129E-04 0.149E-04
  10 F= -.12830544E+04 E0= -.12830544E+04  d E =-.246922E+00  mag=    47.0000
       N       E                     dE             d eps       ncg     rms          ort
SDA:   1    -0.128294660394E+04    0.10782E+00    0.00000E+00 10640   0.375E+00 0.000E+00
CGA:   2    -0.128302188931E+04   -0.75285E-01   -0.75164E-01 10640   0.142E+00-0.408E-03
CGA:   3    -0.128305772064E+04   -0.35831E-01   -0.35854E-01 10640   0.369E-01 0.678E-04
CGA:   4    -0.128306361791E+04   -0.58973E-02   -0.58211E-02 10640   0.576E-02-0.287E-03
CGA:   5    -0.128306472267E+04   -0.11048E-02   -0.11342E-02 10640   0.137E-02 0.145E-03
CGA:   6    -0.128306508720E+04   -0.36453E-03   -0.33787E-03 10640   0.646E-03-0.168E-03
CGA:   7    -0.128306516091E+04   -0.73712E-04   -0.86600E-04 10640   0.144E-03 0.556E-04
CGA:   8    -0.128306522073E+04   -0.59815E-04   -0.60616E-04 10640   0.193E-03-0.905E-04
CGA:   9    -0.128306526457E+04   -0.43841E-04   -0.37220E-04 10640   0.611E-04-0.356E-04
CGA:  10    -0.128306526953E+04   -0.49603E-05   -0.70031E-05 10640   0.219E-04 0.901E-05
CGA:  11    -0.128306523543E+04    0.34096E-04   -0.31026E-04 10640   0.528E-03-0.744E-04
CGA:  12    -0.128306535383E+04   -0.11839E-03   -0.92378E-04 10640   0.120E-03-0.114E-03
CGA:  13    -0.128306535406E+04   -0.23212E-06   -0.87408E-05 10640   0.244E-04 0.289E-04
  11 F= -.12830654E+04 E0= -.12830653E+04  d E =-.109343E-01  mag=    47.0000
       N       E                     dE             d eps       ncg     rms          ort
SDA:   1    -0.128260026483E+04    0.46509E+00    0.00000E+00 10640   0.149E+01 0.000E+00
CGA:   2    -0.128289903895E+04   -0.29877E+00   -0.29878E+00 10640   0.555E+00 0.128E-03
CGA:   3    -0.128304073012E+04   -0.14169E+00   -0.14169E+00 10640   0.141E+00-0.311E-03
CGA:   4    -0.128306332382E+04   -0.22594E-01   -0.22436E-01 10640   0.231E-01-0.811E-03
CGA:   5    -0.128306785875E+04   -0.45349E-02   -0.45499E-02 10640   0.595E-02 0.119E-03
CGA:   6    -0.128306912969E+04   -0.12709E-02   -0.12346E-02 10640   0.262E-02-0.286E-03
CGA:   7    -0.128306954552E+04   -0.41583E-03   -0.41784E-03 10640   0.671E-03 0.158E-04
CGA:   8    -0.128306970535E+04   -0.15982E-03   -0.15871E-03 10640   0.323E-03-0.131E-04
CGA:   9    -0.128306963354E+04    0.71805E-04   -0.24115E-03 10640   0.341E-02-0.696E-03
CGA:  10    -0.128306989070E+04   -0.25716E-03   -0.32292E-03 10640   0.342E-03 0.301E-03
CGA:  11    -0.128306997279E+04   -0.82084E-04   -0.84989E-04 10640   0.138E-03 0.308E-04
CGA:  12    -0.128306974832E+04    0.22446E-03   -0.13397E-03 10640   0.402E-02-0.624E-03
CGA:  13    -0.128307002881E+04   -0.28049E-03   -0.37405E-03 10640   0.254E-03 0.404E-03
CGA:  14    -0.128307007425E+04   -0.45437E-04   -0.54885E-04 10640   0.128E-03 0.685E-04
CGA:  15    -0.128307012652E+04   -0.52269E-04   -0.58722E-04 10640   0.315E-03-0.185E-03
CGA:  16    -0.128307013055E+04   -0.40332E-05   -0.26676E-04 10640   0.544E-04 0.938E-04
  12 F= -.12830701E+04 E0= -.12830701E+04  d E =-.477649E-02  mag=    47.0000
       N       E                     dE             d eps       ncg     rms          ort
SDA:   1    -0.128297002176E+04    0.10010E+00    0.00000E+00 10640   0.293E+00 0.000E+00
CGA:   2    -0.128303377461E+04   -0.63753E-01   -0.63859E-01 10640   0.121E+00 0.132E-02
CGA:   3    -0.128306276233E+04   -0.28988E-01   -0.28926E-01 10640   0.283E-01-0.995E-03
CGA:   4    -0.128306711076E+04   -0.43484E-02   -0.43633E-02 10640   0.542E-02 0.123E-03
CGA:   5    -0.128306819667E+04   -0.10859E-02   -0.10570E-02 10640   0.175E-02-0.292E-03
CGA:   6    -0.128306849107E+04   -0.29441E-03   -0.28570E-03 10640   0.582E-03-0.742E-04
CGA:   7    -0.128306859936E+04   -0.10828E-03   -0.10939E-03 10640   0.158E-03 0.137E-04
CGA:   8    -0.128306863689E+04   -0.37536E-04   -0.83343E-04 10640   0.627E-03-0.192E-03
CGA:   9    -0.128306868546E+04   -0.48571E-04   -0.61610E-04 10640   0.790E-04 0.708E-04
CGA:  10    -0.128306871212E+04   -0.26659E-04   -0.28027E-04 10640   0.689E-04-0.344E-04
CGA:  11    -0.128306873702E+04   -0.24893E-04    0.39018E-04 10640   0.871E-04-0.217E-04
CGA:  12    -0.128306875625E+04   -0.19230E-04   -0.22779E-04 10640   0.104E-03-0.357E-04
CGA:  13    -0.128306879972E+04   -0.43474E-04    0.36442E-04 10640   0.100E-03-0.746E-05
CGA:  14    -0.128306783582E+04    0.96390E-03   -0.52260E-03 10640   0.736E-02-0.730E-03
CGA:  15    -0.128306867022E+04   -0.83440E-03   -0.90305E-03 10640   0.124E-02 0.177E-03
CGA:  16    -0.128306890618E+04   -0.23596E-03   -0.23972E-03 10640   0.139E-03 0.133E-04
CGA:  17    -0.128306892622E+04   -0.20035E-04   -0.23816E-04 10640   0.670E-04 0.122E-04
CGA:  18    -0.128306892133E+04    0.48835E-05   -0.89364E-05 10640   0.231E-04 0.398E-04
  13 F= -.12830689E+04 E0= -.12830689E+04  d E =0.120921E-02  mag=    47.0000
       N       E                     dE             d eps       ncg     rms          ort
SDA:   1    -0.128201341997E+04    0.10555E+01    0.00000E+00 10640   0.310E+01 0.000E+00
CGA:   2    -0.128268215021E+04   -0.66873E+00   -0.66892E+00 10640   0.127E+01 0.166E-02
CGA:   3    -0.128299319177E+04   -0.31104E+00   -0.31087E+00 10640   0.284E+00-0.153E-02
CGA:   4    -0.128303769320E+04   -0.44501E-01   -0.44584E-01 10640   0.544E-01 0.413E-03
CGA:   5    -0.128304760168E+04   -0.99085E-02   -0.98517E-02 10640   0.171E-01-0.180E-03
CGA:   6    -0.128305060307E+04   -0.30014E-02   -0.29390E-02 10640   0.568E-02-0.265E-03
CGA:   7    -0.128305178181E+04   -0.11787E-02   -0.11723E-02 10640   0.144E-02-0.309E-04
CGA:   8    -0.128305219423E+04   -0.41241E-03   -0.39427E-03 10640   0.925E-03-0.189E-03
CGA:   9    -0.128305235272E+04   -0.15850E-03   -0.15863E-03 10640   0.459E-03 0.265E-05
CGA:  10    -0.128305253019E+04   -0.17746E-03   -0.19051E-03 10640   0.618E-03-0.233E-03
CGA:  11    -0.128305262600E+04   -0.95814E-04   -0.91175E-04 10640   0.214E-03-0.206E-04
CGA:  12    -0.128305268520E+04   -0.59202E-04   -0.53902E-04 10640   0.184E-03-0.591E-04
CGA:  13    -0.128305262897E+04    0.56234E-04   -0.14361E-03 10640   0.177E-02-0.275E-03
CGA:  14    -0.128305284901E+04   -0.22004E-03   -0.20705E-03 10640   0.385E-03-0.448E-04
CGA:  15    -0.128305292993E+04   -0.80920E-04   -0.86522E-04 10640   0.111E-03 0.408E-04
CGA:  16    -0.128305295305E+04   -0.23124E-04   -0.25195E-04 10640   0.436E-04 0.133E-04
CGA:  17    -0.128305297643E+04   -0.23379E-04   -0.33475E-04 10640   0.145E-03-0.306E-04
CGA:  18    -0.128305298486E+04   -0.84349E-05   -0.16506E-04 10640   0.285E-04 0.318E-04
CGA:  19    -0.128305299755E+04   -0.12681E-04   -0.12708E-04 10640   0.417E-04-0.338E-05
CGA:  20    -0.128305300507E+04   -0.75229E-05   -0.20533E-04 10640   0.214E-03-0.654E-04
CGA:  21    -0.128305302158E+04   -0.16510E-04   -0.27354E-04 10640   0.481E-04 0.456E-04
CGA:  22    -0.128305303755E+04   -0.15971E-04   -0.16286E-04 10640   0.194E-04 0.404E-05
CGA:  23    -0.128305304261E+04   -0.50566E-05   -0.11992E-04 10640   0.140E-03-0.320E-04
CGA:  24    -0.128305305026E+04   -0.76497E-05   -0.13942E-04 10640   0.135E-04 0.243E-04
  14 F= -.12830531E+04 E0= -.12830530E+04  d E =0.158711E-01  mag=    47.0000
       N       E                     dE             d eps       ncg     rms          ort
SDA:   1    -0.128139413283E+04    0.16589E+01    0.00000E+00 10640   0.478E+01 0.000E+00
CGA:   2    -0.128246250469E+04   -0.10684E+01   -0.10680E+01 10640   0.205E+01-0.900E-03
CGA:   3    -0.128294772594E+04   -0.48522E+00   -0.48572E+00 10640   0.412E+00 0.387E-02
CGA:   4    -0.128301440789E+04   -0.66682E-01   -0.66891E-01 10640   0.750E-01 0.135E-02
CGA:   5    -0.128302920762E+04   -0.14800E-01   -0.14897E-01 10640   0.206E-01 0.845E-03
CGA:   6    -0.128303288226E+04   -0.36746E-02   -0.36917E-02 10640   0.803E-02 0.147E-03
CGA:   7    -0.128303433158E+04   -0.14493E-02   -0.14475E-02 10640   0.205E-02-0.205E-05
CGA:   8    -0.128303481570E+04   -0.48413E-03   -0.48730E-03 10640   0.830E-03 0.505E-04
CGA:   9    -0.128303503536E+04   -0.21965E-03   -0.22003E-03 10640   0.505E-03 0.104E-04
CGA:  10    -0.128303507913E+04   -0.43776E-04   -0.73362E-04 10640   0.174E-03 0.192E-03
CGA:  11    -0.128303509166E+04   -0.12529E-04   -0.33115E-04 10640   0.105E-03 0.135E-03
CGA:  12    -0.128303512038E+04   -0.28715E-04   -0.28762E-04 10640   0.143E-03 0.616E-05
CGA:  13    -0.128303512544E+04   -0.50664E-05   -0.19261E-04 10640   0.617E-04 0.915E-04
  15 F= -.12830351E+04 E0= -.12830351E+04  d E =0.179248E-01  mag=    47.0000
       N       E                     dE             d eps       ncg     rms          ort
SDA:   1    -0.128235899403E+04    0.67613E+00    0.00000E+00 10640   0.216E+01 0.000E+00
CGA:   2    -0.128280119326E+04   -0.44220E+00   -0.44223E+00 10640   0.846E+00 0.834E-03
CGA:   3    -0.128301367320E+04   -0.21248E+00   -0.21247E+00 10640   0.203E+00-0.127E-02
CGA:   4    -0.128304580811E+04   -0.32135E-01   -0.32094E-01 10640   0.316E-01-0.354E-03
CGA:   5    -0.128305253656E+04   -0.67285E-02   -0.67265E-02 10640   0.751E-02-0.388E-04
CGA:   6    -0.128305407345E+04   -0.15369E-02   -0.15628E-02 10640   0.224E-02 0.570E-03
CGA:   7    -0.128305458803E+04   -0.51458E-03   -0.51036E-03 10640   0.891E-03-0.104E-03
CGA:   8    -0.128305469491E+04   -0.10689E-03   -0.13131E-03 10640   0.287E-03 0.257E-03
CGA:   9    -0.128305476563E+04   -0.70719E-04   -0.75969E-04 10640   0.180E-03 0.133E-03
CGA:  10    -0.128305484880E+04   -0.83171E-04   -0.87902E-04 10640   0.309E-03-0.529E-04
CGA:  11    -0.128305485484E+04   -0.60319E-05   -0.19893E-04 10640   0.256E-03 0.879E-04
CGA:  12    -0.128305485496E+04   -0.12290E-06   -0.23866E-04 10640   0.134E-03 0.142E-03
CGA:  13    -0.128305487871E+04   -0.23747E-04   -0.26318E-04 10640   0.524E-04 0.738E-04
CGA:  14    -0.128305488964E+04   -0.10936E-04   -0.11423E-04 10640   0.353E-04 0.409E-04
CGA:  15    -0.128305489188E+04   -0.22370E-05   -0.50542E-05 10640   0.310E-04 0.327E-04
  16 F= -.12830549E+04 E0= -.12830549E+04  d E =-.197664E-01  mag=    47.0000
       N       E                     dE             d eps       ncg     rms          ort
SDA:   1    -0.128204275099E+04    0.10121E+01    0.00000E+00 10640   0.294E+01 0.000E+00
CGA:   2    -0.128270380278E+04   -0.66105E+00   -0.66106E+00 10640   0.130E+01-0.420E-02
CGA:   3    -0.128300253751E+04   -0.29873E+00   -0.29872E+00 10640   0.302E+00 0.248E-02
CGA:   4    -0.128304665500E+04   -0.44117E-01   -0.44113E-01 10640   0.620E-01 0.397E-03
CGA:   5    -0.128305705949E+04   -0.10404E-01   -0.10412E-01 10640   0.185E-01 0.196E-03
CGA:   6    -0.128306027231E+04   -0.32128E-02   -0.32323E-02 10640   0.482E-02 0.485E-03
CGA:   7    -0.128306148106E+04   -0.12088E-02   -0.12171E-02 10640   0.158E-02-0.267E-03
CGA:   8    -0.128306173075E+04   -0.24969E-03   -0.25837E-03 10640   0.624E-03 0.201E-03
CGA:   9    -0.128306187383E+04   -0.14307E-03   -0.14447E-03 10640   0.248E-03 0.151E-03
CGA:  10    -0.128306197982E+04   -0.10599E-03   -0.10247E-03 10640   0.176E-03 0.298E-04
CGA:  11    -0.128306200215E+04   -0.22334E-04   -0.29646E-04 10640   0.917E-04 0.105E-03
CGA:  12    -0.128306202136E+04   -0.19207E-04   -0.19434E-04 10640   0.437E-04 0.495E-04
CGA:  13    -0.128306203760E+04   -0.16240E-04   -0.13396E-04 10640   0.390E-04 0.313E-04
CGA:  14    -0.128306203807E+04   -0.46794E-06   -0.40517E-05 10640   0.304E-04 0.306E-04
  17 F= -.12830620E+04 E0= -.12830620E+04  d E =-.714619E-02  mag=    47.0000
       N       E                     dE             d eps       ncg     rms          ort
SDA:   1    -0.128067817597E+04    0.23839E+01    0.00000E+00 10640   0.667E+01 0.000E+00
CGA:   2    -0.128225474837E+04   -0.15766E+01   -0.15768E+01 10640   0.299E+01-0.964E-02
CGA:   3    -0.128293009993E+04   -0.67535E+00   -0.67522E+00 10640   0.590E+00 0.125E-01
CGA:   4    -0.128302365927E+04   -0.93559E-01   -0.93731E-01 10640   0.125E+00 0.326E-02
CGA:   5    -0.128304565471E+04   -0.21995E-01   -0.22020E-01 10640   0.391E-01 0.778E-03
CGA:   6    -0.128305203733E+04   -0.63826E-02   -0.64039E-02 10640   0.115E-01 0.522E-03
CGA:   7    -0.128305470478E+04   -0.26675E-02   -0.26783E-02 10640   0.344E-02-0.507E-03
CGA:   8    -0.128305537776E+04   -0.67298E-03   -0.67379E-03 10640   0.154E-02 0.166E-03
CGA:   9    -0.128305567273E+04   -0.29497E-03   -0.30214E-03 10640   0.589E-03 0.316E-03
CGA:  10    -0.128305580776E+04   -0.13502E-03   -0.13882E-03 10640   0.241E-03 0.296E-03
CGA:  11    -0.128305586316E+04   -0.55408E-04   -0.53686E-04 10640   0.145E-03 0.115E-03
CGA:  12    -0.128305588424E+04   -0.21071E-04   -0.30932E-04 10640   0.931E-04 0.153E-03
CGA:  13    -0.128305589498E+04   -0.10739E-04   -0.14644E-04 10640   0.765E-04 0.809E-04
CGA:  14    -0.128305590103E+04   -0.60578E-05   -0.10657E-04 10640   0.691E-04 0.720E-04
  18 F= -.12830559E+04 E0= -.12830559E+04  d E =0.613703E-02  mag=    47.0000
       N       E                     dE             d eps       ncg     rms          ort
SDA:   1    -0.128064378832E+04    0.24121E+01    0.00000E+00 10640   0.761E+01 0.000E+00
CGA:   2    -0.128216268732E+04   -0.15189E+01   -0.15189E+01 10640   0.292E+01 0.483E-02
CGA:   3    -0.128288431314E+04   -0.72163E+00   -0.72137E+00 10640   0.802E+00 0.359E-02
CGA:   4    -0.128300555865E+04   -0.12125E+00   -0.12109E+00 10640   0.138E+00-0.300E-02
CGA:   5    -0.128302996015E+04   -0.24401E-01   -0.24388E-01 10640   0.467E-01-0.529E-03
CGA:   6    -0.128303778675E+04   -0.78266E-02   -0.78056E-02 10640   0.136E-01-0.670E-03
CGA:   7    -0.128304080693E+04   -0.30202E-02   -0.30597E-02 10640   0.438E-02-0.116E-02
CGA:   8    -0.128304147705E+04   -0.67012E-03   -0.68086E-03 10640   0.147E-02 0.418E-03
CGA:   9    -0.128304174505E+04   -0.26800E-03   -0.87084E-03 10640   0.481E-02-0.174E-02
CGA:  10    -0.128304228128E+04   -0.53623E-03   -0.56289E-03 10640   0.979E-03 0.297E-03
CGA:  11    -0.128304253082E+04   -0.24955E-03   -0.30067E-03 10640   0.884E-03-0.623E-03
CGA:  12    -0.128304265379E+04   -0.12297E-03   -0.11967E-03 10640   0.265E-03-0.413E-04
CGA:  13    -0.128304264567E+04    0.81231E-05   -0.13041E-03 10640   0.157E-02-0.449E-03
CGA:  14    -0.128304281454E+04   -0.16887E-03   -0.17064E-03 10640   0.271E-03 0.203E-04
CGA:  15    -0.128304277039E+04    0.44153E-04   -0.16758E-03 10640   0.151E-02-0.537E-03
CGA:  16    -0.128304295841E+04   -0.18802E-03   -0.19737E-03 10640   0.382E-03 0.911E-04
CGA:  17    -0.128304303943E+04   -0.81013E-04   -0.78812E-04 10640   0.682E-04-0.588E-04
CGA:  18    -0.128304306960E+04   -0.30170E-04    0.48466E-04 10640   0.523E-04 0.252E-04
CGA:  19    -0.128304312671E+04   -0.57111E-04    0.11258E-04 10640   0.307E-04 0.488E-04
CGA:  20    -0.128304314912E+04   -0.22418E-04    0.60072E-05 10640   0.249E-04 0.247E-04
CGA:  21    -0.128304316955E+04   -0.20423E-04    0.36775E-05 10640   0.234E-04 0.227E-04
CGA:  22    -0.128304318740E+04   -0.17856E-04    0.41097E-05 10640   0.231E-04 0.210E-04
CGA:  23    -0.128304320558E+04   -0.18175E-04    0.37470E-05 10640   0.249E-04 0.182E-04
CGA:  24    -0.128304321871E+04   -0.13137E-04    0.19223E-04 10640   0.322E-04 0.122E-04
CGA:  25    -0.128304325656E+04   -0.37844E-04    0.77481E-05 10640   0.188E-04 0.432E-04
CGA:  26    -0.128304326977E+04   -0.13213E-04    0.41212E-05 10640   0.210E-04 0.137E-04
CGA:  27    -0.128304322244E+04    0.47331E-04   -0.26440E-04 10640   0.132E-02-0.659E-04
CGA:  28    -0.128304335109E+04   -0.12865E-03   -0.11657E-03 10640   0.142E-04-0.346E-04
CGA:  29    -0.128304335262E+04   -0.15260E-05   -0.30996E-05 10640   0.129E-04 0.882E-05
  19 F= -.12830434E+04 E0= -.12830433E+04  d E =0.125484E-01  mag=    47.0000
       N       E                     dE             d eps       ncg     rms          ort
SDA:   1    -0.128223544938E+04    0.80790E+00    0.00000E+00 10640   0.257E+01 0.000E+00
CGA:   2    -0.128275696805E+04   -0.52152E+00   -0.52129E+00 10640   0.102E+01 0.396E-03
CGA:   3    -0.128299498731E+04   -0.23802E+00   -0.23828E+00 10640   0.326E+00 0.168E-02
CGA:   4    -0.128303974588E+04   -0.44759E-01   -0.44961E-01 10640   0.608E-01 0.679E-03
CGA:   5    -0.128304970938E+04   -0.99635E-02   -0.10101E-01 10640   0.162E-01 0.877E-03
CGA:   6    -0.128305290005E+04   -0.31907E-02   -0.31945E-02 10640   0.428E-02 0.295E-04
CGA:   7    -0.128305377613E+04   -0.87608E-03   -0.90528E-03 10640   0.136E-02 0.221E-03
CGA:   8    -0.128305411469E+04   -0.33856E-03   -0.31346E-03 10640   0.853E-03-0.206E-03
CGA:   9    -0.128305423003E+04   -0.11534E-03   -0.12501E-03 10640   0.281E-03 0.616E-04
CGA:  10    -0.128305426651E+04   -0.36485E-04   -0.54461E-04 10640   0.117E-03 0.124E-03
CGA:  11    -0.128305428497E+04   -0.18451E-04   -0.27839E-04 10640   0.694E-04 0.610E-04
CGA:  12    -0.128305428646E+04   -0.14914E-05   -0.82927E-05 10640   0.402E-04 0.355E-04
  20 F= -.12830543E+04 E0= -.12830543E+04  d E =-.109338E-01  mag=    47.0000
       N       E                     dE             d eps       ncg     rms          ort
SDA:   1    -0.128267141225E+04    0.38287E+00    0.00000E+00 10640   0.108E+01 0.000E+00
CGA:   2    -0.128291672721E+04   -0.24531E+00   -0.24536E+00 10640   0.462E+00 0.726E-03
CGA:   3    -0.128302526074E+04   -0.10853E+00   -0.10857E+00 10640   0.926E-01 0.365E-03
CGA:   4    -0.128304056290E+04   -0.15302E-01   -0.15300E-01 10640   0.173E-01-0.757E-05
CGA:   5    -0.128304401404E+04   -0.34511E-02   -0.34706E-02 10640   0.406E-02 0.246E-03
CGA:   6    -0.128304489365E+04   -0.87962E-03   -0.87373E-03 10640   0.167E-02-0.848E-04
CGA:   7    -0.128304512142E+04   -0.22776E-03   -0.24901E-03 10640   0.433E-03 0.176E-03
CGA:   8    -0.128304522757E+04   -0.10616E-03   -0.10777E-03 10640   0.207E-03 0.363E-04
CGA:   9    -0.128304527625E+04   -0.48676E-04   -0.49781E-04 10640   0.125E-03 0.240E-04
CGA:  10    -0.128304528744E+04   -0.11187E-04   -0.19639E-04 10640   0.513E-04 0.680E-04
CGA:  11    -0.128304529223E+04   -0.47973E-05   -0.79619E-05 10640   0.275E-04 0.304E-04
  21 F= -.12830453E+04 E0= -.12830453E+04  d E =0.899422E-02  mag=    47.0000
       N       E                     dE             d eps       ncg     rms          ort
SDA:   1    -0.128012962635E+04    0.29157E+01    0.00000E+00 10640   0.763E+01 0.000E+00
CGA:   2    -0.128209927088E+04   -0.19696E+01   -0.19697E+01 10640   0.360E+01-0.410E-02
CGA:   3    -0.128287033350E+04   -0.77106E+00   -0.77137E+00 10640   0.660E+00 0.748E-02
CGA:   4    -0.128297453189E+04   -0.10420E+00   -0.10426E+00 10640   0.148E+00 0.223E-02
CGA:   5    -0.128300056718E+04   -0.26035E-01   -0.26025E-01 10640   0.453E-01-0.312E-03
CGA:   6    -0.128300805886E+04   -0.74917E-02   -0.75127E-02 10640   0.134E-01 0.415E-03
CGA:   7    -0.128301108218E+04   -0.30233E-02   -0.30150E-02 10640   0.434E-02-0.621E-03
CGA:   8    -0.128301191902E+04   -0.83683E-03   -0.83152E-03 10640   0.205E-02-0.145E-03
CGA:   9    -0.128301236107E+04   -0.44205E-03   -0.44227E-03 10640   0.853E-03 0.241E-04
CGA:  10    -0.128301260375E+04   -0.24268E-03   -0.24499E-03 10640   0.519E-03-0.447E-04
CGA:  11    -0.128301269217E+04   -0.88422E-04   -0.90574E-04 10640   0.211E-03 0.420E-04
CGA:  12    -0.128301275055E+04   -0.58379E-04   -0.57789E-04 10640   0.101E-03 0.300E-04
CGA:  13    -0.128301274572E+04    0.48252E-05   -0.97222E-04 10640   0.102E-02-0.168E-03
CGA:  14    -0.128301280962E+04   -0.63901E-04   -0.94082E-04 10640   0.136E-03 0.180E-03
CGA:  15    -0.128301283127E+04   -0.21653E-04   -0.26372E-04 10640   0.862E-04 0.514E-04
CGA:  16    -0.128301286527E+04   -0.33999E-04   -0.42799E-04 10640   0.172E-03-0.807E-04
CGA:  17    -0.128301287122E+04   -0.59420E-05   -0.15516E-04 10640   0.455E-04 0.579E-04
  22 F= -.12830129E+04 E0= -.12830129E+04  d E =0.324210E-01  mag=    47.0000
       N       E                     dE             d eps       ncg     rms          ort
SDA:   1    -0.128161477915E+04    0.13981E+01    0.00000E+00 10640   0.396E+01 0.000E+00
CGA:   2    -0.128251872805E+04   -0.90395E+00   -0.90402E+00 10640   0.176E+01 0.513E-02
CGA:   3    -0.128293056960E+04   -0.41184E+00   -0.41181E+00 10640   0.376E+00-0.438E-02
CGA:   4    -0.128298708928E+04   -0.56520E-01   -0.56415E-01 10640   0.756E-01-0.579E-03
CGA:   5    -0.128300024381E+04   -0.13155E-01   -0.13125E-01 10640   0.243E-01-0.420E-03
CGA:   6    -0.128300448177E+04   -0.42380E-02   -0.41994E-02 10640   0.720E-02-0.608E-03
CGA:   7    -0.128300601570E+04   -0.15339E-02   -0.15301E-02 10640   0.215E-02-0.283E-03
CGA:   8    -0.128300639578E+04   -0.38007E-03   -0.38327E-03 10640   0.854E-03 0.751E-04
CGA:   9    -0.128300663133E+04   -0.23555E-03   -0.38559E-03 10640   0.192E-02-0.720E-03
CGA:  10    -0.128300682766E+04   -0.19633E-03   -0.20442E-03 10640   0.340E-03 0.680E-04
CGA:  11    -0.128300646217E+04    0.36549E-03   -0.31033E-03 10640   0.419E-02-0.104E-02
CGA:  12    -0.128300700090E+04   -0.53873E-03   -0.55321E-03 10640   0.105E-02 0.117E-03
CGA:  13    -0.128300714659E+04   -0.14569E-03   -0.15469E-03 10640   0.817E-04 0.798E-04
CGA:  14    -0.128300717377E+04   -0.27176E-04   -0.26987E-04 10640   0.319E-04 0.338E-05
CGA:  15    -0.128300722362E+04   -0.49845E-04    0.21802E-05 10640   0.329E-04 0.106E-04
CGA:  16    -0.128300727452E+04   -0.50909E-04    0.43784E-05 10640   0.247E-04 0.244E-04
CGA:  17    -0.128300727568E+04   -0.11592E-05   -0.30979E-05 10640   0.149E-04 0.150E-04
  23 F= -.12830073E+04 E0= -.12830072E+04  d E =0.559553E-02  mag=    47.0000
       N       E                     dE             d eps       ncg     rms          ort
SDA:   1    -0.128277151760E+04    0.23576E+00    0.00000E+00 10640   0.726E+00 0.000E+00
CGA:   2    -0.128293455779E+04   -0.16304E+00   -0.16296E+00 10640   0.312E+00-0.329E-02
CGA:   3    -0.128300562272E+04   -0.71065E-01   -0.71122E-01 10640   0.667E-01 0.307E-02
CGA:   4    -0.128301630145E+04   -0.10679E-01   -0.10724E-01 10640   0.128E-01 0.528E-03
CGA:   5    -0.128301853892E+04   -0.22375E-02   -0.22802E-02 10640   0.366E-02 0.672E-03
CGA:   6    -0.128301920192E+04   -0.66300E-03   -0.66224E-03 10640   0.129E-02-0.673E-05
CGA:   7    -0.128301948815E+04   -0.28624E-03   -0.28446E-03 10640   0.444E-03-0.120E-03
CGA:   8    -0.128301957856E+04   -0.90409E-04   -0.89870E-04 10640   0.238E-03-0.449E-04
CGA:   9    -0.128301962066E+04   -0.42093E-04   -0.42415E-04 10640   0.932E-04 0.936E-05
CGA:  10    -0.128301963661E+04   -0.15958E-04   -0.17818E-04 10640   0.337E-04 0.384E-04
CGA:  11    -0.128301963775E+04   -0.11380E-05   -0.52013E-05 10640   0.212E-04 0.337E-04
  24 F= -.12830196E+04 E0= -.12830196E+04  d E =-.123621E-01  mag=    47.0000
       N       E                     dE             d eps       ncg     rms          ort
SDA:   1    -0.128003318744E+04    0.29864E+01    0.00000E+00 10640   0.787E+01 0.000E+00
CGA:   2    -0.128205799271E+04   -0.20248E+01   -0.20251E+01 10640   0.374E+01-0.826E-02
CGA:   3    -0.128287275887E+04   -0.81477E+00   -0.81481E+00 10640   0.636E+00 0.875E-02
CGA:   4    -0.128297463632E+04   -0.10188E+00   -0.10188E+00 10640   0.145E+00 0.364E-03
CGA:   5    -0.128299958888E+04   -0.24953E-01   -0.25004E-01 10640   0.447E-01 0.117E-02
CGA:   6    -0.128300718885E+04   -0.76000E-02   -0.76009E-02 10640   0.131E-01 0.102E-03
CGA:   7    -0.128301032878E+04   -0.31399E-02   -0.31802E-02 10640   0.444E-02-0.146E-02
CGA:   8    -0.128301102891E+04   -0.70013E-03   -0.70840E-03 10640   0.177E-02 0.239E-03
CGA:   9    -0.128301154389E+04   -0.51498E-03   -0.54865E-03 10640   0.126E-02-0.415E-03
CGA:  10    -0.128301176588E+04   -0.22199E-03   -0.22483E-03 10640   0.730E-03-0.187E-03
CGA:  11    -0.128301191011E+04   -0.14423E-03   -0.14577E-03 10640   0.322E-03-0.955E-04
CGA:  12    -0.128301196432E+04   -0.54212E-04   -0.14189E-03 10640   0.847E-03-0.305E-03
CGA:  13    -0.128301204203E+04   -0.77710E-04   -0.90009E-04 10640   0.188E-03 0.984E-04
CGA:  14    -0.128301208524E+04   -0.43215E-04   -0.44141E-04 10640   0.664E-04 0.546E-04
CGA:  15    -0.128301195786E+04    0.12739E-03   -0.89460E-04 10640   0.221E-02-0.265E-03
CGA:  16    -0.128301211131E+04   -0.15345E-03   -0.19406E-03 10640   0.163E-03 0.236E-03
CGA:  17    -0.128301213182E+04   -0.20518E-04   -0.27507E-04 10640   0.867E-04 0.660E-04
CGA:  18    -0.128301215388E+04   -0.22056E-04   -0.58940E-04 10640   0.319E-03-0.159E-03
CGA:  19    -0.128301217237E+04   -0.18493E-04   -0.30889E-04 10640   0.735E-04 0.746E-04
CGA:  20    -0.128301218292E+04   -0.10549E-04   -0.14327E-04 10640   0.409E-04 0.385E-04
CGA:  21    -0.128301220993E+04   -0.27011E-04    0.16301E-04 10640   0.757E-04-0.208E-04
CGA:  22    -0.128301220977E+04    0.16768E-06   -0.49435E-05 10640   0.153E-04 0.276E-04
  25 F= -.12830122E+04 E0= -.12830122E+04  d E =0.742799E-02  mag=    47.0000
       N       E                     dE             d eps       ncg     rms          ort
SDA:   1    -0.126528942611E+04    0.17723E+02    0.00000E+00 10640   0.543E+02 0.000E+00
CGA:   2    -0.127646424569E+04   -0.11175E+02   -0.11175E+02 10640   0.212E+02 0.353E-01
CGA:   3    -0.128168650818E+04   -0.52223E+01   -0.52215E+01 10640   0.516E+01 0.188E-01
CGA:   4    -0.128250809628E+04   -0.82159E+00   -0.82231E+00 10640   0.831E+00 0.207E-01
CGA:   5    -0.128268707734E+04   -0.17898E+00   -0.17891E+00 10640   0.203E+00-0.580E-02
CGA:   6    -0.128272927100E+04   -0.42194E-01   -0.42313E-01 10640   0.625E-01 0.743E-02
CGA:   7    -0.128274354243E+04   -0.14271E-01   -0.14237E-01 10640   0.238E-01-0.509E-02
CGA:   8    -0.128274745140E+04   -0.39090E-02   -0.40336E-02 10640   0.777E-02 0.312E-02
CGA:   9    -0.128275009588E+04   -0.26445E-02   -0.26105E-02 10640   0.393E-02 0.469E-03
CGA:  10    -0.128275127421E+04   -0.11783E-02   -0.11711E-02 10640   0.283E-02 0.136E-03
CGA:  11    -0.128275170191E+04   -0.42771E-03   -0.48616E-03 10640   0.109E-02 0.907E-03
CGA:  12    -0.128275203608E+04   -0.33417E-03   -0.33271E-03 10640   0.865E-03 0.457E-03
CGA:  13    -0.128275237060E+04   -0.33452E-03   -0.32866E-03 10640   0.878E-03 0.139E-03
CGA:  14    -0.128275251692E+04   -0.14632E-03   -0.17909E-03 10640   0.719E-03 0.602E-03
CGA:  15    -0.128275263437E+04   -0.11745E-03   -0.13071E-03 10640   0.369E-03 0.295E-03
CGA:  16    -0.128275282188E+04   -0.18751E-03   -0.17485E-03 10640   0.287E-03 0.111E-03
CGA:  17    -0.128275301073E+04   -0.18885E-03   -0.15668E-03 10640   0.398E-03 0.165E-03
CGA:  18    -0.128275308895E+04   -0.78225E-04   -0.81504E-04 10640   0.298E-03 0.939E-04
CGA:  19    -0.128275322744E+04   -0.13849E-03   -0.17962E-03 10640   0.733E-03-0.167E-03
CGA:  20    -0.128275331165E+04   -0.84218E-04   -0.88498E-04 10640   0.262E-03 0.349E-04
CGA:  21    -0.128275341084E+04   -0.99189E-04   -0.93328E-04 10640   0.119E-03 0.596E-04
CGA:  22    -0.128275348684E+04   -0.75998E-04    0.38688E-03 10640   0.140E-03 0.799E-04
CGA:  23    -0.128275351052E+04   -0.23682E-04   -0.26099E-04 10640   0.125E-03 0.386E-04
CGA:  24    -0.128275354850E+04   -0.37977E-04   -0.28434E-04 10640   0.177E-02-0.177E-03
CGA:  25    -0.128275381391E+04   -0.26541E-03   -0.24967E-03 10640   0.645E-03-0.469E-04
CGA:  26    -0.128275395258E+04   -0.13868E-03   -0.14166E-03 10640   0.145E-03 0.150E-04
CGA:  27    -0.128275397550E+04   -0.22919E-04   -0.25615E-04 10640   0.399E-04 0.112E-04
CGA:  28    -0.128275401398E+04   -0.38475E-04    0.95296E-04 10640   0.361E-04 0.295E-04
CGA:  29    -0.128275404732E+04   -0.33340E-04    0.57471E-04 10640   0.849E-04 0.126E-05
CGA:  30    -0.128275413115E+04   -0.83833E-04    0.10922E-03 10640   0.104E-03 0.304E-04
CGA:  31    -0.128275418997E+04   -0.58813E-04   -0.59030E-04 10640   0.252E-03-0.280E-04
CGA:  32    -0.128275437938E+04   -0.18941E-03    0.14739E-03 10640   0.350E-03 0.380E-05
CGA:  33    -0.128275453645E+04   -0.15707E-03   -0.10377E-03 10640   0.447E-03-0.480E-03
CGA:  34    -0.128275456143E+04   -0.24982E-04   -0.44891E-04 10640   0.330E-04 0.675E-04
CGA:  35    -0.128275455861E+04    0.28233E-05   -0.29253E-05 10640   0.121E-04 0.185E-04
  26 F= -.12827546E+04 E0= -.12827545E+04  d E =0.257651E+00  mag=    47.0000
       N       E                     dE             d eps       ncg     rms          ort
SDA:   1    -0.127057559560E+04    0.12179E+02    0.00000E+00 10640   0.406E+02 0.000E+00
CGA:   2    -0.127846701357E+04   -0.78914E+01   -0.78976E+01 10640   0.147E+02 0.178E-01
CGA:   3    -0.128219057355E+04   -0.37236E+01   -0.37260E+01 10640   0.400E+01 0.921E-02
CGA:   4    -0.128281728874E+04   -0.62672E+00   -0.62725E+00 10640   0.608E+00 0.839E-02
CGA:   5    -0.128294329865E+04   -0.12601E+00   -0.12597E+00 10640   0.178E+00-0.319E-03
CGA:   6    -0.128297476774E+04   -0.31469E-01   -0.31392E-01 10640   0.680E-01-0.745E-05
CGA:   7    -0.128298728553E+04   -0.12518E-01   -0.12347E-01 10640   0.178E-01-0.122E-02
CGA:   8    -0.128299152086E+04   -0.42353E-02   -0.41852E-02 10640   0.757E-02-0.643E-03
CGA:   9    -0.128299354411E+04   -0.20232E-02   -0.19819E-02 10640   0.567E-02-0.102E-02
CGA:  10    -0.128299473216E+04   -0.11881E-02   -0.11110E-02 10640   0.287E-02-0.914E-03
CGA:  11    -0.128299554569E+04   -0.81352E-03   -0.88339E-03 10640   0.300E-02-0.114E-02
CGA:  12    -0.128299605975E+04   -0.51406E-03   -0.43683E-03 10640   0.230E-02-0.115E-02
CGA:  13    -0.128299611257E+04   -0.52824E-04   -0.96894E-03 10640   0.770E-02-0.244E-02
CGA:  14    -0.128299699459E+04   -0.88202E-03   -0.96664E-03 10640   0.210E-02 0.458E-03
CGA:  15    -0.128299743526E+04   -0.44067E-03   -0.47157E-03 10640   0.663E-03 0.301E-03
CGA:  16    -0.128299758147E+04   -0.14621E-03   -0.16876E-03 10640   0.377E-03 0.260E-03
CGA:  17    -0.128299761357E+04   -0.32096E-04   -0.77660E-04 10640   0.179E-03 0.290E-03
CGA:  18    -0.128299762997E+04   -0.16403E-04   -0.29831E-04 10640   0.113E-03 0.103E-03
CGA:  19    -0.128299763046E+04   -0.48410E-06   -0.14554E-04 10640   0.876E-04 0.871E-04
CGA:  20    -0.128299762935E+04    0.11011E-05   -0.11007E-04 10640   0.744E-04 0.771E-04
  27 F= -.12829976E+04 E0= -.12829976E+04  d E =-.243071E+00  mag=    47.0000
       N       E                     dE             d eps       ncg     rms          ort
SDA:   1    -0.128272445710E+04    0.27317E+00    0.00000E+00 10640   0.960E+00 0.000E+00
CGA:   2    -0.128290900790E+04   -0.18455E+00   -0.18467E+00 10640   0.348E+00 0.215E-02
CGA:   3    -0.128299678891E+04   -0.87781E-01   -0.87783E-01 10640   0.100E+00-0.174E-04
CGA:   4    -0.128301200446E+04   -0.15216E-01   -0.15342E-01 10640   0.140E-01 0.119E-02
CGA:   5    -0.128301500805E+04   -0.30036E-02   -0.29980E-02 10640   0.435E-02-0.118E-03
CGA:   6    -0.128301571981E+04   -0.71176E-03   -0.72738E-03 10640   0.147E-02 0.188E-03
CGA:   7    -0.128301596416E+04   -0.24436E-03   -0.25797E-03 10640   0.347E-03 0.169E-03
CGA:   8    -0.128301605494E+04   -0.90773E-04   -0.91103E-04 10640   0.149E-03 0.313E-04
CGA:   9    -0.128301605895E+04   -0.40175E-05   -0.17631E-04 10640   0.735E-04 0.996E-04
  28 F= -.12830161E+04 E0= -.12830160E+04  d E =-.184296E-01  mag=    47.0000
       N       E                     dE             d eps       ncg     rms          ort
SDA:   1    -0.128275639128E+04    0.25966E+00    0.00000E+00 10640   0.808E+00 0.000E+00
CGA:   2    -0.128292754153E+04   -0.17115E+00   -0.17118E+00 10640   0.327E+00 0.154E-02
CGA:   3    -0.128300585344E+04   -0.78312E-01   -0.78306E-01 10640   0.768E-01 0.612E-03
CGA:   4    -0.128301778995E+04   -0.11937E-01   -0.12039E-01 10640   0.126E-01 0.139E-02
CGA:   5    -0.128302055234E+04   -0.27624E-02   -0.27591E-02 10640   0.350E-02-0.238E-03
CGA:   6    -0.128302115446E+04   -0.60212E-03   -0.61038E-03 10640   0.119E-02 0.171E-03
CGA:   7    -0.128302138559E+04   -0.23113E-03   -0.23232E-03 10640   0.360E-03 0.330E-04
CGA:   8    -0.128302147924E+04   -0.93645E-04   -0.95410E-04 10640   0.253E-03-0.503E-04
CGA:   9    -0.128302149576E+04   -0.16521E-04   -0.25828E-04 10640   0.986E-04 0.880E-04
CGA:  10    -0.128302150240E+04   -0.66445E-05   -0.14119E-04 10640   0.607E-04 0.661E-04
CGA:  11    -0.128302152008E+04   -0.17671E-04   -0.20106E-04 10640   0.139E-03-0.207E-04
CGA:  12    -0.128302152193E+04   -0.18556E-05   -0.80930E-05 10640   0.974E-04 0.474E-04
  29 F= -.12830215E+04 E0= -.12830215E+04  d E =-.546298E-02  mag=    47.0000
       N       E                     dE             d eps       ncg     rms          ort
SDA:   1    -0.128272594473E+04    0.29558E+00    0.00000E+00 10640   0.846E+00 0.000E+00
CGA:   2    -0.128292086797E+04   -0.19492E+00   -0.19494E+00 10640   0.384E+00-0.530E-03
CGA:   3    -0.128300363840E+04   -0.82770E-01   -0.82752E-01 10640   0.105E+00 0.207E-02
CGA:   4    -0.128301782308E+04   -0.14185E-01   -0.14206E-01 10640   0.205E-01 0.372E-03
CGA:   5    -0.128302140469E+04   -0.35816E-02   -0.35928E-02 10640   0.495E-02 0.422E-03
CGA:   6    -0.128302246255E+04   -0.10579E-02   -0.10592E-02 10640   0.154E-02-0.168E-03
CGA:   7    -0.128302277740E+04   -0.31485E-03   -0.31506E-03 10640   0.564E-03-0.185E-04
CGA:   8    -0.128302288918E+04   -0.11177E-03   -0.11164E-03 10640   0.286E-03-0.534E-04
CGA:   9    -0.128302295215E+04   -0.62979E-04   -0.63618E-04 10640   0.147E-03-0.145E-04
CGA:  10    -0.128302299247E+04   -0.40311E-04   -0.41470E-04 10640   0.107E-03-0.125E-04
CGA:  11    -0.128302300970E+04   -0.17239E-04   -0.17830E-04 10640   0.436E-04 0.222E-04
CGA:  12    -0.128302303307E+04   -0.23362E-04   -0.27357E-04 10640   0.700E-04-0.133E-04
CGA:  13    -0.128302304248E+04   -0.94162E-05   -0.97188E-05 10640   0.623E-04 0.121E-04
CGA:  14    -0.128302305720E+04   -0.14718E-04   -0.15147E-04 10640   0.453E-04 0.277E-04
CGA:  15    -0.128302307306E+04   -0.15858E-04   -0.15653E-04 10640   0.349E-04 0.111E-04
CGA:  16    -0.128302308878E+04   -0.15722E-04   -0.15061E-04 10640   0.278E-04 0.445E-05
CGA:  17    -0.128302309157E+04   -0.27913E-05   -0.43662E-05 10640   0.181E-04 0.173E-04
  30 F= -.12830231E+04 E0= -.12830231E+04  d E =-.156964E-02  mag=    47.0000
       N       E                     dE             d eps       ncg     rms          ort
SDA:   1    -0.128216004697E+04    0.86304E+00    0.00000E+00 10640   0.230E+01 0.000E+00
CGA:   2    -0.128274918187E+04   -0.58913E+00   -0.58908E+00 10640   0.107E+01 0.184E-02
CGA:   3    -0.128298514685E+04   -0.23596E+00   -0.23595E+00 10640   0.183E+00-0.240E-02
CGA:   4    -0.128301577563E+04   -0.30629E-01   -0.30640E-01 10640   0.371E-01 0.227E-03
CGA:   5    -0.128302325421E+04   -0.74786E-02   -0.74698E-02 10640   0.929E-02-0.357E-03
CGA:   6    -0.128302508312E+04   -0.18289E-02   -0.18307E-02 10640   0.322E-02 0.830E-04
CGA:   7    -0.128302573202E+04   -0.64890E-03   -0.64597E-03 10640   0.103E-02-0.118E-03
CGA:   8    -0.128302597103E+04   -0.23902E-03   -0.24088E-03 10640   0.598E-03-0.853E-04
CGA:   9    -0.128302609223E+04   -0.12120E-03   -0.12111E-03 10640   0.345E-03-0.552E-04
CGA:  10    -0.128302613707E+04   -0.44842E-04   -0.15913E-03 10640   0.119E-02-0.400E-03
CGA:  11    -0.128302623547E+04   -0.98393E-04   -0.11318E-03 10640   0.154E-03 0.107E-03
CGA:  12    -0.128302627421E+04   -0.38744E-04   -0.38727E-04 10640   0.590E-04 0.193E-04
CGA:  13    -0.128302591213E+04    0.36208E-03   -0.19518E-03 10640   0.417E-02-0.367E-03
CGA:  14    -0.128302624484E+04   -0.33271E-03   -0.38738E-03 10640   0.269E-03 0.191E-03
CGA:  15    -0.128302631889E+04   -0.74046E-04   -0.76695E-04 10640   0.142E-03 0.207E-04
CGA:  16    -0.128302636728E+04   -0.48395E-04   -0.34310E-04 10640   0.106E-03-0.816E-04
CGA:  17    -0.128302636648E+04    0.80144E-06   -0.87887E-05 10640   0.188E-04 0.318E-04
  31 F= -.12830264E+04 E0= -.12830263E+04  d E =-.327491E-02  mag=    47.0000
       N       E                     dE             d eps       ncg     rms          ort
SDA:   1    -0.126733264768E+04    0.15694E+02    0.00000E+00 10640   0.467E+02 0.000E+00
CGA:   2    -0.127732403714E+04   -0.99914E+01   -0.10005E+02 10640   0.196E+02 0.538E-02
CGA:   3    -0.128182836980E+04   -0.45043E+01   -0.45001E+01 10640   0.519E+01 0.190E-01
CGA:   4    -0.128259128545E+04   -0.76292E+00   -0.76649E+00 10640   0.980E+00-0.134E-01
CGA:   5    -0.128275955715E+04   -0.16827E+00   -0.16810E+00 10640   0.298E+00 0.364E-02
CGA:   6    -0.128281272670E+04   -0.53170E-01   -0.53155E-01 10640   0.781E-01 0.137E-03
CGA:   7    -0.128283098445E+04   -0.18258E-01   -0.18069E-01 10640   0.248E-01-0.209E-02
CGA:   8    -0.128283600986E+04   -0.50254E-02   -0.49806E-02 10640   0.116E-01-0.371E-03
CGA:   9    -0.128283882631E+04   -0.28164E-02   -0.27511E-02 10640   0.644E-02-0.920E-03
CGA:  10    -0.128284044409E+04   -0.16178E-02   -0.15828E-02 10640   0.406E-02-0.877E-03
CGA:  11    -0.128284135898E+04   -0.91488E-03   -0.88117E-03 10640   0.239E-02-0.630E-03
CGA:  12    -0.128284203585E+04   -0.67688E-03   -0.81897E-03 10640   0.388E-02-0.137E-02
CGA:  13    -0.128284245211E+04   -0.41625E-03   -0.44050E-03 10640   0.101E-02 0.137E-03
CGA:  14    -0.128284278245E+04   -0.33034E-03   -0.32819E-03 10640   0.484E-03 0.117E-03
CGA:  15    -0.128284273630E+04    0.46145E-04   -0.64590E-03 10640   0.632E-02-0.777E-03
CGA:  16    -0.128284328444E+04   -0.54814E-03   -0.68215E-03 10640   0.649E-03 0.615E-03
CGA:  17    -0.128284345694E+04   -0.17250E-03   -0.18009E-03 10640   0.445E-03 0.969E-04
CGA:  18    -0.128284363805E+04   -0.18111E-03   -0.20685E-03 10640   0.955E-03-0.335E-03
CGA:  19    -0.128284368640E+04   -0.48348E-04   -0.10096E-03 10640   0.194E-03 0.237E-03
CGA:  20    -0.128284372523E+04   -0.38833E-04   -0.48294E-04 10640   0.160E-03 0.785E-04
CGA:  21    -0.128284371654E+04    0.86927E-05   -0.17109E-03 10640   0.169E-02-0.405E-03
CGA:  22    -0.128284384522E+04   -0.12868E-03   -0.20354E-03 10640   0.376E-03 0.353E-03
CGA:  23    -0.128284394349E+04   -0.98262E-04   -0.10514E-03 10640   0.138E-03 0.727E-04
CGA:  24    -0.128284303364E+04    0.90985E-03   -0.23293E-03 10640   0.102E-01-0.104E-02
CGA:  25    -0.128284387773E+04   -0.84409E-03   -0.10719E-02 10640   0.662E-03 0.948E-03
CGA:  26    -0.128284403398E+04   -0.15626E-03   -0.17443E-03 10640   0.323E-03 0.151E-03
CGA:  27    -0.128284417306E+04   -0.13908E-03   -0.12639E-03 10640   0.468E-03-0.339E-03
CGA:  28    -0.128284416986E+04    0.32092E-05   -0.39951E-04 10640   0.873E-04 0.162E-03
  32 F= -.12828442E+04 E0= -.12828442E+04  d E =0.182197E+00  mag=    47.0000
       N       E                     dE             d eps       ncg     rms          ort
SDA:   1    -0.127485931839E+04    0.79849E+01    0.00000E+00 10640   0.269E+02 0.000E+00
CGA:   2    -0.128003220559E+04   -0.51729E+01   -0.51692E+01 10640   0.989E+01 0.393E-01
[...]
CGA:  27    -0.128309648607E+04    0.16391E-06   -0.11719E-03 10640   0.545E-04 0.239E-03
  41 F= -.12830965E+04 E0= -.12830965E+04  d E =-.859840E-02  mag=    47.0000
       N       E                     dE             d eps       ncg     rms          ort
SDA:   1    -0.128093168044E+04    0.21648E+01    0.00000E+00 10640   0.589E+01 0.000E+00
CGA:   2    -0.128239274891E+04   -0.14611E+01   -0.14608E+01 10640   0.273E+01-0.203E-02
CGA:   3    -0.128300540680E+04   -0.61266E+00   -0.61333E+00 10640   0.488E+00 0.293E-02
CGA:   4    -0.128308332260E+04   -0.77916E-01   -0.77827E-01 10640   0.107E+00-0.150E-03
CGA:   5    -0.128310178104E+04   -0.18458E-01   -0.18629E-01 10640   0.327E-01 0.731E-03
CGA:   6    -0.128310738369E+04   -0.56027E-02   -0.55728E-02 10640   0.103E-01-0.347E-04
CGA:   7    -0.128310969887E+04   -0.23152E-02   -0.22270E-02 10640   0.295E-02-0.341E-03
CGA:   8    -0.128311024329E+04   -0.54442E-03   -0.57329E-03 10640   0.125E-02 0.120E-03
CGA:   9    -0.128311063745E+04   -0.39416E-03   -0.35693E-03 10640   0.892E-03-0.213E-03
CGA:  10    -0.128311076302E+04   -0.12557E-03   -0.13626E-03 10640   0.340E-03 0.438E-04
CGA:  11    -0.128311084668E+04   -0.83663E-04   -0.89233E-04 10640   0.137E-03 0.314E-04
CGA:  12    -0.128311058538E+04    0.26130E-03   -0.18389E-03 10640   0.392E-02-0.548E-03
CGA:  13    -0.128311082341E+04   -0.23803E-03   -0.39550E-03 10640   0.459E-03 0.483E-03
CGA:  14    -0.128311092953E+04   -0.10612E-03   -0.12104E-03 10640   0.187E-03 0.728E-04
CGA:  15    -0.128311102583E+04   -0.96301E-04   -0.74495E-04 10640   0.589E-03-0.253E-03
CGA:  16    -0.128311101551E+04    0.10319E-04   -0.46065E-04 10640   0.742E-04 0.166E-03
CGA:  17    -0.128311100551E+04    0.10006E-04   -0.64793E-05 10640   0.383E-04 0.486E-04
CGA:  18    -0.128311102194E+04   -0.16435E-04   -0.36667E-04 10640   0.137E-03-0.359E-04
CGA:  19    -0.128311101434E+04    0.76039E-05   -0.12640E-04 10640   0.442E-04 0.622E-04
  42 F= -.12831110E+04 E0= -.12831110E+04  d E =-.145283E-01  mag=    47.0000
       N       E                     dE             d eps       ncg     rms          ort
SDA:   1    -0.127211562519E+04    0.10995E+02    0.00000E+00 10640   0.339E+02 0.000E+00
CGA:   2    -0.127908094681E+04   -0.69653E+01   -0.69707E+01 10640   0.132E+02 0.187E-01
CGA:   3    -0.128230671818E+04   -0.32258E+01   -0.32268E+01 10640   0.329E+01-0.861E-02
CGA:   4    -0.128282660437E+04   -0.51989E+00   -0.52009E+00 10640   0.537E+00 0.427E-02
CGA:   5    -0.128293499523E+04   -0.10839E+00   -0.10821E+00 10640   0.163E+00-0.220E-02
CGA:   6    -0.128296184136E+04   -0.26846E-01   -0.26832E-01 10640   0.577E-01 0.748E-03
CGA:   7    -0.128297320723E+04   -0.11366E-01   -0.11266E-01 10640   0.146E-01-0.641E-03
CGA:   8    -0.128297703999E+04   -0.38328E-02   -0.37641E-02 10640   0.685E-02-0.901E-03
CGA:   9    -0.128297857997E+04   -0.15400E-02   -0.15134E-02 10640   0.408E-02-0.259E-03
CGA:  10    -0.128297963630E+04   -0.10563E-02   -0.99785E-03 10640   0.254E-02-0.787E-03
CGA:  11    -0.128298032862E+04   -0.69232E-03   -0.74824E-03 10640   0.348E-02-0.137E-02
CGA:  12    -0.128298067981E+04   -0.35119E-03   -0.37893E-03 10640   0.784E-03 0.142E-03
CGA:  13    -0.128298101386E+04   -0.33405E-03   -0.37357E-03 10640   0.777E-03-0.279E-03
CGA:  14    -0.128297667143E+04    0.43424E-02   -0.23472E-02 10640   0.347E-01-0.311E-02
CGA:  15    -0.128298053959E+04   -0.38682E-02   -0.41495E-02 10640   0.432E-02 0.158E-02
CGA:  16    -0.128298167617E+04   -0.11366E-02   -0.11874E-02 10640   0.282E-02 0.173E-03
CGA:  17    -0.128298228238E+04   -0.60621E-03   -0.57249E-03 10640   0.833E-03-0.924E-04
CGA:  18    -0.128298238184E+04   -0.99459E-04   -0.15606E-03 10640   0.300E-03 0.168E-03
CGA:  19    -0.128298243300E+04   -0.51163E-04   -0.78286E-04 10640   0.121E-03 0.911E-04
CGA:  20    -0.128298245975E+04   -0.26744E-04   -0.39049E-04 10640   0.742E-04 0.484E-04
CGA:  21    -0.128298245421E+04    0.55351E-05   -0.13905E-04 10640   0.339E-04 0.548E-04
  43 F= -.12829825E+04 E0= -.12829824E+04  d E =0.128560E+00  mag=    47.0000
       N       E                     dE             d eps       ncg     rms          ort
SDA:   1    -0.127942100250E+04    0.35615E+01    0.00000E+00 10640   0.122E+02 0.000E+00
CGA:   2    -0.128178040260E+04   -0.23594E+01   -0.23593E+01 10640   0.444E+01 0.888E-02
CGA:   3    -0.128289343801E+04   -0.11130E+01   -0.11142E+01 10640   0.125E+01 0.281E-02
CGA:   4    -0.128308707287E+04   -0.19363E+00   -0.19453E+00 10640   0.185E+00 0.420E-02
CGA:   5    -0.128312477001E+04   -0.37697E-01   -0.37712E-01 10640   0.576E-01 0.121E-03
CGA:   6    -0.128313440903E+04   -0.96390E-02   -0.97445E-02 10640   0.196E-01 0.561E-03
CGA:   7    -0.128313810454E+04   -0.36955E-02   -0.37297E-02 10640   0.492E-02 0.201E-03
CGA:   8    -0.128313933785E+04   -0.12333E-02   -0.12049E-02 10640   0.227E-02-0.195E-03
CGA:   9    -0.128313966097E+04   -0.32312E-03   -0.39574E-03 10640   0.880E-03 0.379E-03
CGA:  10    -0.128313989717E+04   -0.23620E-03   -0.25525E-03 10640   0.336E-03 0.160E-03
CGA:  11    -0.128313997485E+04   -0.77676E-04   -0.95694E-04 10640   0.146E-03 0.149E-03
CGA:  12    -0.128313997866E+04   -0.38150E-05   -0.31093E-04 10640   0.824E-04 0.131E-03
CGA:  13    -0.128313999736E+04   -0.18694E-04   -0.22413E-04 10640   0.538E-04 0.506E-04
CGA:  14    -0.128313999178E+04    0.55731E-05   -0.55537E-05 10640   0.451E-04 0.467E-04
  44 F= -.12831400E+04 E0= -.12831400E+04  d E =-.157538E+00  mag=    47.0000
       N       E                     dE             d eps       ncg     rms          ort
SDA:   1    -0.128295028725E+04    0.18971E+00    0.00000E+00 10640   0.645E+00 0.000E+00
CGA:   2    -0.128307955327E+04   -0.12927E+00   -0.12928E+00 10640   0.242E+00 0.264E-03
CGA:   3    -0.128313945046E+04   -0.59897E-01   -0.60009E-01 10640   0.613E-01 0.153E-02
CGA:   4    -0.128314912004E+04   -0.96696E-02   -0.97627E-02 10640   0.938E-02 0.602E-03
CGA:   5    -0.128315113552E+04   -0.20155E-02   -0.20265E-02 10640   0.225E-02 0.124E-03
CGA:   6    -0.128315162690E+04   -0.49137E-03   -0.49703E-03 10640   0.787E-03 0.706E-04
CGA:   7    -0.128315176424E+04   -0.13734E-03   -0.14440E-03 10640   0.265E-03 0.607E-04
CGA:   8    -0.128315182531E+04   -0.61077E-04   -0.63338E-04 10640   0.130E-03 0.333E-04
CGA:   9    -0.128315184785E+04   -0.22538E-04   -0.28247E-04 10640   0.697E-04 0.608E-04
CGA:  10    -0.128315185408E+04   -0.62304E-05   -0.14988E-04 10640   0.418E-04 0.647E-04
  45 F= -.12831519E+04 E0= -.12831518E+04  d E =-.118623E-01  mag=    47.0000
       N       E                     dE             d eps       ncg     rms          ort
SDA:   1    -0.128289805680E+04    0.25379E+00    0.00000E+00 10640   0.834E+00 0.000E+00
CGA:   2    -0.128306767673E+04   -0.16962E+00   -0.16963E+00 10640   0.320E+00 0.281E-03
CGA:   3    -0.128314495147E+04   -0.77275E-01   -0.77337E-01 10640   0.875E-01 0.232E-02
CGA:   4    -0.128315798853E+04   -0.13037E-01   -0.13082E-01 10640   0.162E-01 0.449E-03
CGA:   5    -0.128316082122E+04   -0.28327E-02   -0.28403E-02 10640   0.480E-02 0.108E-03
CGA:   6    -0.128316168508E+04   -0.86386E-03   -0.86400E-03 10640   0.147E-02 0.801E-05
CGA:   7    -0.128316200748E+04   -0.32240E-03   -0.32176E-03 10640   0.480E-03-0.172E-04
CGA:   8    -0.128316207902E+04   -0.71544E-04   -0.78917E-04 10640   0.169E-03 0.891E-04
CGA:   9    -0.128316215032E+04   -0.71299E-04   -0.74406E-04 10640   0.146E-03-0.250E-04
CGA:  10    -0.128316216167E+04   -0.11354E-04   -0.18346E-04 10640   0.870E-04 0.665E-04
CGA:  11    -0.128316217265E+04   -0.10980E-04   -0.17650E-04 10640   0.472E-04 0.619E-04
CGA:  12    -0.128316205405E+04    0.11860E-03   -0.65706E-04 10640   0.185E-02-0.150E-03
CGA:  13    -0.128316216621E+04   -0.11216E-03   -0.16785E-03 10640   0.161E-03 0.171E-03
CGA:  14    -0.128316218445E+04   -0.18241E-04   -0.29974E-04 10640   0.597E-04 0.466E-04
CGA:  15    -0.128316221457E+04   -0.30119E-04   -0.35211E-04 10640   0.308E-03-0.108E-03
CGA:  16    -0.128316221891E+04   -0.43402E-05   -0.26305E-04 10640   0.445E-04 0.683E-04
  46 F= -.12831622E+04 E0= -.12831622E+04  d E =-.103648E-01  mag=    47.0000
       N       E                     dE             d eps       ncg     rms          ort
SDA:   1    -0.128296606500E+04    0.19615E+00    0.00000E+00 10640   0.609E+00 0.000E+00
CGA:   2    -0.128309928650E+04   -0.13322E+00   -0.13331E+00 10640   0.254E+00 0.682E-03
CGA:   3    -0.128315781372E+04   -0.58527E-01   -0.58603E-01 10640   0.640E-01 0.465E-03
CGA:   4    -0.128316718078E+04   -0.93671E-02   -0.93997E-02 10640   0.133E-01 0.231E-03
CGA:   5    -0.128316947525E+04   -0.22945E-02   -0.22739E-02 10640   0.376E-02-0.964E-04
CGA:   6    -0.128317016035E+04   -0.68510E-03   -0.67983E-03 10640   0.106E-02-0.269E-04
CGA:   7    -0.128317039862E+04   -0.23828E-03   -0.23766E-03 10640   0.337E-03-0.453E-05
CGA:   8    -0.128317045243E+04   -0.53806E-04   -0.60377E-04 10640   0.138E-03 0.437E-04
CGA:   9    -0.128317050993E+04   -0.57503E-04   -0.61368E-04 10640   0.185E-03-0.557E-04
CGA:  10    -0.128317052051E+04   -0.10582E-04   -0.14275E-04 10640   0.107E-03 0.185E-04
CGA:  11    -0.128317053146E+04   -0.10948E-04   -0.16206E-04 10640   0.772E-04 0.289E-04
CGA:  12    -0.128317055236E+04   -0.20900E-04   -0.20235E-04 10640   0.488E-04-0.673E-05
CGA:  13    -0.128317043017E+04    0.12219E-03   -0.63568E-04 10640   0.103E-02-0.167E-03
CGA:  14    -0.128317050928E+04   -0.79113E-04   -0.12643E-03 10640   0.273E-03 0.202E-03
CGA:  15    -0.128317057877E+04   -0.69489E-04   -0.72841E-04 10640   0.674E-04 0.269E-04
CGA:  16    -0.128317063688E+04   -0.58106E-04    0.86608E-04 10640   0.132E-03-0.570E-04
CGA:  17    -0.128317062782E+04    0.90611E-05   -0.81995E-05 10640   0.329E-04 0.619E-04
  47 F= -.12831706E+04 E0= -.12831706E+04  d E =-.840891E-02  mag=    47.0000
       N       E                     dE             d eps       ncg     rms          ort
SDA:   1    -0.128292847067E+04    0.24217E+00    0.00000E+00 10640   0.730E+00 0.000E+00
CGA:   2    -0.128309976775E+04   -0.17130E+00   -0.17119E+00 10640   0.332E+00-0.111E-02
CGA:   3    -0.128317136379E+04   -0.71596E-01   -0.71671E-01 10640   0.802E-01 0.852E-03
CGA:   4    -0.128318352763E+04   -0.12164E-01   -0.12076E-01 10640   0.160E-01-0.456E-03
CGA:   5    -0.128318632421E+04   -0.27966E-02   -0.28218E-02 10640   0.413E-02 0.225E-03
CGA:   6    -0.128318709827E+04   -0.77406E-03   -0.77374E-03 10640   0.137E-02 0.175E-05
CGA:   7    -0.128318739765E+04   -0.29938E-03   -0.28977E-03 10640   0.559E-03-0.128E-03
CGA:   8    -0.128318747583E+04   -0.78173E-04   -0.82623E-04 10640   0.160E-03 0.385E-04
CGA:   9    -0.128318742742E+04    0.48407E-04   -0.15795E-03 10640   0.103E-02-0.319E-03
CGA:  10    -0.128318756767E+04   -0.14025E-03   -0.16298E-03 10640   0.190E-03 0.152E-03
CGA:  11    -0.128318762531E+04   -0.57644E-04   -0.52164E-04 10640   0.147E-03-0.874E-04
CGA:  12    -0.128318763045E+04   -0.51330E-05   -0.82492E-05 10640   0.689E-04 0.162E-04
  48 F= -.12831876E+04 E0= -.12831876E+04  d E =-.170026E-01  mag=    47.0000
       N       E                     dE             d eps       ncg     rms          ort
SDA:   1    -0.128189361020E+04    0.12940E+01    0.00000E+00 10640   0.392E+01 0.000E+00
CGA:   2    -0.128276741652E+04   -0.87381E+00   -0.87384E+00 10640   0.166E+01 0.116E-02
CGA:   3    -0.128316231949E+04   -0.39490E+00   -0.39465E+00 10640   0.355E+00-0.711E-02
CGA:   4    -0.128322081718E+04   -0.58498E-01   -0.58316E-01 10640   0.649E-01-0.168E-02
CGA:   5    -0.128323348959E+04   -0.12672E-01   -0.12674E-01 10640   0.169E-01 0.439E-04
CGA:   6    -0.128323667331E+04   -0.31837E-02   -0.31850E-02 10640   0.677E-02 0.355E-04
CGA:   7    -0.128323791946E+04   -0.12462E-02   -0.12321E-02 10640   0.190E-02-0.169E-03
CGA:   8    -0.128323836371E+04   -0.44425E-03   -0.44177E-03 10640   0.971E-03-0.135E-03
CGA:   9    -0.128323862966E+04   -0.26596E-03   -0.31560E-03 10640   0.145E-02-0.525E-03
CGA:  10    -0.128323877071E+04   -0.14105E-03   -0.15223E-03 10640   0.249E-03 0.776E-04
CGA:  11    -0.128323881948E+04   -0.48769E-04   -0.16635E-03 10640   0.857E-03-0.307E-03
CGA:  12    -0.128323897030E+04   -0.15082E-03   -0.14393E-03 10640   0.307E-03-0.650E-04
CGA:  13    -0.128323903326E+04   -0.62956E-04   -0.56829E-04 10640   0.123E-03-0.916E-04
CGA:  14    -0.128323905782E+04   -0.24569E-04   -0.47902E-04 10640   0.466E-03-0.798E-04
CGA:  15    -0.128323912902E+04   -0.71191E-04   -0.57073E-04 10640   0.108E-03-0.899E-04
CGA:  16    -0.128323915799E+04   -0.28972E-04   -0.32440E-04 10640   0.118E-03-0.342E-04
CGA:  17    -0.128323917826E+04   -0.20274E-04   -0.36503E-04 10640   0.374E-03-0.924E-04
CGA:  18    -0.128323921850E+04   -0.40236E-04   -0.40007E-04 10640   0.611E-04-0.388E-06
CGA:  19    -0.128323920672E+04    0.11782E-04   -0.56913E-04 10640   0.397E-03-0.105E-03
CGA:  20    -0.128323923916E+04   -0.32440E-04   -0.45646E-04 10640   0.935E-04 0.696E-04
CGA:  21    -0.128323926486E+04   -0.25708E-04   -0.26310E-04 10640   0.330E-04 0.102E-04
CGA:  22    -0.128323876457E+04    0.50029E-03   -0.27244E-03 10640   0.456E-02-0.357E-03
CGA:  23    -0.128323919801E+04   -0.43345E-03   -0.51356E-03 10640   0.343E-03 0.226E-03
CGA:  24    -0.128323928009E+04   -0.82075E-04   -0.85244E-04 10640   0.180E-03 0.119E-04
CGA:  25    -0.128323932139E+04   -0.41296E-04   -0.33993E-04 10640   0.223E-04-0.224E-04
CGA:  26    -0.128323932262E+04   -0.12341E-05   -0.25335E-05 10640   0.637E-05 0.368E-05
  49 F= -.12832393E+04 E0= -.12832393E+04  d E =-.516922E-01  mag=    47.0000
       N       E                     dE             d eps       ncg     rms          ort
SDA:   1    -0.128258748558E+04    0.65184E+00    0.00000E+00 10640   0.198E+01 0.000E+00
CGA:   2    -0.128303936428E+04   -0.45188E+00   -0.45175E+00 10640   0.858E+00 0.697E-03
CGA:   3    -0.128323373693E+04   -0.19437E+00   -0.19403E+00 10640   0.205E+00-0.235E-02
CGA:   4    -0.128326492781E+04   -0.31191E-01   -0.31378E-01 10640   0.400E-01 0.950E-03
CGA:   5    -0.128327216836E+04   -0.72405E-02   -0.72055E-02 10640   0.116E-01-0.132E-03
CGA:   6    -0.128327424592E+04   -0.20776E-02   -0.20485E-02 10640   0.368E-02-0.120E-03
CGA:   7    -0.128327499609E+04   -0.75017E-03   -0.75289E-03 10640   0.106E-02 0.204E-04
CGA:   8    -0.128327531382E+04   -0.31772E-03   -0.28691E-03 10640   0.845E-03-0.266E-03
CGA:   9    -0.128327540509E+04   -0.91267E-04   -0.10380E-03 10640   0.301E-03 0.599E-04
CGA:  10    -0.128327546972E+04   -0.64633E-04   -0.71440E-04 10640   0.185E-03 0.460E-04
CGA:  11    -0.128327554559E+04   -0.75872E-04   -0.71533E-04 10640   0.459E-03-0.163E-03
CGA:  12    -0.128327556857E+04   -0.22981E-04   -0.42565E-04 10640   0.699E-04 0.752E-04
CGA:  13    -0.128327559204E+04   -0.23463E-04   -0.23241E-04 10640   0.694E-04-0.375E-05
CGA:  14    -0.128327565010E+04   -0.58066E-04    0.39471E-04 10640   0.221E-03-0.653E-04
CGA:  15    -0.128327565204E+04   -0.19381E-05   -0.19450E-04 10640   0.500E-04 0.691E-04
  50 F= -.12832757E+04 E0= -.12832756E+04  d E =-.363294E-01  mag=    47.0000
       N       E                     dE             d eps       ncg     rms          ort
SDA:   1    -0.128280308677E+04    0.47256E+00    0.00000E+00 10640   0.148E+01 0.000E+00
CGA:   2    -0.128310594999E+04   -0.30286E+00   -0.30276E+00 10640   0.575E+00-0.777E-03
CGA:   3    -0.128324732833E+04   -0.14138E+00   -0.14133E+00 10640   0.150E+00-0.847E-03
CGA:   4    -0.128327044455E+04   -0.23116E-01   -0.23088E-01 10640   0.262E-01 0.111E-04
CGA:   5    -0.128327538768E+04   -0.49431E-02   -0.49319E-02 10640   0.743E-02-0.963E-04
CGA:   6    -0.128327669033E+04   -0.13027E-02   -0.13178E-02 10640   0.243E-02 0.144E-03
CGA:   7    -0.128327726060E+04   -0.57027E-03   -0.55192E-03 10640   0.942E-03-0.267E-03
CGA:   8    -0.128327741745E+04   -0.15685E-03   -0.15436E-03 10640   0.384E-03-0.227E-04
CGA:   9    -0.128327754244E+04   -0.12499E-03   -0.14130E-03 10640   0.432E-03-0.172E-03
CGA:  10    -0.128327760973E+04   -0.67292E-04   -0.83311E-04 10640   0.551E-03-0.260E-03
CGA:  11    -0.128327767768E+04   -0.67947E-04   -0.74845E-04 10640   0.191E-03 0.455E-04
CGA:  12    -0.128327773671E+04   -0.59036E-04   -0.59107E-04 10640   0.783E-04-0.304E-04
CGA:  13    -0.128327734351E+04    0.39321E-03   -0.21190E-03 10640   0.451E-02-0.341E-03
CGA:  14    -0.128327771572E+04   -0.37221E-03   -0.42336E-03 10640   0.348E-03 0.160E-03
CGA:  15    -0.128327780347E+04   -0.87753E-04   -0.95109E-04 10640   0.153E-03 0.319E-04
CGA:  16    -0.128327785286E+04   -0.49387E-04   -0.41588E-04 10640   0.114E-03-0.330E-04
CGA:  17    -0.128327785801E+04   -0.51499E-05   -0.12860E-04 10640   0.382E-04 0.237E-04
  51 F= -.12832779E+04 E0= -.12832778E+04  d E =-.220597E-02  mag=    47.0000
       N       E                     dE             d eps       ncg     rms          ort
SDA:   1    -0.128300017188E+04    0.27768E+00    0.00000E+00 10640   0.832E+00 0.000E+00
CGA:   2    -0.128318440513E+04   -0.18423E+00   -0.18411E+00 10640   0.354E+00-0.429E-03
CGA:   3    -0.128326678755E+04   -0.82382E-01   -0.82257E-01 10640   0.824E-01-0.590E-03
CGA:   4    -0.128327971819E+04   -0.12931E-01   -0.12928E-01 10640   0.156E-01 0.232E-04
CGA:   5    -0.128328237781E+04   -0.26596E-02   -0.27614E-02 10640   0.436E-02 0.464E-03
CGA:   6    -0.128328310924E+04   -0.73143E-03   -0.76921E-03 10640   0.136E-02 0.175E-03
CGA:   7    -0.128328340034E+04   -0.29110E-03   -0.29915E-03 10640   0.380E-03 0.488E-04
CGA:   8    -0.128328349637E+04   -0.96029E-04   -0.95460E-04 10640   0.204E-03-0.389E-05
CGA:   9    -0.128328352411E+04   -0.27734E-04   -0.36423E-04 10640   0.788E-04 0.469E-04
CGA:  10    -0.128328353402E+04   -0.99146E-05   -0.17926E-04 10640   0.362E-04 0.464E-04
  52 F= -.12832835E+04 E0= -.12832835E+04  d E =-.567601E-02  mag=    47.0000
       N       E                     dE             d eps       ncg     rms          ort
SDA:   1    -0.127943741028E+04    0.38461E+01    0.00000E+00 10640   0.120E+02 0.000E+00
CGA:   2    -0.128183818039E+04   -0.24008E+01   -0.24022E+01 10640   0.449E+01 0.492E-02
CGA:   3    -0.128295489030E+04   -0.11167E+01   -0.11174E+01 10640   0.121E+01 0.547E-02
CGA:   4    -0.128314048058E+04   -0.18559E+00   -0.18563E+00 10640   0.215E+00 0.337E-02
CGA:   5    -0.128317893211E+04   -0.38452E-01   -0.38518E-01 10640   0.646E-01 0.707E-03
CGA:   6    -0.128319012337E+04   -0.11191E-01   -0.11217E-01 10640   0.202E-01 0.326E-03
CGA:   7    -0.128319450639E+04   -0.43830E-02   -0.43686E-02 10640   0.542E-02-0.145E-03
CGA:   8    -0.128319556817E+04   -0.10618E-02   -0.10971E-02 10640   0.221E-02 0.381E-03
CGA:   9    -0.128319621621E+04   -0.64805E-03   -0.64151E-03 10640   0.158E-02-0.263E-03
CGA:  10    -0.128319642636E+04   -0.21014E-03   -0.24240E-03 10640   0.570E-03 0.273E-03
CGA:  11    -0.128319658226E+04   -0.15590E-03   -0.16306E-03 10640   0.299E-03 0.159E-03
CGA:  12    -0.128319670523E+04   -0.12297E-03   -0.12902E-03 10640   0.614E-03-0.118E-03
CGA:  13    -0.128319671410E+04   -0.88635E-05   -0.32170E-04 10640   0.509E-03 0.115E-03
CGA:  14    -0.128319671385E+04    0.24197E-06   -0.42167E-04 10640   0.256E-03 0.205E-03
CGA:  15    -0.128319671669E+04   -0.28386E-05   -0.32719E-04 10640   0.262E-03 0.168E-03
CGA:  16    -0.128319673723E+04   -0.20539E-04   -0.13269E-03 10640   0.228E-02-0.451E-03
CGA:  17    -0.128319684982E+04   -0.11259E-03   -0.17528E-03 10640   0.953E-04 0.342E-03
CGA:  18    -0.128319684452E+04    0.52982E-05   -0.67312E-05 10640   0.495E-04 0.601E-04
  53 F= -.12831968E+04 E0= -.12831968E+04  d E =0.866895E-01  mag=    47.0000
       N       E                     dE             d eps       ncg     rms          ort
SDA:   1    -0.127660047314E+04    0.65964E+01    0.00000E+00 10640   0.222E+02 0.000E+00
CGA:   2    -0.128075454756E+04   -0.41541E+01   -0.41534E+01 10640   0.768E+01 0.187E-01
