       N       E                     dE             d eps       ncg     rms          ort
DAV:   1     0.102731312858E+05    0.10273E+05   -0.42396E+05 10640   0.155E+03
DAV:   2    -0.117003621431E+03   -0.10390E+05   -0.98086E+04 10640   0.474E+02
DAV:   3    -0.152229073747E+04   -0.14053E+04   -0.13103E+04 10640   0.181E+02
DAV:   4    -0.160442249062E+04   -0.82132E+02   -0.79867E+02 10640   0.462E+01
DAV:   5    -0.160677347394E+04   -0.23510E+01   -0.23434E+01 10640   0.836E+00
SDA:   6    -0.725856748152E+03    0.88092E+03   -0.23434E+01 10640   0.294E+04 0.000E+00
CGA:   7    -0.112183074504E+04   -0.39597E+03   -0.39571E+03 10640   0.141E+04-0.295E+02
CGA:   8    -0.113838111881E+04   -0.16550E+02   -0.81302E+02 10640   0.157E+04-0.915E+03
CGA:   9    -0.114292772776E+04   -0.45466E+01   -0.75606E+02 10640   0.250E+04-0.172E+04
CGA:  10    -0.111115018425E+04    0.31778E+02   -0.14018E+03 10640   0.329E+04-0.218E+04
CGA:  11    -0.110605391450E+04    0.50963E+01   -0.16781E+03 10640   0.418E+04-0.362E+04
CGA:  12    -0.105337029104E+04    0.52684E+02   -0.23784E+03 10640   0.530E+04-0.408E+04
CGA:  13    -0.105177811835E+04    0.15922E+01   -0.27939E+03 10640   0.601E+04-0.560E+04
CGA:  14    -0.101384338638E+04    0.37935E+02   -0.33539E+03 10640   0.653E+04-0.566E+04
CGA:  15    -0.102968878020E+04   -0.15845E+02   -0.34334E+03 10640   0.686E+04-0.683E+04
CGA:  16    -0.102087913982E+04    0.88096E+01   -0.36937E+03 10640   0.676E+04-0.641E+04
CGA:  17    -0.106469700590E+04   -0.43818E+02   -0.34153E+03 10640   0.664E+04-0.718E+04
CGA:  18    -0.109381152145E+04   -0.29115E+02   -0.33369E+03 10640   0.547E+04-0.583E+04
CGA:  19    -0.117785073478E+04   -0.84039E+02   -0.24560E+03 10640   0.343E+04-0.476E+04
CGA:  20    -0.123612467715E+04   -0.58274E+02   -0.13945E+03 10640   0.110E+04-0.184E+04
CGA:  21    -0.126288595830E+04   -0.26761E+02   -0.35672E+02 10640   0.832E+02-0.219E+03
CGA:  22    -0.126619547394E+04   -0.33095E+01   -0.30993E+01 10640   0.248E+02 0.381E+01
CGA:  23    -0.127079530275E+04   -0.45998E+01   -0.44720E+01 10640   0.800E+02 0.167E+01
CGA:  24    -0.127760361703E+04   -0.68083E+01   -0.63173E+01 10640   0.747E+01 0.350E+01
CGA:  25    -0.127818057377E+04   -0.57696E+00   -0.60934E+00 10640   0.613E+01-0.192E+00
CGA:  26    -0.127938673032E+04   -0.12062E+01   -0.12011E+01 10640   0.694E+01-0.965E-01
CGA:  27    -0.127995798509E+04   -0.57125E+00   -0.57023E+00 10640   0.295E+01-0.469E+00
CGA:  28    -0.128047660354E+04   -0.51862E+00   -0.55513E+00 10640   0.471E+01-0.489E+00
CGA:  29    -0.128100085274E+04   -0.52425E+00   -0.53735E+00 10640   0.229E+01-0.922E+00
CGA:  30    -0.128144060108E+04   -0.43975E+00   -0.53328E+00 10640   0.379E+01-0.528E+00
CGA:  31    -0.128188907430E+04   -0.44847E+00   -0.47035E+00 10640   0.161E+01-0.797E+00
CGA:  32    -0.128213170238E+04   -0.24263E+00   -0.26051E+00 10640   0.139E+01-0.271E+00
CGA:  33    -0.128246128019E+04   -0.32958E+00   -0.37981E+00 10640   0.698E+00-0.255E+00
CGA:  34    -0.128258486439E+04   -0.12358E+00   -0.12341E+00 10640   0.441E+00-0.245E-02
CGA:  35    -0.128270350401E+04   -0.11864E+00   -0.10753E+00 10640   0.233E+00 0.113E+00
CGA:  36    -0.128276513939E+04   -0.61635E-01   -0.57233E-01 10640   0.119E+00 0.108E+00
CGA:  37    -0.128280027604E+04   -0.35137E-01   -0.32287E-01 10640   0.728E-01 0.986E-01
CGA:  38    -0.128281417376E+04   -0.13898E-01   -0.13116E-01 10640   0.454E-01 0.352E-01
CGA:  39    -0.128282537399E+04   -0.11200E-01   -0.10996E-01 10640   0.323E-01 0.487E-01
CGA:  40    -0.128282953021E+04   -0.41562E-02   -0.45677E-02 10640   0.222E-01 0.230E-01
CGA:  41    -0.128283205656E+04   -0.25263E-02   -0.29988E-02 10640   0.192E-01 0.204E-01
CGA:  42    -0.128283402177E+04   -0.19652E-02   -0.24703E-02 10640   0.168E-01 0.178E-01
CGA:  43    -0.128283551904E+04   -0.14973E-02   -0.20412E-02 10640   0.149E-01 0.158E-01
CGA:  44    -0.128283669161E+04   -0.11726E-02   -0.17210E-02 10640   0.134E-01 0.141E-01
CGA:  45    -0.128283761330E+04   -0.92169E-03   -0.14650E-02 10640   0.121E-01 0.127E-01
CGA:  46    -0.128283834938E+04   -0.73608E-03   -0.12629E-02 10640   0.110E-01 0.115E-01
CGA:  47    -0.128283894329E+04   -0.59391E-03   -0.10993E-02 10640   0.101E-01 0.105E-01
CGA:  48    -0.128283942793E+04   -0.48464E-03   -0.96564E-03 10640   0.930E-02 0.968E-02
CGA:  49    -0.128283982736E+04   -0.39943E-03   -0.85490E-03 10640   0.861E-02 0.894E-02
CGA:  50    -0.128284015962E+04   -0.33226E-03   -0.76216E-03 10640   0.801E-02 0.830E-02
CGA:  51    -0.128284043838E+04   -0.27876E-03   -0.68369E-03 10640   0.748E-02 0.773E-02
CGA:  52    -0.128284067408E+04   -0.23571E-03   -0.61668E-03 10640   0.701E-02 0.724E-02
CGA:  53    -0.128284087483E+04   -0.20075E-03   -0.55899E-03 10640   0.659E-02 0.679E-02
CGA:  54    -0.128284104694E+04   -0.17211E-03   -0.50895E-03 10640   0.622E-02 0.640E-02
CGA:  55    -0.128284119543E+04   -0.14849E-03   -0.46525E-03 10640   0.588E-02 0.605E-02
CGA:  56    -0.128284132428E+04   -0.12885E-03   -0.42686E-03 10640   0.558E-02 0.573E-02
CGA:  57    -0.128284143670E+04   -0.11242E-03   -0.39296E-03 10640   0.531E-02 0.544E-02
CGA:  58    -0.128284153530E+04   -0.98606E-04   -0.36286E-03 10640   0.506E-02 0.518E-02
CGA:  59    -0.128284162223E+04   -0.86922E-04   -0.33602E-03 10640   0.483E-02 0.494E-02
CGA:  60    -0.128284169922E+04   -0.76992E-04   -0.31198E-03 10640   0.462E-02 0.472E-02
CGA:  61    -0.128284176774E+04   -0.68518E-04   -0.29038E-03 10640   0.443E-02 0.452E-02
CGA:  62    -0.128284182899E+04   -0.61257E-04   -0.27090E-03 10640   0.426E-02 0.434E-02
CGA:  63    -0.128284188401E+04   -0.55013E-04   -0.25326E-03 10640   0.409E-02 0.417E-02
CGA:  64    -0.128284193363E+04   -0.49625E-04   -0.23725E-03 10640   0.395E-02 0.402E-02
CGA:  65    -0.128284197859E+04   -0.44963E-04   -0.22268E-03 10640   0.381E-02 0.388E-02
CGA:  66    -0.128284201951E+04   -0.40918E-04   -0.20938E-03 10640   0.368E-02 0.374E-02
CGA:  67    -0.128284205691E+04   -0.37396E-04   -0.19720E-03 10640   0.356E-02 0.362E-02
CGA:  68    -0.128284209123E+04   -0.34327E-04   -0.18604E-03 10640   0.345E-02 0.350E-02
CGA:  69    -0.128284212288E+04   -0.31643E-04   -0.17577E-03 10640   0.335E-02 0.340E-02
CGA:  70    -0.128284215217E+04   -0.29291E-04   -0.16630E-03 10640   0.325E-02 0.330E-02
CGA:  71    -0.128284217939E+04   -0.27226E-04   -0.15757E-03 10640   0.316E-02 0.320E-02
CGA:  72    -0.128284220480E+04   -0.25409E-04   -0.14949E-03 10640   0.307E-02 0.312E-02
CGA:  73    -0.128284222861E+04   -0.23809E-04   -0.14199E-03 10640   0.299E-02 0.303E-02
CGA:  74    -0.128284225101E+04   -0.22394E-04   -0.13504E-03 10640   0.292E-02 0.296E-02
CGA:  75    -0.128284227215E+04   -0.21142E-04   -0.12857E-03 10640   0.285E-02 0.288E-02
CGA:  76    -0.128284229218E+04   -0.20030E-04   -0.12254E-03 10640   0.278E-02 0.281E-02
CGA:  77    -0.128284231122E+04   -0.19043E-04   -0.11691E-03 10640   0.272E-02 0.275E-02
CGA:  78    -0.128284232939E+04   -0.18162E-04   -0.11165E-03 10640   0.266E-02 0.269E-02
CGA:  79    -0.128284234676E+04   -0.17373E-04   -0.10673E-03 10640   0.260E-02 0.263E-02
CGA:  80    -0.128284236343E+04   -0.16668E-04   -0.10212E-03 10640   0.255E-02 0.258E-02
CGA:  81    -0.128284237946E+04   -0.16033E-04   -0.97787E-04 10640   0.250E-02 0.252E-02
CGA:  82    -0.128284239492E+04   -0.15461E-04   -0.93717E-04 10640   0.245E-02 0.247E-02
CGA:  83    -0.128284240986E+04   -0.14942E-04   -0.89886E-04 10640   0.241E-02 0.243E-02
CGA:  84    -0.128284242434E+04   -0.14472E-04   -0.86276E-04 10640   0.236E-02 0.238E-02
CGA:  85    -0.128284243838E+04   -0.14044E-04   -0.82871E-04 10640   0.232E-02 0.234E-02
CGA:  86    -0.128284245203E+04   -0.13653E-04   -0.79655E-04 10640   0.228E-02 0.230E-02
CGA:  87    -0.128284246533E+04   -0.13294E-04   -0.76615E-04 10640   0.224E-02 0.226E-02
CGA:  88    -0.128284247829E+04   -0.12962E-04   -0.73738E-04 10640   0.221E-02 0.222E-02
CGA:  89    -0.128284249095E+04   -0.12657E-04   -0.71012E-04 10640   0.217E-02 0.219E-02
CGA:  90    -0.128284250332E+04   -0.12372E-04   -0.68426E-04 10640   0.214E-02 0.216E-02
CGA:  91    -0.128284251542E+04   -0.12107E-04   -0.65972E-04 10640   0.211E-02 0.212E-02
CGA:  92    -0.128284252728E+04   -0.11859E-04   -0.63640E-04 10640   0.208E-02 0.209E-02
CGA:  93    -0.128284253891E+04   -0.11626E-04   -0.61422E-04 10640   0.205E-02 0.206E-02
CGA:  94    -0.128284255032E+04   -0.11406E-04   -0.59311E-04 10640   0.202E-02 0.204E-02
CGA:  95    -0.128284256151E+04   -0.11196E-04   -0.57301E-04 10640   0.200E-02 0.201E-02
CGA:  96    -0.128284257251E+04   -0.10997E-04   -0.55384E-04 10640   0.197E-02 0.198E-02
CGA:  97    -0.128284258332E+04   -0.10807E-04   -0.53555E-04 10640   0.194E-02 0.196E-02
CGA:  98    -0.128284259394E+04   -0.10626E-04   -0.51808E-04 10640   0.192E-02 0.193E-02
CGA:  99    -0.128284260439E+04   -0.10451E-04   -0.50139E-04 10640   0.190E-02 0.191E-02
CGA: 100    -0.128284261467E+04   -0.10281E-04   -0.48544E-04 10640   0.188E-02 0.189E-02
CGA: 101    -0.128284262479E+04   -0.10118E-04   -0.47018E-04 10640   0.186E-02 0.187E-02
CGA: 102    -0.128284263475E+04   -0.99604E-05   -0.45556E-04 10640   0.184E-02 0.185E-02
CGA: 103    -0.128284264456E+04   -0.98071E-05   -0.44156E-04 10640   0.182E-02 0.183E-02
CGA: 104    -0.128284265422E+04   -0.96574E-05   -0.42813E-04 10640   0.180E-02 0.181E-02
CGA: 105    -0.128284266373E+04   -0.95113E-05   -0.41526E-04 10640   0.178E-02 0.179E-02
CGA: 106    -0.128284267310E+04   -0.93688E-05   -0.40290E-04 10640   0.176E-02 0.177E-02
CGA: 107    -0.128284268233E+04   -0.92294E-05   -0.39104E-04 10640   0.174E-02 0.175E-02
CGA: 108    -0.128284269142E+04   -0.90932E-05   -0.37963E-04 10640   0.173E-02 0.174E-02
CGA: 109    -0.128284270038E+04   -0.89586E-05   -0.36868E-04 10640   0.171E-02 0.172E-02
CGA: 110    -0.128284270921E+04   -0.88265E-05   -0.35813E-04 10640   0.170E-02 0.170E-02
CGA: 111    -0.128284271790E+04   -0.86975E-05   -0.34799E-04 10640   0.168E-02 0.169E-02
CGA: 112    -0.128284272647E+04   -0.85698E-05   -0.33823E-04 10640   0.167E-02 0.167E-02
CGA: 113    -0.128284273492E+04   -0.84450E-05   -0.32883E-04 10640   0.165E-02 0.166E-02
CGA: 114    -0.128284274324E+04   -0.83207E-05   -0.31977E-04 10640   0.164E-02 0.165E-02
CGA: 115    -0.128284275144E+04   -0.82001E-05   -0.31103E-04 10640   0.163E-02 0.163E-02
CGA: 116    -0.128284275952E+04   -0.80795E-05   -0.30261E-04 10640   0.161E-02 0.162E-02
CGA: 117    -0.128284276748E+04   -0.79618E-05   -0.29449E-04 10640   0.160E-02 0.161E-02
CGA: 118    -0.128284277532E+04   -0.78438E-05   -0.28664E-04 10640   0.159E-02 0.160E-02
CGA: 119    -0.128284278305E+04   -0.77294E-05   -0.27907E-04 10640   0.158E-02 0.158E-02
CGA: 120    -0.128284279067E+04   -0.76155E-05   -0.27176E-04 10640   0.157E-02 0.157E-02
CGA: 121    -0.128284279817E+04   -0.75036E-05   -0.26469E-04 10640   0.156E-02 0.156E-02
CGA: 122    -0.128284280556E+04   -0.73925E-05   -0.25786E-04 10640   0.155E-02 0.155E-02
CGA: 123    -0.128284281285E+04   -0.72830E-05   -0.25125E-04 10640   0.154E-02 0.154E-02
CGA: 124    -0.128284282002E+04   -0.71741E-05   -0.24486E-04 10640   0.153E-02 0.153E-02
CGA: 125    -0.128284282709E+04   -0.70683E-05   -0.23868E-04 10640   0.152E-02 0.152E-02
CGA: 126    -0.128284283405E+04   -0.69621E-05   -0.23270E-04 10640   0.151E-02 0.151E-02
CGA: 127    -0.128284284091E+04   -0.68587E-05   -0.22691E-04 10640   0.150E-02 0.150E-02
CGA: 128    -0.128284284767E+04   -0.67558E-05   -0.22130E-04 10640   0.149E-02 0.149E-02
CGA: 129    -0.128284285432E+04   -0.66530E-05   -0.21586E-04 10640   0.148E-02 0.149E-02
CGA: 130    -0.128284286087E+04   -0.65534E-05   -0.21059E-04 10640   0.147E-02 0.148E-02
CGA: 131    -0.128284286733E+04   -0.64545E-05   -0.20549E-04 10640   0.146E-02 0.147E-02
CGA: 132    -0.128284287368E+04   -0.63567E-05   -0.20054E-04 10640   0.146E-02 0.146E-02
CGA: 133    -0.128284287994E+04   -0.62598E-05   -0.19574E-04 10640   0.145E-02 0.145E-02
CGA: 134    -0.128284288611E+04   -0.61648E-05   -0.19108E-04 10640   0.144E-02 0.145E-02
CGA: 135    -0.128284289218E+04   -0.60705E-05   -0.18656E-04 10640   0.143E-02 0.144E-02
CGA: 136    -0.128284289816E+04   -0.59772E-05   -0.18217E-04 10640   0.143E-02 0.143E-02
CGA: 137    -0.128284290404E+04   -0.58862E-05   -0.17791E-04 10640   0.142E-02 0.142E-02
CGA: 138    -0.128284290984E+04   -0.57944E-05   -0.17378E-04 10640   0.141E-02 0.142E-02
CGA: 139    -0.128284291554E+04   -0.57062E-05   -0.16976E-04 10640   0.141E-02 0.141E-02
CGA: 140    -0.128284292116E+04   -0.56171E-05   -0.16586E-04 10640   0.140E-02 0.140E-02
CGA: 141    -0.128284292669E+04   -0.55302E-05   -0.16206E-04 10640   0.139E-02 0.140E-02
CGA: 142    -0.128284293213E+04   -0.54445E-05   -0.15838E-04 10640   0.139E-02 0.139E-02
CGA: 143    -0.128284293749E+04   -0.53600E-05   -0.15479E-04 10640   0.138E-02 0.139E-02
CGA: 144    -0.128284294277E+04   -0.52765E-05   -0.15131E-04 10640   0.138E-02 0.138E-02
CGA: 145    -0.128284294796E+04   -0.51934E-05   -0.14792E-04 10640   0.137E-02 0.137E-02
CGA: 146    -0.128284295308E+04   -0.51131E-05   -0.14462E-04 10640   0.137E-02 0.137E-02
CGA: 147    -0.128284295811E+04   -0.50320E-05   -0.14141E-04 10640   0.136E-02 0.136E-02
CGA: 148    -0.128284296306E+04   -0.49533E-05   -0.13829E-04 10640   0.135E-02 0.136E-02
CGA: 149    -0.128284296794E+04   -0.48743E-05   -0.13525E-04 10640   0.135E-02 0.135E-02
CGA: 150    -0.128284297274E+04   -0.47987E-05   -0.13229E-04 10640   0.134E-02 0.135E-02
CGA: 151    -0.128284297746E+04   -0.47223E-05   -0.12941E-04 10640   0.134E-02 0.134E-02
CGA: 152    -0.128284298211E+04   -0.46474E-05   -0.12661E-04 10640   0.134E-02 0.134E-02
CGA: 153    -0.128284298668E+04   -0.45746E-05   -0.12388E-04 10640   0.133E-02 0.133E-02
CGA: 154    -0.128284299118E+04   -0.45018E-05   -0.12121E-04 10640   0.133E-02 0.133E-02
CGA: 155    -0.128284299561E+04   -0.44296E-05   -0.11862E-04 10640   0.132E-02 0.132E-02
CGA: 156    -0.128284299997E+04   -0.43592E-05   -0.11609E-04 10640   0.132E-02 0.132E-02
CGA: 157    -0.128284300426E+04   -0.42898E-05   -0.11362E-04 10640   0.131E-02 0.131E-02
CGA: 158    -0.128284300848E+04   -0.42211E-05   -0.11122E-04 10640   0.131E-02 0.131E-02
CGA: 159    -0.128284301264E+04   -0.41536E-05   -0.10888E-04 10640   0.130E-02 0.131E-02
CGA: 160    -0.128284301672E+04   -0.40873E-05   -0.10659E-04 10640   0.130E-02 0.130E-02
CGA: 161    -0.128284302074E+04   -0.40215E-05   -0.10437E-04 10640   0.130E-02 0.130E-02
CGA: 162    -0.128284302470E+04   -0.39571E-05   -0.10220E-04 10640   0.129E-02 0.129E-02
CGA: 163    -0.128284302860E+04   -0.38934E-05   -0.10007E-04 10640   0.129E-02 0.129E-02
   1 F= -.12828430E+04 E0= -.12828430E+04  d E =-.128284E+04  mag=    47.0000
       N       E                     dE             d eps       ncg     rms          ort
SDA:   1    -0.128285389711E+04   -0.10872E-01    0.00000E+00 10640   0.195E-01 0.000E+00
CGA:   2    -0.128285630863E+04   -0.24115E-02   -0.19035E-02 10640   0.868E-02 0.121E-01
CGA:   3    -0.128285820565E+04   -0.18970E-02   -0.14397E-02 10640   0.405E-02 0.538E-02
CGA:   4    -0.128285971147E+04   -0.15058E-02   -0.83389E-03 10640   0.151E-02 0.224E-02
CGA:   5    -0.128286010335E+04   -0.39187E-03   -0.26746E-03 10640   0.104E-02 0.119E-02
CGA:   6    -0.128286031274E+04   -0.20939E-03   -0.14901E-03 10640   0.842E-03 0.916E-03
CGA:   7    -0.128286048149E+04   -0.16874E-03   -0.12060E-03 10640   0.729E-03 0.776E-03
CGA:   8    -0.128286061457E+04   -0.13308E-03   -0.98255E-04 10640   0.662E-03 0.691E-03
CGA:   9    -0.128286074683E+04   -0.13227E-03   -0.95646E-04 10640   0.611E-03 0.634E-03
CGA:  10    -0.128286086866E+04   -0.12182E-03   -0.88860E-04 10640   0.574E-03 0.591E-03
CGA:  11    -0.128286099776E+04   -0.12911E-03   -0.91629E-04 10640   0.542E-03 0.557E-03
CGA:  12    -0.128286112572E+04   -0.12796E-03   -0.90420E-04 10640   0.514E-03 0.527E-03
CGA:  13    -0.128286126742E+04   -0.14170E-03   -0.96976E-04 10640   0.487E-03 0.500E-03
CGA:  14    -0.128286141045E+04   -0.14303E-03   -0.97388E-04 10640   0.461E-03 0.474E-03
CGA:  15    -0.128286158029E+04   -0.16984E-03   -0.11088E-03 10640   0.434E-03 0.447E-03
CGA:  16    -0.128286173908E+04   -0.15878E-03   -0.10530E-03 10640   0.410E-03 0.418E-03
CGA:  17    -0.128286198575E+04   -0.24668E-03   -0.15186E-03 10640   0.402E-03 0.379E-03
CGA:  18    -0.128286208394E+04   -0.98189E-04   -0.78502E-04 10640   0.404E-03 0.322E-03
CGA:  19    -0.128286231197E+04   -0.22803E-03   -0.87426E-06 10640   0.471E-02-0.161E-03
CGA:  20    -0.128286288159E+04   -0.56962E-03   -0.59765E-03 10640   0.115E-01 0.638E-03
CGA:  21    -0.128286429960E+04   -0.14180E-02   -0.16387E-02 10640   0.599E-03 0.138E-02
CGA:  22    -0.128286433560E+04   -0.35995E-04   -0.60612E-04 10640   0.105E-03 0.159E-03
CGA:  23    -0.128286440980E+04   -0.74197E-04    0.80050E-04 10640   0.138E-03-0.305E-04
CGA:  24    -0.128286458874E+04   -0.17895E-03    0.39231E-05 10640   0.231E-03-0.199E-04
CGA:  25    -0.128286490928E+04   -0.32054E-03    0.94683E-05 10640   0.295E-03-0.970E-05
CGA:  26    -0.128286520872E+04   -0.29943E-03    0.26383E-04 10640   0.235E-03-0.174E-03
CGA:  27    -0.128286527165E+04   -0.62938E-04   -0.88867E-04 10640   0.459E-03-0.180E-03
CGA:  28    -0.128286526469E+04    0.69598E-05   -0.28417E-04 10640   0.967E-04 0.198E-03
   2 F= -.12828653E+04 E0= -.12828652E+04  d E =-.222361E-01  mag=    47.0000
       N       E                     dE             d eps       ncg     rms          ort
SDA:   1    -0.128246443559E+04    0.40084E+00    0.00000E+00 10640   0.176E+01 0.000E+00
CGA:   2    -0.128281005322E+04   -0.34562E+00   -0.34563E+00 10640   0.657E+00 0.656E-03
CGA:   3    -0.128297098895E+04   -0.16094E+00   -0.16103E+00 10640   0.199E+00-0.432E-02
CGA:   4    -0.128300106075E+04   -0.30072E-01   -0.29723E-01 10640   0.360E-01-0.525E-02
CGA:   5    -0.128300725119E+04   -0.61904E-02   -0.61916E-02 10640   0.100E-01 0.129E-03
CGA:   6    -0.128300924464E+04   -0.19934E-02   -0.19781E-02 10640   0.347E-02-0.760E-03
CGA:   7    -0.128300979740E+04   -0.55276E-03   -0.56047E-03 10640   0.897E-03 0.191E-03
CGA:   8    -0.128300997101E+04   -0.17361E-03   -0.17711E-03 10640   0.300E-03 0.131E-03
CGA:   9    -0.128301012941E+04   -0.15840E-03    0.43491E-03 10640   0.124E-03 0.106E-03
CGA:  10    -0.128301023391E+04   -0.10451E-03    0.38260E-04 10640   0.662E-04 0.771E-04
CGA:  11    -0.128301028959E+04   -0.55674E-04    0.72171E-05 10640   0.446E-04 0.336E-04
CGA:  12    -0.128301032340E+04   -0.33810E-04    0.60696E-05 10640   0.498E-04 0.171E-04
CGA:  13    -0.128301040000E+04   -0.76605E-04    0.45430E-05 10640   0.241E-04 0.516E-04
CGA:  14    -0.128301042422E+04   -0.24219E-04    0.18758E-05 10640   0.235E-04 0.159E-04
CGA:  15    -0.128301044312E+04   -0.18899E-04    0.28049E-05 10640   0.275E-04 0.105E-04
CGA:  16    -0.128301049033E+04   -0.47214E-04    0.23662E-05 10640   0.169E-04 0.348E-04
CGA:  17    -0.128301050647E+04   -0.16135E-04    0.14473E-05 10640   0.182E-04 0.974E-05
CGA:  18    -0.128301051852E+04   -0.12048E-04    0.35106E-05 10640   0.227E-04 0.529E-05
CGA:  19    -0.128301055235E+04   -0.33834E-04    0.18037E-05 10640   0.157E-04 0.264E-04
CGA:  20    -0.128301056323E+04   -0.10877E-04    0.26411E-05 10640   0.190E-04 0.336E-05
CGA:  21    -0.128301058348E+04   -0.20253E-04    0.23185E-05 10640   0.146E-04 0.208E-04
CGA:  22    -0.128301059400E+04   -0.10516E-04    0.22149E-05 10640   0.166E-04 0.145E-05
CGA:  23    -0.128301061417E+04   -0.20172E-04    0.12146E-05 10640   0.142E-04 0.161E-04
CGA:  24    -0.128301061470E+04   -0.53434E-06   -0.14010E-05 10640   0.714E-05 0.761E-05
   3 F= -.12830106E+04 E0= -.12830106E+04  d E =-.145350E+00  mag=    47.0000
       N       E                     dE             d eps       ncg     rms          ort
SDA:   1    -0.125303106722E+04    0.29980E+02    0.00000E+00 10640   0.100E+03 0.000E+00
CGA:   2    -0.127223503465E+04   -0.19204E+02   -0.19204E+02 10640   0.361E+02 0.120E+00
CGA:   3    -0.128118645965E+04   -0.89514E+01   -0.89407E+01 10640   0.102E+02 0.139E+00
CGA:   4    -0.128277504681E+04   -0.15886E+01   -0.15846E+01 10640   0.170E+01 0.109E-01
CGA:   5    -0.128311222882E+04   -0.33718E+00   -0.33720E+00 10640   0.478E+00-0.653E-02
CGA:   6    -0.128320113378E+04   -0.88905E-01   -0.88827E-01 10640   0.154E+00-0.115E-03
CGA:   7    -0.128323193684E+04   -0.30803E-01   -0.30796E-01 10640   0.468E-01-0.189E-02
CGA:   8    -0.128324196043E+04   -0.10024E-01   -0.10047E-01 10640   0.241E-01-0.168E-02
CGA:   9    -0.128324743252E+04   -0.54721E-02   -0.55261E-02 10640   0.132E-01-0.157E-02
CGA:  10    -0.128325112410E+04   -0.36916E-02   -0.47571E-02 10640   0.166E-01-0.588E-02
CGA:  11    -0.128325294971E+04   -0.18256E-02   -0.17663E-02 10640   0.770E-02-0.253E-02
CGA:  12    -0.128325496310E+04   -0.20134E-02   -0.24512E-02 10640   0.965E-02-0.273E-02
CGA:  13    -0.128325618807E+04   -0.12250E-02   -0.11510E-02 10640   0.741E-02-0.198E-02
CGA:  14    -0.128325785709E+04   -0.16690E-02   -0.17057E-02 10640   0.702E-02-0.565E-03
CGA:  15    -0.128325894308E+04   -0.10860E-02   -0.11082E-02 10640   0.439E-02 0.409E-03
CGA:  16    -0.128326021126E+04   -0.12682E-02   -0.12684E-02 10640   0.359E-02-0.248E-04
CGA:  17    -0.128326071096E+04   -0.49970E-03   -0.53529E-03 10640   0.150E-02 0.473E-03
CGA:  18    -0.128326085590E+04   -0.14494E-03   -0.21811E-03 10640   0.982E-03 0.793E-03
CGA:  19    -0.128326102899E+04   -0.17309E-03   -0.18187E-03 10640   0.499E-03 0.289E-03
CGA:  20    -0.128326112555E+04   -0.96561E-04   -0.11103E-03 10640   0.233E-03 0.342E-03
CGA:  21    -0.128326113264E+04   -0.70853E-05   -0.25978E-04 10640   0.179E-03 0.188E-03
CGA:  22    -0.128326114352E+04   -0.10881E-04   -0.23457E-04 10640   0.159E-03 0.166E-03
CGA:  23    -0.128326115256E+04   -0.90427E-05   -0.20350E-04 10640   0.145E-03 0.150E-03
CGA:  24    -0.128326115838E+04   -0.58157E-05   -0.17064E-04 10640   0.133E-03 0.138E-03
CGA:  25    -0.128326116302E+04   -0.46427E-05   -0.15142E-04 10640   0.124E-03 0.128E-03
CGA:  26    -0.128326116662E+04   -0.36020E-05   -0.13488E-04 10640   0.116E-03 0.119E-03
CGA:  27    -0.128326116958E+04   -0.29575E-05   -0.12203E-04 10640   0.109E-03 0.112E-03
CGA:  28    -0.128326117210E+04   -0.25256E-05   -0.11161E-04 10640   0.104E-03 0.106E-03
CGA:  29    -0.128326117437E+04   -0.22643E-05   -0.10318E-04 10640   0.989E-04 0.101E-03
   4 F= -.12832612E+04 E0= -.12832611E+04  d E =-.250560E+00  mag=    47.0000
       N       E                     dE             d eps       ncg     rms          ort
SDA:   1    -0.128147235633E+04    0.17888E+01    0.00000E+00 10640   0.619E+01 0.000E+00
CGA:   2    -0.128266531267E+04   -0.11930E+01   -0.11932E+01 10640   0.226E+01-0.990E-02
CGA:   3    -0.128321461259E+04   -0.54930E+00   -0.54823E+00 10640   0.698E+00 0.134E-01
CGA:   4    -0.128331622382E+04   -0.10161E+00   -0.10184E+00 10640   0.117E+00 0.877E-02
CGA:   5    -0.128333720711E+04   -0.20983E-01   -0.20975E-01 10640   0.335E-01 0.286E-02
CGA:   6    -0.128334361068E+04   -0.64036E-02   -0.64006E-02 10640   0.998E-02 0.287E-03
CGA:   7    -0.128334573976E+04   -0.21291E-02   -0.21346E-02 10640   0.305E-02-0.135E-03
CGA:   8    -0.128334643788E+04   -0.69812E-03   -0.74392E-03 10640   0.197E-02-0.640E-03
CGA:   9    -0.128334675048E+04   -0.31260E-03   -0.31454E-03 10640   0.753E-03-0.843E-04
CGA:  10    -0.128334685555E+04   -0.10508E-03   -0.11293E-03 10640   0.280E-03 0.318E-03
CGA:  11    -0.128334689945E+04   -0.43902E-04   -0.53137E-04 10640   0.147E-03 0.198E-03
CGA:  12    -0.128334693741E+04   -0.37953E-04   -0.34924E-04 10640   0.125E-03 0.515E-04
CGA:  13    -0.128334695981E+04   -0.22401E-04   -0.25410E-04 10640   0.530E-04 0.992E-04
CGA:  14    -0.128334697310E+04   -0.13295E-04   -0.11655E-04 10640   0.400E-04 0.403E-04
CGA:  15    -0.128334702026E+04   -0.47156E-04   -0.33811E-04 10640   0.886E-04 0.200E-04
CGA:  16    -0.128334702003E+04    0.23204E-06   -0.59769E-05 10640   0.294E-04 0.424E-04
   5 F= -.12833470E+04 E0= -.12833470E+04  d E =-.858457E-01  mag=    47.0000
       N       E                     dE             d eps       ncg     rms          ort
SDA:   1    -0.128314987163E+04    0.19715E+00    0.00000E+00 10640   0.665E+00 0.000E+00
CGA:   2    -0.128327826962E+04   -0.12840E+00   -0.12839E+00 10640   0.248E+00-0.157E-02
CGA:   3    -0.128333788085E+04   -0.59611E-01   -0.59496E-01 10640   0.809E-01 0.271E-02
CGA:   4    -0.128334927974E+04   -0.11399E-01   -0.11508E-01 10640   0.127E-01 0.188E-02
CGA:   5    -0.128335152295E+04   -0.22432E-02   -0.22544E-02 10640   0.359E-02 0.467E-03
CGA:   6    -0.128335226326E+04   -0.74031E-03   -0.74031E-03 10640   0.110E-02-0.119E-06
CGA:   7    -0.128335251736E+04   -0.25410E-03   -0.25788E-03 10640   0.422E-03-0.992E-04
CGA:   8    -0.128335260641E+04   -0.89055E-04   -0.96725E-04 10640   0.360E-03-0.144E-03
CGA:   9    -0.128335265898E+04   -0.52568E-04   -0.54284E-04 10640   0.165E-03-0.618E-04
CGA:  10    -0.128335267068E+04   -0.11695E-04   -0.17532E-04 10640   0.816E-04 0.779E-04
CGA:  11    -0.128335267687E+04   -0.61929E-05   -0.12432E-04 10640   0.420E-04 0.650E-04
CGA:  12    -0.128335269135E+04   -0.14482E-04   -0.12856E-04 10640   0.346E-04 0.146E-04
CGA:  13    -0.128335269344E+04   -0.20836E-05   -0.49549E-05 10640   0.158E-04 0.305E-04
   6 F= -.12833527E+04 E0= -.12833527E+04  d E =-.567341E-02  mag=    47.0000
       N       E                     dE             d eps       ncg     rms          ort
SDA:   1    -0.128042888547E+04    0.29238E+01    0.00000E+00 10640   0.860E+01 0.000E+00
CGA:   2    -0.128227797350E+04   -0.18491E+01   -0.18492E+01 10640   0.370E+01-0.479E-02
CGA:   3    -0.128312832977E+04   -0.85036E+00   -0.84979E+00 10640   0.100E+01 0.134E-01
CGA:   4    -0.128327043456E+04   -0.14210E+00   -0.14229E+00 10640   0.175E+00 0.672E-02
CGA:   5    -0.128330218472E+04   -0.31750E-01   -0.31762E-01 10640   0.501E-01 0.955E-03
CGA:   6    -0.128331187008E+04   -0.96854E-02   -0.96835E-02 10640   0.149E-01-0.979E-03
CGA:   7    -0.128331505177E+04   -0.31817E-02   -0.31974E-02 10640   0.480E-02-0.621E-03
CGA:   8    -0.128331605291E+04   -0.10011E-02   -0.10185E-02 10640   0.255E-02-0.650E-03
CGA:   9    -0.128331656993E+04   -0.51702E-03   -0.53261E-03 10640   0.129E-02-0.342E-03
CGA:  10    -0.128331681108E+04   -0.24115E-03   -0.23936E-03 10640   0.479E-03 0.113E-03
CGA:  11    -0.128331698541E+04   -0.17433E-03   -0.20539E-03 10640   0.539E-03-0.160E-03
CGA:  12    -0.128331704465E+04   -0.59237E-04   -0.59497E-04 10640   0.286E-03 0.624E-05
CGA:  13    -0.128331714025E+04   -0.95595E-04   -0.10972E-03 10640   0.485E-03-0.833E-04
CGA:  14    -0.128331720929E+04   -0.69048E-04   -0.99972E-04 10640   0.857E-03-0.414E-03
CGA:  15    -0.128331731613E+04   -0.10683E-03   -0.11904E-03 10640   0.275E-03 0.153E-03
CGA:  16    -0.128331737154E+04   -0.55411E-04   -0.58086E-04 10640   0.627E-04 0.746E-04
CGA:  17    -0.128331739939E+04   -0.27847E-04   -0.25938E-04 10640   0.789E-04 0.168E-04
CGA:  18    -0.128331740707E+04   -0.76843E-05   -0.12649E-04 10640   0.387E-04 0.534E-04
   7 F= -.12833174E+04 E0= -.12833174E+04  d E =0.352864E-01  mag=    47.0000
       N       E                     dE             d eps       ncg     rms          ort
SDA:   1    -0.126807192031E+04    0.15245E+02    0.00000E+00 10640   0.506E+02 0.000E+00
CGA:   2    -0.127754458721E+04   -0.94727E+01   -0.94715E+01 10640   0.177E+02 0.356E-01
CGA:   3    -0.128204873716E+04   -0.45041E+01   -0.45017E+01 10640   0.542E+01 0.214E-01
CGA:   4    -0.128288056567E+04   -0.83183E+00   -0.83107E+00 10640   0.794E+00 0.624E-02
CGA:   5    -0.128303649617E+04   -0.15593E+00   -0.15582E+00 10640   0.250E+00-0.863E-02
CGA:   6    -0.128307966790E+04   -0.43172E-01   -0.43197E-01 10640   0.808E-01 0.140E-02
CGA:   7    -0.128309568585E+04   -0.16018E-01   -0.16022E-01 10640   0.201E-01 0.544E-03
CGA:   8    -0.128310036081E+04   -0.46750E-02   -0.46785E-02 10640   0.899E-02-0.129E-03
CGA:   9    -0.128310228256E+04   -0.19217E-02   -0.19180E-02 10640   0.427E-02 0.598E-03
CGA:  10    -0.128310373738E+04   -0.14548E-02   -0.18378E-02 10640   0.564E-02-0.195E-02
CGA:  11    -0.128310430502E+04   -0.56764E-03   -0.53748E-03 10640   0.295E-02-0.698E-03
CGA:  12    -0.128310488518E+04   -0.58015E-03   -0.58191E-03 10640   0.236E-02-0.199E-03
CGA:  13    -0.128310533225E+04   -0.44708E-03   -0.43957E-03 10640   0.186E-02-0.434E-03
CGA:  14    -0.128310574334E+04   -0.41108E-03   -0.40893E-03 10640   0.154E-02 0.343E-04
CGA:  15    -0.128310596764E+04   -0.22430E-03   -0.25105E-03 10640   0.106E-02 0.460E-03
CGA:  16    -0.128310630770E+04   -0.34006E-03   -0.33193E-03 10640   0.775E-03 0.309E-03
CGA:  17    -0.128310655192E+04   -0.24423E-03   -0.24734E-03 10640   0.710E-03-0.106E-03
CGA:  18    -0.128310657972E+04   -0.27798E-04   -0.64906E-04 10640   0.489E-03 0.328E-03
CGA:  19    -0.128310659446E+04   -0.14743E-04   -0.61514E-04 10640   0.276E-03 0.369E-03
CGA:  20    -0.128310665207E+04   -0.57605E-04   -0.22580E-03 10640   0.133E-02-0.276E-03
CGA:  21    -0.128310670940E+04   -0.57330E-04   -0.11257E-03 10640   0.217E-03 0.369E-03
CGA:  22    -0.128310671629E+04   -0.68885E-05   -0.25795E-04 10640   0.130E-03 0.139E-03
CGA:  23    -0.128310678003E+04   -0.63743E-04    0.14609E-03 10640   0.994E-04 0.364E-04
CGA:  24    -0.128310679415E+04   -0.14117E-04   -0.19340E-04 10640   0.446E-04 0.739E-04
CGA:  25    -0.128310679172E+04    0.24294E-05   -0.34475E-05 10640   0.402E-04 0.414E-04
   8 F= -.12831068E+04 E0= -.12831067E+04  d E =0.210615E+00  mag=    47.0000
       N       E                     dE             d eps       ncg     rms          ort
SDA:   1    -0.127863737468E+04    0.44694E+01    0.00000E+00 10640   0.155E+02 0.000E+00
CGA:   2    -0.128160559317E+04   -0.29682E+01   -0.29678E+01 10640   0.564E+01-0.143E-01
CGA:   3    -0.128300230242E+04   -0.13967E+01   -0.13955E+01 10640   0.177E+01 0.244E-01
CGA:   4    -0.128326342450E+04   -0.26112E+00   -0.26177E+00 10640   0.278E+00 0.143E-01
CGA:   5    -0.128331282192E+04   -0.49397E-01   -0.49525E-01 10640   0.844E-01 0.452E-02
CGA:   6    -0.128332852814E+04   -0.15706E-01   -0.15722E-01 10640   0.244E-01 0.820E-03
CGA:   7    -0.128333384153E+04   -0.53134E-02   -0.53151E-02 10640   0.681E-02-0.117E-03
CGA:   8    -0.128333545299E+04   -0.16115E-02   -0.16550E-02 10640   0.411E-02-0.109E-02
CGA:   9    -0.128333610865E+04   -0.65566E-03   -0.65517E-03 10640   0.150E-02-0.206E-04
CGA:  10    -0.128333635739E+04   -0.24874E-03   -0.26458E-03 10640   0.500E-03 0.558E-03
CGA:  11    -0.128333644718E+04   -0.89788E-04   -0.10597E-03 10640   0.268E-03 0.324E-03
CGA:  12    -0.128333649709E+04   -0.49909E-04   -0.51141E-04 10640   0.191E-03 0.110E-03
CGA:  13    -0.128333654335E+04   -0.46267E-04   -0.49275E-04 10640   0.966E-04 0.161E-03
CGA:  14    -0.128333656578E+04   -0.22432E-04   -0.21141E-04 10640   0.710E-04 0.700E-04
CGA:  15    -0.128333658125E+04   -0.15465E-04   -0.14929E-04 10640   0.624E-04 0.602E-04
CGA:  16    -0.128333659611E+04   -0.14865E-04   -0.13847E-04 10640   0.580E-04 0.505E-04
CGA:  17    -0.128333660521E+04   -0.90938E-05   -0.10236E-04 10640   0.523E-04 0.435E-04
CGA:  18    -0.128333661609E+04   -0.10885E-04   -0.10741E-04 10640   0.509E-04 0.380E-04
CGA:  19    -0.128333662385E+04   -0.77530E-05   -0.87438E-05 10640   0.463E-04 0.332E-04
   9 F= -.12833366E+04 E0= -.12833366E+04  d E =-.229832E+00  mag=    47.0000
       N       E                     dE             d eps       ncg     rms          ort
SDA:   1    -0.128254847398E+04    0.78814E+00    0.00000E+00 10640   0.267E+01 0.000E+00
CGA:   2    -0.128305151488E+04   -0.50304E+00   -0.50299E+00 10640   0.965E+00-0.366E-02
CGA:   3    -0.128328633794E+04   -0.23482E+00   -0.23448E+00 10640   0.332E+00 0.717E-02
CGA:   4    -0.128333354407E+04   -0.47206E-01   -0.47486E-01 10640   0.503E-01 0.536E-02
CGA:   5    -0.128334239870E+04   -0.88546E-02   -0.88900E-02 10640   0.142E-01 0.151E-02
CGA:   6    -0.128334524596E+04   -0.28473E-02   -0.28479E-02 10640   0.421E-02 0.284E-03
CGA:   7    -0.128334618156E+04   -0.93560E-03   -0.93575E-03 10640   0.132E-02-0.224E-05
CGA:   8    -0.128334650026E+04   -0.31870E-03   -0.33725E-03 10640   0.101E-02-0.317E-03
CGA:   9    -0.128334663538E+04   -0.13511E-03   -0.13626E-03 10640   0.371E-03 0.524E-04
CGA:  10    -0.128334667028E+04   -0.34907E-04   -0.50524E-04 10640   0.203E-03 0.222E-03
CGA:  11    -0.128334669128E+04   -0.20993E-04   -0.27607E-04 10640   0.112E-03 0.110E-03
CGA:  12    -0.128334669986E+04   -0.85836E-05   -0.14130E-04 10640   0.799E-04 0.830E-04
CGA:  13    -0.128334670774E+04   -0.78775E-05   -0.11235E-04 10640   0.646E-04 0.682E-04
  10 F= -.12833467E+04 E0= -.12833467E+04  d E =-.100839E-01  mag=    47.0000
       N       E                     dE             d eps       ncg     rms          ort
SDA:   1    -0.128283018530E+04    0.51651E+00    0.00000E+00 10640   0.164E+01 0.000E+00
CGA:   2    -0.128314437677E+04   -0.31419E+00   -0.31421E+00 10640   0.602E+00-0.200E-02
CGA:   3    -0.128329158013E+04   -0.14720E+00   -0.14687E+00 10640   0.191E+00 0.529E-02
CGA:   4    -0.128331885619E+04   -0.27276E-01   -0.27420E-01 10640   0.300E-01 0.347E-02
CGA:   5    -0.128332433589E+04   -0.54797E-02   -0.54842E-02 10640   0.870E-02 0.674E-03
CGA:   6    -0.128332605050E+04   -0.17146E-02   -0.17148E-02 10640   0.279E-02-0.137E-04
CGA:   7    -0.128332665197E+04   -0.60147E-03   -0.60607E-03 10640   0.959E-03-0.144E-03
CGA:   8    -0.128332686386E+04   -0.21189E-03   -0.22490E-03 10640   0.663E-03-0.217E-03
CGA:   9    -0.128332697384E+04   -0.10997E-03   -0.11005E-03 10640   0.281E-03-0.248E-05
CGA:  10    -0.128332701654E+04   -0.42706E-04   -0.46446E-04 10640   0.125E-03 0.143E-03
CGA:  11    -0.128332704961E+04   -0.33069E-04   -0.30420E-04 10640   0.812E-04 0.504E-04
CGA:  12    -0.128332706229E+04   -0.12681E-04   -0.16358E-04 10640   0.453E-04 0.739E-04
CGA:  13    -0.128332708052E+04   -0.18225E-04   -0.14063E-04 10640   0.378E-04 0.347E-04
CGA:  14    -0.128332712581E+04   -0.45288E-04   -0.88857E-06 10640   0.400E-03-0.767E-05
CGA:  15    -0.128332716750E+04   -0.41693E-04   -0.61068E-04 10640   0.300E-03 0.111E-03
CGA:  16    -0.128332718087E+04   -0.13370E-04   -0.38199E-04 10640   0.921E-04 0.977E-04
CGA:  17    -0.128332719620E+04   -0.15333E-04   -0.20224E-04 10640   0.554E-04 0.277E-04
CGA:  18    -0.128332721507E+04   -0.18865E-04   -0.33447E-04 10640   0.381E-03-0.109E-03
CGA:  19    -0.128332723306E+04   -0.17996E-04   -0.36402E-04 10640   0.492E-04 0.774E-04
CGA:  20    -0.128332723674E+04   -0.36779E-05   -0.76272E-05 10640   0.174E-04 0.202E-04
  11 F= -.12833272E+04 E0= -.12833272E+04  d E =0.194710E-01  mag=    47.0000
       N       E                     dE             d eps       ncg     rms          ort
SDA:   1    -0.127310530582E+04    0.10222E+02    0.00000E+00 10640   0.339E+02 0.000E+00
CGA:   2    -0.127942876711E+04   -0.63235E+01   -0.63180E+01 10640   0.119E+02 0.712E-01
CGA:   3    -0.128241940520E+04   -0.29906E+01   -0.29927E+01 10640   0.391E+01-0.223E-02
CGA:   4    -0.128300615383E+04   -0.58675E+00   -0.58420E+00 10640   0.590E+00 0.104E-01
CGA:   5    -0.128311511545E+04   -0.10896E+00   -0.10843E+00 10640   0.187E+00-0.449E-02
CGA:   6    -0.128314847065E+04   -0.33355E-01   -0.33226E-01 10640   0.548E-01-0.847E-03
CGA:   7    -0.128315976956E+04   -0.11299E-01   -0.11341E-01 10640   0.139E-01 0.603E-03
CGA:   8    -0.128316282846E+04   -0.30589E-02   -0.30689E-02 10640   0.592E-02 0.161E-03
CGA:   9    -0.128316422695E+04   -0.13985E-02   -0.13966E-02 10640   0.309E-02-0.214E-04
CGA:  10    -0.128316524176E+04   -0.10148E-02   -0.11483E-02 10640   0.399E-02-0.143E-02
CGA:  11    -0.128316575707E+04   -0.51530E-03   -0.42472E-03 10640   0.195E-02-0.104E-02
CGA:  12    -0.128316621124E+04   -0.45417E-03   -0.52013E-03 10640   0.215E-02-0.812E-03
CGA:  13    -0.128316650809E+04   -0.29685E-03   -0.24288E-03 10640   0.176E-02-0.596E-03
CGA:  14    -0.128316688476E+04   -0.37667E-03   -0.38327E-03 10640   0.154E-02-0.313E-03
CGA:  15    -0.128316708255E+04   -0.19779E-03   -0.21187E-03 10640   0.101E-02 0.125E-03
CGA:  16    -0.128316739311E+04   -0.31056E-03   -0.31098E-03 10640   0.868E-03-0.441E-04
CGA:  17    -0.128316752470E+04   -0.13158E-03   -0.13138E-03 10640   0.391E-03-0.217E-05
CGA:  18    -0.128316754030E+04   -0.15600E-04   -0.47115E-04 10640   0.260E-03 0.211E-03
CGA:  19    -0.128316755760E+04   -0.17299E-04   -0.33754E-04 10640   0.117E-03 0.125E-03
CGA:  20    -0.128316756902E+04   -0.11429E-04   -0.23703E-04 10640   0.704E-04 0.103E-03
CGA:  21    -0.128316757584E+04   -0.68133E-05   -0.10797E-04 10640   0.491E-04 0.412E-04
  12 F= -.12831676E+04 E0= -.12831675E+04  d E =0.159661E+00  mag=    47.0000
       N       E                     dE             d eps       ncg     rms          ort
SDA:   1    -0.127628486133E+04    0.68827E+01    0.00000E+00 10640   0.236E+02 0.000E+00
CGA:   2    -0.128073772456E+04   -0.44529E+01   -0.44517E+01 10640   0.842E+01-0.100E-01
CGA:   3    -0.128283227643E+04   -0.20946E+01   -0.20939E+01 10640   0.271E+01 0.325E-01
CGA:   4    -0.128323160775E+04   -0.39933E+00   -0.40019E+00 10640   0.422E+00 0.199E-01
CGA:   5    -0.128330649215E+04   -0.74884E-01   -0.75157E-01 10640   0.128E+00 0.547E-02
CGA:   6    -0.128333026167E+04   -0.23770E-01   -0.23829E-01 10640   0.367E-01 0.155E-02
CGA:   7    -0.128333827877E+04   -0.80171E-02   -0.80164E-02 10640   0.102E-01-0.315E-04
CGA:   8    -0.128334062040E+04   -0.23416E-02   -0.23474E-02 10640   0.535E-02-0.974E-03
CGA:   9    -0.128334154399E+04   -0.92359E-03   -0.93114E-03 10640   0.196E-02 0.242E-03
CGA:  10    -0.128334186559E+04   -0.32160E-03   -0.36053E-03 10640   0.655E-03 0.819E-03
CGA:  11    -0.128334196534E+04   -0.99752E-04   -0.13722E-03 10640   0.364E-03 0.510E-03
CGA:  12    -0.128334201260E+04   -0.47257E-04   -0.59051E-04 10640   0.241E-03 0.213E-03
CGA:  13    -0.128334203487E+04   -0.22274E-04   -0.34272E-04 10640   0.183E-03 0.166E-03
CGA:  14    -0.128334204915E+04   -0.14279E-04   -0.25117E-04 10640   0.149E-03 0.147E-03
CGA:  15    -0.128334205826E+04   -0.91080E-05   -0.19291E-04 10640   0.127E-03 0.131E-03
CGA:  16    -0.128334206450E+04   -0.62444E-05   -0.15689E-04 10640   0.113E-03 0.118E-03
CGA:  17    -0.128334206863E+04   -0.41273E-05   -0.13065E-04 10640   0.102E-03 0.107E-03
CGA:  18    -0.128334207150E+04   -0.28745E-05   -0.11247E-04 10640   0.942E-04 0.980E-04
  13 F= -.12833421E+04 E0= -.12833421E+04  d E =-.174496E+00  mag=    47.0000
       N       E                     dE             d eps       ncg     rms          ort
SDA:   1    -0.128327974376E+04    0.62325E-01    0.00000E+00 10640   0.202E+00 0.000E+00
CGA:   2    -0.128331779374E+04   -0.38050E-01   -0.38051E-01 10640   0.733E-01-0.515E-03
CGA:   3    -0.128333532675E+04   -0.17533E-01   -0.17456E-01 10640   0.249E-01 0.145E-02
CGA:   4    -0.128333884121E+04   -0.35145E-02   -0.35614E-02 10640   0.372E-02 0.987E-03
CGA:   5    -0.128333950647E+04   -0.66526E-03   -0.67000E-03 10640   0.101E-02 0.347E-03
CGA:   6    -0.128333973257E+04   -0.22610E-03   -0.22490E-03 10640   0.363E-03 0.667E-04
CGA:   7    -0.128333981567E+04   -0.83109E-04   -0.82159E-04 10640   0.138E-03 0.386E-04
CGA:   8    -0.128333984869E+04   -0.33016E-04   -0.32134E-04 10640   0.710E-04 0.401E-04
CGA:   9    -0.128333987187E+04   -0.23174E-04   -0.21102E-04 10640   0.470E-04 0.505E-04
CGA:  10    -0.128333987208E+04   -0.21768E-06   -0.42405E-05 10640   0.352E-04 0.397E-04
  14 F= -.12833399E+04 E0= -.12833399E+04  d E =0.219942E-02  mag=    47.0000
       N       E                     dE             d eps       ncg     rms          ort
SDA:   1    -0.127925836863E+04    0.40815E+01    0.00000E+00 10640   0.134E+02 0.000E+00
CGA:   2    -0.128178475906E+04   -0.25264E+01   -0.25263E+01 10640   0.469E+01 0.244E-01
CGA:   3    -0.128298831079E+04   -0.12036E+01   -0.12041E+01 10640   0.141E+01-0.117E-01
CGA:   4    -0.128320816660E+04   -0.21986E+00   -0.21959E+00 10640   0.200E+00-0.818E-02
CGA:   5    -0.128324895478E+04   -0.40788E-01   -0.40877E-01 10640   0.618E-01-0.426E-02
CGA:   6    -0.128325980526E+04   -0.10850E-01   -0.10838E-01 10640   0.223E-01-0.169E-02
CGA:   7    -0.128326365290E+04   -0.38476E-02   -0.38513E-02 10640   0.486E-02 0.444E-03
CGA:   8    -0.128326475820E+04   -0.11053E-02   -0.10857E-02 10640   0.142E-02 0.592E-03
CGA:   9    -0.128326481246E+04   -0.54264E-04   -0.11857E-02 10640   0.608E-02-0.203E-02
CGA:  10    -0.128326566212E+04   -0.84966E-03   -0.85676E-03 10640   0.141E-02 0.112E-03
CGA:  11    -0.128326594603E+04   -0.28390E-03   -0.52637E-03 10640   0.299E-02-0.155E-02
CGA:  12    -0.128326621471E+04   -0.26868E-03   -0.29509E-03 10640   0.341E-03 0.227E-03
CGA:  13    -0.128326627822E+04   -0.63513E-04   -0.65788E-04 10640   0.592E-04 0.667E-04
CGA:  14    -0.128326632763E+04   -0.49405E-04    0.11500E-04 10640   0.588E-04 0.720E-05
CGA:  15    -0.128326639406E+04   -0.66428E-04    0.50613E-05 10640   0.418E-04 0.248E-04
CGA:  16    -0.128326646226E+04   -0.68202E-04    0.36836E-05 10640   0.501E-04 0.304E-04
CGA:  17    -0.128326650518E+04   -0.42920E-04    0.51875E-05 10640   0.532E-04-0.728E-05
CGA:  18    -0.128326655382E+04   -0.48641E-04    0.31526E-05 10640   0.250E-04 0.187E-04
CGA:  19    -0.128326657196E+04   -0.18143E-04    0.13265E-04 10640   0.427E-04 0.336E-05
CGA:  20    -0.128326662852E+04   -0.56560E-04    0.29135E-05 10640   0.594E-04 0.340E-04
CGA:  21    -0.128326666542E+04   -0.36897E-04    0.13447E-04 10640   0.846E-04-0.493E-04
CGA:  22    -0.128326666333E+04    0.20850E-05   -0.44245E-05 10640   0.223E-04 0.410E-04
  15 F= -.12832667E+04 E0= -.12832666E+04  d E =0.732087E-01  mag=    47.0000
       N       E                     dE             d eps       ncg     rms          ort
SDA:   1    -0.126967139553E+04    0.13595E+02    0.00000E+00 10640   0.457E+02 0.000E+00
CGA:   2    -0.127821967848E+04   -0.85483E+01   -0.85483E+01 10640   0.157E+02 0.634E-02
CGA:   3    -0.128225266010E+04   -0.40330E+01   -0.40277E+01 10640   0.474E+01 0.668E-01
CGA:   4    -0.128298500791E+04   -0.73235E+00   -0.73361E+00 10640   0.700E+00 0.337E-01
CGA:   5    -0.128312007090E+04   -0.13506E+00   -0.13510E+00 10640   0.222E+00 0.835E-02
CGA:   6    -0.128315852100E+04   -0.38450E-01   -0.38544E-01 10640   0.709E-01 0.473E-02
CGA:   7    -0.128317337529E+04   -0.14854E-01   -0.14860E-01 10640   0.180E-01-0.392E-03
CGA:   8    -0.128317771899E+04   -0.43437E-02   -0.43885E-02 10640   0.818E-02-0.863E-03
CGA:   9    -0.128317906430E+04   -0.13453E-02   -0.13738E-02 10640   0.311E-02 0.139E-02
CGA:  10    -0.128317959421E+04   -0.52991E-03   -0.58631E-03 10640   0.109E-02 0.162E-02
CGA:  11    -0.128317973073E+04   -0.13652E-03   -0.16634E-03 10640   0.621E-03 0.721E-03
CGA:  12    -0.128317976245E+04   -0.31716E-04   -0.71904E-04 10640   0.476E-03 0.525E-03
CGA:  13    -0.128317978526E+04   -0.22814E-04   -0.54532E-04 10640   0.392E-03 0.428E-03
CGA:  14    -0.128317979468E+04   -0.94176E-05   -0.39707E-04 10640   0.338E-03 0.363E-03
CGA:  15    -0.128317979807E+04   -0.33946E-05   -0.31341E-04 10640   0.300E-03 0.318E-03
CGA:  16    -0.128317979768E+04    0.39076E-06   -0.25503E-04 10640   0.270E-03 0.284E-03
CGA:  17    -0.128317979491E+04    0.27749E-05   -0.21252E-04 10640   0.247E-03 0.258E-03
CGA:  18    -0.128317979063E+04    0.42792E-05   -0.18047E-04 10640   0.229E-03 0.237E-03
CGA:  19    -0.128317978541E+04    0.52222E-05   -0.15555E-04 10640   0.213E-03 0.220E-03
CGA:  20    -0.128317977960E+04    0.58042E-05   -0.13574E-04 10640   0.200E-03 0.206E-03
CGA:  21    -0.128317977347E+04    0.61362E-05   -0.11966E-04 10640   0.189E-03 0.194E-03
CGA:  22    -0.128317976717E+04    0.62975E-05   -0.10640E-04 10640   0.180E-03 0.184E-03
  16 F= -.12831798E+04 E0= -.12831798E+04  d E =0.868962E-01  mag=    47.0000
       N       E                     dE             d eps       ncg     rms          ort
SDA:   1    -0.127865546133E+04    0.45243E+01    0.00000E+00 10640   0.157E+02 0.000E+00
CGA:   2    -0.128161402883E+04   -0.29586E+01   -0.29577E+01 10640   0.552E+01 0.245E-01
CGA:   3    -0.128302657044E+04   -0.14125E+01   -0.14133E+01 10640   0.167E+01-0.108E-01
CGA:   4    -0.128328603893E+04   -0.25947E+00   -0.25957E+00 10640   0.240E+00-0.123E-01
CGA:   5    -0.128333334869E+04   -0.47310E-01   -0.47528E-01 10640   0.768E-01-0.401E-02
CGA:   6    -0.128334663902E+04   -0.13290E-01   -0.13380E-01 10640   0.271E-01-0.327E-02
CGA:   7    -0.128335134590E+04   -0.47069E-02   -0.46887E-02 10640   0.564E-02 0.667E-03
CGA:   8    -0.128335264906E+04   -0.13032E-02   -0.12559E-02 10640   0.164E-02 0.741E-03
CGA:   9    -0.128335103832E+04    0.16107E-02   -0.98438E-03 10640   0.173E-01-0.417E-02
CGA:  10    -0.128335318936E+04   -0.21510E-02   -0.22484E-02 10640   0.371E-02 0.713E-03
CGA:  11    -0.128335413898E+04   -0.94962E-03   -0.91054E-03 10640   0.144E-02-0.932E-03
CGA:  12    -0.128335441950E+04   -0.28053E-03   -0.26429E-03 10640   0.101E-02-0.538E-03
CGA:  13    -0.128335450009E+04   -0.80582E-04   -0.91744E-04 10640   0.278E-03 0.878E-04
CGA:  14    -0.128335453353E+04   -0.33444E-04   -0.41766E-04 10640   0.148E-03 0.647E-04
CGA:  15    -0.128335458299E+04   -0.49458E-04   -0.51631E-04 10640   0.112E-03-0.102E-03
CGA:  16    -0.128335461206E+04   -0.29073E-04   -0.28711E-04 10640   0.127E-03-0.648E-04
CGA:  17    -0.128335464095E+04   -0.28887E-04   -0.20949E-04 10640   0.794E-04-0.812E-04
CGA:  18    -0.128335464669E+04   -0.57387E-05   -0.69004E-05 10640   0.600E-05 0.705E-05
  17 F= -.12833546E+04 E0= -.12833546E+04  d E =-.174880E+00  mag=    47.0000
       N       E                     dE             d eps       ncg     rms          ort
SDA:   1    -0.128095273569E+04    0.24019E+01    0.00000E+00 10640   0.778E+01 0.000E+00
CGA:   2    -0.128241680807E+04   -0.14641E+01   -0.14648E+01 10640   0.271E+01 0.127E-01
CGA:   3    -0.128311557736E+04   -0.69877E+00   -0.69885E+00 10640   0.814E+00-0.867E-02
CGA:   4    -0.128324270419E+04   -0.12713E+00   -0.12670E+00 10640   0.115E+00-0.470E-02
CGA:   5    -0.128326638495E+04   -0.23681E-01   -0.23603E-01 10640   0.351E-01-0.219E-02
CGA:   6    -0.128327272826E+04   -0.63433E-02   -0.62772E-02 10640   0.131E-01-0.112E-02
CGA:   7    -0.128327491929E+04   -0.21910E-02   -0.22058E-02 10640   0.286E-02 0.258E-03
CGA:   8    -0.128327555996E+04   -0.64067E-03   -0.64477E-03 10640   0.849E-03 0.332E-03
CGA:   9    -0.128327496238E+04    0.59758E-03   -0.97438E-03 10640   0.779E-02-0.198E-02
CGA:  10    -0.128327601805E+04   -0.10557E-02   -0.11023E-02 10640   0.177E-02 0.379E-03
CGA:  11    -0.128327651659E+04   -0.49854E-03   -0.50414E-03 10640   0.140E-02-0.915E-03
CGA:  12    -0.128327663724E+04   -0.12065E-03   -0.14360E-03 10640   0.206E-03 0.143E-03
CGA:  13    -0.128327668416E+04   -0.46915E-04   -0.48029E-04 10640   0.688E-04 0.239E-04
CGA:  14    -0.128327674702E+04   -0.62863E-04    0.16407E-04 10640   0.745E-04 0.211E-04
CGA:  15    -0.128327681705E+04   -0.70034E-04    0.30808E-04 10640   0.431E-04 0.193E-04
CGA:  16    -0.128327686961E+04   -0.52555E-04    0.78021E-05 10640   0.277E-04 0.186E-04
CGA:  17    -0.128327693141E+04   -0.61804E-04    0.24918E-05 10640   0.207E-04 0.189E-04
CGA:  18    -0.128327692987E+04    0.15411E-05   -0.15366E-05 10640   0.152E-04 0.169E-04
  18 F= -.12832769E+04 E0= -.12832769E+04  d E =0.777168E-01  mag=    47.0000
       N       E                     dE             d eps       ncg     rms          ort
SDA:   1    -0.127167030110E+04    0.11607E+02    0.00000E+00 10640   0.388E+02 0.000E+00
CGA:   2    -0.127898735519E+04   -0.73171E+01   -0.73175E+01 10640   0.135E+02 0.657E-02
CGA:   3    -0.128245144294E+04   -0.34641E+01   -0.34636E+01 10640   0.395E+01 0.398E-01
CGA:   4    -0.128306688857E+04   -0.61545E+00   -0.61759E+00 10640   0.559E+00 0.253E-01
CGA:   5    -0.128318190016E+04   -0.11501E+00   -0.11522E+00 10640   0.162E+00 0.499E-02
CGA:   6    -0.128321120290E+04   -0.29303E-01   -0.29514E-01 10640   0.579E-01 0.423E-02
CGA:   7    -0.128322239270E+04   -0.11190E-01   -0.11139E-01 10640   0.157E-01-0.947E-03
CGA:   8    -0.128322597712E+04   -0.35844E-02   -0.35827E-02 10640   0.631E-02-0.446E-03
CGA:   9    -0.128322707551E+04   -0.10984E-02   -0.11556E-02 10640   0.240E-02 0.121E-02
CGA:  10    -0.128322749350E+04   -0.41799E-03   -0.49040E-03 10640   0.823E-03 0.117E-02
CGA:  11    -0.128322757370E+04   -0.80202E-04   -0.16041E-03 10640   0.507E-03 0.804E-03
CGA:  12    -0.128322759753E+04   -0.23830E-04   -0.62127E-04 10640   0.340E-03 0.372E-03
CGA:  13    -0.128322760763E+04   -0.10097E-04   -0.40275E-04 10640   0.272E-03 0.296E-03
CGA:  14    -0.128322760539E+04    0.22446E-05   -0.26979E-04 10640   0.235E-03 0.252E-03
CGA:  15    -0.128322759999E+04    0.53964E-05   -0.21158E-04 10640   0.210E-03 0.222E-03
CGA:  16    -0.128322759288E+04    0.71112E-05   -0.17211E-04 10640   0.191E-03 0.200E-03
CGA:  17    -0.128322758491E+04    0.79722E-05   -0.14384E-04 10640   0.176E-03 0.183E-03
CGA:  18    -0.128322757656E+04    0.83427E-05   -0.12266E-04 10640   0.164E-03 0.169E-03
CGA:  19    -0.128322756813E+04    0.84332E-05   -0.10621E-04 10640   0.153E-03 0.158E-03
  19 F= -.12832276E+04 E0= -.12832276E+04  d E =0.493617E-01  mag=    47.0000
       N       E                     dE             d eps       ncg     rms          ort
SDA:   1    -0.127727428176E+04    0.59533E+01    0.00000E+00 10640   0.205E+02 0.000E+00
CGA:   2    -0.128110139056E+04   -0.38271E+01   -0.38268E+01 10640   0.713E+01 0.261E-01
CGA:   3    -0.128293056720E+04   -0.18292E+01   -0.18292E+01 10640   0.215E+01-0.640E-02
CGA:   4    -0.128326629383E+04   -0.33573E+00   -0.33553E+00 10640   0.302E+00-0.891E-02
CGA:   5    -0.128332742865E+04   -0.61135E-01   -0.61231E-01 10640   0.928E-01-0.341E-02
CGA:   6    -0.128334400470E+04   -0.16576E-01   -0.16583E-01 10640   0.340E-01-0.291E-02
CGA:   7    -0.128334980658E+04   -0.58019E-02   -0.58037E-02 10640   0.730E-02 0.776E-03
CGA:   8    -0.128335151330E+04   -0.17067E-02   -0.16747E-02 10640   0.220E-02 0.704E-03
CGA:   9    -0.128335152322E+04   -0.99158E-05   -0.17333E-02 10640   0.101E-01-0.321E-02
CGA:  10    -0.128335268941E+04   -0.11662E-02   -0.12241E-02 10640   0.182E-02 0.704E-03
CGA:  11    -0.128335314246E+04   -0.45304E-03   -0.70029E-03 10640   0.244E-02-0.157E-02
CGA:  12    -0.128335343838E+04   -0.29593E-03   -0.29822E-03 10640   0.430E-03 0.306E-04
CGA:  13    -0.128335352042E+04   -0.82043E-04   -0.81252E-04 10640   0.784E-04-0.389E-04
CGA:  14    -0.128335356961E+04   -0.49190E-04    0.10798E-04 10640   0.341E-04 0.186E-04
CGA:  15    -0.128335362809E+04   -0.58476E-04    0.18321E-05 10640   0.193E-04 0.233E-04
CGA:  16    -0.128335366314E+04   -0.35047E-04    0.58316E-06 10640   0.134E-04 0.135E-04
CGA:  17    -0.128335368806E+04   -0.24923E-04    0.39216E-06 10640   0.116E-04 0.116E-04
CGA:  18    -0.128335371557E+04   -0.27508E-04    0.24800E-06 10640   0.103E-04 0.103E-04
CGA:  19    -0.128335373475E+04   -0.19177E-04    0.30080E-06 10640   0.935E-05 0.927E-05
CGA:  20    -0.128335375813E+04   -0.23379E-04    0.18925E-06 10640   0.860E-05 0.831E-05
CGA:  21    -0.128335377287E+04   -0.14740E-04    0.27890E-06 10640   0.802E-05 0.744E-05
CGA:  22    -0.128335379330E+04   -0.20439E-04    0.15880E-06 10640   0.763E-05 0.661E-05
CGA:  23    -0.128335380433E+04   -0.11026E-04    0.31223E-06 10640   0.746E-05 0.577E-05
CGA:  24    -0.128335382262E+04   -0.18294E-04    0.15433E-06 10640   0.757E-05 0.483E-05
CGA:  25    -0.128335383038E+04   -0.77565E-05    0.52147E-06 10640   0.813E-05 0.365E-05
  20 F= -.12833538E+04 E0= -.12833538E+04  d E =-.126262E+00  mag=    47.0000
       N       E                     dE             d eps       ncg     rms          ort
SDA:   1    -0.128076259403E+04    0.25912E+01    0.00000E+00 10640   0.819E+01 0.000E+00
CGA:   2    -0.128230359467E+04   -0.15410E+01   -0.15412E+01 10640   0.286E+01 0.152E-01
CGA:   3    -0.128304115359E+04   -0.73756E+00   -0.73792E+00 10640   0.853E+00-0.909E-02
CGA:   4    -0.128317422375E+04   -0.13307E+00   -0.13284E+00 10640   0.120E+00-0.439E-02
CGA:   5    -0.128319908690E+04   -0.24863E-01   -0.24871E-01 10640   0.363E-01-0.246E-02
CGA:   6    -0.128320569210E+04   -0.66052E-02   -0.65799E-02 10640   0.137E-01-0.124E-02
CGA:   7    -0.128320795766E+04   -0.22656E-02   -0.22746E-02 10640   0.302E-02 0.302E-03
CGA:   8    -0.128320863803E+04   -0.68037E-03   -0.67404E-03 10640   0.889E-03 0.390E-03
CGA:   9    -0.128320831445E+04    0.32358E-03   -0.93703E-03 10640   0.590E-02-0.172E-02
CGA:  10    -0.128320917311E+04   -0.85866E-03   -0.89108E-03 10640   0.129E-02 0.380E-03
CGA:  11    -0.128320946137E+04   -0.28827E-03   -0.54861E-03 10640   0.338E-02-0.159E-02
CGA:  12    -0.128320969510E+04   -0.23372E-03   -0.31174E-03 10640   0.384E-03 0.528E-03
CGA:  13    -0.128320973324E+04   -0.38144E-04   -0.56576E-04 10640   0.137E-03 0.170E-03
CGA:  14    -0.128320977896E+04   -0.45716E-04   -0.45788E-04 10640   0.134E-03-0.729E-04
CGA:  15    -0.128320979959E+04   -0.20634E-04   -0.20327E-04 10640   0.660E-04-0.356E-05
CGA:  16    -0.128320984906E+04   -0.49470E-04    0.10387E-04 10640   0.331E-04 0.243E-04
CGA:  17    -0.128320989533E+04   -0.46272E-04    0.40897E-05 10640   0.412E-04 0.316E-04
CGA:  18    -0.128320989741E+04   -0.20745E-05   -0.44917E-05 10640   0.226E-04 0.206E-04
  21 F= -.12832099E+04 E0= -.12832098E+04  d E =0.143933E+00  mag=    47.0000
       N       E                     dE             d eps       ncg     rms          ort
SDA:   1    -0.127046379920E+04    0.12746E+02    0.00000E+00 10640   0.430E+02 0.000E+00
CGA:   2    -0.127857160258E+04   -0.81078E+01   -0.81144E+01 10640   0.150E+02 0.766E-01
CGA:   3    -0.128240680327E+04   -0.38352E+01   -0.38420E+01 10640   0.453E+01 0.234E-01
CGA:   4    -0.128310216408E+04   -0.69536E+00   -0.69824E+00 10640   0.655E+00 0.276E-01
CGA:   5    -0.128323205810E+04   -0.12989E+00   -0.13046E+00 10640   0.199E+00 0.286E-02
CGA:   6    -0.128326742419E+04   -0.35366E-01   -0.35788E-01 10640   0.655E-01 0.293E-02
CGA:   7    -0.128328044768E+04   -0.13023E-01   -0.12997E-01 10640   0.174E-01-0.228E-04
CGA:   8    -0.128328457699E+04   -0.41293E-02   -0.40296E-02 10640   0.813E-02-0.841E-03
CGA:   9    -0.128328584931E+04   -0.12723E-02   -0.14266E-02 10640   0.296E-02 0.102E-02
CGA:  10    -0.128328646776E+04   -0.61845E-03   -0.72402E-03 10640   0.945E-03 0.909E-03
CGA:  11    -0.128328659473E+04   -0.12697E-03   -0.22519E-03 10640   0.468E-03 0.676E-03
CGA:  12    -0.128328662429E+04   -0.29566E-04   -0.75560E-04 10640   0.294E-03 0.290E-03
CGA:  13    -0.128328665359E+04   -0.29295E-04   -0.54534E-04 10640   0.237E-03 0.199E-03
CGA:  14    -0.128328664147E+04    0.12114E-04   -0.24614E-04 10640   0.181E-03 0.182E-03
CGA:  15    -0.128328663629E+04    0.51816E-05   -0.22938E-04 10640   0.157E-03 0.166E-03
CGA:  16    -0.128328662689E+04    0.94014E-05   -0.17155E-04 10640   0.142E-03 0.149E-03
CGA:  17    -0.128328661757E+04    0.93221E-05   -0.14528E-04 10640   0.130E-03 0.135E-03
CGA:  18    -0.128328660799E+04    0.95729E-05   -0.12278E-04 10640   0.120E-03 0.125E-03
CGA:  19    -0.128328659859E+04    0.94078E-05   -0.10633E-04 10640   0.112E-03 0.116E-03
  22 F= -.12832866E+04 E0= -.12832866E+04  d E =-.767012E-01  mag=    47.0000
       N       E                     dE             d eps       ncg     rms          ort
SDA:   1    -0.128097876271E+04    0.23078E+01    0.00000E+00 10640   0.802E+01 0.000E+00
CGA:   2    -0.128248469221E+04   -0.15059E+01   -0.15063E+01 10640   0.279E+01 0.840E-02
CGA:   3    -0.128320446208E+04   -0.71977E+00   -0.71983E+00 10640   0.833E+00-0.551E-02
CGA:   4    -0.128333623369E+04   -0.13177E+00   -0.13136E+00 10640   0.112E+00-0.500E-02
CGA:   5    -0.128336069800E+04   -0.24464E-01   -0.24439E-01 10640   0.278E-01-0.133E-02
CGA:   6    -0.128336730428E+04   -0.66063E-02   -0.66133E-02 10640   0.935E-02-0.201E-02
CGA:   7    -0.128336852492E+04   -0.12206E-02   -0.13305E-02 10640   0.222E-02 0.133E-02
CGA:   8    -0.128336912386E+04   -0.59894E-03   -0.59909E-03 10640   0.978E-03-0.419E-04
CGA:   9    -0.128336924410E+04   -0.12024E-03   -0.58751E-03 10640   0.295E-02-0.123E-02
CGA:  10    -0.128336965362E+04   -0.40952E-03   -0.42745E-03 10640   0.565E-03 0.172E-03
CGA:  11    -0.128336869216E+04    0.96146E-03   -0.54196E-03 10640   0.123E-01-0.227E-02
CGA:  12    -0.128336977764E+04   -0.10855E-02   -0.12289E-02 10640   0.137E-02 0.854E-03
CGA:  13    -0.128337000656E+04   -0.22892E-03   -0.25893E-03 10640   0.236E-03 0.319E-03
CGA:  14    -0.128337008538E+04   -0.78820E-04   -0.95930E-04 10640   0.552E-03-0.268E-03
CGA:  15    -0.128337009284E+04   -0.74569E-05   -0.38883E-04 10640   0.606E-04 0.160E-03
  23 F= -.12833701E+04 E0= -.12833701E+04  d E =-.834942E-01  mag=    47.0000
       N       E                     dE             d eps       ncg     rms          ort
SDA:   1    -0.128325871999E+04    0.11137E+00    0.00000E+00 10640   0.357E+00 0.000E+00
CGA:   2    -0.128332759497E+04   -0.68875E-01   -0.68909E-01 10640   0.133E+00 0.699E-03
CGA:   3    -0.128336024094E+04   -0.32646E-01   -0.32646E-01 10640   0.452E-01 0.141E-03
CGA:   4    -0.128336693269E+04   -0.66917E-02   -0.65795E-02 10640   0.747E-02-0.109E-02
CGA:   5    -0.128336822177E+04   -0.12891E-02   -0.12768E-02 10640   0.209E-02-0.176E-03
CGA:   6    -0.128336859749E+04   -0.37572E-03   -0.37853E-03 10640   0.567E-03 0.565E-04
CGA:   7    -0.128336873648E+04   -0.13899E-03   -0.13911E-03 10640   0.195E-03-0.308E-04
CGA:   8    -0.128336874504E+04   -0.85688E-05   -0.19295E-04 10640   0.646E-04 0.825E-04
CGA:   9    -0.128336875097E+04   -0.59240E-05   -0.10663E-04 10640   0.400E-04 0.420E-04
CGA:  10    -0.128336877606E+04   -0.25091E-04    0.11063E-04 10640   0.435E-04 0.305E-05
CGA:  11    -0.128336878868E+04   -0.12620E-04   -0.12173E-04 10640   0.155E-04 0.121E-04
CGA:  12    -0.128336878858E+04    0.97014E-07   -0.19569E-05 10640   0.112E-04 0.162E-04
CGA:  13    -0.128336879376E+04   -0.51753E-05   -0.10022E-04 10640   0.634E-04-0.727E-05
  24 F= -.12833688E+04 E0= -.12833688E+04  d E =0.129908E-02  mag=    47.0000
       N       E                     dE             d eps       ncg     rms          ort
SDA:   1    -0.128325215370E+04    0.11663E+00    0.00000E+00 10640   0.378E+00 0.000E+00
CGA:   2    -0.128332516028E+04   -0.73007E-01   -0.72930E-01 10640   0.141E+00-0.137E-02
CGA:   3    -0.128335947519E+04   -0.34315E-01   -0.34312E-01 10640   0.453E-01 0.905E-03
CGA:   4    -0.128336594048E+04   -0.64653E-02   -0.64976E-02 10640   0.731E-02 0.358E-03
CGA:   5    -0.128336714519E+04   -0.12047E-02   -0.12307E-02 10640   0.190E-02 0.385E-03
CGA:   6    -0.128336755205E+04   -0.40686E-03   -0.40762E-03 10640   0.564E-03 0.277E-04
CGA:   7    -0.128336768021E+04   -0.12816E-03   -0.12819E-03 10640   0.165E-03 0.470E-05
CGA:   8    -0.128336771891E+04   -0.38705E-04   -0.38773E-04 10640   0.109E-03-0.260E-04
CGA:   9    -0.128336773525E+04   -0.16336E-04   -0.16639E-04 10640   0.365E-04 0.614E-05
CGA:  10    -0.128336773622E+04   -0.97200E-06   -0.41244E-05 10640   0.204E-04 0.259E-04
  25 F= -.12833677E+04 E0= -.12833677E+04  d E =0.105754E-02  mag=    47.0000
       N       E                     dE             d eps       ncg     rms          ort
SDA:   1    -0.128315201101E+04    0.21572E+00    0.00000E+00 10640   0.707E+00 0.000E+00
CGA:   2    -0.128328570297E+04   -0.13369E+00   -0.13376E+00 10640   0.251E+00 0.275E-02
CGA:   3    -0.128335043465E+04   -0.64732E-01   -0.64829E-01 10640   0.793E-01-0.240E-02
CGA:   4    -0.128336189575E+04   -0.11461E-01   -0.11489E-01 10640   0.123E-01 0.499E-03
CGA:   5    -0.128336425506E+04   -0.23593E-02   -0.23450E-02 10640   0.417E-02-0.607E-03
CGA:   6    -0.128336489890E+04   -0.64384E-03   -0.65236E-03 10640   0.107E-02 0.188E-03
CGA:   7    -0.128336513075E+04   -0.23185E-03   -0.23195E-03 10640   0.240E-03 0.918E-04
CGA:   8    -0.128336520925E+04   -0.78499E-04   -0.91126E-04 10640   0.223E-03-0.894E-04
CGA:   9    -0.128336520879E+04    0.45584E-06   -0.10588E-04 10640   0.134E-03 0.786E-04
CGA:  10    -0.128336521010E+04   -0.13101E-05   -0.12800E-04 10640   0.577E-04 0.830E-04
CGA:  11    -0.128336524219E+04   -0.32092E-04    0.15545E-04 10640   0.209E-04 0.206E-04
CGA:  12    -0.128336524599E+04   -0.38018E-05   -0.44794E-05 10640   0.116E-04 0.153E-04
CGA:  13    -0.128336525111E+04   -0.51123E-05    0.11666E-04 10640   0.887E-05 0.887E-05
  26 F= -.12833653E+04 E0= -.12833652E+04  d E =0.248512E-02  mag=    47.0000
       N       E                     dE             d eps       ncg     rms          ort
SDA:   1    -0.128295161992E+04    0.41363E+00    0.00000E+00 10640   0.138E+01 0.000E+00
CGA:   2    -0.128321076681E+04   -0.25915E+00   -0.25912E+00 10640   0.476E+00-0.143E-02
CGA:   3    -0.128333430613E+04   -0.12354E+00   -0.12337E+00 10640   0.141E+00 0.253E-02
CGA:   4    -0.128335613239E+04   -0.21826E-01   -0.21850E-01 10640   0.208E-01 0.524E-03
CGA:   5    -0.128336008000E+04   -0.39476E-02   -0.39521E-02 10640   0.618E-02 0.449E-03
CGA:   6    -0.128336126806E+04   -0.11881E-02   -0.11857E-02 10640   0.235E-02-0.197E-03
CGA:   7    -0.128336166562E+04   -0.39756E-03   -0.40051E-03 10640   0.477E-03 0.134E-03
CGA:   8    -0.128336178428E+04   -0.11867E-03   -0.11739E-03 10640   0.164E-03 0.364E-04
CGA:   9    -0.128336184122E+04   -0.56938E-04   -0.77985E-04 10640   0.249E-03-0.863E-04
CGA:  10    -0.128336184749E+04   -0.62707E-05   -0.19418E-04 10640   0.584E-04 0.987E-04
  27 F= -.12833618E+04 E0= -.12833618E+04  d E =0.340361E-02  mag=    47.0000
       N       E                     dE             d eps       ncg     rms          ort
SDA:   1    -0.128269427921E+04    0.66756E+00    0.00000E+00 10640   0.224E+01 0.000E+00
CGA:   2    -0.128311093112E+04   -0.41665E+00   -0.41671E+00 10640   0.767E+00 0.557E-02
CGA:   3    -0.128331248722E+04   -0.20156E+00   -0.20175E+00 10640   0.234E+00-0.363E-02
CGA:   4    -0.128334783909E+04   -0.35352E-01   -0.35467E-01 10640   0.322E-01 0.257E-02
CGA:   5    -0.128335474536E+04   -0.69063E-02   -0.69277E-02 10640   0.991E-02-0.145E-02
CGA:   6    -0.128335627577E+04   -0.15304E-02   -0.15654E-02 10640   0.282E-02 0.107E-02
CGA:   7    -0.128335695037E+04   -0.67460E-03   -0.67783E-03 10640   0.902E-03-0.165E-03
CGA:   8    -0.128335712579E+04   -0.17543E-03   -0.17544E-03 10640   0.376E-03-0.704E-06
CGA:   9    -0.128335716532E+04   -0.39531E-04   -0.49647E-04 10640   0.129E-03 0.153E-03
CGA:  10    -0.128335719484E+04   -0.29520E-04   -0.31071E-04 10640   0.771E-04 0.627E-04
CGA:  11    -0.128335722546E+04   -0.30618E-04   -0.42283E-04 10640   0.184E-03-0.666E-04
CGA:  12    -0.128335723231E+04   -0.68468E-05   -0.14841E-04 10640   0.423E-04 0.657E-04
  28 F= -.12833572E+04 E0= -.12833572E+04  d E =0.461518E-02  mag=    47.0000
       N       E                     dE             d eps       ncg     rms          ort
SDA:   1    -0.128251157238E+04    0.84565E+00    0.00000E+00 10640   0.284E+01 0.000E+00
CGA:   2    -0.128304278355E+04   -0.53121E+00   -0.53120E+00 10640   0.979E+00-0.157E-02
CGA:   3    -0.128329774955E+04   -0.25497E+00   -0.25468E+00 10640   0.286E+00 0.335E-02
CGA:   4    -0.128334244871E+04   -0.44699E-01   -0.44733E-01 10640   0.399E-01 0.937E-03
CGA:   5    -0.128335062750E+04   -0.81788E-02   -0.81730E-02 10640   0.110E-01 0.501E-03
CGA:   6    -0.128335285891E+04   -0.22314E-02   -0.22344E-02 10640   0.456E-02-0.350E-03
CGA:   7    -0.128335354787E+04   -0.68897E-03   -0.69789E-03 10640   0.966E-03 0.261E-03
CGA:   8    -0.128335378974E+04   -0.24187E-03   -0.24017E-03 10640   0.340E-03 0.395E-04
CGA:   9    -0.128335389941E+04   -0.10967E-03   -0.15654E-03 10640   0.505E-03-0.188E-03
CGA:  10    -0.128335392214E+04   -0.22732E-04   -0.43854E-04 10640   0.103E-03 0.178E-03
CGA:  11    -0.128335392687E+04   -0.47321E-05   -0.12303E-04 10640   0.531E-04 0.679E-04
CGA:  12    -0.128335394955E+04   -0.22678E-04    0.52732E-04 10640   0.298E-04 0.196E-04
CGA:  13    -0.128335395092E+04   -0.13659E-05   -0.41333E-05 10640   0.166E-04 0.297E-04
  29 F= -.12833540E+04 E0= -.12833539E+04  d E =0.328139E-02  mag=    47.0000
       N       E                     dE             d eps       ncg     rms          ort
SDA:   1    -0.128251433351E+04    0.83962E+00    0.00000E+00 10640   0.281E+01 0.000E+00
CGA:   2    -0.128304080221E+04   -0.52647E+00   -0.52645E+00 10640   0.975E+00 0.588E-02
CGA:   3    -0.128329463176E+04   -0.25383E+00   -0.25401E+00 10640   0.295E+00-0.315E-02
CGA:   4    -0.128333930832E+04   -0.44677E-01   -0.44788E-01 10640   0.404E-01 0.343E-02
CGA:   5    -0.128334801635E+04   -0.87080E-02   -0.87552E-02 10640   0.123E-01-0.165E-02
CGA:   6    -0.128334994767E+04   -0.19313E-02   -0.19585E-02 10640   0.349E-02 0.132E-02
CGA:   7    -0.128335077887E+04   -0.83121E-03   -0.83787E-03 10640   0.114E-02-0.216E-03
CGA:   8    -0.128335099364E+04   -0.21477E-03   -0.21448E-03 10640   0.452E-03 0.252E-04
CGA:   9    -0.128335104564E+04   -0.51998E-04   -0.62225E-04 10640   0.156E-03 0.191E-03
CGA:  10    -0.128335107968E+04   -0.34037E-04   -0.36031E-04 10640   0.875E-04 0.856E-04
CGA:  11    -0.128335103329E+04    0.46389E-04   -0.63029E-04 10640   0.149E-02-0.204E-03
CGA:  12    -0.128335112308E+04   -0.89790E-04   -0.11540E-03 10640   0.535E-04 0.196E-03
CGA:  13    -0.128335111989E+04    0.31909E-05   -0.29185E-05 10640   0.278E-04 0.391E-04
  30 F= -.12833511E+04 E0= -.12833511E+04  d E =0.283103E-02  mag=    47.0000
       N       E                     dE             d eps       ncg     rms          ort
SDA:   1    -0.128272374587E+04    0.62738E+00    0.00000E+00 10640   0.210E+01 0.000E+00
CGA:   2    -0.128311892098E+04   -0.39518E+00   -0.39517E+00 10640   0.729E+00-0.157E-02
CGA:   3    -0.128330802122E+04   -0.18910E+00   -0.18885E+00 10640   0.210E+00 0.299E-02
CGA:   4    -0.128334122096E+04   -0.33200E-01   -0.33197E-01 10640   0.289E-01-0.313E-04
CGA:   5    -0.128334731587E+04   -0.60949E-02   -0.60837E-02 10640   0.686E-02 0.587E-03
CGA:   6    -0.128334906358E+04   -0.17477E-02   -0.17964E-02 10640   0.278E-02-0.751E-03
CGA:   7    -0.128334936585E+04   -0.30227E-03   -0.33283E-03 10640   0.648E-03 0.505E-03
CGA:   8    -0.128334951369E+04   -0.14784E-03   -0.14780E-03 10640   0.286E-03 0.679E-04
CGA:   9    -0.128334830160E+04    0.12121E-02   -0.65319E-03 10640   0.100E-01-0.150E-02
CGA:  10    -0.128334917536E+04   -0.87376E-03   -0.10695E-02 10640   0.129E-02 0.887E-03
CGA:  11    -0.128334953027E+04   -0.35491E-03   -0.35593E-03 10640   0.320E-03 0.126E-04
CGA:  12    -0.128334962596E+04   -0.95692E-04   -0.14072E-03 10640   0.130E-02-0.443E-03
CGA:  13    -0.128334966489E+04   -0.38930E-04   -0.10962E-03 10640   0.114E-03 0.284E-03
CGA:  14    -0.128334966110E+04    0.37959E-05   -0.11239E-04 10640   0.471E-04 0.613E-04
CGA:  15    -0.128334969408E+04   -0.32981E-04    0.66188E-04 10640   0.260E-04 0.101E-05
CGA:  16    -0.128334969142E+04    0.26572E-05   -0.16173E-05 10640   0.114E-04 0.169E-04
  31 F= -.12833497E+04 E0= -.12833497E+04  d E =0.142847E-02  mag=    47.0000
       N       E                     dE             d eps       ncg     rms          ort
SDA:   1    -0.128301624932E+04    0.33344E+00    0.00000E+00 10640   0.109E+01 0.000E+00
CGA:   2    -0.128322441315E+04   -0.20816E+00   -0.20829E+00 10640   0.389E+00 0.180E-02
CGA:   3    -0.128332506389E+04   -0.10065E+00   -0.10064E+00 10640   0.111E+00-0.870E-03
CGA:   4    -0.128334202480E+04   -0.16961E-01   -0.17101E-01 10640   0.153E-01 0.114E-02
CGA:   5    -0.128334548036E+04   -0.34556E-02   -0.34277E-02 10640   0.412E-02-0.513E-03
CGA:   6    -0.128334614893E+04   -0.66857E-03   -0.72266E-03 10640   0.106E-02 0.593E-03
CGA:   7    -0.128334648199E+04   -0.33305E-03   -0.33617E-03 10640   0.630E-03-0.335E-03
CGA:   8    -0.128334649693E+04   -0.14946E-04   -0.44136E-04 10640   0.281E-03 0.176E-03
CGA:   9    -0.128334650189E+04   -0.49590E-05   -0.30922E-04 10640   0.123E-03 0.149E-03
CGA:  10    -0.128334586930E+04    0.63259E-03   -0.34073E-03 10640   0.548E-02-0.602E-03
CGA:  11    -0.128334628461E+04   -0.41531E-03   -0.59167E-03 10640   0.721E-03 0.571E-03
CGA:  12    -0.128334648299E+04   -0.19838E-03   -0.19072E-03 10640   0.884E-04-0.373E-04
CGA:  13    -0.128334619340E+04    0.28959E-03   -0.99110E-04 10640   0.458E-02-0.517E-03
CGA:  14    -0.128334644194E+04   -0.24855E-03   -0.42152E-03 10640   0.235E-03 0.517E-03
CGA:  15    -0.128334646137E+04   -0.19427E-04   -0.38692E-04 10640   0.850E-04 0.637E-04
CGA:  16    -0.128334650173E+04   -0.40357E-04   -0.54530E-04 10640   0.442E-03-0.206E-03
CGA:  17    -0.128334649467E+04    0.70553E-05   -0.39901E-04 10640   0.771E-04 0.136E-03
CGA:  18    -0.128334649112E+04    0.35539E-05   -0.10062E-04 10640   0.321E-04 0.423E-04
CGA:  19    -0.128334653225E+04   -0.41130E-04    0.11318E-04 10640   0.920E-04-0.312E-04
CGA:  20    -0.128334652121E+04    0.11042E-04   -0.47160E-05 10640   0.222E-04 0.447E-04
CGA:  21    -0.128334651534E+04    0.58661E-05   -0.97802E-06 10640   0.796E-05 0.191E-04
  32 F= -.12833465E+04 E0= -.12833465E+04  d E =0.317608E-02  mag=    47.0000
       N       E                     dE             d eps       ncg     rms          ort
SDA:   1    -0.128306247591E+04    0.28405E+00    0.00000E+00 10640   0.840E+00 0.000E+00
CGA:   2    -0.128325065600E+04   -0.18818E+00   -0.18800E+00 10640   0.369E+00-0.127E-02
CGA:   3    -0.128333720813E+04   -0.86552E-01   -0.86745E-01 10640   0.778E-01 0.164E-02
CGA:   4    -0.128334977378E+04   -0.12566E-01   -0.12417E-01 10640   0.136E-01-0.826E-03
CGA:   5    -0.128335232418E+04   -0.25504E-02   -0.26202E-02 10640   0.333E-02 0.523E-03
CGA:   6    -0.128335317758E+04   -0.85340E-03   -0.80768E-03 10640   0.162E-02-0.496E-03
CGA:   7    -0.128335334245E+04   -0.16487E-03   -0.19598E-03 10640   0.357E-03 0.177E-03
CGA:   8    -0.128335340289E+04   -0.60443E-04   -0.69701E-04 10640   0.153E-03 0.685E-04
CGA:   9    -0.128335319014E+04    0.21275E-03   -0.16310E-03 10640   0.318E-02-0.634E-03
CGA:  10    -0.128335340048E+04   -0.21034E-03   -0.31076E-03 10640   0.388E-03 0.439E-03
CGA:  11    -0.128335347777E+04   -0.77281E-04   -0.85778E-04 10640   0.109E-03 0.663E-04
CGA:  12    -0.128335063223E+04    0.28455E-02   -0.15707E-02 10640   0.274E-01-0.178E-02
CGA:  13    -0.128335291330E+04   -0.22811E-02   -0.26477E-02 10640   0.169E-02 0.163E-02
CGA:  14    -0.128335336261E+04   -0.44931E-03   -0.48671E-03 10640   0.513E-03 0.134E-03
CGA:  15    -0.128335355306E+04   -0.19046E-03   -0.99098E-04 10640   0.254E-03-0.255E-03
CGA:  16    -0.128335355295E+04    0.11092E-06   -0.17152E-04 10640   0.876E-04 0.452E-04
  33 F= -.12833536E+04 E0= -.12833535E+04  d E =-.703761E-02  mag=    47.0000
       N       E                     dE             d eps       ncg     rms          ort
SDA:   1    -0.128327651642E+04    0.77037E-01    0.00000E+00 10640   0.230E+00 0.000E+00
CGA:   2    -0.128332056552E+04   -0.44049E-01   -0.44004E-01 10640   0.794E-01-0.125E-03
CGA:   3    -0.128334136943E+04   -0.20804E-01   -0.20874E-01 10640   0.220E-01 0.290E-03
CGA:   4    -0.128334491976E+04   -0.35503E-02   -0.35424E-02 10640   0.333E-02-0.264E-04
CGA:   5    -0.128334551215E+04   -0.59239E-03   -0.64247E-03 10640   0.759E-03 0.204E-03
CGA:   6    -0.128334569908E+04   -0.18693E-03   -0.18428E-03 10640   0.342E-03-0.128E-04
CGA:   7    -0.128334573599E+04   -0.36908E-04   -0.49046E-04 10640   0.791E-04 0.450E-04
CGA:   8    -0.128334574706E+04   -0.11074E-04   -0.16105E-04 10640   0.265E-04 0.225E-04
CGA:   9    -0.128334575640E+04   -0.93309E-05   -0.93735E-05 10640   0.246E-04 0.391E-06
  34 F= -.12833458E+04 E0= -.12833457E+04  d E =0.779656E-02  mag=    47.0000
       N       E                     dE             d eps       ncg     rms          ort
SDA:   1    -0.128308612292E+04    0.25962E+00    0.00000E+00 10640   0.735E+00 0.000E+00
CGA:   2    -0.128326018294E+04   -0.17406E+00   -0.17397E+00 10640   0.333E+00-0.704E-03
CGA:   3    -0.128333741189E+04   -0.77229E-01   -0.77372E-01 10640   0.621E-01 0.916E-03
CGA:   4    -0.128334730029E+04   -0.98884E-02   -0.98304E-02 10640   0.129E-01-0.280E-03
CGA:   5    -0.128334957278E+04   -0.22725E-02   -0.22949E-02 10640   0.378E-02 0.145E-03
CGA:   6    -0.128335028059E+04   -0.70781E-03   -0.69827E-03 10640   0.122E-02-0.562E-04
CGA:   7    -0.128335055869E+04   -0.27810E-03   -0.26741E-03 10640   0.362E-03-0.969E-04
CGA:   8    -0.128335060872E+04   -0.50033E-04   -0.57315E-04 10640   0.120E-03 0.479E-04
CGA:   9    -0.128335065752E+04   -0.48801E-04   -0.61263E-04 10640   0.206E-03-0.951E-04
CGA:  10    -0.128335067019E+04   -0.12667E-04   -0.22471E-04 10640   0.396E-04 0.458E-04
CGA:  11    -0.128335068159E+04   -0.11403E-04   -0.10806E-04 10640   0.123E-04-0.657E-05
CGA:  12    -0.128335069357E+04   -0.11982E-04    0.17810E-05 10640   0.947E-05-0.154E-05
CGA:  13    -0.128335069251E+04    0.10649E-05   -0.45985E-06 10640   0.603E-05 0.600E-05
  35 F= -.12833507E+04 E0= -.12833507E+04  d E =-.493611E-02  mag=    47.0000
       N       E                     dE             d eps       ncg     rms          ort
SDA:   1    -0.128330225270E+04    0.48441E-01    0.00000E+00 10640   0.113E+00 0.000E+00
CGA:   2    -0.128332819861E+04   -0.25946E-01   -0.25970E-01 10640   0.483E-01 0.451E-03
CGA:   3    -0.128333994972E+04   -0.11751E-01   -0.11726E-01 10640   0.994E-02-0.668E-03
CGA:   4    -0.128334145427E+04   -0.15045E-02   -0.15479E-02 10640   0.172E-02 0.359E-03
CGA:   5    -0.128334187344E+04   -0.41916E-03   -0.41056E-03 10640   0.563E-03-0.196E-03
CGA:   6    -0.128334192629E+04   -0.52854E-04   -0.68825E-04 10640   0.165E-03 0.121E-03
CGA:   7    -0.128334196147E+04   -0.35177E-04   -0.36754E-04 10640   0.486E-04 0.195E-04
CGA:   8    -0.128334199280E+04   -0.31336E-04    0.66556E-04 10640   0.433E-04-0.127E-04
CGA:   9    -0.128334199067E+04    0.21350E-05   -0.18692E-05 10640   0.271E-04 0.198E-04
  36 F= -.12833420E+04 E0= -.12833420E+04  d E =0.870184E-02  mag=    47.0000
       N       E                     dE             d eps       ncg     rms          ort
SDA:   1    -0.128305988068E+04    0.28211E+00    0.00000E+00 10640   0.754E+00 0.000E+00
CGA:   2    -0.128325447556E+04   -0.19459E+00   -0.19461E+00 10640   0.356E+00-0.109E-02
CGA:   3    -0.128333322912E+04   -0.78754E-01   -0.78785E-01 10640   0.551E-01 0.146E-02
CGA:   4    -0.128334282472E+04   -0.95956E-02   -0.95625E-02 10640   0.115E-01-0.495E-03
CGA:   5    -0.128334496726E+04   -0.21425E-02   -0.21630E-02 10640   0.279E-02 0.451E-03
CGA:   6    -0.128334561082E+04   -0.64356E-03   -0.63844E-03 10640   0.148E-02-0.359E-03
CGA:   7    -0.128334579345E+04   -0.18262E-03   -0.18731E-03 10640   0.324E-03 0.555E-04
CGA:   8    -0.128334585977E+04   -0.66325E-04   -0.67743E-04 10640   0.124E-03 0.521E-04
CGA:   9    -0.128334552596E+04    0.33382E-03   -0.15113E-03 10640   0.401E-02-0.590E-03
CGA:  10    -0.128334582634E+04   -0.30039E-03   -0.36302E-03 10640   0.390E-03 0.376E-03
CGA:  11    -0.128334590160E+04   -0.75257E-04   -0.81338E-04 10640   0.108E-03 0.883E-04
CGA:  12    -0.128334575922E+04    0.14238E-03   -0.94261E-04 10640   0.269E-02-0.518E-03
CGA:  13    -0.128334590898E+04   -0.14976E-03   -0.22072E-03 10640   0.179E-03 0.380E-03
CGA:  14    -0.128334591421E+04   -0.52307E-05   -0.20906E-04 10640   0.882E-04 0.940E-04
CGA:  15    -0.128334525009E+04    0.66411E-03   -0.35859E-03 10640   0.673E-02-0.579E-03
CGA:  16    -0.128334576054E+04   -0.51045E-03   -0.62774E-03 10640   0.557E-03 0.409E-03
CGA:  17    -0.128334588817E+04   -0.12763E-03   -0.14701E-03 10640   0.148E-03 0.935E-04
CGA:  18    -0.128334597553E+04   -0.87354E-04   -0.50344E-04 10640   0.428E-03-0.239E-03
CGA:  19    -0.128334596504E+04    0.10487E-04   -0.30106E-04 10640   0.368E-04 0.113E-03
CGA:  20    -0.128334595753E+04    0.75066E-05   -0.19696E-05 10640   0.135E-04 0.252E-04
  37 F= -.12833460E+04 E0= -.12833459E+04  d E =-.396686E-02  mag=    47.0000
       N       E                     dE             d eps       ncg     rms          ort
SDA:   1    -0.128333636077E+04    0.96043E-02    0.00000E+00 10640   0.169E-01 0.000E+00
CGA:   2    -0.128334045384E+04   -0.40931E-02   -0.40774E-02 10640   0.754E-02-0.110E-03
CGA:   3    -0.128334213766E+04   -0.16838E-02   -0.16973E-02 10640   0.145E-02 0.878E-04
CGA:   4    -0.128334242578E+04   -0.28812E-03   -0.26170E-03 10640   0.358E-03-0.138E-03
CGA:   5    -0.128334244975E+04   -0.23973E-04   -0.42288E-04 10640   0.737E-04 0.803E-04
CGA:   6    -0.128334246184E+04   -0.12086E-04   -0.14812E-04 10640   0.273E-04 0.148E-04
CGA:   7    -0.128334240921E+04    0.52629E-04   -0.32911E-04 10640   0.599E-03-0.128E-03
CGA:   8    -0.128334242880E+04   -0.19592E-04   -0.57252E-04 10640   0.100E-03 0.138E-03
CGA:   9    -0.128334244632E+04   -0.17520E-04   -0.21430E-04 10640   0.441E-04 0.212E-04
CGA:  10    -0.128334248669E+04   -0.40373E-04    0.11697E-03 10640   0.129E-03-0.700E-04
CGA:  11    -0.128334247841E+04    0.82838E-05   -0.79062E-05 10640   0.286E-04 0.565E-04
  38 F= -.12833425E+04 E0= -.12833425E+04  d E =0.347913E-02  mag=    47.0000
       N       E                     dE             d eps       ncg     rms          ort
SDA:   1    -0.128328952313E+04    0.52964E-01    0.00000E+00 10640   0.115E+00 0.000E+00
CGA:   2    -0.128331831178E+04   -0.28789E-01   -0.28797E-01 10640   0.534E-01 0.123E-03
CGA:   3    -0.128332977172E+04   -0.11460E-01   -0.11460E-01 10640   0.126E-01-0.239E-05
CGA:   4    -0.128333160791E+04   -0.18362E-02   -0.18253E-02 10640   0.269E-02-0.472E-04
CGA:   5    -0.128333206506E+04   -0.45716E-03   -0.46450E-03 10640   0.617E-03 0.600E-04
CGA:   6    -0.128333218695E+04   -0.12189E-03   -0.12390E-03 10640   0.183E-03 0.206E-04
CGA:   7    -0.128333223456E+04   -0.47612E-04   -0.46787E-04 10640   0.746E-04-0.182E-04
CGA:   8    -0.128333223618E+04   -0.16190E-05   -0.69107E-05 10640   0.248E-04 0.285E-04
  39 F= -.12833322E+04 E0= -.12833322E+04  d E =0.102422E-01  mag=    47.0000
       N       E                     dE             d eps       ncg     rms          ort
SDA:   1    -0.128327499677E+04    0.57238E-01    0.00000E+00 10640   0.119E+00 0.000E+00
CGA:   2    -0.128330618805E+04   -0.31191E-01   -0.31201E-01 10640   0.562E-01 0.108E-02
CGA:   3    -0.128331786373E+04   -0.11676E-01   -0.11615E-01 10640   0.143E-01-0.946E-03
CGA:   4    -0.128331970832E+04   -0.18446E-02   -0.18981E-02 10640   0.272E-02 0.450E-03
CGA:   5    -0.128332028090E+04   -0.57258E-03   -0.56563E-03 10640   0.682E-03-0.113E-03
CGA:   6    -0.128332042973E+04   -0.14883E-03   -0.14594E-03 10640   0.279E-03-0.820E-04
CGA:   7    -0.128332045323E+04   -0.23504E-04   -0.32061E-04 10640   0.712E-04 0.682E-04
CGA:   8    -0.128332046365E+04   -0.10417E-04   -0.12998E-04 10640   0.288E-04 0.249E-04
CGA:   9    -0.128332047450E+04   -0.10854E-04   -0.13362E-04 10640   0.674E-04-0.253E-04
CGA:  10    -0.128332047676E+04   -0.22618E-05   -0.56496E-05 10640   0.129E-04 0.205E-04
  40 F= -.12833205E+04 E0= -.12833205E+04  d E =0.117594E-01  mag=    47.0000
       N       E                     dE             d eps       ncg     rms          ort
SDA:   1    -0.128325552672E+04    0.64948E-01    0.00000E+00 10640   0.135E+00 0.000E+00
CGA:   2    -0.128329137483E+04   -0.35848E-01   -0.35811E-01 10640   0.609E-01 0.122E-02
CGA:   3    -0.128330468552E+04   -0.13311E-01   -0.13293E-01 10640   0.122E-01-0.861E-03
CGA:   4    -0.128330648268E+04   -0.17972E-02   -0.18364E-02 10640   0.254E-02 0.484E-03
[...]
CGA:   7    -0.128300957278E+04   -0.13748E-02   -0.13926E-02 10640   0.213E-02 0.103E-03
CGA:   8    -0.128301007848E+04   -0.50570E-03   -0.50788E-03 10640   0.978E-03 0.198E-04
CGA:   9    -0.128301037181E+04   -0.29333E-03   -0.27943E-03 10640   0.799E-03-0.184E-03
CGA:  10    -0.128301049756E+04   -0.12575E-03   -0.12526E-03 10640   0.275E-03-0.169E-05
CGA:  11    -0.128301060730E+04   -0.10974E-03   -0.13049E-03 10640   0.322E-03-0.160E-03
CGA:  12    -0.128301065831E+04   -0.51012E-04   -0.56226E-04 10640   0.935E-04 0.297E-04
CGA:  13    -0.128301067398E+04   -0.15675E-04   -0.19639E-04 10640   0.403E-04 0.262E-04
CGA:  14    -0.128301054169E+04    0.13229E-03   -0.75540E-04 10640   0.114E-02-0.133E-03
CGA:  15    -0.128301068504E+04   -0.14335E-03   -0.17607E-03 10640   0.258E-03 0.749E-04
CGA:  16    -0.128301078618E+04   -0.10113E-03   -0.86963E-04 10640   0.152E-03-0.514E-04
CGA:  17    -0.128301080855E+04   -0.22377E-04   -0.21863E-04 10640   0.664E-04-0.999E-06
CGA:  18    -0.128301082910E+04   -0.20543E-04   -0.18612E-04 10640   0.385E-04-0.707E-05
CGA:  19    -0.128301083958E+04   -0.10483E-04   -0.24765E-04 10640   0.341E-03-0.807E-04
CGA:  20    -0.128301085840E+04   -0.18816E-04   -0.37512E-04 10640   0.327E-04 0.433E-04
CGA:  21    -0.128301086956E+04   -0.11168E-04   -0.10671E-04 10640   0.239E-04-0.206E-05
CGA:  22    -0.128301088062E+04   -0.11051E-04   -0.77281E-05 10640   0.374E-04-0.193E-04
CGA:  23    -0.128301088147E+04   -0.85574E-06   -0.45586E-05 10640   0.875E-05 0.964E-05
  51 F= -.12830109E+04 E0= -.12830109E+04  d E =0.615873E-01  mag=    47.0000
       N       E                     dE             d eps       ncg     rms          ort
SDA:   1    -0.127971408999E+04    0.32968E+01    0.00000E+00 10640   0.841E+01 0.000E+00
CGA:   2    -0.128195539710E+04   -0.22413E+01   -0.22419E+01 10640   0.395E+01-0.804E-03
CGA:   3    -0.128280074345E+04   -0.84535E+00   -0.84561E+00 10640   0.674E+00 0.824E-04
CGA:   4    -0.128291273909E+04   -0.11200E+00   -0.11161E+00 10640   0.150E+00-0.417E-03
CGA:   5    -0.128293943387E+04   -0.26695E-01   -0.26801E-01 10640   0.430E-01 0.623E-03
CGA:   6    -0.128294718171E+04   -0.77478E-02   -0.76765E-02 10640   0.143E-01-0.204E-03
CGA:   7    -0.128295022108E+04   -0.30394E-02   -0.29906E-02 10640   0.377E-02-0.212E-03
CGA:   8    -0.128295106059E+04   -0.83951E-03   -0.85281E-03 10640   0.174E-02 0.782E-04
CGA:   9    -0.128295157764E+04   -0.51705E-03   -0.47912E-03 10640   0.128E-02-0.274E-03
CGA:  10    -0.128295180790E+04   -0.23026E-03   -0.22143E-03 10640   0.491E-03-0.426E-04
CGA:  11    -0.128295198449E+04   -0.17659E-03   -0.17265E-03 10640   0.367E-03-0.153E-03
CGA:  12    -0.128295206961E+04   -0.85119E-04   -0.70662E-04 10640   0.369E-03-0.132E-03
CGA:  13    -0.128295211721E+04   -0.47598E-04   -0.50453E-04 10640   0.182E-03 0.168E-04
CGA:  14    -0.128295217635E+04   -0.59143E-04   -0.58803E-04 10640   0.239E-03-0.548E-05
CGA:  15    -0.128295225872E+04   -0.82372E-04   -0.78104E-04 10640   0.315E-03-0.123E-03
CGA:  16    -0.128295228734E+04   -0.28623E-04   -0.42261E-04 10640   0.105E-03 0.584E-04
CGA:  17    -0.128295231843E+04   -0.31085E-04   -0.31042E-04 10640   0.279E-04-0.403E-06
CGA:  18    -0.128295234223E+04   -0.23807E-04    0.22735E-04 10640   0.336E-04 0.264E-05
CGA:  19    -0.128295234294E+04   -0.70181E-06   -0.52784E-05 10640   0.171E-04 0.218E-04
  52 F= -.12829523E+04 E0= -.12829523E+04  d E =0.585385E-01  mag=    47.0000
       N       E                     dE             d eps       ncg     rms          ort
SDA:   1    -0.127872474837E+04    0.42276E+01    0.00000E+00 10640   0.113E+02 0.000E+00
CGA:   2    -0.128154102279E+04   -0.28163E+01   -0.28164E+01 10640   0.522E+01-0.153E-02
CGA:   3    -0.128271056789E+04   -0.11695E+01   -0.11697E+01 10640   0.916E+00 0.132E-02
CGA:   4    -0.128286011194E+04   -0.14954E+00   -0.14921E+00 10640   0.199E+00-0.248E-02
CGA:   5    -0.128289539017E+04   -0.35278E-01   -0.35456E-01 10640   0.572E-01 0.174E-02
CGA:   6    -0.128290582229E+04   -0.10432E-01   -0.10366E-01 10640   0.190E-01-0.436E-03
CGA:   7    -0.128290983245E+04   -0.40102E-02   -0.39616E-02 10640   0.522E-02-0.498E-03
CGA:   8    -0.128291090985E+04   -0.10774E-02   -0.10876E-02 10640   0.235E-02 0.129E-03
CGA:   9    -0.128291160367E+04   -0.69382E-03   -0.68787E-03 10640   0.192E-02-0.549E-03
CGA:  10    -0.128291190855E+04   -0.30488E-03   -0.29556E-03 10640   0.733E-03-0.949E-04
CGA:  11    -0.128291214568E+04   -0.23712E-03   -0.24876E-03 10640   0.432E-03-0.176E-03
CGA:  12    -0.128291154331E+04    0.60236E-03   -0.37363E-03 10640   0.765E-02-0.115E-02
CGA:  13    -0.128291219261E+04   -0.64930E-03   -0.81116E-03 10640   0.959E-03 0.759E-03
CGA:  14    -0.128291246012E+04   -0.26751E-03   -0.27135E-03 10640   0.375E-03 0.571E-04
CGA:  15    -0.128291259086E+04   -0.13075E-03   -0.14069E-03 10640   0.841E-03-0.307E-03
CGA:  16    -0.128291260638E+04   -0.15522E-04   -0.70071E-04 10640   0.115E-03 0.231E-03
CGA:  17    -0.128291260126E+04    0.51238E-05   -0.11897E-04 10640   0.673E-04 0.742E-04
CGA:  18    -0.128291264285E+04   -0.41585E-04    0.32076E-03 10640   0.499E-04 0.244E-04
CGA:  19    -0.128291264230E+04    0.54220E-06   -0.79030E-05 10640   0.257E-04 0.460E-04
  53 F= -.12829126E+04 E0= -.12829126E+04  d E =0.397006E-01  mag=    47.0000
       N       E                     dE             d eps       ncg     rms          ort
SDA:   1    -0.127857789856E+04    0.43347E+01    0.00000E+00 10640   0.116E+02 0.000E+00
CGA:   2    -0.128147526334E+04   -0.28974E+01   -0.28974E+01 10640   0.540E+01-0.174E-02
CGA:   3    -0.128268744378E+04   -0.12122E+01   -0.12124E+01 10640   0.937E+00 0.260E-02
CGA:   4    -0.128284093750E+04   -0.15349E+00   -0.15342E+00 10640   0.199E+00-0.704E-03
CGA:   5    -0.128287705011E+04   -0.36113E-01   -0.36212E-01 10640   0.592E-01 0.136E-02
CGA:   6    -0.128288749279E+04   -0.10443E-01   -0.10391E-01 10640   0.198E-01-0.460E-03
CGA:   7    -0.128289167153E+04   -0.41787E-02   -0.41448E-02 10640   0.525E-02-0.622E-03
CGA:   8    -0.128289281020E+04   -0.11387E-02   -0.11447E-02 10640   0.230E-02 0.172E-03
CGA:   9    -0.128289347311E+04   -0.66291E-03   -0.67658E-03 10640   0.209E-02-0.544E-03
CGA:  10    -0.128289375230E+04   -0.27919E-03   -0.28007E-03 10640   0.712E-03 0.144E-04
CGA:  11    -0.128289394583E+04   -0.19353E-03   -0.19327E-03 10640   0.422E-03 0.203E-04
CGA:  12    -0.128289404762E+04   -0.10179E-03   -0.16411E-03 10640   0.160E-02-0.514E-03
CGA:  13    -0.128289413295E+04   -0.85338E-04   -0.13451E-03 10640   0.194E-03 0.282E-03
CGA:  14    -0.128289414657E+04   -0.13611E-04   -0.28471E-04 10640   0.138E-03 0.114E-03
CGA:  15    -0.128289324410E+04    0.90246E-03   -0.48731E-03 10640   0.132E-01-0.824E-03
CGA:  16    -0.128289422423E+04   -0.98012E-03   -0.11295E-02 10640   0.295E-03 0.624E-03
CGA:  17    -0.128289424662E+04   -0.22392E-04   -0.50574E-04 10640   0.139E-03 0.105E-03
CGA:  18    -0.128289432452E+04   -0.77896E-04   -0.73989E-04 10640   0.245E-03-0.140E-03
CGA:  19    -0.128289433124E+04   -0.67289E-05   -0.25208E-04 10640   0.663E-04 0.591E-04
CGA:  20    -0.128289434424E+04   -0.12992E-04   -0.18072E-04 10640   0.461E-04 0.276E-04
CGA:  21    -0.128289434757E+04   -0.33301E-05   -0.43202E-04 10640   0.788E-03-0.149E-03
CGA:  22    -0.128289438829E+04   -0.40724E-04   -0.71618E-04 10640   0.912E-04 0.101E-03
CGA:  23    -0.128289440594E+04   -0.17646E-04   -0.22606E-04 10640   0.609E-04 0.288E-04
CGA:  24    -0.128289442201E+04   -0.16075E-04   -0.43042E-04 10640   0.587E-03-0.175E-03
CGA:  25    -0.128289444485E+04   -0.22842E-04   -0.51929E-04 10640   0.739E-04 0.989E-04
CGA:  26    -0.128289444921E+04   -0.43589E-05   -0.12980E-04 10640   0.508E-04 0.383E-04
CGA:  27    -0.128289332870E+04    0.11205E-02   -0.61500E-03 10640   0.141E-01-0.622E-03
CGA:  28    -0.128289443520E+04   -0.11065E-02   -0.12487E-02 10640   0.283E-03 0.583E-03
CGA:  29    -0.128289446578E+04   -0.30577E-04   -0.60995E-04 10640   0.150E-03 0.714E-04
CGA:  30    -0.128289455495E+04   -0.89179E-04   -0.55567E-04 10640   0.116E-03-0.105E-03
CGA:  31    -0.128289454674E+04    0.82161E-05   -0.90657E-05 10640   0.185E-04 0.337E-04
  54 F= -.12828945E+04 E0= -.12828945E+04  d E =0.180956E-01  mag=    47.0000
       N       E                     dE             d eps       ncg     rms          ort
SDA:   1    -0.128158317274E+04    0.13114E+01    0.00000E+00 10640   0.356E+01 0.000E+00
CGA:   2    -0.128246054841E+04   -0.87738E+00   -0.87735E+00 10640   0.166E+01-0.139E-03
CGA:   3    -0.128283366903E+04   -0.37312E+00   -0.37319E+00 10640   0.286E+00-0.154E-03
CGA:   4    -0.128288130072E+04   -0.47632E-01   -0.47525E-01 10640   0.549E-01-0.366E-03
CGA:   5    -0.128289236205E+04   -0.11061E-01   -0.11216E-01 10640   0.130E-01 0.560E-03
CGA:   6    -0.128289530003E+04   -0.29380E-02   -0.28442E-02 10640   0.510E-02-0.352E-03
CGA:   7    -0.128289606331E+04   -0.76328E-03   -0.81763E-03 10640   0.139E-02 0.188E-03
CGA:   8    -0.128289644318E+04   -0.37987E-03   -0.36456E-03 10640   0.681E-03-0.736E-04
CGA:   9    -0.128289663961E+04   -0.19643E-03   -0.17966E-03 10640   0.543E-03-0.990E-04
CGA:  10    -0.128289670692E+04   -0.67306E-04   -0.78953E-04 10640   0.191E-03 0.443E-04
CGA:  11    -0.128289677218E+04   -0.65270E-04   -0.64084E-04 10640   0.139E-03-0.106E-04
CGA:  12    -0.128289681632E+04   -0.44134E-04   -0.36435E-04 10640   0.195E-03-0.543E-04
CGA:  13    -0.128289684305E+04   -0.26731E-04   -0.25688E-04 10640   0.159E-03-0.573E-05
CGA:  14    -0.128289686196E+04   -0.18911E-04   -0.24335E-04 10640   0.122E-03 0.220E-04
CGA:  15    -0.128289690328E+04   -0.41316E-04   -0.40888E-04 10640   0.170E-03-0.522E-05
CGA:  16    -0.128289694347E+04   -0.40192E-04   -0.34689E-04 10640   0.122E-03-0.330E-04
CGA:  17    -0.128289696215E+04   -0.18685E-04   -0.20169E-04 10640   0.125E-03 0.783E-05
CGA:  18    -0.128289697972E+04   -0.17562E-04   -0.21932E-04 10640   0.488E-04 0.207E-04
CGA:  19    -0.128289699271E+04   -0.12993E-04   -0.12637E-04 10640   0.484E-04-0.300E-05
CGA:  20    -0.128289700055E+04   -0.78429E-05   -0.77806E-05 10640   0.243E-04-0.635E-06
  55 F= -.12828970E+04 E0= -.12828970E+04  d E =-.245381E-02  mag=    47.0000
       N       E                     dE             d eps       ncg     rms          ort
SDA:   1    -0.128198605750E+04    0.91094E+00    0.00000E+00 10640   0.238E+01 0.000E+00
CGA:   2    -0.128261259602E+04   -0.62654E+00   -0.62648E+00 10640   0.114E+01-0.957E-03
CGA:   3    -0.128285820171E+04   -0.24561E+00   -0.24571E+00 10640   0.189E+00 0.669E-03
CGA:   4    -0.128288880571E+04   -0.30604E-01   -0.30574E-01 10640   0.439E-01-0.130E-03
CGA:   5    -0.128289638821E+04   -0.75825E-02   -0.76287E-02 10640   0.127E-01 0.373E-03
CGA:   6    -0.128289865752E+04   -0.22693E-02   -0.22618E-02 10640   0.385E-02-0.407E-04
CGA:   7    -0.128289953191E+04   -0.87438E-03   -0.86192E-03 10640   0.111E-02-0.159E-03
CGA:   8    -0.128289973804E+04   -0.20613E-03   -0.21322E-03 10640   0.467E-03 0.757E-04
CGA:   9    -0.128289988778E+04   -0.14974E-03   -0.15101E-03 10640   0.421E-03-0.125E-03
CGA:  10    -0.128289992843E+04   -0.40655E-04   -0.46434E-04 10640   0.156E-03 0.411E-04
CGA:  11    -0.128289995609E+04   -0.27658E-04   -0.31235E-04 10640   0.951E-04 0.344E-04
CGA:  12    -0.128289998761E+04   -0.31517E-04   -0.30368E-04 10640   0.122E-03-0.607E-04
CGA:  13    -0.128289999297E+04   -0.53656E-05   -0.11523E-04 10640   0.302E-04 0.334E-04
  56 F= -.12829000E+04 E0= -.12828999E+04  d E =-.299242E-02  mag=    47.0000
       N       E                     dE             d eps       ncg     rms          ort
SDA:   1    -0.127993650508E+04    0.29635E+01    0.00000E+00 10640   0.826E+01 0.000E+00
CGA:   2    -0.128189480326E+04   -0.19583E+01   -0.19582E+01 10640   0.375E+01-0.247E-02
CGA:   3    -0.128276012031E+04   -0.86532E+00   -0.86547E+00 10640   0.707E+00 0.286E-02
CGA:   4    -0.128287118676E+04   -0.11107E+00   -0.11117E+00 10640   0.144E+00 0.170E-02
CGA:   5    -0.128289747162E+04   -0.26285E-01   -0.26301E-01 10640   0.449E-01 0.268E-03
CGA:   6    -0.128290517555E+04   -0.77039E-02   -0.76909E-02 10640   0.139E-01-0.787E-04
CGA:   7    -0.128290823445E+04   -0.30589E-02   -0.30450E-02 10640   0.377E-02-0.477E-03
CGA:   8    -0.128290907875E+04   -0.84430E-03   -0.84236E-03 10640   0.187E-02-0.123E-03
CGA:   9    -0.128290950080E+04   -0.42205E-03   -0.41925E-03 10640   0.111E-02-0.186E-03
CGA:  10    -0.128290972273E+04   -0.22193E-03   -0.22252E-03 10640   0.418E-03 0.274E-04
CGA:  11    -0.128290987028E+04   -0.14755E-03   -0.18998E-03 10640   0.637E-03-0.214E-03
CGA:  12    -0.128290992485E+04   -0.54570E-04   -0.67893E-04 10640   0.143E-03 0.920E-04
CGA:  13    -0.128290995705E+04   -0.32204E-04   -0.34244E-04 10640   0.791E-04 0.548E-04
CGA:  14    -0.128290999568E+04   -0.38622E-04   -0.41871E-04 10640   0.250E-03-0.242E-04
CGA:  15    -0.128291001065E+04   -0.14972E-04   -0.19724E-04 10640   0.305E-03 0.323E-04
CGA:  16    -0.128291002609E+04   -0.15445E-04   -0.29780E-04 10640   0.184E-03 0.885E-04
CGA:  17    -0.128291003758E+04   -0.11490E-04   -0.24732E-04 10640   0.198E-03 0.984E-04
CGA:  18    -0.128291008629E+04   -0.48707E-04   -0.50146E-04 10640   0.290E-03-0.630E-04
CGA:  19    -0.128291012533E+04   -0.39037E-04   -0.39296E-04 10640   0.117E-03 0.778E-05
CGA:  20    -0.128291013066E+04   -0.53309E-05   -0.99231E-05 10640   0.457E-04 0.314E-04
  57 F= -.12829101E+04 E0= -.12829101E+04  d E =-.101377E-01  mag=    47.0000
       N       E                     dE             d eps       ncg     rms          ort
SDA:   1    -0.128191710455E+04    0.99302E+00    0.00000E+00 10640   0.283E+01 0.000E+00
CGA:   2    -0.128257450027E+04   -0.65740E+00   -0.65739E+00 10640   0.129E+01 0.389E-03
CGA:   3    -0.128286914924E+04   -0.29465E+00   -0.29466E+00 10640   0.275E+00-0.169E-02
CGA:   4    -0.128291022861E+04   -0.41079E-01   -0.41005E-01 10640   0.550E-01-0.948E-03
CGA:   5    -0.128291971832E+04   -0.94897E-02   -0.95174E-02 10640   0.163E-01 0.726E-03
CGA:   6    -0.128292265585E+04   -0.29375E-02   -0.29406E-02 10640   0.459E-02 0.109E-03
CGA:   7    -0.128292372576E+04   -0.10699E-02   -0.10747E-02 10640   0.145E-02-0.222E-03
CGA:   8    -0.128292397112E+04   -0.24536E-03   -0.24905E-03 10640   0.575E-03 0.117E-03
CGA:   9    -0.128292414092E+04   -0.16980E-03   -0.27823E-03 10640   0.121E-02-0.458E-03
CGA:  10    -0.128292424261E+04   -0.10170E-03   -0.12420E-03 10640   0.224E-03 0.190E-03
CGA:  11    -0.128292429724E+04   -0.54622E-04   -0.54745E-04 10640   0.765E-04 0.210E-04
CGA:  12    -0.128292434349E+04   -0.46252E-04    0.32606E-04 10640   0.732E-04 0.217E-04
CGA:  13    -0.128292437576E+04   -0.32269E-04   -0.55337E-04 10640   0.289E-03-0.628E-04
CGA:  14    -0.128292442672E+04   -0.50964E-04   -0.48329E-04 10640   0.141E-03-0.383E-04
CGA:  15    -0.128292444443E+04   -0.17706E-04   -0.19160E-04 10640   0.356E-04 0.196E-04
CGA:  16    -0.128292445888E+04   -0.14452E-04   -0.14429E-04 10640   0.811E-04 0.115E-07
CGA:  17    -0.128292447708E+04   -0.18204E-04   -0.36606E-04 10640   0.245E-03-0.860E-04
CGA:  18    -0.128292450194E+04   -0.24860E-04   -0.31042E-04 10640   0.743E-04 0.525E-04
CGA:  19    -0.128292452229E+04   -0.20351E-04   -0.20456E-04 10640   0.255E-04 0.828E-05
CGA:  20    -0.128292453730E+04   -0.15009E-04    0.30306E-04 10640   0.185E-04 0.107E-04
CGA:  21    -0.128292454453E+04   -0.72263E-05   -0.69839E-05 10640   0.150E-04 0.886E-05
  58 F= -.12829245E+04 E0= -.12829245E+04  d E =-.144139E-01  mag=    47.0000
       N       E                     dE             d eps       ncg     rms          ort
SDA:   1    -0.128217481702E+04    0.74972E+00    0.00000E+00 10640   0.197E+01 0.000E+00
CGA:   2    -0.128270039336E+04   -0.52558E+00   -0.52559E+00 10640   0.948E+00-0.105E-02
CGA:   3    -0.128290231445E+04   -0.20192E+00   -0.20195E+00 10640   0.155E+00 0.688E-03
CGA:   4    -0.128292798105E+04   -0.25667E-01   -0.25606E-01 10640   0.347E-01-0.785E-03
CGA:   5    -0.128293405130E+04   -0.60703E-02   -0.61404E-02 10640   0.919E-02 0.112E-02
CGA:   6    -0.128293591697E+04   -0.18657E-02   -0.18378E-02 10640   0.364E-02-0.595E-03
CGA:   7    -0.128293652157E+04   -0.60460E-03   -0.61086E-03 10640   0.913E-03 0.112E-03
CGA:   8    -0.128293674398E+04   -0.22241E-03   -0.22245E-03 10640   0.453E-03-0.236E-04
CGA:   9    -0.128293686855E+04   -0.12457E-03   -0.17295E-03 10640   0.888E-03-0.307E-03
CGA:  10    -0.128293692023E+04   -0.51687E-04   -0.78679E-04 10640   0.134E-03 0.177E-03
CGA:  11    -0.128293693894E+04   -0.18708E-04   -0.23772E-04 10640   0.755E-04 0.585E-04
CGA:  12    -0.128293696191E+04   -0.22972E-04   -0.44333E-04 10640   0.301E-03-0.120E-03
CGA:  13    -0.128293697762E+04   -0.15708E-04   -0.27325E-04 10640   0.625E-04 0.786E-04
CGA:  14    -0.128293698695E+04   -0.93328E-05   -0.11758E-04 10640   0.390E-04 0.292E-04
CGA:  15    -0.128293698172E+04    0.52292E-05   -0.32163E-04 10640   0.367E-03-0.112E-03
CGA:  16    -0.128293700644E+04   -0.24712E-04   -0.36080E-04 10640   0.766E-04 0.783E-04
CGA:  17    -0.128293702025E+04   -0.13815E-04   -0.15907E-04 10640   0.338E-04 0.315E-04
CGA:  18    -0.128293702654E+04   -0.62884E-05   -0.20067E-04 10640   0.220E-03-0.735E-04
CGA:  19    -0.128293703605E+04   -0.95151E-05   -0.17789E-04 10640   0.313E-04 0.513E-04
  59 F= -.12829370E+04 E0= -.12829370E+04  d E =-.124915E-01  mag=    47.0000
       N       E                     dE             d eps       ncg     rms          ort
SDA:   1    -0.128114864163E+04    0.17884E+01    0.00000E+00 10640   0.517E+01 0.000E+00
CGA:   2    -0.128231954747E+04   -0.11709E+01   -0.11709E+01 10640   0.227E+01-0.267E-02
CGA:   3    -0.128285631265E+04   -0.53677E+00   -0.53672E+00 10640   0.464E+00 0.444E-02
CGA:   4    -0.128292945327E+04   -0.73141E-01   -0.73172E-01 10640   0.853E-01 0.462E-03
CGA:   5    -0.128294573542E+04   -0.16282E-01   -0.16329E-01 10640   0.241E-01 0.148E-02
CGA:   6    -0.128295040983E+04   -0.46744E-02   -0.46372E-02 10640   0.949E-02-0.108E-02
CGA:   7    -0.128295200548E+04   -0.15957E-02   -0.16055E-02 10640   0.239E-02 0.237E-03
CGA:   8    -0.128295259756E+04   -0.59207E-03   -0.59706E-03 10640   0.129E-02-0.201E-03
CGA:   9    -0.128295287736E+04   -0.27981E-03   -0.28237E-03 10640   0.799E-03-0.142E-03
CGA:  10    -0.128295300006E+04   -0.12270E-03   -0.12937E-03 10640   0.263E-03 0.167E-03
CGA:  11    -0.128295311364E+04   -0.11357E-03   -0.12253E-03 10640   0.300E-03-0.547E-04
CGA:  12    -0.128295314560E+04   -0.31959E-04   -0.34467E-04 10640   0.183E-03 0.302E-04
CGA:  13    -0.128295317212E+04   -0.26520E-04   -0.32048E-04 10640   0.156E-03 0.844E-04
CGA:  14    -0.128295320985E+04   -0.37736E-04   -0.40539E-04 10640   0.902E-04 0.648E-04
CGA:  15    -0.128295325464E+04   -0.44785E-04   -0.72761E-04 10640   0.460E-03-0.811E-04
CGA:  16    -0.128295327988E+04   -0.25244E-04   -0.44319E-04 10640   0.912E-04 0.138E-03
CGA:  17    -0.128295328653E+04   -0.66497E-05   -0.13363E-04 10640   0.547E-04 0.578E-04
CGA:  18    -0.128295331491E+04   -0.28383E-04    0.37420E-04 10640   0.403E-04 0.103E-04
CGA:  19    -0.128295332370E+04   -0.87828E-05   -0.94217E-05 10640   0.174E-04 0.240E-04
  60 F= -.12829533E+04 E0= -.12829533E+04  d E =-.162876E-01  mag=    47.0000
       N       E                     dE             d eps       ncg     rms          ort
SDA:   1    -0.128259011482E+04    0.36320E+00    0.00000E+00 10640   0.114E+01 0.000E+00
CGA:   2    -0.128283039746E+04   -0.24028E+00   -0.24028E+00 10640   0.468E+00-0.191E-03
CGA:   3    -0.128294545547E+04   -0.11506E+00   -0.11508E+00 10640   0.109E+00-0.103E-02
CGA:   4    -0.128296270646E+04   -0.17251E-01   -0.17175E-01 10640   0.177E-01-0.129E-02
CGA:   5    -0.128296606198E+04   -0.33555E-02   -0.33752E-02 10640   0.428E-02 0.969E-03
