       N       E                     dE             d eps       ncg     rms          ort
DAV:   1     0.102789862303E+05    0.10279E+05   -0.42395E+05 10640   0.155E+03
DAV:   2    -0.116528856545E+03   -0.10396E+05   -0.98122E+04 10640   0.474E+02
DAV:   3    -0.152233138358E+04   -0.14058E+04   -0.13101E+04 10640   0.181E+02
DAV:   4    -0.160442239644E+04   -0.82091E+02   -0.79853E+02 10640   0.462E+01
DAV:   5    -0.160677805902E+04   -0.23557E+01   -0.23481E+01 10640   0.838E+00
SDA:   6    -0.727405738009E+03    0.87937E+03   -0.23481E+01 10640   0.292E+04 0.000E+00
CGA:   7    -0.112764646527E+04   -0.40024E+03   -0.39836E+03 10640   0.123E+04-0.213E+02
CGA:   8    -0.114726161814E+04   -0.19615E+02   -0.70233E+02 10640   0.143E+04-0.791E+03
CGA:   9    -0.114840387324E+04   -0.11423E+01   -0.70123E+02 10640   0.226E+04-0.146E+04
CGA:  10    -0.111930731948E+04    0.29097E+02   -0.12512E+03 10640   0.306E+04-0.202E+04
CGA:  11    -0.110803654515E+04    0.11271E+02   -0.15860E+03 10640   0.391E+04-0.329E+04
CGA:  12    -0.105846865324E+04    0.49568E+02   -0.22420E+03 10640   0.502E+04-0.390E+04
CGA:  13    -0.105515915639E+04    0.33095E+01   -0.27051E+03 10640   0.546E+04-0.512E+04
CGA:  14    -0.104162350929E+04    0.13536E+02   -0.30146E+03 10640   0.567E+04-0.526E+04
CGA:  15    -0.106308746041E+04   -0.21464E+02   -0.30135E+03 10640   0.561E+04-0.573E+04
CGA:  16    -0.107688140135E+04   -0.13794E+02   -0.29876E+03 10640   0.511E+04-0.516E+04
CGA:  17    -0.112856589676E+04   -0.51684E+02   -0.25323E+03 10640   0.433E+04-0.500E+04
CGA:  18    -0.116895199160E+04   -0.40386E+02   -0.20652E+03 10640   0.299E+04-0.351E+04
CGA:  19    -0.122752879129E+04   -0.58577E+02   -0.12364E+03 10640   0.137E+04-0.215E+04
CGA:  20    -0.125717289738E+04   -0.29644E+02   -0.49298E+02 10640   0.265E+03-0.529E+03
CGA:  21    -0.126450149294E+04   -0.73286E+01   -0.54840E+01 10640   0.361E+02 0.518E+02
CGA:  22    -0.126621181792E+04   -0.17103E+01   -0.16813E+01 10640   0.334E+02 0.750E-01
CGA:  23    -0.127220657323E+04   -0.59948E+01   -0.57959E+01 10640   0.118E+03 0.347E+01
CGA:  24    -0.127663405355E+04   -0.44275E+01   -0.40315E+01 10640   0.376E+02-0.166E+02
CGA:  25    -0.127758168592E+04   -0.94763E+00   -0.95839E+00 10640   0.172E+02-0.434E+00
CGA:  26    -0.127795546366E+04   -0.37378E+00   -0.49401E+00 10640   0.103E+02-0.388E+01
CGA:  27    -0.127862497086E+04   -0.66951E+00   -0.68699E+00 10640   0.163E+02-0.214E+00
CGA:  28    -0.127959097105E+04   -0.96600E+00   -0.93979E+00 10640   0.866E+01-0.216E+00
CGA:  29    -0.128020139308E+04   -0.61042E+00   -0.58357E+00 10640   0.486E+01-0.483E+00
CGA:  30    -0.128065993478E+04   -0.45854E+00   -0.45950E+00 10640   0.490E+01 0.154E-01
CGA:  31    -0.128132529527E+04   -0.66536E+00   -0.68511E+00 10640   0.387E+01-0.646E+00
CGA:  32    -0.128171714415E+04   -0.39185E+00   -0.39735E+00 10640   0.251E+01-0.501E+00
CGA:  33    -0.128222529504E+04   -0.50815E+00   -0.56490E+00 10640   0.270E+01-0.377E+00
CGA:  34    -0.128254161390E+04   -0.31632E+00   -0.32213E+00 10640   0.845E+00-0.320E+00
CGA:  35    -0.128268088577E+04   -0.13927E+00   -0.39038E-01 10640   0.215E+01-0.574E+00
CGA:  36    -0.128295389570E+04   -0.27301E+00   -0.27983E+00 10640   0.474E+00 0.282E-01
CGA:  37    -0.128306230597E+04   -0.10841E+00   -0.10687E+00 10640   0.260E+00 0.785E-01
CGA:  38    -0.128312144718E+04   -0.59141E-01   -0.59593E-01 10640   0.916E-01 0.648E-01
CGA:  39    -0.128314395140E+04   -0.22504E-01   -0.22724E-01 10640   0.499E-01 0.450E-01
CGA:  40    -0.128315522599E+04   -0.11275E-01   -0.12650E-01 10640   0.264E-01 0.412E-01
CGA:  41    -0.128315943641E+04   -0.42104E-02   -0.45899E-02 10640   0.174E-01 0.137E-01
CGA:  42    -0.128316168313E+04   -0.22467E-02   -0.27426E-02 10640   0.136E-01 0.116E-01
CGA:  43    -0.128316342154E+04   -0.17384E-02   -0.21461E-02 10640   0.113E-01 0.102E-01
CGA:  44    -0.128316478673E+04   -0.13652E-02   -0.17417E-02 10640   0.961E-02 0.902E-02
CGA:  45    -0.128316587037E+04   -0.10836E-02   -0.14400E-02 10640   0.830E-02 0.807E-02
CGA:  46    -0.128316681147E+04   -0.94110E-03   -0.12449E-02 10640   0.727E-02 0.725E-02
CGA:  47    -0.128316758366E+04   -0.77219E-03   -0.10595E-02 10640   0.643E-02 0.654E-02
CGA:  48    -0.128316827444E+04   -0.69078E-03   -0.93741E-03 10640   0.574E-02 0.591E-02
CGA:  49    -0.128316886672E+04   -0.59229E-03   -0.82002E-03 10640   0.516E-02 0.536E-02
CGA:  50    -0.128316940693E+04   -0.54021E-03   -0.73738E-03 10640   0.467E-02 0.487E-02
CGA:  51    -0.128316989048E+04   -0.48355E-03   -0.66076E-03 10640   0.426E-02 0.444E-02
CGA:  52    -0.128317034070E+04   -0.45022E-03   -0.60297E-03 10640   0.389E-02 0.406E-02
CGA:  53    -0.128317075808E+04   -0.41739E-03   -0.55091E-03 10640   0.357E-02 0.372E-02
CGA:  54    -0.128317115474E+04   -0.39665E-03   -0.50962E-03 10640   0.329E-02 0.342E-02
CGA:  55    -0.128317153248E+04   -0.37774E-03   -0.47305E-03 10640   0.304E-02 0.316E-02
CGA:  56    -0.128317189820E+04   -0.36572E-03   -0.44322E-03 10640   0.281E-02 0.292E-02
CGA:  57    -0.128317225374E+04   -0.35554E-03   -0.41705E-03 10640   0.261E-02 0.270E-02
CGA:  58    -0.128317260358E+04   -0.34984E-03   -0.39548E-03 10640   0.242E-02 0.251E-02
CGA:  59    -0.128317294951E+04   -0.34592E-03   -0.37683E-03 10640   0.225E-02 0.233E-02
CGA:  60    -0.128317329507E+04   -0.34556E-03   -0.36173E-03 10640   0.209E-02 0.216E-02
CGA:  61    -0.128317364209E+04   -0.34702E-03   -0.34906E-03 10640   0.194E-02 0.201E-02
CGA:  62    -0.128317399410E+04   -0.35201E-03   -0.33951E-03 10640   0.181E-02 0.187E-02
CGA:  63    -0.128317435327E+04   -0.35917E-03   -0.33222E-03 10640   0.168E-02 0.174E-02
CGA:  64    -0.128317472422E+04   -0.37095E-03   -0.32831E-03 10640   0.156E-02 0.162E-02
CGA:  65    -0.128317510960E+04   -0.38538E-03   -0.32665E-03 10640   0.144E-02 0.150E-02
CGA:  66    -0.128317551742E+04   -0.40783E-03   -0.32991E-03 10640   0.133E-02 0.139E-02
CGA:  67    -0.128317595006E+04   -0.43264E-03   -0.33516E-03 10640   0.123E-02 0.128E-02
CGA:  68    -0.128317642716E+04   -0.47710E-03   -0.35159E-03 10640   0.113E-02 0.116E-02
CGA:  69    -0.128317691711E+04   -0.48995E-03   -0.35562E-03 10640   0.112E-02 0.103E-02
CGA:  70    -0.128317736804E+04   -0.45093E-03   -0.35885E-03 10640   0.168E-02 0.698E-03
CGA:  71    -0.128317759902E+04   -0.23098E-03   -0.24856E-03 10640   0.129E-02 0.356E-03
CGA:  72    -0.128317870404E+04   -0.11050E-02   -0.72853E-03 10640   0.138E-02 0.138E-02
CGA:  73    -0.128317894937E+04   -0.24533E-03   -0.24502E-03 10640   0.142E-02-0.102E-04
CGA:  74    -0.128318112646E+04   -0.21771E-02   -0.14068E-02 10640   0.137E-02 0.925E-03
CGA:  75    -0.128318137834E+04   -0.25189E-03   -0.25363E-03 10640   0.717E-03 0.262E-04
CGA:  76    -0.128318114408E+04    0.23426E-03   -0.76867E-03 10640   0.140E-01-0.125E-02
CGA:  77    -0.128318254157E+04   -0.13975E-02   -0.14519E-02 10640   0.154E-02 0.395E-03
CGA:  78    -0.128318287964E+04   -0.33806E-03   -0.33959E-03 10640   0.352E-03 0.244E-04
CGA:  79    -0.128318308190E+04   -0.20227E-03    0.11764E-02 10640   0.312E-03 0.258E-03
CGA:  80    -0.128318318982E+04   -0.10791E-03   -0.10131E-03 10640   0.390E-03 0.124E-03
CGA:  81    -0.128318351134E+04   -0.32152E-03    0.10066E-02 10640   0.313E-03 0.338E-03
CGA:  82    -0.128318358785E+04   -0.76516E-04   -0.79138E-04 10640   0.280E-03 0.121E-03
CGA:  83    -0.128318312224E+04    0.46561E-03   -0.30490E-03 10640   0.119E-01-0.818E-03
CGA:  84    -0.128318427534E+04   -0.11531E-02   -0.12746E-02 10640   0.172E-02 0.523E-03
CGA:  85    -0.128318471703E+04   -0.44169E-03   -0.44197E-03 10640   0.182E-03 0.178E-05
CGA:  86    -0.128318475728E+04   -0.40250E-04   -0.11678E-03 10640   0.268E-02-0.442E-03
CGA:  87    -0.128318486853E+04   -0.11125E-03   -0.23662E-03 10640   0.120E-03 0.356E-03
CGA:  88    -0.128318486117E+04    0.73608E-05   -0.14936E-04 10640   0.824E-04 0.644E-04
CGA:  89    -0.128318494861E+04   -0.87442E-04    0.86646E-04 10640   0.176E-03 0.137E-04
CGA:  90    -0.128318498210E+04   -0.33490E-04   -0.51479E-04 10640   0.807E-04 0.949E-04
CGA:  91    -0.128318504507E+04   -0.62970E-04   -0.78982E-04 10640   0.182E-03-0.302E-04
CGA:  92    -0.128318506518E+04   -0.20108E-04   -0.27667E-04 10640   0.215E-03 0.345E-04
CGA:  93    -0.128318524661E+04   -0.18144E-03   -0.17768E-03 10640   0.245E-03 0.986E-05
CGA:  94    -0.128318537347E+04   -0.12685E-03   -0.13515E-03 10640   0.441E-03-0.127E-03
CGA:  95    -0.128318537948E+04   -0.60112E-05   -0.42712E-04 10640   0.682E-04 0.103E-03
CGA:  96    -0.128318538458E+04   -0.50993E-05   -0.12938E-04 10640   0.380E-04 0.270E-04
CGA:  97    -0.128318540769E+04   -0.23110E-04   -0.21211E-04 10640   0.820E-04-0.631E-04
CGA:  98    -0.128318540020E+04    0.74857E-05   -0.63423E-05 10640   0.256E-04 0.397E-04
   1 F= -.12831854E+04 E0= -.12831854E+04  d E =-.128319E+04  mag=    47.0000
       N       E                     dE             d eps       ncg     rms          ort
SDA:   1    -0.128318763953E+04   -0.22318E-02    0.00000E+00 10640   0.726E-02 0.000E+00
CGA:   2    -0.128318896178E+04   -0.13223E-02   -0.13290E-02 10640   0.255E-02 0.355E-04
CGA:   3    -0.128318961866E+04   -0.65687E-03   -0.64640E-03 10640   0.102E-02-0.809E-04
CGA:   4    -0.128318975097E+04   -0.13231E-03   -0.13345E-03 10640   0.155E-03 0.621E-05
CGA:   5    -0.128318979080E+04   -0.39837E-04   -0.34061E-04 10640   0.798E-04-0.394E-04
CGA:   6    -0.128318980248E+04   -0.11676E-04   -0.10565E-04 10640   0.243E-04-0.610E-05
CGA:   7    -0.128318980655E+04   -0.40654E-05   -0.44045E-05 10640   0.768E-05 0.223E-05
   2 F= -.12831898E+04 E0= -.12831898E+04  d E =-.440634E-02  mag=    47.0000
       N       E                     dE             d eps       ncg     rms          ort
SDA:   1    -0.128316183308E+04    0.27969E-01    0.00000E+00 10640   0.156E+00 0.000E+00
CGA:   2    -0.128319127087E+04   -0.29438E-01   -0.29340E-01 10640   0.546E-01-0.597E-03
CGA:   3    -0.128320506625E+04   -0.13795E-01   -0.13819E-01 10640   0.162E-01 0.286E-03
CGA:   4    -0.128320777256E+04   -0.27063E-02   -0.25999E-02 10640   0.266E-02-0.641E-03
CGA:   5    -0.128320819590E+04   -0.42334E-03   -0.44562E-03 10640   0.707E-03 0.159E-03
CGA:   6    -0.128320838503E+04   -0.18913E-03   -0.17493E-03 10640   0.450E-03-0.186E-03
CGA:   7    -0.128320843687E+04   -0.51835E-04   -0.50095E-04 10640   0.107E-03-0.106E-04
CGA:   8    -0.128320844585E+04   -0.89860E-05   -0.14112E-04 10640   0.422E-04 0.314E-04
CGA:   9    -0.128320843482E+04    0.11036E-04   -0.34521E-04 10640   0.449E-03-0.132E-03
CGA:  10    -0.128320848831E+04   -0.53490E-04   -0.52856E-04 10640   0.903E-04-0.240E-05
CGA:  11    -0.128320851160E+04   -0.23294E-04   -0.21436E-04 10640   0.274E-04-0.314E-04
CGA:  12    -0.128320852364E+04   -0.12043E-04    0.18646E-04 10640   0.334E-04-0.133E-04
CGA:  13    -0.128320852863E+04   -0.49875E-05   -0.57928E-05 10640   0.351E-04-0.186E-04
   3 F= -.12832085E+04 E0= -.12832085E+04  d E =-.187221E-01  mag=    47.0000
       N       E                     dE             d eps       ncg     rms          ort
SDA:   1    -0.126281773005E+04    0.20391E+02    0.00000E+00 10640   0.683E+02 0.000E+00
CGA:   2    -0.127545143834E+04   -0.12634E+02   -0.12626E+02 10640   0.233E+02 0.843E-01
CGA:   3    -0.128141051376E+04   -0.59591E+01   -0.59625E+01 10640   0.745E+01 0.406E-01
CGA:   4    -0.128252491272E+04   -0.11144E+01   -0.11107E+01 10640   0.117E+01 0.331E-01
CGA:   5    -0.128273626449E+04   -0.21135E+00   -0.21157E+00 10640   0.380E+00 0.111E-02
CGA:   6    -0.128280385984E+04   -0.67595E-01   -0.67550E-01 10640   0.108E+00 0.687E-03
CGA:   7    -0.128282741281E+04   -0.23553E-01   -0.23525E-01 10640   0.278E-01-0.437E-03
CGA:   8    -0.128283336427E+04   -0.59515E-02   -0.59663E-02 10640   0.122E-01 0.359E-03
CGA:   9    -0.128283629978E+04   -0.29355E-02   -0.29111E-02 10640   0.707E-02-0.811E-03
CGA:  10    -0.128283774897E+04   -0.14492E-02   -0.14579E-02 10640   0.277E-02 0.223E-03
CGA:  11    -0.128283868459E+04   -0.93562E-03   -0.96880E-03 10640   0.212E-02-0.425E-03
CGA:  12    -0.128283910148E+04   -0.41688E-03   -0.40708E-03 10640   0.141E-02-0.246E-03
CGA:  13    -0.128283952473E+04   -0.42326E-03   -0.44904E-03 10640   0.119E-02-0.269E-03
CGA:  14    -0.128283982747E+04   -0.30273E-03   -0.30593E-03 10640   0.114E-02-0.688E-04
CGA:  15    -0.128284016985E+04   -0.34238E-03   -0.34449E-03 10640   0.973E-03-0.482E-04
CGA:  16    -0.128284039509E+04   -0.22524E-03   -0.23110E-03 10640   0.546E-03 0.222E-03
CGA:  17    -0.128284063197E+04   -0.23688E-03   -0.23340E-03 10640   0.381E-03 0.396E-04
CGA:  18    -0.128284068954E+04   -0.57571E-04   -0.73280E-04 10640   0.189E-03 0.160E-03
CGA:  19    -0.128284075155E+04   -0.62011E-04   -0.65254E-04 10640   0.990E-04 0.113E-03
CGA:  20    -0.128284078564E+04   -0.34092E-04   -0.37536E-04 10640   0.226E-03-0.319E-04
CGA:  21    -0.128284078885E+04   -0.32094E-05   -0.17115E-04 10640   0.170E-03 0.844E-04
CGA:  22    -0.128284078776E+04    0.10951E-05   -0.17680E-04 10640   0.558E-04 0.980E-04
CGA:  23    -0.128284079842E+04   -0.10662E-04   -0.11647E-04 10640   0.326E-04 0.201E-04
CGA:  24    -0.128284080426E+04   -0.58429E-05   -0.80563E-05 10640   0.234E-04 0.300E-04
   4 F= -.12828408E+04 E0= -.12828408E+04  d E =0.367724E+00  mag=    47.0000
       N       E                     dE             d eps       ncg     rms          ort
SDA:   1    -0.127374984754E+04    0.90910E+01    0.00000E+00 10640   0.321E+02 0.000E+00
CGA:   2    -0.127975252775E+04   -0.60027E+01   -0.60016E+01 10640   0.111E+02 0.153E-01
CGA:   3    -0.128260638821E+04   -0.28539E+01   -0.28536E+01 10640   0.324E+01 0.131E-01
CGA:   4    -0.128311330948E+04   -0.50692E+00   -0.50787E+00 10640   0.450E+00 0.140E-01
CGA:   5    -0.128321214782E+04   -0.98838E-01   -0.98785E-01 10640   0.113E+00-0.228E-02
CGA:   6    -0.128323643506E+04   -0.24287E-01   -0.24378E-01 10640   0.318E-01 0.396E-02
CGA:   7    -0.128324364988E+04   -0.72148E-02   -0.71627E-02 10640   0.119E-01-0.226E-02
CGA:   8    -0.128324545409E+04   -0.18042E-02   -0.19077E-02 10640   0.367E-02 0.161E-02
CGA:   9    -0.128324654711E+04   -0.10930E-02   -0.10799E-02 10640   0.162E-02 0.580E-03
CGA:  10    -0.128324710675E+04   -0.55964E-03   -0.57849E-03 10640   0.181E-02-0.261E-03
CGA:  11    -0.128324718958E+04   -0.82825E-04   -0.16150E-03 10640   0.782E-03 0.590E-03
CGA:  12    -0.128324720512E+04   -0.15542E-04   -0.83118E-04 10640   0.394E-03 0.442E-03
CGA:  13    -0.128324735476E+04   -0.14964E-03   -0.21798E-03 10640   0.100E-02-0.209E-03
CGA:  14    -0.128324738282E+04   -0.28064E-04   -0.78436E-04 10640   0.185E-03 0.311E-03
CGA:  15    -0.128324737854E+04    0.42890E-05   -0.18133E-04 10640   0.125E-03 0.141E-03
CGA:  16    -0.128324742377E+04   -0.45233E-04   -0.41582E-04 10640   0.170E-03 0.343E-04
CGA:  17    -0.128324742800E+04   -0.42350E-05   -0.23579E-04 10640   0.875E-04 0.158E-03
   5 F= -.12832474E+04 E0= -.12832474E+04  d E =-.406624E+00  mag=    47.0000
       N       E                     dE             d eps       ncg     rms          ort
SDA:   1    -0.128320315950E+04    0.44264E-01    0.00000E+00 10640   0.154E+00 0.000E+00
CGA:   2    -0.128323159307E+04   -0.28434E-01   -0.28461E-01 10640   0.514E-01 0.869E-03
CGA:   3    -0.128324523152E+04   -0.13638E-01   -0.13650E-01 10640   0.159E-01-0.289E-03
CGA:   4    -0.128324751587E+04   -0.22844E-02   -0.23324E-02 10640   0.222E-02 0.672E-03
CGA:   5    -0.128324802957E+04   -0.51370E-03   -0.51522E-03 10640   0.941E-03-0.220E-03
CGA:   6    -0.128324812621E+04   -0.96637E-04   -0.11165E-03 10640   0.279E-03 0.179E-03
CGA:   7    -0.128324816888E+04   -0.42667E-04   -0.49573E-04 10640   0.109E-03 0.110E-03
CGA:   8    -0.128324820168E+04   -0.32799E-04   -0.32831E-04 10640   0.115E-03-0.417E-05
CGA:   9    -0.128324820701E+04   -0.53306E-05   -0.11567E-04 10640   0.866E-04 0.595E-04
   6 F= -.12832482E+04 E0= -.12832482E+04  d E =-.779003E-03  mag=    47.0000
       N       E                     dE             d eps       ncg     rms          ort
SDA:   1    -0.128286014963E+04    0.38805E+00    0.00000E+00 10640   0.118E+01 0.000E+00
CGA:   2    -0.128309011683E+04   -0.22997E+00   -0.22998E+00 10640   0.434E+00 0.455E-02
CGA:   3    -0.128319958443E+04   -0.10947E+00   -0.10956E+00 10640   0.128E+00-0.202E-02
CGA:   4    -0.128321836408E+04   -0.18780E-01   -0.18905E-01 10640   0.199E-01 0.259E-02
CGA:   5    -0.128322239435E+04   -0.40303E-02   -0.40299E-02 10640   0.728E-02-0.113E-02
CGA:   6    -0.128322343234E+04   -0.10380E-02   -0.10538E-02 10640   0.195E-02 0.369E-03
CGA:   7    -0.128322383286E+04   -0.40052E-03   -0.40057E-03 10640   0.448E-03 0.266E-03
CGA:   8    -0.128322397867E+04   -0.14582E-03   -0.20561E-03 10640   0.720E-03-0.288E-03
CGA:   9    -0.128322399370E+04   -0.15021E-04   -0.55340E-04 10640   0.179E-03 0.313E-03
CGA:  10    -0.128322399447E+04   -0.77597E-06   -0.18000E-04 10640   0.877E-04 0.133E-03
CGA:  11    -0.128322403543E+04   -0.40959E-04    0.40962E-04 10640   0.480E-04 0.428E-04
CGA:  12    -0.128322403616E+04   -0.72924E-06   -0.65220E-05 10640   0.334E-04 0.567E-04
   7 F= -.12832240E+04 E0= -.12832240E+04  d E =0.241708E-01  mag=    47.0000
       N       E                     dE             d eps       ncg     rms          ort
SDA:   1    -0.128267991982E+04    0.54412E+00    0.00000E+00 10640   0.151E+01 0.000E+00
CGA:   2    -0.128300753874E+04   -0.32762E+00   -0.32759E+00 10640   0.625E+00 0.120E-02
CGA:   3    -0.128315376775E+04   -0.14623E+00   -0.14619E+00 10640   0.162E+00 0.555E-03
CGA:   4    -0.128317801418E+04   -0.24246E-01   -0.24223E-01 10640   0.327E-01-0.455E-03
CGA:   5    -0.128318355905E+04   -0.55449E-02   -0.55415E-02 10640   0.905E-02-0.190E-03
CGA:   6    -0.128318526335E+04   -0.17043E-02   -0.17062E-02 10640   0.283E-02-0.295E-03
CGA:   7    -0.128318592404E+04   -0.66069E-03   -0.69136E-03 10640   0.115E-02-0.445E-03
CGA:   8    -0.128318605413E+04   -0.13009E-03   -0.13708E-03 10640   0.350E-03 0.154E-03
CGA:   9    -0.128318617720E+04   -0.12307E-03   -0.14861E-03 10640   0.345E-03-0.135E-03
CGA:  10    -0.128318626444E+04   -0.87238E-04    0.37003E-03 10640   0.253E-03-0.129E-04
CGA:  11    -0.128318515388E+04    0.11106E-02   -0.59816E-03 10640   0.706E-02-0.132E-02
CGA:  12    -0.128318633297E+04   -0.11791E-02   -0.11549E-02 10640   0.167E-02-0.127E-03
CGA:  13    -0.128318649380E+04   -0.16083E-03   -0.19883E-03 10640   0.263E-03 0.175E-03
CGA:  14    -0.128318654097E+04   -0.47176E-04   -0.60978E-04 10640   0.152E-03 0.111E-03
CGA:  15    -0.128318660684E+04   -0.65872E-04   -0.64714E-04 10640   0.223E-03-0.405E-04
CGA:  16    -0.128318661859E+04   -0.11749E-04   -0.17655E-04 10640   0.121E-03 0.271E-04
CGA:  17    -0.128318661765E+04    0.94452E-06   -0.92955E-05 10640   0.540E-04 0.417E-04
   8 F= -.12831866E+04 E0= -.12831866E+04  d E =0.374185E-01  mag=    47.0000
       N       E                     dE             d eps       ncg     rms          ort
SDA:   1    -0.128030388696E+04    0.28827E+01    0.00000E+00 10640   0.919E+01 0.000E+00
CGA:   2    -0.128207829079E+04   -0.17744E+01   -0.17751E+01 10640   0.330E+01 0.537E-02
CGA:   3    -0.128290306036E+04   -0.82477E+00   -0.82512E+00 10640   0.965E+00 0.645E-02
CGA:   4    -0.128304840486E+04   -0.14534E+00   -0.14555E+00 10640   0.167E+00 0.411E-02
CGA:   5    -0.128307793445E+04   -0.29530E-01   -0.29522E-01 10640   0.532E-01 0.877E-04
CGA:   6    -0.128308717592E+04   -0.92415E-02   -0.92381E-02 10640   0.155E-01 0.735E-04
CGA:   7    -0.128309042869E+04   -0.32528E-02   -0.32770E-02 10640   0.396E-02 0.446E-03
CGA:   8    -0.128309127863E+04   -0.84994E-03   -0.86710E-03 10640   0.168E-02 0.333E-03
CGA:   9    -0.128309168844E+04   -0.40980E-03   -0.41598E-03 10640   0.924E-03 0.185E-03
CGA:  10    -0.128309186248E+04   -0.17404E-03   -0.19756E-03 10640   0.382E-03 0.345E-03
CGA:  11    -0.128309196828E+04   -0.10580E-03   -0.11541E-03 10640   0.208E-03 0.254E-03
CGA:  12    -0.128309202246E+04   -0.54173E-04   -0.53872E-04 10640   0.176E-03 0.878E-04
CGA:  13    -0.128309204472E+04   -0.22268E-04   -0.39585E-04 10640   0.109E-03 0.177E-03
CGA:  14    -0.128309206158E+04   -0.16854E-04   -0.21559E-04 10640   0.871E-04 0.877E-04
CGA:  15    -0.128309207908E+04   -0.17501E-04   -0.19463E-04 10640   0.811E-04 0.792E-04
CGA:  16    -0.128309209099E+04   -0.11907E-04   -0.15729E-04 10640   0.766E-04 0.720E-04
CGA:  17    -0.128309210426E+04   -0.13275E-04   -0.15783E-04 10640   0.744E-04 0.653E-04
CGA:  18    -0.128309211573E+04   -0.11475E-04   -0.14354E-04 10640   0.730E-04 0.580E-04
CGA:  19    -0.128309212603E+04   -0.10298E-04   -0.13302E-04 10640   0.711E-04 0.519E-04
CGA:  20    -0.128309213718E+04   -0.11145E-04   -0.13387E-04 10640   0.717E-04 0.458E-04
CGA:  21    -0.128309214568E+04   -0.85062E-05   -0.11606E-04 10640   0.653E-04 0.426E-04
CGA:  22    -0.128309215697E+04   -0.11284E-04   -0.12702E-04 10640   0.685E-04 0.388E-04
CGA:  23    -0.128309216443E+04   -0.74651E-05   -0.10358E-04 10640   0.587E-04 0.371E-04
CGA:  24    -0.128309217602E+04   -0.11586E-04   -0.12187E-04 10640   0.652E-04 0.340E-04
CGA:  25    -0.128309218271E+04   -0.66885E-05   -0.93474E-05 10640   0.527E-04 0.328E-04
CGA:  26    -0.128309219463E+04   -0.11920E-04   -0.11804E-04 10640   0.627E-04 0.299E-04
CGA:  27    -0.128309220070E+04   -0.60666E-05   -0.85204E-05 10640   0.472E-04 0.290E-04
CGA:  28    -0.128309221799E+04   -0.17291E-04   -0.16153E-04 10640   0.594E-04 0.633E-04
CGA:  29    -0.128309222839E+04   -0.10403E-04   -0.10747E-04 10640   0.625E-04 0.949E-05
CGA:  30    -0.128309225390E+04   -0.25511E-04   -0.20741E-04 10640   0.504E-04 0.669E-04
CGA:  31    -0.128309225928E+04   -0.53793E-05   -0.68002E-05 10640   0.351E-04 0.170E-04
CGA:  32    -0.128309228080E+04   -0.21519E-04   -0.16088E-04 10640   0.492E-04 0.420E-04
CGA:  33    -0.128309228929E+04   -0.84895E-05   -0.84535E-05 10640   0.478E-04-0.675E-06
CGA:  34    -0.128309232250E+04   -0.33214E-04   -0.22387E-04 10640   0.377E-04 0.417E-04
CGA:  35    -0.128309232778E+04   -0.52738E-05   -0.56219E-05 10640   0.279E-04 0.423E-05
CGA:  36    -0.128309240171E+04   -0.73939E-04   -0.81595E-04 10640   0.366E-04 0.205E-04
CGA:  37    -0.128309240376E+04   -0.20458E-05   -0.39477E-05 10640   0.106E-04 0.622E-05
CGA:  38    -0.128309241375E+04   -0.99950E-05   -0.12738E-04 10640   0.970E-04-0.474E-05
CGA:  39    -0.128309243515E+04   -0.21392E-04   -0.11457E-04 10640   0.207E-03-0.484E-04
CGA:  40    -0.128309247364E+04   -0.38490E-04   -0.15025E-04 10640   0.282E-03-0.939E-04
CGA:  41    -0.128309251773E+04   -0.44089E-04   -0.18768E-04 10640   0.232E-03-0.103E-03
CGA:  42    -0.128309253672E+04   -0.18994E-04   -0.10084E-04 10640   0.102E-03-0.332E-04
CGA:  43    -0.128309254291E+04   -0.61901E-05   -0.53800E-05 10640   0.442E-04-0.372E-05
   9 F= -.12830925E+04 E0= -.12830925E+04  d E =0.940747E-01  mag=    47.0000
       N       E                     dE             d eps       ncg     rms          ort
SDA:   1    -0.128236783512E+04    0.72470E+00    0.00000E+00 10640   0.256E+01 0.000E+00
CGA:   2    -0.128285249494E+04   -0.48466E+00   -0.48478E+00 10640   0.899E+00 0.230E-02
CGA:   3    -0.128308274356E+04   -0.23025E+00   -0.23015E+00 10640   0.271E+00-0.189E-02
CGA:   4    -0.128312359528E+04   -0.40852E-01   -0.41048E-01 10640   0.395E-01 0.125E-02
CGA:   5    -0.128313162260E+04   -0.80273E-02   -0.79831E-02 10640   0.119E-01-0.335E-03
CGA:   6    -0.128313367794E+04   -0.20553E-02   -0.21037E-02 10640   0.379E-02 0.360E-03
CGA:   7    -0.128313447312E+04   -0.79519E-03   -0.78374E-03 10640   0.118E-02-0.994E-04
CGA:   8    -0.128313472056E+04   -0.24744E-03   -0.24053E-03 10640   0.593E-03-0.697E-04
CGA:   9    -0.128313481115E+04   -0.90592E-04   -0.10063E-03 10640   0.208E-03 0.842E-04
CGA:  10    -0.128313490579E+04   -0.94635E-04   -0.10644E-03 10640   0.235E-03-0.778E-04
CGA:  11    -0.128313492259E+04   -0.16803E-04   -0.22708E-04 10640   0.142E-03 0.396E-04
CGA:  12    -0.128313495367E+04   -0.31079E-04   -0.32517E-04 10640   0.862E-04 0.141E-04
CGA:  13    -0.128313407116E+04    0.88251E-03   -0.47676E-03 10640   0.650E-02-0.684E-03
CGA:  14    -0.128313470030E+04   -0.62914E-03   -0.79194E-03 10640   0.118E-02 0.450E-03
CGA:  15    -0.128313502814E+04   -0.32784E-03   -0.31842E-03 10640   0.177E-03-0.354E-04
CGA:  16    -0.128313506495E+04   -0.36807E-04   -0.36922E-04 10640   0.813E-04 0.685E-06
CGA:  17    -0.128313507911E+04   -0.14158E-04   -0.18125E-04 10640   0.255E-04 0.153E-04
CGA:  18    -0.128313508603E+04   -0.69227E-05   -0.83324E-05 10640   0.183E-04 0.723E-05
  10 F= -.12831351E+04 E0= -.12831351E+04  d E =-.425431E-01  mag=    47.0000
       N       E                     dE             d eps       ncg     rms          ort
SDA:   1    -0.128293330749E+04    0.20177E+00    0.00000E+00 10640   0.675E+00 0.000E+00
CGA:   2    -0.128306220933E+04   -0.12890E+00   -0.12903E+00 10640   0.234E+00 0.713E-03
CGA:   3    -0.128312376118E+04   -0.61552E-01   -0.61452E-01 10640   0.647E-01-0.771E-03
CGA:   4    -0.128313376609E+04   -0.10005E-01   -0.10061E-01 10640   0.970E-02 0.236E-03
CGA:   5    -0.128313585441E+04   -0.20883E-02   -0.20597E-02 10640   0.263E-02-0.144E-03
CGA:   6    -0.128313633383E+04   -0.47942E-03   -0.50139E-03 10640   0.909E-03 0.112E-03
CGA:   7    -0.128313655505E+04   -0.22122E-03   -0.19577E-03 10640   0.389E-03-0.139E-03
CGA:   8    -0.128313660049E+04   -0.45435E-04   -0.52736E-04 10640   0.117E-03 0.339E-04
CGA:   9    -0.128313662927E+04   -0.28782E-04   -0.30765E-04 10640   0.603E-04 0.156E-04
CGA:  10    -0.128313668059E+04   -0.51321E-04    0.33286E-03 10640   0.118E-03-0.317E-04
CGA:  11    -0.128313667902E+04    0.15739E-05   -0.92052E-05 10640   0.231E-04 0.383E-04
  11 F= -.12831367E+04 E0= -.12831366E+04  d E =-.159299E-02  mag=    47.0000
       N       E                     dE             d eps       ncg     rms          ort
SDA:   1    -0.128312516447E+04    0.11516E-01    0.00000E+00 10640   0.327E-01 0.000E+00
CGA:   2    -0.128313119020E+04   -0.60257E-02   -0.60646E-02 10640   0.114E-01 0.273E-03
CGA:   3    -0.128313409743E+04   -0.29072E-02   -0.28857E-02 10640   0.450E-02-0.282E-03
CGA:   4    -0.128313465163E+04   -0.55420E-03   -0.58049E-03 10640   0.681E-03 0.146E-03
CGA:   5    -0.128313479859E+04   -0.14696E-03   -0.13806E-03 10640   0.236E-03-0.741E-04
CGA:   6    -0.128313485205E+04   -0.53462E-04   -0.49165E-04 10640   0.117E-03-0.564E-04
CGA:   7    -0.128313487249E+04   -0.20444E-04   -0.18811E-04 10640   0.490E-04-0.170E-04
CGA:   8    -0.128313488195E+04   -0.94550E-05   -0.90055E-05 10640   0.233E-04-0.523E-05
CGA:   9    -0.128313488983E+04   -0.78813E-05   -0.10776E-04 10640   0.497E-04-0.132E-04
  12 F= -.12831349E+04 E0= -.12831349E+04  d E =0.178919E-02  mag=    47.0000
       N       E                     dE             d eps       ncg     rms          ort
SDA:   1    -0.128295092924E+04    0.18395E+00    0.00000E+00 10640   0.534E+00 0.000E+00
CGA:   2    -0.128305709292E+04   -0.10616E+00   -0.10619E+00 10640   0.208E+00 0.464E-03
CGA:   3    -0.128310454217E+04   -0.47449E-01   -0.47460E-01 10640   0.740E-01 0.119E-03
CGA:   4    -0.128311489447E+04   -0.10352E-01   -0.10350E-01 10640   0.129E-01 0.116E-03
CGA:   5    -0.128311720904E+04   -0.23146E-02   -0.22930E-02 10640   0.331E-02-0.190E-03
CGA:   6    -0.128311785789E+04   -0.64885E-03   -0.64301E-03 10640   0.103E-02-0.682E-04
CGA:   7    -0.128311810694E+04   -0.24905E-03   -0.24351E-03 10640   0.499E-03-0.168E-03
CGA:   8    -0.128311815773E+04   -0.50790E-04   -0.57591E-04 10640   0.129E-03 0.514E-04
CGA:   9    -0.128311819191E+04   -0.34180E-04   -0.34628E-04 10640   0.744E-04 0.193E-04
CGA:  10    -0.128311819599E+04   -0.40835E-05   -0.47550E-04 10640   0.643E-03-0.149E-03
CGA:  11    -0.128311824188E+04   -0.45887E-04   -0.56812E-04 10640   0.563E-04 0.597E-04
CGA:  12    -0.128311826210E+04   -0.20220E-04   -0.26518E-04 10640   0.993E-04-0.390E-04
CGA:  13    -0.128311828492E+04   -0.22819E-04   -0.18334E-04 10640   0.677E-04-0.477E-04
CGA:  14    -0.128311828547E+04   -0.54888E-06   -0.36231E-05 10640   0.341E-04 0.181E-04
  13 F= -.12831183E+04 E0= -.12831183E+04  d E =0.166044E-01  mag=    47.0000
       N       E                     dE             d eps       ncg     rms          ort
SDA:   1    -0.128296879174E+04    0.14949E+00    0.00000E+00 10640   0.356E+00 0.000E+00
CGA:   2    -0.128305545409E+04   -0.86662E-01   -0.86676E-01 10640   0.165E+00 0.127E-02
CGA:   3    -0.128308951413E+04   -0.34060E-01   -0.34050E-01 10640   0.456E-01-0.181E-03
CGA:   4    -0.128309587694E+04   -0.63628E-02   -0.63847E-02 10640   0.899E-02 0.272E-03
CGA:   5    -0.128309750316E+04   -0.16262E-02   -0.16202E-02 10640   0.225E-02-0.757E-04
CGA:   6    -0.128309797858E+04   -0.47542E-03   -0.46921E-03 10640   0.826E-03-0.190E-03
CGA:   7    -0.128309808592E+04   -0.10734E-03   -0.11892E-03 10640   0.200E-03 0.140E-03
CGA:   8    -0.128309813652E+04   -0.50603E-04   -0.51002E-04 10640   0.779E-04 0.212E-04
CGA:   9    -0.128309815180E+04   -0.15276E-04   -0.16697E-04 10640   0.385E-04 0.338E-04
CGA:  10    -0.128309815834E+04   -0.65376E-05   -0.86987E-05 10640   0.202E-04 0.283E-04
CGA:  11    -0.128309816915E+04   -0.10810E-04    0.14055E-04 10640   0.133E-04 0.966E-05
CGA:  12    -0.128309817156E+04   -0.24174E-05   -0.32911E-05 10640   0.908E-05 0.139E-04
  14 F= -.12830982E+04 E0= -.12830981E+04  d E =0.201139E-01  mag=    47.0000
       N       E                     dE             d eps       ncg     rms          ort
SDA:   1    -0.128084968027E+04    0.22485E+01    0.00000E+00 10640   0.721E+01 0.000E+00
CGA:   2    -0.128222019142E+04   -0.13705E+01   -0.13704E+01 10640   0.282E+01 0.526E-02
CGA:   3    -0.128285226661E+04   -0.63208E+00   -0.63199E+00 10640   0.114E+01 0.100E-01
CGA:   4    -0.128300706038E+04   -0.15479E+00   -0.15459E+00 10640   0.164E+00 0.941E-02
CGA:   5    -0.128303685984E+04   -0.29799E-01   -0.29791E-01 10640   0.413E-01-0.171E-03
CGA:   6    -0.128304522970E+04   -0.83699E-02   -0.83733E-02 10640   0.125E-01 0.374E-03
CGA:   7    -0.128304778508E+04   -0.25554E-02   -0.25571E-02 10640   0.435E-02 0.169E-03
CGA:   8    -0.128304847736E+04   -0.69228E-03   -0.71342E-03 10640   0.132E-02 0.428E-03
CGA:   9    -0.128304890095E+04   -0.42359E-03   -0.42426E-03 10640   0.775E-03-0.669E-05
CGA:  10    -0.128304898388E+04   -0.82933E-04   -0.10865E-03 10640   0.319E-03 0.353E-03
CGA:  11    -0.128304903058E+04   -0.46691E-04   -0.64464E-04 10640   0.184E-03 0.248E-03
CGA:  12    -0.128304909007E+04   -0.59497E-04   -0.63577E-04 10640   0.377E-03-0.293E-04
CGA:  13    -0.128304909503E+04   -0.49592E-05   -0.29188E-04 10640   0.225E-03 0.199E-03
CGA:  14    -0.128304909207E+04    0.29597E-05   -0.14017E-04 10640   0.798E-04 0.117E-03
  15 F= -.12830491E+04 E0= -.12830491E+04  d E =0.490795E-01  mag=    47.0000
       N       E                     dE             d eps       ncg     rms          ort
SDA:   1    -0.128213401314E+04    0.91508E+00    0.00000E+00 10640   0.327E+01 0.000E+00
CGA:   2    -0.128272351252E+04   -0.58950E+00   -0.58951E+00 10640   0.120E+01 0.187E-02
CGA:   3    -0.128299608050E+04   -0.27257E+00   -0.27260E+00 10640   0.535E+00-0.564E-03
CGA:   4    -0.128307047205E+04   -0.74392E-01   -0.74282E-01 10640   0.733E-01-0.223E-02
CGA:   5    -0.128308320428E+04   -0.12732E-01   -0.12739E-01 10640   0.183E-01 0.483E-03
CGA:   6    -0.128308718507E+04   -0.39808E-02   -0.40077E-02 10640   0.635E-02-0.102E-02
CGA:   7    -0.128308827402E+04   -0.10890E-02   -0.10898E-02 10640   0.192E-02 0.959E-04
CGA:   8    -0.128308867351E+04   -0.39949E-03   -0.40258E-03 10640   0.769E-03-0.214E-03
CGA:   9    -0.128308883193E+04   -0.15842E-03   -0.16271E-03 10640   0.428E-03-0.934E-04
CGA:  10    -0.128308855811E+04    0.27382E-03   -0.28488E-03 10640   0.468E-02-0.991E-03
CGA:  11    -0.128308899429E+04   -0.43618E-03   -0.44676E-03 10640   0.474E-03 0.960E-04
CGA:  12    -0.128308912926E+04   -0.13497E-03   -0.14408E-03 10640   0.199E-03-0.112E-03
CGA:  13    -0.128308917032E+04   -0.41058E-04   -0.46814E-04 10640   0.177E-03-0.657E-04
CGA:  14    -0.128308919740E+04   -0.27089E-04   -0.27330E-04 10640   0.695E-04-0.420E-04
CGA:  15    -0.128308921183E+04   -0.14430E-04   -0.14540E-04 10640   0.368E-04-0.219E-05
CGA:  16    -0.128308923027E+04   -0.18436E-04    0.29906E-04 10640   0.257E-04-0.108E-04
CGA:  17    -0.128308915544E+04    0.74829E-04   -0.40317E-04 10640   0.624E-03-0.805E-04
CGA:  18    -0.128308924763E+04   -0.92190E-04   -0.77523E-04 10640   0.155E-03-0.489E-04
CGA:  19    -0.128308927559E+04   -0.27961E-04   -0.29948E-04 10640   0.321E-04 0.106E-04
CGA:  20    -0.128308927859E+04   -0.29995E-05   -0.48954E-05 10640   0.687E-05 0.768E-05
  16 F= -.12830893E+04 E0= -.12830892E+04  d E =-.401865E-01  mag=    47.0000
       N       E                     dE             d eps       ncg     rms          ort
SDA:   1    -0.128303221163E+04    0.57064E-01    0.00000E+00 10640   0.204E+00 0.000E+00
CGA:   2    -0.128307076597E+04   -0.38554E-01   -0.38516E-01 10640   0.761E-01-0.150E-03
CGA:   3    -0.128308836678E+04   -0.17601E-01   -0.17578E-01 10640   0.318E-01-0.134E-03
CGA:   4    -0.128309270101E+04   -0.43342E-02   -0.42792E-02 10640   0.469E-02-0.234E-03
CGA:   5    -0.128309350325E+04   -0.80224E-03   -0.81907E-03 10640   0.110E-02 0.988E-04
CGA:   6    -0.128309374190E+04   -0.23865E-03   -0.23747E-03 10640   0.363E-03-0.805E-05
CGA:   7    -0.128309381979E+04   -0.77885E-04   -0.75627E-04 10640   0.136E-03-0.168E-04
CGA:   8    -0.128309385460E+04   -0.34811E-04   -0.29881E-04 10640   0.968E-04-0.470E-04
CGA:   9    -0.128309386582E+04   -0.11224E-04   -0.10996E-04 10640   0.306E-04-0.134E-05
CGA:  10    -0.128309387655E+04   -0.10723E-04   -0.11771E-04 10640   0.445E-04-0.153E-04
CGA:  11    -0.128309388435E+04   -0.78044E-05   -0.67465E-05 10640   0.942E-04-0.485E-04
CGA:  12    -0.128309389221E+04   -0.78573E-05   -0.10314E-04 10640   0.218E-04 0.117E-04
CGA:  13    -0.128309389462E+04   -0.24127E-05   -0.15642E-04 10640   0.794E-04-0.407E-04
CGA:  14    -0.128309390580E+04   -0.11181E-04   -0.13356E-04 10640   0.184E-04 0.136E-04
CGA:  15    -0.128309390801E+04   -0.22060E-05   -0.27927E-05 10640   0.252E-05 0.309E-05
  17 F= -.12830939E+04 E0= -.12830939E+04  d E =-.462942E-02  mag=    47.0000
       N       E                     dE             d eps       ncg     rms          ort
SDA:   1    -0.128301933637E+04    0.74569E-01    0.00000E+00 10640   0.252E+00 0.000E+00
CGA:   2    -0.128306933200E+04   -0.49996E-01   -0.49952E-01 10640   0.904E-01-0.413E-03
CGA:   3    -0.128309281542E+04   -0.23483E-01   -0.23477E-01 10640   0.226E-01-0.214E-03
CGA:   4    -0.128309645465E+04   -0.36392E-02   -0.36192E-02 10640   0.376E-02-0.146E-03
CGA:   5    -0.128309710578E+04   -0.65113E-03   -0.68639E-03 10640   0.831E-03 0.332E-03
CGA:   6    -0.128309734471E+04   -0.23892E-03   -0.23612E-03 10640   0.424E-03-0.114E-03
CGA:   7    -0.128309739187E+04   -0.47168E-04   -0.53399E-04 10640   0.104E-03 0.456E-04
CGA:   8    -0.128309742359E+04   -0.31721E-04   -0.31698E-04 10640   0.752E-04-0.274E-04
CGA:   9    -0.128309722782E+04    0.19577E-03   -0.63862E-04 10640   0.185E-02-0.296E-03
CGA:  10    -0.128309737097E+04   -0.14315E-03   -0.19051E-03 10640   0.243E-03 0.225E-03
CGA:  11    -0.128309742688E+04   -0.55904E-04   -0.59462E-04 10640   0.763E-04 0.389E-04
CGA:  12    -0.128309744620E+04   -0.19327E-04   -0.40766E-04 10640   0.434E-03-0.138E-03
CGA:  13    -0.128309746148E+04   -0.15275E-04   -0.35640E-04 10640   0.374E-04 0.897E-04
CGA:  14    -0.128309746137E+04    0.11416E-06   -0.40075E-05 10640   0.180E-04 0.194E-04
  18 F= -.12830975E+04 E0= -.12830974E+04  d E =-.355336E-02  mag=    47.0000
       N       E                     dE             d eps       ncg     rms          ort
SDA:   1    -0.128307561604E+04    0.21845E-01    0.00000E+00 10640   0.750E-01 0.000E+00
CGA:   2    -0.128309040874E+04   -0.14793E-01   -0.14709E-01 10640   0.308E-01-0.852E-03
CGA:   3    -0.128309705413E+04   -0.66454E-02   -0.66766E-02 10640   0.101E-01 0.483E-03
CGA:   4    -0.128309866024E+04   -0.16061E-02   -0.15863E-02 10640   0.152E-02-0.145E-03
CGA:   5    -0.128309889148E+04   -0.23124E-03   -0.25166E-03 10640   0.331E-03 0.189E-03
CGA:   6    -0.128309895788E+04   -0.66405E-04   -0.69993E-04 10640   0.113E-03 0.433E-04
CGA:   7    -0.128309899358E+04   -0.35697E-04   -0.36595E-04 10640   0.115E-03-0.480E-04
CGA:   8    -0.128309899965E+04   -0.60740E-05   -0.67966E-05 10640   0.454E-04 0.448E-05
  19 F= -.12830990E+04 E0= -.12830990E+04  d E =-.153829E-02  mag=    47.0000
       N       E                     dE             d eps       ncg     rms          ort
SDA:   1    -0.128308660253E+04    0.12391E-01    0.00000E+00 10640   0.420E-01 0.000E+00
CGA:   2    -0.128309594571E+04   -0.93432E-02   -0.93536E-02 10640   0.183E-01 0.379E-03
CGA:   3    -0.128310023810E+04   -0.42924E-02   -0.42811E-02 10640   0.549E-02-0.643E-03
CGA:   4    -0.128310095841E+04   -0.72031E-03   -0.71347E-03 10640   0.106E-02-0.504E-04
CGA:   5    -0.128310117171E+04   -0.21330E-03   -0.20646E-03 10640   0.363E-03-0.149E-03
CGA:   6    -0.128310122028E+04   -0.48568E-04   -0.49976E-04 10640   0.875E-04 0.179E-04
CGA:   7    -0.128310123932E+04   -0.19047E-04   -0.19286E-04 10640   0.247E-04 0.903E-05
CGA:   8    -0.128310111792E+04    0.12140E-03   -0.65413E-04 10640   0.848E-03-0.128E-03
CGA:   9    -0.128310122667E+04   -0.10875E-03   -0.12618E-03 10640   0.124E-03 0.631E-04
CGA:  10    -0.128310128187E+04   -0.55201E-04   -0.50120E-04 10640   0.270E-03-0.126E-03
CGA:  11    -0.128310128227E+04   -0.40273E-06   -0.22444E-04 10640   0.309E-04 0.676E-04
  20 F= -.12831013E+04 E0= -.12831013E+04  d E =-.228262E-02  mag=    47.0000
       N       E                     dE             d eps       ncg     rms          ort
SDA:   1    -0.128303297254E+04    0.68309E-01    0.00000E+00 10640   0.239E+00 0.000E+00
CGA:   2    -0.128308094629E+04   -0.47974E-01   -0.47751E-01 10640   0.906E-01-0.119E-02
CGA:   3    -0.128310215185E+04   -0.21206E-01   -0.21364E-01 10640   0.272E-01 0.114E-02
CGA:   4    -0.128310599729E+04   -0.38454E-02   -0.39743E-02 10640   0.487E-02 0.616E-03
CGA:   5    -0.128310680415E+04   -0.80686E-03   -0.85310E-03 10640   0.127E-02 0.257E-03
CGA:   6    -0.128310701899E+04   -0.21484E-03   -0.23437E-03 10640   0.382E-03 0.116E-03
CGA:   7    -0.128310712425E+04   -0.10526E-03   -0.10126E-03 10640   0.180E-03-0.419E-04
CGA:   8    -0.128310715090E+04   -0.26649E-04   -0.27186E-04 10640   0.595E-04 0.363E-05
CGA:   9    -0.128310716507E+04   -0.14172E-04   -0.14936E-04 10640   0.229E-04 0.986E-05
CGA:  10    -0.128310716286E+04    0.22050E-05   -0.24101E-05 10640   0.148E-04 0.201E-04
  21 F= -.12831072E+04 E0= -.12831071E+04  d E =-.588059E-02  mag=    47.0000
       N       E                     dE             d eps       ncg     rms          ort
SDA:   1    -0.128297513800E+04    0.13203E+00    0.00000E+00 10640   0.434E+00 0.000E+00
CGA:   2    -0.128306707939E+04   -0.91941E-01   -0.92098E-01 10640   0.181E+00 0.186E-02
CGA:   3    -0.128310985505E+04   -0.42776E-01   -0.42621E-01 10640   0.522E-01-0.269E-02
CGA:   4    -0.128311736120E+04   -0.75061E-02   -0.74214E-02 10640   0.913E-02-0.567E-03
CGA:   5    -0.128311912544E+04   -0.17642E-02   -0.17245E-02 10640   0.279E-02-0.424E-03
CGA:   6    -0.128311957108E+04   -0.44564E-03   -0.44809E-03 10640   0.818E-03 0.257E-04
CGA:   7    -0.128311970434E+04   -0.13326E-03   -0.14333E-03 10640   0.213E-03 0.103E-03
CGA:   8    -0.128311977269E+04   -0.68354E-04   -0.69808E-04 10640   0.167E-03-0.629E-04
CGA:   9    -0.128311978150E+04   -0.88077E-05   -0.14336E-04 10640   0.744E-04 0.378E-04
CGA:  10    -0.128311979960E+04   -0.18100E-04   -0.17483E-04 10640   0.690E-04-0.876E-05
CGA:  11    -0.128311986019E+04   -0.60587E-04    0.84380E-05 10640   0.718E-04-0.480E-04
CGA:  12    -0.128311986545E+04   -0.52679E-05   -0.90337E-05 10640   0.175E-04 0.286E-04
  22 F= -.12831199E+04 E0= -.12831198E+04  d E =-.127026E-01  mag=    47.0000
       N       E                     dE             d eps       ncg     rms          ort
SDA:   1    -0.128285067952E+04    0.26918E+00    0.00000E+00 10640   0.827E+00 0.000E+00
CGA:   2    -0.128304771369E+04   -0.19703E+00   -0.19704E+00 10640   0.361E+00 0.493E-03
CGA:   3    -0.128312855495E+04   -0.80841E-01   -0.80825E-01 10640   0.759E-01-0.677E-03
CGA:   4    -0.128314091542E+04   -0.12360E-01   -0.12316E-01 10640   0.165E-01-0.494E-03
CGA:   5    -0.128314387964E+04   -0.29642E-02   -0.29308E-02 10640   0.492E-02-0.494E-03
CGA:   6    -0.128314468149E+04   -0.80185E-03   -0.79707E-03 10640   0.154E-02-0.579E-04
CGA:   7    -0.128314497258E+04   -0.29109E-03   -0.29643E-03 10640   0.374E-03 0.125E-03
CGA:   8    -0.128314509606E+04   -0.12348E-03   -0.15149E-03 10640   0.540E-03-0.201E-03
CGA:   9    -0.128314513076E+04   -0.34694E-04   -0.51881E-04 10640   0.934E-04 0.119E-03
CGA:  10    -0.128314516328E+04   -0.32528E-04   -0.35577E-04 10640   0.123E-03-0.396E-04
CGA:  11    -0.128314520662E+04   -0.43333E-04    0.29843E-04 10640   0.173E-03-0.643E-04
CGA:  12    -0.128314521708E+04   -0.10460E-04   -0.19762E-04 10640   0.492E-04 0.746E-04
CGA:  13    -0.128314522679E+04   -0.97122E-05   -0.11016E-04 10640   0.151E-04 0.171E-04
  23 F= -.12831452E+04 E0= -.12831452E+04  d E =-.253613E-01  mag=    47.0000
       N       E                     dE             d eps       ncg     rms          ort
SDA:   1    -0.128301297315E+04    0.13224E+00    0.00000E+00 10640   0.444E+00 0.000E+00
CGA:   2    -0.128311199865E+04   -0.99025E-01   -0.99016E-01 10640   0.199E+00-0.156E-02
CGA:   3    -0.128315361709E+04   -0.41618E-01   -0.41634E-01 10640   0.627E-01 0.961E-03
CGA:   4    -0.128316227682E+04   -0.86597E-02   -0.86476E-02 10640   0.115E-01-0.150E-03
CGA:   5    -0.128316421219E+04   -0.19354E-02   -0.19596E-02 10640   0.252E-02 0.485E-03
CGA:   6    -0.128316478403E+04   -0.57184E-03   -0.57147E-03 10640   0.836E-03-0.105E-03
CGA:   7    -0.128316497680E+04   -0.19277E-03   -0.19661E-03 10640   0.453E-03-0.152E-03
CGA:   8    -0.128316505384E+04   -0.77037E-04   -0.74251E-04 10640   0.241E-03-0.130E-03
CGA:   9    -0.128316509986E+04   -0.46026E-04   -0.50333E-04 10640   0.141E-03-0.594E-04
CGA:  10    -0.128316512566E+04   -0.25799E-04   -0.41996E-04 10640   0.267E-03-0.940E-04
CGA:  11    -0.128316514544E+04   -0.19783E-04   -0.24378E-04 10640   0.354E-04 0.331E-04
CGA:  12    -0.128316515852E+04   -0.13080E-04   -0.15577E-04 10640   0.552E-04-0.151E-04
CGA:  13    -0.128316515923E+04   -0.70660E-06   -0.11869E-04 10640   0.169E-03-0.792E-04
CGA:  14    -0.128316517320E+04   -0.13973E-04   -0.18639E-04 10640   0.421E-04 0.360E-04
CGA:  15    -0.128316518272E+04   -0.95194E-05   -0.99396E-05 10640   0.120E-04 0.106E-04
  24 F= -.12831652E+04 E0= -.12831652E+04  d E =-.199559E-01  mag=    47.0000
       N       E                     dE             d eps       ncg     rms          ort
SDA:   1    -0.128301142259E+04    0.15375E+00    0.00000E+00 10640   0.466E+00 0.000E+00
CGA:   2    -0.128311721588E+04   -0.10579E+00   -0.10577E+00 10640   0.210E+00-0.277E-02
CGA:   3    -0.128316131865E+04   -0.44103E-01   -0.44108E-01 10640   0.612E-01 0.390E-03
CGA:   4    -0.128316971716E+04   -0.83985E-02   -0.84044E-02 10640   0.117E-01 0.411E-04
CGA:   5    -0.128317157530E+04   -0.18581E-02   -0.19191E-02 10640   0.248E-02 0.952E-03
CGA:   6    -0.128317211127E+04   -0.53598E-03   -0.54069E-03 10640   0.658E-03 0.196E-03
CGA:   7    -0.128317232151E+04   -0.21024E-03   -0.23333E-03 10640   0.468E-03-0.221E-03
CGA:   8    -0.128317236041E+04   -0.38904E-04   -0.40683E-04 10640   0.183E-03 0.185E-04
CGA:   9    -0.128317239145E+04   -0.31040E-04   -0.32587E-04 10640   0.111E-03 0.291E-04
CGA:  10    -0.128317241620E+04   -0.24751E-04   -0.24249E-04 10640   0.696E-04-0.149E-04
CGA:  11    -0.128317242086E+04   -0.46546E-05   -0.72105E-05 10640   0.392E-04 0.254E-04
  25 F= -.12831724E+04 E0= -.12831724E+04  d E =-.723814E-02  mag=    47.0000
       N       E                     dE             d eps       ncg     rms          ort
SDA:   1    -0.128287310609E+04    0.29931E+00    0.00000E+00 10640   0.800E+00 0.000E+00
CGA:   2    -0.128305808755E+04   -0.18498E+00   -0.18503E+00 10640   0.363E+00-0.204E-02
CGA:   3    -0.128313608179E+04   -0.77994E-01   -0.77985E-01 10640   0.909E-01 0.189E-02
CGA:   4    -0.128314926485E+04   -0.13183E-01   -0.13236E-01 10640   0.182E-01 0.945E-03
CGA:   5    -0.128315236148E+04   -0.30966E-02   -0.31221E-02 10640   0.478E-02 0.695E-03
CGA:   6    -0.128315326123E+04   -0.89975E-03   -0.90359E-03 10640   0.136E-02 0.170E-03
CGA:   7    -0.128315361546E+04   -0.35423E-03   -0.36670E-03 10640   0.675E-03-0.222E-03
CGA:   8    -0.128315368392E+04   -0.68459E-04   -0.76318E-04 10640   0.205E-03 0.110E-03
CGA:   9    -0.128315373875E+04   -0.54829E-04   -0.54109E-04 10640   0.133E-03 0.301E-04
CGA:  10    -0.128315377056E+04   -0.31815E-04   -0.31875E-04 10640   0.108E-03-0.159E-04
CGA:  11    -0.128315377235E+04   -0.17883E-05   -0.85210E-05 10640   0.679E-04 0.585E-04
  26 F= -.12831538E+04 E0= -.12831537E+04  d E =0.186485E-01  mag=    47.0000
       N       E                     dE             d eps       ncg     rms          ort
SDA:   1    -0.128282529954E+04    0.32847E+00    0.00000E+00 10640   0.818E+00 0.000E+00
CGA:   2    -0.128302159723E+04   -0.19630E+00   -0.19611E+00 10640   0.352E+00 0.407E-02
CGA:   3    -0.128309881309E+04   -0.77216E-01   -0.77246E-01 10640   0.858E-01-0.134E-02
CGA:   4    -0.128311215457E+04   -0.13341E-01   -0.13314E-01 10640   0.198E-01-0.514E-03
CGA:   5    -0.128311552790E+04   -0.33733E-02   -0.33599E-02 10640   0.533E-02-0.543E-03
CGA:   6    -0.128311647085E+04   -0.94295E-03   -0.94088E-03 10640   0.166E-02-0.167E-03
CGA:   7    -0.128311681826E+04   -0.34741E-03   -0.34756E-03 10640   0.512E-03-0.419E-05
CGA:   8    -0.128311688838E+04   -0.70116E-04   -0.76778E-04 10640   0.168E-03 0.152E-03
CGA:   9    -0.128311695179E+04   -0.63413E-04   -0.60354E-04 10640   0.956E-04 0.364E-04
CGA:  10    -0.128311673703E+04    0.21476E-03   -0.12052E-03 10640   0.230E-02-0.352E-03
CGA:  11    -0.128311695566E+04   -0.21862E-03   -0.24623E-03 10640   0.347E-03 0.117E-03
CGA:  12    -0.128311704742E+04   -0.91760E-04   -0.92017E-04 10640   0.159E-03 0.313E-05
CGA:  13    -0.128311707882E+04   -0.31406E-04   -0.32245E-04 10640   0.739E-04 0.628E-05
CGA:  14    -0.128311709323E+04   -0.14409E-04   -0.16681E-04 10640   0.255E-04 0.195E-04
CGA:  15    -0.128311711609E+04   -0.22864E-04    0.62991E-04 10640   0.336E-04-0.239E-05
CGA:  16    -0.128311712002E+04   -0.39304E-05   -0.49454E-05 10640   0.163E-04 0.609E-05
  27 F= -.12831171E+04 E0= -.12831171E+04  d E =0.366523E-01  mag=    47.0000
       N       E                     dE             d eps       ncg     rms          ort
SDA:   1    -0.128256940414E+04    0.54771E+00    0.00000E+00 10640   0.134E+01 0.000E+00
CGA:   2    -0.128291192748E+04   -0.34252E+00   -0.34268E+00 10640   0.601E+00 0.270E-02
CGA:   3    -0.128303146278E+04   -0.11954E+00   -0.11955E+00 10640   0.166E+00-0.537E-03
CGA:   4    -0.128305581953E+04   -0.24357E-01   -0.24324E-01 10640   0.368E-01 0.716E-03
CGA:   5    -0.128306236201E+04   -0.65425E-02   -0.64783E-02 10640   0.866E-02-0.521E-03
CGA:   6    -0.128306401274E+04   -0.16507E-02   -0.16519E-02 10640   0.255E-02 0.228E-04
CGA:   7    -0.128306452951E+04   -0.51678E-03   -0.52931E-03 10640   0.787E-03 0.172E-03
CGA:   8    -0.128306467764E+04   -0.14812E-03   -0.15674E-03 10640   0.317E-03 0.964E-04
CGA:   9    -0.128306474375E+04   -0.66113E-04   -0.72948E-04 10640   0.121E-03 0.101E-03
CGA:  10    -0.128306477506E+04   -0.31310E-04   -0.34637E-04 10640   0.515E-04 0.635E-04
CGA:  11    -0.128306478728E+04   -0.12219E-04   -0.45569E-04 10640   0.328E-03-0.541E-04
CGA:  12    -0.128306479340E+04   -0.61194E-05   -0.28489E-04 10640   0.567E-04 0.107E-03
  28 F= -.12830648E+04 E0= -.12830648E+04  d E =0.523266E-01  mag=    47.0000
       N       E                     dE             d eps       ncg     rms          ort
SDA:   1    -0.128227894129E+04    0.78585E+00    0.00000E+00 10640   0.222E+01 0.000E+00
CGA:   2    -0.128278976141E+04   -0.51082E+00   -0.51087E+00 10640   0.975E+00 0.144E-02
CGA:   3    -0.128301032407E+04   -0.22056E+00   -0.22057E+00 10640   0.211E+00-0.123E-04
CGA:   4    -0.128304391626E+04   -0.33592E-01   -0.33586E-01 10640   0.403E-01 0.966E-04
CGA:   5    -0.128305168335E+04   -0.77671E-02   -0.77052E-02 10640   0.126E-01-0.797E-03
CGA:   6    -0.128305373815E+04   -0.20548E-02   -0.20530E-02 10640   0.406E-02 0.758E-05
CGA:   7    -0.128305460868E+04   -0.87054E-03   -0.86241E-03 10640   0.124E-02-0.174E-03
CGA:   8    -0.128305487920E+04   -0.27051E-03   -0.26921E-03 10640   0.635E-03-0.427E-04
CGA:   9    -0.128305504535E+04   -0.16616E-03   -0.16857E-03 10640   0.464E-03-0.114E-03
CGA:  10    -0.128305513380E+04   -0.88447E-04   -0.17449E-03 10640   0.116E-02-0.423E-03
CGA:  11    -0.128305527075E+04   -0.13695E-03   -0.13035E-03 10640   0.230E-03-0.409E-04
CGA:  12    -0.128305532521E+04   -0.54458E-04   -0.54576E-04 10640   0.720E-04 0.104E-04
CGA:  13    -0.128305498196E+04    0.34325E-03   -0.18511E-03 10640   0.386E-02-0.336E-03
CGA:  14    -0.128305533426E+04   -0.35230E-03   -0.38651E-03 10640   0.330E-03 0.115E-03
CGA:  15    -0.128305542227E+04   -0.88011E-04   -0.84564E-04 10640   0.175E-03-0.168E-04
CGA:  16    -0.128305546583E+04   -0.43558E-04   -0.36799E-04 10640   0.779E-04-0.305E-04
CGA:  17    -0.128305547377E+04   -0.79356E-05   -0.10733E-04 10640   0.244E-04 0.108E-04
  29 F= -.12830555E+04 E0= -.12830554E+04  d E =0.931963E-02  mag=    47.0000
       N       E                     dE             d eps       ncg     rms          ort
SDA:   1    -0.128222322513E+04    0.83224E+00    0.00000E+00 10640   0.249E+01 0.000E+00
CGA:   2    -0.128283226112E+04   -0.60904E+00   -0.60851E+00 10640   0.115E+01-0.188E-02
CGA:   3    -0.128306095529E+04   -0.22869E+00   -0.22850E+00 10640   0.327E+00 0.118E-02
CGA:   4    -0.128310777880E+04   -0.46824E-01   -0.47024E-01 10640   0.684E-01 0.681E-04
CGA:   5    -0.128311959992E+04   -0.11821E-01   -0.11906E-01 10640   0.158E-01 0.569E-03
CGA:   6    -0.128312265794E+04   -0.30580E-02   -0.30468E-02 10640   0.483E-02-0.517E-04
CGA:   7    -0.128312361617E+04   -0.95823E-03   -0.98541E-03 10640   0.156E-02 0.188E-03
CGA:   8    -0.128312407646E+04   -0.46030E-03   -0.42558E-03 10640   0.115E-02-0.393E-03
CGA:   9    -0.128312419997E+04   -0.12351E-03   -0.13905E-03 10640   0.427E-03 0.866E-04
CGA:  10    -0.128312426705E+04   -0.67077E-04   -0.84588E-04 10640   0.208E-03 0.116E-03
CGA:  11    -0.128312433825E+04   -0.71198E-04   -0.65609E-04 10640   0.245E-03-0.691E-04
CGA:  12    -0.128312434959E+04   -0.11341E-04   -0.18597E-04 10640   0.154E-03 0.344E-04
CGA:  13    -0.128312435030E+04   -0.71331E-06   -0.14274E-04 10640   0.842E-04 0.585E-04
CGA:  14    -0.128312435623E+04   -0.59267E-05   -0.13906E-04 10640   0.713E-04 0.436E-04
CGA:  15    -0.128312440454E+04   -0.48310E-04    0.67556E-04 10640   0.220E-03-0.657E-04
CGA:  16    -0.128312440321E+04    0.13302E-05   -0.14036E-04 10640   0.287E-04 0.676E-04
  30 F= -.12831244E+04 E0= -.12831244E+04  d E =-.689294E-01  mag=    47.0000
       N       E                     dE             d eps       ncg     rms          ort
SDA:   1    -0.127921479896E+04    0.39096E+01    0.00000E+00 10640   0.120E+02 0.000E+00
CGA:   2    -0.128173025980E+04   -0.25155E+01   -0.25149E+01 10640   0.483E+01-0.499E-02
CGA:   3    -0.128286304365E+04   -0.11328E+01   -0.11332E+01 10640   0.127E+01 0.105E-01
CGA:   4    -0.128306041957E+04   -0.19738E+00   -0.19734E+00 10640   0.214E+00 0.322E-02
CGA:   5    -0.128310174416E+04   -0.41325E-01   -0.41482E-01 10640   0.556E-01 0.248E-02
CGA:   6    -0.128311270105E+04   -0.10957E-01   -0.10906E-01 10640   0.201E-01-0.697E-03
CGA:   7    -0.128311647587E+04   -0.37748E-02   -0.37669E-02 10640   0.613E-02-0.103E-03
CGA:   8    -0.128311772799E+04   -0.12521E-02   -0.12480E-02 10640   0.291E-02-0.811E-04
CGA:   9    -0.128311847138E+04   -0.74339E-03   -0.74988E-03 10640   0.202E-02-0.478E-03
CGA:  10    -0.128311874718E+04   -0.27579E-03   -0.29668E-03 10640   0.658E-03 0.290E-03
CGA:  11    -0.128311892091E+04   -0.17373E-03   -0.17606E-03 10640   0.331E-03 0.212E-03
CGA:  12    -0.128311905210E+04   -0.13119E-03   -0.14266E-03 10640   0.699E-03-0.141E-03
CGA:  13    -0.128311908485E+04   -0.32756E-04   -0.40431E-04 10640   0.617E-03 0.498E-04
CGA:  14    -0.128311911410E+04   -0.29251E-04   -0.51863E-04 10640   0.340E-03 0.138E-03
CGA:  15    -0.128311915267E+04   -0.38567E-04   -0.52484E-04 10640   0.435E-03 0.129E-03
CGA:  16    -0.128311926365E+04   -0.11098E-03   -0.11100E-03 10640   0.355E-03-0.374E-05
CGA:  17    -0.128311934343E+04   -0.79783E-04   -0.87514E-04 10640   0.868E-03-0.336E-03
CGA:  18    -0.128311939868E+04   -0.55248E-04   -0.85816E-04 10640   0.216E-03 0.242E-03
CGA:  19    -0.128311943163E+04   -0.32954E-04   -0.41159E-04 10640   0.119E-03 0.116E-03
CGA:  20    -0.128311948717E+04   -0.55540E-04    0.16757E-03 10640   0.137E-03-0.287E-04
CGA:  21    -0.128311951588E+04   -0.28711E-04   -0.27656E-04 10640   0.635E-04 0.214E-04
CGA:  22    -0.128311951326E+04    0.26187E-05   -0.45346E-05 10640   0.315E-04 0.455E-04
  31 F= -.12831195E+04 E0= -.12831195E+04  d E =0.488994E-02  mag=    47.0000
       N       E                     dE             d eps       ncg     rms          ort
SDA:   1    -0.127928022579E+04    0.38393E+01    0.00000E+00 10640   0.131E+02 0.000E+00
CGA:   2    -0.128171319508E+04   -0.24330E+01   -0.24330E+01 10640   0.462E+01 0.155E-01
CGA:   3    -0.128286266517E+04   -0.11495E+01   -0.11495E+01 10640   0.160E+01-0.756E-02
CGA:   4    -0.128309542495E+04   -0.23276E+00   -0.23289E+00 10640   0.233E+00 0.588E-02
CGA:   5    -0.128313999206E+04   -0.44567E-01   -0.44523E-01 10640   0.683E-01-0.299E-02
CGA:   6    -0.128315239549E+04   -0.12403E-01   -0.12415E-01 10640   0.218E-01 0.656E-03
CGA:   7    -0.128315647619E+04   -0.40807E-02   -0.40876E-02 10640   0.670E-02 0.440E-03
CGA:   8    -0.128315787489E+04   -0.13987E-02   -0.14006E-02 10640   0.299E-02-0.588E-03
CGA:   9    -0.128315840761E+04   -0.53272E-03   -0.53451E-03 10640   0.103E-02 0.300E-03
CGA:  10    -0.128315867390E+04   -0.26629E-03   -0.68633E-03 10640   0.264E-02-0.103E-02
CGA:  11    -0.128315901082E+04   -0.33692E-03   -0.36158E-03 10640   0.558E-03 0.297E-03
CGA:  12    -0.128315916481E+04   -0.15399E-03   -0.17626E-03 10640   0.599E-03-0.336E-03
CGA:  13    -0.128315921279E+04   -0.47981E-04   -0.60720E-04 10640   0.121E-03 0.108E-03
CGA:  14    -0.128315925615E+04   -0.43358E-04   -0.47288E-04 10640   0.139E-03-0.342E-04
CGA:  15    -0.128315931981E+04   -0.63658E-04    0.25116E-04 10640   0.187E-03 0.264E-04
CGA:  16    -0.128315942734E+04   -0.10754E-03    0.25652E-03 10640   0.102E-03 0.107E-03
CGA:  17    -0.128315943117E+04   -0.38312E-05   -0.10340E-04 10640   0.439E-04 0.544E-04
  32 F= -.12831594E+04 E0= -.12831594E+04  d E =-.399179E-01  mag=    47.0000
       N       E                     dE             d eps       ncg     rms          ort
SDA:   1    -0.128292398406E+04    0.23544E+00    0.00000E+00 10640   0.858E+00 0.000E+00
CGA:   2    -0.128308102243E+04   -0.15704E+00   -0.15653E+00 10640   0.301E+00-0.209E-02
CGA:   3    -0.128315329619E+04   -0.72274E-01   -0.72608E-01 10640   0.106E+00 0.239E-02
CGA:   4    -0.128316961256E+04   -0.16316E-01   -0.16264E-01 10640   0.149E-01-0.171E-03
CGA:   5    -0.128317222348E+04   -0.26109E-02   -0.27188E-02 10640   0.379E-02 0.613E-03
CGA:   6    -0.128317313183E+04   -0.90834E-03   -0.87584E-03 10640   0.144E-02-0.242E-03
CGA:   7    -0.128317333796E+04   -0.20614E-03   -0.22380E-03 10640   0.371E-03 0.991E-04
CGA:   8    -0.128317341536E+04   -0.77395E-04   -0.78639E-04 10640   0.145E-03 0.932E-05
CGA:   9    -0.128317344677E+04   -0.31413E-04   -0.84837E-04 10640   0.784E-03-0.223E-03
CGA:  10    -0.128317347038E+04   -0.23605E-04   -0.64570E-04 10640   0.923E-04 0.161E-03
CGA:  11    -0.128317346844E+04    0.19405E-05   -0.10544E-04 10640   0.453E-04 0.530E-04
CGA:  12    -0.128317347843E+04   -0.99952E-05   -0.24588E-04 10640   0.289E-03-0.648E-04
CGA:  13    -0.128317347983E+04   -0.13945E-05   -0.19731E-04 10640   0.239E-04 0.713E-04
  33 F= -.12831735E+04 E0= -.12831735E+04  d E =-.140487E-01  mag=    47.0000
       N       E                     dE             d eps       ncg     rms          ort
SDA:   1    -0.128306646266E+04    0.10702E+00    0.00000E+00 10640   0.350E+00 0.000E+00
CGA:   2    -0.128313228476E+04   -0.65822E-01   -0.65679E-01 10640   0.128E+00-0.105E-02
CGA:   3    -0.128316246523E+04   -0.30180E-01   -0.30250E-01 10640   0.455E-01 0.108E-02
CGA:   4    -0.128316896463E+04   -0.64994E-02   -0.65382E-02 10640   0.713E-02 0.329E-03
CGA:   5    -0.128317017820E+04   -0.12136E-02   -0.12340E-02 10640   0.198E-02 0.185E-03
CGA:   6    -0.128317054433E+04   -0.36613E-03   -0.37242E-03 10640   0.605E-03 0.667E-04
CGA:   7    -0.128317069312E+04   -0.14879E-03   -0.14513E-03 10640   0.274E-03-0.822E-04
CGA:   8    -0.128317071462E+04   -0.21498E-04   -0.29753E-04 10640   0.675E-04 0.560E-04
CGA:   9    -0.128317072779E+04   -0.13174E-04   -0.14820E-04 10640   0.438E-04 0.195E-04
CGA:  10    -0.128317074175E+04   -0.13951E-04   -0.13664E-04 10640   0.443E-04-0.141E-04
CGA:  11    -0.128317073986E+04    0.18811E-05   -0.19097E-05 10640   0.339E-04 0.192E-04
  34 F= -.12831707E+04 E0= -.12831707E+04  d E =0.273996E-02  mag=    47.0000
       N       E                     dE             d eps       ncg     rms          ort
SDA:   1    -0.128313790452E+04    0.32837E-01    0.00000E+00 10640   0.803E-01 0.000E+00
CGA:   2    -0.128315582302E+04   -0.17918E-01   -0.17924E-01 10640   0.336E-01 0.322E-03
CGA:   3    -0.128316370119E+04   -0.78782E-02   -0.78740E-02 10640   0.888E-02-0.561E-03
CGA:   4    -0.128316486462E+04   -0.11634E-02   -0.12078E-02 10640   0.164E-02 0.445E-03
CGA:   5    -0.128316517468E+04   -0.31006E-03   -0.31016E-03 10640   0.484E-03 0.329E-05
CGA:   6    -0.128316526998E+04   -0.95299E-04   -0.94018E-04 10640   0.176E-03-0.328E-04
CGA:   7    -0.128316530025E+04   -0.30269E-04   -0.30759E-04 10640   0.506E-04 0.115E-04
CGA:   8    -0.128316531209E+04   -0.11849E-04   -0.11874E-04 10640   0.219E-04 0.314E-05
CGA:   9    -0.128316531983E+04   -0.77369E-05   -0.12488E-04 10640   0.544E-04-0.154E-04
  35 F= -.12831653E+04 E0= -.12831653E+04  d E =0.542003E-02  mag=    47.0000
       N       E                     dE             d eps       ncg     rms          ort
SDA:   1    -0.128308805291E+04    0.77259E-01    0.00000E+00 10640   0.189E+00 0.000E+00
CGA:   2    -0.128313250805E+04   -0.44455E-01   -0.44455E-01 10640   0.820E-01 0.114E-02
CGA:   3    -0.128315140681E+04   -0.18899E-01   -0.18892E-01 10640   0.188E-01-0.117E-02
CGA:   4    -0.128315407407E+04   -0.26673E-02   -0.27463E-02 10640   0.341E-02 0.941E-03
CGA:   5    -0.128315486786E+04   -0.79379E-03   -0.78868E-03 10640   0.135E-02-0.498E-03
CGA:   6    -0.128315501184E+04   -0.14398E-03   -0.15664E-03 10640   0.373E-03 0.137E-03
CGA:   7    -0.128315508415E+04   -0.72313E-04   -0.74557E-04 10640   0.118E-03 0.518E-04
CGA:   8    -0.128315414879E+04    0.93536E-03   -0.50594E-03 10640   0.895E-02-0.930E-03
CGA:   9    -0.128315485295E+04   -0.70415E-03   -0.86590E-03 10640   0.969E-03 0.636E-03
CGA:  10    -0.128315506784E+04   -0.21489E-03   -0.21966E-03 10640   0.231E-03 0.273E-04
CGA:  11    -0.128315514127E+04   -0.73430E-04   -0.11130E-03 10640   0.139E-02-0.439E-03
CGA:  12    -0.128315516593E+04   -0.24665E-04   -0.11303E-03 10640   0.111E-03 0.299E-03
CGA:  13    -0.128315515773E+04    0.82057E-05   -0.98991E-05 10640   0.442E-04 0.611E-04
CGA:  14    -0.128315508369E+04    0.74038E-04   -0.57932E-04 10640   0.648E-03-0.138E-03
CGA:  15    -0.128315511405E+04   -0.30362E-04   -0.78560E-04 10640   0.149E-03 0.173E-03
CGA:  16    -0.128315516337E+04   -0.49314E-04   -0.46638E-04 10640   0.282E-04-0.187E-04
CGA:  17    -0.128315520095E+04   -0.37579E-04    0.47319E-05 10640   0.956E-04-0.398E-04
CGA:  18    -0.128315519084E+04    0.10107E-04   -0.54290E-05 10640   0.258E-04 0.480E-04
CGA:  19    -0.128315518648E+04    0.43566E-05   -0.11766E-05 10640   0.121E-04 0.173E-04
  36 F= -.12831552E+04 E0= -.12831552E+04  d E =0.101333E-01  mag=    47.0000
       N       E                     dE             d eps       ncg     rms          ort
SDA:   1    -0.128287069474E+04    0.28450E+00    0.00000E+00 10640   0.712E+00 0.000E+00
CGA:   2    -0.128304368417E+04   -0.17299E+00   -0.17304E+00 10640   0.344E+00 0.631E-03
CGA:   3    -0.128311300948E+04   -0.69325E-01   -0.69340E-01 10640   0.994E-01 0.129E-04
CGA:   4    -0.128312642619E+04   -0.13417E-01   -0.13419E-01 10640   0.180E-01 0.309E-03
CGA:   5    -0.128312983807E+04   -0.34119E-02   -0.33967E-02 10640   0.432E-02-0.105E-03
CGA:   6    -0.128313070043E+04   -0.86236E-03   -0.85839E-03 10640   0.136E-02-0.328E-04
CGA:   7    -0.128313102121E+04   -0.32078E-03   -0.30751E-03 10640   0.631E-03-0.175E-03
CGA:   8    -0.128313109477E+04   -0.73556E-04   -0.81419E-04 10640   0.172E-03 0.536E-04
CGA:   9    -0.128313116080E+04   -0.66028E-04   -0.69611E-04 10640   0.153E-03-0.439E-04
CGA:  10    -0.128313114557E+04    0.15229E-04   -0.70824E-04 10640   0.101E-02-0.263E-03
CGA:  11    -0.128313122651E+04   -0.80941E-04   -0.10068E-03 10640   0.114E-03 0.965E-04
CGA:  12    -0.128313127178E+04   -0.45268E-04   -0.58024E-04 10640   0.200E-03-0.778E-04
CGA:  13    -0.128313128869E+04   -0.16914E-04   -0.22371E-04 10640   0.303E-04 0.280E-04
CGA:  14    -0.128313129370E+04   -0.50066E-05   -0.62773E-05 10640   0.135E-04 0.108E-04
CGA:  15    -0.128313130525E+04   -0.11547E-04    0.35751E-04 10640   0.199E-04-0.927E-06
CGA:  16    -0.128313131976E+04   -0.14519E-04    0.80747E-05 10640   0.273E-04 0.261E-05
CGA:  17    -0.128313132918E+04   -0.94142E-05   -0.94675E-05 10640   0.454E-04-0.461E-05
CGA:  18    -0.128313121335E+04    0.11583E-03   -0.45462E-04 10640   0.507E-03-0.184E-03
CGA:  19    -0.128313135491E+04   -0.14156E-03   -0.12752E-03 10640   0.477E-03-0.157E-03
CGA:  20    -0.128313138492E+04   -0.30007E-04   -0.45322E-04 10640   0.162E-03 0.782E-04
CGA:  21    -0.128313138729E+04   -0.23694E-05   -0.16158E-04 10640   0.617E-04 0.578E-04
CGA:  22    -0.128313139531E+04   -0.80202E-05   -0.12409E-04 10640   0.596E-04 0.266E-04
CGA:  23    -0.128313141934E+04   -0.24031E-04   -0.22681E-04 10640   0.572E-04-0.343E-04
CGA:  24    -0.128313141975E+04   -0.40947E-06   -0.55056E-05 10640   0.155E-04 0.247E-04
  37 F= -.12831314E+04 E0= -.12831314E+04  d E =0.237667E-01  mag=    47.0000
       N       E                     dE             d eps       ncg     rms          ort
SDA:   1    -0.127969643938E+04    0.34350E+01    0.00000E+00 10640   0.110E+02 0.000E+00
CGA:   2    -0.128178753189E+04   -0.20911E+01   -0.20900E+01 10640   0.443E+01 0.194E-01
CGA:   3    -0.128277371027E+04   -0.98618E+00   -0.98655E+00 10640   0.167E+01-0.335E-02
CGA:   4    -0.128301144888E+04   -0.23774E+00   -0.23683E+00 10640   0.246E+00 0.110E-01
CGA:   5    -0.128305710902E+04   -0.45660E-01   -0.45524E-01 10640   0.699E-01-0.144E-02
CGA:   6    -0.128306981179E+04   -0.12703E-01   -0.12643E-01 10640   0.225E-01-0.704E-03
CGA:   7    -0.128307397731E+04   -0.41655E-02   -0.42198E-02 10640   0.622E-02 0.836E-03
CGA:   8    -0.128307552907E+04   -0.15518E-02   -0.15410E-02 10640   0.283E-02-0.592E-03
CGA:   9    -0.128307598329E+04   -0.45422E-03   -0.48180E-03 10640   0.112E-02 0.415E-03
CGA:  10    -0.128307641446E+04   -0.43117E-03   -0.45218E-03 10640   0.932E-03-0.209E-03
CGA:  11    -0.128307663285E+04   -0.21839E-03   -0.28589E-03 10640   0.159E-02-0.562E-03
CGA:  12    -0.128307675760E+04   -0.12476E-03   -0.16244E-03 10640   0.345E-03 0.238E-03
CGA:  13    -0.128307685291E+04   -0.95311E-04   -0.96383E-04 10640   0.189E-03 0.837E-04
CGA:  14    -0.128307687284E+04   -0.19926E-04   -0.13034E-03 10640   0.173E-02-0.367E-03
CGA:  15    -0.128307697384E+04   -0.10100E-03   -0.14891E-03 10640   0.181E-03 0.267E-03
CGA:  16    -0.128307699962E+04   -0.25779E-04   -0.32896E-04 10640   0.125E-03 0.691E-04
CGA:  17    -0.128307692447E+04    0.75146E-04   -0.13361E-03 10640   0.156E-02-0.401E-03
CGA:  18    -0.128307705031E+04   -0.12584E-03   -0.16487E-03 10640   0.356E-03 0.227E-03
CGA:  19    -0.128307714710E+04   -0.96787E-04   -0.98800E-04 10640   0.979E-04 0.651E-04
CGA:  20    -0.128307680940E+04    0.33770E-03   -0.11303E-03 10640   0.531E-02-0.638E-03
CGA:  21    -0.128307716657E+04   -0.35717E-03   -0.45755E-03 10640   0.258E-03 0.487E-03
CGA:  22    -0.128307719980E+04   -0.33224E-04   -0.44093E-04 10640   0.138E-03 0.787E-04
CGA:  23    -0.128307707899E+04    0.12081E-03   -0.15054E-03 10640   0.172E-02-0.496E-03
CGA:  24    -0.128307719009E+04   -0.11110E-03   -0.17438E-03 10640   0.356E-03 0.301E-03
CGA:  25    -0.128307726647E+04   -0.76384E-04   -0.87664E-04 10640   0.160E-03 0.118E-03
CGA:  26    -0.128307732811E+04   -0.61633E-04   -0.71520E-04 10640   0.546E-03-0.275E-03
CGA:  27    -0.128307733607E+04   -0.79596E-05   -0.39730E-04 10640   0.600E-04 0.140E-03
  38 F= -.12830773E+04 E0= -.12830773E+04  d E =0.540837E-01  mag=    47.0000
       N       E                     dE             d eps       ncg     rms          ort
SDA:   1    -0.127845585379E+04    0.46215E+01    0.00000E+00 10640   0.158E+02 0.000E+00
CGA:   2    -0.128133863438E+04   -0.28828E+01   -0.28714E+01 10640   0.594E+01 0.112E-01
CGA:   3    -0.128267596685E+04   -0.13373E+01   -0.13402E+01 10640   0.243E+01 0.223E-01
CGA:   4    -0.128302181537E+04   -0.34585E+00   -0.34361E+00 10640   0.344E+00 0.159E-01
CGA:   5    -0.128308495971E+04   -0.63144E-01   -0.63244E-01 10640   0.937E-01 0.146E-02
CGA:   6    -0.128310245337E+04   -0.17494E-01   -0.17550E-01 10640   0.300E-01 0.935E-03
CGA:   7    -0.128310869213E+04   -0.62388E-02   -0.61961E-02 10640   0.958E-02-0.791E-03
CGA:   8    -0.128311049070E+04   -0.17986E-02   -0.18067E-02 10640   0.317E-02 0.157E-03
CGA:   9    -0.128311148040E+04   -0.98970E-03   -0.10553E-02 10640   0.313E-02-0.855E-03
CGA:  10    -0.128311182664E+04   -0.34624E-03   -0.35418E-03 10640   0.116E-02 0.855E-04
CGA:  11    -0.128311205435E+04   -0.22771E-03   -0.23948E-03 10640   0.683E-03 0.241E-03
CGA:  12    -0.128311222898E+04   -0.17463E-03   -0.16827E-03 10640   0.533E-03-0.142E-03
CGA:  13    -0.128311233716E+04   -0.10818E-03   -0.10923E-03 10640   0.398E-03-0.815E-04
CGA:  14    -0.128311241033E+04   -0.73170E-04   -0.74520E-04 10640   0.315E-03 0.529E-04
CGA:  15    -0.128311251803E+04   -0.10770E-03   -0.14582E-03 10640   0.751E-03-0.233E-03
CGA:  16    -0.128311259207E+04   -0.74040E-04   -0.82300E-04 10640   0.181E-03 0.595E-04
CGA:  17    -0.128311264009E+04   -0.48011E-04   -0.48019E-04 10640   0.606E-04 0.479E-04
CGA:  18    -0.128311264541E+04   -0.53230E-05   -0.10162E-04 10640   0.416E-04 0.424E-04
CGA:  19    -0.128311265692E+04   -0.11512E-04   -0.11087E-04 10640   0.458E-04 0.163E-04
CGA:  20    -0.128311268628E+04   -0.29363E-04   -0.30501E-04 10640   0.111E-03-0.525E-05
CGA:  21    -0.128311269131E+04   -0.50302E-05   -0.11729E-04 10640   0.691E-04 0.494E-04
  39 F= -.12831127E+04 E0= -.12831127E+04  d E =-.353552E-01  mag=    47.0000
       N       E                     dE             d eps       ncg     rms          ort
SDA:   1    -0.128281670145E+04    0.29598E+00    0.00000E+00 10640   0.108E+01 0.000E+00
CGA:   2    -0.128301119043E+04   -0.19449E+00   -0.19460E+00 10640   0.395E+00 0.215E-02
CGA:   3    -0.128310330972E+04   -0.92119E-01   -0.92115E-01 10640   0.166E+00-0.119E-02
CGA:   4    -0.128312655663E+04   -0.23247E-01   -0.23261E-01 10640   0.232E-01 0.431E-04
CGA:   5    -0.128313066596E+04   -0.41093E-02   -0.41169E-02 10640   0.624E-02 0.171E-03
CGA:   6    -0.128313195757E+04   -0.12916E-02   -0.12788E-02 10640   0.244E-02-0.514E-03
CGA:   7    -0.128313230823E+04   -0.35066E-03   -0.36270E-03 10640   0.541E-03 0.191E-03
CGA:   8    -0.128313245388E+04   -0.14564E-03   -0.14699E-03 10640   0.199E-03-0.477E-04
CGA:   9    -0.128313250385E+04   -0.49974E-04   -0.50296E-04 10640   0.102E-03-0.599E-05
CGA:  10    -0.128313252062E+04   -0.16772E-04   -0.51980E-04 10640   0.366E-03-0.118E-03
CGA:  11    -0.128313256446E+04   -0.43836E-04   -0.41692E-04 10640   0.529E-04-0.156E-04
CGA:  12    -0.128313257779E+04   -0.13333E-04   -0.19507E-04 10640   0.979E-04-0.414E-04
CGA:  13    -0.128313258566E+04   -0.78658E-05   -0.91861E-05 10640   0.115E-04 0.904E-05
  40 F= -.12831326E+04 E0= -.12831326E+04  d E =-.198943E-01  mag=    47.0000
       N       E                     dE             d eps       ncg     rms          ort
SDA:   1    -0.128281534086E+04    0.31724E+00    0.00000E+00 10640   0.106E+01 0.000E+00
CGA:   2    -0.128300795468E+04   -0.19261E+00   -0.19270E+00 10640   0.396E+00 0.201E-02
CGA:   3    -0.128309929511E+04   -0.91340E-01   -0.91318E-01 10640   0.163E+00-0.120E-02
CGA:   4    -0.128312221241E+04   -0.22917E-01   -0.22989E-01 10640   0.229E-01 0.699E-03
CGA:   5    -0.128312629899E+04   -0.40866E-02   -0.40895E-02 10640   0.628E-02 0.713E-04
CGA:   6    -0.128312755589E+04   -0.12569E-02   -0.12424E-02 10640   0.225E-02-0.333E-03
CGA:   7    -0.128312791793E+04   -0.36205E-03   -0.37108E-03 10640   0.556E-03 0.146E-03
CGA:   8    -0.128312807275E+04   -0.15482E-03   -0.15822E-03 10640   0.281E-03-0.103E-03
CGA:   9    -0.128312810250E+04   -0.29742E-04   -0.35300E-04 10640   0.109E-03 0.684E-04
CGA:  10    -0.128312813562E+04   -0.33120E-04   -0.32999E-04 10640   0.669E-04 0.108E-04
CGA:  11    -0.128312817279E+04   -0.37175E-04    0.99904E-04 10640   0.551E-04 0.143E-06
CGA:  12    -0.128312818479E+04   -0.11998E-04   -0.12049E-04 10640   0.339E-04 0.366E-05
CGA:  13    -0.128312819334E+04   -0.85457E-05   -0.85206E-05 10640   0.255E-04 0.659E-05
  41 F= -.12831282E+04 E0= -.12831282E+04  d E =0.439232E-02  mag=    47.0000
       N       E                     dE             d eps       ncg     rms          ort
SDA:   1    -0.128309160940E+04    0.36575E-01    0.00000E+00 10640   0.944E-01 0.000E+00
CGA:   2    -0.128311310189E+04   -0.21492E-01   -0.21488E-01 10640   0.428E-01-0.937E-03
CGA:   3    -0.128312207466E+04   -0.89728E-02   -0.89918E-02 10640   0.113E-01 0.977E-03
CGA:   4    -0.128312372466E+04   -0.16500E-02   -0.16495E-02 10640   0.229E-02 0.560E-06
CGA:   5    -0.128312406267E+04   -0.33801E-03   -0.35629E-03 10640   0.490E-03 0.261E-03
CGA:   6    -0.128312418410E+04   -0.12143E-03   -0.12143E-03 10640   0.170E-03-0.103E-04
CGA:   7    -0.128312420906E+04   -0.24962E-04   -0.81039E-04 10640   0.543E-03-0.212E-03
CGA:   8    -0.128312423771E+04   -0.28646E-04   -0.46213E-04 10640   0.699E-04 0.117E-03
CGA:   9    -0.128312424351E+04   -0.58003E-05   -0.96282E-05 10640   0.344E-04 0.332E-04
CGA:  10    -0.128312425456E+04   -0.11055E-04   -0.11004E-04 10640   0.208E-04-0.854E-05
CGA:  11    -0.128312425480E+04   -0.23177E-06   -0.12964E-05 10640   0.139E-04 0.763E-05
  42 F= -.12831243E+04 E0= -.12831242E+04  d E =0.393854E-02  mag=    47.0000
       N       E                     dE             d eps       ncg     rms          ort
SDA:   1    -0.128286541343E+04    0.25884E+00    0.00000E+00 10640   0.633E+00 0.000E+00
CGA:   2    -0.128303495063E+04   -0.16954E+00   -0.16948E+00 10640   0.297E+00 0.103E-02
CGA:   3    -0.128309681072E+04   -0.61860E-01   -0.61856E-01 10640   0.548E-01-0.123E-02
CGA:   4    -0.128310531131E+04   -0.85006E-02   -0.85660E-02 10640   0.124E-01 0.130E-02
CGA:   5    -0.128310765512E+04   -0.23438E-02   -0.23332E-02 10640   0.386E-02-0.420E-03
CGA:   6    -0.128310827894E+04   -0.62382E-03   -0.62265E-03 10640   0.112E-02-0.222E-04
CGA:   7    -0.128310852054E+04   -0.24160E-03   -0.24157E-03 10640   0.315E-03 0.326E-05
CGA:   8    -0.128310860344E+04   -0.82903E-04   -0.87500E-04 10640   0.249E-03-0.637E-04
CGA:   9    -0.128310862265E+04   -0.19212E-04   -0.24651E-04 10640   0.909E-04 0.643E-04
CGA:  10    -0.128310863259E+04   -0.99423E-05   -0.13777E-04 10640   0.547E-04 0.455E-04
CGA:  11    -0.128310855514E+04    0.77454E-04   -0.48492E-04 10640   0.153E-02-0.183E-03
CGA:  12    -0.128310865991E+04   -0.10477E-03   -0.12485E-03 10640   0.500E-04 0.135E-03
CGA:  13    -0.128310865983E+04    0.81873E-07   -0.44157E-05 10640   0.246E-04 0.308E-04
  43 F= -.12831087E+04 E0= -.12831086E+04  d E =0.155950E-01  mag=    47.0000
       N       E                     dE             d eps       ncg     rms          ort
SDA:   1    -0.126894225655E+04    0.14166E+02    0.00000E+00 10640   0.467E+02 0.000E+00
CGA:   2    -0.127764624667E+04   -0.87040E+01   -0.87011E+01 10640   0.166E+02-0.917E-02
CGA:   3    -0.128172912380E+04   -0.40829E+01   -0.40791E+01 10640   0.574E+01 0.877E-01
CGA:   4    -0.128253747337E+04   -0.80835E+00   -0.80044E+00 10640   0.990E+00 0.332E-01
CGA:   5    -0.128270699168E+04   -0.16952E+00   -0.16975E+00 10640   0.272E+00 0.455E-03
CGA:   6    -0.128275836903E+04   -0.51377E-01   -0.51462E-01 10640   0.788E-01 0.449E-02
CGA:   7    -0.128277613269E+04   -0.17764E-01   -0.17791E-01 10640   0.265E-01-0.271E-02
CGA:   8    -0.128278066125E+04   -0.45286E-02   -0.45489E-02 10640   0.969E-02 0.669E-03
CGA:   9    -0.128278329324E+04   -0.26320E-02   -0.26855E-02 10640   0.599E-02-0.882E-03
CGA:  10    -0.128278441197E+04   -0.11187E-02   -0.11212E-02 10640   0.279E-02 0.324E-03
CGA:  11    -0.128278519441E+04   -0.78244E-03   -0.77055E-03 10640   0.122E-02 0.248E-03
CGA:  12    -0.128278554718E+04   -0.35277E-03   -0.34118E-03 10640   0.780E-03 0.287E-03
CGA:  13    -0.128278590151E+04   -0.35433E-03   -0.42569E-03 10640   0.176E-02-0.319E-03
CGA:  14    -0.128278598902E+04   -0.87505E-04   -0.11472E-03 10640   0.132E-02 0.229E-03
CGA:  15    -0.128278608695E+04   -0.97930E-04   -0.14570E-03 10640   0.894E-03 0.384E-03
CGA:  16    -0.128278626309E+04   -0.17614E-03   -0.19308E-03 10640   0.935E-03 0.336E-03
CGA:  17    -0.128278645840E+04   -0.19531E-03   -0.19679E-03 10640   0.606E-03 0.192E-04
CGA:  18    -0.128278657024E+04   -0.11183E-03   -0.11572E-03 10640   0.662E-03 0.154E-03
CGA:  19    -0.128278666026E+04   -0.90023E-04   -0.11043E-03 10640   0.359E-03 0.261E-03
CGA:  20    -0.128278674816E+04   -0.87903E-04   -0.90026E-04 10640   0.302E-03 0.778E-04
CGA:  21    -0.128278684483E+04   -0.96662E-04   -0.11861E-03 10640   0.507E-03-0.192E-03
CGA:  22    -0.128278687324E+04   -0.28412E-04   -0.48546E-04 10640   0.150E-03 0.176E-03
CGA:  23    -0.128278690298E+04   -0.29739E-04   -0.32852E-04 10640   0.101E-03 0.722E-04
CGA:  24    -0.128278681737E+04    0.85602E-04   -0.10084E-03 10640   0.146E-02-0.397E-03
CGA:  25    -0.128278691935E+04   -0.10198E-03   -0.13520E-03 10640   0.252E-03 0.254E-03
CGA:  26    -0.128278700549E+04   -0.86134E-04   -0.90005E-04 10640   0.176E-03-0.461E-04
CGA:  27    -0.128278672334E+04    0.28215E-03   -0.92214E-04 10640   0.452E-02-0.899E-03
CGA:  28    -0.128278700340E+04   -0.28006E-03   -0.36956E-03 10640   0.304E-03 0.588E-03
CGA:  29    -0.128278702638E+04   -0.22983E-04   -0.40811E-04 10640   0.170E-03 0.151E-03
CGA:  30    -0.128278707307E+04   -0.46684E-04   -0.47643E-04 10640   0.267E-04 0.219E-04
CGA:  31    -0.128278709497E+04   -0.21901E-04    0.58351E-05 10640   0.290E-04-0.118E-04
CGA:  32    -0.128278709926E+04   -0.42955E-05   -0.42131E-05 10640   0.323E-04 0.241E-05
  44 F= -.12827871E+04 E0= -.12827870E+04  d E =0.321561E+00  mag=    47.0000
       N       E                     dE             d eps       ncg     rms          ort
SDA:   1    -0.127015401174E+04    0.12633E+02    0.00000E+00 10640   0.447E+02 0.000E+00
CGA:   2    -0.127817925601E+04   -0.80252E+01   -0.80286E+01 10640   0.160E+02 0.788E-01
CGA:   3    -0.128199905398E+04   -0.38198E+01   -0.38211E+01 10640   0.636E+01-0.464E-01
CGA:   4    -0.128288630773E+04   -0.88725E+00   -0.89256E+00 10640   0.938E+00 0.728E-02
CGA:   5    -0.128305156422E+04   -0.16526E+00   -0.16524E+00 10640   0.257E+00 0.310E-02
CGA:   6    -0.128310078525E+04   -0.49221E-01   -0.49157E-01 10640   0.836E-01-0.261E-02
CGA:   7    -0.128311656982E+04   -0.15785E-01   -0.15811E-01 10640   0.245E-01 0.144E-02
CGA:   8    -0.128312191722E+04   -0.53474E-02   -0.53484E-02 10640   0.938E-02-0.103E-02
CGA:   9    -0.128312407557E+04   -0.21584E-02   -0.21559E-02 10640   0.489E-02 0.124E-03
CGA:  10    -0.128312541430E+04   -0.13387E-02   -0.13894E-02 10640   0.387E-02-0.766E-03
CGA:  11    -0.128312620723E+04   -0.79293E-03   -0.81935E-03 10640   0.239E-02-0.804E-03
CGA:  12    -0.128312674480E+04   -0.53757E-03   -0.62101E-03 10640   0.222E-02-0.768E-03
CGA:  13    -0.128312713455E+04   -0.38975E-03   -0.43912E-03 10640   0.200E-02-0.751E-03
CGA:  14    -0.128312749499E+04   -0.36044E-03   -0.37149E-03 10640   0.115E-02-0.212E-03
CGA:  15    -0.128312784412E+04   -0.34912E-03   -0.33416E-03 10640   0.692E-03 0.157E-03
CGA:  16    -0.128312811542E+04   -0.27131E-03   -0.28112E-03 10640   0.816E-03-0.835E-04
CGA:  17    -0.128312817541E+04   -0.59988E-04   -0.87958E-04 10640   0.299E-03 0.233E-03
CGA:  18    -0.128312819389E+04   -0.18481E-04   -0.41449E-04 10640   0.203E-03 0.178E-03
CGA:  19    -0.128312825088E+04   -0.56991E-04   -0.60216E-04 10640   0.343E-03-0.483E-04
CGA:  20    -0.128312826604E+04   -0.15154E-04   -0.28395E-04 10640   0.154E-03 0.106E-03
CGA:  21    -0.128312826429E+04    0.17424E-05   -0.12003E-04 10640   0.521E-04 0.823E-04
  45 F= -.12831283E+04 E0= -.12831282E+04  d E =-.341165E+00  mag=    47.0000
       N       E                     dE             d eps       ncg     rms          ort
SDA:   1    -0.128306049357E+04    0.67772E-01    0.00000E+00 10640   0.241E+00 0.000E+00
CGA:   2    -0.128310868859E+04   -0.48195E-01   -0.48182E-01 10640   0.906E-01-0.969E-03
CGA:   3    -0.128313119382E+04   -0.22505E-01   -0.22491E-01 10640   0.232E-01 0.352E-03
CGA:   4    -0.128313490381E+04   -0.37100E-02   -0.37071E-02 10640   0.364E-02-0.491E-04
CGA:   5    -0.128313567460E+04   -0.77078E-03   -0.77079E-03 10640   0.915E-03-0.984E-05
CGA:   6    -0.128313590161E+04   -0.22701E-03   -0.23544E-03 10640   0.490E-03-0.181E-03
CGA:   7    -0.128313594809E+04   -0.46475E-04   -0.51549E-04 10640   0.127E-03 0.619E-04
CGA:   8    -0.128313597699E+04   -0.28908E-04   -0.28918E-04 10640   0.840E-04 0.126E-05
CGA:   9    -0.128313547355E+04    0.50344E-03   -0.27185E-03 10640   0.455E-02-0.542E-03
CGA:  10    -0.128313590296E+04   -0.42941E-03   -0.48018E-03 10640   0.560E-03 0.217E-03
CGA:  11    -0.128313605574E+04   -0.15277E-03   -0.15131E-03 10640   0.110E-03-0.130E-04
CGA:  12    -0.128313608471E+04   -0.28972E-04   -0.25026E-04 10640   0.114E-03-0.304E-04
CGA:  13    -0.128313610457E+04   -0.19860E-04   -0.18461E-04 10640   0.423E-04-0.106E-04
CGA:  14    -0.128313610827E+04   -0.37013E-05   -0.57874E-05 10640   0.244E-04 0.105E-04
  46 F= -.12831361E+04 E0= -.12831361E+04  d E =-.784398E-02  mag=    47.0000
       N       E                     dE             d eps       ncg     rms          ort
SDA:   1    -0.128250142543E+04    0.63468E+00    0.00000E+00 10640   0.187E+01 0.000E+00
CGA:   2    -0.128291464687E+04   -0.41322E+00   -0.41295E+00 10640   0.791E+00-0.125E-02
CGA:   3    -0.128309569142E+04   -0.18104E+00   -0.18119E+00 10640   0.198E+00 0.776E-03
CGA:   4    -0.128312523623E+04   -0.29545E-01   -0.29524E-01 10640   0.404E-01 0.262E-03
CGA:   5    -0.128313224141E+04   -0.70052E-02   -0.70079E-02 10640   0.111E-01 0.287E-04
CGA:   6    -0.128313434863E+04   -0.21072E-02   -0.20731E-02 10640   0.344E-02-0.272E-03
CGA:   7    -0.128313509517E+04   -0.74654E-03   -0.72957E-03 10640   0.121E-02-0.198E-03
CGA:   8    -0.128313529800E+04   -0.20282E-03   -0.20690E-03 10640   0.453E-03 0.378E-04
CGA:   9    -0.128313543760E+04   -0.13961E-03   -0.25063E-03 10640   0.122E-02-0.452E-03
CGA:  10    -0.128313552631E+04   -0.88705E-04   -0.12722E-03 10640   0.223E-03 0.198E-03
CGA:  11    -0.128313557418E+04   -0.47875E-04   -0.50346E-04 10640   0.591E-04 0.248E-04
CGA:  12    -0.128313563664E+04   -0.62457E-04    0.14616E-04 10640   0.853E-04-0.109E-04
CGA:  13    -0.128313565732E+04   -0.20680E-04   -0.26314E-04 10640   0.154E-03-0.633E-04
CGA:  14    -0.128313568255E+04   -0.25232E-04   -0.26552E-04 10640   0.684E-04 0.111E-04
CGA:  15    -0.128313569854E+04   -0.15982E-04   -0.15678E-04 10640   0.288E-04-0.406E-05
CGA:  16    -0.128313572513E+04   -0.26593E-04    0.52402E-05 10640   0.192E-04 0.447E-05
CGA:  17    -0.128313573628E+04   -0.11155E-04   -0.11241E-04 10640   0.392E-04-0.616E-06
CGA:  18    -0.128313577124E+04   -0.34960E-04    0.99340E-05 10640   0.350E-04 0.101E-04
CGA:  19    -0.128313581615E+04   -0.44909E-04    0.87886E-05 10640   0.212E-04 0.114E-04
CGA:  20    -0.128313581684E+04   -0.68748E-06   -0.37102E-05 10640   0.111E-04 0.184E-04
  47 F= -.12831358E+04 E0= -.12831358E+04  d E =0.291430E-03  mag=    47.0000
       N       E                     dE             d eps       ncg     rms          ort
SDA:   1    -0.128308051679E+04    0.55299E-01    0.00000E+00 10640   0.162E+00 0.000E+00
CGA:   2    -0.128311292375E+04   -0.32407E-01   -0.32435E-01 10640   0.675E-01 0.436E-03
CGA:   3    -0.128312805258E+04   -0.15129E-01   -0.15100E-01 10640   0.248E-01-0.593E-03
CGA:   4    -0.128313140449E+04   -0.33519E-02   -0.33574E-02 10640   0.370E-02 0.610E-04
CGA:   5    -0.128313208378E+04   -0.67929E-03   -0.68079E-03 10640   0.967E-03 0.229E-04
CGA:   6    -0.128313232676E+04   -0.24298E-03   -0.23992E-03 10640   0.531E-03-0.248E-03
CGA:   7    -0.128313237903E+04   -0.52265E-04   -0.56036E-04 10640   0.139E-03 0.333E-04
CGA:   8    -0.128313240875E+04   -0.29724E-04   -0.29589E-04 10640   0.633E-04-0.258E-05
CGA:   9    -0.128313180198E+04    0.60677E-03   -0.32948E-03 10640   0.583E-02-0.519E-03
CGA:  10    -0.128313231011E+04   -0.50813E-03   -0.56790E-03 10640   0.602E-03 0.211E-03
CGA:  11    -0.128313246741E+04   -0.15731E-03   -0.15458E-03 10640   0.155E-03-0.139E-04
CGA:  12    -0.128313251520E+04   -0.47788E-04   -0.33200E-04 10640   0.109E-03-0.692E-04
CGA:  13    -0.128313251771E+04   -0.25086E-05   -0.83201E-05 10640   0.462E-04 0.209E-04
  48 F= -.12831325E+04 E0= -.12831325E+04  d E =0.329913E-02  mag=    47.0000
       N       E                     dE             d eps       ncg     rms          ort
SDA:   1    -0.127142115722E+04    0.11711E+02    0.00000E+00 10640   0.377E+02 0.000E+00
CGA:   2    -0.127859604678E+04   -0.71749E+01   -0.71400E+01 10640   0.137E+02 0.208E+00
CGA:   3    -0.128198858506E+04   -0.33925E+01   -0.34079E+01 10640   0.437E+01-0.200E-02
CGA:   4    -0.128263541354E+04   -0.64683E+00   -0.63033E+00 10640   0.646E+00 0.124E+00
CGA:   5    -0.128276207923E+04   -0.12667E+00   -0.12722E+00 10640   0.207E+00-0.363E-02
CGA:   6    -0.128279750254E+04   -0.35423E-01   -0.35600E-01 10640   0.628E-01 0.344E-02
CGA:   7    -0.128281035583E+04   -0.12853E-01   -0.12848E-01 10640   0.186E-01 0.295E-04
CGA:   8    -0.128281420270E+04   -0.38469E-02   -0.37972E-02 10640   0.782E-02-0.361E-03
CGA:   9    -0.128281572348E+04   -0.15208E-02   -0.15968E-02 10640   0.316E-02 0.646E-03
CGA:  10    -0.128281653376E+04   -0.81028E-03   -0.84537E-03 10640   0.126E-02 0.466E-03
CGA:  11    -0.128281692753E+04   -0.39377E-03   -0.40250E-03 10640   0.709E-03 0.212E-03
CGA:  12    -0.128281701518E+04   -0.87642E-04   -0.13806E-03 10640   0.316E-03 0.336E-03
CGA:  13    -0.128281710291E+04   -0.87731E-04   -0.10618E-03 10640   0.210E-03 0.225E-03
CGA:  14    -0.128281716321E+04   -0.60303E-04   -0.60889E-04 10640   0.265E-03 0.376E-04
CGA:  15    -0.128281718119E+04   -0.17984E-04   -0.49610E-04 10640   0.145E-03 0.216E-03
CGA:  16    -0.128281718473E+04   -0.35383E-05   -0.19116E-04 10640   0.944E-04 0.942E-04
CGA:  17    -0.128281721754E+04   -0.32808E-04   -0.30316E-04 10640   0.895E-04 0.777E-04
CGA:  18    -0.128281721795E+04   -0.40953E-06   -0.12021E-04 10640   0.774E-04 0.741E-04
CGA:  19    -0.128281723699E+04   -0.19042E-04   -0.20415E-04 10640   0.745E-04 0.709E-04
CGA:  20    -0.128281724403E+04   -0.70365E-05   -0.13573E-04 10640   0.704E-04 0.653E-04
CGA:  21    -0.128281726064E+04   -0.16610E-04   -0.17936E-04 10640   0.719E-04 0.596E-04
CGA:  22    -0.128281726858E+04   -0.79389E-05   -0.12994E-04 10640   0.678E-04 0.530E-04
CGA:  23    -0.128281728095E+04   -0.12370E-04   -0.14858E-04 10640   0.713E-04 0.478E-04
CGA:  24    -0.128281729026E+04   -0.93156E-05   -0.12934E-04 10640   0.683E-04 0.414E-04
CGA:  25    -0.128281729998E+04   -0.97176E-05   -0.12721E-04 10640   0.675E-04 0.385E-04
CGA:  26    -0.128281730914E+04   -0.91556E-05   -0.12064E-04 10640   0.652E-04 0.356E-04
CGA:  27    -0.128281731920E+04   -0.10061E-04   -0.12241E-04 10640   0.668E-04 0.318E-04
CGA:  28    -0.128281734202E+04   -0.22822E-04   -0.23936E-04 10640   0.546E-04 0.932E-04
CGA:  29    -0.128281735329E+04   -0.11275E-04   -0.12047E-04 10640   0.654E-04 0.245E-04
CGA:  30    -0.128281738472E+04   -0.31423E-04   -0.27766E-04 10640   0.413E-04 0.856E-04
CGA:  31    -0.128281739017E+04   -0.54564E-05   -0.75145E-05 10640   0.393E-04 0.289E-04
CGA:  32    -0.128281741338E+04   -0.23212E-04   -0.21195E-04 10640   0.152E-03 0.665E-05
CGA:  33    -0.128281747067E+04   -0.57291E-04   -0.52682E-04 10640   0.431E-04 0.140E-03
CGA:  34    -0.128281747430E+04   -0.36217E-05   -0.55789E-05 10640   0.243E-04 0.144E-04
CGA:  35    -0.128281753007E+04   -0.55769E-04   -0.40295E-04 10640   0.212E-03 0.142E-04
CGA:  36    -0.128281754933E+04   -0.19269E-04   -0.21027E-04 10640   0.151E-04 0.916E-05
CGA:  37    -0.128281754952E+04   -0.18310E-06   -0.23392E-05 10640   0.158E-04 0.144E-04
  49 F= -.12828175E+04 E0= -.12828175E+04  d E =0.314968E+00  mag=    47.0000
       N       E                     dE             d eps       ncg     rms          ort
SDA:   1    -0.125974829473E+04    0.23069E+02    0.00000E+00 10640   0.774E+02 0.000E+00
CGA:   2    -0.127446168026E+04   -0.14713E+02   -0.14719E+02 10640   0.274E+02 0.724E-01
CGA:   3    -0.128142057088E+04   -0.69589E+01   -0.69613E+01 10640   0.796E+01 0.272E-01
CGA:   4    -0.128265668560E+04   -0.12361E+01   -0.12374E+01 10640   0.115E+01 0.281E-01
CGA:   5    -0.128289662988E+04   -0.23994E+00   -0.23987E+00 10640   0.339E+00-0.208E-02
CGA:   6    -0.128295824036E+04   -0.61610E-01   -0.61659E-01 10640   0.123E+00 0.173E-02
CGA:   7    -0.128298048828E+04   -0.22248E-01   -0.22225E-01 10640   0.331E-01 0.195E-04
CGA:   8    -0.128298823520E+04   -0.77469E-02   -0.77057E-02 10640   0.143E-01-0.129E-02
CGA:   9    -0.128299120869E+04   -0.29735E-02   -0.30027E-02 10640   0.641E-02 0.700E-03
CGA:  10    -0.128299310319E+04   -0.18945E-02   -0.19150E-02 10640   0.387E-02-0.842E-03
CGA:  11    -0.128299382390E+04   -0.72071E-03   -0.72316E-03 10640   0.168E-02 0.581E-04
CGA:  12    -0.128299430773E+04   -0.48383E-03   -0.49148E-03 10640   0.123E-02-0.269E-03
CGA:  13    -0.128299460642E+04   -0.29869E-03   -0.41233E-03 10640   0.255E-02-0.815E-03
CGA:  14    -0.128299482191E+04   -0.21549E-03   -0.26243E-03 10640   0.519E-03 0.294E-03
CGA:  15    -0.128299496873E+04   -0.14681E-03   -0.14758E-03 10640   0.279E-03 0.157E-03
CGA:  16    -0.128299500664E+04   -0.37911E-04   -0.21466E-03 10640   0.295E-02-0.533E-03
CGA:  17    -0.128299519696E+04   -0.19032E-03   -0.25751E-03 10640   0.247E-03 0.371E-03
CGA:  18    -0.128299522802E+04   -0.31060E-04   -0.43511E-04 10640   0.173E-03 0.113E-03
CGA:  19    -0.128299529068E+04   -0.62663E-04   -0.13722E-03 10640   0.715E-03-0.265E-03
CGA:  20    -0.128299536823E+04   -0.77549E-04   -0.90972E-04 10640   0.247E-03 0.924E-04
CGA:  21    -0.128299544079E+04   -0.72561E-04   -0.72814E-04 10640   0.650E-04 0.377E-04
CGA:  22    -0.128299548713E+04   -0.46335E-04    0.64043E-04 10640   0.858E-04 0.262E-04
CGA:  23    -0.128299556513E+04   -0.78005E-04   -0.67589E-04 10640   0.194E-03 0.332E-04
CGA:  24    -0.128299568090E+04   -0.11577E-03   -0.11773E-03 10640   0.369E-03-0.226E-04
CGA:  25    -0.128299571795E+04   -0.37049E-04   -0.20079E-03 10640   0.896E-03-0.561E-03
CGA:  26    -0.128299575755E+04   -0.39598E-04   -0.79261E-04 10640   0.123E-03 0.186E-03
CGA:  27    -0.128299576096E+04   -0.34119E-05   -0.16872E-04 10640   0.860E-04 0.744E-04
CGA:  28    -0.128299519698E+04    0.56398E-03   -0.30406E-03 10640   0.754E-02-0.460E-03
CGA:  29    -0.128299574531E+04   -0.54833E-03   -0.67401E-03 10640   0.247E-03 0.375E-03
CGA:  30    -0.128299575521E+04   -0.98992E-05   -0.42532E-04 10640   0.125E-03 0.972E-04
CGA:  31    -0.128299580857E+04   -0.53361E-04   -0.49029E-04 10640   0.540E-04-0.217E-04
CGA:  32    -0.128299581357E+04   -0.49930E-05   -0.60028E-05 10640   0.245E-04 0.298E-05
  50 F= -.12829958E+04 E0= -.12829958E+04  d E =-.178264E+00  mag=    47.0000
       N       E                     dE             d eps       ncg     rms          ort
SDA:   1    -0.128055595380E+04    0.24399E+01    0.00000E+00 10640   0.857E+01 0.000E+00
CGA:   2    -0.128217251194E+04   -0.16166E+01   -0.16161E+01 10640   0.304E+01 0.159E-01
CGA:   3    -0.128294515900E+04   -0.77265E+00   -0.77302E+00 10640   0.928E+00-0.341E-02
CGA:   4    -0.128308617419E+04   -0.14102E+00   -0.14123E+00 10640   0.132E+00 0.526E-02
CGA:   5    -0.128311281283E+04   -0.26639E-01   -0.26474E-01 10640   0.421E-01-0.106E-02
CGA:   6    -0.128311979463E+04   -0.69818E-02   -0.71084E-02 10640   0.135E-01 0.802E-03
CGA:   7    -0.128312243673E+04   -0.26421E-02   -0.26586E-02 10640   0.358E-02 0.100E-03
CGA:   8    -0.128312326980E+04   -0.83307E-03   -0.81723E-03 10640   0.164E-02-0.103E-03
CGA:   9    -0.128312352334E+04   -0.25354E-03   -0.29895E-03 10640   0.630E-03 0.254E-03
CGA:  10    -0.128312373035E+04   -0.20701E-03   -0.21096E-03 10640   0.302E-03 0.570E-04
CGA:  11    -0.128312384930E+04   -0.11895E-03   -0.11894E-03 10640   0.226E-03 0.766E-06
CGA:  12    -0.128312386218E+04   -0.12886E-04   -0.33998E-04 10640   0.110E-03 0.102E-03
CGA:  13    -0.128312388522E+04   -0.23034E-04   -0.32728E-04 10640   0.879E-04 0.682E-04
CGA:  14    -0.128312369099E+04    0.19423E-03   -0.10508E-03 10640   0.376E-02-0.349E-03
CGA:  15    -0.128312394285E+04   -0.25186E-03   -0.34882E-03 10640   0.133E-03 0.369E-03
CGA:  16    -0.128312394786E+04   -0.50130E-05   -0.15897E-04 10640   0.423E-04 0.423E-04
CGA:  17    -0.128312396854E+04   -0.20681E-04   -0.21146E-04 10640   0.106E-03-0.187E-04
CGA:  18    -0.128312397805E+04   -0.95085E-05   -0.70380E-05 10640   0.127E-03-0.109E-04
CGA:  19    -0.128312398804E+04   -0.99842E-05   -0.12815E-04 10640   0.124E-03 0.114E-04
CGA:  20    -0.128312399574E+04   -0.77047E-05   -0.17413E-04 10640   0.146E-03 0.465E-04
CGA:  21    -0.128312401106E+04   -0.15321E-04   -0.28018E-04 10640   0.114E-03 0.673E-04
CGA:  22    -0.128312403352E+04   -0.22458E-04   -0.25692E-04 10640   0.676E-04 0.187E-04
CGA:  23    -0.128312405520E+04   -0.21676E-04   -0.20349E-04 10640   0.120E-03-0.303E-04
CGA:  24    -0.128312406047E+04   -0.52768E-05   -0.60284E-05 10640   0.112E-03 0.185E-05
  51 F= -.12831241E+04 E0= -.12831240E+04  d E =-.128247E+00  mag=    47.0000
       N       E                     dE             d eps       ncg     rms          ort
SDA:   1    -0.128300312909E+04    0.12093E+00    0.00000E+00 10640   0.405E+00 0.000E+00
CGA:   2    -0.128308120332E+04   -0.78074E-01   -0.78161E-01 10640   0.148E+00 0.116E-02
CGA:   3    -0.128311895959E+04   -0.37756E-01   -0.37736E-01 10640   0.436E-01-0.102E-02
CGA:   4    -0.128312543589E+04   -0.64763E-02   -0.65100E-02 10640   0.633E-02 0.296E-03
CGA:   5    -0.128312674247E+04   -0.13066E-02   -0.12826E-02 10640   0.236E-02-0.348E-03
CGA:   6    -0.128312706168E+04   -0.31921E-03   -0.33455E-03 10640   0.621E-03 0.137E-03
CGA:   7    -0.128312718974E+04   -0.12806E-03   -0.13131E-03 10640   0.137E-03 0.545E-04
CGA:   8    -0.128312723726E+04   -0.47517E-04   -0.52888E-04 10640   0.137E-03-0.554E-04
CGA:   9    -0.128312723390E+04    0.33585E-05   -0.54420E-05 10640   0.854E-04 0.452E-04
  52 F= -.12831272E+04 E0= -.12831272E+04  d E =-.317343E-02  mag=    47.0000
       N       E                     dE             d eps       ncg     rms          ort
SDA:   1    -0.128277696943E+04    0.35027E+00    0.00000E+00 10640   0.105E+01 0.000E+00
CGA:   2    -0.128299249901E+04   -0.21553E+00   -0.21563E+00 10640   0.413E+00 0.315E-02
CGA:   3    -0.128309319610E+04   -0.10070E+00   -0.10070E+00 10640   0.116E+00-0.259E-02
CGA:   4    -0.128311014581E+04   -0.16950E-01   -0.17011E-01 10640   0.198E-01 0.728E-03
CGA:   5    -0.128311385242E+04   -0.37066E-02   -0.36764E-02 10640   0.641E-02-0.565E-03
CGA:   6    -0.128311496272E+04   -0.11103E-02   -0.10978E-02 10640   0.196E-02-0.212E-03
CGA:   7    -0.128311531126E+04   -0.34854E-03   -0.35617E-03 10640   0.466E-03 0.183E-03
CGA:   8    -0.128311544977E+04   -0.13851E-03   -0.14351E-03 10640   0.327E-03-0.932E-04
CGA:   9    -0.128311547400E+04   -0.24231E-04   -0.33488E-04 10640   0.135E-03 0.902E-04
CGA:  10    -0.128311549861E+04   -0.24607E-04   -0.27447E-04 10640   0.860E-04 0.426E-04
CGA:  11    -0.128311520232E+04    0.29629E-03   -0.12053E-03 10640   0.273E-02-0.494E-03
CGA:  12    -0.128311544003E+04   -0.23772E-03   -0.28976E-03 10640   0.469E-03 0.343E-03
CGA:  13    -0.128311554713E+04   -0.10710E-03   -0.10893E-03 10640   0.842E-04 0.361E-04
CGA:  14    -0.128311559365E+04   -0.46515E-04    0.13491E-02 10640   0.106E-03-0.274E-04
CGA:  15    -0.128311559632E+04   -0.26699E-05   -0.71336E-05 10640   0.613E-04 0.290E-04
