       N       E                     dE             d eps       ncg     rms          ort
DAV:   1     0.102768356870E+05    0.10277E+05   -0.42401E+05 10640   0.155E+03
DAV:   2    -0.115354707231E+03   -0.10392E+05   -0.98108E+04 10640   0.474E+02
DAV:   3    -0.152177398487E+04   -0.14064E+04   -0.13102E+04 10640   0.181E+02
DAV:   4    -0.160418522532E+04   -0.82411E+02   -0.80163E+02 10640   0.462E+01
DAV:   5    -0.160653014112E+04   -0.23449E+01   -0.23374E+01 10640   0.836E+00
SDA:   6    -0.728975421707E+03    0.87755E+03   -0.23374E+01 10640   0.289E+04 0.000E+00
CGA:   7    -0.114090096455E+04   -0.41193E+03   -0.40802E+03 10640   0.855E+03-0.104E+02
CGA:   8    -0.116428565755E+04   -0.23385E+02   -0.46637E+02 10640   0.105E+04-0.445E+03
CGA:   9    -0.117164032339E+04   -0.73547E+01   -0.49105E+02 10640   0.144E+04-0.834E+03
CGA:  10    -0.116767054964E+04    0.39698E+01   -0.68629E+02 10640   0.195E+04-0.134E+04
CGA:  11    -0.116878305054E+04   -0.11125E+01   -0.89157E+02 10640   0.212E+04-0.174E+04
CGA:  12    -0.117381286266E+04   -0.50298E+01   -0.95635E+02 10640   0.226E+04-0.204E+04
CGA:  13    -0.119190664804E+04   -0.18094E+02   -0.96223E+02 10640   0.176E+04-0.183E+04
CGA:  14    -0.121733943608E+04   -0.25433E+02   -0.68790E+02 10640   0.102E+04-0.127E+04
CGA:  15    -0.123647813170E+04   -0.19139E+02   -0.35062E+02 10640   0.321E+03-0.440E+03
CGA:  16    -0.124783259260E+04   -0.11354E+02   -0.75631E+01 10640   0.551E+02 0.822E+02
CGA:  17    -0.125181753360E+04   -0.39849E+01   -0.41400E+01 10640   0.146E+03-0.249E+01
CGA:  18    -0.126952790805E+04   -0.17710E+02   -0.17493E+02 10640   0.962E+02-0.671E+01
CGA:  19    -0.127112675547E+04   -0.15988E+01   -0.28397E+01 10640   0.423E+02-0.338E+02
CGA:  20    -0.127197609957E+04   -0.84934E+00   -0.70718E+00 10640   0.202E+02 0.443E+01
CGA:  21    -0.127272815371E+04   -0.75205E+00   -0.89081E+00 10640   0.289E+02-0.360E+01
CGA:  22    -0.127484444970E+04   -0.21163E+01   -0.22192E+01 10640   0.604E+02 0.296E+00
CGA:  23    -0.127638752322E+04   -0.15431E+01   -0.11859E+01 10640   0.200E+02 0.135E+02
CGA:  24    -0.127699763647E+04   -0.61011E+00   -0.61973E+00 10640   0.119E+02-0.108E+01
CGA:  25    -0.127749182382E+04   -0.49419E+00   -0.53099E+00 10640   0.161E+02-0.106E+01
CGA:  26    -0.127822974441E+04   -0.73792E+00   -0.85106E+00 10640   0.158E+02-0.120E+01
CGA:  27    -0.127908040622E+04   -0.85066E+00   -0.87165E+00 10640   0.918E+01-0.848E+00
CGA:  28    -0.127959158954E+04   -0.51118E+00   -0.51419E+00 10640   0.492E+01-0.480E+00
CGA:  29    -0.128018209479E+04   -0.59051E+00   -0.59480E+00 10640   0.753E+01-0.295E+00
CGA:  30    -0.128100301470E+04   -0.82092E+00   -0.82535E+00 10640   0.492E+01-0.520E+00
CGA:  31    -0.128143579113E+04   -0.43278E+00   -0.43193E+00 10640   0.215E+01-0.351E+00
CGA:  32    -0.128175119481E+04   -0.31540E+00   -0.33522E+00 10640   0.257E+01-0.315E+00
CGA:  33    -0.128218379206E+04   -0.43260E+00   -0.49716E+00 10640   0.165E+01-0.543E+00
CGA:  34    -0.128236520498E+04   -0.18141E+00   -0.18775E+00 10640   0.973E+00-0.211E+00
CGA:  35    -0.128258637390E+04   -0.22117E+00   -0.26052E+00 10640   0.105E+01-0.182E+00
CGA:  36    -0.128271346355E+04   -0.12709E+00   -0.12783E+00 10640   0.441E+00-0.226E-01
CGA:  37    -0.128278686348E+04   -0.73400E-01   -0.72422E-01 10640   0.332E+00 0.243E-01
CGA:  38    -0.128286306565E+04   -0.76202E-01   -0.72849E-01 10640   0.239E+00 0.434E-01
CGA:  39    -0.128290552993E+04   -0.42464E-01   -0.41554E-01 10640   0.112E+00 0.392E-01
CGA:  40    -0.128292729174E+04   -0.21762E-01   -0.20735E-01 10640   0.694E-01 0.377E-01
CGA:  41    -0.128294031467E+04   -0.13023E-01   -0.12837E-01 10640   0.393E-01 0.341E-01
CGA:  42    -0.128294804497E+04   -0.77303E-02   -0.77513E-02 10640   0.285E-01 0.288E-01
CGA:  43    -0.128295371700E+04   -0.56720E-02   -0.51406E-02 10640   0.123E-01 0.112E-01
CGA:  44    -0.128295640346E+04   -0.26865E-02   -0.25368E-02 10640   0.919E-02 0.123E-01
CGA:  45    -0.128295797382E+04   -0.15704E-02   -0.14347E-02 10640   0.628E-02 0.673E-02
CGA:  46    -0.128295889290E+04   -0.91909E-03   -0.89097E-03 10640   0.529E-02 0.568E-02
CGA:  47    -0.128295950220E+04   -0.60930E-03   -0.66547E-03 10640   0.464E-02 0.493E-02
CGA:  48    -0.128295997381E+04   -0.47161E-03   -0.55082E-03 10640   0.415E-02 0.437E-02
CGA:  49    -0.128296034014E+04   -0.36633E-03   -0.46239E-03 10640   0.376E-02 0.393E-02
CGA:  50    -0.128296063411E+04   -0.29397E-03   -0.39745E-03 10640   0.344E-02 0.358E-02
CGA:  51    -0.128296087415E+04   -0.24004E-03   -0.34666E-03 10640   0.317E-02 0.329E-02
CGA:  52    -0.128296107336E+04   -0.19921E-03   -0.30612E-03 10640   0.295E-02 0.305E-02
CGA:  53    -0.128296124100E+04   -0.16765E-03   -0.27308E-03 10640   0.275E-02 0.284E-02
CGA:  54    -0.128296138382E+04   -0.14282E-03   -0.24570E-03 10640   0.258E-02 0.266E-02
CGA:  55    -0.128296150693E+04   -0.12310E-03   -0.22272E-03 10640   0.243E-02 0.250E-02
CGA:  56    -0.128296161419E+04   -0.10726E-03   -0.20322E-03 10640   0.230E-02 0.236E-02
CGA:  57    -0.128296170860E+04   -0.94413E-04   -0.18650E-03 10640   0.219E-02 0.224E-02
CGA:  58    -0.128296179254E+04   -0.83942E-04   -0.17206E-03 10640   0.208E-02 0.213E-02
CGA:  59    -0.128296186802E+04   -0.75477E-04   -0.15959E-03 10640   0.199E-02 0.203E-02
CGA:  60    -0.128296193648E+04   -0.68455E-04   -0.14864E-03 10640   0.191E-02 0.195E-02
CGA:  61    -0.128296199905E+04   -0.62570E-04   -0.13895E-03 10640   0.183E-02 0.187E-02
CGA:  62    -0.128296205666E+04   -0.57608E-04   -0.13031E-03 10640   0.176E-02 0.179E-02
CGA:  63    -0.128296211005E+04   -0.53395E-04   -0.12258E-03 10640   0.170E-02 0.173E-02
CGA:  64    -0.128296215984E+04   -0.49785E-04   -0.11562E-03 10640   0.164E-02 0.166E-02
CGA:  65    -0.128296220653E+04   -0.46699E-04   -0.10933E-03 10640   0.158E-02 0.161E-02
CGA:  66    -0.128296225058E+04   -0.44046E-04   -0.10363E-03 10640   0.153E-02 0.156E-02
CGA:  67    -0.128296229233E+04   -0.41746E-04   -0.98432E-04 10640   0.148E-02 0.151E-02
CGA:  68    -0.128296233207E+04   -0.39749E-04   -0.93684E-04 10640   0.144E-02 0.146E-02
CGA:  69    -0.128296237008E+04   -0.38001E-04   -0.89326E-04 10640   0.140E-02 0.142E-02
CGA:  70    -0.128296240654E+04   -0.36461E-04   -0.85313E-04 10640   0.136E-02 0.138E-02
CGA:  71    -0.128296244164E+04   -0.35099E-04   -0.81608E-04 10640   0.133E-02 0.134E-02
CGA:  72    -0.128296247553E+04   -0.33890E-04   -0.78177E-04 10640   0.129E-02 0.131E-02
CGA:  73    -0.128296250834E+04   -0.32811E-04   -0.74991E-04 10640   0.126E-02 0.127E-02
CGA:  74    -0.128296254018E+04   -0.31843E-04   -0.72025E-04 10640   0.123E-02 0.124E-02
CGA:  75    -0.128296257115E+04   -0.30970E-04   -0.69257E-04 10640   0.120E-02 0.121E-02
CGA:  76    -0.128296260133E+04   -0.30176E-04   -0.66669E-04 10640   0.117E-02 0.119E-02
CGA:  77    -0.128296263078E+04   -0.29458E-04   -0.64246E-04 10640   0.115E-02 0.116E-02
CGA:  78    -0.128296265958E+04   -0.28798E-04   -0.61970E-04 10640   0.112E-02 0.113E-02
CGA:  79    -0.128296268778E+04   -0.28195E-04   -0.59832E-04 10640   0.110E-02 0.111E-02
CGA:  80    -0.128296271542E+04   -0.27641E-04   -0.57819E-04 10640   0.108E-02 0.109E-02
CGA:  81    -0.128296274255E+04   -0.27130E-04   -0.55922E-04 10640   0.105E-02 0.106E-02
CGA:  82    -0.128296276921E+04   -0.26659E-04   -0.54133E-04 10640   0.103E-02 0.104E-02
CGA:  83    -0.128296279543E+04   -0.26221E-04   -0.52441E-04 10640   0.101E-02 0.102E-02
CGA:  84    -0.128296282124E+04   -0.25815E-04   -0.50843E-04 10640   0.995E-03 0.100E-02
CGA:  85    -0.128296284668E+04   -0.25439E-04   -0.49331E-04 10640   0.977E-03 0.986E-03
CGA:  86    -0.128296287177E+04   -0.25090E-04   -0.47898E-04 10640   0.959E-03 0.968E-03
CGA:  87    -0.128296289654E+04   -0.24762E-04   -0.46539E-04 10640   0.942E-03 0.951E-03
CGA:  88    -0.128296292099E+04   -0.24460E-04   -0.45252E-04 10640   0.926E-03 0.934E-03
CGA:  89    -0.128296294517E+04   -0.24171E-04   -0.44027E-04 10640   0.911E-03 0.918E-03
CGA:  90    -0.128296296908E+04   -0.23909E-04   -0.42867E-04 10640   0.895E-03 0.903E-03
CGA:  91    -0.128296299273E+04   -0.23656E-04   -0.41760E-04 10640   0.881E-03 0.888E-03
CGA:  92    -0.128296301616E+04   -0.23426E-04   -0.40711E-04 10640   0.867E-03 0.874E-03
CGA:  93    -0.128296303936E+04   -0.23204E-04   -0.39710E-04 10640   0.853E-03 0.860E-03
CGA:  94    -0.128296306236E+04   -0.23001E-04   -0.38759E-04 10640   0.840E-03 0.846E-03
CGA:  95    -0.128296308517E+04   -0.22807E-04   -0.37851E-04 10640   0.827E-03 0.833E-03
CGA:  96    -0.128296310780E+04   -0.22627E-04   -0.36987E-04 10640   0.815E-03 0.821E-03
CGA:  97    -0.128296313025E+04   -0.22458E-04   -0.36163E-04 10640   0.802E-03 0.808E-03
CGA:  98    -0.128296315255E+04   -0.22299E-04   -0.35377E-04 10640   0.791E-03 0.796E-03
CGA:  99    -0.128296317470E+04   -0.22150E-04   -0.34627E-04 10640   0.779E-03 0.785E-03
CGA: 100    -0.128296319671E+04   -0.22009E-04   -0.33910E-04 10640   0.768E-03 0.774E-03
CGA: 101    -0.128296321859E+04   -0.21880E-04   -0.33228E-04 10640   0.758E-03 0.763E-03
CGA: 102    -0.128296324035E+04   -0.21759E-04   -0.32576E-04 10640   0.747E-03 0.752E-03
CGA: 103    -0.128296326200E+04   -0.21646E-04   -0.31952E-04 10640   0.737E-03 0.742E-03
CGA: 104    -0.128296328354E+04   -0.21541E-04   -0.31358E-04 10640   0.727E-03 0.732E-03
CGA: 105    -0.128296330498E+04   -0.21443E-04   -0.30789E-04 10640   0.717E-03 0.722E-03
CGA: 106    -0.128296332633E+04   -0.21348E-04   -0.30244E-04 10640   0.708E-03 0.713E-03
CGA: 107    -0.128296334759E+04   -0.21260E-04   -0.29723E-04 10640   0.699E-03 0.703E-03
CGA: 108    -0.128296336878E+04   -0.21192E-04   -0.29231E-04 10640   0.690E-03 0.694E-03
CGA: 109    -0.128296338991E+04   -0.21127E-04   -0.28760E-04 10640   0.681E-03 0.685E-03
CGA: 110    -0.128296341098E+04   -0.21071E-04   -0.28311E-04 10640   0.672E-03 0.676E-03
CGA: 111    -0.128296343200E+04   -0.21018E-04   -0.27881E-04 10640   0.664E-03 0.668E-03
CGA: 112    -0.128296345297E+04   -0.20975E-04   -0.27471E-04 10640   0.656E-03 0.660E-03
CGA: 113    -0.128296347391E+04   -0.20935E-04   -0.27080E-04 10640   0.647E-03 0.651E-03
CGA: 114    -0.128296349481E+04   -0.20906E-04   -0.26709E-04 10640   0.639E-03 0.643E-03
CGA: 115    -0.128296351569E+04   -0.20880E-04   -0.26353E-04 10640   0.632E-03 0.636E-03
CGA: 116    -0.128296353655E+04   -0.20863E-04   -0.26015E-04 10640   0.624E-03 0.628E-03
CGA: 117    -0.128296355741E+04   -0.20852E-04   -0.25694E-04 10640   0.617E-03 0.620E-03
CGA: 118    -0.128296357826E+04   -0.20850E-04   -0.25390E-04 10640   0.609E-03 0.613E-03
CGA: 119    -0.128296359911E+04   -0.20852E-04   -0.25099E-04 10640   0.602E-03 0.605E-03
CGA: 120    -0.128296361997E+04   -0.20865E-04   -0.24826E-04 10640   0.595E-03 0.598E-03
CGA: 121    -0.128296364086E+04   -0.20884E-04   -0.24567E-04 10640   0.588E-03 0.591E-03
CGA: 122    -0.128296366177E+04   -0.20912E-04   -0.24323E-04 10640   0.581E-03 0.584E-03
CGA: 123    -0.128296368272E+04   -0.20947E-04   -0.24093E-04 10640   0.574E-03 0.577E-03
CGA: 124    -0.128296370371E+04   -0.20991E-04   -0.23877E-04 10640   0.567E-03 0.571E-03
CGA: 125    -0.128296372475E+04   -0.21043E-04   -0.23676E-04 10640   0.561E-03 0.564E-03
CGA: 126    -0.128296374585E+04   -0.21105E-04   -0.23487E-04 10640   0.554E-03 0.557E-03
CGA: 127    -0.128296376703E+04   -0.21175E-04   -0.23312E-04 10640   0.548E-03 0.551E-03
CGA: 128    -0.128296378828E+04   -0.21255E-04   -0.23152E-04 10640   0.541E-03 0.544E-03
CGA: 129    -0.128296380963E+04   -0.21345E-04   -0.23003E-04 10640   0.535E-03 0.538E-03
CGA: 130    -0.128296383107E+04   -0.21445E-04   -0.22868E-04 10640   0.529E-03 0.532E-03
CGA: 131    -0.128296385263E+04   -0.21555E-04   -0.22746E-04 10640   0.522E-03 0.525E-03
CGA: 132    -0.128296387431E+04   -0.21677E-04   -0.22638E-04 10640   0.516E-03 0.519E-03
CGA: 133    -0.128296389612E+04   -0.21810E-04   -0.22541E-04 10640   0.510E-03 0.513E-03
CGA: 134    -0.128296391807E+04   -0.21956E-04   -0.22459E-04 10640   0.504E-03 0.507E-03
CGA: 135    -0.128296394019E+04   -0.22114E-04   -0.22390E-04 10640   0.498E-03 0.501E-03
CGA: 136    -0.128296396247E+04   -0.22286E-04   -0.22335E-04 10640   0.492E-03 0.495E-03
CGA: 137    -0.128296398494E+04   -0.22473E-04   -0.22293E-04 10640   0.486E-03 0.489E-03
CGA: 138    -0.128296400762E+04   -0.22675E-04   -0.22266E-04 10640   0.480E-03 0.483E-03
CGA: 139    -0.128296403051E+04   -0.22892E-04   -0.22252E-04 10640   0.474E-03 0.477E-03
CGA: 140    -0.128296405364E+04   -0.23125E-04   -0.22253E-04 10640   0.468E-03 0.471E-03
CGA: 141    -0.128296407701E+04   -0.23378E-04   -0.22270E-04 10640   0.463E-03 0.465E-03
CGA: 142    -0.128296410066E+04   -0.23648E-04   -0.22301E-04 10640   0.457E-03 0.460E-03
CGA: 143    -0.128296412460E+04   -0.23939E-04   -0.22349E-04 10640   0.451E-03 0.454E-03
CGA: 144    -0.128296414885E+04   -0.24252E-04   -0.22413E-04 10640   0.445E-03 0.448E-03
CGA: 145    -0.128296417344E+04   -0.24588E-04   -0.22495E-04 10640   0.439E-03 0.442E-03
CGA: 146    -0.128296419839E+04   -0.24948E-04   -0.22595E-04 10640   0.433E-03 0.436E-03
CGA: 147    -0.128296422373E+04   -0.25336E-04   -0.22714E-04 10640   0.428E-03 0.431E-03
CGA: 148    -0.128296424948E+04   -0.25756E-04   -0.22855E-04 10640   0.422E-03 0.425E-03
CGA: 149    -0.128296427568E+04   -0.26204E-04   -0.23015E-04 10640   0.416E-03 0.419E-03
CGA: 150    -0.128296430237E+04   -0.26688E-04   -0.23200E-04 10640   0.410E-03 0.413E-03
CGA: 151    -0.128296432958E+04   -0.27207E-04   -0.23408E-04 10640   0.404E-03 0.407E-03
CGA: 152    -0.128296435735E+04   -0.27766E-04   -0.23642E-04 10640   0.398E-03 0.401E-03
CGA: 153    -0.128296438571E+04   -0.28368E-04   -0.23902E-04 10640   0.392E-03 0.395E-03
CGA: 154    -0.128296441473E+04   -0.29019E-04   -0.24193E-04 10640   0.386E-03 0.389E-03
CGA: 155    -0.128296444446E+04   -0.29723E-04   -0.24517E-04 10640   0.380E-03 0.383E-03
CGA: 156    -0.128296447495E+04   -0.30490E-04   -0.24879E-04 10640   0.374E-03 0.377E-03
CGA: 157    -0.128296450626E+04   -0.31318E-04   -0.25277E-04 10640   0.368E-03 0.371E-03
CGA: 158    -0.128296453849E+04   -0.32225E-04   -0.25722E-04 10640   0.361E-03 0.364E-03
CGA: 159    -0.128296457171E+04   -0.33217E-04   -0.26216E-04 10640   0.355E-03 0.358E-03
CGA: 160    -0.128296460601E+04   -0.34304E-04   -0.26764E-04 10640   0.348E-03 0.351E-03
CGA: 161    -0.128296464151E+04   -0.35496E-04   -0.27373E-04 10640   0.341E-03 0.345E-03
CGA: 162    -0.128296467832E+04   -0.36813E-04   -0.28051E-04 10640   0.335E-03 0.338E-03
CGA: 163    -0.128296471657E+04   -0.38254E-04   -0.28800E-04 10640   0.328E-03 0.331E-03
CGA: 164    -0.128296475644E+04   -0.39866E-04   -0.29644E-04 10640   0.320E-03 0.324E-03
CGA: 165    -0.128296479814E+04   -0.41696E-04   -0.30607E-04 10640   0.313E-03 0.317E-03
CGA: 166    -0.128296484189E+04   -0.43757E-04   -0.31695E-04 10640   0.305E-03 0.309E-03
CGA: 167    -0.128296488798E+04   -0.46091E-04   -0.32932E-04 10640   0.298E-03 0.301E-03
CGA: 168    -0.128296493674E+04   -0.48756E-04   -0.34348E-04 10640   0.289E-03 0.293E-03
CGA: 169    -0.128296498857E+04   -0.51833E-04   -0.35984E-04 10640   0.281E-03 0.285E-03
CGA: 170    -0.128296504399E+04   -0.55421E-04   -0.37893E-04 10640   0.272E-03 0.276E-03
CGA: 171    -0.128296510367E+04   -0.59675E-04   -0.40156E-04 10640   0.262E-03 0.267E-03
CGA: 172    -0.128296516846E+04   -0.64786E-04   -0.42871E-04 10640   0.252E-03 0.257E-03
CGA: 173    -0.128296523955E+04   -0.71092E-04   -0.46215E-04 10640   0.242E-03 0.247E-03
CGA: 174    -0.128296531860E+04   -0.79054E-04   -0.50429E-04 10640   0.230E-03 0.236E-03
CGA: 175    -0.128296540816E+04   -0.89553E-04   -0.55974E-04 10640   0.217E-03 0.224E-03
CGA: 176    -0.128296551216E+04   -0.10400E-03   -0.63598E-04 10640   0.203E-03 0.210E-03
CGA: 177    -0.128296563777E+04   -0.12561E-03   -0.75029E-04 10640   0.187E-03 0.194E-03
CGA: 178    -0.128296579734E+04   -0.15957E-03   -0.93660E-04 10640   0.176E-03 0.173E-03
CGA: 179    -0.128296596340E+04   -0.16607E-03   -0.11038E-03 10640   0.321E-03 0.113E-03
CGA: 180    -0.128296603054E+04   -0.67139E-04   -0.66620E-04 10640   0.234E-03 0.122E-04
CGA: 181    -0.128296638802E+04   -0.35747E-03   -0.11348E-03 10640   0.102E-02 0.889E-04
CGA: 182    -0.128296708160E+04   -0.69359E-03   -0.69908E-03 10640   0.936E-03-0.741E-04
CGA: 183    -0.128296740119E+04   -0.31958E-03   -0.33235E-03 10640   0.463E-03-0.228E-03
CGA: 184    -0.128296749264E+04   -0.91452E-04   -0.81570E-04 10640   0.803E-04-0.120E-03
CGA: 185    -0.128296754190E+04   -0.49262E-04    0.30426E-04 10640   0.457E-04-0.142E-04
CGA: 186    -0.128296757173E+04   -0.29826E-04    0.23271E-04 10640   0.915E-04-0.139E-04
CGA: 187    -0.128296767488E+04   -0.10315E-03    0.64449E-05 10640   0.475E-04 0.292E-04
CGA: 188    -0.128296773915E+04   -0.64271E-04    0.15969E-04 10640   0.195E-03-0.552E-04
CGA: 189    -0.128296774401E+04   -0.48586E-05   -0.14633E-04 10640   0.141E-04 0.408E-04
   1 F= -.12829677E+04 E0= -.12829677E+04  d E =-.128297E+04  mag=    47.0000
       N       E                     dE             d eps       ncg     rms          ort
SDA:   1    -0.128296786456E+04   -0.12542E-03    0.00000E+00 10640   0.291E-03 0.000E+00
CGA:   2    -0.128296794854E+04   -0.83976E-04   -0.83254E-04 10640   0.385E-03-0.124E-03
CGA:   3    -0.128296796135E+04   -0.12814E-04   -0.22256E-04 10640   0.176E-03 0.496E-04
CGA:   4    -0.128296796249E+04   -0.11312E-05   -0.13094E-04 10640   0.491E-04 0.555E-04
   2 F= -.12829680E+04 E0= -.12829679E+04  d E =-.218478E-03  mag=    47.0000
       N       E                     dE             d eps       ncg     rms          ort
SDA:   1    -0.128295530829E+04    0.12653E-01    0.00000E+00 10640   0.417E-01 0.000E+00
CGA:   2    -0.128296590292E+04   -0.10595E-01   -0.10594E-01 10640   0.203E-01-0.500E-04
CGA:   3    -0.128297021800E+04   -0.43151E-02   -0.43232E-02 10640   0.372E-02 0.167E-03
CGA:   4    -0.128297073813E+04   -0.52014E-03   -0.54706E-03 10640   0.707E-03 0.241E-03
CGA:   5    -0.128297088353E+04   -0.14540E-03   -0.14590E-03 10640   0.216E-03 0.904E-05
CGA:   6    -0.128297091910E+04   -0.35567E-04   -0.36946E-04 10640   0.631E-04 0.173E-04
CGA:   7    -0.128297093358E+04   -0.14482E-04   -0.14634E-04 10640   0.206E-04 0.492E-05
CGA:   8    -0.128297094014E+04   -0.65616E-05   -0.71211E-05 10640   0.274E-04-0.733E-05
   3 F= -.12829709E+04 E0= -.12829709E+04  d E =-.297766E-02  mag=    47.0000
       N       E                     dE             d eps       ncg     rms          ort
SDA:   1    -0.128282331325E+04    0.14762E+00    0.00000E+00 10640   0.420E+00 0.000E+00
CGA:   2    -0.128292937289E+04   -0.10606E+00   -0.10609E+00 10640   0.207E+00-0.189E-02
CGA:   3    -0.128297142508E+04   -0.42052E-01   -0.42122E-01 10640   0.458E-01 0.213E-02
CGA:   4    -0.128297805102E+04   -0.66259E-02   -0.65908E-02 10640   0.959E-02-0.364E-03
CGA:   5    -0.128297963669E+04   -0.15857E-02   -0.16181E-02 10640   0.225E-02 0.531E-03
CGA:   6    -0.128298012845E+04   -0.49175E-03   -0.49098E-03 10640   0.746E-03-0.321E-04
CGA:   7    -0.128298029160E+04   -0.16315E-03   -0.16252E-03 10640   0.359E-03-0.864E-04
CGA:   8    -0.128298033695E+04   -0.45347E-04   -0.47605E-04 10640   0.994E-04 0.293E-04
CGA:   9    -0.128298036314E+04   -0.26192E-04   -0.25748E-04 10640   0.465E-04 0.286E-04
CGA:  10    -0.128298037110E+04   -0.79604E-05   -0.95366E-05 10640   0.279E-04 0.240E-04
   4 F= -.12829804E+04 E0= -.12829803E+04  d E =-.943096E-02  mag=    47.0000
       N       E                     dE             d eps       ncg     rms          ort
SDA:   1    -0.128260866016E+04    0.37170E+00    0.00000E+00 10640   0.106E+01 0.000E+00
CGA:   2    -0.128287022265E+04   -0.26156E+00   -0.26162E+00 10640   0.493E+00-0.179E-02
CGA:   3    -0.128297836072E+04   -0.10814E+00   -0.10813E+00 10640   0.943E-01 0.136E-02
CGA:   4    -0.128299366927E+04   -0.15309E-01   -0.15279E-01 10640   0.194E-01-0.540E-03
CGA:   5    -0.128299703595E+04   -0.33667E-02   -0.34108E-02 10640   0.473E-02 0.117E-02
CGA:   6    -0.128299811841E+04   -0.10825E-02   -0.10840E-02 10640   0.197E-02-0.443E-03
CGA:   7    -0.128299843301E+04   -0.31460E-03   -0.31916E-03 10640   0.488E-03 0.132E-03
CGA:   8    -0.128299859008E+04   -0.15706E-03   -0.18712E-03 10640   0.495E-03-0.203E-03
CGA:   9    -0.128299864565E+04   -0.55572E-04   -0.55465E-04 10640   0.313E-03-0.409E-05
CGA:  10    -0.128299868787E+04   -0.42224E-04   -0.47644E-04 10640   0.140E-03 0.847E-04
CGA:  11    -0.128299871258E+04   -0.24712E-04   -0.27838E-04 10640   0.778E-04 0.538E-04
CGA:  12    -0.128299873304E+04   -0.20457E-04   -0.20956E-04 10640   0.499E-04 0.303E-04
CGA:  13    -0.128299874867E+04   -0.15625E-04   -0.15346E-04 10640   0.480E-04 0.249E-04
CGA:  14    -0.128299877013E+04   -0.21469E-04   -0.20194E-04 10640   0.512E-04 0.176E-04
CGA:  15    -0.128299879458E+04   -0.24444E-04   -0.23881E-04 10640   0.735E-04 0.299E-05
CGA:  16    -0.128299880699E+04   -0.12411E-04   -0.13781E-04 10640   0.666E-04 0.294E-04
CGA:  17    -0.128299881724E+04   -0.10254E-04   -0.13637E-04 10640   0.477E-04 0.453E-04
CGA:  18    -0.128299882961E+04   -0.12364E-04   -0.12062E-04 10640   0.354E-04 0.793E-05
CGA:  19    -0.128299883584E+04   -0.62329E-05   -0.68100E-05 10640   0.963E-05 0.111E-04
   5 F= -.12829988E+04 E0= -.12829988E+04  d E =-.184647E-01  mag=    47.0000
       N       E                     dE             d eps       ncg     rms          ort
SDA:   1    -0.128262677738E+04    0.37205E+00    0.00000E+00 10640   0.116E+01 0.000E+00
CGA:   2    -0.128286734927E+04   -0.24057E+00   -0.24056E+00 10640   0.472E+00-0.130E-02
CGA:   3    -0.128298271805E+04   -0.11537E+00   -0.11528E+00 10640   0.113E+00 0.276E-02
CGA:   4    -0.128300014270E+04   -0.17425E-01   -0.17476E-01 10640   0.182E-01 0.860E-03
CGA:   5    -0.128300362336E+04   -0.34807E-02   -0.34909E-02 10640   0.560E-02 0.494E-03
CGA:   6    -0.128300469745E+04   -0.10741E-02   -0.10636E-02 10640   0.230E-02-0.388E-03
CGA:   7    -0.128300509281E+04   -0.39536E-03   -0.39489E-03 10640   0.579E-03-0.157E-04
CGA:   8    -0.128300523744E+04   -0.14463E-03   -0.14793E-03 10640   0.338E-03-0.677E-04
CGA:   9    -0.128300530965E+04   -0.72206E-04   -0.73381E-04 10640   0.227E-03-0.335E-04
CGA:  10    -0.128300533726E+04   -0.27610E-04   -0.32048E-04 10640   0.841E-04 0.785E-04
CGA:  11    -0.128300535926E+04   -0.21998E-04   -0.22455E-04 10640   0.662E-04 0.393E-04
CGA:  12    -0.128300538442E+04   -0.25165E-04   -0.24790E-04 10640   0.643E-04 0.786E-05
CGA:  13    -0.128300539058E+04   -0.61528E-05   -0.97184E-05 10640   0.523E-04 0.461E-04
   6 F= -.12830054E+04 E0= -.12830053E+04  d E =-.655474E-02  mag=    47.0000
       N       E                     dE             d eps       ncg     rms          ort
SDA:   1    -0.128186721841E+04    0.11382E+01    0.00000E+00 10640   0.339E+01 0.000E+00
CGA:   2    -0.128258847315E+04   -0.72125E+00   -0.72125E+00 10640   0.142E+01 0.106E-02
CGA:   3    -0.128293629743E+04   -0.34782E+00   -0.34794E+00 10640   0.319E+00-0.359E-02
CGA:   4    -0.128298665527E+04   -0.50358E-01   -0.50325E-01 10640   0.482E-01-0.582E-03
CGA:   5    -0.128299717134E+04   -0.10516E-01   -0.10511E-01 10640   0.111E-01 0.426E-03
CGA:   6    -0.128299975774E+04   -0.25864E-02   -0.25834E-02 10640   0.337E-02 0.124E-03
CGA:   7    -0.128300047661E+04   -0.71887E-03   -0.71995E-03 10640   0.130E-02-0.249E-03
CGA:   8    -0.128300070318E+04   -0.22657E-03   -0.22739E-03 10640   0.475E-03 0.442E-04
CGA:   9    -0.128300070951E+04   -0.63353E-05   -0.32808E-03 10640   0.214E-02-0.695E-03
CGA:  10    -0.128300090141E+04   -0.19190E-03   -0.23334E-03 10640   0.341E-03 0.347E-03
CGA:  11    -0.128300099024E+04   -0.88826E-04   -0.88860E-04 10640   0.114E-03-0.443E-04
CGA:  12    -0.128300104108E+04   -0.50842E-04    0.74883E-04 10640   0.625E-04-0.599E-06
CGA:  13    -0.128300104812E+04   -0.70417E-05   -0.89858E-05 10640   0.277E-04 0.246E-04
   7 F= -.12830010E+04 E0= -.12830010E+04  d E =0.434245E-02  mag=    47.0000
       N       E                     dE             d eps       ncg     rms          ort
SDA:   1    -0.128269058521E+04    0.31046E+00    0.00000E+00 10640   0.970E+00 0.000E+00
CGA:   2    -0.128289233279E+04   -0.20175E+00   -0.20175E+00 10640   0.398E+00 0.380E-03
CGA:   3    -0.128298994746E+04   -0.97615E-01   -0.97573E-01 10640   0.973E-01 0.140E-02
CGA:   4    -0.128300447818E+04   -0.14531E-01   -0.14637E-01 10640   0.152E-01 0.158E-02
CGA:   5    -0.128300750712E+04   -0.30289E-02   -0.30239E-02 10640   0.536E-02-0.235E-03
CGA:   6    -0.128300837531E+04   -0.86819E-03   -0.86419E-03 10640   0.170E-02-0.712E-04
CGA:   7    -0.128300869997E+04   -0.32466E-03   -0.32614E-03 10640   0.384E-03 0.835E-04
CGA:   8    -0.128300881578E+04   -0.11581E-03   -0.13344E-03 10640   0.367E-03-0.147E-03
CGA:   9    -0.128300882365E+04   -0.78641E-05   -0.20166E-04 10640   0.190E-03 0.958E-04
CGA:  10    -0.128300882808E+04   -0.44344E-05   -0.18159E-04 10640   0.910E-04 0.101E-03
CGA:  11    -0.128300885638E+04   -0.28301E-04   -0.32590E-04 10640   0.120E-03-0.278E-04
CGA:  12    -0.128300885658E+04   -0.19659E-06   -0.56957E-05 10640   0.584E-04 0.384E-04
   8 F= -.12830089E+04 E0= -.12830088E+04  d E =-.780846E-02  mag=    47.0000
       N       E                     dE             d eps       ncg     rms          ort
SDA:   1    -0.128292946802E+04    0.79388E-01    0.00000E+00 10640   0.244E+00 0.000E+00
CGA:   2    -0.128297729545E+04   -0.47827E-01   -0.47827E-01 10640   0.921E-01-0.429E-03
CGA:   3    -0.128300039064E+04   -0.23095E-01   -0.23037E-01 10640   0.255E-01 0.106E-02
CGA:   4    -0.128300417409E+04   -0.37835E-02   -0.38127E-02 10640   0.397E-02 0.581E-03
CGA:   5    -0.128300487763E+04   -0.70354E-03   -0.70630E-03 10640   0.133E-02 0.123E-03
CGA:   6    -0.128300513559E+04   -0.25796E-03   -0.25726E-03 10640   0.470E-03-0.826E-04
CGA:   7    -0.128300521544E+04   -0.79853E-04   -0.80480E-04 10640   0.108E-03 0.483E-04
CGA:   8    -0.128300524567E+04   -0.30227E-04   -0.30165E-04 10640   0.551E-04 0.112E-05
CGA:   9    -0.128300525218E+04   -0.65101E-05   -0.80315E-05 10640   0.273E-04 0.284E-04
   9 F= -.12830053E+04 E0= -.12830052E+04  d E =0.360440E-02  mag=    47.0000
       N       E                     dE             d eps       ncg     rms          ort
SDA:   1    -0.128069408469E+04    0.23112E+01    0.00000E+00 10640   0.644E+01 0.000E+00
CGA:   2    -0.128218754281E+04   -0.14935E+01   -0.14936E+01 10640   0.291E+01-0.210E-02
CGA:   3    -0.128286638648E+04   -0.67884E+00   -0.67896E+00 10640   0.562E+00-0.427E-02
CGA:   4    -0.128295655540E+04   -0.90169E-01   -0.90112E-01 10640   0.100E+00-0.157E-02
CGA:   5    -0.128297667975E+04   -0.20124E-01   -0.20117E-01 10640   0.279E-01 0.107E-02
CGA:   6    -0.128298168558E+04   -0.50058E-02   -0.50017E-02 10640   0.113E-01-0.203E-03
CGA:   7    -0.128298374456E+04   -0.20590E-02   -0.20548E-02 10640   0.289E-02-0.392E-03
CGA:   8    -0.128298439278E+04   -0.64822E-03   -0.65072E-03 10640   0.114E-02-0.578E-04
CGA:   9    -0.128298458580E+04   -0.19301E-03   -0.55255E-03 10640   0.388E-02-0.120E-02
CGA:  10    -0.128298489692E+04   -0.31112E-03   -0.35339E-03 10640   0.411E-03 0.371E-03
CGA:  11    -0.128298498781E+04   -0.90891E-04   -0.91006E-04 10640   0.140E-03 0.609E-04
CGA:  12    -0.128298507217E+04   -0.84356E-04    0.57646E-04 10640   0.105E-03-0.277E-04
CGA:  13    -0.128298511342E+04   -0.41252E-04    0.42295E-04 10640   0.620E-04 0.395E-05
CGA:  14    -0.128298512748E+04   -0.14057E-04   -0.14039E-04 10640   0.565E-04 0.124E-05
CGA:  15    -0.128298518301E+04   -0.55529E-04    0.43560E-05 10640   0.408E-04 0.131E-04
CGA:  16    -0.128298524287E+04   -0.59863E-04    0.27034E-05 10640   0.379E-04 0.422E-05
CGA:  17    -0.128298527448E+04   -0.31614E-04    0.50647E-05 10640   0.314E-04 0.206E-04
CGA:  18    -0.128298527390E+04    0.58598E-06   -0.20895E-05 10640   0.146E-04 0.194E-04
  10 F= -.12829853E+04 E0= -.12829852E+04  d E =0.199783E-01  mag=    47.0000
       N       E                     dE             d eps       ncg     rms          ort
SDA:   1    -0.127941168947E+04    0.35736E+01    0.00000E+00 10640   0.106E+02 0.000E+00
CGA:   2    -0.128165994501E+04   -0.22483E+01   -0.22483E+01 10640   0.447E+01 0.242E-02
CGA:   3    -0.128274100193E+04   -0.10811E+01   -0.10807E+01 10640   0.104E+01 0.454E-02
CGA:   4    -0.128290066345E+04   -0.15966E+00   -0.15986E+00 10640   0.163E+00 0.531E-02
CGA:   5    -0.128293350138E+04   -0.32838E-01   -0.32844E-01 10640   0.534E-01-0.851E-03
CGA:   6    -0.128294224360E+04   -0.87422E-02   -0.87290E-02 10640   0.183E-01-0.370E-03
CGA:   7    -0.128294573581E+04   -0.34922E-02   -0.34923E-02 10640   0.436E-02 0.179E-03
CGA:   8    -0.128294683068E+04   -0.10949E-02   -0.11247E-02 10640   0.224E-02-0.467E-03
CGA:   9    -0.128294716842E+04   -0.33774E-03   -0.34541E-03 10640   0.810E-03 0.342E-03
CGA:  10    -0.128294740000E+04   -0.23158E-03   -0.22496E-03 10640   0.330E-03 0.143E-03
CGA:  11    -0.128294710815E+04    0.29185E-03   -0.36851E-03 10640   0.405E-02-0.876E-03
CGA:  12    -0.128294741825E+04   -0.31010E-03   -0.41272E-03 10640   0.512E-03 0.790E-03
CGA:  13    -0.128294749834E+04   -0.80091E-04   -0.94849E-04 10640   0.245E-03 0.203E-03
CGA:  14    -0.128294758870E+04   -0.90358E-04   -0.10622E-03 10640   0.275E-03-0.183E-03
CGA:  15    -0.128294759186E+04   -0.31629E-05   -0.22755E-04 10640   0.864E-04 0.135E-03
  11 F= -.12829476E+04 E0= -.12829475E+04  d E =0.376820E-01  mag=    47.0000
       N       E                     dE             d eps       ncg     rms          ort
SDA:   1    -0.128151047164E+04    0.14371E+01    0.00000E+00 10640   0.458E+01 0.000E+00
CGA:   2    -0.128243557371E+04   -0.92510E+00   -0.92509E+00 10640   0.181E+01 0.750E-03
CGA:   3    -0.128288916190E+04   -0.45359E+00   -0.45367E+00 10640   0.463E+00-0.307E-02
CGA:   4    -0.128296083307E+04   -0.71671E-01   -0.71536E-01 10640   0.683E-01-0.212E-02
CGA:   5    -0.128297442829E+04   -0.13595E-01   -0.13600E-01 10640   0.211E-01 0.413E-03
CGA:   6    -0.128297804708E+04   -0.36188E-02   -0.36166E-02 10640   0.765E-02-0.269E-04
CGA:   7    -0.128297951600E+04   -0.14689E-02   -0.14662E-02 10640   0.190E-02-0.144E-03
CGA:   8    -0.128297991140E+04   -0.39541E-03   -0.39514E-03 10640   0.712E-03 0.919E-04
CGA:   9    -0.128298005320E+04   -0.14180E-03   -0.37083E-03 10640   0.259E-02-0.793E-03
CGA:  10    -0.128298026606E+04   -0.21286E-03   -0.24058E-03 10640   0.286E-03 0.221E-03
CGA:  11    -0.128298033953E+04   -0.73470E-04   -0.73388E-04 10640   0.996E-04 0.430E-05
CGA:  12    -0.128298041226E+04   -0.72733E-04    0.16881E-04 10640   0.881E-04-0.185E-04
CGA:  13    -0.128298045657E+04   -0.44305E-04    0.18679E-04 10640   0.484E-04 0.685E-05
CGA:  14    -0.128298046750E+04   -0.10929E-04   -0.10959E-04 10640   0.438E-04 0.385E-05
CGA:  15    -0.128298051788E+04   -0.50383E-04    0.35445E-05 10640   0.270E-04 0.949E-05
CGA:  16    -0.128298056919E+04   -0.51307E-04    0.13811E-05 10640   0.278E-04 0.299E-05
CGA:  17    -0.128298059605E+04   -0.26856E-04    0.33563E-05 10640   0.210E-04 0.117E-04
CGA:  18    -0.128298060217E+04   -0.61204E-05   -0.61562E-05 10640   0.180E-04 0.314E-05
  12 F= -.12829806E+04 E0= -.12829806E+04  d E =-.330103E-01  mag=    47.0000
       N       E                     dE             d eps       ncg     rms          ort
SDA:   1    -0.128277416580E+04    0.20643E+00    0.00000E+00 10640   0.623E+00 0.000E+00
CGA:   2    -0.128289433662E+04   -0.12017E+00   -0.12018E+00 10640   0.231E+00 0.463E-03
CGA:   3    -0.128295356230E+04   -0.59226E-01   -0.59276E-01 10640   0.668E-01-0.135E-02
CGA:   4    -0.128296368960E+04   -0.10127E-01   -0.10094E-01 10640   0.995E-02-0.471E-03
CGA:   5    -0.128296554429E+04   -0.18547E-02   -0.18524E-02 10640   0.333E-02-0.778E-04
CGA:   6    -0.128296607120E+04   -0.52691E-03   -0.53374E-03 10640   0.955E-03 0.137E-03
CGA:   7    -0.128296629370E+04   -0.22250E-03   -0.22287E-03 10640   0.270E-03-0.261E-04
CGA:   8    -0.128296634277E+04   -0.49065E-04   -0.49656E-04 10640   0.106E-03 0.267E-04
CGA:   9    -0.128296637546E+04   -0.32694E-04   -0.48282E-04 10640   0.220E-03-0.763E-04
CGA:  10    -0.128296640116E+04   -0.25696E-04   -0.25653E-04 10640   0.445E-04-0.116E-06
CGA:  11    -0.128296641351E+04   -0.12348E-04   -0.14170E-04 10640   0.411E-04-0.175E-04
CGA:  12    -0.128296642704E+04   -0.13533E-04    0.11723E-04 10640   0.282E-04 0.265E-05
CGA:  13    -0.128296644247E+04   -0.15431E-04    0.19963E-04 10640   0.133E-04 0.902E-05
CGA:  14    -0.128296645020E+04   -0.77297E-05    0.73117E-03 10640   0.113E-04 0.480E-05
  13 F= -.12829665E+04 E0= -.12829664E+04  d E =0.141520E-01  mag=    47.0000
       N       E                     dE             d eps       ncg     rms          ort
SDA:   1    -0.127949100739E+04    0.34754E+01    0.00000E+00 10640   0.108E+02 0.000E+00
CGA:   2    -0.128165086944E+04   -0.21599E+01   -0.21598E+01 10640   0.421E+01 0.244E-02
CGA:   3    -0.128271140850E+04   -0.10605E+01   -0.10603E+01 10640   0.109E+01 0.572E-02
CGA:   4    -0.128287873102E+04   -0.16732E+00   -0.16774E+00 10640   0.155E+00 0.685E-02
CGA:   5    -0.128291101249E+04   -0.32281E-01   -0.32272E-01 10640   0.486E-01-0.898E-03
CGA:   6    -0.128291919352E+04   -0.81810E-02   -0.81872E-02 10640   0.180E-01 0.209E-03
CGA:   7    -0.128292248781E+04   -0.32943E-02   -0.32948E-02 10640   0.430E-02 0.449E-04
CGA:   8    -0.128292356235E+04   -0.10745E-02   -0.10935E-02 10640   0.208E-02-0.459E-03
CGA:   9    -0.128292384595E+04   -0.28359E-03   -0.30601E-03 10640   0.732E-03 0.449E-03
CGA:  10    -0.128292404161E+04   -0.19566E-03   -0.19446E-03 10640   0.298E-03 0.203E-03
CGA:  11    -0.128292416515E+04   -0.12354E-03   -0.17734E-03 10640   0.723E-03-0.211E-03
CGA:  12    -0.128292418309E+04   -0.17939E-04   -0.56891E-04 10640   0.152E-03 0.267E-03
CGA:  13    -0.128292418036E+04    0.27252E-05   -0.14357E-04 10640   0.851E-04 0.115E-03
CGA:  14    -0.128292421692E+04   -0.36562E-04   -0.39658E-04 10640   0.132E-03-0.120E-04
CGA:  15    -0.128292421324E+04    0.36774E-05   -0.73223E-05 10640   0.695E-04 0.693E-04
  14 F= -.12829242E+04 E0= -.12829242E+04  d E =0.422370E-01  mag=    47.0000
       N       E                     dE             d eps       ncg     rms          ort
SDA:   1    -0.127921425101E+04    0.37100E+01    0.00000E+00 10640   0.121E+02 0.000E+00
CGA:   2    -0.128154845565E+04   -0.23342E+01   -0.23342E+01 10640   0.447E+01 0.220E-02
CGA:   3    -0.128269657010E+04   -0.11481E+01   -0.11481E+01 10640   0.126E+01-0.281E-02
CGA:   4    -0.128289217793E+04   -0.19561E+00   -0.19544E+00 10640   0.167E+00-0.287E-02
CGA:   5    -0.128292726393E+04   -0.35086E-01   -0.35081E-01 10640   0.457E-01 0.139E-02
CGA:   6    -0.128293624525E+04   -0.89813E-02   -0.89769E-02 10640   0.184E-01-0.326E-03
CGA:   7    -0.128293927627E+04   -0.30310E-02   -0.30356E-02 10640   0.465E-02 0.143E-03
CGA:   8    -0.128294028036E+04   -0.10041E-02   -0.10028E-02 10640   0.170E-02 0.136E-03
CGA:   9    -0.128294078017E+04   -0.49981E-03   -0.72487E-03 10640   0.319E-02-0.107E-02
CGA:  10    -0.128294104241E+04   -0.26224E-03   -0.30753E-03 10640   0.442E-03 0.393E-03
CGA:  11    -0.128294116431E+04   -0.12190E-03   -0.12085E-03 10640   0.241E-03 0.310E-04
CGA:  12    -0.128294130512E+04   -0.14082E-03    0.93345E-04 10640   0.196E-03-0.166E-04
CGA:  13    -0.128294140029E+04   -0.95165E-04    0.80601E-04 10640   0.126E-03 0.548E-04
CGA:  14    -0.128294143696E+04   -0.36676E-04   -0.36538E-04 10640   0.119E-03 0.904E-05
CGA:  15    -0.128294153042E+04   -0.93462E-04    0.18567E-04 10640   0.755E-04 0.235E-04
CGA:  16    -0.128294161812E+04   -0.87696E-04    0.74065E-05 10640   0.758E-04 0.915E-05
CGA:  17    -0.128294166125E+04   -0.43131E-04    0.45587E-04 10640   0.549E-04 0.265E-04
CGA:  18    -0.128294166956E+04   -0.83093E-05   -0.10352E-04 10640   0.308E-04 0.281E-04
  15 F= -.12829417E+04 E0= -.12829416E+04  d E =-.174563E-01  mag=    47.0000
       N       E                     dE             d eps       ncg     rms          ort
SDA:   1    -0.128264248935E+04    0.29917E+00    0.00000E+00 10640   0.764E+00 0.000E+00
CGA:   2    -0.128283374339E+04   -0.19125E+00   -0.19129E+00 10640   0.367E+00-0.872E-03
CGA:   3    -0.128291366101E+04   -0.79918E-01   -0.79920E-01 10640   0.706E-01-0.390E-03
CGA:   4    -0.128292446709E+04   -0.10806E-01   -0.10733E-01 10640   0.157E-01-0.123E-02
CGA:   5    -0.128292707532E+04   -0.26082E-02   -0.26146E-02 10640   0.451E-02 0.182E-03
CGA:   6    -0.128292783331E+04   -0.75799E-03   -0.76872E-03 10640   0.114E-02 0.292E-03
CGA:   7    -0.128292815575E+04   -0.32244E-03   -0.33635E-03 10640   0.481E-03-0.192E-03
CGA:   8    -0.128292819348E+04   -0.37726E-04   -0.49071E-04 10640   0.171E-03 0.134E-03
CGA:   9    -0.128292822656E+04   -0.33088E-04   -0.35524E-04 10640   0.913E-04 0.603E-04
CGA:  10    -0.128292767240E+04    0.55416E-03   -0.29853E-03 10640   0.486E-02-0.666E-03
CGA:  11    -0.128292808359E+04   -0.41119E-03   -0.49735E-03 10640   0.761E-03 0.356E-03
CGA:  12    -0.128292824057E+04   -0.15698E-03   -0.17227E-03 10640   0.152E-03 0.107E-03
CGA:  13    -0.128292809653E+04    0.14405E-03   -0.14006E-03 10640   0.361E-02-0.612E-03
CGA:  14    -0.128292828319E+04   -0.18667E-03   -0.31884E-03 10640   0.198E-03 0.502E-03
CGA:  15    -0.128292828104E+04    0.21492E-05   -0.22770E-04 10640   0.903E-04 0.981E-04
CGA:  16    -0.128292830227E+04   -0.21223E-04   -0.24462E-04 10640   0.324E-04 0.200E-04
CGA:  17    -0.128292835821E+04   -0.55948E-04    0.59660E-05 10640   0.113E-03-0.629E-04
CGA:  18    -0.128292834567E+04    0.12539E-04   -0.57390E-05 10640   0.394E-04 0.646E-04
CGA:  19    -0.128292833932E+04    0.63579E-05   -0.16389E-05 10640   0.217E-04 0.287E-04
  16 F= -.12829283E+04 E0= -.12829283E+04  d E =0.133302E-01  mag=    47.0000
       N       E                     dE             d eps       ncg     rms          ort
SDA:   1    -0.127741811259E+04    0.55102E+01    0.00000E+00 10640   0.179E+02 0.000E+00
CGA:   2    -0.128085103623E+04   -0.34329E+01   -0.34329E+01 10640   0.656E+01 0.876E-02
CGA:   3    -0.128253431978E+04   -0.16833E+01   -0.16837E+01 10640   0.186E+01 0.651E-02
CGA:   4    -0.128281990568E+04   -0.28559E+00   -0.28659E+00 10640   0.250E+00 0.967E-02
CGA:   5    -0.128287184467E+04   -0.51939E-01   -0.51860E-01 10640   0.783E-01-0.107E-02
CGA:   6    -0.128288511954E+04   -0.13275E-01   -0.13325E-01 10640   0.289E-01 0.634E-03
CGA:   7    -0.128289041756E+04   -0.52980E-02   -0.53071E-02 10640   0.694E-02 0.153E-03
CGA:   8    -0.128289212178E+04   -0.17042E-02   -0.16943E-02 10640   0.305E-02-0.410E-03
CGA:   9    -0.128289258181E+04   -0.46003E-03   -0.51630E-03 10640   0.114E-02 0.663E-03
CGA:  10    -0.128289292030E+04   -0.33849E-03   -0.34190E-03 10640   0.505E-03 0.232E-03
CGA:  11    -0.128289310495E+04   -0.18465E-03   -0.18156E-03 10640   0.329E-03 0.818E-04
CGA:  12    -0.128289311928E+04   -0.14331E-04   -0.46242E-04 10640   0.163E-03 0.226E-03
CGA:  13    -0.128289313794E+04   -0.18658E-04   -0.27437E-04 10640   0.874E-04 0.101E-03
CGA:  14    -0.128289316340E+04   -0.25461E-04   -0.23987E-04 10640   0.654E-04 0.626E-04
CGA:  15    -0.128289316075E+04    0.26467E-05   -0.62912E-05 10640   0.555E-04 0.573E-04
  17 F= -.12828932E+04 E0= -.12828931E+04  d E =0.351786E-01  mag=    47.0000
       N       E                     dE             d eps       ncg     rms          ort
SDA:   1    -0.128060801966E+04    0.22851E+01    0.00000E+00 10640   0.767E+01 0.000E+00
CGA:   2    -0.128208122388E+04   -0.14732E+01   -0.14731E+01 10640   0.282E+01 0.124E-02
CGA:   3    -0.128280327549E+04   -0.72205E+00   -0.72207E+00 10640   0.803E+00-0.268E-02
CGA:   4    -0.128292788188E+04   -0.12461E+00   -0.12439E+00 10640   0.108E+00-0.251E-02
CGA:   5    -0.128294985990E+04   -0.21978E-01   -0.22007E-01 10640   0.316E-01 0.104E-02
CGA:   6    -0.128295566972E+04   -0.58098E-02   -0.57874E-02 10640   0.125E-01-0.411E-03
CGA:   7    -0.128295782026E+04   -0.21505E-02   -0.21533E-02 10640   0.294E-02 0.675E-04
CGA:   8    -0.128295846192E+04   -0.64166E-03   -0.64273E-03 10640   0.105E-02 0.119E-03
CGA:   9    -0.128295868302E+04   -0.22110E-03   -0.58097E-03 10640   0.384E-02-0.118E-02
CGA:  10    -0.128295897266E+04   -0.28964E-03   -0.35713E-03 10640   0.437E-03 0.476E-03
CGA:  11    -0.128295906623E+04   -0.93569E-04   -0.96160E-04 10640   0.169E-03 0.675E-04
CGA:  12    -0.128295918534E+04   -0.11912E-03    0.72775E-04 10640   0.170E-03-0.716E-04
CGA:  13    -0.128295923976E+04   -0.54414E-04    0.57785E-04 10640   0.129E-03-0.413E-04
CGA:  14    -0.128295925100E+04   -0.11242E-04   -0.12867E-04 10640   0.858E-04 0.163E-04
CGA:  15    -0.128295929940E+04   -0.48397E-04    0.10691E-03 10640   0.804E-04-0.651E-05
CGA:  16    -0.128295938884E+04   -0.89442E-04    0.51179E-05 10640   0.735E-04-0.441E-04
CGA:  17    -0.128295938534E+04    0.34998E-05   -0.46289E-05 10640   0.363E-04 0.495E-04
  18 F= -.12829594E+04 E0= -.12829593E+04  d E =-.662246E-01  mag=    47.0000
       N       E                     dE             d eps       ncg     rms          ort
SDA:   1    -0.128221578538E+04    0.74360E+00    0.00000E+00 10640   0.226E+01 0.000E+00
CGA:   2    -0.128266222159E+04   -0.44644E+00   -0.44643E+00 10640   0.864E+00 0.421E-03
CGA:   3    -0.128288138968E+04   -0.21917E+00   -0.21923E+00 10640   0.233E+00-0.190E-02
CGA:   4    -0.128291745513E+04   -0.36065E-01   -0.35985E-01 10640   0.335E-01-0.128E-02
CGA:   5    -0.128292401542E+04   -0.65603E-02   -0.65668E-02 10640   0.103E-01 0.482E-03
CGA:   6    -0.128292581278E+04   -0.17974E-02   -0.17957E-02 10640   0.377E-02-0.283E-04
CGA:   7    -0.128292654133E+04   -0.72855E-03   -0.72752E-03 10640   0.934E-03-0.650E-04
CGA:   8    -0.128292674795E+04   -0.20662E-03   -0.20624E-03 10640   0.365E-03 0.228E-04
CGA:   9    -0.128292653959E+04    0.20836E-03   -0.30457E-03 10640   0.428E-02-0.843E-03
CGA:  10    -0.128292688984E+04   -0.35025E-03   -0.39660E-03 10640   0.456E-03 0.338E-03
CGA:  11    -0.128292698209E+04   -0.92251E-04   -0.95510E-04 10640   0.125E-03 0.878E-04
CGA:  12    -0.128292705297E+04   -0.70878E-04    0.49391E-03 10640   0.124E-03-0.354E-04
CGA:  13    -0.128292707151E+04   -0.18540E-04   -0.17994E-04 10640   0.725E-04-0.202E-04
CGA:  14    -0.128292707165E+04   -0.14253E-06   -0.49660E-05 10640   0.473E-04 0.330E-04
  19 F= -.12829271E+04 E0= -.12829270E+04  d E =0.323137E-01  mag=    47.0000
       N       E                     dE             d eps       ncg     rms          ort
SDA:   1    -0.127745453613E+04    0.54725E+01    0.00000E+00 10640   0.177E+02 0.000E+00
CGA:   2    -0.128086312485E+04   -0.34086E+01   -0.34085E+01 10640   0.656E+01 0.856E-02
CGA:   3    -0.128253239957E+04   -0.16693E+01   -0.16689E+01 10640   0.186E+01 0.491E-02
CGA:   4    -0.128281708980E+04   -0.28469E+00   -0.28538E+00 10640   0.248E+00 0.138E-01
CGA:   5    -0.128286988950E+04   -0.52800E-01   -0.52792E-01 10640   0.749E-01-0.318E-02
CGA:   6    -0.128288273411E+04   -0.12845E-01   -0.12921E-01 10640   0.263E-01 0.214E-02
CGA:   7    -0.128288771701E+04   -0.49829E-02   -0.49779E-02 10640   0.725E-02-0.150E-03
CGA:   8    -0.128288934006E+04   -0.16231E-02   -0.16329E-02 10640   0.349E-02-0.585E-03
CGA:   9    -0.128288979520E+04   -0.45514E-03   -0.50140E-03 10640   0.115E-02 0.858E-03
CGA:  10    -0.128289010037E+04   -0.30518E-03   -0.30349E-03 10640   0.538E-03 0.416E-03
CGA:  11    -0.128289030248E+04   -0.20211E-03   -0.20717E-03 10640   0.721E-03-0.665E-04
CGA:  12    -0.128289033120E+04   -0.28716E-04   -0.60330E-04 10640   0.411E-03 0.272E-03
CGA:  13    -0.128289033006E+04    0.11406E-05   -0.36819E-04 10640   0.205E-03 0.270E-03
CGA:  14    -0.128289035492E+04   -0.24864E-04   -0.30896E-04 10640   0.998E-04 0.125E-03
CGA:  15    -0.128289038332E+04   -0.28396E-04   -0.25050E-04 10640   0.655E-04 0.619E-04
CGA:  16    -0.128289038179E+04    0.15293E-05   -0.51489E-05 10640   0.528E-04 0.552E-04
  20 F= -.12828904E+04 E0= -.12828903E+04  d E =0.366899E-01  mag=    47.0000
       N       E                     dE             d eps       ncg     rms          ort
SDA:   1    -0.127998331862E+04    0.29071E+01    0.00000E+00 10640   0.966E+01 0.000E+00
CGA:   2    -0.128184436258E+04   -0.18610E+01   -0.18611E+01 10640   0.356E+01 0.162E-02
CGA:   3    -0.128275376367E+04   -0.90940E+00   -0.90938E+00 10640   0.101E+01-0.199E-02
CGA:   4    -0.128291079716E+04   -0.15703E+00   -0.15692E+00 10640   0.134E+00-0.277E-02
CGA:   5    -0.128293889631E+04   -0.28099E-01   -0.28074E-01 10640   0.364E-01 0.137E-02
CGA:   6    -0.128294613918E+04   -0.72429E-02   -0.72475E-02 10640   0.150E-01-0.800E-03
CGA:   7    -0.128294853149E+04   -0.23923E-02   -0.23980E-02 10640   0.367E-02 0.221E-03
CGA:   8    -0.128294935480E+04   -0.82330E-03   -0.82119E-03 10640   0.136E-02 0.735E-04
CGA:   9    -0.128294951356E+04   -0.15876E-03   -0.78053E-03 10640   0.553E-02-0.166E-02
CGA:  10    -0.128294996664E+04   -0.45309E-03   -0.52725E-03 10640   0.629E-03 0.676E-03
CGA:  11    -0.128295011144E+04   -0.14479E-03   -0.14478E-03 10640   0.245E-03 0.675E-04
CGA:  12    -0.128295024925E+04   -0.13781E-03    0.11590E-03 10640   0.162E-03-0.565E-04
CGA:  13    -0.128294974892E+04    0.50032E-03   -0.26938E-03 10640   0.416E-02-0.613E-03
CGA:  14    -0.128295030607E+04   -0.55715E-03   -0.50948E-03 10640   0.881E-03-0.195E-03
CGA:  15    -0.128295047671E+04   -0.17064E-03   -0.17757E-03 10640   0.237E-03 0.475E-04
CGA:  16    -0.128295050633E+04   -0.29616E-04   -0.42033E-04 10640   0.726E-04 0.674E-04
CGA:  17    -0.128295053636E+04   -0.30031E-04   -0.29611E-04 10640   0.580E-04-0.158E-04
CGA:  18    -0.128295053619E+04    0.16535E-06   -0.45101E-05 10640   0.276E-04 0.192E-04
  21 F= -.12829505E+04 E0= -.12829505E+04  d E =-.601544E-01  mag=    47.0000
       N       E                     dE             d eps       ncg     rms          ort
SDA:   1    -0.128219161033E+04    0.75893E+00    0.00000E+00 10640   0.217E+01 0.000E+00
CGA:   2    -0.128265079412E+04   -0.45918E+00   -0.45916E+00 10640   0.907E+00 0.324E-03
CGA:   3    -0.128287158265E+04   -0.22079E+00   -0.22073E+00 10640   0.218E+00-0.119E-02
CGA:   4    -0.128290522061E+04   -0.33638E-01   -0.33483E-01 10640   0.354E-01-0.922E-03
CGA:   5    -0.128291184577E+04   -0.66252E-02   -0.66586E-02 10640   0.115E-01 0.324E-03
CGA:   6    -0.128291375072E+04   -0.19049E-02   -0.19113E-02 10640   0.364E-02 0.657E-04
CGA:   7    -0.128291453874E+04   -0.78803E-03   -0.78099E-03 10640   0.948E-03-0.898E-04
CGA:   8    -0.128291473143E+04   -0.19269E-03   -0.19667E-03 10640   0.371E-03 0.557E-04
CGA:   9    -0.128291485852E+04   -0.12709E-03   -0.15458E-03 10640   0.743E-03-0.245E-03
CGA:  10    -0.128291491492E+04   -0.56395E-04   -0.70502E-04 10640   0.106E-03 0.754E-04
CGA:  11    -0.128291494349E+04   -0.28576E-04   -0.28903E-04 10640   0.483E-04 0.108E-04
CGA:  12    -0.128291498735E+04   -0.43851E-04    0.15001E-04 10640   0.764E-04-0.656E-05
CGA:  13    -0.128291502626E+04   -0.38917E-04    0.13865E-03 10640   0.648E-04-0.957E-05
CGA:  14    -0.128291503223E+04   -0.59671E-05   -0.84089E-05 10640   0.488E-04 0.188E-04
CGA:  15    -0.128291504914E+04   -0.16912E-04   -0.33684E-04 10640   0.224E-03-0.645E-04
CGA:  16    -0.128291510712E+04   -0.57977E-04   -0.47174E-04 10640   0.238E-03-0.149E-03
CGA:  17    -0.128291510981E+04   -0.26953E-05   -0.16311E-04 10640   0.256E-04 0.650E-04
  22 F= -.12829151E+04 E0= -.12829151E+04  d E =0.354264E-01  mag=    47.0000
       N       E                     dE             d eps       ncg     rms          ort
SDA:   1    -0.127501747014E+04    0.78976E+01    0.00000E+00 10640   0.253E+02 0.000E+00
CGA:   2    -0.127992057708E+04   -0.49031E+01   -0.49027E+01 10640   0.946E+01 0.153E-01
CGA:   3    -0.128232136804E+04   -0.24008E+01   -0.24008E+01 10640   0.266E+01 0.408E-02
CGA:   4    -0.128273061885E+04   -0.40925E+00   -0.41027E+00 10640   0.352E+00 0.168E-01
CGA:   5    -0.128280737212E+04   -0.76753E-01   -0.76633E-01 10640   0.972E-01-0.376E-02
CGA:   6    -0.128282560430E+04   -0.18232E-01   -0.18437E-01 10640   0.317E-01 0.396E-02
CGA:   7    -0.128283217063E+04   -0.65663E-02   -0.64939E-02 10640   0.106E-01-0.148E-02
CGA:   8    -0.128283399371E+04   -0.18231E-02   -0.18563E-02 10640   0.387E-02 0.584E-03
CGA:   9    -0.128283476151E+04   -0.76780E-03   -0.80505E-03 10640   0.156E-02 0.887E-03
CGA:  10    -0.128283529178E+04   -0.53027E-03   -0.52603E-03 10640   0.103E-02 0.120E-03
CGA:  11    -0.128283537575E+04   -0.83969E-04   -0.14394E-03 10640   0.445E-03 0.551E-03
CGA:  12    -0.128283544990E+04   -0.74149E-04   -0.84209E-04 10640   0.206E-03 0.226E-03
CGA:  13    -0.128283551819E+04   -0.68296E-04   -0.61290E-04 10640   0.221E-03 0.106E-03
CGA:  14    -0.128283551244E+04    0.57540E-05   -0.16224E-04 10640   0.122E-03 0.137E-03
CGA:  15    -0.128283551286E+04   -0.41909E-06   -0.13574E-04 10640   0.111E-03 0.114E-03
CGA:  16    -0.128283552043E+04   -0.75734E-05   -0.15801E-04 10640   0.101E-03 0.105E-03
CGA:  17    -0.128283552400E+04   -0.35676E-05   -0.12576E-04 10640   0.939E-04 0.973E-04
CGA:  18    -0.128283552760E+04   -0.36042E-05   -0.11647E-04 10640   0.878E-04 0.908E-04
CGA:  19    -0.128283553019E+04   -0.25930E-05   -0.10322E-04 10640   0.828E-04 0.853E-04
  23 F= -.12828355E+04 E0= -.12828354E+04  d E =0.795796E-01  mag=    47.0000
       N       E                     dE             d eps       ncg     rms          ort
SDA:   1    -0.128057396033E+04    0.22616E+01    0.00000E+00 10640   0.771E+01 0.000E+00
CGA:   2    -0.128205929776E+04   -0.14853E+01   -0.14853E+01 10640   0.284E+01 0.744E-03
CGA:   3    -0.128278480572E+04   -0.72551E+00   -0.72546E+00 10640   0.800E+00-0.113E-02
CGA:   4    -0.128291022541E+04   -0.12542E+00   -0.12530E+00 10640   0.104E+00-0.251E-02
CGA:   5    -0.128293275174E+04   -0.22526E-01   -0.22504E-01 10640   0.248E-01 0.128E-02
CGA:   6    -0.128293880600E+04   -0.60543E-02   -0.61161E-02 10640   0.863E-02-0.140E-02
CGA:   7    -0.128294006711E+04   -0.12611E-02   -0.13020E-02 10640   0.216E-02 0.976E-03
CGA:   8    -0.128294069470E+04   -0.62759E-03   -0.66808E-03 10640   0.149E-02-0.524E-03
CGA:   9    -0.128294097926E+04   -0.28455E-03   -0.31763E-03 10640   0.104E-02-0.431E-03
CGA:  10    -0.128294111677E+04   -0.13751E-03   -0.13574E-03 10640   0.480E-03-0.689E-04
CGA:  11    -0.128294075936E+04    0.35740E-03   -0.36509E-03 10640   0.348E-02-0.119E-02
CGA:  12    -0.128294128209E+04   -0.52273E-03   -0.54231E-03 10640   0.775E-03 0.248E-03
CGA:  13    -0.128294146846E+04   -0.18637E-03   -0.18440E-03 10640   0.323E-03-0.179E-03
CGA:  14    -0.128294149907E+04   -0.30610E-04   -0.34397E-04 10640   0.936E-04 0.409E-04
CGA:  15    -0.128294151401E+04   -0.14938E-04   -0.17194E-04 10640   0.572E-04 0.349E-04
CGA:  16    -0.128294153044E+04   -0.16427E-04   -0.36262E-04 10640   0.214E-03-0.835E-04
CGA:  17    -0.128294154943E+04   -0.18995E-04   -0.22759E-04 10640   0.385E-04 0.295E-04
CGA:  18    -0.128294156165E+04   -0.12215E-04   -0.13645E-04 10640   0.188E-04-0.174E-04
CGA:  19    -0.128294157175E+04   -0.10106E-04    0.10966E-05 10640   0.165E-04-0.110E-05
CGA:  20    -0.128294157702E+04   -0.52660E-05   -0.52814E-05 10640   0.125E-04-0.193E-06
CGA:  21    -0.128294158340E+04   -0.63821E-05    0.18082E-04 10640   0.955E-05 0.113E-05
  24 F= -.12829416E+04 E0= -.12829415E+04  d E =-.106053E+00  mag=    47.0000
       N       E                     dE             d eps       ncg     rms          ort
SDA:   1    -0.128220011197E+04    0.74147E+00    0.00000E+00 10640   0.231E+01 0.000E+00
CGA:   2    -0.128265771548E+04   -0.45760E+00   -0.45759E+00 10640   0.886E+00 0.591E-03
CGA:   3    -0.128288211276E+04   -0.22440E+00   -0.22441E+00 10640   0.234E+00-0.149E-02
CGA:   4    -0.128291898191E+04   -0.36869E-01   -0.36749E-01 10640   0.321E-01-0.145E-02
CGA:   5    -0.128292586737E+04   -0.68855E-02   -0.68929E-02 10640   0.760E-02 0.412E-03
CGA:   6    -0.128292771744E+04   -0.18501E-02   -0.18526E-02 10640   0.264E-02-0.330E-03
CGA:   7    -0.128292812893E+04   -0.41148E-03   -0.42459E-03 10640   0.711E-03 0.204E-03
CGA:   8    -0.128292832753E+04   -0.19860E-03   -0.20308E-03 10640   0.442E-03-0.127E-03
CGA:   9    -0.128292838747E+04   -0.59936E-04   -0.18236E-03 10640   0.114E-02-0.452E-03
CGA:  10    -0.128292849160E+04   -0.10413E-03   -0.12325E-03 10640   0.198E-03 0.141E-03
CGA:  11    -0.128292855683E+04   -0.65226E-04   -0.70149E-04 10640   0.123E-03-0.648E-04
CGA:  12    -0.128292860170E+04   -0.44872E-04    0.88450E-04 10640   0.865E-04-0.320E-04
CGA:  13    -0.128292861962E+04   -0.17922E-04   -0.22295E-04 10640   0.110E-03-0.415E-04
CGA:  14    -0.128292866331E+04   -0.43687E-04    0.13246E-04 10640   0.794E-04-0.270E-04
CGA:  15    -0.128292870912E+04   -0.45813E-04    0.13692E-04 10640   0.563E-04-0.547E-05
CGA:  16    -0.128292872228E+04   -0.13163E-04   -0.13189E-04 10640   0.511E-04-0.684E-05
CGA:  17    -0.128292874520E+04   -0.22916E-04    0.19289E-03 10640   0.276E-04-0.407E-05
CGA:  18    -0.128292876601E+04   -0.20815E-04    0.48068E-05 10640   0.197E-04-0.801E-06
CGA:  19    -0.128292876687E+04   -0.85821E-06   -0.22339E-05 10640   0.107E-04 0.104E-04
  25 F= -.12829288E+04 E0= -.12829287E+04  d E =0.128165E-01  mag=    47.0000
       N       E                     dE             d eps       ncg     rms          ort
SDA:   1    -0.128274346959E+04    0.18530E+00    0.00000E+00 10640   0.498E+00 0.000E+00
CGA:   2    -0.128286462063E+04   -0.12115E+00   -0.12115E+00 10640   0.230E+00-0.128E-03
CGA:   3    -0.128291714184E+04   -0.52521E-01   -0.52519E-01 10640   0.420E-01-0.530E-03
CGA:   4    -0.128292378279E+04   -0.66409E-02   -0.66305E-02 10640   0.881E-02-0.130E-03
CGA:   5    -0.128292541443E+04   -0.16316E-02   -0.16252E-02 10640   0.270E-02-0.140E-03
CGA:   6    -0.128292582956E+04   -0.41513E-03   -0.42641E-03 10640   0.766E-03 0.172E-03
CGA:   7    -0.128292600416E+04   -0.17460E-03   -0.17469E-03 10640   0.218E-03 0.107E-04
CGA:   8    -0.128292605663E+04   -0.52474E-04   -0.52864E-04 10640   0.130E-03-0.233E-04
CGA:   9    -0.128292606881E+04   -0.12180E-04   -0.15651E-04 10640   0.416E-04 0.390E-04
CGA:  10    -0.128292608163E+04   -0.12824E-04   -0.12833E-04 10640   0.437E-04-0.437E-06
CGA:  11    -0.128292608846E+04   -0.68237E-05   -0.16082E-04 10640   0.105E-03-0.612E-04
  26 F= -.12829261E+04 E0= -.12829261E+04  d E =0.267841E-02  mag=    47.0000
       N       E                     dE             d eps       ncg     rms          ort
SDA:   1    -0.127549403647E+04    0.74320E+01    0.00000E+00 10640   0.233E+02 0.000E+00
CGA:   2    -0.128007584494E+04   -0.45818E+01   -0.45816E+01 10640   0.894E+01 0.116E-01
CGA:   3    -0.128231613474E+04   -0.22403E+01   -0.22399E+01 10640   0.252E+01 0.470E-02
CGA:   4    -0.128269569149E+04   -0.37956E+00   -0.38029E+00 10640   0.360E+00 0.180E-01
CGA:   5    -0.128276698003E+04   -0.71289E-01   -0.71222E-01 10640   0.119E+00-0.332E-02
CGA:   6    -0.128278649726E+04   -0.19517E-01   -0.19622E-01 10640   0.372E-01 0.235E-02
CGA:   7    -0.128279396803E+04   -0.74708E-02   -0.74842E-02 10640   0.985E-02 0.879E-03
CGA:   8    -0.128279627951E+04   -0.23115E-02   -0.23282E-02 10640   0.543E-02-0.916E-03
CGA:   9    -0.128279691998E+04   -0.64047E-03   -0.72568E-03 10640   0.176E-02 0.130E-02
CGA:  10    -0.128279727645E+04   -0.35648E-03   -0.38471E-03 10640   0.964E-03 0.836E-03
CGA:  11    -0.128279757628E+04   -0.29982E-03   -0.29957E-03 10640   0.745E-03 0.153E-03
CGA:  12    -0.128279764642E+04   -0.70149E-04   -0.10907E-03 10640   0.424E-03 0.473E-03
CGA:  13    -0.128279766291E+04   -0.16482E-04   -0.43752E-04 10640   0.227E-03 0.269E-03
CGA:  14    -0.128279770814E+04   -0.45232E-04   -0.45255E-04 10640   0.147E-03 0.163E-03
CGA:  15    -0.128279771196E+04   -0.38175E-05   -0.16057E-04 10640   0.131E-03 0.135E-03
CGA:  16    -0.128279772093E+04   -0.89723E-05   -0.17037E-04 10640   0.120E-03 0.124E-03
CGA:  17    -0.128279772585E+04   -0.49236E-05   -0.13790E-04 10640   0.112E-03 0.116E-03
CGA:  18    -0.128279773059E+04   -0.47400E-05   -0.12810E-04 10640   0.106E-03 0.109E-03
CGA:  19    -0.128279773442E+04   -0.38261E-05   -0.11605E-04 10640   0.101E-03 0.104E-03
CGA:  20    -0.128279773783E+04   -0.34154E-05   -0.10756E-04 10640   0.966E-04 0.988E-04
CGA:  21    -0.128279774088E+04   -0.30474E-05   -0.10002E-04 10640   0.927E-04 0.946E-04
  27 F= -.12827977E+04 E0= -.12827977E+04  d E =0.128348E+00  mag=    47.0000
       N       E                     dE             d eps       ncg     rms          ort
SDA:   1    -0.127856226351E+04    0.42355E+01    0.00000E+00 10640   0.142E+02 0.000E+00
CGA:   2    -0.128130164850E+04   -0.27394E+01   -0.27395E+01 10640   0.524E+01 0.259E-02
CGA:   3    -0.128263830402E+04   -0.13367E+01   -0.13362E+01 10640   0.148E+01 0.161E-02
CGA:   4    -0.128286911082E+04   -0.23081E+00   -0.23078E+00 10640   0.194E+00-0.986E-03
CGA:   5    -0.128291074673E+04   -0.41636E-01   -0.41573E-01 10640   0.498E-01 0.158E-02
CGA:   6    -0.128292142047E+04   -0.10674E-01   -0.10731E-01 10640   0.202E-01-0.148E-02
CGA:   7    -0.128292446037E+04   -0.30399E-02   -0.30530E-02 10640   0.524E-02 0.629E-03
CGA:   8    -0.128292566801E+04   -0.12076E-02   -0.12123E-02 10640   0.209E-02-0.945E-04
CGA:   9    -0.128292607173E+04   -0.40372E-03   -0.10018E-02 10640   0.564E-02-0.192E-02
CGA:  10    -0.128292653793E+04   -0.46620E-03   -0.54002E-03 10640   0.711E-03 0.779E-03
CGA:  11    -0.128292672528E+04   -0.18735E-03   -0.18756E-03 10640   0.356E-03-0.422E-05
CGA:  12    -0.128292689835E+04   -0.17307E-03    0.12355E-03 10640   0.208E-03-0.584E-04
CGA:  13    -0.128292697187E+04   -0.73526E-04    0.16566E-03 10640   0.115E-03 0.384E-04
CGA:  14    -0.128292700802E+04   -0.36145E-04   -0.49970E-04 10640   0.289E-03-0.792E-04
CGA:  15    -0.128292715208E+04   -0.14406E-03    0.12058E-03 10640   0.266E-03-0.203E-03
CGA:  16    -0.128292714467E+04    0.74099E-05   -0.13346E-04 10640   0.767E-04 0.139E-03
  28 F= -.12829271E+04 E0= -.12829271E+04  d E =-.129404E+00  mag=    47.0000
       N       E                     dE             d eps       ncg     rms          ort
SDA:   1    -0.128288715740E+04    0.39995E-01    0.00000E+00 10640   0.110E+00 0.000E+00
CGA:   2    -0.128291246986E+04   -0.25312E-01   -0.25400E-01 10640   0.537E-01-0.192E-02
CGA:   3    -0.128292350657E+04   -0.11037E-01   -0.11009E-01 10640   0.128E-01 0.137E-02
CGA:   4    -0.128292570404E+04   -0.21975E-02   -0.21671E-02 10640   0.267E-02-0.126E-02
CGA:   5    -0.128292608046E+04   -0.37642E-03   -0.38250E-03 10640   0.587E-03 0.215E-03
CGA:   6    -0.128292619484E+04   -0.11438E-03   -0.11475E-03 10640   0.167E-03 0.695E-04
CGA:   7    -0.128292562021E+04    0.57463E-03   -0.31073E-03 10640   0.530E-02-0.806E-03
CGA:   8    -0.128292605660E+04   -0.43639E-03   -0.53309E-03 10640   0.766E-03 0.445E-03
CGA:   9    -0.128292625265E+04   -0.19605E-03   -0.19425E-03 10640   0.260E-03-0.190E-04
CGA:  10    -0.128292597060E+04    0.28205E-03   -0.21220E-03 10640   0.493E-02-0.959E-03
CGA:  11    -0.128292626277E+04   -0.29217E-03   -0.45966E-03 10640   0.379E-03 0.702E-03
CGA:  12    -0.128292630448E+04   -0.41705E-04   -0.64805E-04 10640   0.176E-03 0.124E-03
CGA:  13    -0.128292638169E+04   -0.77208E-04   -0.86240E-04 10640   0.294E-03-0.209E-03
CGA:  14    -0.128292637756E+04    0.41266E-05   -0.24104E-04 10640   0.627E-04 0.115E-03
  29 F= -.12829264E+04 E0= -.12829263E+04  d E =0.767112E-03  mag=    47.0000
       N       E                     dE             d eps       ncg     rms          ort
SDA:   1    -0.128109047088E+04    0.18359E+01    0.00000E+00 10640   0.517E+01 0.000E+00
CGA:   2    -0.128228063813E+04   -0.11902E+01   -0.11903E+01 10640   0.231E+01 0.120E-02
CGA:   3    -0.128281936145E+04   -0.53872E+00   -0.53872E+00 10640   0.487E+00-0.114E-02
CGA:   4    -0.128289257145E+04   -0.73210E-01   -0.73282E-01 10640   0.952E-01 0.915E-03
CGA:   5    -0.128291004286E+04   -0.17471E-01   -0.17373E-01 10640   0.297E-01-0.888E-03
CGA:   6    -0.128291508016E+04   -0.50373E-02   -0.50722E-02 10640   0.872E-02 0.364E-03
CGA:   7    -0.128291699067E+04   -0.19105E-02   -0.19015E-02 10640   0.262E-02-0.136E-03
CGA:   8    -0.128291753173E+04   -0.54106E-03   -0.53186E-03 10640   0.131E-02-0.129E-03
CGA:   9    -0.128291781365E+04   -0.28192E-03   -0.27968E-03 10640   0.590E-03-0.461E-04
CGA:  10    -0.128291800733E+04   -0.19368E-03   -0.23662E-03 10640   0.813E-03-0.294E-03
CGA:  11    -0.128291807234E+04   -0.65003E-04   -0.55782E-04 10640   0.368E-03-0.659E-04
CGA:  12    -0.128291813182E+04   -0.59488E-04   -0.58929E-04 10640   0.325E-03-0.627E-05
CGA:  13    -0.128291819910E+04   -0.67274E-04   -0.62343E-04 10640   0.202E-03-0.706E-04
CGA:  14    -0.128291822970E+04   -0.30605E-04   -0.94688E-04 10640   0.845E-03-0.192E-03
CGA:  15    -0.128291830094E+04   -0.71236E-04   -0.92454E-04 10640   0.170E-03 0.127E-03
CGA:  16    -0.128291836102E+04   -0.60079E-04   -0.60185E-04 10640   0.922E-04-0.288E-05
CGA:  17    -0.128291838293E+04   -0.21911E-04   -0.19975E-04 10640   0.836E-04-0.374E-04
CGA:  18    -0.128291838230E+04    0.62910E-06   -0.49622E-05 10640   0.670E-04 0.328E-04
  30 F= -.12829184E+04 E0= -.12829183E+04  d E =0.799526E-02  mag=    47.0000
       N       E                     dE             d eps       ncg     rms          ort
SDA:   1    -0.127747716570E+04    0.54412E+01    0.00000E+00 10640   0.171E+02 0.000E+00
CGA:   2    -0.128085218293E+04   -0.33750E+01   -0.33750E+01 10640   0.659E+01 0.768E-02
CGA:   3    -0.128247190523E+04   -0.16197E+01   -0.16198E+01 10640   0.197E+01 0.892E-02
CGA:   4    -0.128275575622E+04   -0.28385E+00   -0.28439E+00 10640   0.319E+00 0.123E-01
CGA:   5    -0.128281133454E+04   -0.55578E-01   -0.55597E-01 10640   0.103E+00 0.586E-03
CGA:   6    -0.128282993006E+04   -0.18596E-01   -0.18554E-01 10640   0.291E-01-0.629E-03
CGA:   7    -0.128283598741E+04   -0.60574E-02   -0.60781E-02 10640   0.789E-02 0.811E-03
CGA:   8    -0.128283787296E+04   -0.18855E-02   -0.18819E-02 10640   0.458E-02-0.891E-03
CGA:   9    -0.128283850601E+04   -0.63305E-03   -0.67655E-03 10640   0.157E-02 0.642E-03
CGA:  10    -0.128283891022E+04   -0.40421E-03   -0.40680E-03 10640   0.732E-03 0.517E-03
CGA:  11    -0.128283920978E+04   -0.29956E-03   -0.31360E-03 10640   0.124E-02-0.156E-03
CGA:  12    -0.128283926579E+04   -0.56009E-04   -0.10043E-03 10640   0.796E-03 0.332E-03
CGA:  13    -0.128283928413E+04   -0.18342E-04   -0.77034E-04 10640   0.434E-03 0.384E-03
CGA:  14    -0.128283931796E+04   -0.33829E-04   -0.69302E-04 10640   0.444E-03 0.309E-03
CGA:  15    -0.128283860547E+04    0.71249E-03   -0.37055E-03 10640   0.145E-01-0.175E-02
CGA:  16    -0.128283958139E+04   -0.97592E-03   -0.11754E-02 10640   0.346E-03 0.146E-02
CGA:  17    -0.128283957438E+04    0.70101E-05   -0.25913E-04 10640   0.147E-03 0.193E-03
CGA:  18    -0.128283959656E+04   -0.22183E-04   -0.26884E-04 10640   0.922E-04 0.976E-04
CGA:  19    -0.128283964140E+04   -0.44840E-04    0.15969E-03 10640   0.814E-04 0.685E-04
CGA:  20    -0.128283964444E+04   -0.30371E-05   -0.99486E-05 10640   0.683E-04 0.651E-04
CGA:  21    -0.128283978920E+04   -0.14476E-03   -0.65002E-04 10640   0.363E-03 0.307E-04
CGA:  22    -0.128283986672E+04   -0.77524E-04   -0.10752E-03 10640   0.148E-03 0.145E-03
CGA:  23    -0.128283996358E+04   -0.96859E-04   -0.95368E-04 10640   0.365E-03 0.200E-04
CGA:  24    -0.128284017474E+04   -0.21115E-03   -0.23450E-03 10640   0.509E-03-0.165E-03
CGA:  25    -0.128284018553E+04   -0.10795E-04   -0.25196E-04 10640   0.167E-03 0.385E-04
CGA:  26    -0.128284018853E+04   -0.29954E-05   -0.14285E-04 10640   0.889E-04 0.354E-04
CGA:  27    -0.128284021138E+04   -0.22853E-04   -0.22975E-04 10640   0.136E-03-0.836E-06
CGA:  28    -0.128284025850E+04   -0.47121E-04   -0.23626E-04 10640   0.638E-04-0.124E-03
CGA:  29    -0.128283978409E+04    0.47441E-03   -0.25551E-03 10640   0.382E-02-0.325E-03
CGA:  30    -0.128284020055E+04   -0.41646E-03   -0.43756E-03 10640   0.693E-03 0.548E-04
CGA:  31    -0.128284036495E+04   -0.16440E-03   -0.18592E-03 10640   0.174E-03 0.600E-04
CGA:  32    -0.128284042210E+04   -0.57148E-04   -0.32954E-04 10640   0.464E-04-0.552E-04
CGA:  33    -0.128284042209E+04    0.14999E-07   -0.45049E-05 10640   0.845E-05 0.102E-04
  31 F= -.12828404E+04 E0= -.12828404E+04  d E =0.779602E-01  mag=    47.0000
       N       E                     dE             d eps       ncg     rms          ort
SDA:   1    -0.128137428293E+04    0.14661E+01    0.00000E+00 10640   0.503E+01 0.000E+00
CGA:   2    -0.128234431892E+04   -0.97004E+00   -0.97109E+00 10640   0.183E+01 0.324E-02
CGA:   3    -0.128281284242E+04   -0.46852E+00   -0.46842E+00 10640   0.516E+00-0.164E-02
CGA:   4    -0.128289340289E+04   -0.80560E-01   -0.80205E-01 10640   0.727E-01-0.999E-03
CGA:   5    -0.128290832631E+04   -0.14923E-01   -0.14953E-01 10640   0.209E-01 0.128E-03
CGA:   6    -0.128291226205E+04   -0.39357E-02   -0.38768E-02 10640   0.805E-02-0.170E-03
CGA:   7    -0.128291363026E+04   -0.13682E-02   -0.13935E-02 10640   0.202E-02 0.100E-03
CGA:   8    -0.128291406957E+04   -0.43931E-03   -0.45081E-03 10640   0.850E-03 0.525E-04
CGA:   9    -0.128291438212E+04   -0.31255E-03   -0.27954E-03 10640   0.100E-02-0.281E-03
CGA:  10    -0.128291450267E+04   -0.12055E-03   -0.11090E-03 10640   0.388E-03-0.349E-04
CGA:  11    -0.128291459878E+04   -0.96108E-04   -0.89315E-04 10640   0.407E-03-0.379E-04
CGA:  12    -0.128291474071E+04   -0.14193E-03   -0.10062E-03 10640   0.495E-03-0.306E-03
CGA:  13    -0.128291478998E+04   -0.49271E-04   -0.66119E-04 10640   0.158E-03 0.638E-04
CGA:  14    -0.128291484168E+04   -0.51707E-04   -0.48825E-04 10640   0.875E-04-0.248E-04
CGA:  15    -0.128291485268E+04   -0.10999E-04   -0.67794E-04 10640   0.688E-03-0.106E-03
CGA:  16    -0.128291491282E+04   -0.60135E-04   -0.71913E-04 10640   0.107E-03 0.403E-04
CGA:  17    -0.128291494104E+04   -0.28225E-04   -0.29297E-04 10640   0.472E-04 0.787E-05
CGA:  18    -0.128291467577E+04    0.26527E-03   -0.79474E-04 10640   0.274E-02-0.292E-03
CGA:  19    -0.128291491506E+04   -0.23929E-03   -0.31339E-03 10640   0.251E-03 0.236E-03
CGA:  20    -0.128291498502E+04   -0.69954E-04   -0.68532E-04 10640   0.149E-03-0.752E-05
CGA:  21    -0.128291501143E+04   -0.26416E-04   -0.26681E-04 10640   0.186E-04 0.137E-05
CGA:  22    -0.128291501035E+04    0.10888E-05   -0.20994E-05 10640   0.115E-04 0.107E-04
  32 F= -.12829150E+04 E0= -.12829150E+04  d E =-.745883E-01  mag=    47.0000
       N       E                     dE             d eps       ncg     rms          ort
SDA:   1    -0.128274495978E+04    0.17005E+00    0.00000E+00 10640   0.576E+00 0.000E+00
CGA:   2    -0.128285502211E+04   -0.11006E+00   -0.11018E+00 10640   0.206E+00 0.638E-03
CGA:   3    -0.128290793434E+04   -0.52912E-01   -0.52795E-01 10640   0.629E-01-0.938E-03
CGA:   4    -0.128291763676E+04   -0.97024E-02   -0.95333E-02 10640   0.933E-02-0.679E-03
CGA:   5    -0.128291939828E+04   -0.17615E-02   -0.17621E-02 10640   0.279E-02 0.839E-05
CGA:   6    -0.128291991850E+04   -0.52022E-03   -0.51559E-03 10640   0.956E-03-0.212E-04
CGA:   7    -0.128292010137E+04   -0.18286E-03   -0.18434E-03 10640   0.273E-03 0.975E-05
CGA:   8    -0.128292014638E+04   -0.45016E-04   -0.50356E-04 10640   0.111E-03 0.316E-04
CGA:   9    -0.128292018274E+04   -0.36357E-04   -0.75890E-04 10640   0.548E-03-0.148E-03
CGA:  10    -0.128292023168E+04   -0.48945E-04   -0.58410E-04 10640   0.914E-04 0.395E-04
CGA:  11    -0.128292026614E+04   -0.34452E-04   -0.35028E-04 10640   0.866E-04-0.485E-04
CGA:  12    -0.128292028616E+04   -0.20022E-04   -0.17660E-04 10640   0.500E-04-0.165E-04
CGA:  13    -0.128292029499E+04   -0.88327E-05   -0.78465E-05 10640   0.299E-04-0.675E-05
CGA:  14    -0.128292031269E+04   -0.17700E-04    0.14295E-03 10640   0.202E-04 0.140E-04
CGA:  15    -0.128292034200E+04   -0.29307E-04    0.10007E-04 10640   0.438E-04 0.232E-05
CGA:  16    -0.128292038309E+04   -0.41093E-04    0.30042E-04 10640   0.575E-04 0.410E-05
CGA:  17    -0.128292040069E+04   -0.17602E-04   -0.17641E-04 10640   0.916E-04-0.140E-05
CGA:  18    -0.128292030983E+04    0.90861E-04   -0.84465E-04 10640   0.115E-02-0.307E-03
CGA:  19    -0.128292044343E+04   -0.13360E-03   -0.13113E-03 10640   0.187E-03-0.794E-05
CGA:  20    -0.128292046531E+04   -0.21880E-04   -0.30284E-04 10640   0.384E-04 0.457E-04
CGA:  21    -0.128292046395E+04    0.13658E-05   -0.51639E-05 10640   0.205E-04 0.284E-04
  33 F= -.12829205E+04 E0= -.12829204E+04  d E =-.545360E-02  mag=    47.0000
       N       E                     dE             d eps       ncg     rms          ort
SDA:   1    -0.128277771513E+04    0.14275E+00    0.00000E+00 10640   0.449E+00 0.000E+00
CGA:   2    -0.128286738660E+04   -0.89671E-01   -0.89771E-01 10640   0.171E+00 0.933E-03
CGA:   3    -0.128291051019E+04   -0.43124E-01   -0.43047E-01 10640   0.480E-01-0.144E-02
CGA:   4    -0.128291757907E+04   -0.70689E-02   -0.70608E-02 10640   0.780E-02-0.181E-04
CGA:   5    -0.128291911929E+04   -0.15402E-02   -0.15049E-02 10640   0.257E-02-0.331E-03
CGA:   6    -0.128291950706E+04   -0.38777E-03   -0.40209E-03 10640   0.716E-03 0.114E-03
CGA:   7    -0.128291966641E+04   -0.15935E-03   -0.15907E-03 10640   0.216E-03-0.307E-05
CGA:   8    -0.128291971633E+04   -0.49919E-04   -0.47950E-04 10640   0.131E-03-0.322E-04
CGA:   9    -0.128291974351E+04   -0.27184E-04   -0.26161E-04 10640   0.658E-04-0.221E-04
CGA:  10    -0.128291978413E+04   -0.40619E-04    0.22748E-04 10640   0.295E-04-0.497E-05
CGA:  11    -0.128291980628E+04   -0.22147E-04    0.81996E-05 10640   0.208E-04-0.961E-06
CGA:  12    -0.128291982633E+04   -0.20053E-04    0.35294E-05 10640   0.197E-04-0.419E-05
CGA:  13    -0.128291984862E+04   -0.22283E-04    0.14120E-05 10640   0.146E-04-0.133E-05
CGA:  14    -0.128291986324E+04   -0.14627E-04    0.20470E-05 10640   0.955E-05 0.281E-05
CGA:  15    -0.128291988128E+04   -0.18039E-04    0.85409E-06 10640   0.609E-05 0.426E-05
CGA:  16    -0.128291988813E+04   -0.68502E-05    0.30777E-05 10640   0.392E-05 0.376E-05
  34 F= -.12829199E+04 E0= -.12829199E+04  d E =0.575815E-03  mag=    47.0000
       N       E                     dE             d eps       ncg     rms          ort
SDA:   1    -0.128002539791E+04    0.28945E+01    0.00000E+00 10640   0.891E+01 0.000E+00
CGA:   2    -0.128182717562E+04   -0.18018E+01   -0.18018E+01 10640   0.350E+01 0.198E-02
CGA:   3    -0.128269028267E+04   -0.86311E+00   -0.86323E+00 10640   0.930E+00 0.229E-02
CGA:   4    -0.128283045628E+04   -0.14017E+00   -0.14095E+00 10640   0.141E+00 0.781E-02
CGA:   5    -0.128285869987E+04   -0.28244E-01   -0.28148E-01 10640   0.459E-01-0.150E-02
CGA:   6    -0.128286614288E+04   -0.74430E-02   -0.75158E-02 10640   0.145E-01 0.872E-03
CGA:   7    -0.128286914732E+04   -0.30044E-02   -0.30019E-02 10640   0.409E-02-0.284E-04
CGA:   8    -0.128287018342E+04   -0.10361E-02   -0.10376E-02 10640   0.291E-02-0.803E-03
CGA:   9    -0.128287047786E+04   -0.29443E-03   -0.34372E-03 10640   0.980E-03 0.475E-03
CGA:  10    -0.128287066273E+04   -0.18487E-03   -0.20694E-03 10640   0.625E-03 0.335E-03
CGA:  11    -0.128287087410E+04   -0.21137E-03   -0.21327E-03 10640   0.719E-03-0.185E-03
CGA:  12    -0.128287093575E+04   -0.61652E-04   -0.73014E-04 10640   0.526E-03 0.114E-03
CGA:  13    -0.128287097279E+04   -0.37042E-04   -0.64319E-04 10640   0.333E-03 0.205E-03
CGA:  14    -0.128287104455E+04   -0.71759E-04   -0.79744E-04 10640   0.279E-03 0.132E-03
CGA:  15    -0.128287113470E+04   -0.90153E-04   -0.14541E-03 10640   0.115E-02-0.387E-03
CGA:  16    -0.128287120640E+04   -0.71692E-04   -0.10887E-03 10640   0.246E-03 0.265E-03
CGA:  17    -0.128287124878E+04   -0.42381E-04   -0.49705E-04 10640   0.138E-03 0.112E-03
CGA:  18    -0.128287129549E+04   -0.46710E-04   -0.70313E-04 10640   0.479E-03-0.191E-03
CGA:  19    -0.128287131895E+04   -0.23460E-04   -0.40929E-04 10640   0.910E-04 0.120E-03
CGA:  20    -0.128287133311E+04   -0.14163E-04   -0.17331E-04 10640   0.758E-04 0.433E-04
CGA:  21    -0.128287071985E+04    0.61326E-03   -0.33056E-03 10640   0.432E-02-0.631E-03
CGA:  22    -0.128287120603E+04   -0.48618E-03   -0.54695E-03 10640   0.127E-02 0.240E-03
CGA:  23    -0.128287150167E+04   -0.29565E-03   -0.30213E-03 10640   0.549E-04 0.402E-04
CGA:  24    -0.128287156775E+04   -0.66075E-04    0.20581E-04 10640   0.762E-04-0.695E-05
CGA:  25    -0.128287156226E+04    0.54949E-05   -0.56617E-05 10640   0.373E-04 0.376E-04
  35 F= -.12828716E+04 E0= -.12828715E+04  d E =0.483259E-01  mag=    47.0000
       N       E                     dE             d eps       ncg     rms          ort
SDA:   1    -0.128076099727E+04    0.21106E+01    0.00000E+00 10640   0.713E+01 0.000E+00
CGA:   2    -0.128211902720E+04   -0.13580E+01   -0.13590E+01 10640   0.255E+01 0.443E-02
CGA:   3    -0.128277501844E+04   -0.65599E+00   -0.65592E+00 10640   0.734E+00-0.263E-02
CGA:   4    -0.128288986337E+04   -0.11484E+00   -0.11447E+00 10640   0.100E+00-0.254E-02
CGA:   5    -0.128291090305E+04   -0.21040E-01   -0.21101E-01 10640   0.259E-01 0.579E-03
CGA:   6    -0.128291661342E+04   -0.57104E-02   -0.56207E-02 10640   0.949E-02-0.833E-03
CGA:   7    -0.128291804022E+04   -0.14268E-02   -0.15281E-02 10640   0.217E-02 0.691E-03
CGA:   8    -0.128291869040E+04   -0.65018E-03   -0.64290E-03 10640   0.105E-02-0.209E-03
CGA:   9    -0.128291900224E+04   -0.31184E-03   -0.31572E-03 10640   0.627E-03-0.170E-03
CGA:  10    -0.128291918100E+04   -0.17875E-03   -0.21290E-03 10640   0.954E-03-0.359E-03
CGA:  11    -0.128291930745E+04   -0.12646E-03   -0.11920E-03 10640   0.224E-03-0.355E-04
CGA:  12    -0.128291938025E+04   -0.72804E-04   -0.77006E-04 10640   0.266E-03-0.813E-04
CGA:  13    -0.128291942837E+04   -0.48112E-04   -0.43239E-04 10640   0.214E-03-0.913E-04
CGA:  14    -0.128291951989E+04   -0.91528E-04    0.32765E-03 10640   0.131E-03-0.322E-04
CGA:  15    -0.128291936830E+04    0.15159E-03   -0.12562E-03 10640   0.234E-02-0.336E-03
CGA:  16    -0.128291966376E+04   -0.29546E-03   -0.28217E-03 10640   0.284E-03-0.515E-04
CGA:  17    -0.128291971447E+04   -0.50707E-04   -0.55999E-04 10640   0.715E-04 0.398E-04
CGA:  18    -0.128291971965E+04   -0.51836E-05   -0.11187E-04 10640   0.200E-04 0.314E-04
  36 F= -.12829197E+04 E0= -.12829197E+04  d E =-.481574E-01  mag=    47.0000
       N       E                     dE             d eps       ncg     rms          ort
SDA:   1    -0.128287344654E+04    0.46268E-01    0.00000E+00 10640   0.165E+00 0.000E+00
CGA:   2    -0.128290459257E+04   -0.31146E-01   -0.31135E-01 10640   0.587E-01-0.558E-05
CGA:   3    -0.128291968662E+04   -0.15094E-01   -0.15105E-01 10640   0.171E-01 0.203E-03
CGA:   4    -0.128292212523E+04   -0.24386E-02   -0.25499E-02 10640   0.213E-02 0.737E-03
CGA:   5    -0.128292267274E+04   -0.54752E-03   -0.53494E-03 10640   0.765E-03-0.233E-03
CGA:   6    -0.128292274417E+04   -0.71424E-04   -0.96464E-04 10640   0.203E-03 0.168E-03
CGA:   7    -0.128292279505E+04   -0.50881E-04   -0.50715E-04 10640   0.685E-04-0.205E-05
CGA:   8    -0.128292283509E+04   -0.40045E-04    0.17092E-03 10640   0.673E-04-0.273E-04
CGA:   9    -0.128292283097E+04    0.41261E-05   -0.20306E-05 10640   0.474E-04 0.268E-04
  37 F= -.12829228E+04 E0= -.12829228E+04  d E =-.311131E-02  mag=    47.0000
       N       E                     dE             d eps       ncg     rms          ort
SDA:   1    -0.128269842715E+04    0.22441E+00    0.00000E+00 10640   0.700E+00 0.000E+00
CGA:   2    -0.128283830477E+04   -0.13988E+00   -0.13984E+00 10640   0.273E+00-0.341E-03
CGA:   3    -0.128290629865E+04   -0.67994E-01   -0.67996E-01 10640   0.723E-01 0.416E-03
CGA:   4    -0.128291714189E+04   -0.10843E-01   -0.10962E-01 10640   0.101E-01 0.121E-02
CGA:   5    -0.128291941602E+04   -0.22741E-02   -0.22611E-02 10640   0.318E-02-0.440E-03
CGA:   6    -0.128291989512E+04   -0.47911E-03   -0.50477E-03 10640   0.912E-03 0.321E-03
CGA:   7    -0.128292012552E+04   -0.23040E-03   -0.22925E-03 10640   0.331E-03-0.773E-04
CGA:   8    -0.128292019173E+04   -0.66205E-04   -0.65618E-04 10640   0.191E-03-0.225E-04
CGA:   9    -0.128292020617E+04   -0.14444E-04   -0.22403E-04 10640   0.687E-04 0.695E-04
CGA:  10    -0.128292021409E+04   -0.79235E-05   -0.12367E-04 10640   0.444E-04 0.430E-04
CGA:  11    -0.128292022588E+04   -0.11785E-04   -0.16903E-04 10640   0.186E-03-0.337E-04
CGA:  12    -0.128292023110E+04   -0.52186E-05   -0.12728E-04 10640   0.195E-04 0.448E-04
  38 F= -.12829202E+04 E0= -.12829202E+04  d E =0.259987E-02  mag=    47.0000
       N       E                     dE             d eps       ncg     rms          ort
SDA:   1    -0.127931972373E+04    0.36005E+01    0.00000E+00 10640   0.116E+02 0.000E+00
CGA:   2    -0.128152986996E+04   -0.22101E+01   -0.22103E+01 10640   0.416E+01 0.865E-02
CGA:   3    -0.128261081230E+04   -0.10809E+01   -0.10811E+01 10640   0.119E+01-0.595E-02
CGA:   4    -0.128279656914E+04   -0.18576E+00   -0.18564E+00 10640   0.159E+00-0.178E-02
CGA:   5    -0.128283066050E+04   -0.34091E-01   -0.34091E-01 10640   0.407E-01-0.112E-03
CGA:   6    -0.128283945168E+04   -0.87912E-02   -0.87905E-02 10640   0.148E-01-0.390E-03
CGA:   7    -0.128284193920E+04   -0.24875E-02   -0.25024E-02 10640   0.410E-02 0.337E-03
CGA:   8    -0.128284288964E+04   -0.95044E-03   -0.95283E-03 10640   0.193E-02-0.192E-03
CGA:   9    -0.128284339055E+04   -0.50091E-03   -0.54282E-03 10640   0.192E-02-0.522E-03
CGA:  10    -0.128284366471E+04   -0.27416E-03   -0.26638E-03 10640   0.788E-03-0.263E-03
CGA:  11    -0.128284320271E+04    0.46199E-03   -0.63544E-03 10640   0.532E-02-0.153E-02
CGA:  12    -0.128284412918E+04   -0.92647E-03   -0.92512E-03 10640   0.107E-02-0.103E-04
CGA:  13    -0.128284431491E+04   -0.18573E-03   -0.19183E-03 10640   0.337E-03 0.884E-04
CGA:  14    -0.128284441824E+04   -0.10333E-03   -0.10407E-03 10640   0.302E-03-0.191E-04
CGA:  15    -0.128284448771E+04   -0.69471E-04   -0.69516E-04 10640   0.158E-03 0.105E-04
CGA:  16    -0.128284452875E+04   -0.41040E-04   -0.41010E-04 10640   0.100E-03 0.167E-04
CGA:  17    -0.128284456243E+04   -0.33678E-04   -0.46099E-04 10640   0.205E-03-0.745E-04
CGA:  18    -0.128284458545E+04   -0.23018E-04   -0.26297E-04 10640   0.496E-04 0.260E-04
CGA:  19    -0.128284459751E+04   -0.12061E-04   -0.12564E-04 10640   0.295E-04 0.195E-04
CGA:  20    -0.128284461639E+04   -0.18881E-04   -0.22225E-04 10640   0.114E-03-0.118E-04
CGA:  21    -0.128284462265E+04   -0.62596E-05   -0.73778E-05 10640   0.134E-03 0.625E-05
CGA:  22    -0.128284463257E+04   -0.99261E-05   -0.13822E-04 10640   0.818E-04 0.234E-04
CGA:  23    -0.128284464149E+04   -0.89200E-05   -0.11731E-04 10640   0.807E-04 0.214E-04
CGA:  24    -0.128284465951E+04   -0.18018E-04   -0.18183E-04 10640   0.949E-04 0.835E-06
CGA:  25    -0.128284468145E+04   -0.21936E-04   -0.20847E-04 10640   0.134E-03-0.551E-04
CGA:  26    -0.128284470293E+04   -0.21487E-04   -0.22612E-04 10640   0.582E-04 0.166E-04
CGA:  27    -0.128284471792E+04   -0.14981E-04   -0.15032E-04 10640   0.133E-04 0.113E-04
CGA:  28    -0.128284472691E+04   -0.89967E-05   -0.11333E-04 10640   0.417E-04-0.497E-05
  39 F= -.12828447E+04 E0= -.12828447E+04  d E =0.755042E-01  mag=    47.0000
       N       E                     dE             d eps       ncg     rms          ort
SDA:   1    -0.127914347036E+04    0.37012E+01    0.00000E+00 10640   0.125E+02 0.000E+00
CGA:   2    -0.128151232946E+04   -0.23689E+01   -0.23686E+01 10640   0.447E+01 0.258E-02
[...]
CGA:   5    -0.128290453463E+04   -0.37151E-01   -0.37107E-01 10640   0.435E-01-0.205E-02
CGA:   6    -0.128291336823E+04   -0.88336E-02   -0.89130E-02 10640   0.127E-01 0.242E-02
CGA:   7    -0.128291645360E+04   -0.30854E-02   -0.30665E-02 10640   0.530E-02-0.184E-02
CGA:   8    -0.128291704760E+04   -0.59400E-03   -0.67853E-03 10640   0.154E-02 0.963E-03
CGA:   9    -0.128291735890E+04   -0.31130E-03   -0.33844E-03 10640   0.779E-03 0.560E-03
CGA:  10    -0.128291763280E+04   -0.27390E-03   -0.27927E-03 10640   0.814E-03-0.172E-03
CGA:  11    -0.128291764778E+04   -0.14985E-04   -0.59247E-04 10640   0.538E-03 0.317E-03
CGA:  12    -0.128291764270E+04    0.50826E-05   -0.52166E-04 10640   0.254E-03 0.367E-03
CGA:  13    -0.128291770188E+04   -0.59177E-04   -0.58093E-04 10640   0.844E-04 0.109E-03
CGA:  14    -0.128291771515E+04   -0.13269E-04   -0.18596E-04 10640   0.584E-04 0.819E-04
CGA:  15    -0.128291771546E+04   -0.31535E-06   -0.62782E-05 10640   0.525E-04 0.550E-04
  40 F= -.12829177E+04 E0= -.12829177E+04  d E =-.729886E-01  mag=    47.0000
       N       E                     dE             d eps       ncg     rms          ort
SDA:   1    -0.128281562543E+04    0.10209E+00    0.00000E+00 10640   0.360E+00 0.000E+00
CGA:   2    -0.128288435300E+04   -0.68728E-01   -0.68727E-01 10640   0.130E+00 0.113E-03
CGA:   3    -0.128291807326E+04   -0.33720E-01   -0.33768E-01 10640   0.380E-01-0.937E-03
CGA:   4    -0.128292416239E+04   -0.60891E-02   -0.60205E-02 10640   0.554E-02-0.143E-02
CGA:   5    -0.128292515236E+04   -0.98997E-03   -0.99660E-03 10640   0.132E-02 0.370E-03
CGA:   6    -0.128292548964E+04   -0.33728E-03   -0.35083E-03 10640   0.856E-03-0.295E-03
CGA:   7    -0.128292555462E+04   -0.64983E-04   -0.76380E-04 10640   0.220E-03 0.126E-03
CGA:   8    -0.128292557104E+04   -0.16412E-04   -0.25021E-04 10640   0.100E-03 0.840E-04
CGA:   9    -0.128292559913E+04   -0.28092E-04   -0.28240E-04 10640   0.723E-04-0.201E-04
CGA:  10    -0.128292563981E+04   -0.40684E-04    0.72554E-05 10640   0.685E-04-0.122E-04
CGA:  11    -0.128292566414E+04   -0.24322E-04    0.67285E-04 10640   0.556E-04-0.118E-04
CGA:  12    -0.128292566789E+04   -0.37567E-05   -0.50586E-05 10640   0.383E-04 0.148E-04
CGA:  13    -0.128292567797E+04   -0.10076E-04   -0.10146E-04 10640   0.397E-04-0.440E-05
CGA:  14    -0.128292571112E+04   -0.33156E-04    0.23656E-05 10640   0.378E-04-0.137E-04
CGA:  15    -0.128292574010E+04   -0.28972E-04    0.11757E-05 10640   0.515E-04-0.438E-05
CGA:  16    -0.128292550175E+04    0.23834E-03   -0.12846E-03 10640   0.138E-02-0.287E-03
CGA:  17    -0.128292578219E+04   -0.28044E-03   -0.23904E-03 10640   0.626E-03-0.228E-03
CGA:  18    -0.128292583331E+04   -0.51117E-04   -0.73462E-04 10640   0.111E-03 0.112E-03
CGA:  19    -0.128292582940E+04    0.39127E-05   -0.10835E-04 10640   0.424E-04 0.590E-04
  41 F= -.12829258E+04 E0= -.12829258E+04  d E =-.811393E-02  mag=    47.0000
       N       E                     dE             d eps       ncg     rms          ort
SDA:   1    -0.128273501483E+04    0.19082E+00    0.00000E+00 10640   0.603E+00 0.000E+00
CGA:   2    -0.128285440230E+04   -0.11939E+00   -0.11941E+00 10640   0.230E+00 0.350E-03
CGA:   3    -0.128291255189E+04   -0.58150E-01   -0.58082E-01 10640   0.634E-01-0.127E-02
CGA:   4    -0.128292257222E+04   -0.10020E-01   -0.98512E-02 10640   0.971E-02-0.115E-02
CGA:   5    -0.128292441746E+04   -0.18452E-02   -0.18586E-02 10640   0.265E-02 0.141E-03
CGA:   6    -0.128292497880E+04   -0.56134E-03   -0.54082E-03 10640   0.113E-02-0.222E-03
CGA:   7    -0.128292513797E+04   -0.15917E-03   -0.16682E-03 10640   0.256E-03 0.618E-04
CGA:   8    -0.128292520416E+04   -0.66189E-04   -0.65341E-04 10640   0.143E-03-0.210E-04
CGA:   9    -0.128292528599E+04   -0.81831E-04    0.16473E-03 10640   0.139E-03-0.495E-04
CGA:  10    -0.128292533698E+04   -0.50994E-04    0.10651E-01 10640   0.852E-04-0.497E-04
CGA:  11    -0.128292539044E+04   -0.53455E-04    0.10303E-04 10640   0.421E-04-0.524E-05
CGA:  12    -0.128292544215E+04   -0.51712E-04    0.41356E-05 10640   0.313E-04 0.150E-05
CGA:  13    -0.128292546078E+04   -0.18631E-04    0.16671E-03 10640   0.255E-04-0.126E-06
CGA:  14    -0.128292548972E+04   -0.28940E-04    0.34075E-05 10640   0.186E-04-0.291E-06
CGA:  15    -0.128292551474E+04   -0.25021E-04    0.17938E-05 10640   0.125E-04 0.153E-05
CGA:  16    -0.128292551490E+04   -0.16371E-06   -0.15123E-05 10640   0.666E-05 0.801E-05
  42 F= -.12829255E+04 E0= -.12829255E+04  d E =0.314493E-03  mag=    47.0000
       N       E                     dE             d eps       ncg     rms          ort
SDA:   1    -0.127886539724E+04    0.40601E+01    0.00000E+00 10640   0.131E+02 0.000E+00
CGA:   2    -0.128135370265E+04   -0.24883E+01   -0.24883E+01 10640   0.470E+01 0.865E-02
CGA:   3    -0.128256337532E+04   -0.12097E+01   -0.12097E+01 10640   0.138E+01 0.359E-02
CGA:   4    -0.128277281998E+04   -0.20944E+00   -0.21039E+00 10640   0.188E+00 0.130E-01
CGA:   5    -0.128281227094E+04   -0.39451E-01   -0.39324E-01 10640   0.577E-01-0.293E-02
CGA:   6    -0.128282192943E+04   -0.96585E-02   -0.98230E-02 10640   0.194E-01 0.235E-02
CGA:   7    -0.128282577465E+04   -0.38452E-02   -0.38444E-02 10640   0.560E-02 0.880E-05
CGA:   8    -0.128282697294E+04   -0.11983E-02   -0.11867E-02 10640   0.285E-02-0.363E-03
CGA:   9    -0.128282727364E+04   -0.30070E-03   -0.38376E-03 10640   0.927E-03 0.860E-03
CGA:  10    -0.128282743129E+04   -0.15765E-03   -0.19689E-03 10640   0.557E-03 0.536E-03
CGA:  11    -0.128282758086E+04   -0.14957E-03   -0.16041E-03 10640   0.122E-02-0.195E-03
CGA:  12    -0.128282762302E+04   -0.42161E-04   -0.90706E-04 10640   0.967E-03 0.403E-03
CGA:  13    -0.128282762116E+04    0.18564E-05   -0.82027E-04 10640   0.248E-03 0.511E-03
CGA:  14    -0.128282761461E+04    0.65467E-05   -0.19334E-04 10640   0.149E-03 0.181E-03
CGA:  15    -0.128282761684E+04   -0.22265E-05   -0.15768E-04 10640   0.111E-03 0.125E-03
CGA:  16    -0.128282762031E+04   -0.34717E-05   -0.12810E-04 10640   0.932E-04 0.100E-03
  43 F= -.12828276E+04 E0= -.12828276E+04  d E =0.978946E-01  mag=    47.0000
       N       E                     dE             d eps       ncg     rms          ort
SDA:   1    -0.127501539939E+04    0.78122E+01    0.00000E+00 10640   0.261E+02 0.000E+00
CGA:   2    -0.127994804139E+04   -0.49326E+01   -0.49327E+01 10640   0.933E+01 0.982E-02
CGA:   3    -0.128235121073E+04   -0.24032E+01   -0.24025E+01 10640   0.273E+01 0.417E-02
CGA:   4    -0.128277242421E+04   -0.42121E+00   -0.42119E+00 10640   0.371E+00-0.841E-03
CGA:   5    -0.128284802774E+04   -0.75604E-01   -0.75591E-01 10640   0.105E+00 0.268E-02
CGA:   6    -0.128286844787E+04   -0.20420E-01   -0.20407E-01 10640   0.396E-01-0.173E-02
CGA:   7    -0.128287531098E+04   -0.68631E-02   -0.68733E-02 10640   0.990E-02 0.509E-03
CGA:   8    -0.128287746804E+04   -0.21571E-02   -0.21609E-02 10640   0.458E-02-0.206E-03
CGA:   9    -0.128287859796E+04   -0.11299E-02   -0.12440E-02 10640   0.430E-02-0.144E-02
CGA:  10    -0.128287914001E+04   -0.54205E-03   -0.53726E-03 10640   0.138E-02-0.226E-03
CGA:  11    -0.128287952025E+04   -0.38023E-03   -0.41648E-03 10640   0.131E-02-0.309E-03
CGA:  12    -0.128287963092E+04   -0.11067E-03   -0.35047E-03 10640   0.382E-02-0.174E-02
CGA:  13    -0.128287995962E+04   -0.32870E-03   -0.37240E-03 10640   0.561E-03 0.392E-03
CGA:  14    -0.128288012778E+04   -0.16816E-03   -0.16701E-03 10640   0.242E-03 0.187E-04
CGA:  15    -0.128288024685E+04   -0.11907E-03    0.21090E-03 10640   0.245E-03-0.740E-04
CGA:  16    -0.128288031948E+04   -0.72630E-04    0.17088E-02 10640   0.162E-03 0.490E-04
CGA:  17    -0.128288032653E+04   -0.70457E-05   -0.17344E-04 10640   0.641E-04 0.843E-04
CGA:  18    -0.128288034928E+04   -0.22751E-04   -0.21406E-04 10640   0.524E-04 0.105E-04
CGA:  19    -0.128288038418E+04   -0.34907E-04    0.18346E-04 10640   0.412E-04-0.597E-06
CGA:  20    -0.128288041655E+04   -0.32366E-04    0.49130E-05 10640   0.262E-04 0.264E-04
CGA:  21    -0.128288041618E+04    0.37377E-06   -0.22660E-05 10640   0.187E-04 0.210E-04
  44 F= -.12828804E+04 E0= -.12828804E+04  d E =-.527959E-01  mag=    47.0000
       N       E                     dE             d eps       ncg     rms          ort
SDA:   1    -0.128183235671E+04    0.10481E+01    0.00000E+00 10640   0.362E+01 0.000E+00
CGA:   2    -0.128252134669E+04   -0.68899E+00   -0.68905E+00 10640   0.131E+01 0.298E-02
CGA:   3    -0.128285719956E+04   -0.33585E+00   -0.33597E+00 10640   0.375E+00 0.162E-03
CGA:   4    -0.128291451158E+04   -0.57312E-01   -0.57841E-01 10640   0.492E-01 0.311E-02
CGA:   5    -0.128292559564E+04   -0.11084E-01   -0.10957E-01 10640   0.131E-01-0.985E-03
CGA:   6    -0.128292801743E+04   -0.24218E-02   -0.25332E-02 10640   0.405E-02 0.782E-03
CGA:   7    -0.128292893712E+04   -0.91970E-03   -0.87303E-03 10640   0.159E-02-0.348E-03
CGA:   8    -0.128292914765E+04   -0.21052E-03   -0.23326E-03 10640   0.508E-03 0.137E-03
CGA:   9    -0.128292920886E+04   -0.61211E-04   -0.92280E-04 10640   0.192E-03 0.203E-03
CGA:  10    -0.128292927983E+04   -0.70975E-04   -0.71247E-04 10640   0.172E-03 0.595E-05
CGA:  11    -0.128292928437E+04   -0.45416E-05   -0.19107E-04 10640   0.812E-04 0.720E-04
  45 F= -.12829293E+04 E0= -.12829292E+04  d E =-.488682E-01  mag=    47.0000
       N       E                     dE             d eps       ncg     rms          ort
SDA:   1    -0.128291214959E+04    0.17130E-01    0.00000E+00 10640   0.585E-01 0.000E+00
CGA:   2    -0.128292341177E+04   -0.11262E-01   -0.11287E-01 10640   0.226E-01 0.284E-03
CGA:   3    -0.128292869213E+04   -0.52804E-02   -0.52849E-02 10640   0.843E-02 0.837E-04
CGA:   4    -0.128292983475E+04   -0.11426E-02   -0.11487E-02 10640   0.130E-02 0.513E-04
CGA:   5    -0.128293005052E+04   -0.21577E-03   -0.21837E-03 10640   0.339E-03 0.256E-04
CGA:   6    -0.128293012852E+04   -0.78001E-04   -0.77133E-04 10640   0.115E-03-0.185E-04
CGA:   7    -0.128293013470E+04   -0.61776E-05   -0.12977E-04 10640   0.359E-04 0.462E-04
  46 F= -.12829301E+04 E0= -.12829301E+04  d E =-.850324E-03  mag=    47.0000
       N       E                     dE             d eps       ncg     rms          ort
SDA:   1    -0.128255477731E+04    0.37535E+00    0.00000E+00 10640   0.118E+01 0.000E+00
CGA:   2    -0.128279276654E+04   -0.23799E+00   -0.23808E+00 10640   0.444E+00 0.182E-02
CGA:   3    -0.128290517377E+04   -0.11241E+00   -0.11241E+00 10640   0.116E+00-0.711E-03
CGA:   4    -0.128292314412E+04   -0.17970E-01   -0.17898E-01 10640   0.206E-01-0.707E-03
CGA:   5    -0.128292683883E+04   -0.36947E-02   -0.36816E-02 10640   0.648E-02-0.190E-03
CGA:   6    -0.128292795003E+04   -0.11112E-02   -0.11103E-02 10640   0.213E-02-0.384E-05
CGA:   7    -0.128292836322E+04   -0.41319E-03   -0.41716E-03 10640   0.532E-03 0.970E-04
CGA:   8    -0.128292846480E+04   -0.10158E-03   -0.10566E-03 10640   0.207E-03 0.895E-04
CGA:   9    -0.128292853897E+04   -0.74167E-04   -0.75802E-04 10640   0.170E-03-0.203E-04
CGA:  10    -0.128292856407E+04   -0.25101E-04   -0.27510E-04 10640   0.791E-04 0.414E-04
CGA:  11    -0.128292859242E+04   -0.28350E-04   -0.27631E-04 10640   0.598E-04 0.152E-04
CGA:  12    -0.128292861484E+04   -0.22420E-04   -0.24897E-04 10640   0.127E-03-0.225E-04
CGA:  13    -0.128292861779E+04   -0.29475E-05   -0.75327E-05 10640   0.114E-03 0.303E-04
CGA:  14    -0.128292861999E+04   -0.22044E-05   -0.11166E-04 10640   0.624E-04 0.568E-04
  47 F= -.12829286E+04 E0= -.12829286E+04  d E =0.151471E-02  mag=    47.0000
       N       E                     dE             d eps       ncg     rms          ort
SDA:   1    -0.127947613049E+04    0.34525E+01    0.00000E+00 10640   0.119E+02 0.000E+00
CGA:   2    -0.128162234370E+04   -0.21462E+01   -0.21462E+01 10640   0.393E+01 0.979E-02
CGA:   3    -0.128262767869E+04   -0.10053E+01   -0.10044E+01 10640   0.132E+01 0.153E-01
CGA:   4    -0.128282767831E+04   -0.20000E+00   -0.19997E+00 10640   0.195E+00 0.929E-02
CGA:   5    -0.128286313118E+04   -0.35453E-01   -0.35495E-01 10640   0.631E-01 0.127E-02
CGA:   6    -0.128287423111E+04   -0.11100E-01   -0.11077E-01 10640   0.220E-01-0.501E-03
CGA:   7    -0.128287844257E+04   -0.42115E-02   -0.42187E-02 10640   0.548E-02 0.414E-03
CGA:   8    -0.128287981113E+04   -0.13686E-02   -0.13988E-02 10640   0.300E-02-0.783E-03
CGA:   9    -0.128288026762E+04   -0.45649E-03   -0.46807E-03 10640   0.113E-02 0.367E-03
CGA:  10    -0.128288060275E+04   -0.33513E-03   -0.32579E-03 10640   0.597E-03 0.214E-03
CGA:  11    -0.128288081639E+04   -0.21364E-03   -0.21501E-03 10640   0.619E-03-0.157E-04
CGA:  12    -0.128288092904E+04   -0.11265E-03   -0.11726E-03 10640   0.320E-03 0.186E-03
CGA:  13    -0.128288104193E+04   -0.11289E-03   -0.10889E-03 10640   0.383E-03 0.902E-04
CGA:  14    -0.128288120481E+04   -0.16288E-03   -0.19192E-03 10640   0.650E-03-0.175E-03
CGA:  15    -0.128288125684E+04   -0.52034E-04   -0.54860E-04 10640   0.676E-03 0.330E-04
CGA:  16    -0.128288134805E+04   -0.91210E-04   -0.10404E-03 10640   0.491E-03 0.157E-03
CGA:  17    -0.128288146777E+04   -0.11972E-03   -0.12149E-03 10640   0.310E-03 0.799E-04
CGA:  18    -0.128288155595E+04   -0.88182E-04   -0.98805E-04 10640   0.438E-03-0.200E-03
CGA:  19    -0.128288160904E+04   -0.53084E-04   -0.58530E-04 10640   0.124E-03 0.624E-04
CGA:  20    -0.128288167984E+04   -0.70800E-04    0.10877E-03 10640   0.567E-04 0.575E-04
CGA:  21    -0.128288173907E+04   -0.59236E-04    0.14183E-04 10640   0.525E-04 0.209E-04
CGA:  22    -0.128288178923E+04   -0.50157E-04    0.13067E-04 10640   0.338E-04 0.371E-04
CGA:  23    -0.128288179862E+04   -0.93906E-05   -0.94167E-05 10640   0.326E-04-0.437E-06
  48 F= -.12828818E+04 E0= -.12828818E+04  d E =0.468214E-01  mag=    47.0000
       N       E                     dE             d eps       ncg     rms          ort
SDA:   1    -0.127983776588E+04    0.30440E+01    0.00000E+00 10640   0.104E+02 0.000E+00
CGA:   2    -0.128179343473E+04   -0.19557E+01   -0.19558E+01 10640   0.357E+01 0.661E-02
CGA:   3    -0.128271587873E+04   -0.92244E+00   -0.92222E+00 10640   0.106E+01 0.256E-02
CGA:   4    -0.128287617687E+04   -0.16030E+00   -0.16037E+00 10640   0.168E+00 0.825E-03
CGA:   5    -0.128290718563E+04   -0.31009E-01   -0.31022E-01 10640   0.536E-01 0.745E-03
CGA:   6    -0.128291666141E+04   -0.94758E-02   -0.94549E-02 10640   0.179E-01-0.526E-03
CGA:   7    -0.128291997889E+04   -0.33175E-02   -0.33312E-02 10640   0.451E-02 0.547E-03
CGA:   8    -0.128292098978E+04   -0.10109E-02   -0.10115E-02 10640   0.213E-02-0.138E-03
CGA:   9    -0.128292150111E+04   -0.51133E-03   -0.52296E-03 10640   0.139E-02-0.286E-03
CGA:  10    -0.128292177866E+04   -0.27755E-03   -0.27744E-03 10640   0.580E-03 0.880E-05
CGA:  11    -0.128292198043E+04   -0.20177E-03   -0.23453E-03 10640   0.690E-03-0.177E-03
CGA:  12    -0.128292206944E+04   -0.89006E-04   -0.86354E-04 10640   0.405E-03-0.588E-04
CGA:  13    -0.128292219060E+04   -0.12116E-03   -0.12122E-03 10640   0.317E-03-0.250E-05
CGA:  14    -0.128292228157E+04   -0.90974E-04   -0.11444E-03 10640   0.800E-03-0.175E-03
CGA:  15    -0.128292234323E+04   -0.61656E-04   -0.76192E-04 10640   0.140E-03 0.106E-03
CGA:  16    -0.128292236335E+04   -0.20121E-04   -0.25652E-04 10640   0.897E-04 0.831E-04
CGA:  17    -0.128292238933E+04   -0.25979E-04   -0.31317E-04 10640   0.287E-03-0.429E-04
CGA:  18    -0.128292240230E+04   -0.12973E-04   -0.18758E-04 10640   0.339E-03 0.540E-04
CGA:  19    -0.128292241420E+04   -0.11898E-04   -0.30175E-04 10640   0.714E-04 0.121E-03
CGA:  20    -0.128292241128E+04    0.29154E-05   -0.56776E-05 10640   0.403E-04 0.539E-04
  49 F= -.12829224E+04 E0= -.12829224E+04  d E =-.406127E-01  mag=    47.0000
       N       E                     dE             d eps       ncg     rms          ort
SDA:   1    -0.128281030229E+04    0.11211E+00    0.00000E+00 10640   0.404E+00 0.000E+00
CGA:   2    -0.128288676519E+04   -0.76463E-01   -0.76482E-01 10640   0.140E+00 0.122E-02
CGA:   3    -0.128292295661E+04   -0.36191E-01   -0.36223E-01 10640   0.424E-01-0.700E-03
CGA:   4    -0.128292929612E+04   -0.63395E-02   -0.63543E-02 10640   0.651E-02 0.276E-03
CGA:   5    -0.128293060510E+04   -0.13090E-02   -0.13063E-02 10640   0.257E-02-0.443E-03
CGA:   6    -0.128293098892E+04   -0.38383E-03   -0.38005E-03 10640   0.744E-03-0.775E-04
CGA:   7    -0.128293112834E+04   -0.13942E-03   -0.13974E-03 10640   0.154E-03 0.359E-04
CGA:   8    -0.128293116303E+04   -0.34683E-04   -0.34396E-04 10640   0.486E-04 0.268E-04
CGA:   9    -0.128293117264E+04   -0.96193E-05   -0.10237E-04 10640   0.213E-04 0.263E-04
  50 F= -.12829312E+04 E0= -.12829311E+04  d E =-.876136E-02  mag=    47.0000
       N       E                     dE             d eps       ncg     rms          ort
SDA:   1    -0.128256209170E+04    0.36907E+00    0.00000E+00 10640   0.119E+01 0.000E+00
CGA:   2    -0.128279659832E+04   -0.23451E+00   -0.23452E+00 10640   0.433E+00 0.290E-02
CGA:   3    -0.128290733759E+04   -0.11074E+00   -0.11077E+00 10640   0.113E+00-0.743E-03
CGA:   4    -0.128292517728E+04   -0.17840E-01   -0.17849E-01 10640   0.173E-01 0.220E-03
CGA:   5    -0.128292904970E+04   -0.38724E-02   -0.38930E-02 10640   0.482E-02-0.906E-03
CGA:   6    -0.128292995405E+04   -0.90436E-03   -0.90446E-03 10640   0.168E-02 0.262E-04
CGA:   7    -0.128293022996E+04   -0.27591E-03   -0.27742E-03 10640   0.490E-03 0.414E-04
CGA:   8    -0.128293032401E+04   -0.94049E-04   -0.94816E-04 10640   0.168E-03 0.642E-04
CGA:   9    -0.128293036958E+04   -0.45569E-04   -0.44288E-04 10640   0.847E-04 0.387E-04
CGA:  10    -0.128293027772E+04    0.91857E-04   -0.10422E-03 10640   0.124E-02-0.246E-03
CGA:  11    -0.128293042028E+04   -0.14255E-03   -0.14522E-03 10640   0.195E-03 0.246E-04
CGA:  12    -0.128293044927E+04   -0.28992E-04   -0.33257E-04 10640   0.461E-04 0.624E-04
CGA:  13    -0.128293046274E+04   -0.13472E-04   -0.13587E-04 10640   0.365E-04 0.132E-04
CGA:  14    -0.128293046983E+04   -0.70885E-05   -0.80139E-05 10640   0.145E-04 0.152E-04
  51 F= -.12829305E+04 E0= -.12829304E+04  d E =0.702815E-03  mag=    47.0000
       N       E                     dE             d eps       ncg     rms          ort
SDA:   1    -0.127854803248E+04    0.43824E+01    0.00000E+00 10640   0.144E+02 0.000E+00
CGA:   2    -0.128127614055E+04   -0.27281E+01   -0.27280E+01 10640   0.497E+01-0.546E-02
CGA:   3    -0.128255189052E+04   -0.12757E+01   -0.12752E+01 10640   0.144E+01 0.137E-01
CGA:   4    -0.128277839577E+04   -0.22651E+00   -0.22698E+00 10640   0.200E+00 0.652E-02
CGA:   5    -0.128282172924E+04   -0.43333E-01   -0.43346E-01 10640   0.487E-01 0.292E-02
CGA:   6    -0.128283254662E+04   -0.10817E-01   -0.10819E-01 10640   0.155E-01 0.133E-02
CGA:   7    -0.128283564165E+04   -0.30950E-02   -0.30637E-02 10640   0.669E-02-0.110E-02
CGA:   8    -0.128283676188E+04   -0.11202E-02   -0.11105E-02 10640   0.233E-02-0.229E-03
CGA:   9    -0.128283730037E+04   -0.53849E-03   -0.53313E-03 10640   0.867E-03 0.263E-03
CGA:  10    -0.128283750666E+04   -0.20629E-03   -0.20706E-03 10640   0.397E-03 0.238E-03
CGA:  11    -0.128283755766E+04   -0.50998E-04   -0.72830E-04 10640   0.181E-03 0.296E-03
CGA:  12    -0.128283762576E+04   -0.68098E-04   -0.59838E-04 10640   0.143E-03 0.705E-04
CGA:  13    -0.128283768119E+04   -0.55431E-04   -0.52049E-04 10640   0.134E-03 0.800E-04
CGA:  14    -0.128283768946E+04   -0.82709E-05   -0.14734E-04 10640   0.690E-04 0.579E-04
CGA:  15    -0.128283769849E+04   -0.90303E-05   -0.14403E-04 10640   0.766E-04 0.758E-04
CGA:  16    -0.128283771755E+04   -0.19065E-04   -0.18755E-04 10640   0.121E-03 0.965E-05
CGA:  17    -0.128283775736E+04   -0.39810E-04   -0.35025E-04 10640   0.774E-04 0.114E-03
CGA:  18    -0.128283776039E+04   -0.30310E-05   -0.75332E-05 10640   0.383E-04 0.378E-04
