       N       E                     dE             d eps       ncg     rms          ort
DAV:   1     0.792770004533E+04    0.79277E+04   -0.24678E+05  8424   0.244E+03
DAV:   2     0.709942332238E+03   -0.72178E+04   -0.68704E+04  8424   0.666E+02
DAV:   3    -0.687220572203E+03   -0.13972E+04   -0.12264E+04  8424   0.268E+02
DAV:   4    -0.809080854114E+03   -0.12186E+03   -0.11906E+03  8424   0.767E+01
DAV:   5    -0.810790073351E+03   -0.17092E+01   -0.17051E+01  8424   0.102E+01
SDA:   6    -0.694538420205E+03    0.11625E+03   -0.17051E+01  8424   0.488E+02 0.000E+00
CGA:   7    -0.702895679075E+03   -0.83573E+01   -0.83860E+01  8424   0.105E+02 0.329E+00
CGA:   8    -0.704864913378E+03   -0.19692E+01   -0.19724E+01  8424   0.411E+01 0.174E+00
CGA:   9    -0.705819627043E+03   -0.95471E+00   -0.95271E+00  8424   0.263E+01 0.577E-01
CGA:  10    -0.706161938531E+03   -0.34231E+00   -0.35048E+00  8424   0.114E+01 0.648E-02
CGA:  11    -0.706288850355E+03   -0.12691E+00   -0.12976E+00  8424   0.785E+00-0.212E-01
CGA:  12    -0.706392882378E+03   -0.10403E+00   -0.10487E+00  8424   0.198E+00 0.106E-02
CGA:  13    -0.706432580058E+03   -0.39698E-01   -0.39599E-01  8424   0.921E-01 0.799E-02
CGA:  14    -0.706452524815E+03   -0.19945E-01   -0.19862E-01  8424   0.519E-01 0.415E-02
CGA:  15    -0.706458182162E+03   -0.56573E-02   -0.57722E-02  8424   0.267E-01 0.606E-03
CGA:  16    -0.706461626190E+03   -0.34440E-02   -0.35016E-02  8424   0.911E-02 0.620E-03
CGA:  17    -0.706463154213E+03   -0.15280E-02   -0.15354E-02  8424   0.294E-02 0.348E-03
CGA:  18    -0.706463837625E+03   -0.68341E-03   -0.72231E-03  8424   0.268E-02-0.740E-03
CGA:  19    -0.706464068552E+03   -0.23093E-03   -0.20150E-03  8424   0.950E-03-0.373E-03
CGA:  20    -0.706464183093E+03   -0.11454E-03   -0.11098E-03  8424   0.506E-03-0.848E-04
CGA:  21    -0.706464261516E+03   -0.78424E-04   -0.78648E-04  8424   0.177E-03 0.260E-04
CGA:  22    -0.706464288069E+03   -0.26553E-04   -0.26222E-04  8424   0.192E-03-0.106E-04
CGA:  23    -0.706464322835E+03   -0.34765E-04   -0.35442E-04  8424   0.648E-04-0.346E-04
CGA:  24    -0.706464336374E+03   -0.13540E-04   -0.16196E-04  8424   0.104E-03-0.209E-04
CGA:  25    -0.706464371175E+03   -0.34801E-04    0.19054E-04  8424   0.632E-04-0.192E-04
CGA:  26    -0.706464415508E+03   -0.44333E-04    0.35478E-05  8424   0.960E-04-0.244E-04
CGA:  27    -0.706464481620E+03   -0.66112E-04    0.26480E-05  8424   0.714E-04-0.137E-04
CGA:  28    -0.706464445968E+03    0.35652E-04   -0.30278E-04  8424   0.968E-03-0.215E-03
CGA:  29    -0.706464552012E+03   -0.10604E-03   -0.89839E-04  8424   0.170E-03-0.154E-03
CGA:  30    -0.706464576333E+03   -0.24322E-04   -0.20836E-04  8424   0.161E-03-0.727E-04
CGA:  31    -0.706464587991E+03   -0.11658E-04   -0.12446E-04  8424   0.285E-04 0.138E-04
CGA:  32    -0.706464585826E+03    0.21653E-05   -0.89482E-06  8424   0.126E-04 0.191E-04
   1 F= -.70646459E+03 E0= -.70645367E+03  d E =-.706465E+03  mag=     0.8186
