       N       E                     dE             d eps       ncg     rms          ort
DAV:   1     0.844026367908E+04    0.84403E+04   -0.24349E+05  8424   0.239E+03
DAV:   2     0.998355684303E+03   -0.74419E+04   -0.70014E+04  8424   0.660E+02
DAV:   3    -0.651350089783E+03   -0.16497E+04   -0.14373E+04  8424   0.288E+02
DAV:   4    -0.821658061069E+03   -0.17031E+03   -0.16716E+03  8424   0.892E+01
DAV:   5    -0.824501898120E+03   -0.28438E+01   -0.28296E+01  8424   0.129E+01
SDA:   6    -0.287592572902E+03    0.53691E+03   -0.28296E+01  8424   0.386E+04 0.000E+00
CGA:   7    -0.562586769241E+03   -0.27499E+03   -0.38213E+03  8424   0.563E+04-0.626E+03
CGA:   8    -0.589700993847E+03   -0.27114E+02   -0.20132E+03  8424   0.508E+03-0.134E+04
CGA:   9    -0.646538209509E+03   -0.56837E+02   -0.58445E+02  8424   0.908E+02 0.149E+02
CGA:  10    -0.658057298724E+03   -0.11519E+02   -0.97802E+01  8424   0.189E+02 0.176E+02
CGA:  11    -0.659912111827E+03   -0.18548E+01   -0.16851E+01  8424   0.260E+02-0.713E+01
CGA:  12    -0.660834911332E+03   -0.92280E+00   -0.10370E+01  8424   0.433E+02-0.965E+00
CGA:  13    -0.662332702720E+03   -0.14978E+01   -0.17652E+01  8424   0.145E+02-0.623E+01
CGA:  14    -0.662890406573E+03   -0.55770E+00   -0.85935E+00  8424   0.108E+02-0.221E+01
CGA:  15    -0.663667182431E+03   -0.77678E+00   -0.77766E+00  8424   0.592E+01-0.571E-02
CGA:  16    -0.664162521967E+03   -0.49534E+00   -0.48558E+00  8424   0.255E+01 0.420E-01
CGA:  17    -0.664399824229E+03   -0.23730E+00   -0.23883E+00  8424   0.171E+01-0.129E-01
CGA:  18    -0.664549203503E+03   -0.14938E+00   -0.14919E+00  8424   0.899E+00-0.397E-02
CGA:  19    -0.664651051475E+03   -0.10185E+00   -0.10328E+00  8424   0.752E+00 0.162E-01
CGA:  20    -0.664727651403E+03   -0.76600E-01   -0.77420E-01  8424   0.347E+00 0.142E-01
CGA:  21    -0.664763426435E+03   -0.35775E-01   -0.35968E-01  8424   0.235E+00 0.823E-02
CGA:  22    -0.664794048604E+03   -0.30622E-01   -0.30702E-01  8424   0.146E+00 0.587E-02
CGA:  23    -0.664806810312E+03   -0.12762E-01   -0.12882E-01  8424   0.570E-01 0.647E-03
CGA:  24    -0.664814014203E+03   -0.72039E-02   -0.72134E-02  8424   0.380E-01 0.530E-03
CGA:  25    -0.664817941559E+03   -0.39274E-02   -0.39632E-02  8424   0.186E-01 0.107E-02
CGA:  26    -0.664820290098E+03   -0.23485E-02   -0.23631E-02  8424   0.133E-01 0.130E-02
CGA:  27    -0.664821850483E+03   -0.15604E-02   -0.15778E-02  8424   0.688E-02 0.747E-03
CGA:  28    -0.664822893626E+03   -0.10431E-02   -0.10415E-02  8424   0.583E-02 0.110E-03
CGA:  29    -0.664823632086E+03   -0.73846E-03   -0.73574E-03  8424   0.278E-02-0.290E-03
CGA:  30    -0.664824060407E+03   -0.42832E-03   -0.45746E-03  8424   0.309E-02-0.727E-03
CGA:  31    -0.664824393584E+03   -0.33318E-03   -0.35454E-03  8424   0.228E-02-0.105E-02
CGA:  32    -0.664824599826E+03   -0.20624E-03   -0.20724E-03  8424   0.207E-02-0.514E-03
CGA:  33    -0.664824789025E+03   -0.18920E-03   -0.18747E-03  8424   0.133E-02-0.949E-04
CGA:  34    -0.664824937490E+03   -0.14847E-03   -0.15050E-03  8424   0.118E-02 0.120E-03
CGA:  35    -0.664825111276E+03   -0.17379E-03   -0.17368E-03  8424   0.735E-03 0.162E-03
CGA:  36    -0.664825189922E+03   -0.78646E-04   -0.82862E-04  8424   0.415E-03 0.116E-03
SDA:  37    -0.664825242580E+03   -0.52658E-04   -0.55757E-04  8424   0.354E-03 0.186E-03
CGA:  38    -0.664825287723E+03   -0.45143E-04   -0.45325E-04  8424   0.173E-03 0.495E-04
CGA:  39    -0.664825275283E+03    0.12440E-04   -0.32156E-04  8424   0.883E-03-0.269E-03
CGA:  40    -0.664825401222E+03   -0.12594E-03   -0.13083E-03  8424   0.325E-03 0.541E-04
CGA:  41    -0.664825474667E+03   -0.73446E-04   -0.73143E-04  8424   0.157E-03-0.137E-04
CGA:  42    -0.664825501512E+03   -0.26844E-04   -0.27317E-04  8424   0.598E-04 0.836E-05
CGA:  43    -0.664825547258E+03   -0.45747E-04    0.12896E-04  8424   0.502E-04 0.424E-04
CGA:  44    -0.664825582646E+03   -0.35388E-04    0.11162E-04  8424   0.388E-04 0.247E-04
CGA:  45    -0.664825626138E+03   -0.43492E-04    0.10781E-04  8424   0.377E-04 0.451E-04
CGA:  46    -0.664825646249E+03   -0.20111E-04    0.28670E-04  8424   0.377E-04 0.210E-04
CGA:  47    -0.664825665532E+03   -0.19284E-04    0.41787E-04  8424   0.543E-04 0.133E-04
CGA:  48    -0.664825725091E+03   -0.59559E-04    0.11359E-04  8424   0.384E-04 0.654E-04
CGA:  49    -0.664825746372E+03   -0.21281E-04    0.22636E-04  8424   0.374E-04 0.181E-04
CGA:  50    -0.664825786854E+03   -0.40482E-04    0.10834E-04  8424   0.402E-04 0.484E-04
CGA:  51    -0.664825817011E+03   -0.30157E-04    0.75362E-05  8424   0.346E-04 0.175E-04
CGA:  52    -0.664825858895E+03   -0.41884E-04    0.69950E-05  8424   0.395E-04 0.447E-04
CGA:  53    -0.664825879321E+03   -0.20426E-04    0.39962E-04  8424   0.332E-04 0.176E-04
CGA:  54    -0.664825916524E+03   -0.37203E-04    0.82658E-05  8424   0.386E-04 0.429E-04
CGA:  55    -0.664825947209E+03   -0.30685E-04    0.62291E-05  8424   0.317E-04 0.180E-04
CGA:  56    -0.664825988574E+03   -0.41365E-04    0.58668E-05  8424   0.371E-04 0.416E-04
CGA:  57    -0.664826009099E+03   -0.20525E-04    0.22317E-04  8424   0.305E-04 0.183E-04
CGA:  58    -0.664826046029E+03   -0.36929E-04    0.70034E-05  8424   0.358E-04 0.408E-04
CGA:  59    -0.664826076382E+03   -0.30353E-04    0.50130E-05  8424   0.292E-04 0.186E-04
CGA:  60    -0.664826094822E+03   -0.18440E-04    0.92823E-05  8424   0.330E-04 0.190E-04
CGA:  61    -0.664826121337E+03   -0.26515E-04    0.51948E-05  8424   0.520E-04 0.928E-05
CGA:  62    -0.664826181695E+03   -0.60358E-04    0.80991E-05  8424   0.348E-04 0.633E-04
CGA:  63    -0.664826046632E+03    0.13506E-03   -0.72744E-04  8424   0.300E-02-0.152E-03
CGA:  64    -0.664826330334E+03   -0.28370E-03   -0.25637E-03  8424   0.804E-04-0.122E-03
CGA:  65    -0.664826357457E+03   -0.27123E-04   -0.21780E-04  8424   0.119E-03-0.436E-04
CGA:  66    -0.664826384073E+03   -0.26616E-04   -0.18951E-04  8424   0.726E-04-0.323E-04
CGA:  67    -0.664826197740E+03    0.18633E-03   -0.84667E-04  8424   0.396E-02-0.228E-03
CGA:  68    -0.664826621554E+03   -0.42381E-03   -0.38726E-03  8424   0.296E-03-0.155E-03
CGA:  69    -0.664826667334E+03   -0.45780E-04   -0.38388E-04  8424   0.309E-04-0.251E-04
CGA:  70    -0.664826719297E+03   -0.51963E-04    0.48785E-05  8424   0.484E-04 0.147E-04
CGA:  71    -0.664826813456E+03   -0.94159E-04    0.25364E-04  8424   0.119E-03 0.260E-04
CGA:  72    -0.664826842072E+03   -0.28616E-04   -0.16156E-04  8424   0.688E-04-0.449E-04
CGA:  73    -0.664826905167E+03   -0.63095E-04    0.10424E-04  8424   0.522E-04 0.175E-04
CGA:  74    -0.664826985962E+03   -0.80796E-04    0.24645E-04  8424   0.554E-04 0.180E-04
CGA:  75    -0.664827125711E+03   -0.13975E-03    0.11222E-04  8424   0.357E-04 0.614E-04
CGA:  76    -0.664827034059E+03    0.91652E-04   -0.40092E-04  8424   0.252E-02-0.184E-03
CGA:  77    -0.664827254970E+03   -0.22091E-03   -0.21124E-03  8424   0.554E-04-0.520E-04
CGA:  78    -0.664827260416E+03   -0.54469E-05   -0.85596E-05  8424   0.199E-04 0.117E-04
   1 F= -.66482726E+03 E0= -.66481908E+03  d E =-.163669E-01  mag=     0.9257
