       N       E                     dE             d eps       ncg     rms          ort
DAV:   1     0.283397570009E+04    0.28340E+04   -0.29273E+05  2880   0.140E+03
DAV:   2    -0.968868437564E+03   -0.38028E+04   -0.36702E+04  2880   0.314E+02
DAV:   3    -0.122962172094E+04   -0.26075E+03   -0.25865E+03  2880   0.853E+01
DAV:   4    -0.123273712789E+04   -0.31154E+01   -0.31042E+01  2880   0.990E+00
DAV:   5    -0.123278995048E+04   -0.52823E-01   -0.52699E-01  2880   0.118E+00
SDA:   6    -0.877361941281E+03    0.35543E+03   -0.52699E-01  2880   0.613E+03 0.000E+00
CGA:   7    -0.986792705690E+03   -0.10943E+03   -0.10977E+03  2880   0.461E+02 0.944E+01
CGA:   8    -0.997166520231E+03   -0.10374E+02   -0.10291E+02  2880   0.242E+02 0.327E+01
CGA:   9    -0.100175373809E+04   -0.45872E+01   -0.45489E+01  2880   0.107E+02-0.138E+01
CGA:  10    -0.100408828350E+04   -0.23345E+01   -0.23062E+01  2880   0.109E+02 0.699E+00
CGA:  11    -0.100388185996E+04    0.20642E+00   -0.88065E+00  2880   0.200E+02-0.970E+01
CGA:  12    -0.100489905693E+04   -0.10172E+01   -0.20971E+01  2880   0.275E+01-0.145E+01
CGA:  13    -0.100518596278E+04   -0.28691E+00   -0.13265E+00  2880   0.328E+01 0.382E+01
CGA:  14    -0.100557537368E+04   -0.38941E+00   -0.14618E+00  2880   0.120E+01 0.305E+01
CGA:  15    -0.100565434092E+04   -0.78967E-01   -0.72596E-01  2880   0.813E+00 0.156E-01
CGA:  16    -0.100592582772E+04   -0.27149E+00   -0.27686E+00  2880   0.441E+00-0.314E-01
CGA:  17    -0.100595981355E+04   -0.33986E-01   -0.34031E-01  2880   0.322E+00-0.718E-02
CGA:  18    -0.100598947953E+04   -0.29666E-01   -0.29137E-01  2880   0.144E+00-0.176E-03
CGA:  19    -0.100601147913E+04   -0.22000E-01   -0.22091E-01  2880   0.223E+00 0.245E-02
CGA:  20    -0.100603005541E+04   -0.18576E-01   -0.18626E-01  2880   0.275E-01 0.389E-02
CGA:  21    -0.100603250772E+04   -0.24523E-02   -0.25735E-02  2880   0.309E-01 0.102E-02
CGA:  22    -0.100603718817E+04   -0.46804E-02   -0.47252E-02  2880   0.110E-01 0.346E-02
CGA:  23    -0.100603784986E+04   -0.66169E-03   -0.71665E-03  2880   0.373E-02 0.832E-03
CGA:  24    -0.100603847998E+04   -0.63012E-03   -0.62948E-03  2880   0.337E-02 0.341E-03
CGA:  25    -0.100603888669E+04   -0.40671E-03   -0.40971E-03  2880   0.381E-02 0.529E-04
CGA:  26    -0.100603934137E+04   -0.45468E-03   -0.46526E-03  2880   0.124E-02 0.360E-03
CGA:  27    -0.100603941919E+04   -0.77825E-04   -0.87590E-04  2880   0.672E-03 0.989E-04
CGA:  28    -0.100603966257E+04   -0.24338E-03   -0.24742E-03  2880   0.122E-02-0.493E-05
CGA:  29    -0.100603971641E+04   -0.53835E-04   -0.57234E-04  2880   0.195E-03 0.597E-04
CGA:  30    -0.100603972662E+04   -0.10215E-04   -0.16524E-04  2880   0.216E-03 0.920E-04
CGA:  31    -0.100603973969E+04   -0.13075E-04   -0.24540E-04  2880   0.908E-04 0.166E-03
CGA:  32    -0.100603974889E+04   -0.91951E-05   -0.10121E-04  2880   0.699E-04 0.281E-04
   1 F= -.10060397E+04 E0= -.10060241E+04  d E =-.100604E+04  mag=     1.0000
       N       E                     dE             d eps       ncg     rms          ort
SDA:   1    -0.100603864056E+04    0.10991E-02    0.00000E+00  2880   0.109E-01 0.000E+00
CGA:   2    -0.100603913084E+04   -0.49029E-03   -0.47910E-03  2880   0.168E-02 0.306E-03
CGA:   3    -0.100603950956E+04   -0.37871E-03   -0.38361E-03  2880   0.173E-02-0.610E-04
CGA:   4    -0.100603966219E+04   -0.15263E-03   -0.15388E-03  2880   0.643E-03 0.174E-04
CGA:   5    -0.100603969630E+04   -0.34109E-04   -0.39716E-04  2880   0.137E-03 0.717E-04
CGA:   6    -0.100603972139E+04   -0.25089E-04   -0.24739E-04  2880   0.187E-03 0.116E-04
CGA:   7    -0.100603974245E+04   -0.21064E-04   -0.18586E-04  2880   0.373E-04-0.580E-04
CGA:   8    -0.100603974432E+04   -0.18723E-05   -0.21558E-05  2880   0.173E-04 0.566E-05
   2 F= -.10060397E+04 E0= -.10060241E+04  d E =0.456808E-05  mag=     0.9999
       N       E                     dE             d eps       ncg     rms          ort
SDA:   1    -0.100603933586E+04    0.40659E-03    0.00000E+00  2880   0.441E-02 0.000E+00
CGA:   2    -0.100603953202E+04   -0.19615E-03   -0.19500E-03  2880   0.661E-03 0.603E-04
CGA:   3    -0.100603967263E+04   -0.14061E-03   -0.14087E-03  2880   0.625E-03-0.541E-05
CGA:   4    -0.100603973995E+04   -0.67325E-04   -0.68397E-04  2880   0.163E-03 0.531E-04
CGA:   5    -0.100603974720E+04   -0.72477E-05   -0.96685E-05  2880   0.376E-04 0.315E-04
CGA:   6    -0.100603975794E+04   -0.10740E-04   -0.13079E-04  2880   0.833E-04-0.141E-04
CGA:   7    -0.100603976254E+04   -0.45984E-05   -0.26328E-05  2880   0.225E-04-0.239E-04
   3 F= -.10060398E+04 E0= -.10060241E+04  d E =-.136486E-04  mag=     0.9999
       N       E                     dE             d eps       ncg     rms          ort
SDA:   1    -0.100603902670E+04    0.73124E-03    0.00000E+00  2880   0.170E-01 0.000E+00
CGA:   2    -0.100603973718E+04   -0.71047E-03   -0.70369E-03  2880   0.158E-03-0.383E-03
CGA:   3    -0.100603975066E+04   -0.13484E-04   -0.12087E-04  2880   0.854E-04-0.322E-04
CGA:   4    -0.100603975843E+04   -0.77687E-05   -0.75905E-05  2880   0.453E-04-0.193E-04
   4 F= -.10060398E+04 E0= -.10060241E+04  d E =-.954067E-05  mag=     0.9999
       N       E                     dE             d eps       ncg     rms          ort
SDA:   1    -0.100603973294E+04    0.17720E-04    0.00000E+00  2880   0.446E-03 0.000E+00
CGA:   2    -0.100603975894E+04   -0.25994E-04   -0.21804E-04  2880   0.227E-04-0.614E-04
CGA:   3    -0.100603976049E+04   -0.15573E-05   -0.15130E-05  2880   0.484E-05-0.125E-05
CGA:   4    -0.100603976218E+04   -0.16868E-05    0.42392E-06  2880   0.285E-05 0.656E-06
   5 F= -.10060398E+04 E0= -.10060241E+04  d E =-.132899E-04  mag=     0.9999
