       N       E                     dE             d eps       ncg     rms          rms(c)
DAV:   1     0.426662839711E+04    0.42666E+04   -0.15642E+05  7688   0.146E+03
DAV:   2     0.340512907438E+03   -0.39261E+04   -0.37777E+04  7432   0.429E+02
DAV:   3    -0.327242338653E+03   -0.66776E+03   -0.62871E+03 10008   0.152E+02
DAV:   4    -0.379206100107E+03   -0.51964E+02   -0.51504E+02  9544   0.436E+01
DAV:   5    -0.380452303216E+03   -0.12462E+01   -0.12433E+01  9896   0.810E+00    0.713E+01
DAV:   6    -0.330805064335E+03    0.49647E+02   -0.39882E+02  9928   0.523E+01    0.430E+01
DAV:   7    -0.326961966712E+03    0.38431E+01   -0.18888E+02  9904   0.410E+01    0.286E+01
DAV:   8    -0.321060114126E+03    0.59019E+01   -0.32362E+01  9952   0.165E+01    0.847E+00
DAV:   9    -0.321587971084E+03   -0.52786E+00   -0.70872E+00 10008   0.705E+00    0.806E+00
DAV:  10    -0.321150441673E+03    0.43753E+00   -0.18595E+00  9904   0.439E+00    0.429E+00
DAV:  11    -0.321086981363E+03    0.63460E-01   -0.47867E-01 10016   0.202E+00    0.203E+00
DAV:  12    -0.321088763759E+03   -0.17824E-02   -0.10814E-01  9824   0.120E+00    0.115E+00
DAV:  13    -0.321087513144E+03    0.12506E-02   -0.35711E-02  9864   0.861E-01    0.562E-01
DAV:  14    -0.321087262253E+03    0.25089E-03   -0.71138E-03  9784   0.368E-01    0.237E-01
DAV:  15    -0.321087344645E+03   -0.82393E-04   -0.23843E-03  9808   0.169E-01    0.976E-02
DAV:  16    -0.321087404801E+03   -0.60156E-04   -0.58083E-04  9680   0.118E-01    0.662E-02
DAV:  17    -0.321087439906E+03   -0.35105E-04   -0.19268E-04  9544   0.578E-02    0.348E-02
DAV:  18    -0.321087466315E+03   -0.26408E-04   -0.31576E-05  6672   0.166E-02    0.194E-02
DAV:  19    -0.321087479812E+03   -0.13498E-04   -0.16229E-05  5152   0.164E-02    0.128E-02
DAV:  20    -0.321087481881E+03   -0.20684E-05   -0.62236E-06  4088   0.135E-02
   1 F= -.32108748E+03 E0= -.32108563E+03  d E =-.321087E+03  mag=     0.0004
       N       E                     dE             d eps       ncg     rms          rms(c)
DAV:   1    -0.321088421380E+03   -0.94157E-03   -0.21216E-04  7376   0.450E-02    0.862E-03
DAV:   2    -0.321088424317E+03   -0.29378E-05   -0.25995E-05  6008   0.141E-02    0.600E-03
DAV:   3    -0.321088424276E+03    0.41484E-07   -0.22254E-06  4096   0.701E-03    0.326E-03
DAV:   4    -0.321088424337E+03   -0.61180E-07   -0.58544E-07  4096   0.331E-03
   2 F= -.32108842E+03 E0= -.32108657E+03  d E =-.942457E-03  mag=     0.0001
       N       E                     dE             d eps       ncg     rms          rms(c)
DAV:   1    -0.321134638585E+03   -0.46214E-01   -0.85265E-01  7824   0.282E+00    0.468E-01
DAV:   2    -0.321143726557E+03   -0.90880E-02   -0.98807E-02  7872   0.786E-01    0.272E-01
DAV:   3    -0.321143577351E+03    0.14921E-03   -0.46613E-03  9640   0.270E-01    0.159E-01
DAV:   4    -0.321143412236E+03    0.16511E-03   -0.11818E-03  9824   0.140E-01    0.143E-01
DAV:   5    -0.321143316024E+03    0.96212E-04   -0.57241E-04  9408   0.671E-02    0.719E-02
DAV:   6    -0.321143322222E+03   -0.61977E-05   -0.16330E-04  9568   0.374E-02    0.293E-02
DAV:   7    -0.321143319071E+03    0.31509E-05   -0.21584E-05  6304   0.215E-02
   3 F= -.32114332E+03 E0= -.32114149E+03  d E =-.548947E-01  mag=     0.0000
       N       E                     dE             d eps       ncg     rms          rms(c)
DAV:   1    -0.321199540046E+03   -0.56218E-01   -0.44488E+00  7712   0.644E+00    0.110E+00
DAV:   2    -0.321247115397E+03   -0.47575E-01   -0.51643E-01  7664   0.177E+00    0.595E-01
DAV:   3    -0.321246426336E+03    0.68906E-03   -0.22869E-02  9712   0.636E-01    0.361E-01
DAV:   4    -0.321245640669E+03    0.78567E-03   -0.63676E-03  9808   0.312E-01    0.328E-01
DAV:   5    -0.321245142297E+03    0.49837E-03   -0.28465E-03  9440   0.156E-01    0.163E-01
DAV:   6    -0.321245170770E+03   -0.28473E-04   -0.85379E-04  9840   0.867E-02    0.678E-02
DAV:   7    -0.321245157417E+03    0.13353E-04   -0.14346E-04  9560   0.515E-02    0.460E-02
DAV:   8    -0.321245160041E+03   -0.26239E-05   -0.48727E-05  7760   0.342E-02
   4 F= -.32124516E+03 E0= -.32124335E+03  d E =-.101841E+00  mag=     0.0000
       N       E                     dE             d eps       ncg     rms          rms(c)
DAV:   1    -0.321263161801E+03   -0.18004E-01   -0.38174E+00  7776   0.646E+00    0.972E-01
DAV:   2    -0.321309307999E+03   -0.46146E-01   -0.49581E-01  7600   0.167E+00    0.464E-01
DAV:   3    -0.321309111984E+03    0.19602E-03   -0.16556E-02  9672   0.488E-01    0.300E-01
DAV:   4    -0.321308659261E+03    0.45272E-03   -0.45227E-03  9664   0.285E-01    0.268E-01
DAV:   5    -0.321308288705E+03    0.37056E-03   -0.21553E-03  9664   0.139E-01    0.128E-01
DAV:   6    -0.321308317555E+03   -0.28850E-04   -0.60358E-04  9672   0.704E-02    0.620E-02
DAV:   7    -0.321308309830E+03    0.77244E-05   -0.94488E-05  9328   0.405E-02
   5 F= -.32130831E+03 E0= -.32130652E+03  d E =-.631498E-01  mag=     0.0000
       N       E                     dE             d eps       ncg     rms          rms(c)
DAV:   1    -0.321184373549E+03    0.12394E+00   -0.10138E+01  7680   0.120E+01    0.147E+00
DAV:   2    -0.321355397702E+03   -0.17102E+00   -0.18066E+00  7520   0.307E+00    0.645E-01
DAV:   3    -0.321357444378E+03   -0.20467E-02   -0.51038E-02  9560   0.671E-01    0.432E-01
DAV:   4    -0.321357105329E+03    0.33905E-03   -0.88688E-03  9800   0.420E-01    0.371E-01
DAV:   5    -0.321356369558E+03    0.73577E-03   -0.40406E-03  9776   0.231E-01    0.171E-01
DAV:   6    -0.321356456449E+03   -0.86891E-04   -0.99346E-04 10104   0.924E-02    0.112E-01
DAV:   7    -0.321356455365E+03    0.10837E-05   -0.21363E-04  9856   0.667E-02    0.823E-02
DAV:   8    -0.321356454549E+03    0.81660E-06   -0.65540E-05  8304   0.380E-02
   6 F= -.32135645E+03 E0= -.32135457E+03  d E =-.481447E-01  mag=    -0.0000
       N       E                     dE             d eps       ncg     rms          rms(c)
DAV:   1    -0.321122567499E+03    0.23389E+00   -0.14712E+01  7632   0.147E+01    0.171E+00
DAV:   2    -0.321375696851E+03   -0.25313E+00   -0.26856E+00  7456   0.392E+00    0.994E-01
DAV:   3    -0.321378226167E+03   -0.25293E-02   -0.99425E-02  9792   0.102E+00    0.610E-01
DAV:   4    -0.321376241889E+03    0.19843E-02   -0.17027E-02  9904   0.623E-01    0.535E-01
DAV:   5    -0.321375553667E+03    0.68822E-03   -0.56978E-03 10088   0.215E-01    0.258E-01
DAV:   6    -0.321375711256E+03   -0.15759E-03   -0.18826E-03 10064   0.179E-01    0.151E-01
DAV:   7    -0.321375658227E+03    0.53029E-04   -0.62244E-04 10032   0.128E-01    0.936E-02
DAV:   8    -0.321375666385E+03   -0.81584E-05   -0.90806E-05  9440   0.429E-02
   7 F= -.32137567E+03 E0= -.32137362E+03  d E =-.192118E-01  mag=    -0.0000
       N       E                     dE             d eps       ncg     rms          rms(c)
DAV:   1    -0.321156864633E+03    0.21879E+00   -0.13114E+01  7600   0.148E+01    0.189E+00
DAV:   2    -0.321394583531E+03   -0.23772E+00   -0.25108E+00  7616   0.416E+00    0.114E+00
DAV:   3    -0.321395300612E+03   -0.71708E-03   -0.10716E-01  9840   0.120E+00    0.704E-01
DAV:   4    -0.321392910686E+03    0.23899E-02   -0.20074E-02  9968   0.673E-01    0.629E-01
DAV:   5    -0.321391673571E+03    0.12371E-02   -0.74098E-03  9816   0.254E-01    0.332E-01
DAV:   6    -0.321391785165E+03   -0.11159E-03   -0.28842E-03 10176   0.199E-01    0.189E-01
DAV:   7    -0.321391710358E+03    0.74807E-04   -0.89439E-04  9912   0.139E-01    0.114E-01
DAV:   8    -0.321391739916E+03   -0.29558E-04   -0.21269E-04  9824   0.564E-02    0.786E-02
DAV:   9    -0.321391709205E+03    0.30711E-04   -0.95237E-05  9048   0.353E-02    0.509E-02
DAV:  10    -0.321391687739E+03    0.21466E-04   -0.99769E-05  8528   0.254E-02    0.172E-02
DAV:  11    -0.321391689247E+03   -0.15081E-05   -0.23437E-05  4952   0.159E-02
   8 F= -.32139169E+03 E0= -.32138954E+03  d E =-.160229E-01  mag=     0.0000
       N       E                     dE             d eps       ncg     rms          rms(c)
DAV:   1    -0.321382931852E+03    0.87559E-02   -0.12717E+00  7568   0.468E+00    0.664E-01
DAV:   2    -0.321405729331E+03   -0.22797E-01   -0.24139E-01  7552   0.129E+00    0.372E-01
DAV:   3    -0.321405749320E+03   -0.19989E-04   -0.11083E-02  9632   0.433E-01    0.219E-01
DAV:   4    -0.321405468311E+03    0.28101E-03   -0.28265E-03  9888   0.234E-01    0.203E-01
DAV:   5    -0.321405325989E+03    0.14232E-03   -0.71837E-04  9856   0.897E-02    0.114E-01
DAV:   6    -0.321405328826E+03   -0.28369E-05   -0.28023E-04 10304   0.577E-02    0.640E-02
DAV:   7    -0.321405322313E+03    0.65131E-05   -0.10833E-04  9416   0.439E-02    0.470E-02
DAV:   8    -0.321405323915E+03   -0.16018E-05   -0.26330E-05  6392   0.246E-02
   9 F= -.32140532E+03 E0= -.32140326E+03  d E =-.136347E-01  mag=    -0.0000
       N       E                     dE             d eps       ncg     rms          rms(c)
DAV:   1    -0.321406719414E+03   -0.13971E-02   -0.13312E-01  7568   0.151E+00    0.190E-01
DAV:   2    -0.321408964415E+03   -0.22450E-02   -0.23716E-02  7424   0.397E-01    0.877E-02
DAV:   3    -0.321408990314E+03   -0.25899E-04   -0.78387E-04  9752   0.103E-01    0.594E-02
DAV:   4    -0.321408977064E+03    0.13250E-04   -0.16878E-04  9496   0.581E-02    0.539E-02
DAV:   5    -0.321408967498E+03    0.95656E-05   -0.59551E-05  8528   0.257E-02
  10 F= -.32140897E+03 E0= -.32140693E+03  d E =-.364358E-02  mag=    -0.0000
       N       E                     dE             d eps       ncg     rms          rms(c)
DAV:   1    -0.321295235434E+03    0.11374E+00   -0.64901E+00  7584   0.113E+01    0.114E+00
DAV:   2    -0.321421768044E+03   -0.12653E+00   -0.13281E+00  7424   0.287E+00    0.502E-01
DAV:   3    -0.321423980604E+03   -0.22126E-02   -0.36194E-02  9856   0.560E-01    0.372E-01
DAV:   4    -0.321423845288E+03    0.13532E-03   -0.37439E-03  9784   0.275E-01    0.305E-01
DAV:   5    -0.321423532195E+03    0.31309E-03   -0.20123E-03  9968   0.176E-01    0.159E-01
DAV:   6    -0.321423583792E+03   -0.51596E-04   -0.62841E-04 10328   0.786E-02    0.656E-02
DAV:   7    -0.321423585034E+03   -0.12420E-05   -0.16130E-04  9864   0.507E-02    0.507E-02
DAV:   8    -0.321423580618E+03    0.44158E-05   -0.48521E-05  8048   0.337E-02
  11 F= -.32142358E+03 E0= -.32142160E+03  d E =-.146131E-01  mag=    -0.0000
       N       E                     dE             d eps       ncg     rms          rms(c)
DAV:   1    -0.321384818903E+03    0.38766E-01   -0.23896E+00  7568   0.645E+00    0.851E-01
DAV:   2    -0.321426536877E+03   -0.41718E-01   -0.44055E-01  7600   0.177E+00    0.491E-01
DAV:   3    -0.321426689858E+03   -0.15298E-03   -0.19290E-02 10008   0.494E-01    0.297E-01
DAV:   4    -0.321426165040E+03    0.52482E-03   -0.39412E-03 10072   0.279E-01    0.269E-01
DAV:   5    -0.321425885080E+03    0.27996E-03   -0.11998E-03  9712   0.105E-01    0.148E-01
DAV:   6    -0.321425883452E+03    0.16276E-05   -0.44835E-04 10104   0.722E-02    0.870E-02
DAV:   7    -0.321425876032E+03    0.74209E-05   -0.19556E-04  9856   0.601E-02    0.635E-02
DAV:   8    -0.321425878132E+03   -0.21006E-05   -0.43980E-05  7616   0.296E-02
  12 F= -.32142588E+03 E0= -.32142382E+03  d E =-.229751E-02  mag=    -0.0000
       N       E                     dE             d eps       ncg     rms          rms(c)
DAV:   1    -0.321421107151E+03    0.47689E-02   -0.40144E-01  7584   0.262E+00    0.364E-01
DAV:   2    -0.321427888485E+03   -0.67813E-02   -0.71669E-02  7664   0.726E-01    0.217E-01
DAV:   3    -0.321427839905E+03    0.48580E-04   -0.35397E-03  9680   0.235E-01    0.128E-01
DAV:   4    -0.321427735043E+03    0.10486E-03   -0.83007E-04 10096   0.117E-01    0.117E-01
DAV:   5    -0.321427679676E+03    0.55367E-04   -0.23708E-04  9704   0.478E-02    0.652E-02
DAV:   6    -0.321427678799E+03    0.87775E-06   -0.92376E-05  9752   0.336E-02
  13 F= -.32142768E+03 E0= -.32142566E+03  d E =-.180067E-02  mag=    -0.0000
       N       E                     dE             d eps       ncg     rms          rms(c)
DAV:   1    -0.321426376485E+03    0.13032E-02   -0.71124E-02  7792   0.124E+00    0.118E-01
DAV:   2    -0.321427890240E+03   -0.15138E-02   -0.15878E-02  7472   0.315E-01    0.640E-02
DAV:   3    -0.321427920106E+03   -0.29866E-04   -0.45047E-04  9824   0.631E-02    0.385E-02
DAV:   4    -0.321427920973E+03   -0.86727E-06   -0.78602E-05  8928   0.373E-02
  14 F= -.32142792E+03 E0= -.32142592E+03  d E =-.242174E-03  mag=    -0.0000
       N       E                     dE             d eps       ncg     rms          rms(c)
DAV:   1    -0.321268039937E+03    0.15988E+00   -0.72836E+00  7744   0.124E+01    0.110E+00
DAV:   2    -0.321425504184E+03   -0.15746E+00   -0.16432E+00  7440   0.314E+00    0.512E-01
DAV:   3    -0.321428444524E+03   -0.29403E-02   -0.41256E-02  9792   0.562E-01    0.370E-01
DAV:   4    -0.321428463160E+03   -0.18636E-04   -0.40633E-03  9840   0.262E-01    0.300E-01
DAV:   5    -0.321428206167E+03    0.25699E-03   -0.20686E-03 10000   0.205E-01    0.150E-01
DAV:   6    -0.321428251119E+03   -0.44952E-04   -0.58134E-04 10160   0.826E-02    0.484E-02
DAV:   7    -0.321428254791E+03   -0.36722E-05   -0.12638E-04  9824   0.489E-02    0.434E-02
DAV:   8    -0.321428247911E+03    0.68793E-05   -0.40862E-05  7936   0.324E-02
  15 F= -.32142825E+03 E0= -.32142632E+03  d E =-.326938E-03  mag=    -0.0000
       N       E                     dE             d eps       ncg     rms          rms(c)
DAV:   1    -0.321178238057E+03    0.25002E+00   -0.11335E+01  7680   0.156E+01    0.155E+00
DAV:   2    -0.321406480318E+03   -0.22824E+00   -0.23943E+00  7424   0.399E+00    0.834E-01
DAV:   3    -0.321409844324E+03   -0.33640E-02   -0.80236E-02  9872   0.972E-01    0.547E-01
DAV:   4    -0.321408736025E+03    0.11083E-02   -0.14558E-02  9880   0.568E-01    0.474E-01
DAV:   5    -0.321407872569E+03    0.86346E-03   -0.40394E-03  9808   0.226E-01    0.263E-01
DAV:   6    -0.321407925307E+03   -0.52738E-04   -0.16289E-03 10048   0.131E-01    0.147E-01
DAV:   7    -0.321407926781E+03   -0.14742E-05   -0.64939E-04  9984   0.116E-01    0.116E-01
DAV:   8    -0.321407923049E+03    0.37320E-05   -0.13258E-04  9728   0.557E-02    0.837E-02
DAV:   9    -0.321407909323E+03    0.13727E-04   -0.54026E-05  7984   0.261E-02    0.513E-02
DAV:  10    -0.321407901147E+03    0.81758E-05   -0.49543E-05  7440   0.211E-02
  16 F= -.32140790E+03 E0= -.32140598E+03  d E =0.203468E-01  mag=    -0.0000
       N       E                     dE             d eps       ncg     rms          rms(c)
DAV:   1    -0.321387677098E+03    0.20232E-01   -0.15754E+00  7712   0.584E+00    0.724E-01
DAV:   2    -0.321422459130E+03   -0.34782E-01   -0.36562E-01  7456   0.156E+00    0.370E-01
DAV:   3    -0.321422980106E+03   -0.52098E-03   -0.15064E-02  9848   0.433E-01    0.233E-01
DAV:   4    -0.321422726001E+03    0.25410E-03   -0.37856E-03 10064   0.253E-01    0.207E-01
DAV:   5    -0.321422525030E+03    0.20097E-03   -0.80114E-04  9976   0.109E-01    0.114E-01
DAV:   6    -0.321422503453E+03    0.21576E-04   -0.34779E-04  9936   0.538E-02    0.620E-02
DAV:   7    -0.321422505868E+03   -0.24140E-05   -0.12819E-04  9768   0.468E-02    0.600E-02
DAV:   8    -0.321422502903E+03    0.29647E-05   -0.27301E-05  6456   0.275E-02
  17 F= -.32142250E+03 E0= -.32142061E+03  d E =-.146018E-01  mag=    -0.0000
       N       E                     dE             d eps       ncg     rms          rms(c)
DAV:   1    -0.321418102099E+03    0.44038E-02   -0.25599E-01  7728   0.221E+00    0.296E-01
DAV:   2    -0.321422978080E+03   -0.48760E-02   -0.51765E-02  7472   0.585E-01    0.155E-01
DAV:   3    -0.321423056046E+03   -0.77966E-04   -0.22491E-03  9800   0.165E-01    0.938E-02
DAV:   4    -0.321423014724E+03    0.41322E-04   -0.59580E-04  9944   0.103E-01    0.858E-02
DAV:   5    -0.321422979830E+03    0.34894E-04   -0.13584E-04  9752   0.454E-02    0.465E-02
DAV:   6    -0.321422978723E+03    0.11068E-05   -0.58685E-05  8168   0.216E-02
  18 F= -.32142298E+03 E0= -.32142110E+03  d E =-.475820E-03  mag=    -0.0000
       N       E                     dE             d eps       ncg     rms          rms(c)
DAV:   1    -0.321421565128E+03    0.14147E-02   -0.28697E-02  7680   0.727E-01    0.802E-02
DAV:   2    -0.321422067258E+03   -0.50213E-03   -0.53201E-03  7536   0.187E-01    0.442E-02
DAV:   3    -0.321422076045E+03   -0.87864E-05   -0.16953E-04  9264   0.468E-02    0.289E-02
DAV:   4    -0.321422075071E+03    0.97322E-06   -0.36261E-05  7456   0.303E-02
  19 F= -.32142208E+03 E0= -.32142021E+03  d E =0.903652E-03  mag=     0.0000
       N       E                     dE             d eps       ncg     rms          rms(c)
DAV:   1    -0.321408636846E+03    0.13439E-01   -0.54745E-01  7664   0.313E+00    0.325E-01
DAV:   2    -0.321417989021E+03   -0.93522E-02   -0.98708E-02  7424   0.796E-01    0.152E-01
DAV:   3    -0.321418133586E+03   -0.14457E-03   -0.26950E-03  9760   0.174E-01    0.115E-01
DAV:   4    -0.321418118450E+03    0.15137E-04   -0.38505E-04  9760   0.917E-02    0.977E-02
DAV:   5    -0.321418086749E+03    0.31701E-04   -0.17778E-04  9808   0.533E-02    0.489E-02
DAV:   6    -0.321418093716E+03   -0.69671E-05   -0.53577E-05  8272   0.234E-02
  20 F= -.32141809E+03 E0= -.32141624E+03  d E =0.398136E-02  mag=    -0.0000
       N       E                     dE             d eps       ncg     rms          rms(c)
DAV:   1    -0.321374588119E+03    0.43499E-01   -0.18917E+00  7728   0.636E+00    0.563E-01
DAV:   2    -0.321412721085E+03   -0.38133E-01   -0.39967E-01  7424   0.160E+00    0.265E-01
DAV:   3    -0.321413428039E+03   -0.70695E-03   -0.10600E-02  9896   0.322E-01    0.189E-01
DAV:   4    -0.321413412011E+03    0.16028E-04   -0.12141E-03  9744   0.162E-01    0.159E-01
DAV:   5    -0.321413331021E+03    0.80990E-04   -0.56272E-04  9856   0.103E-01    0.731E-02
DAV:   6    -0.321413350673E+03   -0.19652E-04   -0.14495E-04 10200   0.386E-02    0.305E-02
DAV:   7    -0.321413350288E+03    0.38567E-06   -0.38760E-05  7616   0.306E-02
  21 F= -.32141335E+03 E0= -.32141154E+03  d E =0.474343E-02  mag=    -0.0000
       N       E                     dE             d eps       ncg     rms          rms(c)
DAV:   1    -0.320948361872E+03    0.46499E+00   -0.25215E+01  7712   0.219E+01    0.232E+00
DAV:   2    -0.321401928431E+03   -0.45357E+00   -0.47679E+00  7424   0.559E+00    0.996E-01
DAV:   3    -0.321409098405E+03   -0.71700E-02   -0.13396E-01  9856   0.121E+00    0.786E-01
DAV:   4    -0.321408030208E+03    0.10682E-02   -0.19092E-02  9776   0.644E-01    0.651E-01
DAV:   5    -0.321406569700E+03    0.14605E-02   -0.71360E-03  9904   0.315E-01    0.351E-01
DAV:   6    -0.321406802333E+03   -0.23263E-03   -0.27864E-03 10216   0.181E-01    0.142E-01
DAV:   7    -0.321406766891E+03    0.35442E-04   -0.98541E-04  9976   0.153E-01    0.108E-01
DAV:   8    -0.321406761893E+03    0.49976E-05   -0.12721E-04  9680   0.501E-02    0.681E-02
DAV:   9    -0.321406744452E+03    0.17442E-04   -0.71495E-05  9024   0.306E-02    0.332E-02
DAV:  10    -0.321406741195E+03    0.32564E-05   -0.51012E-05  8304   0.289E-02
  22 F= -.32140674E+03 E0= -.32140510E+03  d E =0.660909E-02  mag=    -0.0000
       N       E                     dE             d eps       ncg     rms          rms(c)
DAV:   1    -0.321325240264E+03    0.81504E-01   -0.36248E+00  7984   0.953E+00    0.100E+00
DAV:   2    -0.321412581031E+03   -0.87341E-01   -0.91538E-01  7424   0.244E+00    0.502E-01
DAV:   3    -0.321414308423E+03   -0.17274E-02   -0.33525E-02 10000   0.616E-01    0.331E-01
DAV:   4    -0.321413949173E+03    0.35925E-03   -0.69020E-03  9920   0.386E-01    0.292E-01
DAV:   5    -0.321413594525E+03    0.35465E-03   -0.16337E-03 10144   0.161E-01    0.170E-01
DAV:   6    -0.321413560299E+03    0.34226E-04   -0.73475E-04  9952   0.865E-02    0.874E-02
DAV:   7    -0.321413573844E+03   -0.13544E-04   -0.32684E-04 10216   0.790E-02    0.907E-02
DAV:   8    -0.321413563825E+03    0.10019E-04   -0.84510E-05  9568   0.448E-02    0.716E-02
DAV:   9    -0.321413559468E+03    0.43568E-05   -0.95949E-06  4184   0.124E-02
  23 F= -.32141356E+03 E0= -.32141190E+03  d E =-.681827E-02  mag=    -0.0000
       N       E                     dE             d eps       ncg     rms          rms(c)
DAV:   1    -0.321330334794E+03    0.83229E-01   -0.37498E+00  7664   0.935E+00    0.814E-01
DAV:   2    -0.321416252930E+03   -0.85918E-01   -0.89702E-01  7424   0.239E+00    0.394E-01
DAV:   3    -0.321417940630E+03   -0.16877E-02   -0.24546E-02  9856   0.460E-01    0.265E-01
DAV:   4    -0.321417920930E+03    0.19699E-04   -0.27478E-03  9808   0.230E-01    0.225E-01
DAV:   5    -0.321417749696E+03    0.17123E-03   -0.11879E-03 10000   0.153E-01    0.121E-01
DAV:   6    -0.321417771247E+03   -0.21552E-04   -0.37252E-04 10120   0.651E-02    0.548E-02
DAV:   7    -0.321417776316E+03   -0.50682E-05   -0.94641E-05  9528   0.433E-02
  24 F= -.32141778E+03 E0= -.32141607E+03  d E =-.421685E-02  mag=     0.0000
       N       E                     dE             d eps       ncg     rms          rms(c)
DAV:   1    -0.321404341598E+03    0.13430E-01   -0.26783E-01  7584   0.227E+00    0.302E-01
DAV:   2    -0.321409861636E+03   -0.55200E-02   -0.57636E-02  7504   0.640E-01    0.150E-01
DAV:   3    -0.321409908706E+03   -0.47070E-04   -0.23161E-03  9960   0.197E-01    0.990E-02
DAV:   4    -0.321409868158E+03    0.40548E-04   -0.55810E-04 10096   0.112E-01    0.869E-02
DAV:   5    -0.321409842801E+03    0.25357E-04   -0.14755E-04  9656   0.414E-02    0.460E-02
DAV:   6    -0.321409846740E+03   -0.39391E-05   -0.48337E-05  8192   0.244E-02
  25 F= -.32140985E+03 E0= -.32140817E+03  d E =0.792958E-02  mag=     0.0000
       N       E                     dE             d eps       ncg     rms          rms(c)
DAV:   1    -0.321408683893E+03    0.11589E-02   -0.12038E-01  7808   0.140E+00    0.179E-01
DAV:   2    -0.321410576459E+03   -0.18926E-02   -0.19988E-02  7488   0.371E-01    0.842E-02
DAV:   3    -0.321410590621E+03   -0.14162E-04   -0.69874E-04  9872   0.107E-01    0.659E-02
DAV:   4    -0.321410577104E+03    0.13518E-04   -0.13405E-04  9392   0.565E-02    0.549E-02
DAV:   5    -0.321410565998E+03    0.11106E-04   -0.40187E-05  7128   0.215E-02    0.325E-02
DAV:   6    -0.321410565718E+03    0.27979E-06   -0.15683E-05  4256   0.144E-02
  26 F= -.32141057E+03 E0= -.32140889E+03  d E =-.718978E-03  mag=    -0.0000
