       N       E                     dE             d eps       ncg     rms          ort
DAV:   1     0.429889001356E+04    0.42989E+04   -0.16612E+05  1704   0.167E+03
DAV:   2     0.136892862533E+03   -0.41620E+04   -0.40533E+04  1704   0.486E+02
DAV:   3    -0.692701044152E+03   -0.82959E+03   -0.79587E+03  1704   0.179E+02
DAV:   4    -0.759334867172E+03   -0.66634E+02   -0.66189E+02  1704   0.534E+01
DAV:   5    -0.760849863337E+03   -0.15150E+01   -0.15112E+01  1704   0.967E+00
SDA:   6    -0.441662298842E+03    0.31919E+03   -0.15112E+01  1704   0.940E+03 0.000E+00
CGA:   7    -0.573639369553E+03   -0.13198E+03   -0.12777E+03  1704   0.125E+03-0.313E+01
CGA:   8    -0.596798275457E+03   -0.23159E+02   -0.23120E+02  1704   0.533E+02-0.152E+01
CGA:   9    -0.607778030877E+03   -0.10980E+02   -0.10978E+02  1704   0.213E+02 0.168E+00
CGA:  10    -0.612276379004E+03   -0.44983E+01   -0.44979E+01  1704   0.685E+01 0.461E-01
CGA:  11    -0.613562083135E+03   -0.12857E+01   -0.12854E+01  1704   0.210E+01-0.337E-01
CGA:  12    -0.614043329862E+03   -0.48125E+00   -0.48185E+00  1704   0.894E+00-0.182E-01
CGA:  13    -0.614276743937E+03   -0.23341E+00   -0.23580E+00  1704   0.396E+00-0.345E-01
CGA:  14    -0.614382591829E+03   -0.10585E+00   -0.10753E+00  1704   0.199E+00-0.206E-01
CGA:  15    -0.614435601353E+03   -0.53010E-01   -0.53036E-01  1704   0.103E+00-0.626E-03
CGA:  16    -0.614464000622E+03   -0.28399E-01   -0.28755E-01  1704   0.403E-01-0.511E-02
CGA:  17    -0.614476167389E+03   -0.12167E-01   -0.12521E-01  1704   0.167E-01-0.311E-02
CGA:  18    -0.614480983558E+03   -0.48162E-02   -0.50136E-02  1704   0.962E-02-0.188E-02
CGA:  19    -0.614483659861E+03   -0.26763E-02   -0.30580E-02  1704   0.891E-02-0.285E-02
CGA:  20    -0.614484861629E+03   -0.12018E-02   -0.11952E-02  1704   0.429E-02-0.156E-03
CGA:  21    -0.614485694343E+03   -0.83271E-03   -0.85243E-03  1704   0.227E-02 0.738E-03
CGA:  22    -0.614486220395E+03   -0.52605E-03   -0.53139E-03  1704   0.991E-03 0.193E-03
CGA:  23    -0.614486442838E+03   -0.22244E-03   -0.22388E-03  1704   0.562E-03 0.806E-04
CGA:  24    -0.614486518938E+03   -0.76100E-04   -0.94660E-04  1704   0.294E-03 0.267E-03
CGA:  25    -0.614486561097E+03   -0.42159E-04   -0.58251E-04  1704   0.157E-03 0.184E-03
CGA:  26    -0.614486225602E+03    0.33549E-03   -0.18563E-03  1704   0.383E-02-0.473E-03
CGA:  27    -0.614486525342E+03   -0.29974E-03   -0.42225E-03  1704   0.338E-03 0.405E-03
CGA:  28    -0.614486547313E+03   -0.21972E-04   -0.53300E-04  1704   0.106E-03 0.131E-03
CGA:  29    -0.614486572776E+03   -0.25463E-04   -0.28191E-04  1704   0.310E-04 0.153E-04
CGA:  30    -0.614486581163E+03   -0.83870E-05   -0.72435E-05  1704   0.153E-04-0.726E-05
   1 F= -.61448658E+03 E0= -.61448497E+03  d E =-.614487E+03  mag=     0.0007
       N       E                     dE             d eps       ncg     rms          ort
SDA:   1    -0.614481137836E+03    0.54349E-02    0.00000E+00  1704   0.406E-01 0.000E+00
CGA:   2    -0.614485065847E+03   -0.39280E-02   -0.39762E-02  1704   0.421E-02 0.895E-04
CGA:   3    -0.614486333667E+03   -0.12678E-02   -0.12748E-02  1704   0.161E-02 0.268E-03
CGA:   4    -0.614486630573E+03   -0.29691E-03   -0.29713E-03  1704   0.382E-03-0.108E-05
CGA:   5    -0.614486704907E+03   -0.74334E-04   -0.76888E-04  1704   0.119E-03 0.216E-04
CGA:   6    -0.614486737390E+03   -0.32482E-04   -0.31391E-04  1704   0.611E-04-0.172E-04
CGA:   7    -0.614486748186E+03   -0.10796E-04   -0.10657E-04  1704   0.196E-04-0.133E-05
CGA:   8    -0.614486748824E+03   -0.63840E-06   -0.23946E-05  1704   0.736E-05 0.975E-05
   2 F= -.61448675E+03 E0= -.61448513E+03  d E =-.167661E-03  mag=     0.0003
       N       E                     dE             d eps       ncg     rms          ort
SDA:   1    -0.614471623358E+03    0.15125E-01    0.00000E+00  1704   0.110E+00 0.000E+00
CGA:   2    -0.614482230160E+03   -0.10607E-01   -0.10688E-01  1704   0.112E-01 0.139E-03
CGA:   3    -0.614485680614E+03   -0.34505E-02   -0.34341E-02  1704   0.441E-02 0.529E-03
CGA:   4    -0.614486474055E+03   -0.79344E-03   -0.79190E-03  1704   0.102E-02-0.212E-04
CGA:   5    -0.614486685066E+03   -0.21101E-03   -0.21270E-03  1704   0.343E-03 0.265E-04
CGA:   6    -0.614486770680E+03   -0.85614E-04   -0.84361E-04  1704   0.159E-03-0.436E-04
CGA:   7    -0.614486801082E+03   -0.30401E-04   -0.29934E-04  1704   0.571E-04-0.910E-05
CGA:   8    -0.614486807579E+03   -0.64969E-05   -0.85480E-05  1704   0.165E-04 0.193E-04
   3 F= -.61448681E+03 E0= -.61448517E+03  d E =-.226416E-03  mag=     0.0001
       N       E                     dE             d eps       ncg     rms          ort
SDA:   1    -0.614485874075E+03    0.92701E-03    0.00000E+00  1704   0.704E-02 0.000E+00
CGA:   2    -0.614486567585E+03   -0.69351E-03   -0.68921E-03  1704   0.732E-03-0.461E-04
CGA:   3    -0.614486797797E+03   -0.23021E-03   -0.23089E-03  1704   0.335E-03-0.996E-05
CGA:   4    -0.614486859156E+03   -0.61359E-04   -0.59062E-04  1704   0.908E-04-0.335E-04
CGA:   5    -0.614486871452E+03   -0.12296E-04   -0.13422E-04  1704   0.244E-04 0.139E-04
CGA:   6    -0.614486874113E+03   -0.26607E-05   -0.39422E-05  1704   0.919E-05 0.127E-04
   4 F= -.61448687E+03 E0= -.61448523E+03  d E =-.665341E-04  mag=     0.0001
       N       E                     dE             d eps       ncg     rms          ort
SDA:   1    -0.614478485827E+03    0.83856E-02    0.00000E+00  1704   0.596E-01 0.000E+00
CGA:   2    -0.614484330841E+03   -0.58450E-02   -0.58398E-02  1704   0.634E-02-0.194E-03
CGA:   3    -0.614486380570E+03   -0.20497E-02   -0.20530E-02  1704   0.293E-02-0.400E-04
CGA:   4    -0.614486868476E+03   -0.48791E-03   -0.48191E-03  1704   0.641E-03-0.943E-04
CGA:   5    -0.614486982660E+03   -0.11418E-03   -0.11605E-03  1704   0.185E-03 0.451E-04
CGA:   6    -0.614487017907E+03   -0.35247E-04   -0.36908E-04  1704   0.513E-04 0.413E-04
CGA:   7    -0.614487030431E+03   -0.12524E-04   -0.12888E-04  1704   0.190E-04 0.195E-04
CGA:   8    -0.614487039609E+03   -0.91780E-05   -0.92977E-05  1704   0.149E-04-0.937E-06
   5 F= -.61448704E+03 E0= -.61448537E+03  d E =-.232030E-03  mag=     0.0000
       N       E                     dE             d eps       ncg     rms          ort
SDA:   1    -0.614453101207E+03    0.33929E-01    0.00000E+00  1704   0.238E+00 0.000E+00
CGA:   2    -0.614476396418E+03   -0.23295E-01   -0.23310E-01  1704   0.255E-01-0.514E-03
CGA:   3    -0.614484590079E+03   -0.81937E-02   -0.81962E-02  1704   0.115E-01-0.519E-04
CGA:   4    -0.614486453395E+03   -0.18633E-02   -0.18517E-02  1704   0.238E-02-0.193E-03
CGA:   5    -0.614486911146E+03   -0.45775E-03   -0.46011E-03  1704   0.752E-03 0.903E-04
CGA:   6    -0.614487066544E+03   -0.15540E-03   -0.15709E-03  1704   0.212E-03 0.841E-04
CGA:   7    -0.614487119226E+03   -0.52682E-04   -0.52600E-04  1704   0.727E-04 0.378E-04
CGA:   8    -0.614487150104E+03   -0.30878E-04   -0.35378E-04  1704   0.611E-04-0.235E-04
CGA:   9    -0.614487155358E+03   -0.52538E-05   -0.60655E-05  1704   0.283E-04 0.969E-05
   6 F= -.61448716E+03 E0= -.61448544E+03  d E =-.347779E-03  mag=     0.0000
       N       E                     dE             d eps       ncg     rms          ort
SDA:   1    -0.614483722290E+03    0.34278E-02    0.00000E+00  1704   0.171E-01 0.000E+00
CGA:   2    -0.614485809309E+03   -0.20870E-02   -0.20886E-02  1704   0.462E-02-0.249E-04
CGA:   3    -0.614487024053E+03   -0.12147E-02   -0.12123E-02  1704   0.121E-02 0.483E-04
CGA:   4    -0.614487275141E+03   -0.25109E-03   -0.24991E-03  1704   0.528E-03-0.830E-04
CGA:   5    -0.614487353681E+03   -0.78540E-04   -0.81701E-04  1704   0.118E-03 0.608E-04
CGA:   6    -0.614487372980E+03   -0.19299E-04   -0.21229E-04  1704   0.401E-04 0.359E-04
CGA:   7    -0.614487386755E+03   -0.13776E-04   -0.13687E-04  1704   0.268E-04 0.181E-05
CGA:   8    -0.614487391310E+03   -0.45547E-05   -0.47039E-05  1704   0.109E-04 0.317E-05
   7 F= -.61448739E+03 E0= -.61448566E+03  d E =-.235952E-03  mag=     0.0000
       N       E                     dE             d eps       ncg     rms          ort
SDA:   1    -0.614482931237E+03    0.44555E-02    0.00000E+00  1704   0.214E-01 0.000E+00
CGA:   2    -0.614485547303E+03   -0.26161E-02   -0.26174E-02  1704   0.580E-02-0.356E-04
CGA:   3    -0.614487067471E+03   -0.15202E-02   -0.15167E-02  1704   0.155E-02 0.579E-04
CGA:   4    -0.614487387099E+03   -0.31963E-03   -0.31908E-03  1704   0.676E-03-0.962E-04
CGA:   5    -0.614487492345E+03   -0.10525E-03   -0.10812E-03  1704   0.151E-03 0.739E-04
CGA:   6    -0.614487518550E+03   -0.26205E-04   -0.27926E-04  1704   0.502E-04 0.425E-04
CGA:   7    -0.614487536454E+03   -0.17903E-04   -0.17888E-04  1704   0.328E-04 0.188E-06
CGA:   8    -0.614487541622E+03   -0.51687E-05   -0.53756E-05  1704   0.134E-04 0.453E-05
   8 F= -.61448754E+03 E0= -.61448580E+03  d E =-.386264E-03  mag=     0.0000
       N       E                     dE             d eps       ncg     rms          ort
SDA:   1    -0.614486566135E+03    0.97032E-03    0.00000E+00  1704   0.463E-02 0.000E+00
CGA:   2    -0.614487139319E+03   -0.57318E-03   -0.57329E-03  1704   0.129E-02-0.971E-05
CGA:   3    -0.614487471399E+03   -0.33208E-03   -0.33076E-03  1704   0.333E-03 0.224E-04
CGA:   4    -0.614487545779E+03   -0.74379E-04   -0.75306E-04  1704   0.178E-03-0.517E-04
CGA:   5    -0.614487564877E+03   -0.19099E-04   -0.21243E-04  1704   0.433E-04 0.334E-04
CGA:   6    -0.614487568324E+03   -0.34465E-05   -0.54370E-05  1704   0.168E-04 0.207E-04
   9 F= -.61448757E+03 E0= -.61448582E+03  d E =-.412966E-03  mag=     0.0000
       N       E                     dE             d eps       ncg     rms          ort
SDA:   1    -0.614483550545E+03    0.40143E-02    0.00000E+00  1704   0.186E-01 0.000E+00
CGA:   2    -0.614485804611E+03   -0.22541E-02   -0.22549E-02  1704   0.499E-02-0.317E-04
CGA:   3    -0.614487118462E+03   -0.13139E-02   -0.13098E-02  1704   0.139E-02 0.519E-04
CGA:   4    -0.614487413279E+03   -0.29482E-03   -0.29673E-03  1704   0.646E-03-0.109E-03
CGA:   5    -0.614487508877E+03   -0.95598E-04   -0.97907E-04  1704   0.138E-03 0.767E-04
CGA:   6    -0.614487531019E+03   -0.22142E-04   -0.23829E-04  1704   0.475E-04 0.441E-04
CGA:   7    -0.614487546739E+03   -0.15719E-04   -0.15515E-04  1704   0.312E-04 0.364E-05
CGA:   8    -0.614487553089E+03   -0.63505E-05   -0.63543E-05  1704   0.138E-04 0.818E-06
  10 F= -.61448755E+03 E0= -.61448579E+03  d E =-.397731E-03  mag=     0.0000
       N       E                     dE             d eps       ncg     rms          ort
SDA:   1    -0.614485762638E+03    0.17841E-02    0.00000E+00  1704   0.854E-02 0.000E+00
CGA:   2    -0.614486782637E+03   -0.10200E-02   -0.10224E-02  1704   0.222E-02 0.119E-04
CGA:   3    -0.614487385916E+03   -0.60328E-03   -0.60594E-03  1704   0.648E-03-0.336E-04
CGA:   4    -0.614487496478E+03   -0.11056E-03   -0.11161E-03  1704   0.211E-03 0.538E-04
CGA:   5    -0.614487553515E+03   -0.57037E-04   -0.61508E-04  1704   0.103E-03-0.594E-04
CGA:   6    -0.614487569510E+03   -0.15995E-04   -0.16520E-04  1704   0.471E-04-0.198E-04
CGA:   7    -0.614487576913E+03   -0.74031E-05   -0.74036E-05  1704   0.130E-04 0.380E-06
  11 F= -.61448758E+03 E0= -.61448582E+03  d E =-.421555E-03  mag=     0.0000
       N       E                     dE             d eps       ncg     rms          ort
SDA:   1    -0.614487452778E+03    0.11673E-03    0.00000E+00  1704   0.614E-03 0.000E+00
CGA:   2    -0.614487526187E+03   -0.73409E-04   -0.73568E-04  1704   0.151E-03 0.592E-06
CGA:   3    -0.614487565267E+03   -0.39079E-04   -0.39088E-04  1704   0.368E-04-0.236E-06
CGA:   4    -0.614487569446E+03   -0.41794E-05   -0.48948E-05  1704   0.116E-04 0.117E-04
  12 F= -.61448757E+03 E0= -.61448582E+03  d E =-.414088E-03  mag=    -0.0000
       N       E                     dE             d eps       ncg     rms          ort
SDA:   1    -0.614487543781E+03    0.21486E-04    0.00000E+00  1704   0.164E-03 0.000E+00
CGA:   2    -0.614487563131E+03   -0.19350E-04   -0.19038E-04  1704   0.424E-04-0.403E-05
CGA:   3    -0.614487576949E+03   -0.13819E-04   -0.14737E-04  1704   0.107E-04-0.581E-05
CGA:   4    -0.614487556842E+03    0.20108E-04   -0.74067E-05  1704   0.302E-03-0.460E-04
CGA:   5    -0.614487577533E+03   -0.20691E-04   -0.25760E-04  1704   0.110E-04 0.338E-04
CGA:   6    -0.614487577853E+03   -0.31960E-06   -0.10499E-05  1704   0.358E-05 0.516E-05
  13 F= -.61448758E+03 E0= -.61448582E+03  d E =-.422495E-03  mag=     0.0000
       N       E                     dE             d eps       ncg     rms          ort
SDA:   1    -0.614487571689E+03    0.58442E-05    0.00000E+00  1704   0.408E-04 0.000E+00
CGA:   2    -0.614487576500E+03   -0.48113E-05   -0.47582E-05  1704   0.864E-05-0.648E-06
CGA:   3    -0.614487578894E+03   -0.23942E-05   -0.29095E-05  1704   0.566E-05-0.392E-05
CGA:   4    -0.614487581164E+03   -0.22696E-05    0.48470E-06  1704   0.315E-05-0.136E-05
  14 F= -.61448758E+03 E0= -.61448583E+03  d E =-.425806E-03  mag=     0.0000
       N       E                     dE             d eps       ncg     rms          ort
SDA:   1    -0.614487580698E+03   -0.18035E-05    0.00000E+00  1704   0.946E-05 0.000E+00
CGA:   2    -0.614487581508E+03   -0.80991E-06   -0.86515E-06  1704   0.809E-06 0.458E-06
CGA:   3    -0.614487581404E+03    0.10366E-06   -0.26546E-07  1704   0.669E-06 0.754E-06
CGA:   4    -0.614487581324E+03    0.80228E-07   -0.19906E-07  1704   0.568E-06 0.607E-06
  15 F= -.61448758E+03 E0= -.61448583E+03  d E =-.425966E-03  mag=     0.0000
       N       E                     dE             d eps       ncg     rms          ort
SDA:   1    -0.614487580718E+03    0.68623E-06    0.00000E+00  1704   0.408E-05 0.000E+00
CGA:   2    -0.614487580643E+03    0.74375E-07   -0.18917E-06  1704   0.999E-06 0.198E-05
CGA:   3    -0.614487580558E+03    0.85256E-07   -0.41387E-07  1704   0.385E-06 0.874E-06
CGA:   4    -0.614487580525E+03    0.32738E-07   -0.10484E-07  1704   0.254E-06 0.313E-06
  16 F= -.61448758E+03 E0= -.61448582E+03  d E =-.425167E-03  mag=     0.0000
       N       E                     dE             d eps       ncg     rms          ort
SDA:   1    -0.614486788662E+03    0.79190E-03    0.00000E+00  1704   0.593E-02 0.000E+00
CGA:   2    -0.614487371776E+03   -0.58311E-03   -0.60541E-03  1704   0.914E-03 0.438E-03
CGA:   3    -0.614487548932E+03   -0.17716E-03   -0.16945E-03  1704   0.309E-03 0.328E-03
CGA:   4    -0.614487613647E+03   -0.64716E-04   -0.64377E-04  1704   0.112E-03 0.109E-03
CGA:   5    -0.614487634808E+03   -0.21161E-04   -0.21674E-04  1704   0.401E-04 0.679E-04
CGA:   6    -0.614487646638E+03   -0.11830E-04   -0.13194E-04  1704   0.430E-04-0.766E-05
CGA:   7    -0.614487660073E+03   -0.13435E-04    0.12876E-04  1704   0.140E-04 0.913E-05
CGA:   8    -0.614487663454E+03   -0.33809E-05   -0.36838E-05  1704   0.914E-05-0.528E-05
  17 F= -.61448766E+03 E0= -.61448592E+03  d E =-.829287E-04  mag=     0.0000
       N       E                     dE             d eps       ncg     rms          ort
SDA:   1    -0.614487666618E+03   -0.65450E-05    0.00000E+00  1704   0.208E-04 0.000E+00
CGA:   2    -0.614487666298E+03    0.32039E-06   -0.92267E-06  1704   0.629E-05 0.112E-04
CGA:   3    -0.614487665871E+03    0.42687E-06   -0.17304E-06  1704   0.383E-05 0.491E-05
CGA:   4    -0.614487665547E+03    0.32371E-06   -0.81055E-07  1704   0.285E-05 0.331E-05
  18 F= -.61448767E+03 E0= -.61448592E+03  d E =-.850219E-04  mag=     0.0000
