       N       E                     dE             d eps       ncg     rms          ort
DAV:   1     0.284150213717E+04    0.28415E+04   -0.29343E+05 18360   0.141E+03
DAV:   2    -0.970174046847E+03   -0.38117E+04   -0.36743E+04 18360   0.312E+02
DAV:   3    -0.123075022596E+04   -0.26058E+03   -0.25893E+03 18360   0.853E+01
DAV:   4    -0.123380054428E+04   -0.30503E+01   -0.30399E+01 18360   0.982E+00
DAV:   5    -0.123385024744E+04   -0.49703E-01   -0.49595E-01 18360   0.115E+00
SDA:   6    -0.872772825033E+03    0.36108E+03   -0.49595E-01 18360   0.619E+03 0.000E+00
CGA:   7    -0.985784085802E+03   -0.11301E+03   -0.11282E+03 18360   0.441E+02-0.265E+01
CGA:   8    -0.998956796527E+03   -0.13173E+02   -0.13147E+02 18360   0.105E+02 0.218E+00
CGA:   9    -0.100280548737E+04   -0.38487E+01   -0.38503E+01 18360   0.401E+01-0.142E-01
CGA:  10    -0.100407338376E+04   -0.12679E+01   -0.12715E+01 18360   0.867E+00-0.314E-01
CGA:  11    -0.100440817189E+04   -0.33479E+00   -0.33504E+00 18360   0.188E+00-0.126E-02
CGA:  12    -0.100447327726E+04   -0.65105E-01   -0.65104E-01 18360   0.432E-01-0.204E-04
CGA:  13    -0.100448958623E+04   -0.16309E-01   -0.16423E-01 18360   0.988E-02-0.786E-03
CGA:  14    -0.100449329161E+04   -0.37054E-02   -0.36273E-02 18360   0.216E-02 0.576E-03
CGA:  15    -0.100449424078E+04   -0.94917E-03   -0.91867E-03 18360   0.536E-03 0.195E-03
CGA:  16    -0.100449451924E+04   -0.27847E-03   -0.37242E-03 18360   0.392E-03-0.246E-03
CGA:  17    -0.100449458320E+04   -0.63957E-04   -0.63826E-04 18360   0.155E-03 0.427E-05
CGA:  18    -0.100449461125E+04   -0.28048E-04   -0.31360E-04 18360   0.623E-04 0.443E-04
CGA:  19    -0.100449462443E+04   -0.13177E-04   -0.15531E-04 18360   0.323E-04 0.307E-04
CGA:  20    -0.100449463432E+04   -0.98949E-05   -0.10541E-04 18360   0.142E-04 0.134E-04
   1 F= -.10044946E+04 E0= -.10044946E+04  d E =-.100449E+04  mag=    -0.0000
       N       E                     dE             d eps       ncg     rms          ort
SDA:   1    -0.100450015647E+04   -0.55320E-02    0.00000E+00 18360   0.480E-02 0.000E+00
CGA:   2    -0.100450186510E+04   -0.17086E-02   -0.17061E-02 18360   0.119E-02 0.297E-04
CGA:   3    -0.100450217757E+04   -0.31248E-03   -0.31215E-03 18360   0.186E-03-0.240E-04
CGA:   4    -0.100450223173E+04   -0.54153E-04   -0.54047E-04 18360   0.300E-04 0.464E-05
CGA:   5    -0.100450224173E+04   -0.10009E-04   -0.99176E-05 18360   0.798E-05 0.194E-05
CGA:   6    -0.100450224501E+04   -0.32783E-05   -0.32565E-05 18360   0.256E-05 0.207E-06
   2 F= -.10045022E+04 E0= -.10045022E+04  d E =-.761069E-02  mag=     0.0000
       N       E                     dE             d eps       ncg     rms          ort
SDA:   1    -0.100445574223E+04    0.46500E-01    0.00000E+00 18360   0.182E+00 0.000E+00
CGA:   2    -0.100452082035E+04   -0.65078E-01   -0.65074E-01 18360   0.451E-01 0.140E-03
CGA:   3    -0.100453239206E+04   -0.11572E-01   -0.11564E-01 18360   0.671E-02-0.119E-03
CGA:   4    -0.100453446578E+04   -0.20737E-02   -0.20737E-02 18360   0.118E-02-0.416E-06
CGA:   5    -0.100453485623E+04   -0.39045E-03   -0.39021E-03 18360   0.322E-03 0.163E-04
CGA:   6    -0.100453498264E+04   -0.12641E-03   -0.12685E-03 18360   0.101E-03-0.611E-05
CGA:   7    -0.100453502013E+04   -0.37487E-04   -0.37639E-04 18360   0.253E-04-0.250E-05
CGA:   8    -0.100453502985E+04   -0.97188E-05   -0.99215E-05 18360   0.578E-05-0.261E-05
   3 F= -.10045350E+04 E0= -.10045350E+04  d E =-.327848E-01  mag=     0.0000
       N       E                     dE             d eps       ncg     rms          ort
SDA:   1    -0.100447237148E+04    0.62649E-01    0.00000E+00 18360   0.166E+00 0.000E+00
CGA:   2    -0.100453162005E+04   -0.59249E-01   -0.59242E-01 18360   0.408E-01 0.217E-03
CGA:   3    -0.100454217794E+04   -0.10558E-01   -0.10550E-01 18360   0.618E-02-0.120E-03
CGA:   4    -0.100454407987E+04   -0.19019E-02   -0.19014E-02 18360   0.106E-02-0.356E-04
CGA:   5    -0.100454443387E+04   -0.35400E-03   -0.35383E-03 18360   0.290E-03 0.144E-04
CGA:   6    -0.100454454592E+04   -0.11205E-03   -0.11192E-03 18360   0.859E-04 0.233E-05
CGA:   7    -0.100454458182E+04   -0.35903E-04   -0.36820E-04 18360   0.267E-04-0.923E-05
CGA:   8    -0.100454459060E+04   -0.87744E-05   -0.88745E-05 18360   0.522E-05-0.238E-05
   4 F= -.10045446E+04 E0= -.10045446E+04  d E =-.956075E-02  mag=     0.0000
       N       E                     dE             d eps       ncg     rms          ort
SDA:   1    -0.100454334199E+04    0.12398E-02    0.00000E+00 18360   0.465E-02 0.000E+00
CGA:   2    -0.100454495428E+04   -0.16123E-02   -0.16117E-02 18360   0.955E-03 0.294E-04
CGA:   3    -0.100454522526E+04   -0.27099E-03   -0.27103E-03 18360   0.155E-03 0.103E-05
CGA:   4    -0.100454527328E+04   -0.48013E-04   -0.47535E-04 18360   0.342E-04-0.249E-04
CGA:   5    -0.100454528122E+04   -0.79407E-05   -0.80170E-05 18360   0.659E-05 0.165E-05
   5 F= -.10045453E+04 E0= -.10045453E+04  d E =-.690618E-03  mag=    -0.0000
       N       E                     dE             d eps       ncg     rms          ort
SDA:   1    -0.100440295395E+04    0.14232E+00    0.00000E+00 18360   0.346E+00 0.000E+00
CGA:   2    -0.100452606289E+04   -0.12311E+00   -0.12310E+00 18360   0.703E-01 0.233E-03
CGA:   3    -0.100454494103E+04   -0.18878E-01   -0.18875E-01 18360   0.110E-01-0.304E-04
CGA:   4    -0.100454781757E+04   -0.28765E-02   -0.28701E-02 18360   0.162E-02-0.116E-03
CGA:   5    -0.100454833405E+04   -0.51648E-03   -0.51654E-03 18360   0.375E-03-0.734E-05
CGA:   6    -0.100454847309E+04   -0.13905E-03   -0.13768E-03 18360   0.110E-03 0.253E-04
CGA:   7    -0.100454852883E+04   -0.55742E-04   -0.61386E-04 18360   0.582E-04-0.271E-04
CGA:   8    -0.100454854178E+04   -0.12944E-04   -0.12978E-04 18360   0.109E-04 0.111E-05
CGA:   9    -0.100454854398E+04   -0.22016E-05   -0.24827E-05 18360   0.325E-05 0.277E-05
   6 F= -.10045485E+04 E0= -.10045485E+04  d E =-.326276E-02  mag=    -0.0000
       N       E                     dE             d eps       ncg     rms          ort
SDA:   1    -0.100448506111E+04    0.63481E-01    0.00000E+00 18360   0.157E+00 0.000E+00
CGA:   2    -0.100454220336E+04   -0.57142E-01   -0.57153E-01 18360   0.318E-01-0.224E-03
CGA:   3    -0.100455040949E+04   -0.82061E-02   -0.82100E-02 18360   0.491E-02 0.600E-04
CGA:   4    -0.100455167460E+04   -0.12651E-02   -0.12689E-02 18360   0.701E-03 0.637E-04
CGA:   5    -0.100455190634E+04   -0.23174E-03   -0.23178E-03 18360   0.160E-03-0.329E-05
CGA:   6    -0.100455197008E+04   -0.63743E-04   -0.64132E-04 18360   0.547E-04-0.444E-05
CGA:   7    -0.100455198808E+04   -0.17995E-04   -0.17881E-04 18360   0.128E-04 0.712E-05
CGA:   8    -0.100455199335E+04   -0.52685E-05   -0.52142E-05 18360   0.257E-05 0.140E-05
   7 F= -.10045520E+04 E0= -.10045520E+04  d E =-.344937E-02  mag=    -0.0000
       N       E                     dE             d eps       ncg     rms          ort
SDA:   1    -0.100441220686E+04    0.13978E+00    0.00000E+00 18360   0.332E+00 0.000E+00
CGA:   2    -0.100453555253E+04   -0.12335E+00   -0.12335E+00 18360   0.660E-01-0.154E-03
CGA:   3    -0.100455238349E+04   -0.16831E-01   -0.16828E-01 18360   0.974E-02-0.470E-04
CGA:   4    -0.100455486188E+04   -0.24784E-02   -0.24849E-02 18360   0.140E-02 0.908E-04
CGA:   5    -0.100455530892E+04   -0.44705E-03   -0.44709E-03 18360   0.287E-03 0.629E-05
CGA:   6    -0.100455542635E+04   -0.11742E-03   -0.11871E-03 18360   0.104E-03-0.145E-04
CGA:   7    -0.100455546086E+04   -0.34512E-04   -0.34299E-04 18360   0.251E-04 0.104E-04
CGA:   8    -0.100455547169E+04   -0.10830E-04   -0.10838E-04 18360   0.553E-05-0.117E-06
CGA:   9    -0.100455547354E+04   -0.18529E-05   -0.18512E-05 18360   0.894E-06 0.346E-06
   8 F= -.10045555E+04 E0= -.10045555E+04  d E =-.348019E-02  mag=     0.0000
       N       E                     dE             d eps       ncg     rms          ort
SDA:   1    -0.100440255789E+04    0.15291E+00    0.00000E+00 18360   0.367E+00 0.000E+00
CGA:   2    -0.100453611699E+04   -0.13356E+00   -0.13356E+00 18360   0.730E-01 0.859E-04
CGA:   3    -0.100455481070E+04   -0.18694E-01   -0.18685E-01 18360   0.110E-01-0.116E-03
CGA:   4    -0.100455762359E+04   -0.28129E-02   -0.28102E-02 18360   0.154E-02-0.377E-04
CGA:   5    -0.100455809777E+04   -0.47418E-03   -0.47444E-03 18360   0.290E-03 0.195E-04
CGA:   6    -0.100455821213E+04   -0.11436E-03   -0.11410E-03 18360   0.929E-04 0.411E-05
CGA:   7    -0.100455825453E+04   -0.42406E-04   -0.44543E-04 18360   0.406E-04-0.145E-04
CGA:   8    -0.100455826529E+04   -0.10761E-04   -0.10789E-04 18360   0.647E-05 0.156E-05
CGA:   9    -0.100455826677E+04   -0.14771E-05   -0.16477E-05 18360   0.167E-05 0.196E-05
   9 F= -.10045583E+04 E0= -.10045583E+04  d E =-.279323E-02  mag=     0.0000
       N       E                     dE             d eps       ncg     rms          ort
SDA:   1    -0.100454140747E+04    0.16858E-01    0.00000E+00 18360   0.398E-01 0.000E+00
CGA:   2    -0.100455583788E+04   -0.14430E-01   -0.14432E-01 18360   0.965E-02-0.530E-04
CGA:   3    -0.100455822942E+04   -0.23915E-02   -0.23947E-02 18360   0.143E-02 0.406E-04
CGA:   4    -0.100455867359E+04   -0.44417E-03   -0.44377E-03 18360   0.252E-03-0.273E-04
CGA:   5    -0.100455875364E+04   -0.80047E-04   -0.80045E-04 18360   0.652E-04 0.244E-05
CGA:   6    -0.100455877617E+04   -0.22532E-04   -0.22423E-04 18360   0.170E-04 0.609E-05
CGA:   7    -0.100455878484E+04   -0.86681E-05   -0.95320E-05 18360   0.887E-05-0.459E-05
  10 F= -.10045588E+04 E0= -.10045588E+04  d E =-.518066E-03  mag=    -0.0000
       N       E                     dE             d eps       ncg     rms          ort
SDA:   1    -0.100455575116E+04    0.30250E-02    0.00000E+00 18360   0.907E-02 0.000E+00
CGA:   2    -0.100455903494E+04   -0.32838E-02   -0.32829E-02 18360   0.207E-02 0.266E-04
CGA:   3    -0.100455956753E+04   -0.53258E-03   -0.53034E-03 18360   0.320E-03-0.307E-04
CGA:   4    -0.100455965370E+04   -0.86171E-04   -0.86820E-04 18360   0.477E-04 0.128E-04
CGA:   5    -0.100455966859E+04   -0.14894E-04   -0.15000E-04 18360   0.113E-04 0.506E-05
CGA:   6    -0.100455967430E+04   -0.57107E-05   -0.75621E-05 18360   0.123E-04-0.649E-05
  11 F= -.10045597E+04 E0= -.10045597E+04  d E =-.889465E-03  mag=     0.0000
       N       E                     dE             d eps       ncg     rms          ort
SDA:   1    -0.100453116302E+04    0.28506E-01    0.00000E+00 18360   0.684E-01 0.000E+00
CGA:   2    -0.100455695849E+04   -0.25795E-01   -0.25793E-01 18360   0.130E-01 0.529E-04
CGA:   3    -0.100456021575E+04   -0.32573E-02   -0.32522E-02 18360   0.197E-02-0.624E-04
CGA:   4    -0.100456071992E+04   -0.50417E-03   -0.50457E-03 18360   0.273E-03 0.576E-05
CGA:   5    -0.100456080135E+04   -0.81430E-04   -0.81707E-04 18360   0.477E-04 0.109E-04
CGA:   6    -0.100456082211E+04   -0.20756E-04   -0.21184E-04 18360   0.198E-04-0.407E-05
CGA:   7    -0.100456082910E+04   -0.69954E-05   -0.70369E-05 18360   0.585E-05-0.669E-06
  12 F= -.10045608E+04 E0= -.10045608E+04  d E =-.115480E-02  mag=     0.0000
       N       E                     dE             d eps       ncg     rms          ort
SDA:   1    -0.100440876836E+04    0.15205E+00    0.00000E+00 18360   0.350E+00 0.000E+00
CGA:   2    -0.100454444511E+04   -0.13568E+00   -0.13568E+00 18360   0.634E-01-0.119E-04
CGA:   3    -0.100456003301E+04   -0.15588E-01   -0.15581E-01 18360   0.960E-02-0.790E-04
CGA:   4    -0.100456250865E+04   -0.24756E-02   -0.24759E-02 18360   0.136E-02 0.343E-05
CGA:   5    -0.100456291716E+04   -0.40851E-03   -0.40899E-03 18360   0.237E-03 0.192E-04
CGA:   6    -0.100456301296E+04   -0.95793E-04   -0.96136E-04 18360   0.831E-04-0.461E-05
CGA:   7    -0.100456304697E+04   -0.34016E-04   -0.34472E-04 18360   0.274E-04-0.483E-05
CGA:   8    -0.100456305558E+04   -0.86113E-05   -0.86115E-05 18360   0.427E-05 0.241E-05
  13 F= -.10045631E+04 E0= -.10045631E+04  d E =-.222648E-02  mag=     0.0000
       N       E                     dE             d eps       ncg     rms          ort
SDA:   1    -0.100080144327E+04    0.37616E+01    0.00000E+00 18360   0.854E+01 0.000E+00
CGA:   2    -0.100409149827E+04   -0.32901E+01   -0.32899E+01 18360   0.158E+01 0.835E-03
CGA:   3    -0.100448173639E+04   -0.39024E+00   -0.39015E+00 18360   0.236E+00-0.790E-03
CGA:   4    -0.100454309483E+04   -0.61358E-01   -0.61354E-01 18360   0.345E-01-0.730E-04
CGA:   5    -0.100455374614E+04   -0.10651E-01   -0.10654E-01 18360   0.657E-02 0.133E-03
CGA:   6    -0.100455634136E+04   -0.25952E-02   -0.25967E-02 18360   0.224E-02-0.214E-04
CGA:   7    -0.100455726145E+04   -0.92009E-03   -0.92554E-03 18360   0.712E-03-0.644E-04
CGA:   8    -0.100455751366E+04   -0.25221E-03   -0.25196E-03 18360   0.117E-03 0.835E-05
CGA:   9    -0.100455755688E+04   -0.43222E-04   -0.43259E-04 18360   0.200E-04-0.117E-05
CGA:  10    -0.100455756554E+04   -0.86627E-05   -0.97764E-05 18360   0.779E-05-0.713E-05
  14 F= -.10045576E+04 E0= -.10045576E+04  d E =0.549004E-02  mag=     0.0000
       N       E                     dE             d eps       ncg     rms          ort
SDA:   1    -0.100390119661E+04    0.65636E+00    0.00000E+00 18360   0.151E+01 0.000E+00
CGA:   2    -0.100448354594E+04   -0.58235E+00   -0.58238E+00 18360   0.296E+00-0.633E-03
CGA:   3    -0.100455593242E+04   -0.72386E-01   -0.72398E-01 18360   0.435E-01 0.472E-04
CGA:   4    -0.100456775044E+04   -0.11818E-01   -0.11820E-01 18360   0.661E-02 0.241E-04
CGA:   5    -0.100456984536E+04   -0.20949E-02   -0.20944E-02 18360   0.140E-02-0.235E-04
CGA:   6    -0.100457037785E+04   -0.53249E-03   -0.53242E-03 18360   0.463E-03 0.174E-05
CGA:   7    -0.100457055910E+04   -0.18125E-03   -0.18097E-03 18360   0.131E-03 0.532E-05
CGA:   8    -0.100457061295E+04   -0.53857E-04   -0.54609E-04 18360   0.281E-04-0.104E-04
CGA:   9    -0.100457062208E+04   -0.91280E-05   -0.91371E-05 18360   0.462E-05-0.939E-06
  15 F= -.10045706E+04 E0= -.10045706E+04  d E =-.130565E-01  mag=    -0.0000
       N       E                     dE             d eps       ncg     rms          ort
SDA:   1    -0.100445222147E+04    0.11839E+00    0.00000E+00 18360   0.270E+00 0.000E+00
CGA:   2    -0.100455431405E+04   -0.10209E+00   -0.10210E+00 18360   0.526E-01-0.254E-03
CGA:   3    -0.100456746286E+04   -0.13149E-01   -0.13160E-01 18360   0.774E-02 0.115E-03
CGA:   4    -0.100456947092E+04   -0.20081E-02   -0.20097E-02 18360   0.111E-02 0.198E-04
CGA:   5    -0.100456982922E+04   -0.35830E-03   -0.35795E-03 18360   0.230E-03-0.254E-04
CGA:   6    -0.100456991305E+04   -0.83825E-04   -0.83651E-04 18360   0.703E-04 0.475E-05
CGA:   7    -0.100456994043E+04   -0.27383E-04   -0.27130E-04 18360   0.194E-04 0.614E-05
CGA:   8    -0.100456994954E+04   -0.91126E-05   -0.93296E-05 18360   0.496E-05-0.209E-05
  16 F= -.10045699E+04 E0= -.10045699E+04  d E =0.672540E-03  mag=    -0.0000
       N       E                     dE             d eps       ncg     rms          ort
SDA:   1    -0.100456084951E+04    0.90909E-02    0.00000E+00 18360   0.238E-01 0.000E+00
CGA:   2    -0.100456913129E+04   -0.82818E-02   -0.82817E-02 18360   0.514E-02-0.311E-04
CGA:   3    -0.100457047241E+04   -0.13411E-02   -0.13419E-02 18360   0.796E-03 0.947E-05
CGA:   4    -0.100457068503E+04   -0.21262E-03   -0.21380E-03 18360   0.115E-03 0.153E-04
CGA:   5    -0.100457072429E+04   -0.39261E-04   -0.39260E-04 18360   0.286E-04-0.138E-06
CGA:   6    -0.100457073646E+04   -0.12173E-04   -0.12490E-04 18360   0.115E-04-0.331E-05
CGA:   7    -0.100457073914E+04   -0.26783E-05   -0.28284E-05 18360   0.263E-05 0.219E-05
  17 F= -.10045707E+04 E0= -.10045707E+04  d E =-.789600E-03  mag=    -0.0000
       N       E                     dE             d eps       ncg     rms          ort
SDA:   1    -0.100456567458E+04    0.50619E-02    0.00000E+00 18360   0.132E-01 0.000E+00
CGA:   2    -0.100457056118E+04   -0.48866E-02   -0.48849E-02 18360   0.256E-02 0.519E-04
CGA:   3    -0.100457123640E+04   -0.67523E-03   -0.67255E-03 18360   0.400E-03-0.351E-04
CGA:   4    -0.100457134048E+04   -0.10408E-03   -0.10344E-03 18360   0.592E-04-0.889E-05
CGA:   5    -0.100457135635E+04   -0.15874E-04   -0.16185E-04 18360   0.103E-04 0.604E-05
CGA:   6    -0.100457136085E+04   -0.44988E-05   -0.44702E-05 18360   0.392E-05 0.437E-06
  18 F= -.10045714E+04 E0= -.10045714E+04  d E =-.621710E-03  mag=    -0.0000
