       N       E                     dE             d eps       ncg     rms          ort
DAV:   1     0.282321568300E+04    0.28232E+04   -0.29383E+05  2880   0.141E+03
DAV:   2    -0.972185425401E+03   -0.37954E+04   -0.36623E+04  2880   0.313E+02
DAV:   3    -0.122927589213E+04   -0.25709E+03   -0.25500E+03  2880   0.849E+01
DAV:   4    -0.123226798721E+04   -0.29921E+01   -0.29818E+01  2880   0.974E+00
DAV:   5    -0.123231624208E+04   -0.48255E-01   -0.48153E-01  2880   0.114E+00
SDA:   6    -0.875919211641E+03    0.35640E+03   -0.48153E-01  2880   0.625E+03 0.000E+00
CGA:   7    -0.984562505796E+03   -0.10864E+03   -0.10957E+03  2880   0.573E+02 0.185E+02
CGA:   8    -0.995913457507E+03   -0.11351E+02   -0.11304E+02  2880   0.306E+02-0.426E+01
CGA:   9    -0.100116636207E+04   -0.52529E+01   -0.53431E+01  2880   0.209E+02 0.436E+01
CGA:  10    -0.100159705084E+04   -0.43069E+00   -0.22250E+01  2880   0.179E+02-0.362E+01
CGA:  11    -0.100286225827E+04   -0.12652E+01   -0.15950E+01  2880   0.165E+02-0.651E+01
CGA:  12    -0.100454570692E+04   -0.16834E+01   -0.13493E+01  2880   0.302E+01-0.419E+00
CGA:  13    -0.100472186532E+04   -0.17616E+00   -0.27351E+00  2880   0.523E+01-0.656E+00
CGA:  14    -0.100506836689E+04   -0.34650E+00   -0.35883E+00  2880   0.294E+01-0.907E-01
CGA:  15    -0.100522203865E+04   -0.15367E+00   -0.15328E+00  2880   0.171E+01-0.252E+00
CGA:  16    -0.100532405366E+04   -0.10202E+00   -0.13299E+00  2880   0.127E+01-0.371E+00
CGA:  17    -0.100536066817E+04   -0.36615E-01   -0.42926E-01  2880   0.961E+00-0.153E+00
CGA:  18    -0.100545192101E+04   -0.91253E-01   -0.85859E-01  2880   0.121E+01 0.844E-02
CGA:  19    -0.100549108093E+04   -0.39160E-01   -0.58868E-01  2880   0.314E+00-0.324E+00
CGA:  20    -0.100550803379E+04   -0.16953E-01   -0.16917E-01  2880   0.342E+00-0.724E-02
CGA:  21    -0.100553709706E+04   -0.29063E-01   -0.29051E-01  2880   0.110E+00-0.425E-02
CGA:  22    -0.100555400050E+04   -0.16903E-01   -0.16861E-01  2880   0.183E+00 0.486E-02
CGA:  23    -0.100556598534E+04   -0.11985E-01   -0.12801E-01  2880   0.674E-01-0.179E-02
CGA:  24    -0.100557554006E+04   -0.95547E-02   -0.95420E-02  2880   0.708E-01 0.394E-02
CGA:  25    -0.100557955389E+04   -0.40138E-02   -0.41901E-02  2880   0.147E-01 0.270E-02
CGA:  26    -0.100558319336E+04   -0.36395E-02   -0.34548E-02  2880   0.158E-01 0.217E-02
CGA:  27    -0.100558496365E+04   -0.17703E-02   -0.17631E-02  2880   0.142E-01-0.484E-03
CGA:  28    -0.100558663982E+04   -0.16762E-02   -0.16771E-02  2880   0.212E-02-0.418E-05
CGA:  29    -0.100558707869E+04   -0.43887E-03   -0.41481E-03  2880   0.384E-02 0.450E-03
CGA:  30    -0.100558760065E+04   -0.52196E-03   -0.51769E-03  2880   0.201E-02-0.334E-04
CGA:  31    -0.100558789529E+04   -0.29464E-03   -0.29615E-03  2880   0.127E-02 0.125E-03
CGA:  32    -0.100558808869E+04   -0.19340E-03   -0.19606E-03  2880   0.116E-02-0.330E-03
CGA:  33    -0.100558813630E+04   -0.47603E-04   -0.48743E-04  2880   0.549E-03 0.210E-03
CGA:  34    -0.100558818572E+04   -0.49427E-04   -0.51823E-04  2880   0.667E-03 0.888E-04
CGA:  35    -0.100558827075E+04   -0.85029E-04   -0.78840E-04  2880   0.340E-03-0.112E-03
CGA:  36    -0.100558829821E+04   -0.27457E-04   -0.22462E-04  2880   0.424E-03-0.735E-04
SDA:  37    -0.100558831621E+04   -0.18004E-04   -0.19549E-04  2880   0.374E-03 0.140E-03
CGA:  38    -0.100558833066E+04   -0.14448E-04   -0.20848E-04  2880   0.181E-03 0.929E-04
CGA:  39    -0.100558839265E+04   -0.61992E-04   -0.86274E-04  2880   0.579E-03-0.777E-04
CGA:  40    -0.100558841294E+04   -0.20291E-04   -0.14607E-04  2880   0.458E-03 0.560E-05
CGA:  41    -0.100558844598E+04   -0.33031E-04   -0.29749E-04  2880   0.438E-03 0.100E-04
CGA:  42    -0.100558845763E+04   -0.11655E-04   -0.16230E-04  2880   0.192E-03 0.131E-03
CGA:  43    -0.100558846063E+04   -0.29992E-05   -0.73741E-05  2880   0.702E-04 0.589E-04
   1 F= -.10055885E+04 E0= -.10055736E+04  d E =-.100559E+04  mag=     1.0000
       N       E                     dE             d eps       ncg     rms          ort
SDA:   1    -0.100558388236E+04    0.45753E-02    0.00000E+00  2880   0.107E+00 0.000E+00
CGA:   2    -0.100558747315E+04   -0.35908E-02   -0.39383E-02  2880   0.269E-02-0.100E-02
CGA:   3    -0.100558815337E+04   -0.68023E-03   -0.66716E-03  2880   0.171E-02 0.104E-03
CGA:   4    -0.100558834705E+04   -0.19368E-03   -0.19540E-03  2880   0.102E-02 0.194E-03
CGA:   5    -0.100558845939E+04   -0.11234E-03   -0.10360E-03  2880   0.599E-03-0.331E-03
CGA:   6    -0.100558848253E+04   -0.23134E-04   -0.28732E-04  2880   0.177E-03 0.120E-03
CGA:   7    -0.100558849253E+04   -0.10000E-04   -0.13638E-04  2880   0.878E-04 0.724E-04
CGA:   8    -0.100558850658E+04   -0.14053E-04   -0.14233E-04  2880   0.874E-04-0.583E-04
CGA:   9    -0.100558850692E+04   -0.34340E-06   -0.31226E-05  2880   0.250E-04 0.364E-04
   2 F= -.10055885E+04 E0= -.10055737E+04  d E =-.462928E-04  mag=     0.9990
       N       E                     dE             d eps       ncg     rms          ort
SDA:   1    -0.100558220204E+04    0.63045E-02    0.00000E+00  2880   0.397E-01 0.000E+00
CGA:   2    -0.100558399577E+04   -0.17937E-02   -0.19412E-02  2880   0.135E-01 0.149E-02
CGA:   3    -0.100558709440E+04   -0.30986E-02   -0.30090E-02  2880   0.718E-02 0.803E-03
CGA:   4    -0.100558797886E+04   -0.88446E-03   -0.89960E-03  2880   0.397E-02-0.160E-02
CGA:   5    -0.100558813604E+04   -0.15718E-03   -0.17660E-03  2880   0.166E-02 0.354E-03
CGA:   6    -0.100558824696E+04   -0.11092E-03   -0.12680E-03  2880   0.610E-03 0.453E-03
CGA:   7    -0.100558830403E+04   -0.57066E-04   -0.54778E-04  2880   0.469E-03-0.747E-04
CGA:   8    -0.100558835150E+04   -0.47472E-04   -0.47372E-04  2880   0.159E-03 0.809E-05
CGA:   9    -0.100558835738E+04   -0.58846E-05   -0.69849E-05  2880   0.544E-04 0.176E-04
CGA:  10    -0.100558837301E+04   -0.15633E-04    0.10415E-04  2880   0.513E-04 0.105E-04
CGA:  11    -0.100558838634E+04   -0.13328E-04    0.35904E-04  2880   0.609E-04-0.185E-04
CGA:  12    -0.100558838538E+04    0.96695E-06   -0.84161E-06  2880   0.451E-04 0.230E-04
   3 F= -.10055884E+04 E0= -.10055736E+04  d E =0.121547E-03  mag=     0.9990
       N       E                     dE             d eps       ncg     rms          ort
SDA:   1    -0.100548589756E+04    0.10249E+00    0.00000E+00  2880   0.280E+00 0.000E+00
CGA:   2    -0.100553229313E+04   -0.46396E-01   -0.45468E-01  2880   0.433E+00 0.127E-01
CGA:   3    -0.100557074661E+04   -0.38453E-01   -0.38332E-01  2880   0.102E+00-0.837E-02
CGA:   4    -0.100558009467E+04   -0.93481E-02   -0.93433E-02  2880   0.294E-01-0.261E-02
CGA:   5    -0.100558443130E+04   -0.43366E-02   -0.44045E-02  2880   0.307E-01-0.132E-02
CGA:   6    -0.100558600467E+04   -0.15734E-02   -0.16683E-02  2880   0.191E-02 0.199E-02
CGA:   7    -0.100558652210E+04   -0.51743E-03   -0.46700E-03  2880   0.158E-02 0.375E-03
CGA:   8    -0.100558668466E+04   -0.16256E-03   -0.15020E-03  2880   0.124E-02-0.542E-03
CGA:   9    -0.100558676225E+04   -0.77593E-04   -0.78165E-04  2880   0.269E-03 0.105E-03
CGA:  10    -0.100558676809E+04   -0.58435E-05   -0.12657E-04  2880   0.157E-03 0.116E-03
CGA:  11    -0.100558679018E+04   -0.22086E-04   -0.22091E-04  2880   0.176E-03 0.106E-03
CGA:  12    -0.100558677733E+04    0.12851E-04   -0.34523E-04  2880   0.232E-02-0.490E-03
CGA:  13    -0.100558682662E+04   -0.49296E-04   -0.73833E-04  2880   0.604E-04 0.316E-03
CGA:  14    -0.100558682526E+04    0.13622E-05   -0.14784E-05  2880   0.255E-04 0.361E-04
   4 F= -.10055868E+04 E0= -.10055721E+04  d E =0.156011E-02  mag=     0.9989
       N       E                     dE             d eps       ncg     rms          ort
SDA:   1    -0.100482062783E+04    0.76620E+00    0.00000E+00  2880   0.205E+01 0.000E+00
CGA:   2    -0.100519105302E+04   -0.37043E+00   -0.35861E+00  2880   0.342E+01 0.155E+00
CGA:   3    -0.100545725049E+04   -0.26620E+00   -0.27020E+00  2880   0.704E+00 0.231E-01
CGA:   4    -0.100552908279E+04   -0.71832E-01   -0.71372E-01  2880   0.168E+00 0.473E-01
CGA:   5    -0.100556730520E+04   -0.38222E-01   -0.38062E-01  2880   0.521E-01 0.104E-02
CGA:   6    -0.100557162735E+04   -0.43222E-02   -0.43128E-02  2880   0.330E-01-0.259E-02
CGA:   7    -0.100557448787E+04   -0.28605E-02   -0.28623E-02  2880   0.123E-01 0.312E-03
CGA:   8    -0.100557623334E+04   -0.17455E-02   -0.17108E-02  2880   0.272E-02 0.922E-03
CGA:   9    -0.100557658174E+04   -0.34840E-03   -0.34429E-03  2880   0.310E-02 0.256E-03
CGA:  10    -0.100557702277E+04   -0.44103E-03   -0.49157E-03  2880   0.294E-02-0.123E-02
CGA:  11    -0.100557711268E+04   -0.89910E-04   -0.10696E-03  2880   0.104E-02 0.374E-03
CGA:  12    -0.100557714903E+04   -0.36352E-04   -0.58553E-04  2880   0.614E-03 0.426E-03
CGA:  13    -0.100557719353E+04   -0.44497E-04   -0.54328E-04  2880   0.313E-03 0.268E-03
CGA:  14    -0.100557724818E+04   -0.54654E-04   -0.57766E-04  2880   0.701E-03-0.104E-03
CGA:  15    -0.100557726415E+04   -0.15965E-04   -0.16467E-04  2880   0.573E-03 0.826E-05
CGA:  16    -0.100557727682E+04   -0.12671E-04   -0.15909E-04  2880   0.264E-03 0.445E-04
CGA:  17    -0.100557729101E+04   -0.14186E-04   -0.13258E-04  2880   0.299E-03-0.205E-04
CGA:  18    -0.100557731593E+04   -0.24924E-04   -0.25720E-04  2880   0.334E-03-0.341E-03
CGA:  19    -0.100557734280E+04   -0.26871E-04   -0.26111E-04  2880   0.248E-03-0.616E-04
CGA:  20    -0.100557734368E+04   -0.88118E-06   -0.74390E-05  2880   0.115E-03 0.123E-03
   5 F= -.10055773E+04 E0= -.10055629E+04  d E =0.948158E-02  mag=     0.9986
       N       E                     dE             d eps       ncg     rms          ort
SDA:   1    -0.100544149406E+04    0.13585E+00    0.00000E+00  2880   0.729E+00 0.000E+00
CGA:   2    -0.100547770046E+04   -0.36206E-01   -0.37658E-01  2880   0.324E+00 0.256E-02
CGA:   3    -0.100554826102E+04   -0.70561E-01   -0.70898E-01  2880   0.172E+00-0.309E-02
CGA:   4    -0.100556554954E+04   -0.17289E-01   -0.17110E-01  2880   0.279E-01 0.814E-02
CGA:   5    -0.100556818992E+04   -0.26404E-02   -0.26402E-02  2880   0.289E-01 0.178E-02
CGA:   6    -0.100557182862E+04   -0.36387E-02   -0.36677E-02  2880   0.366E-02-0.108E-02
CGA:   7    -0.100557227666E+04   -0.44805E-03   -0.43748E-03  2880   0.273E-02 0.318E-03
CGA:   8    -0.100557260485E+04   -0.32819E-03   -0.33722E-03  2880   0.244E-02-0.462E-03
CGA:   9    -0.100557270347E+04   -0.98624E-04   -0.11642E-03  2880   0.491E-03 0.486E-03
CGA:  10    -0.100557272903E+04   -0.25559E-04   -0.32099E-04  2880   0.374E-03 0.172E-03
CGA:  11    -0.100557278982E+04   -0.60786E-04   -0.11831E-03  2880   0.718E-03-0.392E-03
CGA:  12    -0.100557287872E+04   -0.88900E-04   -0.93366E-04  2880   0.283E-03-0.135E-03
CGA:  13    -0.100557287609E+04    0.26292E-05   -0.64426E-05  2880   0.124E-03 0.127E-03
   6 F= -.10055729E+04 E0= -.10055587E+04  d E =0.446759E-02  mag=     0.9986
       N       E                     dE             d eps       ncg     rms          ort
SDA:   1    -0.100544629393E+04    0.12658E+00    0.00000E+00  2880   0.514E+00 0.000E+00
CGA:   2    -0.100548733664E+04   -0.41043E-01   -0.40822E-01  2880   0.475E+00-0.169E-01
CGA:   3    -0.100555305550E+04   -0.65719E-01   -0.66400E-01  2880   0.186E+00-0.118E-01
CGA:   4    -0.100557023161E+04   -0.17176E-01   -0.17173E-01  2880   0.353E-01 0.496E-02
CGA:   5    -0.100557375814E+04   -0.35265E-02   -0.35171E-02  2880   0.331E-01 0.292E-02
CGA:   6    -0.100557777341E+04   -0.40153E-02   -0.40571E-02  2880   0.488E-02-0.233E-02
CGA:   7    -0.100557814390E+04   -0.37049E-03   -0.37612E-03  2880   0.303E-02 0.451E-03
CGA:   8    -0.100557861984E+04   -0.47594E-03   -0.52119E-03  2880   0.245E-02-0.727E-03
CGA:   9    -0.100557871708E+04   -0.97243E-04   -0.10925E-03  2880   0.697E-03 0.297E-03
CGA:  10    -0.100557878330E+04   -0.66219E-04   -0.67618E-04  2880   0.419E-03 0.154E-03
CGA:  11    -0.100557882898E+04   -0.45683E-04   -0.45024E-04  2880   0.367E-03-0.896E-04
CGA:  12    -0.100557884018E+04   -0.11199E-04   -0.16037E-04  2880   0.224E-03 0.123E-03
CGA:  13    -0.100557884804E+04   -0.78629E-05   -0.12904E-04  2880   0.117E-03 0.102E-03
CGA:  14    -0.100557885604E+04   -0.79926E-05   -0.42525E-04  2880   0.506E-03-0.211E-03
CGA:  15    -0.100557890595E+04   -0.49913E-04   -0.50023E-04  2880   0.458E-03-0.238E-03
CGA:  16    -0.100557890599E+04   -0.42834E-07   -0.67162E-05  2880   0.222E-03 0.946E-04
   7 F= -.10055789E+04 E0= -.10055645E+04  d E =-.602990E-02  mag=     0.9986
       N       E                     dE             d eps       ncg     rms          ort
SDA:   1    -0.100365801504E+04    0.19209E+01    0.00000E+00  2880   0.117E+02 0.000E+00
CGA:   2    -0.100481769594E+04   -0.11597E+01   -0.74241E+00  2880   0.375E+01-0.615E+01
CGA:   3    -0.100502946695E+04   -0.21177E+00   -0.21079E+00  2880   0.179E+01-0.815E-01
CGA:   4    -0.100542766928E+04   -0.39820E+00   -0.38816E+00  2880   0.748E+00 0.828E-01
CGA:   5    -0.100549881800E+04   -0.71149E-01   -0.71363E-01  2880   0.528E+00 0.294E-01
CGA:   6    -0.100552632265E+04   -0.27505E-01   -0.27233E-01  2880   0.177E+00 0.160E-01
CGA:   7    -0.100554821072E+04   -0.21888E-01   -0.22105E-01  2880   0.224E+00-0.628E-02
CGA:   8    -0.100555973270E+04   -0.11522E-01   -0.11340E-01  2880   0.297E-01-0.632E-02
CGA:   9    -0.100556165352E+04   -0.19208E-02   -0.19419E-02  2880   0.244E-01 0.151E-03
CGA:  10    -0.100556323655E+04   -0.15830E-02   -0.16320E-02  2880   0.100E-01 0.272E-02
CGA:  11    -0.100556424268E+04   -0.10061E-02   -0.10055E-02  2880   0.129E-01 0.707E-03
CGA:  12    -0.100556546428E+04   -0.12216E-02   -0.12195E-02  2880   0.385E-02-0.185E-02
CGA:  13    -0.100556572500E+04   -0.26071E-03   -0.25882E-03  2880   0.366E-02-0.216E-03
CGA:  14    -0.100556590878E+04   -0.18379E-03   -0.20651E-03  2880   0.128E-02 0.851E-03
CGA:  15    -0.100556598606E+04   -0.77279E-04   -0.89412E-04  2880   0.114E-02 0.382E-03
CGA:  16    -0.100556621216E+04   -0.22609E-03   -0.26981E-03  2880   0.158E-02-0.451E-03
CGA:  17    -0.100556625913E+04   -0.46976E-04   -0.35656E-04  2880   0.785E-03-0.218E-03
CGA:  18    -0.100556628500E+04   -0.25870E-04   -0.28433E-04  2880   0.617E-03 0.523E-04
CGA:  19    -0.100556629411E+04   -0.91022E-05   -0.21593E-04  2880   0.363E-03 0.245E-03
CGA:  20    -0.100556629716E+04   -0.30580E-05   -0.14406E-04  2880   0.219E-03 0.208E-03
CGA:  21    -0.100556633361E+04   -0.36441E-04    0.23716E-03  2880   0.100E-03 0.123E-03
CGA:  22    -0.100556636887E+04   -0.35262E-04   -0.30511E-04  2880   0.384E-04 0.210E-04
CGA:  23    -0.100556636893E+04   -0.59226E-07   -0.15719E-05  2880   0.153E-04 0.260E-04
   8 F= -.10055664E+04 E0= -.10055519E+04  d E =0.125371E-01  mag=     0.9987
       N       E                     dE             d eps       ncg     rms          ort
SDA:   1    -0.100533407289E+04    0.23230E+00    0.00000E+00  2880   0.234E+01 0.000E+00
CGA:   2    -0.100544126307E+04   -0.10719E+00   -0.95226E-01  2880   0.311E+00 0.101E+00
CGA:   3    -0.100553912983E+04   -0.97867E-01   -0.97280E-01  2880   0.434E+00 0.280E-02
CGA:   4    -0.100555818895E+04   -0.19059E-01   -0.19423E-01  2880   0.633E-01 0.310E-03
CGA:   5    -0.100556804212E+04   -0.98532E-02   -0.99986E-02  2880   0.596E-01-0.253E-02
CGA:   6    -0.100557243879E+04   -0.43967E-02   -0.43988E-02  2880   0.343E-01-0.647E-03
CGA:   7    -0.100557442842E+04   -0.19896E-02   -0.20603E-02  2880   0.416E-02 0.307E-02
CGA:   8    -0.100557484595E+04   -0.41753E-03   -0.41925E-03  2880   0.508E-02 0.810E-03
CGA:   9    -0.100557562016E+04   -0.77422E-03   -0.79761E-03  2880   0.199E-02-0.643E-03
CGA:  10    -0.100557579797E+04   -0.17780E-03   -0.17824E-03  2880   0.600E-03-0.637E-04
CGA:  11    -0.100557592167E+04   -0.12370E-03   -0.14469E-03  2880   0.120E-02-0.138E-03
CGA:  12    -0.100557596591E+04   -0.44245E-04   -0.51107E-04  2880   0.437E-03 0.136E-03
CGA:  13    -0.100557599406E+04   -0.28150E-04   -0.29669E-04  2880   0.208E-03 0.350E-04
CGA:  14    -0.100557601727E+04   -0.23204E-04   -0.23963E-04  2880   0.325E-03-0.114E-03
CGA:  15    -0.100557602559E+04   -0.83252E-05   -0.14382E-04  2880   0.877E-04 0.111E-03
   9 F= -.10055760E+04 E0= -.10055615E+04  d E =-.965667E-02  mag=     0.9987
       N       E                     dE             d eps       ncg     rms          ort
SDA:   1    -0.100532613176E+04    0.24989E+00    0.00000E+00  2880   0.867E+00 0.000E+00
CGA:   2    -0.100539822494E+04   -0.72093E-01   -0.71760E-01  2880   0.953E+00-0.181E-01
CGA:   3    -0.100554031968E+04   -0.14209E+00   -0.14171E+00  2880   0.127E+00 0.657E-02
CGA:   4    -0.100556077547E+04   -0.20456E-01   -0.20179E-01  2880   0.861E-01 0.375E-02
CGA:   5    -0.100556856569E+04   -0.77902E-02   -0.77721E-02  2880   0.619E-01-0.247E-02
CGA:   6    -0.100557273524E+04   -0.41696E-02   -0.42059E-02  2880   0.579E-02 0.265E-02
CGA:   7    -0.100557398764E+04   -0.12524E-02   -0.11554E-02  2880   0.642E-02 0.105E-02
CGA:   8    -0.100557457261E+04   -0.58497E-03   -0.55582E-03  2880   0.292E-02-0.993E-03
CGA:   9    -0.100557485060E+04   -0.27799E-03   -0.27715E-03  2880   0.109E-02 0.714E-04
CGA:  10    -0.100557506083E+04   -0.21023E-03   -0.23309E-03  2880   0.185E-02-0.220E-03
CGA:  11    -0.100557512737E+04   -0.66538E-04   -0.79552E-04  2880   0.498E-03 0.235E-03
CGA:  12    -0.100557517420E+04   -0.46835E-04   -0.46914E-04  2880   0.520E-03 0.203E-05
CGA:  13    -0.100557523078E+04   -0.56578E-04   -0.63722E-04  2880   0.722E-03-0.401E-03
CGA:  14    -0.100557524496E+04   -0.14174E-04   -0.30945E-04  2880   0.168E-03 0.274E-03
CGA:  15    -0.100557524786E+04   -0.29013E-05   -0.91633E-05  2880   0.616E-04 0.101E-03
CGA:  16    -0.100557526199E+04   -0.14136E-04    0.18869E-04  2880   0.537E-04 0.232E-04
CGA:  17    -0.100557526905E+04   -0.70538E-05   -0.71219E-05  2880   0.260E-04 0.277E-04
  10 F= -.10055753E+04 E0= -.10055610E+04  d E =0.756548E-03  mag=     0.9986
       N       E                     dE             d eps       ncg     rms          ort
SDA:   1    -0.100493304037E+04    0.64222E+00    0.00000E+00  2880   0.496E+01 0.000E+00
CGA:   2    -0.100518649048E+04   -0.25345E+00   -0.21280E+00  2880   0.851E+00 0.187E+00
CGA:   3    -0.100544886400E+04   -0.26237E+00   -0.26170E+00  2880   0.143E+01 0.393E-02
CGA:   4    -0.100550713693E+04   -0.58273E-01   -0.60501E-01  2880   0.149E+00-0.342E-01
CGA:   5    -0.100553158719E+04   -0.24450E-01   -0.24828E-01  2880   0.192E+00-0.567E-02
CGA:   6    -0.100554262022E+04   -0.11033E-01   -0.11000E-01  2880   0.561E-01-0.180E-02
CGA:   7    -0.100554686485E+04   -0.42446E-02   -0.42276E-02  2880   0.128E-01 0.326E-02
CGA:   8    -0.100554893866E+04   -0.20738E-02   -0.20097E-02  2880   0.208E-01 0.134E-02
CGA:   9    -0.100555073899E+04   -0.18003E-02   -0.17704E-02  2880   0.293E-02-0.129E-02
CGA:  10    -0.100555122004E+04   -0.48105E-03   -0.54486E-03  2880   0.416E-02-0.671E-03
CGA:  11    -0.100555152975E+04   -0.30971E-03   -0.30543E-03  2880   0.269E-02-0.351E-03
CGA:  12    -0.100555167808E+04   -0.14832E-03   -0.16870E-03  2880   0.571E-03 0.548E-03
CGA:  13    -0.100555171980E+04   -0.41722E-04   -0.49943E-04  2880   0.468E-03 0.253E-03
CGA:  14    -0.100555180102E+04   -0.81219E-04   -0.80103E-04  2880   0.325E-03 0.799E-04
CGA:  15    -0.100555185734E+04   -0.56324E-04   -0.61036E-04  2880   0.237E-03-0.845E-04
CGA:  16    -0.100555184657E+04    0.10767E-04   -0.54210E-04  2880   0.337E-03-0.317E-03
CGA:  17    -0.100555188661E+04   -0.40036E-04   -0.39991E-04  2880   0.313E-03 0.348E-04
CGA:  18    -0.100555189492E+04   -0.83128E-05   -0.17370E-04  2880   0.756E-04 0.135E-03
  11 F= -.10055519E+04 E0= -.10055375E+04  d E =0.233741E-01  mag=     0.9991
       N       E                     dE             d eps       ncg     rms          ort
SDA:   1    -0.100532043780E+04    0.23145E+00    0.00000E+00  2880   0.239E+01 0.000E+00
CGA:   2    -0.100541558632E+04   -0.95149E-01   -0.10681E+00  2880   0.503E+00-0.238E+00
CGA:   3    -0.100553309241E+04   -0.11751E+00   -0.11719E+00  2880   0.367E+00 0.214E-02
CGA:   4    -0.100555304757E+04   -0.19955E-01   -0.20583E-01  2880   0.766E-01 0.974E-03
CGA:   5    -0.100556355563E+04   -0.10508E-01   -0.10471E-01  2880   0.525E-01 0.100E-02
CGA:   6    -0.100557006152E+04   -0.65059E-02   -0.65111E-02  2880   0.210E-01-0.494E-03
CGA:   7    -0.100557148581E+04   -0.14243E-02   -0.13730E-02  2880   0.713E-02-0.130E-02
CGA:   8    -0.100557257121E+04   -0.10854E-02   -0.10346E-02  2880   0.275E-02 0.119E-02
CGA:   9    -0.100557291102E+04   -0.33982E-03   -0.33461E-03  2880   0.341E-02-0.557E-03
CGA:  10    -0.100557324615E+04   -0.33513E-03   -0.33403E-03  2880   0.654E-03 0.113E-03
CGA:  11    -0.100557329250E+04   -0.46350E-04   -0.55028E-04  2880   0.479E-03 0.268E-03
CGA:  12    -0.100557337889E+04   -0.86388E-04   -0.85715E-04  2880   0.476E-03 0.438E-04
CGA:  13    -0.100557343917E+04   -0.60280E-04   -0.60436E-04  2880   0.139E-03-0.497E-04
CGA:  14    -0.100557347210E+04   -0.32925E-04    0.42353E-04  2880   0.128E-03 0.235E-04
CGA:  15    -0.100557348480E+04   -0.12709E-04   -0.14065E-04  2880   0.453E-04 0.706E-04
CGA:  16    -0.100557348454E+04    0.26626E-06   -0.19083E-05  2880   0.242E-04 0.309E-04
  12 F= -.10055735E+04 E0= -.10055592E+04  d E =-.215896E-01  mag=     0.9988
       N       E                     dE             d eps       ncg     rms          ort
SDA:   1    -0.100550399710E+04    0.69488E-01    0.00000E+00  2880   0.131E+01 0.000E+00
CGA:   2    -0.100555030978E+04   -0.46313E-01   -0.50268E-01  2880   0.709E-01-0.757E-01
CGA:   3    -0.100556511605E+04   -0.14806E-01   -0.15073E-01  2880   0.111E+00-0.212E-02
CGA:   4    -0.100557254496E+04   -0.74289E-02   -0.76035E-02  2880   0.258E-01 0.315E-02
CGA:   5    -0.100557460590E+04   -0.20609E-02   -0.21002E-02  2880   0.543E-02 0.107E-02
CGA:   6    -0.100557601050E+04   -0.14046E-02   -0.13847E-02  2880   0.452E-02 0.131E-03
CGA:   7    -0.100557634981E+04   -0.33931E-03   -0.30560E-03  2880   0.174E-02-0.741E-03
CGA:   8    -0.100557649111E+04   -0.14130E-03   -0.14365E-03  2880   0.458E-03 0.218E-03
CGA:   9    -0.100557661644E+04   -0.12534E-03   -0.12890E-03  2880   0.308E-03-0.253E-04
CGA:  10    -0.100557662505E+04   -0.86077E-05   -0.14442E-04  2880   0.110E-03 0.863E-04
CGA:  11    -0.100557664550E+04   -0.20453E-04   -0.21009E-04  2880   0.170E-03-0.154E-04
CGA:  12    -0.100557665093E+04   -0.54277E-05   -0.29522E-04  2880   0.101E-02-0.280E-03
CGA:  13    -0.100557666986E+04   -0.18927E-04   -0.36085E-04  2880   0.120E-03 0.196E-03
CGA:  14    -0.100557667166E+04   -0.17977E-05   -0.60712E-05  2880   0.476E-04 0.593E-04
  13 F= -.10055767E+04 E0= -.10055624E+04  d E =-.318712E-02  mag=     0.9987
       N       E                     dE             d eps       ncg     rms          ort
SDA:   1    -0.100555681725E+04    0.19853E-01    0.00000E+00  2880   0.285E+00 0.000E+00
CGA:   2    -0.100556698130E+04   -0.10164E-01   -0.10859E-01  2880   0.239E-01-0.418E-02
CGA:   3    -0.100557390357E+04   -0.69223E-02   -0.71765E-02  2880   0.220E-01-0.115E-02
CGA:   4    -0.100557560698E+04   -0.17034E-02   -0.17214E-02  2880   0.356E-02 0.166E-02
CGA:   5    -0.100557597132E+04   -0.36434E-03   -0.36063E-03  2880   0.357E-02-0.233E-03
CGA:   6    -0.100557637692E+04   -0.40560E-03   -0.40475E-03  2880   0.101E-02 0.893E-04
CGA:   7    -0.100557650032E+04   -0.12340E-03   -0.13103E-03  2880   0.785E-03-0.571E-03
CGA:   8    -0.100557653505E+04   -0.34724E-04   -0.46709E-04  2880   0.132E-03 0.229E-03
CGA:   9    -0.100557654272E+04   -0.76721E-05   -0.11391E-04  2880   0.872E-04 0.844E-04
CGA:  10    -0.100557656393E+04   -0.21213E-04    0.39396E-04  2880   0.457E-04 0.419E-04
CGA:  11    -0.100557657805E+04   -0.14122E-04   -0.12429E-04  2880   0.177E-04 0.226E-04
CGA:  12    -0.100557658280E+04   -0.47439E-05   -0.44009E-05  2880   0.257E-04 0.623E-05
  14 F= -.10055766E+04 E0= -.10055623E+04  d E =0.888603E-04  mag=     0.9987
       N       E                     dE             d eps       ncg     rms          ort
SDA:   1    -0.100550072774E+04    0.75850E-01    0.00000E+00  2880   0.381E+00 0.000E+00
CGA:   2    -0.100552185478E+04   -0.21127E-01   -0.21032E-01  2880   0.195E+00-0.634E-02
CGA:   3    -0.100556249486E+04   -0.40640E-01   -0.40304E-01  2880   0.641E-01 0.329E-02
CGA:   4    -0.100556999436E+04   -0.74995E-02   -0.74994E-02  2880   0.191E-01-0.151E-02
CGA:   5    -0.100557332072E+04   -0.33264E-02   -0.32766E-02  2880   0.853E-02 0.827E-03
CGA:   6    -0.100557391843E+04   -0.59771E-03   -0.62482E-03  2880   0.313E-02 0.526E-03
CGA:   7    -0.100557426015E+04   -0.34172E-03   -0.33375E-03  2880   0.234E-02-0.589E-03
CGA:   8    -0.100557451541E+04   -0.25526E-03   -0.25085E-03  2880   0.481E-03 0.259E-03
CGA:   9    -0.100557456212E+04   -0.46711E-04   -0.47224E-04  2880   0.262E-03 0.179E-04
CGA:  10    -0.100557459948E+04   -0.37355E-04   -0.35834E-04  2880   0.225E-03 0.864E-04
CGA:  11    -0.100557463257E+04   -0.33093E-04   -0.67217E-04  2880   0.867E-03-0.312E-03
CGA:  12    -0.100557464884E+04   -0.16265E-04   -0.32349E-04  2880   0.121E-03 0.204E-03
CGA:  13    -0.100557465080E+04   -0.19628E-05   -0.61831E-05  2880   0.454E-04 0.573E-04
  15 F= -.10055747E+04 E0= -.10055603E+04  d E =0.193200E-02  mag=     0.9987
       N       E                     dE             d eps       ncg     rms          ort
SDA:   1    -0.100546402837E+04    0.11062E+00    0.00000E+00  2880   0.279E+00 0.000E+00
CGA:   2    -0.100552408477E+04   -0.60056E-01   -0.61950E-01  2880   0.593E+00-0.177E-01
CGA:   3    -0.100555908593E+04   -0.35001E-01   -0.35088E-01  2880   0.836E-01-0.816E-02
CGA:   4    -0.100556703495E+04   -0.79490E-02   -0.79835E-02  2880   0.387E-01-0.217E-03
CGA:   5    -0.100557338726E+04   -0.63523E-02   -0.63227E-02  2880   0.744E-02 0.499E-03
CGA:   6    -0.100557379159E+04   -0.40433E-03   -0.44449E-03  2880   0.372E-02 0.721E-03
CGA:   7    -0.100557465147E+04   -0.85988E-03   -0.89093E-03  2880   0.132E-02-0.295E-03
CGA:   8    -0.100557476147E+04   -0.11000E-03   -0.11188E-03  2880   0.538E-03 0.660E-04
CGA:   9    -0.100557485635E+04   -0.94874E-04   -0.95765E-04  2880   0.759E-03-0.182E-04
CGA:  10    -0.100557488863E+04   -0.32287E-04   -0.42032E-04  2880   0.183E-03 0.158E-03
CGA:  11    -0.100557491596E+04   -0.27329E-04   -0.28221E-04  2880   0.288E-03-0.785E-04
CGA:  12    -0.100557489750E+04    0.18465E-04   -0.32837E-04  2880   0.177E-02-0.624E-03
CGA:  13    -0.100557494566E+04   -0.48158E-04   -0.77172E-04  2880   0.334E-03 0.375E-03
CGA:  14    -0.100557495635E+04   -0.10697E-04   -0.19581E-04  2880   0.662E-04 0.135E-03
CGA:  15    -0.100557495927E+04   -0.29200E-05   -0.43383E-05  2880   0.258E-04 0.211E-04
  16 F= -.10055750E+04 E0= -.10055607E+04  d E =-.308473E-03  mag=     0.9987
       N       E                     dE             d eps       ncg     rms          ort
SDA:   1    -0.100553200814E+04    0.42948E-01    0.00000E+00  2880   0.134E+00 0.000E+00
CGA:   2    -0.100554680024E+04   -0.14792E-01   -0.14807E-01  2880   0.215E+00-0.433E-02
CGA:   3    -0.100557083430E+04   -0.24034E-01   -0.24008E-01  2880   0.219E-01 0.305E-02
CGA:   4    -0.100557390581E+04   -0.30715E-02   -0.30918E-02  2880   0.197E-01-0.773E-03
CGA:   5    -0.100557568667E+04   -0.17809E-02   -0.17708E-02  2880   0.111E-01-0.764E-03
CGA:   6    -0.100557622042E+04   -0.53375E-03   -0.57232E-03  2880   0.114E-02 0.117E-02
CGA:   7    -0.100557636714E+04   -0.14671E-03   -0.14415E-03  2880   0.167E-02 0.270E-03
CGA:   8    -0.100557661278E+04   -0.24564E-03   -0.25726E-03  2880   0.719E-03-0.635E-03
CGA:   9    -0.100557662688E+04   -0.14102E-04   -0.19413E-04  2880   0.263E-03 0.811E-04
CGA:  10    -0.100557664055E+04   -0.13667E-04   -0.18119E-04  2880   0.299E-03 0.105E-03
CGA:  11    -0.100557669261E+04   -0.52064E-04   -0.51680E-04  2880   0.620E-04 0.175E-04
CGA:  12    -0.100557668800E+04    0.46102E-05   -0.17161E-04  2880   0.825E-03-0.139E-03
CGA:  13    -0.100557670479E+04   -0.16792E-04   -0.27073E-04  2880   0.514E-04 0.125E-03
CGA:  14    -0.100557670886E+04   -0.40659E-05   -0.40264E-05  2880   0.385E-04-0.137E-05
  17 F= -.10055767E+04 E0= -.10055624E+04  d E =-.174958E-02  mag=     0.9988
       N       E                     dE             d eps       ncg     rms          ort
SDA:   1    -0.100553030233E+04    0.46402E-01    0.00000E+00  2880   0.467E+00 0.000E+00
CGA:   2    -0.100554978826E+04   -0.19486E-01   -0.18738E-01  2880   0.677E-01 0.104E-02
CGA:   3    -0.100557165549E+04   -0.21867E-01   -0.22017E-01  2880   0.246E-01-0.644E-03
CGA:   4    -0.100557399014E+04   -0.23346E-02   -0.23289E-02  2880   0.990E-02 0.120E-02
CGA:   5    -0.100557541196E+04   -0.14218E-02   -0.14441E-02  2880   0.124E-01-0.852E-03
CGA:   6    -0.100557606683E+04   -0.65487E-03   -0.66657E-03  2880   0.104E-02 0.195E-03
CGA:   7    -0.100557617089E+04   -0.10406E-03   -0.10522E-03  2880   0.137E-02 0.101E-03
CGA:   8    -0.100557635599E+04   -0.18510E-03   -0.19143E-03  2880   0.626E-03-0.371E-03
CGA:   9    -0.100557637470E+04   -0.18712E-04   -0.24760E-04  2880   0.201E-03 0.111E-03
CGA:  10    -0.100557638502E+04   -0.10319E-04   -0.13916E-04  2880   0.139E-03 0.744E-04
CGA:  11    -0.100557641040E+04   -0.25382E-04   -0.26042E-04  2880   0.184E-03-0.210E-04
CGA:  12    -0.100557641871E+04   -0.83114E-05   -0.91362E-05  2880   0.105E-03 0.169E-04
  18 F= -.10055764E+04 E0= -.10055621E+04  d E =0.290145E-03  mag=     0.9987
       N       E                     dE             d eps       ncg     rms          ort
SDA:   1    -0.100556011378E+04    0.16297E-01    0.00000E+00  2880   0.780E-01 0.000E+00
CGA:   2    -0.100556462764E+04   -0.45139E-02   -0.46074E-02  2880   0.458E-01 0.129E-02
CGA:   3    -0.100557425718E+04   -0.96295E-02   -0.99255E-02  2880   0.174E-01-0.261E-02
CGA:   4    -0.100557564383E+04   -0.13866E-02   -0.14136E-02  2880   0.405E-02 0.173E-02
CGA:   5    -0.100557646596E+04   -0.82213E-03   -0.80003E-03  2880   0.219E-02 0.297E-03
CGA:   6    -0.100557670176E+04   -0.23581E-03   -0.23387E-03  2880   0.902E-03-0.240E-03
CGA:   7    -0.100557677842E+04   -0.76659E-04   -0.70388E-04  2880   0.762E-03-0.324E-03
CGA:   8    -0.100557680136E+04   -0.22937E-04   -0.31521E-04  2880   0.335E-03 0.206E-03
CGA:   9    -0.100557680627E+04   -0.49106E-05   -0.15994E-04  2880   0.133E-03 0.165E-03
CGA:  10    -0.100557681304E+04   -0.67714E-05   -0.10508E-04  2880   0.757E-04 0.786E-04
CGA:  11    -0.100557683188E+04   -0.18841E-04    0.14206E-04  2880   0.125E-03-0.202E-04
CGA:  12    -0.100557684574E+04   -0.13853E-04   -0.22773E-04  2880   0.790E-04-0.598E-04
CGA:  13    -0.100557684392E+04    0.18132E-05   -0.65725E-06  2880   0.577E-04 0.273E-04
  19 F= -.10055768E+04 E0= -.10055625E+04  d E =-.425213E-03  mag=     0.9987
       N       E                     dE             d eps       ncg     rms          ort
SDA:   1    -0.100549706758E+04    0.79778E-01    0.00000E+00  2880   0.577E+00 0.000E+00
CGA:   2    -0.100552211346E+04   -0.25046E-01   -0.26252E-01  2880   0.167E+00-0.739E-02
CGA:   3    -0.100556638519E+04   -0.44272E-01   -0.44490E-01  2880   0.359E-01-0.130E-02
CGA:   4    -0.100557138401E+04   -0.49988E-02   -0.49847E-02  2880   0.325E-01 0.257E-03
CGA:   5    -0.100557426618E+04   -0.28822E-02   -0.28663E-02  2880   0.139E-01-0.109E-02
CGA:   6    -0.100557505432E+04   -0.78815E-03   -0.81760E-03  2880   0.161E-02 0.118E-02
CGA:   7    -0.100557548029E+04   -0.42597E-03   -0.44327E-03  2880   0.150E-02-0.112E-03
CGA:   8    -0.100557561133E+04   -0.13104E-03   -0.13079E-03  2880   0.797E-03-0.177E-04
CGA:   9    -0.100557563070E+04   -0.19365E-04   -0.34669E-04  2880   0.211E-03 0.236E-03
CGA:  10    -0.100557564126E+04   -0.10564E-04   -0.15987E-04  2880   0.215E-03 0.114E-03
CGA:  11    -0.100557568692E+04   -0.45657E-04    0.38960E-03  2880   0.348E-03-0.513E-04
CGA:  12    -0.100557572127E+04   -0.34351E-04   -0.58130E-04  2880   0.325E-03-0.205E-03
CGA:  13    -0.100557573383E+04   -0.12563E-04   -0.19533E-04  2880   0.787E-04 0.144E-03
CGA:  14    -0.100557573344E+04    0.39449E-06   -0.43836E-05  2880   0.400E-04 0.704E-04
  20 F= -.10055757E+04 E0= -.10055615E+04  d E =0.111049E-02  mag=     0.9988
       N       E                     dE             d eps       ncg     rms          ort
SDA:   1    -0.100556607952E+04    0.96543E-02    0.00000E+00  2880   0.642E-01 0.000E+00
CGA:   2    -0.100556942715E+04   -0.33476E-02   -0.32449E-02  2880   0.247E-01-0.265E-02
CGA:   3    -0.100557493261E+04   -0.55055E-02   -0.54911E-02  2880   0.111E-01 0.749E-04
CGA:   4    -0.100557585187E+04   -0.91926E-03   -0.92358E-03  2880   0.330E-02 0.176E-03
CGA:   5    -0.100557613990E+04   -0.28803E-03   -0.29605E-03  2880   0.242E-02 0.485E-03
CGA:   6    -0.100557651901E+04   -0.37911E-03   -0.41484E-03  2880   0.132E-02-0.789E-03
CGA:   7    -0.100557655297E+04   -0.33963E-04   -0.46042E-04  2880   0.427E-03 0.223E-03
CGA:   8    -0.100557657457E+04   -0.21597E-04   -0.28215E-04  2880   0.225E-03 0.145E-03
CGA:   9    -0.100557661093E+04   -0.36357E-04   -0.42774E-04  2880   0.527E-03-0.158E-03
CGA:  10    -0.100557663585E+04   -0.24919E-04   -0.26055E-04  2880   0.754E-04 0.189E-04
CGA:  11    -0.100557665609E+04   -0.20244E-04    0.13378E-04  2880   0.714E-04-0.316E-04
CGA:  12    -0.100557665679E+04   -0.69684E-06   -0.21434E-05  2880   0.555E-04 0.298E-04
  21 F= -.10055767E+04 E0= -.10055624E+04  d E =-.923351E-03  mag=     0.9988
       N       E                     dE             d eps       ncg     rms          ort
SDA:   1    -0.100557035521E+04    0.63009E-02    0.00000E+00  2880   0.690E-01 0.000E+00
CGA:   2    -0.100557339258E+04   -0.30374E-02   -0.29234E-02  2880   0.106E-01-0.299E-02
CGA:   3    -0.100557534091E+04   -0.19483E-02   -0.20166E-02  2880   0.121E-01-0.674E-03
CGA:   4    -0.100557636974E+04   -0.10288E-02   -0.10300E-02  2880   0.283E-02 0.987E-04
CGA:   5    -0.100557648653E+04   -0.11679E-03   -0.14465E-03  2880   0.775E-03 0.616E-03
CGA:   6    -0.100557665258E+04   -0.16604E-03   -0.15097E-03  2880   0.578E-03 0.229E-03
CGA:   7    -0.100557672802E+04   -0.75439E-04   -0.93442E-04  2880   0.160E-02-0.669E-03
CGA:   8    -0.100557675959E+04   -0.31571E-04   -0.49861E-04  2880   0.957E-04 0.258E-03
CGA:   9    -0.100557675996E+04   -0.37084E-06   -0.37860E-05  2880   0.587E-04 0.554E-04
CGA:  10    -0.100557677199E+04   -0.12035E-04    0.25099E-04  2880   0.415E-04 0.304E-04
CGA:  11    -0.100557677243E+04   -0.43838E-06   -0.17050E-05  2880   0.246E-04 0.245E-04
  22 F= -.10055768E+04 E0= -.10055625E+04  d E =-.115644E-03  mag=     0.9988
