       N       E                     dE             d eps       ncg     rms          rms(c)
DAV:   1     0.315473649463E+04    0.31547E+04   -0.25788E+05 11556   0.130E+03
DAV:   2    -0.559303411956E+03   -0.37140E+04   -0.35765E+04 13992   0.298E+02
DAV:   3    -0.833537304823E+03   -0.27423E+03   -0.27240E+03 13992   0.855E+01
DAV:   4    -0.837143154296E+03   -0.36058E+01   -0.35923E+01 14040   0.105E+01
DAV:   5    -0.837207447386E+03   -0.64293E-01   -0.64146E-01 14328   0.129E+00    0.115E+02
DAV:   6    -0.725837082430E+03    0.11137E+03   -0.43239E+02 13020   0.330E+01    0.577E+01
DAV:   7    -0.736463567494E+03   -0.10626E+02   -0.30633E+01 13308   0.911E+00    0.168E+01
DAV:   8    -0.740856496485E+03   -0.43929E+01   -0.33715E+00 13644   0.319E+00    0.943E+00
DAV:   9    -0.743165152908E+03   -0.23087E+01   -0.13893E+00 13668   0.186E+00    0.448E+00
DAV:  10    -0.743773924741E+03   -0.60877E+00   -0.36267E-01 13500   0.108E+00    0.170E+00
DAV:  11    -0.743871031575E+03   -0.97107E-01   -0.52925E-02 13896   0.397E-01    0.826E-01
DAV:  12    -0.743893245036E+03   -0.22213E-01   -0.13000E-02 13476   0.215E-01    0.345E-01
DAV:  13    -0.743898967535E+03   -0.57225E-02   -0.37106E-03 13836   0.125E-01    0.124E-01
DAV:  14    -0.743899386617E+03   -0.41908E-03   -0.57276E-04 14580   0.533E-02    0.659E-02
DAV:  15    -0.743899473355E+03   -0.86739E-04   -0.11786E-04 13500   0.311E-02    0.359E-02
DAV:  16    -0.743899463783E+03    0.95726E-05   -0.74398E-05 13212   0.299E-02
   1 F= -.74389946E+03 E0= -.74389946E+03  d E =-.743899E+03  mag=    -0.0083
       N       E                     dE             d eps       ncg     rms          rms(c)
DAV:   1    -0.744804838300E+03   -0.90536E+00   -0.11398E-01 12216   0.204E-01    0.185E+00
DAV:   2    -0.744803120140E+03    0.17182E-02   -0.67779E-03 13308   0.801E-02    0.725E-01
DAV:   3    -0.744803154164E+03   -0.34024E-04   -0.70735E-04 12948   0.290E-02    0.236E-01
DAV:   4    -0.744803172964E+03   -0.18800E-04   -0.10803E-04 12936   0.123E-02    0.248E-02
DAV:   5    -0.744803168535E+03    0.44290E-05   -0.12741E-05  9084   0.658E-03
   2 F= -.74480317E+03 E0= -.74480317E+03  d E =-.903705E+00  mag=    -0.0003
       N       E                     dE             d eps       ncg     rms          rms(c)
DAV:   1    -0.761371917333E+03   -0.16569E+02   -0.59849E+01 11652   0.462E+00    0.304E+01
DAV:   2    -0.760646429043E+03    0.72549E+00   -0.23481E+00 15024   0.185E+00    0.150E+01
DAV:   3    -0.760652918580E+03   -0.64895E-02   -0.42858E-01 13404   0.774E-01    0.345E+00
DAV:   4    -0.760661395363E+03   -0.84768E-02   -0.56819E-02 13548   0.251E-01    0.516E-01
DAV:   5    -0.760658381563E+03    0.30138E-02   -0.76526E-03 13944   0.170E-01    0.185E-01
DAV:   6    -0.760658274191E+03    0.10737E-03   -0.21776E-03 13260   0.597E-02    0.755E-02
DAV:   7    -0.760658260574E+03    0.13617E-04   -0.35238E-04 13680   0.285E-02    0.355E-02
DAV:   8    -0.760658245867E+03    0.14707E-04   -0.58570E-05 13080   0.174E-02    0.205E-02
DAV:   9    -0.760658239338E+03    0.65290E-05   -0.86190E-06 10668   0.105E-02
   3 F= -.76065824E+03 E0= -.76065824E+03  d E =-.158551E+02  mag=    -0.0000
       N       E                     dE             d eps       ncg     rms          rms(c)
DAV:   1    -0.777781306575E+03   -0.17123E+02   -0.15936E+02 11520   0.110E+01    0.155E+01
DAV:   2    -0.777189328038E+03    0.59198E+00   -0.18451E+00 13584   0.225E+00    0.911E+00
DAV:   3    -0.777164346110E+03    0.24982E-01   -0.11850E+00 13632   0.149E+00    0.187E+00
DAV:   4    -0.777152115596E+03    0.12231E-01   -0.18290E-01 13332   0.781E-01    0.667E-01
DAV:   5    -0.777152448651E+03   -0.33306E-03   -0.29971E-02 13416   0.233E-01    0.236E-01
DAV:   6    -0.777152245762E+03    0.20289E-03   -0.37174E-03 13848   0.993E-02    0.124E-01
DAV:   7    -0.777152073569E+03    0.17219E-03   -0.65403E-04 15204   0.671E-02    0.360E-02
DAV:   8    -0.777152081303E+03   -0.77344E-05   -0.21816E-04 13464   0.244E-02    0.254E-02
DAV:   9    -0.777152074593E+03    0.67102E-05   -0.28005E-05 12540   0.128E-02
   4 F= -.77715207E+03 E0= -.77715207E+03  d E =-.164938E+02  mag=    -0.0000
       N       E                     dE             d eps       ncg     rms          rms(c)
DAV:   1    -0.783675411682E+03   -0.65233E+01   -0.10094E+02 11520   0.127E+01    0.301E+00
DAV:   2    -0.783723427516E+03   -0.48016E-01   -0.17559E+00 13704   0.181E+00    0.172E+00
DAV:   3    -0.783690152181E+03    0.33275E-01   -0.17279E-01 14064   0.595E-01    0.912E-01
DAV:   4    -0.783682342591E+03    0.78096E-02   -0.27984E-02 13860   0.297E-01    0.382E-01
DAV:   5    -0.783681955082E+03    0.38751E-03   -0.96851E-03 13536   0.164E-01    0.128E-01
DAV:   6    -0.783681926586E+03    0.28496E-04   -0.27017E-03 13788   0.806E-02    0.970E-02
DAV:   7    -0.783681909007E+03    0.17579E-04   -0.24540E-04 13464   0.218E-02    0.538E-02
DAV:   8    -0.783681870985E+03    0.38022E-04   -0.66459E-05 13584   0.278E-02    0.113E-02
DAV:   9    -0.783681868230E+03    0.27557E-05   -0.46961E-05 13704   0.161E-02
   5 F= -.78368187E+03 E0= -.78368187E+03  d E =-.652979E+01  mag=    -0.0000
       N       E                     dE             d eps       ncg     rms          rms(c)
DAV:   1    -0.785213533235E+03   -0.15317E+01   -0.30872E+01 11520   0.757E+00    0.174E+00
DAV:   2    -0.785262942164E+03   -0.49409E-01   -0.74365E-01 13536   0.110E+00    0.915E-01
DAV:   3    -0.785250825511E+03    0.12117E-01   -0.35797E-02 13992   0.331E-01    0.497E-01
DAV:   4    -0.785247329495E+03    0.34960E-02   -0.66723E-03 13860   0.161E-01    0.214E-01
DAV:   5    -0.785246800321E+03    0.52917E-03   -0.34441E-03 13524   0.102E-01    0.729E-02
DAV:   6    -0.785246784874E+03    0.15447E-04   -0.85542E-04 13572   0.474E-02    0.540E-02
DAV:   7    -0.785246775245E+03    0.96294E-05   -0.10488E-04 13896   0.156E-02    0.276E-02
DAV:   8    -0.785246759405E+03    0.15840E-04   -0.14810E-05 12000   0.153E-02    0.956E-03
DAV:   9    -0.785246757956E+03    0.14491E-05   -0.24298E-05 13008   0.125E-02
   6 F= -.78524676E+03 E0= -.78524676E+03  d E =-.156489E+01  mag=    -0.0000
       N       E                     dE             d eps       ncg     rms          rms(c)
DAV:   1    -0.785972170656E+03   -0.72541E+00   -0.26617E+01 11520   0.785E+00    0.146E+00
DAV:   2    -0.786026443651E+03   -0.54273E-01   -0.71181E-01 13512   0.113E+00    0.837E-01
DAV:   3    -0.786016419414E+03    0.10024E-01   -0.25441E-02 14040   0.309E-01    0.454E-01
DAV:   4    -0.786013469275E+03    0.29501E-02   -0.84260E-03 13704   0.163E-01    0.206E-01
DAV:   5    -0.786012987590E+03    0.48168E-03   -0.22191E-03 13836   0.910E-02    0.720E-02
DAV:   6    -0.786013014169E+03   -0.26579E-04   -0.56363E-04 13704   0.394E-02    0.555E-02
DAV:   7    -0.786012996070E+03    0.18099E-04   -0.39801E-05 14016   0.175E-02    0.205E-02
DAV:   8    -0.786012989051E+03    0.70187E-05   -0.31308E-05 13464   0.129E-02
   7 F= -.78601299E+03 E0= -.78601299E+03  d E =-.766231E+00  mag=     0.0000
       N       E                     dE             d eps       ncg     rms          rms(c)
DAV:   1    -0.786477339487E+03   -0.46434E+00   -0.43764E+01 11520   0.106E+01    0.183E+00
DAV:   2    -0.786561848452E+03   -0.84509E-01   -0.11061E+00 13968   0.147E+00    0.884E-01
DAV:   3    -0.786550580472E+03    0.11268E-01   -0.32141E-02 14232   0.358E-01    0.524E-01
DAV:   4    -0.786546418082E+03    0.41624E-02   -0.22514E-02 13800   0.286E-01    0.211E-01
DAV:   5    -0.786545891846E+03    0.52624E-03   -0.28080E-03 14280   0.120E-01    0.132E-01
DAV:   6    -0.786545823693E+03    0.68153E-04   -0.14694E-03 13776   0.719E-02    0.803E-02
DAV:   7    -0.786545786293E+03    0.37400E-04   -0.14914E-04 14112   0.300E-02    0.497E-02
DAV:   8    -0.786545766225E+03    0.20068E-04   -0.40255E-05 13848   0.186E-02    0.155E-02
DAV:   9    -0.786545759459E+03    0.67664E-05   -0.17791E-05 12840   0.132E-02
   8 F= -.78654576E+03 E0= -.78654576E+03  d E =-.532770E+00  mag=    -0.0000
       N       E                     dE             d eps       ncg     rms          rms(c)
DAV:   1    -0.786836644577E+03   -0.29088E+00   -0.77347E+01 11520   0.146E+01    0.215E+00
DAV:   2    -0.786979915548E+03   -0.14327E+00   -0.18056E+00 14016   0.200E+00    0.105E+00
DAV:   3    -0.786966839562E+03    0.13076E-01   -0.44486E-02 14304   0.411E-01    0.651E-01
DAV:   4    -0.786960790024E+03    0.60495E-02   -0.29671E-02 13944   0.343E-01    0.259E-01
DAV:   5    -0.786959967355E+03    0.82267E-03   -0.40821E-03 14280   0.147E-01    0.145E-01
DAV:   6    -0.786959796843E+03    0.17051E-03   -0.22742E-03 13992   0.996E-02    0.618E-02
DAV:   7    -0.786959750428E+03    0.46415E-04   -0.33217E-04 14040   0.385E-02    0.451E-02
DAV:   8    -0.786959719914E+03    0.30513E-04   -0.55296E-05 14088   0.217E-02    0.197E-02
DAV:   9    -0.786959702317E+03    0.17597E-04   -0.14321E-05 11616   0.185E-02    0.674E-03
DAV:  10    -0.786959696031E+03    0.62863E-05   -0.16282E-05 11832   0.168E-02
   9 F= -.78695970E+03 E0= -.78695970E+03  d E =-.413937E+00  mag=    -0.0000
       N       E                     dE             d eps       ncg     rms          rms(c)
DAV:   1    -0.786838848766E+03    0.12085E+00   -0.14892E+02 11520   0.191E+01    0.369E+00
DAV:   2    -0.787206831753E+03   -0.36798E+00   -0.42057E+00 14160   0.274E+00    0.150E+00
DAV:   3    -0.787169191091E+03    0.37641E-01   -0.62238E-02 14448   0.530E-01    0.884E-01
DAV:   4    -0.787153865472E+03    0.15326E-01   -0.55642E-02 13944   0.454E-01    0.325E-01
DAV:   5    -0.787152682559E+03    0.11829E-02   -0.95430E-03 14784   0.240E-01    0.197E-01
DAV:   6    -0.787152448585E+03    0.23397E-03   -0.23850E-03 13920   0.106E-01    0.854E-02
DAV:   7    -0.787152294053E+03    0.15453E-03   -0.31887E-04 14376   0.558E-02    0.542E-02
DAV:   8    -0.787152205003E+03    0.89050E-04   -0.13005E-04 14208   0.394E-02    0.213E-02
DAV:   9    -0.787152178789E+03    0.26214E-04   -0.57679E-05 14424   0.292E-02    0.115E-02
DAV:  10    -0.787152174768E+03    0.40211E-05   -0.38161E-05 14184   0.184E-02
  10 F= -.78715217E+03 E0= -.78715217E+03  d E =-.192479E+00  mag=     0.0000
       N       E                     dE             d eps       ncg     rms          rms(c)
DAV:   1    -0.787284788659E+03   -0.13261E+00   -0.71319E+00 11520   0.472E+00    0.196E+00
DAV:   2    -0.787303468429E+03   -0.18680E-01   -0.27455E-01 14184   0.858E-01    0.709E-01
DAV:   3    -0.787295696222E+03    0.77722E-02   -0.68500E-03 14328   0.211E-01    0.320E-01
DAV:   4    -0.787292986499E+03    0.27097E-02   -0.54249E-03 14040   0.209E-01    0.898E-02
DAV:   5    -0.787292889678E+03    0.96821E-04   -0.24124E-03 14520   0.123E-01    0.762E-02
DAV:   6    -0.787292858039E+03    0.31640E-04   -0.34634E-04 14064   0.340E-02    0.574E-02
DAV:   7    -0.787292814168E+03    0.43871E-04   -0.63202E-05 13752   0.142E-02    0.355E-02
DAV:   8    -0.787292764195E+03    0.49973E-04   -0.97277E-05 14400   0.335E-02    0.169E-02
DAV:   9    -0.787292763357E+03    0.83800E-06   -0.38244E-05 14208   0.147E-02
  11 F= -.78729276E+03 E0= -.78729276E+03  d E =-.140589E+00  mag=    -0.0000
       N       E                     dE             d eps       ncg     rms          rms(c)
DAV:   1    -0.787304485775E+03   -0.11722E-01   -0.27423E-01 11784   0.888E-01    0.262E-01
DAV:   2    -0.787305088348E+03   -0.60257E-03   -0.76687E-03 14208   0.136E-01    0.846E-02
DAV:   3    -0.787304962674E+03    0.12567E-03   -0.15963E-04 14376   0.294E-02    0.419E-02
DAV:   4    -0.787304914848E+03    0.47826E-04   -0.12069E-04 14136   0.279E-02    0.125E-02
DAV:   5    -0.787304913265E+03    0.15837E-05   -0.40988E-05 13620   0.148E-02
  12 F= -.78730491E+03 E0= -.78730491E+03  d E =-.121499E-01  mag=    -0.0000
       N       E                     dE             d eps       ncg     rms          rms(c)
DAV:   1    -0.787333074216E+03   -0.28159E-01   -0.17006E+00 11568   0.214E+00    0.407E-01
DAV:   2    -0.787336259081E+03   -0.31849E-02   -0.37492E-02 14040   0.286E-01    0.146E-01
DAV:   3    -0.787335955077E+03    0.30400E-03   -0.62410E-04 14436   0.500E-02    0.819E-02
DAV:   4    -0.787335847241E+03    0.10784E-03   -0.51243E-04 14112   0.483E-02    0.271E-02
DAV:   5    -0.787335845655E+03    0.15859E-05   -0.10500E-04 14028   0.204E-02    0.223E-02
DAV:   6    -0.787335843297E+03    0.23581E-05   -0.28895E-05 12300   0.104E-02
  13 F= -.78733584E+03 E0= -.78733584E+03  d E =-.309300E-01  mag=    -0.0000
       N       E                     dE             d eps       ncg     rms          rms(c)
DAV:   1    -0.787351012163E+03   -0.15167E-01   -0.40941E-01 11664   0.106E+00    0.141E-01
DAV:   2    -0.787351766465E+03   -0.75430E-03   -0.86868E-03 13776   0.140E-01    0.659E-02
DAV:   3    -0.787351709374E+03    0.57091E-04   -0.12318E-04 14160   0.222E-02    0.392E-02
DAV:   4    -0.787351683915E+03    0.25458E-04   -0.11288E-04 13632   0.227E-02    0.133E-02
DAV:   5    -0.787351682553E+03    0.13624E-05   -0.18912E-05 10272   0.972E-03
  14 F= -.78735168E+03 E0= -.78735168E+03  d E =-.158393E-01  mag=    -0.0000
       N       E                     dE             d eps       ncg     rms          rms(c)
DAV:   1    -0.787405688455E+03   -0.54005E-01   -0.10569E+01 11520   0.540E+00    0.596E-01
DAV:   2    -0.787424955209E+03   -0.19267E-01   -0.21937E-01 13656   0.698E-01    0.316E-01
DAV:   3    -0.787423668871E+03    0.12863E-02   -0.29405E-03 14376   0.106E-01    0.198E-01
DAV:   4    -0.787422980893E+03    0.68798E-03   -0.27151E-03 13800   0.116E-01    0.673E-02
DAV:   5    -0.787422960311E+03    0.20583E-04   -0.53301E-04 14064   0.469E-02    0.446E-02
DAV:   6    -0.787422951179E+03    0.91315E-05   -0.23980E-04 13800   0.310E-02    0.207E-02
DAV:   7    -0.787422945502E+03    0.56769E-05   -0.25488E-05 11376   0.119E-02
  15 F= -.78742295E+03 E0= -.78742295E+03  d E =-.712629E-01  mag=    -0.0000
       N       E                     dE             d eps       ncg     rms          rms(c)
DAV:   1    -0.787456608714E+03   -0.33658E-01   -0.55261E+01 11520   0.122E+01    0.119E+00
DAV:   2    -0.787562488801E+03   -0.10588E+00   -0.11796E+00 13416   0.157E+00    0.687E-01
DAV:   3    -0.787556517266E+03    0.59715E-02   -0.14765E-02 14280   0.228E-01    0.457E-01
DAV:   4    -0.787552791540E+03    0.37257E-02   -0.12299E-02 13824   0.254E-01    0.160E-01
DAV:   5    -0.787552711476E+03    0.80064E-04   -0.28961E-03 13860   0.995E-02    0.996E-02
DAV:   6    -0.787552672334E+03    0.39142E-04   -0.10900E-03 13740   0.631E-02    0.445E-02
DAV:   7    -0.787552641873E+03    0.30461E-04   -0.12098E-04 13836   0.263E-02    0.245E-02
DAV:   8    -0.787552635521E+03    0.63513E-05   -0.34127E-05 13332   0.127E-02
  16 F= -.78755264E+03 E0= -.78755264E+03  d E =-.129690E+00  mag=     0.0000
       N       E                     dE             d eps       ncg     rms          rms(c)
DAV:   1    -0.787530834346E+03    0.21808E-01   -0.20258E+01 11520   0.757E+00    0.175E+00
DAV:   2    -0.787569713892E+03   -0.38880E-01   -0.47775E-01 14112   0.105E+00    0.564E-01
DAV:   3    -0.787562948430E+03    0.67655E-02   -0.81928E-03 14388   0.201E-01    0.292E-01
DAV:   4    -0.787560031535E+03    0.29169E-02   -0.65557E-03 13920   0.205E-01    0.822E-02
DAV:   5    -0.787560021703E+03    0.98320E-05   -0.22678E-03 14280   0.959E-02    0.786E-02
DAV:   6    -0.787559949253E+03    0.72450E-04   -0.21508E-04 13944   0.279E-02    0.465E-02
DAV:   7    -0.787559880185E+03    0.69068E-04   -0.68856E-05 14184   0.249E-02    0.189E-02
DAV:   8    -0.787559860223E+03    0.19962E-04   -0.52656E-05 13872   0.256E-02    0.978E-03
DAV:   9    -0.787559861520E+03   -0.12976E-05   -0.35405E-05 12984   0.131E-02
  17 F= -.78755986E+03 E0= -.78755986E+03  d E =-.722600E-02  mag=     0.0000
       N       E                     dE             d eps       ncg     rms          rms(c)
DAV:   1    -0.787593681146E+03   -0.33821E-01   -0.73970E-01 11544   0.147E+00    0.654E-01
DAV:   2    -0.787595514825E+03   -0.18337E-02   -0.29640E-02 14208   0.280E-01    0.247E-01
DAV:   3    -0.787594542714E+03    0.97211E-03   -0.89037E-04 14256   0.742E-02    0.100E-01
DAV:   4    -0.787594237461E+03    0.30525E-03   -0.58833E-04 13896   0.675E-02    0.310E-02
DAV:   5    -0.787594218320E+03    0.19141E-04   -0.25816E-04 14736   0.402E-02    0.245E-02
DAV:   6    -0.787594214471E+03    0.38494E-05   -0.37430E-05 11760   0.114E-02
  18 F= -.78759421E+03 E0= -.78759421E+03  d E =-.343530E-01  mag=    -0.0000
       N       E                     dE             d eps       ncg     rms          rms(c)
DAV:   1    -0.787601676181E+03   -0.74579E-02   -0.91663E-02 11808   0.511E-01    0.222E-01
DAV:   2    -0.787601894557E+03   -0.21838E-03   -0.36187E-03 14160   0.959E-02    0.841E-02
DAV:   3    -0.787601772181E+03    0.12238E-03   -0.10928E-04 14112   0.274E-02    0.342E-02
DAV:   4    -0.787601729136E+03    0.43045E-04   -0.73624E-05 13668   0.257E-02    0.109E-02
DAV:   5    -0.787601725025E+03    0.41113E-05   -0.34995E-05 12912   0.162E-02
  19 F= -.78760173E+03 E0= -.78760173E+03  d E =-.751055E-02  mag=    -0.0000
       N       E                     dE             d eps       ncg     rms          rms(c)
DAV:   1    -0.787613969967E+03   -0.12241E-01   -0.11267E+00 11544   0.179E+00    0.626E-01
DAV:   2    -0.787616602713E+03   -0.26327E-02   -0.37133E-02 14016   0.306E-01    0.240E-01
DAV:   3    -0.787615768788E+03    0.83393E-03   -0.93896E-04 14328   0.706E-02    0.103E-01
DAV:   4    -0.787615488273E+03    0.28051E-03   -0.60051E-04 13968   0.617E-02    0.332E-02
DAV:   5    -0.787615466122E+03    0.22152E-04   -0.21650E-04 14808   0.383E-02    0.242E-02
DAV:   6    -0.787615461904E+03    0.42173E-05   -0.38108E-05 12336   0.115E-02
  20 F= -.78761546E+03 E0= -.78761546E+03  d E =-.137369E-01  mag=    -0.0000
       N       E                     dE             d eps       ncg     rms          rms(c)
DAV:   1    -0.787618588179E+03   -0.31221E-02   -0.65703E-02 11664   0.441E-01    0.172E-01
DAV:   2    -0.787618747003E+03   -0.15882E-03   -0.22676E-03 14160   0.752E-02    0.613E-02
DAV:   3    -0.787618684149E+03    0.62854E-04   -0.58894E-05 13968   0.176E-02    0.254E-02
DAV:   4    -0.787618665694E+03    0.18455E-04   -0.41453E-05 13560   0.161E-02    0.762E-03
DAV:   5    -0.787618665315E+03    0.37903E-06   -0.15117E-05 10344   0.869E-03
  21 F= -.78761867E+03 E0= -.78761867E+03  d E =-.320341E-02  mag=     0.0000
       N       E                     dE             d eps       ncg     rms          rms(c)
DAV:   1    -0.787624318864E+03   -0.56532E-02   -0.16993E-01 11568   0.698E-01    0.117E-01
DAV:   2    -0.787624636940E+03   -0.31808E-03   -0.37041E-03 13656   0.936E-02    0.421E-02
DAV:   3    -0.787624602577E+03    0.34362E-04   -0.51658E-05 13992   0.158E-02    0.236E-02
DAV:   4    -0.787624585776E+03    0.16801E-04   -0.46509E-05 13608   0.179E-02    0.737E-03
DAV:   5    -0.787624585765E+03    0.11358E-07   -0.14255E-05  9192   0.763E-03
  22 F= -.78762459E+03 E0= -.78762459E+03  d E =-.592045E-02  mag=    -0.0000
       N       E                     dE             d eps       ncg     rms          rms(c)
DAV:   1    -0.787632425865E+03   -0.78401E-02   -0.33423E-01 11544   0.967E-01    0.110E-01
DAV:   2    -0.787633040651E+03   -0.61479E-03   -0.69034E-03 13512   0.125E-01    0.521E-02
DAV:   3    -0.787633000584E+03    0.40068E-04   -0.84371E-05 14100   0.187E-02    0.324E-02
DAV:   4    -0.787632979026E+03    0.21557E-04   -0.81421E-05 13800   0.218E-02    0.108E-02
DAV:   5    -0.787632979012E+03    0.14465E-07   -0.19799E-05  9840   0.865E-03
  23 F= -.78763298E+03 E0= -.78763298E+03  d E =-.839325E-02  mag=    -0.0000
       N       E                     dE             d eps       ncg     rms          rms(c)
DAV:   1    -0.787645074905E+03   -0.12096E-01   -0.91304E-01 11520   0.159E+00    0.156E-01
DAV:   2    -0.787646755787E+03   -0.16809E-02   -0.18670E-02 13416   0.205E-01    0.851E-02
DAV:   3    -0.787646661074E+03    0.94712E-04   -0.21834E-04 14340   0.292E-02    0.543E-02
DAV:   4    -0.787646607031E+03    0.54043E-04   -0.21082E-04 13800   0.340E-02    0.184E-02
DAV:   5    -0.787646606954E+03    0.76976E-07   -0.48174E-05 12624   0.132E-02
  24 F= -.78764661E+03 E0= -.78764661E+03  d E =-.136279E-01  mag=    -0.0000
       N       E                     dE             d eps       ncg     rms          rms(c)
DAV:   1    -0.787654586819E+03   -0.79798E-02   -0.40190E+01 11520   0.105E+01    0.102E+00
DAV:   2    -0.787731016879E+03   -0.76430E-01   -0.84589E-01 13392   0.137E+00    0.569E-01
DAV:   3    -0.787726892979E+03    0.41239E-02   -0.10155E-02 14208   0.195E-01    0.373E-01
DAV:   4    -0.787724420568E+03    0.24724E-02   -0.88761E-03 13920   0.220E-01    0.130E-01
DAV:   5    -0.787724395484E+03    0.25084E-04   -0.20405E-03 13776   0.849E-02    0.858E-02
DAV:   6    -0.787724363388E+03    0.32095E-04   -0.80322E-04 13728   0.549E-02    0.368E-02
DAV:   7    -0.787724343865E+03    0.19524E-04   -0.86718E-05 13920   0.218E-02    0.205E-02
DAV:   8    -0.787724340346E+03    0.35192E-05   -0.22357E-05 12300   0.100E-02
  25 F= -.78772434E+03 E0= -.78772434E+03  d E =-.777334E-01  mag=    -0.0000
       N       E                     dE             d eps       ncg     rms          rms(c)
DAV:   1    -0.787719431383E+03    0.49125E-02   -0.10132E+01 11520   0.512E+00    0.835E-01
DAV:   2    -0.787738448273E+03   -0.19017E-01   -0.22011E-01 13788   0.691E-01    0.345E-01
DAV:   3    -0.787736534140E+03    0.19141E-02   -0.31297E-03 14400   0.118E-01    0.191E-01
DAV:   4    -0.787735752237E+03    0.78190E-03   -0.27554E-03 13944   0.111E-01    0.625E-02
DAV:   5    -0.787735717548E+03    0.34689E-04   -0.57043E-04 14280   0.554E-02    0.459E-02
DAV:   6    -0.787735703100E+03    0.14448E-04   -0.15489E-04 13824   0.259E-02    0.258E-02
DAV:   7    -0.787735690685E+03    0.12415E-04   -0.11217E-05 11112   0.137E-02    0.155E-02
DAV:   8    -0.787735683779E+03    0.69058E-05   -0.16712E-05 12096   0.131E-02
  26 F= -.78773568E+03 E0= -.78773568E+03  d E =-.113434E-01  mag=    -0.0000
       N       E                     dE             d eps       ncg     rms          rms(c)
DAV:   1    -0.787740690164E+03   -0.49995E-02   -0.13534E+00 11520   0.195E+00    0.841E-01
DAV:   2    -0.787743817042E+03   -0.31269E-02   -0.50466E-02 14112   0.346E-01    0.311E-01
DAV:   3    -0.787742116754E+03    0.17003E-02   -0.14522E-03 14316   0.958E-02    0.127E-01
DAV:   4    -0.787741554831E+03    0.56192E-03   -0.10844E-03 13992   0.940E-02    0.404E-02
DAV:   5    -0.787741520555E+03    0.34276E-04   -0.49730E-04 14544   0.554E-02    0.344E-02
DAV:   6    -0.787741511690E+03    0.88650E-05   -0.70999E-05 13632   0.153E-02
  27 F= -.78774151E+03 E0= -.78774151E+03  d E =-.582791E-02  mag=     0.0000
       N       E                     dE             d eps       ncg     rms          rms(c)
DAV:   1    -0.787744376204E+03   -0.28556E-02   -0.21082E-01 11544   0.778E-01    0.170E-01
DAV:   2    -0.787744779885E+03   -0.40368E-03   -0.50201E-03 13872   0.109E-01    0.583E-02
DAV:   3    -0.787744735679E+03    0.44206E-04   -0.97066E-05 14160   0.201E-02    0.323E-02
DAV:   4    -0.787744720390E+03    0.15289E-04   -0.76284E-05 13560   0.182E-02    0.110E-02
DAV:   5    -0.787744719360E+03    0.10301E-05   -0.12426E-05  9048   0.816E-03
  28 F= -.78774472E+03 E0= -.78774472E+03  d E =-.320767E-02  mag=    -0.0000
       N       E                     dE             d eps       ncg     rms          rms(c)
DAV:   1    -0.787750034801E+03   -0.53144E-02   -0.22827E-01 11520   0.792E-01    0.223E-01
DAV:   2    -0.787750514150E+03   -0.47935E-03   -0.60607E-03 14184   0.118E-01    0.752E-02
DAV:   3    -0.787750436457E+03    0.77693E-04   -0.13958E-04 14160   0.243E-02    0.375E-02
DAV:   4    -0.787750411075E+03    0.25383E-04   -0.85202E-05 13752   0.193E-02    0.142E-02
DAV:   5    -0.787750408819E+03    0.22556E-05   -0.19017E-05 11208   0.112E-02
  29 F= -.78775041E+03 E0= -.78775041E+03  d E =-.568946E-02  mag=    -0.0000
       N       E                     dE             d eps       ncg     rms          rms(c)
DAV:   1    -0.787751730069E+03   -0.13190E-02   -0.34458E-02 11760   0.305E-01    0.135E-01
DAV:   2    -0.787751808135E+03   -0.78066E-04   -0.13130E-03 14136   0.555E-02    0.508E-02
DAV:   3    -0.787751762412E+03    0.45723E-04   -0.44657E-05 13248   0.163E-02    0.209E-02
DAV:   4    -0.787751746700E+03    0.15712E-04   -0.27290E-05 12072   0.156E-02    0.726E-03
DAV:   5    -0.787751745062E+03    0.16381E-05   -0.13727E-05 10680   0.101E-02
  30 F= -.78775175E+03 E0= -.78775175E+03  d E =-.133624E-02  mag=     0.0000
       N       E                     dE             d eps       ncg     rms          rms(c)
DAV:   1    -0.787753354273E+03   -0.16076E-02   -0.28649E-02 11664   0.285E-01    0.468E-02
DAV:   2    -0.787753408494E+03   -0.54221E-04   -0.63035E-04 13944   0.388E-02    0.186E-02
DAV:   3    -0.787753403648E+03    0.48452E-05   -0.98010E-06 10440   0.663E-03    0.105E-02
DAV:   4    -0.787753401545E+03    0.21033E-05   -0.83373E-06  8688   0.671E-03
  31 F= -.78775340E+03 E0= -.78775340E+03  d E =-.165648E-02  mag=    -0.0000
       N       E                     dE             d eps       ncg     rms          rms(c)
DAV:   1    -0.787759106624E+03   -0.57030E-02   -0.37747E-01 11520   0.103E+00    0.122E-01
DAV:   2    -0.787759806838E+03   -0.70021E-03   -0.78750E-03 13680   0.137E-01    0.572E-02
DAV:   3    -0.787759761272E+03    0.45567E-04   -0.10726E-04 14172   0.210E-02    0.353E-02
DAV:   4    -0.787759739338E+03    0.21933E-04   -0.93737E-05 13848   0.230E-02    0.122E-02
DAV:   5    -0.787759739138E+03    0.20061E-06   -0.21036E-05 10296   0.920E-03
  32 F= -.78775974E+03 E0= -.78775974E+03  d E =-.633759E-02  mag=     0.0000
       N       E                     dE             d eps       ncg     rms          rms(c)
DAV:   1    -0.787764292080E+03   -0.45527E-02   -0.22712E-01 11568   0.798E-01    0.815E-02
DAV:   2    -0.787764718810E+03   -0.42673E-03   -0.47025E-03 13464   0.104E-01    0.422E-02
DAV:   3    -0.787764695153E+03    0.23657E-04   -0.51464E-05 13776   0.149E-02    0.266E-02
DAV:   4    -0.787764682841E+03    0.12312E-04   -0.54746E-05 13800   0.175E-02    0.909E-03
DAV:   5    -0.787764682723E+03    0.11845E-06   -0.11310E-05  8904   0.681E-03
  33 F= -.78776468E+03 E0= -.78776468E+03  d E =-.494359E-02  mag=    -0.0000
       N       E                     dE             d eps       ncg     rms          rms(c)
DAV:   1    -0.787705072241E+03    0.59611E-01   -0.64597E+01 11520   0.134E+01    0.158E+00
DAV:   2    -0.787833694120E+03   -0.12862E+00   -0.14335E+00 13440   0.178E+00    0.745E-01
DAV:   3    -0.787825227282E+03    0.84668E-02   -0.17368E-02 14280   0.269E-01    0.477E-01
DAV:   4    -0.787820883083E+03    0.43442E-02   -0.16762E-02 13968   0.308E-01    0.164E-01
DAV:   5    -0.787820858239E+03    0.24844E-04   -0.38813E-03 13872   0.122E-01    0.118E-01
DAV:   6    -0.787820769755E+03    0.88484E-04   -0.12279E-03 13704   0.664E-02    0.537E-02
DAV:   7    -0.787820724591E+03    0.45164E-04   -0.91734E-05 14256   0.298E-02    0.308E-02
DAV:   8    -0.787820705658E+03    0.18933E-04   -0.49602E-05 13896   0.214E-02    0.969E-03
DAV:   9    -0.787820701770E+03    0.38883E-05   -0.13785E-05 10848   0.112E-02
  34 F= -.78782070E+03 E0= -.78782070E+03  d E =-.560190E-01  mag=    -0.0000
       N       E                     dE             d eps       ncg     rms          rms(c)
DAV:   1    -0.787772596422E+03    0.48109E-01   -0.72566E+00 11520   0.433E+00    0.209E+00
DAV:   2    -0.787789846573E+03   -0.17250E-01   -0.28532E-01 14136   0.815E-01    0.770E-01
DAV:   3    -0.787779817637E+03    0.10029E-01   -0.85087E-03 14160   0.229E-01    0.314E-01
DAV:   4    -0.787776408223E+03    0.34094E-02   -0.61220E-03 13896   0.226E-01    0.952E-02
DAV:   5    -0.787776171099E+03    0.23712E-03   -0.29357E-03 14616   0.136E-01    0.812E-02
DAV:   6    -0.787776116422E+03    0.54677E-04   -0.42556E-04 14304   0.384E-02    0.565E-02
DAV:   7    -0.787776033187E+03    0.83234E-04   -0.13081E-04 13920   0.220E-02    0.253E-02
DAV:   8    -0.787775987769E+03    0.45418E-04   -0.11091E-04 13800   0.376E-02    0.190E-02
DAV:   9    -0.787775985844E+03    0.19246E-05   -0.66690E-05 13728   0.200E-02
  35 F= -.78777599E+03 E0= -.78777599E+03  d E =0.447159E-01  mag=    -0.0000
       N       E                     dE             d eps       ncg     rms          rms(c)
DAV:   1    -0.787833818052E+03   -0.57830E-01   -0.26811E+00 11520   0.265E+00    0.128E+00
DAV:   2    -0.787840148094E+03   -0.63300E-02   -0.10480E-01 14160   0.490E-01    0.466E-01
DAV:   3    -0.787836484006E+03    0.36641E-02   -0.29817E-03 14256   0.138E-01    0.197E-01
DAV:   4    -0.787835194599E+03    0.12894E-02   -0.23765E-03 13896   0.141E-01    0.568E-02
DAV:   5    -0.787835119447E+03    0.75151E-04   -0.11319E-03 14544   0.836E-02    0.496E-02
DAV:   6    -0.787835101551E+03    0.17896E-04   -0.15974E-04 14160   0.230E-02    0.377E-02
DAV:   7    -0.787835078603E+03    0.22948E-04   -0.32354E-05 11568   0.945E-03    0.213E-02
DAV:   8    -0.787835054346E+03    0.24257E-04   -0.60358E-05 13596   0.244E-02    0.118E-02
DAV:   9    -0.787835053328E+03    0.10180E-05   -0.18905E-05 11292   0.113E-02
  36 F= -.78783505E+03 E0= -.78783505E+03  d E =-.590675E-01  mag=     0.0000
       N       E                     dE             d eps       ncg     rms          rms(c)
DAV:   1    -0.787836350864E+03   -0.12965E-02   -0.61472E-02 11748   0.398E-01    0.167E-01
DAV:   2    -0.787836482000E+03   -0.13114E-03   -0.20841E-03 14256   0.678E-02    0.566E-02
DAV:   3    -0.787836416967E+03    0.65033E-04   -0.63014E-05 13548   0.193E-02    0.249E-02
DAV:   4    -0.787836393249E+03    0.23718E-04   -0.45896E-05 12936   0.192E-02    0.833E-03
DAV:   5    -0.787836391259E+03    0.19894E-05   -0.20201E-05 11580   0.117E-02
  37 F= -.78783639E+03 E0= -.78783639E+03  d E =-.133793E-02  mag=     0.0000
       N       E                     dE             d eps       ncg     rms          rms(c)
DAV:   1    -0.787837048339E+03   -0.65509E-03   -0.44129E-02 11760   0.343E-01    0.107E-01
DAV:   2    -0.787837133775E+03   -0.85436E-04   -0.10852E-03 14304   0.486E-02    0.289E-02
DAV:   3    -0.787837120050E+03    0.13725E-04   -0.30958E-05 13152   0.115E-02    0.145E-02
DAV:   4    -0.787837117102E+03    0.29479E-05   -0.15451E-05 11256   0.798E-03
  38 F= -.78783712E+03 E0= -.78783712E+03  d E =-.725843E-03  mag=     0.0000
       N       E                     dE             d eps       ncg     rms          rms(c)
DAV:   1    -0.787838046889E+03   -0.92684E-03   -0.99464E-02 11664   0.534E-01    0.998E-02
DAV:   2    -0.787838235556E+03   -0.18867E-03   -0.21889E-03 14112   0.727E-02    0.352E-02
DAV:   3    -0.787838218295E+03    0.17261E-04   -0.41843E-05 13644   0.138E-02    0.191E-02
DAV:   4    -0.787838214639E+03    0.36555E-05   -0.29482E-05 12192   0.109E-02
  39 F= -.78783821E+03 E0= -.78783821E+03  d E =-.109754E-02  mag=    -0.0000
       N       E                     dE             d eps       ncg     rms          rms(c)
DAV:   1    -0.787840803969E+03   -0.25857E-02   -0.10716E+00 11520   0.178E+00    0.180E-01
DAV:   2    -0.787842844380E+03   -0.20404E-02   -0.22636E-02 13416   0.236E-01    0.970E-02
DAV:   3    -0.787842726735E+03    0.11764E-03   -0.26396E-04 14280   0.338E-02    0.615E-02
DAV:   4    -0.787842665278E+03    0.61458E-04   -0.28746E-04 13992   0.403E-02    0.213E-02
DAV:   5    -0.787842665239E+03    0.38355E-07   -0.61732E-05 12720   0.156E-02
  40 F= -.78784267E+03 E0= -.78784267E+03  d E =-.445060E-02  mag=    -0.0000
       N       E                     dE             d eps       ncg     rms          rms(c)
DAV:   1    -0.787822585888E+03    0.20079E-01   -0.21019E+01 11520   0.791E+00    0.907E-01
DAV:   2    -0.787863538013E+03   -0.40952E-01   -0.45142E-01 13488   0.106E+00    0.437E-01
DAV:   3    -0.787861011977E+03    0.25260E-02   -0.52775E-03 14376   0.155E-01    0.267E-01
DAV:   4    -0.787859873706E+03    0.11383E-02   -0.54269E-03 13896   0.169E-01    0.908E-02
DAV:   5    -0.787859858418E+03    0.15288E-04   -0.10298E-03 13656   0.676E-02    0.618E-02
DAV:   6    -0.787859853425E+03    0.49922E-05   -0.43148E-04 13728   0.409E-02    0.273E-02
DAV:   7    -0.787859845577E+03    0.78484E-05   -0.39954E-05 12096   0.149E-02
  41 F= -.78785985E+03 E0= -.78785985E+03  d E =-.171803E-01  mag=    -0.0000
       N       E                     dE             d eps       ncg     rms          rms(c)
DAV:   1    -0.787864605376E+03   -0.47520E-02   -0.37420E+00 11520   0.332E+00    0.554E-01
DAV:   2    -0.787872018839E+03   -0.74135E-02   -0.83913E-02 13632   0.455E-01    0.208E-01
DAV:   3    -0.787871298461E+03    0.72038E-03   -0.10975E-03 14400   0.778E-02    0.113E-01
DAV:   4    -0.787871014016E+03    0.28445E-03   -0.10075E-03 14016   0.769E-02    0.358E-02
DAV:   5    -0.787871014707E+03   -0.69121E-06   -0.25680E-04 14136   0.334E-02    0.274E-02
DAV:   6    -0.787871007472E+03    0.72354E-05   -0.44179E-05 13344   0.125E-02
  42 F= -.78787101E+03 E0= -.78787101E+03  d E =-.111619E-01  mag=    -0.0000
       N       E                     dE             d eps       ncg     rms          rms(c)
DAV:   1    -0.787870171681E+03    0.84303E-03   -0.97944E-01 11520   0.166E+00    0.354E-01
DAV:   2    -0.787872008474E+03   -0.18368E-02   -0.22205E-02 14232   0.230E-01    0.115E-01
DAV:   3    -0.787871792188E+03    0.21629E-03   -0.50827E-04 14544   0.463E-02    0.637E-02
DAV:   4    -0.787871746041E+03    0.46148E-04   -0.32569E-04 14112   0.352E-02    0.297E-02
DAV:   5    -0.787871744942E+03    0.10986E-05   -0.51037E-05 13200   0.151E-02
  43 F= -.78787174E+03 E0= -.78787174E+03  d E =-.737471E-03  mag=    -0.0000
       N       E                     dE             d eps       ncg     rms          rms(c)
DAV:   1    -0.787874714441E+03   -0.29684E-02   -0.38095E-01 11520   0.105E+00    0.213E-01
DAV:   2    -0.787875423864E+03   -0.70942E-03   -0.84460E-03 14184   0.145E-01    0.675E-02
DAV:   3    -0.787875346979E+03    0.76884E-04   -0.17328E-04 14448   0.271E-02    0.373E-02
DAV:   4    -0.787875330502E+03    0.16478E-04   -0.11254E-04 14208   0.217E-02    0.168E-02
DAV:   5    -0.787875330758E+03   -0.25667E-06   -0.18808E-05 10224   0.889E-03
  44 F= -.78787533E+03 E0= -.78787533E+03  d E =-.358582E-02  mag=     0.0000
       N       E                     dE             d eps       ncg     rms          rms(c)
DAV:   1    -0.787877561180E+03   -0.22307E-02   -0.37827E+00 11520   0.337E+00    0.339E-01
DAV:   2    -0.787884828914E+03   -0.72677E-02   -0.79759E-02 13464   0.450E-01    0.178E-01
DAV:   3    -0.787884422010E+03    0.40690E-03   -0.88466E-04 14328   0.634E-02    0.112E-01
DAV:   4    -0.787884214383E+03    0.20763E-03   -0.91458E-04 13920   0.723E-02    0.377E-02
DAV:   5    -0.787884214480E+03   -0.96970E-07   -0.19323E-04 13560   0.288E-02    0.265E-02
DAV:   6    -0.787884212952E+03    0.15281E-05   -0.73981E-05 13584   0.171E-02
  45 F= -.78788421E+03 E0= -.78788421E+03  d E =-.888219E-02  mag=    -0.0000
       N       E                     dE             d eps       ncg     rms          rms(c)
DAV:   1    -0.787658774221E+03    0.22544E+00   -0.11385E+02 11520   0.186E+01    0.238E+00
DAV:   2    -0.787888765373E+03   -0.22999E+00   -0.25450E+00 13560   0.253E+00    0.103E+00
DAV:   3    -0.787872932433E+03    0.15833E-01   -0.32093E-02 14232   0.400E-01    0.621E-01
DAV:   4    -0.787865698588E+03    0.72338E-02   -0.27679E-02 13992   0.404E-01    0.215E-01
DAV:   5    -0.787865582916E+03    0.11567E-03   -0.60531E-03 14136   0.167E-01    0.136E-01
DAV:   6    -0.787865457306E+03    0.12561E-03   -0.18023E-03 13752   0.818E-02    0.637E-02
DAV:   7    -0.787865387697E+03    0.69609E-04   -0.11266E-04 14352   0.355E-02    0.398E-02
DAV:   8    -0.787865346628E+03    0.41069E-04   -0.83205E-05 13896   0.312E-02    0.137E-02
DAV:   9    -0.787865339902E+03    0.67256E-05   -0.33103E-05 12888   0.166E-02
  46 F= -.78786534E+03 E0= -.78786534E+03  d E =0.188730E-01  mag=    -0.0000
       N       E                     dE             d eps       ncg     rms          rms(c)
DAV:   1    -0.787756657568E+03    0.10869E+00   -0.76714E+01 11520   0.151E+01    0.194E+00
DAV:   2    -0.787911674073E+03   -0.15502E+00   -0.17320E+00 13680   0.207E+00    0.887E-01
DAV:   3    -0.787900398446E+03    0.11276E-01   -0.22486E-02 14232   0.326E-01    0.534E-01
DAV:   4    -0.787895148637E+03    0.52498E-02   -0.20671E-02 14016   0.340E-01    0.182E-01
DAV:   5    -0.787895029691E+03    0.11895E-03   -0.46788E-03 14112   0.148E-01    0.132E-01
DAV:   6    -0.787894927041E+03    0.10265E-03   -0.13373E-03 13752   0.720E-02    0.648E-02
DAV:   7    -0.787894867327E+03    0.59715E-04   -0.91442E-05 14424   0.325E-02    0.382E-02
DAV:   8    -0.787894835946E+03    0.31381E-04   -0.58399E-05 13824   0.268E-02    0.127E-02
DAV:   9    -0.787894830324E+03    0.56212E-05   -0.23428E-05 12096   0.137E-02
  47 F= -.78789483E+03 E0= -.78789483E+03  d E =-.294904E-01  mag=     0.0000
       N       E                     dE             d eps       ncg     rms          rms(c)
DAV:   1    -0.787850063741E+03    0.44772E-01   -0.10357E+01 11520   0.564E+00    0.107E+00
DAV:   2    -0.787871062562E+03   -0.20999E-01   -0.24055E-01 13752   0.790E-01    0.371E-01
DAV:   3    -0.787868871734E+03    0.21908E-02   -0.34011E-03 14424   0.136E-01    0.198E-01
DAV:   4    -0.787868088927E+03    0.78281E-03   -0.28972E-03 13992   0.128E-01    0.610E-02
DAV:   5    -0.787868084270E+03    0.46569E-05   -0.66042E-04 14136   0.558E-02    0.488E-02
DAV:   6    -0.787868068237E+03    0.16033E-04   -0.13282E-04 13896   0.223E-02    0.250E-02
DAV:   7    -0.787868056349E+03    0.11888E-04   -0.61696E-06 10464   0.129E-02    0.130E-02
DAV:   8    -0.787868050201E+03    0.61483E-05   -0.13209E-05 11040   0.135E-02
  48 F= -.78786805E+03 E0= -.78786805E+03  d E =0.267801E-01  mag=     0.0000
       N       E                     dE             d eps       ncg     rms          rms(c)
DAV:   1    -0.787878975415E+03   -0.10919E-01   -0.83559E+00 11520   0.506E+00    0.952E-01
DAV:   2    -0.787895861799E+03   -0.16886E-01   -0.19261E-01 13680   0.708E-01    0.333E-01
DAV:   3    -0.787894147966E+03    0.17138E-02   -0.27598E-03 14376   0.121E-01    0.178E-01
DAV:   4    -0.787893526985E+03    0.62098E-03   -0.22864E-03 14016   0.114E-01    0.539E-02
DAV:   5    -0.787893523884E+03    0.31007E-05   -0.51386E-04 14208   0.487E-02    0.428E-02
DAV:   6    -0.787893511371E+03    0.12513E-04   -0.10420E-04 13776   0.196E-02    0.220E-02
DAV:   7    -0.787893502852E+03    0.85191E-05   -0.49711E-06 10128   0.106E-02
  49 F= -.78789350E+03 E0= -.78789350E+03  d E =-.254527E-01  mag=    -0.0000
       N       E                     dE             d eps       ncg     rms          rms(c)
DAV:   1    -0.787893231435E+03    0.27994E-03   -0.94951E-03 11904   0.179E-01    0.248E-02
DAV:   2    -0.787893249662E+03   -0.18226E-04   -0.21639E-04 13920   0.254E-02    0.100E-02
DAV:   3    -0.787893247622E+03    0.20400E-05   -0.33034E-06  7608   0.434E-03    0.593E-03
DAV:   4    -0.787893246313E+03    0.13084E-05   -0.28602E-06  7584   0.498E-03
  50 F= -.78789325E+03 E0= -.78789325E+03  d E =0.256538E-03  mag=    -0.0000
