       N       E                     dE             d eps       ncg     rms          rms(c)
DAV:   1     0.304887131224E+04    0.30489E+04   -0.25833E+05 73584   0.130E+03
DAV:   2    -0.614303332497E+03   -0.36632E+04   -0.35347E+04 89496   0.297E+02
DAV:   3    -0.871805208208E+03   -0.25750E+03   -0.25536E+03 89040   0.832E+01
DAV:   4    -0.875018211817E+03   -0.32130E+01   -0.32011E+01 89364   0.999E+00
DAV:   5    -0.875072583268E+03   -0.54371E-01   -0.54237E-01 91080   0.120E+00    0.989E+01
DAV:   6    -0.782256274199E+03    0.92816E+02   -0.39533E+02 83436   0.316E+01    0.506E+01
DAV:   7    -0.790729952221E+03   -0.84737E+01   -0.26759E+01 85128   0.907E+00    0.181E+01
DAV:   8    -0.794009082889E+03   -0.32791E+01   -0.46323E+00 93024   0.461E+00    0.103E+01
DAV:   9    -0.795890843203E+03   -0.18818E+01   -0.25275E+00 87684   0.325E+00    0.773E+00
DAV:  10    -0.796985322771E+03   -0.10945E+01   -0.53279E+00 96264   0.271E+00    0.568E+00
DAV:  11    -0.797294608612E+03   -0.30929E+00   -0.18718E+00 93048   0.186E+00    0.373E+00
DAV:  12    -0.797389368929E+03   -0.94760E-01   -0.68545E-01 96504   0.153E+00    0.252E+00
DAV:  13    -0.797515590207E+03   -0.12622E+00   -0.41291E-01 90324   0.109E+00    0.242E+00
DAV:  14    -0.797522284490E+03   -0.66943E-02   -0.80887E-02 92148   0.753E-01    0.923E-01
DAV:  15    -0.797547172062E+03   -0.24888E-01   -0.18711E-01 87456   0.491E-01    0.227E+00
DAV:  16    -0.797542022174E+03    0.51499E-02   -0.19882E-02 79800   0.267E-01    0.162E+00
DAV:  17    -0.797537614507E+03    0.44077E-02   -0.13783E-02 92952   0.226E-01    0.107E+00
DAV:  18    -0.797539400381E+03   -0.17859E-02   -0.55266E-02102072   0.348E-01    0.923E-01
DAV:  19    -0.797539556857E+03   -0.15648E-03   -0.94207E-03 86484   0.238E-01    0.368E-01
DAV:  20    -0.797540256966E+03   -0.70011E-03   -0.44560E-03 89664   0.105E-01    0.282E-01
DAV:  21    -0.797540751006E+03   -0.49404E-03   -0.17536E-03 90240   0.831E-02    0.366E-01
DAV:  22    -0.797540611724E+03    0.13928E-03   -0.14621E-03 89148   0.591E-02    0.150E-01
DAV:  23    -0.797540603327E+03    0.83974E-05   -0.40035E-04 82008   0.386E-02    0.465E-02
DAV:  24    -0.797540643237E+03   -0.39910E-04   -0.61212E-05 84996   0.151E-02    0.360E-02
DAV:  25    -0.797540648638E+03   -0.54012E-05   -0.31681E-05 59652   0.702E-03
   1 F= -.79754065E+03 E0= -.79752405E+03  d E =-.797541E+03  mag=     0.9887
       N       E                     dE             d eps       ncg     rms          rms(c)
DAV:   1    -0.797542349569E+03   -0.17063E-02   -0.79909E-03 75888   0.169E-01    0.888E-02
DAV:   2    -0.797542387056E+03   -0.37487E-04   -0.97251E-04100776   0.576E-02    0.153E-01
DAV:   3    -0.797542347805E+03    0.39251E-04   -0.41131E-04100620   0.357E-02    0.435E-02
DAV:   4    -0.797542356038E+03   -0.82327E-05   -0.54987E-05 77532   0.176E-02
   2 F= -.79754236E+03 E0= -.79752579E+03  d E =-.170740E-02  mag=     0.9916
       N       E                     dE             d eps       ncg     rms          rms(c)
DAV:   1    -0.797546156384E+03   -0.38086E-02   -0.65865E-02 75576   0.484E-01    0.241E-01
DAV:   2    -0.797546368570E+03   -0.21219E-03   -0.60417E-03 99204   0.151E-01    0.342E-01
DAV:   3    -0.797546179852E+03    0.18872E-03   -0.21871E-03102144   0.895E-02    0.124E-01
DAV:   4    -0.797546188210E+03   -0.83585E-05   -0.55311E-04 88308   0.495E-02    0.842E-02
DAV:   5    -0.797546179332E+03    0.88780E-05   -0.92873E-05 86580   0.226E-02
   3 F= -.79754618E+03 E0= -.79752967E+03  d E =-.382329E-02  mag=     0.9924
       N       E                     dE             d eps       ncg     rms          rms(c)
DAV:   1    -0.797549350441E+03   -0.31622E-02   -0.36120E-01 75144   0.113E+00    0.548E-01
DAV:   2    -0.797550622229E+03   -0.12718E-02   -0.33805E-02 99276   0.340E-01    0.805E-01
DAV:   3    -0.797549553334E+03    0.10689E-02   -0.12564E-02100632   0.207E-01    0.296E-01
DAV:   4    -0.797549604640E+03   -0.51305E-04   -0.26491E-03 86784   0.113E-01    0.173E-01
DAV:   5    -0.797549587338E+03    0.17302E-04   -0.47070E-04 85896   0.486E-02    0.119E-01
DAV:   6    -0.797549547742E+03    0.39596E-04   -0.81162E-04 92592   0.480E-02    0.123E-01
DAV:   7    -0.797549517441E+03    0.30301E-04   -0.57966E-04 82716   0.316E-02    0.728E-02
DAV:   8    -0.797549510038E+03    0.74032E-05   -0.66284E-05 74592   0.184E-02
   4 F= -.79754951E+03 E0= -.79753303E+03  d E =-.333071E-02  mag=     0.9921
       N       E                     dE             d eps       ncg     rms          rms(c)
DAV:   1    -0.797550236407E+03   -0.71897E-03   -0.16726E-02 75552   0.241E-01    0.650E-02
DAV:   2    -0.797550276040E+03   -0.39632E-04   -0.51595E-04 89760   0.416E-02    0.737E-02
DAV:   3    -0.797550268447E+03    0.75927E-05   -0.12465E-04 77160   0.210E-02    0.327E-02
DAV:   4    -0.797550267693E+03    0.75383E-06   -0.17684E-05 55524   0.996E-03
   5 F= -.79755027E+03 E0= -.79753374E+03  d E =-.757655E-03  mag=     0.9922
       N       E                     dE             d eps       ncg     rms          rms(c)
DAV:   1    -0.797552821565E+03   -0.25531E-02   -0.28687E-01 74688   0.995E-01    0.319E-01
DAV:   2    -0.797554257295E+03   -0.14357E-02   -0.25649E-02 98952   0.267E-01    0.837E-01
DAV:   3    -0.797552811313E+03    0.14460E-02   -0.82232E-03 96912   0.162E-01    0.163E-01
DAV:   4    -0.797553065195E+03   -0.25388E-03   -0.13175E-03 81420   0.625E-02    0.897E-02
DAV:   5    -0.797553094858E+03   -0.29664E-04   -0.31044E-04 83676   0.343E-02    0.731E-02
DAV:   6    -0.797553078530E+03    0.16328E-04   -0.63019E-05 80856   0.190E-02    0.268E-02
DAV:   7    -0.797553079424E+03   -0.89352E-06   -0.80783E-05 83424   0.141E-02
   6 F= -.79755308E+03 E0= -.79753663E+03  d E =-.281173E-02  mag=     0.9930
       N       E                     dE             d eps       ncg     rms          rms(c)
DAV:   1    -0.797555440410E+03   -0.23619E-02   -0.43064E-01 74016   0.122E+00    0.279E-01
DAV:   2    -0.797556877512E+03   -0.14371E-02   -0.19913E-02 91152   0.236E-01    0.641E-01
DAV:   3    -0.797555906062E+03    0.97145E-03   -0.54241E-03 92820   0.126E-01    0.867E-02
DAV:   4    -0.797556182705E+03   -0.27664E-03   -0.13596E-03 79344   0.521E-02    0.189E-01
DAV:   5    -0.797556081902E+03    0.10080E-03   -0.10232E-03 81384   0.450E-02    0.636E-02
DAV:   6    -0.797556120077E+03   -0.38175E-04   -0.13042E-04 80124   0.235E-02    0.886E-02
DAV:   7    -0.797556089712E+03    0.30365E-04   -0.19558E-04 71844   0.188E-02    0.284E-02
DAV:   8    -0.797556099695E+03   -0.99824E-05   -0.57051E-05 54900   0.114E-02
   7 F= -.79755610E+03 E0= -.79753962E+03  d E =-.302027E-02  mag=     0.9929
       N       E                     dE             d eps       ncg     rms          rms(c)
DAV:   1    -0.797559723162E+03   -0.36335E-02   -0.48585E-01 73800   0.130E+00    0.598E-01
DAV:   2    -0.797564770781E+03   -0.50476E-02   -0.84181E-02105036   0.477E-01    0.172E+00
DAV:   3    -0.797558854427E+03    0.59164E-02   -0.31205E-02 93432   0.311E-01    0.416E-01
DAV:   4    -0.797559754951E+03   -0.90052E-03   -0.49202E-03 78036   0.124E-01    0.149E-01
DAV:   5    -0.797559900940E+03   -0.14599E-03   -0.88015E-04 87816   0.661E-02    0.109E-01
DAV:   6    -0.797559888388E+03    0.12552E-04   -0.20864E-04 90384   0.335E-02    0.478E-02
DAV:   7    -0.797559890774E+03   -0.23863E-05   -0.15499E-04 82620   0.229E-02    0.603E-02
DAV:   8    -0.797559886222E+03    0.45526E-05   -0.23183E-04 77808   0.191E-02    0.590E-02
DAV:   9    -0.797559883298E+03    0.29236E-05   -0.11894E-04 56748   0.126E-02    0.420E-02
DAV:  10    -0.797559878914E+03    0.43839E-05   -0.51444E-05 50724   0.806E-03
   8 F= -.79755988E+03 E0= -.79754341E+03  d E =-.377922E-02  mag=     0.9939
       N       E                     dE             d eps       ncg     rms          rms(c)
DAV:   1    -0.797561461685E+03   -0.15784E-02   -0.24518E-01 73872   0.926E-01    0.367E-01
DAV:   2    -0.797563024930E+03   -0.15632E-02   -0.22506E-02 99792   0.265E-01    0.914E-01
DAV:   3    -0.797561600309E+03    0.14246E-02   -0.12217E-02102564   0.166E-01    0.189E-01
DAV:   4    -0.797561740993E+03   -0.14068E-03   -0.17590E-03 86844   0.749E-02    0.142E-01
DAV:   5    -0.797561731039E+03    0.99540E-05   -0.64725E-04 89832   0.467E-02    0.106E-01
DAV:   6    -0.797561703480E+03    0.27559E-04   -0.12784E-04 89148   0.279E-02    0.286E-02
DAV:   7    -0.797561709350E+03   -0.58699E-05   -0.87183E-05 87120   0.171E-02
   9 F= -.79756171E+03 E0= -.79754522E+03  d E =-.183044E-02  mag=     0.9937
       N       E                     dE             d eps       ncg     rms          rms(c)
DAV:   1    -0.797562157989E+03   -0.45451E-03   -0.45923E-02 74232   0.393E-01    0.283E-01
DAV:   2    -0.797563340567E+03   -0.11826E-02   -0.19382E-02109512   0.219E-01    0.862E-01
DAV:   3    -0.797561849907E+03    0.14907E-02   -0.77769E-03106380   0.153E-01    0.145E-01
DAV:   4    -0.797562038462E+03   -0.18856E-03   -0.88728E-04 83412   0.517E-02    0.525E-02
DAV:   5    -0.797562077224E+03   -0.38762E-04   -0.22209E-04 80568   0.264E-02    0.705E-02
DAV:   6    -0.797562064634E+03    0.12590E-04   -0.70951E-05 64824   0.154E-02    0.232E-02
DAV:   7    -0.797562068124E+03   -0.34899E-05   -0.49437E-05 66816   0.109E-02
  10 F= -.79756207E+03 E0= -.79754559E+03  d E =-.358774E-03  mag=     0.9936
       N       E                     dE             d eps       ncg     rms          rms(c)
DAV:   1    -0.797562888543E+03   -0.82391E-03   -0.55563E-02 74088   0.440E-01    0.145E-01
DAV:   2    -0.797563292852E+03   -0.40431E-03   -0.55533E-03101736   0.122E-01    0.438E-01
DAV:   3    -0.797562914924E+03    0.37793E-03   -0.19399E-03105216   0.769E-02    0.603E-02
DAV:   4    -0.797562954514E+03   -0.39590E-04   -0.38086E-04 86208   0.269E-02    0.683E-02
DAV:   5    -0.797562944081E+03    0.10433E-04   -0.13648E-04 64716   0.149E-02    0.261E-02
DAV:   6    -0.797562944087E+03   -0.54970E-08   -0.25459E-05 45924   0.811E-03
  11 F= -.79756294E+03 E0= -.79754646E+03  d E =-.875963E-03  mag=     0.9936
