       N       E                     dE             d eps       ncg     rms          ort
DAV:   1     0.842894057332E+04    0.84289E+04   -0.38789E+05  6342   0.184E+03
DAV:   2    -0.103346286505E+03   -0.85323E+04   -0.78490E+04  6342   0.481E+02
DAV:   3    -0.137613432011E+04   -0.12728E+04   -0.12424E+04  6342   0.207E+02
DAV:   4    -0.144239795736E+04   -0.66264E+02   -0.62787E+02  6342   0.467E+01
DAV:   5    -0.144476808929E+04   -0.23701E+01   -0.23096E+01  6342   0.738E+00
SDA:   6    -0.750960046394E+03    0.69381E+03   -0.23096E+01  6342   0.304E+04 0.000E+00
CGA:   7    -0.106726882596E+04   -0.31631E+03   -0.33084E+03  6342   0.868E+03-0.218E+03
CGA:   8    -0.104810781080E+04    0.19161E+02   -0.50036E+02  6342   0.282E+04-0.446E+03
CGA:   9    -0.912705946525E+03    0.13540E+03   -0.15524E+03  6342   0.551E+04-0.194E+04
CGA:  10    -0.981801400428E+03   -0.69095E+02   -0.18398E+03  6342   0.475E+04-0.239E+04
CGA:  11    -0.902944191397E+03    0.78857E+02   -0.13727E+03  6342   0.389E+04-0.159E+04
CGA:  12    -0.964202637633E+03   -0.61258E+02   -0.18378E+03  6342   0.315E+04-0.679E+03
CGA:  13    -0.937621054814E+03    0.26582E+02   -0.10942E+03  6342   0.355E+04-0.212E+04
CGA:  14    -0.104065939452E+04   -0.10304E+03   -0.10857E+03  6342   0.238E+04-0.577E+03
CGA:  15    -0.935529327884E+03    0.10513E+03   -0.87928E+02  6342   0.377E+04-0.188E+04
CGA:  16    -0.104011288536E+04   -0.10458E+03   -0.13743E+03  6342   0.329E+04-0.141E+04
CGA:  17    -0.971695624093E+03    0.68417E+02   -0.61265E+02  6342   0.276E+04-0.210E+04
CGA:  18    -0.102601041456E+04   -0.54315E+02   -0.93248E+02  6342   0.245E+04-0.696E+03
CGA:  19    -0.984064421593E+03    0.41946E+02   -0.48501E+02  6342   0.484E+04-0.361E+04
CGA:  20    -0.100914936208E+04   -0.25085E+02   -0.23153E+03  6342   0.398E+04-0.125E+04
CGA:  21    -0.948095311560E+03    0.61054E+02   -0.10829E+03  6342   0.237E+04-0.163E+04
CGA:  22    -0.105254091287E+04   -0.10445E+03   -0.79575E+02  6342   0.241E+04-0.279E+03
CGA:  23    -0.100483552232E+04    0.47705E+02   -0.62668E+02  6342   0.520E+04-0.457E+04
CGA:  24    -0.107056406759E+04   -0.65729E+02   -0.26134E+03  6342   0.166E+04-0.974E+02
CGA:  25    -0.102609035443E+04    0.44474E+02   -0.72739E+02  6342   0.189E+04-0.451E+03
CGA:  26    -0.107400377544E+04   -0.47913E+02   -0.39677E+02  6342   0.315E+04-0.260E+04
CGA:  27    -0.108479408617E+04   -0.10790E+02   -0.12200E+03  6342   0.217E+04-0.573E+03
CGA:  28    -0.107435628977E+04    0.10438E+02   -0.72204E+02  6342   0.133E+04-0.284E+03
CGA:  29    -0.107072661932E+04    0.36297E+01   -0.40036E+02  6342   0.497E+04-0.266E+04
CGA:  30    -0.109057941042E+04   -0.19853E+02   -0.19078E+03  6342   0.191E+04-0.107E+04
CGA:  31    -0.110234103064E+04   -0.11762E+02   -0.59714E+02  6342   0.633E+03-0.301E+03
CGA:  32    -0.113131612730E+04   -0.28975E+02   -0.10813E+02  6342   0.251E+03 0.351E+03
CGA:  33    -0.113782379624E+04   -0.65077E+01   -0.37366E+01  6342   0.295E+02 0.864E+02
CGA:  34    -0.113845399824E+04   -0.63020E+00   -0.69308E+00  6342   0.843E+01 0.845E+00
CGA:  35    -0.113869743917E+04   -0.24344E+00   -0.16108E+00  6342   0.436E+01 0.353E+01
CGA:  36    -0.113887573755E+04   -0.17830E+00   -0.16714E+00  6342   0.572E+01-0.377E+00
CGA:  37    -0.113912893378E+04   -0.25320E+00   -0.26155E+00  6342   0.157E+02-0.504E+00
CGA:  38    -0.113955581019E+04   -0.42688E+00   -0.45069E+00  6342   0.179E+02-0.165E+01
CGA:  39    -0.113980988476E+04   -0.25407E+00   -0.15019E+00  6342   0.895E+01 0.887E+01
CGA:  40    -0.113999959530E+04   -0.18971E+00   -0.20320E+00  6342   0.432E+01-0.134E+01
CGA:  41    -0.114008028922E+04   -0.80694E-01   -0.60662E-01  6342   0.347E+01 0.715E+00
CGA:  42    -0.114016412093E+04   -0.83832E-01   -0.12501E+00  6342   0.267E+01-0.494E+00
CGA:  43    -0.114022768335E+04   -0.63562E-01   -0.69489E-01  6342   0.138E+01-0.205E+00
CGA:  44    -0.114028042125E+04   -0.52738E-01   -0.46637E-01  6342   0.174E+01 0.473E-01
CGA:  45    -0.114031778662E+04   -0.37365E-01   -0.23568E-01  6342   0.116E+01 0.855E+00
CGA:  46    -0.114035098928E+04   -0.33203E-01   -0.35208E-01  6342   0.977E+00-0.209E+00
CGA:  47    -0.114037419957E+04   -0.23210E-01   -0.18201E-01  6342   0.100E+01 0.886E-01
CGA:  48    -0.114038991324E+04   -0.15714E-01   -0.12159E-01  6342   0.672E+00 0.263E+00
CGA:  49    -0.114040378363E+04   -0.13870E-01   -0.11937E-01  6342   0.616E+00 0.901E-01
CGA:  50    -0.114041636950E+04   -0.12586E-01   -0.13016E-01  6342   0.558E+00-0.776E-01
CGA:  51    -0.114042607349E+04   -0.97040E-02   -0.10003E-01  6342   0.452E+00-0.118E+00
CGA:  52    -0.114043985240E+04   -0.13779E-01   -0.13155E-01  6342   0.516E+00-0.686E-01
CGA:  53    -0.114044785915E+04   -0.80067E-02   -0.62187E-02  6342   0.381E+00 0.712E-01
CGA:  54    -0.114045730621E+04   -0.94471E-02   -0.76431E-02  6342   0.349E+00 0.348E-01
CGA:  55    -0.114046396733E+04   -0.66611E-02   -0.55149E-02  6342   0.216E+00-0.257E-01
CGA:  56    -0.114046823640E+04   -0.42691E-02   -0.36107E-02  6342   0.239E+00-0.564E-01
CGA:  57    -0.114047379610E+04   -0.55597E-02   -0.46206E-02  6342   0.330E+00-0.446E-01
CGA:  58    -0.114047652258E+04   -0.27265E-02   -0.20263E-02  6342   0.228E+00 0.599E-01
CGA:  59    -0.114047939720E+04   -0.28746E-02   -0.27687E-02  6342   0.222E+00 0.196E-01
CGA:  60    -0.114048314471E+04   -0.37475E-02   -0.33603E-02  6342   0.379E+00 0.661E-02
CGA:  61    -0.114048817824E+04   -0.50335E-02   -0.40535E-02  6342   0.412E+00-0.353E-02
CGA:  62    -0.114049269868E+04   -0.45204E-02   -0.35982E-02  6342   0.253E+00-0.648E-01
SDA:  63    -0.114049563915E+04   -0.29405E-02   -0.21106E-02  6342   0.217E+00-0.635E-01
CGA:  64    -0.114050301111E+04   -0.73720E-02   -0.74100E-02  6342   0.109E+00-0.962E-03
CGA:  65    -0.114050626774E+04   -0.32566E-02   -0.31919E-02  6342   0.683E-01-0.423E-01
CGA:  66    -0.114050828240E+04   -0.20147E-02   -0.22225E-02  6342   0.677E-01-0.898E-02
CGA:  67    -0.114049978476E+04    0.84976E-02   -0.66047E-02  6342   0.102E+01-0.108E+00
CGA:  68    -0.114051360264E+04   -0.13818E-01   -0.13566E-01  6342   0.170E+00 0.155E+00
CGA:  69    -0.114051927034E+04   -0.56677E-02   -0.54070E-02  6342   0.942E-01 0.210E-01
CGA:  70    -0.114052156049E+04   -0.22901E-02   -0.20820E-02  6342   0.358E-01-0.106E-01
CGA:  71    -0.114052284733E+04   -0.12868E-02   -0.13664E-02  6342   0.243E-01 0.829E-02
CGA:  72    -0.114052323573E+04   -0.38840E-03   -0.65208E-03  6342   0.158E-01 0.927E-02
CGA:  73    -0.114052423620E+04   -0.10005E-02   -0.10186E-02  6342   0.138E-01 0.339E-02
CGA:  74    -0.114052578311E+04   -0.15469E-02   -0.17943E-02  6342   0.695E-01-0.429E-02
CGA:  75    -0.114052634911E+04   -0.56600E-03   -0.76190E-03  6342   0.653E-01 0.605E-02
CGA:  76    -0.114052738391E+04   -0.10348E-02   -0.13093E-02  6342   0.760E-01 0.106E-01
CGA:  77    -0.114052971148E+04   -0.23276E-02   -0.20944E-02  6342   0.712E-01 0.200E-02
CGA:  78    -0.114053151426E+04   -0.18028E-02   -0.12707E-02  6342   0.558E-01-0.209E-01
CGA:  79    -0.114050674817E+04    0.24766E-01   -0.86516E-02  6342   0.258E+01-0.186E+00
CGA:  80    -0.114053869479E+04   -0.31947E-01   -0.31231E-01  6342   0.233E+00 0.285E+00
CGA:  81    -0.114054635866E+04   -0.76639E-02   -0.74548E-02  6342   0.177E+00 0.233E-01
CGA:  82    -0.114055109282E+04   -0.47342E-02   -0.48026E-02  6342   0.691E-01-0.304E-01
CGA:  83    -0.114055528020E+04   -0.41874E-02   -0.41073E-02  6342   0.389E-01 0.452E-02
CGA:  84    -0.114055717129E+04   -0.18911E-02   -0.19202E-02  6342   0.374E-01 0.617E-02
CGA:  85    -0.114055906001E+04   -0.18887E-02   -0.17061E-02  6342   0.480E-01-0.170E-01
CGA:  86    -0.114055963117E+04   -0.57117E-03   -0.57294E-03  6342   0.234E-01 0.196E-02
CGA:  87    -0.114055987331E+04   -0.24214E-03   -0.37664E-03  6342   0.153E-01 0.436E-02
CGA:  88    -0.114056057883E+04   -0.70552E-03   -0.67464E-03  6342   0.136E-01-0.279E-02
CGA:  89    -0.114056113942E+04   -0.56058E-03   -0.36646E-03  6342   0.288E-01-0.139E-01
CGA:  90    -0.114056132278E+04   -0.18336E-03   -0.39249E-03  6342   0.750E-02 0.700E-02
CGA:  91    -0.114056160427E+04   -0.28148E-03   -0.29368E-03  6342   0.511E-02 0.129E-02
CGA:  92    -0.114056179003E+04   -0.18576E-03   -0.35104E-03  6342   0.392E-01-0.116E-01
CGA:  93    -0.114056196529E+04   -0.17527E-03   -0.44656E-03  6342   0.576E-02 0.847E-02
CGA:  94    -0.114056202303E+04   -0.57736E-04   -0.12391E-03  6342   0.380E-02 0.261E-02
CGA:  95    -0.114056224252E+04   -0.21949E-03   -0.21042E-03  6342   0.348E-02-0.241E-02
CGA:  96    -0.114056226684E+04   -0.24317E-04   -0.64547E-04  6342   0.169E-02 0.177E-02
CGA:  97    -0.114056244674E+04   -0.17990E-03    0.11366E-03  6342   0.185E-02 0.518E-03
CGA:  98    -0.114056245406E+04   -0.73216E-05   -0.43171E-04  6342   0.100E-02 0.158E-02
CGA:  99    -0.114056247393E+04   -0.19872E-04   -0.28899E-04  6342   0.879E-03 0.838E-03
CGA: 100    -0.114056257394E+04   -0.10001E-03    0.37514E-04  6342   0.103E-02 0.711E-03
CGA: 101    -0.114056256141E+04    0.12530E-04   -0.10884E-04  6342   0.799E-03 0.820E-03
CGA: 102    -0.114056261926E+04   -0.57847E-04   -0.44207E-04  6342   0.798E-03 0.769E-03
CGA: 103    -0.114056270837E+04   -0.89112E-04    0.34159E-04  6342   0.921E-03 0.677E-03
CGA: 104    -0.114056269760E+04    0.10771E-04   -0.10065E-04  6342   0.744E-03 0.755E-03
CGA: 105    -0.114056277239E+04   -0.74791E-04   -0.51583E-04  6342   0.730E-03 0.721E-03
CGA: 106    -0.114056284944E+04   -0.77047E-04    0.38872E-04  6342   0.798E-03 0.657E-03
CGA: 107    -0.114056284190E+04    0.75358E-05   -0.10187E-04  6342   0.692E-03 0.682E-03
CGA: 108    -0.114056315530E+04   -0.31340E-03   -0.12768E-02  6342   0.939E-03 0.620E-03
CGA: 109    -0.114056313205E+04    0.23255E-04   -0.10813E-04  6342   0.594E-03 0.599E-03
CGA: 110    -0.114056332773E+04   -0.19568E-03   -0.11958E-03  6342   0.553E-03 0.562E-03
CGA: 111    -0.114056344312E+04   -0.11539E-03    0.45020E-04  6342   0.956E-03 0.444E-03
CGA: 112    -0.114056341796E+04    0.25160E-04   -0.99217E-05  6342   0.523E-03 0.565E-03
CGA: 113    -0.114056344946E+04   -0.31501E-04   -0.33750E-04  6342   0.609E-03 0.487E-03
CGA: 114    -0.114056361066E+04   -0.16120E-03    0.22753E-04  6342   0.304E-02-0.211E-04
CGA: 115    -0.114056458640E+04   -0.97574E-03   -0.66457E-03  6342   0.359E-02 0.205E-02
CGA: 116    -0.114056454048E+04    0.45923E-04   -0.32423E-04  6342   0.582E-03 0.117E-02
CGA: 117    -0.114056452020E+04    0.20280E-04   -0.61703E-05  6342   0.361E-03 0.406E-03
CGA: 118    -0.114056459138E+04   -0.71185E-04    0.31044E-04  6342   0.526E-03 0.180E-03
CGA: 119    -0.114056458400E+04    0.73856E-05   -0.20266E-04  6342   0.449E-03 0.624E-03
CGA: 120    -0.114056467319E+04   -0.89191E-04    0.33058E-04  6342   0.151E-02-0.916E-04
CGA: 121    -0.114056466203E+04    0.11156E-04   -0.22096E-04  6342   0.131E-02 0.684E-03
CGA: 122    -0.114056463688E+04    0.25158E-04   -0.28042E-04  6342   0.109E-02 0.106E-02
CGA: 123    -0.114056482089E+04   -0.18402E-03    0.10013E-03  6342   0.546E-02-0.138E-02
CGA: 124    -0.114056477175E+04    0.49144E-04   -0.48385E-04  6342   0.846E-03 0.181E-02
CGA: 125    -0.114056474748E+04    0.24263E-04   -0.76818E-05  6342   0.427E-03 0.601E-03
CGA: 126    -0.114056475739E+04   -0.99031E-05   -0.14950E-04  6342   0.261E-03 0.226E-03
CGA: 127    -0.114056479964E+04   -0.42249E-04    0.16778E-04  6342   0.277E-03 0.240E-03
CGA: 128    -0.114056479379E+04    0.58445E-05   -0.42270E-05  6342   0.252E-03 0.245E-03
CGA: 129    -0.114056483335E+04   -0.39559E-04    0.15385E-04  6342   0.275E-03 0.238E-03
CGA: 130    -0.114056482726E+04    0.60862E-05   -0.37268E-05  6342   0.246E-03 0.240E-03
CGA: 131    -0.114056486130E+04   -0.34037E-04    0.19743E-04  6342   0.251E-03 0.240E-03
CGA: 132    -0.114056485928E+04    0.20246E-05   -0.52670E-05  6342   0.247E-03 0.233E-03
   1 F= -.11405649E+04 E0= -.11405444E+04  d E =-.408693E-01  mag=    65.0000
