       N       E                     dE             d eps       ncg     rms          ort
DAV:   1     0.828586908770E+04    0.82859E+04   -0.24676E+05  8424   0.238E+03
DAV:   2     0.918759231916E+03   -0.73671E+04   -0.69184E+04  8424   0.658E+02
DAV:   3    -0.677709651861E+03   -0.15965E+04   -0.14047E+04  8424   0.283E+02
DAV:   4    -0.834017164998E+03   -0.15631E+03   -0.15358E+03  8424   0.858E+01
DAV:   5    -0.836544629053E+03   -0.25275E+01   -0.25158E+01  8424   0.122E+01
SDA:   6    -0.247334043261E+03    0.58921E+03   -0.25158E+01  8424   0.748E+04 0.000E+00
CGA:   7    -0.141852153258E+03    0.10548E+03   -0.43428E+03  8424   0.331E+05-0.563E+04
CGA:   8     0.237206420838E+04    0.25139E+04   -0.21788E+04  8424   0.206E+06-0.669E+05
CGA:   9     0.571745319341E+04    0.33454E+04   -0.16937E+05  8424   0.467E+05-0.279E+05
CGA:  10     0.413483449783E+04   -0.15826E+04   -0.24637E+04  8424   0.159E+06-0.198E+06
CGA:  11     0.589721152448E+04    0.17624E+04   -0.11928E+05  8424   0.415E+05-0.302E+05
CGA:  12     0.274947210144E+04   -0.31477E+04   -0.19035E+04  8424   0.152E+06-0.239E+06
CGA:  13     0.528577582174E+04    0.25363E+04   -0.10616E+05  8424   0.234E+05-0.143E+05
CGA:  14     0.149552617609E+04   -0.37902E+04   -0.89129E+03  8424   0.678E+05-0.119E+06
CGA:  15     0.364280362899E+04    0.21473E+04   -0.40585E+04  8424   0.108E+06-0.376E+05
CGA:  16     0.480079859732E+04    0.11580E+04   -0.66600E+04  8424   0.264E+05-0.897E+04
CGA:  17    -0.420384837629E+03   -0.52212E+04   -0.94359E+03  8424   0.531E+04-0.255E+05
CGA:  18    -0.599583703431E+03   -0.17920E+03   -0.16777E+03  8424   0.679E+03 0.250E+03
CGA:  19    -0.622363321621E+03   -0.22780E+02   -0.42635E+02  8424   0.246E+03 0.475E+02
CGA:  20    -0.639342454465E+03   -0.16979E+02   -0.12781E+02  8424   0.765E+02 0.116E+03
CGA:  21    -0.652438764429E+03   -0.13096E+02   -0.13386E+02  8424   0.520E+02 0.179E+02
CGA:  22    -0.665072616988E+03   -0.12634E+02   -0.14016E+02  8424   0.483E+02-0.488E+01
CGA:  23    -0.669667712084E+03   -0.45951E+01   -0.48008E+01  8424   0.304E+02 0.240E+01
CGA:  24    -0.671801164616E+03   -0.21335E+01   -0.23214E+01  8424   0.118E+02-0.644E+00
CGA:  25    -0.672237246364E+03   -0.43608E+00   -0.80547E+00  8424   0.218E+02-0.253E+01
CGA:  26    -0.672855267390E+03   -0.61802E+00   -0.86959E+00  8424   0.184E+02-0.829E+01
CGA:  27    -0.673566693909E+03   -0.71143E+00   -0.64707E+00  8424   0.765E+01 0.318E+00
CGA:  28    -0.674047396970E+03   -0.48070E+00   -0.36350E+00  8424   0.619E+01 0.130E+01
CGA:  29    -0.674587769129E+03   -0.54037E+00   -0.54754E+00  8424   0.596E+01-0.734E-01
CGA:  30    -0.674743814664E+03   -0.15605E+00   -0.23485E+00  8424   0.276E+01-0.121E+01
CGA:  31    -0.674921988613E+03   -0.17817E+00   -0.17620E+00  8424   0.239E+01-0.336E-01
CGA:  32    -0.675133905238E+03   -0.21192E+00   -0.21329E+00  8424   0.176E+01 0.498E-01
CGA:  33    -0.675260259014E+03   -0.12635E+00   -0.13048E+00  8424   0.690E+00 0.438E-01
CGA:  34    -0.675320830006E+03   -0.60571E-01   -0.61312E-01  8424   0.673E+00 0.191E-01
CGA:  35    -0.675412692430E+03   -0.91862E-01   -0.91643E-01  8424   0.455E+00 0.662E-02
CGA:  36    -0.675455744383E+03   -0.43052E-01   -0.42900E-01  8424   0.297E+00-0.106E-01
CGA:  37    -0.675483480951E+03   -0.27737E-01   -0.27642E-01  8424   0.132E+00-0.162E-01
CGA:  38    -0.675498903121E+03   -0.15422E-01   -0.15461E-01  8424   0.159E+00-0.669E-02
CGA:  39    -0.675521084107E+03   -0.22181E-01   -0.22661E-01  8424   0.613E-01-0.103E-01
CGA:  40    -0.675528951354E+03   -0.78672E-02   -0.78448E-02  8424   0.501E-01 0.723E-03
CGA:  41    -0.675536105138E+03   -0.71538E-02   -0.72188E-02  8424   0.313E-01-0.264E-02
CGA:  42    -0.675542306283E+03   -0.62011E-02   -0.71790E-02  8424   0.272E-01-0.736E-02
CGA:  43    -0.675545792520E+03   -0.34862E-02   -0.37504E-02  8424   0.333E-01-0.405E-02
CGA:  44    -0.675551905951E+03   -0.61134E-02   -0.79899E-02  8424   0.424E-01-0.120E-01
CGA:  45    -0.675525398683E+03    0.26507E-01   -0.94475E-02  8424   0.423E+00-0.105E+00
CGA:  46    -0.675587803279E+03   -0.62405E-01   -0.65156E-01  8424   0.170E+00-0.146E-01
CGA:  47    -0.675617049415E+03   -0.29246E-01   -0.28950E-01  8424   0.684E-01-0.209E-02
CGA:  48    -0.675643728121E+03   -0.26679E-01   -0.27680E-01  8424   0.612E-01-0.670E-02
CGA:  49    -0.675592373324E+03    0.51355E-01   -0.28817E-01  8424   0.722E+00-0.123E+00
CGA:  50    -0.675727449473E+03   -0.13508E+00   -0.13523E+00  8424   0.149E+00-0.103E-02
CGA:  51    -0.675786975676E+03   -0.59526E-01   -0.59418E-01  8424   0.903E-01-0.494E-02
CGA:  52    -0.675815213938E+03   -0.28238E-01   -0.27655E-01  8424   0.585E-01-0.962E-02
CGA:  53    -0.675832178333E+03   -0.16964E-01   -0.16131E-01  8424   0.301E-01-0.662E-02
CGA:  54    -0.675842652695E+03   -0.10474E-01   -0.32177E-01  8424   0.802E-01-0.260E-01
CGA:  55    -0.675861901773E+03   -0.19249E-01   -0.18975E-01  8424   0.201E-01-0.141E-02
CGA:  56    -0.675867938141E+03   -0.60364E-02   -0.61073E-02  8424   0.740E-02 0.586E-03
CGA:  57    -0.675870888115E+03   -0.29500E-02   -0.29265E-02  8424   0.381E-02-0.528E-03
CGA:  58    -0.675872548340E+03   -0.16602E-02   -0.16815E-02  8424   0.386E-02-0.445E-03
CGA:  59    -0.675873869407E+03   -0.13211E-02   -0.12612E-02  8424   0.256E-02-0.102E-02
CGA:  60    -0.675874338484E+03   -0.46908E-03   -0.22567E-02  8424   0.124E-01-0.239E-02
CGA:  61    -0.675877329898E+03   -0.29914E-02   -0.27523E-02  8424   0.385E-02-0.103E-02
CGA:  62    -0.675878387616E+03   -0.10577E-02   -0.10636E-02  8424   0.175E-02 0.436E-04
CGA:  63    -0.675879360112E+03   -0.97250E-03   -0.10757E-02  8424   0.240E-02-0.633E-03
CGA:  64    -0.675880036209E+03   -0.67610E-03   -0.11241E-02  8424   0.458E-02-0.160E-02
CGA:  65    -0.675881045079E+03   -0.10089E-02   -0.10236E-02  8424   0.169E-02 0.607E-04
CGA:  66    -0.675881975566E+03   -0.93049E-03   -0.93935E-03  8424   0.123E-02-0.935E-04
CGA:  67    -0.675882587834E+03   -0.61227E-03   -0.69634E-03  8424   0.261E-02-0.611E-03
CGA:  68    -0.675882873312E+03   -0.28548E-03   -0.28156E-03  8424   0.184E-02-0.160E-04
CGA:  69    -0.675883225259E+03   -0.35195E-03   -0.38349E-03  8424   0.175E-02 0.118E-03
CGA:  70    -0.675884149482E+03   -0.92422E-03   -0.98612E-03  8424   0.420E-02-0.748E-03
CGA:  71    -0.675885203022E+03   -0.10535E-02   -0.90266E-03  8424   0.102E-01-0.224E-02
CGA:  72    -0.675887486645E+03   -0.22836E-02   -0.23717E-02  8424   0.280E-02 0.425E-03
CGA:  73    -0.675888466332E+03   -0.97969E-03   -0.91179E-03  8424   0.140E-02-0.569E-03
CGA:  74    -0.675888910489E+03   -0.44416E-03   -0.43788E-03  8424   0.615E-03-0.181E-03
CGA:  75    -0.675885370930E+03    0.35396E-02   -0.19088E-02  8424   0.265E-01-0.222E-02
CGA:  76    -0.675889895205E+03   -0.45243E-02   -0.47065E-02  8424   0.399E-02 0.639E-03
CGA:  77    -0.675890994508E+03   -0.10993E-02   -0.10524E-02  8424   0.599E-03-0.102E-03
CGA:  78    -0.675891212865E+03   -0.21836E-03   -0.25210E-03  8424   0.461E-03 0.119E-03
CGA:  79    -0.675891570448E+03   -0.35758E-03   -0.35187E-03  8424   0.566E-03-0.812E-04
CGA:  80    -0.675891779620E+03   -0.20917E-03   -0.20693E-03  8424   0.419E-03-0.102E-04
CGA:  81    -0.675890640628E+03    0.11390E-02   -0.12266E-02  8424   0.106E-01-0.108E-02
CGA:  82    -0.675893674796E+03   -0.30342E-02   -0.29408E-02  8424   0.198E-02-0.164E-03
CGA:  83    -0.675894333762E+03   -0.65897E-03   -0.57774E-03  8424   0.101E-02-0.173E-03
CGA:  84    -0.675894826854E+03   -0.49309E-03   -0.44835E-03  8424   0.837E-03-0.162E-03
CGA:  85    -0.675895346350E+03   -0.51950E-03   -0.40516E-03  8424   0.126E-02-0.696E-03
CGA:  86    -0.675895488014E+03   -0.14166E-03   -0.21521E-03  8424   0.209E-03 0.134E-03
CGA:  87    -0.675895653708E+03   -0.16569E-03   -0.17462E-03  8424   0.573E-03-0.173E-03
CGA:  88    -0.675895825687E+03   -0.17198E-03   -0.14273E-03  8424   0.131E-03-0.639E-04
CGA:  89    -0.675895902980E+03   -0.77293E-04   -0.88481E-04  8424   0.671E-03-0.144E-03
CGA:  90    -0.675896012036E+03   -0.10906E-03   -0.10880E-03  8424   0.828E-04 0.101E-05
CGA:  91    -0.675896175963E+03   -0.16393E-03    0.55504E-04  8424   0.182E-03-0.415E-04
CGA:  92    -0.675896203268E+03   -0.27306E-04   -0.39667E-04  8424   0.562E-04 0.277E-04
CGA:  93    -0.675896353942E+03   -0.15067E-03    0.25268E-04  8424   0.152E-03-0.178E-04
CGA:  94    -0.675896807691E+03   -0.45375E-03    0.13652E-04  8424   0.473E-03 0.214E-04
CGA:  95    -0.675898603704E+03   -0.17960E-02    0.10808E-03  8424   0.764E-03 0.265E-03
CGA:  96    -0.675898844600E+03   -0.24090E-03   -0.17771E-03  8424   0.277E-03-0.156E-03
CGA:  97    -0.675898934804E+03   -0.90204E-04   -0.71303E-04  8424   0.761E-04-0.646E-04
CGA:  98    -0.675899140124E+03   -0.20532E-03    0.92338E-05  8424   0.578E-04 0.138E-04
CGA:  99    -0.675899304396E+03   -0.16427E-03    0.20852E-04  8424   0.127E-03-0.424E-07
CGA: 100    -0.675899957184E+03   -0.65279E-03    0.11801E-04  8424   0.137E-03 0.772E-04
CGA: 101    -0.675899396151E+03    0.56103E-03   -0.24191E-03  8424   0.523E-02-0.697E-03
CGA: 102    -0.675900258687E+03   -0.86254E-03   -0.95479E-03  8424   0.369E-03 0.185E-03
CGA: 103    -0.675900387736E+03   -0.12905E-03   -0.11532E-03  8424   0.101E-03-0.411E-04
CGA: 104    -0.675900561103E+03   -0.17337E-03    0.50501E-04  8424   0.417E-03-0.136E-03
CGA: 105    -0.675900590644E+03   -0.29541E-04   -0.59336E-04  8424   0.490E-04 0.629E-04
CGA: 106    -0.675900673175E+03   -0.82531E-04    0.75142E-04  8424   0.120E-03-0.347E-04
CGA: 107    -0.675900835724E+03   -0.16255E-03    0.26673E-03  8424   0.547E-03-0.193E-03
CGA: 108    -0.675900866175E+03   -0.30452E-04   -0.74341E-04  8424   0.410E-04 0.960E-04
CGA: 109    -0.675900892110E+03   -0.25935E-04   -0.31290E-04  8424   0.258E-03-0.727E-04
CGA: 110    -0.675901045078E+03   -0.15297E-03   -0.14391E-03  8424   0.103E-02-0.462E-03
CGA: 111    -0.675901125412E+03   -0.80334E-04   -0.15190E-03  8424   0.565E-04 0.168E-03
CGA: 112    -0.675901154888E+03   -0.29476E-04   -0.22446E-04  8424   0.661E-04-0.330E-04
CGA: 113    -0.675901311004E+03   -0.15612E-03    0.15459E-04  8424   0.191E-03-0.733E-04
CGA: 114    -0.675901322096E+03   -0.11092E-04   -0.29079E-04  8424   0.232E-04 0.458E-04
CGA: 115    -0.675901382568E+03   -0.60472E-04    0.75082E-05  8424   0.849E-04-0.130E-04
CGA: 116    -0.675901544887E+03   -0.16232E-03    0.27231E-04  8424   0.245E-03-0.105E-03
CGA: 117    -0.675901557376E+03   -0.12488E-04   -0.35455E-04  8424   0.263E-04 0.604E-04
CGA: 118    -0.675901597779E+03   -0.40403E-04    0.38383E-04  8424   0.107E-03-0.251E-04
CGA: 119    -0.675901768357E+03   -0.17058E-03    0.47387E-04  8424   0.324E-03-0.147E-03
CGA: 120    -0.675901782318E+03   -0.13961E-04   -0.44094E-04  8424   0.312E-04 0.814E-04
CGA: 121    -0.675901800489E+03   -0.18171E-04   -0.15644E-04  8424   0.915E-04-0.291E-04
CGA: 122    -0.675901968734E+03   -0.16825E-03    0.24520E-04  8424   0.278E-03-0.123E-03
CGA: 123    -0.675901976475E+03   -0.77406E-05   -0.35231E-04  8424   0.308E-04 0.770E-04
CGA: 124    -0.675901988618E+03   -0.12143E-04   -0.10146E-04  8424   0.407E-04-0.983E-05
CGA: 125    -0.675902150646E+03   -0.16203E-03    0.11624E-05  8424   0.151E-03 0.920E-05
CGA: 126    -0.675903063383E+03   -0.91274E-03    0.95014E-05  8424   0.856E-04 0.139E-03
CGA: 127    -0.675903154770E+03   -0.91387E-04    0.11326E-03  8424   0.124E-03-0.741E-04
CGA: 128    -0.675903201443E+03   -0.46673E-04   -0.39671E-04  8424   0.570E-04-0.518E-04
CGA: 129    -0.675903327106E+03   -0.12566E-03    0.23065E-05  8424   0.334E-04 0.158E-04
CGA: 130    -0.675903484103E+03   -0.15700E-03    0.30786E-05  8424   0.370E-04 0.477E-05
CGA: 131    -0.675903712182E+03   -0.22808E-03    0.18929E-05  8424   0.376E-04 0.372E-04
CGA: 132    -0.675903796711E+03   -0.84529E-04    0.56083E-05  8424   0.420E-04-0.140E-04
CGA: 133    -0.675903960268E+03   -0.16356E-03    0.99817E-06  8424   0.464E-04 0.228E-04
CGA: 134    -0.675904029003E+03   -0.68735E-04    0.15987E-04  8424   0.413E-04-0.194E-04
CGA: 135    -0.675904179617E+03   -0.15061E-03    0.90246E-06  8424   0.381E-04 0.227E-04
CGA: 136    -0.675904255840E+03   -0.76223E-04    0.69335E-05  8424   0.303E-04-0.102E-04
CGA: 137    -0.675904394347E+03   -0.13851E-03    0.83509E-06  8424   0.269E-04 0.213E-04
CGA: 138    -0.675904468435E+03   -0.74088E-04    0.29248E-05  8424   0.211E-04-0.746E-06
CGA: 139    -0.675904604514E+03   -0.13608E-03    0.72009E-06  8424   0.207E-04 0.198E-04
CGA: 140    -0.675904676203E+03   -0.71689E-04    0.16214E-05  8424   0.167E-04 0.378E-05
CGA: 141    -0.675904811646E+03   -0.13544E-03    0.66458E-06  8424   0.176E-04 0.191E-04
CGA: 142    -0.675904883777E+03   -0.72130E-04    0.11052E-05  8424   0.146E-04 0.562E-05
CGA: 143    -0.675905018854E+03   -0.13508E-03    0.63024E-06  8424   0.159E-04 0.187E-04
CGA: 144    -0.675905089608E+03   -0.70753E-04    0.89673E-06  8424   0.135E-04 0.634E-05
CGA: 145    -0.675905224224E+03   -0.13462E-03    0.60638E-06  8424   0.147E-04 0.184E-04
CGA: 146    -0.675905295434E+03   -0.71209E-04    0.75410E-06  8424   0.127E-04 0.663E-05
CGA: 147    -0.675905429531E+03   -0.13410E-03    0.58354E-06  8424   0.139E-04 0.181E-04
CGA: 148    -0.675905499651E+03   -0.70120E-04    0.67841E-06  8424   0.122E-04 0.667E-05
CGA: 149    -0.675905633060E+03   -0.13341E-03    0.56073E-06  8424   0.133E-04 0.177E-04
CGA: 150    -0.675905703123E+03   -0.70063E-04    0.60970E-06  8424   0.117E-04 0.663E-05
CGA: 151    -0.675905835446E+03   -0.13232E-03    0.53515E-06  8424   0.127E-04 0.173E-04
CGA: 152    -0.675905904437E+03   -0.68991E-04    0.56386E-06  8424   0.113E-04 0.653E-05
CGA: 153    -0.675905974643E+03   -0.70206E-04    0.42756E-06  8424   0.105E-04 0.740E-05
CGA: 154    -0.675906041870E+03   -0.67227E-04    0.38345E-06  8424   0.101E-04 0.782E-05
CGA: 155    -0.675906113577E+03   -0.71707E-04    0.32750E-06  8424   0.101E-04 0.788E-05
CGA: 156    -0.675906176539E+03   -0.62962E-04    0.38130E-06  8424   0.111E-04 0.737E-05
CGA: 157    -0.675906254322E+03   -0.77783E-04    0.36242E-06  8424   0.154E-04 0.512E-05
CGA: 158    -0.675906413123E+03   -0.15880E-03    0.73220E-06  8424   0.106E-04 0.204E-04
CGA: 159    -0.675906477091E+03   -0.63968E-04    0.41106E-06  8424   0.107E-04 0.629E-05
CGA: 160    -0.675906549467E+03   -0.72376E-04    0.36912E-06  8424   0.118E-04 0.562E-05
CGA: 161    -0.675906604613E+03   -0.55146E-04    0.63060E-06  8424   0.167E-04 0.310E-05
CGA: 162    -0.675906771464E+03   -0.16685E-03    0.60705E-06  8424   0.140E-04 0.185E-04
CGA: 163    -0.675906840147E+03   -0.68682E-04    0.69841E-06  8424   0.141E-04 0.176E-05
CGA: 164    -0.675906969837E+03   -0.12969E-03    0.44226E-06  8424   0.140E-04 0.155E-04
CGA: 165    -0.675907034893E+03   -0.65056E-04    0.74954E-06  8424   0.130E-04 0.173E-05
CGA: 166    -0.675907157528E+03   -0.12264E-03    0.39012E-06  8424   0.130E-04 0.143E-04
CGA: 167    -0.675907222560E+03   -0.65032E-04    0.64161E-06  8424   0.114E-04 0.249E-05
CGA: 168    -0.675907339776E+03   -0.11722E-03    0.35433E-06  8424   0.117E-04 0.134E-04
CGA: 169    -0.675907402640E+03   -0.62864E-04    0.52929E-06  8424   0.100E-04 0.336E-05
CGA: 170    -0.675907516475E+03   -0.11383E-03    0.32641E-06  8424   0.106E-04 0.126E-04
CGA: 171    -0.675907578934E+03   -0.62459E-04    0.42623E-06  8424   0.900E-05 0.395E-05
CGA: 172    -0.675907690694E+03   -0.11176E-03    0.30501E-06  8424   0.973E-05 0.121E-04
CGA: 173    -0.675907751019E+03   -0.60325E-04    0.36926E-06  8424   0.835E-05 0.423E-05
CGA: 174    -0.675907861572E+03   -0.11055E-03    0.28928E-06  8424   0.911E-05 0.118E-04
CGA: 175    -0.675907921594E+03   -0.60022E-04    0.32196E-06  8424   0.793E-05 0.433E-05
CGA: 176    -0.675908031361E+03   -0.10977E-03    0.27672E-06  8424   0.864E-05 0.115E-04
CGA: 177    -0.675908089546E+03   -0.58184E-04    0.29800E-06  8424   0.763E-05 0.430E-05
CGA: 178    -0.675908198489E+03   -0.10894E-03    0.26584E-06  8424   0.827E-05 0.112E-04
CGA: 179    -0.675908256530E+03   -0.58041E-04    0.27152E-06  8424   0.736E-05 0.424E-05
CGA: 180    -0.675908313142E+03   -0.56612E-04    0.21787E-06  8424   0.682E-05 0.482E-05
CGA: 181    -0.675908370636E+03   -0.57494E-04    0.18199E-06  8424   0.650E-05 0.513E-05
CGA: 182    -0.675908426482E+03   -0.55846E-04    0.17005E-06  8424   0.632E-05 0.527E-05
CGA: 183    -0.675908484240E+03   -0.57758E-04    0.15415E-06  8424   0.625E-05 0.530E-05
CGA: 184    -0.675908538197E+03   -0.53957E-04    0.16256E-06  8424   0.640E-05 0.518E-05
CGA: 185    -0.675908598225E+03   -0.60028E-04    0.15154E-06  8424   0.723E-05 0.469E-05
CGA: 186    -0.675908645646E+03   -0.47421E-04    0.25697E-06  8424   0.108E-04 0.285E-05
CGA: 187    -0.675908788925E+03   -0.14328E-03    0.35178E-06  8424   0.702E-05 0.138E-04
CGA: 188    -0.675908847100E+03   -0.58176E-04    0.19085E-06  8424   0.794E-05 0.345E-05
CGA: 189    -0.675908960780E+03   -0.11368E-03    0.27350E-06  8424   0.713E-05 0.111E-04
CGA: 190    -0.675909016108E+03   -0.55328E-04    0.20877E-06  8424   0.747E-05 0.314E-05
CGA: 191    -0.675909123364E+03   -0.10726E-03    0.23817E-06  8424   0.720E-05 0.104E-04
CGA: 192    -0.675909178038E+03   -0.54674E-04    0.21653E-06  8424   0.713E-05 0.290E-05
CGA: 193    -0.675909280606E+03   -0.10257E-03    0.21440E-06  8424   0.714E-05 0.972E-05
CGA: 194    -0.675909333291E+03   -0.52685E-04    0.22179E-06  8424   0.673E-05 0.279E-05
CGA: 195    -0.675909431505E+03   -0.98214E-04    0.19632E-06  8424   0.695E-05 0.915E-05
CGA: 196    -0.675909483689E+03   -0.52184E-04    0.21129E-06  8424   0.631E-05 0.280E-05
CGA: 197    -0.675909578622E+03   -0.94933E-04    0.18123E-06  8424   0.665E-05 0.868E-05
CGA: 198    -0.675909628830E+03   -0.50208E-04    0.20130E-06  8424   0.592E-05 0.286E-05
CGA: 199    -0.675909721160E+03   -0.92330E-04    0.16993E-06  8424   0.635E-05 0.831E-05
CGA: 200    -0.675909770953E+03   -0.49793E-04    0.18378E-06  8424   0.560E-05 0.291E-05
   1 F= -.67590977E+03 E0= -.67590977E+03  d E =-.675910E+03  mag=     1.0000
       N       E                     dE             d eps       ncg     rms          ort
SDA:   1    -0.675910046920E+03   -0.32576E-03    0.00000E+00  8424   0.115E-03 0.000E+00
CGA:   2    -0.675910094462E+03   -0.47542E-04   -0.38731E-04  8424   0.172E-03-0.800E-04
CGA:   3    -0.675910132885E+03   -0.38423E-04   -0.26583E-04  8424   0.363E-04-0.411E-04
CGA:   4    -0.675910176000E+03   -0.43115E-04    0.72108E-05  8424   0.149E-03-0.416E-04
CGA:   5    -0.675910203881E+03   -0.27881E-04   -0.18477E-04  8424   0.202E-04-0.309E-04
CGA:   6    -0.675910249496E+03   -0.45615E-04    0.13535E-05  8424   0.535E-04-0.164E-04
CGA:   7    -0.675910272612E+03   -0.23116E-04   -0.13838E-04  8424   0.896E-04-0.601E-04
CGA:   8    -0.675910297647E+03   -0.25035E-04   -0.15504E-04  8424   0.268E-04-0.410E-04
CGA:   9    -0.675910353264E+03   -0.55617E-04    0.74355E-06  8424   0.786E-05 0.180E-05
CGA:  10    -0.675910409458E+03   -0.56194E-04    0.22026E-06  8424   0.813E-05 0.272E-05
CGA:  11    -0.675910508995E+03   -0.99537E-04    0.20476E-06  8424   0.517E-05 0.965E-05
CGA:  12    -0.675910548853E+03   -0.39858E-04    0.11580E-06  8424   0.541E-05 0.265E-05
CGA:  13    -0.675910588470E+03   -0.39617E-04    0.12830E-06  8424   0.577E-05 0.226E-05
CGA:  14    -0.675910670289E+03   -0.81819E-04    0.13790E-06  8424   0.543E-05 0.797E-05
CGA:  15    -0.675910709609E+03   -0.39320E-04    0.13081E-06  8424   0.498E-05 0.248E-05
CGA:  16    -0.675910784140E+03   -0.74532E-04    0.11887E-06  8424   0.524E-05 0.708E-05
CGA:  17    -0.675910822594E+03   -0.38454E-04    0.12402E-06  8424   0.443E-05 0.278E-05
CGA:  18    -0.675910860990E+03   -0.38396E-04    0.87245E-07  8424   0.408E-05 0.323E-05
CGA:  19    -0.675910898976E+03   -0.37985E-04    0.74246E-07  8424   0.389E-05 0.343E-05
CGA:  20    -0.675910936833E+03   -0.37857E-04    0.67645E-07  8424   0.380E-05 0.352E-05
CGA:  21    -0.675910974681E+03   -0.37848E-04    0.64315E-07  8424   0.376E-05 0.354E-05
CGA:  22    -0.675911011965E+03   -0.37284E-04    0.63853E-07  8424   0.375E-05 0.352E-05
CGA:  23    -0.675911049968E+03   -0.38003E-04    0.62349E-07  8424   0.381E-05 0.347E-05
CGA:  24    -0.675911086115E+03   -0.36146E-04    0.68021E-07  8424   0.407E-05 0.330E-05
CGA:  25    -0.675911125201E+03   -0.39086E-04    0.71681E-07  8424   0.508E-05 0.275E-05
CGA:  26    -0.675911157692E+03   -0.32491E-04    0.14053E-06  8424   0.914E-05 0.713E-06
CGA:  27    -0.675911262109E+03   -0.10442E-03    0.17517E-06  8424   0.692E-05 0.100E-04
CGA:  28    -0.675911302906E+03   -0.40797E-04    0.20991E-06  8424   0.152E-04-0.267E-05
CGA:  29    -0.675911418092E+03   -0.11519E-03    0.12577E-06  8424   0.289E-04 0.714E-05
CGA:  30    -0.675911662962E+03   -0.24487E-03    0.13278E-05  8424   0.487E-04 0.857E-06
CGA:  31    -0.675912139742E+03   -0.47678E-03    0.89143E-06  8424   0.456E-04 0.325E-04
CGA:  32    -0.675910901353E+03    0.12384E-02   -0.68067E-03  8424   0.959E-02-0.633E-03
CGA:  33    -0.675912313171E+03   -0.14118E-02   -0.14642E-02  8424   0.237E-03 0.164E-03
CGA:  34    -0.675912386704E+03   -0.73533E-04   -0.48307E-04  8424   0.177E-04-0.517E-04
CGA:  35    -0.675912424208E+03   -0.37504E-04    0.44326E-05  8424   0.659E-04-0.168E-04
CGA:  36    -0.675912471612E+03   -0.47404E-04   -0.21007E-04  8424   0.111E-03-0.761E-04
CGA:  37    -0.675912480378E+03   -0.87660E-05   -0.13683E-04  8424   0.395E-05 0.946E-05
   2 F= -.67591248E+03 E0= -.67591248E+03  d E =-.270942E-02  mag=     1.0000
       N       E                     dE             d eps       ncg     rms          ort
SDA:   1    -0.675912678236E+03   -0.20662E-03    0.00000E+00  8424   0.292E-03 0.000E+00
CGA:   2    -0.675912696933E+03   -0.18697E-04   -0.31907E-04  8424   0.393E-04 0.262E-04
CGA:   3    -0.675912718238E+03   -0.21305E-04   -0.17189E-04  8424   0.588E-04-0.212E-04
CGA:   4    -0.675912750418E+03   -0.32180E-04   -0.16704E-04  8424   0.713E-04-0.512E-04
CGA:   5    -0.675912763067E+03   -0.12649E-04   -0.94103E-05  8424   0.106E-04-0.740E-05
CGA:   6    -0.675912797628E+03   -0.34561E-04    0.11319E-05  8424   0.786E-04-0.176E-04
CGA:   7    -0.675912821849E+03   -0.24221E-04   -0.12712E-04  8424   0.224E-04-0.297E-04
CGA:   8    -0.675912870011E+03   -0.48162E-04    0.16359E-05  8424   0.542E-04-0.160E-04
CGA:   9    -0.675912890103E+03   -0.20091E-04   -0.11478E-04  8424   0.250E-04-0.271E-04
CGA:  10    -0.675912904273E+03   -0.14171E-04   -0.11820E-04  8424   0.153E-03-0.567E-04
CGA:  11    -0.675912941158E+03   -0.36884E-04   -0.25850E-04  8424   0.112E-04-0.321E-04
CGA:  12    -0.675912973640E+03   -0.32482E-04    0.80675E-06  8424   0.227E-04-0.553E-05
CGA:  13    -0.675913099128E+03   -0.12549E-03    0.28340E-06  8424   0.286E-04 0.401E-05
CGA:  14    -0.675913280707E+03   -0.18158E-03    0.18677E-05  8424   0.425E-04-0.106E-04
CGA:  15    -0.675913598014E+03   -0.31731E-03    0.60155E-06  8424   0.396E-04 0.234E-04
CGA:  16    -0.675913266890E+03    0.33112E-03   -0.67928E-04  8424   0.317E-02-0.327E-03
CGA:  17    -0.675913674523E+03   -0.40763E-03   -0.44611E-03  8424   0.289E-03 0.951E-04
CGA:  18    -0.675913756899E+03   -0.82376E-04   -0.62707E-04  8424   0.200E-04-0.606E-04
CGA:  19    -0.675913745724E+03    0.11175E-04   -0.14813E-04  8424   0.479E-03-0.621E-04
CGA:  20    -0.675913837627E+03   -0.91903E-04   -0.60263E-04  8424   0.199E-04-0.770E-04
CGA:  21    -0.675913846790E+03   -0.91633E-05   -0.80266E-05  8424   0.104E-03-0.289E-04
CGA:  22    -0.675913884595E+03   -0.37804E-04   -0.17595E-04  8424   0.415E-04-0.581E-04
CGA:  23    -0.675913888573E+03   -0.39781E-05   -0.44967E-05  8424   0.304E-05 0.133E-05
   3 F= -.67591389E+03 E0= -.67591389E+03  d E =-.140820E-02  mag=     1.0000
       N       E                     dE             d eps       ncg     rms          ort
SDA:   1    -0.674896810413E+03    0.10171E+01    0.00000E+00  8424   0.311E+01 0.000E+00
CGA:   2    -0.675525021971E+03   -0.62821E+00   -0.62908E+00  8424   0.129E+01-0.109E-02
CGA:   3    -0.675803849365E+03   -0.27883E+00   -0.27863E+00  8424   0.420E+00-0.300E-03
CGA:   4    -0.675872707393E+03   -0.68858E-01   -0.68872E-01  8424   0.998E-01 0.875E-04
CGA:   5    -0.675889615632E+03   -0.16908E-01   -0.16971E-01  8424   0.196E-01 0.217E-03
CGA:   6    -0.675893671454E+03   -0.40558E-02   -0.40536E-02  8424   0.449E-02-0.133E-04
CGA:   7    -0.675894685128E+03   -0.10137E-02   -0.10083E-02  8424   0.129E-02-0.290E-04
CGA:   8    -0.675895029934E+03   -0.34481E-03   -0.33511E-03  8424   0.408E-03-0.673E-04
CGA:   9    -0.675895167421E+03   -0.13749E-03   -0.13063E-03  8424   0.217E-03-0.114E-03
CGA:  10    -0.675895231585E+03   -0.64164E-04   -0.67457E-04  8424   0.180E-03-0.927E-04
CGA:  11    -0.675895322793E+03   -0.91208E-04    0.18200E-03  8424   0.111E-03-0.668E-04
CGA:  12    -0.675895393438E+03   -0.70645E-04    0.49764E-04  8424   0.709E-04-0.215E-04
CGA:  13    -0.675895492801E+03   -0.99363E-04    0.95345E-05  8424   0.490E-04-0.116E-05
CGA:  14    -0.675895570259E+03   -0.77458E-04    0.93492E-05  8424   0.291E-04 0.243E-05
CGA:  15    -0.675895649938E+03   -0.79680E-04    0.26433E-05  8424   0.198E-04 0.833E-06
CGA:  16    -0.675895711009E+03   -0.61071E-04    0.14623E-05  8424   0.202E-04-0.288E-05
CGA:  17    -0.675895807133E+03   -0.96124E-04    0.57087E-06  8424   0.206E-04-0.729E-06
CGA:  18    -0.675895923739E+03   -0.11661E-03    0.61622E-06  8424   0.171E-04 0.847E-05
CGA:  19    -0.675896041062E+03   -0.11732E-03    0.92961E-06  8424   0.161E-04 0.101E-04
CGA:  20    -0.675896070645E+03   -0.29583E-04    0.24240E-05  8424   0.321E-04-0.905E-05
CGA:  21    -0.675896073102E+03   -0.24568E-05   -0.37395E-05  8424   0.375E-05 0.457E-05
   4 F= -.67589607E+03 E0= -.67589607E+03  d E =0.178155E-01  mag=     1.0000
       N       E                     dE             d eps       ncg     rms          ort
SDA:   1    -0.675137684478E+03    0.75839E+00    0.00000E+00  8424   0.240E+01 0.000E+00
CGA:   2    -0.675638515499E+03   -0.50083E+00   -0.50122E+00  8424   0.102E+01 0.469E-03
CGA:   3    -0.675853853113E+03   -0.21534E+00   -0.21530E+00  8424   0.319E+00-0.207E-03
CGA:   4    -0.675906676575E+03   -0.52823E-01   -0.52830E-01  8424   0.779E-01-0.332E-04
CGA:   5    -0.675919966968E+03   -0.13290E-01   -0.13311E-01  8424   0.153E-01 0.924E-04
CGA:   6    -0.675923108108E+03   -0.31411E-02   -0.31399E-02  8424   0.344E-02-0.122E-04
CGA:   7    -0.675923888832E+03   -0.78072E-03   -0.78022E-03  8424   0.102E-02-0.509E-05
CGA:   8    -0.675924156139E+03   -0.26731E-03   -0.26370E-03  8424   0.317E-03-0.484E-04
CGA:   9    -0.675924249576E+03   -0.93437E-04   -0.92153E-04  8424   0.128E-03-0.522E-04
CGA:  10    -0.675924290856E+03   -0.41280E-04   -0.47923E-04  8424   0.109E-03-0.562E-04
CGA:  11    -0.675924332288E+03   -0.41431E-04    0.14293E-02  8424   0.525E-04-0.303E-04
CGA:  12    -0.675924366415E+03   -0.34127E-04    0.18578E-04  8424   0.271E-04-0.480E-05
CGA:  13    -0.675924404067E+03   -0.37652E-04    0.32160E-05  8424   0.176E-04 0.108E-05
CGA:  14    -0.675924441544E+03   -0.37477E-04    0.14852E-05  8424   0.104E-04 0.520E-05
CGA:  15    -0.675924477446E+03   -0.35902E-04    0.75746E-06  8424   0.660E-05 0.413E-05
CGA:  16    -0.675924516744E+03   -0.39298E-04    0.28859E-06  8424   0.459E-05 0.356E-05
CGA:  17    -0.675924531046E+03   -0.14302E-04    0.21078E-06  8424   0.280E-05 0.183E-05
CGA:  18    -0.675924557629E+03   -0.26584E-04    0.71920E-07  8424   0.293E-05 0.267E-05
CGA:  19    -0.675924570264E+03   -0.12635E-04    0.90217E-07  8424   0.283E-05 0.154E-05
CGA:  20    -0.675924589622E+03   -0.19358E-04    0.51359E-07  8424   0.452E-05 0.665E-06
CGA:  21    -0.675924628457E+03   -0.38834E-04    0.99621E-07  8424   0.314E-05 0.530E-05
CGA:  22    -0.675924637709E+03   -0.92521E-05    0.15441E-06  8424   0.531E-05 0.168E-06
   5 F= -.67592464E+03 E0= -.67592464E+03  d E =-.285646E-01  mag=     1.0000
       N       E                     dE             d eps       ncg     rms          ort
SDA:   1    -0.675891901532E+03    0.32727E-01    0.00000E+00  8424   0.117E+00 0.000E+00
CGA:   2    -0.675917719487E+03   -0.25818E-01   -0.25817E-01  8424   0.463E-01-0.257E-04
CGA:   3    -0.675927236670E+03   -0.95172E-02   -0.95083E-02  8424   0.147E-01-0.787E-04
CGA:   4    -0.675929778434E+03   -0.25418E-02   -0.25388E-02  8424   0.375E-02-0.217E-04
CGA:   5    -0.675930415843E+03   -0.63741E-03   -0.63538E-03  8424   0.725E-03-0.147E-04
CGA:   6    -0.675930574485E+03   -0.15864E-03   -0.15502E-03  8424   0.182E-03-0.390E-04
CGA:   7    -0.675930626927E+03   -0.52442E-04   -0.52508E-04  8424   0.103E-03-0.544E-04
CGA:   8    -0.675930638562E+03   -0.11636E-04   -0.38616E-04  8424   0.252E-03-0.117E-03
CGA:   9    -0.675930685316E+03   -0.46753E-04   -0.43205E-04  8424   0.427E-04-0.247E-04
CGA:  10    -0.675930377300E+03    0.30802E-03   -0.16599E-03  8424   0.196E-02-0.232E-03
CGA:  11    -0.675930729888E+03   -0.35259E-03   -0.33891E-03  8424   0.228E-03-0.355E-04
CGA:  12    -0.675930803895E+03   -0.74006E-04   -0.70693E-04  8424   0.350E-04-0.147E-04
CGA:  13    -0.675930842068E+03   -0.38174E-04    0.89190E-04  8424   0.951E-04-0.355E-04
CGA:  14    -0.675930846459E+03   -0.43913E-05   -0.10548E-04  8424   0.721E-05 0.147E-04
   6 F= -.67593085E+03 E0= -.67593085E+03  d E =-.620875E-02  mag=     1.0000
       N       E                     dE             d eps       ncg     rms          ort
SDA:   1    -0.675836644464E+03    0.94198E-01    0.00000E+00  8424   0.311E+00 0.000E+00
CGA:   2    -0.675907637639E+03   -0.70993E-01   -0.71047E-01  8424   0.123E+00 0.150E-03
CGA:   3    -0.675932734814E+03   -0.25097E-01   -0.25051E-01  8424   0.378E-01-0.159E-03
CGA:   4    -0.675939257857E+03   -0.65230E-02   -0.65294E-02  8424   0.958E-02 0.172E-04
CGA:   5    -0.675940859304E+03   -0.16014E-02   -0.16014E-02  8424   0.185E-02-0.219E-05
CGA:   6    -0.675941258629E+03   -0.39933E-03   -0.38779E-03  8424   0.448E-03-0.481E-04
CGA:   7    -0.675941370422E+03   -0.11179E-03   -0.10851E-03  8424   0.149E-03-0.174E-04
CGA:   8    -0.675941419960E+03   -0.49538E-04   -0.44878E-04  8424   0.782E-04-0.403E-04
CGA:   9    -0.675941441621E+03   -0.21660E-04   -0.32077E-04  8424   0.162E-03-0.755E-04
CGA:  10    -0.675941477118E+03   -0.35498E-04   -0.31461E-04  8424   0.308E-04-0.172E-04
CGA:  11    -0.675941036717E+03    0.44040E-03   -0.23889E-03  8424   0.265E-02-0.226E-03
CGA:  12    -0.675941521283E+03   -0.48457E-03   -0.46778E-03  8424   0.296E-03-0.289E-04
CGA:  13    -0.675941597722E+03   -0.76439E-04   -0.78847E-04  8424   0.737E-04 0.520E-05
CGA:  14    -0.675941636485E+03   -0.38763E-04   -0.22573E-04  8424   0.595E-04-0.395E-04
CGA:  15    -0.675941640142E+03   -0.36573E-05   -0.74333E-05  8424   0.684E-05 0.670E-05
   7 F= -.67594164E+03 E0= -.67594164E+03  d E =-.107937E-01  mag=     1.0000
       N       E                     dE             d eps       ncg     rms          ort
SDA:   1    -0.675936655474E+03    0.49810E-02    0.00000E+00  8424   0.297E-01 0.000E+00
CGA:   2    -0.675944630606E+03   -0.79751E-02   -0.79865E-02  8424   0.149E-01 0.237E-04
CGA:   3    -0.675947317599E+03   -0.26870E-02   -0.26899E-02  8424   0.358E-02 0.556E-05
CGA:   4    -0.675947903776E+03   -0.58618E-03   -0.58538E-03  8424   0.901E-03-0.244E-05
CGA:   5    -0.675948066899E+03   -0.16312E-03   -0.15644E-03  8424   0.189E-03-0.160E-04
CGA:   6    -0.675948115961E+03   -0.49062E-04   -0.42089E-04  8424   0.552E-04-0.200E-04
CGA:   7    -0.675948134671E+03   -0.18710E-04   -0.14485E-04  8424   0.331E-04-0.160E-04
CGA:   8    -0.675947216929E+03    0.91774E-03   -0.50516E-03  8424   0.595E-02-0.335E-03
CGA:   9    -0.675948099850E+03   -0.88292E-03   -0.88293E-03  8424   0.634E-03-0.222E-05
CGA:  10    -0.675948312345E+03   -0.21249E-03   -0.19055E-03  8424   0.159E-03-0.338E-04
CGA:  11    -0.675948360799E+03   -0.48454E-04   -0.46831E-04  8424   0.621E-04-0.271E-05
CGA:  12    -0.675948404146E+03   -0.43347E-04   -0.28087E-04  8424   0.805E-04-0.357E-04
CGA:  13    -0.675948408410E+03   -0.42643E-05   -0.10680E-04  8424   0.119E-04 0.879E-05
CGA:  14    -0.675948433403E+03   -0.24993E-04    0.37722E-04  8424   0.574E-04-0.219E-04
CGA:  15    -0.675948449927E+03   -0.16523E-04   -0.14729E-04  8424   0.725E-05-0.316E-05
CGA:  16    -0.675948479496E+03   -0.29569E-04    0.16226E-05  8424   0.600E-04-0.129E-04
CGA:  17    -0.675948483037E+03   -0.35412E-05   -0.73401E-05  8424   0.571E-05 0.563E-05
   8 F= -.67594848E+03 E0= -.67594848E+03  d E =-.684289E-02  mag=     1.0000
       N       E                     dE             d eps       ncg     rms          ort
SDA:   1    -0.675929027584E+03    0.19452E-01    0.00000E+00  8424   0.729E-01 0.000E+00
CGA:   2    -0.675949600378E+03   -0.20573E-01   -0.20565E-01  8424   0.352E-01-0.219E-04
CGA:   3    -0.675955993875E+03   -0.63935E-02   -0.64253E-02  8424   0.793E-02 0.562E-04
CGA:   4    -0.675957352377E+03   -0.13585E-02   -0.13624E-02  8424   0.199E-02 0.492E-05
CGA:   5    -0.675957691978E+03   -0.33960E-03   -0.33261E-03  8424   0.437E-03-0.139E-04
CGA:   6    -0.675957786801E+03   -0.94823E-04   -0.89972E-04  8424   0.105E-03-0.108E-04
CGA:   7    -0.675957817227E+03   -0.30426E-04   -0.26648E-04  8424   0.422E-04-0.100E-04
CGA:   8    -0.675957835380E+03   -0.18152E-04   -0.13904E-04  8424   0.354E-04-0.167E-04
CGA:   9    -0.675957862792E+03   -0.27412E-04    0.11716E-03  8424   0.833E-04-0.341E-04
CGA:  10    -0.675957886317E+03   -0.23525E-04   -0.18273E-04  8424   0.257E-04-0.136E-04
CGA:  11    -0.675957159639E+03    0.72668E-03   -0.39733E-03  8424   0.416E-02-0.254E-03
CGA:  12    -0.675957890840E+03   -0.73120E-03   -0.73958E-03  8424   0.436E-03 0.999E-05
CGA:  13    -0.675958041421E+03   -0.15058E-03   -0.15041E-03  8424   0.568E-04-0.362E-06
CGA:  14    -0.675958064655E+03   -0.23234E-04   -0.19125E-04  8424   0.357E-04-0.630E-05
CGA:  15    -0.675958091358E+03   -0.26703E-04   -0.12933E-04  8424   0.420E-04-0.250E-04
CGA:  16    -0.675958098541E+03   -0.71833E-05   -0.68540E-05  8424   0.899E-05-0.444E-06
   9 F= -.67595810E+03 E0= -.67595810E+03  d E =-.961550E-02  mag=     1.0000
       N       E                     dE             d eps       ncg     rms          ort
SDA:   1    -0.675922346709E+03    0.35745E-01    0.00000E+00  8424   0.963E-01 0.000E+00
CGA:   2    -0.675954141126E+03   -0.31794E-01   -0.31717E-01  8424   0.360E-01-0.133E-03
CGA:   3    -0.675960228716E+03   -0.60876E-02   -0.61986E-02  8424   0.897E-02 0.172E-03
CGA:   4    -0.675961857774E+03   -0.16291E-02   -0.16155E-02  8424   0.226E-02-0.216E-04
CGA:   5    -0.675962243315E+03   -0.38554E-03   -0.37281E-03  8424   0.482E-03-0.203E-04
CGA:   6    -0.675962329573E+03   -0.86258E-04   -0.92319E-04  8424   0.118E-03 0.104E-04
CGA:   7    -0.675962367699E+03   -0.38126E-04   -0.32628E-04  8424   0.564E-04-0.118E-04
CGA:   8    -0.675962384420E+03   -0.16720E-04   -0.14180E-04  8424   0.263E-04-0.589E-05
CGA:   9    -0.675962398901E+03   -0.14481E-04   -0.19282E-04  8424   0.126E-03-0.383E-04
CGA:  10    -0.675962431323E+03   -0.32423E-04   -0.25438E-04  8424   0.218E-04-0.141E-04
CGA:  11    -0.675962443868E+03   -0.12544E-04   -0.97210E-05  8424   0.367E-04-0.164E-04
CGA:  12    -0.675962457780E+03   -0.13912E-04   -0.87869E-05  8424   0.119E-04-0.120E-04
CGA:  13    -0.675962472649E+03   -0.14869E-04    0.58821E-05  8424   0.273E-04-0.701E-05
CGA:  14    -0.675962483564E+03   -0.10915E-04   -0.62220E-05  8424   0.149E-04-0.113E-04
CGA:  15    -0.675962505415E+03   -0.21851E-04    0.27288E-05  8424   0.400E-04-0.117E-04
CGA:  16    -0.675962509920E+03   -0.45051E-05   -0.59315E-05  8424   0.671E-05 0.301E-05
  10 F= -.67596251E+03 E0= -.67596251E+03  d E =-.441138E-02  mag=     1.0000
       N       E                     dE             d eps       ncg     rms          ort
SDA:   1    -0.675925047056E+03    0.37458E-01    0.00000E+00  8424   0.893E-01 0.000E+00
CGA:   2    -0.675951476803E+03   -0.26430E-01   -0.26366E-01  8424   0.414E-01-0.217E-03
CGA:   3    -0.675958740333E+03   -0.72635E-02   -0.73378E-02  8424   0.959E-02 0.184E-03
CGA:   4    -0.675960391154E+03   -0.16508E-02   -0.16468E-02  8424   0.239E-02-0.113E-04
CGA:   5    -0.675960795368E+03   -0.40421E-03   -0.40119E-03  8424   0.520E-03-0.841E-05
CGA:   6    -0.675960887328E+03   -0.91960E-04   -0.99410E-04  8424   0.122E-03 0.222E-04
CGA:   7    -0.675960923782E+03   -0.36454E-04   -0.33272E-04  8424   0.560E-04-0.129E-04
CGA:   8    -0.675960939485E+03   -0.15703E-04   -0.14211E-04  8424   0.262E-04-0.705E-05
CGA:   9    -0.675960950808E+03   -0.11323E-04   -0.13455E-04  8424   0.547E-04-0.213E-04
CGA:  10    -0.675960969075E+03   -0.18268E-04   -0.13961E-04  8424   0.229E-04-0.183E-04
CGA:  11    -0.675960969221E+03   -0.14554E-06   -0.13766E-04  8424   0.129E-03-0.324E-04
CGA:  12    -0.675961001905E+03   -0.32684E-04   -0.26326E-04  8424   0.193E-04-0.215E-04
CGA:  13    -0.675961006664E+03   -0.47592E-05   -0.47603E-05  8424   0.439E-05-0.272E-07
  11 F= -.67596101E+03 E0= -.67596101E+03  d E =0.150326E-02  mag=     1.0000
       N       E                     dE             d eps       ncg     rms          ort
SDA:   1    -0.675891952629E+03    0.69049E-01    0.00000E+00  8424   0.155E+00 0.000E+00
CGA:   2    -0.675933160509E+03   -0.41208E-01   -0.41191E-01  8424   0.725E-01-0.100E-03
CGA:   3    -0.675946770542E+03   -0.13610E-01   -0.13629E-01  8424   0.185E-01 0.575E-04
CGA:   4    -0.675949901247E+03   -0.31307E-02   -0.31321E-02  8424   0.455E-02 0.226E-05
CGA:   5    -0.675950682060E+03   -0.78081E-03   -0.77762E-03  8424   0.919E-03-0.128E-04
CGA:   6    -0.675950870209E+03   -0.18815E-03   -0.18852E-03  8424   0.219E-03 0.150E-05
CGA:   7    -0.675950926125E+03   -0.55915E-04   -0.54434E-04  8424   0.787E-04-0.901E-05
CGA:   8    -0.675950949479E+03   -0.23354E-04   -0.22058E-04  8424   0.359E-04-0.115E-04
CGA:   9    -0.675950962428E+03   -0.12949E-04   -0.15831E-04  8424   0.556E-04-0.247E-04
CGA:  10    -0.675950977421E+03   -0.14993E-04   -0.12833E-04  8424   0.181E-04-0.124E-04
CGA:  11    -0.675950990136E+03   -0.12716E-04    0.19563E-04  8424   0.112E-04-0.421E-05
CGA:  12    -0.675951006986E+03   -0.16849E-04    0.11599E-05  8424   0.573E-05 0.171E-05
CGA:  13    -0.675951024030E+03   -0.17044E-04    0.58311E-06  8424   0.444E-05 0.282E-05
CGA:  14    -0.675951044897E+03   -0.20867E-04    0.44174E-06  8424   0.398E-05 0.382E-05
CGA:  15    -0.675951056532E+03   -0.11635E-04    0.29421E-06  8424   0.417E-05 0.526E-06
CGA:  16    -0.675951072656E+03   -0.16124E-04    0.28398E-06  8424   0.544E-05 0.189E-05
CGA:  17    -0.675951108354E+03   -0.35699E-04    0.33417E-06  8424   0.387E-05 0.601E-05
CGA:  18    -0.675951118373E+03   -0.10018E-04    0.34016E-06  8424   0.275E-05 0.124E-05
CGA:  19    -0.675951135093E+03   -0.16720E-04    0.14961E-06  8424   0.326E-05 0.202E-05
CGA:  20    -0.675951144984E+03   -0.98908E-05    0.22820E-06  8424   0.592E-05-0.234E-07
  12 F= -.67595114E+03 E0= -.67595114E+03  d E =0.986168E-02  mag=     1.0000
       N       E                     dE             d eps       ncg     rms          ort
SDA:   1    -0.675906807912E+03    0.44327E-01    0.00000E+00  8424   0.878E-01 0.000E+00
CGA:   2    -0.675929943685E+03   -0.23136E-01   -0.23147E-01  8424   0.417E-01 0.696E-04
CGA:   3    -0.675937746868E+03   -0.78032E-02   -0.77743E-02  8424   0.106E-01-0.147E-03
CGA:   4    -0.675939534796E+03   -0.17879E-02   -0.17785E-02  8424   0.272E-02-0.461E-04
CGA:   5    -0.675939997822E+03   -0.46303E-03   -0.46005E-03  8424   0.539E-03-0.155E-04
CGA:   6    -0.675940113504E+03   -0.11568E-03   -0.11308E-03  8424   0.139E-03-0.177E-04
CGA:   7    -0.675940148701E+03   -0.35197E-04   -0.33782E-04  8424   0.549E-04-0.141E-04
CGA:   8    -0.675940166295E+03   -0.17594E-04   -0.23081E-04  8424   0.928E-04-0.454E-04
CGA:   9    -0.675940181657E+03   -0.15363E-04   -0.15051E-04  8424   0.140E-04-0.166E-05
CGA:  10    -0.675940193483E+03   -0.11826E-04    0.92228E-05  8424   0.689E-05-0.157E-05
CGA:  11    -0.675940204822E+03   -0.11339E-04    0.61878E-06  8424   0.420E-05 0.149E-05
CGA:  12    -0.675940221632E+03   -0.16810E-04    0.23187E-06  8424   0.341E-05 0.289E-05
CGA:  13    -0.675940229753E+03   -0.81206E-05    0.23745E-06  8424   0.262E-05 0.129E-05
  13 F= -.67594023E+03 E0= -.67594023E+03  d E =0.109152E-01  mag=     1.0000
       N       E                     dE             d eps       ncg     rms          ort
SDA:   1    -0.675913093746E+03    0.27128E-01    0.00000E+00  8424   0.617E-01 0.000E+00
CGA:   2    -0.675931231274E+03   -0.18138E-01   -0.18140E-01  8424   0.253E-01 0.472E-04
CGA:   3    -0.675935984473E+03   -0.47532E-02   -0.47258E-02  8424   0.684E-02-0.184E-03
CGA:   4    -0.675937160253E+03   -0.11758E-02   -0.11729E-02  8424   0.162E-02-0.199E-04
CGA:   5    -0.675937433670E+03   -0.27342E-03   -0.27198E-03  8424   0.333E-03-0.945E-05
CGA:   6    -0.675937514709E+03   -0.81039E-04   -0.77398E-04  8424   0.105E-03-0.437E-04
CGA:   7    -0.675937541984E+03   -0.27274E-04   -0.26710E-04  8424   0.557E-04-0.265E-04
CGA:   8    -0.675937054945E+03    0.48704E-03   -0.26399E-03  8424   0.336E-02-0.338E-03
CGA:   9    -0.675937529940E+03   -0.47499E-03   -0.49192E-03  8424   0.332E-03 0.393E-04
CGA:  10    -0.675937632408E+03   -0.10247E-03   -0.97051E-04  8424   0.912E-04-0.209E-04
CGA:  11    -0.675937655101E+03   -0.22693E-04   -0.23866E-04  8424   0.311E-04 0.456E-05
CGA:  12    -0.675936831455E+03    0.82365E-03   -0.44882E-03  8424   0.466E-02-0.330E-03
CGA:  13    -0.675937487681E+03   -0.65623E-03   -0.72890E-03  8424   0.781E-03 0.111E-03
CGA:  14    -0.675937734160E+03   -0.24648E-03   -0.21390E-03  8424   0.187E-03-0.509E-04
CGA:  15    -0.675937793788E+03   -0.59628E-04   -0.60332E-04  8424   0.683E-04 0.129E-05
CGA:  16    -0.675937852358E+03   -0.58570E-04   -0.46857E-04  8424   0.186E-03-0.681E-04
CGA:  17    -0.675937859216E+03   -0.68574E-05   -0.22832E-04  8424   0.204E-04 0.224E-04
  14 F= -.67593786E+03 E0= -.67593786E+03  d E =0.237054E-02  mag=     1.0000
       N       E                     dE             d eps       ncg     rms          ort
SDA:   1    -0.675918354740E+03    0.19498E-01    0.00000E+00  8424   0.566E-01 0.000E+00
CGA:   2    -0.675934241907E+03   -0.15887E-01   -0.15922E-01  8424   0.236E-01 0.666E-04
CGA:   3    -0.675938649762E+03   -0.44079E-02   -0.43478E-02  8424   0.649E-02-0.103E-03
CGA:   4    -0.675939764002E+03   -0.11142E-02   -0.11190E-02  8424   0.160E-02 0.738E-05
CGA:   5    -0.675940029504E+03   -0.26550E-03   -0.26774E-03  8424   0.326E-03 0.377E-05
CGA:   6    -0.675940111521E+03   -0.82017E-04   -0.70665E-04  8424   0.910E-04-0.246E-04
CGA:   7    -0.675940137808E+03   -0.26287E-04   -0.21919E-04  8424   0.375E-04-0.111E-04
CGA:   8    -0.675940151594E+03   -0.13785E-04   -0.26449E-04  8424   0.262E-03-0.766E-04
CGA:   9    -0.675940188247E+03   -0.36653E-04   -0.39276E-04  8424   0.284E-04 0.524E-05
CGA:  10    -0.675940206277E+03   -0.18030E-04   -0.17779E-04  8424   0.819E-04-0.371E-04
CGA:  11    -0.675940217279E+03   -0.11002E-04   -0.13231E-04  8424   0.105E-04 0.485E-05
CGA:  12    -0.675940242858E+03   -0.25579E-04    0.35345E-05  8424   0.434E-04-0.179E-04
CGA:  13    -0.675940245185E+03   -0.23263E-05   -0.57214E-05  8424   0.631E-05 0.731E-05
  15 F= -.67594025E+03 E0= -.67594025E+03  d E =-.238597E-02  mag=     1.0000
       N       E                     dE             d eps       ncg     rms          ort
SDA:   1    -0.675936892066E+03    0.33508E-02    0.00000E+00  8424   0.101E-01 0.000E+00
CGA:   2    -0.675939773859E+03   -0.28818E-02   -0.28749E-02  8424   0.433E-02-0.250E-04
CGA:   3    -0.675940571320E+03   -0.79746E-03   -0.79846E-03  8424   0.108E-02 0.212E-05
CGA:   4    -0.675940755451E+03   -0.18413E-03   -0.18416E-03  8424   0.275E-03-0.153E-06
CGA:   5    -0.675940806143E+03   -0.50692E-04   -0.48409E-04  8424   0.578E-04-0.668E-05
CGA:   6    -0.675940822155E+03   -0.16013E-04   -0.13362E-04  8424   0.208E-04-0.993E-05
CGA:   7    -0.675940278968E+03    0.54319E-03   -0.29789E-03  8424   0.388E-02-0.224E-03
CGA:   8    -0.675940822704E+03   -0.54374E-03   -0.54068E-03  8424   0.382E-03-0.429E-05
CGA:   9    -0.675940933353E+03   -0.11065E-03   -0.10279E-03  8424   0.107E-03-0.134E-04
CGA:  10    -0.675940977315E+03   -0.43962E-04   -0.33242E-04  8424   0.400E-04-0.212E-04
CGA:  11    -0.675941000472E+03   -0.23156E-04   -0.15354E-04  8424   0.398E-04-0.240E-04
CGA:  12    -0.675941016289E+03   -0.15818E-04   -0.10103E-04  8424   0.134E-04-0.107E-04
CGA:  13    -0.675941033221E+03   -0.16932E-04    0.27927E-04  8424   0.454E-04-0.148E-04
CGA:  14    -0.675941051649E+03   -0.18428E-04   -0.10392E-04  8424   0.137E-04-0.151E-04
CGA:  15    -0.675941069029E+03   -0.17380E-04    0.11206E-04  8424   0.440E-04-0.137E-04
CGA:  16    -0.675941088604E+03   -0.19575E-04   -0.10031E-04  8424   0.174E-04-0.189E-04
CGA:  17    -0.675941080430E+03    0.81739E-05   -0.12710E-04  8424   0.247E-03-0.367E-04
CGA:  18    -0.675941143594E+03   -0.63164E-04   -0.40490E-04  8424   0.344E-04-0.398E-04
CGA:  19    -0.675941149411E+03   -0.58169E-05   -0.64616E-05  8424   0.256E-05 0.132E-05
  16 F= -.67594115E+03 E0= -.67594115E+03  d E =-.904227E-03  mag=     1.0000
       N       E                     dE             d eps       ncg     rms          ort
SDA:   1    -0.675920491945E+03    0.20652E-01    0.00000E+00  8424   0.432E-01 0.000E+00
CGA:   2    -0.675932449106E+03   -0.11957E-01   -0.11896E-01  8424   0.194E-01-0.161E-03
CGA:   3    -0.675936033178E+03   -0.35841E-02   -0.36392E-02  8424   0.459E-02 0.121E-03
CGA:   4    -0.675936853711E+03   -0.82053E-03   -0.80564E-03  8424   0.119E-02-0.328E-04
CGA:   5    -0.675937060423E+03   -0.20671E-03   -0.20147E-03  8424   0.242E-03-0.120E-04
CGA:   6    -0.675937101386E+03   -0.40963E-04   -0.45778E-04  8424   0.585E-04 0.119E-04
CGA:   7    -0.675937127492E+03   -0.26107E-04   -0.20337E-04  8424   0.473E-04-0.238E-04
CGA:   8    -0.675937142648E+03   -0.15156E-04   -0.10456E-04  8424   0.387E-04-0.248E-04
CGA:   9    -0.675937160939E+03   -0.18291E-04   -0.13909E-04  8424   0.445E-04-0.227E-04
CGA:  10    -0.675937169384E+03   -0.84447E-05   -0.69067E-05  8424   0.410E-05-0.398E-05
  17 F= -.67593717E+03 E0= -.67593717E+03  d E =0.398003E-02  mag=     1.0000
       N       E                     dE             d eps       ncg     rms          ort
SDA:   1    -0.675923595589E+03    0.13565E-01    0.00000E+00  8424   0.179E-01 0.000E+00
CGA:   2    -0.675928277174E+03   -0.46816E-02   -0.46480E-02  8424   0.861E-02-0.132E-03
CGA:   3    -0.675929832747E+03   -0.15556E-02   -0.15671E-02  8424   0.207E-02 0.336E-04
CGA:   4    -0.675930199489E+03   -0.36674E-03   -0.35955E-03  8424   0.556E-03-0.228E-04
CGA:   5    -0.675930301630E+03   -0.10214E-03   -0.96650E-04  8424   0.118E-03-0.183E-04
CGA:   6    -0.675930327939E+03   -0.26309E-04   -0.24191E-04  8424   0.341E-04-0.848E-05
CGA:   7    -0.675930325950E+03    0.19889E-05   -0.24926E-04  8424   0.304E-03-0.802E-04
CGA:   8    -0.675930363642E+03   -0.37692E-04   -0.40988E-04  8424   0.286E-04 0.986E-05
CGA:   9    -0.675930353431E+03    0.10211E-04   -0.27492E-04  8424   0.275E-03-0.788E-04
CGA:  10    -0.675930395526E+03   -0.42095E-04   -0.46357E-04  8424   0.348E-04 0.139E-04
CGA:  11    -0.675930390365E+03    0.51611E-05   -0.29897E-04  8424   0.301E-03-0.981E-04
CGA:  12    -0.675930424987E+03   -0.34622E-04   -0.45720E-04  8424   0.392E-04 0.342E-04
CGA:  13    -0.675930443863E+03   -0.18877E-04   -0.23584E-04  8424   0.943E-04-0.598E-04
CGA:  14    -0.675930454207E+03   -0.10344E-04   -0.14900E-04  8424   0.148E-04 0.148E-04
CGA:  15    -0.675930476431E+03   -0.22224E-04    0.87107E-05  8424   0.211E-04-0.169E-04
CGA:  16    -0.675930479605E+03   -0.31741E-05   -0.38908E-05  8424   0.412E-05 0.270E-05
  18 F= -.67593048E+03 E0= -.67593048E+03  d E =0.668978E-02  mag=     1.0000
       N       E                     dE             d eps       ncg     rms          ort
SDA:   1    -0.675887337108E+03    0.43139E-01    0.00000E+00  8424   0.743E-01 0.000E+00
CGA:   2    -0.675909281489E+03   -0.21944E-01   -0.21935E-01  8424   0.333E-01-0.869E-04
CGA:   3    -0.675915264673E+03   -0.59832E-02   -0.59582E-02  8424   0.821E-02-0.104E-03
CGA:   4    -0.675916668936E+03   -0.14043E-02   -0.13978E-02  8424   0.207E-02-0.273E-04
CGA:   5    -0.675917022129E+03   -0.35319E-03   -0.35085E-03  8424   0.422E-03-0.105E-04
CGA:   6    -0.675917120547E+03   -0.98419E-04   -0.93039E-04  8424   0.128E-03-0.316E-04
CGA:   7    -0.675917157126E+03   -0.36579E-04   -0.33137E-04  8424   0.660E-04-0.329E-04
CGA:   8    -0.675917171970E+03   -0.14843E-04   -0.26917E-04  8424   0.163E-03-0.711E-04
CGA:   9    -0.675917203227E+03   -0.31258E-04   -0.27691E-04  8424   0.275E-04-0.164E-04
CGA:  10    -0.675917186342E+03    0.16885E-04   -0.24886E-04  8424   0.276E-03-0.666E-04
CGA:  11    -0.675917242306E+03   -0.55964E-04   -0.49757E-04  8424   0.335E-04-0.273E-04
CGA:  12    -0.675917252750E+03   -0.10444E-04   -0.18137E-04  8424   0.702E-04-0.376E-04
CGA:  13    -0.675917280795E+03   -0.28045E-04   -0.24555E-04  8424   0.784E-04-0.614E-04
CGA:  14    -0.675917285909E+03   -0.51142E-05   -0.95578E-05  8424   0.543E-05 0.158E-04
  19 F= -.67591729E+03 E0= -.67591729E+03  d E =0.131937E-01  mag=     1.0000
       N       E                     dE             d eps       ncg     rms          ort
SDA:   1    -0.675865159073E+03    0.52122E-01    0.00000E+00  8424   0.121E+00 0.000E+00
CGA:   2    -0.675899678812E+03   -0.34520E-01   -0.34528E-01  8424   0.536E-01 0.613E-04
CGA:   3    -0.675909747224E+03   -0.10068E-01   -0.10024E-01  8424   0.135E-01-0.226E-03
CGA:   4    -0.675911989805E+03   -0.22426E-02   -0.22476E-02  8424   0.336E-02 0.214E-04
CGA:   5    -0.675912554772E+03   -0.56497E-03   -0.56457E-03  8424   0.688E-03-0.282E-05
CGA:   6    -0.675912719123E+03   -0.16435E-03   -0.15509E-03  8424   0.223E-03-0.720E-04
CGA:   7    -0.675912770181E+03   -0.51058E-04   -0.48021E-04  8424   0.832E-04-0.283E-04
CGA:   8    -0.675912790873E+03   -0.20693E-04   -0.40098E-04  8424   0.213E-03-0.927E-04
CGA:   9    -0.675912828847E+03   -0.37974E-04   -0.35226E-04  8424   0.289E-04-0.147E-04
CGA:  10    -0.675912496983E+03    0.33186E-03   -0.17977E-03  8424   0.219E-02-0.209E-03
CGA:  11    -0.675912858250E+03   -0.36127E-03   -0.35991E-03  8424   0.202E-03-0.392E-05
CGA:  12    -0.675912933578E+03   -0.75328E-04   -0.66179E-04  8424   0.367E-04-0.333E-04
CGA:  13    -0.675912949367E+03   -0.15789E-04   -0.12587E-04  8424   0.395E-04-0.179E-04
CGA:  14    -0.675912996081E+03   -0.46714E-04    0.59404E-05  8424   0.136E-03-0.534E-04
CGA:  15    -0.675913004786E+03   -0.87049E-05   -0.17925E-04  8424   0.207E-04 0.206E-04
CGA:  16    -0.675913005870E+03   -0.10843E-05   -0.23122E-04  8424   0.135E-03-0.535E-04
CGA:  17    -0.675913061974E+03   -0.56104E-04   -0.46641E-04  8424   0.424E-04-0.405E-04
CGA:  18    -0.675913068273E+03   -0.62990E-05   -0.54839E-05  8424   0.121E-04-0.213E-05
  20 F= -.67591307E+03 E0= -.67591307E+03  d E =0.421764E-02  mag=     1.0000
       N       E                     dE             d eps       ncg     rms          ort
SDA:   1    -0.675899570267E+03    0.13492E-01    0.00000E+00  8424   0.574E-01 0.000E+00
CGA:   2    -0.675917730643E+03   -0.18160E-01   -0.18135E-01  8424   0.223E-01-0.109E-03
CGA:   3    -0.675921639243E+03   -0.39086E-02   -0.39566E-02  8424   0.579E-02 0.133E-03
CGA:   4    -0.675922649487E+03   -0.10102E-02   -0.10021E-02  8424   0.152E-02-0.251E-04
CGA:   5    -0.675922905156E+03   -0.25567E-03   -0.24703E-03  8424   0.315E-03-0.258E-04
CGA:   6    -0.675922965985E+03   -0.60830E-04   -0.62101E-04  8424   0.815E-04 0.440E-05
CGA:   7    -0.675922996519E+03   -0.30534E-04   -0.26046E-04  8424   0.581E-04-0.290E-04
CGA:   8    -0.675923006103E+03   -0.95841E-05   -0.24277E-04  8424   0.192E-03-0.789E-04
CGA:   9    -0.675923043456E+03   -0.37352E-04   -0.33912E-04  8424   0.374E-04-0.117E-04
CGA:  10    -0.675922377916E+03    0.66554E-03   -0.36180E-03  8424   0.344E-02-0.307E-03
CGA:  11    -0.675923011592E+03   -0.63368E-03   -0.64075E-03  8424   0.526E-03 0.108E-04
CGA:  12    -0.675923177619E+03   -0.16603E-03   -0.16274E-03  8424   0.671E-04-0.676E-05
CGA:  13    -0.675923203627E+03   -0.26008E-04   -0.22754E-04  8424   0.241E-04-0.754E-05
CGA:  14    -0.675923221025E+03   -0.17398E-04   -0.98109E-05  8424   0.516E-04-0.256E-04
CGA:  15    -0.675923234169E+03   -0.13144E-04   -0.86389E-05  8424   0.869E-05-0.788E-05
CGA:  16    -0.675923251094E+03   -0.16925E-04    0.42578E-05  8424   0.438E-04-0.123E-04
CGA:  17    -0.675923270995E+03   -0.19901E-04   -0.89859E-05  8424   0.208E-04-0.216E-04
CGA:  18    -0.675923232397E+03    0.38598E-04   -0.16847E-04  8424   0.563E-03-0.610E-04
CGA:  19    -0.675923343505E+03   -0.11111E-03   -0.81682E-04  8424   0.648E-04-0.511E-04
CGA:  20    -0.675923353305E+03   -0.98005E-05   -0.11628E-04  8424   0.331E-05 0.360E-05
  21 F= -.67592335E+03 E0= -.67592335E+03  d E =-.102850E-01  mag=     1.0000
       N       E                     dE             d eps       ncg     rms          ort
SDA:   1    -0.675904152160E+03    0.19191E-01    0.00000E+00  8424   0.557E-01 0.000E+00
CGA:   2    -0.675919427881E+03   -0.15276E-01   -0.15245E-01  8424   0.251E-01-0.829E-04
CGA:   3    -0.675924102756E+03   -0.46749E-02   -0.47163E-02  8424   0.603E-02 0.899E-04
CGA:   4    -0.675925156224E+03   -0.10535E-02   -0.10415E-02  8424   0.159E-02-0.271E-04
CGA:   5    -0.675925435390E+03   -0.27917E-03   -0.27058E-03  8424   0.310E-03-0.199E-04
CGA:   6    -0.675925495014E+03   -0.59624E-04   -0.61510E-04  8424   0.773E-04 0.479E-05
CGA:   7    -0.675925524553E+03   -0.29539E-04   -0.23753E-04  8424   0.466E-04-0.217E-04
CGA:   8    -0.675925543139E+03   -0.18585E-04   -0.14954E-04  8424   0.590E-04-0.333E-04
CGA:   9    -0.675925562897E+03   -0.19758E-04   -0.13753E-04  8424   0.270E-04-0.189E-04
CGA:  10    -0.675925586423E+03   -0.23526E-04    0.24528E-04  8424   0.364E-04-0.195E-04
CGA:  11    -0.675925603822E+03   -0.17399E-04   -0.11414E-04  8424   0.387E-04-0.271E-04
CGA:  12    -0.675925608338E+03   -0.45161E-05   -0.51743E-05  8424   0.208E-05 0.168E-05
  22 F= -.67592561E+03 E0= -.67592561E+03  d E =-.225503E-02  mag=     1.0000
       N       E                     dE             d eps       ncg     rms          ort
SDA:   1    -0.675916690108E+03    0.89137E-02    0.00000E+00  8424   0.166E-01 0.000E+00
CGA:   2    -0.675921009714E+03   -0.43196E-02   -0.43020E-02  8424   0.757E-02-0.742E-04
CGA:   3    -0.675922470216E+03   -0.14605E-02   -0.14514E-02  8424   0.200E-02-0.314E-04
CGA:   4    -0.675922799794E+03   -0.32958E-03   -0.32326E-03  8424   0.553E-03-0.203E-04
CGA:   5    -0.675922898203E+03   -0.98409E-04   -0.94173E-04  8424   0.108E-03-0.148E-04
CGA:   6    -0.675922929186E+03   -0.30983E-04   -0.25879E-04  8424   0.459E-04-0.256E-04
CGA:   7    -0.675922915473E+03    0.13713E-04   -0.28936E-04  8424   0.442E-03-0.109E-03
CGA:   8    -0.675922973439E+03   -0.57966E-04   -0.59805E-04  8424   0.398E-04 0.564E-05
CGA:   9    -0.675922991384E+03   -0.17944E-04   -0.21354E-04  8424   0.740E-04-0.378E-04
CGA:  10    -0.675923005526E+03   -0.14142E-04   -0.12919E-04  8424   0.876E-05-0.455E-05
CGA:  11    -0.675923024097E+03   -0.18572E-04    0.10950E-05  8424   0.106E-04-0.656E-05
CGA:  12    -0.675923028691E+03   -0.45940E-05   -0.44108E-05  8424   0.244E-04-0.132E-04
CGA:  13    -0.675922108097E+03    0.92059E-03   -0.50854E-03  8424   0.748E-02-0.419E-03
CGA:  14    -0.675923069677E+03   -0.96158E-03   -0.10466E-02  8424   0.283E-03 0.138E-03
CGA:  15    -0.675923137849E+03   -0.68172E-04   -0.49290E-04  8424   0.118E-04-0.324E-04
CGA:  16    -0.675923139690E+03   -0.18409E-05   -0.19652E-05  8424   0.228E-05 0.230E-06
  23 F= -.67592314E+03 E0= -.67592314E+03  d E =0.246865E-02  mag=     1.0000
       N       E                     dE             d eps       ncg     rms          ort
SDA:   1    -0.675911215225E+03    0.11923E-01    0.00000E+00  8424   0.184E-01 0.000E+00
CGA:   2    -0.675916781808E+03   -0.55666E-02   -0.55270E-02  8424   0.815E-02-0.103E-03
CGA:   3    -0.675918188108E+03   -0.14063E-02   -0.14100E-02  8424   0.219E-02 0.506E-05
CGA:   4    -0.675918547167E+03   -0.35906E-03   -0.35019E-03  8424   0.596E-03-0.180E-04
CGA:   5    -0.675918655006E+03   -0.10784E-03   -0.10077E-03  8424   0.118E-03-0.156E-04
CGA:   6    -0.675918685076E+03   -0.30070E-04   -0.25439E-04  8424   0.390E-04-0.121E-04
CGA:   7    -0.675918703889E+03   -0.18813E-04   -0.22308E-04  8424   0.203E-03-0.681E-04
CGA:   8    -0.675918727709E+03   -0.23820E-04   -0.27229E-04  8424   0.175E-04 0.747E-05
CGA:   9    -0.675918089753E+03    0.63796E-03   -0.34951E-03  8424   0.345E-02-0.230E-03
CGA:  10    -0.675918697707E+03   -0.60795E-03   -0.63795E-03  8424   0.548E-03 0.319E-04
CGA:  11    -0.675918858914E+03   -0.16121E-03   -0.13061E-03  8424   0.867E-04-0.407E-04
CGA:  12    -0.675918875904E+03   -0.16990E-04   -0.19234E-04  8424   0.208E-04 0.315E-05
CGA:  13    -0.675918900514E+03   -0.24610E-04   -0.16307E-04  8424   0.175E-03-0.524E-04
CGA:  14    -0.675918914718E+03   -0.14204E-04   -0.24030E-04  8424   0.166E-04 0.129E-04
CGA:  15    -0.675918912227E+03    0.24903E-05   -0.21630E-04  8424   0.304E-03-0.704E-04
CGA:  16    -0.675918954637E+03   -0.42409E-04   -0.58169E-04  8424   0.359E-04 0.226E-04
CGA:  17    -0.675918985728E+03   -0.31092E-04   -0.13741E-04  8424   0.494E-04-0.351E-04
CGA:  18    -0.675918986137E+03   -0.40857E-06   -0.58074E-05  8424   0.415E-05 0.765E-05
  24 F= -.67591899E+03 E0= -.67591899E+03  d E =0.415355E-02  mag=     1.0000
       N       E                     dE             d eps       ncg     rms          ort
SDA:   1    -0.675916244227E+03    0.27415E-02    0.00000E+00  8424   0.636E-02 0.000E+00
CGA:   2    -0.675917586681E+03   -0.13425E-02   -0.13904E-02  8424   0.296E-02 0.876E-04
CGA:   3    -0.675918219166E+03   -0.63248E-03   -0.59762E-03  8424   0.926E-03-0.622E-04
CGA:   4    -0.675918366034E+03   -0.14687E-03   -0.14538E-03  8424   0.220E-03-0.277E-05
CGA:   5    -0.675918398003E+03   -0.31969E-04   -0.34208E-04  8424   0.429E-04 0.401E-05
CGA:   6    -0.675918423836E+03   -0.25833E-04   -0.15648E-04  8424   0.522E-04-0.319E-04
CGA:   7    -0.675918429877E+03   -0.60404E-05   -0.69288E-05  8424   0.612E-05 0.167E-05
  25 F= -.67591843E+03 E0= -.67591843E+03  d E =0.556260E-03  mag=     1.0000
       N       E                     dE             d eps       ncg     rms          ort
SDA:   1    -0.675913971184E+03    0.44527E-02    0.00000E+00  8424   0.124E-01 0.000E+00
CGA:   2    -0.675918164132E+03   -0.41929E-02   -0.41515E-02  8424   0.535E-02-0.139E-03
CGA:   3    -0.675918972816E+03   -0.80868E-03   -0.83751E-03  8424   0.117E-02 0.627E-04
CGA:   4    -0.675919186058E+03   -0.21324E-03   -0.20774E-03  8424   0.329E-03-0.132E-04
CGA:   5    -0.675919246189E+03   -0.60131E-04   -0.54245E-04  8424   0.738E-04-0.144E-04
CGA:   6    -0.675919261670E+03   -0.15481E-04   -0.14182E-04  8424   0.196E-04-0.368E-05
CGA:   7    -0.675919288358E+03   -0.26688E-04    0.15302E-04  8424   0.584E-04-0.232E-04
CGA:   8    -0.675919295270E+03   -0.69127E-05   -0.80649E-05  8424   0.658E-05 0.287E-05
  26 F= -.67591930E+03 E0= -.67591930E+03  d E =-.865393E-03  mag=     1.0000
