       N       E                     dE             d eps       ncg     rms          rms(c)
DAV:   1     0.444263381622E+04    0.44426E+04   -0.15497E+05  7816   0.148E+03
DAV:   2     0.473557841351E+03   -0.39691E+04   -0.38266E+04  7288   0.438E+02
DAV:   3    -0.287579204415E+03   -0.76114E+03   -0.72415E+03  9928   0.159E+02
DAV:   4    -0.348216193936E+03   -0.60637E+02   -0.60254E+02  9296   0.478E+01
DAV:   5    -0.349741578825E+03   -0.15254E+01   -0.15227E+01  9688   0.902E+00    0.675E+01
DAV:   6    -0.271879613136E+03    0.77862E+02   -0.45952E+02  9598   0.546E+01    0.374E+01
DAV:   7    -0.272479713651E+03   -0.60010E+00   -0.95963E+01  9856   0.271E+01    0.197E+01
DAV:   8    -0.272604136139E+03   -0.12442E+00   -0.34804E+01  9644   0.153E+01    0.119E+01
DAV:   9    -0.272235162579E+03    0.36897E+00   -0.94214E+00  9848   0.860E+00    0.725E+00
DAV:  10    -0.271871923925E+03    0.36324E+00   -0.19174E+00  9960   0.400E+00    0.312E+00
DAV:  11    -0.271984946071E+03   -0.11302E+00   -0.28939E-01 10176   0.182E+00    0.265E+00
DAV:  12    -0.271996628977E+03   -0.11683E-01   -0.14338E-01 10221   0.141E+00    0.165E+00
DAV:  13    -0.271982941021E+03    0.13688E-01   -0.10330E-01 10021   0.117E+00    0.614E-01
DAV:  14    -0.271984435281E+03   -0.14943E-02   -0.17810E-02  9976   0.423E-01    0.313E-01
DAV:  15    -0.271985974526E+03   -0.15392E-02   -0.46192E-03 10101   0.244E-01    0.165E-01
DAV:  16    -0.271986502151E+03   -0.52762E-03   -0.22716E-03 10192   0.179E-01    0.101E-01
DAV:  17    -0.271986657581E+03   -0.15543E-03   -0.70721E-04 10096   0.890E-02    0.602E-02
DAV:  18    -0.271986743646E+03   -0.86064E-04   -0.28479E-04  9944   0.400E-02    0.379E-02
DAV:  19    -0.271986768690E+03   -0.25044E-04   -0.10018E-04  8968   0.345E-02    0.209E-02
DAV:  20    -0.271986776445E+03   -0.77557E-05   -0.29831E-05  6976   0.188E-02
   1 F= -.27198678E+03 E0= -.27198348E+03  d E =-.271987E+03  mag=     0.0008
       N       E                     dE             d eps       ncg     rms          rms(c)
DAV:   1    -0.272018485843E+03   -0.31717E-01   -0.75796E-03  7848   0.166E-01    0.452E-02
DAV:   2    -0.272018530882E+03   -0.45039E-04   -0.56932E-04  8544   0.561E-02    0.299E-02
DAV:   3    -0.272018527332E+03    0.35506E-05   -0.30830E-05  7136   0.212E-02    0.183E-02
DAV:   4    -0.272018526095E+03    0.12367E-05   -0.67581E-06  4560   0.119E-02
   2 F= -.27201853E+03 E0= -.27201524E+03  d E =-.317496E-01  mag=     0.0004
       N       E                     dE             d eps       ncg     rms          rms(c)
DAV:   1    -0.273327308532E+03   -0.13088E+01   -0.28002E+01  7632   0.102E+01    0.378E+00
DAV:   2    -0.273505404495E+03   -0.17810E+00   -0.21611E+00  8837   0.343E+00    0.182E+00
DAV:   3    -0.273490204531E+03    0.15200E-01   -0.14384E-01  9474   0.143E+00    0.135E+00
DAV:   4    -0.273485955291E+03    0.42492E-02   -0.39959E-02 10032   0.725E-01    0.123E+00
DAV:   5    -0.273481677183E+03    0.42781E-02   -0.13990E-02  9469   0.371E-01    0.664E-01
DAV:   6    -0.273481042225E+03    0.63496E-03   -0.83756E-03 10112   0.199E-01    0.244E-01
DAV:   7    -0.273481049118E+03   -0.68934E-05   -0.15989E-03  9605   0.113E-01    0.147E-01
DAV:   8    -0.273481011572E+03    0.37546E-04   -0.22355E-04  9616   0.478E-02    0.108E-01
DAV:   9    -0.273480982237E+03    0.29335E-04   -0.30788E-04  9740   0.466E-02    0.559E-02
DAV:  10    -0.273480967114E+03    0.15123E-04   -0.13522E-04  9008   0.327E-02    0.231E-02
DAV:  11    -0.273480965901E+03    0.12127E-05   -0.11205E-05  4730   0.105E-02
   3 F= -.27348097E+03 E0= -.27347793E+03  d E =-.146244E+01  mag=     0.0000
       N       E                     dE             d eps       ncg     rms          rms(c)
DAV:   1    -0.273879213160E+03   -0.39825E+00   -0.57932E+01  7760   0.212E+01    0.563E+00
DAV:   2    -0.274407666252E+03   -0.52845E+00   -0.59745E+00  7784   0.571E+00    0.239E+00
DAV:   3    -0.274388178477E+03    0.19488E-01   -0.25929E-01  9726   0.179E+00    0.185E+00
DAV:   4    -0.274382466291E+03    0.57122E-02   -0.71386E-02 10242   0.102E+00    0.171E+00
DAV:   5    -0.274375043479E+03    0.74228E-02   -0.32901E-02  9543   0.552E-01    0.793E-01
DAV:   6    -0.274375143432E+03   -0.99952E-04   -0.13672E-02 10778   0.288E-01    0.217E-01
DAV:   7    -0.274375038105E+03    0.10533E-03   -0.22387E-03 10130   0.164E-01    0.187E-01
DAV:   8    -0.274374994210E+03    0.43895E-04   -0.41074E-04  9901   0.676E-02    0.143E-01
DAV:   9    -0.274374976414E+03    0.17796E-04   -0.35681E-04 10063   0.566E-02    0.923E-02
DAV:  10    -0.274374940634E+03    0.35780E-04   -0.27278E-04  9408   0.489E-02    0.308E-02
DAV:  11    -0.274374939699E+03    0.93471E-06   -0.48410E-05  7911   0.236E-02
   4 F= -.27437494E+03 E0= -.27437259E+03  d E =-.893974E+00  mag=     0.0000
       N       E                     dE             d eps       ncg     rms          rms(c)
DAV:   1    -0.274147586860E+03    0.22735E+00   -0.29151E+01  7870   0.223E+01    0.213E+00
DAV:   2    -0.274593895134E+03   -0.44631E+00   -0.48308E+00  7344   0.515E+00    0.103E+00
DAV:   3    -0.274601224708E+03   -0.73296E-02   -0.13987E-01 10120   0.108E+00    0.684E-01
DAV:   4    -0.274600229680E+03    0.99503E-03   -0.18547E-02 10240   0.514E-01    0.545E-01
DAV:   5    -0.274599310644E+03    0.91904E-03   -0.11687E-02 10152   0.415E-01    0.289E-01
DAV:   6    -0.274599565091E+03   -0.25445E-03   -0.32229E-03 10256   0.159E-01    0.190E-01
DAV:   7    -0.274599561246E+03    0.38443E-05   -0.63490E-04  9981   0.958E-02    0.171E-01
DAV:   8    -0.274599512236E+03    0.49010E-04   -0.31628E-04 10248   0.702E-02    0.115E-01
DAV:   9    -0.274599492158E+03    0.20078E-04   -0.15652E-04  9098   0.328E-02    0.522E-02
DAV:  10    -0.274599489848E+03    0.23103E-05   -0.10002E-04  9328   0.302E-02    0.240E-02
DAV:  11    -0.274599488914E+03    0.93356E-06   -0.37750E-05  7687   0.238E-02
   5 F= -.27459949E+03 E0= -.27459771E+03  d E =-.224549E+00  mag=    -0.0000
       N       E                     dE             d eps       ncg     rms          rms(c)
DAV:   1    -0.273804030318E+03    0.79546E+00   -0.52139E+01  7598   0.314E+01    0.307E+00
DAV:   2    -0.274778562162E+03   -0.97453E+00   -0.10432E+01  7416   0.819E+00    0.175E+00
DAV:   3    -0.274795554912E+03   -0.16993E-01   -0.37056E-01  9920   0.176E+00    0.108E+00
DAV:   4    -0.274793393555E+03    0.21614E-02   -0.55931E-02 10000   0.975E-01    0.990E-01
DAV:   5    -0.274791251102E+03    0.21425E-02   -0.22543E-02  9802   0.517E-01    0.470E-01
DAV:   6    -0.274792248222E+03   -0.99712E-03   -0.77902E-03 10704   0.259E-01    0.324E-01
DAV:   7    -0.274792212724E+03    0.35498E-04   -0.20239E-03 10192   0.188E-01    0.253E-01
DAV:   8    -0.274792154299E+03    0.58425E-04   -0.41719E-04  9896   0.814E-02    0.178E-01
DAV:   9    -0.274792049006E+03    0.10529E-03   -0.60041E-04 10080   0.658E-02    0.664E-02
DAV:  10    -0.274792048040E+03    0.96584E-06   -0.35510E-04  9792   0.550E-02    0.541E-02
DAV:  11    -0.274792047708E+03    0.33148E-06   -0.24306E-05  5952   0.183E-02
   6 F= -.27479205E+03 E0= -.27479040E+03  d E =-.192559E+00  mag=    -0.0000
       N       E                     dE             d eps       ncg     rms          rms(c)
DAV:   1    -0.274230608058E+03    0.56144E+00   -0.47880E+01  7540   0.270E+01    0.336E+00
DAV:   2    -0.274962903368E+03   -0.73230E+00   -0.79950E+00  7398   0.770E+00    0.199E+00
DAV:   3    -0.274967939982E+03   -0.50366E-02   -0.34278E-01  9962   0.183E+00    0.124E+00
DAV:   4    -0.274963989995E+03    0.39500E-02   -0.49696E-02 10151   0.968E-01    0.115E+00
DAV:   5    -0.274961487934E+03    0.25021E-02   -0.29991E-02  9578   0.492E-01    0.484E-01
DAV:   6    -0.274962288258E+03   -0.80032E-03   -0.88847E-03 10356   0.298E-01    0.287E-01
DAV:   7    -0.274962244103E+03    0.44156E-04   -0.17632E-03 10216   0.173E-01    0.202E-01
DAV:   8    -0.274962272650E+03   -0.28547E-04   -0.38517E-04  9824   0.746E-02    0.135E-01
DAV:   9    -0.274962125466E+03    0.14718E-03   -0.60221E-04 10064   0.684E-02    0.576E-02
DAV:  10    -0.274962120553E+03    0.49138E-05   -0.37019E-04  9872   0.524E-02    0.444E-02
DAV:  11    -0.274962120106E+03    0.44709E-06   -0.26959E-05  6112   0.185E-02
   7 F= -.27496212E+03 E0= -.27496026E+03  d E =-.170072E+00  mag=    -0.0000
       N       E                     dE             d eps       ncg     rms          rms(c)
DAV:   1    -0.274412608785E+03    0.54951E+00   -0.60331E+01  7670   0.265E+01    0.656E+00
DAV:   2    -0.275122337934E+03   -0.70973E+00   -0.77771E+00  7682   0.742E+00    0.274E+00
DAV:   3    -0.275116531450E+03    0.58065E-02   -0.32244E-01 10096   0.183E+00    0.221E+00
DAV:   4    -0.275110113726E+03    0.64177E-02   -0.66778E-02 10144   0.110E+00    0.188E+00
DAV:   5    -0.275103509768E+03    0.66040E-02   -0.41256E-02  9540   0.512E-01    0.859E-01
DAV:   6    -0.275104563525E+03   -0.10538E-02   -0.12061E-02 10032   0.275E-01    0.324E-01
DAV:   7    -0.275104549145E+03    0.14379E-04   -0.17672E-03  9904   0.161E-01    0.222E-01
DAV:   8    -0.275104584828E+03   -0.35683E-04   -0.65969E-04  9872   0.867E-02    0.148E-01
DAV:   9    -0.275104456601E+03    0.12823E-03   -0.67885E-04 10280   0.801E-02    0.643E-02
DAV:  10    -0.275104456953E+03   -0.35189E-06   -0.36263E-04  9792   0.482E-02    0.438E-02
DAV:  11    -0.275104456675E+03    0.27853E-06   -0.25455E-05  5976   0.179E-02
   8 F= -.27510446E+03 E0= -.27510273E+03  d E =-.142337E+00  mag=     0.0000
       N       E                     dE             d eps       ncg     rms          rms(c)
DAV:   1    -0.275125492399E+03   -0.21035E-01   -0.19257E+01  7424   0.960E+00    0.329E+00
DAV:   2    -0.275268369258E+03   -0.14288E+00   -0.16371E+00  9040   0.336E+00    0.160E+00
DAV:   3    -0.275257840294E+03    0.10529E-01   -0.12183E-01  9534   0.146E+00    0.958E-01
DAV:   4    -0.275254394843E+03    0.34455E-02   -0.33554E-02  9754   0.697E-01    0.939E-01
DAV:   5    -0.275251845404E+03    0.25494E-02   -0.12506E-02  9588   0.335E-01    0.477E-01
DAV:   6    -0.275251841213E+03    0.41916E-05   -0.47407E-03 10317   0.186E-01    0.127E-01
DAV:   7    -0.275251842518E+03   -0.13057E-05   -0.94422E-04 10296   0.116E-01    0.971E-02
DAV:   8    -0.275251836082E+03    0.64366E-05   -0.21959E-04  9885   0.599E-02    0.663E-02
DAV:   9    -0.275251827013E+03    0.90690E-05   -0.11650E-04  9256   0.385E-02    0.466E-02
DAV:  10    -0.275251818721E+03    0.82922E-05   -0.68272E-05  8349   0.251E-02
   9 F= -.27525182E+03 E0= -.27525039E+03  d E =-.147362E+00  mag=     0.0000
       N       E                     dE             d eps       ncg     rms          rms(c)
DAV:   1    -0.275278478470E+03   -0.26651E-01   -0.12718E+00  7542   0.474E+00    0.588E-01
DAV:   2    -0.275299243451E+03   -0.20765E-01   -0.22223E-01  7452   0.122E+00    0.307E-01
DAV:   3    -0.275299477181E+03   -0.23373E-03   -0.83523E-03 10164   0.312E-01    0.205E-01
DAV:   4    -0.275299393008E+03    0.84173E-04   -0.16911E-03 10144   0.170E-01    0.180E-01
DAV:   5    -0.275299296139E+03    0.96869E-04   -0.71279E-04  9572   0.918E-02    0.937E-02
DAV:   6    -0.275299323624E+03   -0.27485E-04   -0.20511E-04  9624   0.371E-02    0.555E-02
DAV:   7    -0.275299331123E+03   -0.74996E-05   -0.50556E-05  8320   0.296E-02
  10 F= -.27529933E+03 E0= -.27529796E+03  d E =-.475124E-01  mag=     0.0000
       N       E                     dE             d eps       ncg     rms          rms(c)
DAV:   1    -0.274851005315E+03    0.44832E+00   -0.50340E+01  7548   0.214E+01    0.643E+00
DAV:   2    -0.275389346950E+03   -0.53834E+00   -0.59151E+00  8190   0.642E+00    0.304E+00
DAV:   3    -0.275379226225E+03    0.10121E-01   -0.32876E-01  9874   0.187E+00    0.224E+00
DAV:   4    -0.275371531729E+03    0.76945E-02   -0.69151E-02 10144   0.114E+00    0.191E+00
DAV:   5    -0.275365044442E+03    0.64873E-02   -0.50174E-02  8654   0.509E-01    0.685E-01
DAV:   6    -0.275365711364E+03   -0.66692E-03   -0.10580E-02  9808   0.255E-01    0.375E-01
DAV:   7    -0.275365755424E+03   -0.44060E-04   -0.68633E-04  9908   0.925E-02    0.235E-01
DAV:   8    -0.275365822311E+03   -0.66887E-04   -0.55077E-04 10288   0.971E-02    0.141E-01
DAV:   9    -0.275365731112E+03    0.91198E-04   -0.58943E-04 10270   0.103E-01    0.634E-02
DAV:  10    -0.275365732366E+03   -0.12531E-05   -0.71640E-05  8056   0.270E-02
  11 F= -.27536573E+03 E0= -.27536441E+03  d E =-.664012E-01  mag=    -0.0000
       N       E                     dE             d eps       ncg     rms          rms(c)
DAV:   1    -0.274955884182E+03    0.40985E+00   -0.40858E+01  7584   0.203E+01    0.493E+00
DAV:   2    -0.275453104169E+03   -0.49722E+00   -0.53963E+00  7438   0.560E+00    0.179E+00
DAV:   3    -0.275449491271E+03    0.36129E-02   -0.24085E-01  9962   0.173E+00    0.139E+00
DAV:   4    -0.275446256761E+03    0.32345E-02   -0.67745E-02 10256   0.949E-01    0.132E+00
DAV:   5    -0.275441660734E+03    0.45960E-02   -0.19409E-02  9630   0.489E-01    0.681E-01
DAV:   6    -0.275441314144E+03    0.34659E-03   -0.99128E-03 10016   0.253E-01    0.233E-01
DAV:   7    -0.275441304893E+03    0.92508E-05   -0.24844E-03  9786   0.153E-01    0.195E-01
DAV:   8    -0.275441274350E+03    0.30543E-04   -0.32400E-04  9872   0.650E-02    0.141E-01
DAV:   9    -0.275441256025E+03    0.18325E-04   -0.36854E-04 10154   0.581E-02    0.808E-02
DAV:  10    -0.275441235026E+03    0.20999E-04   -0.23446E-04  9840   0.507E-02    0.296E-02
DAV:  11    -0.275441236577E+03   -0.15511E-05   -0.20761E-05  5808   0.154E-02
  12 F= -.27544124E+03 E0= -.27544011E+03  d E =-.755042E-01  mag=    -0.0000
       N       E                     dE             d eps       ncg     rms          rms(c)
DAV:   1    -0.275435235467E+03    0.59996E-02   -0.50882E+00  7456   0.734E+00    0.142E+00
DAV:   2    -0.275500098078E+03   -0.64863E-01   -0.70042E-01  7530   0.216E+00    0.769E-01
DAV:   3    -0.275499509266E+03    0.58881E-03   -0.35041E-02 10100   0.604E-01    0.487E-01
DAV:   4    -0.275498943896E+03    0.56537E-03   -0.83069E-03 10176   0.381E-01    0.412E-01
DAV:   5    -0.275498170940E+03    0.77296E-03   -0.38279E-03  9487   0.194E-01    0.210E-01
DAV:   6    -0.275498217589E+03   -0.46649E-04   -0.10293E-03 10240   0.781E-02    0.118E-01
DAV:   7    -0.275498226786E+03   -0.91973E-05   -0.16413E-04  9688   0.438E-02    0.864E-02
DAV:   8    -0.275498223712E+03    0.30744E-05   -0.47708E-05  8064   0.263E-02
  13 F= -.27549822E+03 E0= -.27549706E+03  d E =-.569871E-01  mag=     0.0000
       N       E                     dE             d eps       ncg     rms          rms(c)
DAV:   1    -0.275503353301E+03   -0.51265E-02   -0.71703E-01  7386   0.290E+00    0.507E-01
DAV:   2    -0.275512417892E+03   -0.90646E-02   -0.97038E-02  7599   0.816E-01    0.216E-01
DAV:   3    -0.275512427092E+03   -0.91997E-05   -0.34369E-03  9936   0.195E-01    0.160E-01
DAV:   4    -0.275512379321E+03    0.47771E-04   -0.74445E-04 10080   0.111E-01    0.127E-01
DAV:   5    -0.275512305731E+03    0.73590E-04   -0.36492E-04  9576   0.675E-02    0.689E-02
DAV:   6    -0.275512312397E+03   -0.66664E-05   -0.12286E-04  9056   0.255E-02    0.331E-02
DAV:   7    -0.275512313943E+03   -0.15463E-05   -0.15762E-05  5692   0.149E-02
  14 F= -.27551231E+03 E0= -.27551116E+03  d E =-.140902E-01  mag=     0.0000
       N       E                     dE             d eps       ncg     rms          rms(c)
DAV:   1    -0.275331431981E+03    0.18088E+00   -0.14506E+01  7336   0.150E+01    0.211E+00
DAV:   2    -0.275567737098E+03   -0.23631E+00   -0.25066E+00  7552   0.415E+00    0.906E-01
DAV:   3    -0.275570942284E+03   -0.32052E-02   -0.75638E-02  9952   0.851E-01    0.686E-01
DAV:   4    -0.275570385343E+03    0.55694E-03   -0.94752E-03 10128   0.401E-01    0.540E-01
DAV:   5    -0.275569640965E+03    0.74438E-03   -0.71949E-03  9808   0.300E-01    0.251E-01
DAV:   6    -0.275569852535E+03   -0.21157E-03   -0.16006E-03 10016   0.117E-01    0.103E-01
DAV:   7    -0.275569878120E+03   -0.25586E-04   -0.32373E-04 10176   0.792E-02    0.782E-02
DAV:   8    -0.275569865579E+03    0.12542E-04   -0.10897E-04  9520   0.478E-02    0.448E-02
DAV:   9    -0.275569854317E+03    0.11262E-04   -0.79769E-05  7928   0.235E-02    0.163E-02
DAV:  10    -0.275569856087E+03   -0.17701E-05   -0.19513E-05  5072   0.139E-02
  15 F= -.27556986E+03 E0= -.27556874E+03  d E =-.575421E-01  mag=    -0.0000
       N       E                     dE             d eps       ncg     rms          rms(c)
DAV:   1    -0.275113896291E+03    0.45596E+00   -0.30536E+01  7366   0.238E+01    0.276E+00
DAV:   2    -0.275659103870E+03   -0.54521E+00   -0.57867E+00  7376   0.638E+00    0.121E+00
DAV:   3    -0.275670309105E+03   -0.11205E-01   -0.17593E-01  9888   0.128E+00    0.924E-01
DAV:   4    -0.275669766380E+03    0.54272E-03   -0.17749E-02 10240   0.541E-01    0.738E-01
DAV:   5    -0.275669109462E+03    0.65692E-03   -0.13114E-02  9776   0.413E-01    0.356E-01
DAV:   6    -0.275669655184E+03   -0.54572E-03   -0.31347E-03  9888   0.177E-01    0.143E-01
DAV:   7    -0.275669716674E+03   -0.61489E-04   -0.80571E-04 10240   0.121E-01    0.113E-01
DAV:   8    -0.275669687210E+03    0.29464E-04   -0.30844E-04 10080   0.809E-02    0.637E-02
DAV:   9    -0.275669676538E+03    0.10672E-04   -0.13107E-04  9424   0.342E-02    0.342E-02
DAV:  10    -0.275669678562E+03   -0.20240E-05   -0.44603E-05  7456   0.198E-02
  16 F= -.27566968E+03 E0= -.27566860E+03  d E =-.998225E-01  mag=    -0.0000
       N       E                     dE             d eps       ncg     rms          rms(c)
DAV:   1    -0.272994008097E+03    0.26757E+01   -0.12557E+02  7782   0.489E+01    0.843E+00
DAV:   2    -0.275186971829E+03   -0.21930E+01   -0.23433E+01  7312   0.125E+01    0.271E+00
DAV:   3    -0.275218685633E+03   -0.31714E-01   -0.87860E-01 10272   0.282E+00    0.227E+00
DAV:   4    -0.275209901129E+03    0.87845E-02   -0.13928E-01 10288   0.161E+00    0.194E+00
DAV:   5    -0.275200864380E+03    0.90367E-02   -0.65526E-02  9904   0.849E-01    0.983E-01
DAV:   6    -0.275200742654E+03    0.12173E-03   -0.23298E-02  9648   0.440E-01    0.452E-01
DAV:   7    -0.275200946435E+03   -0.20378E-03   -0.70905E-03 10074   0.330E-01    0.447E-01
DAV:   8    -0.275200678656E+03    0.26778E-03   -0.19664E-03  9872   0.193E-01    0.332E-01
DAV:   9    -0.275200554643E+03    0.12401E-03   -0.86693E-04  9828   0.786E-02    0.190E-01
DAV:  10    -0.275200527779E+03    0.26864E-04   -0.65194E-04 10240   0.724E-02    0.736E-02
DAV:  11    -0.275200527357E+03    0.42207E-06   -0.30835E-04 10240   0.645E-02    0.483E-02
DAV:  12    -0.275200525492E+03    0.18648E-05   -0.33275E-05  6600   0.255E-02
  17 F= -.27520053E+03 E0= -.27519929E+03  d E =0.469153E+00  mag=     0.0000
       N       E                     dE             d eps       ncg     rms          rms(c)
DAV:   1    -0.274840264860E+03    0.36026E+00   -0.46047E+01  7728   0.308E+01    0.390E+00
DAV:   2    -0.275668152747E+03   -0.82789E+00   -0.88946E+00  7340   0.793E+00    0.213E+00
DAV:   3    -0.275676719571E+03   -0.85668E-02   -0.38196E-01 10410   0.184E+00    0.132E+00
DAV:   4    -0.275672272594E+03    0.44470E-02   -0.72106E-02 10170   0.111E+00    0.117E+00
DAV:   5    -0.275667210118E+03    0.50625E-02   -0.29975E-02  9940   0.565E-01    0.654E-01
DAV:   6    -0.275667388493E+03   -0.17837E-03   -0.10376E-02  9632   0.263E-01    0.387E-01
DAV:   7    -0.275667569707E+03   -0.18121E-03   -0.23752E-03 10010   0.166E-01    0.371E-01
DAV:   8    -0.275667488093E+03    0.81613E-04   -0.65821E-04 10016   0.107E-01    0.271E-01
DAV:   9    -0.275667378742E+03    0.10935E-03   -0.38710E-04 10106   0.596E-02    0.166E-01
DAV:  10    -0.275667308177E+03    0.70564E-04   -0.60274E-04  9984   0.584E-02    0.525E-02
DAV:  11    -0.275667311724E+03   -0.35465E-05   -0.21230E-04  9184   0.435E-02    0.610E-02
DAV:  12    -0.275667309998E+03    0.17260E-05   -0.13713E-05  5296   0.176E-02
  18 F= -.27566731E+03 E0= -.27566628E+03  d E =-.466785E+00  mag=    -0.0000
       N       E                     dE             d eps       ncg     rms          rms(c)
DAV:   1    -0.275514867857E+03    0.15244E+00   -0.11447E+01  7654   0.153E+01    0.191E+00
DAV:   2    -0.275716268281E+03   -0.20140E+00   -0.21556E+00  7390   0.387E+00    0.924E-01
DAV:   3    -0.275718654100E+03   -0.23858E-02   -0.88157E-02 10356   0.931E-01    0.600E-01
DAV:   4    -0.275717649402E+03    0.10047E-02   -0.17332E-02 10154   0.561E-01    0.516E-01
DAV:   5    -0.275716573714E+03    0.10757E-02   -0.63444E-03  9812   0.278E-01    0.283E-01
DAV:   6    -0.275716571292E+03    0.24219E-05   -0.25841E-03  9328   0.133E-01    0.154E-01
DAV:   7    -0.275716611213E+03   -0.39921E-04   -0.55308E-04  9968   0.787E-02    0.163E-01
DAV:   8    -0.275716600351E+03    0.10862E-04   -0.13509E-04 10032   0.490E-02    0.118E-01
DAV:   9    -0.275716583289E+03    0.17062E-04   -0.68895E-05  8704   0.270E-02    0.751E-02
DAV:  10    -0.275716570925E+03    0.12364E-04   -0.11744E-04  8896   0.255E-02    0.229E-02
DAV:  11    -0.275716571950E+03   -0.10254E-05   -0.31262E-05  5360   0.171E-02
  19 F= -.27571657E+03 E0= -.27571554E+03  d E =-.492620E-01  mag=    -0.0000
       N       E                     dE             d eps       ncg     rms          rms(c)
DAV:   1    -0.275714007003E+03    0.25639E-02   -0.66793E-02  7334   0.105E+00    0.156E-01
DAV:   2    -0.275715223659E+03   -0.12167E-02   -0.13011E-02  7578   0.319E-01    0.926E-02
DAV:   3    -0.275715225301E+03   -0.16414E-05   -0.71289E-04  9962   0.103E-01    0.508E-02
DAV:   4    -0.275715218484E+03    0.68170E-05   -0.12851E-04  9610   0.504E-02    0.494E-02
DAV:   5    -0.275715211253E+03    0.72302E-05   -0.51383E-05  7978   0.263E-02
  20 F= -.27571521E+03 E0= -.27571417E+03  d E =0.136070E-02  mag=     0.0000
       N       E                     dE             d eps       ncg     rms          rms(c)
DAV:   1    -0.275704766559E+03    0.10452E-01   -0.29849E-01  7302   0.239E+00    0.307E-01
DAV:   2    -0.275710824805E+03   -0.60582E-02   -0.64341E-02  7344   0.684E-01    0.172E-01
DAV:   3    -0.275710900981E+03   -0.76176E-04   -0.29651E-03 10024   0.192E-01    0.989E-02
DAV:   4    -0.275710881907E+03    0.19074E-04   -0.55774E-04 10272   0.103E-01    0.958E-02
DAV:   5    -0.275710854891E+03    0.27016E-04   -0.21198E-04  9784   0.518E-02    0.469E-02
DAV:   6    -0.275710859740E+03   -0.48488E-05   -0.59417E-05  9040   0.265E-02
  21 F= -.27571086E+03 E0= -.27570982E+03  d E =0.435151E-02  mag=    -0.0000
       N       E                     dE             d eps       ncg     rms          rms(c)
DAV:   1    -0.275709191956E+03    0.16629E-02   -0.30819E-02  7324   0.727E-01    0.979E-02
DAV:   2    -0.275709738991E+03   -0.54703E-03   -0.58465E-03  7572   0.209E-01    0.532E-02
DAV:   3    -0.275709748323E+03   -0.93320E-05   -0.23263E-04  9678   0.543E-02    0.333E-02
DAV:   4    -0.275709748136E+03    0.18708E-06   -0.48209E-05  8368   0.324E-02
  22 F= -.27570975E+03 E0= -.27570871E+03  d E =0.111160E-02  mag=    -0.0000
       N       E                     dE             d eps       ncg     rms          rms(c)
DAV:   1    -0.275701814161E+03    0.79342E-02   -0.53264E-01  7318   0.288E+00    0.380E-01
DAV:   2    -0.275710251416E+03   -0.84373E-02   -0.89987E-02  7502   0.807E-01    0.178E-01
DAV:   3    -0.275710371194E+03   -0.11978E-03   -0.29376E-03 10080   0.177E-01    0.135E-01
DAV:   4    -0.275710353552E+03    0.17642E-04   -0.41572E-04 10144   0.876E-02    0.115E-01
DAV:   5    -0.275710319012E+03    0.34540E-04   -0.28421E-04  9450   0.569E-02    0.532E-02
DAV:   6    -0.275710328692E+03   -0.96801E-05   -0.58227E-05  8192   0.214E-02
  23 F= -.27571033E+03 E0= -.27570929E+03  d E =-.580556E-03  mag=     0.0000
       N       E                     dE             d eps       ncg     rms          rms(c)
DAV:   1    -0.275680230666E+03    0.30088E-01   -0.19588E+00  7488   0.636E+00    0.628E-01
DAV:   2    -0.275719680148E+03   -0.39449E-01   -0.41647E-01  7296   0.167E+00    0.285E-01
DAV:   3    -0.275720580114E+03   -0.89997E-03   -0.12690E-02 10352   0.320E-01    0.211E-01
DAV:   4    -0.275720514215E+03    0.65898E-04   -0.81812E-04 10176   0.105E-01    0.151E-01
DAV:   5    -0.275720514227E+03   -0.11198E-07   -0.71230E-04 10288   0.110E-01    0.812E-02
DAV:   6    -0.275720519950E+03   -0.57229E-05   -0.23798E-04  9930   0.617E-02    0.331E-02
DAV:   7    -0.275720520547E+03   -0.59728E-06   -0.33752E-05  7152   0.218E-02
  24 F= -.27572052E+03 E0= -.27571949E+03  d E =-.101919E-01  mag=     0.0000
       N       E                     dE             d eps       ncg     rms          rms(c)
DAV:   1    -0.275710665766E+03    0.98542E-02   -0.92885E-01  7344   0.461E+00    0.458E-01
DAV:   2    -0.275730487925E+03   -0.19822E-01   -0.20986E-01  7280   0.122E+00    0.206E-01
DAV:   3    -0.275730992509E+03   -0.50458E-03   -0.67654E-03 10768   0.235E-01    0.150E-01
DAV:   4    -0.275730957450E+03    0.35059E-04   -0.39168E-04 10208   0.735E-02    0.114E-01
DAV:   5    -0.275730954212E+03    0.32381E-05   -0.32414E-04 10160   0.750E-02    0.688E-02
DAV:   6    -0.275730961941E+03   -0.77296E-05   -0.16952E-04  9776   0.470E-02    0.298E-02
DAV:   7    -0.275730963424E+03   -0.14829E-05   -0.24076E-05  6224   0.167E-02
  25 F= -.27573096E+03 E0= -.27572994E+03  d E =-.104429E-01  mag=    -0.0000
       N       E                     dE             d eps       ncg     rms          rms(c)
DAV:   1    -0.275729137539E+03    0.18244E-02   -0.29862E-01  7376   0.270E+00    0.250E-01
DAV:   2    -0.275736449651E+03   -0.73121E-02   -0.77094E-02  7270   0.713E-01    0.132E-01
DAV:   3    -0.275736628500E+03   -0.17885E-03   -0.27028E-03 10448   0.155E-01    0.841E-02
DAV:   4    -0.275736623583E+03    0.49172E-05   -0.29256E-04 10202   0.709E-02    0.722E-02
DAV:   5    -0.275736612554E+03    0.11030E-04   -0.13461E-04  9952   0.475E-02    0.403E-02
DAV:   6    -0.275736616854E+03   -0.43007E-05   -0.43541E-05  7818   0.227E-02
  26 F= -.27573662E+03 E0= -.27573560E+03  d E =-.565343E-02  mag=     0.0000
