       N       E                     dE             d eps       ncg     rms          ort
DAV:   1     0.103986299513E+05    0.10399E+05   -0.42456E+05 10564   0.156E+03
DAV:   2    -0.769433914897E+02   -0.10476E+05   -0.98853E+04 10564   0.479E+02
DAV:   3    -0.151582536804E+04   -0.14389E+04   -0.13373E+04 10564   0.185E+02
DAV:   4    -0.160244861613E+04   -0.86623E+02   -0.84090E+02 10564   0.475E+01
DAV:   5    -0.160506864721E+04   -0.26200E+01   -0.26111E+01 10564   0.883E+00
SDA:   6    -0.738413467280E+03    0.86666E+03   -0.26111E+01 10564   0.286E+04 0.000E+00
CGA:   7    -0.114270472315E+04   -0.40429E+03   -0.40065E+03 10564   0.941E+03-0.134E+02
CGA:   8    -0.117223002332E+04   -0.29525E+02   -0.51284E+02 10564   0.819E+03-0.372E+03
CGA:   9    -0.121046386296E+04   -0.38234E+02   -0.38865E+02 10564   0.450E+03-0.109E+02
CGA:  10    -0.123342484235E+04   -0.22961E+02   -0.27468E+02 10564   0.270E+03-0.513E+02
CGA:  11    -0.125663331511E+04   -0.23208E+02   -0.24452E+02 10564   0.166E+03-0.327E+01
CGA:  12    -0.126822583717E+04   -0.11593E+02   -0.12617E+02 10564   0.531E+02-0.761E+01
CGA:  13    -0.127359521564E+04   -0.53694E+01   -0.54906E+01 10564   0.362E+02-0.430E+00
CGA:  14    -0.127718307919E+04   -0.35879E+01   -0.36638E+01 10564   0.138E+02-0.685E+00
CGA:  15    -0.127834168836E+04   -0.11586E+01   -0.11817E+01 10564   0.890E+01-0.446E+00
CGA:  16    -0.127935966330E+04   -0.10180E+01   -0.10216E+01 10564   0.456E+01-0.241E+00
CGA:  17    -0.127984932604E+04   -0.48966E+00   -0.48780E+00 10564   0.342E+01-0.220E+00
CGA:  18    -0.128030425551E+04   -0.45493E+00   -0.45219E+00 10564   0.299E+01-0.283E+00
CGA:  19    -0.128067638160E+04   -0.37213E+00   -0.36769E+00 10564   0.184E+01-0.344E+00
CGA:  20    -0.128104554561E+04   -0.36916E+00   -0.42976E+00 10564   0.337E+01-0.555E+00
CGA:  21    -0.128132875249E+04   -0.28321E+00   -0.26686E+00 10564   0.127E+01-0.490E+00
CGA:  22    -0.128157263364E+04   -0.24388E+00   -0.28480E+00 10564   0.206E+01-0.380E+00
CGA:  23    -0.128177615443E+04   -0.20352E+00   -0.19505E+00 10564   0.788E+00-0.320E+00
CGA:  24    -0.128187337918E+04   -0.97225E-01   -0.95635E-01 10564   0.708E+00-0.105E+00
CGA:  25    -0.128198852797E+04   -0.11515E+00   -0.11801E+00 10564   0.441E+00-0.884E-01
CGA:  26    -0.128203420112E+04   -0.45673E-01   -0.45589E-01 10564   0.228E+00-0.340E-02
CGA:  27    -0.128207558904E+04   -0.41388E-01   -0.40710E-01 10564   0.207E+00 0.322E-01
CGA:  28    -0.128210548254E+04   -0.29894E-01   -0.31036E-01 10564   0.116E+00 0.405E-01
CGA:  29    -0.128212472538E+04   -0.19243E-01   -0.19935E-01 10564   0.825E-01 0.449E-01
CGA:  30    -0.128213845651E+04   -0.13731E-01   -0.14883E-01 10564   0.476E-01 0.409E-01
CGA:  31    -0.128214551228E+04   -0.70558E-02   -0.82315E-02 10564   0.269E-01 0.287E-01
CGA:  32    -0.128215015584E+04   -0.46436E-02   -0.44983E-02 10564   0.193E-01 0.113E-01
CGA:  33    -0.128215443031E+04   -0.42745E-02   -0.42696E-02 10564   0.121E-01 0.153E-01
CGA:  34    -0.128215615291E+04   -0.17226E-02   -0.17711E-02 10564   0.113E-01 0.562E-02
CGA:  35    -0.128215917328E+04   -0.30204E-02   -0.28280E-02 10564   0.881E-02 0.115E-01
CGA:  36    -0.128216030929E+04   -0.11360E-02   -0.12182E-02 10564   0.669E-02 0.473E-02
CGA:  37    -0.128216135164E+04   -0.10423E-02   -0.10397E-02 10564   0.730E-02 0.403E-02
CGA:  38    -0.128216204474E+04   -0.69311E-03   -0.82294E-03 10564   0.689E-02 0.307E-02
CGA:  39    -0.128216429373E+04   -0.22490E-02   -0.18944E-02 10564   0.582E-02 0.862E-02
CGA:  40    -0.128216511199E+04   -0.81826E-03   -0.83861E-03 10564   0.666E-02 0.189E-02
CGA:  41    -0.128216740363E+04   -0.22916E-02   -0.18812E-02 10564   0.565E-02 0.686E-02
CGA:  42    -0.128216828877E+04   -0.88514E-03   -0.88560E-03 10564   0.461E-02 0.108E-02
CGA:  43    -0.128217141907E+04   -0.31303E-02   -0.20964E-02 10564   0.501E-02 0.451E-02
CGA:  44    -0.128217220191E+04   -0.78284E-03   -0.78301E-03 10564   0.431E-02 0.707E-05
CGA:  45    -0.128217560311E+04   -0.34012E-02   -0.16140E-05 10564   0.691E-01-0.135E-02
CGA:  46    -0.128218342108E+04   -0.78180E-02   -0.54185E-02 10564   0.633E-01 0.222E-02
CGA:  47    -0.128218804997E+04   -0.46289E-02   -0.33287E-02 10564   0.143E-01 0.644E-04
CGA:  48    -0.128218936985E+04   -0.13199E-02   -0.91122E-03 10564   0.468E-02-0.249E-02
CGA:  49    -0.128219016293E+04   -0.79308E-03   -0.41621E-03 10564   0.479E-02-0.235E-02
CGA:  50    -0.128219112367E+04   -0.96074E-03   -0.68273E-03 10564   0.510E-02-0.226E-02
CGA:  51    -0.128219371412E+04   -0.25905E-02    0.40501E-03 10564   0.734E-02 0.838E-04
CGA:  52    -0.128219798099E+04   -0.42669E-02    0.91240E-02 10564   0.140E-01-0.393E-02
CGA:  53    -0.128219911326E+04   -0.11323E-02   -0.10294E-02 10564   0.699E-03-0.461E-03
CGA:  54    -0.128219190312E+04    0.72101E-02   -0.39298E-02 10564   0.131E+00-0.614E-02
CGA:  55    -0.128220110794E+04   -0.92048E-02   -0.90781E-02 10564   0.589E-02-0.140E-02
CGA:  56    -0.128220165343E+04   -0.54548E-03   -0.54845E-03 10564   0.894E-03 0.705E-05
CGA:  57    -0.128220199668E+04   -0.34326E-03   -0.30287E-03 10564   0.206E-02-0.505E-03
CGA:  58    -0.128220214765E+04   -0.15097E-03   -0.15103E-03 10564   0.252E-03-0.511E-05
CGA:  59    -0.128220236157E+04   -0.21392E-03    0.71784E-03 10564   0.991E-03-0.139E-03
CGA:  60    -0.128220244073E+04   -0.79162E-04   -0.85692E-04 10564   0.208E-03 0.219E-04
CGA:  61    -0.128220261381E+04   -0.17308E-03    0.62984E-03 10564   0.127E-02-0.192E-03
CGA:  62    -0.128220272563E+04   -0.11182E-03   -0.10542E-03 10564   0.224E-03-0.229E-04
CGA:  63    -0.128220118338E+04    0.15423E-02   -0.31915E-03 10564   0.313E-01-0.172E-02
CGA:  64    -0.128220329643E+04   -0.21131E-02   -0.22411E-02 10564   0.241E-02 0.486E-03
CGA:  65    -0.128220356177E+04   -0.26533E-03   -0.23868E-03 10564   0.197E-03-0.822E-04
CGA:  66    -0.128220372094E+04   -0.15918E-03    0.45969E-03 10564   0.307E-03-0.540E-04
CGA:  67    -0.128220398718E+04   -0.26624E-03    0.80062E-04 10564   0.836E-03-0.764E-04
CGA:  68    -0.128220496304E+04   -0.97586E-03    0.12156E-03 10564   0.173E-02 0.154E-03
CGA:  69    -0.128220702405E+04   -0.20610E-02    0.13295E-02 10564   0.596E-02-0.120E-02
CGA:  70    -0.128220733528E+04   -0.31123E-03   -0.41395E-03 10564   0.432E-03 0.346E-03
CGA:  71    -0.128220735712E+04   -0.21836E-04   -0.46364E-04 10564   0.143E-03 0.912E-04
CGA:  72    -0.128220738056E+04   -0.23444E-04   -0.31042E-04 10564   0.107E-03 0.422E-04
CGA:  73    -0.128220739842E+04   -0.17858E-04   -0.20667E-04 10564   0.105E-03 0.136E-04
CGA:  74    -0.128220748441E+04   -0.85992E-04    0.29233E-03 10564   0.173E-03 0.120E-04
CGA:  75    -0.128220765232E+04   -0.16791E-03    0.11756E-03 10564   0.408E-03-0.638E-04
CGA:  76    -0.128220791654E+04   -0.26422E-03    0.86199E-04 10564   0.166E-02-0.585E-03
CGA:  77    -0.128220817295E+04   -0.25641E-03   -0.20877E-03 10564   0.103E-02-0.221E-03
CGA:  78    -0.128220835252E+04   -0.17957E-03   -0.15959E-03 10564   0.544E-03-0.133E-03
CGA:  79    -0.128220845803E+04   -0.10551E-03   -0.22831E-03 10564   0.222E-02-0.766E-03
CGA:  80    -0.128220873339E+04   -0.27537E-03   -0.25178E-03 10564   0.266E-03-0.106E-03
CGA:  81    -0.128220880477E+04   -0.71375E-04   -0.92816E-04 10564   0.201E-02-0.445E-03
CGA:  82    -0.128220889706E+04   -0.92288E-04   -0.12215E-03 10564   0.814E-04 0.116E-03
CGA:  83    -0.128220892244E+04   -0.25388E-04   -0.22082E-04 10564   0.157E-03-0.637E-04
CGA:  84    -0.128220897165E+04   -0.49210E-04   -0.46873E-04 10564   0.894E-03-0.313E-03
CGA:  85    -0.128220901572E+04   -0.44071E-04   -0.62114E-04 10564   0.601E-04 0.777E-04
CGA:  86    -0.128220902619E+04   -0.10464E-04   -0.25078E-04 10564   0.604E-03-0.161E-03
CGA:  87    -0.128220909736E+04   -0.71176E-04   -0.59042E-04 10564   0.635E-04-0.599E-04
CGA:  88    -0.128220914393E+04   -0.46565E-04    0.19943E-04 10564   0.420E-03-0.106E-03
CGA:  89    -0.128220916262E+04   -0.18691E-04   -0.25387E-04 10564   0.252E-04 0.294E-04
CGA:  90    -0.128220919775E+04   -0.35130E-04    0.27637E-05 10564   0.656E-04-0.107E-04
CGA:  91    -0.128220932980E+04   -0.13205E-03    0.98393E-06 10564   0.262E-03-0.121E-04
CGA:  92    -0.128220994424E+04   -0.61444E-03    0.70450E-05 10564   0.454E-03 0.125E-03
CGA:  93    -0.128221084619E+04   -0.90195E-03    0.64878E-04 10564   0.211E-02-0.650E-03
CGA:  94    -0.128221100960E+04   -0.16341E-03   -0.14638E-03 10564   0.138E-03-0.811E-04
CGA:  95    -0.128221100639E+04    0.32130E-05   -0.79953E-05 10564   0.279E-04 0.546E-04
   1 F= -.12822110E+04 E0= -.12822021E+04  d E =-.178901E-01  mag=    47.0000
