       N       E                     dE             d eps       ncg     rms          rms(c)
DAV:   1     0.843786198346E+04    0.84379E+04   -0.36709E+05 27024   0.176E+03
DAV:   2    -0.880973396607E+02   -0.85260E+04   -0.78396E+04 26216   0.478E+02
DAV:   3    -0.134283473815E+04   -0.12547E+04   -0.12233E+04 27736   0.205E+02
DAV:   4    -0.140861628551E+04   -0.65782E+02   -0.62305E+02 31104   0.465E+01
DAV:   5    -0.141095221073E+04   -0.23359E+01   -0.22773E+01 31464   0.723E+00    0.118E+02
DAV:   6    -0.109514243532E+04    0.31581E+03   -0.72304E+02 33504   0.670E+01    0.118E+02
DAV:   7    -0.111979034066E+04   -0.24648E+02   -0.12744E+02 30456   0.361E+01    0.668E+01
DAV:   8    -0.111980830801E+04   -0.17967E-01   -0.48679E+01 30816   0.335E+01    0.449E+01
DAV:   9    -0.112541896956E+04   -0.56107E+01   -0.23041E+01 29912   0.156E+01    0.290E+01
DAV:  10    -0.112408166422E+04    0.13373E+01   -0.93396E+00 30896   0.179E+01    0.227E+01
DAV:  11    -0.112601644894E+04   -0.19348E+01   -0.48654E+00 30728   0.117E+01    0.105E+01
DAV:  12    -0.112587898800E+04    0.13746E+00   -0.56068E+00 31792   0.602E+00    0.114E+01
DAV:  13    -0.112672155682E+04   -0.84257E+00   -0.92255E-01 30736   0.504E+00    0.803E+00
DAV:  14    -0.112669005776E+04    0.31499E-01   -0.18063E-01 30616   0.219E+00    0.686E+00
DAV:  15    -0.112678604972E+04   -0.95992E-01   -0.12061E-01 32984   0.218E+00    0.551E+00
DAV:  16    -0.112680463093E+04   -0.18581E-01   -0.18051E-01 32856   0.281E+00    0.391E+00
DAV:  17    -0.112686686864E+04   -0.62238E-01   -0.18077E-01 35392   0.177E+00    0.302E+00
DAV:  18    -0.112690514876E+04   -0.38280E-01   -0.74815E-02 31304   0.673E-01    0.270E+00
DAV:  19    -0.112693718357E+04   -0.32035E-01   -0.25417E-02 35440   0.128E+00    0.218E+00
DAV:  20    -0.112700745690E+04   -0.70273E-01   -0.72482E-02 33360   0.163E+00    0.168E+00
DAV:  21    -0.112704540836E+04   -0.37951E-01   -0.69944E-02 35248   0.109E+00    0.136E+00
DAV:  22    -0.112708736812E+04   -0.41960E-01   -0.41734E-02 33920   0.750E-01    0.107E+00
DAV:  23    -0.112712682533E+04   -0.39457E-01   -0.17025E-02 32600   0.670E-01    0.937E-01
DAV:  24    -0.112715391752E+04   -0.27092E-01   -0.16479E-02 30376   0.438E-01    0.823E-01
DAV:  25    -0.112720458893E+04   -0.50671E-01   -0.15063E-02 34408   0.705E-01    0.753E-01
DAV:  26    -0.112723052590E+04   -0.25937E-01   -0.21748E-02 31152   0.481E-01    0.767E-01
DAV:  27    -0.112727323951E+04   -0.42714E-01   -0.12298E-02 33128   0.517E-01    0.725E-01
DAV:  28    -0.112731365091E+04   -0.40411E-01   -0.20415E-02 31280   0.568E-01    0.725E-01
DAV:  29    -0.112735387897E+04   -0.40228E-01   -0.19223E-02 32672   0.486E-01    0.713E-01
DAV:  30    -0.112737462750E+04   -0.20749E-01   -0.10215E-02 32752   0.316E-01    0.723E-01
DAV:  31    -0.112739227672E+04   -0.17649E-01   -0.34501E-03 31624   0.188E-01    0.716E-01
DAV:  32    -0.112739744459E+04   -0.51679E-02   -0.15882E-03 28576   0.745E-02    0.717E-01
DAV:  33    -0.112739800940E+04   -0.56481E-03   -0.24597E-04 26712   0.439E-02    0.710E-01
DAV:  34    -0.112744028143E+04   -0.42272E-01   -0.13409E-02 33464   0.587E-01    0.778E-01
DAV:  35    -0.112745340428E+04   -0.13123E-01   -0.81144E-03 30272   0.190E-01    0.792E-01
DAV:  36    -0.112744767332E+04    0.57310E-02   -0.14420E-03 26872   0.144E-01    0.772E-01
DAV:  37    -0.112735075319E+04    0.96920E-01   -0.83529E-02 32128   0.144E+00    0.815E-01
DAV:  38    -0.112723173548E+04    0.11902E+00   -0.19047E-01 33840   0.176E+00    0.101E+00
DAV:  39    -0.112734836776E+04   -0.11663E+00   -0.13118E-01 29704   0.178E+00    0.908E-01
DAV:  40    -0.112745568346E+04   -0.10732E+00   -0.15834E-01 33896   0.176E+00    0.101E+00
DAV:  41    -0.112754771238E+04   -0.92029E-01   -0.16622E-01 34600   0.150E+00    0.923E-01
DAV:  42    -0.112762598000E+04   -0.78268E-01   -0.11626E-01 34104   0.120E+00    0.120E+00
DAV:  43    -0.112764421737E+04   -0.18237E-01   -0.38603E-02 27048   0.370E-01    0.117E+00
DAV:  44    -0.112765371407E+04   -0.94967E-02   -0.10535E-03 34808   0.113E-01    0.113E+00
DAV:  45    -0.112766476350E+04   -0.11049E-01   -0.20047E-03 34864   0.165E-01    0.101E+00
DAV:  46    -0.112768540958E+04   -0.20646E-01   -0.43730E-03 34944   0.292E-01    0.946E-01
DAV:  47    -0.112769127196E+04   -0.58624E-02   -0.33596E-03 31072   0.171E-01    0.842E-01
DAV:  48    -0.112770668694E+04   -0.15415E-01   -0.24477E-03 32840   0.235E-01    0.861E-01
DAV:  49    -0.112772532783E+04   -0.18641E-01   -0.57594E-03 33992   0.298E-01    0.850E-01
DAV:  50    -0.112776410807E+04   -0.38780E-01   -0.18042E-02 32344   0.606E-01    0.796E-01
DAV:  51    -0.112777686686E+04   -0.12759E-01   -0.13067E-02 31104   0.282E-01    0.682E-01
DAV:  52    -0.112777669126E+04    0.17560E-03   -0.24168E-03 32048   0.180E-01    0.576E-01
DAV:  53    -0.112778841550E+04   -0.11724E-01   -0.21272E-03 31992   0.200E-01    0.575E-01
DAV:  54    -0.112779964627E+04   -0.11231E-01   -0.27413E-03 32872   0.190E-01    0.589E-01
DAV:  55    -0.112781723966E+04   -0.17593E-01   -0.48613E-03 32896   0.317E-01    0.579E-01
DAV:  56    -0.112783209375E+04   -0.14854E-01   -0.67374E-03 33992   0.272E-01    0.575E-01
DAV:  57    -0.112783665660E+04   -0.45629E-02   -0.24617E-03 27248   0.976E-02    0.591E-01
DAV:  58    -0.112783278836E+04    0.38682E-02   -0.65423E-04 28992   0.108E-01    0.582E-01
DAV:  59    -0.112783013741E+04    0.26510E-02   -0.53163E-04 34640   0.904E-02    0.554E-01
DAV:  60    -0.112783313276E+04   -0.29954E-02   -0.25691E-03 32064   0.264E-01    0.631E-01
DAV:  61    -0.112781469979E+04    0.18433E-01   -0.56772E-03 32288   0.335E-01    0.535E-01
DAV:  62    -0.112781308577E+04    0.16140E-02   -0.23212E-03 28240   0.821E-02    0.531E-01
DAV:  63    -0.112781071416E+04    0.23716E-02   -0.10087E-04 28280   0.493E-02    0.535E-01
DAV:  64    -0.112780862866E+04    0.20855E-02   -0.17501E-04 28784   0.371E-02    0.533E-01
DAV:  65    -0.112780910975E+04   -0.48109E-03   -0.21219E-03 31632   0.210E-01    0.554E-01
DAV:  66    -0.112781391653E+04   -0.48068E-02   -0.46955E-03 32888   0.254E-01    0.541E-01
DAV:  67    -0.112781716663E+04   -0.32501E-02   -0.90028E-03 32632   0.377E-01    0.558E-01
DAV:  68    -0.112781592254E+04    0.12441E-02   -0.39137E-03 27408   0.115E-01    0.543E-01
DAV:  69    -0.112781694879E+04   -0.10262E-02   -0.31433E-04 33664   0.822E-02    0.559E-01
DAV:  70    -0.112781912685E+04   -0.21781E-02   -0.38344E-04 30040   0.692E-02    0.599E-01
DAV:  71    -0.112782392440E+04   -0.47975E-02   -0.33947E-03 32960   0.265E-01    0.663E-01
DAV:  72    -0.112782144481E+04    0.24796E-02   -0.16613E-03 29016   0.951E-02    0.638E-01
DAV:  73    -0.112782303760E+04   -0.15928E-02   -0.21872E-04 27784   0.539E-02    0.649E-01
DAV:  74    -0.112782864733E+04   -0.56097E-02   -0.10076E-02 32696   0.467E-01    0.794E-01
DAV:  75    -0.112782024647E+04    0.84009E-02   -0.26625E-02 32072   0.611E-01    0.102E+00
DAV:  76    -0.112784610632E+04   -0.25860E-01   -0.28543E-02 29944   0.834E-01    0.924E-01
DAV:  77    -0.112783844973E+04    0.76566E-02   -0.56740E-03 27824   0.363E-01    0.805E-01
DAV:  78    -0.112784397302E+04   -0.55233E-02   -0.20857E-03 31376   0.208E-01    0.724E-01
DAV:  79    -0.112785033299E+04   -0.63600E-02   -0.30132E-03 32872   0.219E-01    0.692E-01
DAV:  80    -0.112784856791E+04    0.17651E-02   -0.18442E-03 32176   0.153E-01    0.665E-01
DAV:  81    -0.112783558478E+04    0.12983E-01   -0.92999E-03 32008   0.493E-01    0.545E-01
DAV:  82    -0.112785118322E+04   -0.15598E-01   -0.98565E-03 33008   0.349E-01    0.503E-01
DAV:  83    -0.112785156723E+04   -0.38401E-03   -0.28342E-03 27432   0.102E-01    0.509E-01
DAV:  84    -0.112785206124E+04   -0.49400E-03   -0.38858E-05 23040   0.177E-02    0.508E-01
DAV:  85    -0.112785953599E+04   -0.74748E-02   -0.21338E-03 32552   0.218E-01    0.473E-01
DAV:  86    -0.112786754551E+04   -0.80095E-02   -0.26175E-03 33656   0.189E-01    0.455E-01
DAV:  87    -0.112786295566E+04    0.45899E-02   -0.92588E-04 26752   0.123E-01    0.459E-01
DAV:  88    -0.112786570941E+04   -0.27538E-02   -0.79001E-04 31408   0.135E-01    0.450E-01
DAV:  89    -0.112786531450E+04    0.39492E-03   -0.20753E-04 25544   0.394E-02    0.454E-01
DAV:  90    -0.112786386656E+04    0.14479E-02   -0.99487E-05 25968   0.466E-02    0.462E-01
DAV:  91    -0.112787343955E+04   -0.95730E-02   -0.35959E-03 31624   0.300E-01    0.491E-01
DAV:  92    -0.112788065434E+04   -0.72148E-02   -0.71779E-03 32112   0.321E-01    0.480E-01
DAV:  93    -0.112788373370E+04   -0.30794E-02   -0.35288E-03 31144   0.142E-01    0.470E-01
DAV:  94    -0.112788797893E+04   -0.42452E-02   -0.94161E-04 32472   0.125E-01    0.478E-01
DAV:  95    -0.112788853143E+04   -0.55251E-03   -0.64915E-04 27528   0.480E-02    0.492E-01
DAV:  96    -0.112789483248E+04   -0.63010E-02   -0.17337E-03 32488   0.200E-01    0.466E-01
DAV:  97    -0.112789270003E+04    0.21324E-02   -0.56579E-04 27480   0.890E-02    0.465E-01
DAV:  98    -0.112789818396E+04   -0.54839E-02   -0.18365E-03 31416   0.194E-01    0.458E-01
DAV:  99    -0.112790491055E+04   -0.67266E-02   -0.43921E-03 33584   0.241E-01    0.465E-01
DAV: 100    -0.112791229325E+04   -0.73827E-02   -0.50129E-03 33248   0.241E-01    0.484E-01
DAV: 101    -0.112792260654E+04   -0.10313E-01   -0.45986E-03 32360   0.264E-01    0.465E-01
DAV: 102    -0.112792629414E+04   -0.36876E-02   -0.37234E-03 30448   0.202E-01    0.469E-01
DAV: 103    -0.112792832841E+04   -0.20343E-02   -0.16794E-03 29176   0.750E-02    0.477E-01
DAV: 104    -0.112792843308E+04   -0.10467E-03   -0.22773E-04 24728   0.269E-02    0.481E-01
DAV: 105    -0.112792936759E+04   -0.93452E-03   -0.64199E-05 24328   0.395E-02    0.497E-01
DAV: 106    -0.112792996210E+04   -0.59450E-03   -0.22848E-04 29416   0.710E-02    0.515E-01
DAV: 107    -0.112792556528E+04    0.43968E-02   -0.12792E-03 31536   0.149E-01    0.519E-01
DAV: 108    -0.112792478039E+04    0.78489E-03   -0.75951E-04 30808   0.658E-02    0.544E-01
DAV: 109    -0.112792487550E+04   -0.95109E-04   -0.12142E-04 23920   0.251E-02    0.537E-01
DAV: 110    -0.112792487270E+04    0.28024E-05   -0.27694E-06 15720   0.356E-03
   1 F= -.11279249E+04 E0= -.11279249E+04  d E =-.112792E+04  mag=    65.0000
       N       E                     dE             d eps       ncg     rms          rms(c)
DAV:   1    -0.112791629992E+04    0.85756E-02   -0.19537E-02 32136   0.533E-01    0.520E-01
DAV:   2    -0.112791108103E+04    0.52189E-02   -0.56045E-03 31872   0.320E-01    0.394E-01
DAV:   3    -0.112791551542E+04   -0.44344E-02   -0.13072E-03 29120   0.144E-01    0.272E-01
DAV:   4    -0.112791768408E+04   -0.21687E-02   -0.42935E-04 30792   0.720E-02    0.254E-01
DAV:   5    -0.112791981219E+04   -0.21281E-02   -0.46831E-04 32032   0.811E-02    0.250E-01
DAV:   6    -0.112792382271E+04   -0.40105E-02   -0.12174E-03 31872   0.145E-01    0.249E-01
DAV:   7    -0.112793157791E+04   -0.77552E-02   -0.41687E-03 31824   0.254E-01    0.243E-01
DAV:   8    -0.112794869214E+04   -0.17114E-01   -0.15208E-02 32216   0.504E-01    0.259E-01
DAV:   9    -0.112794639815E+04    0.22940E-02   -0.61371E-03 26432   0.209E-01    0.244E-01
DAV:  10    -0.112794822317E+04   -0.18250E-02   -0.34816E-04 27832   0.561E-02    0.255E-01
DAV:  11    -0.112794520535E+04    0.30178E-02   -0.48915E-04 30216   0.108E-01    0.255E-01
DAV:  12    -0.112794510171E+04    0.10364E-03   -0.12948E-04 27024   0.176E-02    0.255E-01
DAV:  13    -0.112794512101E+04   -0.19306E-04   -0.59845E-05 28312   0.300E-02    0.251E-01
DAV:  14    -0.112795219738E+04   -0.70764E-02   -0.53923E-03 37912   0.309E-01    0.306E-01
DAV:  15    -0.112795073069E+04    0.14667E-02   -0.80758E-03 31760   0.223E-01    0.572E-01
DAV:  16    -0.112795140779E+04   -0.67710E-03   -0.12263E-03 29584   0.893E-02    0.647E-01
DAV:  17    -0.112794994599E+04    0.14618E-02   -0.69365E-04 34992   0.862E-02    0.735E-01
DAV:  18    -0.112795345402E+04   -0.35080E-02   -0.10660E-03 31576   0.144E-01    0.784E-01
DAV:  19    -0.112795301062E+04    0.44340E-03   -0.69084E-04 33312   0.805E-02    0.803E-01
DAV:  20    -0.112795362956E+04   -0.61894E-03   -0.24514E-04 31728   0.439E-02    0.797E-01
DAV:  21    -0.112795381417E+04   -0.18460E-03   -0.92826E-05 23800   0.291E-02    0.799E-01
DAV:  22    -0.112795304800E+04    0.76617E-03   -0.19305E-04 29840   0.626E-02    0.809E-01
DAV:  23    -0.112795256834E+04    0.47965E-03   -0.47135E-04 32792   0.811E-02    0.821E-01
DAV:  24    -0.112795212261E+04    0.44573E-03   -0.11799E-03 32392   0.141E-01    0.845E-01
DAV:  25    -0.112795243917E+04   -0.31656E-03   -0.52036E-04 26520   0.709E-02    0.839E-01
DAV:  26    -0.112795244963E+04   -0.10462E-04   -0.21238E-05 18744   0.699E-03    0.838E-01
DAV:  27    -0.112795204872E+04    0.40091E-03   -0.12500E-05 17128   0.149E-02    0.837E-01
DAV:  28    -0.112795164786E+04    0.40086E-03   -0.15114E-05 16792   0.122E-02    0.835E-01
DAV:  29    -0.112795161040E+04    0.37458E-04   -0.13717E-05 17288   0.136E-02    0.835E-01
DAV:  30    -0.112795151418E+04    0.96218E-04   -0.57043E-05 25344   0.313E-02    0.839E-01
DAV:  31    -0.112795168357E+04   -0.16939E-03   -0.10121E-04 28856   0.315E-02    0.845E-01
DAV:  32    -0.112795177641E+04   -0.92840E-04   -0.76210E-04 32040   0.117E-01    0.867E-01
DAV:  33    -0.112795140338E+04    0.37303E-03   -0.16430E-03 33432   0.138E-01    0.880E-01
DAV:  34    -0.112794965910E+04    0.17443E-02   -0.93203E-04 30864   0.837E-02    0.870E-01
DAV:  35    -0.112794860641E+04    0.10527E-02   -0.28579E-04 32600   0.473E-02    0.865E-01
DAV:  36    -0.112794871232E+04   -0.10591E-03   -0.11350E-04 23120   0.224E-02    0.862E-01
DAV:  37    -0.112794894851E+04   -0.23620E-03   -0.17130E-05 18616   0.167E-02    0.864E-01
DAV:  38    -0.112794838283E+04    0.56569E-03   -0.31797E-05 20888   0.275E-02    0.861E-01
DAV:  39    -0.112794583258E+04    0.25502E-02   -0.10035E-03 30912   0.123E-01    0.842E-01
DAV:  40    -0.112794380247E+04    0.20301E-02   -0.10481E-03 33848   0.958E-02    0.824E-01
DAV:  41    -0.112794470889E+04   -0.90642E-03   -0.42771E-04 27296   0.731E-02    0.825E-01
DAV:  42    -0.112794898747E+04   -0.42786E-02   -0.19320E-03 31536   0.185E-01    0.866E-01
DAV:  43    -0.112795637616E+04   -0.73887E-02   -0.52594E-03 34144   0.266E-01    0.913E-01
DAV:  44    -0.112795617723E+04    0.19893E-03   -0.16676E-03 26808   0.904E-02    0.934E-01
DAV:  45    -0.112795618470E+04   -0.74684E-05   -0.45698E-05 24592   0.110E-02
   2 F= -.11279562E+04 E0= -.11279562E+04  d E =-.313120E-01  mag=    65.0000
       N       E                     dE             d eps       ncg     rms          rms(c)
DAV:   1    -0.112797614744E+04   -0.19970E-01   -0.16672E-01 27888   0.998E-01    0.986E-01
DAV:   2    -0.112797438793E+04    0.17595E-02   -0.38828E-02 33112   0.562E-01    0.511E-01
DAV:   3    -0.112797711829E+04   -0.27304E-02   -0.13449E-02 29896   0.266E-01    0.391E-01
DAV:   4    -0.112797980851E+04   -0.26902E-02   -0.10839E-03 30784   0.101E-01    0.272E-01
DAV:   5    -0.112798284890E+04   -0.30404E-02   -0.82592E-04 34344   0.997E-02    0.254E-01
DAV:   6    -0.112798527455E+04   -0.24256E-02   -0.57813E-04 32720   0.720E-02    0.257E-01
DAV:   7    -0.112798434775E+04    0.92680E-03   -0.28341E-04 25856   0.510E-02    0.258E-01
DAV:   8    -0.112798540057E+04   -0.10528E-02   -0.66649E-05 23384   0.391E-02    0.260E-01
DAV:   9    -0.112799253890E+04   -0.71383E-02   -0.27870E-03 32272   0.228E-01    0.273E-01
DAV:  10    -0.112800808292E+04   -0.15544E-01   -0.12828E-02 32776   0.445E-01    0.298E-01
DAV:  11    -0.112800822142E+04   -0.13850E-03   -0.48482E-03 27264   0.114E-01    0.307E-01
DAV:  12    -0.112800490839E+04    0.33130E-02   -0.67965E-04 31216   0.107E-01    0.328E-01
DAV:  13    -0.112799681168E+04    0.80967E-02   -0.43134E-03 31904   0.262E-01    0.366E-01
DAV:  14    -0.112799676681E+04    0.44868E-04   -0.15513E-03 26048   0.642E-02    0.354E-01
DAV:  15    -0.112799359005E+04    0.31768E-02   -0.45816E-04 33768   0.948E-02    0.371E-01
DAV:  16    -0.112798676152E+04    0.68285E-02   -0.23585E-03 37008   0.188E-01    0.433E-01
DAV:  17    -0.112799161531E+04   -0.48538E-02   -0.62038E-03 29984   0.301E-01    0.769E-01
DAV:  18    -0.112799233242E+04   -0.71711E-03   -0.15618E-03 30528   0.906E-02    0.882E-01
DAV:  19    -0.112798767040E+04    0.46620E-02   -0.10250E-03 31640   0.138E-01    0.891E-01
DAV:  20    -0.112798962778E+04   -0.19574E-02   -0.44504E-04 30392   0.860E-02    0.882E-01
DAV:  21    -0.112799395669E+04   -0.43289E-02   -0.12288E-03 33272   0.143E-01    0.864E-01
DAV:  22    -0.112799611378E+04   -0.21571E-02   -0.89484E-04 33800   0.671E-02    0.862E-01
DAV:  23    -0.112799776751E+04   -0.16537E-02   -0.17959E-04 30480   0.426E-02    0.874E-01
DAV:  24    -0.112799790424E+04   -0.13673E-03   -0.93363E-05 24272   0.234E-02    0.880E-01
DAV:  25    -0.112799823376E+04   -0.32951E-03   -0.31865E-05 20736   0.232E-02    0.883E-01
DAV:  26    -0.112799873807E+04   -0.50431E-03   -0.73180E-05 26416   0.252E-02    0.886E-01
DAV:  27    -0.112799947958E+04   -0.74152E-03   -0.16384E-04 29240   0.494E-02    0.888E-01
DAV:  28    -0.112799976932E+04   -0.28974E-03   -0.26846E-04 31944   0.533E-02    0.889E-01
DAV:  29    -0.112799962403E+04    0.14529E-03   -0.10748E-04 23536   0.301E-02    0.888E-01
DAV:  30    -0.112799839731E+04    0.12267E-02   -0.13868E-04 27792   0.435E-02    0.882E-01
DAV:  31    -0.112799733486E+04    0.10624E-02   -0.32440E-04 30312   0.606E-02    0.875E-01
DAV:  32    -0.112799543976E+04    0.18951E-02   -0.94660E-04 31512   0.111E-01    0.864E-01
DAV:  33    -0.112799624535E+04   -0.80559E-03   -0.52490E-04 27680   0.829E-02    0.861E-01
DAV:  34    -0.112799893789E+04   -0.26925E-02   -0.16797E-03 31784   0.156E-01    0.852E-01
DAV:  35    -0.112800458059E+04   -0.56427E-02   -0.79582E-03 32984   0.321E-01    0.855E-01
DAV:  36    -0.112800855351E+04   -0.39729E-02   -0.59470E-03 33832   0.176E-01    0.863E-01
DAV:  37    -0.112800851922E+04    0.34295E-04   -0.11382E-03 26224   0.818E-02    0.860E-01
DAV:  38    -0.112800769950E+04    0.81972E-03   -0.17946E-04 31512   0.457E-02    0.845E-01
DAV:  39    -0.112800807961E+04   -0.38011E-03   -0.66632E-05 25384   0.256E-02    0.841E-01
DAV:  40    -0.112800814837E+04   -0.68763E-04   -0.49310E-06 16432   0.477E-03    0.844E-01
DAV:  41    -0.112801144614E+04   -0.32978E-02   -0.85590E-04 31640   0.113E-01    0.828E-01
DAV:  42    -0.112801240465E+04   -0.95851E-03   -0.36711E-04 26880   0.342E-02    0.812E-01
DAV:  43    -0.112801587061E+04   -0.34660E-02   -0.10377E-03 31936   0.127E-01    0.798E-01
DAV:  44    -0.112801753829E+04   -0.16677E-02   -0.90546E-04 32152   0.671E-02    0.769E-01
DAV:  45    -0.112802347624E+04   -0.59379E-02   -0.29675E-03 32432   0.205E-01    0.730E-01
DAV:  46    -0.112802074025E+04    0.27360E-02   -0.16841E-03 28144   0.156E-01    0.726E-01
DAV:  47    -0.112802346279E+04   -0.27225E-02   -0.69490E-04 28936   0.104E-01    0.724E-01
DAV:  48    -0.112802366008E+04   -0.19729E-03   -0.33281E-04 28888   0.468E-02    0.723E-01
DAV:  49    -0.112802335793E+04    0.30215E-03   -0.19694E-04 30296   0.521E-02    0.726E-01
DAV:  50    -0.112802458981E+04   -0.12319E-02   -0.26424E-04 30672   0.461E-02    0.722E-01
DAV:  51    -0.112802529509E+04   -0.70529E-03   -0.11704E-04 27296   0.244E-02    0.721E-01
DAV:  52    -0.112802689716E+04   -0.16021E-02   -0.21172E-04 30216   0.597E-02    0.715E-01
DAV:  53    -0.112802838033E+04   -0.14832E-02   -0.43563E-04 32184   0.603E-02    0.704E-01
DAV:  54    -0.112802993742E+04   -0.15571E-02   -0.39388E-04 31120   0.612E-02    0.695E-01
DAV:  55    -0.112802945437E+04    0.48305E-03   -0.19708E-04 24376   0.380E-02    0.699E-01
DAV:  56    -0.112802939227E+04    0.62104E-04   -0.10341E-05 17120   0.596E-03    0.696E-01
DAV:  57    -0.112787076453E+04    0.15863E+00   -0.28832E-01 32832   0.219E+00    0.180E+00
DAV:  58    -0.112778367235E+04    0.87092E-01   -0.14259E-01 29392   0.550E-01    0.228E+00
DAV:  59    -0.112776181498E+04    0.21857E-01   -0.83405E-03 28304   0.146E-01    0.239E+00
DAV:  60    -0.112775341706E+04    0.83979E-02   -0.33545E-04 27944   0.324E-02    0.241E+00
DAV:  61    -0.112773489678E+04    0.18520E-01   -0.27997E-04 28832   0.581E-02    0.248E+00
DAV:  62    -0.112763520043E+04    0.99696E-01   -0.58660E-03 29216   0.276E-01    0.282E+00
DAV:  63    -0.112769362221E+04   -0.58422E-01   -0.31559E-03 26976   0.163E-01    0.261E+00
DAV:  64    -0.112758235151E+04    0.11127E+00   -0.56297E-03 28296   0.263E-01    0.296E+00
DAV:  65    -0.112751877889E+04    0.63573E-01   -0.41604E-03 31792   0.188E-01    0.313E+00
DAV:  66    -0.112739437103E+04    0.12441E+00   -0.50285E-03 29360   0.204E-01    0.344E+00
DAV:  67    -0.112722760714E+04    0.16676E+00   -0.52195E-03 29360   0.223E-01    0.381E+00
DAV:  68    -0.112715782476E+04    0.69782E-01   -0.24966E-03 29536   0.122E-01    0.396E+00
DAV:  69    -0.112718179503E+04   -0.23970E-01   -0.68750E-04 26520   0.659E-02    0.392E+00
DAV:  70    -0.112718290784E+04   -0.11128E-02   -0.20724E-05 21232   0.877E-03    0.391E+00
DAV:  71    -0.112719158025E+04   -0.86724E-02   -0.46431E-05 20576   0.195E-02    0.390E+00
DAV:  72    -0.112675411132E+04    0.43747E+00   -0.21109E-02 29832   0.532E-01    0.464E+00
DAV:  73    -0.112664471009E+04    0.10940E+00   -0.74660E-03 29432   0.153E-01    0.479E+00
DAV:  74    -0.112661686367E+04    0.27846E-01   -0.69532E-04 28344   0.445E-02    0.483E+00
DAV:  75    -0.112663665406E+04   -0.19790E-01   -0.41250E-04 24544   0.425E-02    0.480E+00
DAV:  76    -0.112670042724E+04   -0.63773E-01   -0.13273E-03 26576   0.709E-02    0.472E+00
DAV:  77    -0.112717344370E+04   -0.47302E+00   -0.24828E-02 30576   0.574E-01    0.392E+00
DAV:  78    -0.112717226933E+04    0.11744E-02   -0.53349E-03 28152   0.131E-01    0.392E+00
DAV:  79    -0.112719049871E+04   -0.18229E-01   -0.20082E-04 28216   0.368E-02    0.388E+00
DAV:  80    -0.112737849213E+04   -0.18799E+00   -0.52791E-03 30392   0.268E-01    0.346E+00
DAV:  81    -0.112762346788E+04   -0.24498E+00   -0.16641E-02 29872   0.423E-01    0.279E+00
DAV:  82    -0.112789707613E+04   -0.27361E+00   -0.43437E-02 29776   0.709E-01    0.163E+00
DAV:  83    -0.112789097796E+04    0.60982E-02   -0.11541E-02 28400   0.215E-01    0.168E+00
DAV:  84    -0.112789380511E+04   -0.28271E-02   -0.36282E-04 30032   0.535E-02    0.166E+00
DAV:  85    -0.112786726978E+04    0.26535E-01   -0.21152E-03 31752   0.168E-01    0.181E+00
DAV:  86    -0.112790114506E+04   -0.33875E-01   -0.15852E-03 30072   0.145E-01    0.161E+00
DAV:  87    -0.112802963517E+04   -0.12849E+00   -0.40346E-02 31032   0.743E-01    0.473E-01
DAV:  88    -0.112802962299E+04    0.12179E-04   -0.80998E-03 28312   0.158E-01    0.493E-01
DAV:  89    -0.112802944650E+04    0.17649E-03   -0.13069E-04 28872   0.170E-02    0.490E-01
DAV:  90    -0.112802948910E+04   -0.42594E-04   -0.50141E-06 18200   0.439E-03    0.488E-01
DAV:  91    -0.112803069375E+04   -0.12047E-02   -0.89782E-05 26136   0.371E-02    0.476E-01
DAV:  92    -0.112803247273E+04   -0.17790E-02   -0.19434E-03 31848   0.170E-01    0.404E-01
DAV:  93    -0.112803566273E+04   -0.31900E-02   -0.19995E-03 32104   0.160E-01    0.421E-01
DAV:  94    -0.112803645550E+04   -0.79277E-03   -0.93618E-04 31912   0.572E-02    0.427E-01
DAV:  95    -0.112803653071E+04   -0.75206E-04   -0.13594E-04 25016   0.300E-02    0.421E-01
DAV:  96    -0.112803664686E+04   -0.11615E-03   -0.11096E-05 18248   0.749E-03    0.419E-01
DAV:  97    -0.112803674698E+04   -0.10013E-03   -0.92402E-04 33664   0.127E-01    0.380E-01
DAV:  98    -0.112803839473E+04   -0.16477E-02   -0.68449E-04 34144   0.743E-02    0.349E-01
DAV:  99    -0.112804041294E+04   -0.20182E-02   -0.56891E-04 32656   0.834E-02    0.318E-01
DAV: 100    -0.112804145017E+04   -0.10372E-02   -0.50146E-04 31440   0.579E-02    0.307E-01
DAV: 101    -0.112804158735E+04   -0.13717E-03   -0.14011E-04 24352   0.206E-02    0.309E-01
DAV: 102    -0.112804752255E+04   -0.59352E-02   -0.31198E-03 33520   0.242E-01    0.276E-01
DAV: 103    -0.112804868543E+04   -0.11629E-02   -0.16595E-03 31104   0.872E-02    0.283E-01
DAV: 104    -0.112804984199E+04   -0.11566E-02   -0.42544E-04 31744   0.801E-02    0.281E-01
DAV: 105    -0.112805260582E+04   -0.27638E-02   -0.11228E-03 32328   0.123E-01    0.280E-01
DAV: 106    -0.112805383354E+04   -0.12277E-02   -0.82974E-04 32144   0.604E-02    0.269E-01
DAV: 107    -0.112805383281E+04    0.72821E-06   -0.49148E-04 29232   0.811E-02    0.247E-01
DAV: 108    -0.112805655298E+04   -0.27202E-02   -0.73570E-04 31400   0.101E-01    0.244E-01
DAV: 109    -0.112805827043E+04   -0.17174E-02   -0.86272E-04 32368   0.931E-02    0.241E-01
DAV: 110    -0.112806162283E+04   -0.33524E-02   -0.24421E-03 32816   0.194E-01    0.241E-01
DAV: 111    -0.112806387591E+04   -0.22531E-02   -0.37098E-03 34360   0.174E-01    0.250E-01
DAV: 112    -0.112806564466E+04   -0.17688E-02   -0.21183E-03 33336   0.129E-01    0.230E-01
DAV: 113    -0.112806336040E+04    0.22843E-02   -0.88192E-04 26464   0.868E-02    0.248E-01
DAV: 114    -0.112806303564E+04    0.32476E-03   -0.10778E-04 26600   0.268E-02    0.247E-01
DAV: 115    -0.112806309030E+04   -0.54661E-04   -0.71119E-05 24968   0.338E-02    0.255E-01
DAV: 116    -0.112806344405E+04   -0.35374E-03   -0.12505E-04 28864   0.399E-02    0.266E-01
DAV: 117    -0.112807021077E+04   -0.67667E-02   -0.87675E-03 31520   0.403E-01    0.356E-01
DAV: 118    -0.112807043412E+04   -0.22336E-03   -0.34898E-03 26736   0.854E-02    0.356E-01
DAV: 119    -0.112806949140E+04    0.94272E-03   -0.11121E-04 27488   0.366E-02    0.345E-01
DAV: 120    -0.112806860055E+04    0.89085E-03   -0.10685E-04 27328   0.319E-02    0.327E-01
DAV: 121    -0.112806712566E+04    0.14749E-02   -0.14562E-04 28712   0.388E-02    0.314E-01
DAV: 122    -0.112805530362E+04    0.11822E-01   -0.99745E-03 31224   0.398E-01    0.290E-01
DAV: 123    -0.112806052377E+04   -0.52201E-02   -0.28582E-03 26776   0.157E-01    0.260E-01
DAV: 124    -0.112805918123E+04    0.13425E-02   -0.35169E-04 28688   0.512E-02    0.271E-01
DAV: 125    -0.112805913328E+04    0.47946E-04   -0.60887E-05 22584   0.185E-02    0.269E-01
DAV: 126    -0.112805910893E+04    0.24354E-04   -0.32585E-05 22304   0.232E-02    0.276E-01
DAV: 127    -0.112805727278E+04    0.18361E-02   -0.39650E-04 30048   0.837E-02    0.281E-01
DAV: 128    -0.112805710897E+04    0.16381E-03   -0.28997E-04 32432   0.429E-02    0.274E-01
DAV: 129    -0.112805818536E+04   -0.10764E-02   -0.19434E-03 31944   0.179E-01    0.223E-01
DAV: 130    -0.112805544067E+04    0.27447E-02   -0.22146E-03 32936   0.137E-01    0.226E-01
DAV: 131    -0.112805422934E+04    0.12113E-02   -0.98250E-04 34016   0.659E-02    0.214E-01
DAV: 132    -0.112805409538E+04    0.13396E-03   -0.73871E-04 32368   0.939E-02    0.157E-01
DAV: 133    -0.112805135414E+04    0.27412E-02   -0.15982E-03 32176   0.157E-01    0.162E-01
DAV: 134    -0.112804959426E+04    0.17599E-02   -0.18786E-03 33264   0.129E-01    0.167E-01
DAV: 135    -0.112804891707E+04    0.67719E-03   -0.80467E-04 32152   0.556E-02    0.172E-01
DAV: 136    -0.112804888630E+04    0.30766E-04   -0.13725E-04 23560   0.195E-02    0.177E-01
DAV: 137    -0.112804832176E+04    0.56454E-03   -0.27949E-04 30160   0.723E-02    0.202E-01
DAV: 138    -0.112804806656E+04    0.25520E-03   -0.16525E-04 29856   0.300E-02    0.208E-01
DAV: 139    -0.112804783023E+04    0.23633E-03   -0.33383E-05 20328   0.144E-02    0.209E-01
DAV: 140    -0.112804911672E+04   -0.12865E-02   -0.61564E-04 29256   0.101E-01    0.219E-01
DAV: 141    -0.112805507807E+04   -0.59614E-02   -0.65691E-03 31968   0.312E-01    0.249E-01
DAV: 142    -0.112805670904E+04   -0.16310E-02   -0.41104E-03 33448   0.125E-01    0.264E-01
DAV: 143    -0.112805644427E+04    0.26477E-03   -0.60829E-04 25928   0.539E-02    0.245E-01
DAV: 144    -0.112805626297E+04    0.18130E-03   -0.63612E-05 23992   0.293E-02    0.248E-01
DAV: 145    -0.112805814455E+04   -0.18816E-02   -0.10915E-03 31024   0.138E-01    0.278E-01
DAV: 146    -0.112806142780E+04   -0.32833E-02   -0.24011E-03 33656   0.162E-01    0.330E-01
DAV: 147    -0.112806348367E+04   -0.20559E-02   -0.19668E-03 34488   0.125E-01    0.400E-01
DAV: 148    -0.112805899606E+04    0.44876E-02   -0.20368E-03 29360   0.153E-01    0.463E-01
DAV: 149    -0.112805966805E+04   -0.67199E-03   -0.47341E-04 29624   0.711E-02    0.529E-01
DAV: 150    -0.112805897652E+04    0.69152E-03   -0.24524E-04 28224   0.522E-02    0.559E-01
DAV: 151    -0.112805911719E+04   -0.14067E-03   -0.21281E-04 30888   0.577E-02    0.617E-01
DAV: 152    -0.112805533770E+04    0.37795E-02   -0.28531E-03 31360   0.214E-01    0.689E-01
DAV: 153    -0.112805316978E+04    0.21679E-02   -0.40654E-03 34264   0.180E-01    0.687E-01
DAV: 154    -0.112805020884E+04    0.29609E-02   -0.56691E-03 32280   0.261E-01    0.629E-01
DAV: 155    -0.112804872412E+04    0.14847E-02   -0.46617E-03 33040   0.149E-01    0.659E-01
DAV: 156    -0.112804722660E+04    0.14975E-02   -0.11590E-03 32944   0.113E-01    0.696E-01
DAV: 157    -0.112804588557E+04    0.13410E-02   -0.12741E-03 32400   0.103E-01    0.741E-01
DAV: 158    -0.112804476316E+04    0.11224E-02   -0.15242E-03 32016   0.136E-01    0.752E-01
DAV: 159    -0.112804619356E+04   -0.14304E-02   -0.19969E-03 29112   0.175E-01    0.700E-01
DAV: 160    -0.112804799385E+04   -0.18003E-02   -0.18555E-03 32848   0.146E-01    0.656E-01
DAV: 161    -0.112804929638E+04   -0.13025E-02   -0.12679E-03 34544   0.876E-02    0.642E-01
DAV: 162    -0.112804793471E+04    0.13617E-02   -0.67901E-04 28120   0.820E-02    0.741E-01
DAV: 163    -0.112804630792E+04    0.16268E-02   -0.41419E-03 30936   0.257E-01    0.677E-01
DAV: 164    -0.112804552363E+04    0.78429E-03   -0.31009E-03 34688   0.130E-01    0.643E-01
DAV: 165    -0.112804535368E+04    0.16995E-03   -0.57595E-04 26552   0.361E-02    0.648E-01
DAV: 166    -0.112804531976E+04    0.33916E-04   -0.14887E-05 18880   0.591E-03    0.650E-01
DAV: 167    -0.112804527365E+04    0.46108E-04   -0.11642E-05 17264   0.147E-02    0.660E-01
DAV: 168    -0.112804544332E+04   -0.16966E-03   -0.41231E-05 21512   0.250E-02    0.651E-01
DAV: 169    -0.112804533605E+04    0.10726E-03   -0.15267E-05 17016   0.109E-02    0.635E-01
DAV: 170    -0.112804520761E+04    0.12844E-03   -0.96463E-06 16096   0.129E-02    0.628E-01
DAV: 171    -0.112804510445E+04    0.10317E-03   -0.13669E-05 16672   0.115E-02    0.627E-01
DAV: 172    -0.112804438056E+04    0.72389E-03   -0.43717E-04 30520   0.809E-02    0.652E-01
DAV: 173    -0.112804433395E+04    0.46605E-04   -0.15658E-04 24864   0.166E-02    0.653E-01
DAV: 174    -0.112804436632E+04   -0.32366E-04   -0.78337E-06 16448   0.879E-03    0.653E-01
DAV: 175    -0.112804469068E+04   -0.32436E-03   -0.13129E-04 27368   0.444E-02    0.639E-01
DAV: 176    -0.112804514163E+04   -0.45096E-03   -0.45716E-04 30000   0.746E-02    0.618E-01
DAV: 177    -0.112804327580E+04    0.18658E-02   -0.94590E-03 30984   0.422E-01    0.372E-01
DAV: 178    -0.112804572754E+04   -0.24517E-02   -0.44013E-03 29864   0.250E-01    0.330E-01
DAV: 179    -0.112805335809E+04   -0.76306E-02   -0.25810E-02 31920   0.631E-01    0.269E-01
DAV: 180    -0.112805999580E+04   -0.66377E-02   -0.21186E-02 34848   0.350E-01    0.294E-01
DAV: 181    -0.112806319547E+04   -0.31997E-02   -0.52615E-03 33520   0.163E-01    0.308E-01
DAV: 182    -0.112806439645E+04   -0.12010E-02   -0.13015E-03 31264   0.125E-01    0.371E-01
DAV: 183    -0.112806491723E+04   -0.52079E-03   -0.96548E-04 27808   0.462E-02    0.380E-01
DAV: 184    -0.112806523728E+04   -0.32005E-03   -0.58113E-05 22672   0.143E-02    0.376E-01
DAV: 185    -0.112806606354E+04   -0.82626E-03   -0.19495E-04 30200   0.574E-02    0.387E-01
DAV: 186    -0.112806658673E+04   -0.52319E-03   -0.96325E-05 24680   0.229E-02    0.367E-01
DAV: 187    -0.112806931014E+04   -0.27234E-02   -0.37854E-03 30944   0.238E-01    0.435E-01
DAV: 188    -0.112807087085E+04   -0.15607E-02   -0.18279E-03 30536   0.706E-02    0.423E-01
DAV: 189    -0.112807175015E+04   -0.87930E-03   -0.18925E-04 25304   0.337E-02    0.388E-01
DAV: 190    -0.112807182524E+04   -0.75083E-04   -0.62292E-04 30272   0.986E-02    0.299E-01
DAV: 191    -0.112807321621E+04   -0.13910E-02   -0.39730E-04 29232   0.791E-02    0.279E-01
DAV: 192    -0.112807367569E+04   -0.45948E-03   -0.13728E-04 27944   0.291E-02    0.251E-01
DAV: 193    -0.112807554786E+04   -0.18722E-02   -0.80027E-04 30480   0.112E-01    0.265E-01
DAV: 194    -0.112807723565E+04   -0.16878E-02   -0.12545E-03 33008   0.105E-01    0.291E-01
DAV: 195    -0.112807745627E+04   -0.22062E-03   -0.37568E-04 25752   0.270E-02    0.288E-01
DAV: 196    -0.112807805389E+04   -0.59763E-03   -0.39918E-05 22872   0.296E-02    0.275E-01
DAV: 197    -0.112808002581E+04   -0.19719E-02   -0.86486E-04 31504   0.112E-01    0.266E-01
DAV: 198    -0.112807991379E+04    0.11202E-03   -0.28280E-04 25552   0.329E-02    0.248E-01
DAV: 199    -0.112808164923E+04   -0.17354E-02   -0.76969E-04 30024   0.111E-01    0.261E-01
DAV: 200    -0.112808249115E+04   -0.84192E-03   -0.52562E-04 31632   0.542E-02
   3 F= -.11280825E+04 E0= -.11280825E+04  d E =-.126306E+00  mag=    65.0000
       N       E                     dE             d eps       ncg     rms          rms(c)
DAV:   1    -0.112809584527E+04   -0.14196E-01   -0.40086E+00 27928   0.505E+00    0.160E+00
DAV:   2    -0.112811506100E+04   -0.19216E-01   -0.29976E-01 29896   0.117E+00    0.732E-01
DAV:   3    -0.112811548938E+04   -0.42838E-03   -0.16884E-02 30152   0.387E-01    0.591E-01
DAV:   4    -0.112811487466E+04    0.61472E-03   -0.26549E-03 30912   0.150E-01    0.253E-01
DAV:   5    -0.112811431915E+04    0.55552E-03   -0.10169E-03 32952   0.140E-01    0.129E-01
DAV:   6    -0.112811456612E+04   -0.24698E-03   -0.10451E-03 30848   0.890E-02    0.100E-01
DAV:   7    -0.112811490038E+04   -0.33426E-03   -0.42126E-04 30040   0.545E-02    0.917E-02
DAV:   8    -0.112811510285E+04   -0.20247E-03   -0.66749E-05 26752   0.354E-02    0.758E-02
DAV:   9    -0.112811550363E+04   -0.40079E-03   -0.13523E-04 31600   0.512E-02    0.643E-02
DAV:  10    -0.112811589527E+04   -0.39164E-03   -0.24575E-04 30880   0.515E-02    0.574E-02
DAV:  11    -0.112811626967E+04   -0.37440E-03   -0.25801E-04 30720   0.597E-02    0.511E-02
DAV:  12    -0.112811696775E+04   -0.69808E-03   -0.63341E-04 30936   0.100E-01    0.409E-02
DAV:  13    -0.112811733224E+04   -0.36449E-03   -0.10703E-03 33360   0.103E-01    0.304E-02
DAV:  14    -0.112811730436E+04    0.27876E-04   -0.44899E-04 27984   0.340E-02    0.229E-02
DAV:  15    -0.112811733243E+04   -0.28069E-04   -0.27442E-05 19136   0.109E-02    0.179E-02
DAV:  16    -0.112811734441E+04   -0.11980E-04   -0.37890E-05 21976   0.274E-02    0.139E-02
DAV:  17    -0.112811743235E+04   -0.87944E-04   -0.12602E-04 29048   0.386E-02    0.122E-02
DAV:  18    -0.112811738954E+04    0.42815E-04   -0.70332E-05 24296   0.177E-02    0.809E-03
DAV:  19    -0.112811740035E+04   -0.10809E-04   -0.99988E-06 17064   0.867E-03    0.600E-03
DAV:  20    -0.112811738953E+04    0.10816E-04   -0.49001E-06 13824   0.615E-03    0.474E-03
DAV:  21    -0.112811738132E+04    0.82146E-05   -0.21340E-06 14440   0.386E-03
   4 F= -.11281174E+04 E0= -.11281174E+04  d E =-.348902E-01  mag=    65.0000
       N       E                     dE             d eps       ncg     rms          rms(c)
DAV:   1    -0.112812424819E+04   -0.68587E-02   -0.16531E-01 29272   0.116E+00    0.308E-01
DAV:   2    -0.112812562410E+04   -0.13759E-02   -0.16113E-02 29600   0.248E-01    0.142E-01
DAV:   3    -0.112812559561E+04    0.28482E-04   -0.64770E-04 29936   0.648E-02    0.989E-02
DAV:   4    -0.112812557129E+04    0.24319E-04   -0.96901E-05 30544   0.291E-02    0.437E-02
DAV:   5    -0.112812555539E+04    0.15899E-04   -0.44040E-05 26760   0.269E-02    0.154E-02
DAV:   6    -0.112812555470E+04    0.69478E-06   -0.38233E-05 24304   0.145E-02
   5 F= -.11281256E+04 E0= -.11281256E+04  d E =-.817338E-02  mag=    65.0000
       N       E                     dE             d eps       ncg     rms          rms(c)
DAV:   1    -0.112810044429E+04    0.25111E-01   -0.29706E+00 30528   0.596E+00    0.108E+00
DAV:   2    -0.112814188517E+04   -0.41441E-01   -0.42348E-01 28608   0.115E+00    0.516E-01
DAV:   3    -0.112814257846E+04   -0.69328E-03   -0.14085E-02 29696   0.266E-01    0.257E-01
DAV:   4    -0.112814233461E+04    0.24385E-03   -0.11675E-03 32128   0.834E-02    0.153E-01
DAV:   5    -0.112814217876E+04    0.15585E-03   -0.56760E-04 32128   0.808E-02    0.541E-02
DAV:   6    -0.112814215701E+04    0.21746E-04   -0.27434E-04 29928   0.396E-02    0.352E-02
DAV:   7    -0.112814218341E+04   -0.26395E-04   -0.66535E-05 28048   0.199E-02    0.223E-02
DAV:   8    -0.112814217702E+04    0.63827E-05   -0.73973E-06 15792   0.716E-03
   6 F= -.11281422E+04 E0= -.11281422E+04  d E =-.166223E-01  mag=    65.0000
       N       E                     dE             d eps       ncg     rms          rms(c)
DAV:   1    -0.112803380908E+04    0.10837E+00   -0.89694E+00 29992   0.102E+01    0.164E+00
DAV:   2    -0.112815872416E+04   -0.12492E+00   -0.12515E+00 28128   0.191E+00    0.830E-01
DAV:   3    -0.112816114748E+04   -0.24233E-02   -0.40995E-02 29216   0.432E-01    0.362E-01
DAV:   4    -0.112816085301E+04    0.29446E-03   -0.27210E-03 30560   0.103E-01    0.237E-01
DAV:   5    -0.112816043916E+04    0.41385E-03   -0.11705E-03 31672   0.110E-01    0.982E-02
DAV:   6    -0.112816048659E+04   -0.47434E-04   -0.41539E-04 30144   0.445E-02    0.432E-02
DAV:   7    -0.112816055909E+04   -0.72496E-04   -0.94170E-05 28936   0.229E-02    0.278E-02
DAV:   8    -0.112816053599E+04    0.23097E-04   -0.97391E-06 16616   0.924E-03    0.207E-02
DAV:   9    -0.112816055088E+04   -0.14892E-04   -0.34219E-06 14520   0.714E-03    0.154E-02
DAV:  10    -0.112816056746E+04   -0.16584E-04   -0.51000E-06 15240   0.890E-03    0.116E-02
DAV:  11    -0.112816058135E+04   -0.13891E-04   -0.51389E-06 15632   0.739E-03    0.106E-02
DAV:  12    -0.112816058697E+04   -0.56123E-05   -0.30561E-06 14464   0.660E-03
   7 F= -.11281606E+04 E0= -.11281606E+04  d E =-.184099E-01  mag=    65.0000
       N       E                     dE             d eps       ncg     rms          rms(c)
DAV:   1    -0.112795536054E+04    0.20522E+00   -0.18739E+01 29456   0.134E+01    0.221E+00
DAV:   2    -0.112816148088E+04   -0.20612E+00   -0.21380E+00 28096   0.255E+00    0.115E+00
DAV:   3    -0.112816470960E+04   -0.32287E-02   -0.68583E-02 29112   0.573E-01    0.592E-01
DAV:   4    -0.112816384304E+04    0.86656E-03   -0.45840E-03 30424   0.133E-01    0.354E-01
DAV:   5    -0.112816301076E+04    0.83228E-03   -0.20405E-03 31392   0.149E-01    0.146E-01
DAV:   6    -0.112816279961E+04    0.21115E-03   -0.11550E-03 30416   0.757E-02    0.675E-02
DAV:   7    -0.112816293385E+04   -0.13423E-03   -0.19339E-04 29056   0.303E-02    0.419E-02
DAV:   8    -0.112816297009E+04   -0.36242E-04   -0.18851E-05 19208   0.135E-02    0.262E-02
DAV:   9    -0.112816295292E+04    0.17168E-04   -0.12363E-05 17320   0.134E-02    0.188E-02
DAV:  10    -0.112816298459E+04   -0.31669E-04   -0.96780E-06 16104   0.927E-03    0.146E-02
DAV:  11    -0.112816300722E+04   -0.22635E-04   -0.34008E-06 14912   0.690E-03    0.129E-02
DAV:  12    -0.112816302023E+04   -0.13001E-04   -0.42342E-06 14808   0.904E-03    0.117E-02
DAV:  13    -0.112816304720E+04   -0.26972E-04   -0.11817E-05 18360   0.173E-02    0.967E-03
DAV:  14    -0.112816306922E+04   -0.22025E-04   -0.28613E-05 20912   0.194E-02    0.745E-03
DAV:  15    -0.112816307578E+04   -0.65549E-05   -0.18636E-05 16704   0.130E-02
   8 F= -.11281631E+04 E0= -.11281631E+04  d E =-.248881E-02  mag=    65.0000
       N       E                     dE             d eps       ncg     rms          rms(c)
DAV:   1    -0.112815956480E+04    0.35044E-02   -0.18451E+00 30576   0.450E+00    0.103E+00
DAV:   2    -0.112818139726E+04   -0.21832E-01   -0.23181E-01 29160   0.918E-01    0.477E-01
DAV:   3    -0.112818082223E+04    0.57503E-03   -0.82008E-03 29800   0.227E-01    0.329E-01
DAV:   4    -0.112818066008E+04    0.16215E-03   -0.95394E-04 30536   0.741E-02    0.148E-01
DAV:   5    -0.112818038424E+04    0.27584E-03   -0.49377E-04 30296   0.722E-02    0.537E-02
DAV:   6    -0.112818035430E+04    0.29938E-04   -0.29358E-04 29432   0.412E-02    0.441E-02
DAV:   7    -0.112818034076E+04    0.13536E-04   -0.70954E-05 27552   0.183E-02    0.270E-02
DAV:   8    -0.112818033873E+04    0.20372E-05   -0.61103E-06 15552   0.814E-03
   9 F= -.11281803E+04 E0= -.11281803E+04  d E =-.172629E-01  mag=    65.0000
       N       E                     dE             d eps       ncg     rms          rms(c)
DAV:   1    -0.112817582060E+04    0.45202E-02   -0.43196E-01 31456   0.256E+00    0.461E-01
DAV:   2    -0.112818403931E+04   -0.82187E-02   -0.80301E-02 28792   0.487E-01    0.219E-01
DAV:   3    -0.112818422818E+04   -0.18887E-03   -0.26997E-03 29664   0.114E-01    0.103E-01
DAV:   4    -0.112818420092E+04    0.27255E-04   -0.21014E-04 30888   0.310E-02    0.638E-02
DAV:   5    -0.112818416722E+04    0.33700E-04   -0.78983E-05 29576   0.289E-02    0.262E-02
DAV:   6    -0.112818417433E+04   -0.71111E-05   -0.30371E-05 23776   0.146E-02
  10 F= -.11281842E+04 E0= -.11281842E+04  d E =-.383561E-02  mag=    65.0000
       N       E                     dE             d eps       ncg     rms          rms(c)
DAV:   1    -0.112817372836E+04    0.10439E-01   -0.81712E-01 31192   0.328E+00    0.523E-01
DAV:   2    -0.112818649838E+04   -0.12770E-01   -0.12890E-01 28088   0.619E-01    0.254E-01
DAV:   3    -0.112818671050E+04   -0.21212E-03   -0.41362E-03 29504   0.137E-01    0.119E-01
DAV:   4    -0.112818672256E+04   -0.12065E-04   -0.29112E-04 30744   0.322E-02    0.773E-02
DAV:   5    -0.112818664230E+04    0.80266E-04   -0.82768E-05 30752   0.317E-02    0.350E-02
DAV:   6    -0.112818663720E+04    0.50939E-05   -0.43647E-05 28176   0.172E-02
  11 F= -.11281866E+04 E0= -.11281866E+04  d E =-.246287E-02  mag=    65.0000
       N       E                     dE             d eps       ncg     rms          rms(c)
DAV:   1    -0.112810314340E+04    0.83499E-01   -0.53618E+00 30896   0.803E+00    0.128E+00
DAV:   2    -0.112818328581E+04   -0.80142E-01   -0.81490E-01 27688   0.151E+00    0.647E-01
DAV:   3    -0.112818467623E+04   -0.13904E-02   -0.25534E-02 29432   0.330E-01    0.321E-01
DAV:   4    -0.112818466584E+04    0.10388E-04   -0.16384E-03 30504   0.730E-02    0.199E-01
DAV:   5    -0.112818432892E+04    0.33692E-03   -0.49374E-04 32832   0.821E-02    0.901E-02
DAV:   6    -0.112818426198E+04    0.66949E-04   -0.37823E-04 31152   0.517E-02    0.364E-02
DAV:   7    -0.112818431259E+04   -0.50614E-04   -0.96612E-05 29176   0.215E-02    0.287E-02
DAV:   8    -0.112818431206E+04    0.52899E-06   -0.50592E-06 15232   0.933E-03
  12 F= -.11281843E+04 E0= -.11281843E+04  d E =0.232514E-02  mag=    65.0000
       N       E                     dE             d eps       ncg     rms          rms(c)
DAV:   1    -0.112799817958E+04    0.18613E+00   -0.12545E+01 30648   0.117E+01    0.210E+00
DAV:   2    -0.112816569550E+04   -0.16752E+00   -0.17340E+00 27984   0.223E+00    0.100E+00
DAV:   3    -0.112816821716E+04   -0.25217E-02   -0.55465E-02 29440   0.501E-01    0.522E-01
DAV:   4    -0.112816769157E+04    0.52559E-03   -0.43554E-03 32024   0.144E-01    0.305E-01
DAV:   5    -0.112816697978E+04    0.71179E-03   -0.15682E-03 32912   0.142E-01    0.119E-01
DAV:   6    -0.112816692347E+04    0.56310E-04   -0.97437E-04 30216   0.776E-02    0.664E-02
DAV:   7    -0.112816697230E+04   -0.48830E-04   -0.25578E-04 29520   0.340E-02    0.467E-02
DAV:   8    -0.112816700279E+04   -0.30484E-04   -0.14536E-05 17384   0.148E-02    0.339E-02
DAV:   9    -0.112816700873E+04   -0.59417E-05   -0.16698E-05 20352   0.204E-02
  13 F= -.11281670E+04 E0= -.11281670E+04  d E =0.173033E-01  mag=    65.0000
       N       E                     dE             d eps       ncg     rms          rms(c)
DAV:   1    -0.112809752285E+04    0.69480E-01   -0.59929E+00 30944   0.847E+00    0.148E+00
DAV:   2    -0.112818556423E+04   -0.88041E-01   -0.89591E-01 28064   0.161E+00    0.693E-01
DAV:   3    -0.112818748301E+04   -0.19188E-02   -0.28410E-02 29688   0.357E-01    0.347E-01
DAV:   4    -0.112818697414E+04    0.50887E-03   -0.20769E-03 30992   0.984E-02    0.209E-01
DAV:   5    -0.112818682336E+04    0.15078E-03   -0.72512E-04 31896   0.895E-02    0.804E-02
DAV:   6    -0.112818683715E+04   -0.13787E-04   -0.38212E-04 30424   0.468E-02    0.430E-02
DAV:   7    -0.112818684734E+04   -0.10194E-04   -0.84080E-05 28576   0.203E-02    0.265E-02
DAV:   8    -0.112818682483E+04    0.22512E-04   -0.62712E-06 15576   0.822E-03    0.173E-02
DAV:   9    -0.112818682888E+04   -0.40444E-05   -0.48350E-06 17072   0.903E-03
  14 F= -.11281868E+04 E0= -.11281868E+04  d E =-.198202E-01  mag=    65.0000
       N       E                     dE             d eps       ncg     rms          rms(c)
DAV:   1    -0.112818066680E+04    0.61580E-02   -0.30933E-01 31344   0.206E+00    0.434E-01
DAV:   2    -0.112818622365E+04   -0.55569E-02   -0.55069E-02 28736   0.405E-01    0.195E-01
DAV:   3    -0.112818634542E+04   -0.12176E-03   -0.18556E-03 29800   0.990E-02    0.116E-01
DAV:   4    -0.112818632407E+04    0.21344E-04   -0.17957E-04 30456   0.310E-02    0.627E-02
DAV:   5    -0.112818633715E+04   -0.13077E-04   -0.61373E-05 28616   0.268E-02    0.240E-02
DAV:   6    -0.112818632705E+04    0.10095E-04   -0.34515E-05 24800   0.149E-02    0.165E-02
DAV:   7    -0.112818633839E+04   -0.11334E-04   -0.98794E-06 14928   0.741E-03    0.107E-02
DAV:   8    -0.112818634254E+04   -0.41527E-05   -0.17175E-06 14200   0.441E-03
  15 F= -.11281863E+04 E0= -.11281863E+04  d E =0.486337E-03  mag=    65.0000
       N       E                     dE             d eps       ncg     rms          rms(c)
DAV:   1    -0.112818521507E+04    0.11233E-02   -0.10547E-01 31024   0.112E+00    0.233E-01
DAV:   2    -0.112818679167E+04   -0.15766E-02   -0.15921E-02 28928   0.222E-01    0.112E-01
DAV:   3    -0.112818673461E+04    0.57055E-04   -0.53677E-04 29800   0.548E-02    0.753E-02
DAV:   4    -0.112818674168E+04   -0.70739E-05   -0.47904E-05 25768   0.155E-02
  16 F= -.11281867E+04 E0= -.11281867E+04  d E =-.399144E-03  mag=    65.0000
       N       E                     dE             d eps       ncg     rms          rms(c)
DAV:   1    -0.112818561230E+04    0.11223E-02   -0.48170E-02 31432   0.788E-01    0.132E-01
DAV:   2    -0.112818646094E+04   -0.84864E-03   -0.85796E-03 27704   0.147E-01    0.660E-02
DAV:   3    -0.112818645671E+04    0.42327E-05   -0.26258E-04 28520   0.323E-02    0.324E-02
DAV:   4    -0.112818646511E+04   -0.84061E-05   -0.15692E-05 18800   0.800E-03
  17 F= -.11281865E+04 E0= -.11281865E+04  d E =0.276570E-03  mag=    65.0000
       N       E                     dE             d eps       ncg     rms          rms(c)
DAV:   1    -0.112802394733E+04    0.16251E+00   -0.98038E+00 31144   0.106E+01    0.174E+00
DAV:   2    -0.112817262808E+04   -0.14868E+00   -0.14894E+00 27208   0.198E+00    0.897E-01
DAV:   3    -0.112817564032E+04   -0.30122E-02   -0.47605E-02 29240   0.431E-01    0.403E-01
DAV:   4    -0.112817549723E+04    0.14309E-03   -0.29545E-03 30864   0.981E-02    0.266E-01
DAV:   5    -0.112817499393E+04    0.50329E-03   -0.10360E-03 33104   0.118E-01    0.114E-01
DAV:   6    -0.112817499124E+04    0.26964E-05   -0.65595E-04 31488   0.642E-02    0.446E-02
DAV:   7    -0.112817506180E+04   -0.70567E-04   -0.15796E-04 29144   0.284E-02    0.309E-02
DAV:   8    -0.112817502019E+04    0.41616E-04   -0.11765E-05 16160   0.118E-02    0.214E-02
DAV:   9    -0.112817505204E+04   -0.31851E-04   -0.70109E-06 17368   0.992E-03    0.163E-02
DAV:  10    -0.112817504471E+04    0.73270E-05   -0.61524E-06 16312   0.859E-03
  18 F= -.11281750E+04 E0= -.11281750E+04  d E =0.114204E-01  mag=    65.0000
       N       E                     dE             d eps       ncg     rms          rms(c)
DAV:   1    -0.112813689054E+04    0.38161E-01   -0.38584E+00 28536   0.502E+00    0.135E+00
DAV:   2    -0.112816035409E+04   -0.23464E-01   -0.30287E-01 29792   0.108E+00    0.605E-01
DAV:   3    -0.112815901000E+04    0.13441E-02   -0.13466E-02 29888   0.280E-01    0.444E-01
DAV:   4    -0.112815825195E+04    0.75805E-03   -0.14784E-03 33544   0.126E-01    0.190E-01
DAV:   5    -0.112815761160E+04    0.64035E-03   -0.86656E-04 32696   0.147E-01    0.697E-02
DAV:   6    -0.112815756748E+04    0.44116E-04   -0.97496E-04 29240   0.780E-02    0.508E-02
DAV:   7    -0.112815757094E+04   -0.34518E-05   -0.32496E-04 27952   0.340E-02    0.573E-02
DAV:   8    -0.112815757254E+04   -0.16085E-05   -0.10962E-05 17864   0.154E-02
  19 F= -.11281576E+04 E0= -.11281576E+04  d E =0.174722E-01  mag=    65.0000
       N       E                     dE             d eps       ncg     rms          rms(c)
DAV:   1    -0.112809689237E+04    0.60679E-01   -0.70408E+00 30528   0.836E+00    0.155E+00
DAV:   2    -0.112818231313E+04   -0.85421E-01   -0.90042E-01 27976   0.160E+00    0.744E-01
DAV:   3    -0.112818385044E+04   -0.15373E-02   -0.29833E-02 29536   0.360E-01    0.383E-01
DAV:   4    -0.112818315114E+04    0.69929E-03   -0.21063E-03 32992   0.109E-01    0.223E-01
DAV:   5    -0.112818276480E+04    0.38634E-03   -0.97104E-04 33080   0.124E-01    0.862E-02
DAV:   6    -0.112818272099E+04    0.43814E-04   -0.74297E-04 30056   0.676E-02    0.479E-02
DAV:   7    -0.112818274492E+04   -0.23929E-04   -0.22007E-04 28888   0.291E-02    0.395E-02
DAV:   8    -0.112818273592E+04    0.89972E-05   -0.95596E-06 16112   0.113E-02
  20 F= -.11281827E+04 E0= -.11281827E+04  d E =-.251634E-01  mag=    65.0000
       N       E                     dE             d eps       ncg     rms          rms(c)
DAV:   1    -0.112817674670E+04    0.59982E-02   -0.23656E-01 31728   0.184E+00    0.383E-01
DAV:   2    -0.112818169898E+04   -0.49523E-02   -0.47000E-02 28552   0.353E-01    0.178E-01
DAV:   3    -0.112818179428E+04   -0.95301E-04   -0.17192E-03 29680   0.878E-02    0.951E-02
DAV:   4    -0.112818178596E+04    0.83205E-05   -0.13613E-04 30632   0.265E-02    0.541E-02
DAV:   5    -0.112818176261E+04    0.23345E-04   -0.52065E-05 28384   0.257E-02    0.215E-02
DAV:   6    -0.112818174796E+04    0.14648E-04   -0.33197E-05 24688   0.149E-02    0.142E-02
DAV:   7    -0.112818175435E+04   -0.63835E-05   -0.96506E-06 14808   0.716E-03
  21 F= -.11281818E+04 E0= -.11281818E+04  d E =0.981573E-03  mag=    65.0000
       N       E                     dE             d eps       ncg     rms          rms(c)
DAV:   1    -0.112818010343E+04    0.16445E-02   -0.11993E-01 30808   0.112E+00    0.239E-01
DAV:   2    -0.112818181622E+04   -0.17128E-02   -0.17494E-02 28808   0.219E-01    0.113E-01
DAV:   3    -0.112818180159E+04    0.14627E-04   -0.59627E-04 29408   0.529E-02    0.659E-02
DAV:   4    -0.112818180184E+04   -0.24259E-06   -0.47473E-05 25376   0.159E-02
  22 F= -.11281818E+04 E0= -.11281818E+04  d E =-.474885E-04  mag=    65.0000
       N       E                     dE             d eps       ncg     rms          rms(c)
DAV:   1    -0.112818134615E+04    0.45545E-03   -0.25188E-02 30184   0.484E-01    0.889E-02
DAV:   2    -0.112818155418E+04   -0.20804E-03   -0.26267E-03 28808   0.933E-02    0.411E-02
DAV:   3    -0.112818157135E+04   -0.17173E-04   -0.91826E-05 27936   0.219E-02    0.221E-02
DAV:   4    -0.112818154665E+04    0.24709E-04   -0.82459E-06 17352   0.841E-03    0.138E-02
DAV:   5    -0.112818155132E+04   -0.46692E-05   -0.61458E-06 16224   0.736E-03
  23 F= -.11281816E+04 E0= -.11281816E+04  d E =0.250521E-03  mag=    65.0000
