       N       E                     dE             d eps       ncg     rms          ort
DAV:   1     0.846235649911E+04    0.84624E+04   -0.38088E+05  6370   0.178E+03
DAV:   2     0.364610833117E+03   -0.80977E+04   -0.74431E+04  6370   0.459E+02
DAV:   3    -0.838478905201E+03   -0.12031E+04   -0.11757E+04  6370   0.197E+02
DAV:   4    -0.899714063685E+03   -0.61235E+02   -0.57977E+02  6370   0.443E+01
DAV:   5    -0.901946248981E+03   -0.22322E+01   -0.21718E+01  6370   0.719E+00
SDA:   6    -0.381404414273E+03    0.52054E+03   -0.21718E+01  6370   0.347E+04 0.000E+00
CGA:   7    -0.695904721026E+03   -0.31450E+03   -0.37006E+03  6370   0.192E+04-0.253E+03
CGA:   8    -0.667566119049E+03    0.28339E+02   -0.88891E+02  6370   0.213E+04-0.463E+03
CGA:   9    -0.700317230615E+03   -0.32751E+02   -0.44283E+02  6370   0.139E+04-0.174E+03
CGA:  10    -0.697588222007E+03    0.27290E+01   -0.52333E+02  6370   0.227E+04-0.107E+04
CGA:  11    -0.717371292173E+03   -0.19783E+02   -0.87036E+02  6370   0.120E+04-0.929E+03
CGA:  12    -0.727098150671E+03   -0.97269E+01   -0.23280E+02  6370   0.278E+04-0.142E+04
CGA:  13    -0.640173424972E+03    0.86925E+02   -0.13823E+03  6370   0.357E+04-0.144E+04
CGA:  14    -0.744319671166E+03   -0.10415E+03   -0.72709E+02  6370   0.701E+03-0.120E+04
CGA:  15    -0.756130071094E+03   -0.11810E+02   -0.10166E+02  6370   0.111E+04-0.536E+03
CGA:  16    -0.690195907834E+03    0.65934E+02   -0.49205E+02  6370   0.322E+04-0.100E+04
CGA:  17    -0.660656412021E+03    0.29539E+02   -0.97096E+02  6370   0.269E+04-0.188E+04
CGA:  18    -0.695790314620E+03   -0.35134E+02   -0.66683E+02  6370   0.408E+04-0.481E+04
CGA:  19    -0.616883554042E+03    0.78907E+02   -0.16313E+03  6370   0.235E+04-0.161E+04
CGA:  20    -0.732176543102E+03   -0.11529E+03   -0.22423E+02  6370   0.271E+04 0.518E+04
CGA:  21    -0.639826917479E+03    0.92350E+02   -0.11868E+03  6370   0.261E+04-0.109E+04
CGA:  22    -0.721871464356E+03   -0.82045E+02   -0.29003E+02  6370   0.357E+04-0.733E+03
CGA:  23    -0.649124064517E+03    0.72747E+02   -0.10041E+03  6370   0.193E+04-0.774E+03
CGA:  24    -0.701577624294E+03   -0.52454E+02   -0.28396E+02  6370   0.117E+04 0.131E+04
CGA:  25    -0.738334352483E+03   -0.36757E+02   -0.18449E+02  6370   0.749E+03 0.113E+04
CGA:  26    -0.761182715836E+03   -0.22848E+02   -0.11359E+02  6370   0.358E+03 0.660E+03
CGA:  27    -0.768679063372E+03   -0.74963E+01   -0.45237E+01  6370   0.129E+03 0.198E+03
CGA:  28    -0.771531376856E+03   -0.28523E+01   -0.16275E+01  6370   0.542E+02 0.915E+02
CGA:  29    -0.772641779814E+03   -0.11104E+01   -0.66531E+00  6370   0.216E+02 0.343E+02
CGA:  30    -0.773326764474E+03   -0.68498E+00   -0.46353E+00  6370   0.722E+01 0.934E+01
CGA:  31    -0.773668697191E+03   -0.34193E+00   -0.25243E+00  6370   0.513E+01 0.308E+01
CGA:  32    -0.773998431012E+03   -0.32973E+00   -0.30526E+00  6370   0.149E+02 0.270E+00
CGA:  33    -0.774355228673E+03   -0.35680E+00   -0.23920E+00  6370   0.280E+02 0.746E+01
CGA:  34    -0.775074949614E+03   -0.71972E+00   -0.88397E+00  6370   0.693E+01-0.253E+01
CGA:  35    -0.775195627085E+03   -0.12068E+00   -0.11410E+00  6370   0.630E+01 0.279E+00
CGA:  36    -0.775596817121E+03   -0.40119E+00   -0.40289E+00  6370   0.169E+02 0.171E+00
CGA:  37    -0.776057058099E+03   -0.46024E+00   -0.32585E+00  6370   0.162E+02 0.479E+01
CGA:  38    -0.776497999542E+03   -0.44094E+00   -0.54101E+00  6370   0.334E+02-0.410E+01
CGA:  39    -0.776347978399E+03    0.15002E+00   -0.47162E+00  6370   0.534E+02-0.469E+02
CGA:  40    -0.777041903761E+03   -0.69393E+00   -0.97880E+00  6370   0.264E+02-0.131E+02
CGA:  41    -0.777293809369E+03   -0.25191E+00   -0.20967E+00  6370   0.386E+01 0.342E+01
CGA:  42    -0.777340914621E+03   -0.47105E-01   -0.45155E-01  6370   0.206E+01 0.161E+00
CGA:  43    -0.777401065062E+03   -0.60150E-01   -0.60099E-01  6370   0.387E+01 0.459E-03
CGA:  44    -0.777493987314E+03   -0.92922E-01   -0.10474E+00  6370   0.738E+01-0.196E+00
CGA:  45    -0.777713824737E+03   -0.21984E+00   -0.21681E+00  6370   0.950E+01 0.986E-01
CGA:  46    -0.777870660819E+03   -0.15684E+00   -0.14522E+00  6370   0.491E+01 0.601E+00
CGA:  47    -0.777949985777E+03   -0.79325E-01   -0.91098E-01  6370   0.368E+01-0.418E+00
CGA:  48    -0.778019768436E+03   -0.69783E-01   -0.74767E-01  6370   0.262E+01-0.910E-01
CGA:  49    -0.778072691180E+03   -0.52923E-01   -0.54869E-01  6370   0.204E+01-0.499E-01
CGA:  50    -0.778139941034E+03   -0.67250E-01   -0.68436E-01  6370   0.334E+01 0.286E-01
CGA:  51    -0.778238229479E+03   -0.98288E-01   -0.10031E+00  6370   0.192E+01 0.285E-02
CGA:  52    -0.778302286194E+03   -0.64057E-01   -0.64642E-01  6370   0.217E+01 0.140E-01
CGA:  53    -0.778379332587E+03   -0.77046E-01   -0.76655E-01  6370   0.170E+01-0.560E-02
CGA:  54    -0.778412938490E+03   -0.33606E-01   -0.32979E-01  6370   0.895E+00 0.197E-01
CGA:  55    -0.778461340531E+03   -0.48402E-01   -0.47624E-01  6370   0.114E+01 0.453E-01
CGA:  56    -0.778495912504E+03   -0.34572E-01   -0.35059E-01  6370   0.151E+01 0.382E-02
CGA:  57    -0.778575913669E+03   -0.80001E-01   -0.78241E-01  6370   0.105E+01 0.108E+00
CGA:  58    -0.778651398727E+03   -0.75485E-01   -0.75313E-01  6370   0.882E+00-0.271E-02
CGA:  59    -0.778681547500E+03   -0.30149E-01   -0.30255E-01  6370   0.109E+01 0.312E-02
CGA:  60    -0.778718974153E+03   -0.37427E-01   -0.37357E-01  6370   0.681E+00-0.238E-02
CGA:  61    -0.778787055172E+03   -0.68081E-01   -0.61575E-01  6370   0.502E+00 0.126E+00
CGA:  62    -0.778815532629E+03   -0.28477E-01   -0.28475E-01  6370   0.811E+00 0.132E-03
CGA:  63    -0.778839895716E+03   -0.24363E-01   -0.23505E-01  6370   0.518E+00 0.443E-02
CGA:  64    -0.778856383219E+03   -0.16488E-01   -0.16629E-01  6370   0.584E+00 0.168E-02
CGA:  65    -0.778881363134E+03   -0.24980E-01   -0.24988E-01  6370   0.660E+00 0.149E-01
CGA:  66    -0.778897606321E+03   -0.16243E-01   -0.15428E-01  6370   0.484E+00 0.151E-01
CGA:  67    -0.778922135796E+03   -0.24529E-01   -0.24881E-01  6370   0.786E+00-0.296E-01
CGA:  68    -0.778933954633E+03   -0.11819E-01   -0.11505E-01  6370   0.367E+00 0.132E-01
CGA:  69    -0.778943614597E+03   -0.96600E-02   -0.97585E-02  6370   0.603E+00-0.736E-03
SDA:  70    -0.778961083180E+03   -0.17469E-01   -0.17229E-01  6370   0.677E+00-0.201E-02
CGA:  71    -0.778974728537E+03   -0.13645E-01   -0.13537E-01  6370   0.214E+00 0.251E-02
CGA:  72    -0.778988139326E+03   -0.13411E-01   -0.13554E-01  6370   0.389E+00-0.529E-02
CGA:  73    -0.779020084088E+03   -0.31945E-01   -0.33053E-01  6370   0.120E+01-0.261E-01
CGA:  74    -0.779051359286E+03   -0.31275E-01   -0.31538E-01  6370   0.693E+00-0.504E-02
CGA:  75    -0.779078193499E+03   -0.26834E-01   -0.49087E-01  6370   0.166E+01-0.815E+00
CGA:  76    -0.779103121779E+03   -0.24928E-01   -0.28986E-01  6370   0.605E+00-0.144E+00
CGA:  77    -0.779113880076E+03   -0.10758E-01   -0.10841E-01  6370   0.174E+00-0.194E-02
CGA:  78    -0.779123844415E+03   -0.99643E-02   -0.10089E-01  6370   0.254E+00-0.576E-02
CGA:  79    -0.779132112338E+03   -0.82679E-02   -0.82067E-02  6370   0.367E+00-0.176E-02
CGA:  80    -0.779145832612E+03   -0.13720E-01   -0.13784E-01  6370   0.118E+00 0.830E-02
CGA:  81    -0.779151531777E+03   -0.56992E-02   -0.57105E-02  6370   0.180E+00-0.119E-02
CGA:  82    -0.779156893543E+03   -0.53618E-02   -0.54056E-02  6370   0.107E+00 0.768E-03
CGA:  83    -0.779161451336E+03   -0.45578E-02   -0.45704E-02  6370   0.237E+00-0.379E-02
CGA:  84    -0.779170710385E+03   -0.92590E-02   -0.92629E-02  6370   0.197E+00 0.857E-02
CGA:  85    -0.779182012889E+03   -0.11303E-01   -0.12055E-01  6370   0.344E+00-0.370E-01
CGA:  86    -0.779188795218E+03   -0.67823E-02   -0.57958E-02  6370   0.408E+00 0.279E-01
CGA:  87    -0.779197951684E+03   -0.91565E-02   -0.93506E-02  6370   0.332E+00 0.461E-02
CGA:  88    -0.779204721967E+03   -0.67703E-02   -0.77502E-02  6370   0.227E+00-0.790E-02
CGA:  89    -0.779210900161E+03   -0.61782E-02   -0.58492E-02  6370   0.277E+00-0.197E-03
CGA:  90    -0.779219508781E+03   -0.86086E-02   -0.83622E-02  6370   0.296E+00-0.566E-02
CGA:  91    -0.779224590619E+03   -0.50818E-02   -0.59244E-02  6370   0.196E+00-0.141E-01
CGA:  92    -0.779231395141E+03   -0.68045E-02   -0.68059E-02  6370   0.213E+00 0.136E-02
CGA:  93    -0.779238228672E+03   -0.68335E-02   -0.67855E-02  6370   0.146E+00-0.268E-02
CGA:  94    -0.779245344071E+03   -0.71154E-02   -0.70055E-02  6370   0.237E+00 0.594E-02
CGA:  95    -0.779250978117E+03   -0.56340E-02   -0.53008E-02  6370   0.162E+00 0.489E-02
CGA:  96    -0.779257810430E+03   -0.68323E-02   -0.67708E-02  6370   0.287E+00 0.803E-02
CGA:  97    -0.779269617916E+03   -0.11807E-01   -0.11857E-01  6370   0.305E+00-0.117E-01
CGA:  98    -0.779277718723E+03   -0.81008E-02   -0.76865E-02  6370   0.335E+00-0.397E-02
CGA:  99    -0.779284824238E+03   -0.71055E-02   -0.68655E-02  6370   0.350E+00 0.537E-02
CGA: 100    -0.779292004535E+03   -0.71803E-02   -0.73765E-02  6370   0.362E+00 0.112E-02
CGA: 101    -0.779303468537E+03   -0.11464E-01   -0.11662E-01  6370   0.423E+00 0.317E-01
CGA: 102    -0.779319592367E+03   -0.16124E-01   -0.16134E-01  6370   0.319E+00-0.115E-01
CGA: 103    -0.779330932496E+03   -0.11340E-01   -0.11396E-01  6370   0.268E+00-0.156E-01
CGA: 104    -0.779338955050E+03   -0.80226E-02   -0.80299E-02  6370   0.257E+00 0.104E-02
CGA: 105    -0.779348180169E+03   -0.92251E-02   -0.92307E-02  6370   0.295E+00-0.245E-02
SDA: 106    -0.779359105501E+03   -0.10925E-01   -0.10924E-01  6370   0.318E+00 0.388E-03
CGA: 107    -0.779372845142E+03   -0.13740E-01   -0.13491E-01  6370   0.208E+00 0.220E-01
CGA: 108    -0.779383182477E+03   -0.10337E-01   -0.10422E-01  6370   0.486E+00-0.541E-02
CGA: 109    -0.779417883652E+03   -0.34701E-01   -0.35853E-01  6370   0.595E+00-0.324E-01
CGA: 110    -0.779433987325E+03   -0.16104E-01   -0.16515E-01  6370   0.584E+00 0.112E-01
CGA: 111    -0.779450784520E+03   -0.16797E-01   -0.14104E-01  6370   0.168E+00 0.296E-01
CGA: 112    -0.779458521592E+03   -0.77371E-02   -0.78504E-02  6370   0.326E+00-0.102E-01
CGA: 113    -0.779464573351E+03   -0.60518E-02   -0.58381E-02  6370   0.179E+00 0.716E-02
CGA: 114    -0.779468081004E+03   -0.35077E-02   -0.36258E-02  6370   0.194E+00-0.233E-02
CGA: 115    -0.779475357776E+03   -0.72768E-02   -0.72610E-02  6370   0.192E+00 0.351E-02
CGA: 116    -0.779478962827E+03   -0.36051E-02   -0.34971E-02  6370   0.142E+00 0.296E-02
CGA: 117    -0.779483006799E+03   -0.40440E-02   -0.40072E-02  6370   0.138E+00-0.124E-02
CGA: 118    -0.779485099741E+03   -0.20929E-02   -0.21417E-02  6370   0.711E-01-0.184E-02
CGA: 119    -0.779487654730E+03   -0.25550E-02   -0.25516E-02  6370   0.175E+00 0.585E-03
CGA: 120    -0.779492613162E+03   -0.49584E-02   -0.49305E-02  6370   0.134E+00-0.172E-02
CGA: 121    -0.779495609501E+03   -0.29963E-02   -0.29926E-02  6370   0.158E+00-0.205E-03
CGA: 122    -0.779499718103E+03   -0.41086E-02   -0.40982E-02  6370   0.111E+00-0.500E-03
CGA: 123    -0.779501327565E+03   -0.16095E-02   -0.16364E-02  6370   0.525E-01-0.112E-02
CGA: 124    -0.779503192494E+03   -0.18649E-02   -0.18650E-02  6370   0.924E-01-0.134E-04
CGA: 125    -0.779505066844E+03   -0.18744E-02   -0.18413E-02  6370   0.664E-01 0.248E-03
CGA: 126    -0.779507221366E+03   -0.21545E-02   -0.21553E-02  6370   0.137E+00-0.339E-03
CGA: 127    -0.779510549178E+03   -0.33278E-02   -0.33317E-02  6370   0.946E-01 0.238E-03
CGA: 128    -0.779512016067E+03   -0.14669E-02   -0.14721E-02  6370   0.610E-01-0.144E-03
CGA: 129    -0.779513744181E+03   -0.17281E-02   -0.17300E-02  6370   0.621E-01 0.500E-03
CGA: 130    -0.779514718319E+03   -0.97414E-03   -0.96833E-03  6370   0.310E-01 0.176E-03
CGA: 131    -0.779515761847E+03   -0.10435E-02   -0.10469E-02  6370   0.635E-01-0.490E-03
CGA: 132    -0.779517139679E+03   -0.13778E-02   -0.13756E-02  6370   0.476E-01-0.724E-04
CGA: 133    -0.779518053682E+03   -0.91400E-03   -0.91527E-03  6370   0.540E-01-0.548E-04
CGA: 134    -0.779519816892E+03   -0.17632E-02   -0.17630E-02  6370   0.719E-01-0.164E-04
CGA: 135    -0.779520778734E+03   -0.96184E-03   -0.95251E-03  6370   0.258E-01 0.363E-03
CGA: 136    -0.779521307648E+03   -0.52891E-03   -0.52693E-03  6370   0.297E-01-0.404E-04
SDA: 137    -0.779521906449E+03   -0.59880E-03   -0.60262E-03  6370   0.193E-01 0.854E-04
CGA: 138    -0.779522354215E+03   -0.44777E-03   -0.44824E-03  6370   0.130E-01 0.462E-04
CGA: 139    -0.779523013176E+03   -0.65896E-03   -0.66283E-03  6370   0.109E-01-0.158E-03
CGA: 140    -0.779523979988E+03   -0.96681E-03   -0.96008E-03  6370   0.707E-02 0.111E-03
CGA: 141    -0.779524445179E+03   -0.46519E-03   -0.46904E-03  6370   0.582E-02-0.119E-03
CGA: 142    -0.779524636613E+03   -0.19143E-03   -0.19142E-03  6370   0.664E-02 0.128E-04
CGA: 143    -0.779525023110E+03   -0.38650E-03   -0.38850E-03  6370   0.487E-02-0.789E-04
CGA: 144    -0.779525398289E+03   -0.37518E-03   -0.37592E-03  6370   0.438E-02-0.193E-04
CGA: 145    -0.779525536320E+03   -0.13803E-03   -0.13777E-03  6370   0.354E-02-0.288E-04
CGA: 146    -0.779525656326E+03   -0.12001E-03   -0.12011E-03  6370   0.132E-02 0.196E-04
CGA: 147    -0.779525836467E+03   -0.18014E-03   -0.18110E-03  6370   0.235E-02-0.164E-04
CGA: 148    -0.779525939585E+03   -0.10312E-03   -0.10305E-03  6370   0.279E-02 0.158E-04
CGA: 149    -0.779526013656E+03   -0.74071E-04   -0.73970E-04  6370   0.550E-03 0.514E-05
CGA: 150    -0.779526053204E+03   -0.39548E-04   -0.39539E-04  6370   0.684E-03-0.502E-06
CGA: 151    -0.779526102970E+03   -0.49766E-04   -0.49927E-04  6370   0.187E-02-0.594E-05
CGA: 152    -0.779526165381E+03   -0.62410E-04   -0.62354E-04  6370   0.583E-03-0.490E-05
CGA: 153    -0.779526198151E+03   -0.32770E-04   -0.32822E-04  6370   0.311E-03-0.399E-05
CGA: 154    -0.779526224059E+03   -0.25908E-04   -0.25875E-04  6370   0.120E-02 0.159E-06
CGA: 155    -0.779526285035E+03   -0.60977E-04   -0.60957E-04  6370   0.104E-02 0.119E-05
CGA: 156    -0.779526356044E+03   -0.71009E-04   -0.71206E-04  6370   0.385E-03-0.795E-05
CGA: 157    -0.779526366385E+03   -0.10341E-04   -0.10319E-04  6370   0.311E-03-0.149E-05
CGA: 158    -0.779526384442E+03   -0.18057E-04   -0.18074E-04  6370   0.301E-03-0.156E-05
CGA: 159    -0.779526415845E+03   -0.31403E-04   -0.31457E-04  6370   0.496E-03-0.124E-05
CGA: 160    -0.779526432889E+03   -0.17044E-04   -0.17026E-04  6370   0.495E-03-0.109E-05
CGA: 161    -0.779526451850E+03   -0.18961E-04   -0.18940E-04  6370   0.141E-03-0.158E-05
CGA: 162    -0.779526461988E+03   -0.10138E-04   -0.10094E-04  6370   0.186E-03 0.157E-05
CGA: 163    -0.779526470810E+03   -0.88226E-05   -0.88264E-05  6370   0.305E-03 0.107E-05
CGA: 164    -0.779526483453E+03   -0.12643E-04   -0.12669E-04  6370   0.119E-03 0.270E-05
CGA: 165    -0.779526490048E+03   -0.65943E-05   -0.65959E-05  6370   0.503E-04-0.318E-06
   1 F= -.77952649E+03 E0= -.77950184E+03  d E =-.779526E+03  mag=    65.0000
