       N       E                     dE             d eps       ncg     rms          ort
DAV:   1     0.282227414214E+04    0.28223E+04   -0.29347E+05  2880   0.140E+03
DAV:   2    -0.963696099852E+03   -0.37860E+04   -0.36552E+04  2880   0.313E+02
DAV:   3    -0.122144459096E+04   -0.25775E+03   -0.25570E+03  2880   0.850E+01
DAV:   4    -0.122447694247E+04   -0.30324E+01   -0.30218E+01  2880   0.978E+00
DAV:   5    -0.122452714049E+04   -0.50198E-01   -0.50091E-01  2880   0.116E+00
SDA:   6    -0.858782817669E+03    0.36574E+03   -0.50091E-01  2880   0.649E+03 0.000E+00
CGA:   7    -0.965909485407E+03   -0.10713E+03   -0.10795E+03  2880   0.101E+03 0.800E+01
CGA:   8    -0.983495102442E+03   -0.17586E+02   -0.13935E+02  2880   0.856E+02-0.109E+03
CGA:   9    -0.988975046042E+03   -0.54799E+01   -0.84146E+01  2880   0.438E+02-0.364E+02
CGA:  10    -0.991846637663E+03   -0.28716E+01   -0.33346E+01  2880   0.178E+02 0.141E+01
CGA:  11    -0.992330617267E+03   -0.48398E+00   -0.14591E+01  2880   0.799E+02-0.890E+01
CGA:  12    -0.994240587926E+03   -0.19100E+01   -0.17680E+01  2880   0.124E+02-0.780E+01
CGA:  13    -0.996225040664E+03   -0.19845E+01   -0.20804E+01  2880   0.897E+01-0.122E+02
CGA:  14    -0.996714855522E+03   -0.48981E+00   -0.36913E+00  2880   0.589E+01 0.421E+01
CGA:  15    -0.996725665198E+03   -0.10810E-01   -0.48830E+00  2880   0.142E+02-0.168E+02
CGA:  16    -0.996803641757E+03   -0.77977E-01   -0.10739E+01  2880   0.899E+01-0.583E+01
CGA:  17    -0.997341962439E+03   -0.53832E+00   -0.32409E+00  2880   0.207E+01 0.201E+01
CGA:  18    -0.997428076680E+03   -0.86114E-01   -0.85581E-01  2880   0.101E+01-0.323E+00
CGA:  19    -0.997481088972E+03   -0.53012E-01   -0.66622E-01  2880   0.185E+01-0.748E-01
CGA:  20    -0.997589503845E+03   -0.10841E+00   -0.13844E+00  2880   0.418E+00-0.150E+00
CGA:  21    -0.997618016528E+03   -0.28513E-01   -0.27601E-01  2880   0.290E+00-0.175E-02
CGA:  22    -0.997660250013E+03   -0.42233E-01   -0.42275E-01  2880   0.649E-01 0.460E-02
CGA:  23    -0.997664970760E+03   -0.47207E-02   -0.46165E-02  2880   0.580E-01-0.136E-02
CGA:  24    -0.997684655340E+03   -0.19685E-01   -0.20342E-01  2880   0.268E-01-0.563E-02
CGA:  25    -0.997689714894E+03   -0.50596E-02   -0.63552E-02  2880   0.262E-01-0.115E-01
CGA:  26    -0.997690747000E+03   -0.10321E-02   -0.86861E-03  2880   0.158E-01-0.112E-02
CGA:  27    -0.997692731926E+03   -0.19849E-02   -0.19510E-02  2880   0.134E-01-0.741E-03
CGA:  28    -0.997693252215E+03   -0.52029E-03   -0.53589E-03  2880   0.352E-02-0.107E-03
CGA:  29    -0.997693662078E+03   -0.40986E-03   -0.40531E-03  2880   0.853E-02-0.220E-03
CGA:  30    -0.997694420446E+03   -0.75837E-03   -0.71568E-03  2880   0.608E-02-0.668E-03
CGA:  31    -0.997694739206E+03   -0.31876E-03   -0.26643E-03  2880   0.384E-02-0.529E-03
CGA:  32    -0.997695216767E+03   -0.47756E-03   -0.54155E-03  2880   0.998E-02-0.274E-02
CGA:  33    -0.997695651650E+03   -0.43488E-03   -0.43398E-03  2880   0.786E-03-0.244E-03
CGA:  34    -0.997695803843E+03   -0.15219E-03   -0.15964E-03  2880   0.828E-03-0.990E-04
CGA:  35    -0.997695913294E+03   -0.10945E-03   -0.10710E-03  2880   0.535E-03 0.167E-03
CGA:  36    -0.997695943631E+03   -0.30337E-04   -0.40430E-04  2880   0.864E-04 0.150E-03
CGA:  37    -0.997695952474E+03   -0.88425E-05   -0.11085E-04  2880   0.685E-04 0.753E-04
CGA:  38    -0.997695922868E+03    0.29606E-04   -0.19579E-04  2880   0.161E-02-0.142E-03
CGA:  39    -0.997696010357E+03   -0.87489E-04   -0.10171E-03  2880   0.195E-03 0.925E-04
CGA:  40    -0.997696018711E+03   -0.83541E-05   -0.10491E-04  2880   0.301E-04 0.163E-04
CGA:  41    -0.997696026928E+03   -0.82175E-05   -0.17711E-04  2880   0.118E-03-0.210E-04
CGA:  42    -0.997696038370E+03   -0.11442E-04   -0.10155E-04  2880   0.641E-04-0.908E-05
CGA:  43    -0.997696043512E+03   -0.51425E-05   -0.51988E-05  2880   0.318E-04 0.531E-06
   1 F= -.99769604E+03 E0= -.99768506E+03  d E =-.997696E+03  mag=     2.0000
       N       E                     dE             d eps       ncg     rms          ort
SDA:   1    -0.997695760163E+03    0.27821E-03    0.00000E+00  2880   0.865E-03 0.000E+00
CGA:   2    -0.997695981815E+03   -0.22165E-03   -0.23447E-03  2880   0.150E-02-0.224E-03
CGA:   3    -0.997696093738E+03   -0.11192E-03   -0.10762E-03  2880   0.301E-03-0.358E-04
CGA:   4    -0.997696118594E+03   -0.24856E-04   -0.23033E-04  2880   0.154E-03-0.120E-04
CGA:   5    -0.997696113027E+03    0.55674E-05   -0.64710E-04  2880   0.747E-03-0.299E-03
CGA:   6    -0.997696156336E+03   -0.43309E-04   -0.47993E-04  2880   0.345E-03 0.249E-04
CGA:   7    -0.997696177556E+03   -0.21220E-04   -0.30491E-04  2880   0.607E-04 0.757E-04
CGA:   8    -0.997696177883E+03   -0.32700E-06   -0.46024E-05  2880   0.177E-04 0.306E-04
   2 F= -.99769618E+03 E0= -.99768516E+03  d E =-.134371E-03  mag=     2.0000
       N       E                     dE             d eps       ncg     rms          ort
SDA:   1    -0.997695528058E+03    0.64950E-03    0.00000E+00  2880   0.121E-01 0.000E+00
CGA:   2    -0.997695974645E+03   -0.44659E-03   -0.46839E-03  2880   0.565E-03-0.523E-03
CGA:   3    -0.997696115476E+03   -0.14083E-03   -0.14740E-03  2880   0.107E-02-0.747E-04
CGA:   4    -0.997696189643E+03   -0.74167E-04   -0.61802E-04  2880   0.187E-03-0.114E-03
CGA:   5    -0.997696218331E+03   -0.28688E-04   -0.25083E-04  2880   0.261E-03-0.119E-03
CGA:   6    -0.997696228511E+03   -0.10180E-04   -0.13615E-04  2880   0.406E-04 0.276E-04
CGA:   7    -0.997696230152E+03   -0.16411E-05   -0.27719E-05  2880   0.154E-04 0.991E-05
CGA:   8    -0.997696236957E+03   -0.68049E-05    0.26462E-04  2880   0.124E-04 0.400E-05
   3 F= -.99769624E+03 E0= -.99768523E+03  d E =-.590742E-04  mag=     2.0000
       N       E                     dE             d eps       ncg     rms          ort
SDA:   1    -0.997690725740E+03    0.55044E-02    0.00000E+00  2880   0.153E+00 0.000E+00
CGA:   2    -0.997696063556E+03   -0.53378E-02   -0.60348E-02  2880   0.318E-02-0.155E-01
CGA:   3    -0.997696223999E+03   -0.16044E-03   -0.15064E-03  2880   0.256E-03-0.119E-03
CGA:   4    -0.997696258319E+03   -0.34321E-04   -0.31725E-04  2880   0.359E-03-0.898E-04
CGA:   5    -0.997696286881E+03   -0.28562E-04   -0.26035E-04  2880   0.103E-03-0.554E-04
CGA:   6    -0.997696288760E+03   -0.18785E-05   -0.43818E-05  2880   0.282E-04 0.239E-04
   4 F= -.99769629E+03 E0= -.99768527E+03  d E =-.518026E-04  mag=     2.0000
       N       E                     dE             d eps       ncg     rms          ort
SDA:   1    -0.997696320170E+03   -0.33289E-04    0.00000E+00  2880   0.445E-03 0.000E+00
CGA:   2    -0.997696350341E+03   -0.30171E-04   -0.36646E-04  2880   0.346E-03 0.103E-03
CGA:   3    -0.997696390200E+03   -0.39859E-04   -0.44624E-04  2880   0.134E-03 0.129E-03
CGA:   4    -0.997696418605E+03   -0.28404E-04   -0.44867E-04  2880   0.372E-03-0.158E-03
CGA:   5    -0.997696435246E+03   -0.16642E-04   -0.21027E-04  2880   0.265E-04 0.490E-04
CGA:   6    -0.997696438592E+03   -0.33453E-05   -0.30529E-05  2880   0.302E-04-0.775E-05
   5 F= -.99769644E+03 E0= -.99768541E+03  d E =-.149832E-03  mag=     2.0000
       N       E                     dE             d eps       ncg     rms          ort
SDA:   1    -0.997696211267E+03    0.22398E-03    0.00000E+00  2880   0.471E-02 0.000E+00
CGA:   2    -0.997696462473E+03   -0.25121E-03   -0.27175E-03  2880   0.257E-03 0.246E-03
CGA:   3    -0.997696473606E+03   -0.11133E-04   -0.12682E-04  2880   0.525E-04 0.167E-04
CGA:   4    -0.997696486733E+03   -0.13127E-04   -0.22185E-04  2880   0.894E-04-0.341E-04
CGA:   5    -0.997696494460E+03   -0.77273E-05   -0.77114E-05  2880   0.176E-04-0.790E-06
   6 F= -.99769649E+03 E0= -.99768547E+03  d E =-.558687E-04  mag=     2.0000
       N       E                     dE             d eps       ncg     rms          ort
SDA:   1    -0.997696429330E+03    0.57403E-04    0.00000E+00  2880   0.549E-03 0.000E+00
CGA:   2    -0.997696484032E+03   -0.54702E-04   -0.45532E-04  2880   0.186E-03-0.179E-03
CGA:   3    -0.997696497027E+03   -0.12995E-04   -0.11064E-04  2880   0.148E-03-0.444E-04
CGA:   4    -0.997696508188E+03   -0.11160E-04   -0.11221E-04  2880   0.179E-04 0.182E-05
CGA:   5    -0.997696510378E+03   -0.21902E-05   -0.21285E-05  2880   0.252E-04-0.541E-05
   7 F= -.99769651E+03 E0= -.99768549E+03  d E =-.159175E-04  mag=     2.0000
       N       E                     dE             d eps       ncg     rms          ort
SDA:   1    -0.997696297041E+03    0.21115E-03    0.00000E+00  2880   0.532E-02 0.000E+00
CGA:   2    -0.997696535281E+03   -0.23824E-03   -0.22841E-03  2880   0.364E-03-0.151E-03
CGA:   3    -0.997696563085E+03   -0.27805E-04   -0.24426E-04  2880   0.496E-04-0.702E-04
CGA:   4    -0.997696564994E+03   -0.19084E-05   -0.28374E-05  2880   0.192E-04 0.196E-04
   8 F= -.99769656E+03 E0= -.99768553E+03  d E =-.546159E-04  mag=     2.0000
       N       E                     dE             d eps       ncg     rms          ort
SDA:   1    -0.997696385939E+03    0.17715E-03    0.00000E+00  2880   0.558E-03 0.000E+00
CGA:   2    -0.997696459408E+03   -0.73470E-04   -0.78311E-04  2880   0.114E-02-0.175E-03
CGA:   3    -0.997696550339E+03   -0.90931E-04   -0.93439E-04  2880   0.758E-03-0.435E-03
CGA:   4    -0.997696592991E+03   -0.42652E-04   -0.34758E-04  2880   0.304E-03-0.204E-03
CGA:   5    -0.997696602500E+03   -0.95085E-05   -0.10217E-04  2880   0.155E-03 0.952E-05
   9 F= -.99769660E+03 E0= -.99768558E+03  d E =-.375060E-04  mag=     2.0000
       N       E                     dE             d eps       ncg     rms          ort
SDA:   1    -0.997669522973E+03    0.27070E-01    0.00000E+00  2880   0.794E-01 0.000E+00
CGA:   2    -0.997679855192E+03   -0.10332E-01   -0.10422E-01  2880   0.119E+00-0.374E-02
CGA:   3    -0.997691297511E+03   -0.11442E-01   -0.11420E-01  2880   0.381E-01-0.325E-02
CGA:   4    -0.997694443078E+03   -0.31456E-02   -0.31152E-02  2880   0.667E-02-0.276E-04
CGA:   5    -0.997696082705E+03   -0.16396E-02   -0.17543E-02  2880   0.170E-02-0.708E-03
CGA:   6    -0.997696243561E+03   -0.16086E-03   -0.15607E-03  2880   0.232E-02-0.459E-03
CGA:   7    -0.997696460355E+03   -0.21679E-03   -0.25786E-03  2880   0.712E-03-0.103E-02
CGA:   8    -0.997696461545E+03   -0.11901E-05   -0.18425E-04  2880   0.453E-03 0.253E-03
CGA:   9    -0.997696460721E+03    0.82451E-06   -0.24970E-04  2880   0.238E-03 0.365E-03
CGA:  10    -0.997696470099E+03   -0.93787E-05   -0.16099E-04  2880   0.124E-03 0.167E-03
  10 F= -.99769647E+03 E0= -.99768544E+03  d E =0.132400E-03  mag=     2.0000
       N       E                     dE             d eps       ncg     rms          ort
SDA:   1    -0.997695332410E+03    0.11283E-02    0.00000E+00  2880   0.417E-02 0.000E+00
CGA:   2    -0.997696246275E+03   -0.91386E-03   -0.85460E-03  2880   0.544E-02 0.579E-03
CGA:   3    -0.997696620453E+03   -0.37418E-03   -0.39038E-03  2880   0.102E-02 0.340E-03
CGA:   4    -0.997696767097E+03   -0.14664E-03   -0.14597E-03  2880   0.794E-03 0.208E-04
CGA:   5    -0.997696857613E+03   -0.90516E-04   -0.90899E-04  2880   0.414E-03-0.101E-03
CGA:   6    -0.997696881211E+03   -0.23598E-04   -0.23198E-04  2880   0.574E-04-0.118E-04
CGA:   7    -0.997696881121E+03    0.90440E-07   -0.25684E-05  2880   0.334E-04 0.442E-04
  11 F= -.99769688E+03 E0= -.99768585E+03  d E =-.411021E-03  mag=     2.0000
       N       E                     dE             d eps       ncg     rms          ort
SDA:   1    -0.997686262780E+03    0.10618E-01    0.00000E+00  2880   0.321E-01 0.000E+00
CGA:   2    -0.997690385966E+03   -0.41232E-02   -0.40618E-02  2880   0.496E-01 0.202E-02
CGA:   3    -0.997695640304E+03   -0.52543E-02   -0.52596E-02  2880   0.523E-02 0.296E-02
CGA:   4    -0.997696599646E+03   -0.95934E-03   -0.97758E-03  2880   0.616E-02-0.254E-03
CGA:   5    -0.997697019425E+03   -0.41978E-03   -0.41850E-03  2880   0.149E-02-0.459E-04
CGA:   6    -0.997697114104E+03   -0.94679E-04   -0.10433E-03  2880   0.331E-03 0.291E-03
CGA:   7    -0.997697122548E+03   -0.84437E-05   -0.21719E-04  2880   0.214E-03 0.282E-03
CGA:   8    -0.997697129990E+03   -0.74421E-05   -0.12778E-04  2880   0.120E-03 0.134E-03
CGA:   9    -0.997697140218E+03   -0.10228E-04   -0.10825E-04  2880   0.849E-04 0.813E-04
CGA:  10    -0.997697150479E+03   -0.10261E-04   -0.97367E-05  2880   0.104E-03 0.297E-04
CGA:  11    -0.997697170412E+03   -0.19933E-04   -0.18715E-04  2880   0.381E-04 0.348E-04
CGA:  12    -0.997697177574E+03   -0.71621E-05   -0.87811E-05  2880   0.139E-03-0.227E-04
  12 F= -.99769718E+03 E0= -.99768615E+03  d E =-.296453E-03  mag=     2.0000
       N       E                     dE             d eps       ncg     rms          ort
SDA:   1    -0.997695684045E+03    0.14864E-02    0.00000E+00  2880   0.314E-02 0.000E+00
CGA:   2    -0.997695546519E+03    0.13753E-03   -0.37328E-03  2880   0.228E-01-0.395E-02
CGA:   3    -0.997696580312E+03   -0.10338E-02   -0.10633E-02  2880   0.434E-02 0.498E-03
CGA:   4    -0.997696975067E+03   -0.39476E-03   -0.43997E-03  2880   0.129E-02 0.587E-03
CGA:   5    -0.997697087534E+03   -0.11247E-03   -0.13771E-03  2880   0.195E-03 0.323E-03
CGA:   6    -0.997697129751E+03   -0.42217E-04   -0.63714E-04  2880   0.124E-02-0.234E-03
CGA:   7    -0.997697174749E+03   -0.44999E-04   -0.47780E-04  2880   0.506E-04 0.376E-06
CGA:   8    -0.997697173479E+03    0.12700E-05   -0.22728E-05  2880   0.202E-04 0.292E-04
  13 F= -.99769717E+03 E0= -.99768614E+03  d E =0.409460E-05  mag=     2.0000
       N       E                     dE             d eps       ncg     rms          ort
SDA:   1    -0.997638536528E+03    0.58638E-01    0.00000E+00  2880   0.156E+00 0.000E+00
CGA:   2    -0.997660036062E+03   -0.21500E-01   -0.21371E-01  2880   0.294E+00-0.559E-02
CGA:   3    -0.997688202532E+03   -0.28166E-01   -0.28027E-01  2880   0.255E-01-0.548E-02
CGA:   4    -0.997693082082E+03   -0.48795E-02   -0.47972E-02  2880   0.178E-01 0.199E-02
CGA:   5    -0.997694165005E+03   -0.10829E-02   -0.10851E-02  2880   0.471E-02 0.168E-03
CGA:   6    -0.997695062108E+03   -0.89710E-03   -0.10837E-02  2880   0.672E-02-0.231E-02
CGA:   7    -0.997695302584E+03   -0.24048E-03   -0.19039E-03  2880   0.234E-02-0.541E-03
CGA:   8    -0.997695391371E+03   -0.88787E-04   -0.11590E-03  2880   0.136E-02 0.257E-03
CGA:   9    -0.997695416774E+03   -0.25403E-04   -0.75911E-04  2880   0.846E-03 0.553E-03
CGA:  10    -0.997695422426E+03   -0.56515E-05   -0.56052E-04  2880   0.543E-03 0.556E-03
CGA:  11    -0.997695462005E+03   -0.39580E-04   -0.43015E-04  2880   0.304E-03 0.591E-04
CGA:  12    -0.997695512103E+03   -0.50098E-04   -0.50789E-04  2880   0.428E-03-0.349E-04
CGA:  13    -0.997695559956E+03   -0.47853E-04   -0.46725E-04  2880   0.781E-04-0.142E-03
CGA:  14    -0.997695567329E+03   -0.73732E-05   -0.73374E-05  2880   0.953E-04 0.335E-05
  14 F= -.99769557E+03 E0= -.99768455E+03  d E =0.160615E-02  mag=     2.0000
       N       E                     dE             d eps       ncg     rms          ort
SDA:   1    -0.997660988291E+03    0.34572E-01    0.00000E+00  2880   0.996E-01 0.000E+00
CGA:   2    -0.997677136625E+03   -0.16148E-01   -0.15995E-01  2880   0.175E+00 0.401E-02
CGA:   3    -0.997692013375E+03   -0.14877E-01   -0.14977E-01  2880   0.220E-01 0.433E-02
CGA:   4    -0.997694938097E+03   -0.29247E-02   -0.29256E-02  2880   0.145E-01-0.368E-03
CGA:   5    -0.997696567672E+03   -0.16296E-02   -0.16224E-02  2880   0.781E-02-0.539E-03
CGA:   6    -0.997697012848E+03   -0.44518E-03   -0.45967E-03  2880   0.134E-02 0.200E-03
CGA:   7    -0.997697114782E+03   -0.10193E-03   -0.12687E-03  2880   0.459E-03 0.795E-03
CGA:   8    -0.997697165980E+03   -0.51198E-04   -0.52898E-04  2880   0.300E-03 0.233E-03
CGA:   9    -0.997697204078E+03   -0.38098E-04   -0.38300E-04  2880   0.613E-03-0.399E-04
CGA:  10    -0.997697286283E+03   -0.82205E-04   -0.82890E-04  2880   0.260E-03-0.211E-04
CGA:  11    -0.997697298208E+03   -0.11926E-04   -0.14992E-04  2880   0.921E-04 0.461E-04
CGA:  12    -0.997697303731E+03   -0.55228E-05   -0.69062E-05  2880   0.499E-04 0.242E-04
CGA:  13    -0.997697315513E+03   -0.11782E-04   -0.11414E-04  2880   0.802E-04 0.582E-05
CGA:  14    -0.997697318278E+03   -0.27648E-05   -0.40669E-05  2880   0.167E-04 0.169E-04
  15 F= -.99769732E+03 E0= -.99768629E+03  d E =-.175095E-02  mag=     2.0000
       N       E                     dE             d eps       ncg     rms          ort
SDA:   1    -0.997694020187E+03    0.32953E-02    0.00000E+00  2880   0.858E-02 0.000E+00
CGA:   2    -0.997695753999E+03   -0.17338E-02   -0.17018E-02  2880   0.156E-01 0.343E-03
CGA:   3    -0.997696837105E+03   -0.10831E-02   -0.10957E-02  2880   0.186E-02 0.299E-03
CGA:   4    -0.997697064902E+03   -0.22780E-03   -0.22688E-03  2880   0.988E-03 0.165E-03
CGA:   5    -0.997697156947E+03   -0.92045E-04   -0.99396E-04  2880   0.288E-03 0.324E-03
CGA:   6    -0.997697178470E+03   -0.21522E-04   -0.26126E-04  2880   0.966E-04 0.101E-03
CGA:   7    -0.997697206426E+03   -0.27957E-04   -0.25714E-04  2880   0.515E-04 0.262E-04
CGA:   8    -0.997697213535E+03   -0.71086E-05   -0.70205E-05  2880   0.484E-04-0.110E-04
  16 F= -.99769721E+03 E0= -.99768619E+03  d E =0.104743E-03  mag=     2.0000
       N       E                     dE             d eps       ncg     rms          ort
SDA:   1    -0.997695497853E+03    0.17086E-02    0.00000E+00  2880   0.154E-01 0.000E+00
CGA:   2    -0.997696230273E+03   -0.73242E-03   -0.72956E-03  2880   0.339E-02-0.204E-03
CGA:   3    -0.997696737103E+03   -0.50683E-03   -0.50452E-03  2880   0.308E-02 0.372E-04
CGA:   4    -0.997697106071E+03   -0.36897E-03   -0.36569E-03  2880   0.240E-03 0.505E-03
CGA:   5    -0.997697157591E+03   -0.51521E-04   -0.46875E-04  2880   0.169E-03 0.818E-04
CGA:   6    -0.997697192057E+03   -0.34465E-04   -0.34903E-04  2880   0.545E-04-0.116E-04
CGA:   7    -0.997697191454E+03    0.60243E-06   -0.21314E-05  2880   0.291E-04 0.369E-04
  17 F= -.99769719E+03 E0= -.99768617E+03  d E =0.220807E-04  mag=     2.0000
       N       E                     dE             d eps       ncg     rms          ort
SDA:   1    -0.997695459643E+03    0.17324E-02    0.00000E+00  2880   0.602E-02 0.000E+00
CGA:   2    -0.997696067005E+03   -0.60736E-03   -0.60457E-03  2880   0.757E-02-0.376E-03
CGA:   3    -0.997696995764E+03   -0.92876E-03   -0.94749E-03  2880   0.305E-02-0.754E-03
CGA:   4    -0.997697199535E+03   -0.20377E-03   -0.20751E-03  2880   0.412E-03 0.110E-03
CGA:   5    -0.997697288768E+03   -0.89232E-04   -0.10224E-03  2880   0.610E-03-0.992E-04
CGA:   6    -0.997697326647E+03   -0.37879E-04   -0.30109E-04  2880   0.166E-03-0.161E-03
CGA:   7    -0.997697326043E+03    0.60344E-06   -0.26573E-04  2880   0.716E-03-0.260E-03
CGA:   8    -0.997697355581E+03   -0.29538E-04   -0.37458E-04  2880   0.730E-04 0.126E-03
CGA:   9    -0.997697355747E+03   -0.16543E-06   -0.32007E-05  2880   0.247E-04 0.393E-04
  18 F= -.99769736E+03 E0= -.99768633E+03  d E =-.164292E-03  mag=     2.0000
       N       E                     dE             d eps       ncg     rms          ort
SDA:   1    -0.997694277491E+03    0.30781E-02    0.00000E+00  2880   0.100E-01 0.000E+00
CGA:   2    -0.997695286806E+03   -0.10093E-02   -0.10069E-02  2880   0.140E-01-0.377E-03
CGA:   3    -0.997697187337E+03   -0.19005E-02   -0.19389E-02  2880   0.134E-02-0.105E-02
CGA:   4    -0.997697432000E+03   -0.24466E-03   -0.22051E-03  2880   0.232E-03 0.351E-03
CGA:   5    -0.997697252910E+03    0.17909E-03   -0.10988E-03  2880   0.189E-02-0.654E-03
CGA:   6    -0.997697406030E+03   -0.15312E-03   -0.16580E-03  2880   0.143E-02 0.969E-04
CGA:   7    -0.997697511140E+03   -0.10511E-03   -0.12565E-03  2880   0.212E-03 0.176E-03
CGA:   8    -0.997697528512E+03   -0.17372E-04   -0.20126E-04  2880   0.337E-04 0.258E-04
CGA:   9    -0.997697554461E+03   -0.25950E-04    0.42745E-05  2880   0.134E-04 0.103E-04
CGA:  10    -0.997697554965E+03   -0.50350E-06   -0.11326E-05  2880   0.760E-05 0.505E-05
  19 F= -.99769755E+03 E0= -.99768652E+03  d E =-.199218E-03  mag=     2.0000
       N       E                     dE             d eps       ncg     rms          ort
SDA:   1    -0.997697085288E+03    0.46917E-03    0.00000E+00  2880   0.223E-02 0.000E+00
CGA:   2    -0.997697233282E+03   -0.14799E-03   -0.14991E-03  2880   0.165E-02 0.218E-04
CGA:   3    -0.997697546226E+03   -0.31294E-03   -0.31096E-03  2880   0.332E-03 0.106E-03
CGA:   4    -0.997697563791E+03   -0.17565E-04   -0.27732E-04  2880   0.102E-03 0.112E-03
CGA:   5    -0.997697571985E+03   -0.81938E-05   -0.12907E-04  2880   0.631E-04 0.667E-04
  20 F= -.99769757E+03 E0= -.99768655E+03  d E =-.170202E-04  mag=     2.0000
