       N       E                     dE             d eps       ncg     rms          ort
DAV:   1     0.281789164906E+04    0.28179E+04   -0.29417E+05  2880   0.140E+03
DAV:   2    -0.963890313725E+03   -0.37818E+04   -0.36524E+04  2880   0.312E+02
DAV:   3    -0.122083184874E+04   -0.25694E+03   -0.25488E+03  2880   0.849E+01
DAV:   4    -0.122385010363E+04   -0.30183E+01   -0.30078E+01  2880   0.975E+00
DAV:   5    -0.122390007949E+04   -0.49976E-01   -0.49873E-01  2880   0.115E+00
SDA:   6    -0.858352380314E+03    0.36555E+03   -0.49873E-01  2880   0.650E+03 0.000E+00
CGA:   7    -0.966145943167E+03   -0.10779E+03   -0.10849E+03  2880   0.983E+02 0.672E+01
CGA:   8    -0.985237572301E+03   -0.19092E+02   -0.13395E+02  2880   0.357E+02-0.138E+02
CGA:   9    -0.990299062963E+03   -0.50615E+01   -0.51478E+01  2880   0.186E+02 0.432E-01
CGA:  10    -0.993386055353E+03   -0.30870E+01   -0.28482E+01  2880   0.149E+02-0.304E+01
CGA:  11    -0.994953709649E+03   -0.15677E+01   -0.16055E+01  2880   0.110E+02-0.339E+01
CGA:  12    -0.995703421103E+03   -0.74971E+00   -0.76692E+00  2880   0.407E+01-0.344E+00
CGA:  13    -0.996419004567E+03   -0.71558E+00   -0.57951E+00  2880   0.330E+01-0.940E+00
CGA:  14    -0.996591388990E+03   -0.17238E+00   -0.15414E+00  2880   0.134E+01 0.283E+00
CGA:  15    -0.996698135542E+03   -0.10675E+00   -0.11758E+00  2880   0.190E+01-0.143E+00
CGA:  16    -0.996853899551E+03   -0.15576E+00   -0.15208E+00  2880   0.109E+01 0.456E-02
CGA:  17    -0.996894643836E+03   -0.40744E-01   -0.45990E-01  2880   0.642E+00-0.139E+00
CGA:  18    -0.996922190248E+03   -0.27546E-01   -0.17849E-01  2880   0.522E+00 0.322E+00
CGA:  19    -0.996948176635E+03   -0.25986E-01   -0.26917E-01  2880   0.271E+00-0.201E-01
CGA:  20    -0.997000186241E+03   -0.52010E-01   -0.53075E-01  2880   0.190E+00-0.151E-01
CGA:  21    -0.997019959502E+03   -0.19773E-01   -0.20310E-01  2880   0.124E+00-0.748E-03
CGA:  22    -0.997027712049E+03   -0.77525E-02   -0.80585E-02  2880   0.551E-01 0.888E-02
CGA:  23    -0.997033086469E+03   -0.53744E-02   -0.55045E-02  2880   0.630E-01 0.922E-02
CGA:  24    -0.997045548238E+03   -0.12462E-01   -0.12628E-01  2880   0.277E-01-0.656E-02
CGA:  25    -0.997047213703E+03   -0.16655E-02   -0.20387E-02  2880   0.135E-01 0.611E-02
CGA:  26    -0.997050132773E+03   -0.29191E-02   -0.28391E-02  2880   0.638E-02 0.276E-02
CGA:  27    -0.997051012441E+03   -0.87967E-03   -0.76514E-03  2880   0.177E-01-0.258E-02
CGA:  28    -0.997051583137E+03   -0.57070E-03   -0.58752E-03  2880   0.257E-01 0.503E-03
CGA:  29    -0.997051923947E+03   -0.34081E-03   -0.64322E-03  2880   0.658E-02 0.448E-02
CGA:  30    -0.997051923624E+03    0.32299E-06   -0.21687E-03  2880   0.573E-02 0.232E-02
CGA:  31    -0.997052083751E+03   -0.16013E-03   -0.39164E-03  2880   0.846E-02 0.317E-02
CGA:  32    -0.997052685889E+03   -0.60214E-03   -0.40619E-03  2880   0.527E-02-0.291E-02
CGA:  33    -0.997052990455E+03   -0.30457E-03   -0.33450E-03  2880   0.182E-02 0.141E-02
CGA:  34    -0.997052950760E+03    0.39695E-04   -0.74100E-04  2880   0.901E-03 0.133E-02
CGA:  35    -0.997052977418E+03   -0.26658E-04   -0.56465E-04  2880   0.859E-03 0.597E-03
CGA:  36    -0.997052974126E+03    0.32922E-05   -0.37989E-04  2880   0.757E-03 0.628E-03
CGA:  37    -0.997053052493E+03   -0.78367E-04   -0.79470E-04  2880   0.118E-02 0.539E-03
CGA:  38    -0.997053026074E+03    0.26419E-04   -0.30149E-04  2880   0.679E-03 0.694E-03
CGA:  39    -0.997053033891E+03   -0.78166E-05   -0.38839E-04  2880   0.676E-03 0.689E-03
CGA:  40    -0.997053044366E+03   -0.10476E-04   -0.39259E-04  2880   0.676E-03 0.688E-03
CGA:  41    -0.997053045908E+03   -0.15412E-05   -0.34081E-04  2880   0.677E-03 0.687E-03
CGA:  42    -0.997053053060E+03   -0.71526E-05   -0.36134E-04  2880   0.680E-03 0.691E-03
CGA:  43    -0.997053052091E+03    0.96883E-06   -0.31535E-04  2880   0.684E-03 0.693E-03
CGA:  44    -0.997053056059E+03   -0.39678E-05   -0.33378E-04  2880   0.689E-03 0.699E-03
CGA:  45    -0.997053054499E+03    0.15600E-05   -0.30175E-04  2880   0.696E-03 0.705E-03
CGA:  46    -0.997053055908E+03   -0.14088E-05   -0.31164E-04  2880   0.704E-03 0.713E-03
CGA:  47    -0.997053054414E+03    0.14943E-05   -0.29351E-04  2880   0.713E-03 0.721E-03
CGA:  48    -0.997053054197E+03    0.21710E-06   -0.29614E-04  2880   0.724E-03 0.731E-03
CGA:  49    -0.997053052798E+03    0.13985E-05   -0.28729E-04  2880   0.736E-03 0.742E-03
CGA:  50    -0.997053051820E+03    0.97803E-06   -0.28660E-04  2880   0.748E-03 0.754E-03
CGA:  51    -0.997053050516E+03    0.13040E-05   -0.28271E-04  2880   0.762E-03 0.768E-03
CGA:  52    -0.997053049377E+03    0.11388E-05   -0.28155E-04  2880   0.778E-03 0.784E-03
CGA:  53    -0.997053048277E+03    0.11000E-05   -0.28025E-04  2880   0.795E-03 0.801E-03
CGA:  54    -0.997053047353E+03    0.92420E-06   -0.28000E-04  2880   0.813E-03 0.819E-03
CGA:  55    -0.997053046635E+03    0.71766E-06   -0.28035E-04  2880   0.833E-03 0.838E-03
CGA:  56    -0.997053046206E+03    0.42892E-06   -0.28155E-04  2880   0.854E-03 0.859E-03
CGA:  57    -0.997053046080E+03    0.12693E-06   -0.28318E-04  2880   0.878E-03 0.882E-03
CGA:  58    -0.997053046295E+03   -0.21505E-06   -0.28540E-04  2880   0.902E-03 0.906E-03
CGA:  59    -0.997053046899E+03   -0.60420E-06   -0.28830E-04  2880   0.929E-03 0.933E-03
CGA:  60    -0.997053047942E+03   -0.10430E-05   -0.29190E-04  2880   0.958E-03 0.961E-03
CGA:  61    -0.997053049447E+03   -0.15048E-05   -0.29598E-04  2880   0.989E-03 0.992E-03
CGA:  62    -0.997053051451E+03   -0.20045E-05   -0.30062E-04  2880   0.102E-02 0.102E-02
CGA:  63    -0.997053054001E+03   -0.25497E-05   -0.30587E-04  2880   0.106E-02 0.106E-02
CGA:  64    -0.997053057139E+03   -0.31383E-05   -0.31176E-04  2880   0.109E-02 0.110E-02
CGA:  65    -0.997053060903E+03   -0.37638E-05   -0.31816E-04  2880   0.113E-02 0.114E-02
CGA:  66    -0.997053065342E+03   -0.44387E-05   -0.32515E-04  2880   0.117E-02 0.118E-02
CGA:  67    -0.997053070509E+03   -0.51673E-05   -0.33277E-04  2880   0.122E-02 0.122E-02
CGA:  68    -0.997053076465E+03   -0.59562E-05   -0.34107E-04  2880   0.127E-02 0.127E-02
CGA:  69    -0.997053083267E+03   -0.68022E-05   -0.35005E-04  2880   0.132E-02 0.132E-02
CGA:  70    -0.997053090976E+03   -0.77088E-05   -0.35972E-04  2880   0.137E-02 0.137E-02
CGA:  71    -0.997053099657E+03   -0.86803E-05   -0.37013E-04  2880   0.142E-02 0.142E-02
CGA:  72    -0.997053109379E+03   -0.97220E-05   -0.38131E-04  2880   0.148E-02 0.148E-02
CGA:  73    -0.997053120220E+03   -0.10841E-04   -0.39334E-04  2880   0.154E-02 0.154E-02
CGA:  74    -0.997053132260E+03   -0.12040E-04   -0.40623E-04  2880   0.161E-02 0.161E-02
CGA:  75    -0.997053145582E+03   -0.13322E-04   -0.42003E-04  2880   0.168E-02 0.168E-02
CGA:  76    -0.997053160277E+03   -0.14694E-04   -0.43477E-04  2880   0.175E-02 0.175E-02
CGA:  77    -0.997053176441E+03   -0.16165E-04   -0.45054E-04  2880   0.183E-02 0.183E-02
CGA:  78    -0.997053194184E+03   -0.17742E-04   -0.46739E-04  2880   0.191E-02 0.191E-02
CGA:  79    -0.997053213620E+03   -0.19437E-04   -0.48541E-04  2880   0.200E-02 0.200E-02
CGA:  80    -0.997053234879E+03   -0.21259E-04   -0.50469E-04  2880   0.209E-02 0.209E-02
CGA:  81    -0.997053258100E+03   -0.23221E-04   -0.52532E-04  2880   0.219E-02 0.219E-02
CGA:  82    -0.997053283437E+03   -0.25336E-04   -0.54741E-04  2880   0.229E-02 0.229E-02
CGA:  83    -0.997053311058E+03   -0.27621E-04   -0.57107E-04  2880   0.240E-02 0.240E-02
CGA:  84    -0.997053341156E+03   -0.30098E-04   -0.59649E-04  2880   0.252E-02 0.251E-02
CGA:  85    -0.997053373942E+03   -0.32786E-04   -0.62381E-04  2880   0.264E-02 0.263E-02
CGA:  86    -0.997053409651E+03   -0.35709E-04   -0.65322E-04  2880   0.277E-02 0.276E-02
CGA:  87    -0.997053448540E+03   -0.38889E-04   -0.68487E-04  2880   0.291E-02 0.290E-02
CGA:  88    -0.997053490900E+03   -0.42360E-04   -0.71900E-04  2880   0.306E-02 0.305E-02
CGA:  89    -0.997053537062E+03   -0.46162E-04   -0.75592E-04  2880   0.322E-02 0.320E-02
CGA:  90    -0.997053587407E+03   -0.50345E-04   -0.79599E-04  2880   0.338E-02 0.336E-02
CGA:  91    -0.997053642367E+03   -0.54960E-04   -0.83962E-04  2880   0.356E-02 0.354E-02
CGA:  92    -0.997053702440E+03   -0.60073E-04   -0.88726E-04  2880   0.375E-02 0.373E-02
CGA:  93    -0.997053768196E+03   -0.65755E-04   -0.93944E-04  2880   0.395E-02 0.393E-02
CGA:  94    -0.997053840288E+03   -0.72093E-04   -0.99677E-04  2880   0.417E-02 0.414E-02
CGA:  95    -0.997053919477E+03   -0.79189E-04   -0.10600E-03  2880   0.440E-02 0.437E-02
CGA:  96    -0.997054006648E+03   -0.87171E-04   -0.11300E-03  2880   0.466E-02 0.462E-02
CGA:  97    -0.997054102832E+03   -0.96184E-04   -0.12077E-03  2880   0.493E-02 0.488E-02
CGA:  98    -0.997054209243E+03   -0.10641E-03   -0.12945E-03  2880   0.522E-02 0.517E-02
CGA:  99    -0.997054327325E+03   -0.11808E-03   -0.13919E-03  2880   0.554E-02 0.548E-02
CGA: 100    -0.997054458804E+03   -0.13148E-03   -0.15018E-03  2880   0.589E-02 0.582E-02
CGA: 101    -0.997054605753E+03   -0.14695E-03   -0.16265E-03  2880   0.626E-02 0.619E-02
CGA: 102    -0.997054770697E+03   -0.16494E-03   -0.17689E-03  2880   0.668E-02 0.659E-02
CGA: 103    -0.997054956744E+03   -0.18605E-03   -0.19328E-03  2880   0.714E-02 0.704E-02
CGA: 104    -0.997055167750E+03   -0.21101E-03   -0.21229E-03  2880   0.764E-02 0.753E-02
CGA: 105    -0.997055408562E+03   -0.24081E-03   -0.23456E-03  2880   0.820E-02 0.807E-02
CGA: 106    -0.997055685337E+03   -0.27678E-03   -0.26088E-03  2880   0.883E-02 0.868E-02
CGA: 107    -0.997056006019E+03   -0.32068E-03   -0.29235E-03  2880   0.954E-02 0.936E-02
CGA: 108    -0.997056381010E+03   -0.37499E-03   -0.33042E-03  2880   0.103E-01 0.101E-01
CGA: 109    -0.997056824178E+03   -0.44317E-03   -0.37713E-03  2880   0.113E-01 0.110E-01
CGA: 110    -0.997057354427E+03   -0.53025E-03   -0.43538E-03  2880   0.123E-01 0.120E-01
CGA: 111    -0.997057998242E+03   -0.64381E-03   -0.50944E-03  2880   0.136E-01 0.132E-01
CGA: 112    -0.997058794002E+03   -0.79576E-03   -0.60588E-03  2880   0.150E-01 0.146E-01
CGA: 113    -0.997059799535E+03   -0.10055E-02   -0.73521E-03  2880   0.168E-01 0.163E-01
CGA: 114    -0.997061106216E+03   -0.13067E-02   -0.91515E-03  2880   0.190E-01 0.183E-01
CGA: 115    -0.997062867936E+03   -0.17617E-02   -0.11777E-02  2880   0.217E-01 0.208E-01
CGA: 116    -0.997065368657E+03   -0.25007E-02   -0.15874E-02  2880   0.252E-01 0.241E-01
CGA: 117    -0.997069205448E+03   -0.38368E-02   -0.22938E-02  2880   0.302E-01 0.285E-01
CGA: 118    -0.997075920948E+03   -0.67155E-02   -0.37309E-02  2880   0.375E-01 0.348E-01
CGA: 119    -0.997091327681E+03   -0.15407E-01   -0.77351E-02  2880   0.500E-01 0.443E-01
CGA: 120    -0.997128426771E+03   -0.37099E-01    0.89887E-01  2880   0.786E-01 0.579E-01
CGA: 121    -0.997141183120E+03   -0.12756E-01   -0.14311E-01  2880   0.762E+00-0.208E-01
CGA: 122    -0.997169882340E+03   -0.28699E-01   -0.26092E-01  2880   0.172E+01-0.135E+00
CGA: 123    -0.997177806535E+03   -0.79242E-02   -0.39432E-01  2880   0.107E+01-0.858E+00
CGA: 124    -0.997187902115E+03   -0.10096E-01   -0.13744E-01  2880   0.648E+00-0.143E+00
CGA: 125    -0.997211265991E+03   -0.23364E-01   -0.23702E-01  2880   0.484E+00 0.121E-02
CGA: 126    -0.997227588010E+03   -0.16322E-01   -0.12524E-01  2880   0.280E+00 0.169E+00
CGA: 127    -0.997237220106E+03   -0.96321E-02   -0.92810E-02  2880   0.148E+00 0.578E-01
CGA: 128    -0.997243199513E+03   -0.59794E-02   -0.65326E-02  2880   0.196E+00 0.878E-02
CGA: 129    -0.997252255368E+03   -0.90559E-02   -0.92138E-02  2880   0.351E+00 0.546E-02
CGA: 130    -0.997264327198E+03   -0.12072E-01   -0.11465E-01  2880   0.356E+00 0.292E-02
CGA: 131    -0.997273131314E+03   -0.88041E-02   -0.80081E-02  2880   0.193E+00-0.609E-02
CGA: 132    -0.997277589415E+03   -0.44581E-02   -0.37022E-02  2880   0.112E+00-0.572E-02
CGA: 133    -0.997281111861E+03   -0.35224E-02   -0.29937E-02  2880   0.113E+00-0.195E-01
CGA: 134    -0.997284866075E+03   -0.37542E-02   -0.33302E-02  2880   0.109E+00-0.282E-01
CGA: 135    -0.997287458711E+03   -0.25926E-02   -0.19647E-02  2880   0.642E-01-0.146E-01
CGA: 136    -0.997289519040E+03   -0.20603E-02   -0.17765E-02  2880   0.798E-01-0.971E-02
CGA: 137    -0.997293534981E+03   -0.40159E-02   -0.39643E-02  2880   0.197E+00-0.143E-01
CGA: 138    -0.997299724463E+03   -0.61895E-02   -0.58880E-02  2880   0.167E+00-0.191E-01
CGA: 139    -0.997303129157E+03   -0.34047E-02   -0.33319E-02  2880   0.480E-01-0.122E-01
CGA: 140    -0.997304143954E+03   -0.10148E-02   -0.10115E-02  2880   0.251E-01-0.133E-02
CGA: 141    -0.997305162148E+03   -0.10182E-02   -0.10321E-02  2880   0.410E-01 0.606E-03
CGA: 142    -0.997307389889E+03   -0.22277E-02   -0.22330E-02  2880   0.639E-01 0.212E-02
CGA: 143    -0.997309534878E+03   -0.21450E-02   -0.21942E-02  2880   0.492E-01 0.310E-02
CGA: 144    -0.997311235660E+03   -0.17008E-02   -0.17395E-02  2880   0.447E-01 0.167E-02
CGA: 145    -0.997312791203E+03   -0.15555E-02   -0.15612E-02  2880   0.342E-01 0.417E-03
CGA: 146    -0.997313730534E+03   -0.93933E-03   -0.93794E-03  2880   0.139E-01-0.166E-02
CGA: 147    -0.997314216014E+03   -0.48548E-03   -0.43020E-03  2880   0.986E-02-0.310E-02
CGA: 148    -0.997305226693E+03    0.89893E-02   -0.48471E-02  2880   0.333E+00-0.423E-01
CGA: 149    -0.997317440587E+03   -0.12214E-01   -0.12914E-01  2880   0.254E-01-0.465E-02
CGA: 150    -0.997319262283E+03   -0.18217E-02   -0.19140E-02  2880   0.335E-02 0.743E-02
CGA: 151    -0.997319402081E+03   -0.13980E-03   -0.22604E-03  2880   0.190E-02 0.238E-02
CGA: 152    -0.997319651424E+03   -0.24934E-03   -0.21963E-03  2880   0.174E-02 0.107E-02
CGA: 153    -0.997319831007E+03   -0.17958E-03   -0.18110E-03  2880   0.313E-02-0.120E-03
CGA: 154    -0.997319921769E+03   -0.90762E-04   -0.23622E-03  2880   0.668E-02-0.326E-02
CGA: 155    -0.997320615852E+03   -0.69408E-03   -0.77542E-03  2880   0.510E-02 0.170E-02
CGA: 156    -0.997321236048E+03   -0.62020E-03   -0.64383E-03  2880   0.370E-02 0.435E-03
CGA: 157    -0.997321726373E+03   -0.49033E-03   -0.46005E-03  2880   0.108E-02-0.724E-03
CGA: 158    -0.997321862859E+03   -0.13649E-03   -0.15554E-03  2880   0.463E-02-0.860E-03
CGA: 159    -0.997322018871E+03   -0.15601E-03   -0.17858E-03  2880   0.566E-03 0.162E-03
CGA: 160    -0.997322161387E+03   -0.14252E-03   -0.12772E-03  2880   0.653E-03 0.226E-03
CGA: 161    -0.997321926666E+03    0.23472E-03   -0.39550E-03  2880   0.236E-01-0.229E-02
CGA: 162    -0.997322738135E+03   -0.81147E-03   -0.85457E-03  2880   0.924E-03 0.420E-03
CGA: 163    -0.997322890919E+03   -0.15278E-03   -0.15265E-03  2880   0.543E-03 0.345E-03
CGA: 164    -0.997323019118E+03   -0.12820E-03   -0.13553E-03  2880   0.215E-02-0.368E-03
CGA: 165    -0.997323095554E+03   -0.76436E-04   -0.81996E-04  2880   0.224E-03 0.298E-04
CGA: 166    -0.997323182778E+03   -0.87224E-04    0.79533E-04  2880   0.232E-03 0.190E-03
CGA: 167    -0.997323266141E+03   -0.83363E-04    0.12269E-03  2880   0.789E-03-0.595E-05
CGA: 168    -0.997323637971E+03   -0.37183E-03    0.11107E-03  2880   0.657E-03 0.565E-03
CGA: 169    -0.997323653599E+03   -0.15628E-04   -0.25878E-04  2880   0.155E-03 0.833E-04
CGA: 170    -0.997323676130E+03   -0.22531E-04   -0.23922E-04  2880   0.295E-03 0.101E-03
CGA: 171    -0.997323675887E+03    0.24353E-06   -0.70847E-04  2880   0.531E-02-0.797E-03
CGA: 172    -0.997323840831E+03   -0.16494E-03   -0.18503E-03  2880   0.142E-03 0.150E-03
CGA: 173    -0.997323853142E+03   -0.12311E-04   -0.15729E-04  2880   0.151E-03 0.846E-04
CGA: 174    -0.997323922237E+03   -0.69095E-04    0.19833E-04  2880   0.456E-03-0.763E-05
CGA: 175    -0.997324166881E+03   -0.24464E-03    0.34180E-04  2880   0.386E-03 0.253E-03
CGA: 176    -0.997324169969E+03   -0.30888E-05   -0.15069E-04  2880   0.102E-03 0.111E-03
   1 F= -.99732417E+03 E0= -.99731229E+03  d E =-.997324E+03  mag=     2.0000
       N       E                     dE             d eps       ncg     rms          ort
SDA:   1    -0.997324562133E+03   -0.39525E-03    0.00000E+00  2880   0.236E-01 0.000E+00
CGA:   2    -0.997325387841E+03   -0.82571E-03   -0.84192E-03  2880   0.187E-02 0.139E-03
CGA:   3    -0.997325952798E+03   -0.56496E-03   -0.76309E-03  2880   0.325E-02-0.725E-03
CGA:   4    -0.997326105728E+03   -0.15293E-03   -0.14802E-03  2880   0.976E-03-0.727E-04
CGA:   5    -0.997326205655E+03   -0.99927E-04   -0.88624E-04  2880   0.721E-03-0.239E-03
CGA:   6    -0.997326379407E+03   -0.17375E-03    0.26011E-03  2880   0.647E-03-0.943E-04
CGA:   7    -0.997326446925E+03   -0.67518E-04   -0.55302E-04  2880   0.265E-03-0.299E-03
CGA:   8    -0.997326441173E+03    0.57520E-05   -0.42244E-05  2880   0.199E-03 0.927E-04
   2 F= -.99732644E+03 E0= -.99731456E+03  d E =-.227120E-02  mag=     2.0000
       N       E                     dE             d eps       ncg     rms          ort
SDA:   1    -0.997113492916E+03    0.21295E+00    0.00000E+00  2880   0.459E+01 0.000E+00
CGA:   2    -0.997307128405E+03   -0.19364E+00   -0.17737E+00  2880   0.892E-01-0.322E+00
CGA:   3    -0.997318122191E+03   -0.10994E-01   -0.11062E-01  2880   0.123E+00-0.698E-02
CGA:   4    -0.997329118974E+03   -0.10997E-01   -0.10896E-01  2880   0.389E-01-0.333E-02
CGA:   5    -0.997331903798E+03   -0.27848E-02   -0.29633E-02  2880   0.838E-02 0.474E-02
CGA:   6    -0.997332618954E+03   -0.71516E-03   -0.79283E-03  2880   0.553E-02 0.229E-02
CGA:   7    -0.997333706083E+03   -0.10871E-02   -0.10789E-02  2880   0.319E-02 0.221E-03
CGA:   8    -0.997334094631E+03   -0.38855E-03   -0.37871E-03  2880   0.482E-02-0.187E-02
CGA:   9    -0.997334271960E+03   -0.17733E-03   -0.18427E-03  2880   0.561E-03 0.152E-04
CGA:  10    -0.997334348819E+03   -0.76859E-04   -0.73251E-04  2880   0.209E-03 0.239E-03
CGA:  11    -0.997334242676E+03    0.10614E-03   -0.16676E-03  2880   0.409E-02-0.618E-03
CGA:  12    -0.997334384169E+03   -0.14149E-03   -0.16588E-03  2880   0.638E-03 0.203E-03
CGA:  13    -0.997334413509E+03   -0.29340E-04   -0.47222E-04  2880   0.234E-03 0.288E-03
CGA:  14    -0.997334446984E+03   -0.33474E-04   -0.34577E-04  2880   0.285E-03 0.380E-04
CGA:  15    -0.997334488077E+03   -0.41093E-04   -0.38052E-04  2880   0.899E-04-0.220E-03
CGA:  16    -0.997334492454E+03   -0.43769E-05   -0.51955E-05  2880   0.507E-04 0.109E-04
   3 F= -.99733449E+03 E0= -.99732261E+03  d E =-.805128E-02  mag=     2.0000
       N       E                     dE             d eps       ncg     rms          ort
SDA:   1    -0.997279829864E+03    0.54658E-01    0.00000E+00  2880   0.186E+00 0.000E+00
CGA:   2    -0.997302242512E+03   -0.22413E-01   -0.22407E-01  2880   0.277E+00-0.389E-02
CGA:   3    -0.997326310024E+03   -0.24068E-01   -0.23994E-01  2880   0.921E-01-0.241E-02
CGA:   4    -0.997334365493E+03   -0.80555E-02   -0.82191E-02  2880   0.136E-01 0.528E-02
CGA:   5    -0.997338500978E+03   -0.41355E-02   -0.41875E-02  2880   0.684E-02-0.314E-03
CGA:   6    -0.997338897086E+03   -0.39611E-03   -0.36390E-03  2880   0.283E-02-0.475E-03
CGA:   7    -0.997339364823E+03   -0.46774E-03   -0.52270E-03  2880   0.288E-02-0.769E-03
CGA:   8    -0.997339463043E+03   -0.98220E-04   -0.13104E-03  2880   0.832E-03 0.491E-03
CGA:   9    -0.997339480075E+03   -0.17032E-04   -0.44910E-04  2880   0.319E-03 0.353E-03
CGA:  10    -0.997339495185E+03   -0.15110E-04   -0.26416E-04  2880   0.260E-03 0.177E-03
CGA:  11    -0.997339577319E+03   -0.82134E-04    0.47907E-04  2880   0.163E-03 0.649E-04
CGA:  12    -0.997339608680E+03   -0.31361E-04   -0.30971E-04  2880   0.257E-03 0.110E-04
CGA:  13    -0.997339616782E+03   -0.81015E-05   -0.13851E-04  2880   0.508E-04 0.808E-04
   4 F= -.99733962E+03 E0= -.99732773E+03  d E =-.512433E-02  mag=     2.0000
       N       E                     dE             d eps       ncg     rms          ort
SDA:   1    -0.997330622342E+03    0.89863E-02    0.00000E+00  2880   0.343E-01 0.000E+00
CGA:   2    -0.997333502270E+03   -0.28799E-02   -0.28796E-02  2880   0.416E-01-0.422E-03
CGA:   3    -0.997339381461E+03   -0.58792E-02   -0.58870E-02  2880   0.424E-02-0.336E-03
CGA:   4    -0.997340191369E+03   -0.80991E-03   -0.74593E-03  2880   0.159E-02 0.102E-02
CGA:   5    -0.997340198225E+03   -0.68559E-05   -0.71212E-03  2880   0.793E-02-0.287E-02
CGA:   6    -0.997340572683E+03   -0.37446E-03   -0.48144E-03  2880   0.753E-03 0.172E-02
CGA:   7    -0.997340598934E+03   -0.26251E-04   -0.53064E-04  2880   0.346E-03 0.399E-03
CGA:   8    -0.997340195187E+03    0.40375E-03   -0.22535E-03  2880   0.858E-02-0.103E-02
CGA:   9    -0.997340500637E+03   -0.30545E-03   -0.37300E-03  2880   0.162E-02 0.327E-03
CGA:  10    -0.997340576229E+03   -0.75592E-04   -0.12805E-03  2880   0.445E-03 0.397E-03
CGA:  11    -0.997340687480E+03   -0.11125E-03   -0.10965E-03  2880   0.806E-03-0.171E-03
CGA:  12    -0.997340711021E+03   -0.23542E-04   -0.14145E-04  2880   0.200E-03-0.559E-04
CGA:  13    -0.997340715650E+03   -0.46284E-05   -0.40570E-05  2880   0.505E-04-0.508E-05
   5 F= -.99734072E+03 E0= -.99732883E+03  d E =-.109887E-02  mag=     2.0000
       N       E                     dE             d eps       ncg     rms          ort
SDA:   1    -0.997201671457E+03    0.13904E+00    0.00000E+00  2880   0.327E+00 0.000E+00
CGA:   2    -0.997321939841E+03   -0.12027E+00   -0.12092E+00  2880   0.199E+00-0.341E-02
CGA:   3    -0.997331489139E+03   -0.95493E-02   -0.98474E-02  2880   0.684E-01-0.268E-02
CGA:   4    -0.997341070768E+03   -0.95816E-02   -0.96843E-02  2880   0.211E-01 0.314E-02
CGA:   5    -0.997344198605E+03   -0.31278E-02   -0.29804E-02  2880   0.788E-02-0.358E-02
CGA:   6    -0.997344966848E+03   -0.76824E-03   -0.80892E-03  2880   0.477E-02 0.731E-03
CGA:   7    -0.997345194623E+03   -0.22778E-03   -0.28679E-03  2880   0.109E-02 0.479E-03
CGA:   8    -0.997345406531E+03   -0.21191E-03   -0.21075E-03  2880   0.388E-03 0.201E-03
CGA:   9    -0.997345482518E+03   -0.75986E-04   -0.99295E-04  2880   0.319E-02-0.527E-03
CGA:  10    -0.997345571023E+03   -0.88505E-04   -0.10752E-03  2880   0.102E-03 0.863E-04
CGA:  11    -0.997345566326E+03    0.46970E-05   -0.51086E-05  2880   0.747E-04 0.836E-04
   6 F= -.99734557E+03 E0= -.99733372E+03  d E =-.485068E-02  mag=     2.0000
       N       E                     dE             d eps       ncg     rms          ort
SDA:   1    -0.997319087872E+03    0.26483E-01    0.00000E+00  2880   0.836E-01 0.000E+00
CGA:   2    -0.997328578812E+03   -0.94909E-02   -0.93432E-02  2880   0.135E+00-0.410E-02
CGA:   3    -0.997342517944E+03   -0.13939E-01   -0.13811E-01  2880   0.377E-01-0.307E-02
CGA:   4    -0.997345337003E+03   -0.28191E-02   -0.30130E-02  2880   0.511E-02 0.434E-02
CGA:   5    -0.997346018674E+03   -0.68167E-03   -0.70762E-03  2880   0.562E-02 0.108E-02
CGA:   6    -0.997346618673E+03   -0.60000E-03   -0.58313E-03  2880   0.185E-02-0.296E-03
CGA:   7    -0.997346869611E+03   -0.25094E-03   -0.23769E-03  2880   0.377E-02-0.158E-02
CGA:   8    -0.997346968439E+03   -0.98828E-04   -0.13850E-03  2880   0.459E-03 0.321E-03
CGA:   9    -0.997346967040E+03    0.13997E-05   -0.24812E-04  2880   0.247E-03 0.298E-03
CGA:  10    -0.997346982424E+03   -0.15385E-04   -0.19819E-04  2880   0.209E-03 0.810E-04
CGA:  11    -0.997347003758E+03   -0.21334E-04   -0.25515E-04  2880   0.422E-04 0.106E-03
CGA:  12    -0.997347028010E+03   -0.24252E-04    0.22409E-05  2880   0.358E-04 0.279E-04
CGA:  13    -0.997347027471E+03    0.53908E-06   -0.16083E-05  2880   0.273E-04 0.253E-04
   7 F= -.99734703E+03 E0= -.99733522E+03  d E =-.146115E-02  mag=     2.0000
       N       E                     dE             d eps       ncg     rms          ort
SDA:   1    -0.997340094818E+03    0.69332E-02    0.00000E+00  2880   0.185E-01 0.000E+00
CGA:   2    -0.997345377343E+03   -0.52825E-02   -0.53332E-02  2880   0.324E-01-0.327E-03
CGA:   3    -0.997346940107E+03   -0.15628E-02   -0.15665E-02  2880   0.492E-02-0.336E-03
CGA:   4    -0.997347534233E+03   -0.59413E-03   -0.59358E-03  2880   0.195E-02-0.706E-04
CGA:   5    -0.997347750683E+03   -0.21645E-03   -0.22295E-03  2880   0.380E-03 0.539E-03
CGA:   6    -0.997347577504E+03    0.17318E-03   -0.20180E-03  2880   0.900E-02-0.130E-02
CGA:   7    -0.997347907477E+03   -0.32997E-03   -0.35832E-03  2880   0.983E-03 0.107E-03
CGA:   8    -0.997347933662E+03   -0.26186E-04   -0.52346E-04  2880   0.144E-03 0.322E-03
CGA:   9    -0.997347926765E+03    0.68973E-05   -0.54576E-05  2880   0.761E-04 0.119E-03
   8 F= -.99734793E+03 E0= -.99733612E+03  d E =-.899294E-03  mag=     2.0000
       N       E                     dE             d eps       ncg     rms          ort
SDA:   1    -0.997332559334E+03    0.15374E-01    0.00000E+00  2880   0.378E-01 0.000E+00
CGA:   2    -0.997346069395E+03   -0.13510E-01   -0.16305E-01  2880   0.279E-01-0.888E-02
CGA:   3    -0.997347327001E+03   -0.12576E-02   -0.15145E-02  2880   0.118E-01 0.406E-02
CGA:   4    -0.997347939021E+03   -0.61202E-03   -0.81664E-03  2880   0.357E-02 0.308E-02
CGA:   5    -0.997348532315E+03   -0.59329E-03   -0.59288E-03  2880   0.191E-02 0.562E-03
CGA:   6    -0.997348781062E+03   -0.24875E-03   -0.41823E-03  2880   0.711E-02-0.288E-02
CGA:   7    -0.997348992227E+03   -0.21116E-03   -0.26174E-03  2880   0.878E-03 0.471E-03
CGA:   8    -0.997349001180E+03   -0.89535E-05   -0.52216E-04  2880   0.463E-03 0.597E-03
CGA:   9    -0.997349022454E+03   -0.21274E-04   -0.31071E-04  2880   0.302E-03 0.166E-03
CGA:  10    -0.997349047580E+03   -0.25126E-04   -0.32922E-04  2880   0.626E-04 0.184E-03
CGA:  11    -0.997349076690E+03   -0.29110E-04    0.40293E-05  2880   0.463E-04 0.314E-04
CGA:  12    -0.997349077513E+03   -0.82239E-06   -0.21852E-05  2880   0.267E-04 0.184E-04
   9 F= -.99734908E+03 E0= -.99733729E+03  d E =-.115075E-02  mag=     2.0000
       N       E                     dE             d eps       ncg     rms          ort
SDA:   1    -0.995656580230E+03    0.16925E+01    0.00000E+00  2880   0.435E+01 0.000E+00
CGA:   2    -0.996466975617E+03   -0.81040E+00   -0.79144E+00  2880   0.780E+01 0.294E+00
CGA:   3    -0.997112591489E+03   -0.64562E+00   -0.64161E+00  2880   0.172E+01-0.264E+00
CGA:   4    -0.997254937992E+03   -0.14235E+00   -0.14195E+00  2880   0.458E+00 0.257E-01
CGA:   5    -0.997299214595E+03   -0.44277E-01   -0.44719E-01  2880   0.353E+00 0.122E-01
CGA:   6    -0.997336932809E+03   -0.37718E-01   -0.37758E-01  2880   0.680E-01-0.105E-02
CGA:   7    -0.997343963669E+03   -0.70309E-02   -0.69655E-02  2880   0.650E-01-0.687E-02
CGA:   8    -0.997349846436E+03   -0.58828E-02   -0.58354E-02  2880   0.195E-01-0.429E-02
CGA:   9    -0.997351571778E+03   -0.17253E-02   -0.17862E-02  2880   0.569E-02 0.452E-02
CGA:  10    -0.997351982196E+03   -0.41042E-03   -0.49136E-03  2880   0.264E-02 0.198E-02
CGA:  11    -0.997352601995E+03   -0.61980E-03   -0.56822E-03  2880   0.198E-02 0.102E-02
CGA:  12    -0.997348359608E+03    0.42424E-02   -0.23534E-02  2880   0.660E-01-0.999E-02
CGA:  13    -0.997351080751E+03   -0.27211E-02   -0.30809E-02  2880   0.161E-01 0.142E-03
CGA:  14    -0.997352178909E+03   -0.10982E-02   -0.13825E-02  2880   0.343E-02 0.302E-02
CGA:  15    -0.997352808651E+03   -0.62974E-03   -0.64976E-03  2880   0.530E-02 0.652E-03
CGA:  16    -0.997353315114E+03   -0.50646E-03   -0.46705E-03  2880   0.111E-02-0.369E-03
CGA:  17    -0.997352648781E+03    0.66633E-03   -0.48231E-03  2880   0.305E-01-0.403E-02
CGA:  18    -0.997353605712E+03   -0.95693E-03   -0.12287E-02  2880   0.316E-02 0.164E-03
CGA:  19    -0.997353608199E+03   -0.24862E-05   -0.16290E-03  2880   0.714E-03 0.134E-02
CGA:  20    -0.997353576526E+03    0.31672E-04   -0.38424E-04  2880   0.359E-03 0.506E-03
CGA:  21    -0.997353597203E+03   -0.20676E-04   -0.36663E-04  2880   0.249E-03 0.219E-03
CGA:  22    -0.997353626662E+03   -0.29459E-04   -0.30249E-04  2880   0.444E-03 0.138E-04
CGA:  23    -0.997353692237E+03   -0.65575E-04   -0.65548E-04  2880   0.215E-04-0.214E-05
CGA:  24    -0.997353699657E+03   -0.74203E-05    0.50661E-04  2880   0.129E-03-0.276E-04
  10 F= -.99735370E+03 E0= -.99734209E+03  d E =-.462214E-02  mag=     2.0000
       N       E                     dE             d eps       ncg     rms          ort
SDA:   1    -0.996466536662E+03    0.88716E+00    0.00000E+00  2880   0.835E+01 0.000E+00
CGA:   2    -0.997054633270E+03   -0.58810E+00   -0.47676E+00  2880   0.259E+01-0.571E+01
CGA:   3    -0.997151517844E+03   -0.96885E-01   -0.13523E+00  2880   0.945E+00-0.729E+00
CGA:   4    -0.997284022298E+03   -0.13250E+00   -0.13552E+00  2880   0.752E+00-0.494E-01
CGA:   5    -0.997326237106E+03   -0.42215E-01   -0.44820E-01  2880   0.148E+00-0.244E-01
CGA:   6    -0.997338246978E+03   -0.12010E-01   -0.12288E-01  2880   0.615E-01 0.771E-02
CGA:   7    -0.997345495005E+03   -0.72480E-02   -0.73645E-02  2880   0.486E-01 0.270E-02
CGA:   8    -0.997351292252E+03   -0.57972E-02   -0.57095E-02  2880   0.234E-01-0.288E-02
CGA:   9    -0.997353012087E+03   -0.17198E-02   -0.16154E-02  2880   0.586E-02-0.165E-02
CGA:  10    -0.997353522551E+03   -0.51046E-03   -0.51747E-03  2880   0.319E-02 0.116E-03
CGA:  11    -0.997353838278E+03   -0.31573E-03   -0.33353E-03  2880   0.144E-02 0.502E-03
CGA:  12    -0.997354006564E+03   -0.16829E-03   -0.17141E-03  2880   0.925E-03 0.818E-04
CGA:  13    -0.997354129674E+03   -0.12311E-03   -0.12223E-03  2880   0.958E-03-0.115E-03
CGA:  14    -0.997354236314E+03   -0.10664E-03   -0.10577E-03  2880   0.430E-03-0.137E-03
CGA:  15    -0.997354264731E+03   -0.28417E-04   -0.27295E-04  2880   0.186E-03-0.227E-04
CGA:  16    -0.997354300344E+03   -0.35613E-04   -0.39267E-04  2880   0.287E-03-0.406E-04
CGA:  17    -0.997354312699E+03   -0.12356E-04   -0.11864E-04  2880   0.276E-04-0.776E-05
CGA:  18    -0.997354317691E+03   -0.49920E-05   -0.10716E-04  2880   0.247E-03-0.216E-04
CGA:  19    -0.997354332885E+03   -0.15194E-04   -0.11218E-04  2880   0.338E-04-0.438E-04
CGA:  20    -0.997354113671E+03    0.21921E-03   -0.11909E-03  2880   0.601E-02-0.322E-03
CGA:  21    -0.997354322834E+03   -0.20916E-03   -0.23641E-03  2880   0.434E-03 0.338E-04
CGA:  22    -0.997354333952E+03   -0.11118E-04   -0.24910E-04  2880   0.171E-04 0.755E-04
CGA:  23    -0.997354303607E+03    0.30345E-04   -0.10543E-04  2880   0.122E-02-0.140E-03
CGA:  24    -0.997354358421E+03   -0.54814E-04   -0.55429E-04  2880   0.169E-03-0.202E-04
CGA:  25    -0.997354362035E+03   -0.36138E-05   -0.88150E-05  2880   0.749E-05 0.302E-04
  11 F= -.99735436E+03 E0= -.99734270E+03  d E =-.662378E-03  mag=     2.0000
       N       E                     dE             d eps       ncg     rms          ort
SDA:   1    -0.997257397448E+03    0.96961E-01    0.00000E+00  2880   0.104E+01 0.000E+00
CGA:   2    -0.997297860750E+03   -0.40463E-01   -0.46415E-01  2880   0.210E+00-0.172E+00
CGA:   3    -0.997335088367E+03   -0.37228E-01   -0.37240E-01  2880   0.209E+00-0.443E-02
CGA:   4    -0.997347227487E+03   -0.12139E-01   -0.12387E-01  2880   0.380E-01-0.881E-03
CGA:   5    -0.997350470276E+03   -0.32428E-02   -0.35537E-02  2880   0.181E-01 0.282E-02
CGA:   6    -0.997352761148E+03   -0.22909E-02   -0.23512E-02  2880   0.165E-01 0.643E-03
CGA:   7    -0.997354497984E+03   -0.17368E-02   -0.16269E-02  2880   0.450E-02-0.125E-02
CGA:   8    -0.997354877500E+03   -0.37952E-03   -0.33292E-03  2880   0.224E-02-0.464E-03
CGA:   9    -0.997355109404E+03   -0.23190E-03   -0.22801E-03  2880   0.113E-02-0.662E-04
CGA:  10    -0.997355192714E+03   -0.83310E-04   -0.97012E-04  2880   0.452E-03 0.142E-03
CGA:  11    -0.997355222997E+03   -0.30283E-04   -0.40632E-04  2880   0.153E-03 0.109E-03
CGA:  12    -0.997355248919E+03   -0.25923E-04   -0.27575E-04  2880   0.149E-03 0.687E-04
CGA:  13    -0.997355282791E+03   -0.33872E-04   -0.33300E-04  2880   0.289E-03-0.405E-04
CGA:  14    -0.997355309210E+03   -0.26419E-04   -0.18766E-04  2880   0.801E-04-0.985E-04
CGA:  15    -0.997355312952E+03   -0.37419E-05   -0.34295E-05  2880   0.610E-04-0.361E-05
  12 F= -.99735531E+03 E0= -.99734363E+03  d E =-.950917E-03  mag=     2.0000
       N       E                     dE             d eps       ncg     rms          ort
SDA:   1    -0.997343936476E+03    0.11373E-01    0.00000E+00  2880   0.542E-01 0.000E+00
CGA:   2    -0.997347184184E+03   -0.32477E-02   -0.32764E-02  2880   0.385E-01-0.872E-03
CGA:   3    -0.997355410168E+03   -0.82260E-02   -0.83017E-02  2880   0.476E-02-0.109E-02
CGA:   4    -0.997356152385E+03   -0.74222E-03   -0.73372E-03  2880   0.151E-02 0.131E-02
CGA:   5    -0.997356468530E+03   -0.31614E-03   -0.35291E-03  2880   0.526E-02-0.118E-02
CGA:   6    -0.997356624086E+03   -0.15556E-03   -0.18153E-03  2880   0.240E-03 0.131E-03
CGA:   7    -0.997356623031E+03    0.10556E-05   -0.13944E-04  2880   0.135E-03 0.165E-03
CGA:   8    -0.997356635645E+03   -0.12614E-04   -0.14656E-04  2880   0.127E-03 0.577E-04
CGA:   9    -0.997356652043E+03   -0.16398E-04   -0.18165E-04  2880   0.660E-04 0.420E-04
CGA:  10    -0.997356639355E+03    0.12688E-04   -0.35618E-04  2880   0.139E-02-0.184E-03
CGA:  11    -0.997356680252E+03   -0.40897E-04   -0.47905E-04  2880   0.573E-04 0.404E-04
CGA:  12    -0.997356680317E+03   -0.64407E-07   -0.36656E-05  2880   0.360E-04 0.425E-04
  13 F= -.99735668E+03 E0= -.99734499E+03  d E =-.136736E-02  mag=     2.0000
       N       E                     dE             d eps       ncg     rms          ort
SDA:   1    -0.997003129785E+03    0.35355E+00    0.00000E+00  2880   0.904E+00 0.000E+00
CGA:   2    -0.997175017675E+03   -0.17189E+00   -0.17059E+00  2880   0.202E+01 0.192E-01
CGA:   3    -0.997323645138E+03   -0.14863E+00   -0.14664E+00  2880   0.133E+00-0.327E-02
CGA:   4    -0.997348920728E+03   -0.25276E-01   -0.24989E-01  2880   0.118E+00 0.590E-02
CGA:   5    -0.997356037043E+03   -0.71163E-02   -0.69651E-02  2880   0.243E-01-0.152E-02
CGA:   6    -0.997359624002E+03   -0.35870E-02   -0.36527E-02  2880   0.234E-01-0.552E-02
CGA:   7    -0.997360998130E+03   -0.13741E-02   -0.13557E-02  2880   0.866E-02-0.378E-03
CGA:   8    -0.997361384313E+03   -0.38618E-03   -0.55624E-03  2880   0.167E-02 0.261E-02
CGA:   9    -0.997361432408E+03   -0.48095E-04   -0.12808E-03  2880   0.112E-02 0.108E-02
CGA:  10    -0.997361619722E+03   -0.18731E-03   -0.20775E-03  2880   0.384E-02-0.384E-03
CGA:  11    -0.997361801938E+03   -0.18222E-03   -0.17108E-03  2880   0.207E-02-0.170E-03
CGA:  12    -0.997361854451E+03   -0.52513E-04   -0.67396E-04  2880   0.778E-03 0.142E-03
CGA:  13    -0.997361877610E+03   -0.23159E-04   -0.38955E-04  2880   0.525E-03 0.205E-03
CGA:  14    -0.997361901556E+03   -0.23946E-04   -0.30463E-04  2880   0.275E-03 0.840E-04
CGA:  15    -0.997361671883E+03    0.22967E-03   -0.15451E-03  2880   0.995E-02-0.105E-02
CGA:  16    -0.997362001938E+03   -0.33006E-03   -0.35839E-03  2880   0.467E-03 0.131E-03
CGA:  17    -0.997362024736E+03   -0.22798E-04   -0.35172E-04  2880   0.161E-03 0.222E-03
CGA:  18    -0.997362027922E+03   -0.31862E-05   -0.13050E-04  2880   0.956E-04 0.135E-03
  14 F= -.99736203E+03 E0= -.99735040E+03  d E =-.534761E-02  mag=     2.0000
       N       E                     dE             d eps       ncg     rms          ort
SDA:   1    -0.996878636166E+03    0.48339E+00    0.00000E+00  2880   0.192E+01 0.000E+00
CGA:   2    -0.997003399915E+03   -0.12476E+00   -0.12662E+00  2880   0.161E+01-0.609E-01
CGA:   3    -0.997324332993E+03   -0.32093E+00   -0.32104E+00  2880   0.161E+00-0.159E-02
CGA:   4    -0.997352624661E+03   -0.28292E-01   -0.28183E-01  2880   0.183E+00 0.187E-02
CGA:   5    -0.997362918345E+03   -0.10294E-01   -0.10225E-01  2880   0.325E-01-0.611E-03
CGA:   6    -0.997366719119E+03   -0.38008E-02   -0.37771E-02  2880   0.149E-01-0.329E-02
CGA:   7    -0.997368899796E+03   -0.21807E-02   -0.21359E-02  2880   0.644E-02 0.122E-02
CGA:   8    -0.997369233099E+03   -0.33330E-03   -0.36508E-03  2880   0.174E-02 0.373E-03
CGA:   9    -0.997369695210E+03   -0.46211E-03   -0.44602E-03  2880   0.133E-02 0.130E-03
CGA:  10    -0.997369831235E+03   -0.13602E-03   -0.12278E-03  2880   0.109E-02-0.330E-03
CGA:  11    -0.997369944724E+03   -0.11349E-03   -0.14568E-03  2880   0.167E-02-0.613E-03
CGA:  12    -0.997369991535E+03   -0.46811E-04   -0.71977E-04  2880   0.337E-03 0.288E-03
CGA:  13    -0.997369994587E+03   -0.30519E-05   -0.18216E-04  2880   0.139E-03 0.197E-03
CGA:  14    -0.997370011922E+03   -0.17335E-04   -0.17235E-04  2880   0.229E-03 0.237E-04
CGA:  15    -0.997370045824E+03   -0.33901E-04   -0.33770E-04  2880   0.442E-04 0.204E-04
CGA:  16    -0.997370058570E+03   -0.12746E-04    0.28349E-04  2880   0.913E-04-0.184E-04
CGA:  17    -0.997370078815E+03   -0.20245E-04    0.54731E-05  2880   0.790E-04-0.899E-05
CGA:  18    -0.997370078729E+03    0.85616E-07   -0.20504E-05  2880   0.323E-04 0.228E-04
  15 F= -.99737008E+03 E0= -.99735853E+03  d E =-.805081E-02  mag=     2.0000
       N       E                     dE             d eps       ncg     rms          ort
SDA:   1    -0.997347593021E+03    0.22486E-01    0.00000E+00  2880   0.698E-01 0.000E+00
CGA:   2    -0.997359785768E+03   -0.12193E-01   -0.12775E-01  2880   0.131E+00-0.797E-02
CGA:   3    -0.997368178575E+03   -0.83928E-02   -0.83023E-02  2880   0.466E-01-0.203E-02
CGA:   4    -0.997371548536E+03   -0.33700E-02   -0.35041E-02  2880   0.685E-02 0.480E-02
CGA:   5    -0.997371983301E+03   -0.43477E-03   -0.49370E-03  2880   0.531E-02 0.125E-02
CGA:   6    -0.997372722972E+03   -0.73967E-03   -0.73059E-03  2880   0.121E-02 0.109E-02
CGA:   7    -0.997368328039E+03    0.43949E-02   -0.24103E-02  2880   0.104E+00-0.924E-02
CGA:   8    -0.997372179739E+03   -0.38517E-02   -0.44722E-02  2880   0.142E-01-0.279E-02
CGA:   9    -0.997372765016E+03   -0.58528E-03   -0.82081E-03  2880   0.153E-02 0.284E-02
CGA:  10    -0.997372834012E+03   -0.68996E-04   -0.14448E-03  2880   0.127E-02 0.737E-03
CGA:  11    -0.997372970417E+03   -0.13641E-03   -0.17738E-03  2880   0.502E-03 0.486E-03
CGA:  12    -0.997373236751E+03   -0.26633E-03    0.59822E-03  2880   0.310E-03-0.219E-03
CGA:  13    -0.997373255179E+03   -0.18428E-04   -0.12122E-04  2880   0.174E-03-0.611E-04
CGA:  14    -0.997373247955E+03    0.72242E-05   -0.46178E-05  2880   0.116E-03 0.877E-04
  16 F= -.99737325E+03 E0= -.99736171E+03  d E =-.316923E-02  mag=     2.0000
       N       E                     dE             d eps       ncg     rms          ort
SDA:   1    -0.997338796183E+03    0.34459E-01    0.00000E+00  2880   0.862E-01 0.000E+00
CGA:   2    -0.997363291350E+03   -0.24495E-01   -0.25840E-01  2880   0.142E+00-0.926E-02
CGA:   3    -0.997369788815E+03   -0.64975E-02   -0.67840E-02  2880   0.386E-01-0.257E-03
CGA:   4    -0.997372281312E+03   -0.24925E-02   -0.27489E-02  2880   0.850E-02 0.640E-02
CGA:   5    -0.997372926002E+03   -0.64469E-03   -0.75673E-03  2880   0.783E-02 0.149E-02
CGA:   6    -0.997373792572E+03   -0.86657E-03   -0.88811E-03  2880   0.198E-02 0.423E-03
CGA:   7    -0.997364912750E+03    0.88798E-02   -0.51713E-02  2880   0.107E+00-0.131E-01
CGA:   8    -0.997370658895E+03   -0.57461E-02   -0.57276E-02  2880   0.359E-01 0.182E-01
CGA:   9    -0.997372658776E+03   -0.19999E-02   -0.23733E-02  2880   0.563E-02 0.106E-01
CGA:  10    -0.997373019312E+03   -0.36054E-03   -0.54166E-03  2880   0.595E-02 0.983E-03
CGA:  11    -0.997373668647E+03   -0.64934E-03   -0.73787E-03  2880   0.303E-02 0.662E-03
CGA:  12    -0.997374186889E+03   -0.51824E-03   -0.35346E-03  2880   0.364E-02-0.131E-02
CGA:  13    -0.997374406984E+03   -0.22010E-03   -0.85990E-04  2880   0.114E-02-0.741E-03
CGA:  14    -0.997374441545E+03   -0.34560E-04   -0.27024E-04  2880   0.609E-03-0.503E-04
CGA:  15    -0.997374440408E+03    0.11363E-05   -0.30004E-04  2880   0.946E-03 0.197E-03
CGA:  16    -0.997374438751E+03    0.16576E-05   -0.70472E-04  2880   0.469E-03 0.519E-03
CGA:  17    -0.997374485497E+03   -0.46746E-04   -0.29322E-04  2880   0.300E-03-0.140E-03
CGA:  18    -0.997374583788E+03   -0.98291E-04    0.76265E-04  2880   0.142E-03-0.240E-04
CGA:  19    -0.997374574518E+03    0.92698E-05   -0.43922E-05  2880   0.660E-04 0.907E-04
  17 F= -.99737457E+03 E0= -.99736305E+03  d E =-.132656E-02  mag=     2.0000
       N       E                     dE             d eps       ncg     rms          ort
SDA:   1    -0.997283873175E+03    0.90711E-01    0.00000E+00  2880   0.272E+00 0.000E+00
CGA:   2    -0.997314946640E+03   -0.31073E-01   -0.30708E-01  2880   0.451E+00-0.625E-02
CGA:   3    -0.997365158896E+03   -0.50212E-01   -0.50053E-01  2880   0.633E-01-0.461E-02
CGA:   4    -0.997371627437E+03   -0.64685E-02   -0.66239E-02  2880   0.167E-01 0.666E-02
CGA:   5    -0.997374997350E+03   -0.33699E-02   -0.33534E-02  2880   0.105E-01 0.808E-03
CGA:   6    -0.997375763678E+03   -0.76633E-03   -0.66375E-03  2880   0.413E-02-0.111E-02
CGA:   7    -0.997376314432E+03   -0.55075E-03   -0.91734E-03  2880   0.111E-01-0.401E-02
CGA:   8    -0.997376617763E+03   -0.30333E-03   -0.47725E-03  2880   0.227E-02 0.121E-02
CGA:   9    -0.997376612189E+03    0.55741E-05   -0.12077E-03  2880   0.704E-03 0.123E-02
CGA:  10    -0.997376615968E+03   -0.37794E-05   -0.34542E-04  2880   0.347E-03 0.302E-03
CGA:  11    -0.997376609965E+03    0.60029E-05   -0.25245E-04  2880   0.230E-03 0.332E-03
CGA:  12    -0.997376639014E+03   -0.29049E-04   -0.28882E-04  2880   0.472E-03-0.131E-04
CGA:  13    -0.997376707885E+03   -0.68871E-04   -0.70696E-04  2880   0.586E-04-0.980E-04
CGA:  14    -0.997376721692E+03   -0.13808E-04    0.60145E-04  2880   0.405E-04 0.309E-04
CGA:  15    -0.997376727683E+03   -0.59908E-05   -0.59988E-05  2880   0.925E-04-0.148E-05
  18 F= -.99737673E+03 E0= -.99736524E+03  d E =-.215316E-02  mag=     2.0000
       N       E                     dE             d eps       ncg     rms          ort
SDA:   1    -0.996839268325E+03    0.53745E+00    0.00000E+00  2880   0.130E+01 0.000E+00
CGA:   2    -0.997174418832E+03   -0.33515E+00   -0.33760E+00  2880   0.279E+01-0.178E-01
CGA:   3    -0.997320544012E+03   -0.14613E+00   -0.15282E+00  2880   0.298E+00-0.142E+00
CGA:   4    -0.997356366652E+03   -0.35823E-01   -0.35688E-01  2880   0.126E+00 0.655E-02
CGA:   5    -0.997370761012E+03   -0.14394E-01   -0.14363E-01  2880   0.952E-01-0.123E-02
CGA:   6    -0.997377453212E+03   -0.66922E-02   -0.64379E-02  2880   0.163E-01-0.408E-02
CGA:   7    -0.997380359876E+03   -0.29067E-02   -0.31303E-02  2880   0.199E-01-0.344E-02
CGA:   8    -0.997381235849E+03   -0.87597E-03   -0.88325E-03  2880   0.535E-02 0.140E-04
CGA:   9    -0.997381573196E+03   -0.33735E-03   -0.42916E-03  2880   0.213E-02 0.177E-02
CGA:  10    -0.997381658255E+03   -0.85059E-04   -0.14702E-03  2880   0.103E-02 0.776E-03
CGA:  11    -0.997381811201E+03   -0.15295E-03   -0.16063E-03  2880   0.826E-03 0.611E-03
CGA:  12    -0.997377249103E+03    0.45621E-02   -0.25051E-02  2880   0.142E+00-0.756E-02
CGA:  13    -0.997382007031E+03   -0.47579E-02   -0.57556E-02  2880   0.972E-02-0.149E-01
CGA:  14    -0.997382341418E+03   -0.33439E-03   -0.55951E-03  2880   0.764E-03 0.145E-02
CGA:  15    -0.997382305226E+03    0.36192E-04   -0.37195E-04  2880   0.207E-03 0.441E-03
CGA:  16    -0.997382285760E+03    0.19466E-04   -0.71093E-05  2880   0.121E-03 0.157E-03
CGA:  17    -0.997382273122E+03    0.12638E-04   -0.37741E-05  2880   0.831E-04 0.997E-04
CGA:  18    -0.997382264416E+03    0.87054E-05   -0.25128E-05  2880   0.623E-04 0.712E-04
  19 F= -.99738226E+03 E0= -.99737083E+03  d E =-.553673E-02  mag=     2.0000
       N       E                     dE             d eps       ncg     rms          ort
SDA:   1    -0.993470631276E+03    0.39116E+01    0.00000E+00  2880   0.999E+01 0.000E+00
CGA:   2    -0.995313294391E+03   -0.18427E+01   -0.18199E+01  2880   0.157E+02 0.135E+01
CGA:   3    -0.996837346366E+03   -0.15241E+01   -0.16428E+01  2880   0.492E+01-0.320E+01
CGA:   4    -0.997143761713E+03   -0.30642E+00   -0.29106E+00  2880   0.998E+00-0.160E+00
CGA:   5    -0.997294735170E+03   -0.15097E+00   -0.15103E+00  2880   0.809E+00-0.185E-02
CGA:   6    -0.997345793049E+03   -0.51058E-01   -0.50156E-01  2880   0.118E+00 0.162E-02
CGA:   7    -0.997363250397E+03   -0.17457E-01   -0.17524E-01  2880   0.127E+00 0.435E-02
CGA:   8    -0.997373820464E+03   -0.10570E-01   -0.10685E-01  2880   0.277E-01 0.106E-02
CGA:   9    -0.997377097931E+03   -0.32775E-02   -0.32067E-02  2880   0.259E-01-0.188E-02
CGA:  10    -0.997379898123E+03   -0.28002E-02   -0.27149E-02  2880   0.114E-01-0.210E-02
CGA:  11    -0.997380767310E+03   -0.86919E-03   -0.94033E-03  2880   0.495E-02 0.110E-02
CGA:  12    -0.997381196495E+03   -0.42918E-03   -0.50851E-03  2880   0.215E-02 0.144E-02
CGA:  13    -0.997381627523E+03   -0.43103E-03   -0.42542E-03  2880   0.200E-02 0.678E-03
CGA:  14    -0.997382006477E+03   -0.37895E-03   -0.37786E-03  2880   0.345E-02-0.813E-03
CGA:  15    -0.997382197903E+03   -0.19143E-03   -0.13812E-03  2880   0.108E-02-0.691E-03
CGA:  16    -0.997382216011E+03   -0.18108E-04   -0.29562E-04  2880   0.606E-03 0.971E-04
CGA:  17    -0.997382216980E+03   -0.96885E-06   -0.31670E-04  2880   0.700E-03 0.347E-03
CGA:  18    -0.997382243651E+03   -0.26671E-04   -0.37561E-04  2880   0.368E-03 0.135E-03
CGA:  19    -0.997382270676E+03   -0.27025E-04   -0.38313E-04  2880   0.212E-03 0.280E-03
CGA:  20    -0.997382293296E+03   -0.22620E-04   -0.21230E-04  2880   0.370E-03-0.572E-04
CGA:  21    -0.997382206315E+03    0.86982E-04   -0.13501E-03  2880   0.686E-03-0.591E-03
CGA:  22    -0.997382216582E+03   -0.10267E-04   -0.45455E-04  2880   0.346E-03 0.461E-03
CGA:  23    -0.997382241112E+03   -0.24531E-04   -0.34439E-04  2880   0.186E-03 0.249E-03
CGA:  24    -0.997382315463E+03   -0.74351E-04   -0.66945E-04  2880   0.169E-04 0.332E-04
CGA:  25    -0.997382327072E+03   -0.11609E-04    0.15403E-05  2880   0.855E-05 0.940E-05
CGA:  26    -0.997382327908E+03   -0.83613E-06   -0.97899E-06  2880   0.606E-05 0.418E-05
  20 F= -.99738233E+03 E0= -.99737101E+03  d E =-.634917E-04  mag=     2.0000
       N       E                     dE             d eps       ncg     rms          ort
SDA:   1    -0.994751922245E+03    0.26304E+01    0.00000E+00  2880   0.652E+01 0.000E+00
CGA:   2    -0.996121822073E+03   -0.13699E+01   -0.13410E+01  2880   0.120E+02 0.466E+00
CGA:   3    -0.997040677923E+03   -0.91886E+00   -0.95200E+00  2880   0.262E+01-0.148E+01
CGA:   4    -0.997229098033E+03   -0.18842E+00   -0.19495E+00  2880   0.763E+00-0.112E-01
CGA:   5    -0.997307709902E+03   -0.78612E-01   -0.80023E-01  2880   0.596E+00 0.907E-02
CGA:   6    -0.997360026649E+03   -0.52317E-01   -0.52694E-01  2880   0.105E+00-0.333E-02
CGA:   7    -0.997369491755E+03   -0.94651E-02   -0.93837E-02  2880   0.830E-01-0.370E-02
CGA:   8    -0.997380041370E+03   -0.10550E-01   -0.10544E-01  2880   0.317E-01-0.363E-02
CGA:   9    -0.997381964785E+03   -0.19234E-02   -0.20864E-02  2880   0.115E-01 0.186E-02
CGA:  10    -0.997383177288E+03   -0.12125E-02   -0.12883E-02  2880   0.432E-02 0.308E-02
CGA:  11    -0.997384388584E+03   -0.12113E-02   -0.12755E-02  2880   0.110E-01-0.644E-03
CGA:  12    -0.997385007992E+03   -0.61941E-03   -0.54979E-03  2880   0.176E-02-0.990E-03
CGA:  13    -0.997385189571E+03   -0.18158E-03   -0.17127E-03  2880   0.392E-02-0.466E-03
CGA:  14    -0.997385535907E+03   -0.34634E-03   -0.33514E-03  2880   0.323E-02-0.892E-03
CGA:  15    -0.997385628524E+03   -0.92616E-04   -0.93667E-04  2880   0.141E-02-0.607E-05
CGA:  16    -0.997385670815E+03   -0.42291E-04   -0.63116E-04  2880   0.830E-03 0.280E-03
CGA:  17    -0.997385682262E+03   -0.11448E-04   -0.34164E-04  2880   0.325E-03 0.259E-03
CGA:  18    -0.997385683287E+03   -0.10254E-05   -0.15934E-04  2880   0.311E-03 0.189E-03
CGA:  19    -0.997385721102E+03   -0.37815E-04   -0.37559E-04  2880   0.395E-03 0.264E-04
CGA:  20    -0.997385784471E+03   -0.63369E-04   -0.74723E-04  2880   0.826E-03-0.185E-03
CGA:  21    -0.997385833389E+03   -0.48918E-04   -0.44016E-04  2880   0.278E-03-0.327E-03
CGA:  22    -0.997385845102E+03   -0.11713E-04   -0.96411E-05  2880   0.173E-03-0.361E-04
CGA:  23    -0.997385852867E+03   -0.77648E-05   -0.93221E-05  2880   0.125E-03 0.309E-04
  21 F= -.99738585E+03 E0= -.99737440E+03  d E =-.352496E-02  mag=     2.0000
       N       E                     dE             d eps       ncg     rms          ort
SDA:   1    -0.990839677643E+03    0.65462E+01    0.00000E+00  2880   0.172E+02 0.000E+00
CGA:   2    -0.993831467511E+03   -0.29918E+01   -0.27205E+01  2880   0.189E+02 0.454E+01
CGA:   3    -0.996062754232E+03   -0.22313E+01   -0.22242E+01  2880   0.102E+02-0.151E+01
CGA:   4    -0.996971169914E+03   -0.90842E+00   -0.90542E+00  2880   0.155E+01-0.163E+00
CGA:   5    -0.997198700915E+03   -0.22753E+00   -0.21997E+00  2880   0.646E+00 0.137E+00
CGA:   6    -0.997268900386E+03   -0.70199E-01   -0.70281E-01  2880   0.597E+00 0.943E-02
CGA:   7    -0.997307368338E+03   -0.38468E-01   -0.38796E-01  2880   0.903E-01 0.232E-01
CGA:   8    -0.997323194745E+03   -0.15826E-01   -0.16314E-01  2880   0.140E+00-0.743E-02
CGA:   9    -0.997330652726E+03   -0.74580E-02   -0.73184E-02  2880   0.429E-01-0.263E-02
CGA:  10    -0.997334366853E+03   -0.37141E-02   -0.37960E-02  2880   0.156E-01 0.552E-02
CGA:  11    -0.997335354212E+03   -0.98736E-03   -0.10853E-02  2880   0.126E-01 0.195E-02
CGA:  12    -0.997337948690E+03   -0.25945E-02   -0.24574E-02  2880   0.722E-02 0.196E-02
CGA:  13    -0.997338557216E+03   -0.60853E-03   -0.55058E-03  2880   0.581E-02-0.145E-02
CGA:  14    -0.997336262405E+03    0.22948E-02   -0.21509E-02  2880   0.362E-01-0.123E-01
CGA:  15    -0.997338236966E+03   -0.19746E-02   -0.23128E-02  2880   0.127E-01 0.656E-02
CGA:  16    -0.997338717305E+03   -0.48034E-03   -0.74434E-03  2880   0.206E-02 0.407E-02
CGA:  17    -0.997338898415E+03   -0.18111E-03   -0.22339E-03  2880   0.238E-02 0.121E-02
CGA:  18    -0.997339185536E+03   -0.28712E-03   -0.31089E-03  2880   0.789E-02-0.157E-02
CGA:  19    -0.997339457756E+03   -0.27222E-03   -0.28978E-03  2880   0.736E-03 0.880E-04
CGA:  20    -0.997339659302E+03   -0.20155E-03   -0.15651E-03  2880   0.416E-03 0.459E-03
CGA:  21    -0.997339761123E+03   -0.10182E-03    0.54700E-03  2880   0.809E-03 0.776E-05
CGA:  22    -0.997339983881E+03   -0.22276E-03    0.31033E-03  2880   0.211E-03 0.312E-03
CGA:  23    -0.997339977195E+03    0.66859E-05   -0.97396E-05  2880   0.111E-03 0.196E-03
  22 F= -.99733998E+03 E0= -.99732846E+03  d E =0.458757E-01  mag=     2.0000
       N       E                     dE             d eps       ncg     rms          ort
SDA:   1    -0.995066024038E+03    0.22740E+01    0.00000E+00  2880   0.694E+01 0.000E+00
CGA:   2    -0.995795487137E+03   -0.72946E+00   -0.72995E+00  2880   0.991E+01 0.311E-02
CGA:   3    -0.997084196238E+03   -0.12887E+01   -0.13035E+01  2880   0.157E+01-0.397E+00
CGA:   4    -0.997241124249E+03   -0.15693E+00   -0.15696E+00  2880   0.764E+00 0.225E-01
CGA:   5    -0.997303675449E+03   -0.62551E-01   -0.63666E-01  2880   0.504E+00 0.163E-01
CGA:   6    -0.997353251587E+03   -0.49576E-01   -0.49687E-01  2880   0.749E-01-0.388E-03
CGA:   7    -0.997367063796E+03   -0.13812E-01   -0.14579E-01  2880   0.629E-01-0.891E-02
CGA:   8    -0.997370446217E+03   -0.33824E-02   -0.34978E-02  2880   0.346E-01 0.148E-02
CGA:   9    -0.997373317680E+03   -0.28715E-02   -0.30269E-02  2880   0.656E-02 0.713E-02
CGA:  10    -0.997373844214E+03   -0.52653E-03   -0.57493E-03  2880   0.697E-02 0.133E-02
CGA:  11    -0.997375147870E+03   -0.13037E-02   -0.12460E-02  2880   0.335E-02 0.135E-02
CGA:  12    -0.997375393995E+03   -0.24613E-03   -0.85088E-03  2880   0.252E-01-0.576E-02
CGA:  13    -0.997376228066E+03   -0.83407E-03   -0.90079E-03  2880   0.142E-02 0.663E-03
CGA:  14    -0.997376251011E+03   -0.22945E-04   -0.78043E-04  2880   0.797E-03 0.998E-03
CGA:  15    -0.997376284818E+03   -0.33807E-04   -0.53319E-04  2880   0.532E-03 0.488E-03
CGA:  16    -0.997376339078E+03   -0.54260E-04   -0.54654E-04  2880   0.593E-03 0.201E-03
CGA:  17    -0.997376425339E+03   -0.86261E-04   -0.86077E-04  2880   0.156E-03 0.288E-03
CGA:  18    -0.997376486572E+03   -0.61233E-04    0.46215E-04  2880   0.122E-03 0.106E-03
CGA:  19    -0.997376499949E+03   -0.13378E-04   -0.13909E-04  2880   0.333E-03-0.586E-04
CGA:  20    -0.997376547272E+03   -0.47322E-04    0.30203E-04  2880   0.678E-03 0.527E-04
CGA:  21    -0.997376611315E+03   -0.64043E-04   -0.54907E-04  2880   0.251E-03-0.270E-03
CGA:  22    -0.997376612875E+03   -0.15606E-05   -0.59956E-05  2880   0.713E-04 0.687E-04
  23 F= -.99737661E+03 E0= -.99736507E+03  d E =-.366357E-01  mag=     2.0000
       N       E                     dE             d eps       ncg     rms          ort
SDA:   1    -0.996429271135E+03    0.94734E+00    0.00000E+00  2880   0.290E+01 0.000E+00
CGA:   2    -0.996717741814E+03   -0.28847E+00   -0.28857E+00  2880   0.417E+01-0.338E-01
CGA:   3    -0.997279550447E+03   -0.56181E+00   -0.56561E+00  2880   0.390E+00-0.766E-01
CGA:   4    -0.997348751097E+03   -0.69201E-01   -0.68583E-01  2880   0.150E+00 0.897E-02
CGA:   5    -0.997369553098E+03   -0.20802E-01   -0.21072E-01  2880   0.824E-01-0.845E-02
CGA:   6    -0.997374582011E+03   -0.50289E-02   -0.47942E-02  2880   0.304E-01-0.459E-02
CGA:   7    -0.997378498493E+03   -0.39165E-02   -0.40110E-02  2880   0.147E-01-0.237E-02
CGA:   8    -0.997379764103E+03   -0.12656E-02   -0.12923E-02  2880   0.392E-02 0.334E-02
CGA:   9    -0.997380064699E+03   -0.30060E-03   -0.33973E-03  2880   0.200E-02 0.119E-02
CGA:  10    -0.997380626385E+03   -0.56169E-03   -0.53800E-03  2880   0.210E-02 0.221E-03
CGA:  11    -0.997380903284E+03   -0.27690E-03   -0.35963E-03  2880   0.318E-02-0.175E-02
CGA:  12    -0.997381023344E+03   -0.12006E-03   -0.13718E-03  2880   0.728E-03 0.238E-03
CGA:  13    -0.997381082691E+03   -0.59347E-04   -0.67283E-04  2880   0.370E-03 0.396E-03
CGA:  14    -0.997381132538E+03   -0.49847E-04   -0.72033E-04  2880   0.172E-02-0.252E-03
CGA:  15    -0.997381189104E+03   -0.56566E-04   -0.62155E-04  2880   0.104E-03 0.628E-04
CGA:  16    -0.997381191471E+03   -0.23670E-05   -0.60749E-05  2880   0.708E-04 0.753E-04
  24 F= -.99738119E+03 E0= -.99736974E+03  d E =-.457860E-02  mag=     2.0000
       N       E                     dE             d eps       ncg     rms          ort
SDA:   1    -0.997288815211E+03    0.92374E-01    0.00000E+00  2880   0.719E+00 0.000E+00
CGA:   2    -0.997319503125E+03   -0.30688E-01   -0.31808E-01  2880   0.192E+00-0.213E-01
CGA:   3    -0.997372335118E+03   -0.52832E-01   -0.53717E-01  2880   0.603E-01-0.474E-02
CGA:   4    -0.997377345778E+03   -0.50107E-02   -0.50586E-02  2880   0.399E-01 0.203E-02
CGA:   5    -0.997381090379E+03   -0.37446E-02   -0.37695E-02  2880   0.181E-01 0.116E-02
CGA:   6    -0.997383626791E+03   -0.25364E-02   -0.26397E-02  2880   0.603E-02-0.307E-02
CGA:   7    -0.997383975067E+03   -0.34828E-03   -0.34721E-03  2880   0.342E-02-0.622E-04
CGA:   8    -0.997384357849E+03   -0.38278E-03   -0.37991E-03  2880   0.704E-03 0.702E-03
CGA:   9    -0.997383833805E+03    0.52404E-03   -0.31520E-03  2880   0.910E-02-0.189E-02
CGA:  10    -0.997384369979E+03   -0.53617E-03   -0.63146E-03  2880   0.269E-02 0.590E-03
CGA:  11    -0.997384512964E+03   -0.14298E-03   -0.17943E-03  2880   0.909E-03 0.276E-03
CGA:  12    -0.997384727867E+03   -0.21490E-03   -0.22485E-03  2880   0.117E-03-0.253E-03
CGA:  13    -0.997384745521E+03   -0.17654E-04   -0.17398E-04  2880   0.142E-03 0.136E-04
CGA:  14    -0.997384759415E+03   -0.13894E-04   -0.12597E-04  2880   0.685E-04-0.132E-04
CGA:  15    -0.997384767278E+03   -0.78627E-05   -0.70082E-05  2880   0.253E-04-0.126E-04
  25 F= -.99738477E+03 E0= -.99737334E+03  d E =-.357581E-02  mag=     2.0000
       N       E                     dE             d eps       ncg     rms          ort
SDA:   1    -0.997304884015E+03    0.79875E-01    0.00000E+00  2880   0.186E+00 0.000E+00
CGA:   2    -0.997358028781E+03   -0.53145E-01   -0.53428E-01  2880   0.352E+00-0.294E-02
CGA:   3    -0.997374815411E+03   -0.16787E-01   -0.17615E-01  2880   0.454E-01-0.112E-01
CGA:   4    -0.997379666291E+03   -0.48509E-02   -0.50158E-02  2880   0.157E-01 0.268E-02
CGA:   5    -0.997382796832E+03   -0.31305E-02   -0.31510E-02  2880   0.341E-02-0.972E-03
CGA:   6    -0.997383070333E+03   -0.27350E-03   -0.28011E-03  2880   0.329E-02 0.579E-04
CGA:   7    -0.997383406406E+03   -0.33607E-03   -0.34999E-03  2880   0.596E-03 0.218E-03
CGA:   8    -0.997383520704E+03   -0.11430E-03   -0.16843E-03  2880   0.160E-02-0.530E-03
CGA:   9    -0.997383572329E+03   -0.51626E-04   -0.81697E-04  2880   0.303E-03 0.259E-03
CGA:  10    -0.997383576030E+03   -0.37009E-05   -0.16638E-04  2880   0.718E-04 0.112E-03
  26 F= -.99738358E+03 E0= -.99737212E+03  d E =0.119125E-02  mag=     2.0000
       N       E                     dE             d eps       ncg     rms          ort
SDA:   1    -0.996010116489E+03    0.13735E+01    0.00000E+00  2880   0.324E+01 0.000E+00
CGA:   2    -0.996831866937E+03   -0.82175E+00   -0.81112E+00  2880   0.654E+01 0.116E+00
CGA:   3    -0.997215074144E+03   -0.38321E+00   -0.42467E+00  2880   0.113E+01-0.898E+00
CGA:   4    -0.997298070836E+03   -0.82997E-01   -0.85846E-01  2880   0.373E+00 0.391E-03
CGA:   5    -0.997337478117E+03   -0.39407E-01   -0.39873E-01  2880   0.285E+00 0.193E-02
CGA:   6    -0.997360781652E+03   -0.23304E-01   -0.23374E-01  2880   0.447E-01-0.367E-02
CGA:   7    -0.997365264459E+03   -0.44828E-02   -0.44681E-02  2880   0.440E-01-0.844E-03
CGA:   8    -0.997370468506E+03   -0.52040E-02   -0.51964E-02  2880   0.985E-02-0.558E-03
CGA:   9    -0.997371062363E+03   -0.59386E-03   -0.65255E-03  2880   0.465E-02 0.653E-03
CGA:  10    -0.997371872899E+03   -0.81054E-03   -0.78678E-03  2880   0.201E-02 0.110E-02
CGA:  11    -0.997372237108E+03   -0.36421E-03   -0.37783E-03  2880   0.566E-02-0.992E-03
CGA:  12    -0.997372513773E+03   -0.27667E-03   -0.18713E-03  2880   0.439E-02-0.122E-02
CGA:  13    -0.997372606973E+03   -0.93200E-04   -0.85844E-04  2880   0.135E-02-0.993E-04
CGA:  14    -0.997372608057E+03   -0.10847E-05   -0.36489E-04  2880   0.107E-02 0.348E-03
CGA:  15    -0.997372589489E+03    0.18568E-04   -0.43176E-04  2880   0.105E-02 0.690E-03
CGA:  16    -0.997372632150E+03   -0.42661E-04   -0.54759E-04  2880   0.524E-03 0.167E-03
CGA:  17    -0.997372713915E+03   -0.81764E-04   -0.78027E-04  2880   0.244E-03 0.318E-03
CGA:  18    -0.997372368647E+03    0.34527E-03   -0.11304E-03  2880   0.166E-01-0.134E-02
CGA:  19    -0.997372891982E+03   -0.52333E-03   -0.57301E-03  2880   0.915E-04 0.119E-03
CGA:  20    -0.997372884739E+03    0.72431E-05   -0.15874E-05  2880   0.662E-04 0.788E-04
  27 F= -.99737288E+03 E0= -.99736127E+03  d E =0.106913E-01  mag=     2.0000
       N       E                     dE             d eps       ncg     rms          ort
SDA:   1    -0.997002738179E+03    0.37015E+00    0.00000E+00  2880   0.997E+00 0.000E+00
CGA:   2    -0.997145961686E+03   -0.14322E+00   -0.14363E+00  2880   0.207E+01-0.177E-01
CGA:   3    -0.997335461671E+03   -0.18950E+00   -0.18835E+00  2880   0.192E+00-0.177E-01
CGA:   4    -0.997362778050E+03   -0.27316E-01   -0.27207E-01  2880   0.587E-01 0.893E-02
CGA:   5    -0.997373885602E+03   -0.11108E-01   -0.11210E-01  2880   0.212E-01-0.177E-02
CGA:   6    -0.997376085060E+03   -0.21995E-02   -0.21098E-02  2880   0.201E-01-0.457E-02
CGA:   7    -0.997377341828E+03   -0.12568E-02   -0.11705E-02  2880   0.718E-02-0.184E-02
CGA:   8    -0.997377820108E+03   -0.47828E-03   -0.55602E-03  2880   0.254E-02 0.236E-02
CGA:   9    -0.997377909472E+03   -0.89364E-04   -0.15661E-03  2880   0.855E-03 0.966E-03
CGA:  10    -0.997378003132E+03   -0.93660E-04   -0.10804E-03  2880   0.738E-03 0.640E-03
CGA:  11    -0.997378171493E+03   -0.16836E-03    0.43636E-02  2880   0.120E-02-0.161E-03
CGA:  12    -0.997378412363E+03   -0.24087E-03    0.38126E-03  2880   0.868E-03-0.118E-03
CGA:  13    -0.997378436462E+03   -0.24098E-04   -0.44937E-04  2880   0.459E-03 0.377E-03
CGA:  14    -0.997378422585E+03    0.13876E-04   -0.18015E-04  2880   0.166E-03 0.389E-03
CGA:  15    -0.997378414917E+03    0.76681E-05   -0.35390E-05  2880   0.112E-03 0.132E-03
  28 F= -.99737841E+03 E0= -.99736688E+03  d E =-.553018E-02  mag=     2.0000
       N       E                     dE             d eps       ncg     rms          ort
SDA:   1    -0.995396566448E+03    0.19819E+01    0.00000E+00  2880   0.507E+01 0.000E+00
CGA:   2    -0.996391792457E+03   -0.99523E+00   -0.97882E+00  2880   0.917E+01 0.293E+00
CGA:   3    -0.997109084843E+03   -0.71729E+00   -0.70214E+00  2880   0.180E+01-0.342E+00
CGA:   4    -0.997271871105E+03   -0.16279E+00   -0.16274E+00  2880   0.566E+00 0.182E-01
CGA:   5    -0.997324398929E+03   -0.52528E-01   -0.52800E-01  2880   0.409E+00 0.182E-01
CGA:   6    -0.997367347229E+03   -0.42948E-01   -0.42938E-01  2880   0.787E-01 0.154E-03
CGA:   7    -0.997376664290E+03   -0.93171E-02   -0.95055E-02  2880   0.845E-01-0.938E-02
CGA:   8    -0.997382776965E+03   -0.61127E-02   -0.60410E-02  2880   0.220E-01-0.434E-02
CGA:   9    -0.997385307438E+03   -0.25305E-02   -0.24408E-02  2880   0.408E-02 0.560E-02
CGA:  10    -0.997385917962E+03   -0.61052E-03   -0.58498E-03  2880   0.370E-02 0.194E-02
CGA:  11    -0.997386722878E+03   -0.80492E-03   -0.78921E-03  2880   0.418E-02 0.335E-03
CGA:  12    -0.997387232635E+03   -0.50976E-03   -0.54363E-03  2880   0.334E-02-0.226E-02
CGA:  13    -0.997387419558E+03   -0.18692E-03   -0.17904E-03  2880   0.147E-02-0.195E-03
CGA:  14    -0.997386762322E+03    0.65724E-03   -0.41705E-03  2880   0.117E-01-0.276E-02
CGA:  15    -0.997387253825E+03   -0.49150E-03   -0.58822E-03  2880   0.369E-02 0.541E-03
CGA:  16    -0.997387554964E+03   -0.30114E-03   -0.37360E-03  2880   0.120E-02 0.903E-03
CGA:  17    -0.997387827515E+03   -0.27255E-03   -0.27622E-03  2880   0.175E-02-0.388E-03
CGA:  18    -0.997387886759E+03   -0.59245E-04   -0.42268E-04  2880   0.406E-03-0.129E-03
CGA:  19    -0.997387901570E+03   -0.14811E-04   -0.13348E-04  2880   0.219E-03-0.147E-04
CGA:  20    -0.997387915139E+03   -0.13569E-04   -0.14134E-04  2880   0.222E-03 0.600E-05
CGA:  21    -0.997387926326E+03   -0.11186E-04   -0.10193E-04  2880   0.100E-03-0.105E-04
CGA:  22    -0.997387939495E+03   -0.13170E-04   -0.10860E-04  2880   0.249E-03-0.619E-04
CGA:  23    -0.997387946639E+03   -0.71436E-05   -0.90861E-05  2880   0.193E-04 0.143E-04
  29 F= -.99738795E+03 E0= -.99737658E+03  d E =-.953172E-02  mag=     2.0000
       N       E                     dE             d eps       ncg     rms          ort
SDA:   1    -0.997191814347E+03    0.19613E+00    0.00000E+00  2880   0.460E+00 0.000E+00
CGA:   2    -0.997319057678E+03   -0.12724E+00   -0.12893E+00  2880   0.922E+00-0.128E-01
CGA:   3    -0.997361371155E+03   -0.42313E-01   -0.44624E-01  2880   0.877E-01-0.384E-01
CGA:   4    -0.997376944497E+03   -0.15573E-01   -0.15248E-01  2880   0.267E-01 0.925E-02
CGA:   5    -0.997381374194E+03   -0.44297E-02   -0.44654E-02  2880   0.323E-01-0.509E-02
CGA:   6    -0.997382908515E+03   -0.15343E-02   -0.13822E-02  2880   0.669E-02-0.146E-02
CGA:   7    -0.997383280967E+03   -0.37245E-03   -0.48672E-03  2880   0.507E-02 0.189E-02
CGA:   8    -0.997383495078E+03   -0.21411E-03   -0.35381E-03  2880   0.139E-02 0.171E-02
CGA:   9    -0.997383724714E+03   -0.22964E-03   -0.23207E-03  2880   0.154E-02 0.304E-03
CGA:  10    -0.997383903873E+03   -0.17916E-03   -0.15583E-03  2880   0.105E-02-0.488E-03
CGA:  11    -0.997380048635E+03    0.38552E-02   -0.21017E-02  2880   0.367E-01-0.622E-02
CGA:  12    -0.997381740725E+03   -0.16921E-02   -0.20499E-02  2880   0.139E-01 0.652E-03
CGA:  13    -0.997382619350E+03   -0.87863E-03   -0.11737E-02  2880   0.323E-02 0.263E-02
CGA:  14    -0.997383313229E+03   -0.69388E-03   -0.70585E-03  2880   0.483E-02 0.320E-03
CGA:  15    -0.997383712600E+03   -0.39937E-03   -0.33973E-03  2880   0.102E-02-0.399E-03
CGA:  16    -0.997381263069E+03    0.24495E-02   -0.76128E-03  2880   0.495E-01-0.520E-02
CGA:  17    -0.997383513885E+03   -0.22508E-02   -0.25399E-02  2880   0.103E-01 0.395E-02
CGA:  18    -0.997383834262E+03   -0.32038E-03   -0.57843E-03  2880   0.111E-02 0.226E-02
CGA:  19    -0.997383823581E+03    0.10681E-04   -0.78309E-04  2880   0.809E-03 0.543E-03
CGA:  20    -0.997383834042E+03   -0.10460E-04   -0.90272E-04  2880   0.506E-03 0.584E-03
CGA:  21    -0.997384098186E+03   -0.26414E-03    0.20123E-03  2880   0.181E-02-0.274E-03
CGA:  22    -0.997384132278E+03   -0.34092E-04   -0.66651E-04  2880   0.181E-03 0.154E-03
CGA:  23    -0.997384116543E+03    0.15735E-04   -0.76047E-05  2880   0.135E-03 0.147E-03
CGA:  24    -0.997384110147E+03    0.63956E-05   -0.68044E-05  2880   0.961E-04 0.942E-04
  30 F= -.99738411E+03 E0= -.99737273E+03  d E =0.383649E-02  mag=     2.0000
       N       E                     dE             d eps       ncg     rms          ort
SDA:   1    -0.997108151732E+03    0.27596E+00    0.00000E+00  2880   0.655E+00 0.000E+00
CGA:   2    -0.997281555976E+03   -0.17340E+00   -0.17325E+00  2880   0.131E+01 0.361E-03
CGA:   3    -0.997352958416E+03   -0.71402E-01   -0.71022E-01  2880   0.134E+00-0.184E-01
CGA:   4    -0.997370805580E+03   -0.17847E-01   -0.17913E-01  2880   0.648E-01 0.333E-02
CGA:   5    -0.997379321595E+03   -0.85160E-02   -0.84518E-02  2880   0.393E-01-0.194E-02
CGA:   6    -0.997381391345E+03   -0.20698E-02   -0.20218E-02  2880   0.703E-02-0.607E-03
CGA:   7    -0.997382975723E+03   -0.15844E-02   -0.15383E-02  2880   0.165E-02 0.821E-03
CGA:   8    -0.997383318153E+03   -0.34243E-03   -0.39010E-03  2880   0.638E-02-0.110E-02
CGA:   9    -0.997383526076E+03   -0.20792E-03   -0.23980E-03  2880   0.543E-03 0.197E-03
CGA:  10    -0.997383535863E+03   -0.97864E-05   -0.36963E-04  2880   0.254E-03 0.280E-03
CGA:  11    -0.997383587310E+03   -0.51447E-04   -0.50390E-04  2880   0.741E-03 0.250E-04
CGA:  12    -0.997383686965E+03   -0.99655E-04   -0.98413E-04  2880   0.195E-03-0.370E-04
CGA:  13    -0.997383707441E+03   -0.20476E-04   -0.47496E-04  2880   0.188E-02-0.285E-03
CGA:  14    -0.997383772301E+03   -0.64861E-04   -0.66796E-04  2880   0.437E-04-0.765E-06
CGA:  15    -0.997383772384E+03   -0.83033E-07   -0.29412E-05  2880   0.251E-04 0.317E-04
  31 F= -.99738377E+03 E0= -.99737230E+03  d E =0.337762E-03  mag=     2.0000
       N       E                     dE             d eps       ncg     rms          ort
SDA:   1    -0.997339354462E+03    0.44418E-01    0.00000E+00  2880   0.105E+00 0.000E+00
CGA:   2    -0.997374598429E+03   -0.35244E-01   -0.35488E-01  2880   0.136E+00-0.140E-02
CGA:   3    -0.997380481341E+03   -0.58829E-02   -0.58702E-02  2880   0.167E-01 0.156E-03
CGA:   4    -0.997384180667E+03   -0.36993E-02   -0.36343E-02  2880   0.343E-02 0.104E-02
CGA:   5    -0.997384812121E+03   -0.63145E-03   -0.74353E-03  2880   0.982E-02-0.240E-02
CGA:   6    -0.997385134294E+03   -0.32217E-03   -0.38887E-03  2880   0.114E-02 0.497E-03
CGA:   7    -0.997385143611E+03   -0.93163E-05   -0.60903E-04  2880   0.341E-03 0.514E-03
CGA:   8    -0.997385140565E+03    0.30453E-05   -0.22008E-04  2880   0.227E-03 0.241E-03
CGA:   9    -0.997385124803E+03    0.15762E-04   -0.12274E-03  2880   0.425E-02-0.353E-03
CGA:  10    -0.997385260397E+03   -0.13559E-03   -0.15578E-03  2880   0.228E-03 0.102E-03
CGA:  11    -0.997385265266E+03   -0.48697E-05   -0.13323E-04  2880   0.512E-04 0.849E-04
  32 F= -.99738527E+03 E0= -.99737382E+03  d E =-.149288E-02  mag=     2.0000
       N       E                     dE             d eps       ncg     rms          ort
SDA:   1    -0.996078159828E+03    0.13071E+01    0.00000E+00  2880   0.345E+01 0.000E+00
CGA:   2    -0.996605281827E+03   -0.52712E+00   -0.52647E+00  2880   0.675E+01 0.555E-01
CGA:   3    -0.997238604065E+03   -0.63332E+00   -0.62425E+00  2880   0.676E+00-0.934E-01
CGA:   4    -0.997318512326E+03   -0.79908E-01   -0.79896E-01  2880   0.445E+00 0.103E-01
CGA:   5    -0.997353976337E+03   -0.35464E-01   -0.36289E-01  2880   0.224E+00-0.133E-02
CGA:   6    -0.997375741560E+03   -0.21765E-01   -0.21771E-01  2880   0.375E-01-0.732E-02
CGA:   7    -0.997381792617E+03   -0.60511E-02   -0.61661E-02  2880   0.493E-01-0.372E-02
CGA:   8    -0.997384601719E+03   -0.28091E-02   -0.27812E-02  2880   0.102E-01-0.592E-03
CGA:   9    -0.997385632626E+03   -0.10309E-02   -0.10998E-02  2880   0.236E-02 0.267E-02
CGA:  10    -0.997386005900E+03   -0.37327E-03   -0.38008E-03  2880   0.311E-02 0.915E-03
CGA:  11    -0.997386503272E+03   -0.49737E-03   -0.49636E-03  2880   0.201E-02-0.770E-04
CGA:  12    -0.997386755656E+03   -0.25238E-03   -0.36397E-03  2880   0.586E-02-0.217E-02
CGA:  13    -0.997386971556E+03   -0.21590E-03   -0.23347E-03  2880   0.846E-03 0.117E-03
CGA:  14    -0.997387041950E+03   -0.70394E-04   -0.85759E-04  2880   0.352E-03 0.482E-03
CGA:  15    -0.997387096336E+03   -0.54387E-04   -0.55253E-04  2880   0.854E-03-0.352E-04
CGA:  16    -0.997387188785E+03   -0.92449E-04   -0.89722E-04  2880   0.141E-03-0.192E-03
CGA:  17    -0.997387202014E+03   -0.13229E-04   -0.13315E-04  2880   0.626E-04 0.969E-05
CGA:  18    -0.997387205879E+03   -0.38647E-05   -0.58341E-05  2880   0.420E-04 0.460E-04
CGA:  19    -0.997387187206E+03    0.18673E-04   -0.25318E-04  2880   0.739E-03-0.916E-04
CGA:  20    -0.997387230773E+03   -0.43566E-04   -0.40379E-04  2880   0.159E-03-0.304E-04
CGA:  21    -0.997387242518E+03   -0.11745E-04   -0.99985E-05  2880   0.148E-04-0.232E-04
CGA:  22    -0.997387241382E+03    0.11361E-05   -0.24224E-06  2880   0.113E-04 0.112E-04
  33 F= -.99738724E+03 E0= -.99737591E+03  d E =-.197612E-02  mag=     2.0000
       N       E                     dE             d eps       ncg     rms          ort
SDA:   1    -0.996789141954E+03    0.59810E+00    0.00000E+00  2880   0.149E+01 0.000E+00
CGA:   2    -0.997107296858E+03   -0.31815E+00   -0.31717E+00  2880   0.321E+01 0.122E-01
CGA:   3    -0.997308815914E+03   -0.20152E+00   -0.20474E+00  2880   0.444E+00-0.809E-01
CGA:   4    -0.997354200752E+03   -0.45385E-01   -0.45709E-01  2880   0.129E+00 0.148E-01
CGA:   5    -0.997376906658E+03   -0.22706E-01   -0.22669E-01  2880   0.103E+00 0.981E-03
CGA:   6    -0.997382297334E+03   -0.53907E-02   -0.53284E-02  2880   0.148E-01-0.140E-02
CGA:   7    -0.997385948420E+03   -0.36511E-02   -0.45704E-02  2880   0.195E-01-0.497E-02
CGA:   8    -0.997386477268E+03   -0.52885E-03   -0.59192E-03  2880   0.657E-02 0.535E-03
CGA:   9    -0.997386733607E+03   -0.25634E-03   -0.40119E-03  2880   0.417E-02 0.205E-02
CGA:  10    -0.997386857768E+03   -0.12416E-03   -0.25096E-03  2880   0.148E-02 0.157E-02
CGA:  11    -0.997387000129E+03   -0.14236E-03   -0.17011E-03  2880   0.190E-02 0.666E-03
CGA:  12    -0.997387272066E+03   -0.27194E-03   -0.26785E-03  2880   0.669E-03-0.169E-03
CGA:  13    -0.997387530151E+03   -0.25808E-03    0.49676E-04  2880   0.366E-03-0.490E-04
CGA:  14    -0.997387649420E+03   -0.11927E-03    0.46058E-04  2880   0.348E-03 0.974E-04
CGA:  15    -0.997387666789E+03   -0.17369E-04   -0.29286E-04  2880   0.156E-03 0.216E-03
CGA:  16    -0.997387658021E+03    0.87688E-05   -0.38074E-05  2880   0.117E-03 0.134E-03
  34 F= -.99738766E+03 E0= -.99737624E+03  d E =-.416639E-03  mag=     2.0000
       N       E                     dE             d eps       ncg     rms          ort
SDA:   1    -0.996109619900E+03    0.12780E+01    0.00000E+00  2880   0.302E+01 0.000E+00
CGA:   2    -0.996997319409E+03   -0.88770E+00   -0.87086E+00  2880   0.384E+01 0.125E+00
CGA:   3    -0.997216152220E+03   -0.21883E+00   -0.22667E+00  2880   0.116E+01-0.203E+00
CGA:   4    -0.997310175654E+03   -0.94023E-01   -0.95000E-01  2880   0.260E+00 0.311E-01
CGA:   5    -0.997358981168E+03   -0.48806E-01   -0.48856E-01  2880   0.186E+00-0.129E-02
CGA:   6    -0.997367433229E+03   -0.84521E-02   -0.87040E-02  2880   0.407E-01-0.288E-02
CGA:   7    -0.997373304470E+03   -0.58712E-02   -0.57679E-02  2880   0.190E-01 0.334E-02
CGA:   8    -0.997376136491E+03   -0.28320E-02   -0.28883E-02  2880   0.240E-01-0.233E-02
CGA:   9    -0.997377286867E+03   -0.11504E-02   -0.11092E-02  2880   0.452E-02-0.654E-03
CGA:  10    -0.997377595519E+03   -0.30865E-03   -0.34823E-03  2880   0.386E-02 0.115E-02
CGA:  11    -0.997377862505E+03   -0.26699E-03   -0.31434E-03  2880   0.149E-02 0.999E-03
CGA:  12    -0.997378077537E+03   -0.21503E-03   -0.76410E-03  2880   0.779E-02-0.183E-02
CGA:  13    -0.997378362667E+03   -0.28513E-03   -0.32426E-03  2880   0.134E-02 0.355E-03
CGA:  14    -0.997378474144E+03   -0.11148E-03   -0.12778E-03  2880   0.524E-03 0.563E-03
CGA:  15    -0.997378572462E+03   -0.98318E-04   -0.99443E-04  2880   0.917E-03-0.780E-04
CGA:  16    -0.997378630032E+03   -0.57571E-04   -0.45542E-04  2880   0.187E-03-0.199E-03
CGA:  17    -0.997378642659E+03   -0.12626E-04   -0.83686E-05  2880   0.191E-03-0.742E-04
CGA:  18    -0.997378676098E+03   -0.33440E-04    0.23346E-04  2880   0.289E-03 0.282E-04
CGA:  19    -0.997378698615E+03   -0.22516E-04   -0.19638E-04  2880   0.762E-04-0.556E-04
CGA:  20    -0.997378697912E+03    0.70276E-06   -0.24613E-05  2880   0.399E-04 0.446E-04
  35 F= -.99737870E+03 E0= -.99736722E+03  d E =0.896011E-02  mag=     2.0000
       N       E                     dE             d eps       ncg     rms          ort
SDA:   1    -0.997323797408E+03    0.54901E-01    0.00000E+00  2880   0.139E+00 0.000E+00
CGA:   2    -0.997367943943E+03   -0.44147E-01   -0.47359E-01  2880   0.157E+00-0.134E-01
CGA:   3    -0.997374486310E+03   -0.65424E-02   -0.67985E-02  2880   0.432E-01 0.452E-03
CGA:   4    -0.997378963435E+03   -0.44771E-02   -0.45231E-02  2880   0.149E-01 0.663E-02
CGA:   5    -0.997380401081E+03   -0.14376E-02   -0.14447E-02  2880   0.147E-01 0.182E-03
CGA:   6    -0.997381885984E+03   -0.14849E-02   -0.14575E-02  2880   0.254E-02-0.221E-02
CGA:   7    -0.997378811447E+03    0.30745E-02   -0.17141E-02  2880   0.533E-01-0.769E-02
CGA:   8    -0.997381560012E+03   -0.27486E-02   -0.30285E-02  2880   0.120E-01 0.421E-02
CGA:   9    -0.997382000580E+03   -0.44057E-03   -0.66307E-03  2880   0.179E-02 0.194E-02
CGA:  10    -0.997382194758E+03   -0.19418E-03   -0.24524E-03  2880   0.165E-02 0.754E-03
CGA:  11    -0.997382420183E+03   -0.22542E-03   -0.21750E-03  2880   0.111E-02-0.104E-03
CGA:  12    -0.997382601607E+03   -0.18142E-03   -0.15480E-03  2880   0.141E-02-0.921E-03
CGA:  13    -0.997382644316E+03   -0.42709E-04   -0.61362E-04  2880   0.315E-03 0.132E-03
CGA:  14    -0.997382648791E+03   -0.44749E-05   -0.23065E-04  2880   0.150E-03 0.182E-03
CGA:  15    -0.997382667504E+03   -0.18713E-04   -0.18259E-04  2880   0.257E-03-0.118E-04
CGA:  16    -0.997382692013E+03   -0.24509E-04   -0.24037E-04  2880   0.341E-04-0.843E-05
CGA:  17    -0.997382690384E+03    0.16293E-05   -0.11407E-05  2880   0.194E-04 0.222E-04
  36 F= -.99738269E+03 E0= -.99737117E+03  d E =-.399247E-02  mag=     2.0000
       N       E                     dE             d eps       ncg     rms          ort
SDA:   1    -0.997128796549E+03    0.25390E+00    0.00000E+00  2880   0.698E+00 0.000E+00
CGA:   2    -0.997223532973E+03   -0.94736E-01   -0.94636E-01  2880   0.139E+01-0.120E-01
CGA:   3    -0.997358761606E+03   -0.13523E+00   -0.13505E+00  2880   0.120E+00-0.550E-02
CGA:   4    -0.997374866129E+03   -0.16105E-01   -0.16129E-01  2880   0.489E-01 0.684E-02
CGA:   5    -0.997383283188E+03   -0.84171E-02   -0.84707E-02  2880   0.181E-01-0.284E-02
CGA:   6    -0.997384451972E+03   -0.11688E-02   -0.10860E-02  2880   0.100E-01-0.115E-02
CGA:   7    -0.997385820750E+03   -0.13688E-02   -0.13762E-02  2880   0.410E-02-0.148E-02
CGA:   8    -0.997386147615E+03   -0.32687E-03   -0.35966E-03  2880   0.830E-03 0.881E-03
CGA:   9    -0.997386181917E+03   -0.34303E-04   -0.69252E-04  2880   0.438E-03 0.496E-03
CGA:  10    -0.997386262174E+03   -0.80256E-04   -0.75460E-04  2880   0.525E-03 0.129E-03
CGA:  11    -0.997386337213E+03   -0.75039E-04   -0.72131E-04  2880   0.573E-03-0.981E-04
CGA:  12    -0.997386402094E+03   -0.64881E-04   -0.67282E-04  2880   0.324E-03-0.288E-03
CGA:  13    -0.997386417243E+03   -0.15149E-04   -0.20118E-04  2880   0.184E-03 0.653E-04
CGA:  14    -0.997386432968E+03   -0.15725E-04   -0.19618E-04  2880   0.566E-04 0.888E-04
CGA:  15    -0.997386177823E+03    0.25514E-03   -0.13724E-03  2880   0.518E-02-0.459E-03
CGA:  16    -0.997386365519E+03   -0.18770E-03   -0.20977E-03  2880   0.623E-03 0.612E-04
CGA:  17    -0.997386399549E+03   -0.34029E-04   -0.57045E-04  2880   0.195E-03 0.169E-03
CGA:  18    -0.997386454752E+03   -0.55204E-04   -0.55316E-04  2880   0.331E-03-0.523E-04
CGA:  19    -0.997386468862E+03   -0.14109E-04   -0.86498E-05  2880   0.502E-04-0.312E-04
CGA:  20    -0.997386471743E+03   -0.28811E-05   -0.17520E-05  2880   0.292E-04-0.707E-05
  37 F= -.99738647E+03 E0= -.99737501E+03  d E =-.378136E-02  mag=     2.0000
