       N       E                     dE             d eps       ncg     rms          rms(c)
DAV:   1     0.308513378213E+04    0.30851E+04   -0.25820E+05 11576   0.131E+03
DAV:   2    -0.602577983256E+03   -0.36877E+04   -0.35524E+04 13904   0.298E+02
DAV:   3    -0.872692960906E+03   -0.27011E+03   -0.26825E+03 14032   0.848E+01
DAV:   4    -0.876187143417E+03   -0.34942E+01   -0.34804E+01 13888   0.103E+01
DAV:   5    -0.876250059871E+03   -0.62916E-01   -0.62752E-01 14272   0.127E+00    0.990E+01
DAV:   6    -0.780334708417E+03    0.95915E+02   -0.40564E+02 12912   0.319E+01    0.503E+01
DAV:   7    -0.789447276725E+03   -0.91126E+01   -0.21686E+01 13120   0.765E+00    0.163E+01
DAV:   8    -0.793761647714E+03   -0.43144E+01   -0.17332E+00 13496   0.249E+00    0.784E+00
DAV:   9    -0.796114862192E+03   -0.23532E+01   -0.12229E+00 13872   0.176E+00    0.388E+00
DAV:  10    -0.796637920648E+03   -0.52306E+00   -0.31350E-01 13008   0.955E-01    0.112E+00
DAV:  11    -0.796710831061E+03   -0.72910E-01   -0.40114E-02 14040   0.351E-01    0.612E-01
DAV:  12    -0.796720850791E+03   -0.10020E-01   -0.55054E-03 13200   0.139E-01    0.272E-01
DAV:  13    -0.796723023022E+03   -0.21722E-02   -0.11416E-03 13816   0.651E-02    0.834E-02
DAV:  14    -0.796723402507E+03   -0.37949E-03   -0.31356E-04 13032   0.353E-02    0.432E-02
DAV:  15    -0.796723428662E+03   -0.26155E-04   -0.37897E-05 12512   0.172E-02    0.274E-02
DAV:  16    -0.796723436694E+03   -0.80327E-05   -0.20374E-05 10112   0.140E-02
   1 F= -.79672344E+03 E0= -.79672344E+03  d E =-.796723E+03  mag=    -0.0034
       N       E                     dE             d eps       ncg     rms          rms(c)
DAV:   1    -0.796723368150E+03    0.60511E-04   -0.19785E-02 12072   0.265E-01    0.980E-02
DAV:   2    -0.796723393134E+03   -0.24984E-04   -0.78783E-04 14216   0.494E-02    0.342E-02
DAV:   3    -0.796723376018E+03    0.17115E-04   -0.23663E-05 11024   0.125E-02    0.145E-02
DAV:   4    -0.796723370739E+03    0.52790E-05   -0.12369E-05  9328   0.970E-03
   2 F= -.79672337E+03 E0= -.79672337E+03  d E =0.659550E-04  mag=    -0.0002
       N       E                     dE             d eps       ncg     rms          rms(c)
DAV:   1    -0.796723462294E+03   -0.86276E-04   -0.85773E-03 11920   0.174E-01    0.645E-02
DAV:   2    -0.796723470679E+03   -0.83844E-05   -0.33728E-04 14120   0.323E-02    0.215E-02
DAV:   3    -0.796723462816E+03    0.78623E-05   -0.97613E-06  8840   0.794E-03    0.940E-03
DAV:   4    -0.796723461054E+03    0.17625E-05   -0.58829E-06  7400   0.618E-03
   3 F= -.79672346E+03 E0= -.79672346E+03  d E =-.243594E-04  mag=    -0.0000
