       N       E                     dE             d eps       ncg     rms          ort
DAV:   1     0.285340643951E+04    0.28534E+04   -0.29281E+05  2880   0.140E+03
DAV:   2    -0.966532183910E+03   -0.38199E+04   -0.36851E+04  2880   0.314E+02
DAV:   3    -0.123111153513E+04   -0.26458E+03   -0.26278E+03  2880   0.857E+01
DAV:   4    -0.123428459016E+04   -0.31731E+01   -0.31615E+01  2880   0.999E+00
DAV:   5    -0.123433868194E+04   -0.54092E-01   -0.53963E-01  2880   0.119E+00
SDA:   6    -0.873199895203E+03    0.36114E+03   -0.53963E-01  2880   0.619E+03 0.000E+00
CGA:   7    -0.986216334751E+03   -0.11302E+03   -0.11282E+03  2880   0.442E+02-0.266E+01
CGA:   8    -0.999414831662E+03   -0.13198E+02   -0.13172E+02  2880   0.105E+02 0.221E+00
CGA:   9    -0.100326178781E+04   -0.38470E+01   -0.38484E+01  2880   0.402E+01-0.136E-01
CGA:  10    -0.100453350884E+04   -0.12717E+01   -0.12755E+01  2880   0.869E+00-0.325E-01
CGA:  11    -0.100486822249E+04   -0.33471E+00   -0.33486E+00  2880   0.190E+00-0.708E-03
CGA:  12    -0.100493365674E+04   -0.65434E-01   -0.65423E-01  2880   0.435E-01 0.554E-04
CGA:  13    -0.100495006982E+04   -0.16413E-01   -0.16539E-01  2880   0.999E-02-0.869E-03
CGA:  14    -0.100495379976E+04   -0.37299E-02   -0.36510E-02  2880   0.218E-02 0.586E-03
CGA:  15    -0.100495475789E+04   -0.95813E-03   -0.92809E-03  2880   0.543E-03 0.191E-03
CGA:  16    -0.100495503799E+04   -0.28010E-03   -0.37821E-03  2880   0.403E-03-0.254E-03
CGA:  17    -0.100495510305E+04   -0.65056E-04   -0.65056E-04  2880   0.161E-03-0.508E-06
CGA:  18    -0.100495513195E+04   -0.28907E-04   -0.32264E-04  2880   0.655E-04 0.451E-04
CGA:  19    -0.100495514546E+04   -0.13512E-04   -0.16093E-04  2880   0.343E-04 0.327E-04
CGA:  20    -0.100495515546E+04   -0.99938E-05   -0.10859E-04  2880   0.153E-04 0.155E-04
   1 F= -.10049552E+04 E0= -.10049552E+04  d E =-.100496E+04  mag=    -0.0000
       N       E                     dE             d eps       ncg     rms          ort
SDA:   1    -0.100495066094E+04    0.44845E-02    0.00000E+00  2880   0.104E-01 0.000E+00
CGA:   2    -0.100495449830E+04   -0.38374E-02   -0.39122E-02  2880   0.251E-02-0.695E-03
CGA:   3    -0.100495506011E+04   -0.56181E-03   -0.56813E-03  2880   0.339E-03 0.202E-03
CGA:   4    -0.100495511316E+04   -0.53051E-04   -0.64932E-04  2880   0.657E-04 0.126E-03
CGA:   5    -0.100495512300E+04   -0.98437E-05   -0.14117E-04  2880   0.229E-04 0.386E-04
CGA:   6    -0.100495509045E+04    0.32554E-04   -0.19792E-04  2880   0.215E-03-0.489E-04
CGA:   7    -0.100495512389E+04   -0.33441E-04   -0.43307E-04  2880   0.225E-04 0.358E-04
CGA:   8    -0.100495512725E+04   -0.33655E-05   -0.57500E-05  2880   0.631E-05 0.977E-05
   2 F= -.10049551E+04 E0= -.10049551E+04  d E =0.282039E-04  mag=    -0.0000
       N       E                     dE             d eps       ncg     rms          ort
SDA:   1    -0.100495395932E+04    0.11646E-02    0.00000E+00  2880   0.304E-02 0.000E+00
CGA:   2    -0.100495495112E+04   -0.99180E-03   -0.10145E-02  2880   0.543E-03 0.190E-03
CGA:   3    -0.100495515500E+04   -0.20388E-03   -0.19669E-03  2880   0.125E-03-0.678E-04
CGA:   4    -0.100495519858E+04   -0.43585E-04   -0.39269E-04  2880   0.513E-04-0.514E-04
CGA:   5    -0.100495520233E+04   -0.37455E-05   -0.60195E-05  2880   0.155E-04 0.952E-05
   3 F= -.10049552E+04 E0= -.10049552E+04  d E =-.468701E-04  mag=    -0.0000
       N       E                     dE             d eps       ncg     rms          ort
SDA:   1    -0.100495499150E+04    0.20708E-03    0.00000E+00  2880   0.574E-03 0.000E+00
CGA:   2    -0.100495513889E+04   -0.14739E-03   -0.15995E-03  2880   0.931E-04 0.955E-04
CGA:   3    -0.100495518083E+04   -0.41939E-04   -0.41658E-04  2880   0.280E-04-0.138E-04
CGA:   4    -0.100495517505E+04    0.57744E-05   -0.19184E-04  2880   0.171E-03-0.620E-04
CGA:   5    -0.100495519595E+04   -0.20894E-04   -0.27379E-04  2880   0.136E-04 0.246E-04
CGA:   6    -0.100495519589E+04    0.56149E-07   -0.22719E-05  2880   0.669E-05 0.883E-05
   4 F= -.10049552E+04 E0= -.10049552E+04  d E =-.404323E-04  mag=     0.0000
       N       E                     dE             d eps       ncg     rms          ort
SDA:   1    -0.100495518846E+04    0.74880E-05    0.00000E+00  2880   0.251E-04 0.000E+00
CGA:   2    -0.100495518956E+04   -0.11019E-05   -0.39529E-05  2880   0.729E-05 0.123E-04
CGA:   3    -0.100495518939E+04    0.16620E-06   -0.12883E-05  2880   0.267E-05 0.562E-05
CGA:   4    -0.100495518972E+04   -0.32194E-06   -0.28993E-05  2880   0.669E-05-0.358E-05
   5 F= -.10049552E+04 E0= -.10049552E+04  d E =-.342581E-04  mag=    -0.0000
