       N       E                     dE             d eps       ncg     rms          rms(c)
DAV:   1     0.103664545324E+05    0.10366E+05   -0.37719E+05 32020   0.141E+03
DAV:   2     0.523540544359E+03   -0.98429E+04   -0.92898E+04 31380   0.452E+02
DAV:   3    -0.854312578100E+03   -0.13779E+04   -0.12743E+04 34780   0.172E+02
DAV:   4    -0.938321694830E+03   -0.84009E+02   -0.81645E+02 39200   0.446E+01
DAV:   5    -0.940842112585E+03   -0.25204E+01   -0.25128E+01 38420   0.837E+00    0.189E+02
DAV:   6    -0.425996603776E+03    0.51485E+03   -0.12067E+03 38790   0.767E+01    0.919E+01
DAV:   7    -0.660307559377E+03   -0.23431E+03   -0.40035E+02 40300   0.625E+01    0.773E+01
DAV:   8    -0.689070825059E+03   -0.28763E+02   -0.53611E+01 40920   0.192E+01    0.506E+01
DAV:   9    -0.736670608527E+03   -0.47600E+02   -0.41349E+01 40200   0.148E+01    0.387E+01
DAV:  10    -0.769972879800E+03   -0.33302E+02   -0.35481E+01 41510   0.154E+01    0.305E+01
DAV:  11    -0.791024266491E+03   -0.21051E+02   -0.32424E+01 39130   0.106E+01    0.187E+01
DAV:  12    -0.793437216170E+03   -0.24129E+01   -0.77765E+00 40470   0.742E+00    0.127E+01
DAV:  13    -0.795242959517E+03   -0.18057E+01   -0.35341E+00 40560   0.495E+00    0.712E+00
DAV:  14    -0.795968641505E+03   -0.72568E+00   -0.10377E+00 37220   0.223E+00    0.484E+00
DAV:  15    -0.796363876272E+03   -0.39523E+00   -0.41716E-01 39080   0.178E+00    0.298E+00
DAV:  16    -0.796485918087E+03   -0.12204E+00   -0.15872E-01 37160   0.125E+00    0.168E+00
DAV:  17    -0.796520835809E+03   -0.34918E-01   -0.52599E-02 36210   0.734E-01    0.114E+00
DAV:  18    -0.796535310762E+03   -0.14475E-01   -0.17743E-02 34330   0.375E-01    0.894E-01
DAV:  19    -0.796549046574E+03   -0.13736E-01   -0.78219E-03 39250   0.239E-01    0.741E-01
DAV:  20    -0.796564463551E+03   -0.15417E-01   -0.97889E-03 40820   0.264E-01    0.608E-01
DAV:  21    -0.796575969757E+03   -0.11506E-01   -0.98326E-03 39900   0.234E-01    0.538E-01
DAV:  22    -0.796583170394E+03   -0.72006E-02   -0.53176E-03 39350   0.166E-01    0.467E-01
DAV:  23    -0.796593839170E+03   -0.10669E-01   -0.90065E-03 42760   0.258E-01    0.397E-01
DAV:  24    -0.796603251019E+03   -0.94118E-02   -0.18226E-02 41610   0.354E-01    0.347E-01
DAV:  25    -0.796608967157E+03   -0.57161E-02   -0.88588E-03 40210   0.191E-01    0.285E-01
DAV:  26    -0.796611598191E+03   -0.26310E-02   -0.20303E-03 37740   0.962E-02    0.239E-01
DAV:  27    -0.796614189088E+03   -0.25909E-02   -0.27943E-03 42870   0.140E-01    0.183E-01
DAV:  28    -0.796616194832E+03   -0.20057E-02   -0.63113E-03 41180   0.217E-01    0.162E-01
DAV:  29    -0.796617971511E+03   -0.17767E-02   -0.35729E-03 40180   0.117E-01    0.116E-01
DAV:  30    -0.796618616662E+03   -0.64515E-03   -0.14664E-03 42430   0.967E-02    0.102E-01
DAV:  31    -0.796619174660E+03   -0.55800E-03   -0.11216E-03 38720   0.723E-02    0.906E-02
DAV:  32    -0.796619475632E+03   -0.30097E-03   -0.63717E-04 39750   0.552E-02    0.725E-02
DAV:  33    -0.796619688417E+03   -0.21278E-03   -0.47551E-04 40120   0.470E-02    0.637E-02
DAV:  34    -0.796619821933E+03   -0.13352E-03   -0.30274E-04 38750   0.411E-02    0.665E-02
DAV:  35    -0.796619954997E+03   -0.13306E-03   -0.30459E-04 39260   0.393E-02    0.446E-02
DAV:  36    -0.796620040674E+03   -0.85677E-04   -0.27559E-04 40060   0.411E-02    0.422E-02
DAV:  37    -0.796620119056E+03   -0.78383E-04   -0.17971E-04 33680   0.256E-02    0.247E-02
DAV:  38    -0.796620153481E+03   -0.34425E-04   -0.47443E-05 28360   0.150E-02    0.185E-02
DAV:  39    -0.796620162599E+03   -0.91175E-05   -0.15407E-05 23070   0.862E-03
   1 F= -.79662016E+03 E0= -.79662016E+03  d E =-.796620E+03  mag=    46.9990
       N       E                     dE             d eps       ncg     rms          rms(c)
DAV:   1    -0.796620051352E+03    0.10213E-03   -0.62744E-03 35640   0.245E-01    0.290E-02
DAV:   2    -0.796620111064E+03   -0.59712E-04   -0.58781E-04 32180   0.461E-02    0.162E-02
DAV:   3    -0.796620114686E+03   -0.36223E-05   -0.11102E-05 18820   0.836E-03    0.109E-02
DAV:   4    -0.796620115397E+03   -0.71038E-06   -0.16551E-06 16520   0.389E-03
   2 F= -.79662012E+03 E0= -.79662012E+03  d E =0.472020E-04  mag=    46.9999
       N       E                     dE             d eps       ncg     rms          rms(c)
DAV:   1    -0.795935496501E+03    0.68462E+00   -0.70379E+01 35250   0.259E+01    0.290E+00
DAV:   2    -0.796579296671E+03   -0.64380E+00   -0.65030E+00 31730   0.481E+00    0.147E+00
DAV:   3    -0.796611896391E+03   -0.32600E-01   -0.12859E-01 38940   0.805E-01    0.795E-01
DAV:   4    -0.796611176040E+03    0.72035E-03   -0.98171E-03 45280   0.263E-01    0.527E-01
DAV:   5    -0.796612015554E+03   -0.83951E-03   -0.43101E-03 45890   0.223E-01    0.193E-01
DAV:   6    -0.796612459500E+03   -0.44395E-03   -0.15648E-03 43410   0.130E-01    0.111E-01
DAV:   7    -0.796612453806E+03    0.56936E-05   -0.22314E-04 42450   0.575E-02    0.554E-02
DAV:   8    -0.796612457394E+03   -0.35883E-05   -0.49815E-05 31620   0.247E-02
   3 F= -.79661246E+03 E0= -.79661246E+03  d E =0.765800E-02  mag=    47.0000
       N       E                     dE             d eps       ncg     rms          rms(c)
DAV:   1    -0.795826572422E+03    0.78588E+00   -0.82278E+01 35050   0.280E+01    0.313E+00
DAV:   2    -0.796566797085E+03   -0.74022E+00   -0.74700E+00 31500   0.514E+00    0.157E+00
DAV:   3    -0.796604516378E+03   -0.37719E-01   -0.14381E-01 38860   0.846E-01    0.838E-01
DAV:   4    -0.796603740398E+03    0.77598E-03   -0.11008E-02 45160   0.275E-01    0.554E-01
DAV:   5    -0.796604820012E+03   -0.10796E-02   -0.47387E-03 45540   0.234E-01    0.205E-01
DAV:   6    -0.796605306643E+03   -0.48663E-03   -0.17705E-03 43530   0.140E-01    0.118E-01
DAV:   7    -0.796605299443E+03    0.71998E-05   -0.24546E-04 42370   0.610E-02    0.596E-02
DAV:   8    -0.796605304350E+03   -0.49069E-05   -0.58320E-05 31690   0.260E-02
   4 F= -.79660530E+03 E0= -.79660530E+03  d E =0.715304E-02  mag=    47.0000
       N       E                     dE             d eps       ncg     rms          rms(c)
DAV:   1    -0.795534834445E+03    0.10705E+01   -0.11312E+02 35060   0.328E+01    0.367E+00
DAV:   2    -0.796538296700E+03   -0.10035E+01   -0.10133E+01 31490   0.599E+00    0.185E+00
DAV:   3    -0.796590207682E+03   -0.51911E-01   -0.19604E-01 38950   0.101E+00    0.985E-01
DAV:   4    -0.796589268275E+03    0.93941E-03   -0.14941E-02 44890   0.337E-01    0.661E-01
DAV:   5    -0.796590695189E+03   -0.14269E-02   -0.68664E-03 44850   0.281E-01    0.247E-01
DAV:   6    -0.796591435622E+03   -0.74043E-03   -0.25263E-03 43510   0.166E-01    0.140E-01
DAV:   7    -0.796591437449E+03   -0.18263E-05   -0.33981E-04 42150   0.702E-02    0.724E-02
DAV:   8    -0.796591453910E+03   -0.16462E-04   -0.89745E-05 36810   0.315E-02    0.390E-02
DAV:   9    -0.796591475185E+03   -0.21274E-04   -0.42583E-05 28650   0.176E-02    0.315E-02
DAV:  10    -0.796591485005E+03   -0.98199E-05   -0.13827E-05 18640   0.117E-02
   5 F= -.79659149E+03 E0= -.79659149E+03  d E =0.138193E-01  mag=    47.0000
       N       E                     dE             d eps       ncg     rms          rms(c)
DAV:   1    -0.795275733128E+03    0.13157E+01   -0.14222E+02 35060   0.368E+01    0.411E+00
DAV:   2    -0.796515739958E+03   -0.12400E+01   -0.12515E+01 31480   0.666E+00    0.204E+00
DAV:   3    -0.796581135124E+03   -0.65395E-01   -0.24171E-01 38730   0.109E+00    0.109E+00
DAV:   4    -0.796580094702E+03    0.10404E-02   -0.18024E-02 44880   0.348E-01    0.712E-01
DAV:   5    -0.796582090582E+03   -0.19959E-02   -0.78320E-03 45690   0.295E-01    0.267E-01
DAV:   6    -0.796582915254E+03   -0.82467E-03   -0.29183E-03 43490   0.181E-01    0.152E-01
DAV:   7    -0.796582901473E+03    0.13780E-04   -0.40506E-04 42290   0.799E-02    0.780E-02
DAV:   8    -0.796582914380E+03   -0.12907E-04   -0.10733E-04 37030   0.338E-02    0.381E-02
DAV:   9    -0.796582935952E+03   -0.21572E-04   -0.47199E-05 28990   0.163E-02    0.297E-02
DAV:  10    -0.796582946047E+03   -0.10096E-04   -0.11420E-05 18650   0.108E-02    0.259E-02
DAV:  11    -0.796582957130E+03   -0.11083E-04   -0.66477E-06 17290   0.716E-03    0.236E-02
DAV:  12    -0.796582975781E+03   -0.18651E-04   -0.97336E-06 20670   0.103E-02    0.207E-02
DAV:  13    -0.796583002317E+03   -0.26537E-04   -0.66010E-05 33860   0.220E-02    0.157E-02
DAV:  14    -0.796583018554E+03   -0.16237E-04   -0.46334E-05 26670   0.140E-02    0.129E-02
DAV:  15    -0.796583026163E+03   -0.76092E-05   -0.10025E-05 21920   0.926E-03
   6 F= -.79658303E+03 E0= -.79658303E+03  d E =0.845884E-02  mag=    47.0000
       N       E                     dE             d eps       ncg     rms          rms(c)
DAV:   1    -0.794762017852E+03    0.18210E+01   -0.19865E+02 35070   0.434E+01    0.484E+00
DAV:   2    -0.796476252097E+03   -0.17142E+01   -0.17313E+01 31470   0.783E+00    0.243E+00
DAV:   3    -0.796566519016E+03   -0.90267E-01   -0.33649E-01 38950   0.131E+00    0.129E+00
DAV:   4    -0.796565049495E+03    0.14695E-02   -0.25203E-02 45100   0.425E-01    0.853E-01
DAV:   5    -0.796567620593E+03   -0.25711E-02   -0.11350E-02 45610   0.354E-01    0.321E-01
DAV:   6    -0.796568827778E+03   -0.12072E-02   -0.41206E-03 43510   0.213E-01    0.179E-01
DAV:   7    -0.796568811139E+03    0.16639E-04   -0.55783E-04 42350   0.921E-02    0.899E-02
DAV:   8    -0.796568821208E+03   -0.10069E-04   -0.14584E-04 39410   0.395E-02    0.427E-02
DAV:   9    -0.796568844060E+03   -0.22852E-04   -0.60495E-05 33610   0.199E-02    0.320E-02
DAV:  10    -0.796568853770E+03   -0.97098E-05   -0.14183E-05 19650   0.126E-02
   7 F= -.79656885E+03 E0= -.79656885E+03  d E =0.141724E-01  mag=    47.0000
       N       E                     dE             d eps       ncg     rms          rms(c)
DAV:   1    -0.794088400160E+03    0.24804E+01   -0.27321E+02 35070   0.508E+01    0.569E+00
DAV:   2    -0.796433790419E+03   -0.23454E+01   -0.23677E+01 31490   0.916E+00    0.283E+00
DAV:   3    -0.796557957609E+03   -0.12417E+00   -0.46173E-01 38880   0.151E+00    0.150E+00
DAV:   4    -0.796555999364E+03    0.19582E-02   -0.33985E-02 44940   0.466E-01    0.980E-01
DAV:   5    -0.796559753947E+03   -0.37546E-02   -0.14542E-02 45610   0.396E-01    0.367E-01
DAV:   6    -0.796561291909E+03   -0.15380E-02   -0.54345E-03 43520   0.244E-01    0.207E-01
DAV:   7    -0.796561248088E+03    0.43820E-04   -0.76349E-04 42530   0.111E-01    0.104E-01
DAV:   8    -0.796561252741E+03   -0.46523E-05   -0.19319E-04 38330   0.453E-02    0.459E-02
DAV:   9    -0.796561279126E+03   -0.26385E-04   -0.76985E-05 35210   0.205E-02    0.325E-02
DAV:  10    -0.796561290400E+03   -0.11274E-04   -0.14816E-05 19700   0.124E-02    0.277E-02
DAV:  11    -0.796561301755E+03   -0.11355E-04   -0.75842E-06 17470   0.792E-03    0.253E-02
DAV:  12    -0.796561318057E+03   -0.16302E-04   -0.83540E-06 19480   0.853E-03    0.227E-02
DAV:  13    -0.796561347568E+03   -0.29511E-04   -0.44741E-05 30510   0.208E-02    0.178E-02
DAV:  14    -0.796561366957E+03   -0.19389E-04   -0.60726E-05 27440   0.152E-02    0.143E-02
DAV:  15    -0.796561377748E+03   -0.10791E-04   -0.14345E-05 24560   0.111E-02    0.112E-02
DAV:  16    -0.796561384863E+03   -0.71152E-05   -0.20256E-05 23100   0.859E-03
   8 F= -.79656138E+03 E0= -.79656138E+03  d E =0.746891E-02  mag=    47.0000
       N       E                     dE             d eps       ncg     rms          rms(c)
DAV:   1    -0.793265956361E+03    0.32954E+01   -0.36406E+02 35070   0.586E+01    0.657E+00
DAV:   2    -0.796394448980E+03   -0.31285E+01   -0.31622E+01 31560   0.106E+01    0.330E+00
DAV:   3    -0.796557776235E+03   -0.16333E+00   -0.61840E-01 39020   0.176E+00    0.175E+00
DAV:   4    -0.796554655254E+03    0.31210E-02   -0.44937E-02 45040   0.529E-01    0.114E+00
DAV:   5    -0.796559573717E+03   -0.49185E-02   -0.19615E-02 45300   0.444E-01    0.423E-01
DAV:   6    -0.796561605220E+03   -0.20315E-02   -0.71624E-03 43550   0.275E-01    0.236E-01
DAV:   7    -0.796561545007E+03    0.60213E-04   -0.10473E-03 42980   0.126E-01    0.120E-01
DAV:   8    -0.796561542126E+03    0.28811E-05   -0.24069E-04 41020   0.522E-02    0.512E-02
DAV:   9    -0.796561566861E+03   -0.24736E-04   -0.95908E-05 37200   0.241E-02    0.322E-02
DAV:  10    -0.796561576212E+03   -0.93507E-05   -0.18751E-05 20120   0.145E-02
   9 F= -.79656158E+03 E0= -.79656158E+03  d E =-.191349E-03  mag=    47.0000
       N       E                     dE             d eps       ncg     rms          rms(c)
DAV:   1    -0.793506564714E+03    0.30550E+01   -0.32738E+02 35050   0.560E+01    0.633E+00
DAV:   2    -0.796414065555E+03   -0.29075E+01   -0.29461E+01 32430   0.102E+01    0.329E+00
DAV:   3    -0.796566980060E+03   -0.15291E+00   -0.61933E-01 39540   0.183E+00    0.176E+00
DAV:   4    -0.796563415774E+03    0.35643E-02   -0.45727E-02 44650   0.601E-01    0.118E+00
DAV:   5    -0.796566514250E+03   -0.30985E-02   -0.24254E-02 44100   0.500E-01    0.478E-01
DAV:   6    -0.796568678070E+03   -0.21638E-02   -0.80806E-03 43330   0.296E-01    0.250E-01
DAV:   7    -0.796568754091E+03   -0.76021E-04   -0.16158E-03 42360   0.125E-01    0.136E-01
DAV:   8    -0.796568798930E+03   -0.44839E-04   -0.25378E-04 39390   0.537E-02    0.773E-02
DAV:   9    -0.796568868155E+03   -0.69225E-04   -0.15547E-04 42180   0.368E-02    0.546E-02
DAV:  10    -0.796568903191E+03   -0.35036E-04   -0.55901E-05 32100   0.223E-02    0.440E-02
DAV:  11    -0.796568931266E+03   -0.28075E-04   -0.21858E-05 22140   0.134E-02    0.401E-02
DAV:  12    -0.796568971070E+03   -0.39804E-04   -0.21609E-05 26640   0.131E-02    0.352E-02
DAV:  13    -0.796569031885E+03   -0.60814E-04   -0.69587E-05 34760   0.250E-02    0.269E-02
DAV:  14    -0.796569075414E+03   -0.43530E-04   -0.12620E-04 36430   0.250E-02    0.219E-02
DAV:  15    -0.796569098319E+03   -0.22905E-04   -0.44826E-05 26250   0.143E-02    0.174E-02
DAV:  16    -0.796569109315E+03   -0.10996E-04   -0.16720E-05 21670   0.866E-03    0.144E-02
DAV:  17    -0.796569116032E+03   -0.67166E-05   -0.73821E-06 19820   0.631E-03
  10 F= -.79656912E+03 E0= -.79656912E+03  d E =-.753982E-02  mag=    47.0000
       N       E                     dE             d eps       ncg     rms          rms(c)
DAV:   1    -0.795128619027E+03    0.14405E+01   -0.12887E+02 35130   0.374E+01    0.429E+00
DAV:   2    -0.796479633529E+03   -0.13510E+01   -0.14204E+01 33440   0.716E+00    0.259E+00
DAV:   3    -0.796561518035E+03   -0.81885E-01   -0.44591E-01 40530   0.159E+00    0.146E+00
DAV:   4    -0.796556446862E+03    0.50712E-02   -0.34071E-02 43910   0.523E-01    0.963E-01
DAV:   5    -0.796555877128E+03    0.56973E-03   -0.24596E-02 41260   0.439E-01    0.450E-01
DAV:   6    -0.796556891138E+03   -0.10140E-02   -0.49591E-03 40750   0.252E-01    0.234E-01
DAV:   7    -0.796557128801E+03   -0.23766E-03   -0.22823E-03 42540   0.116E-01    0.147E-01
DAV:   8    -0.796557256945E+03   -0.12814E-03   -0.28008E-04 37690   0.508E-02    0.949E-02
DAV:   9    -0.796557386865E+03   -0.12992E-03   -0.16038E-04 41420   0.375E-02    0.657E-02
DAV:  10    -0.796557462249E+03   -0.75384E-04   -0.82554E-05 35440   0.259E-02    0.538E-02
DAV:  11    -0.796557503048E+03   -0.40799E-04   -0.35146E-05 25550   0.166E-02    0.480E-02
DAV:  12    -0.796557575707E+03   -0.72659E-04   -0.45718E-05 30100   0.212E-02    0.400E-02
DAV:  13    -0.796557659145E+03   -0.83437E-04   -0.14082E-04 37870   0.347E-02    0.295E-02
DAV:  14    -0.796557703914E+03   -0.44769E-04   -0.13173E-04 35050   0.251E-02    0.236E-02
DAV:  15    -0.796557723766E+03   -0.19852E-04   -0.36839E-05 23950   0.138E-02    0.159E-02
DAV:  16    -0.796557732691E+03   -0.89248E-05   -0.16470E-05 20890   0.880E-03
  11 F= -.79655773E+03 E0= -.79655773E+03  d E =0.113833E-01  mag=    47.0000
       N       E                     dE             d eps       ncg     rms          rms(c)
DAV:   1    -0.796278877920E+03    0.27885E+00   -0.33860E+01 35060   0.183E+01    0.205E+00
DAV:   2    -0.796587818330E+03   -0.30894E+00   -0.31481E+00 32910   0.336E+00    0.109E+00
DAV:   3    -0.796604570287E+03   -0.16752E-01   -0.71293E-02 39370   0.632E-01    0.592E-01
DAV:   4    -0.796604120827E+03    0.44946E-03   -0.54270E-03 44380   0.210E-01    0.400E-01
DAV:   5    -0.796604390073E+03   -0.26925E-03   -0.31266E-03 43740   0.172E-01    0.167E-01
DAV:   6    -0.796604636472E+03   -0.24640E-03   -0.87168E-04 42920   0.966E-02    0.896E-02
DAV:   7    -0.796604663995E+03   -0.27523E-04   -0.24037E-04 42190   0.427E-02    0.554E-02
DAV:   8    -0.796604683852E+03   -0.19857E-04   -0.33160E-05 27240   0.202E-02    0.382E-02
DAV:   9    -0.796604707423E+03   -0.23571E-04   -0.27805E-05 24000   0.159E-02    0.309E-02
DAV:  10    -0.796604721883E+03   -0.14460E-04   -0.18154E-05 22900   0.112E-02    0.259E-02
DAV:  11    -0.796604732554E+03   -0.10671E-04   -0.73812E-06 17860   0.719E-03    0.234E-02
DAV:  12    -0.796604751874E+03   -0.19320E-04   -0.11133E-05 21420   0.111E-02    0.200E-02
DAV:  13    -0.796604774141E+03   -0.22267E-04   -0.54586E-05 31710   0.177E-02    0.146E-02
DAV:  14    -0.796604787761E+03   -0.13619E-04   -0.40460E-05 27150   0.141E-02    0.119E-02
DAV:  15    -0.796604794418E+03   -0.66578E-05   -0.12616E-05 21150   0.745E-03
  12 F= -.79660479E+03 E0= -.79660479E+03  d E =-.470617E-01  mag=    47.0000
       N       E                     dE             d eps       ncg     rms          rms(c)
DAV:   1    -0.794638432835E+03    0.19664E+01   -0.14952E+02 35410   0.418E+01    0.498E+00
DAV:   2    -0.796401778309E+03   -0.17633E+01   -0.18796E+01 33860   0.827E+00    0.320E+00
DAV:   3    -0.796518522423E+03   -0.11674E+00   -0.68921E-01 40710   0.199E+00    0.180E+00
DAV:   4    -0.796509944699E+03    0.85777E-02   -0.54028E-02 43710   0.673E-01    0.120E+00
DAV:   5    -0.796508185358E+03    0.17593E-02   -0.39697E-02 40310   0.560E-01    0.582E-01
DAV:   6    -0.796509567757E+03   -0.13824E-02   -0.72038E-03 40270   0.318E-01    0.309E-01
DAV:   7    -0.796510064165E+03   -0.49641E-03   -0.38447E-03 41930   0.151E-01    0.205E-01
DAV:   8    -0.796510392834E+03   -0.32867E-03   -0.51465E-04 39350   0.704E-02    0.145E-01
DAV:   9    -0.796510715183E+03   -0.32235E-03   -0.31585E-04 41270   0.556E-02    0.107E-01
DAV:  10    -0.796510925021E+03   -0.20984E-03   -0.21259E-04 37880   0.397E-02    0.892E-02
DAV:  11    -0.796511063249E+03   -0.13823E-03   -0.99186E-05 32990   0.271E-02    0.795E-02
DAV:  12    -0.796511314770E+03   -0.25152E-03   -0.20650E-04 41860   0.428E-02    0.637E-02
DAV:  13    -0.796511537168E+03   -0.22240E-03   -0.43873E-04 42060   0.588E-02    0.501E-02
DAV:  14    -0.796511660304E+03   -0.12314E-03   -0.30627E-04 41510   0.400E-02    0.396E-02
DAV:  15    -0.796511716742E+03   -0.56438E-04   -0.86664E-05 29870   0.202E-02    0.311E-02
DAV:  16    -0.796511744313E+03   -0.27571E-04   -0.35463E-05 25340   0.124E-02    0.255E-02
DAV:  17    -0.796511766517E+03   -0.22204E-04   -0.20863E-05 27890   0.113E-02    0.212E-02
DAV:  18    -0.796511782737E+03   -0.16220E-04   -0.21005E-05 25830   0.110E-02    0.174E-02
DAV:  19    -0.796511796645E+03   -0.13908E-04   -0.21140E-05 27370   0.110E-02    0.158E-02
DAV:  20    -0.796511807823E+03   -0.11177E-04   -0.19040E-05 23720   0.925E-03    0.125E-02
DAV:  21    -0.796511816727E+03   -0.89045E-05   -0.23804E-05 26550   0.144E-02
  13 F= -.79651182E+03 E0= -.79651182E+03  d E =0.929777E-01  mag=    47.0000
       N       E                     dE             d eps       ncg     rms          rms(c)
DAV:   1    -0.795865071885E+03    0.64674E+00   -0.49387E+01 35800   0.256E+01    0.319E+00
DAV:   2    -0.796605410903E+03   -0.74034E+00   -0.82096E+00 34300   0.531E+00    0.226E+00
DAV:   3    -0.796658831346E+03   -0.53420E-01   -0.35638E-01 41040   0.138E+00    0.128E+00
DAV:   4    -0.796653224206E+03    0.56071E-02   -0.29186E-02 42750   0.482E-01    0.877E-01
DAV:   5    -0.796651650482E+03    0.15737E-02   -0.24284E-02 39490   0.416E-01    0.413E-01
DAV:   6    -0.796652045055E+03   -0.39457E-03   -0.35251E-03 38860   0.231E-01    0.225E-01
DAV:   7    -0.796652282004E+03   -0.23695E-03   -0.23635E-03 41130   0.112E-01    0.144E-01
DAV:   8    -0.796652430675E+03   -0.14867E-03   -0.29114E-04 38080   0.516E-02    0.980E-02
DAV:   9    -0.796652553845E+03   -0.12317E-03   -0.15811E-04 40810   0.391E-02    0.675E-02
DAV:  10    -0.796652631130E+03   -0.77285E-04   -0.85701E-05 35590   0.261E-02    0.543E-02
DAV:  11    -0.796652681902E+03   -0.50772E-04   -0.39419E-05 26820   0.175E-02    0.477E-02
DAV:  12    -0.796652766290E+03   -0.84388E-04   -0.63846E-05 31930   0.246E-02    0.379E-02
DAV:  13    -0.796652840203E+03   -0.73914E-04   -0.14073E-04 36450   0.316E-02    0.289E-02
DAV:  14    -0.796652878995E+03   -0.38792E-04   -0.90163E-05 33640   0.229E-02    0.228E-02
DAV:  15    -0.796652897434E+03   -0.18439E-04   -0.37767E-05 23610   0.135E-02    0.153E-02
DAV:  16    -0.796652905617E+03   -0.81824E-05   -0.13779E-05 20160   0.848E-03
  14 F= -.79665291E+03 E0= -.79665291E+03  d E =-.141089E+00  mag=    47.0000
       N       E                     dE             d eps       ncg     rms          rms(c)
DAV:   1    -0.796636012512E+03    0.16885E-01   -0.21064E+00 35050   0.450E+00    0.499E-01
DAV:   2    -0.796654281910E+03   -0.18269E-01   -0.18447E-01 32000   0.807E-01    0.246E-01
DAV:   3    -0.796655252057E+03   -0.97015E-03   -0.35690E-03 39160   0.133E-01    0.132E-01
DAV:   4    -0.796655238534E+03    0.13523E-04   -0.26957E-04 43920   0.427E-02    0.864E-02
DAV:   5    -0.796655270084E+03   -0.31550E-04   -0.11401E-04 43400   0.342E-02    0.313E-02
DAV:   6    -0.796655282720E+03   -0.12637E-04   -0.36289E-05 28490   0.212E-02    0.210E-02
DAV:   7    -0.796655283702E+03   -0.98195E-06   -0.94514E-06 16560   0.110E-02
  15 F= -.79665528E+03 E0= -.79665528E+03  d E =-.237809E-02  mag=    47.0000
       N       E                     dE             d eps       ncg     rms          rms(c)
DAV:   1    -0.794894592214E+03    0.17607E+01   -0.16961E+02 35070   0.418E+01    0.476E+00
DAV:   2    -0.796525712559E+03   -0.16311E+01   -0.16756E+01 33260   0.777E+00    0.259E+00
DAV:   3    -0.796619723302E+03   -0.94011E-01   -0.42898E-01 39110   0.155E+00    0.143E+00
DAV:   4    -0.796616645076E+03    0.30782E-02   -0.31550E-02 44050   0.504E-01    0.948E-01
DAV:   5    -0.796617453488E+03   -0.80841E-03   -0.19583E-02 42150   0.414E-01    0.427E-01
DAV:   6    -0.796618724863E+03   -0.12714E-02   -0.50264E-03 42670   0.249E-01    0.222E-01
DAV:   7    -0.796618886680E+03   -0.16182E-03   -0.18517E-03 42420   0.113E-01    0.134E-01
DAV:   8    -0.796618970475E+03   -0.83794E-04   -0.22826E-04 39170   0.503E-02    0.849E-02
DAV:   9    -0.796619069260E+03   -0.98785E-04   -0.14233E-04 41310   0.368E-02    0.612E-02
DAV:  10    -0.796619127287E+03   -0.58027E-04   -0.71927E-05 34580   0.237E-02    0.493E-02
DAV:  11    -0.796619162968E+03   -0.35680E-04   -0.28085E-05 24920   0.152E-02    0.441E-02
DAV:  12    -0.796619221885E+03   -0.58917E-04   -0.34233E-05 29680   0.184E-02    0.372E-02
DAV:  13    -0.796619292960E+03   -0.71075E-04   -0.12960E-04 37150   0.311E-02    0.265E-02
DAV:  14    -0.796619331679E+03   -0.38719E-04   -0.11672E-04 33340   0.233E-02    0.220E-02
DAV:  15    -0.796619348571E+03   -0.16892E-04   -0.31658E-05 24000   0.124E-02    0.152E-02
DAV:  16    -0.796619356173E+03   -0.76018E-05   -0.13225E-05 19680   0.775E-03
  16 F= -.79661936E+03 E0= -.79661936E+03  d E =0.359275E-01  mag=    47.0000
       N       E                     dE             d eps       ncg     rms          rms(c)
DAV:   1    -0.795182081341E+03    0.14373E+01   -0.10203E+02 35480   0.354E+01    0.429E+00
DAV:   2    -0.796508248341E+03   -0.13262E+01   -0.14489E+01 34200   0.722E+00    0.295E+00
DAV:   3    -0.796599834084E+03   -0.91586E-01   -0.59616E-01 40920   0.181E+00    0.166E+00
DAV:   4    -0.796590848585E+03    0.89855E-02   -0.48166E-02 42230   0.618E-01    0.112E+00
DAV:   5    -0.796588293854E+03    0.25547E-02   -0.38508E-02 39810   0.508E-01    0.515E-01
DAV:   6    -0.796589111673E+03   -0.81782E-03   -0.56750E-03 38980   0.284E-01    0.283E-01
DAV:   7    -0.796589457756E+03   -0.34608E-03   -0.36618E-03 41510   0.137E-01    0.175E-01
DAV:   8    -0.796589653686E+03   -0.19593E-03   -0.41392E-04 38160   0.611E-02    0.116E-01
DAV:   9    -0.796589826219E+03   -0.17253E-03   -0.23534E-04 41440   0.450E-02    0.772E-02
DAV:  10    -0.796589922634E+03   -0.96415E-04   -0.10957E-04 36020   0.302E-02    0.612E-02
DAV:  11    -0.796589978991E+03   -0.56357E-04   -0.46867E-05 28720   0.193E-02    0.542E-02
DAV:  12    -0.796590078476E+03   -0.99486E-04   -0.69992E-05 32430   0.252E-02    0.438E-02
DAV:  13    -0.796590178289E+03   -0.99813E-04   -0.16626E-04 37610   0.368E-02    0.337E-02
DAV:  14    -0.796590229648E+03   -0.51359E-04   -0.11923E-04 35520   0.256E-02    0.266E-02
DAV:  15    -0.796590253741E+03   -0.24092E-04   -0.41075E-05 25350   0.155E-02    0.187E-02
DAV:  16    -0.796590265937E+03   -0.12196E-04   -0.22948E-05 23470   0.104E-02    0.147E-02
DAV:  17    -0.796590272611E+03   -0.66748E-05   -0.85964E-06 20450   0.672E-03
  17 F= -.79659027E+03 E0= -.79659027E+03  d E =0.290836E-01  mag=    47.0000
       N       E                     dE             d eps       ncg     rms          rms(c)
DAV:   1    -0.796491696835E+03    0.98569E-01   -0.10457E+01 35660   0.119E+01    0.150E+00
DAV:   2    -0.796656857046E+03   -0.16516E+00   -0.18513E+00 34770   0.251E+00    0.107E+00
DAV:   3    -0.796669273737E+03   -0.12417E-01   -0.85335E-02 40730   0.671E-01    0.618E-01
DAV:   4    -0.796667860592E+03    0.14131E-02   -0.70171E-03 43820   0.227E-01    0.412E-01
DAV:   5    -0.796667471552E+03    0.38904E-03   -0.59346E-03 39510   0.207E-01    0.203E-01
DAV:   6    -0.796667514640E+03   -0.43089E-04   -0.78595E-04 38840   0.112E-01    0.106E-01
DAV:   7    -0.796667559585E+03   -0.44945E-04   -0.55107E-04 40170   0.535E-02    0.688E-02
DAV:   8    -0.796667590753E+03   -0.31168E-04   -0.68232E-05 33330   0.245E-02    0.458E-02
DAV:   9    -0.796667615792E+03   -0.25039E-04   -0.32885E-05 27510   0.185E-02    0.314E-02
DAV:  10    -0.796667629727E+03   -0.13934E-04   -0.20189E-05 22000   0.129E-02    0.245E-02
DAV:  11    -0.796667638027E+03   -0.83005E-05   -0.90235E-06 18180   0.764E-03
  18 F= -.79666764E+03 E0= -.79666764E+03  d E =-.773654E-01  mag=    47.0000
       N       E                     dE             d eps       ncg     rms          rms(c)
DAV:   1    -0.796623914560E+03    0.43715E-01   -0.39941E+00 35650   0.695E+00    0.817E-01
DAV:   2    -0.796672280548E+03   -0.48366E-01   -0.52074E-01 34190   0.138E+00    0.535E-01
DAV:   3    -0.796675639382E+03   -0.33588E-02   -0.20382E-02 40650   0.341E-01    0.305E-01
DAV:   4    -0.796675367666E+03    0.27172E-03   -0.16167E-03 44050   0.114E-01    0.203E-01
DAV:   5    -0.796675322236E+03    0.45430E-04   -0.12712E-03 39630   0.984E-02    0.985E-02
DAV:   6    -0.796675356197E+03   -0.33961E-04   -0.20165E-04 39840   0.546E-02    0.554E-02
DAV:   7    -0.796675373990E+03   -0.17793E-04   -0.12780E-04 41130   0.268E-02    0.381E-02
DAV:   8    -0.796675387304E+03   -0.13314E-04   -0.15459E-05 20910   0.131E-02    0.283E-02
DAV:   9    -0.796675400255E+03   -0.12951E-04   -0.12151E-05 19940   0.111E-02    0.221E-02
DAV:  10    -0.796675409313E+03   -0.90582E-05   -0.10918E-05 19460   0.847E-03
  19 F= -.79667541E+03 E0= -.79667541E+03  d E =-.777129E-02  mag=    47.0000
       N       E                     dE             d eps       ncg     rms          rms(c)
DAV:   1    -0.796423394472E+03    0.25201E+00   -0.26572E+01 35060   0.161E+01    0.180E+00
DAV:   2    -0.796660080136E+03   -0.23669E+00   -0.24071E+00 32810   0.293E+00    0.932E-01
DAV:   3    -0.796673178752E+03   -0.13099E-01   -0.53186E-02 39050   0.538E-01    0.505E-01
DAV:   4    -0.796672898003E+03    0.28075E-03   -0.39337E-03 44230   0.176E-01    0.338E-01
DAV:   5    -0.796673155464E+03   -0.25746E-03   -0.21412E-03 43450   0.143E-01    0.138E-01
DAV:   6    -0.796673342427E+03   -0.18696E-03   -0.65300E-04 42980   0.830E-02    0.754E-02
DAV:   7    -0.796673357317E+03   -0.14890E-04   -0.16001E-04 42060   0.366E-02    0.447E-02
DAV:   8    -0.796673367774E+03   -0.10457E-04   -0.21663E-05 22820   0.171E-02    0.296E-02
DAV:   9    -0.796673380425E+03   -0.12651E-04   -0.19255E-05 20470   0.132E-02    0.236E-02
DAV:  10    -0.796673387951E+03   -0.75263E-05   -0.11897E-05 19010   0.918E-03
  20 F= -.79667339E+03 E0= -.79667339E+03  d E =0.202136E-02  mag=    47.0000
       N       E                     dE             d eps       ncg     rms          rms(c)
DAV:   1    -0.793642793312E+03    0.30306E+01   -0.24694E+02 35300   0.522E+01    0.612E+00
DAV:   2    -0.796303767825E+03   -0.26610E+01   -0.28224E+01 33690   0.102E+01    0.379E+00
DAV:   3    -0.796469993880E+03   -0.16623E+00   -0.97279E-01 40690   0.236E+00    0.213E+00
DAV:   4    -0.796457919753E+03    0.12074E-01   -0.75318E-02 43190   0.770E-01    0.139E+00
DAV:   5    -0.796455303100E+03    0.26167E-02   -0.53053E-02 39980   0.617E-01    0.643E-01
DAV:   6    -0.796457315693E+03   -0.20126E-02   -0.10030E-02 40310   0.349E-01    0.338E-01
DAV:   7    -0.796457769546E+03   -0.45385E-03   -0.47008E-03 42570   0.162E-01    0.208E-01
DAV:   8    -0.796457995918E+03   -0.22637E-03   -0.54980E-04 37400   0.710E-02    0.130E-01
DAV:   9    -0.796458204576E+03   -0.20866E-03   -0.30198E-04 42080   0.497E-02    0.832E-02
DAV:  10    -0.796458310768E+03   -0.10619E-03   -0.12975E-04 36450   0.328E-02    0.642E-02
DAV:  11    -0.796458364400E+03   -0.53632E-04   -0.48835E-05 28670   0.202E-02    0.572E-02
DAV:  12    -0.796458456515E+03   -0.92115E-04   -0.57661E-05 31440   0.223E-02    0.477E-02
DAV:  13    -0.796458573212E+03   -0.11670E-03   -0.15188E-04 37940   0.384E-02    0.366E-02
DAV:  14    -0.796458635290E+03   -0.62078E-04   -0.15624E-04 35280   0.277E-02    0.281E-02
DAV:  15    -0.796458664493E+03   -0.29203E-04   -0.45534E-05 27550   0.171E-02    0.203E-02
DAV:  16    -0.796458679664E+03   -0.15172E-04   -0.30457E-05 24950   0.116E-02    0.149E-02
DAV:  17    -0.796458687244E+03   -0.75793E-05   -0.96500E-06 20800   0.777E-03
  21 F= -.79645869E+03 E0= -.79645869E+03  d E =0.214701E+00  mag=    47.0000
       N       E                     dE             d eps       ncg     rms          rms(c)
DAV:   1    -0.795529428656E+03    0.92925E+00   -0.69202E+01 35650   0.306E+01    0.389E+00
DAV:   2    -0.796621152559E+03   -0.10917E+01   -0.12201E+01 34580   0.649E+00    0.282E+00
DAV:   3    -0.796701377295E+03   -0.80225E-01   -0.54870E-01 40720   0.169E+00    0.159E+00
DAV:   4    -0.796692529516E+03    0.88478E-02   -0.44809E-02 42720   0.584E-01    0.110E+00
DAV:   5    -0.796689823421E+03    0.27061E-02   -0.37810E-02 39410   0.514E-01    0.513E-01
DAV:   6    -0.796690288512E+03   -0.46509E-03   -0.51818E-03 38770   0.289E-01    0.276E-01
DAV:   7    -0.796690594430E+03   -0.30592E-03   -0.37433E-03 40930   0.140E-01    0.175E-01
DAV:   8    -0.796690783158E+03   -0.18873E-03   -0.43196E-04 37840   0.641E-02    0.115E-01
DAV:   9    -0.796690943303E+03   -0.16014E-03   -0.23772E-04 41910   0.491E-02    0.791E-02
DAV:  10    -0.796691042434E+03   -0.99131E-04   -0.11900E-04 36170   0.313E-02    0.612E-02
DAV:  11    -0.796691103044E+03   -0.60610E-04   -0.52001E-05 28850   0.197E-02    0.535E-02
DAV:  12    -0.796691202427E+03   -0.99383E-04   -0.75595E-05 33250   0.258E-02    0.428E-02
DAV:  13    -0.796691294050E+03   -0.91623E-04   -0.14655E-04 37100   0.346E-02    0.331E-02
DAV:  14    -0.796691341664E+03   -0.47614E-04   -0.10817E-04 34910   0.256E-02    0.251E-02
DAV:  15    -0.796691363541E+03   -0.21877E-04   -0.42525E-05 24460   0.150E-02    0.176E-02
DAV:  16    -0.796691373619E+03   -0.10078E-04   -0.18123E-05 21170   0.978E-03    0.135E-02
DAV:  17    -0.796691378893E+03   -0.52733E-05   -0.79236E-06 18970   0.656E-03
  22 F= -.79669138E+03 E0= -.79669138E+03  d E =-.232692E+00  mag=    47.0000
       N       E                     dE             d eps       ncg     rms          rms(c)
DAV:   1    -0.796683090936E+03    0.82827E-02   -0.90883E-01 35430   0.327E+00    0.383E-01
DAV:   2    -0.796694084865E+03   -0.10994E-01   -0.11895E-01 34190   0.655E-01    0.249E-01
DAV:   3    -0.796694820514E+03   -0.73565E-03   -0.46736E-03 40770   0.159E-01    0.145E-01
DAV:   4    -0.796694752672E+03    0.67842E-04   -0.36313E-04 44460   0.520E-02    0.950E-02
DAV:   5    -0.796694736831E+03    0.15841E-04   -0.28842E-04 39240   0.458E-02    0.445E-02
DAV:   6    -0.796694741853E+03   -0.50219E-05   -0.40194E-05 30850   0.251E-02
  23 F= -.79669474E+03 E0= -.79669474E+03  d E =-.336296E-02  mag=    47.0000
       N       E                     dE             d eps       ncg     rms          rms(c)
DAV:   1    -0.796598501277E+03    0.96236E-01   -0.10596E+01 35320   0.101E+01    0.112E+00
DAV:   2    -0.796690782890E+03   -0.92282E-01   -0.94286E-01 32930   0.184E+00    0.591E-01
DAV:   3    -0.796695822288E+03   -0.50394E-02   -0.21359E-02 38600   0.340E-01    0.325E-01
DAV:   4    -0.796695675441E+03    0.14685E-03   -0.16023E-03 44420   0.109E-01    0.217E-01
DAV:   5    -0.796695766920E+03   -0.91479E-04   -0.93571E-04 41440   0.897E-02    0.854E-02
DAV:   6    -0.796695838117E+03   -0.71196E-04   -0.25448E-04 42960   0.505E-02    0.481E-02
DAV:   7    -0.796695843318E+03   -0.52012E-05   -0.66152E-05 35510   0.231E-02
  24 F= -.79669584E+03 E0= -.79669584E+03  d E =-.110146E-02  mag=    47.0000
       N       E                     dE             d eps       ncg     rms          rms(c)
DAV:   1    -0.795575618754E+03    0.11202E+01   -0.12718E+02 35060   0.346E+01    0.383E+00
DAV:   2    -0.796635647260E+03   -0.10600E+01   -0.10730E+01 31650   0.617E+00    0.190E+00
DAV:   3    -0.796692269063E+03   -0.56622E-01   -0.21071E-01 38890   0.103E+00    0.102E+00
DAV:   4    -0.796691244921E+03    0.10241E-02   -0.15444E-02 44870   0.322E-01    0.661E-01
DAV:   5    -0.796692968066E+03   -0.17231E-02   -0.72678E-03 45260   0.267E-01    0.245E-01
DAV:   6    -0.796693684386E+03   -0.71632E-03   -0.24874E-03 43570   0.162E-01    0.139E-01
DAV:   7    -0.796693682180E+03    0.22057E-05   -0.37484E-04 42510   0.729E-02    0.771E-02
DAV:   8    -0.796693701015E+03   -0.18835E-04   -0.92175E-05 37540   0.326E-02    0.412E-02
DAV:   9    -0.796693724988E+03   -0.23973E-04   -0.47575E-05 29970   0.179E-02    0.314E-02
DAV:  10    -0.796693737051E+03   -0.12062E-04   -0.15251E-05 19220   0.115E-02    0.269E-02
DAV:  11    -0.796693749680E+03   -0.12630E-04   -0.77896E-06 17510   0.774E-03    0.244E-02
DAV:  12    -0.796693770117E+03   -0.20437E-04   -0.11432E-05 21400   0.109E-02    0.208E-02
DAV:  13    -0.796693795502E+03   -0.25385E-04   -0.60224E-05 33730   0.199E-02    0.147E-02
DAV:  14    -0.796693809893E+03   -0.14391E-04   -0.44809E-05 27090   0.140E-02    0.118E-02
DAV:  15    -0.796693816040E+03   -0.61465E-05   -0.10829E-05 21150   0.836E-03
  25 F= -.79669382E+03 E0= -.79669382E+03  d E =0.202728E-02  mag=    47.0000
       N       E                     dE             d eps       ncg     rms          rms(c)
DAV:   1    -0.793860588259E+03    0.28332E+01   -0.18345E+02 35740   0.478E+01    0.587E+00
DAV:   2    -0.796254344517E+03   -0.23938E+01   -0.25869E+01 34190   0.969E+00    0.394E+00
DAV:   3    -0.796417411439E+03   -0.16307E+00   -0.10292E+00 40770   0.242E+00    0.218E+00
DAV:   4    -0.796403685815E+03    0.13726E-01   -0.83536E-02 40580   0.821E-01    0.150E+00
DAV:   5    -0.796399748232E+03    0.39376E-02   -0.62139E-02 40100   0.650E-01    0.688E-01
DAV:   6    -0.796401642426E+03   -0.18942E-02   -0.99197E-03 38540   0.364E-01    0.376E-01
DAV:   7    -0.796402264255E+03   -0.62183E-03   -0.57982E-03 42560   0.179E-01    0.237E-01
DAV:   8    -0.796402603302E+03   -0.33905E-03   -0.66151E-04 38750   0.827E-02    0.156E-01
DAV:   9    -0.796402916707E+03   -0.31340E-03   -0.43648E-04 42490   0.681E-02    0.106E-01
DAV:  10    -0.796403085412E+03   -0.16870E-03   -0.21976E-04 37500   0.429E-02    0.809E-02
DAV:  11    -0.796403178853E+03   -0.93441E-04   -0.84187E-05 32110   0.254E-02    0.709E-02
DAV:  12    -0.796403337673E+03   -0.15882E-03   -0.10662E-04 34620   0.301E-02    0.586E-02
DAV:  13    -0.796403505391E+03   -0.16772E-03   -0.22328E-04 40550   0.458E-02    0.458E-02
DAV:  14    -0.796403594324E+03   -0.88933E-04   -0.19794E-04 37780   0.334E-02    0.369E-02
DAV:  15    -0.796403637754E+03   -0.43431E-04   -0.64013E-05 29660   0.203E-02    0.264E-02
DAV:  16    -0.796403661944E+03   -0.24190E-04   -0.43695E-05 26240   0.149E-02    0.201E-02
DAV:  17    -0.796403676562E+03   -0.14618E-04   -0.22022E-05 24760   0.107E-02    0.146E-02
DAV:  18    -0.796403683403E+03   -0.68404E-05   -0.10429E-05 19400   0.723E-03
  26 F= -.79640368E+03 E0= -.79640368E+03  d E =0.290133E+00  mag=    47.0000
       N       E                     dE             d eps       ncg     rms          rms(c)
DAV:   1    -0.796182929479E+03    0.22075E+00   -0.28199E+01 35490   0.194E+01    0.250E+00
DAV:   2    -0.796639916486E+03   -0.45699E+00   -0.51171E+00 34420   0.409E+00    0.175E+00
DAV:   3    -0.796672633459E+03   -0.32717E-01   -0.22242E-01 40640   0.106E+00    0.102E+00
DAV:   4    -0.796669031185E+03    0.36023E-02   -0.18377E-02 43340   0.361E-01    0.683E-01
DAV:   5    -0.796668157834E+03    0.87335E-03   -0.14912E-02 39340   0.332E-01    0.335E-01
DAV:   6    -0.796668312570E+03   -0.15474E-03   -0.21472E-03 39210   0.182E-01    0.176E-01
DAV:   7    -0.796668449030E+03   -0.13646E-03   -0.14152E-03 41820   0.873E-02    0.113E-01
DAV:   8    -0.796668538108E+03   -0.89078E-04   -0.17823E-04 36520   0.404E-02    0.744E-02
DAV:   9    -0.796668609188E+03   -0.71080E-04   -0.95928E-05 39640   0.293E-02    0.497E-02
DAV:  10    -0.796668651599E+03   -0.42412E-04   -0.46844E-05 31110   0.199E-02    0.405E-02
DAV:  11    -0.796668675807E+03   -0.24208E-04   -0.22068E-05 22560   0.128E-02    0.346E-02
DAV:  12    -0.796668715235E+03   -0.39428E-04   -0.23738E-05 26910   0.161E-02    0.285E-02
DAV:  13    -0.796668750948E+03   -0.35713E-04   -0.65403E-05 33490   0.196E-02    0.205E-02
DAV:  14    -0.796668771181E+03   -0.20233E-04   -0.47008E-05 27990   0.171E-02    0.167E-02
DAV:  15    -0.796668780991E+03   -0.98098E-05   -0.24736E-05 22860   0.107E-02
  27 F= -.79666878E+03 E0= -.79666878E+03  d E =-.265098E+00  mag=    47.0000
       N       E                     dE             d eps       ncg     rms          rms(c)
DAV:   1    -0.796517255675E+03    0.15152E+00   -0.11498E+01 35510   0.123E+01    0.158E+00
DAV:   2    -0.796700241198E+03   -0.18299E+00   -0.20502E+00 34620   0.261E+00    0.109E+00
DAV:   3    -0.796713699472E+03   -0.13458E-01   -0.93602E-02 40620   0.685E-01    0.643E-01
DAV:   4    -0.796712123081E+03    0.15764E-02   -0.75992E-03 44070   0.233E-01    0.422E-01
DAV:   5    -0.796711706625E+03    0.41646E-03   -0.63149E-03 39100   0.212E-01    0.211E-01
DAV:   6    -0.796711746121E+03   -0.39497E-04   -0.85261E-04 38870   0.117E-01    0.111E-01
DAV:   7    -0.796711797150E+03   -0.51029E-04   -0.57907E-04 40500   0.550E-02    0.727E-02
DAV:   8    -0.796711835506E+03   -0.38355E-04   -0.73372E-05 33320   0.252E-02    0.491E-02
DAV:   9    -0.796711867411E+03   -0.31905E-04   -0.36348E-05 28620   0.191E-02    0.344E-02
DAV:  10    -0.796711885829E+03   -0.18418E-04   -0.23227E-05 23470   0.138E-02    0.278E-02
DAV:  11    -0.796711897236E+03   -0.11406E-04   -0.10556E-05 18780   0.841E-03    0.239E-02
DAV:  12    -0.796711917627E+03   -0.20392E-04   -0.11289E-05 21540   0.119E-02    0.200E-02
DAV:  13    -0.796711936726E+03   -0.19098E-04   -0.40781E-05 29830   0.143E-02    0.149E-02
DAV:  14    -0.796711948189E+03   -0.11463E-04   -0.26004E-05 25890   0.143E-02    0.122E-02
DAV:  15    -0.796711954490E+03   -0.63010E-05   -0.18550E-05 21670   0.892E-03
  28 F= -.79671195E+03 E0= -.79671195E+03  d E =-.431735E-01  mag=    47.0000
       N       E                     dE             d eps       ncg     rms          rms(c)
DAV:   1    -0.796712236786E+03   -0.28860E-03   -0.13055E-01 35660   0.104E+00    0.115E-01
DAV:   2    -0.796713230204E+03   -0.99342E-03   -0.10120E-02 33290   0.195E-01    0.883E-02
DAV:   3    -0.796713270943E+03   -0.40740E-04   -0.24248E-04 38260   0.433E-02    0.434E-02
DAV:   4    -0.796713268956E+03    0.19879E-05   -0.21283E-05 25640   0.172E-02
  29 F= -.79671327E+03 E0= -.79671327E+03  d E =-.131447E-02  mag=    47.0000
       N       E                     dE             d eps       ncg     rms          rms(c)
DAV:   1    -0.796624933952E+03    0.88337E-01   -0.11889E+01 34980   0.995E+00    0.109E+00
DAV:   2    -0.796715880139E+03   -0.90946E-01   -0.92140E-01 32880   0.183E+00    0.675E-01
DAV:   3    -0.796719879324E+03   -0.39992E-02   -0.19230E-02 39640   0.352E-01    0.344E-01
DAV:   4    -0.796719689600E+03    0.18972E-03   -0.17397E-03 42960   0.134E-01    0.278E-01
DAV:   5    -0.796719751692E+03   -0.62092E-04   -0.11615E-03 44340   0.981E-02    0.916E-02
DAV:   6    -0.796719877112E+03   -0.12542E-03   -0.32729E-04 39570   0.466E-02    0.630E-02
DAV:   7    -0.796719899056E+03   -0.21944E-04   -0.44314E-05 29420   0.199E-02    0.442E-02
DAV:   8    -0.796719930264E+03   -0.31208E-04   -0.24862E-05 24490   0.154E-02    0.365E-02
DAV:   9    -0.796719960093E+03   -0.29829E-04   -0.26716E-05 27110   0.139E-02    0.305E-02
DAV:  10    -0.796719978727E+03   -0.18634E-04   -0.17309E-05 21550   0.992E-03    0.268E-02
DAV:  11    -0.796720004620E+03   -0.25893E-04   -0.15093E-05 22730   0.136E-02    0.226E-02
DAV:  12    -0.796720033843E+03   -0.29224E-04   -0.10012E-04 36820   0.256E-02    0.149E-02
DAV:  13    -0.796720050135E+03   -0.16292E-04   -0.51448E-05 26670   0.145E-02    0.115E-02
DAV:  14    -0.796720055336E+03   -0.52011E-05   -0.82709E-06 19830   0.681E-03
  30 F= -.79672006E+03 E0= -.79672006E+03  d E =-.678638E-02  mag=    47.0000
       N       E                     dE             d eps       ncg     rms          rms(c)
DAV:   1    -0.796484709501E+03    0.23534E+00   -0.24776E+01 35140   0.156E+01    0.176E+00
DAV:   2    -0.796711834486E+03   -0.22712E+00   -0.22924E+00 31450   0.283E+00    0.876E-01
DAV:   3    -0.796724123970E+03   -0.12289E-01   -0.44551E-02 38940   0.470E-01    0.470E-01
DAV:   4    -0.796724008332E+03    0.11564E-03   -0.33131E-03 44890   0.152E-01    0.310E-01
DAV:   5    -0.796724439409E+03   -0.43108E-03   -0.14161E-03 45890   0.124E-01    0.116E-01
DAV:   6    -0.796724617781E+03   -0.17837E-03   -0.51971E-04 43040   0.748E-02    0.730E-02
DAV:   7    -0.796724631581E+03   -0.13800E-04   -0.81994E-05 36120   0.352E-02    0.470E-02
DAV:   8    -0.796724662958E+03   -0.31377E-04   -0.36337E-05 28970   0.193E-02    0.340E-02
DAV:   9    -0.796724687722E+03   -0.24764E-04   -0.26405E-05 24870   0.122E-02    0.298E-02
DAV:  10    -0.796724703016E+03   -0.15294E-04   -0.10249E-05 20240   0.902E-03    0.269E-02
DAV:  11    -0.796724726096E+03   -0.23080E-04   -0.12885E-05 20170   0.115E-02    0.233E-02
DAV:  12    -0.796724760416E+03   -0.34321E-04   -0.10590E-04 38210   0.281E-02    0.156E-02
DAV:  13    -0.796724779173E+03   -0.18756E-04   -0.60481E-05 28030   0.154E-02    0.117E-02
DAV:  14    -0.796724785499E+03   -0.63262E-05   -0.10105E-05 21190   0.841E-03
  31 F= -.79672479E+03 E0= -.79672479E+03  d E =-.473016E-02  mag=    47.0000
       N       E                     dE             d eps       ncg     rms          rms(c)
DAV:   1    -0.795151392630E+03    0.15734E+01   -0.17959E+02 34990   0.401E+01    0.446E+00
DAV:   2    -0.796618283122E+03   -0.14669E+01   -0.14884E+01 32740   0.735E+00    0.279E+00
DAV:   3    -0.796690794687E+03   -0.72512E-01   -0.31597E-01 39800   0.147E+00    0.137E+00
DAV:   4    -0.796688541138E+03    0.22535E-02   -0.27418E-02 43900   0.557E-01    0.111E+00
DAV:   5    -0.796688850771E+03   -0.30963E-03   -0.16766E-02 43910   0.411E-01    0.345E-01
DAV:   6    -0.796690774340E+03   -0.19236E-02   -0.48240E-03 42130   0.188E-01    0.200E-01
DAV:   7    -0.796690857662E+03   -0.83322E-04   -0.58734E-04 41380   0.821E-02    0.120E-01
DAV:   8    -0.796690945855E+03   -0.88192E-04   -0.17077E-04 41650   0.457E-02    0.818E-02
DAV:   9    -0.796691036355E+03   -0.90500E-04   -0.14078E-04 40230   0.363E-02    0.620E-02
DAV:  10    -0.796691092679E+03   -0.56324E-04   -0.64552E-05 28270   0.209E-02    0.530E-02
DAV:  11    -0.796691162205E+03   -0.69526E-04   -0.40786E-05 28040   0.168E-02    0.472E-02
DAV:  12    -0.796691273296E+03   -0.11109E-03   -0.10229E-04 36770   0.350E-02    0.363E-02
DAV:  13    -0.796691353064E+03   -0.79768E-04   -0.27104E-04 39630   0.369E-02    0.291E-02
DAV:  14    -0.796691394904E+03   -0.41840E-04   -0.99699E-05 30970   0.212E-02    0.230E-02
DAV:  15    -0.796691412706E+03   -0.17802E-04   -0.30645E-05 22120   0.116E-02    0.173E-02
DAV:  16    -0.796691422213E+03   -0.95069E-05   -0.11550E-05 20890   0.747E-03
  32 F= -.79669142E+03 E0= -.79669142E+03  d E =0.333633E-01  mag=    47.0000
       N       E                     dE             d eps       ncg     rms          rms(c)
DAV:   1    -0.796563746814E+03    0.12767E+00   -0.13029E+01 35130   0.119E+01    0.142E+00
DAV:   2    -0.796715080247E+03   -0.15133E+00   -0.15768E+00 33560   0.239E+00    0.129E+00
DAV:   3    -0.796721327737E+03   -0.62475E-02   -0.49552E-02 40110   0.603E-01    0.657E-01
DAV:   4    -0.796720910257E+03    0.41748E-03   -0.55208E-03 44690   0.243E-01    0.591E-01
DAV:   5    -0.796720448459E+03    0.46180E-03   -0.45266E-03 40760   0.194E-01    0.182E-01
DAV:   6    -0.796720616070E+03   -0.16761E-03   -0.10187E-03 41100   0.933E-02    0.101E-01
DAV:   7    -0.796720642978E+03   -0.26909E-04   -0.32483E-04 42110   0.440E-02    0.663E-02
DAV:   8    -0.796720667057E+03   -0.24078E-04   -0.35930E-05 28970   0.219E-02    0.461E-02
DAV:   9    -0.796720696389E+03   -0.29333E-04   -0.37265E-05 29430   0.197E-02    0.358E-02
DAV:  10    -0.796720718309E+03   -0.21920E-04   -0.24646E-05 22110   0.126E-02    0.276E-02
DAV:  11    -0.796720734401E+03   -0.16092E-04   -0.12357E-05 20590   0.881E-03    0.242E-02
DAV:  12    -0.796720756459E+03   -0.22058E-04   -0.13831E-05 20230   0.131E-02    0.201E-02
DAV:  13    -0.796720774237E+03   -0.17778E-04   -0.40300E-05 29380   0.142E-02    0.155E-02
DAV:  14    -0.796720784598E+03   -0.10361E-04   -0.22521E-05 21880   0.119E-02    0.125E-02
DAV:  15    -0.796720790043E+03   -0.54449E-05   -0.16300E-05 23000   0.859E-03
  33 F= -.79672079E+03 E0= -.79672079E+03  d E =-.293678E-01  mag=    47.0000
       N       E                     dE             d eps       ncg     rms          rms(c)
DAV:   1    -0.796717626615E+03    0.31580E-02   -0.37887E-01 35300   0.231E+00    0.290E-01
DAV:   2    -0.796723828057E+03   -0.62014E-02   -0.65197E-02 33560   0.456E-01    0.181E-01
DAV:   3    -0.796724197019E+03   -0.36896E-03   -0.20126E-03 38890   0.103E-01    0.104E-01
DAV:   4    -0.796724170958E+03    0.26061E-04   -0.18446E-04 44750   0.392E-02    0.724E-02
DAV:   5    -0.796724160657E+03    0.10301E-04   -0.11014E-04 37810   0.304E-02    0.292E-02
DAV:   6    -0.796724165122E+03   -0.44652E-05   -0.24202E-05 25910   0.179E-02
  34 F= -.79672417E+03 E0= -.79672417E+03  d E =-.337508E-02  mag=    47.0000
       N       E                     dE             d eps       ncg     rms          rms(c)
DAV:   1    -0.796721871738E+03    0.22889E-02   -0.56468E-01 34850   0.220E+00    0.256E-01
DAV:   2    -0.796726722474E+03   -0.48507E-02   -0.49988E-02 33540   0.438E-01    0.241E-01
DAV:   3    -0.796726900493E+03   -0.17802E-03   -0.14458E-03 38550   0.108E-01    0.125E-01
DAV:   4    -0.796726890116E+03    0.10377E-04   -0.15296E-04 43480   0.420E-02    0.112E-01
DAV:   5    -0.796726883412E+03    0.67042E-05   -0.14645E-04 39340   0.341E-02    0.347E-02
DAV:   6    -0.796726893785E+03   -0.10373E-04   -0.39828E-05 31480   0.169E-02    0.232E-02
DAV:   7    -0.796726896878E+03   -0.30928E-05   -0.87565E-06 17390   0.818E-03
  35 F= -.79672690E+03 E0= -.79672690E+03  d E =-.273176E-02  mag=    47.0000
       N       E                     dE             d eps       ncg     rms          rms(c)
DAV:   1    -0.796722873379E+03    0.40204E-02   -0.82211E-01 34860   0.249E+00    0.285E-01
DAV:   2    -0.796728874994E+03   -0.60016E-02   -0.60850E-02 33340   0.487E-01    0.282E-01
DAV:   3    -0.796729055903E+03   -0.18091E-03   -0.15146E-03 36930   0.116E-01    0.146E-01
DAV:   4    -0.796729061504E+03   -0.56014E-05   -0.15996E-04 42320   0.446E-02    0.133E-01
DAV:   5    -0.796729068810E+03   -0.73058E-05   -0.16056E-04 42540   0.373E-02    0.435E-02
DAV:   6    -0.796729088500E+03   -0.19689E-04   -0.46303E-05 31250   0.176E-02    0.295E-02
DAV:   7    -0.796729096245E+03   -0.77457E-05   -0.84200E-06 17570   0.889E-03
  36 F= -.79672910E+03 E0= -.79672910E+03  d E =-.219937E-02  mag=    47.0000
       N       E                     dE             d eps       ncg     rms          rms(c)
DAV:   1    -0.796722164651E+03    0.69238E-02   -0.99043E-01 35090   0.288E+00    0.333E-01
DAV:   2    -0.796730523944E+03   -0.83593E-02   -0.84403E-02 32920   0.542E-01    0.222E-01
DAV:   3    -0.796730912586E+03   -0.38864E-03   -0.17624E-03 39110   0.106E-01    0.121E-01
DAV:   4    -0.796730909700E+03    0.28857E-05   -0.17194E-04 42670   0.425E-02    0.977E-02
DAV:   5    -0.796730946779E+03   -0.37078E-04   -0.13112E-04 43020   0.344E-02    0.422E-02
DAV:   6    -0.796730973449E+03   -0.26671E-04   -0.46363E-05 29130   0.181E-02    0.351E-02
DAV:   7    -0.796730987421E+03   -0.13972E-04   -0.10709E-05 18200   0.100E-02    0.297E-02
DAV:   8    -0.796731013952E+03   -0.26530E-04   -0.14461E-05 21790   0.127E-02    0.249E-02
DAV:   9    -0.796731038060E+03   -0.24109E-04   -0.36971E-05 28430   0.132E-02    0.201E-02
DAV:  10    -0.796731053569E+03   -0.15509E-04   -0.19689E-05 21690   0.105E-02    0.166E-02
DAV:  11    -0.796731065787E+03   -0.12218E-04   -0.20834E-05 24030   0.118E-02    0.121E-02
DAV:  12    -0.796731073200E+03   -0.74128E-05   -0.26780E-05 28940   0.143E-02
  37 F= -.79673107E+03 E0= -.79673107E+03  d E =-.197695E-02  mag=    47.0000
       N       E                     dE             d eps       ncg     rms          rms(c)
DAV:   1    -0.796707614520E+03    0.23451E-01   -0.28366E+00 35440   0.494E+00    0.565E-01
DAV:   2    -0.796731917179E+03   -0.24303E-01   -0.24581E-01 32560   0.918E-01    0.325E-01
DAV:   3    -0.796733056306E+03   -0.11391E-02   -0.50003E-03 39500   0.163E-01    0.183E-01
DAV:   4    -0.796733022862E+03    0.33444E-04   -0.43041E-04 44390   0.605E-02    0.133E-01
DAV:   5    -0.796733094808E+03   -0.71946E-04   -0.27408E-04 44570   0.498E-02    0.580E-02
DAV:   6    -0.796733143037E+03   -0.48230E-04   -0.99743E-05 37050   0.279E-02    0.477E-02
DAV:   7    -0.796733167192E+03   -0.24154E-04   -0.20930E-05 21660   0.139E-02    0.395E-02
DAV:   8    -0.796733215030E+03   -0.47839E-04   -0.29282E-05 27750   0.172E-02    0.325E-02
DAV:   9    -0.796733252108E+03   -0.37078E-04   -0.49971E-05 28320   0.151E-02    0.272E-02
DAV:  10    -0.796733278495E+03   -0.26387E-04   -0.26278E-05 26430   0.129E-02    0.231E-02
DAV:  11    -0.796733304432E+03   -0.25937E-04   -0.37333E-05 29960   0.175E-02    0.176E-02
DAV:  12    -0.796733320666E+03   -0.16234E-04   -0.85743E-05 36000   0.240E-02    0.119E-02
DAV:  13    -0.796733333233E+03   -0.12567E-04   -0.42183E-05 22910   0.122E-02    0.966E-03
DAV:  14    -0.796733335081E+03   -0.18485E-05   -0.24474E-06 16990   0.335E-03
  38 F= -.79673334E+03 E0= -.79673334E+03  d E =-.226188E-02  mag=    47.0000
       N       E                     dE             d eps       ncg     rms          rms(c)
DAV:   1    -0.796714409109E+03    0.18924E-01   -0.24835E+00 35140   0.452E+00    0.505E-01
DAV:   2    -0.796733810558E+03   -0.19401E-01   -0.19621E-01 32830   0.837E-01    0.297E-01
DAV:   3    -0.796734713814E+03   -0.90326E-03   -0.40004E-03 39430   0.152E-01    0.165E-01
DAV:   4    -0.796734681129E+03    0.32686E-04   -0.35185E-04 44580   0.560E-02    0.122E-01
DAV:   5    -0.796734731540E+03   -0.50411E-04   -0.23656E-04 43790   0.474E-02    0.543E-02
DAV:   6    -0.796734775070E+03   -0.43530E-04   -0.86492E-05 36910   0.265E-02    0.441E-02
DAV:   7    -0.796734795613E+03   -0.20543E-04   -0.18502E-05 21810   0.132E-02    0.373E-02
DAV:   8    -0.796734837712E+03   -0.42098E-04   -0.26516E-05 27290   0.161E-02    0.313E-02
DAV:   9    -0.796734871127E+03   -0.33415E-04   -0.43417E-05 28300   0.144E-02    0.267E-02
DAV:  10    -0.796734895871E+03   -0.24744E-04   -0.23741E-05 27050   0.122E-02    0.228E-02
DAV:  11    -0.796734922053E+03   -0.26182E-04   -0.36460E-05 30720   0.166E-02    0.172E-02
DAV:  12    -0.796734939991E+03   -0.17937E-04   -0.99246E-05 37330   0.259E-02    0.118E-02
DAV:  13    -0.796734953364E+03   -0.13373E-04   -0.47933E-05 24830   0.128E-02    0.974E-03
DAV:  14    -0.796734955423E+03   -0.20590E-05   -0.31274E-06 17360   0.357E-03
  39 F= -.79673496E+03 E0= -.79673496E+03  d E =-.162034E-02  mag=    47.0000
       N       E                     dE             d eps       ncg     rms          rms(c)
DAV:   1    -0.796730140680E+03    0.48127E-02   -0.56862E-01 35040   0.229E+00    0.263E-01
DAV:   2    -0.796735481358E+03   -0.53407E-02   -0.54543E-02 32990   0.429E-01    0.155E-01
DAV:   3    -0.796735745761E+03   -0.26440E-03   -0.12052E-03 38590   0.786E-02    0.876E-02
DAV:   4    -0.796735738390E+03    0.73715E-05   -0.10514E-04 40120   0.297E-02    0.640E-02
DAV:   5    -0.796735755718E+03   -0.17329E-04   -0.63763E-05 37110   0.242E-02    0.304E-02
DAV:   6    -0.796735768020E+03   -0.12302E-04   -0.22126E-05 22500   0.145E-02    0.263E-02
DAV:   7    -0.796735774910E+03   -0.68901E-05   -0.75871E-06 17740   0.807E-03
  40 F= -.79673577E+03 E0= -.79673577E+03  d E =-.819488E-03  mag=    47.0000
       N       E                     dE             d eps       ncg     rms          rms(c)
DAV:   1    -0.796728789807E+03    0.69782E-02   -0.73850E-01 35560   0.265E+00    0.305E-01
DAV:   2    -0.796736017418E+03   -0.72276E-02   -0.73410E-02 32690   0.494E-01    0.169E-01
DAV:   3    -0.796736380664E+03   -0.36325E-03   -0.15123E-03 38920   0.859E-02    0.100E-01
DAV:   4    -0.796736384399E+03   -0.37349E-05   -0.13424E-04 41520   0.317E-02    0.717E-02
DAV:   5    -0.796736424144E+03   -0.39745E-04   -0.73943E-05 38780   0.279E-02    0.395E-02
DAV:   6    -0.796736446176E+03   -0.22031E-04   -0.31371E-05 26210   0.174E-02    0.348E-02
DAV:   7    -0.796736461174E+03   -0.14999E-04   -0.11653E-05 19430   0.101E-02    0.301E-02
DAV:   8    -0.796736489823E+03   -0.28648E-04   -0.16749E-05 24310   0.123E-02    0.256E-02
DAV:   9    -0.796736518881E+03   -0.29058E-04   -0.43204E-05 32430   0.146E-02    0.205E-02
DAV:  10    -0.796736539564E+03   -0.20684E-04   -0.29145E-05 26620   0.130E-02    0.169E-02
DAV:  11    -0.796736555580E+03   -0.16015E-04   -0.31596E-05 30350   0.140E-02    0.123E-02
DAV:  12    -0.796736565029E+03   -0.94497E-05   -0.40947E-05 31600   0.163E-02
  41 F= -.79673657E+03 E0= -.79673657E+03  d E =-.790119E-03  mag=    47.0000
       N       E                     dE             d eps       ncg     rms          rms(c)
DAV:   1    -0.796708288952E+03    0.28267E-01   -0.29584E+00 35530   0.524E+00    0.590E-01
DAV:   2    -0.796735659179E+03   -0.27370E-01   -0.27713E-01 32210   0.976E-01    0.323E-01
DAV:   3    -0.796737035076E+03   -0.13759E-02   -0.54606E-03 38960   0.162E-01    0.186E-01
DAV:   4    -0.796737020277E+03    0.14798E-04   -0.46139E-04 44660   0.583E-02    0.130E-01
DAV:   5    -0.796737125456E+03   -0.10518E-03   -0.23109E-04 44440   0.487E-02    0.635E-02
DAV:   6    -0.796737183444E+03   -0.57989E-04   -0.98703E-05 37570   0.301E-02    0.541E-02
DAV:   7    -0.796737215046E+03   -0.31601E-04   -0.24459E-05 24400   0.161E-02    0.458E-02
DAV:   8    -0.796737290216E+03   -0.75170E-04   -0.51629E-05 33240   0.216E-02    0.372E-02
DAV:   9    -0.796737347340E+03   -0.57123E-04   -0.81225E-05 34850   0.195E-02    0.315E-02
DAV:  10    -0.796737388919E+03   -0.41580E-04   -0.43536E-05 30470   0.169E-02    0.265E-02
DAV:  11    -0.796737429787E+03   -0.40868E-04   -0.82571E-05 36130   0.244E-02    0.185E-02
DAV:  12    -0.796737451633E+03   -0.21846E-04   -0.11651E-04 38130   0.264E-02    0.137E-02
DAV:  13    -0.796737466580E+03   -0.14948E-04   -0.51352E-05 25510   0.128E-02    0.103E-02
DAV:  14    -0.796737468919E+03   -0.23388E-05   -0.38132E-06 17950   0.406E-03
  42 F= -.79673747E+03 E0= -.79673747E+03  d E =-.903890E-03  mag=    47.0000
       N       E                     dE             d eps       ncg     rms          rms(c)
DAV:   1    -0.796654314541E+03    0.83152E-01   -0.84078E+00 35460   0.887E+00    0.101E+00
DAV:   2    -0.796732676767E+03   -0.78362E-01   -0.79055E-01 32090   0.165E+00    0.552E-01
DAV:   3    -0.796736774202E+03   -0.40974E-02   -0.15371E-02 38720   0.273E-01    0.320E-01
DAV:   4    -0.796736756912E+03    0.17290E-04   -0.12560E-03 43950   0.929E-02    0.221E-01
DAV:   5    -0.796737111633E+03   -0.35472E-03   -0.64304E-04 44040   0.792E-02    0.110E-01
DAV:   6    -0.796737294540E+03   -0.18291E-03   -0.28842E-04 39490   0.495E-02    0.952E-02
DAV:   7    -0.796737397985E+03   -0.10344E-03   -0.74246E-05 34180   0.273E-02    0.817E-02
DAV:   8    -0.796737660568E+03   -0.26258E-03   -0.20655E-04 43810   0.415E-02    0.654E-02
DAV:   9    -0.796737843822E+03   -0.18325E-03   -0.23386E-04 41700   0.359E-02    0.562E-02
DAV:  10    -0.796737967469E+03   -0.12365E-03   -0.12300E-04 39370   0.280E-02    0.463E-02
DAV:  11    -0.796738096224E+03   -0.12876E-03   -0.26437E-04 42730   0.452E-02    0.327E-02
DAV:  12    -0.796738162595E+03   -0.66370E-04   -0.33359E-04 41380   0.437E-02    0.239E-02
DAV:  13    -0.796738204780E+03   -0.42185E-04   -0.12632E-04 34130   0.201E-02    0.180E-02
DAV:  14    -0.796738211955E+03   -0.71745E-05   -0.91625E-06 18640   0.564E-03
  43 F= -.79673821E+03 E0= -.79673821E+03  d E =-.743036E-03  mag=    47.0000
       N       E                     dE             d eps       ncg     rms          rms(c)
DAV:   1    -0.796608909826E+03    0.12929E+00   -0.13920E+01 35500   0.112E+01    0.125E+00
DAV:   2    -0.796729936705E+03   -0.12103E+00   -0.12237E+00 32050   0.206E+00    0.679E-01
DAV:   3    -0.796736148687E+03   -0.62120E-02   -0.23621E-02 38090   0.334E-01    0.397E-01
DAV:   4    -0.796736100383E+03    0.48304E-04   -0.19489E-03 42330   0.109E-01    0.271E-01
DAV:   5    -0.796736686660E+03   -0.58628E-03   -0.97855E-04 43700   0.936E-02    0.138E-01
DAV:   6    -0.796736976953E+03   -0.29029E-03   -0.43196E-04 40000   0.588E-02    0.120E-01
DAV:   7    -0.796737154269E+03   -0.17732E-03   -0.11861E-04 37230   0.349E-02    0.104E-01
DAV:   8    -0.796737565974E+03   -0.41171E-03   -0.31588E-04 44330   0.510E-02    0.828E-02
DAV:   9    -0.796737868323E+03   -0.30235E-03   -0.36757E-04 42150   0.460E-02    0.705E-02
DAV:  10    -0.796738068077E+03   -0.19975E-03   -0.21896E-04 41090   0.349E-02    0.582E-02
DAV:  11    -0.796738256236E+03   -0.18816E-03   -0.31568E-04 42310   0.487E-02    0.433E-02
DAV:  12    -0.796738360985E+03   -0.10475E-03   -0.47841E-04 41780   0.540E-02    0.311E-02
DAV:  13    -0.796738434606E+03   -0.73620E-04   -0.21396E-04 37380   0.259E-02    0.239E-02
DAV:  14    -0.796738449824E+03   -0.15218E-04   -0.17771E-05 20900   0.718E-03    0.177E-02
DAV:  15    -0.796738455430E+03   -0.56068E-05   -0.19711E-06 16640   0.444E-03
  44 F= -.79673846E+03 E0= -.79673846E+03  d E =-.243476E-03  mag=    47.0000
       N       E                     dE             d eps       ncg     rms          rms(c)
DAV:   1    -0.796718360432E+03    0.20089E-01   -0.22649E+00 35360   0.449E+00    0.516E-01
DAV:   2    -0.796738353083E+03   -0.19993E-01   -0.20358E-01 32980   0.845E-01    0.329E-01
DAV:   3    -0.796739390164E+03   -0.10371E-02   -0.45378E-03 39150   0.169E-01    0.179E-01
DAV:   4    -0.796739355208E+03    0.34956E-04   -0.42089E-04 43650   0.667E-02    0.137E-01
DAV:   5    -0.796739386835E+03   -0.31627E-04   -0.29001E-04 43840   0.529E-02    0.518E-02
DAV:   6    -0.796739423310E+03   -0.36475E-04   -0.87708E-05 36780   0.267E-02    0.366E-02
DAV:   7    -0.796739434785E+03   -0.11475E-04   -0.16728E-05 19740   0.123E-02    0.285E-02
DAV:   8    -0.796739452005E+03   -0.17219E-04   -0.11452E-05 18740   0.102E-02    0.239E-02
DAV:   9    -0.796739466891E+03   -0.14886E-04   -0.15770E-05 21850   0.899E-03    0.200E-02
DAV:  10    -0.796739479055E+03   -0.12164E-04   -0.89093E-06 19470   0.836E-03    0.177E-02
DAV:  11    -0.796739490535E+03   -0.11481E-04   -0.13742E-05 21950   0.947E-03    0.138E-02
DAV:  12    -0.796739500377E+03   -0.98416E-05   -0.27148E-05 27100   0.169E-02
  45 F= -.79673950E+03 E0= -.79673950E+03  d E =-.104495E-02  mag=    47.0000
       N       E                     dE             d eps       ncg     rms          rms(c)
DAV:   1    -0.796504657533E+03    0.23483E+00   -0.24523E+01 35430   0.150E+01    0.167E+00
DAV:   2    -0.796723389702E+03   -0.21873E+00   -0.22138E+00 32130   0.278E+00    0.931E-01
DAV:   3    -0.796734204370E+03   -0.10815E-01   -0.43676E-02 39250   0.473E-01    0.529E-01
DAV:   4    -0.796734034601E+03    0.16977E-03   -0.37461E-03 44230   0.170E-01    0.375E-01
DAV:   5    -0.796734755035E+03   -0.72043E-03   -0.19967E-03 45260   0.143E-01    0.172E-01
DAV:   6    -0.796735193811E+03   -0.43878E-03   -0.78626E-04 39840   0.822E-02    0.143E-01
DAV:   7    -0.796735407853E+03   -0.21404E-03   -0.19448E-04 38390   0.434E-02    0.120E-01
DAV:   8    -0.796735877055E+03   -0.46920E-03   -0.32718E-04 44290   0.519E-02    0.991E-02
DAV:   9    -0.796736251062E+03   -0.37401E-03   -0.36339E-04 42330   0.488E-02    0.860E-02
DAV:  10    -0.796736506801E+03   -0.25574E-03   -0.23785E-04 41530   0.382E-02    0.741E-02
DAV:  11    -0.796736796049E+03   -0.28925E-03   -0.38934E-04 43180   0.570E-02    0.569E-02
DAV:  12    -0.796736977831E+03   -0.18178E-03   -0.86449E-04 42260   0.792E-02    0.407E-02
DAV:  13    -0.796737111353E+03   -0.13352E-03   -0.42819E-04 39920   0.377E-02    0.325E-02
DAV:  14    -0.796737136337E+03   -0.24984E-04   -0.32789E-05 23660   0.991E-03    0.250E-02
DAV:  15    -0.796737142347E+03   -0.60093E-05   -0.27138E-06 16570   0.572E-03
  46 F= -.79673714E+03 E0= -.79673714E+03  d E =0.235803E-02  mag=    47.0000
       N       E                     dE             d eps       ncg     rms          rms(c)
DAV:   1    -0.796689777218E+03    0.47359E-01   -0.48164E+00 35060   0.656E+00    0.760E-01
DAV:   2    -0.796735254862E+03   -0.45478E-01   -0.46271E-01 33250   0.127E+00    0.537E-01
DAV:   3    -0.796737398806E+03   -0.21439E-02   -0.11188E-02 38910   0.268E-01    0.299E-01
DAV:   4    -0.796737334128E+03    0.64679E-04   -0.10739E-03 43590   0.110E-01    0.241E-01
DAV:   5    -0.796737460975E+03   -0.12685E-03   -0.80545E-04 43370   0.847E-02    0.103E-01
DAV:   6    -0.796737600610E+03   -0.13963E-03   -0.27118E-04 39670   0.437E-02    0.829E-02
DAV:   7    -0.796737670584E+03   -0.69975E-04   -0.69507E-05 35710   0.222E-02    0.688E-02
DAV:   8    -0.796737795765E+03   -0.12518E-03   -0.70581E-05 35390   0.240E-02    0.580E-02
DAV:   9    -0.796737930112E+03   -0.13435E-03   -0.12643E-04 40200   0.306E-02    0.476E-02
DAV:  10    -0.796738014968E+03   -0.84857E-04   -0.10819E-04 36900   0.235E-02    0.413E-02
DAV:  11    -0.796738091845E+03   -0.76876E-04   -0.91651E-05 37690   0.274E-02    0.312E-02
DAV:  12    -0.796738143351E+03   -0.51506E-04   -0.21927E-04 41580   0.373E-02    0.214E-02
DAV:  13    -0.796738175995E+03   -0.32644E-04   -0.11917E-04 35040   0.201E-02    0.154E-02
DAV:  14    -0.796738185220E+03   -0.92248E-05   -0.17086E-05 21020   0.757E-03
  47 F= -.79673819E+03 E0= -.79673819E+03  d E =-.104287E-02  mag=    47.0000
       N       E                     dE             d eps       ncg     rms          rms(c)
DAV:   1    -0.796679940275E+03    0.58236E-01   -0.62637E+00 35260   0.755E+00    0.853E-01
DAV:   2    -0.796736366628E+03   -0.56426E-01   -0.57261E-01 32520   0.141E+00    0.492E-01
DAV:   3    -0.796739164684E+03   -0.27981E-02   -0.11904E-02 39050   0.253E-01    0.282E-01
DAV:   4    -0.796739113950E+03    0.50734E-04   -0.10475E-03 44880   0.954E-02    0.203E-01
DAV:   5    -0.796739301828E+03   -0.18788E-03   -0.62451E-04 44560   0.806E-02    0.977E-02
DAV:   6    -0.796739431562E+03   -0.12973E-03   -0.24435E-04 39620   0.468E-02    0.798E-02
DAV:   7    -0.796739499127E+03   -0.67565E-04   -0.60967E-05 33460   0.241E-02    0.669E-02
DAV:   8    -0.796739637830E+03   -0.13870E-03   -0.94988E-05 38720   0.277E-02    0.554E-02
DAV:   9    -0.796739757856E+03   -0.12003E-03   -0.11719E-04 38090   0.280E-02    0.472E-02
DAV:  10    -0.796739837925E+03   -0.80069E-04   -0.80307E-05 34820   0.220E-02    0.405E-02
DAV:  11    -0.796739918006E+03   -0.80080E-04   -0.10236E-04 37710   0.281E-02    0.310E-02
DAV:  12    -0.796739970699E+03   -0.52693E-04   -0.24153E-04 41930   0.418E-02    0.212E-02
DAV:  13    -0.796740009673E+03   -0.38974E-04   -0.13068E-04 34430   0.209E-02    0.167E-02
DAV:  14    -0.796740018464E+03   -0.87917E-05   -0.13484E-05 19440   0.675E-03
  48 F= -.79674002E+03 E0= -.79674002E+03  d E =-.183324E-02  mag=    47.0000
       N       E                     dE             d eps       ncg     rms          rms(c)
DAV:   1    -0.796721019836E+03    0.18990E-01   -0.21521E+00 35460   0.436E+00    0.488E-01
DAV:   2    -0.796739242334E+03   -0.18222E-01   -0.18501E-01 32940   0.817E-01    0.323E-01
DAV:   3    -0.796740107222E+03   -0.86489E-03   -0.39896E-03 39160   0.167E-01    0.173E-01
DAV:   4    -0.796740082883E+03    0.24339E-04   -0.38744E-04 43720   0.675E-02    0.138E-01
DAV:   5    -0.796740112967E+03   -0.30084E-04   -0.25557E-04 44200   0.502E-02    0.525E-02
DAV:   6    -0.796740153482E+03   -0.40515E-04   -0.80155E-05 36470   0.242E-02    0.391E-02
DAV:   7    -0.796740167742E+03   -0.14260E-04   -0.14283E-05 19850   0.121E-02    0.319E-02
DAV:   8    -0.796740192457E+03   -0.24715E-04   -0.13909E-05 23010   0.118E-02    0.276E-02
DAV:   9    -0.796740215145E+03   -0.22687E-04   -0.26666E-05 26800   0.109E-02    0.230E-02
DAV:  10    -0.796740234303E+03   -0.19158E-04   -0.15519E-05 24760   0.103E-02    0.203E-02
DAV:  11    -0.796740255347E+03   -0.21045E-04   -0.29786E-05 30800   0.148E-02    0.150E-02
DAV:  12    -0.796740269641E+03   -0.14294E-04   -0.68247E-05 34990   0.192E-02    0.109E-02
DAV:  13    -0.796740279372E+03   -0.97311E-05   -0.31418E-05 23770   0.102E-02
  49 F= -.79674028E+03 E0= -.79674028E+03  d E =-.260908E-03  mag=    47.0000
       N       E                     dE             d eps       ncg     rms          rms(c)
DAV:   1    -0.796731081994E+03    0.91876E-02   -0.94829E-01 35380   0.298E+00    0.339E-01
DAV:   2    -0.796739974225E+03   -0.88922E-02   -0.89943E-02 32410   0.556E-01    0.184E-01
DAV:   3    -0.796740423564E+03   -0.44934E-03   -0.18366E-03 38810   0.957E-02    0.103E-01
DAV:   4    -0.796740416250E+03    0.73138E-05   -0.14659E-04 40840   0.330E-02    0.717E-02
DAV:   5    -0.796740439859E+03   -0.23608E-04   -0.74294E-05 38600   0.278E-02    0.319E-02
DAV:   6    -0.796740453975E+03   -0.14117E-04   -0.27323E-05 25340   0.167E-02    0.261E-02
DAV:   7    -0.796740460102E+03   -0.61270E-05   -0.79129E-06 17000   0.880E-03
  50 F= -.79674046E+03 E0= -.79674046E+03  d E =-.180730E-03  mag=    47.0000
       N       E                     dE             d eps       ncg     rms          rms(c)
DAV:   1    -0.795912267861E+03    0.82819E+00   -0.69236E+01 34970   0.250E+01    0.290E+00
DAV:   2    -0.796584370140E+03   -0.67210E+00   -0.69829E+00 33380   0.512E+00    0.276E+00
DAV:   3    -0.796611192703E+03   -0.26823E-01   -0.21546E-01 39650   0.124E+00    0.150E+00
DAV:   4    -0.796608855560E+03    0.23371E-02   -0.21591E-02 43780   0.496E-01    0.132E+00
DAV:   5    -0.796607380042E+03    0.14755E-02   -0.22030E-02 41130   0.421E-01    0.438E-01
DAV:   6    -0.796608408284E+03   -0.10282E-02   -0.46939E-03 39580   0.200E-01    0.263E-01
DAV:   7    -0.796608745977E+03   -0.33769E-03   -0.19439E-03 39320   0.978E-02    0.184E-01
DAV:   8    -0.796609075879E+03   -0.32990E-03   -0.26911E-04 40400   0.554E-02    0.148E-01
DAV:   9    -0.796609533615E+03   -0.45774E-03   -0.32901E-04 42510   0.585E-02    0.120E-01
DAV:  10    -0.796609916656E+03   -0.38304E-03   -0.31633E-04 40570   0.474E-02    0.103E-01
DAV:  11    -0.796610235103E+03   -0.31845E-03   -0.24559E-04 40710   0.402E-02    0.873E-02
DAV:  12    -0.796610650661E+03   -0.41556E-03   -0.55945E-04 43430   0.698E-02    0.666E-02
DAV:  13    -0.796610890871E+03   -0.24021E-03   -0.73146E-04 41920   0.670E-02    0.487E-02
DAV:  14    -0.796611009324E+03   -0.11845E-03   -0.27858E-04 39220   0.363E-02    0.333E-02
DAV:  15    -0.796611051364E+03   -0.42040E-04   -0.77106E-05 26950   0.155E-02    0.250E-02
DAV:  16    -0.796611062333E+03   -0.10969E-04   -0.82189E-06 18150   0.680E-03    0.203E-02
DAV:  17    -0.796611076277E+03   -0.13944E-04   -0.85671E-06 19860   0.117E-02    0.154E-02
DAV:  18    -0.796611085623E+03   -0.93457E-05   -0.29639E-05 27680   0.104E-02
  51 F= -.79661109E+03 E0= -.79661109E+03  d E =0.129374E+00  mag=    47.0000
       N       E                     dE             d eps       ncg     rms          rms(c)
DAV:   1    -0.796346761561E+03    0.26431E+00   -0.29468E+01 35500   0.178E+01    0.215E+00
DAV:   2    -0.796704600835E+03   -0.35784E+00   -0.38258E+00 33680   0.367E+00    0.187E+00
DAV:   3    -0.796723678154E+03   -0.19077E-01   -0.13874E-01 40390   0.948E-01    0.101E+00
DAV:   4    -0.796721703032E+03    0.19751E-02   -0.13959E-02 42530   0.377E-01    0.837E-01
DAV:   5    -0.796720903342E+03    0.79969E-03   -0.12951E-02 40130   0.307E-01    0.302E-01
DAV:   6    -0.796721212113E+03   -0.30877E-03   -0.21767E-03 39760   0.154E-01    0.180E-01
DAV:   7    -0.796721332169E+03   -0.12006E-03   -0.13765E-03 39880   0.786E-02    0.111E-01
DAV:   8    -0.796721424206E+03   -0.92036E-04   -0.12390E-04 38270   0.393E-02    0.818E-02
DAV:   9    -0.796721532207E+03   -0.10800E-03   -0.10935E-04 40380   0.337E-02    0.638E-02
DAV:  10    -0.796721614638E+03   -0.82431E-04   -0.67790E-05 32210   0.234E-02    0.536E-02
DAV:  11    -0.796721682336E+03   -0.67699E-04   -0.50235E-05 31320   0.181E-02    0.456E-02
DAV:  12    -0.796721791259E+03   -0.10892E-03   -0.12938E-04 38150   0.333E-02    0.338E-02
DAV:  13    -0.796721854652E+03   -0.63392E-04   -0.14908E-04 36390   0.305E-02    0.267E-02
DAV:  14    -0.796721885055E+03   -0.30403E-04   -0.60289E-05 32150   0.190E-02    0.188E-02
DAV:  15    -0.796721898177E+03   -0.13122E-04   -0.26686E-05 21710   0.109E-02    0.139E-02
DAV:  16    -0.796721903265E+03   -0.50878E-05   -0.72151E-06 18380   0.599E-03
  52 F= -.79672190E+03 E0= -.79672190E+03  d E =-.110818E+00  mag=    47.0000
       N       E                     dE             d eps       ncg     rms          rms(c)
DAV:   1    -0.796723262926E+03   -0.13647E-02   -0.75514E-01 35220   0.265E+00    0.305E-01
DAV:   2    -0.796730119411E+03   -0.68565E-02   -0.71391E-02 33520   0.529E-01    0.283E-01
DAV:   3    -0.796730405530E+03   -0.28612E-03   -0.22699E-03 39200   0.133E-01    0.152E-01
DAV:   4    -0.796730378780E+03    0.26749E-04   -0.22879E-04 42890   0.525E-02    0.131E-01
DAV:   5    -0.796730365893E+03    0.12887E-04   -0.24239E-04 40410   0.430E-02    0.437E-02
DAV:   6    -0.796730375844E+03   -0.99514E-05   -0.50052E-05 33740   0.211E-02
  53 F= -.79673038E+03 E0= -.79673038E+03  d E =-.847258E-02  mag=    47.0000
       N       E                     dE             d eps       ncg     rms          rms(c)
DAV:   1    -0.796705353082E+03    0.25013E-01   -0.39676E+00 34800   0.576E+00    0.657E-01
DAV:   2    -0.796738070595E+03   -0.32718E-01   -0.33488E-01 33370   0.115E+00    0.644E-01
DAV:   3    -0.796739182203E+03   -0.11116E-02   -0.92716E-03 37010   0.281E-01    0.351E-01
DAV:   4    -0.796739113079E+03    0.69125E-04   -0.95468E-04 42420   0.110E-01    0.309E-01
DAV:   5    -0.796739064028E+03    0.49051E-04   -0.99961E-04 41790   0.920E-02    0.976E-02
DAV:   6    -0.796739130388E+03   -0.66360E-04   -0.25012E-04 39280   0.429E-02    0.579E-02
DAV:   7    -0.796739147825E+03   -0.17438E-04   -0.58621E-05 31550   0.190E-02    0.435E-02
DAV:   8    -0.796739171848E+03   -0.24023E-04   -0.13814E-05 19980   0.131E-02    0.366E-02
DAV:   9    -0.796739204960E+03   -0.33112E-04   -0.26175E-05 29730   0.152E-02    0.294E-02
DAV:  10    -0.796739228914E+03   -0.23954E-04   -0.26064E-05 23670   0.119E-02    0.257E-02
DAV:  11    -0.796739251112E+03   -0.22198E-04   -0.16644E-05 24880   0.113E-02    0.210E-02
DAV:  12    -0.796739275769E+03   -0.24657E-04   -0.41612E-05 31760   0.206E-02    0.151E-02
DAV:  13    -0.796739290868E+03   -0.15099E-04   -0.71865E-05 28500   0.155E-02    0.117E-02
DAV:  14    -0.796739297376E+03   -0.65082E-05   -0.12542E-05 19870   0.707E-03
  54 F= -.79673930E+03 E0= -.79673930E+03  d E =-.892153E-02  mag=    47.0000
       N       E                     dE             d eps       ncg     rms          rms(c)
DAV:   1    -0.796738624407E+03    0.66646E-03   -0.17875E-01 34240   0.113E+00    0.129E-01
DAV:   2    -0.796739879411E+03   -0.12550E-02   -0.12795E-02 33370   0.224E-01    0.122E-01
DAV:   3    -0.796739921717E+03   -0.42306E-04   -0.33057E-04 37710   0.536E-02    0.658E-02
DAV:   4    -0.796739920025E+03    0.16921E-05   -0.28320E-05 27790   0.198E-02
  55 F= -.79673992E+03 E0= -.79673992E+03  d E =-.622649E-03  mag=    47.0000
       N       E                     dE             d eps       ncg     rms          rms(c)
DAV:   1    -0.796735395062E+03    0.45267E-02   -0.90218E-01 34040   0.223E+00    0.248E-01
DAV:   2    -0.796740072761E+03   -0.46777E-02   -0.47832E-02 33390   0.438E-01    0.257E-01
DAV:   3    -0.796740179092E+03   -0.10633E-03   -0.12487E-03 36350   0.105E-01    0.146E-01
DAV:   4    -0.796740178419E+03    0.67323E-06   -0.13705E-04 41940   0.407E-02    0.132E-01
DAV:   5    -0.796740200473E+03   -0.22054E-04   -0.18041E-04 42070   0.382E-02    0.516E-02
DAV:   6    -0.796740229854E+03   -0.29380E-04   -0.60509E-05 36000   0.197E-02    0.396E-02
DAV:   7    -0.796740245918E+03   -0.16065E-04   -0.12696E-05 20140   0.952E-03    0.341E-02
DAV:   8    -0.796740277658E+03   -0.31740E-04   -0.16792E-05 25370   0.132E-02    0.289E-02
DAV:   9    -0.796740314224E+03   -0.36566E-04   -0.53113E-05 34870   0.173E-02    0.221E-02
DAV:  10    -0.796740334197E+03   -0.19973E-04   -0.33534E-05 24650   0.114E-02    0.197E-02
DAV:  11    -0.796740349498E+03   -0.15300E-04   -0.15311E-05 26850   0.111E-02    0.156E-02
DAV:  12    -0.796740361112E+03   -0.11614E-04   -0.60225E-05 35190   0.196E-02    0.104E-02
DAV:  13    -0.796740370278E+03   -0.91663E-05   -0.29826E-05 23440   0.100E-02
  56 F= -.79674037E+03 E0= -.79674037E+03  d E =-.450253E-03  mag=    47.0000
       N       E                     dE             d eps       ncg     rms          rms(c)
DAV:   1    -0.796739409387E+03    0.95173E-03   -0.16847E-01 34810   0.113E+00    0.127E-01
DAV:   2    -0.796740687671E+03   -0.12783E-02   -0.12951E-02 33310   0.220E-01    0.105E-01
DAV:   3    -0.796740735171E+03   -0.47499E-04   -0.30889E-04 37560   0.493E-02    0.566E-02
DAV:   4    -0.796740732899E+03    0.22718E-05   -0.27815E-05 27260   0.200E-02
  57 F= -.79674073E+03 E0= -.79674073E+03  d E =-.362621E-03  mag=    47.0000
