       N       E                     dE             d eps       ncg     rms          rms(c)
DAV:   1     0.305083465723E+04    0.30508E+04   -0.25839E+05 73584   0.130E+03
DAV:   2    -0.613945876434E+03   -0.36648E+04   -0.35367E+04 89628   0.297E+02
DAV:   3    -0.871377184849E+03   -0.25743E+03   -0.25531E+03 89064   0.832E+01
DAV:   4    -0.874580407511E+03   -0.32032E+01   -0.31915E+01 89388   0.998E+00
DAV:   5    -0.874634239780E+03   -0.53832E-01   -0.53704E-01 90960   0.120E+00    0.989E+01
DAV:   6    -0.781841222831E+03    0.92793E+02   -0.39451E+02 84468   0.316E+01    0.506E+01
DAV:   7    -0.790545019467E+03   -0.87038E+01   -0.25637E+01 86148   0.878E+00    0.176E+01
DAV:   8    -0.794215026952E+03   -0.36700E+01   -0.39617E+00 94332   0.445E+00    0.974E+00
DAV:   9    -0.795821596550E+03   -0.16066E+01   -0.22345E+00 93900   0.306E+00    0.667E+00
DAV:  10    -0.796689434105E+03   -0.86784E+00   -0.28743E+00 98064   0.248E+00    0.554E+00
DAV:  11    -0.796939608622E+03   -0.25017E+00   -0.22723E+00 96612   0.179E+00    0.455E+00
DAV:  12    -0.797048072991E+03   -0.10846E+00   -0.16061E+00 99768   0.142E+00    0.350E+00
DAV:  13    -0.797082986158E+03   -0.34913E-01   -0.82768E-01 99084   0.112E+00    0.215E+00
DAV:  14    -0.797133592000E+03   -0.50606E-01   -0.16096E-01 90096   0.786E-01    0.897E-01
DAV:  15    -0.797147847349E+03   -0.14255E-01   -0.49695E-02 88056   0.394E-01    0.809E-01
DAV:  16    -0.797151726254E+03   -0.38789E-02   -0.16368E-02 86568   0.222E-01    0.882E-01
DAV:  17    -0.797148945372E+03    0.27809E-02   -0.14040E-02 94752   0.204E-01    0.511E-01
DAV:  18    -0.797151896807E+03   -0.29514E-02   -0.14575E-02 85008   0.119E-01    0.768E-01
DAV:  19    -0.797151126976E+03    0.76983E-03   -0.47157E-03 98040   0.129E-01    0.370E-01
DAV:  20    -0.797151516167E+03   -0.38919E-03   -0.57822E-03 89208   0.983E-02    0.274E-01
DAV:  21    -0.797151724162E+03   -0.20799E-03   -0.15799E-03 86496   0.745E-02    0.237E-01
DAV:  22    -0.797151696081E+03    0.28081E-04   -0.13025E-03 86724   0.483E-02    0.149E-01
DAV:  23    -0.797151711666E+03   -0.15584E-04   -0.37482E-04 85536   0.387E-02    0.431E-02
DAV:  24    -0.797151743990E+03   -0.32325E-04   -0.21886E-04 82704   0.175E-02    0.489E-02
DAV:  25    -0.797151754567E+03   -0.10576E-04   -0.38582E-05 66480   0.156E-02    0.142E-02
DAV:  26    -0.797151759094E+03   -0.45274E-05   -0.16848E-05 56940   0.734E-03
   1 F= -.79715176E+03 E0= -.79713588E+03  d E =-.797152E+03  mag=     0.9920
       N       E                     dE             d eps       ncg     rms          rms(c)
DAV:   1    -0.797153325998E+03   -0.15714E-02   -0.90273E-03 75864   0.174E-01    0.123E-01
DAV:   2    -0.797153513352E+03   -0.18735E-03   -0.36375E-03106236   0.896E-02    0.348E-01
DAV:   3    -0.797153233884E+03    0.27947E-03   -0.16458E-03103392   0.633E-02    0.545E-02
DAV:   4    -0.797153306175E+03   -0.72291E-04   -0.24140E-04 82440   0.254E-02    0.443E-02
DAV:   5    -0.797153312730E+03   -0.65548E-05   -0.50187E-05 66588   0.142E-02
   2 F= -.79715331E+03 E0= -.79713748E+03  d E =-.155364E-02  mag=     0.9934
       N       E                     dE             d eps       ncg     rms          rms(c)
DAV:   1    -0.797157034918E+03   -0.37287E-02   -0.76746E-02 75624   0.508E-01    0.357E-01
DAV:   2    -0.797158514761E+03   -0.14798E-02   -0.30217E-02107028   0.258E-01    0.987E-01
DAV:   3    -0.797156391982E+03    0.21228E-02   -0.13602E-02103764   0.179E-01    0.186E-01
DAV:   4    -0.797156850832E+03   -0.45885E-03   -0.16995E-03 82428   0.738E-02    0.952E-02
DAV:   5    -0.797156921190E+03   -0.70358E-04   -0.42655E-04 83760   0.409E-02    0.927E-02
DAV:   6    -0.797156897860E+03    0.23330E-04   -0.12628E-04 87192   0.232E-02    0.348E-02
DAV:   7    -0.797156897458E+03    0.40217E-06   -0.75815E-05 82236   0.146E-02
   3 F= -.79715690E+03 E0= -.79714115E+03  d E =-.358473E-02  mag=     0.9939
       N       E                     dE             d eps       ncg     rms          rms(c)
DAV:   1    -0.797161060340E+03   -0.41625E-02   -0.44729E-01 74592   0.124E+00    0.767E-01
DAV:   2    -0.797167050562E+03   -0.59902E-02   -0.12863E-01105612   0.535E-01    0.195E+00
DAV:   3    -0.797159497436E+03    0.75531E-02   -0.57079E-02101748   0.358E-01    0.448E-01
DAV:   4    -0.797160594946E+03   -0.10975E-02   -0.76268E-03 82416   0.162E-01    0.205E-01
DAV:   5    -0.797160817824E+03   -0.22288E-03   -0.23463E-03 87384   0.965E-02    0.208E-01
DAV:   6    -0.797160718143E+03    0.99681E-04   -0.57177E-04 95544   0.533E-02    0.797E-02
DAV:   7    -0.797160716564E+03    0.15793E-05   -0.41425E-04 88476   0.347E-02    0.666E-02
DAV:   8    -0.797160703815E+03    0.12749E-04   -0.20523E-04 86472   0.213E-02    0.502E-02
DAV:   9    -0.797160702692E+03    0.11238E-05   -0.13305E-04 61056   0.136E-02    0.372E-02
DAV:  10    -0.797160703159E+03   -0.46738E-06   -0.67223E-05 47124   0.854E-03
   4 F= -.79716070E+03 E0= -.79714518E+03  d E =-.380570E-02  mag=     0.9943
       N       E                     dE             d eps       ncg     rms          rms(c)
DAV:   1    -0.797161204832E+03   -0.50214E-03   -0.26860E-02 75384   0.306E-01    0.110E-01
DAV:   2    -0.797161312725E+03   -0.10789E-03   -0.17854E-03 93444   0.714E-02    0.202E-01
DAV:   3    -0.797161217498E+03    0.95227E-04   -0.77732E-04 97884   0.457E-02    0.433E-02
DAV:   4    -0.797161237619E+03   -0.20121E-04   -0.12366E-04 82968   0.224E-02    0.461E-02
DAV:   5    -0.797161233317E+03    0.43024E-05   -0.42712E-05 63456   0.130E-02
   5 F= -.79716123E+03 E0= -.79714570E+03  d E =-.530158E-03  mag=     0.9945
       N       E                     dE             d eps       ncg     rms          rms(c)
DAV:   1    -0.797162270308E+03   -0.10327E-02   -0.38517E-01 73992   0.116E+00    0.243E-01
DAV:   2    -0.797163082799E+03   -0.81249E-03   -0.11013E-02 90084   0.189E-01    0.291E-01
DAV:   3    -0.797162898549E+03    0.18425E-03   -0.22543E-03101088   0.856E-02    0.126E-01
DAV:   4    -0.797162876506E+03    0.22043E-04   -0.31442E-04 86268   0.398E-02    0.755E-02
DAV:   5    -0.797162856621E+03    0.19885E-04   -0.22314E-04 94452   0.261E-02    0.473E-02
DAV:   6    -0.797162855264E+03    0.13576E-05   -0.14603E-04 88932   0.197E-02    0.499E-02
DAV:   7    -0.797162850542E+03    0.47220E-05   -0.38392E-05 57060   0.126E-02
   6 F= -.79716285E+03 E0= -.79714734E+03  d E =-.161722E-02  mag=     0.9947
       N       E                     dE             d eps       ncg     rms          rms(c)
DAV:   1    -0.797163424242E+03   -0.56898E-03   -0.53620E-01 73680   0.136E+00    0.380E-01
DAV:   2    -0.797166242672E+03   -0.28184E-02   -0.48783E-02 98448   0.343E-01    0.116E+00
DAV:   3    -0.797163324536E+03    0.29181E-02   -0.18600E-02 96300   0.207E-01    0.156E-01
DAV:   4    -0.797164044290E+03   -0.71975E-03   -0.25900E-03 81576   0.745E-02    0.154E-01
DAV:   5    -0.797164085997E+03   -0.41707E-04   -0.57661E-04 79824   0.429E-02    0.650E-02
DAV:   6    -0.797164083578E+03    0.24185E-05   -0.31050E-04 88248   0.242E-02    0.755E-02
DAV:   7    -0.797164068883E+03    0.14695E-04   -0.73406E-05 78408   0.170E-02    0.421E-02
DAV:   8    -0.797164068432E+03    0.45149E-06   -0.14831E-04 65820   0.128E-02    0.408E-02
DAV:   9    -0.797164066995E+03    0.14371E-05   -0.37261E-05 51672   0.931E-03
   7 F= -.79716407E+03 E0= -.79714866E+03  d E =-.121645E-02  mag=     0.9952
       N       E                     dE             d eps       ncg     rms          rms(c)
DAV:   1    -0.797164032150E+03    0.36282E-04   -0.66874E-01 73440   0.153E+00    0.258E-01
DAV:   2    -0.797165742427E+03   -0.17103E-02   -0.21907E-02 88920   0.252E-01    0.507E-01
DAV:   3    -0.797165152842E+03    0.58958E-03   -0.41145E-03 97536   0.109E-01    0.792E-02
DAV:   4    -0.797165242363E+03   -0.89521E-04   -0.81237E-04 85140   0.400E-02    0.140E-01
DAV:   5    -0.797165232029E+03    0.10334E-04   -0.18254E-03 98580   0.435E-02    0.155E-01
DAV:   6    -0.797165161030E+03    0.70999E-04   -0.35433E-04 84204   0.282E-02    0.552E-02
DAV:   7    -0.797165161852E+03   -0.82160E-06   -0.95589E-05 76704   0.140E-02
   8 F= -.79716516E+03 E0= -.79714975E+03  d E =-.109486E-02  mag=     0.9954
       N       E                     dE             d eps       ncg     rms          rms(c)
DAV:   1    -0.797165775269E+03   -0.61424E-03   -0.25574E-01 73488   0.945E-01    0.427E-01
DAV:   2    -0.797167697451E+03   -0.19222E-02   -0.38656E-02104544   0.334E-01    0.106E+00
DAV:   3    -0.797165336152E+03    0.23613E-02   -0.13931E-02103740   0.215E-01    0.162E-01
DAV:   4    -0.797165842250E+03   -0.50610E-03   -0.30014E-03 85200   0.798E-02    0.168E-01
DAV:   5    -0.797165887501E+03   -0.45251E-04   -0.22436E-03 81708   0.551E-02    0.160E-01
DAV:   6    -0.797165806286E+03    0.81215E-04   -0.50101E-04 80292   0.301E-02    0.358E-02
DAV:   7    -0.797165836751E+03   -0.30466E-04   -0.17907E-04 78816   0.192E-02    0.692E-02
DAV:   8    -0.797165822401E+03    0.14350E-04   -0.95311E-05 59028   0.139E-02    0.134E-02
DAV:   9    -0.797165826131E+03   -0.37296E-05   -0.18688E-05 49788   0.723E-03
   9 F= -.79716583E+03 E0= -.79715033E+03  d E =-.664279E-03  mag=     0.9953
       N       E                     dE             d eps       ncg     rms          rms(c)
DAV:   1    -0.797166469365E+03   -0.64696E-03   -0.50111E-02 73752   0.416E-01    0.176E-01
DAV:   2    -0.797166833388E+03   -0.36402E-03   -0.66149E-03 98016   0.128E-01    0.438E-01
DAV:   3    -0.797166406649E+03    0.42674E-03   -0.29098E-03 98244   0.839E-02    0.618E-02
DAV:   4    -0.797166532692E+03   -0.12604E-03   -0.45429E-04 82872   0.355E-02    0.852E-02
DAV:   5    -0.797166523351E+03    0.93401E-05   -0.17016E-04 79836   0.224E-02    0.358E-02
DAV:   6    -0.797166522619E+03    0.73209E-06   -0.43438E-05 57348   0.113E-02
  10 F= -.79716652E+03 E0= -.79715103E+03  d E =-.696488E-03  mag=     0.9953
       N       E                     dE             d eps       ncg     rms          rms(c)
DAV:   1    -0.797166898768E+03   -0.37542E-03   -0.75234E-02 73656   0.513E-01    0.944E-02
DAV:   2    -0.797167083518E+03   -0.18475E-03   -0.24664E-03 89304   0.852E-02    0.169E-01
DAV:   3    -0.797167021472E+03    0.62046E-04   -0.57593E-04 96540   0.380E-02    0.360E-02
DAV:   4    -0.797167032978E+03   -0.11506E-04   -0.53008E-05 74772   0.139E-02    0.408E-02
DAV:   5    -0.797167030392E+03    0.25864E-05   -0.14755E-04 60024   0.135E-02    0.444E-02
DAV:   6    -0.797167026828E+03    0.35638E-05   -0.20252E-05 51648   0.923E-03
  11 F= -.79716703E+03 E0= -.79715155E+03  d E =-.504208E-03  mag=     0.9953
