       N       E                     dE             d eps       ncg     rms          rms(c)
DAV:   1     0.573596126036E+04    0.57360E+04   -0.20942E+05 43392   0.159E+03
DAV:   2     0.361348041772E+03   -0.53746E+04   -0.48711E+04 42712   0.482E+02
DAV:   3    -0.441515901407E+03   -0.80286E+03   -0.75417E+03 45496   0.195E+02
DAV:   4    -0.483262465320E+03   -0.41747E+02   -0.41264E+02 47992   0.454E+01
DAV:   5    -0.483781918175E+03   -0.51945E+00   -0.51836E+00 46496   0.555E+00    0.116E+02
DAV:   6    -0.408572678384E+03    0.75209E+02   -0.53738E+02 52616   0.904E+01    0.112E+02
DAV:   7    -0.398373526093E+03    0.10199E+02   -0.29269E+02 47536   0.926E+01    0.713E+01
DAV:   8    -0.395133978138E+03    0.32395E+01   -0.63190E+01 51640   0.322E+01    0.581E+01
DAV:   9    -0.393267672480E+03    0.18663E+01   -0.90610E+01 46144   0.373E+01    0.474E+01
DAV:  10    -0.387543616883E+03    0.57241E+01   -0.10720E+01 50656   0.146E+01    0.285E+01
DAV:  11    -0.386830459358E+03    0.71316E+00   -0.10754E+01 46248   0.114E+01    0.215E+01
DAV:  12    -0.387913938036E+03   -0.10835E+01   -0.21409E+00 48360   0.461E+00    0.132E+01
DAV:  13    -0.388290570943E+03   -0.37663E+00   -0.61480E-01 51120   0.334E+00    0.104E+01
DAV:  14    -0.389086461063E+03   -0.79589E+00   -0.63502E-01 53016   0.225E+00    0.614E+00
DAV:  15    -0.389097643807E+03   -0.11183E-01   -0.19938E-01 52808   0.285E+00    0.308E+00
DAV:  16    -0.389108766335E+03   -0.11123E-01   -0.11772E-01 49520   0.130E+00    0.205E+00
DAV:  17    -0.389095535899E+03    0.13230E-01   -0.25848E-02 50272   0.962E-01    0.137E+00
DAV:  18    -0.389093018733E+03    0.25172E-02   -0.10451E-02 49024   0.439E-01    0.883E-01
DAV:  19    -0.389091274680E+03    0.17441E-02   -0.30547E-03 51200   0.249E-01    0.533E-01
DAV:  20    -0.389090935507E+03    0.33917E-03   -0.15371E-03 50072   0.218E-01    0.303E-01
DAV:  21    -0.389090917220E+03    0.18287E-04   -0.11984E-03 48536   0.120E-01    0.184E-01
DAV:  22    -0.389090878221E+03    0.39000E-04   -0.31361E-04 46400   0.645E-02    0.136E-01
DAV:  23    -0.389090867892E+03    0.10329E-04   -0.49641E-05 46472   0.474E-02    0.738E-02
DAV:  24    -0.389090852881E+03    0.15011E-04   -0.38556E-05 42064   0.440E-02    0.270E-02
DAV:  25    -0.389090855583E+03   -0.27025E-05   -0.52437E-05 41664   0.191E-02
   1 F= -.38909086E+03 E0= -.38909086E+03  d E =-.389091E+03  mag=    48.9991
       N       E                     dE             d eps       ncg     rms          rms(c)
DAV:   1    -0.389095598849E+03   -0.47460E-02   -0.28901E-02 58040   0.100E+00    0.109E-01
DAV:   2    -0.389096207276E+03   -0.60843E-03   -0.58823E-03 46768   0.172E-01    0.664E-02
DAV:   3    -0.389096238852E+03   -0.31576E-04   -0.19534E-04 43376   0.478E-02    0.403E-02
DAV:   4    -0.389096237080E+03    0.17721E-05   -0.13978E-05 30328   0.147E-02
   2 F= -.38909624E+03 E0= -.38909624E+03  d E =-.538150E-02  mag=    48.9999
       N       E                     dE             d eps       ncg     rms          rms(c)
DAV:   1    -0.388984400428E+03    0.11184E+00   -0.80205E+00 56576   0.166E+01    0.182E+00
DAV:   2    -0.389153969377E+03   -0.16957E+00   -0.16365E+00 46896   0.284E+00    0.105E+00
DAV:   3    -0.389161940916E+03   -0.79715E-02   -0.49809E-02 44408   0.681E-01    0.592E-01
DAV:   4    -0.389161514111E+03    0.42680E-03   -0.37083E-03 51312   0.204E-01    0.369E-01
DAV:   5    -0.389160830068E+03    0.68404E-03   -0.12739E-03 50040   0.175E-01    0.219E-01
DAV:   6    -0.389160802976E+03    0.27093E-04   -0.76377E-04 50512   0.120E-01    0.967E-02
DAV:   7    -0.389160833615E+03   -0.30640E-04   -0.27183E-04 45800   0.524E-02    0.372E-02
DAV:   8    -0.389160833732E+03   -0.11709E-06   -0.11617E-05 27592   0.153E-02
   3 F= -.38916083E+03 E0= -.38916083E+03  d E =-.645967E-01  mag=    49.0000
       N       E                     dE             d eps       ncg     rms          rms(c)
DAV:   1    -0.389048439355E+03    0.11239E+00   -0.11998E+01 50832   0.151E+01    0.165E+00
DAV:   2    -0.389194032824E+03   -0.14559E+00   -0.14157E+00 47968   0.278E+00    0.991E-01
DAV:   3    -0.389198665567E+03   -0.46327E-02   -0.35667E-02 45256   0.604E-01    0.586E-01
DAV:   4    -0.389198066148E+03    0.59942E-03   -0.28978E-03 50368   0.185E-01    0.370E-01
DAV:   5    -0.389197281847E+03    0.78430E-03   -0.15308E-03 50224   0.184E-01    0.211E-01
DAV:   6    -0.389197301934E+03   -0.20087E-04   -0.85290E-04 49736   0.112E-01    0.951E-02
DAV:   7    -0.389197324979E+03   -0.23046E-04   -0.24107E-04 45640   0.509E-02    0.381E-02
DAV:   8    -0.389197322227E+03    0.27523E-05   -0.12898E-05 28680   0.180E-02
   4 F= -.38919732E+03 E0= -.38919732E+03  d E =-.364885E-01  mag=    49.0000
       N       E                     dE             d eps       ncg     rms          rms(c)
DAV:   1    -0.389168388698E+03    0.28936E-01   -0.12039E+01 46184   0.953E+00    0.995E-01
DAV:   2    -0.389222118436E+03   -0.53730E-01   -0.52699E-01 47392   0.175E+00    0.690E-01
DAV:   3    -0.389222484208E+03   -0.36577E-03   -0.10138E-02 46408   0.352E-01    0.447E-01
DAV:   4    -0.389221991195E+03    0.49301E-03   -0.11832E-03 48824   0.127E-01    0.294E-01
DAV:   5    -0.389221594092E+03    0.39710E-03   -0.10282E-03 48424   0.126E-01    0.152E-01
DAV:   6    -0.389221644649E+03   -0.50557E-04   -0.49405E-04 48936   0.802E-02    0.788E-02
DAV:   7    -0.389221646817E+03   -0.21676E-05   -0.87069E-05 44800   0.390E-02
   5 F= -.38922165E+03 E0= -.38922165E+03  d E =-.243246E-01  mag=    49.0000
       N       E                     dE             d eps       ncg     rms          rms(c)
DAV:   1    -0.389123254046E+03    0.98391E-01   -0.28127E+01 45216   0.138E+01    0.146E+00
DAV:   2    -0.389245801038E+03   -0.12255E+00   -0.11904E+00 46392   0.262E+00    0.105E+00
DAV:   3    -0.389246584594E+03   -0.78356E-03   -0.22945E-02 45760   0.536E-01    0.686E-01
DAV:   4    -0.389245543566E+03    0.10410E-02   -0.29985E-03 49208   0.238E-01    0.503E-01
DAV:   5    -0.389244573142E+03    0.97042E-03   -0.24460E-03 47384   0.195E-01    0.226E-01
DAV:   6    -0.389244744883E+03   -0.17174E-03   -0.12518E-03 49272   0.107E-01    0.118E-01
DAV:   7    -0.389244744073E+03    0.80965E-06   -0.20284E-04 45672   0.519E-02    0.511E-02
DAV:   8    -0.389244732684E+03    0.11389E-04   -0.16997E-05 29216   0.197E-02    0.274E-02
DAV:   9    -0.389244731848E+03    0.83533E-06   -0.19267E-05 28992   0.140E-02
   6 F= -.38924473E+03 E0= -.38924473E+03  d E =-.230850E-01  mag=    49.0000
       N       E                     dE             d eps       ncg     rms          rms(c)
DAV:   1    -0.389131947510E+03    0.11279E+00   -0.19915E+01 46408   0.141E+01    0.147E+00
DAV:   2    -0.389256277345E+03   -0.12433E+00   -0.11926E+00 45584   0.268E+00    0.101E+00
DAV:   3    -0.389259119686E+03   -0.28423E-02   -0.28224E-02 45032   0.571E-01    0.628E-01
DAV:   4    -0.389258380238E+03    0.73945E-03   -0.28604E-03 48936   0.227E-01    0.448E-01
DAV:   5    -0.389257599040E+03    0.78120E-03   -0.17092E-03 48368   0.189E-01    0.222E-01
DAV:   6    -0.389257726012E+03   -0.12697E-03   -0.10460E-03 49392   0.112E-01    0.114E-01
DAV:   7    -0.389257736301E+03   -0.10289E-04   -0.19167E-04 45544   0.516E-02    0.434E-02
DAV:   8    -0.389257728244E+03    0.80563E-05   -0.12706E-05 26896   0.192E-02
   7 F= -.38925773E+03 E0= -.38925773E+03  d E =-.129964E-01  mag=    49.0000
       N       E                     dE             d eps       ncg     rms          rms(c)
DAV:   1    -0.389100322214E+03    0.15741E+00   -0.26303E+01 45808   0.160E+01    0.174E+00
DAV:   2    -0.389263478145E+03   -0.16316E+00   -0.15696E+00 46040   0.309E+00    0.110E+00
DAV:   3    -0.389266452141E+03   -0.29740E-02   -0.33482E-02 45592   0.613E-01    0.656E-01
DAV:   4    -0.389265443058E+03    0.10091E-02   -0.33647E-03 49768   0.229E-01    0.470E-01
DAV:   5    -0.389264462230E+03    0.98083E-03   -0.18909E-03 49168   0.200E-01    0.240E-01
DAV:   6    -0.389264563920E+03   -0.10169E-03   -0.12526E-03 49752   0.129E-01    0.127E-01
DAV:   7    -0.389264581026E+03   -0.17106E-04   -0.25604E-04 45792   0.625E-02    0.446E-02
DAV:   8    -0.389264573869E+03    0.71577E-05   -0.16089E-05 30176   0.204E-02
   8 F= -.38926457E+03 E0= -.38926457E+03  d E =-.684562E-02  mag=    49.0000
       N       E                     dE             d eps       ncg     rms          rms(c)
DAV:   1    -0.389245466878E+03    0.19114E-01   -0.32089E+00 47080   0.604E+00    0.613E-01
DAV:   2    -0.389267594755E+03   -0.22128E-01   -0.21448E-01 46016   0.116E+00    0.412E-01
DAV:   3    -0.389268103541E+03   -0.50879E-03   -0.53609E-03 45064   0.262E-01    0.265E-01
DAV:   4    -0.389267971253E+03    0.13229E-03   -0.55004E-04 49368   0.947E-02    0.170E-01
DAV:   5    -0.389267810725E+03    0.16053E-03   -0.28762E-04 49736   0.707E-02    0.862E-02
DAV:   6    -0.389267821822E+03   -0.11097E-04   -0.17644E-04 49504   0.405E-02    0.356E-02
DAV:   7    -0.389267824025E+03   -0.22027E-05   -0.31168E-05 39304   0.210E-02
   9 F= -.38926782E+03 E0= -.38926782E+03  d E =-.325016E-02  mag=    49.0000
       N       E                     dE             d eps       ncg     rms          rms(c)
DAV:   1    -0.389260275934E+03    0.75459E-02   -0.56173E-01 52376   0.357E+00    0.411E-01
DAV:   2    -0.389268984877E+03   -0.87089E-02   -0.83009E-02 46856   0.660E-01    0.224E-01
DAV:   3    -0.389269303161E+03   -0.31828E-03   -0.20054E-03 44208   0.142E-01    0.128E-01
DAV:   4    -0.389269279660E+03    0.23501E-04   -0.16415E-04 48816   0.430E-02    0.860E-02
DAV:   5    -0.389269240175E+03    0.39485E-04   -0.45945E-05 43360   0.356E-02    0.504E-02
DAV:   6    -0.389269238149E+03    0.20256E-05   -0.41601E-05 43840   0.271E-02
  10 F= -.38926924E+03 E0= -.38926924E+03  d E =-.141412E-02  mag=    49.0000
       N       E                     dE             d eps       ncg     rms          rms(c)
DAV:   1    -0.389251352804E+03    0.17887E-01   -0.18344E+00 50392   0.539E+00    0.590E-01
DAV:   2    -0.389270100455E+03   -0.18748E-01   -0.17796E-01 45120   0.996E-01    0.335E-01
DAV:   3    -0.389270743912E+03   -0.64346E-03   -0.46072E-03 44664   0.193E-01    0.179E-01
DAV:   4    -0.389270667938E+03    0.75974E-04   -0.34880E-04 49896   0.582E-02    0.126E-01
DAV:   5    -0.389270588177E+03    0.79762E-04   -0.11513E-04 50256   0.561E-02    0.631E-02
DAV:   6    -0.389270595603E+03   -0.74259E-05   -0.95100E-05 48992   0.366E-02
  11 F= -.38927060E+03 E0= -.38927060E+03  d E =-.135745E-02  mag=    49.0000
