       N       E                     dE             d eps       ncg     rms          ort
DAV:   1     0.283806358138E+04    0.28381E+04   -0.29359E+05 18360   0.141E+03
DAV:   2    -0.970388901660E+03   -0.38085E+04   -0.36712E+04 18360   0.312E+02
DAV:   3    -0.123058213297E+04   -0.26019E+03   -0.25855E+03 18360   0.852E+01
DAV:   4    -0.123362609764E+04   -0.30440E+01   -0.30336E+01 18360   0.980E+00
DAV:   5    -0.123367579279E+04   -0.49695E-01   -0.49590E-01 18360   0.115E+00
SDA:   6    -0.872872002723E+03    0.36080E+03   -0.49590E-01 18360   0.618E+03 0.000E+00
CGA:   7    -0.985764084861E+03   -0.11289E+03   -0.11270E+03 18360   0.440E+02-0.264E+01
CGA:   8    -0.998889254512E+03   -0.13125E+02   -0.13099E+02 18360   0.105E+02 0.218E+00
CGA:   9    -0.100273166110E+04   -0.38424E+01   -0.38439E+01 18360   0.400E+01-0.139E-01
CGA:  10    -0.100399800011E+04   -0.12663E+01   -0.12699E+01 18360   0.868E+00-0.307E-01
CGA:  11    -0.100433233797E+04   -0.33434E+00   -0.33465E+00 18360   0.188E+00-0.163E-02
CGA:  12    -0.100439746117E+04   -0.65123E-01   -0.65118E-01 18360   0.431E-01 0.151E-04
CGA:  13    -0.100441369883E+04   -0.16238E-01   -0.16345E-01 18360   0.984E-02-0.747E-03
CGA:  14    -0.100441739472E+04   -0.36959E-02   -0.36191E-02 18360   0.216E-02 0.564E-03
CGA:  15    -0.100441833820E+04   -0.94348E-03   -0.91255E-03 18360   0.534E-03 0.200E-03
CGA:  16    -0.100441861773E+04   -0.27953E-03   -0.36688E-03 18360   0.376E-03-0.234E-03
CGA:  17    -0.100441868305E+04   -0.65316E-04   -0.65141E-04 18360   0.142E-03 0.452E-05
CGA:  18    -0.100441870947E+04   -0.26419E-04   -0.29366E-04 18360   0.573E-04 0.418E-04
CGA:  19    -0.100441872206E+04   -0.12587E-04   -0.14656E-04 18360   0.290E-04 0.283E-04
CGA:  20    -0.100441873138E+04   -0.93205E-05   -0.97882E-05 18360   0.124E-04 0.113E-04
   1 F= -.10044187E+04 E0= -.10044187E+04  d E =-.100442E+04  mag=    -0.0000
       N       E                     dE             d eps       ncg     rms          ort
SDA:   1    -0.100442447238E+04   -0.57503E-02    0.00000E+00 18360   0.528E-02 0.000E+00
CGA:   2    -0.100442636658E+04   -0.18942E-02   -0.18990E-02 18360   0.130E-02-0.552E-04
CGA:   3    -0.100442669173E+04   -0.32516E-03   -0.32559E-03 18360   0.190E-03 0.174E-04
CGA:   4    -0.100442674466E+04   -0.52932E-04   -0.52970E-04 18360   0.283E-04 0.200E-04
CGA:   5    -0.100442675618E+04   -0.11513E-04   -0.11514E-04 18360   0.976E-05-0.337E-08
CGA:   6    -0.100442675988E+04   -0.37033E-05   -0.37544E-05 18360   0.331E-05-0.493E-06
   2 F= -.10044268E+04 E0= -.10044268E+04  d E =-.802850E-02  mag=    -0.0000
       N       E                     dE             d eps       ncg     rms          ort
SDA:   1    -0.100437345091E+04    0.53305E-01    0.00000E+00 18360   0.209E+00 0.000E+00
CGA:   2    -0.100444797004E+04   -0.74519E-01   -0.74545E-01 18360   0.504E-01-0.363E-03
CGA:   3    -0.100446099402E+04   -0.13024E-01   -0.13028E-01 18360   0.761E-02 0.118E-03
CGA:   4    -0.100446328866E+04   -0.22946E-02   -0.22935E-02 18360   0.125E-02 0.108E-03
CGA:   5    -0.100446373103E+04   -0.44237E-03   -0.44264E-03 18360   0.367E-03-0.449E-05
CGA:   6    -0.100446387290E+04   -0.14186E-03   -0.14344E-03 18360   0.118E-03-0.158E-04
CGA:   7    -0.100446391039E+04   -0.37490E-04   -0.37078E-04 18360   0.238E-04 0.140E-04
CGA:   8    -0.100446391907E+04   -0.86810E-05   -0.85769E-05 18360   0.494E-05 0.469E-05
   3 F= -.10044639E+04 E0= -.10044639E+04  d E =-.371592E-01  mag=    -0.0000
       N       E                     dE             d eps       ncg     rms          ort
SDA:   1    -0.100436485523E+04    0.99055E-01    0.00000E+00 18360   0.266E+00 0.000E+00
CGA:   2    -0.100445911749E+04   -0.94262E-01   -0.94279E-01 18360   0.631E-01-0.416E-03
CGA:   3    -0.100447564634E+04   -0.16529E-01   -0.16535E-01 18360   0.968E-02 0.992E-04
CGA:   4    -0.100447851749E+04   -0.28711E-02   -0.28739E-02 18360   0.154E-02 0.138E-03
CGA:   5    -0.100447906823E+04   -0.55074E-03   -0.55103E-03 18360   0.455E-03-0.758E-05
CGA:   6    -0.100447924577E+04   -0.17754E-03   -0.17922E-03 18360   0.148E-03-0.214E-04
CGA:   7    -0.100447929203E+04   -0.46260E-04   -0.46167E-04 18360   0.297E-04 0.182E-04
CGA:   8    -0.100447930309E+04   -0.11063E-04   -0.11019E-04 18360   0.616E-05 0.510E-05
CGA:   9    -0.100447930618E+04   -0.30859E-05   -0.44353E-05 18360   0.621E-05-0.461E-05
   4 F= -.10044793E+04 E0= -.10044793E+04  d E =-.153871E-01  mag=    -0.0000
       N       E                     dE             d eps       ncg     rms          ort
SDA:   1    -0.100447678850E+04    0.25146E-02    0.00000E+00 18360   0.786E-02 0.000E+00
CGA:   2    -0.100447956003E+04   -0.27715E-02   -0.27735E-02 18360   0.168E-02-0.759E-04
CGA:   3    -0.100448002094E+04   -0.46091E-03   -0.46153E-03 18360   0.267E-03 0.117E-04
CGA:   4    -0.100448008102E+04   -0.60080E-04   -0.63351E-04 18360   0.352E-04 0.360E-04
CGA:   5    -0.100448009365E+04   -0.12626E-04   -0.12652E-04 18360   0.108E-04 0.455E-05
CGA:   6    -0.100448009613E+04   -0.24862E-05   -0.10784E-04 18360   0.314E-04-0.147E-04
   5 F= -.10044801E+04 E0= -.10044801E+04  d E =-.789956E-03  mag=    -0.0000
       N       E                     dE             d eps       ncg     rms          ort
SDA:   1    -0.100433875527E+04    0.14134E+00    0.00000E+00 18360   0.342E+00 0.000E+00
CGA:   2    -0.100446046326E+04   -0.12171E+00   -0.12172E+00 18360   0.689E-01-0.602E-03
CGA:   3    -0.100447928421E+04   -0.18821E-01   -0.18827E-01 18360   0.110E-01 0.671E-04
CGA:   4    -0.100448207169E+04   -0.27875E-02   -0.28053E-02 18360   0.155E-02 0.217E-03
CGA:   5    -0.100448260072E+04   -0.52903E-03   -0.52903E-03 18360   0.402E-03-0.664E-05
CGA:   6    -0.100448276925E+04   -0.16853E-03   -0.17165E-03 18360   0.152E-03-0.328E-04
CGA:   7    -0.100448280939E+04   -0.40135E-04   -0.41371E-04 18360   0.331E-04 0.293E-04
CGA:   8    -0.100448282132E+04   -0.11937E-04   -0.12138E-04 18360   0.782E-05 0.676E-05
CGA:   9    -0.100448282461E+04   -0.32866E-05   -0.66284E-05 18360   0.133E-04-0.905E-05
   6 F= -.10044828E+04 E0= -.10044828E+04  d E =-.272848E-02  mag=    -0.0000
       N       E                     dE             d eps       ncg     rms          ort
SDA:   1    -0.100439817307E+04    0.84648E-01    0.00000E+00 18360   0.203E+00 0.000E+00
CGA:   2    -0.100447264285E+04   -0.74470E-01   -0.74469E-01 18360   0.407E-01 0.195E-04
CGA:   3    -0.100448304907E+04   -0.10406E-01   -0.10406E-01 18360   0.604E-02-0.351E-05
CGA:   4    -0.100448461594E+04   -0.15669E-02   -0.15621E-02 18360   0.884E-03-0.590E-04
CGA:   5    -0.100448488951E+04   -0.27357E-03   -0.27355E-03 18360   0.174E-03-0.385E-06
CGA:   6    -0.100448495234E+04   -0.62833E-04   -0.62512E-04 18360   0.501E-04 0.132E-04
CGA:   7    -0.100448497905E+04   -0.26705E-04   -0.30774E-04 18360   0.345E-04-0.174E-04
CGA:   8    -0.100448498476E+04   -0.57154E-05   -0.58345E-05 18360   0.914E-05 0.133E-05
   7 F= -.10044850E+04 E0= -.10044850E+04  d E =-.216015E-02  mag=    -0.0000
       N       E                     dE             d eps       ncg     rms          ort
SDA:   1    -0.100425052734E+04    0.23445E+00    0.00000E+00 18360   0.559E+00 0.000E+00
CGA:   2    -0.100445540102E+04   -0.20487E+00   -0.20487E+00 18360   0.111E+00-0.866E-05
CGA:   3    -0.100448363873E+04   -0.28238E-01   -0.28233E-01 18360   0.166E-01-0.492E-04
CGA:   4    -0.100448789383E+04   -0.42551E-02   -0.42490E-02 18360   0.238E-02-0.802E-04
CGA:   5    -0.100448862844E+04   -0.73460E-03   -0.73467E-03 18360   0.452E-03 0.370E-05
CGA:   6    -0.100448879752E+04   -0.16908E-03   -0.16828E-03 18360   0.137E-03 0.182E-04
CGA:   7    -0.100448886412E+04   -0.66605E-04   -0.70802E-04 18360   0.653E-04-0.254E-04
CGA:   8    -0.100448888101E+04   -0.16890E-04   -0.16910E-04 18360   0.111E-04 0.928E-06
CGA:   9    -0.100448888361E+04   -0.26002E-05   -0.28375E-05 18360   0.286E-05 0.281E-05
   8 F= -.10044889E+04 E0= -.10044889E+04  d E =-.389885E-02  mag=    -0.0000
       N       E                     dE             d eps       ncg     rms          ort
SDA:   1    -0.100424055737E+04    0.24832E+00    0.00000E+00 18360   0.572E+00 0.000E+00
CGA:   2    -0.100445221593E+04   -0.21166E+00   -0.21166E+00 18360   0.118E+00-0.745E-04
CGA:   3    -0.100448173524E+04   -0.29519E-01   -0.29518E-01 18360   0.171E-01 0.593E-05
CGA:   4    -0.100448624264E+04   -0.45074E-02   -0.45014E-02 18360   0.254E-02-0.919E-04
CGA:   5    -0.100448703772E+04   -0.79508E-03   -0.79515E-03 18360   0.508E-03 0.616E-05
CGA:   6    -0.100448722681E+04   -0.18910E-03   -0.18810E-03 18360   0.154E-03 0.225E-04
CGA:   7    -0.100448730022E+04   -0.73411E-04   -0.77556E-04 18360   0.708E-04-0.268E-04
CGA:   8    -0.100448731800E+04   -0.17775E-04   -0.17869E-04 18360   0.119E-04 0.316E-05
CGA:   9    -0.100448732086E+04   -0.28620E-05   -0.31193E-05 18360   0.304E-05 0.311E-05
   9 F= -.10044873E+04 E0= -.10044873E+04  d E =0.156275E-02  mag=     0.0000
       N       E                     dE             d eps       ncg     rms          ort
SDA:   1    -0.100444825746E+04    0.39061E-01    0.00000E+00 18360   0.100E+00 0.000E+00
CGA:   2    -0.100448346375E+04   -0.35206E-01   -0.35207E-01 18360   0.227E-01 0.108E-04
CGA:   3    -0.100448934566E+04   -0.58819E-02   -0.58771E-02 18360   0.359E-02-0.748E-04
CGA:   4    -0.100449035204E+04   -0.10064E-02   -0.10086E-02 18360   0.539E-03 0.506E-04
CGA:   5    -0.100449053328E+04   -0.18124E-03   -0.18118E-03 18360   0.141E-03 0.809E-05
CGA:   6    -0.100449059328E+04   -0.60000E-04   -0.61795E-04 18360   0.580E-04-0.168E-04
CGA:   7    -0.100449060844E+04   -0.15157E-04   -0.15372E-04 18360   0.123E-04 0.740E-05
CGA:   8    -0.100449061260E+04   -0.41594E-05   -0.42189E-05 18360   0.305E-05 0.239E-05
  10 F= -.10044906E+04 E0= -.10044906E+04  d E =-.329174E-02  mag=     0.0000
       N       E                     dE             d eps       ncg     rms          ort
SDA:   1    -0.100448786177E+04    0.27467E-02    0.00000E+00 18360   0.733E-02 0.000E+00
CGA:   2    -0.100449063317E+04   -0.27714E-02   -0.27726E-02 18360   0.157E-02-0.298E-04
CGA:   3    -0.100449101351E+04   -0.38034E-03   -0.38124E-03 18360   0.227E-03 0.903E-05
CGA:   4    -0.100449107518E+04   -0.61673E-04   -0.62216E-04 18360   0.338E-04 0.838E-05
CGA:   5    -0.100449108677E+04   -0.11583E-04   -0.11584E-04 18360   0.853E-05 0.182E-06
CGA:   6    -0.100449109038E+04   -0.36127E-05   -0.37516E-05 18360   0.388E-05-0.134E-05
  11 F= -.10044911E+04 E0= -.10044911E+04  d E =-.477780E-03  mag=    -0.0000
       N       E                     dE             d eps       ncg     rms          ort
SDA:   1    -0.100445827389E+04    0.32813E-01    0.00000E+00 18360   0.762E-01 0.000E+00
CGA:   2    -0.100448725931E+04   -0.28985E-01   -0.28990E-01 18360   0.147E-01-0.903E-04
CGA:   3    -0.100449086835E+04   -0.36090E-02   -0.36102E-02 18360   0.216E-02 0.115E-04
CGA:   4    -0.100449142567E+04   -0.55733E-03   -0.55920E-03 18360   0.306E-03 0.253E-04
CGA:   5    -0.100449152162E+04   -0.95941E-04   -0.95971E-04 18360   0.585E-04 0.167E-05
CGA:   6    -0.100449154567E+04   -0.24057E-04   -0.24371E-04 18360   0.221E-04-0.363E-05
CGA:   7    -0.100449155255E+04   -0.68784E-05   -0.68770E-05 18360   0.528E-05 0.282E-05
  12 F= -.10044916E+04 E0= -.10044916E+04  d E =-.462170E-03  mag=     0.0000
       N       E                     dE             d eps       ncg     rms          ort
SDA:   1    -0.100435175434E+04    0.13979E+00    0.00000E+00 18360   0.317E+00 0.000E+00
CGA:   2    -0.100447480772E+04   -0.12305E+00   -0.12306E+00 18360   0.591E-01-0.125E-03
CGA:   3    -0.100448913809E+04   -0.14330E-01   -0.14330E-01 18360   0.889E-02-0.969E-05
CGA:   4    -0.100449146196E+04   -0.23239E-02   -0.23257E-02 18360   0.125E-02 0.264E-04
CGA:   5    -0.100449184702E+04   -0.38506E-03   -0.38513E-03 18360   0.233E-03 0.314E-05
CGA:   6    -0.100449193934E+04   -0.92325E-04   -0.92487E-04 18360   0.786E-04-0.233E-05
CGA:   7    -0.100449197025E+04   -0.30911E-04   -0.30849E-04 18360   0.229E-04 0.928E-06
CGA:   8    -0.100449197884E+04   -0.85875E-05   -0.85581E-05 18360   0.393E-05 0.804E-06
  13 F= -.10044920E+04 E0= -.10044920E+04  d E =-.426290E-03  mag=     0.0000
       N       E                     dE             d eps       ncg     rms          ort
SDA:   1    -0.100200859115E+04    0.24834E+01    0.00000E+00 18360   0.559E+01 0.000E+00
CGA:   2    -0.100416677521E+04   -0.21582E+01   -0.21582E+01 18360   0.105E+01-0.784E-03
CGA:   3    -0.100442141130E+04   -0.25464E+00   -0.25460E+00 18360   0.158E+00-0.356E-03
CGA:   4    -0.100446311028E+04   -0.41699E-01   -0.41694E-01 18360   0.225E-01-0.716E-04
CGA:   5    -0.100447001417E+04   -0.69039E-02   -0.69056E-02 18360   0.414E-02 0.777E-04
CGA:   6    -0.100447162694E+04   -0.16128E-02   -0.16128E-02 18360   0.139E-02 0.280E-06
CGA:   7    -0.100447219988E+04   -0.57294E-03   -0.57691E-03 18360   0.452E-03-0.468E-04
CGA:   8    -0.100447236096E+04   -0.16108E-03   -0.16090E-03 18360   0.753E-04 0.552E-05
CGA:   9    -0.100447238895E+04   -0.27990E-04   -0.28015E-04 18360   0.131E-04-0.838E-06
CGA:  10    -0.100447239449E+04   -0.55375E-05   -0.60213E-05 18360   0.430E-05-0.383E-05
  14 F= -.10044724E+04 E0= -.10044724E+04  d E =0.195843E-01  mag=     0.0000
       N       E                     dE             d eps       ncg     rms          ort
SDA:   1    -0.100393707671E+04    0.53531E+00    0.00000E+00 18360   0.125E+01 0.000E+00
CGA:   2    -0.100441819600E+04   -0.48112E+00   -0.48114E+00 18360   0.250E+00-0.448E-03
CGA:   3    -0.100447873384E+04   -0.60538E-01   -0.60536E-01 18360   0.374E-01-0.549E-04
CGA:   4    -0.100448889812E+04   -0.10164E-01   -0.10168E-01 18360   0.557E-02 0.577E-04
CGA:   5    -0.100449066214E+04   -0.17640E-02   -0.17636E-02 18360   0.118E-02-0.173E-04
CGA:   6    -0.100449111910E+04   -0.45696E-03   -0.45748E-03 18360   0.387E-03-0.105E-04
CGA:   7    -0.100449126531E+04   -0.14621E-03   -0.14584E-03 18360   0.104E-03 0.950E-05
CGA:   8    -0.100449130856E+04   -0.43253E-04   -0.43723E-04 18360   0.220E-04-0.683E-05
CGA:   9    -0.100449131584E+04   -0.72823E-05   -0.72842E-05 18360   0.368E-05-0.251E-06
  15 F= -.10044913E+04 E0= -.10044913E+04  d E =-.189214E-01  mag=    -0.0000
       N       E                     dE             d eps       ncg     rms          ort
SDA:   1    -0.100436685725E+04    0.12445E+00    0.00000E+00 18360   0.291E+00 0.000E+00
CGA:   2    -0.100447558876E+04   -0.10873E+00   -0.10873E+00 18360   0.578E-01-0.883E-04
CGA:   3    -0.100449006915E+04   -0.14480E-01   -0.14483E-01 18360   0.859E-02 0.323E-04
CGA:   4    -0.100449230238E+04   -0.22332E-02   -0.22338E-02 18360   0.123E-02 0.664E-05
CGA:   5    -0.100449269598E+04   -0.39360E-03   -0.39326E-03 18360   0.254E-03-0.149E-04
CGA:   6    -0.100449279256E+04   -0.96576E-04   -0.96461E-04 18360   0.804E-04 0.266E-05
CGA:   7    -0.100449282482E+04   -0.32268E-04   -0.32130E-04 18360   0.234E-04 0.261E-05
CGA:   8    -0.100449283434E+04   -0.95145E-05   -0.95584E-05 18360   0.452E-05-0.850E-06
  16 F= -.10044928E+04 E0= -.10044928E+04  d E =-.151850E-02  mag=     0.0000
       N       E                     dE             d eps       ncg     rms          ort
SDA:   1    -0.100447835378E+04    0.14471E-01    0.00000E+00 18360   0.351E-01 0.000E+00
CGA:   2    -0.100449096610E+04   -0.12612E-01   -0.12612E-01 18360   0.745E-02 0.371E-04
CGA:   3    -0.100449291509E+04   -0.19490E-02   -0.19485E-02 18360   0.112E-02-0.461E-05
CGA:   4    -0.100449321431E+04   -0.29921E-03   -0.29777E-03 18360   0.171E-03-0.169E-04
CGA:   5    -0.100449326814E+04   -0.53834E-04   -0.53856E-04 18360   0.369E-04 0.826E-06
CGA:   6    -0.100449328200E+04   -0.13855E-04   -0.13795E-04 18360   0.107E-04 0.225E-05
CGA:   7    -0.100449328744E+04   -0.54446E-05   -0.60654E-05 18360   0.647E-05-0.329E-05
  17 F= -.10044933E+04 E0= -.10044933E+04  d E =-.453104E-03  mag=     0.0000
       N       E                     dE             d eps       ncg     rms          ort
SDA:   1    -0.100448886082E+04    0.44212E-02    0.00000E+00 18360   0.105E-01 0.000E+00
CGA:   2    -0.100449277997E+04   -0.39191E-02   -0.39189E-02 18360   0.210E-02 0.129E-04
CGA:   3    -0.100449332139E+04   -0.54143E-03   -0.53988E-03 18360   0.322E-03-0.164E-04
CGA:   4    -0.100449340582E+04   -0.84424E-04   -0.84196E-04 18360   0.468E-04-0.273E-05
CGA:   5    -0.100449341934E+04   -0.13517E-04   -0.13688E-04 18360   0.900E-05 0.358E-05
CGA:   6    -0.100449342347E+04   -0.41328E-05   -0.41925E-05 18360   0.391E-05-0.647E-06
  18 F= -.10044934E+04 E0= -.10044934E+04  d E =-.136026E-03  mag=     0.0000
