       N       E                     dE             d eps       ncg     rms          rms(c)
DAV:   1     0.844085989393E+04    0.84409E+04   -0.36686E+05 27032   0.176E+03
DAV:   2    -0.850510687648E+02   -0.85259E+04   -0.78394E+04 26200   0.478E+02
DAV:   3    -0.134234072309E+04   -0.12573E+04   -0.12256E+04 27752   0.205E+02
DAV:   4    -0.140846932200E+04   -0.66129E+02   -0.62619E+02 31096   0.466E+01
DAV:   5    -0.141079619067E+04   -0.23269E+01   -0.22683E+01 31448   0.724E+00    0.118E+02
DAV:   6    -0.109494577841E+04    0.31585E+03   -0.72368E+02 33528   0.670E+01    0.118E+02
DAV:   7    -0.111896551307E+04   -0.24020E+02   -0.12801E+02 30344   0.358E+01    0.668E+01
DAV:   8    -0.111962587414E+04   -0.66036E+00   -0.48498E+01 30928   0.355E+01    0.461E+01
DAV:   9    -0.112526522617E+04   -0.56394E+01   -0.19858E+01 30064   0.159E+01    0.234E+01
DAV:  10    -0.112610722681E+04   -0.84200E+00   -0.43367E+00 30904   0.922E+00    0.112E+01
DAV:  11    -0.112638911879E+04   -0.28189E+00   -0.14745E+00 31056   0.377E+00    0.531E+00
DAV:  12    -0.112647710363E+04   -0.87985E-01   -0.39055E-01 32888   0.214E+00    0.262E+00
DAV:  13    -0.112653514529E+04   -0.58042E-01   -0.10625E-01 33200   0.138E+00    0.182E+00
DAV:  14    -0.112658911592E+04   -0.53971E-01   -0.86462E-02 31648   0.881E-01    0.115E+00
DAV:  15    -0.112661675934E+04   -0.27643E-01   -0.22119E-02 31032   0.506E-01    0.899E-01
DAV:  16    -0.112663503138E+04   -0.18272E-01   -0.68731E-03 31336   0.334E-01    0.869E-01
DAV:  17    -0.112667082747E+04   -0.35796E-01   -0.89115E-03 35456   0.470E-01    0.781E-01
DAV:  18    -0.112671093864E+04   -0.40111E-01   -0.17223E-02 33120   0.556E-01    0.761E-01
DAV:  19    -0.112673249266E+04   -0.21554E-01   -0.12217E-02 32376   0.310E-01    0.749E-01
DAV:  20    -0.112678538351E+04   -0.52891E-01   -0.14528E-02 33872   0.664E-01    0.755E-01
DAV:  21    -0.112680990464E+04   -0.24521E-01   -0.16365E-02 32552   0.342E-01    0.746E-01
DAV:  22    -0.112682493868E+04   -0.15034E-01   -0.36359E-03 32408   0.182E-01    0.742E-01
DAV:  23    -0.112683230915E+04   -0.73705E-02   -0.11610E-03 30848   0.828E-02    0.744E-01
DAV:  24    -0.112682836378E+04    0.39454E-02   -0.69967E-04 27416   0.894E-02    0.741E-01
DAV:  25    -0.112678005113E+04    0.48313E-01   -0.18691E-02 31088   0.715E-01    0.740E-01
DAV:  26    -0.112672718763E+04    0.52864E-01   -0.38892E-02 33480   0.806E-01    0.762E-01
DAV:  27    -0.112678272737E+04   -0.55540E-01   -0.28883E-02 29336   0.872E-01    0.755E-01
DAV:  28    -0.112684189006E+04   -0.59163E-01   -0.36754E-02 33416   0.867E-01    0.783E-01
DAV:  29    -0.112698084364E+04   -0.13895E+00   -0.17662E-01 31584   0.210E+00    0.954E-01
DAV:  30    -0.112711869647E+04   -0.13785E+00   -0.29074E-01 33848   0.210E+00    0.127E+00
DAV:  31    -0.112715858250E+04   -0.39886E-01   -0.10284E-01 26664   0.741E-01    0.955E-01
DAV:  32    -0.112719862635E+04   -0.40044E-01   -0.14922E-02 33952   0.543E-01    0.873E-01
DAV:  33    -0.112718834371E+04    0.10283E-01   -0.99395E-03 29448   0.327E-01    0.687E-01
DAV:  34    -0.112717049695E+04    0.17847E-01   -0.37187E-03 29088   0.258E-01    0.683E-01
DAV:  35    -0.112716518692E+04    0.53100E-02   -0.16984E-03 31672   0.127E-01    0.706E-01
DAV:  36    -0.112719784753E+04   -0.32661E-01   -0.82285E-03 30744   0.462E-01    0.711E-01
DAV:  37    -0.112726919205E+04   -0.71345E-01   -0.48728E-02 32232   0.102E+00    0.700E-01
DAV:  38    -0.112735247239E+04   -0.83280E-01   -0.73993E-02 34272   0.102E+00    0.827E-01
DAV:  39    -0.112735011937E+04    0.23530E-02   -0.30803E-02 29384   0.541E-01    0.582E-01
DAV:  40    -0.112736635031E+04   -0.16231E-01   -0.60997E-03 30312   0.254E-01    0.572E-01
DAV:  41    -0.112735254002E+04    0.13810E-01   -0.52616E-03 28240   0.319E-01    0.587E-01
DAV:  42    -0.112734620381E+04    0.63362E-02   -0.11004E-03 32816   0.880E-02    0.584E-01
DAV:  43    -0.112734376745E+04    0.24364E-02   -0.19634E-04 27384   0.295E-02    0.583E-01
DAV:  44    -0.112733426308E+04    0.95044E-02   -0.62134E-04 31664   0.132E-01    0.587E-01
DAV:  45    -0.112733437760E+04   -0.11452E-03   -0.26750E-04 24208   0.325E-02    0.584E-01
DAV:  46    -0.112734073089E+04   -0.63533E-02   -0.50066E-04 32632   0.110E-01    0.596E-01
DAV:  47    -0.112739584910E+04   -0.55118E-01   -0.19909E-02 32632   0.715E-01    0.700E-01
DAV:  48    -0.112747452791E+04   -0.78679E-01   -0.72026E-02 32496   0.118E+00    0.102E+00
DAV:  49    -0.112748060905E+04   -0.60811E-02   -0.29319E-02 27968   0.392E-01    0.110E+00
DAV:  50    -0.112747335366E+04    0.72554E-02   -0.56014E-03 30584   0.348E-01    0.100E+00
DAV:  51    -0.112751152719E+04   -0.38174E-01   -0.14224E-02 32488   0.596E-01    0.109E+00
DAV:  52    -0.112752403655E+04   -0.12509E-01   -0.88541E-03 31480   0.198E-01    0.112E+00
DAV:  53    -0.112752249013E+04    0.15464E-02   -0.11203E-03 26896   0.888E-02    0.114E+00
DAV:  54    -0.112752280174E+04   -0.31161E-03   -0.36180E-05 22472   0.171E-02    0.114E+00
DAV:  55    -0.112752085681E+04    0.19449E-02   -0.86737E-04 32872   0.154E-01    0.111E+00
DAV:  56    -0.112750740278E+04    0.13454E-01   -0.39500E-03 32088   0.286E-01    0.106E+00
DAV:  57    -0.112748136088E+04    0.26042E-01   -0.94697E-03 32992   0.412E-01    0.100E+00
DAV:  58    -0.112749224025E+04   -0.10879E-01   -0.44685E-03 27824   0.270E-01    0.981E-01
DAV:  59    -0.112748385652E+04    0.83837E-02   -0.11878E-03 31560   0.160E-01    0.931E-01
DAV:  60    -0.112749295049E+04   -0.90940E-02   -0.13597E-03 32144   0.176E-01    0.942E-01
DAV:  61    -0.112751060868E+04   -0.17658E-01   -0.10722E-02 32568   0.513E-01    0.945E-01
DAV:  62    -0.112752790503E+04   -0.17296E-01   -0.98937E-03 34504   0.282E-01    0.962E-01
DAV:  63    -0.112755300801E+04   -0.25103E-01   -0.56866E-03 32392   0.357E-01    0.972E-01
DAV:  64    -0.112756267913E+04   -0.96711E-02   -0.52284E-03 30024   0.149E-01    0.973E-01
DAV:  65    -0.112756141476E+04    0.12644E-02   -0.85898E-04 26624   0.863E-02    0.982E-01
DAV:  66    -0.112756285214E+04   -0.14374E-02   -0.93732E-04 31696   0.172E-01    0.967E-01
DAV:  67    -0.112756278848E+04    0.63662E-04   -0.96011E-04 31072   0.182E-01    0.977E-01
DAV:  68    -0.112755496614E+04    0.78223E-02   -0.14301E-03 33240   0.155E-01    0.980E-01
DAV:  69    -0.112755334276E+04    0.16234E-02   -0.56403E-04 29376   0.449E-02    0.979E-01
DAV:  70    -0.112755360341E+04   -0.26064E-03   -0.52830E-05 21000   0.186E-02    0.979E-01
DAV:  71    -0.112757840319E+04   -0.24800E-01   -0.39385E-03 32240   0.316E-01    0.103E+00
DAV:  72    -0.112757153673E+04    0.68665E-02   -0.11773E-03 28616   0.147E-01    0.102E+00
DAV:  73    -0.112757849727E+04   -0.69605E-02   -0.45279E-04 29944   0.107E-01    0.103E+00
DAV:  74    -0.112758300197E+04   -0.45047E-02   -0.44762E-04 32352   0.648E-02    0.102E+00
DAV:  75    -0.112758458133E+04   -0.15794E-02   -0.15475E-04 26704   0.405E-02    0.104E+00
DAV:  76    -0.112759725906E+04   -0.12678E-01   -0.31485E-03 32432   0.288E-01    0.108E+00
DAV:  77    -0.112760117026E+04   -0.39112E-02   -0.15751E-03 29016   0.764E-02    0.111E+00
DAV:  78    -0.112760207225E+04   -0.90199E-03   -0.11214E-04 25376   0.300E-02    0.111E+00
DAV:  79    -0.112760528252E+04   -0.32103E-02   -0.31702E-04 31576   0.887E-02    0.112E+00
DAV:  80    -0.112760128875E+04    0.39938E-02   -0.25316E-03 31512   0.228E-01    0.110E+00
DAV:  81    -0.112759403684E+04    0.72519E-02   -0.22684E-03 31344   0.196E-01    0.116E+00
DAV:  82    -0.112758890492E+04    0.51319E-02   -0.84002E-04 29720   0.102E-01    0.111E+00
DAV:  83    -0.112759019381E+04   -0.12889E-02   -0.20027E-04 26408   0.444E-02    0.109E+00
DAV:  84    -0.112758963827E+04    0.55555E-03   -0.21842E-05 18536   0.156E-02    0.109E+00
DAV:  85    -0.112759527164E+04   -0.56334E-02   -0.42936E-04 30256   0.106E-01    0.108E+00
DAV:  86    -0.112765761044E+04   -0.62339E-01   -0.53159E-02 34960   0.111E+00    0.891E-01
DAV:  87    -0.112765843394E+04   -0.82350E-03   -0.20978E-02 26752   0.268E-01    0.876E-01
DAV:  88    -0.112766270865E+04   -0.42747E-02   -0.67355E-04 33280   0.104E-01    0.857E-01
DAV:  89    -0.112766633203E+04   -0.36234E-02   -0.93443E-04 34768   0.115E-01    0.803E-01
DAV:  90    -0.112766285339E+04    0.34786E-02   -0.29870E-03 35128   0.197E-01    0.754E-01
DAV:  91    -0.112768945984E+04   -0.26606E-01   -0.17400E-02 32136   0.611E-01    0.883E-01
DAV:  92    -0.112769718149E+04   -0.77216E-02   -0.95146E-03 32696   0.205E-01    0.921E-01
DAV:  93    -0.112770774066E+04   -0.10559E-01   -0.18628E-03 31496   0.199E-01    0.947E-01
DAV:  94    -0.112771664632E+04   -0.89057E-02   -0.28521E-03 33392   0.157E-01    0.967E-01
DAV:  95    -0.112772977883E+04   -0.13133E-01   -0.27229E-03 32944   0.227E-01    0.996E-01
DAV:  96    -0.112770481811E+04    0.24961E-01   -0.96723E-03 31104   0.480E-01    0.932E-01
DAV:  97    -0.112771569098E+04   -0.10873E-01   -0.23976E-03 29688   0.233E-01    0.927E-01
DAV:  98    -0.112772411424E+04   -0.84233E-02   -0.50581E-03 32840   0.299E-01    0.951E-01
DAV:  99    -0.112774517501E+04   -0.21061E-01   -0.13534E-02 33240   0.464E-01    0.101E+00
DAV: 100    -0.112774947594E+04   -0.43009E-02   -0.61475E-03 28344   0.127E-01    0.103E+00
DAV: 101    -0.112773176555E+04    0.17710E-01   -0.47673E-03 32880   0.314E-01    0.110E+00
DAV: 102    -0.112773077404E+04    0.99151E-03   -0.17710E-03 29576   0.910E-02    0.113E+00
DAV: 103    -0.112773042378E+04    0.35025E-03   -0.20380E-04 31416   0.523E-02    0.114E+00
DAV: 104    -0.112773729277E+04   -0.68690E-02   -0.14501E-03 32344   0.180E-01    0.115E+00
DAV: 105    -0.112774284365E+04   -0.55509E-02   -0.15963E-03 33896   0.111E-01    0.116E+00
DAV: 106    -0.112776715953E+04   -0.24316E-01   -0.92106E-03 32520   0.462E-01    0.119E+00
DAV: 107    -0.112776809890E+04   -0.93937E-03   -0.42476E-03 27456   0.110E-01    0.121E+00
DAV: 108    -0.112776814829E+04   -0.49391E-04   -0.53647E-05 25368   0.140E-02    0.121E+00
DAV: 109    -0.112776717233E+04    0.97597E-03   -0.15357E-05 18840   0.191E-02    0.121E+00
DAV: 110    -0.112776735765E+04   -0.18533E-03   -0.54204E-06 15056   0.674E-03    0.121E+00
DAV: 111    -0.112778202609E+04   -0.14668E-01   -0.44225E-03 32976   0.320E-01    0.127E+00
DAV: 112    -0.112778254155E+04   -0.51546E-03   -0.16804E-03 27440   0.683E-02    0.129E+00
DAV: 113    -0.112778295091E+04   -0.40936E-03   -0.18445E-05 21688   0.118E-02    0.129E+00
DAV: 114    -0.112778751700E+04   -0.45661E-02   -0.35537E-04 35048   0.849E-02    0.129E+00
DAV: 115    -0.112779222016E+04   -0.47032E-02   -0.13572E-03 35680   0.138E-01    0.131E+00
DAV: 116    -0.112779233525E+04   -0.11508E-03   -0.10878E-03 32848   0.141E-01    0.131E+00
DAV: 117    -0.112779179235E+04    0.54290E-03   -0.25035E-04 29704   0.552E-02    0.132E+00
DAV: 118    -0.112779322941E+04   -0.14371E-02   -0.10792E-04 28088   0.422E-02    0.133E+00
DAV: 119    -0.112779721674E+04   -0.39873E-02   -0.44208E-04 34368   0.948E-02    0.135E+00
DAV: 120    -0.112780236293E+04   -0.51462E-02   -0.13770E-03 35240   0.151E-01    0.140E+00
DAV: 121    -0.112781657714E+04   -0.14214E-01   -0.50641E-03 34024   0.316E-01    0.150E+00
DAV: 122    -0.112780151553E+04    0.15062E-01   -0.57006E-03 30880   0.347E-01    0.148E+00
DAV: 123    -0.112780322166E+04   -0.17061E-02   -0.11020E-03 32104   0.120E-01    0.150E+00
DAV: 124    -0.112780672088E+04   -0.34992E-02   -0.11098E-03 34496   0.133E-01    0.154E+00
DAV: 125    -0.112781209134E+04   -0.53705E-02   -0.13114E-03 33224   0.125E-01    0.157E+00
DAV: 126    -0.112783029239E+04   -0.18201E-01   -0.67366E-03 32280   0.372E-01    0.157E+00
DAV: 127    -0.112782408710E+04    0.62053E-02   -0.31829E-03 29528   0.209E-01    0.153E+00
DAV: 128    -0.112782366354E+04    0.42357E-03   -0.37266E-04 31304   0.640E-02    0.153E+00
DAV: 129    -0.112782346243E+04    0.20110E-03   -0.10623E-04 24984   0.180E-02    0.153E+00
DAV: 130    -0.112782346245E+04   -0.17011E-07   -0.58231E-06 15792   0.676E-03
   1 F= -.11278235E+04 E0= -.11278235E+04  d E =-.112782E+04  mag=    65.0036
       N       E                     dE             d eps       ncg     rms          rms(c)
DAV:   1    -0.112755352993E+04    0.26993E+00   -0.12023E+00 32784   0.506E+00    0.140E+00
DAV:   2    -0.112764609029E+04   -0.92560E-01   -0.40908E-01 27624   0.169E+00    0.111E+00
DAV:   3    -0.112767084038E+04   -0.24750E-01   -0.30065E-02 29008   0.623E-01    0.687E-01
DAV:   4    -0.112767938877E+04   -0.85484E-02   -0.30562E-03 29800   0.160E-01    0.525E-01
DAV:   5    -0.112769171323E+04   -0.12324E-01   -0.30410E-03 35736   0.240E-01    0.459E-01
DAV:   6    -0.112770485215E+04   -0.13139E-01   -0.42470E-03 32248   0.257E-01    0.432E-01
DAV:   7    -0.112771905086E+04   -0.14199E-01   -0.52240E-03 33448   0.278E-01    0.413E-01
DAV:   8    -0.112774745207E+04   -0.28401E-01   -0.13608E-02 33064   0.524E-01    0.403E-01
DAV:   9    -0.112776481085E+04   -0.17359E-01   -0.15654E-02 33560   0.359E-01    0.384E-01
DAV:  10    -0.112778008424E+04   -0.15273E-01   -0.64157E-03 32872   0.297E-01    0.365E-01
DAV:  11    -0.112780007963E+04   -0.19995E-01   -0.10271E-02 33072   0.429E-01    0.347E-01
DAV:  12    -0.112781996313E+04   -0.19883E-01   -0.16317E-02 33848   0.440E-01    0.332E-01
DAV:  13    -0.112783213118E+04   -0.12168E-01   -0.14467E-02 32936   0.449E-01    0.295E-01
DAV:  14    -0.112786342596E+04   -0.31295E-01   -0.24598E-02 32896   0.655E-01    0.313E-01
DAV:  15    -0.112785364216E+04    0.97838E-02   -0.14867E-02 26720   0.319E-01    0.256E-01
DAV:  16    -0.112787318684E+04   -0.19545E-01   -0.10726E-02 32672   0.485E-01    0.220E-01
DAV:  17    -0.112787740431E+04   -0.42175E-02   -0.11051E-02 33856   0.292E-01    0.200E-01
DAV:  18    -0.112788623044E+04   -0.88261E-02   -0.55808E-03 32504   0.276E-01    0.184E-01
DAV:  19    -0.112789334895E+04   -0.71185E-02   -0.61745E-03 34064   0.264E-01    0.174E-01
DAV:  20    -0.112788990065E+04    0.34483E-02   -0.41499E-03 30176   0.197E-01    0.196E-01
DAV:  21    -0.112788578334E+04    0.41173E-02   -0.23463E-03 26960   0.171E-01    0.211E-01
DAV:  22    -0.112788156888E+04    0.42145E-02   -0.13359E-03 33432   0.131E-01    0.224E-01
DAV:  23    -0.112788095140E+04    0.61748E-03   -0.80149E-04 32512   0.716E-02    0.215E-01
DAV:  24    -0.112788071190E+04    0.23950E-03   -0.14611E-04 25176   0.209E-02    0.214E-01
DAV:  25    -0.112788145505E+04   -0.74315E-03   -0.55547E-05 22048   0.304E-02    0.212E-01
DAV:  26    -0.112788199420E+04   -0.53915E-03   -0.20619E-04 29848   0.547E-02    0.219E-01
DAV:  27    -0.112788321302E+04   -0.12188E-02   -0.22523E-04 30264   0.414E-02    0.219E-01
DAV:  28    -0.112788363562E+04   -0.42260E-03   -0.87536E-05 25352   0.242E-02    0.220E-01
DAV:  29    -0.112788055321E+04    0.30824E-02   -0.15369E-03 30448   0.161E-01    0.217E-01
DAV:  30    -0.112787630927E+04    0.42439E-02   -0.32777E-03 33304   0.188E-01    0.226E-01
DAV:  31    -0.112787488446E+04    0.14248E-02   -0.22176E-03 34264   0.115E-01    0.221E-01
DAV:  32    -0.112787122977E+04    0.36547E-02   -0.10969E-03 32592   0.121E-01    0.237E-01
DAV:  33    -0.112787109965E+04    0.13012E-03   -0.69376E-04 25912   0.400E-02    0.232E-01
DAV:  34    -0.112787054310E+04    0.55655E-03   -0.61534E-04 31240   0.102E-01    0.228E-01
DAV:  35    -0.112786867855E+04    0.18646E-02   -0.38786E-03 32632   0.222E-01    0.251E-01
DAV:  36    -0.112786500419E+04    0.36744E-02   -0.12121E-02 32672   0.377E-01    0.331E-01
DAV:  37    -0.112786939304E+04   -0.43888E-02   -0.91409E-03 28984   0.376E-01    0.250E-01
DAV:  38    -0.112787598386E+04   -0.65908E-02   -0.11058E-02 32904   0.419E-01    0.220E-01
DAV:  39    -0.112787816863E+04   -0.21848E-02   -0.45524E-03 28232   0.116E-01    0.201E-01
DAV:  40    -0.112788053284E+04   -0.23642E-02   -0.13380E-03 31856   0.111E-01    0.194E-01
DAV:  41    -0.112788295708E+04   -0.24242E-02   -0.22391E-03 32096   0.166E-01    0.216E-01
DAV:  42    -0.112789930740E+04   -0.16350E-01   -0.24904E-02 31896   0.645E-01    0.293E-01
DAV:  43    -0.112790578713E+04   -0.64797E-02   -0.61828E-02 33376   0.825E-01    0.571E-01
DAV:  44    -0.112791095916E+04   -0.51720E-02   -0.28420E-02 30624   0.293E-01    0.645E-01
DAV:  45    -0.112791267365E+04   -0.17145E-02   -0.28323E-03 26576   0.871E-02    0.621E-01
DAV:  46    -0.112791293246E+04   -0.25880E-03   -0.83803E-05 27624   0.269E-02    0.630E-01
DAV:  47    -0.112791671126E+04   -0.37788E-02   -0.10863E-03 30000   0.141E-01    0.477E-01
DAV:  48    -0.112792035735E+04   -0.36461E-02   -0.52257E-04 30864   0.835E-02    0.412E-01
DAV:  49    -0.112792125610E+04   -0.89875E-03   -0.11616E-03 32432   0.152E-01    0.266E-01
DAV:  50    -0.112791922117E+04    0.20349E-02   -0.16317E-02 31344   0.539E-01    0.611E-01
DAV:  51    -0.112792308506E+04   -0.38639E-02   -0.49138E-03 27056   0.135E-01    0.521E-01
DAV:  52    -0.112792442112E+04   -0.13361E-02   -0.39192E-04 31720   0.917E-02    0.432E-01
DAV:  53    -0.112791980211E+04    0.46190E-02   -0.16152E-03 31208   0.173E-01    0.555E-01
DAV:  54    -0.112792209646E+04   -0.22944E-02   -0.20356E-03 33520   0.163E-01    0.513E-01
DAV:  55    -0.112792458336E+04   -0.24869E-02   -0.52751E-03 30360   0.325E-01    0.151E-01
DAV:  56    -0.112792544317E+04   -0.85981E-03   -0.11928E-03 29080   0.985E-02    0.206E-01
DAV:  57    -0.112792628922E+04   -0.84605E-03   -0.29868E-04 30064   0.646E-02    0.195E-01
DAV:  58    -0.112792495385E+04    0.13354E-02   -0.33135E-04 29224   0.748E-02    0.148E-01
DAV:  59    -0.112792502697E+04   -0.73122E-04   -0.73797E-05 24424   0.210E-02    0.152E-01
DAV:  60    -0.112792497797E+04    0.49001E-04   -0.75490E-05 25528   0.362E-02    0.144E-01
DAV:  61    -0.112792485121E+04    0.12675E-03   -0.52821E-04 30400   0.932E-02    0.136E-01
DAV:  62    -0.112792547587E+04   -0.62466E-03   -0.64454E-04 32368   0.724E-02    0.132E-01
DAV:  63    -0.112792520117E+04    0.27470E-03   -0.20768E-04 27880   0.319E-02    0.107E-01
DAV:  64    -0.112792466492E+04    0.53625E-03   -0.42250E-05 24864   0.218E-02    0.822E-02
DAV:  65    -0.112792363595E+04    0.10290E-02   -0.84989E-05 28152   0.359E-02    0.579E-02
DAV:  66    -0.112792272355E+04    0.91240E-03   -0.12058E-04 29264   0.388E-02    0.589E-02
DAV:  67    -0.112792420531E+04   -0.14818E-02   -0.20866E-04 28928   0.544E-02    0.245E-02
DAV:  68    -0.112792436235E+04   -0.15704E-03   -0.71225E-05 25296   0.290E-02    0.171E-02
DAV:  69    -0.112792396793E+04    0.39441E-03   -0.18007E-05 18072   0.155E-02    0.177E-02
DAV:  70    -0.112792406554E+04   -0.97610E-04   -0.24977E-05 19560   0.165E-02    0.146E-02
DAV:  71    -0.112792409694E+04   -0.31398E-04   -0.36937E-05 22216   0.198E-02    0.150E-02
DAV:  72    -0.112792398464E+04    0.11230E-03   -0.59775E-05 24800   0.258E-02    0.155E-02
DAV:  73    -0.112792391788E+04    0.66761E-04   -0.56313E-05 23624   0.190E-02    0.161E-02
DAV:  74    -0.112792417352E+04   -0.25564E-03   -0.19205E-05 17112   0.108E-02    0.159E-02
DAV:  75    -0.112792454420E+04   -0.37068E-03   -0.15021E-05 18304   0.158E-02    0.239E-02
DAV:  76    -0.112792464152E+04   -0.97325E-04   -0.15044E-05 17192   0.106E-02    0.271E-02
DAV:  77    -0.112792444959E+04    0.19193E-03   -0.70117E-06 16376   0.888E-03    0.199E-02
DAV:  78    -0.112792454477E+04   -0.95178E-04   -0.77525E-06 15760   0.908E-03    0.221E-02
DAV:  79    -0.112792445481E+04    0.89954E-04   -0.52982E-06 15264   0.564E-03    0.175E-02
DAV:  80    -0.112792437070E+04    0.84111E-04   -0.16247E-05 19912   0.171E-02    0.132E-02
DAV:  81    -0.112792456811E+04   -0.19741E-03   -0.36920E-05 21992   0.183E-02    0.164E-02
DAV:  82    -0.112792426485E+04    0.30326E-03   -0.36341E-05 22488   0.198E-02    0.620E-03
DAV:  83    -0.112792424311E+04    0.21742E-04   -0.17888E-05 16712   0.700E-03    0.498E-03
DAV:  84    -0.112792420968E+04    0.33424E-04   -0.18124E-06 13928   0.263E-03    0.574E-03
DAV:  85    -0.112792414923E+04    0.60453E-04   -0.34765E-07 13248   0.237E-03    0.698E-03
DAV:  86    -0.112792416322E+04   -0.13992E-04   -0.16733E-06 13504   0.561E-03    0.650E-03
DAV:  87    -0.112792428016E+04   -0.11694E-03   -0.19073E-06 13888   0.632E-03    0.274E-03
DAV:  88    -0.112792427717E+04    0.29872E-05   -0.10698E-06 13568   0.495E-03
   2 F= -.11279243E+04 E0= -.11279243E+04  d E =-.100815E+00  mag=    65.0000
       N       E                     dE             d eps       ncg     rms          rms(c)
DAV:   1    -0.112800218587E+04   -0.77906E-01   -0.66269E-01 27144   0.169E+00    0.673E-01
DAV:   2    -0.112800453448E+04   -0.23486E-02   -0.38148E-02 30088   0.387E-01    0.278E-01
DAV:   3    -0.112800415093E+04    0.38354E-03   -0.16310E-03 29704   0.107E-01    0.214E-01
DAV:   4    -0.112800407182E+04    0.79119E-04   -0.35245E-04 31592   0.489E-02    0.855E-02
DAV:   5    -0.112800399065E+04    0.81168E-04   -0.13579E-04 29376   0.420E-02    0.274E-02
DAV:   6    -0.112800400634E+04   -0.15688E-04   -0.11254E-04 27872   0.255E-02    0.243E-02
DAV:   7    -0.112800401320E+04   -0.68687E-05   -0.21171E-05 17040   0.117E-02
   3 F= -.11280040E+04 E0= -.11280040E+04  d E =-.797360E-01  mag=    65.0000
       N       E                     dE             d eps       ncg     rms          rms(c)
DAV:   1    -0.112806792161E+04   -0.63915E-01   -0.14876E+01 27072   0.832E+00    0.315E+00
DAV:   2    -0.112812878047E+04   -0.60859E-01   -0.89656E-01 29984   0.189E+00    0.130E+00
DAV:   3    -0.112811976418E+04    0.90163E-02   -0.37668E-02 29760   0.524E-01    0.101E+00
DAV:   4    -0.112811778772E+04    0.19765E-02   -0.77429E-03 31592   0.232E-01    0.406E-01
DAV:   5    -0.112811631741E+04    0.14703E-02   -0.30909E-03 30392   0.199E-01    0.140E-01
DAV:   6    -0.112811645896E+04   -0.14156E-03   -0.24452E-03 29368   0.119E-01    0.120E-01
DAV:   7    -0.112811650899E+04   -0.50023E-04   -0.51779E-04 30368   0.533E-02    0.743E-02
DAV:   8    -0.112811650090E+04    0.80913E-05   -0.63153E-05 27712   0.227E-02
   4 F= -.11281165E+04 E0= -.11281165E+04  d E =-.112488E+00  mag=    65.0000
       N       E                     dE             d eps       ncg     rms          rms(c)
DAV:   1    -0.112813212451E+04   -0.15616E-01   -0.33071E-01 28256   0.148E+00    0.483E-01
DAV:   2    -0.112813440937E+04   -0.22849E-02   -0.27928E-02 29920   0.336E-01    0.234E-01
DAV:   3    -0.112813411779E+04    0.29158E-03   -0.12721E-03 29800   0.938E-02    0.174E-01
DAV:   4    -0.112813408865E+04    0.29142E-04   -0.24229E-04 31304   0.406E-02    0.679E-02
DAV:   5    -0.112813405325E+04    0.35397E-04   -0.95849E-05 29024   0.351E-02    0.299E-02
DAV:   6    -0.112813406870E+04   -0.15443E-04   -0.64764E-05 27656   0.208E-02    0.265E-02
DAV:   7    -0.112813406277E+04    0.59316E-05   -0.14443E-05 16392   0.113E-02
   5 F= -.11281341E+04 E0= -.11281341E+04  d E =-.175619E-01  mag=    65.0000
       N       E                     dE             d eps       ncg     rms          rms(c)
DAV:   1    -0.112810570634E+04    0.28362E-01   -0.33662E+00 30528   0.621E+00    0.128E+00
DAV:   2    -0.112814909696E+04   -0.43391E-01   -0.45211E-01 28952   0.124E+00    0.632E-01
DAV:   3    -0.112814898765E+04    0.10932E-03   -0.16862E-02 29688   0.311E-01    0.387E-01
DAV:   4    -0.112814878279E+04    0.20486E-03   -0.15807E-03 31280   0.985E-02    0.196E-01
DAV:   5    -0.112814840418E+04    0.37861E-03   -0.88878E-04 31336   0.973E-02    0.722E-02
DAV:   6    -0.112814836989E+04    0.34287E-04   -0.42993E-04 29704   0.513E-02    0.562E-02
DAV:   7    -0.112814838346E+04   -0.13568E-04   -0.12620E-04 28904   0.240E-02    0.333E-02
DAV:   8    -0.112814838123E+04    0.22271E-05   -0.83639E-06 16312   0.107E-02
   6 F= -.11281484E+04 E0= -.11281484E+04  d E =-.143185E-01  mag=    65.0000
       N       E                     dE             d eps       ncg     rms          rms(c)
DAV:   1    -0.112802990182E+04    0.11848E+00   -0.87839E+00 30264   0.103E+01    0.174E+00
DAV:   2    -0.112815373014E+04   -0.12383E+00   -0.12292E+00 28352   0.194E+00    0.875E-01
DAV:   3    -0.112815613130E+04   -0.24012E-02   -0.40818E-02 29248   0.461E-01    0.480E-01
DAV:   4    -0.112815559638E+04    0.53493E-03   -0.29986E-03 30528   0.108E-01    0.279E-01
DAV:   5    -0.112815525016E+04    0.34622E-03   -0.13502E-03 31896   0.118E-01    0.117E-01
DAV:   6    -0.112815520457E+04    0.45588E-04   -0.55155E-04 30640   0.591E-02    0.513E-02
DAV:   7    -0.112815529097E+04   -0.86400E-04   -0.17747E-04 30232   0.301E-02    0.327E-02
DAV:   8    -0.112815532525E+04   -0.34280E-04   -0.12123E-05 17880   0.114E-02    0.234E-02
DAV:   9    -0.112815533374E+04   -0.84933E-05   -0.98073E-06 17568   0.133E-02
   7 F= -.11281553E+04 E0= -.11281553E+04  d E =-.695251E-02  mag=    65.0000
       N       E                     dE             d eps       ncg     rms          rms(c)
DAV:   1    -0.112791269428E+04    0.24263E+00   -0.24975E+01 28736   0.143E+01    0.294E+00
DAV:   2    -0.112812242287E+04   -0.20973E+00   -0.23547E+00 28600   0.283E+00    0.141E+00
DAV:   3    -0.112812103008E+04    0.13928E-02   -0.79744E-02 29520   0.688E-01    0.914E-01
DAV:   4    -0.112811905937E+04    0.19707E-02   -0.72919E-03 30672   0.201E-01    0.437E-01
DAV:   5    -0.112811731389E+04    0.17455E-02   -0.37891E-03 31888   0.203E-01    0.168E-01
DAV:   6    -0.112811714371E+04    0.17017E-03   -0.21972E-03 29992   0.110E-01    0.104E-01
DAV:   7    -0.112811726750E+04   -0.12379E-03   -0.50001E-04 29784   0.492E-02    0.640E-02
DAV:   8    -0.112811723343E+04    0.34074E-04   -0.43771E-05 27144   0.222E-02    0.463E-02
DAV:   9    -0.112811724938E+04   -0.15950E-04   -0.31983E-05 23416   0.281E-02    0.289E-02
DAV:  10    -0.112811724586E+04    0.35188E-05   -0.41699E-05 24368   0.194E-02
   8 F= -.11281172E+04 E0= -.11281172E+04  d E =0.380879E-01  mag=    65.0000
       N       E                     dE             d eps       ncg     rms          rms(c)
DAV:   1    -0.112815363379E+04   -0.36384E-01   -0.51199E+00 28288   0.594E+00    0.188E+00
DAV:   2    -0.112818764623E+04   -0.34012E-01   -0.42898E-01 29904   0.132E+00    0.856E-01
DAV:   3    -0.112818540918E+04    0.22370E-02   -0.19514E-02 30216   0.382E-01    0.712E-01
DAV:   4    -0.112818424356E+04    0.11656E-02   -0.29910E-03 30992   0.150E-01    0.263E-01
DAV:   5    -0.112818346062E+04    0.78294E-03   -0.13966E-03 31088   0.150E-01    0.101E-01
DAV:   6    -0.112818338119E+04    0.79426E-04   -0.11945E-03 29304   0.866E-02    0.781E-02
DAV:   7    -0.112818342242E+04   -0.41232E-04   -0.41891E-04 28864   0.468E-02    0.573E-02
DAV:   8    -0.112818345493E+04   -0.32507E-04   -0.34357E-05 23752   0.203E-02    0.390E-02
DAV:   9    -0.112818342520E+04    0.29728E-04   -0.20065E-05 19704   0.223E-02    0.193E-02
DAV:  10    -0.112818347020E+04   -0.44999E-04   -0.29219E-05 22560   0.159E-02    0.129E-02
DAV:  11    -0.112818348611E+04   -0.15903E-04   -0.13007E-05 16536   0.804E-03    0.142E-02
DAV:  12    -0.112818348663E+04   -0.52758E-06   -0.17025E-06 14408   0.379E-03
   9 F= -.11281835E+04 E0= -.11281835E+04  d E =-.662408E-01  mag=    65.0000
       N       E                     dE             d eps       ncg     rms          rms(c)
DAV:   1    -0.112818550324E+04   -0.20171E-02   -0.72741E-01 30848   0.288E+00    0.645E-01
DAV:   2    -0.112819503873E+04   -0.95355E-02   -0.98518E-02 29024   0.589E-01    0.312E-01
DAV:   3    -0.112819529381E+04   -0.25507E-03   -0.37080E-03 29840   0.152E-01    0.207E-01
DAV:   4    -0.112819508229E+04    0.21152E-03   -0.38147E-04 31152   0.476E-02    0.976E-02
DAV:   5    -0.112819506946E+04    0.12829E-04   -0.18771E-04 30832   0.456E-02    0.392E-02
DAV:   6    -0.112819508829E+04   -0.18827E-04   -0.98734E-05 28560   0.245E-02    0.302E-02
DAV:   7    -0.112819508981E+04   -0.15180E-05   -0.22590E-05 17784   0.111E-02
  10 F= -.11281951E+04 E0= -.11281951E+04  d E =-.116032E-01  mag=    65.0000
       N       E                     dE             d eps       ncg     rms          rms(c)
DAV:   1    -0.112818370229E+04    0.11386E-01   -0.85455E-01 31280   0.332E+00    0.592E-01
DAV:   2    -0.112819702070E+04   -0.13318E-01   -0.13335E-01 28696   0.646E-01    0.274E-01
DAV:   3    -0.112819730772E+04   -0.28702E-03   -0.41073E-03 29288   0.143E-01    0.133E-01
DAV:   4    -0.112819723755E+04    0.70172E-04   -0.36553E-04 31920   0.432E-02    0.812E-02
DAV:   5    -0.112819723164E+04    0.59036E-05   -0.11970E-04 31784   0.381E-02    0.342E-02
DAV:   6    -0.112819723275E+04   -0.11071E-05   -0.61024E-05 28904   0.207E-02
  11 F= -.11281972E+04 E0= -.11281972E+04  d E =-.214294E-02  mag=    65.0000
       N       E                     dE             d eps       ncg     rms          rms(c)
DAV:   1    -0.112810181786E+04    0.95414E-01   -0.56158E+00 31008   0.827E+00    0.143E+00
DAV:   2    -0.112818599405E+04   -0.84176E-01   -0.85311E-01 28048   0.157E+00    0.677E-01
DAV:   3    -0.112818720968E+04   -0.12156E-02   -0.26807E-02 29696   0.347E-01    0.343E-01
DAV:   4    -0.112818702283E+04    0.18685E-03   -0.19442E-03 30600   0.898E-02    0.209E-01
DAV:   5    -0.112818664202E+04    0.38081E-03   -0.74410E-04 32232   0.882E-02    0.823E-02
DAV:   6    -0.112818660639E+04    0.35623E-04   -0.37916E-04 30680   0.490E-02    0.433E-02
DAV:   7    -0.112818664811E+04   -0.41711E-04   -0.98659E-05 29096   0.221E-02    0.311E-02
DAV:   8    -0.112818665388E+04   -0.57797E-05   -0.77090E-06 16000   0.953E-03
  12 F= -.11281867E+04 E0= -.11281867E+04  d E =0.105789E-01  mag=    65.0000
       N       E                     dE             d eps       ncg     rms          rms(c)
DAV:   1    -0.112794489469E+04    0.24175E+00   -0.16265E+01 30472   0.131E+01    0.277E+00
DAV:   2    -0.112813997384E+04   -0.19508E+00   -0.20735E+00 28864   0.259E+00    0.130E+00
DAV:   3    -0.112814037917E+04   -0.40533E-03   -0.71172E-02 29632   0.625E-01    0.784E-01
DAV:   4    -0.112813856322E+04    0.18159E-02   -0.76496E-03 31568   0.220E-01    0.403E-01
DAV:   5    -0.112813735388E+04    0.12093E-02   -0.34505E-03 30640   0.190E-01    0.140E-01
DAV:   6    -0.112813732981E+04    0.24069E-04   -0.18601E-03 29752   0.105E-01    0.989E-02
DAV:   7    -0.112813738649E+04   -0.56681E-04   -0.43373E-04 30504   0.477E-02    0.643E-02
DAV:   8    -0.112813739860E+04   -0.12108E-04   -0.43495E-05 25992   0.190E-02    0.502E-02
DAV:   9    -0.112813746128E+04   -0.62681E-04   -0.46664E-05 24696   0.347E-02    0.335E-02
DAV:  10    -0.112813748654E+04   -0.25262E-04   -0.52038E-05 26080   0.234E-02    0.289E-02
DAV:  11    -0.112813751590E+04   -0.29353E-04   -0.30005E-05 21784   0.176E-02    0.258E-02
DAV:  12    -0.112813755609E+04   -0.40198E-04   -0.15615E-05 18184   0.213E-02    0.237E-02
DAV:  13    -0.112813762031E+04   -0.64212E-04   -0.56630E-05 25184   0.339E-02    0.206E-02
DAV:  14    -0.112813767834E+04   -0.58036E-04   -0.81300E-05 27800   0.353E-02    0.163E-02
DAV:  15    -0.112813771661E+04   -0.38269E-04   -0.72655E-05 26280   0.362E-02    0.126E-02
DAV:  16    -0.112813774068E+04   -0.24073E-04   -0.55954E-05 23552   0.233E-02    0.104E-02
DAV:  17    -0.112813775601E+04   -0.15329E-04   -0.18659E-05 18648   0.223E-02    0.768E-03
DAV:  18    -0.112813775250E+04    0.35182E-05   -0.36229E-05 20960   0.199E-02
  13 F= -.11281378E+04 E0= -.11281378E+04  d E =0.489014E-01  mag=    65.0000
       N       E                     dE             d eps       ncg     rms          rms(c)
DAV:   1    -0.112808665911E+04    0.51097E-01   -0.78673E+00 30784   0.962E+00    0.202E+00
DAV:   2    -0.112819632967E+04   -0.10967E+00   -0.11268E+00 28928   0.188E+00    0.911E-01
DAV:   3    -0.112819713089E+04   -0.80122E-03   -0.39682E-02 29712   0.451E-01    0.519E-01
DAV:   4    -0.112819593999E+04    0.11909E-02   -0.42942E-03 31680   0.164E-01    0.275E-01
DAV:   5    -0.112819537695E+04    0.56304E-03   -0.16917E-03 30416   0.134E-01    0.934E-02
DAV:   6    -0.112819536978E+04    0.71714E-05   -0.94135E-04 29488   0.751E-02    0.696E-02
DAV:   7    -0.112819539314E+04   -0.23357E-04   -0.22084E-04 30184   0.348E-02    0.443E-02
DAV:   8    -0.112819538426E+04    0.88809E-05   -0.21630E-05 19968   0.123E-02
  14 F= -.11281954E+04 E0= -.11281954E+04  d E =-.576318E-01  mag=    65.0000
       N       E                     dE             d eps       ncg     rms          rms(c)
DAV:   1    -0.112818088565E+04    0.14507E-01   -0.13165E+00 29648   0.311E+00    0.934E-01
DAV:   2    -0.112819149467E+04   -0.10609E-01   -0.12318E-01 29400   0.668E-01    0.428E-01
DAV:   3    -0.112819141410E+04    0.80570E-04   -0.47401E-03 29928   0.195E-01    0.353E-01
DAV:   4    -0.112819114471E+04    0.26940E-03   -0.79770E-04 30624   0.664E-02    0.131E-01
DAV:   5    -0.112819101259E+04    0.13212E-03   -0.30417E-04 30656   0.592E-02    0.512E-02
DAV:   6    -0.112819113171E+04   -0.11912E-03   -0.19660E-04 29128   0.366E-02    0.417E-02
DAV:   7    -0.112819115953E+04   -0.27820E-04   -0.63854E-05 27912   0.197E-02    0.284E-02
DAV:   8    -0.112819117891E+04   -0.19376E-04   -0.71055E-06 16368   0.922E-03    0.212E-02
DAV:   9    -0.112819119517E+04   -0.16268E-04   -0.60918E-06 17464   0.136E-02    0.160E-02
DAV:  10    -0.112819121044E+04   -0.15262E-04   -0.10749E-05 17224   0.109E-02    0.133E-02
DAV:  11    -0.112819122897E+04   -0.18534E-04   -0.64509E-06 16408   0.716E-03    0.123E-02
DAV:  12    -0.112819125848E+04   -0.29512E-04   -0.48721E-06 15232   0.135E-02    0.113E-02
DAV:  13    -0.112819127584E+04   -0.17359E-04   -0.21194E-05 20136   0.209E-02    0.104E-02
DAV:  14    -0.112819129169E+04   -0.15846E-04   -0.22753E-05 18360   0.150E-02    0.842E-03
DAV:  15    -0.112819130294E+04   -0.11257E-04   -0.11160E-05 16432   0.149E-02    0.629E-03
DAV:  16    -0.112819130529E+04   -0.23506E-05   -0.15948E-05 16896   0.131E-02
  15 F= -.11281913E+04 E0= -.11281913E+04  d E =0.407897E-02  mag=    65.0000
       N       E                     dE             d eps       ncg     rms          rms(c)
DAV:   1    -0.112819462437E+04   -0.33214E-02   -0.41172E-01 29920   0.175E+00    0.511E-01
DAV:   2    -0.112819781195E+04   -0.31876E-02   -0.38066E-02 29464   0.374E-01    0.250E-01
DAV:   3    -0.112819744849E+04    0.36346E-03   -0.15830E-03 29688   0.110E-01    0.210E-01
DAV:   4    -0.112819742468E+04    0.23805E-04   -0.24464E-04 30368   0.365E-02    0.756E-02
DAV:   5    -0.112819741150E+04    0.13180E-04   -0.10169E-04 29672   0.343E-02    0.275E-02
DAV:   6    -0.112819734039E+04    0.71114E-04   -0.67765E-05 28008   0.208E-02    0.243E-02
DAV:   7    -0.112819732974E+04    0.10646E-04   -0.19491E-05 17144   0.107E-02    0.154E-02
DAV:   8    -0.112819733009E+04   -0.34353E-06   -0.27188E-06 14920   0.536E-03
  16 F= -.11281973E+04 E0= -.11281973E+04  d E =-.602479E-02  mag=    65.0000
       N       E                     dE             d eps       ncg     rms          rms(c)
DAV:   1    -0.112819630176E+04    0.10280E-02   -0.49824E-02 31032   0.749E-01    0.131E-01
DAV:   2    -0.112819692973E+04   -0.62796E-03   -0.68919E-03 28048   0.143E-01    0.686E-02
DAV:   3    -0.112819691067E+04    0.19056E-04   -0.22352E-04 28344   0.335E-02    0.395E-02
DAV:   4    -0.112819692542E+04   -0.14745E-04   -0.14138E-05 18968   0.746E-03    0.213E-02
DAV:   5    -0.112819693123E+04   -0.58109E-05   -0.73678E-06 17112   0.106E-02
  17 F= -.11281969E+04 E0= -.11281969E+04  d E =0.398858E-03  mag=    65.0000
       N       E                     dE             d eps       ncg     rms          rms(c)
DAV:   1    -0.112807339185E+04    0.12353E+00   -0.10536E+01 30112   0.972E+00    0.168E+00
DAV:   2    -0.112817380809E+04   -0.10042E+00   -0.11137E+00 28024   0.185E+00    0.843E-01
DAV:   3    -0.112817468801E+04   -0.87992E-03   -0.35177E-02 29408   0.420E-01    0.485E-01
DAV:   4    -0.112817430684E+04    0.38116E-03   -0.24363E-03 30720   0.967E-02    0.264E-01
DAV:   5    -0.112817386257E+04    0.44427E-03   -0.11811E-03 32408   0.115E-01    0.112E-01
DAV:   6    -0.112817384595E+04    0.16617E-04   -0.73945E-04 31000   0.643E-02    0.512E-02
DAV:   7    -0.112817390362E+04   -0.57672E-04   -0.14974E-04 29256   0.271E-02    0.338E-02
DAV:   8    -0.112817388341E+04    0.20211E-04   -0.11626E-05 16136   0.123E-02    0.243E-02
DAV:   9    -0.112817390270E+04   -0.19281E-04   -0.11099E-05 18784   0.126E-02    0.178E-02
DAV:  10    -0.112817389507E+04    0.76205E-05   -0.88271E-06 16392   0.970E-03
  18 F= -.11281739E+04 E0= -.11281739E+04  d E =0.230362E-01  mag=    65.0000
       N       E                     dE             d eps       ncg     rms          rms(c)
DAV:   1    -0.112815882393E+04    0.15079E-01   -0.30835E+00 28928   0.476E+00    0.115E+00
DAV:   2    -0.112818058616E+04   -0.21762E-01   -0.25988E-01 29024   0.981E-01    0.530E-01
DAV:   3    -0.112818072207E+04   -0.13591E-03   -0.91320E-03 29704   0.258E-01    0.399E-01
DAV:   4    -0.112818028725E+04    0.43482E-03   -0.11239E-03 30912   0.789E-02    0.166E-01
DAV:   5    -0.112818016838E+04    0.11887E-03   -0.56338E-04 30840   0.711E-02    0.626E-02
DAV:   6    -0.112818027632E+04   -0.10794E-03   -0.25204E-04 29232   0.385E-02    0.448E-02
DAV:   7    -0.112818030729E+04   -0.30970E-04   -0.72823E-05 27560   0.186E-02    0.268E-02
DAV:   8    -0.112818031955E+04   -0.12266E-04   -0.58508E-06 15392   0.767E-03    0.168E-02
DAV:   9    -0.112818033998E+04   -0.20432E-04   -0.59939E-06 15600   0.959E-03    0.114E-02
DAV:  10    -0.112818034785E+04   -0.78673E-05   -0.57690E-06 15744   0.617E-03
  19 F= -.11281803E+04 E0= -.11281803E+04  d E =-.645278E-02  mag=    65.0000
       N       E                     dE             d eps       ncg     rms          rms(c)
DAV:   1    -0.112813620204E+04    0.44138E-01   -0.59213E+00 30040   0.726E+00    0.111E+00
DAV:   2    -0.112819165246E+04   -0.55450E-01   -0.61733E-01 27296   0.137E+00    0.577E-01
DAV:   3    -0.112819242721E+04   -0.77474E-03   -0.18607E-02 29280   0.289E-01    0.270E-01
DAV:   4    -0.112819211598E+04    0.31122E-03   -0.12444E-03 31032   0.714E-02    0.177E-01
DAV:   5    -0.112819188266E+04    0.23332E-03   -0.62356E-04 32640   0.808E-02    0.719E-02
DAV:   6    -0.112819184574E+04    0.36919E-04   -0.27001E-04 30184   0.365E-02    0.306E-02
DAV:   7    -0.112819186094E+04   -0.15204E-04   -0.53873E-05 27728   0.167E-02    0.193E-02
DAV:   8    -0.112819186055E+04    0.39172E-06   -0.44810E-06 14752   0.542E-03
  20 F= -.11281919E+04 E0= -.11281919E+04  d E =-.115127E-01  mag=    65.0000
       N       E                     dE             d eps       ncg     rms          rms(c)
DAV:   1    -0.112818495290E+04    0.69080E-02   -0.26626E-01 31728   0.191E+00    0.409E-01
DAV:   2    -0.112819012097E+04   -0.51681E-02   -0.49809E-02 28568   0.368E-01    0.186E-01
DAV:   3    -0.112819007269E+04    0.48271E-04   -0.17475E-03 29648   0.899E-02    0.943E-02
DAV:   4    -0.112819015289E+04   -0.80196E-04   -0.18186E-04 31064   0.309E-02    0.540E-02
DAV:   5    -0.112819007277E+04    0.80121E-04   -0.55022E-05 29176   0.225E-02    0.208E-02
DAV:   6    -0.112819006778E+04    0.49862E-05   -0.23260E-05 21576   0.124E-02
  21 F= -.11281901E+04 E0= -.11281901E+04  d E =0.179277E-02  mag=    65.0000
       N       E                     dE             d eps       ncg     rms          rms(c)
DAV:   1    -0.112818879931E+04    0.12735E-02   -0.13823E-01 30376   0.114E+00    0.250E-01
DAV:   2    -0.112819034335E+04   -0.15440E-02   -0.16646E-02 28752   0.223E-01    0.110E-01
DAV:   3    -0.112819042080E+04   -0.77445E-04   -0.53521E-04 29344   0.525E-02    0.614E-02
DAV:   4    -0.112819035612E+04    0.64674E-04   -0.61358E-05 28864   0.186E-02    0.338E-02
DAV:   5    -0.112819037738E+04   -0.21253E-04   -0.22488E-05 20304   0.146E-02    0.123E-02
DAV:   6    -0.112819038412E+04   -0.67405E-05   -0.12503E-05 15816   0.825E-03
  22 F= -.11281904E+04 E0= -.11281904E+04  d E =-.316335E-03  mag=    65.0000
       N       E                     dE             d eps       ncg     rms          rms(c)
DAV:   1    -0.112818965892E+04    0.71845E-03   -0.28019E-02 30496   0.538E-01    0.925E-02
DAV:   2    -0.112818995711E+04   -0.29818E-03   -0.32813E-03 28272   0.103E-01    0.451E-02
DAV:   3    -0.112818999861E+04   -0.41499E-04   -0.10690E-04 27344   0.239E-02    0.254E-02
DAV:   4    -0.112818997472E+04    0.23892E-04   -0.80996E-06 16240   0.642E-03    0.146E-02
DAV:   5    -0.112818997354E+04    0.11816E-05   -0.42253E-06 14504   0.698E-03
  23 F= -.11281900E+04 E0= -.11281900E+04  d E =0.410583E-03  mag=    65.0000
