       N       E                     dE             d eps       ncg     rms          ort
DAV:   1     0.421954163423E+04    0.42195E+04   -0.16734E+05  1824   0.158E+03
DAV:   2     0.747594621408E+02   -0.41448E+04   -0.39978E+04  1824   0.455E+02
DAV:   3    -0.689073981360E+03   -0.76383E+03   -0.72540E+03  1824   0.165E+02
DAV:   4    -0.748803754407E+03   -0.59730E+02   -0.59316E+02  1824   0.489E+01
DAV:   5    -0.750175310835E+03   -0.13716E+01   -0.13689E+01  1824   0.875E+00
SDA:   6    -0.434527039138E+03    0.31565E+03   -0.13689E+01  1824   0.934E+03 0.000E+00
CGA:   7    -0.567694864682E+03   -0.13317E+03   -0.12834E+03  1824   0.124E+03-0.668E+01
CGA:   8    -0.591195567724E+03   -0.23501E+02   -0.23468E+02  1824   0.529E+02-0.254E+01
CGA:   9    -0.602117493606E+03   -0.10922E+02   -0.10924E+02  1824   0.209E+02-0.670E-01
CGA:  10    -0.606424537595E+03   -0.43070E+01   -0.43074E+01  1824   0.671E+01 0.427E-02
CGA:  11    -0.607685537889E+03   -0.12610E+01   -0.12604E+01  1824   0.223E+01-0.480E-01
CGA:  12    -0.608176715493E+03   -0.49118E+00   -0.49141E+00  1824   0.102E+01-0.158E-01
CGA:  13    -0.608407112595E+03   -0.23040E+00   -0.23025E+00  1824   0.473E+00-0.474E-02
CGA:  14    -0.608510838904E+03   -0.10373E+00   -0.10396E+00  1824   0.219E+00-0.135E-01
CGA:  15    -0.608566436646E+03   -0.55598E-01   -0.55397E-01  1824   0.102E+00 0.123E-02
CGA:  16    -0.608595703549E+03   -0.29267E-01   -0.29333E-01  1824   0.436E-01-0.977E-03
CGA:  17    -0.608608421780E+03   -0.12718E-01   -0.13260E-01  1824   0.221E-01-0.547E-02
CGA:  18    -0.608613738879E+03   -0.53171E-02   -0.54365E-02  1824   0.936E-02-0.176E-02
CGA:  19    -0.608616609028E+03   -0.28701E-02   -0.32890E-02  1824   0.680E-02-0.255E-02
CGA:  20    -0.608617795530E+03   -0.11865E-02   -0.11973E-02  1824   0.426E-02-0.641E-03
CGA:  21    -0.608618661238E+03   -0.86571E-03   -0.86590E-03  1824   0.155E-02 0.188E-03
CGA:  22    -0.608619058967E+03   -0.39773E-03   -0.39216E-03  1824   0.765E-03 0.335E-03
CGA:  23    -0.608619226221E+03   -0.16725E-03   -0.17519E-03  1824   0.337E-03 0.208E-03
CGA:  24    -0.608619306770E+03   -0.80549E-04   -0.84930E-04  1824   0.167E-03 0.165E-03
CGA:  25    -0.608619338029E+03   -0.31258E-04   -0.39404E-04  1824   0.977E-04 0.126E-03
CGA:  26    -0.608619352951E+03   -0.14922E-04   -0.17299E-04  1824   0.557E-04 0.555E-04
CGA:  27    -0.608619357084E+03   -0.41338E-05   -0.74686E-05  1824   0.397E-04 0.399E-04
   1 F= -.60861936E+03 E0= -.60861862E+03  d E =-.608619E+03  mag=    -0.0009
       N       E                     dE             d eps       ncg     rms          ort
SDA:   1    -0.608672156322E+03   -0.52803E-01    0.00000E+00  1824   0.570E-02 0.000E+00
CGA:   2    -0.608673413541E+03   -0.12572E-02   -0.12552E-02  1824   0.172E-02 0.166E-03
CGA:   3    -0.608673832252E+03   -0.41871E-03   -0.42224E-03  1824   0.918E-03-0.122E-03
CGA:   4    -0.608674003576E+03   -0.17132E-03   -0.17146E-03  1824   0.202E-03 0.135E-04
CGA:   5    -0.608674056845E+03   -0.53269E-04   -0.55330E-04  1824   0.115E-03-0.344E-04
CGA:   6    -0.608674073169E+03   -0.16324E-04   -0.16768E-04  1824   0.356E-04 0.119E-04
CGA:   7    -0.608674074674E+03   -0.15047E-05   -0.39704E-05  1824   0.176E-04 0.224E-04
   2 F= -.60867407E+03 E0= -.60867338E+03  d E =-.547176E-01  mag=     0.0001
       N       E                     dE             d eps       ncg     rms          ort
SDA:   1    -0.604161210119E+03    0.45129E+01    0.00000E+00  1824   0.198E+02 0.000E+00
CGA:   2    -0.608766825764E+03   -0.46056E+01   -0.46032E+01  1824   0.663E+01 0.135E-01
CGA:   3    -0.610219500031E+03   -0.14527E+01   -0.14525E+01  1824   0.283E+01-0.302E-02
CGA:   4    -0.610837213957E+03   -0.61771E+00   -0.61774E+00  1824   0.711E+00-0.362E-02
CGA:   5    -0.611006001425E+03   -0.16879E+00   -0.16905E+00  1824   0.291E+00-0.742E-02
CGA:   6    -0.611068665719E+03   -0.62664E-01   -0.62658E-01  1824   0.110E+00-0.430E-04
CGA:   7    -0.611095508364E+03   -0.26843E-01   -0.26777E-01  1824   0.361E-01 0.164E-02
CGA:   8    -0.611104607887E+03   -0.90995E-02   -0.90672E-02  1824   0.127E-01 0.774E-03
CGA:   9    -0.611108118492E+03   -0.35106E-02   -0.35070E-02  1824   0.491E-02 0.527E-04
CGA:  10    -0.611109297364E+03   -0.11789E-02   -0.11806E-02  1824   0.233E-02-0.656E-04
CGA:  11    -0.611109922648E+03   -0.62528E-03   -0.64147E-03  1824   0.105E-02-0.247E-03
CGA:  12    -0.611110159306E+03   -0.23666E-03   -0.23758E-03  1824   0.379E-03-0.264E-04
CGA:  13    -0.611110266778E+03   -0.10747E-03   -0.11104E-03  1824   0.184E-03-0.435E-04
CGA:  14    -0.611110308529E+03   -0.41751E-04   -0.41928E-04  1824   0.890E-04-0.524E-05
CGA:  15    -0.611110335845E+03   -0.27316E-04   -0.38492E-04  1824   0.112E-03-0.507E-04
CGA:  16    -0.611110354229E+03   -0.18384E-04   -0.17932E-04  1824   0.333E-04-0.614E-05
CGA:  17    -0.611110353234E+03    0.99505E-06   -0.19662E-04  1824   0.143E-03-0.525E-04
CGA:  18    -0.611110367448E+03   -0.14215E-04   -0.16931E-04  1824   0.203E-04 0.202E-04
CGA:  19    -0.611110369857E+03   -0.24087E-05   -0.32946E-05  1824   0.472E-05 0.861E-05
   3 F= -.61111037E+03 E0= -.61110989E+03  d E =-.243630E+01  mag=     0.0000
       N       E                     dE             d eps       ncg     rms          ort
SDA:   1    -0.602414492385E+03    0.86959E+01    0.00000E+00  1824   0.329E+02 0.000E+00
CGA:   2    -0.608063474607E+03   -0.56490E+01   -0.56612E+01  1824   0.128E+02-0.295E-02
CGA:   3    -0.610926095179E+03   -0.28626E+01   -0.28628E+01  1824   0.381E+01-0.249E-02
CGA:   4    -0.611846984685E+03   -0.92089E+00   -0.92079E+00  1824   0.110E+01 0.308E-02
CGA:   5    -0.612080198843E+03   -0.23321E+00   -0.23311E+00  1824   0.414E+00-0.521E-02
CGA:   6    -0.612176004336E+03   -0.95805E-01   -0.95808E-01  1824   0.169E+00-0.157E-02
CGA:   7    -0.612214098440E+03   -0.38094E-01   -0.38095E-01  1824   0.621E-01 0.150E-03
CGA:   8    -0.612229046008E+03   -0.14948E-01   -0.14933E-01  1824   0.195E-01 0.130E-02
CGA:   9    -0.612234742673E+03   -0.56967E-02   -0.56936E-02  1824   0.755E-02 0.502E-04
CGA:  10    -0.612236632748E+03   -0.18901E-02   -0.18912E-02  1824   0.346E-02-0.680E-04
CGA:  11    -0.612237511139E+03   -0.87839E-03   -0.88551E-03  1824   0.167E-02-0.288E-03
CGA:  12    -0.612237889038E+03   -0.37790E-03   -0.37900E-03  1824   0.558E-03-0.924E-04
CGA:  13    -0.612238044846E+03   -0.15581E-03   -0.15819E-03  1824   0.232E-03-0.370E-04
CGA:  14    -0.612238098378E+03   -0.53532E-04   -0.53439E-04  1824   0.106E-03 0.124E-04
CGA:  15    -0.612238133805E+03   -0.35427E-04   -0.37330E-04  1824   0.691E-04-0.197E-04
CGA:  16    -0.612238150617E+03   -0.16813E-04   -0.17968E-04  1824   0.476E-04-0.154E-04
CGA:  17    -0.612238122349E+03    0.28268E-04   -0.29494E-04  1824   0.354E-03-0.105E-03
CGA:  18    -0.612238157933E+03   -0.35584E-04   -0.41146E-04  1824   0.486E-04 0.329E-04
CGA:  19    -0.612238165447E+03   -0.75133E-05   -0.93585E-05  1824   0.151E-04 0.203E-04
   4 F= -.61223817E+03 E0= -.61223786E+03  d E =-.112780E+01  mag=    -0.0000
       N       E                     dE             d eps       ncg     rms          ort
SDA:   1    -0.608400368828E+03    0.38378E+01    0.00000E+00  1824   0.205E+02 0.000E+00
CGA:   2    -0.610872400471E+03   -0.24720E+01   -0.24859E+01  1824   0.410E+01-0.620E-02
CGA:   3    -0.612129899025E+03   -0.12575E+01   -0.12569E+01  1824   0.137E+01 0.503E-02
CGA:   4    -0.612391388277E+03   -0.26149E+00   -0.26175E+00  1824   0.341E+00 0.152E-02
CGA:   5    -0.612465448652E+03   -0.74060E-01   -0.74042E-01  1824   0.114E+00-0.310E-03
CGA:   6    -0.612489793120E+03   -0.24344E-01   -0.24356E-01  1824   0.438E-01 0.159E-03
CGA:   7    -0.612500084476E+03   -0.10291E-01   -0.10287E-01  1824   0.162E-01-0.367E-03
CGA:   8    -0.612503959340E+03   -0.38749E-02   -0.38768E-02  1824   0.498E-02 0.373E-03
CGA:   9    -0.612505378383E+03   -0.14190E-02   -0.14123E-02  1824   0.222E-02 0.211E-03
CGA:  10    -0.612505890812E+03   -0.51243E-03   -0.51519E-03  1824   0.889E-03 0.113E-03
CGA:  11    -0.612506145651E+03   -0.25484E-03   -0.25531E-03  1824   0.419E-03-0.175E-04
CGA:  12    -0.612506245708E+03   -0.10006E-03   -0.10016E-03  1824   0.147E-03 0.273E-04
CGA:  13    -0.612506287265E+03   -0.41556E-04   -0.41462E-04  1824   0.606E-04 0.508E-05
CGA:  14    -0.612506296635E+03   -0.93698E-05   -0.10993E-04  1824   0.214E-04 0.223E-04
   5 F= -.61250630E+03 E0= -.61250588E+03  d E =-.268131E+00  mag=    -0.0000
       N       E                     dE             d eps       ncg     rms          ort
SDA:   1    -0.601847457140E+03    0.10659E+02    0.00000E+00  1824   0.593E+02 0.000E+00
CGA:   2    -0.608666618942E+03   -0.68192E+01   -0.69014E+01  1824   0.996E+01 0.129E+00
CGA:   3    -0.611824557277E+03   -0.31579E+01   -0.31577E+01  1824   0.383E+01-0.557E-02
CGA:   4    -0.612481493312E+03   -0.65694E+00   -0.65881E+00  1824   0.854E+00 0.422E-03
CGA:   5    -0.612656997673E+03   -0.17550E+00   -0.17535E+00  1824   0.302E+00-0.261E-02
CGA:   6    -0.612720684076E+03   -0.63686E-01   -0.63775E-01  1824   0.984E-01 0.312E-02
CGA:   7    -0.612745150934E+03   -0.24467E-01   -0.24460E-01  1824   0.355E-01 0.580E-03
CGA:   8    -0.612754223087E+03   -0.90722E-02   -0.90580E-02  1824   0.131E-01 0.647E-03
CGA:   9    -0.612757474145E+03   -0.32511E-02   -0.32479E-02  1824   0.673E-02 0.323E-03
CGA:  10    -0.612759037898E+03   -0.15638E-02   -0.15670E-02  1824   0.231E-02 0.433E-03
CGA:  11    -0.612759705244E+03   -0.66735E-03   -0.65869E-03  1824   0.924E-03 0.262E-03
CGA:  12    -0.612759966781E+03   -0.26154E-03   -0.25845E-03  1824   0.381E-03 0.203E-03
CGA:  13    -0.612760081586E+03   -0.11480E-03   -0.11420E-03  1824   0.167E-03 0.684E-04
CGA:  14    -0.612760117417E+03   -0.35831E-04   -0.38612E-04  1824   0.625E-04 0.683E-04
CGA:  15    -0.612760129313E+03   -0.11897E-04   -0.14969E-04  1824   0.273E-04 0.470E-04
CGA:  16    -0.612760134212E+03   -0.48991E-05   -0.54308E-05  1824   0.172E-04 0.161E-04
   6 F= -.61276013E+03 E0= -.61275942E+03  d E =-.253838E+00  mag=    -0.0000
       N       E                     dE             d eps       ncg     rms          ort
SDA:   1    -0.606007527107E+03    0.67526E+01    0.00000E+00  1824   0.309E+02 0.000E+00
CGA:   2    -0.610100536162E+03   -0.40930E+01   -0.40986E+01  1824   0.812E+01 0.135E-01
CGA:   3    -0.612254725548E+03   -0.21542E+01   -0.21540E+01  1824   0.262E+01 0.219E-02
CGA:   4    -0.612799706508E+03   -0.54498E+00   -0.54512E+00  1824   0.722E+00 0.125E-02
CGA:   5    -0.612940705890E+03   -0.14100E+00   -0.14105E+00  1824   0.236E+00 0.207E-02
CGA:   6    -0.612990850987E+03   -0.50145E-01   -0.50176E-01  1824   0.847E-01 0.317E-02
CGA:   7    -0.613010900026E+03   -0.20049E-01   -0.20052E-01  1824   0.322E-01-0.199E-03
CGA:   8    -0.613018664834E+03   -0.77648E-02   -0.77567E-02  1824   0.108E-01 0.345E-03
CGA:   9    -0.613021366021E+03   -0.27012E-02   -0.26983E-02  1824   0.534E-02 0.113E-03
CGA:  10    -0.613022646708E+03   -0.12807E-02   -0.12779E-02  1824   0.215E-02 0.198E-03
CGA:  11    -0.613023179834E+03   -0.53313E-03   -0.52984E-03  1824   0.816E-03 0.237E-03
CGA:  12    -0.613023423400E+03   -0.24357E-03   -0.23688E-03  1824   0.291E-03 0.181E-03
CGA:  13    -0.613023519557E+03   -0.96158E-04   -0.93468E-04  1824   0.120E-03 0.728E-04
CGA:  14    -0.613023549054E+03   -0.29497E-04   -0.30787E-04  1824   0.477E-04 0.584E-04
CGA:  15    -0.613023562174E+03   -0.13120E-04   -0.14067E-04  1824   0.227E-04 0.326E-04
CGA:  16    -0.613023567894E+03   -0.57196E-05   -0.55161E-05  1824   0.129E-04 0.113E-04
   7 F= -.61302357E+03 E0= -.61302268E+03  d E =-.263434E+00  mag=    -0.0000
       N       E                     dE             d eps       ncg     rms          ort
SDA:   1    -0.600420644305E+03    0.12603E+02    0.00000E+00  1824   0.510E+02 0.000E+00
CGA:   2    -0.608085406514E+03   -0.76648E+01   -0.76622E+01  1824   0.162E+02-0.979E-02
CGA:   3    -0.611843185327E+03   -0.37578E+01   -0.37561E+01  1824   0.484E+01 0.684E-01
CGA:   4    -0.612905860302E+03   -0.10627E+01   -0.10627E+01  1824   0.151E+01 0.995E-02
CGA:   5    -0.613198749485E+03   -0.29289E+00   -0.29297E+00  1824   0.457E+00 0.150E-02
CGA:   6    -0.613305916662E+03   -0.10717E+00   -0.10716E+00  1824   0.162E+00 0.339E-03
CGA:   7    -0.613344374538E+03   -0.38458E-01   -0.38454E-01  1824   0.567E-01 0.870E-04
CGA:   8    -0.613358369802E+03   -0.13995E-01   -0.13995E-01  1824   0.208E-01-0.457E-04
CGA:   9    -0.613363576821E+03   -0.52070E-02   -0.52056E-02  1824   0.890E-02 0.316E-04
CGA:  10    -0.613365706623E+03   -0.21298E-02   -0.21313E-02  1824   0.366E-02-0.807E-04
CGA:  11    -0.613366712185E+03   -0.10056E-02   -0.10072E-02  1824   0.166E-02-0.317E-04
CGA:  12    -0.613367130803E+03   -0.41862E-03   -0.41787E-03  1824   0.655E-03 0.254E-04
CGA:  13    -0.613367304516E+03   -0.17371E-03   -0.17325E-03  1824   0.280E-03 0.132E-04
CGA:  14    -0.613367382672E+03   -0.78156E-04   -0.78377E-04  1824   0.135E-03-0.500E-05
CGA:  15    -0.613367424136E+03   -0.41464E-04   -0.43343E-04  1824   0.896E-04-0.193E-04
CGA:  16    -0.613367442262E+03   -0.18126E-04   -0.18126E-04  1824   0.356E-04-0.389E-06
CGA:  17    -0.613367449966E+03   -0.77038E-05   -0.78454E-05  1824   0.101E-04 0.102E-04
   8 F= -.61336745E+03 E0= -.61336709E+03  d E =-.343882E+00  mag=     0.0000
       N       E                     dE             d eps       ncg     rms          ort
SDA:   1    -0.610837369021E+03    0.25301E+01    0.00000E+00  1824   0.961E+01 0.000E+00
CGA:   2    -0.612640796134E+03   -0.18034E+01   -0.18052E+01  1824   0.298E+01 0.119E-02
CGA:   3    -0.613274093413E+03   -0.63330E+00   -0.63352E+00  1824   0.107E+01 0.485E-02
CGA:   4    -0.613528375842E+03   -0.25428E+00   -0.25428E+00  1824   0.264E+00 0.415E-03
CGA:   5    -0.613593884964E+03   -0.65509E-01   -0.65579E-01  1824   0.103E+00-0.397E-02
CGA:   6    -0.613617051124E+03   -0.23166E-01   -0.23164E-01  1824   0.383E-01-0.741E-03
CGA:   7    -0.613625538993E+03   -0.84879E-02   -0.84903E-02  1824   0.148E-01 0.289E-03
CGA:   8    -0.613628971059E+03   -0.34321E-02   -0.34323E-02  1824   0.472E-02 0.282E-03
CGA:   9    -0.613630318545E+03   -0.13475E-02   -0.13421E-02  1824   0.176E-02 0.109E-03
CGA:  10    -0.613630843911E+03   -0.52537E-03   -0.53506E-03  1824   0.104E-02-0.150E-03
CGA:  11    -0.613631087725E+03   -0.24381E-03   -0.24814E-03  1824   0.598E-03-0.173E-03
CGA:  12    -0.613631212251E+03   -0.12453E-03   -0.12592E-03  1824   0.208E-03-0.918E-04
CGA:  13    -0.613631271343E+03   -0.59092E-04   -0.67670E-04  1824   0.113E-03-0.585E-04
CGA:  14    -0.613631288490E+03   -0.17146E-04   -0.17330E-04  1824   0.505E-04 0.586E-05
CGA:  15    -0.613631303954E+03   -0.15464E-04   -0.15531E-04  1824   0.196E-04-0.138E-05
CGA:  16    -0.613631316434E+03   -0.12480E-04    0.72058E-05  1824   0.872E-05 0.695E-05
CGA:  17    -0.613631323550E+03   -0.71157E-05    0.64970E-05  1824   0.340E-05 0.213E-05
   9 F= -.61363132E+03 E0= -.61363096E+03  d E =-.263874E+00  mag=     0.0000
       N       E                     dE             d eps       ncg     rms          ort
SDA:   1    -0.613561952827E+03    0.69364E-01    0.00000E+00  1824   0.737E+00 0.000E+00
CGA:   2    -0.613659851857E+03   -0.97899E-01   -0.98041E-01  1824   0.190E+00 0.293E-03
CGA:   3    -0.613712047426E+03   -0.52196E-01   -0.52198E-01  1824   0.508E-01-0.348E-03
CGA:   4    -0.613723292336E+03   -0.11245E-01   -0.11230E-01  1824   0.156E-01-0.779E-03
CGA:   5    -0.613726671332E+03   -0.33790E-02   -0.33851E-02  1824   0.388E-02 0.287E-03
CGA:   6    -0.613727668422E+03   -0.99709E-03   -0.99546E-03  1824   0.139E-02 0.138E-03
CGA:   7    -0.613728041466E+03   -0.37304E-03   -0.37352E-03  1824   0.591E-03-0.251E-04
CGA:   8    -0.613728162491E+03   -0.12103E-03   -0.12095E-03  1824   0.234E-03-0.239E-05
CGA:   9    -0.613728222207E+03   -0.59716E-04   -0.59648E-04  1824   0.800E-04 0.391E-05
CGA:  10    -0.613728244595E+03   -0.22388E-04   -0.22184E-04  1824   0.314E-04 0.637E-05
CGA:  11    -0.613728251012E+03   -0.64176E-05   -0.68831E-05  1824   0.129E-04 0.119E-04
  10 F= -.61372825E+03 E0= -.61372789E+03  d E =-.969275E-01  mag=     0.0000
       N       E                     dE             d eps       ncg     rms          ort
SDA:   1    -0.605281698306E+03    0.84465E+01    0.00000E+00  1824   0.296E+02 0.000E+00
CGA:   2    -0.610629640656E+03   -0.53479E+01   -0.53432E+01  1824   0.109E+02-0.325E-01
CGA:   3    -0.612989638057E+03   -0.23600E+01   -0.23605E+01  1824   0.324E+01 0.535E-02
CGA:   4    -0.613733065965E+03   -0.74343E+00   -0.74349E+00  1824   0.875E+00 0.207E-02
CGA:   5    -0.613926830451E+03   -0.19376E+00   -0.19385E+00  1824   0.318E+00 0.521E-02
CGA:   6    -0.613996249878E+03   -0.69419E-01   -0.69423E-01  1824   0.113E+00 0.271E-03
CGA:   7    -0.614022170225E+03   -0.25920E-01   -0.25917E-01  1824   0.434E-01-0.699E-03
CGA:   8    -0.614032425154E+03   -0.10255E-01   -0.10254E-01  1824   0.134E-01 0.246E-03
CGA:   9    -0.614036191647E+03   -0.37665E-02   -0.37714E-02  1824   0.555E-02-0.117E-03
CGA:  10    -0.614037571641E+03   -0.13800E-02   -0.13787E-02  1824   0.244E-02 0.866E-04
CGA:  11    -0.614038176086E+03   -0.60445E-03   -0.60369E-03  1824   0.105E-02 0.100E-03
CGA:  12    -0.614038473084E+03   -0.29700E-03   -0.29585E-03  1824   0.377E-03 0.343E-04
CGA:  13    -0.614038585922E+03   -0.11284E-03   -0.11151E-03  1824   0.152E-03 0.272E-04
CGA:  14    -0.614038632672E+03   -0.46750E-04   -0.46877E-04  1824   0.901E-04-0.286E-05
CGA:  15    -0.614038658648E+03   -0.25976E-04   -0.26553E-04  1824   0.539E-04-0.101E-04
CGA:  16    -0.614038666925E+03   -0.82769E-05   -0.90482E-05  1824   0.181E-04 0.135E-04
  11 F= -.61403867E+03 E0= -.61403835E+03  d E =-.310416E+00  mag=    -0.0000
       N       E                     dE             d eps       ncg     rms          ort
SDA:   1    -0.609313672131E+03    0.47250E+01    0.00000E+00  1824   0.219E+02 0.000E+00
CGA:   2    -0.612343542743E+03   -0.30299E+01   -0.30414E+01  1824   0.527E+01-0.297E-01
CGA:   3    -0.613566128159E+03   -0.12226E+01   -0.12226E+01  1824   0.174E+01 0.170E-01
CGA:   4    -0.613971563367E+03   -0.40544E+00   -0.40544E+00  1824   0.479E+00 0.264E-02
CGA:   5    -0.614069371660E+03   -0.97808E-01   -0.97665E-01  1824   0.154E+00-0.520E-02
CGA:   6    -0.614105697567E+03   -0.36326E-01   -0.36347E-01  1824   0.575E-01-0.284E-02
CGA:   7    -0.614118203343E+03   -0.12506E-01   -0.12510E-01  1824   0.202E-01 0.382E-03
CGA:   8    -0.614123152633E+03   -0.49493E-02   -0.49434E-02  1824   0.696E-02 0.483E-03
CGA:   9    -0.614125029361E+03   -0.18767E-02   -0.18692E-02  1824   0.272E-02 0.242E-03
CGA:  10    -0.614125807561E+03   -0.77820E-03   -0.78655E-03  1824   0.148E-02-0.182E-03
CGA:  11    -0.614126195761E+03   -0.38820E-03   -0.40938E-03  1824   0.107E-02-0.344E-03
CGA:  12    -0.614126395129E+03   -0.19937E-03   -0.20028E-03  1824   0.358E-03-0.178E-03
CGA:  13    -0.614126478835E+03   -0.83706E-04   -0.83567E-04  1824   0.128E-03 0.331E-05
CGA:  14    -0.614126521535E+03   -0.42701E-04   -0.43848E-04  1824   0.697E-04-0.116E-04
CGA:  15    -0.614126539558E+03   -0.18022E-04   -0.18098E-04  1824   0.413E-04-0.191E-05
CGA:  16    -0.614126302191E+03    0.23737E-03   -0.12790E-03  1824   0.156E-02-0.223E-03
CGA:  17    -0.614126512061E+03   -0.20987E-03   -0.21175E-03  1824   0.247E-03 0.646E-05
CGA:  18    -0.614126561577E+03   -0.49516E-04   -0.56089E-04  1824   0.453E-04 0.312E-04
CGA:  19    -0.614126566467E+03   -0.48906E-05   -0.10570E-04  1824   0.223E-04 0.259E-04
  12 F= -.61412657E+03 E0= -.61412634E+03  d E =-.878995E-01  mag=    -0.0000
       N       E                     dE             d eps       ncg     rms          ort
SDA:   1    -0.613619957933E+03    0.50660E+00    0.00000E+00  1824   0.231E+01 0.000E+00
CGA:   2    -0.613953857781E+03   -0.33390E+00   -0.33413E+00  1824   0.600E+00 0.444E-02
CGA:   3    -0.614089131639E+03   -0.13527E+00   -0.13516E+00  1824   0.195E+00-0.141E-02
CGA:   4    -0.614135197536E+03   -0.46066E-01   -0.45951E-01  1824   0.534E-01-0.112E-02
CGA:   5    -0.614145680333E+03   -0.10483E-01   -0.10681E-01  1824   0.167E-01 0.109E-02
CGA:   6    -0.614149521748E+03   -0.38414E-02   -0.39127E-02  1824   0.591E-02 0.482E-03
CGA:   7    -0.614150968793E+03   -0.14470E-02   -0.14343E-02  1824   0.239E-02-0.980E-04
CGA:   8    -0.614151541864E+03   -0.57307E-03   -0.57372E-03  1824   0.881E-03 0.453E-05
CGA:   9    -0.614151771695E+03   -0.22983E-03   -0.22862E-03  1824   0.368E-03-0.133E-04
CGA:  10    -0.614151856563E+03   -0.84867E-04   -0.87353E-04  1824   0.145E-03 0.229E-04
CGA:  11    -0.614151879579E+03   -0.23016E-04   -0.30275E-04  1824   0.525E-04 0.493E-04
CGA:  12    -0.614151888518E+03   -0.89387E-05   -0.13432E-04  1824   0.221E-04 0.310E-04
  13 F= -.61415189E+03 E0= -.61415165E+03  d E =-.253221E-01  mag=    -0.0000
       N       E                     dE             d eps       ncg     rms          ort
SDA:   1    -0.614094783505E+03    0.57096E-01    0.00000E+00  1824   0.292E+00 0.000E+00
CGA:   2    -0.614135027256E+03   -0.40244E-01   -0.40403E-01  1824   0.864E-01 0.380E-03
CGA:   3    -0.614158606613E+03   -0.23579E-01   -0.23555E-01  1824   0.232E-01-0.604E-03
CGA:   4    -0.614163719582E+03   -0.51130E-02   -0.50900E-02  1824   0.709E-02-0.273E-03
CGA:   5    -0.614165227361E+03   -0.15078E-02   -0.15157E-02  1824   0.171E-02 0.804E-04
CGA:   6    -0.614165650480E+03   -0.42312E-03   -0.42576E-03  1824   0.645E-03 0.417E-04
CGA:   7    -0.614165810346E+03   -0.15987E-03   -0.16004E-03  1824   0.257E-03 0.253E-05
CGA:   8    -0.614165858631E+03   -0.48284E-04   -0.50079E-04  1824   0.861E-04 0.165E-04
CGA:   9    -0.614165882234E+03   -0.23603E-04   -0.23861E-04  1824   0.309E-04 0.717E-05
CGA:  10    -0.614165890694E+03   -0.84606E-05   -0.86794E-05  1824   0.118E-04 0.618E-05
  14 F= -.61416589E+03 E0= -.61416565E+03  d E =-.140022E-01  mag=    -0.0000
       N       E                     dE             d eps       ncg     rms          ort
SDA:   1    -0.610854334361E+03    0.33115E+01    0.00000E+00  1824   0.151E+02 0.000E+00
CGA:   2    -0.612804353269E+03   -0.19500E+01   -0.19537E+01  1824   0.382E+01-0.642E-02
CGA:   3    -0.613923869712E+03   -0.11195E+01   -0.11194E+01  1824   0.108E+01 0.315E-02
CGA:   4    -0.614142755205E+03   -0.21889E+00   -0.21886E+00  1824   0.302E+00-0.172E-02
CGA:   5    -0.614210144332E+03   -0.67389E-01   -0.67392E-01  1824   0.835E-01-0.118E-03
CGA:   6    -0.614228726206E+03   -0.18582E-01   -0.18585E-01  1824   0.341E-01 0.838E-04
CGA:   7    -0.614236148459E+03   -0.74223E-02   -0.74341E-02  1824   0.125E-01 0.191E-03
CGA:   8    -0.614238907244E+03   -0.27588E-02   -0.27659E-02  1824   0.366E-02 0.141E-03
CGA:   9    -0.614239990277E+03   -0.10830E-02   -0.10816E-02  1824   0.151E-02 0.566E-04
CGA:  10    -0.614240378071E+03   -0.38779E-03   -0.38807E-03  1824   0.712E-03 0.178E-04
CGA:  11    -0.614240547660E+03   -0.16959E-03   -0.17058E-03  1824   0.302E-03 0.326E-04
CGA:  12    -0.614240628764E+03   -0.81105E-04   -0.81279E-04  1824   0.106E-03 0.218E-04
CGA:  13    -0.614240659205E+03   -0.30441E-04   -0.30424E-04  1824   0.454E-04 0.789E-05
CGA:  14    -0.614240671076E+03   -0.11871E-04   -0.11942E-04  1824   0.185E-04 0.350E-05
CGA:  15    -0.614240676902E+03   -0.58258E-05   -0.58069E-05  1824   0.848E-05 0.678E-06
  15 F= -.61424068E+03 E0= -.61424044E+03  d E =-.747862E-01  mag=     0.0000
       N       E                     dE             d eps       ncg     rms          ort
SDA:   1    -0.607289953798E+03    0.69507E+01    0.00000E+00  1824   0.358E+02 0.000E+00
CGA:   2    -0.611536219905E+03   -0.42463E+01   -0.42606E+01  1824   0.686E+01-0.179E-01
CGA:   3    -0.613616263808E+03   -0.20800E+01   -0.20789E+01  1824   0.221E+01 0.145E-01
CGA:   4    -0.614043750528E+03   -0.42749E+00   -0.42777E+00  1824   0.551E+00 0.803E-03
CGA:   5    -0.614166862431E+03   -0.12311E+00   -0.12306E+00  1824   0.170E+00-0.155E-02
CGA:   6    -0.614203909936E+03   -0.37048E-01   -0.37017E-01  1824   0.627E-01-0.905E-03
CGA:   7    -0.614217991686E+03   -0.14082E-01   -0.14088E-01  1824   0.236E-01 0.197E-03
CGA:   8    -0.614223426216E+03   -0.54345E-02   -0.54413E-02  1824   0.705E-02 0.299E-03
CGA:   9    -0.614225527992E+03   -0.21018E-02   -0.20947E-02  1824   0.310E-02 0.159E-03
CGA:  10    -0.614226321675E+03   -0.79368E-03   -0.79365E-03  1824   0.149E-02-0.175E-04
CGA:  11    -0.614226702278E+03   -0.38060E-03   -0.38081E-03  1824   0.712E-03-0.440E-04
CGA:  12    -0.614226892251E+03   -0.18997E-03   -0.19043E-03  1824   0.279E-03-0.203E-04
CGA:  13    -0.614226962485E+03   -0.70234E-04   -0.70187E-04  1824   0.117E-03 0.909E-05
CGA:  14    -0.614226992482E+03   -0.29997E-04   -0.30036E-04  1824   0.457E-04 0.651E-05
CGA:  15    -0.614227007287E+03   -0.14805E-04   -0.14791E-04  1824   0.227E-04 0.226E-06
CGA:  16    -0.614227013884E+03   -0.65972E-05   -0.66850E-05  1824   0.140E-04-0.240E-05
  16 F= -.61422701E+03 E0= -.61422676E+03  d E =0.136630E-01  mag=     0.0000
       N       E                     dE             d eps       ncg     rms          ort
SDA:   1    -0.613401715349E+03    0.82529E+00    0.00000E+00  1824   0.462E+01 0.000E+00
CGA:   2    -0.613959628693E+03   -0.55791E+00   -0.55863E+00  1824   0.871E+00-0.544E-03
CGA:   3    -0.614206756933E+03   -0.24713E+00   -0.24710E+00  1824   0.277E+00-0.255E-03
CGA:   4    -0.614263283476E+03   -0.56527E-01   -0.56446E-01  1824   0.777E-01-0.171E-02
CGA:   5    -0.614279502297E+03   -0.16219E-01   -0.16247E-01  1824   0.219E-01 0.565E-03
CGA:   6    -0.614284282577E+03   -0.47803E-02   -0.47967E-02  1824   0.801E-02 0.433E-03
CGA:   7    -0.614286171477E+03   -0.18889E-02   -0.18887E-02  1824   0.300E-02-0.949E-05
CGA:   8    -0.614286912373E+03   -0.74090E-03   -0.74098E-03  1824   0.105E-02 0.183E-04
CGA:   9    -0.614287189669E+03   -0.27730E-03   -0.27674E-03  1824   0.424E-03 0.606E-04
CGA:  10    -0.614287295218E+03   -0.10555E-03   -0.10622E-03  1824   0.178E-03 0.429E-04
CGA:  11    -0.614287341344E+03   -0.46125E-04   -0.46689E-04  1824   0.711E-04 0.428E-04
CGA:  12    -0.614287362044E+03   -0.20700E-04   -0.21045E-04  1824   0.253E-04 0.276E-04
CGA:  13    -0.614287370667E+03   -0.86226E-05   -0.86698E-05  1824   0.108E-04 0.134E-04
  17 F= -.61428737E+03 E0= -.61428714E+03  d E =-.603568E-01  mag=    -0.0000
       N       E                     dE             d eps       ncg     rms          ort
SDA:   1    -0.614137447002E+03    0.14992E+00    0.00000E+00  1824   0.753E+00 0.000E+00
CGA:   2    -0.614233525677E+03   -0.96079E-01   -0.96275E-01  1824   0.181E+00 0.708E-03
CGA:   3    -0.614282589604E+03   -0.49064E-01   -0.49077E-01  1824   0.538E-01-0.697E-03
CGA:   4    -0.614293684372E+03   -0.11095E-01   -0.11069E-01  1824   0.173E-01-0.770E-03
CGA:   5    -0.614297128448E+03   -0.34441E-02   -0.34572E-02  1824   0.483E-02 0.334E-03
CGA:   6    -0.614298139256E+03   -0.10108E-02   -0.10182E-02  1824   0.162E-02 0.224E-03
CGA:   7    -0.614298582355E+03   -0.44310E-03   -0.44406E-03  1824   0.671E-03-0.408E-04
CGA:   8    -0.614298738468E+03   -0.15611E-03   -0.15612E-03  1824   0.228E-03 0.162E-04
CGA:   9    -0.614298794549E+03   -0.56081E-04   -0.56064E-04  1824   0.986E-04 0.190E-04
CGA:  10    -0.614298820029E+03   -0.25479E-04   -0.25487E-04  1824   0.387E-04 0.126E-04
CGA:  11    -0.614298828454E+03   -0.84250E-05   -0.89724E-05  1824   0.155E-04 0.164E-04
  18 F= -.61429883E+03 E0= -.61429860E+03  d E =-.114578E-01  mag=    -0.0000
       N       E                     dE             d eps       ncg     rms          ort
SDA:   1    -0.614277614968E+03    0.21205E-01    0.00000E+00  1824   0.112E+00 0.000E+00
CGA:   2    -0.614291676060E+03   -0.14061E-01   -0.14091E-01  1824   0.271E-01 0.103E-03
CGA:   3    -0.614299401624E+03   -0.77256E-02   -0.77308E-02  1824   0.808E-02-0.130E-03
CGA:   4    -0.614300997504E+03   -0.15959E-02   -0.15926E-02  1824   0.253E-02-0.103E-03
CGA:   5    -0.614301507161E+03   -0.50966E-03   -0.51143E-03  1824   0.704E-03 0.673E-04
CGA:   6    -0.614301648941E+03   -0.14178E-03   -0.14370E-03  1824   0.224E-03 0.609E-04
CGA:   7    -0.614301716046E+03   -0.67106E-04   -0.67242E-04  1824   0.986E-04-0.293E-05
CGA:   8    -0.614301740400E+03   -0.24354E-04   -0.24382E-04  1824   0.355E-04-0.142E-05
CGA:   9    -0.614301749576E+03   -0.91755E-05   -0.92042E-05  1824   0.195E-04-0.913E-06
  19 F= -.61430175E+03 E0= -.61430152E+03  d E =-.292112E-02  mag=    -0.0000
       N       E                     dE             d eps       ncg     rms          ort
SDA:   1    -0.614137774457E+03    0.16397E+00    0.00000E+00  1824   0.780E+00 0.000E+00
CGA:   2    -0.614235853247E+03   -0.98079E-01   -0.98168E-01  1824   0.189E+00-0.404E-03
CGA:   3    -0.614291245254E+03   -0.55392E-01   -0.55383E-01  1824   0.551E-01-0.765E-04
CGA:   4    -0.614301906804E+03   -0.10662E-01   -0.10659E-01  1824   0.164E-01-0.152E-03
CGA:   5    -0.614305465145E+03   -0.35583E-02   -0.35588E-02  1824   0.493E-02 0.408E-04
CGA:   6    -0.614306481825E+03   -0.10167E-02   -0.10181E-02  1824   0.171E-02 0.660E-04
CGA:   7    -0.614306913033E+03   -0.43121E-03   -0.43127E-03  1824   0.665E-03-0.332E-05
CGA:   8    -0.614307069299E+03   -0.15627E-03   -0.15628E-03  1824   0.213E-03-0.174E-05
CGA:   9    -0.614307126832E+03   -0.57533E-04   -0.57587E-04  1824   0.111E-03-0.130E-05
CGA:  10    -0.614307151443E+03   -0.24611E-04   -0.24635E-04  1824   0.411E-04 0.416E-05
CGA:  11    -0.614307161964E+03   -0.10521E-04   -0.10416E-04  1824   0.156E-04 0.719E-05
CGA:  12    -0.614307167813E+03   -0.58491E-05   -0.57280E-05  1824   0.660E-05 0.145E-05
  20 F= -.61430717E+03 E0= -.61430694E+03  d E =-.541824E-02  mag=    -0.0000
       N       E                     dE             d eps       ncg     rms          ort
SDA:   1    -0.614201550403E+03    0.10561E+00    0.00000E+00  1824   0.496E+00 0.000E+00
CGA:   2    -0.614264428044E+03   -0.62878E-01   -0.62965E-01  1824   0.123E+00-0.241E-04
CGA:   3    -0.614301084128E+03   -0.36656E-01   -0.36672E-01  1824   0.345E-01-0.345E-03
CGA:   4    -0.614308006073E+03   -0.69219E-02   -0.69182E-02  1824   0.972E-02-0.159E-03
CGA:   5    -0.614310236098E+03   -0.22300E-02   -0.22301E-02  1824   0.268E-02 0.114E-04
CGA:   6    -0.614310838606E+03   -0.60251E-03   -0.60265E-03  1824   0.101E-02 0.182E-04
CGA:   7    -0.614311079742E+03   -0.24114E-03   -0.24116E-03  1824   0.423E-03-0.636E-05
CGA:   8    -0.614311163808E+03   -0.84066E-04   -0.84521E-04  1824   0.117E-03 0.143E-04
CGA:   9    -0.614311201605E+03   -0.37797E-04   -0.37771E-04  1824   0.511E-04 0.270E-06
CGA:  10    -0.614311215187E+03   -0.13582E-04   -0.13518E-04  1824   0.212E-04 0.217E-05
CGA:  11    -0.614311221172E+03   -0.59850E-05   -0.59874E-05  1824   0.116E-04-0.104E-06
  21 F= -.61431122E+03 E0= -.61431099E+03  d E =-.405336E-02  mag=     0.0000
       N       E                     dE             d eps       ncg     rms          ort
SDA:   1    -0.611213442496E+03    0.30978E+01    0.00000E+00  1824   0.142E+02 0.000E+00
CGA:   2    -0.613005338507E+03   -0.17919E+01   -0.17939E+01  1824   0.344E+01-0.111E-01
CGA:   3    -0.614041784379E+03   -0.10364E+01   -0.10358E+01  1824   0.952E+00 0.543E-02
CGA:   4    -0.614233001177E+03   -0.19122E+00   -0.19124E+00  1824   0.261E+00-0.744E-03
CGA:   5    -0.614294791507E+03   -0.61790E-01   -0.61791E-01  1824   0.700E-01-0.154E-03
CGA:   6    -0.614311462770E+03   -0.16671E-01   -0.16671E-01  1824   0.258E-01-0.692E-05
CGA:   7    -0.614317734106E+03   -0.62713E-02   -0.62706E-02  1824   0.107E-01 0.776E-04
CGA:   8    -0.614319786700E+03   -0.20526E-02   -0.20560E-02  1824   0.337E-02 0.691E-04
CGA:   9    -0.614320798092E+03   -0.10114E-02   -0.10116E-02  1824   0.136E-02-0.472E-05
CGA:  10    -0.614321163372E+03   -0.36528E-03   -0.36531E-03  1824   0.595E-03-0.106E-05
CGA:  11    -0.614321319371E+03   -0.15600E-03   -0.15626E-03  1824   0.300E-03-0.106E-04
CGA:  12    -0.614321391557E+03   -0.72187E-04   -0.72206E-04  1824   0.107E-03-0.309E-05
CGA:  13    -0.614321419026E+03   -0.27469E-04   -0.27488E-04  1824   0.472E-04-0.874E-06
CGA:  14    -0.614321430542E+03   -0.11516E-04   -0.11525E-04  1824   0.193E-04-0.144E-05
CGA:  15    -0.614321436469E+03   -0.59269E-05   -0.61368E-05  1824   0.995E-05-0.242E-05
  22 F= -.61432144E+03 E0= -.61432119E+03  d E =-.102153E-01  mag=     0.0000
       N       E                     dE             d eps       ncg     rms          ort
SDA:   1    -0.610533333845E+03    0.37881E+01    0.00000E+00  1824   0.166E+02 0.000E+00
CGA:   2    -0.612692240115E+03   -0.21589E+01   -0.21614E+01  1824   0.438E+01-0.122E-01
CGA:   3    -0.613962344112E+03   -0.12701E+01   -0.12696E+01  1824   0.116E+01 0.545E-02
CGA:   4    -0.614204730196E+03   -0.24239E+00   -0.24240E+00  1824   0.342E+00-0.148E-02
CGA:   5    -0.614283766815E+03   -0.79037E-01   -0.79043E-01  1824   0.861E-01 0.656E-03
CGA:   6    -0.614305248611E+03   -0.21482E-01   -0.21482E-01  1824   0.312E-01-0.235E-05
CGA:   7    -0.614313291587E+03   -0.80430E-02   -0.80408E-02  1824   0.118E-01 0.109E-03
CGA:   8    -0.614315582414E+03   -0.22908E-02   -0.22941E-02  1824   0.446E-02 0.615E-04
CGA:   9    -0.614316780464E+03   -0.11981E-02   -0.11956E-02  1824   0.166E-02 0.849E-04
CGA:  10    -0.614317251608E+03   -0.47114E-03   -0.47060E-03  1824   0.714E-03 0.143E-04
CGA:  11    -0.614317446354E+03   -0.19475E-03   -0.19433E-03  1824   0.358E-03 0.148E-04
CGA:  12    -0.614317530966E+03   -0.84612E-04   -0.84779E-04  1824   0.124E-03 0.139E-04
CGA:  13    -0.614317563083E+03   -0.32117E-04   -0.32051E-04  1824   0.500E-04 0.105E-04
CGA:  14    -0.614317575107E+03   -0.12023E-04   -0.12164E-04  1824   0.186E-04 0.725E-05
CGA:  15    -0.614317581865E+03   -0.67581E-05   -0.66312E-05  1824   0.755E-05 0.180E-05
  23 F= -.61431758E+03 E0= -.61431732E+03  d E =0.385460E-02  mag=     0.0000
       N       E                     dE             d eps       ncg     rms          ort
SDA:   1    -0.613761119560E+03    0.55646E+00    0.00000E+00  1824   0.244E+01 0.000E+00
CGA:   2    -0.614086036777E+03   -0.32492E+00   -0.32485E+00  1824   0.656E+00-0.435E-02
CGA:   3    -0.614267389583E+03   -0.18135E+00   -0.18123E+00  1824   0.179E+00 0.270E-02
CGA:   4    -0.614305487098E+03   -0.38098E-01   -0.38123E-01  1824   0.561E-01 0.641E-03
CGA:   5    -0.614317789332E+03   -0.12302E-01   -0.12294E-01  1824   0.156E-01-0.380E-03
CGA:   6    -0.614321312949E+03   -0.35236E-02   -0.35221E-02  1824   0.631E-02-0.135E-03
CGA:   7    -0.614322698309E+03   -0.13854E-02   -0.13863E-02  1824   0.224E-02 0.538E-04
CGA:   8    -0.614323235226E+03   -0.53692E-03   -0.53691E-03  1824   0.717E-03-0.363E-04
CGA:   9    -0.614323447134E+03   -0.21191E-03   -0.21394E-03  1824   0.342E-03-0.317E-04
CGA:  10    -0.614323525699E+03   -0.78565E-04   -0.78553E-04  1824   0.166E-03-0.178E-04
CGA:  11    -0.614323566567E+03   -0.40869E-04   -0.41195E-04  1824   0.746E-04-0.154E-04
CGA:  12    -0.614323586603E+03   -0.20036E-04   -0.20783E-04  1824   0.357E-04-0.115E-04
CGA:  13    -0.614323594545E+03   -0.79419E-05   -0.81093E-05  1824   0.197E-04-0.724E-05
  24 F= -.61432359E+03 E0= -.61432334E+03  d E =-.601268E-02  mag=    -0.0000
       N       E                     dE             d eps       ncg     rms          ort
SDA:   1    -0.614039390455E+03    0.28420E+00    0.00000E+00  1824   0.136E+01 0.000E+00
CGA:   2    -0.614206943874E+03   -0.16755E+00   -0.16764E+00  1824   0.305E+00-0.153E-02
CGA:   3    -0.614299695955E+03   -0.92752E-01   -0.92695E-01  1824   0.888E-01 0.531E-03
CGA:   4    -0.614317299506E+03   -0.17604E-01   -0.17606E-01  1824   0.230E-01-0.396E-04
CGA:   5    -0.614322816052E+03   -0.55165E-02   -0.55165E-02  1824   0.634E-02-0.100E-03
CGA:   6    -0.614324360255E+03   -0.15442E-02   -0.15444E-02  1824   0.211E-02-0.435E-04
CGA:   7    -0.614324923475E+03   -0.56322E-03   -0.56324E-03  1824   0.807E-03-0.187E-05
CGA:   8    -0.614325078595E+03   -0.15512E-03   -0.15564E-03  1824   0.308E-03 0.104E-04
CGA:   9    -0.614325161620E+03   -0.83025E-04   -0.82962E-04  1824   0.117E-03 0.226E-05
CGA:  10    -0.614325196615E+03   -0.34995E-04   -0.35561E-04  1824   0.582E-04-0.929E-05
CGA:  11    -0.614325211962E+03   -0.15347E-04   -0.15824E-04  1824   0.352E-04-0.916E-05
CGA:  12    -0.614325219099E+03   -0.71366E-05   -0.71139E-05  1824   0.118E-04-0.363E-05
  25 F= -.61432522E+03 E0= -.61432497E+03  d E =-.162455E-02  mag=    -0.0000
       N       E                     dE             d eps       ncg     rms          ort
SDA:   1    -0.614296469115E+03    0.28743E-01    0.00000E+00  1824   0.152E+00 0.000E+00
CGA:   2    -0.614314530731E+03   -0.18062E-01   -0.18093E-01  1824   0.283E-01-0.420E-05
CGA:   3    -0.614322838218E+03   -0.83075E-02   -0.83040E-02  1824   0.101E-01 0.235E-04
CGA:   4    -0.614324864164E+03   -0.20259E-02   -0.20207E-02  1824   0.231E-02-0.133E-03
CGA:   5    -0.614325336007E+03   -0.47184E-03   -0.47288E-03  1824   0.697E-03 0.297E-04
CGA:   6    -0.614325496297E+03   -0.16029E-03   -0.16051E-03  1824   0.241E-03 0.169E-04
CGA:   7    -0.614325552163E+03   -0.55866E-04   -0.55940E-04  1824   0.909E-04 0.563E-05
CGA:   8    -0.614325574518E+03   -0.22356E-04   -0.22353E-04  1824   0.306E-04 0.126E-05
CGA:   9    -0.614325583283E+03   -0.87650E-05   -0.87168E-05  1824   0.131E-04 0.114E-05
  26 F= -.61432558E+03 E0= -.61432533E+03  d E =-.364184E-03  mag=     0.0000
