       N       E                     dE             d eps       ncg     rms          rms(c)
DAV:   1     0.308026686059E+04    0.30803E+04   -0.25785E+05 11532   0.130E+03
DAV:   2    -0.588973002144E+03   -0.36692E+04   -0.35433E+04 14016   0.298E+02
DAV:   3    -0.849886784639E+03   -0.26091E+03   -0.25832E+03 13980   0.840E+01
DAV:   4    -0.853197192931E+03   -0.33104E+01   -0.32979E+01 14040   0.101E+01
DAV:   5    -0.853254703432E+03   -0.57511E-01   -0.57371E-01 14316   0.123E+00    0.993E+01
DAV:   6    -0.757684485344E+03    0.95570E+02   -0.39790E+02 13212   0.325E+01    0.535E+01
DAV:   7    -0.766023274895E+03   -0.83388E+01   -0.42023E+01 14100   0.121E+01    0.238E+01
DAV:   8    -0.772426651141E+03   -0.64034E+01   -0.10391E+02 17172   0.911E+00    0.169E+01
DAV:   9    -0.773188771250E+03   -0.76212E+00   -0.40549E+01 14712   0.605E+00    0.134E+01
DAV:  10    -0.772884724560E+03    0.30405E+00   -0.23331E+01 15504   0.434E+00    0.969E+00
DAV:  11    -0.772543338710E+03    0.34139E+00   -0.67618E+00 15624   0.386E+00    0.757E+00
DAV:  12    -0.772679116033E+03   -0.13578E+00   -0.19785E+00 14796   0.255E+00    0.650E+00
DAV:  13    -0.772966430232E+03   -0.28731E+00   -0.12923E+00 14484   0.210E+00    0.463E+00
DAV:  14    -0.773051514570E+03   -0.85084E-01   -0.61883E-01 15180   0.173E+00    0.785E+00
DAV:  15    -0.772985642774E+03    0.65872E-01   -0.12009E+00 14388   0.105E+00    0.388E+00
DAV:  16    -0.773114333195E+03   -0.12869E+00   -0.84917E-01 14412   0.104E+00    0.607E+00
DAV:  17    -0.773035798470E+03    0.78535E-01   -0.52335E-01 14112   0.654E-01    0.325E+00
DAV:  18    -0.773053948434E+03   -0.18150E-01   -0.81747E-02 13596   0.457E-01    0.356E+00
DAV:  19    -0.773072117712E+03   -0.18169E-01   -0.51611E-02 15228   0.458E-01    0.350E+00
DAV:  20    -0.773094167379E+03   -0.22050E-01   -0.32493E-01 15912   0.750E-01    0.460E+00
DAV:  21    -0.773125918921E+03   -0.31752E-01   -0.75516E-02 13140   0.556E-01    0.511E+00
DAV:  22    -0.773165341868E+03   -0.39423E-01   -0.85514E-02 14316   0.582E-01    0.491E+00
DAV:  23    -0.773100041278E+03    0.65301E-01   -0.51896E-02 15828   0.681E-01    0.373E+00
DAV:  24    -0.773082375597E+03    0.17666E-01   -0.44140E-02 14076   0.396E-01    0.340E+00
DAV:  25    -0.773050970482E+03    0.31405E-01   -0.13535E-02 15012   0.292E-01    0.313E+00
DAV:  26    -0.773015735120E+03    0.35235E-01   -0.31410E-02 15264   0.259E-01    0.257E+00
DAV:  27    -0.773007050368E+03    0.86848E-02   -0.10992E-02 14088   0.215E-01    0.224E+00
DAV:  28    -0.773017440634E+03   -0.10390E-01   -0.47286E-03 14160   0.122E-01    0.209E+00
DAV:  29    -0.773025389002E+03   -0.79484E-02   -0.17397E-03 14220   0.849E-02    0.196E+00
DAV:  30    -0.773036605016E+03   -0.11216E-01   -0.52709E-02 14736   0.213E-01    0.109E+00
DAV:  31    -0.773056712041E+03   -0.20107E-01   -0.10784E-02 14340   0.257E-01    0.779E-01
DAV:  32    -0.773067065300E+03   -0.10353E-01   -0.18672E-02 14004   0.239E-01    0.653E-01
DAV:  33    -0.773068150791E+03   -0.10855E-02   -0.29119E-03 12948   0.116E-01    0.556E-01
DAV:  34    -0.773067497734E+03    0.65306E-03   -0.74974E-04 13152   0.428E-02    0.528E-01
DAV:  35    -0.773067160709E+03    0.33703E-03   -0.33629E-03 13272   0.804E-02    0.437E-01
DAV:  36    -0.773067720079E+03   -0.55937E-03   -0.11960E-03 14496   0.732E-02    0.349E-01
DAV:  37    -0.773068102634E+03   -0.38255E-03   -0.77822E-04 14796   0.684E-02    0.265E-01
DAV:  38    -0.773068015341E+03    0.87293E-04   -0.46021E-04 13956   0.410E-02    0.255E-01
DAV:  39    -0.773067760397E+03    0.25494E-03   -0.49789E-04 15276   0.364E-02    0.174E-01
DAV:  40    -0.773067489767E+03    0.27063E-03   -0.97731E-04 15264   0.460E-02    0.156E-01
DAV:  41    -0.773067635945E+03   -0.14618E-03   -0.12124E-04 12204   0.247E-02    0.152E-01
DAV:  42    -0.773067661608E+03   -0.25664E-04   -0.59631E-06  8688   0.539E-03    0.148E-01
DAV:  43    -0.773067679360E+03   -0.17751E-04   -0.31134E-06  6672   0.343E-03    0.145E-01
DAV:  44    -0.773067760480E+03   -0.81120E-04   -0.11506E-04 13560   0.221E-02    0.122E-01
DAV:  45    -0.773067786876E+03   -0.26396E-04   -0.35330E-05 11880   0.102E-02    0.123E-01
DAV:  46    -0.773067791499E+03   -0.46236E-05   -0.63797E-06  7800   0.527E-03
   1 F= -.77306779E+03 E0= -.77304416E+03  d E =-.773068E+03  mag=     1.4908
       N       E                     dE             d eps       ncg     rms          rms(c)
DAV:   1    -0.773153555879E+03   -0.85769E-01   -0.78764E-03 11784   0.102E-01    0.202E-01
DAV:   2    -0.773154733481E+03   -0.11776E-02   -0.42002E-03 15804   0.101E-01    0.787E-01
DAV:   3    -0.773153518245E+03    0.12152E-02   -0.10017E-03 14220   0.837E-02    0.361E-01
DAV:   4    -0.773153940251E+03   -0.42201E-03   -0.19404E-03 14328   0.625E-02    0.472E-01
DAV:   5    -0.773153920954E+03    0.19297E-04   -0.52931E-04 14364   0.497E-02    0.376E-01
DAV:   6    -0.773154002121E+03   -0.81167E-04   -0.93743E-04 13872   0.475E-02    0.281E-01
DAV:   7    -0.773154181662E+03   -0.17954E-03   -0.25780E-04 13260   0.242E-02    0.305E-01
DAV:   8    -0.773154186003E+03   -0.43411E-05   -0.26748E-05 10548   0.111E-02
   2 F= -.77315419E+03 E0= -.77313151E+03  d E =-.863945E-01  mag=     1.5364
       N       E                     dE             d eps       ncg     rms          rms(c)
DAV:   1    -0.774896204902E+03   -0.17420E+01   -0.33658E+00 11520   0.212E+00    0.382E+00
DAV:   2    -0.774981104267E+03   -0.84899E-01   -0.30303E+00 16992   0.197E+00    0.536E+00
DAV:   3    -0.775013789985E+03   -0.32686E-01   -0.13038E+00 15888   0.123E+00    0.387E+00
DAV:   4    -0.774935981684E+03    0.77808E-01   -0.11389E-01 15420   0.798E-01    0.264E+00
DAV:   5    -0.774919496113E+03    0.16486E-01   -0.48868E-02 14040   0.407E-01    0.227E+00
DAV:   6    -0.774914059214E+03    0.54369E-02   -0.26658E-02 14232   0.259E-01    0.230E+00
DAV:   7    -0.774914946565E+03   -0.88735E-03   -0.40520E-03 12588   0.131E-01    0.246E+00
DAV:   8    -0.774909035621E+03    0.59109E-02   -0.13117E-02 17028   0.192E-01    0.197E+00
DAV:   9    -0.774907551772E+03    0.14838E-02   -0.72854E-02 16344   0.767E-01    0.373E+00
DAV:  10    -0.774892385857E+03    0.15166E-01   -0.24028E-01 13464   0.378E-01    0.804E-01
DAV:  11    -0.774895439394E+03   -0.30535E-02   -0.55426E-03 12372   0.150E-01    0.578E-01
DAV:  12    -0.774897820042E+03   -0.23806E-02   -0.83712E-03 14640   0.973E-02    0.796E-01
DAV:  13    -0.774898780755E+03   -0.96071E-03   -0.40435E-03 14928   0.163E-01    0.736E-01
DAV:  14    -0.774897034735E+03    0.17460E-02   -0.55989E-03 14280   0.114E-01    0.156E-01
DAV:  15    -0.774897628929E+03   -0.59419E-03   -0.62092E-04 12996   0.516E-02    0.270E-01
DAV:  16    -0.774897485787E+03    0.14314E-03   -0.22818E-04 14244   0.275E-02    0.201E-01
DAV:  17    -0.774897480405E+03    0.53820E-05   -0.74002E-05 11748   0.157E-02
   3 F= -.77489748E+03 E0= -.77487850E+03  d E =-.174329E+01  mag=     1.9909
       N       E                     dE             d eps       ncg     rms          rms(c)
DAV:   1    -0.780236509933E+03   -0.53390E+01   -0.38242E+01 11520   0.747E+00    0.658E+00
DAV:   2    -0.780270302087E+03   -0.33792E-01   -0.88817E+00 16920   0.362E+00    0.711E+00
DAV:   3    -0.780350201726E+03   -0.79900E-01   -0.67891E-01 14424   0.153E+00    0.366E+00
DAV:   4    -0.780246609759E+03    0.10359E+00   -0.33430E-01 13944   0.100E+00    0.323E+00
DAV:   5    -0.780201604055E+03    0.45006E-01   -0.17769E-01 14436   0.700E-01    0.216E+00
DAV:   6    -0.780180620577E+03    0.20983E-01   -0.64982E-02 14976   0.603E-01    0.129E+00
DAV:   7    -0.780174551789E+03    0.60688E-02   -0.38049E-02 14052   0.395E-01    0.639E-01
DAV:   8    -0.780171251676E+03    0.33001E-02   -0.17477E-02 14352   0.280E-01    0.804E-01
DAV:   9    -0.780169755676E+03    0.14960E-02   -0.90461E-03 14784   0.201E-01    0.479E-01
DAV:  10    -0.780169991856E+03   -0.23618E-03   -0.48296E-03 13704   0.138E-01    0.319E-01
DAV:  11    -0.780169708782E+03    0.28307E-03   -0.15200E-03 13572   0.841E-02    0.114E-01
DAV:  12    -0.780169741686E+03   -0.32904E-04   -0.53046E-04 14004   0.456E-02    0.114E-01
DAV:  13    -0.780169722052E+03    0.19634E-04   -0.21824E-04 14364   0.291E-02    0.544E-02
DAV:  14    -0.780169722912E+03   -0.85968E-06   -0.20939E-04 13260   0.217E-02    0.582E-02
DAV:  15    -0.780169717588E+03    0.53233E-05   -0.17231E-04 11424   0.171E-02    0.513E-02
DAV:  16    -0.780169713879E+03    0.37092E-05   -0.70257E-05  8964   0.110E-02
   4 F= -.78016971E+03 E0= -.78015065E+03  d E =-.527223E+01  mag=     1.9999
       N       E                     dE             d eps       ncg     rms          rms(c)
DAV:   1    -0.785314744799E+03   -0.51450E+01   -0.78411E+01 11520   0.115E+01    0.645E+00
DAV:   2    -0.785437079102E+03   -0.12233E+00   -0.10752E+01 15720   0.401E+00    0.708E+00
DAV:   3    -0.785457163701E+03   -0.20085E-01   -0.14063E+00 14724   0.174E+00    0.435E+00
DAV:   4    -0.785376408980E+03    0.80755E-01   -0.25229E-01 14436   0.985E-01    0.268E+00
DAV:   5    -0.785328546571E+03    0.47862E-01   -0.13755E-01 14280   0.771E-01    0.255E+00
DAV:   6    -0.785294003266E+03    0.34543E-01   -0.95884E-02 14064   0.633E-01    0.135E+00
DAV:   7    -0.785284620988E+03    0.93823E-02   -0.36589E-02 14136   0.425E-01    0.966E-01
DAV:   8    -0.785278703003E+03    0.59180E-02   -0.12030E-02 13956   0.296E-01    0.614E-01
DAV:   9    -0.785278784332E+03   -0.81329E-04   -0.44321E-02 15384   0.304E-01    0.142E+00
DAV:  10    -0.785274545823E+03    0.42385E-02   -0.18565E-02 13620   0.215E-01    0.628E-01
DAV:  11    -0.785274704824E+03   -0.15900E-03   -0.11606E-02 13704   0.150E-01    0.405E-01
DAV:  12    -0.785274841245E+03   -0.13642E-03   -0.48209E-03 12564   0.111E-01    0.213E-01
DAV:  13    -0.785274923681E+03   -0.82435E-04   -0.23952E-03 14076   0.656E-02    0.249E-01
DAV:  14    -0.785274696841E+03    0.22684E-03   -0.62421E-04 14316   0.479E-02    0.101E-01
DAV:  15    -0.785274693706E+03    0.31346E-05   -0.33823E-04 13716   0.296E-02    0.615E-02
DAV:  16    -0.785274696728E+03   -0.30215E-05   -0.72571E-05 12300   0.156E-02
   5 F= -.78527470E+03 E0= -.78525555E+03  d E =-.510498E+01  mag=     1.9997
       N       E                     dE             d eps       ncg     rms          rms(c)
DAV:   1    -0.787140449970E+03   -0.18658E+01   -0.33383E+01 11520   0.857E+00    0.518E+00
DAV:   2    -0.787240505304E+03   -0.10006E+00   -0.71930E+00 16560   0.343E+00    0.623E+00
DAV:   3    -0.787238984109E+03    0.15212E-02   -0.11885E+00 15408   0.157E+00    0.394E+00
DAV:   4    -0.787180138007E+03    0.58846E-01   -0.19471E-01 14328   0.843E-01    0.237E+00
DAV:   5    -0.787156610704E+03    0.23527E-01   -0.84603E-02 14256   0.569E-01    0.221E+00
DAV:   6    -0.787125293210E+03    0.31317E-01   -0.45543E-02 14136   0.545E-01    0.136E+00
DAV:   7    -0.787117070332E+03    0.82229E-02   -0.35286E-02 14148   0.364E-01    0.804E-01
DAV:   8    -0.787114100866E+03    0.29695E-02   -0.63204E-03 14172   0.212E-01    0.659E-01
DAV:   9    -0.787111596036E+03    0.25048E-02   -0.12434E-02 15036   0.191E-01    0.504E-01
DAV:  10    -0.787111631299E+03   -0.35263E-04   -0.39921E-03 14544   0.159E-01    0.655E-01
DAV:  11    -0.787110555718E+03    0.10756E-02   -0.96732E-03 14220   0.117E-01    0.302E-01
DAV:  12    -0.787110723546E+03   -0.16783E-03   -0.34463E-03 13440   0.968E-02    0.184E-01
DAV:  13    -0.787110669312E+03    0.54234E-04   -0.11205E-03 13344   0.525E-02    0.156E-01
DAV:  14    -0.787110595970E+03    0.73342E-04   -0.26148E-04 13992   0.298E-02    0.496E-02
DAV:  15    -0.787110606409E+03   -0.10438E-04   -0.85963E-05 13356   0.172E-02    0.536E-02
DAV:  16    -0.787110603602E+03    0.28069E-05   -0.97191E-05 10704   0.147E-02
   6 F= -.78711060E+03 E0= -.78709133E+03  d E =-.183591E+01  mag=     1.9996
       N       E                     dE             d eps       ncg     rms          rms(c)
DAV:   1    -0.788205034120E+03   -0.10944E+01   -0.29336E+01 11520   0.813E+00    0.500E+00
DAV:   2    -0.788314696770E+03   -0.10966E+00   -0.67239E+00 16572   0.339E+00    0.638E+00
DAV:   3    -0.788341970946E+03   -0.27274E-01   -0.25325E+00 15660   0.169E+00    0.464E+00
DAV:   4    -0.788253613676E+03    0.88357E-01   -0.25416E-01 14268   0.897E-01    0.304E+00
DAV:   5    -0.788233040539E+03    0.20573E-01   -0.98877E-02 14160   0.542E-01    0.243E+00
DAV:   6    -0.788216614171E+03    0.16426E-01   -0.14533E-01 16176   0.614E-01    0.314E+00
DAV:   7    -0.788193156613E+03    0.23458E-01   -0.42598E-02 13176   0.404E-01    0.196E+00
DAV:   8    -0.788178716464E+03    0.14440E-01   -0.95386E-02 15912   0.436E-01    0.968E-01
DAV:   9    -0.788180888098E+03   -0.21716E-02   -0.12282E-02 12936   0.229E-01    0.937E-01
DAV:  10    -0.788176966197E+03    0.39219E-02   -0.10454E-02 15996   0.204E-01    0.236E-01
DAV:  11    -0.788177626346E+03   -0.66015E-03   -0.57021E-03 13740   0.133E-01    0.434E-01
DAV:  12    -0.788177024605E+03    0.60174E-03   -0.31489E-03 14124   0.908E-02    0.143E-01
DAV:  13    -0.788177059306E+03   -0.34701E-04   -0.52728E-04 12948   0.405E-02    0.950E-02
DAV:  14    -0.788177048076E+03    0.11230E-04   -0.37426E-04 14364   0.289E-02    0.930E-02
DAV:  15    -0.788177033922E+03    0.14153E-04   -0.80786E-05 12996   0.191E-02    0.410E-02
DAV:  16    -0.788177034098E+03   -0.17545E-06   -0.46229E-05 11304   0.117E-02
   7 F= -.78817703E+03 E0= -.78815750E+03  d E =-.106643E+01  mag=     1.9994
       N       E                     dE             d eps       ncg     rms          rms(c)
DAV:   1    -0.788883079104E+03   -0.70605E+00   -0.39507E+01 11520   0.990E+00    0.372E+00
DAV:   2    -0.789011059601E+03   -0.12798E+00   -0.33836E+00 14508   0.268E+00    0.552E+00
DAV:   3    -0.789040416295E+03   -0.29357E-01   -0.33226E+00 16080   0.150E+00    0.429E+00
DAV:   4    -0.788962902219E+03    0.77514E-01   -0.22373E-01 14460   0.867E-01    0.274E+00
DAV:   5    -0.788940506463E+03    0.22396E-01   -0.99111E-02 14340   0.560E-01    0.215E+00
DAV:   6    -0.788923179273E+03    0.17327E-01   -0.69992E-02 15780   0.634E-01    0.225E+00
DAV:   7    -0.788928790250E+03   -0.56110E-02   -0.33978E-02 13248   0.334E-01    0.239E+00
DAV:   8    -0.788912944147E+03    0.15846E-01   -0.99471E-02 16308   0.432E-01    0.714E-01
DAV:   9    -0.788918197645E+03   -0.52535E-02   -0.45799E-02 13596   0.355E-01    0.142E+00
DAV:  10    -0.788915883712E+03    0.23139E-02   -0.87318E-03 14856   0.230E-01    0.734E-01
DAV:  11    -0.788915417621E+03    0.46609E-03   -0.13595E-02 13812   0.193E-01    0.280E-01
DAV:  12    -0.788915600958E+03   -0.18334E-03   -0.28189E-03 13236   0.932E-02    0.217E-01
DAV:  13    -0.788915562616E+03    0.38342E-04   -0.58344E-04 14208   0.508E-02    0.111E-01
DAV:  14    -0.788915563856E+03   -0.12400E-05   -0.34916E-04 13356   0.323E-02    0.784E-02
DAV:  15    -0.788915561123E+03    0.27333E-05   -0.75446E-05 12600   0.177E-02
   8 F= -.78891556E+03 E0= -.78889558E+03  d E =-.738527E+00  mag=     1.9979
       N       E                     dE             d eps       ncg     rms          rms(c)
DAV:   1    -0.789346317895E+03   -0.43075E+00   -0.50855E+01 11520   0.120E+01    0.388E+00
DAV:   2    -0.789482212620E+03   -0.13589E+00   -0.32837E+00 14412   0.286E+00    0.646E+00
DAV:   3    -0.789499928752E+03   -0.17716E-01   -0.35511E+00 16236   0.165E+00    0.408E+00
DAV:   4    -0.789430409814E+03    0.69519E-01   -0.21456E-01 14460   0.959E-01    0.264E+00
DAV:   5    -0.789412598131E+03    0.17812E-01   -0.11208E-01 14364   0.584E-01    0.207E+00
DAV:   6    -0.789395483144E+03    0.17115E-01   -0.64103E-02 16572   0.623E-01    0.165E+00
DAV:   7    -0.789401939059E+03   -0.64559E-02   -0.23426E-02 13524   0.301E-01    0.142E+00
DAV:   8    -0.789401282678E+03    0.65638E-03   -0.19363E-02 13932   0.273E-01    0.996E-01
DAV:   9    -0.789394472484E+03    0.68102E-02   -0.24612E-02 14484   0.378E-01    0.686E-01
DAV:  10    -0.789396101816E+03   -0.16293E-02   -0.14161E-02 13740   0.211E-01    0.933E-01
DAV:  11    -0.789397079224E+03   -0.97741E-03   -0.47896E-03 13788   0.108E-01    0.696E-01
DAV:  12    -0.789398996785E+03   -0.19176E-02   -0.51328E-03 14988   0.187E-01    0.221E-01
DAV:  13    -0.789399279219E+03   -0.28243E-03   -0.24615E-03 13596   0.865E-02    0.172E-01
DAV:  14    -0.789399279204E+03    0.15334E-07   -0.63350E-04 14292   0.469E-02    0.121E-01
DAV:  15    -0.789399269820E+03    0.93833E-05   -0.17846E-04 13692   0.291E-02    0.501E-02
DAV:  16    -0.789399270968E+03   -0.11478E-05   -0.49681E-05 13080   0.124E-02
   9 F= -.78939927E+03 E0= -.78937946E+03  d E =-.483710E+00  mag=     1.9970
       N       E                     dE             d eps       ncg     rms          rms(c)
DAV:   1    -0.788532641654E+03    0.86663E+00   -0.21747E+02 12048   0.244E+01    0.765E+00
DAV:   2    -0.789172545885E+03   -0.63990E+00   -0.72389E+00 13968   0.372E+00    0.393E+00
DAV:   3    -0.789140497963E+03    0.32048E-01   -0.11337E+00 15756   0.183E+00    0.457E+00
DAV:   4    -0.789093217142E+03    0.47281E-01   -0.33474E-01 15528   0.105E+00    0.227E+00
DAV:   5    -0.789078080400E+03    0.15137E-01   -0.10345E-01 14700   0.688E-01    0.165E+00
DAV:   6    -0.789082057007E+03   -0.39766E-02   -0.87725E-02 14184   0.595E-01    0.236E+00
DAV:   7    -0.789073787709E+03    0.82693E-02   -0.78878E-02 14712   0.460E-01    0.153E+00
DAV:   8    -0.789068368452E+03    0.54193E-02   -0.33284E-02 14328   0.325E-01    0.346E-01
DAV:   9    -0.789071437789E+03   -0.30693E-02   -0.87102E-03 13428   0.169E-01    0.604E-01
DAV:  10    -0.789070165881E+03    0.12719E-02   -0.43274E-03 14892   0.139E-01    0.182E-01
DAV:  11    -0.789070477578E+03   -0.31170E-03   -0.20831E-03 13716   0.724E-02    0.272E-01
DAV:  12    -0.789070265864E+03    0.21171E-03   -0.67647E-04 13632   0.454E-02    0.762E-02
DAV:  13    -0.789070324404E+03   -0.58540E-04   -0.31286E-04 13704   0.292E-02    0.933E-02
DAV:  14    -0.789070310270E+03    0.14134E-04   -0.12948E-04 12924   0.206E-02    0.375E-02
DAV:  15    -0.789070312721E+03   -0.24504E-05   -0.26422E-05  8556   0.989E-03
  10 F= -.78907031E+03 E0= -.78904977E+03  d E =0.328958E+00  mag=     1.9984
       N       E                     dE             d eps       ncg     rms          rms(c)
DAV:   1    -0.789277477307E+03   -0.20717E+00   -0.11612E+02 11784   0.171E+01    0.960E+00
DAV:   2    -0.789804548385E+03   -0.52707E+00   -0.93956E+00 14688   0.409E+00    0.729E+00
DAV:   3    -0.789719446810E+03    0.85102E-01   -0.27135E+00 15636   0.235E+00    0.587E+00
DAV:   4    -0.789582758543E+03    0.13669E+00   -0.87682E-01 14556   0.156E+00    0.349E+00
DAV:   5    -0.789567733731E+03    0.15025E-01   -0.20066E-01 14424   0.101E+00    0.352E+00
DAV:   6    -0.789555076038E+03    0.12658E-01   -0.15582E-01 15636   0.622E-01    0.223E+00
DAV:   7    -0.789574065853E+03   -0.18990E-01   -0.21140E-01 16008   0.793E-01    0.282E+00
DAV:   8    -0.789554852896E+03    0.19213E-01   -0.14833E-01 15084   0.720E-01    0.227E+00
DAV:   9    -0.789542585130E+03    0.12268E-01   -0.53582E-02 15444   0.487E-01    0.148E+00
DAV:  10    -0.789543146477E+03   -0.56135E-03   -0.42205E-02 13896   0.280E-01    0.115E+00
DAV:  11    -0.789541110883E+03    0.20356E-02   -0.11979E-02 14652   0.194E-01    0.337E-01
DAV:  12    -0.789541800826E+03   -0.68994E-03   -0.43061E-03 13860   0.109E-01    0.350E-01
DAV:  13    -0.789541612741E+03    0.18808E-03   -0.12998E-03 13272   0.584E-02    0.974E-02
DAV:  14    -0.789541709857E+03   -0.97116E-04   -0.48765E-04 13632   0.395E-02    0.121E-01
DAV:  15    -0.789541685624E+03    0.24234E-04   -0.46499E-04 14076   0.290E-02    0.851E-02
DAV:  16    -0.789541687794E+03   -0.21705E-05   -0.13624E-04 13044   0.216E-02    0.504E-02
DAV:  17    -0.789541684313E+03    0.34817E-05   -0.31981E-05  9084   0.120E-02
  11 F= -.78954168E+03 E0= -.78952128E+03  d E =-.471372E+00  mag=     1.9993
       N       E                     dE             d eps       ncg     rms          rms(c)
DAV:   1    -0.789691088308E+03   -0.14940E+00   -0.98228E+00 11616   0.504E+00    0.273E+00
DAV:   2    -0.789743555323E+03   -0.52467E-01   -0.64061E-01 14652   0.144E+00    0.447E+00
DAV:   3    -0.789712928732E+03    0.30627E-01   -0.11308E+00 16968   0.964E-01    0.171E+00
DAV:   4    -0.789705956998E+03    0.69717E-02   -0.28954E-02 13428   0.385E-01    0.105E+00
DAV:   5    -0.789700603641E+03    0.53534E-02   -0.21032E-02 14100   0.274E-01    0.559E-01
DAV:   6    -0.789703973067E+03   -0.33694E-02   -0.16584E-02 14340   0.216E-01    0.115E+00
DAV:   7    -0.789704914929E+03   -0.94186E-03   -0.46551E-03 14040   0.140E-01    0.128E+00
DAV:   8    -0.789699407851E+03    0.55071E-02   -0.17198E-02 15432   0.176E-01    0.322E-01
DAV:   9    -0.789700622931E+03   -0.12151E-02   -0.44359E-03 13548   0.101E-01    0.250E-01
DAV:  10    -0.789701039805E+03   -0.41687E-03   -0.50652E-04 14184   0.619E-02    0.142E-01
DAV:  11    -0.789701172498E+03   -0.13269E-03   -0.11543E-03 14088   0.598E-02    0.210E-01
DAV:  12    -0.789701067495E+03    0.10500E-03   -0.83691E-04 14016   0.407E-02    0.102E-01
DAV:  13    -0.789701076088E+03   -0.85929E-05   -0.12083E-04 12144   0.196E-02    0.567E-02
DAV:  14    -0.789701071477E+03    0.46108E-05   -0.70226E-05 11100   0.143E-02
  12 F= -.78970107E+03 E0= -.78968100E+03  d E =-.159387E+00  mag=     1.9982
       N       E                     dE             d eps       ncg     rms          rms(c)
DAV:   1    -0.789735078420E+03   -0.34002E-01   -0.12814E+00 11544   0.187E+00    0.803E-01
DAV:   2    -0.789739269143E+03   -0.41907E-02   -0.49349E-02 14340   0.365E-01    0.924E-01
DAV:   3    -0.789737620005E+03    0.16491E-02   -0.20002E-02 16344   0.249E-01    0.556E-01
DAV:   4    -0.789737658934E+03   -0.38928E-04   -0.38247E-03 14724   0.139E-01    0.393E-01
DAV:   5    -0.789737308931E+03    0.35000E-03   -0.13379E-03 14904   0.899E-02    0.171E-01
DAV:   6    -0.789737305444E+03    0.34865E-05   -0.75361E-04 14124   0.591E-02    0.113E-01
DAV:   7    -0.789737312350E+03   -0.69057E-05   -0.19904E-04 14268   0.338E-02    0.808E-02
DAV:   8    -0.789737297226E+03    0.15124E-04   -0.11803E-04 14100   0.201E-02    0.373E-02
DAV:   9    -0.789737301433E+03   -0.42075E-05   -0.44624E-05 11220   0.117E-02
  13 F= -.78973730E+03 E0= -.78971754E+03  d E =-.362300E-01  mag=     1.9995
       N       E                     dE             d eps       ncg     rms          rms(c)
DAV:   1    -0.789771181887E+03   -0.33885E-01   -0.68665E+00 11520   0.444E+00    0.166E+00
DAV:   2    -0.789787249879E+03   -0.16068E-01   -0.20289E-01 14136   0.676E-01    0.122E+00
DAV:   3    -0.789786729487E+03    0.52039E-03   -0.94844E-02 16188   0.497E-01    0.160E+00
DAV:   4    -0.789782765719E+03    0.39638E-02   -0.18679E-02 15624   0.300E-01    0.614E-01
DAV:   5    -0.789782595451E+03    0.17027E-03   -0.57887E-03 14436   0.161E-01    0.294E-01
DAV:   6    -0.789782765923E+03   -0.17047E-03   -0.27488E-03 13932   0.112E-01    0.251E-01
DAV:   7    -0.789782702614E+03    0.63309E-04   -0.71637E-04 14400   0.655E-02    0.100E-01
DAV:   8    -0.789782703838E+03   -0.12242E-05   -0.31904E-04 13848   0.360E-02    0.768E-02
DAV:   9    -0.789782701793E+03    0.20447E-05   -0.10615E-04 13332   0.208E-02    0.491E-02
DAV:  10    -0.789782703717E+03   -0.19239E-05   -0.64706E-05 11172   0.138E-02
  14 F= -.78978270E+03 E0= -.78976332E+03  d E =-.454023E-01  mag=     1.9996
       N       E                     dE             d eps       ncg     rms          rms(c)
DAV:   1    -0.789821118476E+03   -0.38417E-01   -0.95813E+00 11520   0.536E+00    0.125E+00
DAV:   2    -0.789842588145E+03   -0.21470E-01   -0.31256E-01 13716   0.905E-01    0.213E+00
DAV:   3    -0.789835658664E+03    0.69295E-02   -0.64119E-02 15444   0.455E-01    0.565E-01
DAV:   4    -0.789836870421E+03   -0.12118E-02   -0.15353E-02 13956   0.234E-01    0.748E-01
DAV:   5    -0.789835418865E+03    0.14516E-02   -0.74055E-03 14772   0.150E-01    0.229E-01
DAV:   6    -0.789835788776E+03   -0.36991E-03   -0.38028E-03 13908   0.974E-02    0.366E-01
DAV:   7    -0.789835494760E+03    0.29402E-03   -0.12252E-03 14724   0.735E-02    0.167E-01
DAV:   8    -0.789835509608E+03   -0.14848E-04   -0.83097E-04 14040   0.430E-02    0.118E-01
DAV:   9    -0.789835520759E+03   -0.11151E-04   -0.80438E-05 13212   0.234E-02    0.792E-02
DAV:  10    -0.789835509613E+03    0.11146E-04   -0.17064E-04 13092   0.160E-02    0.482E-02
DAV:  11    -0.789835511297E+03   -0.16838E-05   -0.48158E-05  9552   0.117E-02
  15 F= -.78983551E+03 E0= -.78981638E+03  d E =-.528076E-01  mag=     1.9996
       N       E                     dE             d eps       ncg     rms          rms(c)
DAV:   1    -0.788285333177E+03    0.15502E+01   -0.26170E+02 11520   0.268E+01    0.136E+01
DAV:   2    -0.791904263841E+03   -0.36189E+01   -0.77493E+01 15936   0.830E+00    0.121E+01
DAV:   3    -0.790178108221E+03    0.17262E+01   -0.21310E+01 16272   0.471E+00    0.101E+01
DAV:   4    -0.789557812233E+03    0.62030E+00   -0.10453E+01 14364   0.255E+00    0.792E+00
DAV:   5    -0.789167772020E+03    0.39004E+00   -0.42328E+00 14940   0.192E+00    0.784E+00
DAV:   6    -0.788963371013E+03    0.20440E+00   -0.24322E+00 15360   0.112E+00    0.469E+00
DAV:   7    -0.788837235137E+03    0.12614E+00   -0.82588E-01 16776   0.130E+00    0.445E+00
DAV:   8    -0.788659789507E+03    0.17745E+00   -0.45836E-01 16464   0.124E+00    0.265E+00
DAV:   9    -0.788757334411E+03   -0.97545E-01   -0.45374E-01 14508   0.921E-01    0.356E+00
DAV:  10    -0.788767556825E+03   -0.10222E-01   -0.97145E-02 13908   0.619E-01    0.358E+00
DAV:  11    -0.788694360551E+03    0.73196E-01   -0.27049E-01 16476   0.104E+00    0.305E+00
DAV:  12    -0.788711225409E+03   -0.16865E-01   -0.19693E-01 14136   0.573E-01    0.352E+00
DAV:  13    -0.788700360746E+03    0.10865E-01   -0.39813E-02 15024   0.513E-01    0.256E+00
DAV:  14    -0.788702419450E+03   -0.20587E-02   -0.70514E-02 14364   0.472E-01    0.269E+00
DAV:  15    -0.788710876944E+03   -0.84575E-02   -0.21568E-02 12936   0.241E-01    0.248E+00
DAV:  16    -0.788711429237E+03   -0.55229E-03   -0.38474E-03 13224   0.137E-01    0.222E+00
DAV:  17    -0.788716925434E+03   -0.54962E-02   -0.21275E-03 14244   0.744E-02    0.239E+00
DAV:  18    -0.788714872806E+03    0.20526E-02   -0.16097E-03 15228   0.993E-02    0.285E+00
DAV:  19    -0.788714798583E+03    0.74223E-04   -0.10638E-02 15912   0.228E-01    0.237E+00
DAV:  20    -0.788720030776E+03   -0.52322E-02   -0.51137E-02 15972   0.655E-01    0.182E+00
DAV:  21    -0.788737672315E+03   -0.17642E-01   -0.56676E-02 14220   0.505E-01    0.213E+00
DAV:  22    -0.788733994550E+03    0.36778E-02   -0.20049E-02 14388   0.279E-01    0.108E+00
DAV:  23    -0.788735401759E+03   -0.14072E-02   -0.10941E-02 14292   0.186E-01    0.470E-01
DAV:  24    -0.788737316445E+03   -0.19147E-02   -0.28159E-03 13656   0.134E-01    0.542E-01
DAV:  25    -0.788737804224E+03   -0.48778E-03   -0.19563E-03 14112   0.100E-01    0.578E-01
DAV:  26    -0.788738255515E+03   -0.45129E-03   -0.22591E-03 14352   0.762E-02    0.395E-01
DAV:  27    -0.788739162880E+03   -0.90736E-03   -0.16226E-03 15120   0.888E-02    0.564E-01
DAV:  28    -0.788738913255E+03    0.24962E-03   -0.17744E-03 14112   0.871E-02    0.474E-01
DAV:  29    -0.788739007380E+03   -0.94125E-04   -0.19202E-03 15204   0.716E-02    0.217E-01
DAV:  30    -0.788739228722E+03   -0.22134E-03   -0.48290E-04 12912   0.495E-02    0.121E-01
DAV:  31    -0.788739254160E+03   -0.25438E-04   -0.15743E-04 14148   0.256E-02    0.606E-02
DAV:  32    -0.788739264728E+03   -0.10568E-04   -0.44515E-05 11724   0.141E-02    0.405E-02
DAV:  33    -0.788739270524E+03   -0.57959E-05   -0.13611E-05  8412   0.761E-03
  16 F= -.78873927E+03 E0= -.78871856E+03  d E =0.109624E+01  mag=    -0.1183
       N       E                     dE             d eps       ncg     rms          rms(c)
DAV:   1    -0.789511520197E+03   -0.77226E+00   -0.72817E+01 11520   0.132E+01    0.753E+00
DAV:   2    -0.789929117863E+03   -0.41760E+00   -0.37118E+00 13812   0.319E+00    0.891E+00
DAV:   3    -0.789949420666E+03   -0.20303E-01   -0.12150E+01 17412   0.221E+00    0.506E+00
DAV:   4    -0.789834987038E+03    0.11443E+00   -0.41106E-01 15012   0.135E+00    0.435E+00
DAV:   5    -0.789776768635E+03    0.58218E-01   -0.53387E-01 15744   0.900E-01    0.357E+00
DAV:   6    -0.789694980002E+03    0.81789E-01   -0.10092E-01 16176   0.970E-01    0.291E+00
DAV:   7    -0.789826914208E+03   -0.13193E+00   -0.82430E-01 14604   0.958E-01    0.653E+00
DAV:   8    -0.789689849785E+03    0.13706E+00   -0.13707E+00 14976   0.759E-01    0.249E+00
DAV:   9    -0.789714015389E+03   -0.24166E-01   -0.23501E-02 12372   0.272E-01    0.259E+00
DAV:  10    -0.789714837645E+03   -0.82226E-03   -0.70297E-04 14352   0.568E-02    0.257E+00
DAV:  11    -0.789723752495E+03   -0.89148E-02   -0.46223E-03 14844   0.954E-02    0.270E+00
DAV:  12    -0.789724711117E+03   -0.95862E-03   -0.28266E-03 15192   0.117E-01    0.252E+00
DAV:  13    -0.789699438492E+03    0.25273E-01   -0.44677E-02 15456   0.516E-01    0.160E+00
DAV:  14    -0.789689378741E+03    0.10060E-01   -0.36807E-02 13980   0.349E-01    0.165E+00
DAV:  15    -0.789694279340E+03   -0.49006E-02   -0.25392E-02 13320   0.228E-01    0.919E-01
DAV:  16    -0.789700291525E+03   -0.60122E-02   -0.72538E-03 13008   0.172E-01    0.737E-01
DAV:  17    -0.789704257827E+03   -0.39663E-02   -0.91495E-03 13704   0.151E-01    0.509E-01
DAV:  18    -0.789705663596E+03   -0.14058E-02   -0.42400E-03 15300   0.158E-01    0.180E-01
DAV:  19    -0.789705945647E+03   -0.28205E-03   -0.13750E-03 13692   0.761E-02    0.114E-01
DAV:  20    -0.789706065239E+03   -0.11959E-03   -0.18036E-04 12708   0.331E-02    0.106E-01
DAV:  21    -0.789705969478E+03    0.95761E-04   -0.14088E-04 14352   0.272E-02    0.938E-02
DAV:  22    -0.789706001518E+03   -0.32040E-04   -0.18252E-04 13560   0.234E-02    0.925E-02
DAV:  23    -0.789706023770E+03   -0.22253E-04   -0.55398E-05 13764   0.198E-02    0.468E-02
DAV:  24    -0.789706015945E+03    0.78252E-05   -0.60399E-05 13752   0.191E-02
  17 F= -.78970602E+03 E0= -.78968558E+03  d E =-.966745E+00  mag=    -0.1711
       N       E                     dE             d eps       ncg     rms          rms(c)
DAV:   1    -0.789844712200E+03   -0.13869E+00   -0.40376E+00 11520   0.306E+00    0.201E+00
DAV:   2    -0.789897429350E+03   -0.52717E-01   -0.37665E-01 15624   0.125E+00    0.474E+00
DAV:   3    -0.789838019672E+03    0.59410E-01   -0.91123E-01 16968   0.891E-01    0.121E+00
DAV:   4    -0.789843743708E+03   -0.57240E-02   -0.44027E-02 13560   0.392E-01    0.105E+00
DAV:   5    -0.789843149391E+03    0.59432E-03   -0.16876E-02 15036   0.230E-01    0.809E-01
DAV:   6    -0.789845539162E+03   -0.23898E-02   -0.46575E-03 12432   0.113E-01    0.108E+00
DAV:   7    -0.789844907615E+03    0.63155E-03   -0.66469E-04 12912   0.616E-02    0.105E+00
DAV:   8    -0.789842611792E+03    0.22958E-02   -0.81676E-03 17784   0.182E-01    0.429E-01
DAV:   9    -0.789843754488E+03   -0.11427E-02   -0.35470E-03 12552   0.966E-02    0.451E-01
DAV:  10    -0.789843569341E+03    0.18515E-03   -0.17480E-03 14028   0.746E-02    0.244E-01
DAV:  11    -0.789843570220E+03   -0.87852E-06   -0.11209E-03 13608   0.575E-02    0.143E-01
DAV:  12    -0.789843584370E+03   -0.14150E-04   -0.48520E-04 13320   0.354E-02    0.105E-01
DAV:  13    -0.789843569063E+03    0.15307E-04   -0.11412E-04 10980   0.186E-02    0.429E-02
DAV:  14    -0.789843570115E+03   -0.10520E-05   -0.14701E-05  8952   0.972E-03
  18 F= -.78984357E+03 E0= -.78982320E+03  d E =-.137554E+00  mag=    -0.1850
       N       E                     dE             d eps       ncg     rms          rms(c)
DAV:   1    -0.790013972162E+03   -0.17040E+00   -0.35646E+01 11520   0.929E+00    0.548E+00
DAV:   2    -0.790272136097E+03   -0.25816E+00   -0.13978E+00 14820   0.246E+00    0.860E+00
DAV:   3    -0.790107176594E+03    0.16496E+00   -0.88056E+00 17112   0.190E+00    0.356E+00
DAV:   4    -0.790089234216E+03    0.17942E-01   -0.36656E-01 15252   0.126E+00    0.408E+00
DAV:   5    -0.790040990323E+03    0.48244E-01   -0.21495E-01 16068   0.807E-01    0.271E+00
DAV:   6    -0.790021542041E+03    0.19448E-01   -0.10137E-01 13824   0.407E-01    0.207E+00
DAV:   7    -0.789993308031E+03    0.28234E-01   -0.21677E-02 15672   0.402E-01    0.127E+00
DAV:   8    -0.789994118865E+03   -0.81083E-03   -0.19504E-02 13980   0.217E-01    0.103E+00
DAV:   9    -0.789990694860E+03    0.34240E-02   -0.29778E-03 12756   0.114E-01    0.101E+00
DAV:  10    -0.789985783724E+03    0.49111E-02   -0.50283E-03 14556   0.110E-01    0.706E-01
DAV:  11    -0.789985268419E+03    0.51531E-03   -0.90135E-03 14112   0.125E-01    0.550E-01
DAV:  12    -0.789986169170E+03   -0.90075E-03   -0.24822E-03 12996   0.115E-01    0.529E-01
DAV:  13    -0.789991600797E+03   -0.54316E-02   -0.73878E-02 15576   0.178E-01    0.178E+00
DAV:  14    -0.789982607563E+03    0.89932E-02   -0.57854E-02 12156   0.186E-01    0.306E-01
DAV:  15    -0.789985208210E+03   -0.26006E-02   -0.20282E-03 12288   0.982E-02    0.191E-01
DAV:  16    -0.789985208329E+03   -0.11827E-06   -0.62530E-04 13800   0.374E-02    0.661E-02
DAV:  17    -0.789985248226E+03   -0.39898E-04   -0.11423E-04 12744   0.186E-02    0.498E-02
DAV:  18    -0.789985248583E+03   -0.35651E-06   -0.74183E-05 10212   0.116E-02
  19 F= -.78998525E+03 E0= -.78995989E+03  d E =-.141678E+00  mag=    -0.7431
       N       E                     dE             d eps       ncg     rms          rms(c)
DAV:   1    -0.790003243886E+03   -0.17996E-01   -0.69839E-01 11544   0.139E+00    0.638E-01
DAV:   2    -0.790011252291E+03   -0.80084E-02   -0.61130E-02 14496   0.344E-01    0.132E+00
DAV:   3    -0.790004823436E+03    0.64289E-02   -0.39881E-02 16260   0.258E-01    0.734E-01
DAV:   4    -0.790004625704E+03    0.19773E-03   -0.15761E-02 15420   0.172E-01    0.364E-01
DAV:   5    -0.790005083736E+03   -0.45803E-03   -0.54011E-03 14736   0.957E-02    0.436E-01
DAV:   6    -0.790005214632E+03   -0.13090E-03   -0.34767E-04 12216   0.378E-02    0.484E-01
DAV:   7    -0.790004021073E+03    0.11936E-02   -0.29271E-03 13692   0.631E-02    0.290E-01
DAV:   8    -0.790004050092E+03   -0.29019E-04   -0.96842E-04 14232   0.549E-02    0.174E-01
DAV:   9    -0.790004158916E+03   -0.10882E-03   -0.84059E-04 13452   0.400E-02    0.134E-01
DAV:  10    -0.790004176190E+03   -0.17274E-04   -0.29975E-04 12708   0.279E-02    0.939E-02
DAV:  11    -0.790004163140E+03    0.13050E-04   -0.22223E-04 13320   0.216E-02    0.474E-02
DAV:  12    -0.790004167401E+03   -0.42609E-05   -0.29213E-05  9168   0.103E-02
  20 F= -.79000417E+03 E0= -.78997869E+03  d E =-.189188E-01  mag=    -0.7506
       N       E                     dE             d eps       ncg     rms          rms(c)
DAV:   1    -0.790020257353E+03   -0.16094E-01   -0.13763E+00 11520   0.201E+00    0.633E-01
DAV:   2    -0.790029331630E+03   -0.90743E-02   -0.75150E-02 13932   0.376E-01    0.131E+00
DAV:   3    -0.790023372837E+03    0.59588E-02   -0.58173E-02 16368   0.257E-01    0.855E-01
DAV:   4    -0.790023597352E+03   -0.22452E-03   -0.11482E-02 14892   0.157E-01    0.691E-01
DAV:   5    -0.790024459640E+03   -0.86229E-03   -0.18303E-03 13344   0.716E-02    0.877E-01
DAV:   6    -0.790022150404E+03    0.23092E-02   -0.30403E-03 12528   0.700E-02    0.579E-01
DAV:   7    -0.790021514619E+03    0.63578E-03   -0.46044E-03 13476   0.639E-02    0.142E-01
DAV:   8    -0.790022350810E+03   -0.83619E-03   -0.73633E-04 12048   0.665E-02    0.113E-01
DAV:   9    -0.790022400687E+03   -0.49877E-04   -0.25140E-04 13176   0.366E-02    0.793E-02
DAV:  10    -0.790022380602E+03    0.20086E-04   -0.11737E-04 13644   0.213E-02    0.325E-02
DAV:  11    -0.790022382227E+03   -0.16258E-05   -0.31829E-05 10824   0.110E-02
  21 F= -.79002238E+03 E0= -.78999690E+03  d E =-.182148E-01  mag=    -0.7549
       N       E                     dE             d eps       ncg     rms          rms(c)
DAV:   1    -0.790046370279E+03   -0.23990E-01   -0.24635E+00 11520   0.269E+00    0.431E-01
DAV:   2    -0.790054115234E+03   -0.77450E-02   -0.71967E-02 13836   0.412E-01    0.119E+00
DAV:   3    -0.790050420780E+03    0.36945E-02   -0.30731E-02 15408   0.192E-01    0.541E-01
DAV:   4    -0.790051014136E+03   -0.59336E-03   -0.90103E-03 13800   0.122E-01    0.428E-01
DAV:   5    -0.790051647561E+03   -0.63343E-03   -0.35929E-03 13656   0.691E-02    0.644E-01
DAV:   6    -0.790050569995E+03    0.10776E-02   -0.10729E-03 12012   0.634E-02    0.551E-01
DAV:   7    -0.790049579475E+03    0.99052E-03   -0.40555E-03 13284   0.412E-02    0.127E-01
DAV:   8    -0.790050338778E+03   -0.75930E-03   -0.17070E-03 12228   0.654E-02    0.251E-01
DAV:   9    -0.790050271083E+03    0.67695E-04   -0.35736E-04 12780   0.377E-02    0.135E-01
DAV:  10    -0.790050245519E+03    0.25564E-04   -0.46811E-04 13944   0.270E-02    0.732E-02
DAV:  11    -0.790050262587E+03   -0.17068E-04   -0.85152E-05 12084   0.166E-02    0.403E-02
DAV:  12    -0.790050260240E+03    0.23471E-05   -0.15963E-05  7608   0.783E-03
  22 F= -.79005026E+03 E0= -.79002490E+03  d E =-.278780E-01  mag=    -0.7587
       N       E                     dE             d eps       ncg     rms          rms(c)
DAV:   1    -0.789039154786E+03    0.10111E+01   -0.12811E+02 11592   0.190E+01    0.944E+00
DAV:   2    -0.790204850336E+03   -0.11657E+01   -0.22065E+01 15312   0.474E+00    0.682E+00
DAV:   3    -0.789526657125E+03    0.67819E+00   -0.17172E+00 16536   0.273E+00    0.503E+00
DAV:   4    -0.789364163534E+03    0.16249E+00   -0.19252E+00 14376   0.183E+00    0.339E+00
DAV:   5    -0.789423147149E+03   -0.58984E-01   -0.43311E-01 14508   0.148E+00    0.767E+00
DAV:   6    -0.789388755468E+03    0.34392E-01   -0.73779E+00 17592   0.143E+00    0.303E+00
DAV:   7    -0.789374686835E+03    0.14069E-01   -0.12425E-01 13164   0.608E-01    0.263E+00
DAV:   8    -0.789340860727E+03    0.33826E-01   -0.20171E-02 15564   0.426E-01    0.218E+00
DAV:   9    -0.789319684818E+03    0.21176E-01   -0.41975E-02 15012   0.408E-01    0.250E+00
DAV:  10    -0.789277622109E+03    0.42063E-01   -0.36122E-02 16032   0.473E-01    0.142E+00
DAV:  11    -0.789275409941E+03    0.22122E-02   -0.19451E-02 13740   0.231E-01    0.869E-01
DAV:  12    -0.789281128347E+03   -0.57184E-02   -0.34213E-03 13140   0.115E-01    0.897E-01
DAV:  13    -0.789282611624E+03   -0.14833E-02   -0.55398E-03 14952   0.879E-02    0.725E-01
DAV:  14    -0.789278511390E+03    0.41002E-02   -0.21990E-02 12948   0.121E-01    0.953E-01
DAV:  15    -0.789273499248E+03    0.50121E-02   -0.76459E-03 14352   0.130E-01    0.611E-01
DAV:  16    -0.789273527117E+03   -0.27870E-04   -0.15255E-02 14688   0.130E-01    0.612E-01
DAV:  17    -0.789274350795E+03   -0.82368E-03   -0.19280E-02 13464   0.110E-01    0.486E-01
DAV:  18    -0.789274012387E+03    0.33841E-03   -0.12629E-02 13380   0.873E-02    0.463E-01
DAV:  19    -0.789273613096E+03    0.39929E-03   -0.57431E-03 13872   0.723E-02    0.187E-01
DAV:  20    -0.789273475949E+03    0.13715E-03   -0.21950E-03 13692   0.512E-02    0.927E-02
DAV:  21    -0.789273557849E+03   -0.81900E-04   -0.13885E-04 12240   0.245E-02    0.925E-02
DAV:  22    -0.789273559986E+03   -0.21369E-05   -0.16851E-04 13188   0.180E-02    0.677E-02
DAV:  23    -0.789273551327E+03    0.86582E-05   -0.20360E-04 12540   0.142E-02    0.612E-02
DAV:  24    -0.789273550467E+03    0.86059E-06   -0.76061E-05 10020   0.115E-02
  23 F= -.78927355E+03 E0= -.78925078E+03  d E =0.776710E+00  mag=    -0.7550
       N       E                     dE             d eps       ncg     rms          rms(c)
DAV:   1    -0.789855576797E+03   -0.58203E+00   -0.13125E+02 12276   0.171E+01    0.139E+01
DAV:   2    -0.792779942161E+03   -0.29244E+01   -0.66372E+01 16620   0.733E+00    0.113E+01
DAV:   3    -0.791404936676E+03    0.13750E+01   -0.21782E+01 16032   0.452E+00    0.999E+00
DAV:   4    -0.790801245328E+03    0.60369E+00   -0.96303E+00 14460   0.246E+00    0.798E+00
DAV:   5    -0.790419435867E+03    0.38181E+00   -0.29792E+00 14844   0.180E+00    0.835E+00
DAV:   6    -0.790220606036E+03    0.19883E+00   -0.19941E+00 14640   0.980E-01    0.535E+00
DAV:   7    -0.790127221718E+03    0.93384E-01   -0.73181E-01 17280   0.123E+00    0.568E+00
DAV:   8    -0.790015283918E+03    0.11194E+00   -0.19038E+00 15996   0.143E+00    0.462E+00
DAV:   9    -0.790068963244E+03   -0.53679E-01   -0.21497E+00 17748   0.108E+00    0.458E+00
DAV:  10    -0.790113668762E+03   -0.44706E-01   -0.20704E+00 17556   0.124E+00    0.558E+00
DAV:  11    -0.789985590247E+03    0.12808E+00   -0.11511E+00 16104   0.100E+00    0.462E+00
DAV:  12    -0.789966641126E+03    0.18949E-01   -0.28607E-01 13920   0.556E-01    0.369E+00
DAV:  13    -0.789988488384E+03   -0.21847E-01   -0.14722E-02 12360   0.235E-01    0.417E+00
DAV:  14    -0.789958233715E+03    0.30255E-01   -0.32146E-01 14580   0.527E-01    0.407E+00
DAV:  15    -0.789933981239E+03    0.24252E-01   -0.16841E-01 12264   0.454E-01    0.218E+00
DAV:  16    -0.789954606563E+03   -0.20625E-01   -0.26533E-02 13452   0.198E-01    0.264E+00
DAV:  17    -0.789955728671E+03   -0.11221E-02   -0.26213E-02 13152   0.160E-01    0.328E+00
DAV:  18    -0.789952408011E+03    0.33207E-02   -0.89245E-03 11988   0.120E-01    0.307E+00
DAV:  19    -0.789953947379E+03   -0.15394E-02   -0.28326E-03 12912   0.748E-02    0.298E+00
DAV:  20    -0.789924505579E+03    0.29442E-01   -0.21494E-01 15204   0.398E-01    0.253E+00
DAV:  21    -0.789956585448E+03   -0.32080E-01   -0.80734E-02 12696   0.278E-01    0.408E+00
DAV:  22    -0.789920119463E+03    0.36466E-01   -0.75987E-02 12504   0.301E-01    0.211E+00
DAV:  23    -0.789941279867E+03   -0.21160E-01   -0.34492E-02 12828   0.200E-01    0.303E+00
DAV:  24    -0.789938106979E+03    0.31729E-02   -0.47429E-02 13980   0.190E-01    0.236E+00
DAV:  25    -0.789939483419E+03   -0.13764E-02   -0.26115E-03 11844   0.121E-01    0.236E+00
DAV:  26    -0.789940368910E+03   -0.88549E-03   -0.56023E-03 14184   0.813E-02    0.262E+00
DAV:  27    -0.789930861408E+03    0.95075E-02   -0.13007E-02 15684   0.178E-01    0.199E+00
DAV:  28    -0.789914065710E+03    0.16796E-01   -0.90960E-02 14688   0.320E-01    0.170E+00
DAV:  29    -0.789919193990E+03   -0.51283E-02   -0.84355E-03 11724   0.204E-01    0.135E+00
DAV:  30    -0.789921461207E+03   -0.22672E-02   -0.29707E-03 13692   0.791E-02    0.147E+00
DAV:  31    -0.789917046314E+03    0.44149E-02   -0.25437E-02 14100   0.173E-01    0.121E+00
DAV:  32    -0.789918012014E+03   -0.96570E-03   -0.29726E-03 11976   0.108E-01    0.128E+00
DAV:  33    -0.789917422171E+03    0.58984E-03   -0.14321E-03 13956   0.394E-02    0.127E+00
DAV:  34    -0.789917676077E+03   -0.25391E-03   -0.33451E-04 12864   0.280E-02    0.129E+00
DAV:  35    -0.789917340398E+03    0.33568E-03   -0.14802E-04 13764   0.160E-02    0.126E+00
DAV:  36    -0.789916966772E+03    0.37363E-03   -0.44788E-03 15528   0.598E-02    0.112E+00
DAV:  37    -0.789919515843E+03   -0.25491E-02   -0.49749E-03 13140   0.807E-02    0.133E+00
DAV:  38    -0.789918025580E+03    0.14903E-02   -0.38053E-03 14196   0.820E-02    0.131E+00
DAV:  39    -0.789916101152E+03    0.19244E-02   -0.10029E-02 14364   0.102E-01    0.122E+00
DAV:  40    -0.789914702008E+03    0.13991E-02   -0.18026E-03 12756   0.506E-02    0.102E+00
DAV:  41    -0.789914786206E+03   -0.84198E-04   -0.91450E-04 14256   0.347E-02    0.982E-01
DAV:  42    -0.789913873473E+03    0.91273E-03   -0.63435E-04 15324   0.556E-02    0.104E+00
DAV:  43    -0.789909557792E+03    0.43157E-02   -0.34111E-03 15264   0.101E-01    0.928E-01
DAV:  44    -0.789911034683E+03   -0.14769E-02   -0.45156E-04 12240   0.484E-02    0.910E-01
DAV:  45    -0.789910841020E+03    0.19366E-03   -0.14899E-05  9948   0.835E-03    0.909E-01
DAV:  46    -0.789911294387E+03   -0.45337E-03   -0.10298E-04 12384   0.168E-02    0.921E-01
DAV:  47    -0.789913885211E+03   -0.25908E-02   -0.27664E-03 15720   0.109E-01    0.842E-01
DAV:  48    -0.789917267847E+03   -0.33826E-02   -0.46159E-03 14280   0.127E-01    0.794E-01
DAV:  49    -0.789918446568E+03   -0.11787E-02   -0.13099E-03 14004   0.780E-02    0.735E-01
DAV:  50    -0.789919226284E+03   -0.77972E-03   -0.21188E-03 15084   0.795E-02    0.676E-01
DAV:  51    -0.789919048078E+03    0.17821E-03   -0.37089E-03 14124   0.751E-02    0.526E-01
DAV:  52    -0.789919033131E+03    0.14947E-04   -0.24492E-03 13752   0.494E-02    0.390E-01
DAV:  53    -0.789919337400E+03   -0.30427E-03   -0.66229E-04 13764   0.394E-02    0.477E-01
DAV:  54    -0.789919358854E+03   -0.21454E-04   -0.10991E-04 12300   0.224E-02    0.487E-01
DAV:  55    -0.789919103249E+03    0.25560E-03   -0.64266E-05 10656   0.136E-02    0.457E-01
DAV:  56    -0.789917972091E+03    0.11312E-02   -0.78131E-03 14172   0.716E-02    0.319E-01
DAV:  57    -0.789918959924E+03   -0.98783E-03   -0.13057E-03 13500   0.754E-02    0.316E-01
DAV:  58    -0.789918928603E+03    0.31321E-04   -0.13732E-03 14088   0.538E-02    0.228E-01
DAV:  59    -0.789919036763E+03   -0.10816E-03   -0.80117E-04 14484   0.444E-02    0.173E-01
DAV:  60    -0.789919096599E+03   -0.59837E-04   -0.34823E-04 13296   0.269E-02    0.162E-01
DAV:  61    -0.789919090408E+03    0.61917E-05   -0.14963E-04 12180   0.201E-02    0.145E-01
DAV:  62    -0.789919143374E+03   -0.52966E-04   -0.20931E-04 13440   0.184E-02    0.165E-01
DAV:  63    -0.789919062897E+03    0.80477E-04   -0.14280E-04 11664   0.131E-02    0.119E-01
DAV:  64    -0.789919056207E+03    0.66900E-05   -0.28550E-05 11160   0.954E-03
  24 F= -.78991906E+03 E0= -.78988742E+03  d E =-.645506E+00  mag=    -0.1920
       N       E                     dE             d eps       ncg     rms          rms(c)
DAV:   1    -0.790046943255E+03   -0.12788E+00   -0.27328E+00 11520   0.247E+00    0.191E+00
DAV:   2    -0.790463754350E+03   -0.41681E+00   -0.18455E+00 16992   0.147E+00    0.857E+00
DAV:   3    -0.790016642027E+03    0.44711E+00   -0.26977E+00 16536   0.102E+00    0.171E+00
DAV:   4    -0.790056938920E+03   -0.40297E-01   -0.61297E-02 12996   0.411E-01    0.125E+00
DAV:   5    -0.790068263474E+03   -0.11325E-01   -0.16468E-02 13680   0.177E-01    0.181E+00
DAV:   6    -0.790063666253E+03    0.45972E-02   -0.10053E-02 12732   0.154E-01    0.200E+00
DAV:   7    -0.790059213738E+03    0.44525E-02   -0.22080E-01 14628   0.259E-01    0.202E+00
DAV:   8    -0.790054850819E+03    0.43629E-02   -0.41759E-02 12024   0.286E-01    0.233E+00
DAV:   9    -0.790035017498E+03    0.19833E-01   -0.71590E-02 14616   0.209E-01    0.106E+00
DAV:  10    -0.790042546715E+03   -0.75292E-02   -0.86532E-02 13380   0.200E-01    0.192E+00
DAV:  11    -0.790041524516E+03    0.10222E-02   -0.18104E-01 12492   0.307E-01    0.121E+00
DAV:  12    -0.790044636972E+03   -0.31125E-02   -0.30512E-02 11988   0.189E-01    0.139E+00
DAV:  13    -0.790043835664E+03    0.80131E-03   -0.10515E-03 12060   0.726E-02    0.140E+00
DAV:  14    -0.790042721895E+03    0.11138E-02   -0.71899E-04 13920   0.278E-02    0.132E+00
DAV:  15    -0.790040063713E+03    0.26582E-02   -0.73100E-03 14832   0.105E-01    0.109E+00
DAV:  16    -0.790039553156E+03    0.51056E-03   -0.23279E-02 13608   0.130E-01    0.828E-01
DAV:  17    -0.790040789911E+03   -0.12368E-02   -0.38634E-02 14112   0.152E-01    0.959E-01
DAV:  18    -0.790038264247E+03    0.25257E-02   -0.16870E-02 12540   0.911E-02    0.286E-01
DAV:  19    -0.790039396845E+03   -0.11326E-02   -0.21866E-03 11940   0.604E-02    0.310E-01
DAV:  20    -0.790039269513E+03    0.12733E-03   -0.24636E-04 13380   0.271E-02    0.247E-01
DAV:  21    -0.790039133653E+03    0.13586E-03   -0.60574E-04 13992   0.289E-02    0.134E-01
DAV:  22    -0.790039137754E+03   -0.41002E-05   -0.16844E-04 13392   0.218E-02    0.919E-02
DAV:  23    -0.790039147096E+03   -0.93423E-05   -0.56152E-05 12444   0.128E-02
  25 F= -.79003915E+03 E0= -.79000755E+03  d E =-.120091E+00  mag=    -0.2363
       N       E                     dE             d eps       ncg     rms          rms(c)
DAV:   1    -0.790125810471E+03   -0.86673E-01   -0.30597E+01 11520   0.831E+00    0.498E+00
DAV:   2    -0.790545296572E+03   -0.41949E+00   -0.16401E+00 14868   0.233E+00    0.837E+00
DAV:   3    -0.790217487299E+03    0.32781E+00   -0.68885E+00 17232   0.165E+00    0.356E+00
DAV:   4    -0.790285969318E+03   -0.68482E-01   -0.17426E+00 15864   0.132E+00    0.525E+00
DAV:   5    -0.790175568751E+03    0.11040E+00   -0.15435E+00 16740   0.101E+00    0.305E+00
DAV:   6    -0.790169800409E+03    0.57683E-02   -0.18067E-01 14580   0.544E-01    0.334E+00
DAV:   7    -0.790173649304E+03   -0.38489E-02   -0.13512E-02 12348   0.229E-01    0.348E+00
DAV:   8    -0.790177951729E+03   -0.43024E-02   -0.32904E-03 14088   0.128E-01    0.346E+00
DAV:   9    -0.790150468313E+03    0.27483E-01   -0.38793E-02 14424   0.285E-01    0.308E+00
DAV:  10    -0.790147776301E+03    0.26920E-02   -0.98287E-02 14292   0.354E-01    0.304E+00
DAV:  11    -0.790135597225E+03    0.12179E-01   -0.18283E-01 14124   0.423E-01    0.226E+00
DAV:  12    -0.790140926157E+03   -0.53289E-02   -0.85675E-03 12156   0.207E-01    0.241E+00
DAV:  13    -0.790139866807E+03    0.10593E-02   -0.34561E-04 13848   0.465E-02    0.241E+00
DAV:  14    -0.790138439460E+03    0.14273E-02   -0.79536E-05 12912   0.142E-02    0.236E+00
DAV:  15    -0.790121221408E+03    0.17218E-01   -0.50335E-02 14580   0.179E-01    0.147E+00
DAV:  16    -0.790131539036E+03   -0.10318E-01   -0.27742E-02 12420   0.195E-01    0.191E+00
DAV:  17    -0.790128165102E+03    0.33739E-02   -0.12039E-02 12168   0.149E-01    0.170E+00
DAV:  18    -0.790129981894E+03   -0.18168E-02   -0.37430E-03 13308   0.106E-01    0.175E+00
DAV:  19    -0.790120540306E+03    0.94416E-02   -0.30184E-02 15768   0.330E-01    0.136E+00
DAV:  20    -0.790112879970E+03    0.76603E-02   -0.10503E-01 13884   0.351E-01    0.115E+00
DAV:  21    -0.790116829556E+03   -0.39496E-02   -0.25841E-02 11976   0.236E-01    0.108E+00
DAV:  22    -0.790122295318E+03   -0.54658E-02   -0.77029E-03 14928   0.215E-01    0.971E-01
DAV:  23    -0.790122146241E+03    0.14908E-03   -0.18756E-02 14076   0.190E-01    0.468E-01
DAV:  24    -0.790123177396E+03   -0.10312E-02   -0.60258E-03 13500   0.131E-01    0.244E-01
DAV:  25    -0.790124311340E+03   -0.11339E-02   -0.19310E-03 13128   0.796E-02    0.376E-01
DAV:  26    -0.790124199838E+03    0.11150E-03   -0.28571E-04 14496   0.441E-02    0.356E-01
DAV:  27    -0.790123889739E+03    0.31010E-03   -0.83631E-04 13788   0.394E-02    0.235E-01
DAV:  28    -0.790123932724E+03   -0.42985E-04   -0.26026E-04 13236   0.288E-02    0.214E-01
DAV:  29    -0.790123869398E+03    0.63326E-04   -0.16799E-04 12876   0.170E-02    0.148E-01
DAV:  30    -0.790123885210E+03   -0.15812E-04   -0.88699E-05 13248   0.172E-02    0.121E-01
DAV:  31    -0.790123858986E+03    0.26224E-04   -0.11537E-04 12156   0.127E-02    0.720E-02
DAV:  32    -0.790123874660E+03   -0.15674E-04   -0.14219E-05  8172   0.848E-03    0.589E-02
DAV:  33    -0.790123867929E+03    0.67307E-05   -0.14910E-05  7488   0.710E-03
  26 F= -.79012387E+03 E0= -.79009208E+03  d E =-.847208E-01  mag=    -0.0691
       N       E                     dE             d eps       ncg     rms          rms(c)
DAV:   1    -0.790178992096E+03   -0.55117E-01   -0.38874E+00 11784   0.298E+00    0.326E+00
DAV:   2    -0.790685454962E+03   -0.50646E+00   -0.68451E+00 18216   0.252E+00    0.745E+00
DAV:   3    -0.790457930779E+03    0.22752E+00   -0.58925E+00 16740   0.155E+00    0.602E+00
DAV:   4    -0.790259806943E+03    0.19812E+00   -0.14875E+00 15600   0.121E+00    0.416E+00
DAV:   5    -0.790197943316E+03    0.61864E-01   -0.17413E-01 14184   0.738E-01    0.226E+00
DAV:   6    -0.790184444457E+03    0.13499E-01   -0.37168E-02 14340   0.450E-01    0.237E+00
DAV:   7    -0.790184840079E+03   -0.39562E-03   -0.11195E-02 12564   0.195E-01    0.229E+00
DAV:   8    -0.790178069191E+03    0.67709E-02   -0.82464E-03 13464   0.104E-01    0.218E+00
DAV:   9    -0.790164478301E+03    0.13591E-01   -0.53121E-02 16452   0.332E-01    0.122E+00
DAV:  10    -0.790176496516E+03   -0.12018E-01   -0.14919E-01 14364   0.373E-01    0.230E+00
DAV:  11    -0.790174687257E+03    0.18093E-02   -0.18668E-02 13176   0.249E-01    0.204E+00
DAV:  12    -0.790169842578E+03    0.48447E-02   -0.50621E-03 12120   0.111E-01    0.188E+00
DAV:  13    -0.790174389281E+03   -0.45467E-02   -0.95690E-03 15492   0.113E-01    0.237E+00
DAV:  14    -0.790168302607E+03    0.60867E-02   -0.27633E-01 18216   0.403E-01    0.144E+00
DAV:  15    -0.790168397714E+03   -0.95107E-04   -0.22617E-02 12600   0.250E-01    0.948E-01
DAV:  16    -0.790168046654E+03    0.35106E-03   -0.28506E-03 13104   0.109E-01    0.925E-01
DAV:  17    -0.790165426718E+03    0.26199E-02   -0.69518E-03 16824   0.125E-01    0.378E-01
DAV:  18    -0.790166149817E+03   -0.72310E-03   -0.23383E-03 12948   0.815E-02    0.246E-01
DAV:  19    -0.790166363865E+03   -0.21405E-03   -0.11547E-03 13752   0.492E-02    0.195E-01
DAV:  20    -0.790166408142E+03   -0.44277E-04   -0.62704E-04 13284   0.355E-02    0.568E-02
DAV:  21    -0.790166462986E+03   -0.54844E-04   -0.61829E-05 12744   0.184E-02    0.363E-02
DAV:  22    -0.790166460264E+03    0.27221E-05   -0.41977E-05 10668   0.104E-02
  27 F= -.79016646E+03 E0= -.79013468E+03  d E =-.425923E-01  mag=    -0.0558
       N       E                     dE             d eps       ncg     rms          rms(c)
DAV:   1    -0.790171437784E+03   -0.49748E-02   -0.10747E-01 11544   0.577E-01    0.191E-01
DAV:   2    -0.790175240890E+03   -0.38031E-02   -0.25067E-02 14628   0.146E-01    0.123E+00
DAV:   3    -0.790170432166E+03    0.48087E-02   -0.26924E-02 15072   0.120E-01    0.249E-01
DAV:   4    -0.790171723083E+03   -0.12909E-02   -0.28034E-03 12336   0.637E-02    0.213E-01
DAV:   5    -0.790171783541E+03   -0.60459E-04   -0.17588E-03 14232   0.404E-02    0.263E-01
DAV:   6    -0.790171641728E+03    0.14181E-03   -0.13539E-04 12060   0.256E-02    0.229E-01
DAV:   7    -0.790171449268E+03    0.19246E-03   -0.87688E-04 13692   0.269E-02    0.821E-02
DAV:   8    -0.790171591972E+03   -0.14270E-03   -0.87330E-05 11772   0.204E-02    0.101E-01
DAV:   9    -0.790171561729E+03    0.30243E-04   -0.86403E-05  9180   0.106E-02    0.595E-02
DAV:  10    -0.790171562490E+03   -0.76035E-06   -0.98062E-05 10248   0.128E-02
  28 F= -.79017156E+03 E0= -.79013979E+03  d E =-.510223E-02  mag=    -0.0547
       N       E                     dE             d eps       ncg     rms          rms(c)
DAV:   1    -0.790194094103E+03   -0.22532E-01   -0.30969E+00 11520   0.309E+00    0.767E-01
DAV:   2    -0.790283902416E+03   -0.89808E-01   -0.63757E-01 14232   0.715E-01    0.490E+00
DAV:   3    -0.790189458281E+03    0.94444E-01   -0.51533E-01 15240   0.491E-01    0.152E+00
DAV:   4    -0.790197135759E+03   -0.76775E-02   -0.42972E-02 13188   0.272E-01    0.470E-01
DAV:   5    -0.790199182551E+03   -0.20468E-02   -0.70720E-03 13260   0.163E-01    0.497E-01
DAV:   6    -0.790199802902E+03   -0.62035E-03   -0.14147E-03 12792   0.589E-02    0.653E-01
DAV:   7    -0.790197333434E+03    0.24695E-02   -0.61104E-03 12312   0.833E-02    0.233E-01
DAV:   8    -0.790197977816E+03   -0.64438E-03   -0.15296E-03 12648   0.749E-02    0.173E-01
DAV:   9    -0.790198214023E+03   -0.23621E-03   -0.88139E-04 13284   0.420E-02    0.212E-01
DAV:  10    -0.790198366212E+03   -0.15219E-03   -0.20901E-04 12036   0.234E-02    0.286E-01
DAV:  11    -0.790198060139E+03    0.30607E-03   -0.92066E-04 13296   0.310E-02    0.194E-01
DAV:  12    -0.790198051107E+03    0.90322E-05   -0.57923E-04 13404   0.273E-02    0.721E-02
DAV:  13    -0.790198126933E+03   -0.75826E-04   -0.22081E-04 12324   0.232E-02    0.643E-02
DAV:  14    -0.790198124572E+03    0.23613E-05   -0.91093E-05  9528   0.138E-02
  29 F= -.79019812E+03 E0= -.79016628E+03  d E =-.265621E-01  mag=    -0.0403
       N       E                     dE             d eps       ncg     rms          rms(c)
DAV:   1    -0.790240429118E+03   -0.42302E-01   -0.15070E+01 11520   0.676E+00    0.221E+00
DAV:   2    -0.790843287793E+03   -0.60286E+00   -0.46141E+00 15960   0.226E+00    0.821E+00
DAV:   3    -0.790309017223E+03    0.53427E+00   -0.22732E+00 16452   0.121E+00    0.365E+00
DAV:   4    -0.790260846685E+03    0.48171E-01   -0.29785E-01 14724   0.737E-01    0.180E+00
DAV:   5    -0.790258400384E+03    0.24463E-02   -0.38645E-02 13896   0.369E-01    0.145E+00
DAV:   6    -0.790262271750E+03   -0.38714E-02   -0.46877E-03 12552   0.125E-01    0.162E+00
DAV:   7    -0.790251835676E+03    0.10436E-01   -0.38349E-02 14100   0.204E-01    0.106E+00
DAV:   8    -0.790259023736E+03   -0.71881E-02   -0.47155E-02 12984   0.170E-01    0.181E+00
DAV:   9    -0.790257698328E+03    0.13254E-02   -0.22616E-03 12048   0.122E-01    0.187E+00
DAV:  10    -0.790250041633E+03    0.76567E-02   -0.15122E-02 14808   0.147E-01    0.129E+00
DAV:  11    -0.790248959405E+03    0.10822E-02   -0.30794E-02 13680   0.147E-01    0.387E-01
DAV:  12    -0.790251838874E+03   -0.28795E-02   -0.84723E-03 12228   0.134E-01    0.408E-01
DAV:  13    -0.790251733473E+03    0.10540E-03   -0.86580E-03 14256   0.982E-02    0.274E-01
DAV:  14    -0.790251619619E+03    0.11385E-03   -0.15840E-03 13584   0.658E-02    0.168E-01
DAV:  15    -0.790251590819E+03    0.28800E-04   -0.77852E-04 13896   0.395E-02    0.110E-01
DAV:  16    -0.790251597469E+03   -0.66499E-05   -0.16154E-04 13068   0.247E-02    0.678E-02
DAV:  17    -0.790251601452E+03   -0.39825E-05   -0.71776E-05 13008   0.148E-02
  30 F= -.79025160E+03 E0= -.79021959E+03  d E =-.534769E-01  mag=    -0.0176
       N       E                     dE             d eps       ncg     rms          rms(c)
DAV:   1    -0.789889629294E+03    0.36197E+00   -0.57187E+01 11520   0.136E+01    0.682E+00
DAV:   2    -0.791013007481E+03   -0.11234E+01   -0.22013E+01 17580   0.494E+00    0.791E+00
DAV:   3    -0.790489491394E+03    0.52352E+00   -0.87451E+00 16908   0.265E+00    0.631E+00
DAV:   4    -0.790127470282E+03    0.36202E+00   -0.19628E+00 15240   0.182E+00    0.572E+00
DAV:   5    -0.789983980658E+03    0.14349E+00   -0.36960E-01 14364   0.102E+00    0.327E+00
DAV:   6    -0.789947500522E+03    0.36480E-01   -0.50392E-01 15684   0.986E-01    0.283E+00
DAV:   7    -0.789979815830E+03   -0.32315E-01   -0.32371E-01 15132   0.926E-01    0.343E+00
DAV:   8    -0.789937685434E+03    0.42130E-01   -0.58352E-01 15744   0.786E-01    0.203E+00
DAV:   9    -0.789952704782E+03   -0.15019E-01   -0.42329E-02 13728   0.373E-01    0.170E+00
DAV:  10    -0.789958502813E+03   -0.57980E-02   -0.17134E-02 13968   0.216E-01    0.149E+00
DAV:  11    -0.789965731730E+03   -0.72289E-02   -0.67074E-03 13356   0.130E-01    0.163E+00
DAV:  12    -0.789940897089E+03    0.24835E-01   -0.27039E-02 14796   0.348E-01    0.203E+00
DAV:  13    -0.789964309067E+03   -0.23412E-01   -0.14656E-01 15912   0.954E-01    0.138E+00
DAV:  14    -0.789967211565E+03   -0.29025E-02   -0.49292E-02 13236   0.351E-01    0.119E+00
DAV:  15    -0.789973051252E+03   -0.58397E-02   -0.98117E-03 14424   0.229E-01    0.994E-01
DAV:  16    -0.789974007877E+03   -0.95662E-03   -0.26691E-03 12648   0.991E-02    0.964E-01
DAV:  17    -0.789973951833E+03    0.56044E-04   -0.11547E-03 14700   0.839E-02    0.787E-01
DAV:  18    -0.789973141966E+03    0.80987E-03   -0.76171E-03 15120   0.223E-01    0.563E-01
DAV:  19    -0.789973157356E+03   -0.15390E-04   -0.10132E-02 15276   0.169E-01    0.516E-01
DAV:  20    -0.789974228695E+03   -0.10713E-02   -0.19585E-03 13092   0.941E-02    0.489E-01
DAV:  21    -0.789974209703E+03    0.18992E-04   -0.14075E-03 14076   0.788E-02    0.323E-01
DAV:  22    -0.789974359403E+03   -0.14970E-03   -0.10305E-03 14976   0.686E-02    0.217E-01
DAV:  23    -0.789974408127E+03   -0.48724E-04   -0.55600E-04 14688   0.495E-02    0.103E-01
DAV:  24    -0.789974486680E+03   -0.78552E-04   -0.18088E-04 13920   0.317E-02    0.643E-02
DAV:  25    -0.789974494363E+03   -0.76833E-05   -0.11636E-04 14172   0.244E-02    0.539E-02
DAV:  26    -0.789974499621E+03   -0.52581E-05   -0.52893E-05 12432   0.139E-02
  31 F= -.78997450E+03 E0= -.78995517E+03  d E =0.277102E+00  mag=     0.2826
       N       E                     dE             d eps       ncg     rms          rms(c)
DAV:   1    -0.790394350622E+03   -0.41986E+00   -0.38589E+01 11904   0.110E+01    0.756E+00
DAV:   2    -0.790906555805E+03   -0.51221E+00   -0.47536E+00 16584   0.455E+00    0.976E+00
DAV:   3    -0.790673147778E+03    0.23341E+00   -0.11828E+01 17040   0.267E+00    0.575E+00
DAV:   4    -0.790460300713E+03    0.21285E+00   -0.22130E+00 15492   0.166E+00    0.463E+00
DAV:   5    -0.790360656756E+03    0.99644E-01   -0.16340E-01 14280   0.974E-01    0.273E+00
DAV:   6    -0.790358552620E+03    0.21041E-02   -0.23313E-01 14748   0.962E-01    0.357E+00
DAV:   7    -0.790378873696E+03   -0.20321E-01   -0.10405E-01 14544   0.617E-01    0.367E+00
DAV:   8    -0.790387057902E+03   -0.81842E-02   -0.10844E-01 13920   0.406E-01    0.365E+00
DAV:   9    -0.790366988169E+03    0.20070E-01   -0.88865E-02 15420   0.625E-01    0.232E+00
DAV:  10    -0.790368945220E+03   -0.19571E-02   -0.39258E-01 16008   0.964E-01    0.339E+00
DAV:  11    -0.790351635992E+03    0.17309E-01   -0.20782E-01 13728   0.548E-01    0.198E+00
DAV:  12    -0.790359534936E+03   -0.78989E-02   -0.16649E-02 13716   0.277E-01    0.181E+00
DAV:  13    -0.790364793448E+03   -0.52585E-02   -0.13829E-02 15108   0.275E-01    0.966E-01
DAV:  14    -0.790368216602E+03   -0.34232E-02   -0.22290E-02 14268   0.306E-01    0.544E-01
DAV:  15    -0.790369442444E+03   -0.12258E-02   -0.11999E-02 14760   0.201E-01    0.694E-01
DAV:  16    -0.790369493502E+03   -0.51058E-04   -0.48121E-03 13164   0.966E-02    0.495E-01
DAV:  17    -0.790369162269E+03    0.33123E-03   -0.40074E-03 15492   0.108E-01    0.359E-01
DAV:  18    -0.790369276449E+03   -0.11418E-03   -0.79151E-04 14724   0.766E-02    0.192E-01
DAV:  19    -0.790369285182E+03   -0.87329E-05   -0.71572E-04 14100   0.471E-02    0.444E-02
DAV:  20    -0.790369332728E+03   -0.47546E-04   -0.92491E-05 13728   0.234E-02    0.530E-02
DAV:  21    -0.790369337877E+03   -0.51499E-05   -0.24962E-05 10212   0.104E-02
  32 F= -.79036934E+03 E0= -.79034949E+03  d E =-.394838E+00  mag=     1.9960
       N       E                     dE             d eps       ncg     rms          rms(c)
DAV:   1    -0.790378714437E+03   -0.93817E-02   -0.11568E+00 11520   0.188E+00    0.957E-01
DAV:   2    -0.790384236626E+03   -0.55222E-02   -0.85407E-02 15060   0.491E-01    0.162E+00
DAV:   3    -0.790379431248E+03    0.48054E-02   -0.32318E-02 16452   0.344E-01    0.378E-01
DAV:   4    -0.790380687571E+03   -0.12563E-02   -0.53866E-03 13764   0.152E-01    0.484E-01
DAV:   5    -0.790380102490E+03    0.58508E-03   -0.52910E-03 14748   0.104E-01    0.207E-01
DAV:   6    -0.790380240031E+03   -0.13754E-03   -0.10552E-03 14328   0.553E-02    0.173E-01
DAV:   7    -0.790380182466E+03    0.57565E-04   -0.75155E-04 14184   0.399E-02    0.105E-01
DAV:   8    -0.790380177050E+03    0.54160E-05   -0.14993E-04 13560   0.215E-02    0.491E-02
DAV:   9    -0.790380183858E+03   -0.68078E-05   -0.16070E-04 12240   0.144E-02    0.590E-02
DAV:  10    -0.790380175737E+03    0.81205E-05   -0.85574E-05  8544   0.107E-02
  33 F= -.79038018E+03 E0= -.79036037E+03  d E =-.108379E-01  mag=     1.9999
       N       E                     dE             d eps       ncg     rms          rms(c)
DAV:   1    -0.790404169633E+03   -0.23986E-01   -0.74702E+00 11520   0.480E+00    0.227E+00
DAV:   2    -0.790444578405E+03   -0.40409E-01   -0.61757E-01 14952   0.119E+00    0.428E+00
DAV:   3    -0.790406272537E+03    0.38306E-01   -0.23491E-01 16380   0.784E-01    0.660E-01
DAV:   4    -0.790417637750E+03   -0.11365E-01   -0.40668E-02 13392   0.344E-01    0.149E+00
DAV:   5    -0.790411863056E+03    0.57747E-02   -0.14060E-02 14688   0.245E-01    0.573E-01
DAV:   6    -0.790411983001E+03   -0.11995E-03   -0.77596E-03 14064   0.150E-01    0.255E-01
DAV:   7    -0.790412415213E+03   -0.43221E-03   -0.16147E-03 13500   0.916E-02    0.261E-01
DAV:   8    -0.790412276618E+03    0.13859E-03   -0.10686E-03 15576   0.527E-02    0.130E-01
DAV:   9    -0.790412267705E+03    0.89126E-05   -0.29635E-04 14052   0.328E-02    0.673E-02
DAV:  10    -0.790412308247E+03   -0.40542E-04   -0.14770E-04 13572   0.173E-02    0.113E-01
DAV:  11    -0.790412275711E+03    0.32536E-04   -0.34746E-04 12768   0.207E-02    0.664E-02
DAV:  12    -0.790412276877E+03   -0.11656E-05   -0.85055E-05 11220   0.137E-02
  34 F= -.79041228E+03 E0= -.79039302E+03  d E =-.321011E-01  mag=     1.9999
       N       E                     dE             d eps       ncg     rms          rms(c)
DAV:   1    -0.790408075796E+03    0.41999E-02   -0.22955E+00 11520   0.255E+00    0.109E+00
DAV:   2    -0.790416554436E+03   -0.84786E-02   -0.95495E-02 14604   0.468E-01    0.166E+00
DAV:   3    -0.790411027966E+03    0.55265E-02   -0.59812E-02 16728   0.324E-01    0.681E-01
DAV:   4    -0.790412319580E+03   -0.12916E-02   -0.43820E-03 13680   0.134E-01    0.623E-01
DAV:   5    -0.790411196969E+03    0.11226E-02   -0.35090E-03 14556   0.992E-02    0.269E-01
DAV:   6    -0.790411551471E+03   -0.35450E-03   -0.38506E-03 14232   0.765E-02    0.336E-01
DAV:   7    -0.790411318096E+03    0.23337E-03   -0.14859E-03 13116   0.550E-02    0.833E-02
DAV:   8    -0.790411399428E+03   -0.81331E-04   -0.30074E-04 13260   0.243E-02    0.105E-01
DAV:   9    -0.790411380500E+03    0.18928E-04   -0.85819E-05 11616   0.163E-02    0.364E-02
DAV:  10    -0.790411384810E+03   -0.43110E-05   -0.25014E-05 10416   0.839E-03
  35 F= -.79041138E+03 E0= -.79039202E+03  d E =0.892066E-03  mag=     2.0000
       N       E                     dE             d eps       ncg     rms          rms(c)
DAV:   1    -0.790414409630E+03   -0.30291E-02   -0.12890E-01 11520   0.633E-01    0.290E-01
DAV:   2    -0.790415507341E+03   -0.10977E-02   -0.12729E-02 15312   0.188E-01    0.829E-01
DAV:   3    -0.790414157759E+03    0.13496E-02   -0.63840E-03 15996   0.129E-01    0.833E-02
DAV:   4    -0.790414589710E+03   -0.43195E-03   -0.99477E-04 13416   0.520E-02    0.189E-01
DAV:   5    -0.790414524657E+03    0.65053E-04   -0.43604E-04 14172   0.342E-02    0.747E-02
DAV:   6    -0.790414526006E+03   -0.13484E-05   -0.13281E-04 13524   0.189E-02    0.413E-02
DAV:   7    -0.790414529732E+03   -0.37265E-05   -0.26949E-05 10716   0.111E-02
  36 F= -.79041453E+03 E0= -.79039517E+03  d E =-.314492E-02  mag=     2.0000
       N       E                     dE             d eps       ncg     rms          rms(c)
DAV:   1    -0.790419198434E+03   -0.46724E-02   -0.21145E-01 11520   0.808E-01    0.333E-01
DAV:   2    -0.790421057539E+03   -0.18591E-02   -0.26006E-02 15624   0.253E-01    0.110E+00
DAV:   3    -0.790418666368E+03    0.23912E-02   -0.99890E-03 16068   0.172E-01    0.161E-01
DAV:   4    -0.790419301445E+03   -0.63508E-03   -0.12677E-03 13272   0.610E-02    0.950E-02
DAV:   5    -0.790419352501E+03   -0.51056E-04   -0.28267E-04 13500   0.321E-02    0.645E-02
DAV:   6    -0.790419341133E+03    0.11368E-04   -0.63263E-05 13200   0.174E-02    0.294E-02
DAV:   7    -0.790419342158E+03   -0.10254E-05   -0.51854E-05 12672   0.124E-02
  37 F= -.79041934E+03 E0= -.79040013E+03  d E =-.481243E-02  mag=     2.0000
       N       E                     dE             d eps       ncg     rms          rms(c)
DAV:   1    -0.790422725047E+03   -0.33839E-02   -0.12117E-01 11520   0.610E-01    0.224E-01
DAV:   2    -0.790423790832E+03   -0.10658E-02   -0.13265E-02 15552   0.181E-01    0.821E-01
DAV:   3    -0.790422425915E+03    0.13649E-02   -0.53027E-03 15912   0.122E-01    0.117E-01
DAV:   4    -0.790422788266E+03   -0.36235E-03   -0.61210E-04 13116   0.406E-02    0.577E-02
DAV:   5    -0.790422826632E+03   -0.38365E-04   -0.92857E-05 13128   0.196E-02    0.311E-02
DAV:   6    -0.790422824658E+03    0.19742E-05   -0.27005E-05  9096   0.103E-02
  38 F= -.79042282E+03 E0= -.79040359E+03  d E =-.348250E-02  mag=     2.0000
       N       E                     dE             d eps       ncg     rms          rms(c)
DAV:   1    -0.790428124394E+03   -0.52978E-02   -0.18216E+01 11520   0.751E+00    0.185E+00
DAV:   2    -0.790507504483E+03   -0.79380E-01   -0.11355E+00 14184   0.165E+00    0.578E+00
DAV:   3    -0.790458048214E+03    0.49456E-01   -0.13358E+00 15792   0.908E-01    0.188E+00
DAV:   4    -0.790457646406E+03    0.40181E-03   -0.43230E-02 13416   0.443E-01    0.109E+00
DAV:   5    -0.790453176409E+03    0.44700E-02   -0.15850E-02 14004   0.269E-01    0.700E-01
DAV:   6    -0.790452149759E+03    0.10266E-02   -0.22131E-02 14376   0.158E-01    0.645E-01
DAV:   7    -0.790453660665E+03   -0.15109E-02   -0.30012E-03 13188   0.941E-02    0.753E-01
DAV:   8    -0.790453386150E+03    0.27451E-03   -0.12199E-03 13716   0.761E-02    0.595E-01
DAV:   9    -0.790452071378E+03    0.13148E-02   -0.12758E-02 15204   0.192E-01    0.465E-01
DAV:  10    -0.790452685870E+03   -0.61449E-03   -0.19563E-03 12876   0.908E-02    0.300E-01
DAV:  11    -0.790452754171E+03   -0.68301E-04   -0.17884E-03 14220   0.608E-02    0.144E-01
DAV:  12    -0.790452893718E+03   -0.13955E-03   -0.11010E-03 13440   0.448E-02    0.118E-01
DAV:  13    -0.790452899970E+03   -0.62517E-05   -0.30438E-04 12972   0.246E-02    0.846E-02
DAV:  14    -0.790452893887E+03    0.60829E-05   -0.15326E-04 13044   0.168E-02    0.438E-02
DAV:  15    -0.790452893999E+03   -0.11197E-06   -0.52477E-05  8772   0.901E-03
  39 F= -.79045289E+03 E0= -.79043428E+03  d E =-.300693E-01  mag=     1.9984
       N       E                     dE             d eps       ncg     rms          rms(c)
DAV:   1    -0.790443051744E+03    0.98421E-02   -0.17173E+01 11520   0.734E+00    0.228E+00
DAV:   2    -0.790511110099E+03   -0.68058E-01   -0.13206E+00 15084   0.178E+00    0.531E+00
DAV:   3    -0.790466981442E+03    0.44129E-01   -0.73687E-01 15876   0.943E-01    0.186E+00
DAV:   4    -0.790462247303E+03    0.47341E-02   -0.50452E-02 13728   0.427E-01    0.683E-01
DAV:   5    -0.790462744272E+03   -0.49697E-03   -0.33096E-02 13992   0.279E-01    0.867E-01
DAV:   6    -0.790462082654E+03    0.66162E-03   -0.10179E-02 14364   0.183E-01    0.553E-01
DAV:   7    -0.790461666321E+03    0.41633E-03   -0.50128E-03 13980   0.133E-01    0.410E-01
DAV:   8    -0.790461493793E+03    0.17253E-03   -0.35822E-03 14136   0.996E-02    0.266E-01
DAV:   9    -0.790461432960E+03    0.60834E-04   -0.12809E-03 14112   0.713E-02    0.859E-02
DAV:  10    -0.790461472345E+03   -0.39385E-04   -0.38795E-04 13452   0.318E-02    0.718E-02
DAV:  11    -0.790461483300E+03   -0.10955E-04   -0.19007E-04 13272   0.193E-02    0.905E-02
DAV:  12    -0.790461477034E+03    0.62655E-05   -0.18218E-04 10692   0.159E-02    0.758E-02
DAV:  13    -0.790461465373E+03    0.11662E-04   -0.99631E-05 11664   0.137E-02    0.390E-02
DAV:  14    -0.790461468013E+03   -0.26404E-05   -0.34051E-05  8196   0.847E-03
  40 F= -.79046147E+03 E0= -.79044364E+03  d E =-.857401E-02  mag=     1.9993
       N       E                     dE             d eps       ncg     rms          rms(c)
DAV:   1    -0.790463108454E+03   -0.16431E-02   -0.41750E+00 11520   0.363E+00    0.181E+00
DAV:   2    -0.790500933983E+03   -0.37826E-01   -0.57568E-01 15972   0.134E+00    0.378E+00
DAV:   3    -0.790470345454E+03    0.30589E-01   -0.89859E-02 15960   0.802E-01    0.166E+00
DAV:   4    -0.790463971910E+03    0.63735E-02   -0.31495E-02 13980   0.342E-01    0.690E-01
DAV:   5    -0.790464913307E+03   -0.94140E-03   -0.94579E-03 14172   0.203E-01    0.334E-01
DAV:   6    -0.790465918706E+03   -0.10054E-02   -0.70218E-03 15024   0.127E-01    0.569E-01
DAV:   7    -0.790465127185E+03    0.79152E-03   -0.59178E-03 14868   0.113E-01    0.190E-01
DAV:   8    -0.790465418830E+03   -0.29165E-03   -0.20128E-03 13872   0.615E-02    0.300E-01
DAV:   9    -0.790465211032E+03    0.20780E-03   -0.56906E-04 14724   0.453E-02    0.181E-01
DAV:  10    -0.790465165879E+03    0.45154E-04   -0.93087E-04 15372   0.360E-02    0.116E-01
DAV:  11    -0.790465183183E+03   -0.17304E-04   -0.20692E-04 12612   0.225E-02    0.265E-02
DAV:  12    -0.790465184860E+03   -0.16767E-05   -0.31192E-05  8520   0.815E-03
  41 F= -.79046518E+03 E0= -.79044678E+03  d E =-.371685E-02  mag=     2.0000
       N       E                     dE             d eps       ncg     rms          rms(c)
DAV:   1    -0.790466479635E+03   -0.12965E-02   -0.27192E-01 11520   0.951E-01    0.361E-01
DAV:   2    -0.790468468751E+03   -0.19891E-02   -0.24240E-02 15420   0.254E-01    0.104E+00
DAV:   3    -0.790466254454E+03    0.22143E-02   -0.65033E-03 16044   0.162E-01    0.142E-01
DAV:   4    -0.790467014701E+03   -0.76025E-03   -0.35349E-03 13680   0.753E-02    0.323E-01
DAV:   5    -0.790466873561E+03    0.14114E-03   -0.81620E-04 13884   0.511E-02    0.148E-01
DAV:   6    -0.790466871576E+03    0.19843E-05   -0.12492E-03 13908   0.346E-02    0.138E-01
DAV:   7    -0.790466858781E+03    0.12796E-04   -0.25687E-04 12660   0.266E-02    0.507E-02
DAV:   8    -0.790466862389E+03   -0.36081E-05   -0.73705E-05 10980   0.122E-02
  42 F= -.79046686E+03 E0= -.79044855E+03  d E =-.167753E-02  mag=     2.0000
       N       E                     dE             d eps       ncg     rms          rms(c)
DAV:   1    -0.790468003692E+03   -0.11449E-02   -0.16888E+00 11520   0.230E+00    0.409E-01
DAV:   2    -0.790473202578E+03   -0.51989E-02   -0.60337E-02 13704   0.407E-01    0.129E+00
DAV:   3    -0.790469989029E+03    0.32135E-02   -0.16288E-02 14880   0.199E-01    0.192E-01
DAV:   4    -0.790470816459E+03   -0.82743E-03   -0.19059E-03 13380   0.825E-02    0.188E-01
DAV:   5    -0.790470788788E+03    0.27671E-04   -0.71100E-04 14040   0.477E-02    0.104E-01
DAV:   6    -0.790470765803E+03    0.22984E-04   -0.33912E-04 14364   0.309E-02    0.889E-02
DAV:   7    -0.790470744910E+03    0.20893E-04   -0.17005E-04 14148   0.257E-02    0.723E-02
DAV:   8    -0.790470737760E+03    0.71503E-05   -0.11125E-04 13812   0.175E-02    0.312E-02
DAV:   9    -0.790470744405E+03   -0.66452E-05   -0.39457E-05  8580   0.937E-03
  43 F= -.79047074E+03 E0= -.79045250E+03  d E =-.388202E-02  mag=     2.0000
       N       E                     dE             d eps       ncg     rms          rms(c)
DAV:   1    -0.790157309098E+03    0.31343E+00   -0.14540E+02 11520   0.214E+01    0.441E+00
DAV:   2    -0.790630160151E+03   -0.47285E+00   -0.73522E+00 13896   0.417E+00    0.777E+00
DAV:   3    -0.790513284136E+03    0.11688E+00   -0.19983E+00 15000   0.186E+00    0.424E+00
DAV:   4    -0.790440023121E+03    0.73261E-01   -0.27022E-01 14208   0.103E+00    0.233E+00
DAV:   5    -0.790427461182E+03    0.12562E-01   -0.75401E-02 14016   0.578E-01    0.155E+00
DAV:   6    -0.790430998954E+03   -0.35378E-02   -0.10167E-01 14316   0.476E-01    0.258E+00
DAV:   7    -0.790421035954E+03    0.99630E-02   -0.42205E-02 13452   0.297E-01    0.110E+00
DAV:   8    -0.790420377273E+03    0.65868E-03   -0.27217E-02 14256   0.312E-01    0.902E-01
DAV:   9    -0.790419219379E+03    0.11579E-02   -0.25656E-02 14196   0.242E-01    0.494E-01
DAV:  10    -0.790420876268E+03   -0.16569E-02   -0.66230E-03 13728   0.149E-01    0.738E-01
DAV:  11    -0.790419724247E+03    0.11520E-02   -0.47327E-03 14544   0.122E-01    0.509E-01
DAV:  12    -0.790419514041E+03    0.21021E-03   -0.32583E-03 14148   0.105E-01    0.286E-01
DAV:  13    -0.790419500615E+03    0.13425E-04   -0.97327E-04 13644   0.530E-02    0.181E-01
DAV:  14    -0.790419520130E+03   -0.19515E-04   -0.51753E-04 13908   0.334E-02    0.743E-02
DAV:  15    -0.790419557989E+03   -0.37859E-04   -0.13850E-04 12456   0.224E-02    0.525E-02
DAV:  16    -0.790419556477E+03    0.15125E-05   -0.44253E-05  9552   0.107E-02
  44 F= -.79041956E+03 E0= -.79040165E+03  d E =0.511879E-01  mag=     1.9995
       N       E                     dE             d eps       ncg     rms          rms(c)
DAV:   1    -0.790455738727E+03   -0.36181E-01   -0.77074E+00 11520   0.506E+00    0.247E+00
DAV:   2    -0.790546389253E+03   -0.90651E-01   -0.12867E+00 15792   0.174E+00    0.626E+00
DAV:   3    -0.790470937302E+03    0.75452E-01   -0.13339E+00 16656   0.110E+00    0.256E+00
DAV:   4    -0.790460208703E+03    0.10729E-01   -0.57294E-02 13596   0.558E-01    0.111E+00
DAV:   5    -0.790460881703E+03   -0.67300E-03   -0.98654E-02 13908   0.427E-01    0.208E+00
DAV:   6    -0.790458569039E+03    0.23127E-02   -0.12619E-02 13212   0.240E-01    0.136E+00
DAV:   7    -0.790456431859E+03    0.21372E-02   -0.10377E-02 13884   0.198E-01    0.741E-01
DAV:   8    -0.790455957884E+03    0.47398E-03   -0.10622E-02 14244   0.169E-01    0.338E-01
DAV:   9    -0.790457238730E+03   -0.12808E-02   -0.18447E-03 12804   0.820E-02    0.363E-01
DAV:  10    -0.790457212065E+03    0.26665E-04   -0.12160E-03 13956   0.649E-02    0.195E-01
DAV:  11    -0.790457166535E+03    0.45530E-04   -0.45201E-04 13776   0.446E-02    0.104E-01
DAV:  12    -0.790457178597E+03   -0.12062E-04   -0.40272E-04 14004   0.310E-02    0.107E-01
DAV:  13    -0.790457169449E+03    0.91483E-05   -0.13210E-04 12576   0.202E-02    0.606E-02
DAV:  14    -0.790457164778E+03    0.46710E-05   -0.85056E-05 10320   0.120E-02
  45 F= -.79045716E+03 E0= -.79043955E+03  d E =-.376083E-01  mag=     1.9981
       N       E                     dE             d eps       ncg     rms          rms(c)
DAV:   1    -0.790448893733E+03    0.82757E-02   -0.14284E+01 11520   0.672E+00    0.124E+00
DAV:   2    -0.790490147903E+03   -0.41254E-01   -0.42772E-01 13740   0.117E+00    0.274E+00
DAV:   3    -0.790473007935E+03    0.17140E-01   -0.42304E-02 14892   0.553E-01    0.795E-01
DAV:   4    -0.790474201213E+03   -0.11933E-02   -0.35398E-02 13944   0.261E-01    0.744E-01
DAV:   5    -0.790473874663E+03    0.32655E-03   -0.67987E-03 13164   0.158E-01    0.437E-01
DAV:   6    -0.790473837607E+03    0.37056E-04   -0.78839E-03 14832   0.123E-01    0.479E-01
DAV:   7    -0.790473496858E+03    0.34075E-03   -0.16227E-03 13968   0.915E-02    0.320E-01
DAV:   8    -0.790473260768E+03    0.23609E-03   -0.15433E-03 15396   0.660E-02    0.105E-01
DAV:   9    -0.790473468347E+03   -0.20758E-03   -0.55030E-04 13488   0.368E-02    0.214E-01
DAV:  10    -0.790473342007E+03    0.12634E-03   -0.48586E-04 13764   0.322E-02    0.560E-02
DAV:  11    -0.790473379082E+03   -0.37075E-04   -0.16555E-04 12744   0.184E-02    0.624E-02
DAV:  12    -0.790473373510E+03    0.55725E-05   -0.68608E-05  9084   0.117E-02
  46 F= -.79047337E+03 E0= -.79045524E+03  d E =-.162087E-01  mag=     1.9999
       N       E                     dE             d eps       ncg     rms          rms(c)
DAV:   1    -0.790472600165E+03    0.77892E-03   -0.21742E+00 11520   0.261E+00    0.917E-01
DAV:   2    -0.790486470193E+03   -0.13870E-01   -0.15174E-01 15384   0.716E-01    0.240E+00
DAV:   3    -0.790473616879E+03    0.12853E-01   -0.29447E-02 15888   0.439E-01    0.705E-01
DAV:   4    -0.790474155462E+03   -0.53858E-03   -0.15158E-02 13812   0.180E-01    0.303E-01
DAV:   5    -0.790474971739E+03   -0.81628E-03   -0.19133E-03 13128   0.988E-02    0.283E-01
DAV:   6    -0.790474748124E+03    0.22362E-03   -0.11733E-03 14736   0.588E-02    0.888E-02
DAV:   7    -0.790474791734E+03   -0.43610E-04   -0.32052E-04 13788   0.331E-02    0.118E-01
DAV:   8    -0.790474761618E+03    0.30116E-04   -0.17447E-04 14988   0.239E-02    0.669E-02
DAV:   9    -0.790474766928E+03   -0.53099E-05   -0.18468E-04 12912   0.180E-02    0.737E-02
DAV:  10    -0.790474770813E+03   -0.38853E-05   -0.39751E-05 10356   0.129E-02
  47 F= -.79047477E+03 E0= -.79045630E+03  d E =-.139730E-02  mag=     2.0000
       N       E                     dE             d eps       ncg     rms          rms(c)
DAV:   1    -0.790474800595E+03   -0.33668E-04   -0.14929E-01 11520   0.696E-01    0.235E-01
DAV:   2    -0.790475711309E+03   -0.91071E-03   -0.11634E-02 14748   0.169E-01    0.695E-01
DAV:   3    -0.790474744567E+03    0.96674E-03   -0.47926E-03 15468   0.106E-01    0.859E-02
DAV:   4    -0.790475052498E+03   -0.30793E-03   -0.10022E-03 13560   0.488E-02    0.194E-01
DAV:   5    -0.790474995170E+03    0.57329E-04   -0.25585E-04 14196   0.320E-02    0.779E-02
DAV:   6    -0.790475007712E+03   -0.12543E-04   -0.41122E-04 13356   0.212E-02    0.942E-02
DAV:   7    -0.790474994578E+03    0.13134E-04   -0.14771E-04 11472   0.174E-02    0.433E-02
DAV:   8    -0.790474994660E+03   -0.81833E-07   -0.32255E-05  7908   0.837E-03
  48 F= -.79047499E+03 E0= -.79045666E+03  d E =-.223847E-03  mag=     2.0000
       N       E                     dE             d eps       ncg     rms          rms(c)
DAV:   1    -0.790474624084E+03    0.37049E-03   -0.88761E-02 11520   0.541E-01    0.111E-01
DAV:   2    -0.790474963007E+03   -0.33892E-03   -0.43037E-03 14052   0.102E-01    0.350E-01
DAV:   3    -0.790474696567E+03    0.26644E-03   -0.12835E-03 15012   0.538E-02    0.508E-02
DAV:   4    -0.790474783127E+03   -0.86561E-04   -0.31537E-04 13104   0.227E-02    0.965E-02
DAV:   5    -0.790474770050E+03    0.13077E-04   -0.78546E-05 11172   0.158E-02    0.353E-02
DAV:   6    -0.790474777167E+03   -0.71168E-05   -0.10167E-04 10908   0.110E-02    0.594E-02
DAV:   7    -0.790474768568E+03    0.85990E-05   -0.39200E-05  8064   0.983E-03
  49 F= -.79047477E+03 E0= -.79045647E+03  d E =0.226092E-03  mag=     2.0000
       N       E                     dE             d eps       ncg     rms          rms(c)
DAV:   1    -0.790463368617E+03    0.11409E-01   -0.49394E+00 11520   0.405E+00    0.531E-01
DAV:   2    -0.790474134029E+03   -0.10765E-01   -0.12212E-01 13596   0.617E-01    0.115E+00
DAV:   3    -0.790471844903E+03    0.22891E-02   -0.11946E-02 14976   0.223E-01    0.213E-01
DAV:   4    -0.790472184939E+03   -0.34004E-03   -0.22943E-03 13512   0.920E-02    0.230E-01
DAV:   5    -0.790472103667E+03    0.81273E-04   -0.17831E-03 14640   0.669E-02    0.216E-01
DAV:   6    -0.790472029251E+03    0.74416E-04   -0.58582E-04 14424   0.496E-02    0.188E-01
DAV:   7    -0.790471976021E+03    0.53230E-04   -0.11155E-03 15264   0.491E-02    0.154E-01
DAV:   8    -0.790471957465E+03    0.18556E-04   -0.26853E-04 12972   0.298E-02    0.462E-02
DAV:   9    -0.790471977044E+03   -0.19579E-04   -0.13298E-04 13488   0.167E-02    0.637E-02
DAV:  10    -0.790471968779E+03    0.82647E-05   -0.87276E-05  8928   0.113E-02
  50 F= -.79047197E+03 E0= -.79045349E+03  d E =0.279979E-02  mag=     2.0000
       N       E                     dE             d eps       ncg     rms          rms(c)
DAV:   1    -0.790448549367E+03    0.23428E-01   -0.10362E+01 11520   0.586E+00    0.157E+00
DAV:   2    -0.790496376260E+03   -0.47827E-01   -0.54766E-01 15204   0.138E+00    0.374E+00
DAV:   3    -0.790464135980E+03    0.32240E-01   -0.69350E-02 15840   0.754E-01    0.138E+00
DAV:   4    -0.790461658889E+03    0.24771E-02   -0.34751E-02 13968   0.297E-01    0.385E-01
DAV:   5    -0.790463444822E+03   -0.17859E-02   -0.64372E-03 13644   0.174E-01    0.387E-01
DAV:   6    -0.790463408348E+03    0.36474E-04   -0.32552E-03 14580   0.104E-01    0.299E-01
DAV:   7    -0.790463233554E+03    0.17479E-03   -0.12344E-03 14016   0.825E-02    0.147E-01
DAV:   8    -0.790463259296E+03   -0.25742E-04   -0.85706E-04 13992   0.528E-02    0.162E-01
DAV:   9    -0.790463288796E+03   -0.29500E-04   -0.47493E-04 14652   0.414E-02    0.215E-01
DAV:  10    -0.790463177631E+03    0.11116E-03   -0.10396E-03 15468   0.395E-02    0.137E-01
DAV:  11    -0.790463191168E+03   -0.13537E-04   -0.17238E-04 12960   0.243E-02    0.368E-02
DAV:  12    -0.790463194419E+03   -0.32509E-05   -0.42512E-05 10104   0.923E-03
  51 F= -.79046319E+03 E0= -.79044449E+03  d E =0.877436E-02  mag=     2.0000
       N       E                     dE             d eps       ncg     rms          rms(c)
DAV:   1    -0.790463985797E+03   -0.79463E-03   -0.57953E+00 11520   0.439E+00    0.118E+00
DAV:   2    -0.790495166268E+03   -0.31180E-01   -0.45734E-01 14856   0.103E+00    0.415E+00
DAV:   3    -0.790463526188E+03    0.31640E-01   -0.21917E-01 15252   0.594E-01    0.534E-01
DAV:   4    -0.790471516684E+03   -0.79905E-02   -0.12369E-02 12936   0.231E-01    0.307E-01
DAV:   5    -0.790472121193E+03   -0.60451E-03   -0.40045E-03 13560   0.114E-01    0.362E-01
DAV:   6    -0.790471841858E+03    0.27934E-03   -0.15952E-03 15036   0.661E-02    0.195E-01
DAV:   7    -0.790471856233E+03   -0.14375E-04   -0.10862E-03 14280   0.625E-02    0.203E-01
DAV:   8    -0.790471770770E+03    0.85464E-04   -0.78947E-04 14148   0.420E-02    0.974E-02
DAV:   9    -0.790471781273E+03   -0.10504E-04   -0.14420E-04 13020   0.239E-02    0.597E-02
DAV:  10    -0.790471784232E+03   -0.29585E-05   -0.12055E-04 10884   0.139E-02    0.617E-02
DAV:  11    -0.790471780341E+03    0.38909E-05   -0.31133E-05  8364   0.105E-02
  52 F= -.79047178E+03 E0= -.79045341E+03  d E =-.858592E-02  mag=     1.9998
       N       E                     dE             d eps       ncg     rms          rms(c)
DAV:   1    -0.790470523727E+03    0.12605E-02   -0.12684E+00 11520   0.208E+00    0.573E-01
DAV:   2    -0.790476580601E+03   -0.60569E-02   -0.67122E-02 14748   0.441E-01    0.162E+00
DAV:   3    -0.790471093949E+03    0.54867E-02   -0.18435E-02 15684   0.249E-01    0.207E-01
DAV:   4    -0.790472850841E+03   -0.17569E-02   -0.73254E-03 13572   0.118E-01    0.482E-01
DAV:   5    -0.790472489777E+03    0.36106E-03   -0.20508E-03 13896   0.790E-02    0.215E-01
DAV:   6    -0.790472455817E+03    0.33960E-04   -0.15193E-03 14016   0.524E-02    0.152E-01
DAV:   7    -0.790472487795E+03   -0.31978E-04   -0.35631E-04 13200   0.393E-02    0.130E-01
DAV:   8    -0.790472450669E+03    0.37126E-04   -0.17703E-04 14616   0.220E-02    0.481E-02
DAV:   9    -0.790472456791E+03   -0.61221E-05   -0.59554E-05 11748   0.133E-02
  53 F= -.79047246E+03 E0= -.79045410E+03  d E =-.676450E-03  mag=     2.0000
       N       E                     dE             d eps       ncg     rms          rms(c)
DAV:   1    -0.790472533544E+03   -0.82875E-04   -0.33906E-01 11520   0.109E+00    0.344E-01
DAV:   2    -0.790474283361E+03   -0.17498E-02   -0.22979E-02 14808   0.250E-01    0.840E-01
DAV:   3    -0.790472703890E+03    0.15795E-02   -0.73609E-03 15612   0.146E-01    0.118E-01
DAV:   4    -0.790473185782E+03   -0.48189E-03   -0.22990E-03 13788   0.658E-02    0.295E-01
DAV:   5    -0.790472982596E+03    0.20319E-03   -0.10772E-03 14112   0.487E-02    0.822E-02
DAV:   6    -0.790473029832E+03   -0.47236E-04   -0.36608E-04 13872   0.285E-02    0.110E-01
DAV:   7    -0.790472999020E+03    0.30812E-04   -0.16210E-04 13308   0.224E-02    0.396E-02
DAV:   8    -0.790473001952E+03   -0.29319E-05   -0.30982E-05  9336   0.101E-02
  54 F= -.79047300E+03 E0= -.79045456E+03  d E =-.545161E-03  mag=     2.0000
       N       E                     dE             d eps       ncg     rms          rms(c)
DAV:   1    -0.790472485692E+03    0.51333E-03   -0.91995E-02 11520   0.556E-01    0.133E-01
DAV:   2    -0.790472905186E+03   -0.41949E-03   -0.46172E-03 14580   0.117E-01    0.424E-01
DAV:   3    -0.790472521778E+03    0.38341E-03   -0.13990E-03 15264   0.653E-02    0.561E-02
DAV:   4    -0.790472643572E+03   -0.12179E-03   -0.38076E-04 13308   0.263E-02    0.104E-01
DAV:   5    -0.790472632117E+03    0.11455E-04   -0.94858E-05 11652   0.170E-02    0.420E-02
DAV:   6    -0.790472639853E+03   -0.77360E-05   -0.12767E-04 11448   0.121E-02    0.705E-02
DAV:   7    -0.790472627963E+03    0.11890E-04   -0.66269E-05  9012   0.120E-02    0.125E-02
DAV:   8    -0.790472631396E+03   -0.34330E-05   -0.57411E-06  6708   0.421E-03
  55 F= -.79047263E+03 E0= -.79045413E+03  d E =0.370556E-03  mag=     2.0000
       N       E                     dE             d eps       ncg     rms          rms(c)
DAV:   1    -0.790470358959E+03    0.22690E-02   -0.62883E-01 11520   0.146E+00    0.323E-01
DAV:   2    -0.790473343128E+03   -0.29842E-02   -0.34284E-02 14496   0.300E-01    0.109E+00
DAV:   3    -0.790470718225E+03    0.26249E-02   -0.89557E-03 15144   0.170E-01    0.187E-01
DAV:   4    -0.790471349505E+03   -0.63128E-03   -0.23380E-03 13632   0.661E-02    0.231E-01
DAV:   5    -0.790471331454E+03    0.18050E-04   -0.65538E-04 12780   0.424E-02    0.592E-02
DAV:   6    -0.790471395698E+03   -0.64244E-04   -0.34175E-04 13392   0.237E-02    0.161E-01
DAV:   7    -0.790471319050E+03    0.76648E-04   -0.18790E-04 13212   0.233E-02    0.418E-02
DAV:   8    -0.790471336865E+03   -0.17815E-04   -0.80552E-05 12132   0.132E-02    0.477E-02
DAV:   9    -0.790471337623E+03   -0.75816E-06   -0.13682E-05  7644   0.773E-03
  56 F= -.79047134E+03 E0= -.79045274E+03  d E =0.129377E-02  mag=     2.0000
       N       E                     dE             d eps       ncg     rms          rms(c)
DAV:   1    -0.790454264758E+03    0.17072E-01   -0.66128E+00 11520   0.475E+00    0.969E-01
DAV:   2    -0.790477158486E+03   -0.22894E-01   -0.31052E-01 14028   0.898E-01    0.259E+00
DAV:   3    -0.790463658696E+03    0.13500E-01   -0.72539E-02 15228   0.437E-01    0.814E-01
DAV:   4    -0.790464866769E+03   -0.12081E-02   -0.12325E-02 13680   0.201E-01    0.274E-01
DAV:   5    -0.790465104747E+03   -0.23798E-03   -0.26855E-03 13332   0.104E-01    0.302E-01
DAV:   6    -0.790464873978E+03    0.23077E-03   -0.16493E-03 15264   0.693E-02    0.159E-01
DAV:   7    -0.790464967720E+03   -0.93742E-04   -0.14026E-03 14004   0.626E-02    0.273E-01
DAV:   8    -0.790464784205E+03    0.18351E-03   -0.79070E-04 14412   0.487E-02    0.157E-01
DAV:   9    -0.790464782909E+03    0.12966E-05   -0.80806E-04 13836   0.321E-02    0.116E-01
DAV:  10    -0.790464788946E+03   -0.60370E-05   -0.98287E-05 12552   0.195E-02
  57 F= -.79046479E+03 E0= -.79044623E+03  d E =0.654868E-02  mag=     1.9999
       N       E                     dE             d eps       ncg     rms          rms(c)
DAV:   1    -0.790466399884E+03   -0.16170E-02   -0.25828E+00 11520   0.296E+00    0.722E-01
DAV:   2    -0.790477170911E+03   -0.10771E-01   -0.15792E-01 14292   0.607E-01    0.200E+00
DAV:   3    -0.790468927630E+03    0.82433E-02   -0.41523E-02 15240   0.333E-01    0.448E-01
DAV:   4    -0.790470485210E+03   -0.15576E-02   -0.73345E-03 13740   0.153E-01    0.363E-01
DAV:   5    -0.790470422285E+03    0.62926E-04   -0.19803E-03 14028   0.961E-02    0.180E-01
DAV:   6    -0.790470335196E+03    0.87088E-04   -0.73490E-04 14484   0.558E-02    0.118E-01
DAV:   7    -0.790470319760E+03    0.15437E-04   -0.40109E-04 14760   0.395E-02    0.119E-01
DAV:   8    -0.790470294700E+03    0.25060E-04   -0.16680E-04 14328   0.271E-02    0.698E-02
DAV:   9    -0.790470294016E+03    0.68328E-06   -0.18349E-04 13740   0.202E-02    0.651E-02
DAV:  10    -0.790470289541E+03    0.44753E-05   -0.66306E-05  9924   0.126E-02
  58 F= -.79047029E+03 E0= -.79045170E+03  d E =-.550060E-02  mag=     2.0000
       N       E                     dE             d eps       ncg     rms          rms(c)
DAV:   1    -0.790461920016E+03    0.83740E-02   -0.58934E+00 11520   0.450E+00    0.986E-01
DAV:   2    -0.790484403726E+03   -0.22484E-01   -0.33484E-01 14292   0.884E-01    0.249E+00
DAV:   3    -0.790470490354E+03    0.13913E-01   -0.51435E-02 15288   0.457E-01    0.807E-01
DAV:   4    -0.790471271799E+03   -0.78144E-03   -0.13057E-02 13836   0.190E-01    0.296E-01
DAV:   5    -0.790471621222E+03   -0.34942E-03   -0.26093E-03 13668   0.117E-01    0.268E-01
DAV:   6    -0.790471408823E+03    0.21240E-03   -0.11545E-03 14664   0.730E-02    0.120E-01
DAV:   7    -0.790471489688E+03   -0.80865E-04   -0.13046E-03 14256   0.564E-02    0.237E-01
DAV:   8    -0.790471378431E+03    0.11126E-03   -0.35458E-04 14616   0.404E-02    0.134E-01
DAV:   9    -0.790471355592E+03    0.22839E-04   -0.63822E-04 14400   0.311E-02    0.810E-02
DAV:  10    -0.790471369091E+03   -0.13499E-04   -0.83441E-05 12000   0.171E-02    0.498E-02
DAV:  11    -0.790471364406E+03    0.46848E-05   -0.31397E-05  9204   0.920E-03
  59 F= -.79047136E+03 E0= -.79045283E+03  d E =-.107487E-02  mag=     1.9999
       N       E                     dE             d eps       ncg     rms          rms(c)
DAV:   1    -0.790465028160E+03    0.63409E-02   -0.35860E+00 11520   0.351E+00    0.767E-01
DAV:   2    -0.790479223505E+03   -0.14195E-01   -0.17537E-01 14088   0.658E-01    0.233E+00
DAV:   3    -0.790468873290E+03    0.10350E-01   -0.59182E-02 15276   0.326E-01    0.458E-01
DAV:   4    -0.790471256995E+03   -0.23837E-02   -0.98517E-03 13716   0.166E-01    0.481E-01
DAV:   5    -0.790470853293E+03    0.40370E-03   -0.19914E-03 13584   0.903E-02    0.169E-01
DAV:   6    -0.790470935054E+03   -0.81760E-04   -0.26562E-03 14016   0.648E-02    0.271E-01
DAV:   7    -0.790470802228E+03    0.13283E-03   -0.81494E-04 14208   0.496E-02    0.181E-01
DAV:   8    -0.790470743453E+03    0.58775E-04   -0.50708E-04 14124   0.293E-02    0.698E-02
DAV:   9    -0.790470773284E+03   -0.29831E-04   -0.14446E-04 13176   0.187E-02    0.628E-02
DAV:  10    -0.790470767132E+03    0.61516E-05   -0.48260E-05  8664   0.110E-02
  60 F= -.79047077E+03 E0= -.79045216E+03  d E =0.597274E-03  mag=     2.0000
       N       E                     dE             d eps       ncg     rms          rms(c)
DAV:   1    -0.790461006692E+03    0.97666E-02   -0.29097E+00 11520   0.319E+00    0.769E-01
DAV:   2    -0.790470944122E+03   -0.99374E-02   -0.13861E-01 14088   0.623E-01    0.175E+00
DAV:   3    -0.790464707984E+03    0.62361E-02   -0.34571E-02 15288   0.323E-01    0.300E-01
DAV:   4    -0.790466583024E+03   -0.18750E-02   -0.10407E-02 13812   0.157E-01    0.700E-01
DAV:   5    -0.790465523170E+03    0.10599E-02   -0.38233E-03 14196   0.113E-01    0.234E-01
DAV:   6    -0.790465832690E+03   -0.30952E-03   -0.51479E-03 14016   0.807E-02    0.382E-01
DAV:   7    -0.790465537505E+03    0.29519E-03   -0.99490E-04 14172   0.616E-02    0.209E-01
DAV:   8    -0.790465467169E+03    0.70335E-04   -0.80339E-04 14808   0.377E-02    0.838E-02
DAV:   9    -0.790465520847E+03   -0.53677E-04   -0.14376E-04 13092   0.228E-02    0.714E-02
DAV:  10    -0.790465509924E+03    0.10923E-04   -0.47170E-05 10116   0.128E-02    0.254E-02
DAV:  11    -0.790465511352E+03   -0.14280E-05   -0.29280E-05  8016   0.887E-03
  61 F= -.79046551E+03 E0= -.79044704E+03  d E =0.525578E-02  mag=     2.0000
       N       E                     dE             d eps       ncg     rms          rms(c)
DAV:   1    -0.790469009731E+03   -0.34998E-02   -0.10557E+00 11520   0.193E+00    0.558E-01
DAV:   2    -0.790473292032E+03   -0.42823E-02   -0.60785E-02 14292   0.413E-01    0.130E+00
DAV:   3    -0.790469960087E+03    0.33319E-02   -0.20502E-02 15456   0.228E-01    0.204E-01
DAV:   4    -0.790471004695E+03   -0.10446E-02   -0.59741E-03 13764   0.112E-01    0.491E-01
DAV:   5    -0.790470440056E+03    0.56464E-03   -0.22572E-03 14604   0.799E-02    0.165E-01
DAV:   6    -0.790470595527E+03   -0.15547E-03   -0.25745E-03 14136   0.595E-02    0.285E-01
DAV:   7    -0.790470443549E+03    0.15198E-03   -0.53776E-04 13812   0.468E-02    0.158E-01
DAV:   8    -0.790470411081E+03    0.32468E-04   -0.28563E-04 14628   0.241E-02    0.548E-02
DAV:   9    -0.790470431424E+03   -0.20343E-04   -0.12650E-04 12960   0.151E-02    0.511E-02
DAV:  10    -0.790470429698E+03    0.17265E-05   -0.43100E-05  8976   0.109E-02
  62 F= -.79047043E+03 E0= -.79045187E+03  d E =-.491835E-02  mag=     2.0000
       N       E                     dE             d eps       ncg     rms          rms(c)
DAV:   1    -0.790470467801E+03   -0.36377E-04   -0.84301E-02 11520   0.548E-01    0.179E-01
DAV:   2    -0.790470790746E+03   -0.32295E-03   -0.38604E-03 14232   0.113E-01    0.321E-01
DAV:   3    -0.790470593291E+03    0.19746E-03   -0.12746E-03 15996   0.627E-02    0.100E-01
DAV:   4    -0.790470618020E+03   -0.24729E-04   -0.17526E-04 13380   0.308E-02    0.871E-02
DAV:   5    -0.790470594340E+03    0.23680E-04   -0.17339E-04 13800   0.225E-02    0.537E-02
DAV:   6    -0.790470593352E+03    0.98830E-06   -0.46117E-05 11568   0.151E-02
  63 F= -.79047059E+03 E0= -.79045200E+03  d E =-.163654E-03  mag=     2.0000
       N       E                     dE             d eps       ncg     rms          rms(c)
DAV:   1    -0.790470567799E+03    0.26541E-04   -0.36220E-02 11520   0.359E-01    0.118E-01
DAV:   2    -0.790470761471E+03   -0.19367E-03   -0.22297E-03 14424   0.823E-02    0.276E-01
DAV:   3    -0.790470597592E+03    0.16388E-03   -0.81373E-04 15576   0.477E-02    0.432E-02
DAV:   4    -0.790470638078E+03   -0.40486E-04   -0.11449E-04 13248   0.222E-02    0.686E-02
DAV:   5    -0.790470623810E+03    0.14268E-04   -0.75328E-05 10128   0.152E-02    0.264E-02
DAV:   6    -0.790470625247E+03   -0.14370E-05   -0.17208E-05  8400   0.914E-03
  64 F= -.79047063E+03 E0= -.79045204E+03  d E =-.318952E-04  mag=     2.0000
