       N       E                     dE             d eps       ncg     rms          rms(c)
DAV:   1     0.305125721950E+04    0.30513E+04   -0.25841E+05 73548   0.130E+03
DAV:   2    -0.613075788240E+03   -0.36643E+04   -0.35352E+04 89268   0.297E+02
DAV:   3    -0.871740000480E+03   -0.25866E+03   -0.25652E+03 89040   0.834E+01
DAV:   4    -0.874974617771E+03   -0.32346E+01   -0.32225E+01 89352   0.100E+01
DAV:   5    -0.875029276310E+03   -0.54659E-01   -0.54522E-01 91140   0.120E+00    0.989E+01
DAV:   6    -0.782249147646E+03    0.92780E+02   -0.39529E+02 84096   0.316E+01    0.504E+01
DAV:   7    -0.790804800444E+03   -0.85557E+01   -0.22875E+01 85224   0.873E+00    0.181E+01
DAV:   8    -0.793868007818E+03   -0.30632E+01   -0.77991E+00103056   0.540E+00    0.116E+01
DAV:   9    -0.795887150276E+03   -0.20191E+01   -0.35091E+00 90156   0.299E+00    0.739E+00
DAV:  10    -0.796562692216E+03   -0.67554E+00   -0.23972E+00 92520   0.289E+00    0.528E+00
DAV:  11    -0.797372963935E+03   -0.81027E+00   -0.20454E+00 92364   0.201E+00    0.529E+00
DAV:  12    -0.797336134342E+03    0.36830E-01   -0.26836E+00102804   0.165E+00    0.233E+00
DAV:  13    -0.797449133930E+03   -0.11300E+00   -0.31151E-01 85872   0.944E-01    0.300E+00
DAV:  14    -0.797424603165E+03    0.24531E-01   -0.17133E-01 99876   0.597E-01    0.155E+00
DAV:  15    -0.797430927345E+03   -0.63242E-02   -0.14151E-01103656   0.563E-01    0.231E+00
DAV:  16    -0.797428700406E+03    0.22269E-02   -0.12234E-02 81996   0.249E-01    0.169E+00
DAV:  17    -0.797428703072E+03   -0.26658E-05   -0.99138E-03 90456   0.224E-01    0.104E+00
DAV:  18    -0.797429505525E+03   -0.80245E-03   -0.14077E-02 91776   0.212E-01    0.358E-01
DAV:  19    -0.797430399081E+03   -0.89356E-03   -0.24200E-03 84552   0.983E-02    0.177E-01
DAV:  20    -0.797430631555E+03   -0.23247E-03   -0.17533E-03 89196   0.568E-02    0.194E-01
DAV:  21    -0.797430506814E+03    0.12474E-03   -0.11515E-03 94296   0.470E-02    0.919E-02
DAV:  22    -0.797430503419E+03    0.33944E-05   -0.31144E-04 86832   0.264E-02    0.855E-02
DAV:  23    -0.797430512809E+03   -0.93893E-05   -0.11871E-04 88248   0.292E-02    0.326E-02
DAV:  24    -0.797430514742E+03   -0.19334E-05   -0.55645E-05 72492   0.124E-02
   1 F= -.79743051E+03 E0= -.79741358E+03  d E =-.797431E+03  mag=    -0.9975
       N       E                     dE             d eps       ncg     rms          rms(c)
DAV:   1    -0.797430576413E+03   -0.63604E-04   -0.28680E-03 75864   0.988E-02    0.399E-02
DAV:   2    -0.797430590374E+03   -0.13961E-04   -0.22619E-04 93240   0.240E-02    0.772E-02
DAV:   3    -0.797430580436E+03    0.99379E-05   -0.10401E-04 64488   0.155E-02    0.185E-02
DAV:   4    -0.797430583027E+03   -0.25912E-05   -0.20404E-05 47844   0.769E-03
   2 F= -.79743058E+03 E0= -.79741365E+03  d E =-.682852E-04  mag=    -0.9988
       N       E                     dE             d eps       ncg     rms          rms(c)
DAV:   1    -0.797430601544E+03   -0.21108E-04   -0.28385E-03 75696   0.981E-02    0.488E-02
DAV:   2    -0.797430645511E+03   -0.43967E-04   -0.70015E-04 97656   0.363E-02    0.161E-01
DAV:   3    -0.797430591761E+03    0.53750E-04   -0.30715E-04 89664   0.257E-02    0.266E-02
DAV:   4    -0.797430602167E+03   -0.10406E-04   -0.58107E-05 70500   0.109E-02    0.228E-02
DAV:   5    -0.797430603076E+03   -0.90860E-06   -0.72092E-06 40884   0.582E-03
   3 F= -.79743060E+03 E0= -.79741367E+03  d E =-.200487E-04  mag=    -0.9993
       N       E                     dE             d eps       ncg     rms          rms(c)
DAV:   1    -0.797430516376E+03    0.85791E-04   -0.33779E-02 75528   0.339E-01    0.989E-02
DAV:   2    -0.797430707868E+03   -0.19149E-03   -0.29139E-03 92472   0.798E-02    0.303E-01
DAV:   3    -0.797430525199E+03    0.18267E-03   -0.11782E-03 99048   0.504E-02    0.430E-02
DAV:   4    -0.797430565999E+03   -0.40800E-04   -0.20785E-04 85104   0.211E-02    0.538E-02
DAV:   5    -0.797430562702E+03    0.32970E-05   -0.31836E-05 57420   0.115E-02
   4 F= -.79743056E+03 E0= -.79741365E+03  d E =0.403738E-04  mag=    -0.9994
       N       E                     dE             d eps       ncg     rms          rms(c)
DAV:   1    -0.797430199840E+03    0.36616E-03   -0.14687E-01 75144   0.707E-01    0.897E-02
DAV:   2    -0.797430516068E+03   -0.31623E-03   -0.39516E-03 88644   0.106E-01    0.195E-01
DAV:   3    -0.797430439433E+03    0.76635E-04   -0.63618E-04 97044   0.394E-02    0.491E-02
DAV:   4    -0.797430445547E+03   -0.61139E-05   -0.11350E-04 84228   0.183E-02    0.476E-02
DAV:   5    -0.797430436536E+03    0.90113E-05   -0.40342E-05 54372   0.119E-02
   5 F= -.79743044E+03 E0= -.79741354E+03  d E =0.126167E-03  mag=    -0.9995
       N       E                     dE             d eps       ncg     rms          rms(c)
DAV:   1    -0.797429228524E+03    0.12170E-02   -0.55809E-01 74088   0.138E+00    0.213E-01
DAV:   2    -0.797430534628E+03   -0.13061E-02   -0.16892E-02 88464   0.219E-01    0.460E-01
DAV:   3    -0.797430153976E+03    0.38065E-03   -0.35260E-03 98448   0.914E-02    0.108E-01
DAV:   4    -0.797430199798E+03   -0.45822E-04   -0.58740E-04 87408   0.427E-02    0.106E-01
DAV:   5    -0.797430164467E+03    0.35332E-04   -0.22865E-04 93084   0.273E-02    0.418E-02
DAV:   6    -0.797430162094E+03    0.23722E-05   -0.13942E-04 87456   0.201E-02    0.571E-02
DAV:   7    -0.797430155230E+03    0.68647E-05   -0.30165E-05 64152   0.135E-02
   6 F= -.79743016E+03 E0= -.79741329E+03  d E =0.281306E-03  mag=    -0.9995
       N       E                     dE             d eps       ncg     rms          rms(c)
DAV:   1    -0.797429985352E+03    0.17674E-03   -0.30253E-01 74064   0.102E+00    0.388E-01
DAV:   2    -0.797433014829E+03   -0.30295E-02   -0.48800E-02101076   0.315E-01    0.130E+00
DAV:   3    -0.797429658406E+03    0.33564E-02   -0.18186E-02103164   0.213E-01    0.257E-01
DAV:   4    -0.797430223356E+03   -0.56495E-03   -0.25135E-03 86280   0.790E-02    0.804E-02
DAV:   5    -0.797430309356E+03   -0.86000E-04   -0.26193E-04 82764   0.340E-02    0.676E-02
DAV:   6    -0.797430296294E+03    0.13062E-04   -0.17806E-04 85260   0.208E-02    0.406E-02
DAV:   7    -0.797430305647E+03   -0.93533E-05   -0.15908E-04 72072   0.136E-02    0.707E-02
DAV:   8    -0.797430291579E+03    0.14068E-04   -0.18282E-04 59568   0.138E-02    0.290E-02
DAV:   9    -0.797430294114E+03   -0.25355E-05   -0.14927E-05 43380   0.638E-03
   7 F= -.79743029E+03 E0= -.79741344E+03  d E =-.138885E-03  mag=    -0.9995
       N       E                     dE             d eps       ncg     rms          rms(c)
DAV:   1    -0.797430965773E+03   -0.67419E-03   -0.41237E-02 74688   0.365E-01    0.211E-01
DAV:   2    -0.797431799627E+03   -0.83385E-03   -0.14209E-02105504   0.165E-01    0.747E-01
DAV:   3    -0.797430710935E+03    0.10887E-02   -0.63997E-03108192   0.117E-01    0.103E-01
DAV:   4    -0.797430923033E+03   -0.21210E-03   -0.59256E-04 85860   0.390E-02    0.413E-02
DAV:   5    -0.797430948632E+03   -0.25599E-04   -0.12000E-04 78708   0.155E-02    0.410E-02
DAV:   6    -0.797430949322E+03   -0.68962E-06   -0.15036E-04 59028   0.124E-02    0.549E-02
DAV:   7    -0.797430942957E+03    0.63645E-05   -0.81107E-05 48456   0.885E-03
   8 F= -.79743094E+03 E0= -.79741407E+03  d E =-.648843E-03  mag=    -0.9995
       N       E                     dE             d eps       ncg     rms          rms(c)
DAV:   1    -0.797431075140E+03   -0.12582E-03   -0.47146E-02 74520   0.403E-01    0.808E-02
DAV:   2    -0.797431226435E+03   -0.15129E-03   -0.21073E-03 89640   0.749E-02    0.215E-01
DAV:   3    -0.797431141492E+03    0.84943E-04   -0.64939E-04 97296   0.386E-02    0.323E-02
DAV:   4    -0.797431161317E+03   -0.19825E-04   -0.10653E-04 82296   0.160E-02    0.441E-02
DAV:   5    -0.797431156868E+03    0.44488E-05   -0.26314E-05 46896   0.967E-03
   9 F= -.79743116E+03 E0= -.79741429E+03  d E =-.213911E-03  mag=    -0.9995
       N       E                     dE             d eps       ncg     rms          rms(c)
DAV:   1    -0.797428540028E+03    0.26213E-02   -0.22648E+00 73440   0.279E+00    0.661E-01
DAV:   2    -0.797437485757E+03   -0.89457E-02   -0.14937E-01 92472   0.605E-01    0.187E+00
DAV:   3    -0.797430775607E+03    0.67102E-02   -0.40549E-02 98508   0.332E-01    0.293E-01
DAV:   4    -0.797431836444E+03   -0.10608E-02   -0.58542E-03 86436   0.124E-01    0.195E-01
DAV:   5    -0.797431884386E+03   -0.47941E-04   -0.22156E-03 82956   0.622E-02    0.187E-01
DAV:   6    -0.797431797438E+03    0.86948E-04   -0.10631E-03 95964   0.428E-02    0.978E-02
DAV:   7    -0.797431812372E+03   -0.14934E-04   -0.20044E-04 85716   0.281E-02    0.101E-01
DAV:   8    -0.797431796364E+03    0.16008E-04   -0.62415E-04 86712   0.248E-02    0.961E-02
DAV:   9    -0.797431787745E+03    0.86196E-05   -0.30094E-04 76224   0.176E-02    0.433E-02
DAV:  10    -0.797431787485E+03    0.26024E-06   -0.28328E-05 47844   0.956E-03
  10 F= -.79743179E+03 E0= -.79741498E+03  d E =-.630617E-03  mag=    -0.9994
       N       E                     dE             d eps       ncg     rms          rms(c)
DAV:   1    -0.797430160155E+03    0.16276E-02   -0.24468E+00 73440   0.291E+00    0.563E-01
DAV:   2    -0.797437412299E+03   -0.72521E-02   -0.90507E-02 88596   0.507E-01    0.130E+00
DAV:   3    -0.797434353142E+03    0.30592E-02   -0.28155E-02 98640   0.245E-01    0.378E-01
DAV:   4    -0.797434673675E+03   -0.32053E-03   -0.40093E-03 86928   0.128E-01    0.217E-01
DAV:   5    -0.797434545434E+03    0.12824E-03   -0.12195E-03 86652   0.638E-02    0.112E-01
DAV:   6    -0.797434507300E+03    0.38133E-04   -0.60721E-04 95040   0.452E-02    0.907E-02
DAV:   7    -0.797434495219E+03    0.12082E-04   -0.14333E-04 88824   0.271E-02    0.575E-02
DAV:   8    -0.797434491140E+03    0.40787E-05   -0.28007E-04 87972   0.211E-02    0.506E-02
DAV:   9    -0.797434490186E+03    0.95373E-06   -0.10744E-04 65064   0.126E-02    0.397E-02
DAV:  10    -0.797434487908E+03    0.22777E-05   -0.47310E-05 45900   0.854E-03
  11 F= -.79743449E+03 E0= -.79741761E+03  d E =-.270042E-02  mag=    -0.9996
       N       E                     dE             d eps       ncg     rms          rms(c)
DAV:   1    -0.797432950902E+03    0.15393E-02   -0.12789E+00 73440   0.210E+00    0.382E-01
DAV:   2    -0.797435821091E+03   -0.28702E-02   -0.34499E-02 88188   0.324E-01    0.478E-01
DAV:   3    -0.797435406014E+03    0.41508E-03   -0.67630E-03100164   0.134E-01    0.274E-01
DAV:   4    -0.797435358764E+03    0.47250E-04   -0.20392E-03 90888   0.760E-02    0.193E-01
DAV:   5    -0.797435273341E+03    0.85422E-04   -0.75825E-04 97620   0.486E-02    0.804E-02
DAV:   6    -0.797435265156E+03    0.81852E-05   -0.32612E-04 91980   0.331E-02    0.693E-02
DAV:   7    -0.797435253575E+03    0.11581E-04   -0.85313E-05 88464   0.207E-02    0.383E-02
DAV:   8    -0.797435256035E+03   -0.24603E-05   -0.13253E-04 75120   0.136E-02    0.397E-02
DAV:   9    -0.797435253279E+03    0.27562E-05   -0.51202E-05 48096   0.966E-03
  12 F= -.79743525E+03 E0= -.79741835E+03  d E =-.765370E-03  mag=    -0.9995
       N       E                     dE             d eps       ncg     rms          rms(c)
DAV:   1    -0.797434688039E+03    0.56800E-03   -0.29528E-01 73464   0.101E+00    0.413E-01
DAV:   2    -0.797436987674E+03   -0.22996E-02   -0.46130E-02102312   0.321E-01    0.111E+00
DAV:   3    -0.797434555727E+03    0.24319E-02   -0.14290E-02103704   0.209E-01    0.249E-01
DAV:   4    -0.797434905597E+03   -0.34987E-03   -0.25702E-03 87408   0.784E-02    0.106E-01
DAV:   5    -0.797434966794E+03   -0.61197E-04   -0.36914E-04 85920   0.365E-02    0.943E-02
DAV:   6    -0.797434938300E+03    0.28494E-04   -0.32956E-04 87336   0.255E-02    0.413E-02
DAV:   7    -0.797434951413E+03   -0.13113E-04   -0.12195E-04 81528   0.140E-02    0.724E-02
DAV:   8    -0.797434936829E+03    0.14585E-04   -0.22943E-04 61872   0.148E-02    0.401E-02
DAV:   9    -0.797434938170E+03   -0.13410E-05   -0.39583E-05 47268   0.767E-03
  13 F= -.79743494E+03 E0= -.79741808E+03  d E =0.315109E-03  mag=    -0.9995
       N       E                     dE             d eps       ncg     rms          rms(c)
DAV:   1    -0.797435092358E+03   -0.15553E-03   -0.32110E-01 73464   0.105E+00    0.149E-01
DAV:   2    -0.797435872327E+03   -0.77997E-03   -0.98296E-03 87756   0.166E-01    0.370E-01
DAV:   3    -0.797435631647E+03    0.24068E-03   -0.19994E-03 97884   0.677E-02    0.661E-02
DAV:   4    -0.797435669896E+03   -0.38248E-04   -0.27063E-04 85488   0.287E-02    0.671E-02
DAV:   5    -0.797435656108E+03    0.13788E-04   -0.11585E-04 80112   0.180E-02    0.289E-02
DAV:   6    -0.797435658498E+03   -0.23895E-05   -0.79512E-05 74748   0.139E-02
  14 F= -.79743566E+03 E0= -.79741877E+03  d E =-.720328E-03  mag=    -0.9995
       N       E                     dE             d eps       ncg     rms          rms(c)
DAV:   1    -0.797436631077E+03   -0.97497E-03   -0.32859E-01 73464   0.106E+00    0.551E-01
DAV:   2    -0.797442763210E+03   -0.61321E-02   -0.86776E-02107160   0.434E-01    0.201E+00
DAV:   3    -0.797435414159E+03    0.73491E-02   -0.42573E-02107268   0.303E-01    0.383E-01
DAV:   4    -0.797436467945E+03   -0.10538E-02   -0.35506E-03 84576   0.116E-01    0.875E-02
DAV:   5    -0.797436680889E+03   -0.21294E-03   -0.12669E-03 88464   0.561E-02    0.155E-01
DAV:   6    -0.797436610452E+03    0.70437E-04   -0.54007E-04 97116   0.320E-02    0.560E-02
DAV:   7    -0.797436630610E+03   -0.20158E-04   -0.21402E-04 83160   0.206E-02    0.701E-02
DAV:   8    -0.797436619589E+03    0.11022E-04   -0.23720E-04 67260   0.162E-02    0.543E-02
DAV:   9    -0.797436616553E+03    0.30351E-05   -0.11527E-04 57192   0.115E-02    0.293E-02
DAV:  10    -0.797436616953E+03   -0.39973E-06   -0.21926E-05 42000   0.620E-03
  15 F= -.79743662E+03 E0= -.79741968E+03  d E =-.958456E-03  mag=    -0.9996
       N       E                     dE             d eps       ncg     rms          rms(c)
DAV:   1    -0.797437623876E+03   -0.10073E-02   -0.71863E-02 74112   0.491E-01    0.295E-01
DAV:   2    -0.797438811435E+03   -0.11876E-02   -0.21824E-02103908   0.214E-01    0.861E-01
DAV:   3    -0.797437323778E+03    0.14877E-02   -0.98944E-03106812   0.148E-01    0.115E-01
DAV:   4    -0.797437608595E+03   -0.28482E-03   -0.12483E-03 86784   0.560E-02    0.113E-01
DAV:   5    -0.797437603194E+03    0.54018E-05   -0.23810E-04 87816   0.289E-02    0.583E-02
DAV:   6    -0.797437593369E+03    0.98243E-05   -0.10182E-04 77868   0.163E-02    0.213E-02
DAV:   7    -0.797437594944E+03   -0.15746E-05   -0.20639E-05 52584   0.829E-03
  16 F= -.79743759E+03 E0= -.79742067E+03  d E =-.977991E-03  mag=    -0.9996
       N       E                     dE             d eps       ncg     rms          rms(c)
DAV:   1    -0.797437986190E+03   -0.39282E-03   -0.19107E-02 73752   0.258E-01    0.551E-02
DAV:   2    -0.797438029240E+03   -0.43049E-04   -0.65336E-04 89868   0.476E-02    0.868E-02
DAV:   3    -0.797438017234E+03    0.12006E-04   -0.11551E-04 81636   0.218E-02    0.237E-02
DAV:   4    -0.797438018668E+03   -0.14337E-05   -0.38693E-05 62016   0.100E-02
  17 F= -.79743802E+03 E0= -.79742113E+03  d E =-.423724E-03  mag=    -0.9996
