       N       E                     dE             d eps       ncg     rms          ort
DAV:   1     0.826845297516E+04    0.82685E+04   -0.24602E+05  8424   0.238E+03
DAV:   2     0.873555089435E+03   -0.73949E+04   -0.69251E+04  8424   0.659E+02
DAV:   3    -0.739360893994E+03   -0.16129E+04   -0.14262E+04  8424   0.284E+02
DAV:   4    -0.898706639027E+03   -0.15935E+03   -0.15653E+03  8424   0.862E+01
DAV:   5    -0.901428460830E+03   -0.27218E+01   -0.27069E+01  8424   0.126E+01
SDA:   6    -0.246452238761E+03    0.65498E+03   -0.27069E+01  8424   0.545E+04 0.000E+00
CGA:   7    -0.447447580397E+03   -0.20100E+03   -0.40116E+03  8424   0.916E+04-0.893E+03
CGA:   8    -0.562085347982E+03   -0.11464E+03   -0.38884E+03  8424   0.961E+03-0.151E+04
CGA:   9    -0.612842492746E+03   -0.50757E+02   -0.16330E+02  8424   0.878E+03 0.173E+04
CGA:  10    -0.636696655775E+03   -0.23854E+02   -0.37740E+02  8424   0.716E+03-0.405E+02
CGA:  11    -0.642752081776E+03   -0.60554E+01   -0.23610E+02  8424   0.149E+04-0.404E+03
CGA:  12    -0.657037742018E+03   -0.14286E+02   -0.41132E+02  8424   0.912E+03-0.643E+03
CGA:  13    -0.661820540710E+03   -0.47828E+01   -0.13338E+02  8424   0.985E+03-0.268E+03
CGA:  14    -0.652526713548E+03    0.92938E+01   -0.23315E+02  8424   0.175E+04-0.740E+03
CGA:  15    -0.629182627347E+03    0.23344E+02   -0.61274E+02  8424   0.268E+04-0.161E+04
CGA:  16    -0.611152731171E+03    0.18030E+02   -0.10517E+03  8424   0.266E+04-0.220E+04
CGA:  17    -0.652974031996E+03   -0.41821E+02   -0.77594E+02  8424   0.157E+04-0.217E+04
CGA:  18    -0.649763806846E+03    0.32102E+01   -0.49933E+02  8424   0.167E+04-0.147E+04
CGA:  19    -0.617212315562E+03    0.32551E+02   -0.66519E+02  8424   0.254E+04-0.145E+04
CGA:  20    -0.623857638134E+03   -0.66453E+01   -0.84529E+02  8424   0.252E+04-0.177E+04
CGA:  21    -0.627843462337E+03   -0.39858E+01   -0.77759E+02  8424   0.285E+04-0.303E+04
CGA:  22    -0.586528502325E+03    0.41315E+02   -0.10579E+03  8424   0.292E+04-0.198E+04
CGA:  23    -0.642259603146E+03   -0.55731E+02   -0.81109E+02  8424   0.252E+04-0.368E+04
CGA:  24    -0.609534350417E+03    0.32725E+02   -0.90348E+02  8424   0.286E+04-0.223E+04
CGA:  25    -0.613003970644E+03   -0.34696E+01   -0.92469E+02  8424   0.318E+04-0.311E+04
CGA:  26    -0.603187298176E+03    0.98167E+01   -0.11237E+03  8424   0.262E+04-0.244E+04
CGA:  27    -0.628660455962E+03   -0.25473E+02   -0.83866E+02  8424   0.269E+04-0.310E+04
CGA:  28    -0.632297540917E+03   -0.36371E+01   -0.90508E+02  8424   0.195E+04-0.202E+04
CGA:  29    -0.646927867600E+03   -0.14630E+02   -0.59175E+02  8424   0.178E+04-0.194E+04
CGA:  30    -0.644675004657E+03    0.22529E+01   -0.55661E+02  8424   0.143E+04-0.141E+04
CGA:  31    -0.647539436901E+03   -0.28644E+01   -0.41541E+02  8424   0.202E+04-0.210E+04
CGA:  32    -0.639742058002E+03    0.77974E+01   -0.62609E+02  8424   0.168E+04-0.159E+04
CGA:  33    -0.644437205953E+03   -0.46951E+01   -0.48678E+02  8424   0.195E+04-0.207E+04
CGA:  34    -0.640814060031E+03    0.36231E+01   -0.56736E+02  8424   0.176E+04-0.175E+04
CGA:  35    -0.643744585778E+03   -0.29305E+01   -0.48810E+02  8424   0.194E+04-0.202E+04
CGA:  36    -0.641664940402E+03    0.20796E+01   -0.53197E+02  8424   0.180E+04-0.180E+04
CGA:  37    -0.644576330782E+03   -0.29114E+01   -0.47179E+02  8424   0.196E+04-0.203E+04
CGA:  38    -0.643153819534E+03    0.14225E+01   -0.50664E+02  8424   0.180E+04-0.181E+04
CGA:  39    -0.646787832000E+03   -0.36340E+01   -0.44457E+02  8424   0.202E+04-0.210E+04
CGA:  40    -0.645004917455E+03    0.17829E+01   -0.49510E+02  8424   0.180E+04-0.180E+04
CGA:  41    -0.649905823284E+03   -0.49009E+01   -0.41776E+02  8424   0.216E+04-0.227E+04
CGA:  42    -0.647055540983E+03    0.28503E+01   -0.50603E+02  8424   0.181E+04-0.179E+04
CGA:  43    -0.654046561493E+03   -0.69910E+01   -0.39648E+02  8424   0.242E+04-0.259E+04
CGA:  44    -0.649753556375E+03    0.42930E+01   -0.54252E+02  8424   0.189E+04-0.182E+04
CGA:  45    -0.658785019127E+03   -0.90315E+01   -0.39098E+02  8424   0.263E+04-0.286E+04
CGA:  46    -0.654750691676E+03    0.40343E+01   -0.55969E+02  8424   0.216E+04-0.208E+04
CGA:  47    -0.663007240483E+03   -0.82565E+01   -0.43021E+02  8424   0.271E+04-0.293E+04
CGA:  48    -0.663001321502E+03    0.59190E-02   -0.54568E+02  8424   0.265E+04-0.265E+04
CGA:  49    -0.670170608285E+03   -0.71693E+01   -0.51145E+02  8424   0.257E+04-0.276E+04
CGA:  50    -0.679243682794E+03   -0.90731E+01   -0.47760E+02  8424   0.244E+04-0.283E+04
CGA:  51    -0.689767189836E+03   -0.10524E+02   -0.42747E+02  8424   0.111E+04-0.142E+04
CGA:  52    -0.701669493055E+03   -0.11902E+02   -0.15213E+02  8424   0.635E+02-0.251E+03
CGA:  53    -0.702416799798E+03   -0.74731E+00   -0.91814E+00  8424   0.868E+01-0.467E+01
CGA:  54    -0.702797676487E+03   -0.38088E+00   -0.37673E+00  8424   0.153E+02 0.454E+00
CGA:  55    -0.704155282281E+03   -0.13576E+01   -0.19413E+01  8424   0.155E+02-0.468E+01
CGA:  56    -0.704535796385E+03   -0.38051E+00   -0.31681E+00  8424   0.570E+01 0.823E+00
CGA:  57    -0.704656346298E+03   -0.12055E+00   -0.10632E+00  8424   0.320E+01 0.464E+00
CGA:  58    -0.704764954712E+03   -0.10861E+00   -0.11333E+00  8424   0.442E+01 0.136E+00
CGA:  59    -0.704886033490E+03   -0.12108E+00   -0.12190E+00  8424   0.392E+01 0.225E-01
CGA:  60    -0.704972523610E+03   -0.86490E-01   -0.82524E-01  8424   0.164E+01 0.234E+00
CGA:  61    -0.705002925911E+03   -0.30402E-01   -0.29631E-01  8424   0.124E+01 0.653E-01
CGA:  62    -0.705057813959E+03   -0.54888E-01   -0.54446E-01  8424   0.315E+01 0.923E-01
CGA:  63    -0.705131393802E+03   -0.73580E-01   -0.54477E-01  8424   0.199E+01 0.945E+00
CGA:  64    -0.705167233068E+03   -0.35839E-01   -0.39519E-01  8424   0.127E+01-0.149E+00
CGA:  65    -0.705191546740E+03   -0.24314E-01   -0.26335E-01  8424   0.135E+01-0.185E-01
CGA:  66    -0.705233345985E+03   -0.41799E-01   -0.42464E-01  8424   0.172E+01 0.566E-01
CGA:  67    -0.705277591852E+03   -0.44246E-01   -0.42674E-01  8424   0.908E+00 0.401E-01
CGA:  68    -0.705295916849E+03   -0.18325E-01   -0.19910E-01  8424   0.554E+00 0.136E-01
CGA:  69    -0.705314930428E+03   -0.19014E-01   -0.19081E-01  8424   0.531E+00 0.569E-01
CGA:  70    -0.705337292514E+03   -0.22362E-01   -0.22241E-01  8424   0.487E+00 0.402E-01
CGA:  71    -0.705355158516E+03   -0.17866E-01   -0.17903E-01  8424   0.350E+00 0.403E-01
CGA:  72    -0.705368104425E+03   -0.12946E-01   -0.12972E-01  8424   0.278E+00 0.259E-01
CGA:  73    -0.705383366116E+03   -0.15262E-01   -0.14765E-01  8424   0.262E+00 0.267E-01
CGA:  74    -0.705396604519E+03   -0.13238E-01   -0.13038E-01  8424   0.152E+00 0.134E-01
CGA:  75    -0.705405175614E+03   -0.85711E-02   -0.84120E-02  8424   0.927E-01 0.562E-02
CGA:  76    -0.705412161830E+03   -0.69862E-02   -0.70211E-02  8424   0.760E-01-0.150E-02
CGA:  77    -0.705417755862E+03   -0.55940E-02   -0.54301E-02  8424   0.568E-01 0.451E-02
CGA:  78    -0.705422287176E+03   -0.45313E-02   -0.42236E-02  8424   0.375E-01 0.102E-01
CGA:  79    -0.705425305660E+03   -0.30185E-02   -0.28130E-02  8424   0.172E-01 0.931E-02
CGA:  80    -0.705427062837E+03   -0.17572E-02   -0.16286E-02  8424   0.129E-01 0.387E-02
CGA:  81    -0.705429115749E+03   -0.20529E-02   -0.21984E-02  8424   0.167E-01-0.152E-02
SDA:  82    -0.705430441239E+03   -0.13255E-02   -0.15614E-02  8424   0.148E-01-0.415E-02
CGA:  83    -0.705431883759E+03   -0.14425E-02   -0.13904E-02  8424   0.367E-02 0.122E-02
CGA:  84    -0.705432579824E+03   -0.69607E-03   -0.71193E-03  8424   0.296E-02-0.134E-03
CGA:  85    -0.705433031035E+03   -0.45121E-03   -0.71077E-03  8424   0.560E-02-0.134E-02
CGA:  86    -0.705432862918E+03    0.16812E-03   -0.91402E-03  8424   0.681E-02-0.481E-02
CGA:  87    -0.705433831644E+03   -0.96873E-03   -0.91656E-03  8424   0.382E-02 0.973E-03
CGA:  88    -0.705434594612E+03   -0.76297E-03   -0.75650E-03  8424   0.164E-02 0.663E-04
CGA:  89    -0.705434812922E+03   -0.21831E-03   -0.32678E-03  8424   0.195E-02-0.101E-02
CGA:  90    -0.705434983696E+03   -0.17077E-03   -0.16999E-03  8424   0.543E-03-0.124E-03
CGA:  91    -0.705434816435E+03    0.16726E-03   -0.11517E-03  8424   0.602E-02-0.916E-03
CGA:  92    -0.705435298216E+03   -0.48178E-03   -0.45605E-03  8424   0.773E-03-0.298E-03
CGA:  93    -0.705435428206E+03   -0.12999E-03   -0.13397E-03  8424   0.687E-03-0.241E-03
CGA:  94    -0.705435518379E+03   -0.90174E-04   -0.13255E-03  8424   0.781E-03-0.372E-03
CGA:  95    -0.705435601049E+03   -0.82670E-04   -0.83928E-04  8424   0.375E-03 0.215E-04
CGA:  96    -0.705435680807E+03   -0.79758E-04   -0.97871E-04  8424   0.412E-03-0.213E-03
CGA:  97    -0.705435735540E+03   -0.54732E-04   -0.48708E-04  8424   0.281E-03-0.109E-03
CGA:  98    -0.705435811541E+03   -0.76001E-04    0.22417E-03  8424   0.128E-03-0.444E-05
CGA:  99    -0.705435726745E+03    0.84796E-04   -0.90059E-04  8424   0.272E-02-0.319E-03
CGA: 100    -0.705435983264E+03   -0.25652E-03   -0.23825E-03  8424   0.164E-03-0.174E-03
CGA: 101    -0.705435991210E+03   -0.79459E-05   -0.46453E-04  8424   0.143E-02-0.348E-03
CGA: 102    -0.705436057708E+03   -0.66497E-04   -0.78589E-04  8424   0.355E-04 0.984E-04
CGA: 103    -0.705436056409E+03    0.12989E-05   -0.19431E-05  8424   0.191E-04 0.233E-04
   1 F= -.70543606E+03 E0= -.70542451E+03  d E =-.705436E+03  mag=     0.8590
       N       E                     dE             d eps       ncg     rms          ort
SDA:   1    -0.705439252079E+03   -0.31944E-02    0.00000E+00  8424   0.205E-02 0.000E+00
CGA:   2    -0.705439552945E+03   -0.30087E-03   -0.29851E-03  8424   0.155E-02-0.705E-04
CGA:   3    -0.705439744482E+03   -0.19154E-03   -0.19056E-03  8424   0.462E-03-0.168E-04
CGA:   4    -0.705439838804E+03   -0.94322E-04   -0.98814E-04  8424   0.212E-03-0.116E-03
CGA:   5    -0.705439859464E+03   -0.20660E-04   -0.20777E-04  8424   0.577E-04 0.237E-05
CGA:   6    -0.705439868774E+03   -0.93100E-05   -0.92456E-05  8424   0.222E-04-0.355E-05
   2 F= -.70543987E+03 E0= -.70542855E+03  d E =-.381237E-02  mag=     0.8797
       N       E                     dE             d eps       ncg     rms          ort
SDA:   1    -0.704834485045E+03    0.60537E+00    0.00000E+00  8424   0.212E+01 0.000E+00
CGA:   2    -0.705296393301E+03   -0.46191E+00   -0.46161E+00  8424   0.981E+00 0.489E-02
CGA:   3    -0.705480943113E+03   -0.18455E+00   -0.18457E+00  8424   0.311E+00-0.163E-02
CGA:   4    -0.705529601425E+03   -0.48658E-01   -0.48673E-01  8424   0.102E+00 0.122E-03
CGA:   5    -0.705541721709E+03   -0.12120E-01   -0.12098E-01  8424   0.373E-01 0.899E-03
CGA:   6    -0.705546173726E+03   -0.44520E-02   -0.44763E-02  8424   0.909E-02 0.233E-03
CGA:   7    -0.705547707864E+03   -0.15341E-02   -0.15346E-02  8424   0.322E-02 0.106E-03
CGA:   8    -0.705548235150E+03   -0.52729E-03   -0.52643E-03  8424   0.159E-02-0.847E-04
CGA:   9    -0.705548463154E+03   -0.22800E-03   -0.22870E-03  8424   0.756E-03 0.291E-04
CGA:  10    -0.705548585232E+03   -0.12208E-03   -0.12120E-03  8424   0.446E-03-0.725E-04
CGA:  11    -0.705548647338E+03   -0.62106E-04   -0.61754E-04  8424   0.164E-03-0.222E-04
CGA:  12    -0.705548679995E+03   -0.32657E-04   -0.33108E-04  8424   0.991E-04-0.103E-04
CGA:  13    -0.705548689189E+03   -0.91936E-05   -0.10005E-04  8424   0.330E-04 0.129E-04
CGA:  14    -0.705548697816E+03   -0.86269E-05   -0.11240E-04  8424   0.450E-04-0.195E-04
   3 F= -.70554870E+03 E0= -.70553744E+03  d E =-.108829E+00  mag=     0.8854
       N       E                     dE             d eps       ncg     rms          ort
SDA:   1    -0.703606696501E+03    0.19420E+01    0.00000E+00  8424   0.579E+01 0.000E+00
CGA:   2    -0.704985060205E+03   -0.13784E+01   -0.13754E+01  8424   0.293E+01 0.327E-01
CGA:   3    -0.705469678877E+03   -0.48462E+00   -0.48433E+00  8424   0.119E+01-0.155E-01
CGA:   4    -0.705602938916E+03   -0.13326E+00   -0.13600E+00  8424   0.446E+00-0.377E-02
CGA:   5    -0.705658352953E+03   -0.55414E-01   -0.55082E-01  8424   0.102E+00 0.527E-03
CGA:   6    -0.705673528225E+03   -0.15175E-01   -0.15182E-01  8424   0.283E-01 0.627E-03
CGA:   7    -0.705677736531E+03   -0.42083E-02   -0.42187E-02  8424   0.124E-01 0.427E-03
CGA:   8    -0.705679516229E+03   -0.17797E-02   -0.17772E-02  8424   0.606E-02-0.128E-03
CGA:   9    -0.705680319563E+03   -0.80333E-03   -0.80475E-03  8424   0.255E-02 0.558E-04
CGA:  10    -0.705680820190E+03   -0.50063E-03   -0.50190E-03  8424   0.109E-02-0.400E-04
CGA:  11    -0.705681001808E+03   -0.18162E-03   -0.18180E-03  8424   0.727E-03-0.418E-04
CGA:  12    -0.705681103626E+03   -0.10182E-03   -0.10109E-03  8424   0.333E-03-0.367E-04
CGA:  13    -0.705681138688E+03   -0.35062E-04   -0.37320E-04  8424   0.109E-03 0.489E-04
CGA:  14    -0.705681165397E+03   -0.26709E-04   -0.26189E-04  8424   0.296E-04 0.107E-04
CGA:  15    -0.705681176730E+03   -0.11333E-04    0.42743E-04  8424   0.153E-04 0.418E-05
CGA:  16    -0.705681182936E+03   -0.62052E-05    0.17968E-04  8424   0.614E-05 0.336E-05
   4 F= -.70568118E+03 E0= -.70566990E+03  d E =-.132485E+00  mag=     0.8816
       N       E                     dE             d eps       ncg     rms          ort
SDA:   1    -0.704471799494E+03    0.12094E+01    0.00000E+00  8424   0.356E+01 0.000E+00
CGA:   2    -0.705303777013E+03   -0.83198E+00   -0.83102E+00  8424   0.187E+01 0.100E-01
CGA:   3    -0.705616382865E+03   -0.31261E+00   -0.31260E+00  8424   0.873E+00-0.918E-02
CGA:   4    -0.705705201543E+03   -0.88819E-01   -0.90391E-01  8424   0.274E+00-0.596E-02
CGA:   5    -0.705741361989E+03   -0.36160E-01   -0.36137E-01  8424   0.634E-01 0.677E-03
CGA:   6    -0.705750724169E+03   -0.93622E-02   -0.93627E-02  8424   0.174E-01 0.224E-03
CGA:   7    -0.705753186714E+03   -0.24625E-02   -0.24683E-02  8424   0.834E-02 0.220E-03
CGA:   8    -0.705754310022E+03   -0.11233E-02   -0.11220E-02  8424   0.350E-02-0.676E-04
CGA:   9    -0.705754779392E+03   -0.46937E-03   -0.47076E-03  8424   0.135E-02 0.610E-04
CGA:  10    -0.705755053368E+03   -0.27398E-03   -0.27377E-03  8424   0.598E-03 0.476E-05
CGA:  11    -0.705755146137E+03   -0.92769E-04   -0.92651E-04  8424   0.433E-03-0.219E-04
CGA:  12    -0.705755208581E+03   -0.62443E-04   -0.62086E-04  8424   0.189E-03-0.340E-04
CGA:  13    -0.705755227501E+03   -0.18920E-04   -0.20474E-04  8424   0.582E-04 0.375E-04
CGA:  14    -0.705755241932E+03   -0.14431E-04   -0.13747E-04  8424   0.145E-04 0.169E-04
CGA:  15    -0.705755250021E+03   -0.80890E-05    0.41113E-05  8424   0.890E-05 0.587E-05
CGA:  16    -0.705755213621E+03    0.36400E-04   -0.19620E-04  8424   0.515E-03-0.580E-04
CGA:  17    -0.705755243990E+03   -0.30369E-04   -0.31737E-04  8424   0.575E-04 0.448E-05
CGA:  18    -0.705755249362E+03   -0.53722E-05   -0.84894E-05  8424   0.190E-04 0.236E-04
   5 F= -.70575525E+03 E0= -.70574395E+03  d E =-.740664E-01  mag=     0.8774
       N       E                     dE             d eps       ncg     rms          ort
SDA:   1    -0.701692811214E+03    0.40624E+01    0.00000E+00  8424   0.112E+02 0.000E+00
CGA:   2    -0.704482379029E+03   -0.27896E+01   -0.27901E+01  8424   0.566E+01 0.110E-01
CGA:   3    -0.705509262441E+03   -0.10269E+01   -0.10208E+01  8424   0.164E+01 0.518E-02
CGA:   4    -0.705727596331E+03   -0.21833E+00   -0.21859E+00  8424   0.646E+00-0.168E-02
CGA:   5    -0.705795288412E+03   -0.67692E-01   -0.70168E-01  8424   0.216E+00-0.173E-01
CGA:   6    -0.705822782633E+03   -0.27494E-01   -0.27387E-01  8424   0.457E-01 0.437E-03
CGA:   7    -0.705831098991E+03   -0.83164E-02   -0.82888E-02  8424   0.201E-01-0.290E-03
CGA:   8    -0.705833517822E+03   -0.24188E-02   -0.24462E-02  8424   0.914E-02 0.112E-03
CGA:   9    -0.705834837135E+03   -0.13193E-02   -0.13291E-02  8424   0.444E-02 0.887E-04
CGA:  10    -0.705835515954E+03   -0.67882E-03   -0.68605E-03  8424   0.181E-02 0.857E-04
CGA:  11    -0.705835862599E+03   -0.34664E-03   -0.34714E-03  8424   0.106E-02 0.125E-04
CGA:  12    -0.705836003736E+03   -0.14114E-03   -0.14361E-03  8424   0.591E-03 0.291E-04
CGA:  13    -0.705836099737E+03   -0.96000E-04   -0.95426E-04  8424   0.280E-03-0.937E-05
CGA:  14    -0.705836140585E+03   -0.40849E-04   -0.41103E-04  8424   0.102E-03 0.337E-05
CGA:  15    -0.705836162443E+03   -0.21857E-04   -0.21798E-04  8424   0.103E-03-0.244E-04
CGA:  16    -0.705836168401E+03   -0.59587E-05   -0.66055E-05  8424   0.263E-04 0.499E-05
   6 F= -.70583617E+03 E0= -.70582478E+03  d E =-.809190E-01  mag=     0.8616
       N       E                     dE             d eps       ncg     rms          ort
SDA:   1    -0.702918940876E+03    0.29172E+01    0.00000E+00  8424   0.909E+01 0.000E+00
CGA:   2    -0.704784950087E+03   -0.18660E+01   -0.18658E+01  8424   0.402E+01 0.266E-01
CGA:   3    -0.705606356515E+03   -0.82141E+00   -0.82148E+00  8424   0.136E+01-0.124E-01
CGA:   4    -0.705802510493E+03   -0.19615E+00   -0.19723E+00  8424   0.442E+00 0.290E-02
CGA:   5    -0.705853072480E+03   -0.50562E-01   -0.50361E-01  8424   0.178E+00 0.650E-03
CGA:   6    -0.705873655133E+03   -0.20583E-01   -0.20578E-01  8424   0.370E-01-0.543E-03
CGA:   7    -0.705880383581E+03   -0.67284E-02   -0.67250E-02  8424   0.135E-01-0.497E-03
CGA:   8    -0.705882312972E+03   -0.19294E-02   -0.19345E-02  8424   0.607E-02 0.992E-04
CGA:   9    -0.705883119503E+03   -0.80653E-03   -0.81944E-03  8424   0.301E-02 0.249E-03
CGA:  10    -0.705883538320E+03   -0.41882E-03   -0.42154E-03  8424   0.113E-02 0.529E-04
CGA:  11    -0.705883760792E+03   -0.22247E-03   -0.22235E-03  8424   0.561E-03 0.895E-05
CGA:  12    -0.705883854011E+03   -0.93219E-04   -0.93544E-04  8424   0.348E-03 0.190E-04
CGA:  13    -0.705883896137E+03   -0.42126E-04   -0.44453E-04  8424   0.142E-03 0.397E-04
CGA:  14    -0.705883925046E+03   -0.28909E-04   -0.28940E-04  8424   0.820E-04-0.691E-05
CGA:  15    -0.705883938039E+03   -0.12994E-04   -0.12858E-04  8424   0.348E-04-0.954E-05
CGA:  16    -0.705883940565E+03   -0.25256E-05   -0.32512E-05  8424   0.147E-04 0.996E-05
   7 F= -.70588394E+03 E0= -.70587253E+03  d E =-.477722E-01  mag=     0.8413
       N       E                     dE             d eps       ncg     rms          ort
SDA:   1    -0.705285241383E+03    0.59870E+00    0.00000E+00  8424   0.198E+01 0.000E+00
CGA:   2    -0.705681126649E+03   -0.39589E+00   -0.39567E+00  8424   0.906E+00 0.491E-02
CGA:   3    -0.705843206466E+03   -0.16208E+00   -0.16214E+00  8424   0.503E+00-0.451E-02
CGA:   4    -0.705892866093E+03   -0.49660E-01   -0.50092E-01  8424   0.144E+00-0.284E-02
CGA:   5    -0.705913184060E+03   -0.20318E-01   -0.20305E-01  8424   0.352E-01-0.817E-04
CGA:   6    -0.705918579267E+03   -0.53952E-02   -0.53969E-02  8424   0.934E-02 0.297E-04
CGA:   7    -0.705919788848E+03   -0.12096E-02   -0.12107E-02  8424   0.461E-02 0.555E-04
CGA:   8    -0.705920357812E+03   -0.56896E-03   -0.56822E-03  8424   0.144E-02-0.266E-04
CGA:   9    -0.705920603631E+03   -0.24582E-03   -0.24561E-03  8424   0.606E-03 0.222E-04
CGA:  10    -0.705920708648E+03   -0.10502E-03   -0.10526E-03  8424   0.352E-03-0.292E-04
CGA:  11    -0.705920748060E+03   -0.39412E-04   -0.39427E-04  8424   0.156E-03 0.209E-06
CGA:  12    -0.705920779432E+03   -0.31372E-04   -0.32020E-04  8424   0.848E-04-0.146E-04
CGA:  13    -0.705920790769E+03   -0.11337E-04   -0.11356E-04  8424   0.350E-04 0.122E-05
CGA:  14    -0.705920797213E+03   -0.64444E-05   -0.64939E-05  8424   0.264E-04-0.242E-05
   8 F= -.70592080E+03 E0= -.70590937E+03  d E =-.368566E-01  mag=     0.8437
       N       E                     dE             d eps       ncg     rms          ort
SDA:   1    -0.705777873563E+03    0.14292E+00    0.00000E+00  8424   0.454E+00 0.000E+00
CGA:   2    -0.705883572171E+03   -0.10570E+00   -0.10570E+00  8424   0.258E+00-0.651E-04
CGA:   3    -0.705922399009E+03   -0.38827E-01   -0.38830E-01  8424   0.126E+00 0.400E-03
CGA:   4    -0.705935215312E+03   -0.12816E-01   -0.12855E-01  8424   0.331E-01-0.923E-04
CGA:   5    -0.705940038073E+03   -0.48228E-02   -0.48231E-02  8424   0.789E-02 0.416E-04
CGA:   6    -0.705941235806E+03   -0.11977E-02   -0.11972E-02  8424   0.247E-02-0.808E-04
CGA:   7    -0.705941524603E+03   -0.28880E-03   -0.28914E-03  8424   0.106E-02 0.874E-05
CGA:   8    -0.705941671500E+03   -0.14690E-03   -0.14662E-03  8424   0.391E-03-0.161E-04
CGA:   9    -0.705941727451E+03   -0.55952E-04   -0.56153E-04  8424   0.151E-03 0.202E-04
CGA:  10    -0.705941757739E+03   -0.30288E-04   -0.30142E-04  8424   0.820E-04 0.430E-05
CGA:  11    -0.705941766203E+03   -0.84639E-05   -0.90975E-05  8424   0.347E-04 0.129E-04
   9 F= -.70594177E+03 E0= -.70593037E+03  d E =-.209690E-01  mag=     0.8402
       N       E                     dE             d eps       ncg     rms          ort
SDA:   1    -0.705268756839E+03    0.67300E+00    0.00000E+00  8424   0.185E+01 0.000E+00
CGA:   2    -0.705750211136E+03   -0.48145E+00   -0.48055E+00  8424   0.115E+01 0.759E-02
CGA:   3    -0.705908706685E+03   -0.15850E+00   -0.15811E+00  8424   0.515E+00-0.542E-02
CGA:   4    -0.705960760211E+03   -0.52054E-01   -0.52269E-01  8424   0.124E+00-0.504E-03
CGA:   5    -0.705979439723E+03   -0.18680E-01   -0.18679E-01  8424   0.299E-01 0.760E-04
CGA:   6    -0.705984085547E+03   -0.46458E-02   -0.46456E-02  8424   0.873E-02-0.184E-03
CGA:   7    -0.705985174937E+03   -0.10894E-02   -0.10897E-02  8424   0.437E-02 0.132E-04
CGA:   8    -0.705985734367E+03   -0.55943E-03   -0.55889E-03  8424   0.138E-02-0.248E-04
CGA:   9    -0.705985965125E+03   -0.23076E-03   -0.23015E-03  8424   0.590E-03 0.434E-04
CGA:  10    -0.705986076473E+03   -0.11135E-03   -0.11056E-03  8424   0.310E-03 0.291E-04
CGA:  11    -0.705986117099E+03   -0.40626E-04   -0.41233E-04  8424   0.178E-03 0.208E-04
CGA:  12    -0.705986152248E+03   -0.35149E-04   -0.35309E-04  8424   0.832E-04-0.521E-05
CGA:  13    -0.705986165684E+03   -0.13435E-04   -0.13394E-04  8424   0.420E-04 0.422E-05
CGA:  14    -0.705986172933E+03   -0.72495E-05   -0.72861E-05  8424   0.301E-04-0.421E-05
  10 F= -.70598617E+03 E0= -.70597485E+03  d E =-.444067E-01  mag=     0.8322
       N       E                     dE             d eps       ncg     rms          ort
SDA:   1    -0.703900821624E+03    0.20853E+01    0.00000E+00  8424   0.558E+01 0.000E+00
CGA:   2    -0.705324088853E+03   -0.14233E+01   -0.14218E+01  8424   0.319E+01 0.120E-01
CGA:   3    -0.705872589243E+03   -0.54850E+00   -0.54856E+00  8424   0.108E+01-0.223E-02
CGA:   4    -0.705986538597E+03   -0.11395E+00   -0.11476E+00  8424   0.383E+00-0.266E-02
CGA:   5    -0.706032090869E+03   -0.45552E-01   -0.45475E-01  8424   0.934E-01-0.219E-03
CGA:   6    -0.706046641954E+03   -0.14551E-01   -0.14551E-01  8424   0.233E-01-0.229E-03
CGA:   7    -0.706050250673E+03   -0.36087E-02   -0.36087E-02  8424   0.118E-01 0.438E-04
CGA:   8    -0.706051572906E+03   -0.13222E-02   -0.13219E-02  8424   0.405E-02-0.230E-04
CGA:   9    -0.706052207624E+03   -0.63472E-03   -0.63441E-03  8424   0.178E-02 0.777E-04
CGA:  10    -0.706052519219E+03   -0.31160E-03   -0.31105E-03  8424   0.775E-03 0.301E-04
CGA:  11    -0.706052650089E+03   -0.13087E-03   -0.13076E-03  8424   0.558E-03 0.905E-05
CGA:  12    -0.706052728020E+03   -0.77931E-04   -0.77501E-04  8424   0.261E-03-0.252E-04
CGA:  13    -0.706052772534E+03   -0.44513E-04   -0.44654E-04  8424   0.126E-03-0.566E-05
CGA:  14    -0.706052792745E+03   -0.20212E-04   -0.20298E-04  8424   0.691E-04-0.907E-05
CGA:  15    -0.706052800879E+03   -0.81337E-05   -0.80329E-05  8424   0.288E-04-0.343E-05
  11 F= -.70605280E+03 E0= -.70604169E+03  d E =-.666279E-01  mag=     0.8229
       N       E                     dE             d eps       ncg     rms          ort
SDA:   1    -0.705338527605E+03    0.71427E+00    0.00000E+00  8424   0.213E+01 0.000E+00
CGA:   2    -0.705797530679E+03   -0.45900E+00   -0.45878E+00  8424   0.102E+01 0.321E-02
CGA:   3    -0.705998781350E+03   -0.20125E+00   -0.20134E+00  8424   0.362E+00-0.172E-02
CGA:   4    -0.706043549021E+03   -0.44768E-01   -0.44854E-01  8424   0.138E+00 0.495E-04
CGA:   5    -0.706058546018E+03   -0.14997E-01   -0.14966E-01  8424   0.375E-01 0.121E-03
CGA:   6    -0.706064137683E+03   -0.55917E-02   -0.55914E-02  8424   0.846E-02-0.576E-04
CGA:   7    -0.706065556202E+03   -0.14185E-02   -0.14178E-02  8424   0.373E-02 0.685E-04
CGA:   8    -0.706065989714E+03   -0.43351E-03   -0.43286E-03  8424   0.150E-02-0.187E-04
CGA:   9    -0.706066221310E+03   -0.23160E-03   -0.23162E-03  8424   0.620E-03 0.191E-04
CGA:  10    -0.706066322695E+03   -0.10138E-03   -0.10151E-03  8424   0.283E-03-0.224E-04
CGA:  11    -0.706066367724E+03   -0.45029E-04   -0.45014E-04  8424   0.158E-03 0.157E-05
CGA:  12    -0.706066391005E+03   -0.23281E-04   -0.23183E-04  8424   0.975E-04-0.962E-05
CGA:  13    -0.706066403748E+03   -0.12743E-04   -0.12850E-04  8424   0.285E-04 0.682E-05
CGA:  14    -0.706066410587E+03   -0.68387E-05   -0.67594E-05  8424   0.145E-04 0.118E-05
  12 F= -.70606641E+03 E0= -.70605511E+03  d E =-.136097E-01  mag=     0.8254
       N       E                     dE             d eps       ncg     rms          ort
SDA:   1    -0.705840500355E+03    0.22590E+00    0.00000E+00  8424   0.595E+00 0.000E+00
CGA:   2    -0.705979661477E+03   -0.13916E+00   -0.13920E+00  8424   0.324E+00-0.498E-03
CGA:   3    -0.706035376046E+03   -0.55715E-01   -0.55697E-01  8424   0.130E+00 0.703E-03
CGA:   4    -0.706048775067E+03   -0.13399E-01   -0.13356E-01  8424   0.418E-01 0.952E-04
CGA:   5    -0.706054268468E+03   -0.54934E-02   -0.54914E-02  8424   0.103E-01-0.122E-03
CGA:   6    -0.706055832765E+03   -0.15643E-02   -0.15646E-02  8424   0.262E-02 0.659E-04
CGA:   7    -0.706056224427E+03   -0.39166E-03   -0.39139E-03  8424   0.132E-02-0.359E-04
CGA:   8    -0.706056370308E+03   -0.14588E-03   -0.14653E-03  8424   0.436E-03 0.152E-04
CGA:   9    -0.706056444522E+03   -0.74214E-04   -0.74334E-04  8424   0.198E-03-0.837E-05
CGA:  10    -0.706056478157E+03   -0.33635E-04   -0.33730E-04  8424   0.875E-04-0.505E-05
CGA:  11    -0.706056493705E+03   -0.15548E-04   -0.16005E-04  8424   0.842E-04-0.142E-04
CGA:  12    -0.706056501324E+03   -0.76190E-05   -0.75967E-05  8424   0.238E-04-0.488E-06
  13 F= -.70605650E+03 E0= -.70604521E+03  d E =0.990926E-02  mag=     0.8272
       N       E                     dE             d eps       ncg     rms          ort
SDA:   1    -0.705827254421E+03    0.22924E+00    0.00000E+00  8424   0.701E+00 0.000E+00
CGA:   2    -0.705963866661E+03   -0.13661E+00   -0.13659E+00  8424   0.315E+00 0.607E-03
CGA:   3    -0.706028055230E+03   -0.64189E-01   -0.64172E-01  8424   0.142E+00 0.211E-03
CGA:   4    -0.706044247358E+03   -0.16192E-01   -0.16182E-01  8424   0.527E-01 0.935E-04
CGA:   5    -0.706050229733E+03   -0.59824E-02   -0.59826E-02  8424   0.125E-01-0.108E-03
CGA:   6    -0.706052103373E+03   -0.18736E-02   -0.18739E-02  8424   0.305E-02 0.194E-04
CGA:   7    -0.706052576906E+03   -0.47353E-03   -0.47330E-03  8424   0.148E-02-0.592E-04
CGA:   8    -0.706052739159E+03   -0.16225E-03   -0.16298E-03  8424   0.486E-03 0.158E-04
CGA:   9    -0.706052812971E+03   -0.73812E-04   -0.73858E-04  8424   0.215E-03 0.787E-05
CGA:  10    -0.706052845002E+03   -0.32031E-04   -0.32136E-04  8424   0.651E-04 0.120E-04
CGA:  11    -0.706052860640E+03   -0.15638E-04   -0.17346E-04  8424   0.797E-04-0.177E-04
CGA:  12    -0.706052864975E+03   -0.43349E-05   -0.45232E-05  8424   0.255E-04 0.225E-05
  14 F= -.70605286E+03 E0= -.70604160E+03  d E =0.363635E-02  mag=     0.8280
       N       E                     dE             d eps       ncg     rms          ort
SDA:   1    -0.705997494870E+03    0.55366E-01    0.00000E+00  8424   0.205E+00 0.000E+00
CGA:   2    -0.706037029080E+03   -0.39534E-01   -0.39515E-01  8424   0.102E+00 0.458E-03
CGA:   3    -0.706053834254E+03   -0.16805E-01   -0.16804E-01  8424   0.628E-01 0.490E-04
CGA:   4    -0.706060312761E+03   -0.64785E-02   -0.64749E-02  8424   0.146E-01 0.159E-03
CGA:   5    -0.706062542013E+03   -0.22293E-02   -0.22293E-02  8424   0.341E-02 0.671E-05
CGA:   6    -0.706063066828E+03   -0.52482E-03   -0.52482E-03  8424   0.112E-02-0.545E-05
CGA:   7    -0.706063198217E+03   -0.13139E-03   -0.13023E-03  8424   0.503E-03-0.329E-04
CGA:   8    -0.706063263537E+03   -0.65320E-04   -0.65403E-04  8424   0.132E-03 0.464E-05
CGA:   9    -0.706063287860E+03   -0.24322E-04   -0.24401E-04  8424   0.649E-04-0.246E-05
CGA:  10    -0.706063295837E+03   -0.79769E-05   -0.81074E-05  8424   0.247E-04 0.522E-05
  15 F= -.70606330E+03 E0= -.70605201E+03  d E =-.104309E-01  mag=     0.8283
       N       E                     dE             d eps       ncg     rms          ort
SDA:   1    -0.706031328487E+03    0.31959E-01    0.00000E+00  8424   0.976E-01 0.000E+00
CGA:   2    -0.706051527314E+03   -0.20199E-01   -0.20199E-01  8424   0.874E-01-0.619E-04
CGA:   3    -0.706061326919E+03   -0.97996E-02   -0.97912E-02  8424   0.314E-01 0.185E-03
CGA:   4    -0.706065766071E+03   -0.44392E-02   -0.44406E-02  8424   0.540E-02 0.109E-03
CGA:   5    -0.706066640513E+03   -0.87444E-03   -0.87454E-03  8424   0.174E-02-0.122E-04
CGA:   6    -0.706066860093E+03   -0.21958E-03   -0.21813E-03  8424   0.689E-03-0.544E-04
CGA:   7    -0.706066933239E+03   -0.73147E-04   -0.73533E-04  8424   0.201E-03 0.916E-05
CGA:   8    -0.706066965668E+03   -0.32428E-04   -0.32396E-04  8424   0.645E-04 0.334E-05
CGA:   9    -0.706066977381E+03   -0.11713E-04   -0.11761E-04  8424   0.293E-04-0.167E-05
CGA:  10    -0.706066981768E+03   -0.43875E-05   -0.43863E-05  8424   0.178E-04 0.402E-06
  16 F= -.70606698E+03 E0= -.70605568E+03  d E =-.368593E-02  mag=     0.8281
       N       E                     dE             d eps       ncg     rms          ort
SDA:   1    -0.705504220164E+03    0.56276E+00    0.00000E+00  8424   0.150E+01 0.000E+00
CGA:   2    -0.705874792275E+03   -0.37057E+00   -0.37042E+00  8424   0.834E+00 0.131E-02
CGA:   3    -0.706035237623E+03   -0.16045E+00   -0.16044E+00  8424   0.204E+00 0.261E-03
CGA:   4    -0.706065443052E+03   -0.30205E-01   -0.30211E-01  8424   0.574E-01 0.409E-03
CGA:   5    -0.706072581006E+03   -0.71380E-02   -0.71329E-02  8424   0.242E-01-0.237E-03
CGA:   6    -0.706075190066E+03   -0.26091E-02   -0.26065E-02  8424   0.593E-02-0.423E-04
CGA:   7    -0.706076269710E+03   -0.10796E-02   -0.10827E-02  8424   0.179E-02-0.961E-04
CGA:   8    -0.706076523652E+03   -0.25394E-03   -0.25432E-03  8424   0.843E-03 0.418E-04
CGA:   9    -0.706076644334E+03   -0.12068E-03   -0.12096E-03  8424   0.389E-03 0.219E-04
CGA:  10    -0.706076693769E+03   -0.49435E-04   -0.50054E-04  8424   0.161E-03 0.229E-04
CGA:  11    -0.706076730729E+03   -0.36961E-04   -0.37904E-04  8424   0.852E-04-0.133E-04
CGA:  12    -0.706076742758E+03   -0.12029E-04   -0.12031E-04  8424   0.506E-04 0.371E-05
CGA:  13    -0.706076751954E+03   -0.91963E-05   -0.93563E-05  8424   0.359E-04-0.699E-05
  17 F= -.70607675E+03 E0= -.70606542E+03  d E =-.977019E-02  mag=     0.8274
       N       E                     dE             d eps       ncg     rms          ort
SDA:   1    -0.704009962408E+03    0.20668E+01    0.00000E+00  8424   0.541E+01 0.000E+00
CGA:   2    -0.705362607746E+03   -0.13526E+01   -0.13520E+01  8424   0.306E+01 0.574E-02
CGA:   3    -0.705919694833E+03   -0.55709E+00   -0.55693E+00  8424   0.924E+00 0.415E-02
CGA:   4    -0.706025179369E+03   -0.10548E+00   -0.10513E+00  8424   0.343E+00-0.174E-02
CGA:   5    -0.706063595768E+03   -0.38416E-01   -0.38427E-01  8424   0.886E-01-0.425E-03
CGA:   6    -0.706076929417E+03   -0.13334E-01   -0.13335E-01  8424   0.219E-01 0.159E-03
CGA:   7    -0.706080497320E+03   -0.35679E-02   -0.35695E-02  8424   0.102E-01-0.157E-03
CGA:   8    -0.706081622201E+03   -0.11249E-02   -0.11285E-02  8424   0.365E-02 0.828E-04
CGA:   9    -0.706082179705E+03   -0.55750E-03   -0.55756E-03  8424   0.164E-02 0.527E-04
CGA:  10    -0.706082450751E+03   -0.27105E-03   -0.27068E-03  8424   0.634E-03 0.350E-04
CGA:  11    -0.706082578222E+03   -0.12747E-03   -0.12886E-03  8424   0.518E-03-0.302E-04
CGA:  12    -0.706082633415E+03   -0.55193E-04   -0.55249E-04  8424   0.196E-03 0.103E-05
CGA:  13    -0.706082675875E+03   -0.42460E-04   -0.42945E-04  8424   0.101E-03-0.751E-05
CGA:  14    -0.706082689745E+03   -0.13870E-04   -0.13831E-04  8424   0.349E-04-0.284E-05
CGA:  15    -0.706082696828E+03   -0.70823E-05   -0.74951E-05  8424   0.279E-04-0.634E-05
  18 F= -.70608270E+03 E0= -.70607145E+03  d E =-.594487E-02  mag=     0.8235
       N       E                     dE             d eps       ncg     rms          ort
SDA:   1    -0.705286976028E+03    0.79571E+00    0.00000E+00  8424   0.211E+01 0.000E+00
CGA:   2    -0.705798813621E+03   -0.51184E+00   -0.51170E+00  8424   0.115E+01 0.130E-02
CGA:   3    -0.706023527193E+03   -0.22471E+00   -0.22477E+00  8424   0.287E+00-0.145E-02
CGA:   4    -0.706067011490E+03   -0.43484E-01   -0.43487E-01  8424   0.747E-01 0.131E-03
CGA:   5    -0.706077003166E+03   -0.99917E-02   -0.99927E-02  8424   0.314E-01 0.199E-03
CGA:   6    -0.706080205272E+03   -0.32021E-02   -0.32082E-02  8424   0.851E-02 0.417E-04
CGA:   7    -0.706081679713E+03   -0.14744E-02   -0.14724E-02  8424   0.219E-02 0.121E-03
CGA:   8    -0.706082066314E+03   -0.38660E-03   -0.38730E-03  8424   0.123E-02-0.402E-04
CGA:   9    -0.706082216552E+03   -0.15024E-03   -0.15026E-03  8424   0.525E-03 0.191E-07
CGA:  10    -0.706082295815E+03   -0.79262E-04   -0.79152E-04  8424   0.278E-03-0.204E-04
CGA:  11    -0.706082339746E+03   -0.43931E-04   -0.43945E-04  8424   0.103E-03-0.163E-05
CGA:  12    -0.706082360241E+03   -0.20495E-04   -0.20182E-04  8424   0.657E-04 0.768E-05
CGA:  13    -0.706082367625E+03   -0.73845E-05   -0.77327E-05  8424   0.240E-04 0.707E-05
  19 F= -.70608237E+03 E0= -.70607107E+03  d E =0.329203E-03  mag=     0.8247
       N       E                     dE             d eps       ncg     rms          ort
SDA:   1    -0.705964580190E+03    0.11778E+00    0.00000E+00  8424   0.397E+00 0.000E+00
CGA:   2    -0.706035940649E+03   -0.71360E-01   -0.71359E-01  8424   0.185E+00 0.924E-04
CGA:   3    -0.706064191044E+03   -0.28250E-01   -0.28251E-01  8424   0.122E+00 0.192E-03
CGA:   4    -0.706077845606E+03   -0.13655E-01   -0.13667E-01  8424   0.275E-01-0.104E-03
CGA:   5    -0.706082263476E+03   -0.44179E-02   -0.44176E-02  8424   0.686E-02 0.108E-03
CGA:   6    -0.706083251122E+03   -0.98765E-03   -0.98738E-03  8424   0.249E-02-0.189E-04
CGA:   7    -0.706083519627E+03   -0.26851E-03   -0.26872E-03  8424   0.849E-03 0.394E-05
CGA:   8    -0.706083652221E+03   -0.13259E-03   -0.13261E-03  8424   0.305E-03-0.284E-04
CGA:   9    -0.706083692738E+03   -0.40518E-04   -0.40787E-04  8424   0.120E-03 0.157E-04
CGA:  10    -0.706083713699E+03   -0.20961E-04   -0.20937E-04  8424   0.585E-04 0.209E-05
CGA:  11    -0.706083720760E+03   -0.70605E-05   -0.70608E-05  8424   0.261E-04-0.785E-08
  20 F= -.70608372E+03 E0= -.70607239E+03  d E =-.135313E-02  mag=     0.8252
       N       E                     dE             d eps       ncg     rms          ort
SDA:   1    -0.706066265730E+03    0.17448E-01    0.00000E+00  8424   0.597E-01 0.000E+00
CGA:   2    -0.706076369995E+03   -0.10104E-01   -0.10105E-01  8424   0.350E-01-0.108E-03
CGA:   3    -0.706080686022E+03   -0.43160E-02   -0.43176E-02  8424   0.184E-01 0.665E-04
CGA:   4    -0.706083334285E+03   -0.26483E-02   -0.26480E-02  8424   0.389E-02-0.380E-04
CGA:   5    -0.706083964762E+03   -0.63048E-03   -0.63040E-03  8424   0.113E-02 0.136E-04
CGA:   6    -0.706084103150E+03   -0.13839E-03   -0.13858E-03  8424   0.416E-03 0.466E-05
CGA:   7    -0.706084147757E+03   -0.44607E-04   -0.45429E-04  8424   0.111E-03 0.175E-04
CGA:   8    -0.706084167855E+03   -0.20099E-04   -0.20133E-04  8424   0.440E-04-0.169E-05
CGA:   9    -0.706084173550E+03   -0.56949E-05   -0.57864E-05  8424   0.155E-04 0.444E-05
  21 F= -.70608417E+03 E0= -.70607286E+03  d E =-.452790E-03  mag=     0.8246
       N       E                     dE             d eps       ncg     rms          ort
SDA:   1    -0.706038007098E+03    0.46161E-01    0.00000E+00  8424   0.126E+00 0.000E+00
CGA:   2    -0.706064779313E+03   -0.26772E-01   -0.26782E-01  8424   0.843E-01-0.172E-03
CGA:   3    -0.706075906968E+03   -0.11128E-01   -0.11129E-01  8424   0.454E-01 0.789E-04
CGA:   4    -0.706081159864E+03   -0.52529E-02   -0.52528E-02  8424   0.807E-02-0.568E-04
CGA:   5    -0.706082418450E+03   -0.12586E-02   -0.12585E-02  8424   0.220E-02 0.633E-04
CGA:   6    -0.706082714308E+03   -0.29586E-03   -0.29603E-03  8424   0.795E-03 0.861E-05
CGA:   7    -0.706082803455E+03   -0.89147E-04   -0.90009E-04  8424   0.273E-03 0.207E-04
CGA:   8    -0.706082845458E+03   -0.42003E-04   -0.41997E-04  8424   0.101E-03-0.324E-05
CGA:   9    -0.706082860088E+03   -0.14630E-04   -0.14646E-04  8424   0.368E-04 0.290E-05
CGA:  10    -0.706082867070E+03   -0.69820E-05   -0.70893E-05  8424   0.296E-04-0.302E-05
  22 F= -.70608287E+03 E0= -.70607155E+03  d E =0.130648E-02  mag=     0.8238
       N       E                     dE             d eps       ncg     rms          ort
SDA:   1    -0.706047564842E+03    0.35295E-01    0.00000E+00  8424   0.807E-01 0.000E+00
CGA:   2    -0.706068340707E+03   -0.20776E-01   -0.20776E-01  8424   0.543E-01-0.146E-04
CGA:   3    -0.706075683800E+03   -0.73431E-02   -0.73423E-02  8424   0.245E-01-0.817E-04
CGA:   4    -0.706078149055E+03   -0.24653E-02   -0.24684E-02  8424   0.496E-02 0.774E-04
CGA:   5    -0.706078908121E+03   -0.75907E-03   -0.75905E-03  8424   0.138E-02 0.202E-04
CGA:   6    -0.706079105665E+03   -0.19754E-03   -0.19782E-03  8424   0.387E-03 0.289E-04
CGA:   7    -0.706079160145E+03   -0.54480E-04   -0.54386E-04  8424   0.195E-03-0.679E-05
CGA:   8    -0.706079181506E+03   -0.21361E-04   -0.21515E-04  8424   0.568E-04 0.390E-05
CGA:   9    -0.706079192260E+03   -0.10754E-04   -0.10847E-04  8424   0.261E-04-0.244E-05
CGA:  10    -0.706079196421E+03   -0.41607E-05   -0.41445E-05  8424   0.118E-04 0.106E-05
  23 F= -.70607920E+03 E0= -.70606788E+03  d E =0.367065E-02  mag=     0.8237
       N       E                     dE             d eps       ncg     rms          ort
SDA:   1    -0.706038327101E+03    0.40865E-01    0.00000E+00  8424   0.102E+00 0.000E+00
CGA:   2    -0.706064063002E+03   -0.25736E-01   -0.25741E-01  8424   0.675E-01-0.692E-04
CGA:   3    -0.706073317202E+03   -0.92542E-02   -0.92534E-02  8424   0.323E-01 0.244E-04
CGA:   4    -0.706076574602E+03   -0.32574E-02   -0.32575E-02  8424   0.609E-02-0.590E-04
CGA:   5    -0.706077543514E+03   -0.96891E-03   -0.96862E-03  8424   0.153E-02 0.556E-04
CGA:   6    -0.706077775424E+03   -0.23191E-03   -0.23184E-03  8424   0.605E-03-0.166E-04
CGA:   7    -0.706077839012E+03   -0.63588E-04   -0.63831E-04  8424   0.210E-03 0.492E-05
CGA:   8    -0.706077872496E+03   -0.33484E-04   -0.33530E-04  8424   0.700E-04-0.693E-05
CGA:   9    -0.706077882374E+03   -0.98778E-05   -0.99012E-05  8424   0.308E-04 0.380E-05
  24 F= -.70607788E+03 E0= -.70606656E+03  d E =0.131405E-02  mag=     0.8236
       N       E                     dE             d eps       ncg     rms          ort
SDA:   1    -0.705934527388E+03    0.14335E+00    0.00000E+00  8424   0.400E+00 0.000E+00
CGA:   2    -0.706022257385E+03   -0.87730E-01   -0.87693E-01  8424   0.240E+00 0.431E-03
CGA:   3    -0.706058410972E+03   -0.36154E-01   -0.36147E-01  8424   0.137E+00-0.472E-03
CGA:   4    -0.706072387782E+03   -0.13977E-01   -0.13983E-01  8424   0.261E-01-0.143E-03
CGA:   5    -0.706076499300E+03   -0.41115E-02   -0.41109E-02  8424   0.622E-02 0.152E-03
CGA:   6    -0.706077427418E+03   -0.92812E-03   -0.92792E-03  8424   0.235E-02-0.357E-04
CGA:   7    -0.706077679534E+03   -0.25212E-03   -0.25287E-03  8424   0.859E-03 0.157E-04
CGA:   8    -0.706077812135E+03   -0.13260E-03   -0.13262E-03  8424   0.271E-03-0.727E-05
CGA:   9    -0.706077853859E+03   -0.41724E-04   -0.41711E-04  8424   0.127E-03 0.324E-05
CGA:  10    -0.706077873981E+03   -0.20122E-04   -0.20132E-04  8424   0.696E-04-0.191E-05
CGA:  11    -0.706077882010E+03   -0.80292E-05   -0.81318E-05  8424   0.275E-04 0.306E-05
  25 F= -.70607788E+03 E0= -.70606655E+03  d E =0.363980E-06  mag=     0.8225
       N       E                     dE             d eps       ncg     rms          ort
SDA:   1    -0.706054131111E+03    0.23743E-01    0.00000E+00  8424   0.747E-01 0.000E+00
CGA:   2    -0.706070327203E+03   -0.16196E-01   -0.16192E-01  8424   0.571E-01 0.586E-04
CGA:   3    -0.706077047588E+03   -0.67204E-02   -0.67197E-02  8424   0.247E-01 0.692E-04
CGA:   4    -0.706080215111E+03   -0.31675E-02   -0.31642E-02  8424   0.455E-02-0.121E-03
CGA:   5    -0.706080932340E+03   -0.71723E-03   -0.71729E-03  8424   0.142E-02-0.184E-04
CGA:   6    -0.706081111521E+03   -0.17918E-03   -0.17923E-03  8424   0.492E-03 0.127E-05
CGA:   7    -0.706081166089E+03   -0.54568E-04   -0.55330E-04  8424   0.159E-03 0.182E-04
CGA:   8    -0.706081191247E+03   -0.25158E-04   -0.25157E-04  8424   0.558E-04 0.120E-06
CGA:   9    -0.706081199748E+03   -0.85013E-05   -0.84994E-05  8424   0.214E-04 0.377E-05
  26 F= -.70608120E+03 E0= -.70606986E+03  d E =-.331774E-02  mag=     0.8224
       N       E                     dE             d eps       ncg     rms          ort
SDA:   1    -0.706059818189E+03    0.21373E-01    0.00000E+00  8424   0.622E-01 0.000E+00
CGA:   2    -0.706071351621E+03   -0.11533E-01   -0.11534E-01  8424   0.475E-01-0.514E-04
CGA:   3    -0.706076854648E+03   -0.55030E-02   -0.55024E-02  8424   0.195E-01 0.523E-04
CGA:   4    -0.706079724268E+03   -0.28696E-02   -0.28694E-02  8424   0.371E-02-0.355E-04
CGA:   5    -0.706080325005E+03   -0.60074E-03   -0.60062E-03  8424   0.115E-02 0.134E-04
CGA:   6    -0.706080463628E+03   -0.13862E-03   -0.13853E-03  8424   0.426E-03-0.328E-05
CGA:   7    -0.706080510816E+03   -0.47188E-04   -0.47752E-04  8424   0.120E-03 0.139E-04
CGA:   8    -0.706080531458E+03   -0.20642E-04   -0.20633E-04  8424   0.446E-04 0.613E-06
CGA:   9    -0.706080538433E+03   -0.69749E-05   -0.69697E-05  8424   0.184E-04 0.133E-05
  27 F= -.70608054E+03 E0= -.70606921E+03  d E =0.661315E-03  mag=     0.8222
       N       E                     dE             d eps       ncg     rms          ort
SDA:   1    -0.706070522494E+03    0.10009E-01    0.00000E+00  8424   0.311E-01 0.000E+00
CGA:   2    -0.706075659351E+03   -0.51369E-02   -0.51363E-02  8424   0.268E-01 0.763E-06
CGA:   3    -0.706078920377E+03   -0.32610E-02   -0.32611E-02  8424   0.942E-02 0.327E-04
CGA:   4    -0.706080447300E+03   -0.15269E-02   -0.15275E-02  8424   0.170E-02-0.594E-04
CGA:   5    -0.706080709866E+03   -0.26257E-03   -0.26252E-03  8424   0.548E-03 0.154E-04
CGA:   6    -0.706080774261E+03   -0.64395E-04   -0.64095E-04  8424   0.205E-03-0.831E-05
CGA:   7    -0.706080797173E+03   -0.22912E-04   -0.23218E-04  8424   0.569E-04 0.842E-05
CGA:   8    -0.706080806448E+03   -0.92756E-05   -0.92418E-05  8424   0.165E-04 0.498E-05
  28 F= -.70608081E+03 E0= -.70606948E+03  d E =-.268016E-03  mag=     0.8220
       N       E                     dE             d eps       ncg     rms          ort
SDA:   1    -0.705976244829E+03    0.10455E+00    0.00000E+00  8424   0.284E+00 0.000E+00
CGA:   2    -0.706042650904E+03   -0.66406E-01   -0.66393E-01  8424   0.184E+00 0.125E-03
CGA:   3    -0.706069587340E+03   -0.26936E-01   -0.26940E-01  8424   0.983E-01 0.671E-04
CGA:   4    -0.706079483020E+03   -0.98957E-02   -0.98806E-02  8424   0.171E-01 0.140E-03
CGA:   5    -0.706082286783E+03   -0.28038E-02   -0.28043E-02  8424   0.411E-02-0.576E-04
CGA:   6    -0.706082879275E+03   -0.59249E-03   -0.59269E-03  8424   0.168E-02 0.202E-04
CGA:   7    -0.706083062053E+03   -0.18278E-03   -0.18276E-03  8424   0.575E-03-0.191E-05
CGA:   8    -0.706083150401E+03   -0.88348E-04   -0.88313E-04  8424   0.154E-03 0.187E-04
CGA:   9    -0.706083179245E+03   -0.28844E-04   -0.29172E-04  8424   0.114E-03-0.105E-04
CGA:  10    -0.706083191639E+03   -0.12394E-04   -0.12422E-04  8424   0.399E-04 0.773E-06
CGA:  11    -0.706083198470E+03   -0.68312E-05   -0.68149E-05  8424   0.214E-04 0.866E-06
  29 F= -.70608320E+03 E0= -.70607187E+03  d E =-.239202E-02  mag=     0.8217
       N       E                     dE             d eps       ncg     rms          ort
SDA:   1    -0.705916388860E+03    0.16680E+00    0.00000E+00  8424   0.448E+00 0.000E+00
CGA:   2    -0.706024631017E+03   -0.10824E+00   -0.10819E+00  8424   0.264E+00 0.517E-03
CGA:   3    -0.706069340216E+03   -0.44709E-01   -0.44714E-01  8424   0.118E+00-0.363E-03
CGA:   4    -0.706080576413E+03   -0.11236E-01   -0.11214E-01  8424   0.290E-01 0.103E-03
CGA:   5    -0.706084694856E+03   -0.41184E-02   -0.41176E-02  8424   0.691E-02-0.818E-04
CGA:   6    -0.706085765571E+03   -0.10707E-02   -0.10707E-02  8424   0.212E-02 0.443E-06
CGA:   7    -0.706086035563E+03   -0.26999E-03   -0.27020E-03  8424   0.101E-02 0.555E-05
CGA:   8    -0.706086157328E+03   -0.12176E-03   -0.12253E-03  8424   0.278E-03 0.237E-04
CGA:   9    -0.706086208290E+03   -0.50962E-04   -0.51307E-04  8424   0.145E-03-0.120E-04
CGA:  10    -0.706086228832E+03   -0.20541E-04   -0.20564E-04  8424   0.619E-04 0.477E-05
CGA:  11    -0.706086238725E+03   -0.98930E-05   -0.98976E-05  8424   0.443E-04-0.244E-05
  30 F= -.70608624E+03 E0= -.70607490E+03  d E =-.304025E-02  mag=     0.8211
       N       E                     dE             d eps       ncg     rms          ort
SDA:   1    -0.706070900892E+03    0.15328E-01    0.00000E+00  8424   0.466E-01 0.000E+00
CGA:   2    -0.706081421802E+03   -0.10521E-01   -0.10513E-01  8424   0.232E-01 0.107E-03
CGA:   3    -0.706085885306E+03   -0.44635E-02   -0.44636E-02  8424   0.818E-02-0.808E-05
CGA:   4    -0.706086831070E+03   -0.94576E-03   -0.94397E-03  8424   0.325E-02-0.493E-04
CGA:   5    -0.706087197371E+03   -0.36630E-03   -0.36728E-03  8424   0.757E-03 0.227E-04
CGA:   6    -0.706087313766E+03   -0.11640E-03   -0.11640E-03  8424   0.181E-03 0.390E-05
CGA:   7    -0.706087344360E+03   -0.30594E-04   -0.30673E-04  8424   0.902E-04-0.542E-05
CGA:   8    -0.706087354298E+03   -0.99380E-05   -0.98469E-05  8424   0.336E-04-0.223E-05
  31 F= -.70608735E+03 E0= -.70607602E+03  d E =-.111557E-02  mag=     0.8210
       N       E                     dE             d eps       ncg     rms          ort
SDA:   1    -0.706068153147E+03    0.19191E-01    0.00000E+00  8424   0.521E-01 0.000E+00
CGA:   2    -0.706081775464E+03   -0.13622E-01   -0.13620E-01  8424   0.307E-01 0.188E-04
CGA:   3    -0.706087237546E+03   -0.54621E-02   -0.54623E-02  8424   0.845E-02-0.122E-04
CGA:   4    -0.706088230018E+03   -0.99247E-03   -0.99402E-03  8424   0.297E-02 0.337E-04
CGA:   5    -0.706088564841E+03   -0.33482E-03   -0.33360E-03  8424   0.892E-03-0.308E-04
CGA:   6    -0.706088688978E+03   -0.12414E-03   -0.12409E-03  8424   0.215E-03-0.368E-05
CGA:   7    -0.706088722885E+03   -0.33906E-04   -0.33840E-04  8424   0.745E-04 0.127E-04
CGA:   8    -0.706088732551E+03   -0.96662E-05   -0.97829E-05  8424   0.332E-04 0.398E-05
  32 F= -.70608873E+03 E0= -.70607740E+03  d E =-.137825E-02  mag=     0.8204
       N       E                     dE             d eps       ncg     rms          ort
SDA:   1    -0.705342024622E+03    0.74670E+00    0.00000E+00  8424   0.190E+01 0.000E+00
CGA:   2    -0.705843206990E+03   -0.50118E+00   -0.50107E+00  8424   0.119E+01 0.775E-03
CGA:   3    -0.706024158821E+03   -0.18095E+00   -0.18094E+00  8424   0.523E+00-0.100E-02
CGA:   4    -0.706073330057E+03   -0.49171E-01   -0.49225E-01  8424   0.111E+00-0.134E-02
CGA:   5    -0.706090520565E+03   -0.17191E-01   -0.17191E-01  8424   0.277E-01-0.250E-03
CGA:   6    -0.706094714562E+03   -0.41940E-02   -0.41942E-02  8424   0.960E-02 0.340E-04
CGA:   7    -0.706095840822E+03   -0.11263E-02   -0.11293E-02  8424   0.392E-02 0.896E-04
CGA:   8    -0.706096375560E+03   -0.53474E-03   -0.53528E-03  8424   0.120E-02 0.287E-04
CGA:   9    -0.706096568438E+03   -0.19288E-03   -0.19282E-03  8424   0.584E-03 0.751E-05
CGA:  10    -0.706096670027E+03   -0.10159E-03   -0.10191E-03  8424   0.316E-03-0.152E-04
CGA:  11    -0.706096706167E+03   -0.36140E-04   -0.36566E-04  8424   0.147E-03 0.124E-04
CGA:  12    -0.706096736274E+03   -0.30107E-04   -0.29814E-04  8424   0.626E-04 0.669E-05
CGA:  13    -0.706096749292E+03   -0.13019E-04   -0.13484E-04  8424   0.520E-04-0.892E-05
CGA:  14    -0.706096754133E+03   -0.48403E-05   -0.49168E-05  8424   0.141E-04 0.165E-05
  33 F= -.70609675E+03 E0= -.70608540E+03  d E =-.802158E-02  mag=     0.8183
       N       E                     dE             d eps       ncg     rms          ort
SDA:   1    -0.706007354432E+03    0.89395E-01    0.00000E+00  8424   0.262E+00 0.000E+00
CGA:   2    -0.706064692716E+03   -0.57338E-01   -0.57315E-01  8424   0.131E+00 0.314E-03
CGA:   3    -0.706090321211E+03   -0.25628E-01   -0.25633E-01  8424   0.492E-01-0.150E-03
CGA:   4    -0.706095865082E+03   -0.55439E-02   -0.55464E-02  8424   0.186E-01 0.594E-04
CGA:   5    -0.706098001433E+03   -0.21364E-02   -0.21375E-02  8424   0.428E-02 0.877E-05
CGA:   6    -0.706098662547E+03   -0.66111E-03   -0.66103E-03  8424   0.105E-02 0.269E-04
CGA:   7    -0.706098830509E+03   -0.16796E-03   -0.16808E-03  8424   0.554E-03-0.175E-04
CGA:   8    -0.706098889055E+03   -0.58546E-04   -0.58599E-04  8424   0.168E-03 0.105E-05
CGA:   9    -0.706098919542E+03   -0.30487E-04   -0.30559E-04  8424   0.792E-04-0.232E-05
CGA:  10    -0.706098930632E+03   -0.11089E-04   -0.11110E-04  8424   0.305E-04 0.229E-05
CGA:  11    -0.706098937130E+03   -0.64981E-05   -0.69148E-05  8424   0.318E-04-0.605E-05
  34 F= -.70609894E+03 E0= -.70608757E+03  d E =-.218300E-02  mag=     0.8185
       N       E                     dE             d eps       ncg     rms          ort
SDA:   1    -0.706077588061E+03    0.21343E-01    0.00000E+00  8424   0.606E-01 0.000E+00
CGA:   2    -0.706090706833E+03   -0.13119E-01   -0.13109E-01  8424   0.320E-01 0.139E-03
CGA:   3    -0.706096159201E+03   -0.54524E-02   -0.54532E-02  8424   0.173E-01-0.677E-04
CGA:   4    -0.706097854085E+03   -0.16949E-02   -0.16959E-02  8424   0.415E-02 0.362E-04
CGA:   5    -0.706098474744E+03   -0.62066E-03   -0.62069E-03  8424   0.950E-03 0.916E-05
CGA:   6    -0.706098621474E+03   -0.14673E-03   -0.14674E-03  8424   0.295E-03-0.365E-05
CGA:   7    -0.706098659331E+03   -0.37857E-04   -0.37672E-04  8424   0.142E-03-0.784E-05
CGA:   8    -0.706098675989E+03   -0.16658E-04   -0.16758E-04  8424   0.395E-04 0.324E-05
CGA:   9    -0.706098683346E+03   -0.73567E-05   -0.73896E-05  8424   0.189E-04-0.999E-06
  35 F= -.70609868E+03 E0= -.70608732E+03  d E =0.253784E-03  mag=     0.8184
       N       E                     dE             d eps       ncg     rms          ort
SDA:   1    -0.706091089445E+03    0.75865E-02    0.00000E+00  8424   0.268E-01 0.000E+00
CGA:   2    -0.706096217671E+03   -0.51282E-02   -0.51240E-02  8424   0.157E-01 0.998E-04
CGA:   3    -0.706098435066E+03   -0.22174E-02   -0.22167E-02  8424   0.963E-02-0.698E-04
CGA:   4    -0.706099577260E+03   -0.11422E-02   -0.11415E-02  8424   0.182E-02-0.241E-04
CGA:   5    -0.706099866757E+03   -0.28950E-03   -0.28964E-03  8424   0.457E-03-0.167E-04
CGA:   6    -0.706099926656E+03   -0.59899E-04   -0.60001E-04  8424   0.163E-03 0.534E-05
CGA:   7    -0.706099945898E+03   -0.19243E-04   -0.19195E-04  8424   0.603E-04-0.148E-05
CGA:   8    -0.706099953989E+03   -0.80902E-05   -0.81366E-05  8424   0.175E-04 0.369E-05
  36 F= -.70609995E+03 E0= -.70608860E+03  d E =-.127064E-02  mag=     0.8191
       N       E                     dE             d eps       ncg     rms          ort
SDA:   1    -0.706046373077E+03    0.53573E-01    0.00000E+00  8424   0.150E+00 0.000E+00
CGA:   2    -0.706082072476E+03   -0.35699E-01   -0.35707E-01  8424   0.939E-01-0.112E-03
CGA:   3    -0.706096631044E+03   -0.14559E-01   -0.14559E-01  8424   0.490E-01 0.367E-04
CGA:   4    -0.706101334688E+03   -0.47036E-02   -0.47045E-02  8424   0.907E-02-0.802E-04
CGA:   5    -0.706102779367E+03   -0.14447E-02   -0.14448E-02  8424   0.216E-02-0.254E-04
CGA:   6    -0.706103100176E+03   -0.32081E-03   -0.32079E-03  8424   0.857E-03-0.509E-05
CGA:   7    -0.706103188492E+03   -0.88316E-04   -0.89630E-04  8424   0.288E-03 0.270E-04
CGA:   8    -0.706103236300E+03   -0.47808E-04   -0.47740E-04  8424   0.759E-04 0.653E-05
CGA:   9    -0.706103251628E+03   -0.15328E-04   -0.16117E-04  8424   0.743E-04-0.140E-04
CGA:  10    -0.706103258814E+03   -0.71860E-05   -0.69183E-05  8424   0.248E-04-0.677E-05
  37 F= -.70610326E+03 E0= -.70609191E+03  d E =-.330483E-02  mag=     0.8202
       N       E                     dE             d eps       ncg     rms          ort
SDA:   1    -0.705569021403E+03    0.53423E+00    0.00000E+00  8424   0.147E+01 0.000E+00
CGA:   2    -0.705912594862E+03   -0.34357E+00   -0.34351E+00  8424   0.790E+00 0.627E-03
CGA:   3    -0.706069806602E+03   -0.15721E+00   -0.15723E+00  8424   0.217E+00-0.349E-03
CGA:   4    -0.706102397092E+03   -0.32590E-01   -0.32592E-01  8424   0.476E-01 0.572E-04
CGA:   5    -0.706110272737E+03   -0.78756E-02   -0.78778E-02  8424   0.121E-01-0.208E-03
CGA:   6    -0.706111902539E+03   -0.16298E-02   -0.16322E-02  8424   0.638E-02 0.978E-04
CGA:   7    -0.706112620579E+03   -0.71804E-03   -0.71935E-03  8424   0.170E-02 0.227E-04
CGA:   8    -0.706112905085E+03   -0.28451E-03   -0.28463E-03  8424   0.683E-03-0.977E-05
CGA:   9    -0.706113022747E+03   -0.11766E-03   -0.11812E-03  8424   0.280E-03-0.231E-04
CGA:  10    -0.706113068281E+03   -0.45534E-04   -0.45475E-04  8424   0.166E-03 0.448E-05
CGA:  11    -0.706113090997E+03   -0.22716E-04   -0.22437E-04  8424   0.922E-04-0.120E-04
CGA:  12    -0.706113107249E+03   -0.16252E-04   -0.16896E-04  8424   0.512E-04-0.151E-04
CGA:  13    -0.706113114605E+03   -0.73567E-05   -0.75089E-05  8424   0.308E-04-0.832E-05
  38 F= -.70611311E+03 E0= -.70610178E+03  d E =-.985579E-02  mag=     0.8246
       N       E                     dE             d eps       ncg     rms          ort
SDA:   1    -0.705876691062E+03    0.23642E+00    0.00000E+00  8424   0.641E+00 0.000E+00
CGA:   2    -0.706019317411E+03   -0.14263E+00   -0.14253E+00  8424   0.351E+00 0.126E-02
CGA:   3    -0.706083276078E+03   -0.63959E-01   -0.63960E-01  8424   0.165E+00-0.115E-03
CGA:   4    -0.706099652800E+03   -0.16377E-01   -0.16338E-01  8424   0.452E-01 0.106E-03
CGA:   5    -0.706105578401E+03   -0.59256E-02   -0.59262E-02  8424   0.104E-01 0.421E-04
CGA:   6    -0.706107184064E+03   -0.16057E-02   -0.16058E-02  8424   0.284E-02 0.561E-04
CGA:   7    -0.706107607522E+03   -0.42346E-03   -0.42264E-03  8424   0.154E-02-0.101E-03
CGA:   8    -0.706107772091E+03   -0.16457E-03   -0.16444E-03  8424   0.436E-03-0.319E-05
CGA:   9    -0.706107839114E+03   -0.67023E-04   -0.66999E-04  8424   0.152E-03 0.426E-04
CGA:  10    -0.706107871914E+03   -0.32800E-04   -0.32475E-04  8424   0.611E-04 0.782E-05
CGA:  11    -0.706107885307E+03   -0.13393E-04   -0.13902E-04  8424   0.570E-04-0.842E-05
CGA:  12    -0.706107890064E+03   -0.47573E-05   -0.49436E-05  8424   0.207E-04 0.318E-05
  39 F= -.70610789E+03 E0= -.70609658E+03  d E =0.522454E-02  mag=     0.8235
       N       E                     dE             d eps       ncg     rms          ort
SDA:   1    -0.706066564391E+03    0.41321E-01    0.00000E+00  8424   0.112E+00 0.000E+00
CGA:   2    -0.706094968487E+03   -0.28404E-01   -0.28424E-01  8424   0.647E-01-0.206E-03
CGA:   3    -0.706106433457E+03   -0.11465E-01   -0.11460E-01  8424   0.209E-01 0.239E-03
CGA:   4    -0.706108672991E+03   -0.22395E-02   -0.22391E-02  8424   0.709E-02 0.337E-04
CGA:   5    -0.706109537385E+03   -0.86439E-03   -0.86188E-03  8424   0.184E-02-0.733E-04
CGA:   6    -0.706109804372E+03   -0.26699E-03   -0.26704E-03  8424   0.472E-03 0.576E-05
CGA:   7    -0.706109876711E+03   -0.72339E-04   -0.72357E-04  8424   0.206E-03 0.727E-05
CGA:   8    -0.706109899883E+03   -0.23172E-04   -0.23585E-04  8424   0.716E-04 0.964E-05
CGA:   9    -0.706109912200E+03   -0.12317E-04   -0.12364E-04  8424   0.365E-04-0.393E-05
CGA:  10    -0.706109917433E+03   -0.52334E-05   -0.52354E-05  8424   0.137E-04 0.119E-05
  40 F= -.70610992E+03 E0= -.70609858E+03  d E =-.202737E-02  mag=     0.8232
       N       E                     dE             d eps       ncg     rms          ort
SDA:   1    -0.706104600965E+03    0.53112E-02    0.00000E+00  8424   0.188E-01 0.000E+00
CGA:   2    -0.706107989874E+03   -0.33889E-02   -0.33891E-02  8424   0.126E-01-0.159E-04
CGA:   3    -0.706109565056E+03   -0.15752E-02   -0.15761E-02  8424   0.642E-02 0.368E-04
CGA:   4    -0.706110477797E+03   -0.91274E-03   -0.91244E-03  8424   0.121E-02-0.274E-04
CGA:   5    -0.706110668983E+03   -0.19119E-03   -0.19122E-03  8424   0.331E-03-0.593E-05
CGA:   6    -0.706110710409E+03   -0.41427E-04   -0.41181E-04  8424   0.137E-03-0.895E-05
CGA:   7    -0.706110724547E+03   -0.14137E-04   -0.14363E-04  8424   0.341E-04 0.517E-05
CGA:   8    -0.706110730682E+03   -0.61355E-05   -0.60751E-05  8424   0.995E-05 0.274E-05
  41 F= -.70611073E+03 E0= -.70609940E+03  d E =-.813249E-03  mag=     0.8229
       N       E                     dE             d eps       ncg     rms          ort
SDA:   1    -0.706098119019E+03    0.12606E-01    0.00000E+00  8424   0.384E-01 0.000E+00
CGA:   2    -0.706106483102E+03   -0.83641E-02   -0.83625E-02  8424   0.219E-01 0.199E-04
CGA:   3    -0.706110181807E+03   -0.36987E-02   -0.36989E-02  8424   0.123E-01-0.244E-04
CGA:   4    -0.706111378034E+03   -0.11962E-02   -0.11981E-02  8424   0.260E-02 0.394E-04
CGA:   5    -0.706111773953E+03   -0.39592E-03   -0.39587E-03  8424   0.593E-03-0.263E-04
CGA:   6    -0.706111863165E+03   -0.89212E-04   -0.89201E-04  8424   0.204E-03-0.709E-05
CGA:   7    -0.706111886874E+03   -0.23709E-04   -0.23722E-04  8424   0.856E-04 0.238E-06
CGA:   8    -0.706111897497E+03   -0.10623E-04   -0.10795E-04  8424   0.220E-04 0.669E-05
CGA:   9    -0.706111902403E+03   -0.49057E-05   -0.52380E-05  8424   0.165E-04-0.472E-05
  42 F= -.70611190E+03 E0= -.70610057E+03  d E =-.117172E-02  mag=     0.8230
       N       E                     dE             d eps       ncg     rms          ort
SDA:   1    -0.706075427929E+03    0.36470E-01    0.00000E+00  8424   0.104E+00 0.000E+00
CGA:   2    -0.706098767203E+03   -0.23339E-01   -0.23340E-01  8424   0.553E-01-0.204E-04
CGA:   3    -0.706109868937E+03   -0.11102E-01   -0.11099E-01  8424   0.186E-01 0.595E-04
CGA:   4    -0.706112130821E+03   -0.22619E-02   -0.22607E-02  8424   0.667E-02-0.488E-04
CGA:   5    -0.706112839963E+03   -0.70914E-03   -0.70927E-03  8424   0.172E-02 0.324E-05
CGA:   6    -0.706113091742E+03   -0.25178E-03   -0.25167E-03  8424   0.426E-03-0.164E-04
CGA:   7    -0.706113160929E+03   -0.69187E-04   -0.69096E-04  8424   0.169E-03 0.819E-05
CGA:   8    -0.706113182080E+03   -0.21151E-04   -0.21148E-04  8424   0.717E-04-0.197E-06
CGA:   9    -0.706113191650E+03   -0.95691E-05   -0.96159E-05  8424   0.280E-04 0.265E-05
  43 F= -.70611319E+03 E0= -.70610186E+03  d E =-.128925E-02  mag=     0.8234
       N       E                     dE             d eps       ncg     rms          ort
SDA:   1    -0.706059452785E+03    0.53729E-01    0.00000E+00  8424   0.146E+00 0.000E+00
CGA:   2    -0.706093387635E+03   -0.33935E-01   -0.33945E-01  8424   0.117E+00-0.152E-03
CGA:   3    -0.706106487005E+03   -0.13099E-01   -0.13104E-01  8424   0.450E-01 0.128E-03
CGA:   4    -0.706112228631E+03   -0.57416E-02   -0.57449E-02  8424   0.847E-02 0.501E-04
CGA:   5    -0.706113589934E+03   -0.13613E-02   -0.13617E-02  8424   0.268E-02-0.487E-04
CGA:   6    -0.706113944337E+03   -0.35440E-03   -0.35422E-03  8424   0.864E-03-0.136E-04
CGA:   7    -0.706114043261E+03   -0.98924E-04   -0.99176E-04  8424   0.332E-03 0.650E-05
CGA:   8    -0.706114091233E+03   -0.47972E-04   -0.47922E-04  8424   0.108E-03-0.709E-05
CGA:   9    -0.706114108626E+03   -0.17393E-04   -0.17302E-04  8424   0.413E-04 0.637E-05
CGA:  10    -0.706114116504E+03   -0.78782E-05   -0.79158E-05  8424   0.338E-04-0.127E-05
  44 F= -.70611412E+03 E0= -.70610279E+03  d E =-.924854E-03  mag=     0.8234
       N       E                     dE             d eps       ncg     rms          ort
SDA:   1    -0.706094121638E+03    0.19987E-01    0.00000E+00  8424   0.533E-01 0.000E+00
CGA:   2    -0.706105946547E+03   -0.11825E-01   -0.11818E-01  8424   0.366E-01 0.933E-04
CGA:   3    -0.706110661974E+03   -0.47154E-02   -0.47158E-02  8424   0.185E-01-0.626E-04
CGA:   4    -0.706112812774E+03   -0.21508E-02   -0.21504E-02  8424   0.333E-02-0.726E-05
CGA:   5    -0.706113355798E+03   -0.54302E-03   -0.54259E-03  8424   0.853E-03 0.348E-04
CGA:   6    -0.706113470518E+03   -0.11472E-03   -0.11503E-03  8424   0.320E-03 0.169E-04
CGA:   7    -0.706113509133E+03   -0.38616E-04   -0.38261E-04  8424   0.118E-03-0.108E-04
CGA:   8    -0.706113526325E+03   -0.17191E-04   -0.17197E-04  8424   0.394E-04-0.275E-05
CGA:   9    -0.706113532105E+03   -0.57800E-05   -0.57769E-05  8424   0.172E-04 0.201E-05
  45 F= -.70611353E+03 E0= -.70610221E+03  d E =0.584400E-03  mag=     0.8234
       N       E                     dE             d eps       ncg     rms          ort
SDA:   1    -0.706108768570E+03    0.47578E-02    0.00000E+00  8424   0.175E-01 0.000E+00
CGA:   2    -0.706111521698E+03   -0.27531E-02   -0.27528E-02  8424   0.115E-01 0.270E-04
CGA:   3    -0.706112902043E+03   -0.13803E-02   -0.13795E-02  8424   0.481E-02-0.413E-04
CGA:   4    -0.706113671559E+03   -0.76952E-03   -0.76940E-03  8424   0.102E-02 0.775E-05
CGA:   5    -0.706113841522E+03   -0.16996E-03   -0.17002E-03  8424   0.338E-03-0.338E-05
CGA:   6    -0.706113877705E+03   -0.36183E-04   -0.36543E-04  8424   0.114E-03 0.882E-05
CGA:   7    -0.706113892010E+03   -0.14304E-04   -0.14410E-04  8424   0.293E-04 0.443E-05
CGA:   8    -0.706113896323E+03   -0.43134E-05   -0.43334E-05  8424   0.849E-05 0.586E-05
  46 F= -.70611390E+03 E0= -.70610257E+03  d E =-.364218E-03  mag=     0.8236
