       N       E                     dE             d eps       ncg     rms          rms(c)
DAV:   1     0.345195573238E+04    0.34520E+04   -0.18839E+05 10380   0.128E+03
DAV:   2    -0.363518316498E+02   -0.34883E+04   -0.33483E+04 13140   0.228E+02
DAV:   3    -0.517444875094E+03   -0.48109E+03   -0.47646E+03 12864   0.929E+01
DAV:   4    -0.540424711553E+03   -0.22980E+02   -0.22806E+02 13248   0.227E+01
DAV:   5    -0.541574902944E+03   -0.11502E+01   -0.11483E+01 15156   0.497E+00    0.622E+01
DAV:   6    -0.523622517734E+03    0.17952E+02   -0.36964E+01 11688   0.698E+00    0.420E+01
DAV:   7    -0.522406624636E+03    0.12159E+01   -0.25021E+01 12732   0.566E+00    0.822E+00
DAV:   8    -0.521913274866E+03    0.49335E+00   -0.31991E+00 11892   0.236E+00    0.563E+00
DAV:   9    -0.521956916163E+03   -0.43641E-01   -0.32495E-01 13524   0.845E-01    0.169E+00
DAV:  10    -0.521958813775E+03   -0.18976E-02   -0.30390E-02 12996   0.266E-01    0.108E+00
DAV:  11    -0.521962530923E+03   -0.37171E-02   -0.44752E-03 12204   0.109E-01    0.705E-01
DAV:  12    -0.521966105138E+03   -0.35742E-02   -0.41361E-03 11196   0.106E-01    0.144E-01
DAV:  13    -0.521966576927E+03   -0.47179E-03   -0.76774E-04 14784   0.392E-02    0.160E-01
DAV:  14    -0.521966630541E+03   -0.53614E-04   -0.86282E-05 13092   0.130E-02    0.108E-01
DAV:  15    -0.521966709948E+03   -0.79406E-04   -0.61629E-05 10440   0.122E-02    0.513E-02
DAV:  16    -0.521966728041E+03   -0.18094E-04   -0.25154E-05  9420   0.732E-03    0.120E-02
DAV:  17    -0.521966732449E+03   -0.44080E-05   -0.63677E-06  6432   0.398E-03
   1 F= -.52196673E+03 E0= -.52196673E+03  d E =-.521967E+03  mag=     0.0058
       N       E                     dE             d eps       ncg     rms          rms(c)
DAV:   1    -0.521968086315E+03   -0.13583E-02   -0.35345E-03 10848   0.811E-02    0.668E-02
DAV:   2    -0.521968111720E+03   -0.25405E-04   -0.32709E-04 14736   0.264E-02    0.208E-02
DAV:   3    -0.521968109190E+03    0.25306E-05   -0.11280E-05  7464   0.581E-03    0.131E-02
DAV:   4    -0.521968108374E+03    0.81550E-06   -0.47380E-06  5940   0.372E-03
   2 F= -.52196811E+03 E0= -.52196811E+03  d E =-.137592E-02  mag=     0.0009
       N       E                     dE             d eps       ncg     rms          rms(c)
DAV:   1    -0.521975549877E+03   -0.74407E-02   -0.30656E-01 10560   0.750E-01    0.595E-01
DAV:   2    -0.521977743821E+03   -0.21939E-02   -0.27787E-02 14664   0.242E-01    0.186E-01
DAV:   3    -0.521977563727E+03    0.18009E-03   -0.11082E-03 13464   0.527E-02    0.123E-01
DAV:   4    -0.521977505838E+03    0.57889E-04   -0.19702E-04 14292   0.210E-02    0.546E-02
DAV:   5    -0.521977485174E+03    0.20665E-04   -0.39491E-05 12120   0.123E-02    0.267E-02
DAV:   6    -0.521977484506E+03    0.66814E-06   -0.23017E-05  9924   0.850E-03
   3 F= -.52197748E+03 E0= -.52197748E+03  d E =-.937613E-02  mag=     0.0001
       N       E                     dE             d eps       ncg     rms          rms(c)
DAV:   1    -0.521981204888E+03   -0.37197E-02   -0.11930E+00 10416   0.137E+00    0.687E-01
DAV:   2    -0.521989187549E+03   -0.79827E-02   -0.93235E-02 15048   0.433E-01    0.300E-01
DAV:   3    -0.521988754094E+03    0.43346E-03   -0.17886E-03 12888   0.677E-02    0.243E-01
DAV:   4    -0.521988595277E+03    0.15882E-03   -0.46908E-04 12792   0.295E-02    0.136E-01
DAV:   5    -0.521988539390E+03    0.55887E-04   -0.15447E-04 12456   0.196E-02    0.496E-02
DAV:   6    -0.521988541481E+03   -0.20903E-05   -0.88579E-05 13908   0.134E-02
   4 F= -.52198854E+03 E0= -.52198854E+03  d E =-.110570E-01  mag=     0.0000
       N       E                     dE             d eps       ncg     rms          rms(c)
DAV:   1    -0.521987797524E+03    0.74187E-03   -0.14519E+00 10428   0.151E+00    0.784E-01
DAV:   2    -0.521998172291E+03   -0.10375E-01   -0.11639E-01 14568   0.486E-01    0.306E-01
DAV:   3    -0.521997611475E+03    0.56082E-03   -0.19748E-03 12360   0.730E-02    0.255E-01
DAV:   4    -0.521997415187E+03    0.19629E-03   -0.65499E-04 12720   0.339E-02    0.146E-01
DAV:   5    -0.521997368755E+03    0.46432E-04   -0.21686E-04 12924   0.210E-02    0.434E-02
DAV:   6    -0.521997373701E+03   -0.49466E-05   -0.54781E-05 12312   0.983E-03
   5 F= -.52199737E+03 E0= -.52199737E+03  d E =-.883222E-02  mag=     0.0000
       N       E                     dE             d eps       ncg     rms          rms(c)
DAV:   1    -0.521980335942E+03    0.17033E-01   -0.35900E+00 10380   0.245E+00    0.138E+00
DAV:   2    -0.522007033976E+03   -0.26698E-01   -0.30412E-01 14688   0.793E-01    0.546E-01
DAV:   3    -0.522005624826E+03    0.14091E-02   -0.53882E-03 12588   0.121E-01    0.446E-01
DAV:   4    -0.522005124557E+03    0.50027E-03   -0.15635E-03 13068   0.535E-02    0.252E-01
DAV:   5    -0.522004980015E+03    0.14454E-03   -0.45769E-04 12624   0.324E-02    0.802E-02
DAV:   6    -0.522004991862E+03   -0.11847E-04   -0.22168E-04 14244   0.204E-02    0.554E-02
DAV:   7    -0.522004988565E+03    0.32975E-05   -0.26151E-05  8472   0.774E-03
   6 F= -.52200499E+03 E0= -.52200499E+03  d E =-.761486E-02  mag=     0.0000
       N       E                     dE             d eps       ncg     rms          rms(c)
DAV:   1    -0.521918831048E+03    0.86161E-01   -0.11326E+01 10368   0.442E+00    0.279E+00
DAV:   2    -0.522005270932E+03   -0.86440E-01   -0.99104E-01 14880   0.145E+00    0.102E+00
DAV:   3    -0.522000385094E+03    0.48858E-02   -0.19926E-02 12696   0.233E-01    0.810E-01
DAV:   4    -0.521998545804E+03    0.18393E-02   -0.59992E-03 12984   0.109E-01    0.412E-01
DAV:   5    -0.521998195946E+03    0.34986E-03   -0.15159E-03 13140   0.655E-02    0.141E-01
DAV:   6    -0.521998262482E+03   -0.66536E-04   -0.70722E-04 13872   0.386E-02    0.143E-01
DAV:   7    -0.521998230294E+03    0.32188E-04   -0.12278E-04 11904   0.158E-02    0.108E-01
DAV:   8    -0.521998216262E+03    0.14032E-04   -0.35938E-05 10104   0.846E-03    0.497E-02
DAV:   9    -0.521998207924E+03    0.83376E-05   -0.27920E-05  9396   0.773E-03
   7 F= -.52199821E+03 E0= -.52199821E+03  d E =0.678064E-02  mag=     0.0000
       N       E                     dE             d eps       ncg     rms          rms(c)
DAV:   1    -0.521982409488E+03    0.15807E-01   -0.42726E+00 10368   0.272E+00    0.171E+00
DAV:   2    -0.522014981694E+03   -0.32572E-01   -0.37388E-01 14856   0.892E-01    0.630E-01
DAV:   3    -0.522012993233E+03    0.19885E-02   -0.84761E-03 12732   0.153E-01    0.485E-01
DAV:   4    -0.522012233534E+03    0.75970E-03   -0.24704E-03 13128   0.717E-02    0.236E-01
DAV:   5    -0.522012085642E+03    0.14789E-03   -0.60697E-04 12840   0.445E-02    0.897E-02
DAV:   6    -0.522012114023E+03   -0.28382E-04   -0.31635E-04 14040   0.263E-02    0.982E-02
DAV:   7    -0.522012105546E+03    0.84772E-05   -0.34286E-05  9672   0.841E-03
   8 F= -.52201211E+03 E0= -.52201211E+03  d E =-.138976E-01  mag=     0.0000
       N       E                     dE             d eps       ncg     rms          rms(c)
DAV:   1    -0.522012392799E+03   -0.27878E-03   -0.15125E-01 10464   0.501E-01    0.321E-01
DAV:   2    -0.522013522315E+03   -0.11295E-02   -0.12862E-02 14496   0.164E-01    0.115E-01
DAV:   3    -0.522013458610E+03    0.63705E-04   -0.31585E-04 12864   0.285E-02    0.885E-02
DAV:   4    -0.522013435118E+03    0.23493E-04   -0.89686E-05 12648   0.131E-02    0.422E-02
DAV:   5    -0.522013432566E+03    0.25523E-05   -0.20328E-05  8400   0.729E-03
   9 F= -.52201343E+03 E0= -.52201343E+03  d E =-.132702E-02  mag=     0.0000
       N       E                     dE             d eps       ncg     rms          rms(c)
DAV:   1    -0.522011469213E+03    0.19659E-02   -0.61494E-01 10392   0.986E-01    0.520E-01
DAV:   2    -0.522015971429E+03   -0.45022E-02   -0.51369E-02 14700   0.322E-01    0.205E-01
DAV:   3    -0.522015760440E+03    0.21099E-03   -0.83728E-04 12504   0.461E-02    0.175E-01
DAV:   4    -0.522015691377E+03    0.69064E-04   -0.21226E-04 13008   0.193E-02    0.103E-01
DAV:   5    -0.522015665857E+03    0.25519E-04   -0.88171E-05 11340   0.133E-02    0.296E-02
DAV:   6    -0.522015668160E+03   -0.23025E-05   -0.30207E-05  9312   0.747E-03
  10 F= -.52201567E+03 E0= -.52201567E+03  d E =-.223559E-02  mag=     0.0000
