       N       E                     dE             d eps       ncg     rms          ort
DAV:   1     0.113014900734E+05    0.11301E+05   -0.46595E+05  8540   0.170E+03
DAV:   2     0.834198548172E+02   -0.11218E+05   -0.10210E+05  8540   0.487E+02
DAV:   3    -0.154293023847E+04   -0.16264E+04   -0.15412E+04  8540   0.197E+02
DAV:   4    -0.162621486997E+04   -0.83285E+02   -0.82162E+02  8540   0.455E+01
DAV:   5    -0.162725767562E+04   -0.10428E+01   -0.10399E+01  8540   0.554E+00
SDA:   6    -0.793640245511E+03    0.83362E+03   -0.10399E+01  8540   0.284E+04 0.000E+00
CGA:   7    -0.119847141814E+04   -0.40483E+03   -0.40697E+03  8540   0.289E+03 0.193E+02
CGA:   8    -0.125208122265E+04   -0.53610E+02   -0.53625E+02  8540   0.664E+02 0.181E+01
CGA:   9    -0.127348920252E+04   -0.21408E+02   -0.21382E+02  8540   0.348E+02 0.180E+00
CGA:  10    -0.128172361398E+04   -0.82344E+01   -0.82622E+01  8540   0.943E+01-0.758E+00
CGA:  11    -0.128405480522E+04   -0.23312E+01   -0.23582E+01  8540   0.229E+01-0.529E+00
CGA:  12    -0.128460137259E+04   -0.54657E+00   -0.55247E+00  8540   0.643E+00-0.122E+00
CGA:  13    -0.128477249945E+04   -0.17113E+00   -0.17085E+00  8540   0.203E+00 0.315E-02
CGA:  14    -0.128484104395E+04   -0.68544E-01   -0.72466E-01  8540   0.949E-01-0.282E-01
CGA:  15    -0.128485539098E+04   -0.14347E-01   -0.56446E-01  8540   0.159E+00-0.905E-01
CGA:  16    -0.128489671582E+04   -0.41325E-01   -0.41340E-01  8540   0.241E-01-0.104E-02
CGA:  17    -0.128490580121E+04   -0.90854E-02   -0.99424E-02  8540   0.103E-01-0.501E-02
CGA:  18    -0.128486890870E+04    0.36893E-01   -0.19949E-01  8540   0.223E+00-0.364E-01
CGA:  19    -0.128490690947E+04   -0.38001E-01   -0.39677E-01  8540   0.199E-01 0.785E-02
CGA:  20    -0.128491337880E+04   -0.64693E-02   -0.67719E-02  8540   0.500E-02 0.254E-02
CGA:  21    -0.128491506940E+04   -0.16906E-02   -0.18102E-02  8540   0.790E-03 0.995E-03
CGA:  22    -0.128491524409E+04   -0.17469E-03   -0.22166E-03  8540   0.188E-03 0.234E-03
CGA:  23    -0.128491246514E+04    0.27790E-02   -0.14983E-02  8540   0.917E-02-0.149E-02
CGA:  24    -0.128491481402E+04   -0.23489E-02   -0.25274E-02  8540   0.209E-02 0.372E-03
CGA:  25    -0.128491566441E+04   -0.85039E-03   -0.73929E-03  8540   0.720E-03-0.272E-03
CGA:  26    -0.128491572506E+04   -0.60650E-04   -0.15695E-03  8540   0.149E-03 0.201E-03
CGA:  27    -0.128491571593E+04    0.91293E-05   -0.34417E-04  8540   0.518E-04 0.828E-04
CGA:  28    -0.128491575108E+04   -0.35152E-04   -0.44277E-04  8540   0.170E-03-0.524E-04
CGA:  29    -0.128491573876E+04    0.12325E-04   -0.19690E-04  8540   0.242E-04 0.561E-04
CGA:  30    -0.128491573161E+04    0.71497E-05   -0.26442E-05  8540   0.970E-05 0.170E-04
   1 F= -.12849157E+04 E0= -.12849157E+04  d E =-.128492E+04  mag=   126.0000
       N       E                     dE             d eps       ncg     rms          ort
SDA:   1    -0.128491431466E+04    0.14241E-02    0.00000E+00  8540   0.163E-01 0.000E+00
CGA:   2    -0.128491837651E+04   -0.40619E-02   -0.40609E-02  8540   0.739E-02-0.990E-05
CGA:   3    -0.128491992538E+04   -0.15489E-02   -0.15640E-02  8540   0.146E-02 0.375E-04
CGA:   4    -0.128492022609E+04   -0.30071E-03   -0.30571E-03  8540   0.256E-03 0.136E-04
CGA:   5    -0.128492029909E+04   -0.73000E-04   -0.63352E-04  8540   0.765E-04-0.316E-04
CGA:   6    -0.128492033285E+04   -0.33766E-04   -0.27122E-04  8540   0.782E-04-0.504E-04
CGA:   7    -0.128492033913E+04   -0.62810E-05   -0.10670E-04  8540   0.802E-05 0.111E-04
   2 F= -.12849203E+04 E0= -.12849203E+04  d E =-.460753E-02  mag=   126.0000
       N       E                     dE             d eps       ncg     rms          ort
SDA:   1    -0.126245636323E+04    0.22464E+02    0.00000E+00  8540   0.608E+02 0.000E+00
CGA:   2    -0.127760682874E+04   -0.15150E+02   -0.15200E+02  8540   0.273E+02 0.406E-03
CGA:   3    -0.128344202098E+04   -0.58352E+01   -0.58399E+01  8540   0.544E+01 0.658E-01
CGA:   4    -0.128458561548E+04   -0.11436E+01   -0.11445E+01  8540   0.977E+00 0.478E-02
CGA:   5    -0.128479952676E+04   -0.21391E+00   -0.21385E+00  8540   0.233E+00-0.943E-03
CGA:   6    -0.128485980521E+04   -0.60278E-01   -0.59840E-01  8540   0.654E-01-0.251E-02
CGA:   7    -0.128487774419E+04   -0.17939E-01   -0.17878E-01  8540   0.211E-01-0.413E-03
CGA:   8    -0.128488418900E+04   -0.64448E-02   -0.64899E-02  8540   0.707E-02 0.384E-03
CGA:   9    -0.128488672840E+04   -0.25394E-02   -0.25178E-02  8540   0.262E-02-0.316E-03
CGA:  10    -0.128488777902E+04   -0.10506E-02   -0.10544E-02  8540   0.124E-02-0.569E-03
CGA:  11    -0.128488822597E+04   -0.44695E-03   -0.53118E-03  8540   0.108E-02-0.640E-03
CGA:  12    -0.128488847616E+04   -0.25018E-03   -0.26250E-03  8540   0.198E-03 0.687E-04
CGA:  13    -0.128488856437E+04   -0.88211E-04   -0.19082E-03  8540   0.556E-03-0.209E-03
CGA:  14    -0.128488868299E+04   -0.11862E-03   -0.12501E-03  8540   0.877E-04 0.301E-04
CGA:  15    -0.128488879076E+04   -0.10778E-03    0.54290E-04  8540   0.535E-04-0.389E-04
CGA:  16    -0.128488882143E+04   -0.30664E-04    0.31307E-04  8540   0.392E-04-0.124E-04
CGA:  17    -0.128488887126E+04   -0.49833E-04    0.69072E-05  8540   0.136E-04 0.289E-05
CGA:  18    -0.128488889850E+04   -0.27239E-04    0.26593E-05  8540   0.817E-05-0.149E-05
CGA:  19    -0.128488890101E+04   -0.25063E-05   -0.47609E-05  8540   0.218E-04-0.996E-05
   3 F= -.12848889E+04 E0= -.12848889E+04  d E =0.314381E-01  mag=   126.0000
       N       E                     dE             d eps       ncg     rms          ort
SDA:   1    -0.121673270692E+04    0.68156E+02    0.00000E+00  8540   0.178E+03 0.000E+00
CGA:   2    -0.126383516371E+04   -0.47102E+02   -0.47362E+02  8540   0.799E+02 0.202E+00
CGA:   3    -0.128015219765E+04   -0.16317E+02   -0.16378E+02  8540   0.154E+02 0.606E+00
CGA:   4    -0.128338067825E+04   -0.32285E+01   -0.32273E+01  8540   0.278E+01 0.531E-01
CGA:   5    -0.128400310983E+04   -0.62243E+00   -0.62396E+00  8540   0.696E+00 0.179E-02
CGA:   6    -0.128418004105E+04   -0.17693E+00   -0.17686E+00  8540   0.202E+00-0.167E-02
CGA:   7    -0.128423787580E+04   -0.57835E-01   -0.57871E-01  8540   0.692E-01 0.267E-03
CGA:   8    -0.128425975098E+04   -0.21875E-01   -0.21981E-01  8540   0.247E-01 0.148E-02
CGA:   9    -0.128426813468E+04   -0.83837E-02   -0.83740E-02  8540   0.779E-02-0.207E-03
CGA:  10    -0.128427094946E+04   -0.28148E-02   -0.28052E-02  8540   0.257E-02-0.563E-03
CGA:  11    -0.128427183603E+04   -0.88657E-03   -0.88541E-03  8540   0.921E-03-0.142E-03
CGA:  12    -0.128427226094E+04   -0.42492E-03   -0.45767E-03  8540   0.666E-03-0.226E-03
CGA:  13    -0.128427248643E+04   -0.22549E-03   -0.22789E-03  8540   0.340E-03-0.383E-04
CGA:  14    -0.128427264970E+04   -0.16327E-03   -0.19694E-03  8540   0.289E-03-0.151E-03
CGA:  15    -0.128427271984E+04   -0.70142E-04   -0.78045E-04  8540   0.176E-03-0.940E-04
CGA:  16    -0.128427276770E+04   -0.47864E-04   -0.47667E-04  8540   0.876E-04-0.437E-04
CGA:  17    -0.128427279810E+04   -0.30401E-04   -0.34676E-04  8540   0.664E-04-0.354E-04
CGA:  18    -0.128427281544E+04   -0.17336E-04   -0.17634E-04  8540   0.406E-04-0.869E-05
CGA:  19    -0.128427282204E+04   -0.65999E-05   -0.86868E-05  8540   0.192E-04 0.125E-04
   4 F= -.12842728E+04 E0= -.12842728E+04  d E =0.616079E+00  mag=   126.0000
       N       E                     dE             d eps       ncg     rms          ort
SDA:   1    -0.121790096853E+04    0.66372E+02    0.00000E+00  8540   0.180E+03 0.000E+00
CGA:   2    -0.126176591988E+04   -0.43865E+02   -0.44106E+02  8540   0.843E+02 0.128E+00
CGA:   3    -0.128020245107E+04   -0.18437E+02   -0.18459E+02  8540   0.155E+02 0.254E+00
CGA:   4    -0.128338622596E+04   -0.31838E+01   -0.31868E+01  8540   0.293E+01 0.178E-01
CGA:   5    -0.128404190228E+04   -0.65568E+00   -0.65671E+00  8540   0.697E+00 0.424E-02
CGA:   6    -0.128421331313E+04   -0.17141E+00   -0.17135E+00  8540   0.188E+00-0.774E-03
CGA:   7    -0.128426460567E+04   -0.51293E-01   -0.51459E-01  8540   0.590E-01 0.193E-02
CGA:   8    -0.128428256278E+04   -0.17957E-01   -0.18050E-01  8540   0.199E-01 0.185E-02
CGA:   9    -0.128428943594E+04   -0.68732E-02   -0.68750E-02  8540   0.663E-02 0.125E-03
CGA:  10    -0.128429153464E+04   -0.20987E-02   -0.21113E-02  8540   0.185E-02 0.385E-03
CGA:  11    -0.128429218650E+04   -0.65186E-03   -0.65282E-03  8540   0.551E-03 0.710E-04
CGA:  12    -0.128429235305E+04   -0.16655E-03   -0.17192E-03  8540   0.178E-03 0.116E-03
CGA:  13    -0.128429242534E+04   -0.72296E-04   -0.72726E-04  8540   0.775E-04 0.546E-04
CGA:  14    -0.128429245813E+04   -0.32782E-04   -0.33336E-04  8540   0.397E-04 0.380E-04
CGA:  15    -0.128429247370E+04   -0.15577E-04   -0.17071E-04  8540   0.200E-04 0.271E-04
CGA:  16    -0.128429242165E+04    0.52047E-04   -0.30097E-04  8540   0.365E-03-0.551E-04
CGA:  17    -0.128429248961E+04   -0.67955E-04   -0.84691E-04  8540   0.365E-04 0.429E-04
CGA:  18    -0.128429251090E+04   -0.21289E-04   -0.16824E-04  8540   0.284E-04-0.236E-04
CGA:  19    -0.128429250715E+04    0.37469E-05   -0.27933E-05  8540   0.667E-05 0.132E-04
   5 F= -.12842925E+04 E0= -.12842925E+04  d E =-.196851E-01  mag=   126.0000
       N       E                     dE             d eps       ncg     rms          ort
SDA:   1    -0.127290251677E+04    0.11390E+02    0.00000E+00  8540   0.341E+02 0.000E+00
CGA:   2    -0.128031293794E+04   -0.74104E+01   -0.74608E+01  8540   0.142E+02-0.161E-01
CGA:   3    -0.128366474533E+04   -0.33518E+01   -0.33545E+01  8540   0.326E+01 0.294E-01
CGA:   4    -0.128433915644E+04   -0.67441E+00   -0.67446E+00  8540   0.610E+00 0.476E-03
CGA:   5    -0.128447202544E+04   -0.13287E+00   -0.13304E+00  8540   0.137E+00 0.221E-03
CGA:   6    -0.128450507401E+04   -0.33049E-01   -0.33065E-01  8540   0.364E-01 0.534E-04
CGA:   7    -0.128451485147E+04   -0.97775E-02   -0.98239E-02  8540   0.103E-01 0.220E-03
CGA:   8    -0.128451786092E+04   -0.30095E-02   -0.30324E-02  8540   0.337E-02 0.132E-03
CGA:   9    -0.128451900160E+04   -0.11407E-02   -0.11399E-02  8540   0.118E-02-0.794E-05
CGA:  10    -0.128451937000E+04   -0.36840E-03   -0.37899E-03  8540   0.364E-03 0.848E-04
CGA:  11    -0.128451949031E+04   -0.12031E-03   -0.12524E-03  8540   0.108E-03 0.411E-04
CGA:  12    -0.128451951840E+04   -0.28088E-04   -0.33528E-04  8540   0.371E-04 0.352E-04
CGA:  13    -0.128451952821E+04   -0.98092E-05   -0.13191E-04  8540   0.175E-04 0.212E-04
   6 F= -.12845195E+04 E0= -.12845195E+04  d E =-.227021E+00  mag=   126.0000
       N       E                     dE             d eps       ncg     rms          ort
SDA:   1    -0.127909908410E+04    0.54204E+01    0.00000E+00  8540   0.140E+02 0.000E+00
CGA:   2    -0.128274673382E+04   -0.36476E+01   -0.36495E+01  8540   0.712E+01 0.278E-02
CGA:   3    -0.128421437781E+04   -0.14676E+01   -0.14679E+01  8540   0.119E+01 0.232E-03
CGA:   4    -0.128445620321E+04   -0.24183E+00   -0.24177E+00  8540   0.219E+00-0.377E-03
CGA:   5    -0.128450540674E+04   -0.49204E-01   -0.49279E-01  8540   0.509E-01 0.409E-03
CGA:   6    -0.128451743813E+04   -0.12031E-01   -0.12072E-01  8540   0.126E-01 0.278E-03
CGA:   7    -0.128452086992E+04   -0.34318E-02   -0.34427E-02  8540   0.379E-02 0.109E-03
CGA:   8    -0.128452201952E+04   -0.11496E-02   -0.11539E-02  8540   0.130E-02 0.665E-04
CGA:   9    -0.128452246556E+04   -0.44604E-03   -0.44613E-03  8540   0.430E-03 0.310E-05
CGA:  10    -0.128452260340E+04   -0.13784E-03   -0.13869E-03  8540   0.123E-03 0.216E-04
CGA:  11    -0.128452263967E+04   -0.36269E-04   -0.37840E-04  8540   0.341E-04 0.233E-04
CGA:  12    -0.128452265335E+04   -0.13684E-04   -0.13784E-04  8540   0.145E-04 0.622E-05
CGA:  13    -0.128452265905E+04   -0.56950E-05   -0.57987E-05  8540   0.740E-05 0.575E-05
   7 F= -.12845227E+04 E0= -.12845227E+04  d E =-.313084E-02  mag=   126.0000
       N       E                     dE             d eps       ncg     rms          ort
SDA:   1    -0.121941345883E+04    0.65109E+02    0.00000E+00  8540   0.169E+03 0.000E+00
CGA:   2    -0.126327090388E+04   -0.43857E+02   -0.43933E+02  8540   0.836E+02 0.199E+00
CGA:   3    -0.128078375955E+04   -0.17513E+02   -0.17529E+02  8540   0.140E+02 0.135E+00
CGA:   4    -0.128365502920E+04   -0.28713E+01   -0.28734E+01  8540   0.265E+01 0.130E-01
CGA:   5    -0.128425232780E+04   -0.59730E+00   -0.59811E+00  8540   0.628E+00 0.594E-02
CGA:   6    -0.128440565785E+04   -0.15333E+00   -0.15334E+00  8540   0.166E+00-0.742E-04
CGA:   7    -0.128445123074E+04   -0.45573E-01   -0.45656E-01  8540   0.528E-01 0.167E-02
CGA:   8    -0.128446748816E+04   -0.16257E-01   -0.16281E-01  8540   0.182E-01 0.147E-02
CGA:   9    -0.128447381419E+04   -0.63260E-02   -0.63247E-02  8540   0.601E-02 0.701E-04
CGA:  10    -0.128447564898E+04   -0.18348E-02   -0.18422E-02  8540   0.161E-02 0.488E-03
CGA:  11    -0.128447620093E+04   -0.55195E-03   -0.55230E-03  8540   0.460E-03 0.165E-03
CGA:  12    -0.128447636698E+04   -0.16605E-03   -0.16548E-03  8540   0.170E-03 0.880E-04
CGA:  13    -0.128447642293E+04   -0.55946E-04   -0.58605E-04  8540   0.777E-04 0.838E-04
CGA:  14    -0.128447644498E+04   -0.22051E-04   -0.27381E-04  8540   0.440E-04 0.645E-04
CGA:  15    -0.128447645532E+04   -0.10343E-04   -0.11719E-04  8540   0.248E-04 0.285E-04
CGA:  16    -0.128447645863E+04   -0.33089E-05   -0.53764E-05  8540   0.196E-04 0.216E-04
   8 F= -.12844765E+04 E0= -.12844765E+04  d E =0.462004E-01  mag=   126.0000
       N       E                     dE             d eps       ncg     rms          ort
SDA:   1    -0.127243471209E+04    0.12042E+02    0.00000E+00  8540   0.361E+02 0.000E+00
CGA:   2    -0.128023030249E+04   -0.77956E+01   -0.78082E+01  8540   0.149E+02 0.475E-01
CGA:   3    -0.128377135636E+04   -0.35411E+01   -0.35418E+01  8540   0.343E+01 0.436E-02
CGA:   4    -0.128448798723E+04   -0.71663E+00   -0.71656E+00  8540   0.644E+00-0.302E-02
CGA:   5    -0.128462760418E+04   -0.13962E+00   -0.13967E+00  8540   0.144E+00 0.446E-03
CGA:   6    -0.128466244358E+04   -0.34839E-01   -0.34852E-01  8540   0.386E-01 0.250E-03
CGA:   7    -0.128467272557E+04   -0.10282E-01   -0.10292E-01  8540   0.109E-01 0.520E-03
CGA:   8    -0.128467594830E+04   -0.32227E-02   -0.32214E-02  8540   0.354E-02 0.164E-03
CGA:   9    -0.128467715563E+04   -0.12073E-02   -0.12071E-02  8540   0.124E-02 0.304E-05
CGA:  10    -0.128467753805E+04   -0.38242E-03   -0.37943E-03  8540   0.366E-03 0.155E-03
CGA:  11    -0.128467766557E+04   -0.12752E-03   -0.12628E-03  8540   0.110E-03 0.633E-04
CGA:  12    -0.128467769941E+04   -0.33841E-04   -0.34673E-04  8540   0.399E-04 0.423E-04
CGA:  13    -0.128467771429E+04   -0.14880E-04   -0.15181E-04  8540   0.196E-04 0.232E-04
CGA:  14    -0.128467772581E+04   -0.11515E-04   -0.11165E-04  8540   0.168E-04 0.117E-05
CGA:  15    -0.128467772770E+04   -0.18899E-05   -0.33510E-05  8540   0.932E-05 0.129E-04
   9 F= -.12846777E+04 E0= -.12846777E+04  d E =-.201269E+00  mag=   126.0000
       N       E                     dE             d eps       ncg     rms          ort
SDA:   1    -0.128428107689E+04    0.39665E+00    0.00000E+00  8540   0.128E+01 0.000E+00
CGA:   2    -0.128455671327E+04   -0.27564E+00   -0.27578E+00  8540   0.525E+00 0.969E-03
CGA:   3    -0.128468219073E+04   -0.12548E+00   -0.12551E+00  8540   0.123E+00 0.228E-03
CGA:   4    -0.128470798161E+04   -0.25791E-01   -0.25801E-01  8540   0.234E-01 0.109E-03
CGA:   5    -0.128471303167E+04   -0.50501E-02   -0.50552E-02  8540   0.515E-02 0.730E-04
CGA:   6    -0.128471427519E+04   -0.12435E-02   -0.12448E-02  8540   0.138E-02 0.352E-04
CGA:   7    -0.128471463540E+04   -0.36021E-03   -0.36111E-03  8540   0.375E-03 0.550E-04
CGA:   8    -0.128471474287E+04   -0.10747E-03   -0.10744E-03  8540   0.113E-03 0.312E-04
CGA:   9    -0.128471477779E+04   -0.34925E-04   -0.34730E-04  8540   0.354E-04 0.241E-04
CGA:  10    -0.128471478397E+04   -0.61755E-05   -0.80847E-05  8540   0.148E-04 0.220E-04
  10 F= -.12847148E+04 E0= -.12847148E+04  d E =-.370563E-01  mag=   126.0000
       N       E                     dE             d eps       ncg     rms          ort
SDA:   1    -0.128280721635E+04    0.19076E+01    0.00000E+00  8540   0.499E+01 0.000E+00
CGA:   2    -0.128414957735E+04   -0.13424E+01   -0.13423E+01  8540   0.254E+01 0.193E-02
CGA:   3    -0.128466532762E+04   -0.51575E+00   -0.51575E+00  8540   0.413E+00-0.642E-03
CGA:   4    -0.128474995339E+04   -0.84626E-01   -0.84651E-01  8540   0.760E-01 0.394E-03
CGA:   5    -0.128476692226E+04   -0.16969E-01   -0.16986E-01  8540   0.176E-01 0.452E-03
CGA:   6    -0.128477109787E+04   -0.41756E-02   -0.41821E-02  8540   0.431E-02 0.303E-03
CGA:   7    -0.128477226330E+04   -0.11654E-02   -0.11640E-02  8540   0.128E-02 0.165E-03
CGA:   8    -0.128477267234E+04   -0.40904E-03   -0.40659E-03  8540   0.444E-03 0.508E-04
CGA:   9    -0.128477281168E+04   -0.13934E-03   -0.13685E-03  8540   0.129E-03 0.666E-04
CGA:  10    -0.128477284219E+04   -0.30504E-04   -0.32836E-04  8540   0.419E-04 0.581E-04
CGA:  11    -0.128477284989E+04   -0.77045E-05   -0.10422E-04  8540   0.183E-04 0.310E-04
  11 F= -.12847728E+04 E0= -.12847728E+04  d E =-.580659E-01  mag=   126.0000
       N       E                     dE             d eps       ncg     rms          ort
SDA:   1    -0.125453924802E+04    0.30234E+02    0.00000E+00  8540   0.758E+02 0.000E+00
CGA:   2    -0.127581615755E+04   -0.21277E+02   -0.21276E+02  8540   0.385E+02 0.143E-01
CGA:   3    -0.128335758194E+04   -0.75414E+01   -0.75435E+01  8540   0.604E+01 0.866E-02
CGA:   4    -0.128460607929E+04   -0.12485E+01   -0.12490E+01  8540   0.112E+01 0.102E-01
CGA:   5    -0.128486014665E+04   -0.25407E+00   -0.25418E+00  8540   0.264E+00 0.445E-02
CGA:   6    -0.128492408186E+04   -0.63935E-01   -0.63945E-01  8540   0.677E-01 0.124E-02
CGA:   7    -0.128494289940E+04   -0.18818E-01   -0.18782E-01  8540   0.216E-01 0.125E-02
CGA:   8    -0.128494973299E+04   -0.68336E-02   -0.67852E-02  8540   0.751E-02 0.827E-03
CGA:   9    -0.128495229121E+04   -0.25582E-02   -0.25247E-02  8540   0.227E-02 0.472E-03
CGA:  10    -0.128495298684E+04   -0.69562E-03   -0.68344E-03  8540   0.605E-03 0.441E-03
CGA:  11    -0.128495317990E+04   -0.19307E-03   -0.19152E-03  8540   0.197E-03 0.207E-03
CGA:  12    -0.128495325132E+04   -0.71411E-04   -0.70582E-04  8540   0.872E-04 0.950E-04
CGA:  13    -0.128495327718E+04   -0.25866E-04   -0.28610E-04  8540   0.516E-04 0.737E-04
CGA:  14    -0.128495328635E+04   -0.91679E-05   -0.10883E-04  8540   0.317E-04 0.375E-04
  12 F= -.12849533E+04 E0= -.12849533E+04  d E =-.180436E+00  mag=   126.0000
       N       E                     dE             d eps       ncg     rms          ort
SDA:   1    -0.125557717943E+04    0.29376E+02    0.00000E+00  8540   0.805E+02 0.000E+00
CGA:   2    -0.127499755855E+04   -0.19420E+02   -0.19423E+02  8540   0.369E+02 0.146E+00
CGA:   3    -0.128306043171E+04   -0.80629E+01   -0.80637E+01  8540   0.727E+01 0.778E-02
CGA:   4    -0.128456704265E+04   -0.15066E+01   -0.15067E+01  8540   0.132E+01 0.423E-03
CGA:   5    -0.128485901704E+04   -0.29197E+00   -0.29209E+00  8540   0.315E+00 0.391E-02
CGA:   6    -0.128493749176E+04   -0.78475E-01   -0.78470E-01  8540   0.848E-01 0.141E-02
CGA:   7    -0.128496096366E+04   -0.23472E-01   -0.23438E-01  8540   0.262E-01 0.112E-02
CGA:   8    -0.128496915964E+04   -0.81960E-02   -0.81599E-02  8540   0.898E-02 0.596E-03
CGA:   9    -0.128497211912E+04   -0.29595E-02   -0.29285E-02  8540   0.278E-02 0.450E-03
CGA:  10    -0.128497293383E+04   -0.81471E-03   -0.80053E-03  8540   0.781E-03 0.674E-03
CGA:  11    -0.128497315683E+04   -0.22300E-03   -0.22949E-03  8540   0.279E-03 0.353E-03
CGA:  12    -0.128497323522E+04   -0.78390E-04   -0.86263E-04  8540   0.132E-03 0.193E-03
CGA:  13    -0.128497326313E+04   -0.27911E-04   -0.30047E-04  8540   0.749E-04 0.884E-04
CGA:  14    -0.128497327148E+04   -0.83517E-05   -0.13257E-04  8540   0.605E-04 0.667E-04
  13 F= -.12849733E+04 E0= -.12849733E+04  d E =-.199851E-01  mag=   126.0000
       N       E                     dE             d eps       ncg     rms          ort
SDA:   1    -0.128267258470E+04    0.23007E+01    0.00000E+00  8540   0.768E+01 0.000E+00
CGA:   2    -0.128423963724E+04   -0.15671E+01   -0.15677E+01  8540   0.300E+01 0.932E-02
CGA:   3    -0.128497978550E+04   -0.74015E+00   -0.74012E+00  8540   0.751E+00 0.253E-02
CGA:   4    -0.128513830667E+04   -0.15852E+00   -0.15855E+00  8540   0.140E+00 0.699E-03
CGA:   5    -0.128516851792E+04   -0.30211E-01   -0.30216E-01  8540   0.314E-01 0.162E-03
CGA:   6    -0.128517617281E+04   -0.76549E-02   -0.76561E-02  8540   0.851E-02-0.210E-03
CGA:   7    -0.128517842516E+04   -0.22523E-02   -0.22499E-02  8540   0.241E-02 0.839E-04
CGA:   8    -0.128517910036E+04   -0.67521E-03   -0.67023E-03  8540   0.709E-03 0.137E-03
CGA:   9    -0.128517932783E+04   -0.22747E-03   -0.22156E-03  8540   0.219E-03 0.108E-03
CGA:  10    -0.128517938734E+04   -0.59511E-04   -0.60074E-04  8540   0.790E-04 0.967E-04
CGA:  11    -0.128517940543E+04   -0.18089E-04   -0.21350E-04  8540   0.358E-04 0.582E-04
CGA:  12    -0.128517941190E+04   -0.64662E-05   -0.73084E-05  8540   0.192E-04 0.231E-04
  14 F= -.12851794E+04 E0= -.12851794E+04  d E =-.206140E+00  mag=   126.0000
       N       E                     dE             d eps       ncg     rms          ort
SDA:   1    -0.128409617418E+04    0.10832E+01    0.00000E+00  8540   0.345E+01 0.000E+00
CGA:   2    -0.128482329855E+04   -0.72712E+00   -0.72730E+00  8540   0.140E+01 0.550E-02
CGA:   3    -0.128515891492E+04   -0.33562E+00   -0.33561E+00  8540   0.335E+00 0.217E-03
CGA:   4    -0.128522952053E+04   -0.70606E-01   -0.70605E-01  8540   0.625E-01-0.111E-03
CGA:   5    -0.128524291600E+04   -0.13395E-01   -0.13402E-01  8540   0.139E-01 0.380E-03
CGA:   6    -0.128524630232E+04   -0.33863E-02   -0.33840E-02  8540   0.368E-02 0.200E-03
CGA:   7    -0.128524730410E+04   -0.10018E-02   -0.99875E-03  8540   0.105E-02 0.822E-04
CGA:   8    -0.128524764017E+04   -0.33607E-03   -0.34119E-03  8540   0.393E-03-0.611E-04
CGA:   9    -0.128524776357E+04   -0.12340E-03   -0.12581E-03  8540   0.140E-03-0.236E-04
CGA:  10    -0.128524778956E+04   -0.25989E-04   -0.27621E-04  8540   0.452E-04 0.503E-04
CGA:  11    -0.128524779817E+04   -0.86118E-05   -0.10469E-04  8540   0.180E-04 0.265E-04
CGA:  12    -0.128524777814E+04    0.20029E-04   -0.12641E-04  8540   0.179E-03-0.362E-04
CGA:  13    -0.128524780465E+04   -0.26506E-04   -0.33762E-04  8540   0.160E-04 0.297E-04
CGA:  14    -0.128524780591E+04   -0.12634E-05   -0.16009E-04  8540   0.675E-04-0.335E-04
CGA:  15    -0.128524781303E+04   -0.71130E-05   -0.12770E-04  8540   0.945E-05 0.223E-04
CGA:  16    -0.128524780814E+04    0.48898E-05   -0.11712E-04  8540   0.725E-04-0.331E-04
CGA:  17    -0.128524781678E+04   -0.86431E-05   -0.14716E-04  8540   0.945E-05 0.241E-04
  15 F= -.12852478E+04 E0= -.12852478E+04  d E =-.684049E-01  mag=   126.0000
       N       E                     dE             d eps       ncg     rms          ort
SDA:   1    -0.128514941869E+04    0.98389E-01    0.00000E+00  8540   0.323E+00 0.000E+00
CGA:   2    -0.128523349156E+04   -0.84073E-01   -0.84135E-01  8540   0.149E+00 0.228E-03
CGA:   3    -0.128526382883E+04   -0.30337E-01   -0.30318E-01  8540   0.289E-01-0.109E-03
CGA:   4    -0.128526981557E+04   -0.59867E-02   -0.60005E-02  8540   0.503E-02 0.623E-04
CGA:   5    -0.128527084965E+04   -0.10341E-02   -0.10672E-02  8540   0.111E-02 0.168E-03
CGA:   6    -0.128527108981E+04   -0.24016E-03   -0.26149E-03  8540   0.264E-03 0.126E-03
CGA:   7    -0.128527115772E+04   -0.67916E-04   -0.73642E-04  8540   0.797E-04 0.414E-04
CGA:   8    -0.128527119365E+04   -0.35924E-04   -0.36028E-04  8540   0.454E-04-0.115E-04
CGA:   9    -0.128527120079E+04   -0.71414E-05   -0.85865E-05  8540   0.151E-04 0.896E-05
  16 F= -.12852712E+04 E0= -.12852712E+04  d E =-.233840E-01  mag=   126.0000
       N       E                     dE             d eps       ncg     rms          ort
SDA:   1    -0.125192607023E+04    0.33345E+02    0.00000E+00  8540   0.905E+02 0.000E+00
CGA:   2    -0.127501520391E+04   -0.23089E+02   -0.23143E+02  8540   0.398E+02 0.939E-01
CGA:   3    -0.128326141259E+04   -0.82462E+01   -0.82554E+01  8540   0.839E+01 0.853E-01
CGA:   4    -0.128500974255E+04   -0.17483E+01   -0.17482E+01  8540   0.149E+01 0.145E-01
CGA:   5    -0.128534672474E+04   -0.33698E+00   -0.33786E+00  8540   0.386E+00 0.513E-02
CGA:   6    -0.128544512081E+04   -0.98396E-01   -0.98723E-01  8540   0.112E+00 0.330E-02
CGA:   7    -0.128547779426E+04   -0.32673E-01   -0.32726E-01  8540   0.377E-01 0.126E-02
CGA:   8    -0.128549037776E+04   -0.12583E-01   -0.12583E-01  8540   0.138E-01 0.506E-04
CGA:   9    -0.128549475645E+04   -0.43787E-02   -0.43818E-02  8540   0.405E-02 0.254E-03
CGA:  10    -0.128549595995E+04   -0.12035E-02   -0.12238E-02  8540   0.110E-02 0.635E-03
CGA:  11    -0.128549631016E+04   -0.35021E-03   -0.36329E-03  8540   0.382E-03 0.314E-03
CGA:  12    -0.128549649588E+04   -0.18572E-03   -0.18128E-03  8540   0.207E-03 0.987E-04
CGA:  13    -0.128549660029E+04   -0.10440E-03   -0.10023E-03  8540   0.119E-03 0.723E-04
CGA:  14    -0.128549664073E+04   -0.40444E-04   -0.44612E-04  8540   0.643E-04 0.795E-04
CGA:  15    -0.128549665308E+04   -0.12353E-04   -0.15654E-04  8540   0.320E-04 0.391E-04
CGA:  16    -0.128549665792E+04   -0.48401E-05   -0.73440E-05  8540   0.232E-04 0.265E-04
  17 F= -.12854967E+04 E0= -.12854967E+04  d E =-.225457E+00  mag=   126.0000
       N       E                     dE             d eps       ncg     rms          ort
SDA:   1    -0.124416360740E+04    0.41333E+02    0.00000E+00  8540   0.132E+03 0.000E+00
CGA:   2    -0.126981088440E+04   -0.25647E+02   -0.26095E+02  8540   0.486E+02 0.325E+00
CGA:   3    -0.128196598324E+04   -0.12155E+02   -0.12167E+02  8540   0.118E+02 0.174E+00
CGA:   4    -0.128443402398E+04   -0.24680E+01   -0.24698E+01  8540   0.214E+01 0.116E-01
CGA:   5    -0.128491082607E+04   -0.47680E+00   -0.47713E+00  8540   0.521E+00 0.219E-03
CGA:   6    -0.128504141959E+04   -0.13059E+00   -0.13060E+00  8540   0.142E+00-0.129E-03
CGA:   7    -0.128508174916E+04   -0.40330E-01   -0.40339E-01  8540   0.447E-01 0.804E-03
CGA:   8    -0.128509550672E+04   -0.13758E-01   -0.13748E-01  8540   0.154E-01 0.773E-03
CGA:   9    -0.128510074042E+04   -0.52337E-02   -0.52111E-02  8540   0.529E-02 0.592E-03
CGA:  10    -0.128510247460E+04   -0.17342E-02   -0.17210E-02  8540   0.161E-02 0.787E-03
CGA:  11    -0.128510300629E+04   -0.53169E-03   -0.53557E-03  8540   0.532E-03 0.465E-03
CGA:  12    -0.128510316871E+04   -0.16242E-03   -0.17481E-03  8540   0.245E-03 0.294E-03
CGA:  13    -0.128510322784E+04   -0.59125E-04   -0.64003E-04  8540   0.130E-03 0.147E-03
CGA:  14    -0.128510325375E+04   -0.25910E-04   -0.31462E-04  8540   0.993E-04 0.110E-03
CGA:  15    -0.128510326364E+04   -0.98899E-05   -0.18948E-04  8540   0.839E-04 0.907E-04
CGA:  16    -0.128510327056E+04   -0.69240E-05   -0.15124E-04  8540   0.724E-04 0.777E-04
CGA:  17    -0.128510327467E+04   -0.41102E-05   -0.11937E-04  8540   0.636E-04 0.677E-04
  18 F= -.12851033E+04 E0= -.12851033E+04  d E =0.393383E+00  mag=   126.0000
       N       E                     dE             d eps       ncg     rms          ort
SDA:   1    -0.127678535587E+04    0.83179E+01    0.00000E+00  8540   0.277E+02 0.000E+00
CGA:   2    -0.128224397991E+04   -0.54586E+01   -0.54790E+01  8540   0.106E+02 0.734E-01
CGA:   3    -0.128490643859E+04   -0.26625E+01   -0.26627E+01  8540   0.262E+01 0.163E-01
CGA:   4    -0.128544917389E+04   -0.54274E+00   -0.54285E+00  8540   0.492E+00 0.298E-03
CGA:   5    -0.128555752305E+04   -0.10835E+00   -0.10833E+00  8540   0.114E+00-0.692E-03
CGA:   6    -0.128558529984E+04   -0.27777E-01   -0.27765E-01  8540   0.299E-01-0.807E-03
CGA:   7    -0.128559361069E+04   -0.83108E-02   -0.83201E-02  8540   0.914E-02-0.426E-03
CGA:   8    -0.128559636228E+04   -0.27516E-02   -0.27695E-02  8540   0.309E-02-0.377E-03
CGA:   9    -0.128559744089E+04   -0.10786E-02   -0.11406E-02  8540   0.140E-02-0.503E-03
CGA:  10    -0.128559784086E+04   -0.39996E-03   -0.40755E-03  8540   0.458E-03-0.971E-04
CGA:  11    -0.128559800117E+04   -0.16031E-03   -0.22909E-03  8540   0.379E-03-0.259E-03
CGA:  12    -0.128559810923E+04   -0.10806E-03   -0.10805E-03  8540   0.692E-04-0.236E-04
CGA:  13    -0.128559815437E+04   -0.45138E-04    0.42389E-04  8540   0.208E-04 0.190E-04
CGA:  14    -0.128559817531E+04   -0.20941E-04    0.97472E-05  8540   0.120E-04 0.135E-04
CGA:  15    -0.128559818677E+04   -0.11465E-04    0.25273E-05  8540   0.664E-05 0.631E-05
CGA:  16    -0.128559819786E+04   -0.11081E-04    0.49288E-06  8540   0.486E-05 0.520E-05
CGA:  17    -0.128559820586E+04   -0.80071E-05    0.36721E-06  8540   0.377E-05 0.412E-05
  19 F= -.12855982E+04 E0= -.12855982E+04  d E =-.494931E+00  mag=   126.0000
       N       E                     dE             d eps       ncg     rms          ort
SDA:   1    -0.128416637932E+04    0.14318E+01    0.00000E+00  8540   0.447E+01 0.000E+00
CGA:   2    -0.128509895763E+04   -0.93258E+00   -0.93330E+00  8540   0.184E+01 0.426E-02
CGA:   3    -0.128554359115E+04   -0.44463E+00   -0.44476E+00  8540   0.434E+00 0.182E-02
CGA:   4    -0.128563364204E+04   -0.90051E-01   -0.89982E-01  8540   0.799E-01-0.980E-03
CGA:   5    -0.128565118806E+04   -0.17546E-01   -0.17549E-01  8540   0.182E-01 0.240E-04
CGA:   6    -0.128565551351E+04   -0.43255E-02   -0.43370E-02  8540   0.452E-02 0.323E-03
CGA:   7    -0.128565678524E+04   -0.12717E-02   -0.12714E-02  8540   0.134E-02 0.643E-04
CGA:   8    -0.128565724620E+04   -0.46096E-03   -0.48042E-03  8540   0.616E-03-0.237E-03
CGA:   9    -0.128565742915E+04   -0.18295E-03   -0.23504E-03  8540   0.459E-03-0.277E-03
CGA:  10    -0.128565749424E+04   -0.65096E-04   -0.64802E-04  8540   0.166E-03-0.107E-04
CGA:  11    -0.128565753145E+04   -0.37206E-04   -0.37816E-04  8540   0.688E-04 0.120E-04
CGA:  12    -0.128565755068E+04   -0.19226E-04   -0.45343E-04  8540   0.139E-03-0.785E-04
CGA:  13    -0.128565758919E+04   -0.38516E-04   -0.38512E-04  8540   0.197E-04-0.246E-06
CGA:  14    -0.128565760676E+04   -0.17571E-04    0.58257E-05  8540   0.404E-05 0.119E-05
CGA:  15    -0.128565760717E+04   -0.40614E-06   -0.75834E-06  8540   0.223E-05 0.294E-05
  20 F= -.12856576E+04 E0= -.12856576E+04  d E =-.594013E-01  mag=   126.0000
       N       E                     dE             d eps       ncg     rms          ort
SDA:   1    -0.128477274304E+04    0.88486E+00    0.00000E+00  8540   0.265E+01 0.000E+00
CGA:   2    -0.128534438063E+04   -0.57164E+00   -0.57205E+00  8540   0.113E+01 0.253E-02
CGA:   3    -0.128561199935E+04   -0.26762E+00   -0.26771E+00  8540   0.262E+00 0.823E-03
CGA:   4    -0.128566615238E+04   -0.54153E-01   -0.54095E-01  8540   0.466E-01-0.665E-03
CGA:   5    -0.128567625208E+04   -0.10100E-01   -0.10117E-01  8540   0.106E-01 0.223E-03
CGA:   6    -0.128567874176E+04   -0.24897E-02   -0.25167E-02  8540   0.255E-02 0.501E-03
CGA:   7    -0.128567944401E+04   -0.70225E-03   -0.70619E-03  8540   0.727E-03 0.179E-03
CGA:   8    -0.128567972643E+04   -0.28242E-03   -0.29624E-03  8540   0.392E-03-0.144E-03
CGA:   9    -0.128567983800E+04   -0.11158E-03   -0.11965E-03  8540   0.188E-03-0.890E-04
CGA:  10    -0.128567986433E+04   -0.26330E-04   -0.30291E-04  8540   0.689E-04 0.458E-04
CGA:  11    -0.128567987390E+04   -0.95637E-05   -0.13885E-04  8540   0.281E-04 0.337E-04
  21 F= -.12856799E+04 E0= -.12856799E+04  d E =-.222667E-01  mag=   126.0000
       N       E                     dE             d eps       ncg     rms          ort
SDA:   1    -0.128337621494E+04    0.23036E+01    0.00000E+00  8540   0.626E+01 0.000E+00
CGA:   2    -0.128492971412E+04   -0.15535E+01   -0.15538E+01  8540   0.293E+01 0.441E-02
CGA:   3    -0.128555562546E+04   -0.62591E+00   -0.62593E+00  8540   0.589E+00-0.550E-03
CGA:   4    -0.128567660270E+04   -0.12098E+00   -0.12096E+00  8540   0.102E+00-0.282E-03
CGA:   5    -0.128569874784E+04   -0.22145E-01   -0.22189E-01  8540   0.234E-01 0.789E-03
CGA:   6    -0.128570442964E+04   -0.56818E-02   -0.57066E-02  8540   0.578E-02 0.909E-03
CGA:   7    -0.128570601402E+04   -0.15844E-02   -0.15857E-02  8540   0.171E-02 0.404E-03
CGA:   8    -0.128570665101E+04   -0.63699E-03   -0.64347E-03  8540   0.755E-03-0.777E-04
CGA:   9    -0.128570689083E+04   -0.23982E-03   -0.23877E-03  8540   0.280E-03 0.171E-04
CGA:  10    -0.128570695024E+04   -0.59412E-04   -0.64829E-04  8540   0.103E-03 0.113E-03
CGA:  11    -0.128570697127E+04   -0.21025E-04   -0.27031E-04  8540   0.503E-04 0.702E-04
CGA:  12    -0.128570700089E+04   -0.29624E-04   -0.26851E-04  8540   0.378E-04 0.103E-04
CGA:  13    -0.128570700908E+04   -0.81912E-05   -0.10068E-04  8540   0.194E-04 0.313E-04
  22 F= -.12857070E+04 E0= -.12857070E+04  d E =-.271352E-01  mag=   126.0000
       N       E                     dE             d eps       ncg     rms          ort
SDA:   1    -0.125513085618E+04    0.30576E+02    0.00000E+00  8540   0.886E+02 0.000E+00
CGA:   2    -0.127452632649E+04   -0.19395E+02   -0.19462E+02  8540   0.374E+02 0.412E+00
CGA:   3    -0.128325791292E+04   -0.87316E+01   -0.87339E+01  8540   0.807E+01 0.543E-01
CGA:   4    -0.128493047148E+04   -0.16726E+01   -0.16730E+01  8540   0.147E+01 0.344E-02
CGA:   5    -0.128525877970E+04   -0.32831E+00   -0.32840E+00  8540   0.347E+00 0.821E-03
CGA:   6    -0.128534519392E+04   -0.86414E-01   -0.86408E-01  8540   0.943E-01-0.548E-03
CGA:   7    -0.128537168265E+04   -0.26489E-01   -0.26469E-01  8540   0.291E-01 0.112E-02
CGA:   8    -0.128538082721E+04   -0.91446E-02   -0.91090E-02  8540   0.101E-01 0.787E-03
CGA:   9    -0.128538437607E+04   -0.35489E-02   -0.35183E-02  8540   0.365E-02 0.417E-03
CGA:  10    -0.128538561732E+04   -0.12413E-02   -0.12139E-02  8540   0.121E-02 0.557E-03
CGA:  11    -0.128538605248E+04   -0.43515E-03   -0.42349E-03  8540   0.470E-03 0.365E-03
CGA:  12    -0.128538621722E+04   -0.16475E-03   -0.16574E-03  8540   0.245E-03 0.279E-03
CGA:  13    -0.128538629009E+04   -0.72870E-04   -0.70856E-04  8540   0.131E-03 0.140E-03
CGA:  14    -0.128538633176E+04   -0.41668E-04   -0.39143E-04  8540   0.989E-04 0.107E-03
CGA:  15    -0.128538635009E+04   -0.18327E-04   -0.22599E-04  8540   0.826E-04 0.890E-04
CGA:  16    -0.128538636661E+04   -0.16520E-04   -0.19443E-04  8540   0.700E-04 0.757E-04
CGA:  17    -0.128538637768E+04   -0.11075E-04   -0.14912E-04  8540   0.606E-04 0.650E-04
CGA:  18    -0.128538638592E+04   -0.82347E-05   -0.12130E-04  8540   0.530E-04 0.566E-04
  23 F= -.12853864E+04 E0= -.12853864E+04  d E =0.320623E+00  mag=   126.0000
       N       E                     dE             d eps       ncg     rms          ort
SDA:   1    -0.127570313989E+04    0.96832E+01    0.00000E+00  8540   0.310E+02 0.000E+00
CGA:   2    -0.128197051567E+04   -0.62674E+01   -0.62811E+01  8540   0.122E+02 0.768E-01
CGA:   3    -0.128497175957E+04   -0.30012E+01   -0.30015E+01  8540   0.295E+01 0.120E-01
CGA:   4    -0.128558524391E+04   -0.61348E+00   -0.61344E+00  8540   0.554E+00-0.248E-02
CGA:   5    -0.128570755221E+04   -0.12231E+00   -0.12229E+00  8540   0.128E+00-0.907E-03
CGA:   6    -0.128573855447E+04   -0.31002E-01   -0.30994E-01  8540   0.331E-01-0.814E-03
CGA:   7    -0.128574781566E+04   -0.92612E-02   -0.92736E-02  8540   0.101E-01-0.436E-03
CGA:   8    -0.128575088977E+04   -0.30741E-02   -0.31028E-02  8540   0.353E-02-0.501E-03
CGA:   9    -0.128575212525E+04   -0.12355E-02   -0.13139E-02  8540   0.168E-02-0.584E-03
CGA:  10    -0.128575261178E+04   -0.48653E-03   -0.49917E-03  8540   0.594E-03-0.138E-03
CGA:  11    -0.128575281215E+04   -0.20037E-03   -0.31565E-03  8540   0.609E-03-0.372E-03
CGA:  12    -0.128575297514E+04   -0.16299E-03   -0.16293E-03  8540   0.101E-03-0.380E-05
CGA:  13    -0.128575304360E+04   -0.68455E-04    0.72499E-04  8540   0.341E-04 0.334E-04
CGA:  14    -0.128575307340E+04   -0.29802E-04    0.40219E-04  8540   0.211E-04 0.244E-04
CGA:  15    -0.128575308923E+04   -0.15831E-04    0.92781E-05  8540   0.119E-04 0.114E-04
CGA:  16    -0.128575310536E+04   -0.16130E-04    0.12086E-05  8540   0.876E-05 0.935E-05
CGA:  17    -0.128575311589E+04   -0.10532E-04    0.11091E-05  8540   0.685E-05 0.745E-05
CGA:  18    -0.128575312802E+04   -0.12128E-04    0.45784E-06  8540   0.547E-05 0.596E-05
CGA:  19    -0.128575313596E+04   -0.79413E-05    0.49662E-06  8540   0.441E-05 0.479E-05
  24 F= -.12857531E+04 E0= -.12857531E+04  d E =-.366750E+00  mag=   126.0000
       N       E                     dE             d eps       ncg     rms          ort
SDA:   1    -0.128532071237E+04    0.43242E+00    0.00000E+00  8540   0.133E+01 0.000E+00
CGA:   2    -0.128560197397E+04   -0.28126E+00   -0.28146E+00  8540   0.562E+00 0.196E-02
CGA:   3    -0.128573712092E+04   -0.13515E+00   -0.13516E+00  8540   0.131E+00-0.914E-04
CGA:   4    -0.128576418807E+04   -0.27067E-01   -0.27007E-01  8540   0.237E-01-0.862E-03
CGA:   5    -0.128576939943E+04   -0.52114E-02   -0.52130E-02  8540   0.545E-02 0.240E-04
CGA:   6    -0.128577065851E+04   -0.12591E-02   -0.12679E-02  8540   0.130E-02 0.225E-03
CGA:   7    -0.128577103549E+04   -0.37699E-03   -0.37669E-03  8540   0.389E-03 0.307E-04
CGA:   8    -0.128577116978E+04   -0.13429E-03   -0.21455E-03  8540   0.561E-03-0.299E-03
CGA:   9    -0.128577128197E+04   -0.11219E-03   -0.11174E-03  8540   0.708E-04-0.538E-05
CGA:  10    -0.128577130837E+04   -0.26399E-04   -0.31424E-04  8540   0.504E-04-0.298E-04
CGA:  11    -0.128577133726E+04   -0.28894E-04    0.58154E-05  8540   0.201E-04 0.168E-05
CGA:  12    -0.128577136255E+04   -0.25287E-04    0.26931E-05  8540   0.938E-05 0.154E-05
CGA:  13    -0.128577137946E+04   -0.16909E-04    0.76214E-06  8540   0.407E-05 0.943E-06
CGA:  14    -0.128577139012E+04   -0.10661E-04    0.20613E-06  8540   0.219E-05 0.133E-05
CGA:  15    -0.128577139864E+04   -0.85242E-05    0.10216E-06  8540   0.102E-05 0.650E-06
  25 F= -.12857714E+04 E0= -.12857714E+04  d E =-.182627E-01  mag=   126.0000
       N       E                     dE             d eps       ncg     rms          ort
SDA:   1    -0.128455144387E+04    0.12199E+01    0.00000E+00  8540   0.354E+01 0.000E+00
CGA:   2    -0.128531725200E+04   -0.76581E+00   -0.76629E+00  8540   0.155E+01 0.401E-02
CGA:   3    -0.128568779434E+04   -0.37054E+00   -0.37060E+00  8540   0.354E+00 0.344E-03
CGA:   4    -0.128575999357E+04   -0.72199E-01   -0.72094E-01  8540   0.615E-01-0.139E-02
CGA:   5    -0.128577353282E+04   -0.13539E-01   -0.13543E-01  8540   0.143E-01 0.472E-04
CGA:   6    -0.128577688539E+04   -0.33526E-02   -0.33725E-02  8540   0.340E-02 0.497E-03
CGA:   7    -0.128577783155E+04   -0.94616E-03   -0.94673E-03  8540   0.981E-03 0.149E-03
CGA:   8    -0.128577820664E+04   -0.37509E-03   -0.41228E-03  8540   0.620E-03-0.287E-03
CGA:   9    -0.128577835647E+04   -0.14983E-03   -0.20026E-03  8540   0.459E-03-0.286E-03
CGA:  10    -0.128577842536E+04   -0.68891E-04   -0.68573E-04  8540   0.187E-03-0.278E-04
CGA:  11    -0.128577847586E+04   -0.50499E-04   -0.50497E-04  8540   0.972E-04-0.600E-05
CGA:  12    -0.128577843651E+04    0.39350E-04   -0.92849E-04  8540   0.501E-03-0.189E-03
CGA:  13    -0.128577856184E+04   -0.12534E-03   -0.12633E-03  8540   0.754E-04 0.138E-04
CGA:  14    -0.128577859146E+04   -0.29618E-04   -0.45455E-04  8540   0.717E-04-0.592E-04
CGA:  15    -0.128577859841E+04   -0.69521E-05   -0.11485E-04  8540   0.122E-04 0.263E-04
  26 F= -.12857786E+04 E0= -.12857786E+04  d E =-.719977E-02  mag=   126.0000
       N       E                     dE             d eps       ncg     rms          ort
SDA:   1    -0.128429770628E+04    0.14809E+01    0.00000E+00  8540   0.394E+01 0.000E+00
CGA:   2    -0.128527279415E+04   -0.97509E+00   -0.97536E+00  8540   0.195E+01 0.194E-02
CGA:   3    -0.128569413517E+04   -0.42134E+00   -0.42135E+00  8540   0.358E+00-0.543E-03
CGA:   4    -0.128576707650E+04   -0.72941E-01   -0.72896E-01  8540   0.627E-01-0.486E-03
CGA:   5    -0.128578108369E+04   -0.14007E-01   -0.14022E-01  8540   0.146E-01 0.168E-03
CGA:   6    -0.128578455618E+04   -0.34725E-02   -0.34959E-02  8540   0.349E-02 0.399E-03
CGA:   7    -0.128578551453E+04   -0.95836E-03   -0.96360E-03  8540   0.103E-02 0.202E-03
CGA:   8    -0.128578588737E+04   -0.37283E-03   -0.37466E-03  8540   0.442E-03-0.371E-04
CGA:   9    -0.128578604470E+04   -0.15734E-03   -0.15932E-03  8540   0.193E-03-0.260E-04
CGA:  10    -0.128578609483E+04   -0.50122E-04   -0.50920E-04  8540   0.650E-04 0.411E-04
CGA:  11    -0.128578611933E+04   -0.24502E-04   -0.24333E-04  8540   0.312E-04 0.167E-04
CGA:  12    -0.128578613694E+04   -0.17612E-04   -0.32487E-04  8540   0.838E-04-0.285E-04
CGA:  13    -0.128578615891E+04   -0.21972E-04   -0.22332E-04  8540   0.138E-04 0.609E-05
CGA:  14    -0.128578608594E+04    0.72974E-04   -0.39507E-04  8540   0.323E-03-0.602E-04
CGA:  15    -0.128578615946E+04   -0.73523E-04   -0.82038E-04  8540   0.442E-04 0.254E-04
CGA:  16    -0.128578618118E+04   -0.21715E-04   -0.20233E-04  8540   0.108E-04-0.101E-04
CGA:  17    -0.128578618105E+04    0.12911E-06   -0.12902E-05  8540   0.367E-05 0.347E-05
  27 F= -.12857862E+04 E0= -.12857862E+04  d E =-.758263E-02  mag=   126.0000
       N       E                     dE             d eps       ncg     rms          ort
SDA:   1    -0.126432755364E+04    0.21459E+02    0.00000E+00  8540   0.599E+02 0.000E+00
CGA:   2    -0.127802651545E+04   -0.13699E+02   -0.13764E+02  8540   0.270E+02-0.875E-02
CGA:   3    -0.128412482701E+04   -0.60983E+01   -0.61026E+01  8540   0.550E+01 0.682E-01
CGA:   4    -0.128525832804E+04   -0.11335E+01   -0.11347E+01  8540   0.101E+01 0.348E-02
CGA:   5    -0.128548558583E+04   -0.22726E+00   -0.22724E+00  8540   0.235E+00-0.798E-03
CGA:   6    -0.128554399444E+04   -0.58409E-01   -0.58110E-01  8540   0.622E-01-0.142E-02
CGA:   7    -0.128556128999E+04   -0.17296E-01   -0.17348E-01  8540   0.184E-01 0.286E-03
CGA:   8    -0.128556674914E+04   -0.54591E-02   -0.55394E-02  8540   0.590E-02 0.538E-03
CGA:   9    -0.128556878758E+04   -0.20384E-02   -0.20595E-02  8540   0.203E-02 0.206E-03
CGA:  10    -0.128556951910E+04   -0.73152E-03   -0.73916E-03  8540   0.699E-03 0.898E-04
CGA:  11    -0.128556976758E+04   -0.24848E-03   -0.25421E-03  8540   0.246E-03 0.686E-04
CGA:  12    -0.128556983719E+04   -0.69612E-04   -0.81378E-04  8540   0.102E-03 0.935E-04
CGA:  13    -0.128556986657E+04   -0.29379E-04   -0.39159E-04  8540   0.557E-04 0.677E-04
CGA:  14    -0.128556989317E+04   -0.26599E-04   -0.25676E-04  8540   0.337E-04 0.191E-04
CGA:  15    -0.128556989910E+04   -0.59331E-05   -0.11460E-04  8540   0.211E-04 0.339E-04
  28 F= -.12855699E+04 E0= -.12855699E+04  d E =0.216282E+00  mag=   126.0000
       N       E                     dE             d eps       ncg     rms          ort
SDA:   1    -0.127928201591E+04    0.62879E+01    0.00000E+00  8540   0.195E+02 0.000E+00
CGA:   2    -0.128335879904E+04   -0.40768E+01   -0.40872E+01  8540   0.806E+01 0.294E-02
CGA:   3    -0.128529553405E+04   -0.19367E+01   -0.19374E+01  8540   0.191E+01 0.262E-02
CGA:   4    -0.128568975512E+04   -0.39422E+00   -0.39397E+00  8540   0.352E+00-0.175E-02
CGA:   5    -0.128576791199E+04   -0.78157E-01   -0.78200E-01  8540   0.810E-01 0.147E-03
CGA:   6    -0.128578731983E+04   -0.19408E-01   -0.19438E-01  8540   0.204E-01 0.215E-03
CGA:   7    -0.128579299406E+04   -0.56742E-02   -0.56928E-02  8540   0.591E-02 0.224E-03
CGA:   8    -0.128579482869E+04   -0.18346E-02   -0.18288E-02  8540   0.197E-02-0.118E-03
CGA:   9    -0.128579551866E+04   -0.68997E-03   -0.69037E-03  8540   0.755E-03-0.925E-04
CGA:  10    -0.128579571528E+04   -0.19662E-03   -0.20569E-03  8540   0.216E-03 0.132E-03
CGA:  11    -0.128579578096E+04   -0.65680E-04   -0.70154E-04  8540   0.716E-04 0.602E-04
CGA:  12    -0.128579580584E+04   -0.24876E-04   -0.26507E-04  8540   0.331E-04 0.281E-04
CGA:  13    -0.128579581492E+04   -0.90791E-05   -0.11429E-04  8540   0.187E-04 0.244E-04
  29 F= -.12857958E+04 E0= -.12857958E+04  d E =-.225916E+00  mag=   126.0000
       N       E                     dE             d eps       ncg     rms          ort
SDA:   1    -0.128520726771E+04    0.58854E+00    0.00000E+00  8540   0.179E+01 0.000E+00
CGA:   2    -0.128558669447E+04   -0.37943E+00   -0.37984E+00  8540   0.755E+00 0.208E-02
CGA:   3    -0.128576775541E+04   -0.18106E+00   -0.18106E+00  8540   0.175E+00-0.409E-03
CGA:   4    -0.128580418716E+04   -0.36432E-01   -0.36300E-01  8540   0.320E-01-0.115E-02
CGA:   5    -0.128581112626E+04   -0.69391E-02   -0.69580E-02  8540   0.723E-02 0.179E-03
CGA:   6    -0.128581277707E+04   -0.16508E-02   -0.16841E-02  8540   0.171E-02 0.401E-03
CGA:   7    -0.128581327186E+04   -0.49479E-03   -0.49743E-03  8540   0.502E-03 0.769E-04
CGA:   8    -0.128581347551E+04   -0.20366E-03   -0.24765E-03  8540   0.485E-03-0.270E-03
CGA:   9    -0.128581357666E+04   -0.10115E-03   -0.10063E-03  8540   0.701E-04-0.479E-05
CGA:  10    -0.128581360312E+04   -0.26465E-04   -0.27525E-04  8540   0.331E-04-0.125E-04
CGA:  11    -0.128581363160E+04   -0.28479E-04    0.64864E-05  8540   0.106E-04 0.485E-05
CGA:  12    -0.128581365094E+04   -0.19339E-04    0.12582E-05  8540   0.410E-05 0.288E-05
CGA:  13    -0.128581366342E+04   -0.12479E-04    0.29406E-06  8540   0.203E-05 0.161E-05
CGA:  14    -0.128581367357E+04   -0.10148E-04    0.94852E-07  8540   0.975E-06 0.109E-05
CGA:  15    -0.128581367701E+04   -0.34399E-05    0.33471E-07  8540   0.460E-06 0.440E-06
  30 F= -.12858137E+04 E0= -.12858137E+04  d E =-.178621E-01  mag=   126.0000
       N       E                     dE             d eps       ncg     rms          ort
SDA:   1    -0.128532205683E+04    0.49162E+00    0.00000E+00  8540   0.146E+01 0.000E+00
CGA:   2    -0.128562890365E+04   -0.30685E+00   -0.30718E+00  8540   0.622E+00 0.211E-02
CGA:   3    -0.128578103459E+04   -0.15213E+00   -0.15214E+00  8540   0.148E+00-0.290E-03
CGA:   4    -0.128581153598E+04   -0.30501E-01   -0.30387E-01  8540   0.260E-01-0.115E-02
CGA:   5    -0.128581713765E+04   -0.56017E-02   -0.56172E-02  8540   0.589E-02 0.178E-03
CGA:   6    -0.128581845735E+04   -0.13197E-02   -0.13504E-02  8540   0.134E-02 0.439E-03
CGA:   7    -0.128581883873E+04   -0.38138E-03   -0.38394E-03  8540   0.385E-03 0.962E-04
CGA:   8    -0.128581899038E+04   -0.15165E-03   -0.22486E-03  8540   0.548E-03-0.291E-03
CGA:   9    -0.128581909801E+04   -0.10763E-03   -0.10889E-03  8540   0.676E-04 0.117E-04
CGA:  10    -0.128581912159E+04   -0.23583E-04   -0.23724E-04  8540   0.218E-04-0.328E-05
CGA:  11    -0.128581914382E+04   -0.22233E-04    0.40732E-05  8540   0.748E-05 0.554E-05
CGA:  12    -0.128581916109E+04   -0.17263E-04    0.69174E-06  8540   0.361E-05 0.360E-05
CGA:  13    -0.128581917474E+04   -0.13654E-04    0.25036E-06  8540   0.225E-05 0.257E-05
CGA:  14    -0.128581917913E+04   -0.43917E-05    0.15205E-06  8540   0.110E-05 0.107E-05
  31 F= -.12858192E+04 E0= -.12858192E+04  d E =-.550212E-02  mag=   126.0000
       N       E                     dE             d eps       ncg     rms          ort
SDA:   1    -0.128491666084E+04    0.90251E+00    0.00000E+00  8540   0.246E+01 0.000E+00
CGA:   2    -0.128549378712E+04   -0.57713E+00   -0.57739E+00  8540   0.118E+01 0.239E-02
CGA:   3    -0.128576030419E+04   -0.26652E+00   -0.26652E+00  8540   0.231E+00-0.346E-03
CGA:   4    -0.128580700847E+04   -0.46704E-01   -0.46649E-01  8540   0.404E-01-0.634E-03
CGA:   5    -0.128581596136E+04   -0.89529E-02   -0.89665E-02  8540   0.938E-02 0.189E-03
CGA:   6    -0.128581819174E+04   -0.22304E-02   -0.22459E-02  8540   0.220E-02 0.317E-03
CGA:   7    -0.128581881790E+04   -0.62616E-03   -0.62666E-03  8540   0.663E-03 0.557E-04
CGA:   8    -0.128581907451E+04   -0.25662E-03   -0.28137E-03  8540   0.423E-03-0.192E-03
CGA:   9    -0.128581918151E+04   -0.10699E-03   -0.11990E-03  8540   0.225E-03-0.120E-03
CGA:  10    -0.128581923103E+04   -0.49528E-04   -0.49581E-04  8540   0.830E-04-0.477E-05
CGA:  11    -0.128581926352E+04   -0.32488E-04   -0.37332E-04  8540   0.676E-04-0.299E-04
CGA:  12    -0.128581929379E+04   -0.30264E-04    0.44455E-04  8540   0.388E-04-0.431E-06
CGA:  13    -0.128581932252E+04   -0.28739E-04    0.26560E-04  8540   0.199E-04 0.723E-06
CGA:  14    -0.128581933730E+04   -0.14780E-04    0.15805E-04  8540   0.830E-05 0.723E-06
CGA:  15    -0.128581931182E+04    0.25489E-04   -0.12641E-04  8540   0.109E-03-0.328E-04
CGA:  16    -0.128581934992E+04   -0.38106E-04   -0.37868E-04  8540   0.176E-04-0.159E-04
CGA:  17    -0.128581935060E+04   -0.67947E-06   -0.24447E-05  8540   0.655E-05 0.885E-05
  32 F= -.12858194E+04 E0= -.12858194E+04  d E =-.171470E-03  mag=   126.0000
       N       E                     dE             d eps       ncg     rms          ort
SDA:   1    -0.126316488992E+04    0.22654E+02    0.00000E+00  8540   0.629E+02 0.000E+00
CGA:   2    -0.127767246702E+04   -0.14508E+02   -0.14551E+02  8540   0.285E+02 0.632E-01
CGA:   3    -0.128403716043E+04   -0.63647E+01   -0.63688E+01  8540   0.559E+01 0.365E-01
CGA:   4    -0.128519948893E+04   -0.11623E+01   -0.11629E+01  8540   0.103E+01 0.208E-02
CGA:   5    -0.128543027195E+04   -0.23078E+00   -0.23067E+00  8540   0.241E+00-0.181E-02
CGA:   6    -0.128549096611E+04   -0.60694E-01   -0.60506E-01  8540   0.655E-01-0.276E-02
CGA:   7    -0.128550929839E+04   -0.18332E-01   -0.18323E-01  8540   0.198E-01-0.284E-03
CGA:   8    -0.128551524718E+04   -0.59488E-02   -0.59563E-02  8540   0.641E-02 0.523E-03
CGA:   9    -0.128551755831E+04   -0.23111E-02   -0.23126E-02  8540   0.226E-02-0.435E-04
CGA:  10    -0.128551842140E+04   -0.86309E-03   -0.87820E-03  8540   0.896E-03-0.208E-03
CGA:  11    -0.128551876612E+04   -0.34472E-03   -0.37913E-03  8540   0.502E-03-0.239E-03
CGA:  12    -0.128551890633E+04   -0.14022E-03   -0.13980E-03  8540   0.208E-03 0.724E-05
CGA:  13    -0.128551894925E+04   -0.42914E-04   -0.20332E-03  8540   0.642E-03-0.255E-03
CGA:  14    -0.128551910499E+04   -0.15574E-03   -0.16392E-03  8540   0.593E-04 0.760E-04
CGA:  15    -0.128551916356E+04   -0.58576E-04    0.50356E-04  8540   0.201E-04-0.439E-06
CGA:  16    -0.128551916648E+04   -0.29154E-05   -0.41798E-05  8540   0.828E-05 0.857E-05
  33 F= -.12855192E+04 E0= -.12855192E+04  d E =0.300184E+00  mag=   126.0000
       N       E                     dE             d eps       ncg     rms          ort
SDA:   1    -0.127637004335E+04    0.91491E+01    0.00000E+00  8540   0.290E+02 0.000E+00
CGA:   2    -0.128225900912E+04   -0.58890E+01   -0.59283E+01  8540   0.115E+02-0.736E-02
CGA:   3    -0.128507362247E+04   -0.28146E+01   -0.28159E+01  8540   0.270E+01 0.145E-01
CGA:   4    -0.128564223638E+04   -0.56861E+00   -0.56854E+00  8540   0.505E+00-0.145E-02
CGA:   5    -0.128575353063E+04   -0.11129E+00   -0.11141E+00  8540   0.116E+00 0.446E-03
CGA:   6    -0.128578184827E+04   -0.28318E-01   -0.28391E-01  8540   0.299E-01 0.710E-03
CGA:   7    -0.128579023308E+04   -0.83848E-02   -0.84085E-02  8540   0.874E-02 0.390E-03
CGA:   8    -0.128579300322E+04   -0.27701E-02   -0.27669E-02  8540   0.305E-02-0.138E-03
CGA:   9    -0.128579405541E+04   -0.10522E-02   -0.10537E-02  8540   0.113E-02-0.922E-04
CGA:  10    -0.128579436046E+04   -0.30504E-03   -0.31465E-03  8540   0.322E-03 0.201E-03
CGA:  11    -0.128579445936E+04   -0.98906E-04   -0.10452E-03  8540   0.107E-03 0.955E-04
CGA:  12    -0.128579450065E+04   -0.41291E-04   -0.42329E-04  8540   0.518E-04 0.397E-04
CGA:  13    -0.128579451423E+04   -0.13580E-04   -0.17075E-04  8540   0.296E-04 0.392E-04
CGA:  14    -0.128579452028E+04   -0.60492E-05   -0.74186E-05  8540   0.156E-04 0.184E-04
  34 F= -.12857945E+04 E0= -.12857945E+04  d E =-.275354E+00  mag=   126.0000
       N       E                     dE             d eps       ncg     rms          ort
SDA:   1    -0.128533286875E+04    0.46165E+00    0.00000E+00  8540   0.142E+01 0.000E+00
CGA:   2    -0.128563665975E+04   -0.30379E+00   -0.30415E+00  8540   0.603E+00 0.231E-02
CGA:   3    -0.128578012665E+04   -0.14347E+00   -0.14348E+00  8540   0.138E+00-0.134E-03
CGA:   4    -0.128580908742E+04   -0.28961E-01   -0.28857E-01  8540   0.256E-01-0.107E-02
CGA:   5    -0.128581457381E+04   -0.54864E-02   -0.55100E-02  8540   0.570E-02 0.266E-03
CGA:   6    -0.128581583728E+04   -0.12635E-02   -0.12997E-02  8540   0.132E-02 0.488E-03
CGA:   7    -0.128581621390E+04   -0.37661E-03   -0.38043E-03  8540   0.380E-03 0.126E-03
CGA:   8    -0.128581637519E+04   -0.16129E-03   -0.20333E-03  8540   0.398E-03-0.218E-03
CGA:   9    -0.128581645596E+04   -0.80775E-04   -0.81403E-04  8540   0.528E-04 0.625E-05
CGA:  10    -0.128581647442E+04   -0.18451E-04   -0.18499E-04  8540   0.172E-04-0.105E-05
CGA:  11    -0.128581649153E+04   -0.17115E-04    0.37466E-05  8540   0.573E-05 0.515E-05
CGA:  12    -0.128581650376E+04   -0.12232E-04    0.65064E-06  8540   0.249E-05 0.260E-05
CGA:  13    -0.128581651246E+04   -0.87002E-05    0.18326E-06  8540   0.128E-05 0.154E-05
  35 F= -.12858165E+04 E0= -.12858165E+04  d E =-.219922E-01  mag=   126.0000
       N       E                     dE             d eps       ncg     rms          ort
SDA:   1    -0.128521634430E+04    0.60016E+00    0.00000E+00  8540   0.181E+01 0.000E+00
CGA:   2    -0.128559289260E+04   -0.37655E+00   -0.37702E+00  8540   0.750E+00 0.321E-02
CGA:   3    -0.128577555629E+04   -0.18266E+00   -0.18266E+00  8540   0.180E+00-0.446E-03
CGA:   4    -0.128581338264E+04   -0.37826E-01   -0.37680E-01  8540   0.328E-01-0.176E-02
CGA:   5    -0.128582041208E+04   -0.70294E-02   -0.70404E-02  8540   0.728E-02 0.139E-03
CGA:   6    -0.128582204614E+04   -0.16341E-02   -0.16670E-02  8540   0.167E-02 0.565E-03
CGA:   7    -0.128582253248E+04   -0.48634E-03   -0.48768E-03  8540   0.483E-03 0.108E-03
CGA:   8    -0.128582271446E+04   -0.18197E-03   -0.28140E-03  8540   0.703E-03-0.377E-03
CGA:   9    -0.128582285469E+04   -0.14024E-03   -0.14056E-03  8540   0.832E-04 0.331E-05
CGA:  10    -0.128582288660E+04   -0.31907E-04   -0.35884E-04  8540   0.477E-04-0.288E-04
CGA:  11    -0.128582291902E+04   -0.32419E-04    0.62583E-05  8540   0.162E-04 0.163E-05
CGA:  12    -0.128582294459E+04   -0.25573E-04    0.15928E-05  8540   0.632E-05 0.170E-05
CGA:  13    -0.128582296088E+04   -0.16292E-04    0.35740E-06  8540   0.280E-05 0.983E-06
CGA:  14    -0.128582297208E+04   -0.11199E-04    0.10041E-06  8540   0.129E-05 0.925E-06
CGA:  15    -0.128582298075E+04   -0.86705E-05    0.34014E-07  8540   0.683E-06 0.447E-06
  36 F= -.12858230E+04 E0= -.12858230E+04  d E =-.646829E-02  mag=   126.0000
       N       E                     dE             d eps       ncg     rms          ort
SDA:   1    -0.128574068528E+04    0.82287E-01    0.00000E+00  8540   0.230E+00 0.000E+00
CGA:   2    -0.128579589616E+04   -0.55211E-01   -0.55237E-01  8540   0.110E+00 0.358E-03
CGA:   3    -0.128582008714E+04   -0.24191E-01   -0.24181E-01  8540   0.206E-01-0.168E-03
CGA:   4    -0.128582435935E+04   -0.42722E-02   -0.42552E-02  8540   0.379E-02-0.204E-03
CGA:   5    -0.128582520287E+04   -0.84352E-03   -0.84180E-03  8540   0.881E-03-0.285E-04
CGA:   6    -0.128582540249E+04   -0.19962E-03   -0.20204E-03  8540   0.205E-03 0.457E-04
CGA:   7    -0.128582546421E+04   -0.61726E-04   -0.61719E-04  8540   0.655E-04 0.141E-05
CGA:   8    -0.128582546115E+04    0.30661E-05   -0.54394E-04  8540   0.281E-03-0.106E-03
CGA:   9    -0.128582551171E+04   -0.50562E-04   -0.52324E-04  8540   0.276E-04 0.143E-04
CGA:  10    -0.128582552254E+04   -0.10831E-04   -0.11636E-04  8540   0.121E-04-0.821E-05
CGA:  11    -0.128582552908E+04   -0.65397E-05    0.51476E-05  8540   0.387E-05-0.160E-06
  37 F= -.12858255E+04 E0= -.12858255E+04  d E =-.254833E-02  mag=   126.0000
       N       E                     dE             d eps       ncg     rms          ort
SDA:   1    -0.128469445474E+04    0.11311E+01    0.00000E+00  8540   0.291E+01 0.000E+00
CGA:   2    -0.128546102835E+04   -0.76657E+00   -0.76667E+00  8540   0.146E+01 0.102E-02
CGA:   3    -0.128575744252E+04   -0.29641E+00   -0.29636E+00  8540   0.246E+00-0.730E-03
CGA:   4    -0.128580803919E+04   -0.50597E-01   -0.50575E-01  8540   0.449E-01-0.246E-03
CGA:   5    -0.128581809901E+04   -0.10060E-01   -0.10054E-01  8540   0.103E-01-0.951E-04
CGA:   6    -0.128582061478E+04   -0.25158E-02   -0.25166E-02  8540   0.260E-02 0.170E-04
CGA:   7    -0.128582135228E+04   -0.73751E-03   -0.73753E-03  8540   0.820E-03 0.393E-05
CGA:   8    -0.128582163874E+04   -0.28645E-03   -0.29126E-03  8540   0.356E-03-0.739E-04
CGA:   9    -0.128582176458E+04   -0.12584E-03   -0.13664E-03  8540   0.184E-03-0.835E-04
CGA:  10    -0.128582181551E+04   -0.50938E-04   -0.77966E-04  8540   0.179E-03-0.106E-03
CGA:  11    -0.128582186173E+04   -0.46217E-04   -0.45918E-04  8540   0.386E-04-0.539E-05
CGA:  12    -0.128582170336E+04    0.15837E-03   -0.86051E-04  8540   0.845E-03-0.140E-03
CGA:  13    -0.128582188537E+04   -0.18201E-03   -0.19014E-03  8540   0.871E-04 0.239E-04
CGA:  14    -0.128582192549E+04   -0.40119E-04   -0.38387E-04  8540   0.190E-04-0.147E-04
CGA:  15    -0.128582192740E+04   -0.19075E-05   -0.36105E-05  8540   0.606E-05 0.546E-05
  38 F= -.12858219E+04 E0= -.12858219E+04  d E =0.360168E-02  mag=   126.0000
       N       E                     dE             d eps       ncg     rms          ort
SDA:   1    -0.128401973673E+04    0.18022E+01    0.00000E+00  8540   0.466E+01 0.000E+00
CGA:   2    -0.128522303991E+04   -0.12033E+01   -0.12039E+01  8540   0.235E+01-0.738E-03
CGA:   3    -0.128571075019E+04   -0.48771E+00   -0.48777E+00  8540   0.403E+00 0.356E-03
CGA:   4    -0.128579274058E+04   -0.81990E-01   -0.82092E-01  8540   0.726E-01 0.327E-03
CGA:   5    -0.128580913914E+04   -0.16399E-01   -0.16352E-01  8540   0.169E-01-0.210E-03
CGA:   6    -0.128581341325E+04   -0.42741E-02   -0.42050E-02  8540   0.435E-02-0.329E-03
CGA:   7    -0.128581462551E+04   -0.12123E-02   -0.12008E-02  8540   0.135E-02-0.682E-04
CGA:   8    -0.128581506026E+04   -0.43475E-03   -0.43150E-03  8540   0.497E-03-0.277E-04
CGA:   9    -0.128581526952E+04   -0.20926E-03   -0.20828E-03  8540   0.271E-03-0.108E-03
CGA:  10    -0.128581536458E+04   -0.95053E-04   -0.13230E-03  8540   0.362E-03-0.197E-03
CGA:  11    -0.128581545509E+04   -0.90518E-04   -0.88268E-04  8540   0.663E-04-0.112E-04
CGA:  12    -0.128581548430E+04   -0.29208E-04   -0.29407E-04  8540   0.301E-04-0.895E-05
CGA:  13    -0.128581552334E+04   -0.39041E-04    0.79009E-05  8540   0.111E-04 0.160E-05
CGA:  14    -0.128581549948E+04    0.23864E-04   -0.20850E-04  8540   0.164E-03-0.333E-04
CGA:  15    -0.128581556325E+04   -0.63772E-04   -0.10641E-03  8540   0.736E-03-0.297E-03
CGA:  16    -0.128581558259E+04   -0.19338E-04   -0.93007E-04  8540   0.648E-04 0.192E-03
CGA:  17    -0.128581557508E+04    0.75080E-05   -0.75148E-05  8540   0.179E-04 0.376E-04
  39 F= -.12858156E+04 E0= -.12858156E+04  d E =0.635232E-02  mag=   126.0000
       N       E                     dE             d eps       ncg     rms          ort
SDA:   1    -0.128494601090E+04    0.86957E+00    0.00000E+00  8540   0.239E+01 0.000E+00
CGA:   2    -0.128550889860E+04   -0.56289E+00   -0.56321E+00  8540   0.114E+01 0.102E-03
CGA:   3    -0.128576004464E+04   -0.25115E+00   -0.25122E+00  8540   0.223E+00 0.419E-04
CGA:   4    -0.128580559278E+04   -0.45548E-01   -0.45579E-01  8540   0.401E-01 0.106E-03
CGA:   5    -0.128581453958E+04   -0.89468E-02   -0.89151E-02  8540   0.921E-02-0.169E-03
CGA:   6    -0.128581691023E+04   -0.23707E-02   -0.23289E-02  8540   0.245E-02-0.262E-03
CGA:   7    -0.128581759897E+04   -0.68874E-03   -0.67609E-03  8540   0.740E-03-0.104E-03
CGA:   8    -0.128581782866E+04   -0.22968E-03   -0.22627E-03  8540   0.259E-03-0.420E-04
CGA:   9    -0.128581793517E+04   -0.10651E-03   -0.11280E-03  8540   0.174E-03-0.977E-04
CGA:  10    -0.128581782705E+04    0.10811E-03   -0.12019E-03  8540   0.102E-02-0.322E-03
CGA:  11    -0.128581805408E+04   -0.22702E-03   -0.22438E-03  8540   0.138E-03-0.124E-04
CGA:  12    -0.128581809616E+04   -0.42087E-04   -0.44501E-04  8540   0.332E-04 0.246E-04
CGA:  13    -0.128581778785E+04    0.30831E-03   -0.16608E-03  8540   0.119E-02-0.179E-03
CGA:  14    -0.128581799657E+04   -0.20871E-03   -0.26912E-03  8540   0.185E-03 0.112E-03
CGA:  15    -0.128581811943E+04   -0.12287E-03   -0.10048E-03  8540   0.237E-03-0.923E-04
CGA:  16    -0.128581812274E+04   -0.33002E-05   -0.17241E-04  8540   0.133E-03 0.241E-04
CGA:  17    -0.128581811623E+04    0.65044E-05   -0.15657E-04  8540   0.463E-04 0.376E-04
  40 F= -.12858181E+04 E0= -.12858181E+04  d E =-.254115E-02  mag=   126.0000
       N       E                     dE             d eps       ncg     rms          ort
SDA:   1    -0.128560733059E+04    0.21079E+00    0.00000E+00  8540   0.626E+00 0.000E+00
CGA:   2    -0.128574373223E+04   -0.13640E+00   -0.13665E+00  8540   0.276E+00 0.288E-03
CGA:   3    -0.128580866789E+04   -0.64936E-01   -0.64914E-01  8540   0.622E-01-0.127E-03
CGA:   4    -0.128582151313E+04   -0.12845E-01   -0.12793E-01  8540   0.109E-01-0.137E-03
CGA:   5    -0.128582387823E+04   -0.23651E-02   -0.23857E-02  8540   0.245E-02 0.534E-04
CGA:   6    -0.128582446382E+04   -0.58559E-03   -0.59865E-03  8540   0.614E-03 0.402E-04
CGA:   7    -0.128582464288E+04   -0.17906E-03   -0.17683E-03  8540   0.183E-03-0.855E-05
CGA:   8    -0.128582470868E+04   -0.65795E-04   -0.61445E-04  8540   0.735E-04-0.225E-04
CGA:   9    -0.128582473659E+04   -0.27909E-04   -0.25630E-04  8540   0.355E-04-0.181E-04
CGA:  10    -0.128582474633E+04   -0.97424E-05   -0.91811E-05  8540   0.117E-04-0.321E-05
  41 F= -.12858247E+04 E0= -.12858247E+04  d E =-.663010E-02  mag=   126.0000
       N       E                     dE             d eps       ncg     rms          ort
SDA:   1    -0.128573865333E+04    0.86083E-01    0.00000E+00  8540   0.253E+00 0.000E+00
CGA:   2    -0.128579549522E+04   -0.56842E-01   -0.56913E-01  8540   0.115E+00 0.141E-03
CGA:   3    -0.128582164674E+04   -0.26152E-01   -0.26164E-01  8540   0.251E-01 0.717E-05
CGA:   4    -0.128582678969E+04   -0.51429E-02   -0.51391E-02  8540   0.450E-02-0.133E-04
CGA:   5    -0.128582777095E+04   -0.98126E-03   -0.98276E-03  8540   0.995E-03 0.455E-05
CGA:   6    -0.128582801559E+04   -0.24464E-03   -0.24477E-03  8540   0.260E-03 0.356E-06
CGA:   7    -0.128582808781E+04   -0.72218E-04   -0.72170E-04  8540   0.742E-04-0.315E-06
CGA:   8    -0.128582811482E+04   -0.27011E-04   -0.25972E-04  8540   0.317E-04-0.109E-04
CGA:   9    -0.128582812636E+04   -0.11539E-04   -0.11327E-04  8540   0.169E-04-0.968E-05
CGA:  10    -0.128582812700E+04   -0.64085E-06   -0.10017E-04  8540   0.540E-04-0.227E-04
CGA:  11    -0.128582813951E+04   -0.12507E-04   -0.12147E-04  8540   0.723E-05-0.154E-05
CGA:  12    -0.128582814260E+04   -0.30972E-05   -0.30825E-05  8540   0.333E-05-0.143E-05
  42 F= -.12858281E+04 E0= -.12858281E+04  d E =-.339627E-02  mag=   126.0000
       N       E                     dE             d eps       ncg     rms          ort
SDA:   1    -0.128521260913E+04    0.61553E+00    0.00000E+00  8540   0.175E+01 0.000E+00
CGA:   2    -0.128560577401E+04   -0.39316E+00   -0.39352E+00  8540   0.809E+00 0.292E-03
CGA:   3    -0.128579184929E+04   -0.18608E+00   -0.18620E+00  8540   0.176E+00 0.415E-03
CGA:   4    -0.128582714242E+04   -0.35293E-01   -0.35323E-01  8540   0.302E-01 0.148E-03
CGA:   5    -0.128583377838E+04   -0.66360E-02   -0.66195E-02  8540   0.699E-02-0.899E-04
CGA:   6    -0.128583552627E+04   -0.17479E-02   -0.17294E-02  8540   0.180E-02-0.117E-03
CGA:   7    -0.128583600705E+04   -0.48079E-03   -0.48090E-03  8540   0.503E-03 0.571E-06
CGA:   8    -0.128583615211E+04   -0.14506E-03   -0.14719E-03  8540   0.153E-03 0.208E-04
CGA:   9    -0.128583621015E+04   -0.58044E-04   -0.57914E-04  8540   0.606E-04-0.532E-05
CGA:  10    -0.128583623670E+04   -0.26552E-04   -0.35360E-04  8540   0.723E-04-0.408E-04
CGA:  11    -0.128583625613E+04   -0.19420E-04   -0.18374E-04  8540   0.120E-04-0.723E-05
CGA:  12    -0.128583625929E+04   -0.31638E-05   -0.32685E-05  8540   0.256E-05 0.115E-05
  43 F= -.12858363E+04 E0= -.12858363E+04  d E =-.811668E-02  mag=   126.0000
       N       E                     dE             d eps       ncg     rms          ort
SDA:   1    -0.128340754895E+04    0.24287E+01    0.00000E+00  8540   0.663E+01 0.000E+00
CGA:   2    -0.128495601754E+04   -0.15485E+01   -0.15505E+01  8540   0.315E+01 0.118E-02
CGA:   3    -0.128567031858E+04   -0.71430E+00   -0.71466E+00  8540   0.646E+00 0.263E-02
CGA:   4    -0.128580039319E+04   -0.13007E+00   -0.13019E+00  8540   0.110E+00 0.703E-03
CGA:   5    -0.128582453846E+04   -0.24145E-01   -0.24124E-01  8540   0.257E-01-0.176E-03
CGA:   6    -0.128583093240E+04   -0.63939E-02   -0.63600E-02  8540   0.659E-02-0.319E-03
CGA:   7    -0.128583270882E+04   -0.17764E-02   -0.17767E-02  8540   0.188E-02 0.278E-05
CGA:   8    -0.128583325762E+04   -0.54881E-03   -0.55359E-03  8540   0.577E-03 0.915E-04
CGA:   9    -0.128583346425E+04   -0.20662E-03   -0.20668E-03  8540   0.209E-03 0.239E-04
CGA:  10    -0.128583355408E+04   -0.89836E-04   -0.92152E-04  8540   0.101E-03-0.295E-04
CGA:  11    -0.128583359085E+04   -0.36773E-04   -0.43275E-04  8540   0.684E-04-0.427E-04
CGA:  12    -0.128583360246E+04   -0.11609E-04   -0.11682E-04  8540   0.286E-04 0.121E-05
CGA:  13    -0.128583361273E+04   -0.10266E-04   -0.10266E-04  8540   0.173E-04-0.147E-05
CGA:  14    -0.128583348370E+04    0.12903E-03   -0.69485E-04  8540   0.457E-03-0.856E-04
CGA:  15    -0.128583359818E+04   -0.11447E-03   -0.12211E-03  8540   0.743E-04 0.202E-04
CGA:  16    -0.128583364362E+04   -0.45446E-04   -0.43015E-04  8540   0.526E-04-0.347E-04
CGA:  17    -0.128583364379E+04   -0.16994E-06   -0.46127E-05  8540   0.256E-04 0.974E-05
  44 F= -.12858336E+04 E0= -.12858336E+04  d E =0.261550E-02  mag=   126.0000
       N       E                     dE             d eps       ncg     rms          ort
SDA:   1    -0.128524818233E+04    0.58546E+00    0.00000E+00  8540   0.164E+01 0.000E+00
CGA:   2    -0.128564174924E+04   -0.39357E+00   -0.39394E+00  8540   0.756E+00 0.180E-03
CGA:   3    -0.128580567493E+04   -0.16393E+00   -0.16398E+00  8540   0.147E+00 0.692E-04
CGA:   4    -0.128583626204E+04   -0.30587E-01   -0.30581E-01  8540   0.277E-01-0.331E-04
CGA:   5    -0.128584234743E+04   -0.60854E-02   -0.60836E-02  8540   0.621E-02-0.131E-04
CGA:   6    -0.128584387074E+04   -0.15233E-02   -0.15240E-02  8540   0.165E-02 0.150E-05
CGA:   7    -0.128584433886E+04   -0.46812E-03   -0.46762E-03  8540   0.501E-03-0.242E-05
CGA:   8    -0.128584449538E+04   -0.15652E-03   -0.15646E-03  8540   0.169E-03-0.436E-06
CGA:   9    -0.128584455656E+04   -0.61188E-04   -0.60517E-04  8540   0.623E-04-0.568E-05
CGA:  10    -0.128584458271E+04   -0.26145E-04   -0.25532E-04  8540   0.297E-04-0.131E-04
CGA:  11    -0.128584459304E+04   -0.10332E-04   -0.10076E-04  8540   0.141E-04-0.665E-05
CGA:  12    -0.128584459869E+04   -0.56440E-05   -0.74098E-05  8540   0.172E-04-0.849E-05
  45 F= -.12858446E+04 E0= -.12858446E+04  d E =-.109549E-01  mag=   126.0000
       N       E                     dE             d eps       ncg     rms          ort
SDA:   1    -0.128541132960E+04    0.43326E+00    0.00000E+00  8540   0.125E+01 0.000E+00
CGA:   2    -0.128568439816E+04   -0.27307E+00   -0.27333E+00  8540   0.559E+00 0.229E-04
CGA:   3    -0.128581661279E+04   -0.13221E+00   -0.13220E+00  8540   0.129E+00-0.178E-03
CGA:   4    -0.128584264642E+04   -0.26034E-01   -0.26000E-01  8540   0.221E-01-0.134E-03
CGA:   5    -0.128584738461E+04   -0.47382E-02   -0.47541E-02  8540   0.497E-02 0.676E-04
CGA:   6    -0.128584859337E+04   -0.12088E-02   -0.12166E-02  8540   0.127E-02 0.428E-04
CGA:   7    -0.128584893833E+04   -0.34496E-03   -0.34740E-03  8540   0.353E-03 0.171E-04
CGA:   8    -0.128584903975E+04   -0.10142E-03   -0.10389E-03  8540   0.108E-03 0.214E-04
CGA:   9    -0.128584907307E+04   -0.33318E-04   -0.34921E-04  8540   0.348E-04 0.170E-04
CGA:  10    -0.128584907896E+04   -0.58926E-05   -0.89264E-05  8540   0.129E-04 0.175E-04
  46 F= -.12858491E+04 E0= -.12858491E+04  d E =-.448028E-02  mag=   126.0000
       N       E                     dE             d eps       ncg     rms          ort
SDA:   1    -0.128564958726E+04    0.19949E+00    0.00000E+00  8540   0.574E+00 0.000E+00
CGA:   2    -0.128577910064E+04   -0.12951E+00   -0.12959E+00  8540   0.257E+00 0.120E-03
CGA:   3    -0.128583851984E+04   -0.59419E-01   -0.59434E-01  8540   0.531E-01 0.415E-04
CGA:   4    -0.128584950130E+04   -0.10981E-01   -0.10980E-01  8540   0.970E-02-0.129E-04
CGA:   5    -0.128585166047E+04   -0.21592E-02   -0.21545E-02  8540   0.225E-02-0.383E-04
CGA:   6    -0.128585223816E+04   -0.57768E-03   -0.57011E-03  8540   0.625E-03-0.826E-04
CGA:   7    -0.128585240566E+04   -0.16751E-03   -0.16683E-03  8540   0.184E-03-0.105E-04
CGA:   8    -0.128585244930E+04   -0.43640E-04   -0.46074E-04  8540   0.499E-04 0.288E-04
CGA:   9    -0.128585246317E+04   -0.13873E-04   -0.15057E-04  8540   0.171E-04 0.161E-04
CGA:  10    -0.128585246915E+04   -0.59790E-05   -0.63157E-05  8540   0.733E-05 0.652E-05
  47 F= -.12858525E+04 E0= -.12858525E+04  d E =-.339019E-02  mag=   126.0000
       N       E                     dE             d eps       ncg     rms          ort
SDA:   1    -0.128556307871E+04    0.28938E+00    0.00000E+00  8540   0.782E+00 0.000E+00
CGA:   2    -0.128575591719E+04   -0.19284E+00   -0.19291E+00  8540   0.370E+00 0.542E-03
CGA:   3    -0.128583516030E+04   -0.79243E-01   -0.79258E-01  8540   0.724E-01 0.512E-05
CGA:   4    -0.128585001958E+04   -0.14859E-01   -0.14866E-01  8540   0.129E-01 0.537E-04
CGA:   5    -0.128585284342E+04   -0.28238E-02   -0.28239E-02  8540   0.295E-02-0.223E-05
CGA:   6    -0.128585361469E+04   -0.77127E-03   -0.76529E-03  8540   0.847E-03-0.135E-03
CGA:   7    -0.128585384314E+04   -0.22845E-03   -0.22770E-03  8540   0.262E-03-0.378E-04
CGA:   8    -0.128585391135E+04   -0.68210E-04   -0.68913E-04  8540   0.764E-04 0.270E-04
CGA:   9    -0.128585393889E+04   -0.27548E-04   -0.27318E-04  8540   0.286E-04 0.929E-05
CGA:  10    -0.128585395267E+04   -0.13779E-04   -0.14326E-04  8540   0.188E-04-0.378E-05
CGA:  11    -0.128585395950E+04   -0.68256E-05   -0.74125E-05  8540   0.118E-04-0.402E-05
  48 F= -.12858540E+04 E0= -.12858540E+04  d E =-.149035E-02  mag=   126.0000
       N       E                     dE             d eps       ncg     rms          ort
SDA:   1    -0.128532337528E+04    0.53058E+00    0.00000E+00  8540   0.133E+01 0.000E+00
CGA:   2    -0.128569248175E+04   -0.36911E+00   -0.36912E+00  8540   0.662E+00-0.884E-04
CGA:   3    -0.128582320099E+04   -0.13072E+00   -0.13081E+00  8540   0.111E+00 0.584E-03
CGA:   4    -0.128584633973E+04   -0.23139E-01   -0.23165E-01  8540   0.204E-01 0.254E-03
CGA:   5    -0.128585083907E+04   -0.44993E-02   -0.44982E-02  8540   0.457E-02-0.190E-04
CGA:   6    -0.128585197668E+04   -0.11376E-02   -0.11369E-02  8540   0.123E-02-0.143E-04
CGA:   7    -0.128585231022E+04   -0.33354E-03   -0.33464E-03  8540   0.371E-03 0.468E-04
CGA:   8    -0.128585242590E+04   -0.11568E-03   -0.11551E-03  8540   0.127E-03 0.372E-04
CGA:   9    -0.128585247219E+04   -0.46289E-04   -0.45674E-04  8540   0.460E-04 0.196E-04
CGA:  10    -0.128585248678E+04   -0.14583E-04   -0.14858E-04  8540   0.169E-04 0.160E-04
CGA:  11    -0.128585249136E+04   -0.45822E-05   -0.52900E-05  8540   0.831E-05 0.110E-04
  49 F= -.12858525E+04 E0= -.12858525E+04  d E =0.146814E-02  mag=   126.0000
       N       E                     dE             d eps       ncg     rms          ort
SDA:   1    -0.128569274684E+04    0.15974E+00    0.00000E+00  8540   0.461E+00 0.000E+00
CGA:   2    -0.128579545272E+04   -0.10271E+00   -0.10273E+00  8540   0.204E+00 0.212E-03
CGA:   3    -0.128584317978E+04   -0.47727E-01   -0.47698E-01  8540   0.452E-01-0.651E-03
CGA:   4    -0.128585244110E+04   -0.92613E-02   -0.92475E-02  8540   0.809E-02-0.187E-03
CGA:   5    -0.128585417032E+04   -0.17292E-02   -0.17406E-02  8540   0.177E-02 0.179E-03
CGA:   6    -0.128585457552E+04   -0.40520E-03   -0.41222E-03  8540   0.419E-03 0.148E-03
CGA:   7    -0.128585468811E+04   -0.11260E-03   -0.11401E-03  8540   0.114E-03 0.628E-04
CGA:   8    -0.128585472545E+04   -0.37334E-04   -0.37150E-04  8540   0.383E-04 0.184E-04
CGA:   9    -0.128585473582E+04   -0.10369E-04   -0.10817E-04  8540   0.133E-04 0.152E-04
CGA:  10    -0.128585473635E+04   -0.53150E-06   -0.23388E-05  8540   0.728E-05 0.124E-04
  50 F= -.12858547E+04 E0= -.12858547E+04  d E =-.224499E-02  mag=   126.0000
       N       E                     dE             d eps       ncg     rms          ort
SDA:   1    -0.128576828953E+04    0.86446E-01    0.00000E+00  8540   0.227E+00 0.000E+00
CGA:   2    -0.128582888410E+04   -0.60595E-01   -0.60593E-01  8540   0.108E+00 0.131E-04
CGA:   3    -0.128585087771E+04   -0.21994E-01   -0.21995E-01  8540   0.193E-01-0.100E-04
CGA:   4    -0.128585491074E+04   -0.40330E-02   -0.40323E-02  8540   0.360E-02-0.200E-04
CGA:   5    -0.128585570182E+04   -0.79108E-03   -0.79073E-03  8540   0.796E-03-0.121E-04
CGA:   6    -0.128585588971E+04   -0.18789E-03   -0.18830E-03  8540   0.201E-03 0.340E-04
CGA:   7    -0.128585595123E+04   -0.61512E-04   -0.61769E-04  8540   0.688E-04-0.563E-05
CGA:   8    -0.128585595005E+04    0.11779E-05   -0.53024E-04  8540   0.256E-03-0.100E-03
CGA:   9    -0.128585599498E+04   -0.44928E-04   -0.46543E-04  8540   0.247E-04 0.168E-04
CGA:  10    -0.128585600450E+04   -0.95251E-05   -0.10214E-04  8540   0.101E-04-0.598E-05
  51 F= -.12858560E+04 E0= -.12858560E+04  d E =-.126815E-02  mag=   126.0000
       N       E                     dE             d eps       ncg     rms          ort
SDA:   1    -0.128581650707E+04    0.39488E-01    0.00000E+00  8540   0.114E+00 0.000E+00
CGA:   2    -0.128584149982E+04   -0.24993E-01   -0.24995E-01  8540   0.506E-01-0.170E-04
CGA:   3    -0.128585332262E+04   -0.11823E-01   -0.11838E-01  8540   0.110E-01 0.320E-03
CGA:   4    -0.128585555053E+04   -0.22279E-02   -0.22365E-02  8540   0.190E-02 0.118E-03
CGA:   5    -0.128585597998E+04   -0.42944E-03   -0.42971E-03  8540   0.445E-03 0.535E-05
CGA:   6    -0.128585608641E+04   -0.10644E-03   -0.10682E-03  8540   0.107E-03 0.131E-04
CGA:   7    -0.128585611218E+04   -0.25762E-04   -0.26267E-04  8540   0.271E-04 0.173E-04
CGA:   8    -0.128585612022E+04   -0.80426E-05   -0.80929E-05  8540   0.872E-05 0.667E-05
  52 F= -.12858561E+04 E0= -.12858561E+04  d E =-.115717E-03  mag=   126.0000
       N       E                     dE             d eps       ncg     rms          ort
SDA:   1    -0.128580607675E+04    0.50035E-01    0.00000E+00  8540   0.128E+00 0.000E+00
CGA:   2    -0.128584010396E+04   -0.34027E-01   -0.34027E-01  8540   0.652E-01-0.407E-04
CGA:   3    -0.128585343373E+04   -0.13330E-01   -0.13332E-01  8540   0.108E-01 0.184E-04
CGA:   4    -0.128585560237E+04   -0.21686E-02   -0.21742E-02  8540   0.191E-02 0.968E-04
CGA:   5    -0.128585602900E+04   -0.42664E-03   -0.42808E-03  8540   0.428E-03 0.414E-04
CGA:   6    -0.128585613102E+04   -0.10201E-03   -0.10254E-03  8540   0.100E-03 0.258E-04
CGA:   7    -0.128585615566E+04   -0.24640E-04   -0.25003E-04  8540   0.273E-04 0.199E-04
CGA:   8    -0.128585616402E+04   -0.83652E-05   -0.83433E-05  8540   0.988E-05 0.856E-05
  53 F= -.12858562E+04 E0= -.12858562E+04  d E =-.438020E-04  mag=   126.0000
       N       E                     dE             d eps       ncg     rms          ort
SDA:   1    -0.128565052660E+04    0.20563E+00    0.00000E+00  8540   0.513E+00 0.000E+00
CGA:   2    -0.128579382467E+04   -0.14330E+00   -0.14330E+00  8540   0.260E+00-0.977E-04
CGA:   3    -0.128584483461E+04   -0.51010E-01   -0.51006E-01  8540   0.404E-01-0.138E-03
CGA:   4    -0.128585322253E+04   -0.83879E-02   -0.83905E-02  8540   0.746E-02 0.611E-04
CGA:   5    -0.128585488498E+04   -0.16624E-02   -0.16642E-02  8540   0.165E-02 0.702E-04
CGA:   6    -0.128585528470E+04   -0.39972E-03   -0.39999E-03  8540   0.403E-03 0.486E-04
CGA:   7    -0.128585540091E+04   -0.11621E-03   -0.11580E-03  8540   0.124E-03 0.120E-04
CGA:   8    -0.128585544585E+04   -0.44939E-04   -0.46179E-04  8540   0.567E-04-0.109E-04
CGA:   9    -0.128585546143E+04   -0.15588E-04   -0.15389E-04  8540   0.163E-04 0.438E-05
CGA:  10    -0.128585546368E+04   -0.22478E-05   -0.29884E-05  8540   0.633E-05 0.878E-05
  54 F= -.12858555E+04 E0= -.12858555E+04  d E =0.700338E-03  mag=   126.0000
       N       E                     dE             d eps       ncg     rms          ort
SDA:   1    -0.128569528192E+04    0.16018E+00    0.00000E+00  8540   0.416E+00 0.000E+00
CGA:   2    -0.128580183871E+04   -0.10656E+00   -0.10656E+00  8540   0.209E+00-0.894E-04
CGA:   3    -0.128584578668E+04   -0.43948E-01   -0.43943E-01  8540   0.355E-01-0.202E-03
CGA:   4    -0.128585306107E+04   -0.72744E-02   -0.72716E-02  8540   0.654E-02-0.752E-04
CGA:   5    -0.128585449378E+04   -0.14327E-02   -0.14346E-02  8540   0.146E-02 0.839E-04
CGA:   6    -0.128585484569E+04   -0.35191E-03   -0.35209E-03  8540   0.349E-03 0.591E-04
CGA:   7    -0.128585494869E+04   -0.10299E-03   -0.10292E-03  8540   0.110E-03 0.169E-05
CGA:   8    -0.128585498899E+04   -0.40308E-04   -0.50883E-04  8540   0.923E-04-0.488E-04
CGA:   9    -0.128585500444E+04   -0.15444E-04   -0.18976E-04  8540   0.465E-04-0.306E-04
CGA:  10    -0.128585501051E+04   -0.60754E-05   -0.64264E-05  8540   0.205E-04 0.664E-05
  55 F= -.12858550E+04 E0= -.12858550E+04  d E =0.453168E-03  mag=   126.0000
       N       E                     dE             d eps       ncg     rms          ort
SDA:   1    -0.128575159294E+04    0.10341E+00    0.00000E+00  8540   0.266E+00 0.000E+00
CGA:   2    -0.128582404621E+04   -0.72453E-01   -0.72446E-01  8540   0.131E+00 0.266E-03
CGA:   3    -0.128585053711E+04   -0.26491E-01   -0.26472E-01  8540   0.216E-01-0.390E-03
CGA:   4    -0.128585503131E+04   -0.44942E-02   -0.44914E-02  8540   0.397E-02-0.659E-04
CGA:   5    -0.128585591951E+04   -0.88820E-03   -0.88717E-03  8540   0.906E-03-0.410E-04
CGA:   6    -0.128585615892E+04   -0.23941E-03   -0.24111E-03  8540   0.271E-03-0.838E-04
CGA:   7    -0.128585623086E+04   -0.71944E-04   -0.73713E-04  8540   0.960E-04-0.352E-04
CGA:   8    -0.128585625453E+04   -0.23667E-04   -0.23598E-04  8540   0.270E-04 0.227E-05
CGA:   9    -0.128585626427E+04   -0.97379E-05   -0.15173E-04  8540   0.304E-04-0.184E-04
CGA:  10    -0.128585627214E+04   -0.78794E-05   -0.14075E-04  8540   0.446E-04-0.318E-04
  56 F= -.12858563E+04 E0= -.12858563E+04  d E =-.126163E-02  mag=   126.0000
       N       E                     dE             d eps       ncg     rms          ort
SDA:   1    -0.128583442854E+04    0.21836E-01    0.00000E+00  8540   0.645E-01 0.000E+00
CGA:   2    -0.128584830659E+04   -0.13878E-01   -0.13888E-01  8540   0.277E-01 0.144E-03
CGA:   3    -0.128585487596E+04   -0.65694E-02   -0.65745E-02  8540   0.627E-02 0.137E-03
CGA:   4    -0.128585616326E+04   -0.12873E-02   -0.12892E-02  8540   0.112E-02 0.283E-04
CGA:   5    -0.128585641971E+04   -0.25644E-03   -0.25508E-03  8540   0.273E-03-0.353E-04
CGA:   6    -0.128585649246E+04   -0.72758E-04   -0.73283E-04  8540   0.885E-04-0.400E-04
CGA:   7    -0.128585651222E+04   -0.19754E-04   -0.19739E-04  8540   0.235E-04-0.460E-05
CGA:   8    -0.128585651481E+04   -0.25920E-05   -0.35867E-05  8540   0.711E-05 0.958E-05
  57 F= -.12858565E+04 E0= -.12858565E+04  d E =-.242666E-03  mag=   126.0000
       N       E                     dE             d eps       ncg     rms          ort
SDA:   1    -0.128584695317E+04    0.95591E-02    0.00000E+00  8540   0.247E-01 0.000E+00
CGA:   2    -0.128585365012E+04   -0.66969E-02   -0.66967E-02  8540   0.124E-01 0.579E-05
CGA:   3    -0.128585611788E+04   -0.24678E-02   -0.24705E-02  8540   0.203E-02 0.493E-04
CGA:   4    -0.128585653896E+04   -0.42108E-03   -0.42199E-03  8540   0.364E-03 0.210E-04
CGA:   5    -0.128585662607E+04   -0.87113E-04   -0.86916E-04  8540   0.910E-04-0.168E-04
CGA:   6    -0.128585665147E+04   -0.25396E-04   -0.27150E-04  8540   0.418E-04-0.267E-04
CGA:   7    -0.128585665674E+04   -0.52753E-05   -0.56179E-05  8540   0.118E-04 0.567E-05
  58 F= -.12858567E+04 E0= -.12858567E+04  d E =-.141932E-03  mag=   126.0000
       N       E                     dE             d eps       ncg     rms          ort
SDA:   1    -0.128553975182E+04    0.31690E+00    0.00000E+00  8540   0.835E+00 0.000E+00
CGA:   2    -0.128574831789E+04   -0.20857E+00   -0.20856E+00  8540   0.411E+00 0.252E-03
CGA:   3    -0.128583595210E+04   -0.87634E-01   -0.87629E-01  8540   0.742E-01-0.315E-03
CGA:   4    -0.128585117354E+04   -0.15221E-01   -0.15219E-01  8540   0.131E-01-0.689E-04
CGA:   5    -0.128585412710E+04   -0.29536E-02   -0.29524E-02  8540   0.307E-02-0.879E-04
CGA:   6    -0.128585489645E+04   -0.76934E-03   -0.77090E-03  8540   0.805E-03-0.103E-03
CGA:   7    -0.128585510063E+04   -0.20418E-03   -0.20336E-03  8540   0.220E-03 0.360E-04
CGA:   8    -0.128585516354E+04   -0.62915E-04   -0.61809E-04  8540   0.655E-04 0.381E-04
CGA:   9    -0.128585518976E+04   -0.26216E-04   -0.25320E-04  8540   0.265E-04 0.101E-04
CGA:  10    -0.128585519914E+04   -0.93798E-05   -0.89973E-05  8540   0.102E-04 0.787E-05
  59 F= -.12858552E+04 E0= -.12858552E+04  d E =0.145760E-02  mag=   126.0000
       N       E                     dE             d eps       ncg     rms          ort
SDA:   1    -0.128577795355E+04    0.77236E-01    0.00000E+00  8540   0.213E+00 0.000E+00
CGA:   2    -0.128582972108E+04   -0.51768E-01   -0.51770E-01  8540   0.102E+00 0.258E-03
CGA:   3    -0.128585197465E+04   -0.22254E-01   -0.22257E-01  8540   0.190E-01 0.599E-04
CGA:   4    -0.128585592254E+04   -0.39479E-02   -0.39459E-02  8540   0.350E-02-0.533E-04
CGA:   5    -0.128585668074E+04   -0.75820E-03   -0.75925E-03  8540   0.777E-03 0.379E-04
CGA:   6    -0.128585686206E+04   -0.18132E-03   -0.18194E-03  8540   0.183E-03 0.526E-04
CGA:   7    -0.128585691656E+04   -0.54498E-04   -0.54230E-04  8540   0.550E-04 0.774E-05
CGA:   8    -0.128585693489E+04   -0.18327E-04   -0.18313E-04  8540   0.201E-04 0.181E-06
CGA:   9    -0.128585694023E+04   -0.53360E-05   -0.52749E-05  8540   0.559E-05 0.461E-05
  60 F= -.12858569E+04 E0= -.12858569E+04  d E =-.174109E-02  mag=   126.0000
       N       E                     dE             d eps       ncg     rms          ort
SDA:   1    -0.128584814703E+04    0.87879E-02    0.00000E+00  8540   0.264E-01 0.000E+00
CGA:   2    -0.128585371489E+04   -0.55679E-02   -0.55727E-02  8540   0.112E-01 0.126E-03
CGA:   3    -0.128585643831E+04   -0.27234E-02   -0.27232E-02  8540   0.262E-02-0.716E-04
CGA:   4    -0.128585697742E+04   -0.53911E-03   -0.53814E-03  8540   0.478E-03-0.263E-04
CGA:   5    -0.128585707635E+04   -0.98923E-04   -0.99475E-04  8540   0.102E-03 0.172E-04
CGA:   6    -0.128585709921E+04   -0.22867E-04   -0.23168E-04  8540   0.233E-04 0.135E-04
CGA:   7    -0.128585710656E+04   -0.73510E-05   -0.72857E-05  8540   0.739E-05 0.178E-05
  61 F= -.12858571E+04 E0= -.12858571E+04  d E =-.166338E-03  mag=   126.0000
       N       E                     dE             d eps       ncg     rms          ort
SDA:   1    -0.128585426605E+04    0.28332E-02    0.00000E+00  8540   0.810E-02 0.000E+00
CGA:   2    -0.128585610565E+04   -0.18396E-02   -0.18397E-02  8540   0.380E-02 0.289E-06
CGA:   3    -0.128585698622E+04   -0.88057E-03   -0.87954E-03  8540   0.807E-03-0.468E-04
CGA:   4    -0.128585715195E+04   -0.16573E-03   -0.16450E-03  8540   0.142E-03-0.263E-04
CGA:   5    -0.128585718350E+04   -0.31555E-04   -0.31408E-04  8540   0.348E-04-0.660E-05
CGA:   6    -0.128585719114E+04   -0.76353E-05   -0.76489E-05  8540   0.766E-05 0.697E-06
  62 F= -.12858572E+04 E0= -.12858572E+04  d E =-.845762E-04  mag=   126.0000
