       N       E                     dE             d eps       ncg     rms          ort
DAV:   1     0.825657340138E+04    0.82566E+04   -0.24621E+05  8424   0.238E+03
DAV:   2     0.873905899141E+03   -0.73827E+04   -0.69123E+04  8424   0.658E+02
DAV:   3    -0.736957389343E+03   -0.16109E+04   -0.14221E+04  8424   0.284E+02
DAV:   4    -0.895451224400E+03   -0.15849E+03   -0.15575E+03  8424   0.862E+01
DAV:   5    -0.898109208896E+03   -0.26580E+01   -0.26444E+01  8424   0.125E+01
SDA:   6    -0.245053127826E+03    0.65306E+03   -0.26444E+01  8424   0.514E+04 0.000E+00
CGA:   7    -0.480694769040E+03   -0.23564E+03   -0.36898E+03  8424   0.815E+04-0.641E+03
CGA:   8    -0.563549970529E+03   -0.82855E+02   -0.34480E+03  8424   0.232E+04-0.251E+04
CGA:   9    -0.613122775648E+03   -0.49573E+02   -0.43761E+02  8424   0.442E+03-0.340E+03
CGA:  10    -0.617867878549E+03   -0.47451E+01   -0.14216E+02  8424   0.164E+04-0.244E+03
CGA:  11    -0.588055594295E+03    0.29812E+02   -0.74820E+02  8424   0.200E+04-0.810E+03
CGA:  12    -0.655549861868E+03   -0.67494E+02   -0.19545E+02  8424   0.553E+03 0.669E+03
CGA:  13    -0.614629517362E+03    0.40920E+02   -0.32534E+02  8424   0.221E+04-0.628E+03
CGA:  14    -0.659179411347E+03   -0.44550E+02   -0.59481E+02  8424   0.126E+04-0.182E+04
CGA:  15    -0.626207996806E+03    0.32971E+02   -0.59691E+02  8424   0.217E+04-0.914E+03
CGA:  16    -0.629265613088E+03   -0.30576E+01   -0.68408E+02  8424   0.197E+04-0.162E+04
CGA:  17    -0.597039499822E+03    0.32226E+02   -0.69085E+02  8424   0.388E+04-0.278E+04
CGA:  18    -0.592916678452E+03    0.41228E+01   -0.13046E+03  8424   0.284E+04-0.262E+04
CGA:  19    -0.621947444474E+03   -0.29031E+02   -0.85355E+02  8424   0.261E+04-0.313E+04
CGA:  20    -0.615928209167E+03    0.60192E+01   -0.78512E+02  8424   0.271E+04-0.253E+04
CGA:  21    -0.593051201297E+03    0.22877E+02   -0.90389E+02  8424   0.327E+04-0.263E+04
CGA:  22    -0.614580159017E+03   -0.21529E+02   -0.96647E+02  8424   0.294E+04-0.328E+04
CGA:  23    -0.584666422949E+03    0.29914E+02   -0.10521E+03  8424   0.292E+04-0.241E+04
CGA:  24    -0.640941773874E+03   -0.56275E+02   -0.77862E+02  8424   0.243E+04-0.365E+04
CGA:  25    -0.610035404054E+03    0.30906E+02   -0.81537E+02  8424   0.288E+04-0.217E+04
CGA:  26    -0.600283506750E+03    0.97519E+01   -0.97152E+02  8424   0.280E+04-0.246E+04
CGA:  27    -0.617878755807E+03   -0.17595E+02   -0.87672E+02  8424   0.300E+04-0.329E+04
CGA:  28    -0.614384989321E+03    0.34938E+01   -0.99913E+02  8424   0.232E+04-0.220E+04
CGA:  29    -0.637271964692E+03   -0.22887E+02   -0.68592E+02  8424   0.283E+04-0.326E+04
CGA:  30    -0.629789946442E+03    0.74820E+01   -0.89859E+02  8424   0.180E+04-0.163E+04
CGA:  31    -0.651461306205E+03   -0.21671E+02   -0.50066E+02  8424   0.214E+04-0.270E+04
CGA:  32    -0.643139683661E+03    0.83216E+01   -0.66048E+02  8424   0.160E+04-0.138E+04
CGA:  33    -0.656309906528E+03   -0.13170E+02   -0.44314E+02  8424   0.136E+04-0.155E+04
CGA:  34    -0.658243253441E+03   -0.19333E+01   -0.36208E+02  8424   0.141E+04-0.139E+04
CGA:  35    -0.661272715814E+03   -0.30295E+01   -0.36738E+02  8424   0.152E+04-0.152E+04
CGA:  36    -0.660811245155E+03    0.46147E+00   -0.40977E+02  8424   0.155E+04-0.148E+04
CGA:  37    -0.667112318857E+03   -0.63011E+01   -0.40231E+02  8424   0.152E+04-0.160E+04
CGA:  38    -0.674381450220E+03   -0.72691E+01   -0.39384E+02  8424   0.147E+04-0.160E+04
CGA:  39    -0.681844975742E+03   -0.74635E+01   -0.37319E+02  8424   0.969E+03-0.112E+04
CGA:  40    -0.692868384992E+03   -0.11023E+02   -0.21379E+02  8424   0.258E+03-0.485E+03
CGA:  41    -0.696556435232E+03   -0.36881E+01   -0.46866E+01  8424   0.114E+02-0.320E+02
CGA:  42    -0.696945220014E+03   -0.38878E+00   -0.40707E+00  8424   0.814E+01 0.534E+00
CGA:  43    -0.697453947621E+03   -0.50873E+00   -0.25453E+00  8424   0.234E+02-0.691E+01
CGA:  44    -0.698665541182E+03   -0.12116E+01   -0.13437E+01  8424   0.458E+01 0.569E+00
CGA:  45    -0.698976486125E+03   -0.31094E+00   -0.31443E+00  8424   0.157E+01 0.461E-01
CGA:  46    -0.699142001489E+03   -0.16552E+00   -0.16573E+00  8424   0.561E+00-0.218E-01
CGA:  47    -0.699239422786E+03   -0.97421E-01   -0.92252E-01  8424   0.405E+00 0.631E-01
CGA:  48    -0.699288212834E+03   -0.48790E-01   -0.48749E-01  8424   0.405E+00 0.106E-01
CGA:  49    -0.699337838345E+03   -0.49626E-01   -0.48905E-01  8424   0.223E+00 0.405E-01
CGA:  50    -0.699370757150E+03   -0.32919E-01   -0.32187E-01  8424   0.220E+00 0.251E-01
CGA:  51    -0.699398972221E+03   -0.28215E-01   -0.27869E-01  8424   0.120E+00 0.344E-01
CGA:  52    -0.699419013891E+03   -0.20042E-01   -0.19596E-01  8424   0.656E-01 0.102E-01
CGA:  53    -0.699428364709E+03   -0.93508E-02   -0.93485E-02  8424   0.840E-01-0.261E-03
CGA:  54    -0.699437227404E+03   -0.88627E-02   -0.88859E-02  8424   0.504E-01 0.557E-02
CGA:  55    -0.699443408838E+03   -0.61814E-02   -0.61374E-02  8424   0.210E-01 0.715E-02
CGA:  56    -0.699446685878E+03   -0.32770E-02   -0.31868E-02  8424   0.164E-01 0.370E-02
CGA:  57    -0.699449232491E+03   -0.25466E-02   -0.25276E-02  8424   0.208E-01 0.874E-03
CGA:  58    -0.699451736118E+03   -0.25036E-02   -0.25067E-02  8424   0.969E-02-0.127E-02
CGA:  59    -0.699453168914E+03   -0.14328E-02   -0.15483E-02  8424   0.845E-02-0.203E-02
CGA:  60    -0.699454128982E+03   -0.96007E-03   -0.96209E-03  8424   0.337E-02-0.632E-04
CGA:  61    -0.699454457499E+03   -0.32852E-03   -0.33714E-03  8424   0.207E-02 0.566E-03
CGA:  62    -0.699454773425E+03   -0.31593E-03   -0.31125E-03  8424   0.179E-02 0.344E-03
CGA:  63    -0.699455076294E+03   -0.30287E-03   -0.32239E-03  8424   0.173E-02-0.502E-03
CGA:  64    -0.699455224045E+03   -0.14775E-03   -0.14903E-03  8424   0.153E-02-0.677E-03
CGA:  65    -0.699455339050E+03   -0.11500E-03   -0.12443E-03  8424   0.136E-02-0.611E-03
CGA:  66    -0.699455436196E+03   -0.97146E-04   -0.97167E-04  8424   0.830E-03-0.675E-04
CGA:  67    -0.699455501762E+03   -0.65566E-04   -0.70944E-04  8424   0.576E-03 0.186E-03
CGA:  68    -0.699455585067E+03   -0.83305E-04   -0.83204E-04  8424   0.540E-03 0.147E-03
CGA:  69    -0.699455694972E+03   -0.10990E-03   -0.14053E-03  8424   0.799E-03-0.347E-03
CGA:  70    -0.699455796401E+03   -0.10143E-03   -0.10969E-03  8424   0.152E-02-0.533E-03
CGA:  71    -0.699455854449E+03   -0.58048E-04   -0.62843E-04  8424   0.186E-03 0.623E-04
CGA:  72    -0.699455876342E+03   -0.21893E-04   -0.22002E-04  8424   0.146E-03 0.222E-04
CGA:  73    -0.699455915206E+03   -0.38864E-04    0.12312E-02  8424   0.119E-03 0.967E-04
CGA:  74    -0.699455929088E+03   -0.13882E-04   -0.13668E-04  8424   0.234E-03-0.627E-04
CGA:  75    -0.699455941622E+03   -0.12534E-04   -0.11148E-04  8424   0.603E-04-0.199E-04
CGA:  76    -0.699455955138E+03   -0.13515E-04    0.46034E-04  8424   0.390E-04 0.374E-04
CGA:  77    -0.699455967300E+03   -0.12163E-04    0.61788E-05  8424   0.337E-04 0.237E-04
CGA:  78    -0.699455976494E+03   -0.91943E-05    0.10025E-04  8424   0.370E-04 0.196E-04
CGA:  79    -0.699455877390E+03    0.99104E-04   -0.53246E-04  8424   0.424E-02-0.200E-03
CGA:  80    -0.699456033975E+03   -0.15658E-03   -0.15333E-03  8424   0.643E-04-0.479E-04
CGA:  81    -0.699456038670E+03   -0.46949E-05   -0.48803E-05  8424   0.162E-04 0.137E-05
   1 F= -.69945604E+03 E0= -.69944697E+03  d E =-.699456E+03  mag=     1.9920
       N       E                     dE             d eps       ncg     rms          ort
SDA:   1    -0.699458889944E+03   -0.28560E-02    0.00000E+00  8424   0.711E-02 0.000E+00
CGA:   2    -0.699459200040E+03   -0.31010E-03   -0.30822E-03  8424   0.125E-02-0.670E-04
CGA:   3    -0.699459384120E+03   -0.18408E-03   -0.18496E-03  8424   0.690E-03 0.223E-04
CGA:   4    -0.699459500862E+03   -0.11674E-03   -0.11372E-03  8424   0.417E-03-0.134E-03
CGA:   5    -0.699459540852E+03   -0.39990E-04   -0.38248E-04  8424   0.251E-03-0.254E-04
CGA:   6    -0.699459558349E+03   -0.17497E-04   -0.15412E-04  8424   0.767E-04-0.186E-04
CGA:   7    -0.699459572370E+03   -0.14021E-04   -0.14871E-04  8424   0.587E-04-0.244E-04
CGA:   8    -0.699459579559E+03   -0.71881E-05   -0.65562E-05  8424   0.180E-03-0.514E-04
   2 F= -.69945958E+03 E0= -.69945051E+03  d E =-.354089E-02  mag=     1.9919
       N       E                     dE             d eps       ncg     rms          ort
SDA:   1    -0.699116068006E+03    0.34350E+00    0.00000E+00  8424   0.149E+01 0.000E+00
CGA:   2    -0.699366876544E+03   -0.25081E+00   -0.25082E+00  8424   0.934E+00 0.470E-02
CGA:   3    -0.699444439045E+03   -0.77563E-01   -0.76656E-01  8424   0.669E+00 0.488E-02
CGA:   4    -0.699516892299E+03   -0.72453E-01   -0.72311E-01  8424   0.184E+00-0.124E-02
CGA:   5    -0.699542326971E+03   -0.25435E-01   -0.25421E-01  8424   0.641E-01-0.608E-03
CGA:   6    -0.699548499799E+03   -0.61728E-02   -0.62150E-02  8424   0.360E-01 0.609E-03
CGA:   7    -0.699550948900E+03   -0.24491E-02   -0.24977E-02  8424   0.104E-01 0.671E-03
CGA:   8    -0.699552351744E+03   -0.14028E-02   -0.14032E-02  8424   0.285E-02 0.917E-05
CGA:   9    -0.699552732855E+03   -0.38111E-03   -0.38153E-03  8424   0.251E-02 0.245E-04
CGA:  10    -0.699552926264E+03   -0.19341E-03   -0.18849E-03  8424   0.965E-03-0.686E-04
CGA:  11    -0.699553051316E+03   -0.12505E-03   -0.12445E-03  8424   0.477E-03-0.412E-04
CGA:  12    -0.699553114006E+03   -0.62690E-04   -0.62328E-04  8424   0.413E-03-0.378E-04
CGA:  13    -0.699553142674E+03   -0.28668E-04   -0.27515E-04  8424   0.155E-03-0.159E-04
CGA:  14    -0.699553163100E+03   -0.20426E-04   -0.46379E-04  8424   0.519E-03-0.155E-03
CGA:  15    -0.699553183271E+03   -0.20171E-04   -0.25463E-04  8424   0.912E-04 0.526E-04
CGA:  16    -0.699553187068E+03   -0.37970E-05   -0.58938E-05  8424   0.291E-04 0.240E-04
   3 F= -.69955319E+03 E0= -.69954410E+03  d E =-.936075E-01  mag=     1.9916
       N       E                     dE             d eps       ncg     rms          ort
SDA:   1    -0.698193459802E+03    0.13597E+01    0.00000E+00  8424   0.584E+01 0.000E+00
CGA:   2    -0.698853520127E+03   -0.66006E+00   -0.66882E+00  8424   0.513E+01 0.876E-01
CGA:   3    -0.699250936039E+03   -0.39742E+00   -0.38907E+00  8424   0.186E+01 0.169E-01
CGA:   4    -0.699534422073E+03   -0.28349E+00   -0.28364E+00  8424   0.722E+00-0.744E-02
CGA:   5    -0.699622417281E+03   -0.87995E-01   -0.87682E-01  8424   0.389E+00-0.954E-02
CGA:   6    -0.699647832935E+03   -0.25416E-01   -0.25739E-01  8424   0.140E+00-0.200E-02
CGA:   7    -0.699661668160E+03   -0.13835E-01   -0.13898E-01  8424   0.366E-01 0.234E-02
CGA:   8    -0.699666488703E+03   -0.48205E-02   -0.48210E-02  8424   0.181E-01 0.317E-03
CGA:   9    -0.699667736863E+03   -0.12482E-02   -0.12514E-02  8424   0.875E-02 0.546E-04
CGA:  10    -0.699668922682E+03   -0.11858E-02   -0.11867E-02  8424   0.320E-02-0.135E-03
CGA:  11    -0.699669317512E+03   -0.39483E-03   -0.39492E-03  8424   0.237E-02 0.373E-04
CGA:  12    -0.699669514393E+03   -0.19688E-03   -0.19614E-03  8424   0.127E-02-0.226E-04
CGA:  13    -0.699669664356E+03   -0.14996E-03   -0.14994E-03  8424   0.474E-03-0.384E-05
CGA:  14    -0.699669742661E+03   -0.78305E-04   -0.88843E-04  8424   0.969E-03-0.168E-03
CGA:  15    -0.699669776741E+03   -0.34080E-04   -0.32240E-04  8424   0.293E-03-0.247E-04
CGA:  16    -0.699669783976E+03   -0.72346E-05   -0.11831E-04  8424   0.183E-03 0.552E-04
CGA:  17    -0.699669788953E+03   -0.49777E-05   -0.10984E-04  8424   0.122E-03 0.863E-04
   4 F= -.69966979E+03 E0= -.69966061E+03  d E =-.116602E+00  mag=     1.9916
       N       E                     dE             d eps       ncg     rms          ort
SDA:   1    -0.699101397450E+03    0.56839E+00    0.00000E+00  8424   0.205E+01 0.000E+00
CGA:   2    -0.699384288724E+03   -0.28289E+00   -0.28180E+00  8424   0.227E+01 0.298E-01
CGA:   3    -0.699549354456E+03   -0.16507E+00   -0.16369E+00  8424   0.755E+00-0.383E-03
CGA:   4    -0.699670478541E+03   -0.12112E+00   -0.12150E+00  8424   0.258E+00-0.677E-02
CGA:   5    -0.699699183270E+03   -0.28705E-01   -0.28706E-01  8424   0.133E+00 0.320E-03
CGA:   6    -0.699707845015E+03   -0.86617E-02   -0.87236E-02  8424   0.458E-01 0.396E-03
CGA:   7    -0.699712707038E+03   -0.48620E-02   -0.48714E-02  8424   0.107E-01 0.147E-02
CGA:   8    -0.699714235538E+03   -0.15285E-02   -0.15341E-02  8424   0.675E-02-0.210E-03
CGA:   9    -0.699714691511E+03   -0.45597E-03   -0.45662E-03  8424   0.316E-02 0.128E-04
CGA:  10    -0.699715077318E+03   -0.38581E-03   -0.38511E-03  8424   0.105E-02 0.607E-04
CGA:  11    -0.699715238544E+03   -0.16123E-03   -0.16160E-03  8424   0.626E-03-0.999E-05
CGA:  12    -0.699715301370E+03   -0.62826E-04   -0.62767E-04  8424   0.515E-03-0.564E-05
CGA:  13    -0.699715343473E+03   -0.42103E-04   -0.42366E-04  8424   0.180E-03 0.865E-05
CGA:  14    -0.699715376797E+03   -0.33324E-04   -0.50764E-04  8424   0.286E-03-0.105E-03
CGA:  15    -0.699715387972E+03   -0.11174E-04   -0.15225E-04  8424   0.656E-04 0.611E-04
CGA:  16    -0.699715389844E+03   -0.18724E-05   -0.40727E-05  8424   0.273E-04 0.337E-04
   5 F= -.69971539E+03 E0= -.69970610E+03  d E =-.456009E-01  mag=     1.9918
       N       E                     dE             d eps       ncg     rms          ort
SDA:   1    -0.698366684943E+03    0.13487E+01    0.00000E+00  8424   0.382E+01 0.000E+00
CGA:   2    -0.699222894982E+03   -0.85621E+00   -0.85245E+00  8424   0.353E+01 0.348E-01
CGA:   3    -0.699463482865E+03   -0.24059E+00   -0.23881E+00  8424   0.176E+01-0.105E-01
CGA:   4    -0.699674968197E+03   -0.21149E+00   -0.21146E+00  8424   0.339E+00 0.178E-02
CGA:   5    -0.699725087594E+03   -0.50119E-01   -0.50063E-01  8424   0.127E+00 0.190E-02
CGA:   6    -0.699736329996E+03   -0.11242E-01   -0.11279E-01  8424   0.840E-01 0.449E-03
CGA:   7    -0.699742676260E+03   -0.63463E-02   -0.63576E-02  8424   0.164E-01 0.236E-03
CGA:   8    -0.699745232118E+03   -0.25559E-02   -0.25676E-02  8424   0.766E-02-0.290E-03
CGA:   9    -0.699746060903E+03   -0.82879E-03   -0.82916E-03  8424   0.566E-02 0.466E-04
CGA:  10    -0.699746465502E+03   -0.40460E-03   -0.40709E-03  8424   0.191E-02 0.427E-04
CGA:  11    -0.699746779607E+03   -0.31410E-03   -0.30595E-03  8424   0.741E-03 0.179E-03
CGA:  12    -0.699746914112E+03   -0.13451E-03   -0.13823E-03  8424   0.113E-02-0.695E-04
CGA:  13    -0.699746982827E+03   -0.68715E-04   -0.67636E-04  8424   0.341E-03-0.220E-04
CGA:  14    -0.699747025552E+03   -0.42725E-04   -0.42392E-04  8424   0.208E-03 0.316E-04
CGA:  15    -0.699747043889E+03   -0.18337E-04   -0.18952E-04  8424   0.189E-03 0.182E-04
CGA:  16    -0.699747062942E+03   -0.19052E-04   -0.19426E-04  8424   0.412E-04 0.179E-04
CGA:  17    -0.699747074069E+03   -0.11127E-04    0.31852E-04  8424   0.356E-04 0.114E-04
CGA:  18    -0.699746989420E+03    0.84649E-04   -0.25181E-04  8424   0.246E-02-0.250E-03
CGA:  19    -0.699747074228E+03   -0.84808E-04   -0.90798E-04  8424   0.155E-03 0.598E-04
CGA:  20    -0.699747082018E+03   -0.77905E-05   -0.11451E-04  8424   0.463E-04 0.620E-04
   6 F= -.69974708E+03 E0= -.69973768E+03  d E =-.316922E-01  mag=     1.9919
       N       E                     dE             d eps       ncg     rms          ort
SDA:   1    -0.698210577976E+03    0.15365E+01    0.00000E+00  8424   0.463E+01 0.000E+00
CGA:   2    -0.699167424173E+03   -0.95685E+00   -0.95501E+00  8424   0.220E+01 0.197E-01
CGA:   3    -0.699606337122E+03   -0.43891E+00   -0.43974E+00  8424   0.844E+00-0.115E-01
CGA:   4    -0.699713329369E+03   -0.10699E+00   -0.10702E+00  8424   0.331E+00 0.380E-02
CGA:   5    -0.699737084082E+03   -0.23755E-01   -0.23947E-01  8424   0.171E+00-0.930E-03
CGA:   6    -0.699753293013E+03   -0.16209E-01   -0.16270E-01  8424   0.381E-01 0.347E-03
CGA:   7    -0.699758424122E+03   -0.51311E-02   -0.51307E-02  8424   0.124E-01 0.849E-04
CGA:   8    -0.699760367434E+03   -0.19433E-02   -0.19566E-02  8424   0.903E-02-0.457E-03
CGA:   9    -0.699760930841E+03   -0.56341E-03   -0.56520E-03  8424   0.349E-02-0.535E-05
CGA:  10    -0.699761315203E+03   -0.38436E-03   -0.38944E-03  8424   0.140E-02 0.355E-03
CGA:  11    -0.699761561627E+03   -0.24642E-03   -0.24503E-03  8424   0.656E-03 0.416E-04
CGA:  12    -0.699761654921E+03   -0.93294E-04   -0.94132E-04  8424   0.836E-03-0.686E-04
CGA:  13    -0.699761709369E+03   -0.54448E-04   -0.52920E-04  8424   0.304E-03-0.277E-04
CGA:  14    -0.699761747618E+03   -0.38249E-04   -0.38185E-04  8424   0.197E-03 0.123E-04
CGA:  15    -0.699761762137E+03   -0.14520E-04   -0.15163E-04  8424   0.146E-03 0.124E-04
CGA:  16    -0.699761777980E+03   -0.15843E-04   -0.16081E-04  8424   0.448E-04 0.122E-04
CGA:  17    -0.699761790128E+03   -0.12148E-04    0.96876E-04  8424   0.513E-04 0.577E-06
CGA:  18    -0.699761704732E+03    0.85396E-04   -0.25226E-04  8424   0.247E-02-0.304E-03
CGA:  19    -0.699761789763E+03   -0.85030E-04   -0.93398E-04  8424   0.168E-03 0.805E-04
CGA:  20    -0.699761795376E+03   -0.56132E-05   -0.10777E-04  8424   0.596E-04 0.709E-04
   7 F= -.69976180E+03 E0= -.69975218E+03  d E =-.147134E-01  mag=     1.9920
       N       E                     dE             d eps       ncg     rms          ort
SDA:   1    -0.699434078997E+03    0.32771E+00    0.00000E+00  8424   0.982E+00 0.000E+00
CGA:   2    -0.699646086959E+03   -0.21201E+00   -0.21188E+00  8424   0.541E+00 0.132E-02
CGA:   3    -0.699722259992E+03   -0.76173E-01   -0.76136E-01  8424   0.461E+00 0.152E-02
CGA:   4    -0.699752693468E+03   -0.30433E-01   -0.30349E-01  8424   0.126E+00 0.116E-02
CGA:   5    -0.699766158361E+03   -0.13465E-01   -0.13498E-01  8424   0.349E-01 0.129E-02
CGA:   6    -0.699771096989E+03   -0.49386E-02   -0.49439E-02  8424   0.997E-02-0.388E-03
CGA:   7    -0.699772267343E+03   -0.11704E-02   -0.11699E-02  8424   0.567E-02-0.822E-04
CGA:   8    -0.699772665037E+03   -0.39769E-03   -0.39511E-03  8424   0.243E-02-0.411E-04
CGA:   9    -0.699772970416E+03   -0.30538E-03   -0.30564E-03  8424   0.892E-03-0.141E-03
CGA:  10    -0.699773076059E+03   -0.10564E-03   -0.10559E-03  8424   0.325E-03 0.103E-03
CGA:  11    -0.699773116613E+03   -0.40554E-04   -0.41085E-04  8424   0.314E-03 0.442E-04
CGA:  12    -0.699773146516E+03   -0.29903E-04   -0.31121E-04  8424   0.925E-04 0.325E-04
CGA:  13    -0.699773167009E+03   -0.20493E-04   -0.27109E-04  8424   0.208E-03-0.465E-04
CGA:  14    -0.699773175830E+03   -0.88202E-05   -0.98810E-05  8424   0.467E-04 0.128E-04
   8 F= -.69977318E+03 E0= -.69976350E+03  d E =-.113805E-01  mag=     1.9918
       N       E                     dE             d eps       ncg     rms          ort
SDA:   1    -0.699652303364E+03    0.12086E+00    0.00000E+00  8424   0.374E+00 0.000E+00
CGA:   2    -0.699730067398E+03   -0.77764E-01   -0.77702E-01  8424   0.192E+00 0.652E-03
CGA:   3    -0.699760484562E+03   -0.30417E-01   -0.30412E-01  8424   0.150E+00 0.365E-03
CGA:   4    -0.699770191470E+03   -0.97069E-02   -0.97325E-02  8424   0.487E-01-0.301E-03
CGA:   5    -0.699775570197E+03   -0.53787E-02   -0.53739E-02  8424   0.135E-01-0.115E-03
CGA:   6    -0.699777222850E+03   -0.16527E-02   -0.16531E-02  8424   0.464E-02 0.112E-03
CGA:   7    -0.699777671298E+03   -0.44845E-03   -0.44453E-03  8424   0.297E-02-0.127E-03
CGA:   8    -0.699777903878E+03   -0.23258E-03   -0.22552E-03  8424   0.816E-03-0.158E-03
CGA:   9    -0.699778012944E+03   -0.10907E-03   -0.10856E-03  8424   0.322E-03 0.267E-04
CGA:  10    -0.699778053951E+03   -0.41007E-04   -0.41010E-04  8424   0.275E-03-0.913E-05
CGA:  11    -0.699778071315E+03   -0.17365E-04   -0.18349E-04  8424   0.807E-04 0.180E-04
CGA:  12    -0.699778082036E+03   -0.10721E-04   -0.10636E-04  8424   0.306E-04 0.240E-04
CGA:  13    -0.699778087385E+03   -0.53488E-05   -0.12884E-04  8424   0.220E-03-0.369E-04
   9 F= -.69977809E+03 E0= -.69976843E+03  d E =-.491156E-02  mag=     1.9917
       N       E                     dE             d eps       ncg     rms          ort
SDA:   1    -0.699601512372E+03    0.17657E+00    0.00000E+00  8424   0.516E+00 0.000E+00
CGA:   2    -0.699712413117E+03   -0.11090E+00   -0.11090E+00  8424   0.391E+00-0.116E-03
CGA:   3    -0.699744498679E+03   -0.32086E-01   -0.31981E-01  8424   0.279E+00 0.641E-03
CGA:   4    -0.699774269948E+03   -0.29771E-01   -0.29795E-01  8424   0.506E-01 0.617E-03
CGA:   5    -0.699780649864E+03   -0.63799E-02   -0.63797E-02  8424   0.186E-01-0.885E-04
CGA:   6    -0.699782775090E+03   -0.21252E-02   -0.21318E-02  8424   0.789E-02 0.456E-03
CGA:   7    -0.699783328064E+03   -0.55297E-03   -0.55325E-03  8424   0.326E-02 0.797E-05
CGA:   8    -0.699783753782E+03   -0.42572E-03   -0.42876E-03  8424   0.130E-02-0.376E-03
CGA:   9    -0.699783887833E+03   -0.13405E-03   -0.13411E-03  8424   0.673E-03 0.786E-05
CGA:  10    -0.699783934663E+03   -0.46830E-04   -0.49159E-04  8424   0.273E-03 0.451E-04
CGA:  11    -0.699783965871E+03   -0.31208E-04   -0.32023E-04  8424   0.829E-04 0.751E-04
CGA:  12    -0.699783988812E+03   -0.22941E-04   -0.21238E-04  8424   0.409E-04 0.211E-04
CGA:  13    -0.699783996372E+03   -0.75605E-05   -0.74444E-05  8424   0.430E-04 0.550E-05
  10 F= -.69978400E+03 E0= -.69977429E+03  d E =-.590899E-02  mag=     1.9916
       N       E                     dE             d eps       ncg     rms          ort
SDA:   1    -0.699037449045E+03    0.74654E+00    0.00000E+00  8424   0.223E+01 0.000E+00
CGA:   2    -0.699448270251E+03   -0.41082E+00   -0.41015E+00  8424   0.234E+01 0.931E-02
CGA:   3    -0.699606437507E+03   -0.15817E+00   -0.15661E+00  8424   0.968E+00 0.294E-02
CGA:   4    -0.699754007747E+03   -0.14757E+00   -0.14751E+00  8424   0.188E+00 0.133E-02
CGA:   5    -0.699780055638E+03   -0.26048E-01   -0.26053E-01  8424   0.892E-01 0.162E-03
CGA:   6    -0.699786863133E+03   -0.68075E-02   -0.68707E-02  8424   0.435E-01 0.349E-03
CGA:   7    -0.699790609631E+03   -0.37465E-02   -0.37508E-02  8424   0.113E-01 0.245E-03
CGA:   8    -0.699792183300E+03   -0.15737E-02   -0.15839E-02  8424   0.519E-02-0.605E-03
CGA:   9    -0.699792695713E+03   -0.51241E-03   -0.51315E-03  8424   0.337E-02 0.416E-04
CGA:  10    -0.699792940413E+03   -0.24470E-03   -0.25026E-03  8424   0.106E-02 0.105E-03
CGA:  11    -0.699793099528E+03   -0.15912E-03   -0.15578E-03  8424   0.392E-03 0.144E-03
CGA:  12    -0.699793175795E+03   -0.76266E-04   -0.74668E-04  8424   0.421E-03 0.336E-04
CGA:  13    -0.699793206409E+03   -0.30614E-04   -0.31808E-04  8424   0.151E-03 0.219E-04
CGA:  14    -0.699793232074E+03   -0.25665E-04   -0.25071E-04  8424   0.842E-04 0.159E-04
CGA:  15    -0.699793242138E+03   -0.10064E-04   -0.10384E-04  8424   0.381E-04 0.302E-04
CGA:  16    -0.699793246955E+03   -0.48170E-05   -0.50764E-05  8424   0.314E-04 0.110E-04
  11 F= -.69979325E+03 E0= -.69978347E+03  d E =-.925058E-02  mag=     1.9914
       N       E                     dE             d eps       ncg     rms          ort
SDA:   1    -0.699640369290E+03    0.15287E+00    0.00000E+00  8424   0.472E+00 0.000E+00
CGA:   2    -0.699734733913E+03   -0.94365E-01   -0.94381E-01  8424   0.314E+00-0.304E-03
CGA:   3    -0.699763515380E+03   -0.28781E-01   -0.28787E-01  8424   0.261E+00-0.264E-03
CGA:   4    -0.699787964626E+03   -0.24449E-01   -0.24438E-01  8424   0.535E-01 0.639E-04
CGA:   5    -0.699795068720E+03   -0.71041E-02   -0.71061E-02  8424   0.183E-01-0.209E-03
CGA:   6    -0.699796923185E+03   -0.18545E-02   -0.18654E-02  8424   0.960E-02 0.571E-03
CGA:   7    -0.699797577955E+03   -0.65477E-03   -0.66421E-03  8424   0.280E-02 0.170E-03
CGA:   8    -0.699797962607E+03   -0.38465E-03   -0.38592E-03  8424   0.979E-03-0.732E-04
CGA:   9    -0.699798064932E+03   -0.10233E-03   -0.10231E-03  8424   0.710E-03-0.276E-05
CGA:  10    -0.699798122678E+03   -0.57746E-04   -0.58356E-04  8424   0.275E-03 0.167E-04
CGA:  11    -0.699798161965E+03   -0.39286E-04   -0.40407E-04  8424   0.173E-03-0.413E-04
CGA:  12    -0.699798177001E+03   -0.15037E-04   -0.15091E-04  8424   0.958E-04 0.357E-05
CGA:  13    -0.699798185439E+03   -0.84373E-05   -0.84698E-05  8424   0.502E-04 0.920E-06
  12 F= -.69979819E+03 E0= -.69978843E+03  d E =-.493848E-02  mag=     1.9916
       N       E                     dE             d eps       ncg     rms          ort
SDA:   1    -0.699774700945E+03    0.23476E-01    0.00000E+00  8424   0.971E-01 0.000E+00
CGA:   2    -0.699782871092E+03   -0.81701E-02   -0.81700E-02  8424   0.898E-01 0.313E-03
CGA:   3    -0.699793104763E+03   -0.10234E-01   -0.10234E-01  8424   0.248E-01 0.137E-03
CGA:   4    -0.699797456105E+03   -0.43513E-02   -0.43842E-02  8424   0.891E-02-0.553E-03
CGA:   5    -0.699798423347E+03   -0.96724E-03   -0.96872E-03  8424   0.309E-02 0.189E-03
CGA:   6    -0.699798712729E+03   -0.28938E-03   -0.28930E-03  8424   0.210E-02-0.368E-05
CGA:   7    -0.699798881402E+03   -0.16867E-03   -0.16564E-03  8424   0.382E-03-0.818E-04
CGA:   8    -0.699798927723E+03   -0.46322E-04   -0.45840E-04  8424   0.132E-03 0.511E-04
CGA:   9    -0.699798944323E+03   -0.16599E-04   -0.16640E-04  8424   0.104E-03 0.867E-05
CGA:  10    -0.699798952972E+03   -0.86494E-05   -0.87811E-05  8424   0.372E-04 0.355E-05
  13 F= -.69979895E+03 E0= -.69978920E+03  d E =-.767533E-03  mag=     1.9916
       N       E                     dE             d eps       ncg     rms          ort
SDA:   1    -0.699772866949E+03    0.26077E-01    0.00000E+00  8424   0.944E-01 0.000E+00
CGA:   2    -0.699783595749E+03   -0.10729E-01   -0.10732E-01  8424   0.114E+00 0.103E-03
CGA:   3    -0.699793852628E+03   -0.10257E-01   -0.10257E-01  8424   0.349E-01-0.382E-04
CGA:   4    -0.699798897912E+03   -0.50453E-02   -0.50434E-02  8424   0.123E-01 0.399E-04
CGA:   5    -0.699800345463E+03   -0.14476E-02   -0.14477E-02  8424   0.266E-02 0.967E-04
CGA:   6    -0.699800691222E+03   -0.34576E-03   -0.34512E-03  8424   0.204E-02 0.599E-04
CGA:   7    -0.699800812315E+03   -0.12109E-03   -0.12488E-03  8424   0.399E-03 0.647E-04
CGA:   8    -0.699800869608E+03   -0.57293E-04   -0.57263E-04  8424   0.191E-03 0.843E-06
CGA:   9    -0.699800899503E+03   -0.29895E-04   -0.34520E-04  8424   0.149E-03-0.733E-04
CGA:  10    -0.699800903925E+03   -0.44225E-05   -0.54181E-05  8424   0.681E-04 0.162E-04
  14 F= -.69980090E+03 E0= -.69979115E+03  d E =-.195095E-02  mag=     1.9915
       N       E                     dE             d eps       ncg     rms          ort
SDA:   1    -0.699713542768E+03    0.87357E-01    0.00000E+00  8424   0.231E+00 0.000E+00
CGA:   2    -0.699772615556E+03   -0.59073E-01   -0.59098E-01  8424   0.165E+00-0.202E-03
CGA:   3    -0.699789118798E+03   -0.16503E-01   -0.16504E-01  8424   0.136E+00 0.257E-03
CGA:   4    -0.699799310914E+03   -0.10192E-01   -0.10208E-01  8424   0.224E-01-0.520E-04
CGA:   5    -0.699802185421E+03   -0.28745E-02   -0.28756E-02  8424   0.815E-02-0.759E-04
CGA:   6    -0.699803097983E+03   -0.91256E-03   -0.91353E-03  8424   0.371E-02 0.144E-03
CGA:   7    -0.699803356508E+03   -0.25852E-03   -0.25920E-03  8424   0.153E-02 0.116E-04
CGA:   8    -0.699803549129E+03   -0.19262E-03   -0.19423E-03  8424   0.532E-03-0.143E-03
CGA:   9    -0.699803598567E+03   -0.49439E-04   -0.49890E-04  8424   0.264E-03 0.358E-04
CGA:  10    -0.699803620914E+03   -0.22346E-04   -0.23044E-04  8424   0.133E-03 0.205E-04
CGA:  11    -0.699803636748E+03   -0.15834E-04   -0.15896E-04  8424   0.435E-04 0.193E-04
CGA:  12    -0.699803644511E+03   -0.77626E-05   -0.75522E-05  8424   0.461E-04 0.553E-05
  15 F= -.69980364E+03 E0= -.69979390E+03  d E =-.274059E-02  mag=     1.9916
       N       E                     dE             d eps       ncg     rms          ort
SDA:   1    -0.699710809220E+03    0.92828E-01    0.00000E+00  8424   0.265E+00 0.000E+00
CGA:   2    -0.699765300092E+03   -0.54491E-01   -0.54508E-01  8424   0.285E+00-0.237E-03
CGA:   3    -0.699783885474E+03   -0.18585E-01   -0.18652E-01  8424   0.124E+00-0.772E-03
CGA:   4    -0.699801060422E+03   -0.17175E-01   -0.17165E-01  8424   0.221E-01 0.408E-03
CGA:   5    -0.699804158628E+03   -0.30982E-02   -0.30955E-02  8424   0.122E-01 0.970E-04
CGA:   6    -0.699804964982E+03   -0.80635E-03   -0.81402E-03  8424   0.471E-02 0.153E-03
CGA:   7    -0.699805471344E+03   -0.50636E-03   -0.50659E-03  8424   0.118E-02 0.220E-04
CGA:   8    -0.699805658767E+03   -0.18742E-03   -0.19735E-03  8424   0.877E-03-0.189E-03
CGA:   9    -0.699805707123E+03   -0.48355E-04   -0.47768E-04  8424   0.366E-03-0.121E-04
CGA:  10    -0.699805736154E+03   -0.29032E-04   -0.31326E-04  8424   0.107E-03 0.831E-04
CGA:  11    -0.699805747676E+03   -0.11522E-04   -0.12253E-04  8424   0.971E-04 0.361E-04
CGA:  12    -0.699805758198E+03   -0.10522E-04   -0.10988E-04  8424   0.340E-04 0.169E-04
CGA:  13    -0.699805763305E+03   -0.51062E-05   -0.49463E-05  8424   0.150E-04 0.121E-04
  16 F= -.69980576E+03 E0= -.69979597E+03  d E =-.211879E-02  mag=     1.9914
       N       E                     dE             d eps       ncg     rms          ort
SDA:   1    -0.699787158186E+03    0.18600E-01    0.00000E+00  8424   0.606E-01 0.000E+00
CGA:   2    -0.699798061837E+03   -0.10904E-01   -0.10908E-01  8424   0.480E-01-0.872E-04
CGA:   3    -0.699801406027E+03   -0.33442E-02   -0.33487E-02  8424   0.263E-01 0.141E-03
CGA:   4    -0.699805032805E+03   -0.36268E-02   -0.36261E-02  8424   0.579E-02 0.179E-04
CGA:   5    -0.699805866535E+03   -0.83373E-03   -0.83029E-03  8424   0.281E-02 0.126E-03
CGA:   6    -0.699806065862E+03   -0.19933E-03   -0.20000E-03  8424   0.122E-02 0.105E-04
CGA:   7    -0.699806181500E+03   -0.11564E-03   -0.11636E-03  8424   0.284E-03 0.344E-04
CGA:   8    -0.699806224691E+03   -0.43191E-04   -0.44268E-04  8424   0.161E-03-0.292E-04
CGA:   9    -0.699806234975E+03   -0.10283E-04   -0.10482E-04  8424   0.812E-04 0.442E-05
CGA:  10    -0.699806244032E+03   -0.90574E-05   -0.90694E-05  8424   0.299E-04 0.214E-05
  17 F= -.69980624E+03 E0= -.69979647E+03  d E =-.480727E-03  mag=     1.9916
       N       E                     dE             d eps       ncg     rms          ort
SDA:   1    -0.699800372789E+03    0.58622E-02    0.00000E+00  8424   0.152E-01 0.000E+00
CGA:   2    -0.699803736284E+03   -0.33635E-02   -0.33586E-02  8424   0.110E-01 0.434E-04
CGA:   3    -0.699804805906E+03   -0.10696E-02   -0.10704E-02  8424   0.859E-02-0.598E-06
CGA:   4    -0.699805491887E+03   -0.68598E-03   -0.68722E-03  8424   0.206E-02 0.297E-04
CGA:   5    -0.699805732900E+03   -0.24101E-03   -0.24091E-03  8424   0.625E-03-0.108E-03
CGA:   6    -0.699805811257E+03   -0.78357E-04   -0.78252E-04  8424   0.241E-03 0.677E-05
CGA:   7    -0.699805828613E+03   -0.17355E-04   -0.17147E-04  8424   0.120E-03-0.459E-05
CGA:   8    -0.699805839001E+03   -0.10388E-04   -0.10757E-04  8424   0.237E-04 0.152E-04
CGA:   9    -0.699805841154E+03   -0.21534E-05   -0.24581E-05  8424   0.897E-05 0.135E-04
CGA:  10    -0.699805843200E+03   -0.20464E-05    0.75003E-04  8424   0.668E-05 0.448E-05
  18 F= -.69980584E+03 E0= -.69979607E+03  d E =0.400832E-03  mag=     1.9916
       N       E                     dE             d eps       ncg     rms          ort
SDA:   1    -0.699797974477E+03    0.78667E-02    0.00000E+00  8424   0.261E-01 0.000E+00
CGA:   2    -0.699800345563E+03   -0.23711E-02   -0.23720E-02  8424   0.301E-01 0.445E-04
CGA:   3    -0.699804184446E+03   -0.38389E-02   -0.38415E-02  8424   0.612E-02-0.206E-03
CGA:   4    -0.699805215405E+03   -0.10310E-02   -0.10356E-02  8424   0.139E-02-0.846E-04
CGA:   5    -0.699805404398E+03   -0.18899E-03   -0.18683E-03  8424   0.522E-03 0.116E-03
CGA:   6    -0.699805458971E+03   -0.54574E-04   -0.55488E-04  8424   0.293E-03 0.453E-04
CGA:   7    -0.699805480872E+03   -0.21901E-04   -0.22272E-04  8424   0.862E-04 0.755E-05
CGA:   8    -0.699805490718E+03   -0.98455E-05   -0.98846E-05  8424   0.249E-04 0.125E-04
  19 F= -.69980549E+03 E0= -.69979572E+03  d E =0.352483E-03  mag=     1.9917
       N       E                     dE             d eps       ncg     rms          ort
SDA:   1    -0.699799369670E+03    0.61112E-02    0.00000E+00  8424   0.660E-01 0.000E+00
CGA:   2    -0.699802108920E+03   -0.27392E-02   -0.27447E-02  8424   0.110E-01-0.565E-03
CGA:   3    -0.699804730518E+03   -0.26216E-02   -0.26616E-02  8424   0.705E-02-0.315E-03
CGA:   4    -0.699805537718E+03   -0.80720E-03   -0.80815E-03  8424   0.192E-02 0.184E-03
CGA:   5    -0.699805723975E+03   -0.18626E-03   -0.18777E-03  8424   0.128E-02 0.543E-04
CGA:   6    -0.699805815018E+03   -0.91042E-04   -0.91892E-04  8424   0.222E-03 0.154E-04
CGA:   7    -0.699805840251E+03   -0.25233E-04   -0.25568E-04  8424   0.662E-04 0.633E-04
CGA:   8    -0.699805851748E+03   -0.11497E-04   -0.11335E-04  8424   0.322E-04 0.110E-04
CGA:   9    -0.699805854699E+03   -0.29513E-05   -0.30047E-05  8424   0.217E-04 0.133E-05
  20 F= -.69980585E+03 E0= -.69979608E+03  d E =-.363981E-03  mag=     1.9916
       N       E                     dE             d eps       ncg     rms          ort
SDA:   1    -0.699405178760E+03    0.40067E+00    0.00000E+00  8424   0.113E+01 0.000E+00
CGA:   2    -0.699645555746E+03   -0.24038E+00   -0.23992E+00  8424   0.868E+00 0.426E-02
CGA:   3    -0.699719937674E+03   -0.74382E-01   -0.73616E-01  8424   0.638E+00-0.938E-03
CGA:   4    -0.699780495779E+03   -0.60558E-01   -0.60577E-01  8424   0.136E+00 0.174E-03
CGA:   5    -0.699796715391E+03   -0.16220E-01   -0.16219E-01  8424   0.348E-01 0.398E-04
CGA:   6    -0.699801969616E+03   -0.52542E-02   -0.52293E-02  8424   0.160E-01 0.812E-03
CGA:   7    -0.699802954375E+03   -0.98476E-03   -0.99035E-03  8424   0.622E-02 0.977E-04
CGA:   8    -0.699803800954E+03   -0.84658E-03   -0.85185E-03  8424   0.242E-02-0.311E-03
CGA:   9    -0.699804079571E+03   -0.27862E-03   -0.27872E-03  8424   0.121E-02-0.581E-04
CGA:  10    -0.699804164785E+03   -0.85214E-04   -0.88160E-04  8424   0.640E-03 0.651E-04
CGA:  11    -0.699804227621E+03   -0.62836E-04   -0.65582E-04  8424   0.176E-03 0.136E-03
CGA:  12    -0.699804279163E+03   -0.51542E-04   -0.51589E-04  8424   0.129E-03-0.481E-06
CGA:  13    -0.699804289862E+03   -0.10699E-04   -0.11451E-04  8424   0.715E-04 0.224E-04
CGA:  14    -0.699804294904E+03   -0.50411E-05   -0.62397E-05  8424   0.402E-04 0.256E-04
  21 F= -.69980429E+03 E0= -.69979451E+03  d E =0.155980E-02  mag=     1.9919
       N       E                     dE             d eps       ncg     rms          ort
SDA:   1    -0.699493153405E+03    0.31114E+00    0.00000E+00  8424   0.881E+00 0.000E+00
CGA:   2    -0.699678107508E+03   -0.18495E+00   -0.18525E+00  8424   0.778E+00-0.304E-02
CGA:   3    -0.699734982715E+03   -0.56875E-01   -0.57543E-01  8424   0.478E+00-0.332E-02
CGA:   4    -0.699787932359E+03   -0.52950E-01   -0.52946E-01  8424   0.967E-01-0.209E-03
CGA:   5    -0.699799546875E+03   -0.11615E-01   -0.11615E-01  8424   0.318E-01-0.125E-03
CGA:   6    -0.699802994662E+03   -0.34478E-02   -0.34429E-02  8424   0.245E-01-0.467E-03
CGA:   7    -0.699804627419E+03   -0.16328E-02   -0.16198E-02  8424   0.418E-02-0.372E-03
CGA:   8    -0.699805262891E+03   -0.63547E-03   -0.62372E-03  8424   0.145E-02 0.340E-03
CGA:   9    -0.699805455142E+03   -0.19225E-03   -0.19199E-03  8424   0.112E-02 0.678E-04
CGA:  10    -0.699805542860E+03   -0.87718E-04   -0.87478E-04  8424   0.448E-03-0.689E-05
CGA:  11    -0.699805612504E+03   -0.69644E-04   -0.77046E-04  8424   0.403E-03-0.131E-03
CGA:  12    -0.699805637778E+03   -0.25274E-04   -0.25354E-04  8424   0.186E-03 0.246E-05
CGA:  13    -0.699805651926E+03   -0.14148E-04   -0.15100E-04  8424   0.766E-04 0.252E-04
CGA:  14    -0.699805667186E+03   -0.15260E-04   -0.14646E-04  8424   0.342E-04 0.117E-04
CGA:  15    -0.699805581102E+03    0.86084E-04   -0.46413E-04  8424   0.145E-02-0.184E-03
CGA:  16    -0.699805662013E+03   -0.80911E-04   -0.85354E-04  8424   0.273E-03 0.205E-04
CGA:  17    -0.699805672408E+03   -0.10395E-04   -0.14772E-04  8424   0.607E-04 0.275E-04
CGA:  18    -0.699805677306E+03   -0.48973E-05   -0.76568E-05  8424   0.310E-04 0.321E-04
  22 F= -.69980568E+03 E0= -.69979591E+03  d E =-.138240E-02  mag=     1.9916
       N       E                     dE             d eps       ncg     rms          ort
SDA:   1    -0.699798070689E+03    0.76017E-02    0.00000E+00  8424   0.703E-01 0.000E+00
CGA:   2    -0.699801132922E+03   -0.30622E-02   -0.30740E-02  8424   0.147E-01-0.481E-03
CGA:   3    -0.699804036684E+03   -0.29038E-02   -0.29032E-02  8424   0.596E-02 0.405E-04
CGA:   4    -0.699805076651E+03   -0.10400E-02   -0.10391E-02  8424   0.331E-02-0.800E-04
CGA:   5    -0.699805308546E+03   -0.23190E-03   -0.23721E-03  8424   0.145E-02 0.538E-04
CGA:   6    -0.699805423351E+03   -0.11481E-03   -0.11802E-03  8424   0.394E-03 0.342E-04
CGA:   7    -0.699805482374E+03   -0.59023E-04   -0.59165E-04  8424   0.829E-04 0.493E-05
CGA:   8    -0.699805493605E+03   -0.11230E-04   -0.11200E-04  8424   0.769E-04-0.782E-06
CGA:   9    -0.699805497833E+03   -0.42285E-05   -0.46979E-05  8424   0.180E-04 0.426E-05
  23 F= -.69980550E+03 E0= -.69979572E+03  d E =0.179473E-03  mag=     1.9916
       N       E                     dE             d eps       ncg     rms          ort
SDA:   1    -0.699803566703E+03    0.19269E-02    0.00000E+00  8424   0.762E-02 0.000E+00
CGA:   2    -0.699804545459E+03   -0.97876E-03   -0.97888E-03  8424   0.525E-02 0.603E-05
CGA:   3    -0.699805007690E+03   -0.46223E-03   -0.45945E-03  8424   0.350E-02-0.422E-04
CGA:   4    -0.699805335762E+03   -0.32807E-03   -0.32836E-03  8424   0.115E-02 0.133E-04
CGA:   5    -0.699805500630E+03   -0.16487E-03   -0.16503E-03  8424   0.226E-03 0.105E-04
CGA:   6    -0.699805536137E+03   -0.35506E-04   -0.35507E-04  8424   0.140E-03-0.162E-04
CGA:   7    -0.699805544469E+03   -0.83324E-05   -0.86515E-05  8424   0.503E-04 0.349E-05
  24 F= -.69980554E+03 E0= -.69979577E+03  d E =-.466362E-04  mag=     1.9916
       N       E                     dE             d eps       ncg     rms          ort
SDA:   1    -0.699804725884E+03    0.81025E-03    0.00000E+00  8424   0.210E-02 0.000E+00
CGA:   2    -0.699805078523E+03   -0.35264E-03   -0.35026E-03  8424   0.183E-02 0.120E-03
CGA:   3    -0.699805319325E+03   -0.24080E-03   -0.23974E-03  8424   0.107E-02-0.435E-04
CGA:   4    -0.699805386070E+03   -0.66744E-04   -0.63539E-04  8424   0.330E-03-0.391E-04
CGA:   5    -0.699805425591E+03   -0.39521E-04   -0.39773E-04  8424   0.560E-04 0.144E-04
CGA:   6    -0.699805435357E+03   -0.97665E-05   -0.98245E-05  8424   0.249E-04-0.223E-05
  25 F= -.69980544E+03 E0= -.69979567E+03  d E =0.109112E-03  mag=     1.9917
       N       E                     dE             d eps       ncg     rms          ort
SDA:   1    -0.699801657483E+03    0.37681E-02    0.00000E+00  8424   0.839E-02 0.000E+00
CGA:   2    -0.699803691365E+03   -0.20339E-02   -0.20491E-02  8424   0.134E-01-0.149E-03
CGA:   3    -0.699804491853E+03   -0.80049E-03   -0.79870E-03  8424   0.338E-02-0.445E-04
CGA:   4    -0.699804824888E+03   -0.33303E-03   -0.33735E-03  8424   0.958E-03 0.104E-03
CGA:   5    -0.699804964964E+03   -0.14008E-03   -0.14017E-03  8424   0.274E-03-0.326E-04
CGA:   6    -0.699804991196E+03   -0.26232E-04   -0.27573E-04  8424   0.128E-03 0.379E-04
CGA:   7    -0.699804998973E+03   -0.77773E-05   -0.93567E-05  8424   0.449E-04 0.215E-04
  26 F= -.69980500E+03 E0= -.69979523E+03  d E =0.436384E-03  mag=     1.9916
       N       E                     dE             d eps       ncg     rms          ort
SDA:   1    -0.699804031942E+03    0.95925E-03    0.00000E+00  8424   0.329E-02 0.000E+00
CGA:   2    -0.699804344968E+03   -0.31303E-03   -0.31264E-03  8424   0.297E-02-0.116E-04
CGA:   3    -0.699804624474E+03   -0.27951E-03   -0.28115E-03  8424   0.145E-02 0.460E-04
CGA:   4    -0.699804793438E+03   -0.16896E-03   -0.16899E-03  8424   0.353E-03-0.603E-06
CGA:   5    -0.699804850467E+03   -0.57029E-04   -0.58584E-04  8424   0.118E-03-0.418E-04
CGA:   6    -0.699804859767E+03   -0.93004E-05   -0.96538E-05  8424   0.441E-04 0.925E-05
  27 F= -.69980486E+03 E0= -.69979509E+03  d E =0.139206E-03  mag=     1.9917
