       N       E                     dE             d eps       ncg     rms          rms(c)
DAV:   1     0.112288158805E+05    0.11229E+05   -0.43024E+05 34690   0.160E+03
DAV:   2     0.210789467236E+02   -0.11208E+05   -0.10199E+05 34160   0.487E+02
DAV:   3    -0.160898726423E+04   -0.16301E+04   -0.15451E+04 36430   0.198E+02
DAV:   4    -0.169259131026E+04   -0.83604E+02   -0.82402E+02 39170   0.456E+01
DAV:   5    -0.169366017244E+04   -0.10689E+01   -0.10655E+01 37680   0.557E+00    0.146E+02
DAV:   6    -0.128448309644E+04    0.40918E+03   -0.81084E+02 41010   0.761E+01    0.120E+02
DAV:   7    -0.133411312445E+04   -0.49630E+02   -0.34173E+02 37080   0.650E+01    0.874E+01
DAV:   8    -0.130933957477E+04    0.24774E+02   -0.49322E+01 38700   0.229E+01    0.690E+01
DAV:   9    -0.131611042090E+04   -0.67708E+01   -0.54594E+01 36980   0.310E+01    0.637E+01
DAV:  10    -0.132243743393E+04   -0.63270E+01   -0.35527E+01 38130   0.159E+01    0.401E+01
DAV:  11    -0.131966292217E+04    0.27745E+01   -0.10436E+01 36610   0.114E+01    0.248E+01
DAV:  12    -0.131956533126E+04    0.97591E-01   -0.36712E+00 39940   0.703E+00    0.200E+01
DAV:  13    -0.132193613903E+04   -0.23708E+01   -0.17448E+01 36710   0.466E+00    0.218E+01
DAV:  14    -0.132127433380E+04    0.66181E+00   -0.23299E+00 36790   0.283E+00    0.182E+01
DAV:  15    -0.132139387607E+04   -0.11954E+00   -0.49106E-01 35940   0.884E-01    0.219E+01
DAV:  16    -0.132160004625E+04   -0.20617E+00   -0.30556E-01 36370   0.840E-01    0.223E+01
DAV:  17    -0.132223595464E+04   -0.63591E+00   -0.46773E+00 43190   0.275E+00    0.163E+01
DAV:  18    -0.132263108305E+04   -0.39513E+00   -0.62411E-01 38940   0.216E+00    0.158E+01
DAV:  19    -0.132304396988E+04   -0.41289E+00   -0.14393E-01 39100   0.956E-01    0.147E+01
DAV:  20    -0.132344052806E+04   -0.39656E+00   -0.84344E-02 45730   0.119E+00    0.122E+01
DAV:  21    -0.132362564785E+04   -0.18512E+00   -0.89977E-02 42170   0.929E-01    0.102E+01
DAV:  22    -0.132368209490E+04   -0.56447E-01   -0.53214E-02 40590   0.665E-01    0.884E+00
DAV:  23    -0.132364870340E+04    0.33391E-01   -0.26800E-02 36690   0.464E-01    0.874E+00
DAV:  24    -0.132366833268E+04   -0.19629E-01   -0.23972E-02 35550   0.199E-01    0.964E+00
DAV:  25    -0.132365860037E+04    0.97323E-02   -0.40976E-02 37980   0.675E-01    0.972E+00
DAV:  26    -0.132364270641E+04    0.15894E-01   -0.28927E-02 40280   0.485E-01    0.992E+00
DAV:  27    -0.132366028714E+04   -0.17581E-01   -0.40949E-02 35380   0.217E-01    0.109E+01
DAV:  28    -0.132358048057E+04    0.79807E-01   -0.16114E-02 39180   0.617E-01    0.103E+01
DAV:  29    -0.132345143700E+04    0.12904E+00   -0.60448E-02 43430   0.839E-01    0.730E+00
DAV:  30    -0.132355924216E+04   -0.10781E+00   -0.66462E-01 35540   0.484E-01    0.847E+00
DAV:  31    -0.132374238433E+04   -0.18314E+00   -0.44986E-01 34780   0.623E-01    0.996E+00
DAV:  32    -0.132377833378E+04   -0.35949E-01   -0.30145E-02 35250   0.382E-01    0.101E+01
DAV:  33    -0.132380038435E+04   -0.22051E-01   -0.74154E-03 43150   0.306E-01    0.101E+01
DAV:  34    -0.132386082625E+04   -0.60442E-01   -0.75714E-03 43250   0.508E-01    0.101E+01
DAV:  35    -0.132399973066E+04   -0.13890E+00   -0.26267E-02 44620   0.952E-01    0.104E+01
DAV:  36    -0.132412634951E+04   -0.12662E+00   -0.44285E-02 47400   0.755E-01    0.110E+01
DAV:  37    -0.132410225811E+04    0.24091E-01   -0.25107E-02 36300   0.365E-01    0.106E+01
DAV:  38    -0.132408096395E+04    0.21294E-01   -0.21885E-03 46280   0.190E-01    0.104E+01
DAV:  39    -0.132404431511E+04    0.36649E-01   -0.57706E-03 45850   0.359E-01    0.982E+00
DAV:  40    -0.132400289627E+04    0.41419E-01   -0.23693E-02 46250   0.749E-01    0.861E+00
DAV:  41    -0.132397529457E+04    0.27602E-01   -0.64499E-02 46910   0.103E+00    0.692E+00
DAV:  42    -0.132400766036E+04   -0.32366E-01   -0.59677E-02 39660   0.500E-01    0.632E+00
DAV:  43    -0.132402251829E+04   -0.14858E-01   -0.90602E-03 37920   0.175E-01    0.630E+00
DAV:  44    -0.132402508862E+04   -0.25703E-02   -0.86167E-04 35260   0.486E-02    0.627E+00
DAV:  45    -0.132403385976E+04   -0.87711E-02   -0.22050E-04 31750   0.693E-02    0.628E+00
DAV:  46    -0.132403124268E+04    0.26171E-02   -0.24019E-03 38900   0.201E-01    0.600E+00
DAV:  47    -0.132403193953E+04   -0.69685E-03   -0.21309E-03 40820   0.116E-01    0.586E+00
DAV:  48    -0.132403847437E+04   -0.65348E-02   -0.68398E-04 36920   0.866E-02    0.588E+00
DAV:  49    -0.132404114228E+04   -0.26679E-02   -0.37792E-04 38980   0.515E-02    0.588E+00
DAV:  50    -0.132404341244E+04   -0.22702E-02   -0.61251E-05 27160   0.474E-02    0.591E+00
DAV:  51    -0.132404559307E+04   -0.21806E-02   -0.12434E-04 29550   0.569E-02    0.589E+00
DAV:  52    -0.132404828587E+04   -0.26928E-02   -0.18037E-04 34330   0.634E-02    0.589E+00
DAV:  53    -0.132404835368E+04   -0.67814E-04   -0.21436E-04 36550   0.575E-02    0.587E+00
DAV:  54    -0.132404514109E+04    0.32126E-02   -0.15148E-04 30420   0.595E-02    0.582E+00
DAV:  55    -0.132404111433E+04    0.40268E-02   -0.25533E-04 35700   0.890E-02    0.576E+00
DAV:  56    -0.132403681759E+04    0.42967E-02   -0.39600E-04 38870   0.741E-02    0.570E+00
DAV:  57    -0.132403535675E+04    0.14608E-02   -0.24394E-04 36450   0.487E-02    0.566E+00
DAV:  58    -0.132403393345E+04    0.14233E-02   -0.74645E-05 25210   0.331E-02    0.562E+00
DAV:  59    -0.132402978041E+04    0.41530E-02   -0.23384E-04 31600   0.898E-02    0.553E+00
DAV:  60    -0.132402295162E+04    0.68288E-02   -0.70852E-04 39610   0.126E-01    0.539E+00
DAV:  61    -0.132401774727E+04    0.52043E-02   -0.64976E-04 40650   0.904E-02    0.526E+00
DAV:  62    -0.132401153189E+04    0.62154E-02   -0.56447E-04 35200   0.120E-01    0.511E+00
DAV:  63    -0.132400704899E+04    0.44829E-02   -0.66888E-04 40240   0.794E-02    0.498E+00
DAV:  64    -0.132399865952E+04    0.83895E-02   -0.65833E-04 35430   0.149E-01    0.474E+00
DAV:  65    -0.132398686578E+04    0.11794E-01   -0.15494E-03 39950   0.201E-01    0.442E+00
DAV:  66    -0.132398809026E+04   -0.12245E-02   -0.50400E-03 39600   0.494E-01    0.455E+00
DAV:  67    -0.132398405425E+04    0.40360E-02   -0.26248E-03 36940   0.105E-01    0.442E+00
DAV:  68    -0.132396885761E+04    0.15197E-01   -0.21117E-03 37460   0.286E-01    0.394E+00
DAV:  69    -0.132394280480E+04    0.26053E-01   -0.10673E-02 39170   0.585E-01    0.298E+00
DAV:  70    -0.132392586718E+04    0.16938E-01   -0.12431E-02 44490   0.486E-01    0.221E+00
DAV:  71    -0.132396500983E+04   -0.39143E-01   -0.34259E-02 37580   0.116E+00    0.394E+00
DAV:  72    -0.132394093404E+04    0.24076E-01   -0.93478E-03 35640   0.678E-01    0.285E+00
DAV:  73    -0.132392532102E+04    0.15613E-01   -0.61051E-03 37620   0.447E-01    0.214E+00
DAV:  74    -0.132392341807E+04    0.19030E-02   -0.35387E-03 38040   0.999E-02    0.202E+00
DAV:  75    -0.132392318460E+04    0.23347E-03   -0.24824E-04 33910   0.240E-02    0.201E+00
DAV:  76    -0.132390981589E+04    0.13369E-01   -0.39979E-02 38530   0.136E+00    0.404E-01
DAV:  77    -0.132391016201E+04   -0.34612E-03   -0.17195E-02 36780   0.180E-01    0.404E-01
DAV:  78    -0.132390973358E+04    0.42842E-03   -0.30277E-04 36800   0.257E-02    0.400E-01
DAV:  79    -0.132390970890E+04    0.24685E-04   -0.15196E-05 21780   0.651E-03
   1 F= -.13239097E+04 E0= -.13239097E+04  d E =-.132391E+04  mag=   114.0000
       N       E                     dE             d eps       ncg     rms          rms(c)
DAV:   1    -0.132391528882E+04   -0.55552E-02   -0.11149E-02 47510   0.474E-01    0.409E-01
DAV:   2    -0.132391603137E+04   -0.74254E-03   -0.11955E-02 39200   0.441E-01    0.568E-01
DAV:   3    -0.132391509777E+04    0.93360E-03   -0.41411E-03 36650   0.275E-01    0.146E-01
DAV:   4    -0.132391471958E+04    0.37819E-03   -0.22711E-04 32890   0.326E-02    0.731E-02
DAV:   5    -0.132391446318E+04    0.25640E-03   -0.10608E-04 24470   0.348E-02    0.516E-02
DAV:   6    -0.132391462132E+04   -0.15813E-03   -0.10229E-04 21100   0.289E-02    0.398E-02
DAV:   7    -0.132391456403E+04    0.57282E-04   -0.20634E-05 18650   0.158E-02    0.124E-02
DAV:   8    -0.132391456911E+04   -0.50764E-05   -0.43552E-06 17920   0.438E-03
   2 F= -.13239146E+04 E0= -.13239146E+04  d E =-.486021E-02  mag=   114.0000
       N       E                     dE             d eps       ncg     rms          rms(c)
DAV:   1    -0.132393027611E+04   -0.15712E-01   -0.14544E-01 48260   0.172E+00    0.338E-01
DAV:   2    -0.132393521442E+04   -0.49383E-02   -0.42585E-02 37880   0.294E-01    0.168E-01
DAV:   3    -0.132393559908E+04   -0.38466E-03   -0.15846E-03 36990   0.841E-02    0.101E-01
DAV:   4    -0.132393543413E+04    0.16495E-03   -0.12644E-04 25400   0.287E-02    0.626E-02
DAV:   5    -0.132393547666E+04   -0.42526E-04   -0.21010E-05 18540   0.145E-02
   3 F= -.13239355E+04 E0= -.13239355E+04  d E =-.209075E-01  mag=   114.0000
       N       E                     dE             d eps       ncg     rms          rms(c)
DAV:   1    -0.132216760112E+04    0.17678E+01   -0.67376E+01 48490   0.368E+01    0.679E+00
DAV:   2    -0.132405672899E+04   -0.18891E+01   -0.16150E+01 37290   0.621E+00    0.426E+00
DAV:   3    -0.132412004387E+04   -0.63315E-01   -0.65058E-01 37230   0.176E+00    0.204E+00
DAV:   4    -0.132411534002E+04    0.47038E-02   -0.53017E-02 39030   0.610E-01    0.131E+00
DAV:   5    -0.132411323418E+04    0.21058E-02   -0.12394E-02 40060   0.340E-01    0.910E-01
DAV:   6    -0.132410985950E+04    0.33747E-02   -0.12057E-02 42900   0.369E-01    0.518E-01
DAV:   7    -0.132411037658E+04   -0.51708E-03   -0.74686E-03 40110   0.266E-01    0.270E-01
DAV:   8    -0.132411007070E+04    0.30588E-03   -0.16180E-03 36790   0.130E-01    0.114E-01
DAV:   9    -0.132411015787E+04   -0.87174E-04   -0.19259E-04 31300   0.303E-02    0.629E-02
DAV:  10    -0.132411017681E+04   -0.18940E-04   -0.71874E-05 22450   0.279E-02
   4 F= -.13241102E+04 E0= -.13241102E+04  d E =-.174700E+00  mag=   114.0000
       N       E                     dE             d eps       ncg     rms          rms(c)
DAV:   1    -0.132408442084E+04    0.25737E-01   -0.10173E+00 48990   0.514E+00    0.916E-01
DAV:   2    -0.132412089028E+04   -0.36469E-01   -0.32195E-01 37680   0.858E-01    0.451E-01
DAV:   3    -0.132412173253E+04   -0.84224E-03   -0.11126E-02 36230   0.222E-01    0.247E-01
DAV:   4    -0.132412198940E+04   -0.25687E-03   -0.83733E-04 38420   0.641E-02    0.170E-01
DAV:   5    -0.132412174024E+04    0.24915E-03   -0.12966E-04 26000   0.416E-02    0.127E-01
DAV:   6    -0.132412171143E+04    0.28815E-04   -0.25308E-04 33290   0.556E-02
   5 F= -.13241217E+04 E0= -.13241217E+04  d E =-.115346E-01  mag=   114.0000
       N       E                     dE             d eps       ncg     rms          rms(c)
DAV:   1    -0.132384926400E+04    0.27248E+00   -0.81797E+00 49040   0.136E+01    0.243E+00
DAV:   2    -0.132410905350E+04   -0.25979E+00   -0.22412E+00 36430   0.225E+00    0.122E+00
DAV:   3    -0.132411575380E+04   -0.67003E-02   -0.77875E-02 36850   0.524E-01    0.582E-01
DAV:   4    -0.132411621279E+04   -0.45899E-03   -0.49101E-03 40790   0.134E-01    0.412E-01
DAV:   5    -0.132411532113E+04    0.89166E-03   -0.90263E-04 41480   0.113E-01    0.283E-01
DAV:   6    -0.132411543992E+04   -0.11878E-03   -0.15639E-03 44500   0.140E-01    0.186E-01
DAV:   7    -0.132411497611E+04    0.46381E-03   -0.76367E-04 37970   0.826E-02    0.534E-02
DAV:   8    -0.132411523452E+04   -0.25840E-03   -0.88637E-05 24650   0.306E-02    0.324E-02
DAV:   9    -0.132411526487E+04   -0.30352E-04   -0.20170E-05 19540   0.145E-02
   6 F= -.13241153E+04 E0= -.13241153E+04  d E =0.644656E-02  mag=   114.0000
       N       E                     dE             d eps       ncg     rms          rms(c)
DAV:   1    -0.132369581616E+04    0.41942E+00   -0.14937E+01 47770   0.168E+01    0.288E+00
DAV:   2    -0.132407390518E+04   -0.37809E+00   -0.33838E+00 37300   0.288E+00    0.153E+00
DAV:   3    -0.132408382316E+04   -0.99180E-02   -0.12888E-01 37220   0.729E-01    0.790E-01
DAV:   4    -0.132408426784E+04   -0.44469E-03   -0.89447E-03 39780   0.225E-01    0.521E-01
DAV:   5    -0.132408261996E+04    0.16479E-02   -0.22299E-03 40040   0.164E-01    0.374E-01
DAV:   6    -0.132408217600E+04    0.44396E-03   -0.25622E-03 44170   0.167E-01    0.211E-01
DAV:   7    -0.132408183144E+04    0.34456E-03   -0.14027E-03 39490   0.109E-01    0.111E-01
DAV:   8    -0.132408221145E+04   -0.38001E-03   -0.36936E-04 34740   0.579E-02    0.497E-02
DAV:   9    -0.132408216976E+04    0.41687E-04   -0.37331E-05 20820   0.167E-02
   7 F= -.13240822E+04 E0= -.13240822E+04  d E =0.330951E-01  mag=   114.0000
       N       E                     dE             d eps       ncg     rms          rms(c)
DAV:   1    -0.132098204906E+04    0.31002E+01   -0.78776E+01 49370   0.414E+01    0.899E+00
DAV:   2    -0.132385863978E+04   -0.28766E+01   -0.25167E+01 37820   0.726E+00    0.625E+00
DAV:   3    -0.132396712085E+04   -0.10848E+00   -0.99330E-01 37580   0.200E+00    0.261E+00
DAV:   4    -0.132396661520E+04    0.50565E-03   -0.68541E-02 39990   0.576E-01    0.183E+00
DAV:   5    -0.132396392808E+04    0.26871E-02   -0.16736E-02 40700   0.376E-01    0.129E+00
DAV:   6    -0.132395958877E+04    0.43393E-02   -0.15326E-02 42510   0.436E-01    0.770E-01
DAV:   7    -0.132395911907E+04    0.46970E-03   -0.96195E-03 40060   0.328E-01    0.249E-01
DAV:   8    -0.132395965228E+04   -0.53322E-03   -0.26028E-03 37820   0.143E-01    0.144E-01
DAV:   9    -0.132395960679E+04    0.45498E-04   -0.47797E-04 35580   0.520E-02
   8 F= -.13239596E+04 E0= -.13239596E+04  d E =0.122563E+00  mag=   114.0000
       N       E                     dE             d eps       ncg     rms          rms(c)
DAV:   1    -0.132354300217E+04    0.41665E+00   -0.14328E+01 49160   0.183E+01    0.365E+00
DAV:   2    -0.132408645526E+04   -0.54345E+00   -0.47254E+00 37660   0.314E+00    0.199E+00
DAV:   3    -0.132410562449E+04   -0.19169E-01   -0.20414E-01 37320   0.918E-01    0.108E+00
DAV:   4    -0.132410655039E+04   -0.92589E-03   -0.16882E-02 39790   0.319E-01    0.706E-01
DAV:   5    -0.132410451136E+04    0.20390E-02   -0.37142E-03 37940   0.194E-01    0.528E-01
DAV:   6    -0.132410356589E+04    0.94547E-03   -0.33720E-03 42800   0.191E-01    0.254E-01
DAV:   7    -0.132410328577E+04    0.28012E-03   -0.14233E-03 40550   0.119E-01    0.128E-01
DAV:   8    -0.132410347106E+04   -0.18529E-03   -0.48645E-04 35800   0.651E-02    0.676E-02
DAV:   9    -0.132410349925E+04   -0.28189E-04   -0.59295E-05 22650   0.255E-02
   9 F= -.13241035E+04 E0= -.13241035E+04  d E =-.143892E+00  mag=   114.0000
       N       E                     dE             d eps       ncg     rms          rms(c)
DAV:   1    -0.132392968681E+04    0.17378E+00   -0.49316E+00 49070   0.106E+01    0.207E+00
DAV:   2    -0.132411645541E+04   -0.18677E+00   -0.16221E+00 37870   0.176E+00    0.104E+00
DAV:   3    -0.132412288136E+04   -0.64259E-02   -0.62844E-02 37030   0.477E-01    0.567E-01
DAV:   4    -0.132412348016E+04   -0.59880E-03   -0.51749E-03 39370   0.161E-01    0.387E-01
DAV:   5    -0.132412258635E+04    0.89381E-03   -0.10555E-03 37270   0.102E-01    0.288E-01
DAV:   6    -0.132412228434E+04    0.30201E-03   -0.11311E-03 42290   0.110E-01    0.141E-01
DAV:   7    -0.132412221056E+04    0.73778E-04   -0.52908E-04 38580   0.717E-02    0.745E-02
DAV:   8    -0.132412228491E+04   -0.74348E-04   -0.15101E-04 29170   0.389E-02    0.334E-02
DAV:   9    -0.132412226924E+04    0.15674E-04   -0.23917E-05 19870   0.132E-02
  10 F= -.13241223E+04 E0= -.13241223E+04  d E =-.187700E-01  mag=   114.0000
       N       E                     dE             d eps       ncg     rms          rms(c)
DAV:   1    -0.132411122754E+04    0.11057E-01   -0.40296E-01 48850   0.308E+00    0.555E-01
DAV:   2    -0.132412537369E+04   -0.14146E-01   -0.12340E-01 37570   0.501E-01    0.278E-01
DAV:   3    -0.132412572703E+04   -0.35333E-03   -0.40351E-03 36950   0.122E-01    0.137E-01
DAV:   4    -0.132412581735E+04   -0.90323E-04   -0.26092E-04 29620   0.330E-02    0.947E-02
DAV:   5    -0.132412568834E+04    0.12901E-03   -0.77290E-05 21560   0.299E-02    0.701E-02
DAV:   6    -0.132412575207E+04   -0.63722E-04   -0.99211E-05 24720   0.330E-02    0.377E-02
DAV:   7    -0.132412569588E+04    0.56183E-04   -0.41018E-05 19540   0.184E-02    0.144E-02
DAV:   8    -0.132412572607E+04   -0.30188E-04   -0.85514E-06 17940   0.779E-03
  11 F= -.13241257E+04 E0= -.13241257E+04  d E =-.345683E-02  mag=   114.0000
       N       E                     dE             d eps       ncg     rms          rms(c)
DAV:   1    -0.132376742133E+04    0.35827E+00   -0.11111E+01 49020   0.150E+01    0.281E+00
DAV:   2    -0.132410236541E+04   -0.33494E+00   -0.28882E+00 36240   0.243E+00    0.145E+00
DAV:   3    -0.132411115928E+04   -0.87939E-02   -0.69488E-02 37140   0.544E-01    0.625E-01
DAV:   4    -0.132411113531E+04    0.23973E-04   -0.44407E-03 39440   0.157E-01    0.449E-01
DAV:   5    -0.132411079050E+04    0.34482E-03   -0.15866E-03 43390   0.136E-01    0.295E-01
DAV:   6    -0.132411019432E+04    0.59618E-03   -0.19740E-03 41480   0.150E-01    0.188E-01
DAV:   7    -0.132411063765E+04   -0.44333E-03   -0.90851E-04 36580   0.903E-02    0.611E-02
DAV:   8    -0.132411049050E+04    0.14714E-03   -0.10998E-04 27070   0.305E-02    0.370E-02
DAV:   9    -0.132411052700E+04   -0.36501E-04   -0.22310E-05 19390   0.146E-02
  12 F= -.13241105E+04 E0= -.13241105E+04  d E =0.151991E-01  mag=   114.0000
       N       E                     dE             d eps       ncg     rms          rms(c)
DAV:   1    -0.132380545903E+04    0.30503E+00   -0.14254E+01 47470   0.154E+01    0.256E+00
DAV:   2    -0.132411108434E+04   -0.30563E+00   -0.28278E+00 37400   0.266E+00    0.131E+00
DAV:   3    -0.132411846278E+04   -0.73784E-02   -0.87891E-02 36950   0.640E-01    0.701E-01
DAV:   4    -0.132411884261E+04   -0.37983E-03   -0.72754E-03 39260   0.218E-01    0.471E-01
DAV:   5    -0.132411751208E+04    0.13305E-02   -0.23329E-03 41100   0.150E-01    0.336E-01
DAV:   6    -0.132411723698E+04    0.27510E-03   -0.21411E-03 43350   0.160E-01    0.163E-01
DAV:   7    -0.132411704203E+04    0.19496E-03   -0.10197E-03 38990   0.905E-02    0.919E-02
DAV:   8    -0.132411719234E+04   -0.15031E-03   -0.21492E-04 31990   0.456E-02    0.427E-02
DAV:   9    -0.132411719277E+04   -0.43021E-06   -0.28652E-05 20070   0.158E-02
  13 F= -.13241172E+04 E0= -.13241172E+04  d E =-.666576E-02  mag=   114.0000
       N       E                     dE             d eps       ncg     rms          rms(c)
DAV:   1    -0.132368415508E+04    0.43304E+00   -0.26560E+01 44930   0.195E+01    0.295E+00
DAV:   2    -0.132411737613E+04   -0.43322E+00   -0.42237E+00 36270   0.348E+00    0.155E+00
DAV:   3    -0.132412471558E+04   -0.73395E-02   -0.13373E-01 36690   0.773E-01    0.820E-01
DAV:   4    -0.132412344938E+04    0.12662E-02   -0.85045E-03 39680   0.207E-01    0.553E-01
DAV:   5    -0.132412229822E+04    0.11512E-02   -0.23991E-03 42190   0.183E-01    0.351E-01
DAV:   6    -0.132412141564E+04    0.88258E-03   -0.24219E-03 43230   0.181E-01    0.168E-01
DAV:   7    -0.132412176150E+04   -0.34586E-03   -0.10437E-03 38430   0.890E-02    0.617E-02
DAV:   8    -0.132412178521E+04   -0.23709E-04   -0.12206E-04 29330   0.294E-02
  14 F= -.13241218E+04 E0= -.13241218E+04  d E =-.459244E-02  mag=   114.0000
       N       E                     dE             d eps       ncg     rms          rms(c)
DAV:   1    -0.132323685928E+04    0.88490E+00   -0.37637E+01 47710   0.266E+01    0.439E+00
DAV:   2    -0.132408695965E+04   -0.85010E+00   -0.78305E+00 36670   0.456E+00    0.237E+00
DAV:   3    -0.132410797250E+04   -0.21013E-01   -0.26131E-01 36910   0.120E+00    0.131E+00
DAV:   4    -0.132410837590E+04   -0.40339E-03   -0.27475E-02 39080   0.456E-01    0.822E-01
DAV:   5    -0.132410594428E+04    0.24316E-02   -0.46944E-03 40970   0.229E-01    0.588E-01
DAV:   6    -0.132410453636E+04    0.14079E-02   -0.43311E-03 44000   0.253E-01    0.243E-01
DAV:   7    -0.132410457940E+04   -0.43041E-04   -0.20551E-03 39430   0.113E-01    0.101E-01
DAV:   8    -0.132410482497E+04   -0.24557E-03   -0.32318E-04 35540   0.522E-02    0.624E-02
DAV:   9    -0.132410490339E+04   -0.78412E-04   -0.50460E-05 21410   0.239E-02    0.343E-02
DAV:  10    -0.132410478609E+04    0.11729E-03   -0.23108E-05 19520   0.162E-02    0.188E-02
DAV:  11    -0.132410485544E+04   -0.69353E-04   -0.86208E-06 18260   0.660E-03    0.895E-03
DAV:  12    -0.132410485015E+04    0.52940E-05   -0.19182E-06 17990   0.398E-03
  15 F= -.13241049E+04 E0= -.13241049E+04  d E =0.169351E-01  mag=   114.0000
       N       E                     dE             d eps       ncg     rms          rms(c)
DAV:   1    -0.132394583214E+04    0.15902E+00   -0.53701E+00 49320   0.117E+01    0.198E+00
DAV:   2    -0.132411914174E+04   -0.17331E+00   -0.15364E+00 37840   0.193E+00    0.997E-01
DAV:   3    -0.132412419005E+04   -0.50483E-02   -0.52878E-02 36930   0.470E-01    0.494E-01
DAV:   4    -0.132412410765E+04    0.82405E-04   -0.29646E-03 40330   0.114E-01    0.327E-01
DAV:   5    -0.132412364007E+04    0.46757E-03   -0.10203E-03 41380   0.104E-01    0.209E-01
DAV:   6    -0.132412343316E+04    0.20692E-03   -0.90325E-04 40440   0.110E-01    0.141E-01
DAV:   7    -0.132412357439E+04   -0.14123E-03   -0.48695E-04 37360   0.683E-02    0.493E-02
DAV:   8    -0.132412348354E+04    0.90843E-04   -0.81948E-05 24140   0.287E-02    0.270E-02
DAV:   9    -0.132412352274E+04   -0.39194E-04   -0.22790E-05 19170   0.133E-02
  16 F= -.13241235E+04 E0= -.13241235E+04  d E =-.186726E-01  mag=   114.0000
       N       E                     dE             d eps       ncg     rms          rms(c)
DAV:   1    -0.132378043442E+04    0.34305E+00   -0.15900E+01 46090   0.166E+01    0.276E+00
DAV:   2    -0.132412478086E+04   -0.34435E+00   -0.32463E+00 36290   0.293E+00    0.134E+00
DAV:   3    -0.132413152199E+04   -0.67411E-02   -0.10255E-01 37080   0.656E-01    0.688E-01
DAV:   4    -0.132413182699E+04   -0.30500E-03   -0.75194E-03 39530   0.186E-01    0.510E-01
DAV:   5    -0.132413046146E+04    0.13655E-02   -0.15424E-03 40040   0.139E-01    0.377E-01
DAV:   6    -0.132413005283E+04    0.40864E-03   -0.22264E-03 43540   0.183E-01    0.183E-01
DAV:   7    -0.132412982113E+04    0.23170E-03   -0.12517E-03 39060   0.978E-02    0.719E-02
DAV:   8    -0.132413006266E+04   -0.24153E-03   -0.17844E-04 32090   0.396E-02    0.424E-02
DAV:   9    -0.132413009688E+04   -0.34220E-04   -0.24792E-05 19840   0.161E-02
  17 F= -.13241301E+04 E0= -.13241301E+04  d E =-.657414E-02  mag=   114.0000
       N       E                     dE             d eps       ncg     rms          rms(c)
DAV:   1    -0.132349893515E+04    0.63113E+00   -0.29146E+01 48020   0.228E+01    0.366E+00
DAV:   2    -0.132408311149E+04   -0.58418E+00   -0.54276E+00 37220   0.392E+00    0.190E+00
DAV:   3    -0.132409934236E+04   -0.16231E-01   -0.19787E-01 36980   0.102E+00    0.105E+00
DAV:   4    -0.132409939514E+04   -0.52787E-04   -0.18631E-02 39510   0.359E-01    0.675E-01
DAV:   5    -0.132409701773E+04    0.23774E-02   -0.44355E-03 39180   0.226E-01    0.486E-01
DAV:   6    -0.132409607802E+04    0.93970E-03   -0.40175E-03 42500   0.217E-01    0.207E-01
DAV:   7    -0.132409598051E+04    0.97518E-04   -0.16677E-03 40460   0.101E-01    0.951E-02
DAV:   8    -0.132409614732E+04   -0.16681E-03   -0.39093E-04 35780   0.523E-02    0.618E-02
DAV:   9    -0.132409619476E+04   -0.47440E-04   -0.44714E-05 21010   0.235E-02
  18 F= -.13240962E+04 E0= -.13240962E+04  d E =0.339021E-01  mag=   114.0000
       N       E                     dE             d eps       ncg     rms          rms(c)
DAV:   1    -0.132382157804E+04    0.27457E+00   -0.96029E+00 50020   0.160E+01    0.267E+00
DAV:   2    -0.132412414246E+04   -0.30256E+00   -0.26212E+00 37860   0.258E+00    0.134E+00
DAV:   3    -0.132413581792E+04   -0.11675E-01   -0.96157E-02 37470   0.659E-01    0.674E-01
DAV:   4    -0.132413611500E+04   -0.29707E-03   -0.53838E-03 39670   0.169E-01    0.418E-01
DAV:   5    -0.132413530271E+04    0.81229E-03   -0.21748E-03 41260   0.146E-01    0.268E-01
DAV:   6    -0.132413512724E+04    0.17546E-03   -0.15252E-03 40410   0.142E-01    0.166E-01
DAV:   7    -0.132413519127E+04   -0.64024E-04   -0.71251E-04 38420   0.846E-02    0.728E-02
DAV:   8    -0.132413514945E+04    0.41818E-04   -0.21645E-04 31040   0.432E-02
  19 F= -.13241351E+04 E0= -.13241351E+04  d E =-.389547E-01  mag=   114.0000
       N       E                     dE             d eps       ncg     rms          rms(c)
DAV:   1    -0.132409661546E+04    0.38576E-01   -0.10394E+00 49070   0.547E+00    0.938E-01
DAV:   2    -0.132413717044E+04   -0.40555E-01   -0.35840E-01 37170   0.899E-01    0.449E-01
DAV:   3    -0.132413830856E+04   -0.11381E-02   -0.13200E-02 37250   0.231E-01    0.242E-01
DAV:   4    -0.132413841741E+04   -0.10885E-03   -0.10879E-03 37710   0.746E-02    0.176E-01
DAV:   5    -0.132413822161E+04    0.19580E-03   -0.18320E-04 27700   0.474E-02    0.131E-01
DAV:   6    -0.132413822205E+04   -0.43437E-06   -0.24383E-04 32340   0.590E-02
  20 F= -.13241382E+04 E0= -.13241382E+04  d E =-.307260E-02  mag=   114.0000
       N       E                     dE             d eps       ncg     rms          rms(c)
DAV:   1    -0.132411689002E+04    0.21332E-01   -0.81244E-01 48740   0.417E+00    0.646E-01
DAV:   2    -0.132413791898E+04   -0.21029E-01   -0.19172E-01 37390   0.697E-01    0.348E-01
DAV:   3    -0.132413863222E+04   -0.71325E-03   -0.71505E-03 36840   0.179E-01    0.196E-01
DAV:   4    -0.132413854562E+04    0.86609E-04   -0.43123E-04 35370   0.489E-02    0.123E-01
DAV:   5    -0.132413860234E+04   -0.56723E-04   -0.12137E-04 27000   0.406E-02    0.801E-02
DAV:   6    -0.132413855306E+04    0.49275E-04   -0.11464E-04 27390   0.385E-02
  21 F= -.13241386E+04 E0= -.13241386E+04  d E =-.331017E-03  mag=   114.0000
       N       E                     dE             d eps       ncg     rms          rms(c)
DAV:   1    -0.132403841484E+04    0.10019E+00   -0.37304E+00 47960   0.895E+00    0.142E+00
DAV:   2    -0.132413214293E+04   -0.93728E-01   -0.85270E-01 36580   0.148E+00    0.690E-01
DAV:   3    -0.132413454381E+04   -0.24009E-02   -0.28602E-02 37040   0.339E-01    0.337E-01
DAV:   4    -0.132413437937E+04    0.16444E-03   -0.19316E-03 39320   0.982E-02    0.242E-01
DAV:   5    -0.132413431615E+04    0.63217E-04   -0.57548E-04 36800   0.833E-02    0.178E-01
DAV:   6    -0.132413391022E+04    0.40593E-03   -0.63575E-04 39730   0.941E-02    0.891E-02
DAV:   7    -0.132413414037E+04   -0.23015E-03   -0.24593E-04 34570   0.451E-02    0.268E-02
DAV:   8    -0.132413407927E+04    0.61099E-04   -0.31952E-05 19510   0.147E-02    0.164E-02
DAV:   9    -0.132413406575E+04    0.13524E-04   -0.64962E-06 18050   0.648E-03
  22 F= -.13241341E+04 E0= -.13241341E+04  d E =0.448732E-02  mag=   114.0000
       N       E                     dE             d eps       ncg     rms          rms(c)
DAV:   1    -0.132390975285E+04    0.22433E+00   -0.11029E+01 45130   0.133E+01    0.214E+00
DAV:   2    -0.132411946720E+04   -0.20971E+00   -0.20004E+00 36600   0.233E+00    0.103E+00
DAV:   3    -0.132412380627E+04   -0.43391E-02   -0.62943E-02 37310   0.504E-01    0.520E-01
DAV:   4    -0.132412348732E+04    0.31895E-03   -0.36976E-03 39280   0.113E-01    0.373E-01
DAV:   5    -0.132412269904E+04    0.78828E-03   -0.89088E-04 41890   0.109E-01    0.219E-01
DAV:   6    -0.132412240906E+04    0.28998E-03   -0.93469E-04 42500   0.109E-01    0.103E-01
DAV:   7    -0.132412244759E+04   -0.38529E-04   -0.52203E-04 37540   0.656E-02    0.591E-02
DAV:   8    -0.132412254881E+04   -0.10122E-03   -0.72928E-05 22090   0.284E-02    0.279E-02
DAV:   9    -0.132412248524E+04    0.63571E-04   -0.15129E-05 18910   0.118E-02    0.202E-02
DAV:  10    -0.132412251208E+04   -0.26836E-04   -0.66798E-06 18210   0.921E-03
  23 F= -.13241225E+04 E0= -.13241225E+04  d E =0.115537E-01  mag=   114.0000
       N       E                     dE             d eps       ncg     rms          rms(c)
DAV:   1    -0.132370724937E+04    0.41524E+00   -0.16003E+01 46110   0.177E+01    0.306E+00
DAV:   2    -0.132410991310E+04   -0.40266E+00   -0.37230E+00 37220   0.316E+00    0.153E+00
DAV:   3    -0.132412008130E+04   -0.10168E-01   -0.12328E-01 37120   0.755E-01    0.800E-01
DAV:   4    -0.132411924069E+04    0.84061E-03   -0.89465E-03 39870   0.222E-01    0.567E-01
DAV:   5    -0.132411875871E+04    0.48198E-03   -0.19318E-03 39350   0.153E-01    0.429E-01
DAV:   6    -0.132411744891E+04    0.13098E-02   -0.26084E-03 43340   0.195E-01    0.229E-01
DAV:   7    -0.132411774649E+04   -0.29758E-03   -0.13699E-03 40280   0.105E-01    0.679E-02
DAV:   8    -0.132411775628E+04   -0.97903E-05   -0.27002E-04 35990   0.457E-02
  24 F= -.13241178E+04 E0= -.13241178E+04  d E =0.475580E-02  mag=   114.0000
       N       E                     dE             d eps       ncg     rms          rms(c)
DAV:   1    -0.131953644266E+04    0.45813E+01   -0.10962E+02 49220   0.543E+01    0.109E+01
DAV:   2    -0.132366848170E+04   -0.41320E+01   -0.36332E+01 37950   0.933E+00    0.663E+00
DAV:   3    -0.132380827321E+04   -0.13979E+00   -0.12962E+00 37780   0.244E+00    0.289E+00
DAV:   4    -0.132381058536E+04   -0.23122E-02   -0.87907E-02 40080   0.640E-01    0.203E+00
DAV:   5    -0.132380142376E+04    0.91616E-02   -0.18382E-02 40000   0.418E-01    0.146E+00
DAV:   6    -0.132379876443E+04    0.26593E-02   -0.23487E-02 40530   0.540E-01    0.111E+00
DAV:   7    -0.132379408999E+04    0.46744E-02   -0.18682E-02 40330   0.458E-01    0.382E-01
DAV:   8    -0.132379700876E+04   -0.29188E-02   -0.40871E-03 38650   0.204E-01    0.180E-01
DAV:   9    -0.132379712672E+04   -0.11796E-03   -0.10443E-03 36890   0.879E-02    0.948E-02
DAV:  10    -0.132379678525E+04    0.34147E-03   -0.14314E-04 29510   0.318E-02    0.509E-02
DAV:  11    -0.132379695851E+04   -0.17326E-03   -0.33660E-05 20300   0.190E-02    0.286E-02
DAV:  12    -0.132379699962E+04   -0.41108E-04   -0.23206E-05 19790   0.147E-02
  25 F= -.13237970E+04 E0= -.13237970E+04  d E =0.320757E+00  mag=   114.0000
       N       E                     dE             d eps       ncg     rms          rms(c)
DAV:   1    -0.132298678438E+04    0.81017E+00   -0.29002E+01 50000   0.290E+01    0.516E+00
DAV:   2    -0.132405403351E+04   -0.10672E+01   -0.92168E+00 38760   0.483E+00    0.295E+00
DAV:   3    -0.132409470448E+04   -0.40671E-01   -0.35013E-01 37480   0.132E+00    0.148E+00
DAV:   4    -0.132409380167E+04    0.90280E-03   -0.28536E-02 39230   0.466E-01    0.907E-01
DAV:   5    -0.132409266065E+04    0.11410E-02   -0.91462E-03 38790   0.298E-01    0.685E-01
DAV:   6    -0.132408984981E+04    0.28108E-02   -0.74999E-03 40730   0.311E-01    0.356E-01
DAV:   7    -0.132409027229E+04   -0.42248E-03   -0.32596E-03 40710   0.173E-01    0.138E-01
DAV:   8    -0.132409023001E+04    0.42284E-04   -0.89699E-04 38030   0.851E-02    0.850E-02
DAV:   9    -0.132409031138E+04   -0.81369E-04   -0.16568E-04 32340   0.394E-02    0.456E-02
DAV:  10    -0.132409017070E+04    0.14068E-03   -0.31542E-05 19930   0.175E-02    0.294E-02
DAV:  11    -0.132409023293E+04   -0.62226E-04   -0.13786E-05 19700   0.114E-02    0.168E-02
DAV:  12    -0.132409023946E+04   -0.65346E-05   -0.66358E-06 18700   0.659E-03
  26 F= -.13240902E+04 E0= -.13240902E+04  d E =-.293240E+00  mag=   114.0000
       N       E                     dE             d eps       ncg     rms          rms(c)
DAV:   1    -0.132372589737E+04    0.36434E+00   -0.92402E+00 49420   0.169E+01    0.312E+00
DAV:   2    -0.132411726484E+04   -0.39137E+00   -0.33955E+00 38350   0.280E+00    0.159E+00
DAV:   3    -0.132413246964E+04   -0.15205E-01   -0.13346E-01 37510   0.762E-01    0.827E-01
DAV:   4    -0.132413207941E+04    0.39023E-03   -0.98117E-03 39270   0.245E-01    0.542E-01
DAV:   5    -0.132413192938E+04    0.15003E-03   -0.20245E-03 38510   0.143E-01    0.409E-01
DAV:   6    -0.132413096913E+04    0.96025E-03   -0.19594E-03 42410   0.165E-01    0.220E-01
DAV:   7    -0.132413125501E+04   -0.28588E-03   -0.97046E-04 41110   0.938E-02    0.658E-02
DAV:   8    -0.132413122324E+04    0.31772E-04   -0.21472E-04 36050   0.421E-02
  27 F= -.13241312E+04 E0= -.13241312E+04  d E =-.409838E-01  mag=   114.0000
       N       E                     dE             d eps       ncg     rms          rms(c)
DAV:   1    -0.132412107544E+04    0.10180E-01   -0.48331E-01 47960   0.322E+00    0.521E-01
DAV:   2    -0.132413362711E+04   -0.12552E-01   -0.11490E-01 36660   0.551E-01    0.251E-01
DAV:   3    -0.132413391862E+04   -0.29151E-03   -0.37200E-03 37020   0.124E-01    0.126E-01
DAV:   4    -0.132413389365E+04    0.24966E-04   -0.22350E-04 28710   0.302E-02
  28 F= -.13241339E+04 E0= -.13241339E+04  d E =-.267041E-02  mag=   114.0000
       N       E                     dE             d eps       ncg     rms          rms(c)
DAV:   1    -0.132372956725E+04    0.40435E+00   -0.22669E+01 43700   0.181E+01    0.284E+00
DAV:   2    -0.132411870703E+04   -0.38914E+00   -0.37926E+00 35550   0.322E+00    0.143E+00
DAV:   3    -0.132412414171E+04   -0.54347E-02   -0.11067E-01 37100   0.682E-01    0.731E-01
DAV:   4    -0.132412314906E+04    0.99265E-03   -0.73900E-03 39820   0.179E-01    0.552E-01
DAV:   5    -0.132412175451E+04    0.13946E-02   -0.14140E-03 43340   0.163E-01    0.352E-01
DAV:   6    -0.132412070837E+04    0.10461E-02   -0.20917E-03 43860   0.180E-01    0.150E-01
DAV:   7    -0.132412117711E+04   -0.46874E-03   -0.96158E-04 38200   0.844E-02    0.568E-02
DAV:   8    -0.132412111628E+04    0.60830E-04   -0.83575E-05 24800   0.255E-02    0.339E-02
DAV:   9    -0.132412110854E+04    0.77436E-05   -0.18740E-05 18890   0.140E-02
  29 F= -.13241211E+04 E0= -.13241211E+04  d E =0.127851E-01  mag=   114.0000
       N       E                     dE             d eps       ncg     rms          rms(c)
DAV:   1    -0.132347343998E+04    0.64768E+00   -0.41691E+01 44210   0.236E+01    0.357E+00
DAV:   2    -0.132408529946E+04   -0.61186E+00   -0.60770E+00 35390   0.417E+00    0.180E+00
DAV:   3    -0.132409302580E+04   -0.77263E-02   -0.16912E-01 36940   0.821E-01    0.835E-01
DAV:   4    -0.132409158814E+04    0.14377E-02   -0.10586E-02 40760   0.204E-01    0.626E-01
DAV:   5    -0.132408971845E+04    0.18697E-02   -0.29047E-03 43620   0.212E-01    0.398E-01
DAV:   6    -0.132408849791E+04    0.12205E-02   -0.41971E-03 43630   0.222E-01    0.232E-01
DAV:   7    -0.132408917320E+04   -0.67528E-03   -0.17258E-03 38050   0.122E-01    0.788E-02
DAV:   8    -0.132408910644E+04    0.66762E-04   -0.16038E-04 32160   0.352E-02    0.472E-02
DAV:   9    -0.132408903212E+04    0.74315E-04   -0.32511E-05 20140   0.197E-02    0.311E-02
DAV:  10    -0.132408904707E+04   -0.14949E-04   -0.11697E-05 18300   0.133E-02
  30 F= -.13240890E+04 E0= -.13240890E+04  d E =0.320615E-01  mag=   114.0000
       N       E                     dE             d eps       ncg     rms          rms(c)
DAV:   1    -0.131739200273E+04    0.66970E+01   -0.16192E+02 50160   0.715E+01    0.128E+01
DAV:   2    -0.132349442401E+04   -0.61024E+01   -0.52792E+01 37900   0.119E+01    0.833E+00
DAV:   3    -0.132370050273E+04   -0.20608E+00   -0.24796E+00 37090   0.412E+00    0.443E+00
DAV:   4    -0.132368187458E+04    0.18628E-01   -0.29221E-01 39010   0.171E+00    0.247E+00
DAV:   5    -0.132367080823E+04    0.11066E-01   -0.42862E-02 38880   0.612E-01    0.181E+00
DAV:   6    -0.132366331684E+04    0.74914E-02   -0.25150E-02 43090   0.604E-01    0.109E+00
DAV:   7    -0.132366072056E+04    0.25963E-02   -0.22641E-02 41360   0.580E-01    0.657E-01
DAV:   8    -0.132366158886E+04   -0.86831E-03   -0.72522E-03 38790   0.279E-01    0.182E-01
DAV:   9    -0.132366219807E+04   -0.60920E-03   -0.11372E-03 37000   0.698E-02    0.997E-02
DAV:  10    -0.132366200460E+04    0.19347E-03   -0.25812E-04 34580   0.476E-02    0.679E-02
DAV:  11    -0.132366207272E+04   -0.68122E-04   -0.68301E-05 23480   0.314E-02    0.304E-02
DAV:  12    -0.132366210098E+04   -0.28259E-04   -0.28679E-05 18800   0.113E-02
  31 F= -.13236621E+04 E0= -.13236621E+04  d E =0.426946E+00  mag=   114.0000
       N       E                     dE             d eps       ncg     rms          rms(c)
DAV:   1    -0.132247140674E+04    0.11907E+01   -0.48635E+01 50270   0.365E+01    0.605E+00
DAV:   2    -0.132401202067E+04   -0.15406E+01   -0.13411E+01 37990   0.595E+00    0.327E+00
DAV:   3    -0.132406922671E+04   -0.57206E-01   -0.48906E-01 37460   0.152E+00    0.158E+00
DAV:   4    -0.132406942653E+04   -0.19981E-03   -0.30475E-02 40230   0.416E-01    0.986E-01
DAV:   5    -0.132406488494E+04    0.45416E-02   -0.14187E-02 41370   0.341E-01    0.654E-01
DAV:   6    -0.132406384814E+04    0.10368E-02   -0.85044E-03 40800   0.314E-01    0.404E-01
DAV:   7    -0.132406295000E+04    0.89814E-03   -0.43380E-03 39210   0.205E-01    0.196E-01
DAV:   8    -0.132406382288E+04   -0.87287E-03   -0.11715E-03 36730   0.110E-01    0.110E-01
DAV:   9    -0.132406373079E+04    0.92089E-04   -0.31938E-04 34320   0.550E-02    0.625E-02
DAV:  10    -0.132406360956E+04    0.12123E-03   -0.59782E-05 23270   0.207E-02    0.332E-02
DAV:  11    -0.132406371248E+04   -0.10292E-03   -0.17934E-05 19010   0.138E-02    0.157E-02
DAV:  12    -0.132406372183E+04   -0.93492E-05   -0.11292E-05 19230   0.110E-02
  32 F= -.13240637E+04 E0= -.13240637E+04  d E =-.401621E+00  mag=   114.0000
       N       E                     dE             d eps       ncg     rms          rms(c)
DAV:   1    -0.132377600871E+04    0.28770E+00   -0.97728E+00 50090   0.163E+01    0.270E+00
DAV:   2    -0.132409316924E+04   -0.31716E+00   -0.27345E+00 37900   0.265E+00    0.132E+00
DAV:   3    -0.132410470854E+04   -0.11539E-01   -0.10360E-01 37360   0.686E-01    0.698E-01
DAV:   4    -0.132410407904E+04    0.62951E-03   -0.74109E-03 39140   0.205E-01    0.458E-01
DAV:   5    -0.132410393331E+04    0.14573E-03   -0.23710E-03 41410   0.152E-01    0.338E-01
DAV:   6    -0.132410297405E+04    0.95926E-03   -0.20676E-03 42120   0.160E-01    0.168E-01
DAV:   7    -0.132410331708E+04   -0.34303E-03   -0.79927E-04 39570   0.819E-02    0.648E-02
DAV:   8    -0.132410329233E+04    0.24745E-04   -0.16634E-04 31730   0.378E-02
  33 F= -.13241033E+04 E0= -.13241033E+04  d E =-.395705E-01  mag=   114.0000
       N       E                     dE             d eps       ncg     rms          rms(c)
DAV:   1    -0.132408178405E+04    0.21533E-01   -0.95511E-01 47670   0.457E+00    0.771E-01
DAV:   2    -0.132410842546E+04   -0.26641E-01   -0.24308E-01 37110   0.789E-01    0.374E-01
DAV:   3    -0.132410934466E+04   -0.91920E-03   -0.79061E-03 37150   0.185E-01    0.194E-01
DAV:   4    -0.132410911397E+04    0.23069E-03   -0.53032E-04 33550   0.495E-02    0.140E-01
DAV:   5    -0.132410912175E+04   -0.77759E-05   -0.10920E-04 23130   0.395E-02
  34 F= -.13241091E+04 E0= -.13241091E+04  d E =-.582941E-02  mag=   114.0000
       N       E                     dE             d eps       ncg     rms          rms(c)
DAV:   1    -0.132399418298E+04    0.11493E+00   -0.53347E+00 46880   0.988E+00    0.154E+00
DAV:   2    -0.132410936274E+04   -0.11518E+00   -0.10818E+00 37150   0.170E+00    0.791E-01
DAV:   3    -0.132411133100E+04   -0.19683E-02   -0.34014E-02 37230   0.393E-01    0.431E-01
DAV:   4    -0.132411138942E+04   -0.58415E-04   -0.27958E-03 39300   0.131E-01    0.302E-01
DAV:   5    -0.132411076375E+04    0.62567E-03   -0.75493E-04 38190   0.954E-02    0.222E-01
DAV:   6    -0.132411073817E+04    0.25584E-04   -0.88941E-04 41790   0.113E-01    0.923E-02
DAV:   7    -0.132411057951E+04    0.15866E-03   -0.41043E-04 38440   0.525E-02    0.361E-02
DAV:   8    -0.132411065063E+04   -0.71116E-04   -0.51881E-05 20970   0.214E-02    0.202E-02
DAV:   9    -0.132411065758E+04   -0.69534E-05   -0.10524E-05 18690   0.704E-03
  35 F= -.13241107E+04 E0= -.13241107E+04  d E =-.153583E-02  mag=   114.0000
       N       E                     dE             d eps       ncg     rms          rms(c)
DAV:   1    -0.132406864512E+04    0.42006E-01   -0.24035E+00 45570   0.609E+00    0.940E-01
DAV:   2    -0.132411039731E+04   -0.41752E-01   -0.40699E-01 36220   0.106E+00    0.462E-01
DAV:   3    -0.132411115838E+04   -0.76107E-03   -0.11823E-02 37010   0.224E-01    0.227E-01
DAV:   4    -0.132411111263E+04    0.45753E-04   -0.81356E-04 38350   0.636E-02    0.166E-01
DAV:   5    -0.132411092204E+04    0.19059E-03   -0.25722E-04 29630   0.607E-02    0.120E-01
DAV:   6    -0.132411099500E+04   -0.72963E-04   -0.34443E-04 36290   0.657E-02    0.623E-02
DAV:   7    -0.132411088811E+04    0.10689E-03   -0.12595E-04 24150   0.311E-02    0.205E-02
DAV:   8    -0.132411096487E+04   -0.76760E-04   -0.21155E-05 18480   0.123E-02    0.147E-02
DAV:   9    -0.132411095362E+04    0.11254E-04   -0.45001E-06 17950   0.601E-03
  36 F= -.13241110E+04 E0= -.13241110E+04  d E =-.296035E-03  mag=   114.0000
       N       E                     dE             d eps       ncg     rms          rms(c)
DAV:   1    -0.132177803675E+04    0.23329E+01   -0.12171E+02 44690   0.424E+01    0.732E+00
DAV:   2    -0.132403615240E+04   -0.22581E+01   -0.21366E+01 36080   0.756E+00    0.392E+00
DAV:   3    -0.132407102521E+04   -0.34873E-01   -0.55421E-01 37000   0.153E+00    0.174E+00
DAV:   4    -0.132406759029E+04    0.34349E-02   -0.37555E-02 40090   0.429E-01    0.134E+00
DAV:   5    -0.132406122451E+04    0.63658E-02   -0.80145E-03 42780   0.356E-01    0.941E-01
DAV:   6    -0.132405801619E+04    0.32083E-02   -0.12674E-02 43230   0.442E-01    0.574E-01
DAV:   7    -0.132405745593E+04    0.56026E-03   -0.80206E-03 39580   0.269E-01    0.178E-01
DAV:   8    -0.132405878103E+04   -0.13251E-02   -0.11802E-03 36790   0.934E-02    0.107E-01
DAV:   9    -0.132405862891E+04    0.15212E-03   -0.19027E-04 30440   0.403E-02    0.559E-02
DAV:  10    -0.132405856966E+04    0.59248E-04   -0.30928E-05 21020   0.189E-02    0.260E-02
DAV:  11    -0.132405863932E+04   -0.69664E-04   -0.18039E-05 18510   0.134E-02    0.123E-02
DAV:  12    -0.132405860311E+04    0.36210E-04   -0.71381E-06 18010   0.821E-03
  37 F= -.13240586E+04 E0= -.13240586E+04  d E =0.523505E-01  mag=   114.0000
       N       E                     dE             d eps       ncg     rms          rms(c)
DAV:   1    -0.132228802951E+04    0.17706E+01   -0.88841E+01 44920   0.375E+01    0.639E+00
DAV:   2    -0.132401476024E+04   -0.17267E+01   -0.16319E+01 36580   0.663E+00    0.339E+00
DAV:   3    -0.132404991480E+04   -0.35155E-01   -0.48300E-01 36880   0.144E+00    0.157E+00
DAV:   4    -0.132404891036E+04    0.10044E-02   -0.35153E-02 39730   0.425E-01    0.116E+00
DAV:   5    -0.132404392457E+04    0.49858E-02   -0.98124E-03 40870   0.355E-01    0.880E-01
DAV:   6    -0.132404116327E+04    0.27613E-02   -0.10791E-02 42180   0.386E-01    0.497E-01
DAV:   7    -0.132404027268E+04    0.89060E-03   -0.53086E-03 40010   0.206E-01    0.134E-01
DAV:   8    -0.132404136181E+04   -0.10891E-02   -0.95505E-04 37110   0.738E-02    0.867E-02
DAV:   9    -0.132404129278E+04    0.69029E-04   -0.11040E-04 27650   0.341E-02    0.496E-02
DAV:  10    -0.132404122015E+04    0.72621E-04   -0.30551E-05 19870   0.197E-02    0.302E-02
DAV:  11    -0.132404124324E+04   -0.23090E-04   -0.19867E-05 18680   0.141E-02
  38 F= -.13240412E+04 E0= -.13240412E+04  d E =0.173599E-01  mag=   114.0000
       N       E                     dE             d eps       ncg     rms          rms(c)
DAV:   1    -0.132370485198E+04    0.33637E+00   -0.23170E+01 44420   0.183E+01    0.274E+00
DAV:   2    -0.132408566680E+04   -0.38081E+00   -0.36860E+00 36900   0.320E+00    0.149E+00
DAV:   3    -0.132409163495E+04   -0.59681E-02   -0.12114E-01 37150   0.726E-01    0.813E-01
DAV:   4    -0.132409107511E+04    0.55983E-03   -0.75382E-03 40910   0.175E-01    0.533E-01
DAV:   5    -0.132408914177E+04    0.19333E-02   -0.22555E-03 42240   0.169E-01    0.325E-01
DAV:   6    -0.132408906595E+04    0.75820E-04   -0.28098E-03 42820   0.171E-01    0.210E-01
DAV:   7    -0.132408850091E+04    0.56505E-03   -0.15092E-03 38630   0.114E-01    0.842E-02
DAV:   8    -0.132408881328E+04   -0.31237E-03   -0.18283E-04 31400   0.430E-02    0.442E-02
DAV:   9    -0.132408881533E+04   -0.20556E-05   -0.36520E-05 20440   0.198E-02
  39 F= -.13240888E+04 E0= -.13240888E+04  d E =-.475721E-01  mag=   114.0000
       N       E                     dE             d eps       ncg     rms          rms(c)
DAV:   1    -0.132400921242E+04    0.79601E-01   -0.30131E+00 49710   0.839E+00    0.134E+00
DAV:   2    -0.132409681874E+04   -0.87606E-01   -0.78340E-01 37520   0.140E+00    0.692E-01
DAV:   3    -0.132409998317E+04   -0.31644E-02   -0.30130E-02 36870   0.354E-01    0.381E-01
DAV:   4    -0.132409963233E+04    0.35084E-03   -0.19584E-03 39070   0.981E-02    0.251E-01
DAV:   5    -0.132409953599E+04    0.96336E-04   -0.70544E-04 37240   0.836E-02    0.188E-01
DAV:   6    -0.132409921845E+04    0.31755E-03   -0.74738E-04 37850   0.956E-02    0.106E-01
DAV:   7    -0.132409937061E+04   -0.15216E-03   -0.27315E-04 35290   0.492E-02    0.310E-02
DAV:   8    -0.132409927293E+04    0.97678E-04   -0.50948E-05 20530   0.201E-02    0.224E-02
DAV:   9    -0.132409929238E+04   -0.19444E-04   -0.11865E-05 18290   0.103E-02
  40 F= -.13240993E+04 E0= -.13240993E+04  d E =-.104770E-01  mag=   114.0000
       N       E                     dE             d eps       ncg     rms          rms(c)
DAV:   1    -0.132405077903E+04    0.48494E-01   -0.27709E+00 45260   0.660E+00    0.106E+00
DAV:   2    -0.132410110725E+04   -0.50328E-01   -0.48469E-01 36440   0.115E+00    0.511E-01
DAV:   3    -0.132410203936E+04   -0.93212E-03   -0.14449E-02 36960   0.260E-01    0.267E-01
DAV:   4    -0.132410176937E+04    0.27000E-03   -0.12129E-03 38570   0.856E-02    0.193E-01
DAV:   5    -0.132410174689E+04    0.22479E-04   -0.25078E-04 29520   0.592E-02
  41 F= -.13241017E+04 E0= -.13241017E+04  d E =-.245451E-02  mag=   114.0000
       N       E                     dE             d eps       ncg     rms          rms(c)
DAV:   1    -0.132345885454E+04    0.64291E+00   -0.32351E+01 46820   0.230E+01    0.368E+00
DAV:   2    -0.132408439092E+04   -0.62554E+00   -0.58622E+00 36520   0.397E+00    0.204E+00
DAV:   3    -0.132409564739E+04   -0.11256E-01   -0.18635E-01 36890   0.986E-01    0.106E+00
DAV:   4    -0.132409458316E+04    0.10642E-02   -0.14868E-02 40290   0.338E-01    0.679E-01
DAV:   5    -0.132409289883E+04    0.16843E-02   -0.34093E-03 41130   0.211E-01    0.467E-01
DAV:   6    -0.132409167677E+04    0.12221E-02   -0.42517E-03 43390   0.235E-01    0.265E-01
DAV:   7    -0.132409214139E+04   -0.46462E-03   -0.23899E-03 38530   0.134E-01    0.118E-01
DAV:   8    -0.132409186667E+04    0.27473E-03   -0.33476E-04 34160   0.568E-02    0.542E-02
DAV:   9    -0.132409197848E+04   -0.11181E-03   -0.31579E-05 20140   0.152E-02    0.300E-02
DAV:  10    -0.132409195201E+04    0.26469E-04   -0.17274E-05 18630   0.133E-02
  42 F= -.13240920E+04 E0= -.13240920E+04  d E =0.979488E-02  mag=   114.0000
       N       E                     dE             d eps       ncg     rms          rms(c)
DAV:   1    -0.132394903166E+04    0.14295E+00   -0.47661E+00 48920   0.109E+01    0.180E+00
DAV:   2    -0.132410663501E+04   -0.15760E+00   -0.14016E+00 37850   0.181E+00    0.932E-01
DAV:   3    -0.132411032037E+04   -0.36854E-02   -0.51896E-02 36960   0.499E-01    0.554E-01
DAV:   4    -0.132411083256E+04   -0.51219E-03   -0.52840E-03 38950   0.190E-01    0.354E-01
DAV:   5    -0.132411009378E+04    0.73878E-03   -0.85880E-04 38120   0.974E-02    0.247E-01
DAV:   6    -0.132410977349E+04    0.32029E-03   -0.74855E-04 42550   0.102E-01    0.896E-02
DAV:   7    -0.132410982640E+04   -0.52905E-04   -0.32382E-04 39080   0.440E-02    0.470E-02
DAV:   8    -0.132410984221E+04   -0.15815E-04   -0.62401E-05 21260   0.238E-02
  43 F= -.13241098E+04 E0= -.13241098E+04  d E =-.178902E-01  mag=   114.0000
       N       E                     dE             d eps       ncg     rms          rms(c)
DAV:   1    -0.132410565800E+04    0.41684E-02   -0.43758E-01 45830   0.261E+00    0.397E-01
DAV:   2    -0.132411376019E+04   -0.81022E-02   -0.79073E-02 37400   0.459E-01    0.220E-01
DAV:   3    -0.132411384998E+04   -0.89789E-04   -0.27385E-03 36380   0.117E-01    0.131E-01
DAV:   4    -0.132411387558E+04   -0.25602E-04   -0.20823E-04 29310   0.377E-02
  44 F= -.13241139E+04 E0= -.13241139E+04  d E =-.403337E-02  mag=   114.0000
       N       E                     dE             d eps       ncg     rms          rms(c)
DAV:   1    -0.132406953766E+04    0.44312E-01   -0.18299E+00 46890   0.596E+00    0.964E-01
DAV:   2    -0.132411705617E+04   -0.47519E-01   -0.43749E-01 37050   0.101E+00    0.503E-01
DAV:   3    -0.132411763152E+04   -0.57536E-03   -0.14662E-02 36980   0.247E-01    0.286E-01
DAV:   4    -0.132411773524E+04   -0.10372E-03   -0.11378E-03 38890   0.815E-02    0.209E-01
DAV:   5    -0.132411753883E+04    0.19642E-03   -0.30484E-04 32060   0.650E-02    0.152E-01
DAV:   6    -0.132411754180E+04   -0.29748E-05   -0.44902E-04 39420   0.761E-02
  45 F= -.13241175E+04 E0= -.13241175E+04  d E =-.366622E-02  mag=   114.0000
       N       E                     dE             d eps       ncg     rms          rms(c)
DAV:   1    -0.132408534778E+04    0.32191E-01   -0.22434E+00 44690   0.563E+00    0.838E-01
DAV:   2    -0.132411975925E+04   -0.34411E-01   -0.33616E-01 36450   0.982E-01    0.427E-01
DAV:   3    -0.132412000561E+04   -0.24636E-03   -0.99825E-03 36980   0.206E-01    0.216E-01
DAV:   4    -0.132412007309E+04   -0.67475E-04   -0.74112E-04 37760   0.659E-02    0.157E-01
DAV:   5    -0.132411988610E+04    0.18699E-03   -0.25391E-04 29260   0.584E-02    0.114E-01
DAV:   6    -0.132411994450E+04   -0.58397E-04   -0.32088E-04 35260   0.630E-02    0.517E-02
DAV:   7    -0.132411982026E+04    0.12424E-03   -0.10873E-04 22670   0.286E-02    0.175E-02
DAV:   8    -0.132411988700E+04   -0.66741E-04   -0.15773E-05 18170   0.946E-03    0.123E-02
DAV:   9    -0.132411988484E+04    0.21634E-05   -0.31115E-06 17990   0.496E-03
  46 F= -.13241199E+04 E0= -.13241199E+04  d E =-.234304E-02  mag=   114.0000
       N       E                     dE             d eps       ncg     rms          rms(c)
DAV:   1    -0.132402242464E+04    0.97462E-01   -0.67216E+00 43720   0.910E+00    0.135E+00
DAV:   2    -0.132411718153E+04   -0.94757E-01   -0.94365E-01 36660   0.159E+00    0.710E-01
DAV:   3    -0.132411806045E+04   -0.87893E-03   -0.28215E-02 37000   0.323E-01    0.348E-01
DAV:   4    -0.132411776418E+04    0.29627E-03   -0.17966E-03 40140   0.874E-02    0.252E-01
DAV:   5    -0.132411759313E+04    0.17105E-03   -0.73423E-04 38690   0.939E-02    0.174E-01
DAV:   6    -0.132411720559E+04    0.38754E-03   -0.83243E-04 39010   0.935E-02    0.942E-02
DAV:   7    -0.132411742879E+04   -0.22320E-03   -0.28779E-04 35130   0.496E-02    0.312E-02
DAV:   8    -0.132411738640E+04    0.42391E-04   -0.31687E-05 19830   0.137E-02
  47 F= -.13241174E+04 E0= -.13241174E+04  d E =0.249844E-02  mag=   114.0000
       N       E                     dE             d eps       ncg     rms          rms(c)
DAV:   1    -0.132400201535E+04    0.11541E+00   -0.42763E+00 48920   0.952E+00    0.152E+00
DAV:   2    -0.132411362673E+04   -0.11161E+00   -0.10052E+00 37630   0.157E+00    0.769E-01
DAV:   3    -0.132411660601E+04   -0.29793E-02   -0.34310E-02 36860   0.392E-01    0.413E-01
DAV:   4    -0.132411700056E+04   -0.39455E-03   -0.27372E-03 39260   0.132E-01    0.278E-01
DAV:   5    -0.132411647350E+04    0.52706E-03   -0.93759E-04 40240   0.988E-02    0.190E-01
DAV:   6    -0.132411653933E+04   -0.65826E-04   -0.73875E-04 39920   0.945E-02    0.834E-02
DAV:   7    -0.132411643842E+04    0.10091E-03   -0.29104E-04 36400   0.477E-02    0.435E-02
DAV:   8    -0.132411650158E+04   -0.63164E-04   -0.60595E-05 21180   0.240E-02    0.263E-02
DAV:   9    -0.132411652071E+04   -0.19128E-04   -0.11401E-05 18850   0.102E-02
  48 F= -.13241165E+04 E0= -.13241165E+04  d E =0.865688E-03  mag=   114.0000
       N       E                     dE             d eps       ncg     rms          rms(c)
DAV:   1    -0.132408477991E+04    0.31722E-01   -0.18426E+00 45700   0.546E+00    0.847E-01
DAV:   2    -0.132412086248E+04   -0.36083E-01   -0.34585E-01 37120   0.955E-01    0.448E-01
DAV:   3    -0.132412156620E+04   -0.70372E-03   -0.11128E-02 36830   0.217E-01    0.240E-01
DAV:   4    -0.132412144127E+04    0.12493E-03   -0.65062E-04 38830   0.567E-02    0.162E-01
DAV:   5    -0.132412125747E+04    0.18380E-03   -0.25624E-04 32070   0.562E-02    0.104E-01
DAV:   6    -0.132412116049E+04    0.96985E-04   -0.32341E-04 37240   0.603E-02    0.707E-02
DAV:   7    -0.132412126599E+04   -0.10550E-03   -0.13340E-04 25860   0.353E-02    0.215E-02
DAV:   8    -0.132412120518E+04    0.60814E-04   -0.23886E-05 18910   0.136E-02    0.135E-02
DAV:   9    -0.132412121549E+04   -0.10313E-04   -0.66755E-06 18230   0.671E-03
  49 F= -.13241212E+04 E0= -.13241212E+04  d E =-.469478E-02  mag=   114.0000
       N       E                     dE             d eps       ncg     rms          rms(c)
DAV:   1    -0.132410353947E+04    0.17666E-01   -0.94231E-01 47170   0.403E+00    0.635E-01
DAV:   2    -0.132412236207E+04   -0.18823E-01   -0.17968E-01 37380   0.691E-01    0.320E-01
DAV:   3    -0.132412275232E+04   -0.39024E-03   -0.57286E-03 37110   0.158E-01    0.170E-01
DAV:   4    -0.132412284354E+04   -0.91221E-04   -0.38671E-04 33200   0.457E-02    0.116E-01
DAV:   5    -0.132412270404E+04    0.13950E-03   -0.16136E-04 27860   0.427E-02    0.863E-02
DAV:   6    -0.132412276802E+04   -0.63983E-04   -0.17406E-04 28480   0.446E-02    0.432E-02
DAV:   7    -0.132412270296E+04    0.65061E-04   -0.64260E-05 20680   0.231E-02    0.152E-02
DAV:   8    -0.132412273964E+04   -0.36675E-04   -0.12916E-05 18100   0.789E-03
  50 F= -.13241227E+04 E0= -.13241227E+04  d E =-.152415E-02  mag=   114.0000
       N       E                     dE             d eps       ncg     rms          rms(c)
DAV:   1    -0.132404672869E+04    0.75974E-01   -0.38529E+00 46600   0.762E+00    0.122E+00
DAV:   2    -0.132411589454E+04   -0.69166E-01   -0.66221E-01 36820   0.132E+00    0.602E-01
DAV:   3    -0.132411721565E+04   -0.13211E-02   -0.19362E-02 36900   0.298E-01    0.313E-01
DAV:   4    -0.132411725679E+04   -0.41136E-04   -0.15347E-03 38970   0.952E-02    0.223E-01
DAV:   5    -0.132411687392E+04    0.38287E-03   -0.59284E-04 35260   0.848E-02    0.158E-01
DAV:   6    -0.132411691036E+04   -0.36444E-04   -0.56666E-04 37850   0.810E-02    0.676E-02
DAV:   7    -0.132411678895E+04    0.12141E-03   -0.19222E-04 31170   0.362E-02    0.263E-02
DAV:   8    -0.132411687275E+04   -0.83803E-04   -0.28279E-05 19620   0.134E-02    0.178E-02
DAV:   9    -0.132411685397E+04    0.18777E-04   -0.57496E-06 18070   0.728E-03
  51 F= -.13241169E+04 E0= -.13241169E+04  d E =0.588566E-02  mag=   114.0000
       N       E                     dE             d eps       ncg     rms          rms(c)
DAV:   1    -0.132403553591E+04    0.81337E-01   -0.41925E+00 44910   0.812E+00    0.134E+00
DAV:   2    -0.132411866833E+04   -0.83132E-01   -0.80499E-01 36940   0.145E+00    0.647E-01
DAV:   3    -0.132411995198E+04   -0.12837E-02   -0.23457E-02 36970   0.318E-01    0.350E-01
DAV:   4    -0.132412004132E+04   -0.89332E-04   -0.18245E-03 38910   0.966E-02    0.259E-01
DAV:   5    -0.132411955956E+04    0.48176E-03   -0.51172E-04 36080   0.777E-02    0.191E-01
DAV:   6    -0.132411958570E+04   -0.26150E-04   -0.65118E-04 41670   0.945E-02    0.810E-02
DAV:   7    -0.132411945776E+04    0.12795E-03   -0.31234E-04 37230   0.485E-02    0.385E-02
DAV:   8    -0.132411952751E+04   -0.69751E-04   -0.40733E-05 20400   0.195E-02    0.225E-02
DAV:   9    -0.132411954641E+04   -0.18908E-04   -0.89610E-06 18260   0.875E-03
  52 F= -.13241195E+04 E0= -.13241195E+04  d E =-.269244E-02  mag=   114.0000
       N       E                     dE             d eps       ncg     rms          rms(c)
DAV:   1    -0.132400594395E+04    0.11358E+00   -0.41974E+00 47600   0.954E+00    0.155E+00
DAV:   2    -0.132411660075E+04   -0.11066E+00   -0.10104E+00 36980   0.164E+00    0.781E-01
DAV:   3    -0.132411853583E+04   -0.19351E-02   -0.32793E-02 36800   0.385E-01    0.413E-01
DAV:   4    -0.132411869411E+04   -0.15828E-03   -0.22144E-03 39540   0.104E-01    0.289E-01
DAV:   5    -0.132411815440E+04    0.53972E-03   -0.48455E-04 36680   0.842E-02    0.207E-01
DAV:   6    -0.132411819985E+04   -0.45458E-04   -0.80121E-04 41830   0.106E-01    0.106E-01
DAV:   7    -0.132411795755E+04    0.24231E-03   -0.41641E-04 36840   0.590E-02    0.447E-02
DAV:   8    -0.132411808561E+04   -0.12807E-03   -0.54526E-05 20710   0.246E-02    0.246E-02
DAV:   9    -0.132411809956E+04   -0.13949E-04   -0.11804E-05 18330   0.105E-02
  53 F= -.13241181E+04 E0= -.13241181E+04  d E =0.144685E-02  mag=   114.0000
       N       E                     dE             d eps       ncg     rms          rms(c)
DAV:   1    -0.132408398598E+04    0.34100E-01   -0.16232E+00 47200   0.561E+00    0.891E-01
DAV:   2    -0.132412165604E+04   -0.37670E-01   -0.35340E-01 37140   0.968E-01    0.446E-01
DAV:   3    -0.132412241897E+04   -0.76293E-03   -0.11196E-02 36950   0.227E-01    0.239E-01
DAV:   4    -0.132412235242E+04    0.66549E-04   -0.75302E-04 37570   0.636E-02    0.165E-01
DAV:   5    -0.132412220695E+04    0.14548E-03   -0.20887E-04 28730   0.554E-02    0.119E-01
DAV:   6    -0.132412219555E+04    0.11397E-04   -0.31875E-04 35310   0.640E-02
  54 F= -.13241222E+04 E0= -.13241222E+04  d E =-.409599E-02  mag=   114.0000
       N       E                     dE             d eps       ncg     rms          rms(c)
DAV:   1    -0.132408908412E+04    0.33123E-01   -0.16353E+00 45400   0.523E+00    0.854E-01
DAV:   2    -0.132412210843E+04   -0.33024E-01   -0.31611E-01 35710   0.917E-01    0.407E-01
DAV:   3    -0.132412263020E+04   -0.52177E-03   -0.90090E-03 36930   0.189E-01    0.193E-01
DAV:   4    -0.132412263007E+04    0.13085E-06   -0.55392E-04 33250   0.431E-02    0.149E-01
DAV:   5    -0.132412241419E+04    0.21588E-03   -0.14227E-04 24740   0.501E-02    0.101E-01
DAV:   6    -0.132412248527E+04   -0.71076E-04   -0.28259E-04 33280   0.567E-02    0.623E-02
DAV:   7    -0.132412236095E+04    0.12432E-03   -0.99559E-05 21840   0.301E-02    0.164E-02
DAV:   8    -0.132412242387E+04   -0.62923E-04   -0.15214E-05 17920   0.943E-03    0.113E-02
DAV:   9    -0.132412243708E+04   -0.13211E-04   -0.31046E-06 17920   0.454E-03
  55 F= -.13241224E+04 E0= -.13241224E+04  d E =-.241530E-03  mag=   114.0000
       N       E                     dE             d eps       ncg     rms          rms(c)
DAV:   1    -0.132215968217E+04    0.19627E+01   -0.67972E+01 48130   0.388E+01    0.647E+00
DAV:   2    -0.132395066094E+04   -0.17910E+01   -0.16249E+01 37390   0.659E+00    0.347E+00
DAV:   3    -0.132399612545E+04   -0.45465E-01   -0.52919E-01 36910   0.159E+00    0.172E+00
DAV:   4    -0.132399642439E+04   -0.29893E-03   -0.35437E-02 40410   0.457E-01    0.117E+00
DAV:   5    -0.132399131598E+04    0.51084E-02   -0.90525E-03 41270   0.316E-01    0.833E-01
DAV:   6    -0.132398941585E+04    0.19001E-02   -0.10025E-02 42040   0.370E-01    0.465E-01
DAV:   7    -0.132398861941E+04    0.79645E-03   -0.62240E-03 39910   0.239E-01    0.194E-01
DAV:   8    -0.132398947572E+04   -0.85631E-03   -0.11854E-03 37090   0.110E-01    0.111E-01
DAV:   9    -0.132398950399E+04   -0.28274E-04   -0.23398E-04 33320   0.448E-02
  56 F= -.13239895E+04 E0= -.13239895E+04  d E =0.132933E+00  mag=   114.0000
       N       E                     dE             d eps       ncg     rms          rms(c)
DAV:   1    -0.132294196034E+04    0.10475E+01   -0.28774E+01 49360   0.299E+01    0.509E+00
DAV:   2    -0.132408023716E+04   -0.11383E+01   -0.99869E+00 38480   0.498E+00    0.272E+00
DAV:   3    -0.132411687520E+04   -0.36638E-01   -0.39165E-01 36590   0.142E+00    0.152E+00
DAV:   4    -0.132411752828E+04   -0.65308E-03   -0.36345E-02 39800   0.500E-01    0.978E-01
DAV:   5    -0.132411409725E+04    0.34310E-02   -0.72185E-03 39070   0.272E-01    0.723E-01
DAV:   6    -0.132411191301E+04    0.21842E-02   -0.61393E-03 41520   0.284E-01    0.342E-01
DAV:   7    -0.132411175035E+04    0.16266E-03   -0.28972E-03 40860   0.153E-01    0.166E-01
DAV:   8    -0.132411207775E+04   -0.32740E-03   -0.85215E-04 37200   0.856E-02    0.821E-02
DAV:   9    -0.132411211247E+04   -0.34716E-04   -0.12640E-04 28430   0.379E-02
  57 F= -.13241121E+04 E0= -.13241121E+04  d E =-.122608E+00  mag=   114.0000
       N       E                     dE             d eps       ncg     rms          rms(c)
DAV:   1    -0.132410009321E+04    0.11985E-01   -0.50645E-01 49500   0.400E+00    0.654E-01
DAV:   2    -0.132411913847E+04   -0.19045E-01   -0.16556E-01 37820   0.648E-01    0.327E-01
DAV:   3    -0.132411961774E+04   -0.47926E-03   -0.63485E-03 36940   0.167E-01    0.170E-01
DAV:   4    -0.132411971532E+04   -0.97581E-04   -0.36655E-04 32260   0.418E-02    0.108E-01
DAV:   5    -0.132411965003E+04    0.65286E-04   -0.87326E-05 23540   0.331E-02    0.719E-02
DAV:   6    -0.132411968439E+04   -0.34354E-04   -0.90967E-05 25410   0.349E-02
  58 F= -.13241197E+04 E0= -.13241197E+04  d E =-.757192E-02  mag=   114.0000
       N       E                     dE             d eps       ncg     rms          rms(c)
DAV:   1    -0.132407240961E+04    0.47240E-01   -0.14972E+00 49490   0.641E+00    0.103E+00
DAV:   2    -0.132412152207E+04   -0.49112E-01   -0.43821E-01 37450   0.106E+00    0.513E-01
DAV:   3    -0.132412265338E+04   -0.11313E-02   -0.14975E-02 37220   0.253E-01    0.262E-01
DAV:   4    -0.132412271383E+04   -0.60446E-04   -0.86628E-04 38420   0.558E-02    0.180E-01
DAV:   5    -0.132412253123E+04    0.18259E-03   -0.19233E-04 32250   0.534E-02    0.110E-01
DAV:   6    -0.132412260711E+04   -0.75875E-04   -0.27072E-04 33880   0.568E-02    0.725E-02
DAV:   7    -0.132412245667E+04    0.15044E-03   -0.15245E-04 25890   0.385E-02    0.262E-02
DAV:   8    -0.132412255126E+04   -0.94591E-04   -0.20588E-05 19080   0.147E-02    0.128E-02
DAV:   9    -0.132412255480E+04   -0.35473E-05   -0.65461E-06 18210   0.572E-03
  59 F= -.13241226E+04 E0= -.13241226E+04  d E =-.287042E-02  mag=   114.0000
       N       E                     dE             d eps       ncg     rms          rms(c)
DAV:   1    -0.132411820243E+04    0.43488E-02   -0.25857E-01 46450   0.213E+00    0.346E-01
DAV:   2    -0.132412386252E+04   -0.56601E-02   -0.53824E-02 37190   0.375E-01    0.176E-01
DAV:   3    -0.132412387270E+04   -0.10173E-04   -0.17279E-03 37190   0.874E-02    0.965E-02
DAV:   4    -0.132412391576E+04   -0.43064E-04   -0.10518E-04 24590   0.223E-02
  60 F= -.13241239E+04 E0= -.13241239E+04  d E =-.136096E-02  mag=   114.0000
       N       E                     dE             d eps       ncg     rms          rms(c)
DAV:   1    -0.132405371450E+04    0.70158E-01   -0.40730E+00 44250   0.760E+00    0.120E+00
DAV:   2    -0.132412274216E+04   -0.69028E-01   -0.67208E-01 36070   0.133E+00    0.610E-01
DAV:   3    -0.132412322352E+04   -0.48136E-03   -0.20728E-02 37350   0.293E-01    0.321E-01
DAV:   4    -0.132412343274E+04   -0.20922E-03   -0.15883E-03 39090   0.936E-02    0.240E-01
DAV:   5    -0.132412297002E+04    0.46272E-03   -0.46527E-04 35890   0.801E-02    0.173E-01
DAV:   6    -0.132412293167E+04    0.38353E-04   -0.61365E-04 40830   0.910E-02    0.738E-02
DAV:   7    -0.132412280964E+04    0.12202E-03   -0.24570E-04 36560   0.407E-02    0.271E-02
DAV:   8    -0.132412287237E+04   -0.62721E-04   -0.21753E-05 19220   0.132E-02    0.182E-02
DAV:   9    -0.132412289219E+04   -0.19827E-04   -0.47050E-06 18130   0.649E-03
  61 F= -.13241229E+04 E0= -.13241229E+04  d E =0.102357E-02  mag=   114.0000
       N       E                     dE             d eps       ncg     rms          rms(c)
DAV:   1    -0.132409885363E+04    0.24019E-01   -0.10947E+00 47990   0.440E+00    0.692E-01
DAV:   2    -0.132412089470E+04   -0.22041E-01   -0.20666E-01 36620   0.743E-01    0.345E-01
DAV:   3    -0.132412125001E+04   -0.35531E-03   -0.73260E-03 37070   0.174E-01    0.178E-01
DAV:   4    -0.132412137297E+04   -0.12295E-03   -0.50349E-04 35610   0.516E-02    0.118E-01
DAV:   5    -0.132412116456E+04    0.20840E-03   -0.16475E-04 26590   0.430E-02    0.874E-02
DAV:   6    -0.132412120330E+04   -0.38737E-04   -0.17946E-04 28240   0.456E-02
  62 F= -.13241212E+04 E0= -.13241212E+04  d E =0.168889E-02  mag=   114.0000
       N       E                     dE             d eps       ncg     rms          rms(c)
DAV:   1    -0.132406703370E+04    0.54131E-01   -0.34383E+00 43340   0.676E+00    0.107E+00
DAV:   2    -0.132411958837E+04   -0.52555E-01   -0.52695E-01 35970   0.120E+00    0.515E-01
DAV:   3    -0.132412015857E+04   -0.57020E-03   -0.14784E-02 37010   0.245E-01    0.255E-01
DAV:   4    -0.132412018016E+04   -0.21591E-04   -0.96289E-04 38420   0.643E-02    0.189E-01
DAV:   5    -0.132411996552E+04    0.21463E-03   -0.28596E-04 32350   0.662E-02    0.132E-01
DAV:   6    -0.132412000596E+04   -0.40435E-04   -0.44994E-04 38190   0.737E-02
  63 F= -.13241200E+04 E0= -.13241200E+04  d E =0.119734E-02  mag=   114.0000
       N       E                     dE             d eps       ncg     rms          rms(c)
DAV:   1    -0.132290278924E+04    0.12172E+01   -0.74069E+01 43660   0.313E+01    0.521E+00
DAV:   2    -0.132406343913E+04   -0.11606E+01   -0.11291E+01 35540   0.549E+00    0.277E+00
DAV:   3    -0.132408102398E+04   -0.17585E-01   -0.32045E-01 36890   0.114E+00    0.123E+00
DAV:   4    -0.132407960659E+04    0.14174E-02   -0.21478E-02 40350   0.300E-01    0.919E-01
DAV:   5    -0.132407566408E+04    0.39425E-02   -0.48107E-03 43120   0.255E-01    0.618E-01
DAV:   6    -0.132407495364E+04    0.71045E-03   -0.68443E-03 42860   0.295E-01    0.377E-01
DAV:   7    -0.132407413515E+04    0.81849E-03   -0.40288E-03 38340   0.183E-01    0.135E-01
DAV:   8    -0.132407483713E+04   -0.70198E-03   -0.52656E-04 36530   0.688E-02    0.761E-02
DAV:   9    -0.132407486433E+04   -0.27202E-04   -0.10101E-04 25610   0.309E-02
  64 F= -.13240749E+04 E0= -.13240749E+04  d E =0.451416E-01  mag=   114.0000
       N       E                     dE             d eps       ncg     rms          rms(c)
DAV:   1    -0.132217797047E+04    0.18969E+01   -0.12525E+02 43400   0.400E+01    0.625E+00
DAV:   2    -0.132400924735E+04   -0.18313E+01   -0.17936E+01 36370   0.719E+00    0.348E+00
DAV:   3    -0.132403554355E+04   -0.26296E-01   -0.51548E-01 36850   0.168E+00    0.184E+00
DAV:   4    -0.132403153641E+04    0.40071E-02   -0.54134E-02 39050   0.634E-01    0.121E+00
DAV:   5    -0.132402530539E+04    0.62310E-02   -0.12695E-02 38990   0.391E-01    0.850E-01
DAV:   6    -0.132402233845E+04    0.29669E-02   -0.11364E-02 42770   0.383E-01    0.345E-01
DAV:   7    -0.132402225098E+04    0.87471E-04   -0.51834E-03 38950   0.160E-01    0.127E-01
DAV:   8    -0.132402296461E+04   -0.71363E-03   -0.60210E-04 36450   0.627E-02    0.926E-02
DAV:   9    -0.132402286743E+04    0.97183E-04   -0.78473E-05 24300   0.305E-02    0.519E-02
DAV:  10    -0.132402276907E+04    0.98361E-04   -0.34560E-05 21550   0.232E-02    0.264E-02
DAV:  11    -0.132402283361E+04   -0.64545E-04   -0.21576E-05 18250   0.129E-02    0.139E-02
DAV:  12    -0.132402284697E+04   -0.13362E-04   -0.61527E-06 18050   0.673E-03
  65 F= -.13240228E+04 E0= -.13240228E+04  d E =0.520174E-01  mag=   114.0000
       N       E                     dE             d eps       ncg     rms          rms(c)
DAV:   1    -0.131827076822E+04    0.57521E+01   -0.15113E+02 49230   0.656E+01    0.116E+01
DAV:   2    -0.132358628618E+04   -0.53155E+01   -0.46966E+01 38110   0.113E+01    0.903E+00
DAV:   3    -0.132379503375E+04   -0.20875E+00   -0.35303E+00 36720   0.523E+00    0.616E+00
DAV:   4    -0.132372154643E+04    0.73487E-01   -0.37980E-01 38360   0.220E+00    0.237E+00
DAV:   5    -0.132371180621E+04    0.97402E-02   -0.52201E-02 41800   0.533E-01    0.173E+00
DAV:   6    -0.132370478931E+04    0.70169E-02   -0.23014E-02 39000   0.521E-01    0.117E+00
DAV:   7    -0.132370191810E+04    0.28712E-02   -0.11045E-02 42280   0.394E-01    0.575E-01
DAV:   8    -0.132370170423E+04    0.21388E-03   -0.10426E-02 40030   0.319E-01    0.392E-01
DAV:   9    -0.132370117631E+04    0.52791E-03   -0.25088E-03 36930   0.171E-01    0.131E-01
DAV:  10    -0.132370122008E+04   -0.43764E-04   -0.44410E-04 34240   0.462E-02
  66 F= -.13237012E+04 E0= -.13237012E+04  d E =0.321627E+00  mag=   114.0000
       N       E                     dE             d eps       ncg     rms          rms(c)
DAV:   1    -0.132276662698E+04    0.93455E+00   -0.37326E+01 49820   0.322E+01    0.530E+00
DAV:   2    -0.132400432763E+04   -0.12377E+01   -0.10824E+01 38300   0.530E+00    0.314E+00
DAV:   3    -0.132405557354E+04   -0.51246E-01   -0.50390E-01 37170   0.170E+00    0.190E+00
DAV:   4    -0.132405288074E+04    0.26928E-02   -0.60644E-02 38790   0.698E-01    0.102E+00
DAV:   5    -0.132404930164E+04    0.35791E-02   -0.11120E-02 39490   0.294E-01    0.704E-01
DAV:   6    -0.132404744407E+04    0.18576E-02   -0.63572E-03 41300   0.254E-01    0.306E-01
DAV:   7    -0.132404722630E+04    0.21776E-03   -0.24793E-03 40800   0.122E-01    0.145E-01
DAV:   8    -0.132404747182E+04   -0.24552E-03   -0.71438E-04 36370   0.768E-02    0.883E-02
DAV:   9    -0.132404764164E+04   -0.16982E-03   -0.11908E-04 27340   0.360E-02    0.408E-02
DAV:  10    -0.132404752988E+04    0.11176E-03   -0.44033E-05 20220   0.187E-02    0.305E-02
DAV:  11    -0.132404754206E+04   -0.12176E-04   -0.16915E-05 18640   0.126E-02
  67 F= -.13240475E+04 E0= -.13240475E+04  d E =-.346322E+00  mag=   114.0000
       N       E                     dE             d eps       ncg     rms          rms(c)
DAV:   1    -0.132382522698E+04    0.22230E+00   -0.76108E+00 49210   0.138E+01    0.225E+00
DAV:   2    -0.132407141561E+04   -0.24619E+00   -0.21870E+00 37980   0.230E+00    0.123E+00
DAV:   3    -0.132408147122E+04   -0.10056E-01   -0.91100E-02 36230   0.630E-01    0.691E-01
DAV:   4    -0.132408131670E+04    0.15452E-03   -0.53220E-03 40290   0.167E-01    0.420E-01
DAV:   5    -0.132408088874E+04    0.42796E-03   -0.21164E-03 40660   0.139E-01    0.290E-01
DAV:   6    -0.132408079841E+04    0.90336E-04   -0.18064E-03 39770   0.146E-01    0.188E-01
DAV:   7    -0.132408049615E+04    0.30225E-03   -0.86276E-04 38450   0.898E-02    0.796E-02
DAV:   8    -0.132408078482E+04   -0.28867E-03   -0.21952E-04 31390   0.437E-02    0.448E-02
DAV:   9    -0.132408068558E+04    0.99245E-04   -0.48758E-05 20600   0.204E-02    0.231E-02
DAV:  10    -0.132408071445E+04   -0.28876E-04   -0.81169E-06 18460   0.891E-03
  68 F= -.13240807E+04 E0= -.13240807E+04  d E =-.331724E-01  mag=   114.0000
       N       E                     dE             d eps       ncg     rms          rms(c)
DAV:   1    -0.132406719441E+04    0.13491E-01   -0.71592E-01 49280   0.387E+00    0.620E-01
DAV:   2    -0.132408685671E+04   -0.19662E-01   -0.17663E-01 36670   0.635E-01    0.317E-01
DAV:   3    -0.132408707482E+04   -0.21811E-03   -0.59336E-03 35290   0.152E-01    0.161E-01
DAV:   4    -0.132408708526E+04   -0.10437E-04   -0.39681E-04 34050   0.441E-02
  69 F= -.13240871E+04 E0= -.13240871E+04  d E =-.637081E-02  mag=   114.0000
       N       E                     dE             d eps       ncg     rms          rms(c)
DAV:   1    -0.132383401630E+04    0.25306E+00   -0.10042E+01 47170   0.142E+01    0.232E+00
DAV:   2    -0.132409067878E+04   -0.25666E+00   -0.23768E+00 36610   0.242E+00    0.117E+00
DAV:   3    -0.132409471929E+04   -0.40405E-02   -0.61924E-02 36310   0.524E-01    0.601E-01
DAV:   4    -0.132409405296E+04    0.66633E-03   -0.45866E-03 39640   0.150E-01    0.449E-01
DAV:   5    -0.132409359912E+04    0.45384E-03   -0.13245E-03 41620   0.141E-01    0.316E-01
DAV:   6    -0.132409282633E+04    0.77279E-03   -0.19294E-03 44020   0.163E-01    0.144E-01
DAV:   7    -0.132409318785E+04   -0.36152E-03   -0.79850E-04 38000   0.797E-02    0.500E-02
DAV:   8    -0.132409307543E+04    0.11242E-03   -0.70798E-05 23780   0.219E-02    0.252E-02
DAV:   9    -0.132409304596E+04    0.29471E-04   -0.10028E-05 18150   0.838E-03
  70 F= -.13240930E+04 E0= -.13240930E+04  d E =-.596070E-02  mag=   114.0000
       N       E                     dE             d eps       ncg     rms          rms(c)
DAV:   1    -0.132392400364E+04    0.16907E+00   -0.92971E+00 45870   0.119E+01    0.183E+00
DAV:   2    -0.132408908583E+04   -0.16508E+00   -0.15703E+00 36280   0.204E+00    0.925E-01
DAV:   3    -0.132409130592E+04   -0.22201E-02   -0.43131E-02 36420   0.434E-01    0.444E-01
DAV:   4    -0.132409101993E+04    0.28599E-03   -0.26637E-03 40470   0.117E-01    0.313E-01
DAV:   5    -0.132409036043E+04    0.65950E-03   -0.11845E-03 40470   0.124E-01    0.230E-01
DAV:   6    -0.132409037346E+04   -0.13033E-04   -0.14015E-03 40260   0.127E-01    0.129E-01
DAV:   7    -0.132409008050E+04    0.29296E-03   -0.46322E-04 37390   0.597E-02    0.363E-02
DAV:   8    -0.132409023313E+04   -0.15263E-03   -0.49956E-05 20670   0.179E-02    0.240E-02
DAV:   9    -0.132409021569E+04    0.17443E-04   -0.11574E-05 18540   0.107E-02
  71 F= -.13240902E+04 E0= -.13240902E+04  d E =0.283027E-02  mag=   114.0000
       N       E                     dE             d eps       ncg     rms          rms(c)
DAV:   1    -0.131509582651E+04    0.89944E+01   -0.31538E+02 48190   0.705E+01    0.136E+01
DAV:   2    -0.132365926892E+04   -0.85634E+01   -0.76294E+01 37730   0.135E+01    0.231E+01
DAV:   3    -0.132328851008E+04    0.37076E+00   -0.16424E+01 37040   0.927E+00    0.913E+00
DAV:   4    -0.132351652975E+04   -0.22802E+00   -0.85740E-01 37170   0.306E+00    0.436E+00
DAV:   5    -0.132348748922E+04    0.29041E-01   -0.14527E-01 40380   0.121E+00    0.275E+00
DAV:   6    -0.132346928385E+04    0.18205E-01   -0.83620E-02 43630   0.115E+00    0.194E+00
DAV:   7    -0.132346754342E+04    0.17404E-02   -0.68426E-02 41960   0.741E-01    0.101E+00
DAV:   8    -0.132346656891E+04    0.97451E-03   -0.15795E-02 39380   0.426E-01    0.485E-01
DAV:   9    -0.132346688370E+04   -0.31479E-03   -0.79096E-03 39280   0.183E-01    0.298E-01
DAV:  10    -0.132346596072E+04    0.92297E-03   -0.10822E-03 37310   0.106E-01    0.135E-01
DAV:  11    -0.132346601807E+04   -0.57346E-04   -0.27212E-04 34410   0.393E-02    0.801E-02
DAV:  12    -0.132346599705E+04    0.21016E-04   -0.76944E-05 24750   0.240E-02
  72 F= -.13234660E+04 E0= -.13234660E+04  d E =0.624219E+00  mag=   114.0000
       N       E                     dE             d eps       ncg     rms          rms(c)
DAV:   1    -0.132015931950E+04    0.33067E+01   -0.15429E+02 48930   0.452E+01    0.991E+00
DAV:   2    -0.132411694267E+04   -0.39576E+01   -0.34325E+01 37970   0.929E+00    0.153E+01
DAV:   3    -0.132401771843E+04    0.99224E-01   -0.71801E+00 37260   0.669E+00    0.693E+00
DAV:   4    -0.132406541315E+04   -0.47695E-01   -0.42885E-01 37700   0.215E+00    0.354E+00
DAV:   5    -0.132403804023E+04    0.27373E-01   -0.77820E-02 41510   0.830E-01    0.233E+00
DAV:   6    -0.132402384962E+04    0.14191E-01   -0.59906E-02 42170   0.977E-01    0.174E+00
DAV:   7    -0.132402047232E+04    0.33773E-02   -0.66119E-02 42250   0.695E-01    0.810E-01
DAV:   8    -0.132401721313E+04    0.32592E-02   -0.11704E-02 38750   0.353E-01    0.333E-01
DAV:   9    -0.132401656651E+04    0.64662E-03   -0.52825E-03 37680   0.170E-01    0.214E-01
DAV:  10    -0.132401650579E+04    0.60716E-04   -0.67328E-04 36870   0.859E-02    0.112E-01
DAV:  11    -0.132401636790E+04    0.13789E-03   -0.18562E-04 31050   0.344E-02    0.584E-02
DAV:  12    -0.132401636791E+04   -0.60827E-08   -0.51591E-05 20510   0.152E-02
  73 F= -.13240164E+04 E0= -.13240164E+04  d E =-.550371E+00  mag=   114.0000
       N       E                     dE             d eps       ncg     rms          rms(c)
DAV:   1    -0.132392973771E+04    0.86630E-01   -0.45271E+00 49210   0.928E+00    0.157E+00
DAV:   2    -0.132405148546E+04   -0.12175E+00   -0.10637E+00 37420   0.152E+00    0.805E-01
DAV:   3    -0.132405545394E+04   -0.39685E-02   -0.36073E-02 35620   0.372E-01    0.406E-01
DAV:   4    -0.132405502384E+04    0.43010E-03   -0.23347E-03 40010   0.112E-01    0.279E-01
DAV:   5    -0.132405483710E+04    0.18674E-03   -0.12222E-03 38280   0.111E-01    0.211E-01
DAV:   6    -0.132405445102E+04    0.38608E-03   -0.10426E-03 37130   0.104E-01    0.974E-02
DAV:   7    -0.132405473510E+04   -0.28408E-03   -0.30444E-04 34290   0.528E-02    0.410E-02
DAV:   8    -0.132405459590E+04    0.13920E-03   -0.51369E-05 21580   0.224E-02    0.256E-02
DAV:   9    -0.132405462547E+04   -0.29568E-04   -0.14936E-05 18890   0.119E-02
  74 F= -.13240546E+04 E0= -.13240546E+04  d E =-.382576E-01  mag=   114.0000
       N       E                     dE             d eps       ncg     rms          rms(c)
DAV:   1    -0.132375056103E+04    0.30403E+00   -0.12824E+01 48790   0.160E+01    0.266E+00
DAV:   2    -0.132408062137E+04   -0.33006E+00   -0.28899E+00 37620   0.263E+00    0.142E+00
DAV:   3    -0.132409282766E+04   -0.12206E-01   -0.99215E-02 35500   0.699E-01    0.846E-01
DAV:   4    -0.132409199118E+04    0.83648E-03   -0.67548E-03 39890   0.200E-01    0.535E-01
DAV:   5    -0.132409171707E+04    0.27411E-03   -0.24938E-03 40610   0.171E-01    0.352E-01
DAV:   6    -0.132409097851E+04    0.73856E-03   -0.22265E-03 40660   0.159E-01    0.176E-01
DAV:   7    -0.132409144829E+04   -0.46978E-03   -0.10826E-03 37980   0.941E-02    0.917E-02
DAV:   8    -0.132409127686E+04    0.17142E-03   -0.25061E-04 31620   0.498E-02    0.505E-02
DAV:   9    -0.132409133971E+04   -0.62844E-04   -0.46614E-05 20990   0.240E-02    0.247E-02
DAV:  10    -0.132409134035E+04   -0.64120E-06   -0.11140E-05 18590   0.103E-02
  75 F= -.13240913E+04 E0= -.13240913E+04  d E =-.367149E-01  mag=   114.0000
       N       E                     dE             d eps       ncg     rms          rms(c)
DAV:   1    -0.132402525837E+04    0.66081E-01   -0.27323E+00 47600   0.768E+00    0.116E+00
DAV:   2    -0.132409350291E+04   -0.68245E-01   -0.62568E-01 36980   0.129E+00    0.659E-01
DAV:   3    -0.132409557314E+04   -0.20702E-02   -0.23357E-02 36310   0.374E-01    0.404E-01
DAV:   4    -0.132409509385E+04    0.47930E-03   -0.18013E-03 38490   0.120E-01    0.235E-01
DAV:   5    -0.132409498465E+04    0.10920E-03   -0.34391E-04 32930   0.668E-02    0.155E-01
DAV:   6    -0.132409502046E+04   -0.35809E-04   -0.42699E-04 39300   0.758E-02
  76 F= -.13240950E+04 E0= -.13240950E+04  d E =-.368011E-02  mag=   114.0000
       N       E                     dE             d eps       ncg     rms          rms(c)
DAV:   1    -0.132322933628E+04    0.86565E+00   -0.36729E+01 45640   0.264E+01    0.413E+00
DAV:   2    -0.132406121234E+04   -0.83188E+00   -0.76683E+00 36430   0.453E+00    0.221E+00
DAV:   3    -0.132407563329E+04   -0.14421E-01   -0.23446E-01 36840   0.109E+00    0.115E+00
DAV:   4    -0.132407432716E+04    0.13061E-02   -0.17495E-02 39590   0.337E-01    0.804E-01
DAV:   5    -0.132407212780E+04    0.21994E-02   -0.38202E-03 41630   0.243E-01    0.540E-01
DAV:   6    -0.132407106829E+04    0.10595E-02   -0.57324E-03 43780   0.284E-01    0.314E-01
DAV:   7    -0.132407043697E+04    0.63132E-03   -0.33515E-03 38620   0.168E-01    0.133E-01
DAV:   8    -0.132407115131E+04   -0.71434E-03   -0.37366E-04 34540   0.597E-02    0.543E-02
[...]
DAV:   3    -0.132410955861E+04   -0.47928E-02   -0.89012E-02 37230   0.614E-01    0.656E-01
DAV:   4    -0.132410897500E+04    0.58361E-03   -0.61797E-03 39050   0.171E-01    0.457E-01
DAV:   5    -0.132410845191E+04    0.52308E-03   -0.18341E-03 41330   0.155E-01    0.315E-01
DAV:   6    -0.132410763242E+04    0.81950E-03   -0.25628E-03 43150   0.177E-01    0.184E-01
DAV:   7    -0.132410807857E+04   -0.44615E-03   -0.10099E-03 38320   0.926E-02    0.559E-02
DAV:   8    -0.132410805962E+04    0.18947E-04   -0.10315E-04 27180   0.280E-02
 156 F= -.13241081E+04 E0= -.13241081E+04  d E =-.742476E-02  mag=   114.0000
       N       E                     dE             d eps       ncg     rms          rms(c)
DAV:   1    -0.132344567263E+04    0.66241E+00   -0.46513E+01 43830   0.243E+01    0.369E+00
DAV:   2    -0.132408894719E+04   -0.64327E+00   -0.64704E+00 35710   0.434E+00    0.187E+00
DAV:   3    -0.132409634235E+04   -0.73952E-02   -0.18226E-01 37040   0.857E-01    0.886E-01
DAV:   4    -0.132409495907E+04    0.13833E-02   -0.11387E-02 40760   0.207E-01    0.652E-01
DAV:   5    -0.132409239536E+04    0.25637E-02   -0.30730E-03 42260   0.222E-01    0.395E-01
DAV:   6    -0.132409223764E+04    0.15772E-03   -0.46234E-03 42080   0.225E-01    0.260E-01
DAV:   7    -0.132409177429E+04    0.46335E-03   -0.19809E-03 38140   0.137E-01    0.830E-02
DAV:   8    -0.132409220762E+04   -0.43333E-03   -0.18836E-04 33050   0.357E-02    0.462E-02
DAV:   9    -0.132409214190E+04    0.65720E-04   -0.26636E-05 19520   0.188E-02    0.314E-02
DAV:  10    -0.132409212016E+04    0.21741E-04   -0.16297E-05 18730   0.150E-02
 157 F= -.13240921E+04 E0= -.13240921E+04  d E =0.159395E-01  mag=   114.0000
       N       E                     dE             d eps       ncg     rms          rms(c)
DAV:   1    -0.131552005957E+04    0.85721E+01   -0.28364E+02 47710   0.782E+01    0.145E+01
DAV:   2    -0.132333059779E+04   -0.78105E+01   -0.69974E+01 37620   0.139E+01    0.969E+00
DAV:   3    -0.132357483490E+04   -0.24424E+00   -0.31084E+00 37220   0.446E+00    0.510E+00
DAV:   4    -0.132354769047E+04    0.27144E-01   -0.38465E-01 39480   0.188E+00    0.311E+00
DAV:   5    -0.132352525078E+04    0.22440E-01   -0.66942E-02 38880   0.794E-01    0.235E+00
DAV:   6    -0.132350889618E+04    0.16355E-01   -0.37956E-02 42870   0.700E-01    0.129E+00
DAV:   7    -0.132350512457E+04    0.37716E-02   -0.27195E-02 42170   0.547E-01    0.536E-01
DAV:   8    -0.132350696618E+04   -0.18416E-02   -0.92583E-03 37170   0.290E-01    0.274E-01
DAV:   9    -0.132350764709E+04   -0.68091E-03   -0.13067E-03 37280   0.108E-01    0.129E-01
DAV:  10    -0.132350708645E+04    0.56064E-03   -0.42955E-04 35190   0.596E-02    0.729E-02
DAV:  11    -0.132350731881E+04   -0.23235E-03   -0.73086E-05 24020   0.300E-02    0.362E-02
DAV:  12    -0.132350738474E+04   -0.65937E-04   -0.40059E-05 19720   0.189E-02    0.148E-02
DAV:  13    -0.132350731986E+04    0.64884E-04   -0.12012E-05 18670   0.831E-03    0.963E-03
DAV:  14    -0.132350730617E+04    0.13692E-04   -0.20299E-06 18380   0.340E-03
 158 F= -.13235073E+04 E0= -.13235073E+04  d E =0.584814E+00  mag=   114.0000
       N       E                     dE             d eps       ncg     rms          rms(c)
DAV:   1    -0.132179527157E+04    0.17120E+01   -0.71136E+01 50730   0.436E+01    0.735E+00
DAV:   2    -0.132395862221E+04   -0.21634E+01   -0.18652E+01 38330   0.706E+00    0.429E+00
DAV:   3    -0.132404060435E+04   -0.81982E-01   -0.73204E-01 37370   0.192E+00    0.201E+00
DAV:   4    -0.132404149936E+04   -0.89501E-03   -0.65365E-02 39210   0.682E-01    0.129E+00
DAV:   5    -0.132403659532E+04    0.49040E-02   -0.25510E-02 39580   0.487E-01    0.971E-01
DAV:   6    -0.132403363844E+04    0.29569E-02   -0.15767E-02 40990   0.426E-01    0.457E-01
DAV:   7    -0.132403241314E+04    0.12253E-02   -0.54065E-03 40470   0.213E-01    0.191E-01
DAV:   8    -0.132403383389E+04   -0.14208E-02   -0.16310E-03 37500   0.106E-01    0.122E-01
DAV:   9    -0.132403363323E+04    0.20066E-03   -0.27778E-04 35050   0.490E-02    0.643E-02
DAV:  10    -0.132403348044E+04    0.15279E-03   -0.62662E-05 23410   0.247E-02    0.417E-02
DAV:  11    -0.132403361462E+04   -0.13418E-03   -0.33855E-05 19510   0.168E-02    0.217E-02
DAV:  12    -0.132403361133E+04    0.32876E-05   -0.99370E-06 19100   0.801E-03
 159 F= -.13240336E+04 E0= -.13240336E+04  d E =-.526305E+00  mag=   114.0000
       N       E                     dE             d eps       ncg     rms          rms(c)
DAV:   1    -0.132373327808E+04    0.30034E+00   -0.10310E+01 49580   0.163E+01    0.270E+00
DAV:   2    -0.132406280576E+04   -0.32953E+00   -0.28990E+00 38190   0.272E+00    0.139E+00
DAV:   3    -0.132407387516E+04   -0.11069E-01   -0.10513E-01 36940   0.693E-01    0.741E-01
DAV:   4    -0.132407351808E+04    0.35709E-03   -0.65216E-03 39730   0.179E-01    0.470E-01
DAV:   5    -0.132407317406E+04    0.34401E-03   -0.19336E-03 41230   0.139E-01    0.316E-01
DAV:   6    -0.132407242701E+04    0.74705E-03   -0.16010E-03 43950   0.145E-01    0.172E-01
DAV:   7    -0.132407282204E+04   -0.39503E-03   -0.94615E-04 38800   0.896E-02    0.814E-02
DAV:   8    -0.132407267108E+04    0.15096E-03   -0.22041E-04 30370   0.460E-02    0.496E-02
DAV:   9    -0.132407272911E+04   -0.58030E-04   -0.45795E-05 20570   0.222E-02    0.235E-02
DAV:  10    -0.132407271001E+04    0.19106E-04   -0.86859E-06 18520   0.835E-03
 160 F= -.13240727E+04 E0= -.13240727E+04  d E =-.390987E-01  mag=   114.0000
       N       E                     dE             d eps       ncg     rms          rms(c)
DAV:   1    -0.132404450324E+04    0.28226E-01   -0.13832E+00 47170   0.534E+00    0.857E-01
DAV:   2    -0.132407749501E+04   -0.32992E-01   -0.30475E-01 36660   0.918E-01    0.422E-01
DAV:   3    -0.132407847013E+04   -0.97512E-03   -0.99033E-03 36960   0.225E-01    0.237E-01
DAV:   4    -0.132407816403E+04    0.30610E-03   -0.88092E-04 37530   0.764E-02    0.159E-01
DAV:   5    -0.132407825807E+04   -0.94038E-04   -0.15840E-04 26100   0.470E-02    0.116E-01
DAV:   6    -0.132407807988E+04    0.17819E-03   -0.23451E-04 32650   0.588E-02    0.480E-02
DAV:   7    -0.132407815879E+04   -0.78910E-04   -0.10685E-04 24350   0.277E-02    0.206E-02
DAV:   8    -0.132407814816E+04    0.10633E-04   -0.18089E-05 18280   0.122E-02
 161 F= -.13240781E+04 E0= -.13240781E+04  d E =-.543815E-02  mag=   114.0000
       N       E                     dE             d eps       ncg     rms          rms(c)
DAV:   1    -0.132376736501E+04    0.31079E+00   -0.14664E+01 46260   0.164E+01    0.260E+00
DAV:   2    -0.132407335720E+04   -0.30599E+00   -0.28617E+00 35950   0.283E+00    0.127E+00
DAV:   3    -0.132407943622E+04   -0.60790E-02   -0.87406E-02 36950   0.628E-01    0.651E-01
DAV:   4    -0.132407865688E+04    0.77933E-03   -0.70377E-03 39260   0.205E-01    0.469E-01
DAV:   5    -0.132407824427E+04    0.41261E-03   -0.15836E-03 40940   0.146E-01    0.341E-01
DAV:   6    -0.132407714029E+04    0.11040E-02   -0.20095E-03 43940   0.180E-01    0.145E-01
DAV:   7    -0.132407760879E+04   -0.46851E-03   -0.96526E-04 38450   0.806E-02    0.512E-02
DAV:   8    -0.132407747415E+04    0.13465E-03   -0.82915E-05 24570   0.250E-02    0.282E-02
DAV:   9    -0.132407746370E+04    0.10449E-04   -0.13710E-05 18720   0.964E-03
 162 F= -.13240775E+04 E0= -.13240775E+04  d E =0.684459E-03  mag=   114.0000
       N       E                     dE             d eps       ncg     rms          rms(c)
DAV:   1    -0.132405926390E+04    0.18210E-01   -0.70751E-01 45730   0.402E+00    0.646E-01
DAV:   2    -0.132407963092E+04   -0.20367E-01   -0.18420E-01 37460   0.692E-01    0.322E-01
DAV:   3    -0.132407986353E+04   -0.23260E-03   -0.54828E-03 37030   0.154E-01    0.163E-01
DAV:   4    -0.132407993370E+04   -0.70177E-04   -0.34137E-04 30440   0.379E-02    0.119E-01
DAV:   5    -0.132407979935E+04    0.13435E-03   -0.79372E-05 22610   0.367E-02    0.812E-02
DAV:   6    -0.132407987379E+04   -0.74436E-04   -0.14634E-04 26370   0.432E-02    0.476E-02
DAV:   7    -0.132407978756E+04    0.86227E-04   -0.75407E-05 20210   0.252E-02    0.160E-02
DAV:   8    -0.132407982842E+04   -0.40856E-04   -0.11845E-05 17930   0.966E-03
 163 F= -.13240798E+04 E0= -.13240798E+04  d E =-.236472E-02  mag=   114.0000
       N       E                     dE             d eps       ncg     rms          rms(c)
DAV:   1    -0.132317733036E+04    0.90246E+00   -0.35787E+01 44250   0.260E+01    0.424E+00
DAV:   2    -0.132403955533E+04   -0.86222E+00   -0.79726E+00 37370   0.457E+00    0.226E+00
DAV:   3    -0.132405168428E+04   -0.12129E-01   -0.22445E-01 36870   0.963E-01    0.107E+00
DAV:   4    -0.132405096583E+04    0.71845E-03   -0.14000E-02 41490   0.221E-01    0.786E-01
DAV:   5    -0.132404756533E+04    0.34005E-02   -0.26864E-03 43740   0.219E-01    0.448E-01
DAV:   6    -0.132404740635E+04    0.15898E-03   -0.40740E-03 42460   0.221E-01    0.256E-01
DAV:   7    -0.132404684021E+04    0.56615E-03   -0.21248E-03 38050   0.132E-01    0.961E-02
DAV:   8    -0.132404727863E+04   -0.43842E-03   -0.21759E-04 33640   0.438E-02    0.480E-02
DAV:   9    -0.132404725986E+04    0.18762E-04   -0.34479E-05 20930   0.188E-02
 164 F= -.13240473E+04 E0= -.13240473E+04  d E =0.325686E-01  mag=   114.0000
       N       E                     dE             d eps       ncg     rms          rms(c)
DAV:   1    -0.132333229085E+04    0.71499E+00   -0.34861E+01 42760   0.231E+01    0.381E+00
DAV:   2    -0.132399874061E+04   -0.66645E+00   -0.63321E+00 37470   0.419E+00    0.189E+00
DAV:   3    -0.132400905426E+04   -0.10314E-01   -0.18094E-01 36820   0.873E-01    0.934E-01
DAV:   4    -0.132400785764E+04    0.11966E-02   -0.12861E-02 40030   0.238E-01    0.697E-01
DAV:   5    -0.132400655278E+04    0.13049E-02   -0.30546E-03 41510   0.214E-01    0.482E-01
DAV:   6    -0.132400511424E+04    0.14385E-02   -0.46325E-03 43010   0.252E-01    0.253E-01
DAV:   7    -0.132400575229E+04   -0.63805E-03   -0.21152E-03 38480   0.133E-01    0.853E-02
DAV:   8    -0.132400565875E+04    0.93544E-04   -0.24980E-04 34740   0.442E-02    0.517E-02
DAV:   9    -0.132400557987E+04    0.78875E-04   -0.36142E-05 20310   0.201E-02    0.323E-02
DAV:  10    -0.132400562218E+04   -0.42310E-04   -0.15315E-05 19240   0.143E-02
 165 F= -.13240056E+04 E0= -.13240056E+04  d E =0.416377E-01  mag=   114.0000
       N       E                     dE             d eps       ncg     rms          rms(c)
DAV:   1    -0.132333788929E+04    0.66769E+00   -0.28574E+01 44200   0.219E+01    0.375E+00
DAV:   2    -0.132397137970E+04   -0.63349E+00   -0.58794E+00 36820   0.388E+00    0.192E+00
DAV:   3    -0.132398367700E+04   -0.12297E-01   -0.17602E-01 37030   0.849E-01    0.934E-01
DAV:   4    -0.132398274737E+04    0.92963E-03   -0.12690E-02 39760   0.250E-01    0.683E-01
DAV:   5    -0.132398152487E+04    0.12225E-02   -0.26481E-03 42680   0.201E-01    0.468E-01
DAV:   6    -0.132398005982E+04    0.14650E-02   -0.38937E-03 42770   0.239E-01    0.252E-01
DAV:   7    -0.132398063580E+04   -0.57598E-03   -0.18346E-03 38570   0.124E-01    0.746E-02
DAV:   8    -0.132398058033E+04    0.55469E-04   -0.19926E-04 34190   0.369E-02    0.424E-02
DAV:   9    -0.132398049889E+04    0.81441E-04   -0.25769E-05 19650   0.163E-02    0.288E-02
DAV:  10    -0.132398054602E+04   -0.47125E-04   -0.14647E-05 18870   0.135E-02
 166 F= -.13239805E+04 E0= -.13239805E+04  d E =0.250762E-01  mag=   114.0000
       N       E                     dE             d eps       ncg     rms          rms(c)
DAV:   1    -0.132349583662E+04    0.48466E+00   -0.24899E+01 44510   0.200E+01    0.315E+00
DAV:   2    -0.132397071515E+04   -0.47488E+00   -0.45119E+00 36930   0.355E+00    0.176E+00
DAV:   3    -0.132397977787E+04   -0.90627E-02   -0.15324E-01 36920   0.840E-01    0.927E-01
DAV:   4    -0.132397873453E+04    0.10433E-02   -0.96291E-03 40630   0.211E-01    0.603E-01
DAV:   5    -0.132397702941E+04    0.17051E-02   -0.22877E-03 41930   0.182E-01    0.367E-01
DAV:   6    -0.132397594274E+04    0.10867E-02   -0.25865E-03 42080   0.184E-01    0.196E-01
DAV:   7    -0.132397641100E+04   -0.46826E-03   -0.12359E-03 38980   0.100E-01    0.729E-02
DAV:   8    -0.132397630723E+04    0.10377E-03   -0.13909E-04 29990   0.360E-02    0.423E-02
DAV:   9    -0.132397629994E+04    0.72908E-05   -0.30466E-05 19710   0.179E-02
 167 F= -.13239763E+04 E0= -.13239763E+04  d E =0.424607E-02  mag=   114.0000
       N       E                     dE             d eps       ncg     rms          rms(c)
DAV:   1    -0.132379325589E+04    0.18305E+00   -0.80248E+00 47000   0.128E+01    0.209E+00
DAV:   2    -0.132399118607E+04   -0.19793E+00   -0.18017E+00 37370   0.221E+00    0.105E+00
DAV:   3    -0.132399480966E+04   -0.36236E-02   -0.55615E-02 36920   0.492E-01    0.540E-01
DAV:   4    -0.132399493028E+04   -0.12063E-03   -0.35423E-03 39230   0.114E-01    0.378E-01
DAV:   5    -0.132399405616E+04    0.87412E-03   -0.81170E-04 42690   0.112E-01    0.232E-01
DAV:   6    -0.132399410044E+04   -0.44276E-04   -0.10288E-03 43450   0.117E-01    0.128E-01
DAV:   7    -0.132399382223E+04    0.27821E-03   -0.49680E-04 37740   0.696E-02    0.508E-02
DAV:   8    -0.132399400465E+04   -0.18242E-03   -0.49668E-05 20880   0.235E-02    0.259E-02
DAV:   9    -0.132399401060E+04   -0.59505E-05   -0.12848E-05 18490   0.109E-02
 168 F= -.13239940E+04 E0= -.13239940E+04  d E =-.177107E-01  mag=   114.0000
       N       E                     dE             d eps       ncg     rms          rms(c)
DAV:   1    -0.132369376912E+04    0.30024E+00   -0.13250E+01 45630   0.153E+01    0.246E+00
DAV:   2    -0.132398068618E+04   -0.28692E+00   -0.26829E+00 36920   0.268E+00    0.124E+00
DAV:   3    -0.132398536699E+04   -0.46808E-02   -0.82991E-02 36830   0.581E-01    0.633E-01
DAV:   4    -0.132398514608E+04    0.22090E-03   -0.50721E-03 40100   0.142E-01    0.459E-01
DAV:   5    -0.132398381608E+04    0.13300E-02   -0.11889E-03 43190   0.140E-01    0.282E-01
DAV:   6    -0.132398366723E+04    0.14885E-03   -0.17285E-03 42790   0.154E-01    0.172E-01
DAV:   7    -0.132398332217E+04    0.34506E-03   -0.84047E-04 38410   0.928E-02    0.566E-02
DAV:   8    -0.132398349969E+04   -0.17752E-03   -0.81091E-05 25240   0.274E-02    0.295E-02
DAV:   9    -0.132398351344E+04   -0.13742E-04   -0.15899E-05 18730   0.112E-02
 169 F= -.13239835E+04 E0= -.13239835E+04  d E =0.104972E-01  mag=   114.0000
       N       E                     dE             d eps       ncg     rms          rms(c)
DAV:   1    -0.131935074150E+04    0.46328E+01   -0.13880E+02 48440   0.582E+01    0.108E+01
DAV:   2    -0.132361136997E+04   -0.42606E+01   -0.37594E+01 38000   0.998E+00    0.657E+00
DAV:   3    -0.132373455380E+04   -0.12318E+00   -0.12993E+00 37530   0.249E+00    0.289E+00
DAV:   4    -0.132373500955E+04   -0.45576E-03   -0.86223E-02 40350   0.677E-01    0.199E+00
DAV:   5    -0.132372421909E+04    0.10790E-01   -0.16571E-02 39390   0.412E-01    0.139E+00
DAV:   6    -0.132371913451E+04    0.50846E-02   -0.15225E-02 41720   0.512E-01    0.803E-01
DAV:   7    -0.132371802777E+04    0.11067E-02   -0.11702E-02 40170   0.352E-01    0.296E-01
DAV:   8    -0.132372009874E+04   -0.20710E-02   -0.31334E-03 37920   0.166E-01    0.155E-01
DAV:   9    -0.132371976802E+04    0.33072E-03   -0.63004E-04 36970   0.794E-02    0.987E-02
DAV:  10    -0.132371953659E+04    0.23142E-03   -0.15278E-04 29670   0.403E-02    0.574E-02
DAV:  11    -0.132371968198E+04   -0.14538E-03   -0.42250E-05 22480   0.192E-02    0.257E-02
DAV:  12    -0.132371972531E+04   -0.43338E-04   -0.19131E-05 18780   0.122E-02
 170 F= -.13237197E+04 E0= -.13237197E+04  d E =0.263788E+00  mag=   114.0000
       N       E                     dE             d eps       ncg     rms          rms(c)
DAV:   1    -0.132270204179E+04    0.10176E+01   -0.42609E+01 49780   0.329E+01    0.556E+00
DAV:   2    -0.132396077340E+04   -0.12587E+01   -0.11110E+01 38100   0.559E+00    0.315E+00
DAV:   3    -0.132400698648E+04   -0.46213E-01   -0.49474E-01 37880   0.148E+00    0.160E+00
DAV:   4    -0.132400522552E+04    0.17610E-02   -0.28786E-02 40560   0.431E-01    0.941E-01
DAV:   5    -0.132400090727E+04    0.43182E-02   -0.97676E-03 40070   0.318E-01    0.651E-01
DAV:   6    -0.132399833033E+04    0.25769E-02   -0.10722E-02 39780   0.386E-01    0.472E-01
DAV:   7    -0.132399842786E+04   -0.97525E-04   -0.50694E-03 39780   0.234E-01    0.140E-01
DAV:   8    -0.132399840057E+04    0.27283E-04   -0.13193E-03 38470   0.103E-01    0.946E-02
DAV:   9    -0.132399847199E+04   -0.71414E-04   -0.29152E-04 35120   0.453E-02    0.775E-02
DAV:  10    -0.132399833725E+04    0.13474E-03   -0.37390E-05 21060   0.205E-02    0.431E-02
DAV:  11    -0.132399845508E+04   -0.11783E-03   -0.29592E-05 22880   0.199E-02    0.207E-02
DAV:  12    -0.132399845676E+04   -0.16889E-05   -0.16529E-05 18770   0.111E-02
 171 F= -.13239985E+04 E0= -.13239985E+04  d E =-.278731E+00  mag=   114.0000
       N       E                     dE             d eps       ncg     rms          rms(c)
DAV:   1    -0.132390943827E+04    0.89017E-01   -0.31189E+00 49290   0.931E+00    0.159E+00
DAV:   2    -0.132401824503E+04   -0.10881E+00   -0.93911E-01 37350   0.155E+00    0.774E-01
DAV:   3    -0.132402147619E+04   -0.32312E-02   -0.34504E-02 37660   0.378E-01    0.387E-01
DAV:   4    -0.132402150157E+04   -0.25376E-04   -0.21519E-03 39870   0.959E-02    0.266E-01
DAV:   5    -0.132402123863E+04    0.26294E-03   -0.44032E-04 37880   0.753E-02    0.182E-01
DAV:   6    -0.132402099338E+04    0.24525E-03   -0.59444E-04 40870   0.954E-02    0.105E-01
DAV:   7    -0.132402113192E+04   -0.13853E-03   -0.30281E-04 36700   0.541E-02    0.352E-02
DAV:   8    -0.132402104367E+04    0.88247E-04   -0.45773E-05 20400   0.218E-02    0.213E-02
DAV:   9    -0.132402107537E+04   -0.31704E-04   -0.13082E-05 18680   0.103E-02
 172 F= -.13240211E+04 E0= -.13240211E+04  d E =-.226186E-01  mag=   114.0000
       N       E                     dE             d eps       ncg     rms          rms(c)
DAV:   1    -0.132395390346E+04    0.67140E-01   -0.21856E+00 49260   0.765E+00    0.132E+00
DAV:   2    -0.132402921692E+04   -0.75313E-01   -0.65243E-01 36660   0.127E+00    0.631E-01
DAV:   3    -0.132403137250E+04   -0.21556E-02   -0.24345E-02 37310   0.304E-01    0.312E-01
DAV:   4    -0.132403148245E+04   -0.10994E-03   -0.15374E-03 38410   0.661E-02    0.219E-01
DAV:   5    -0.132403119322E+04    0.28923E-03   -0.18101E-04 32490   0.535E-02    0.137E-01
DAV:   6    -0.132403120752E+04   -0.14302E-04   -0.26364E-04 39710   0.615E-02
 173 F= -.13240312E+04 E0= -.13240312E+04  d E =-.101321E-01  mag=   114.0000
       N       E                     dE             d eps       ncg     rms          rms(c)
DAV:   1    -0.132393030379E+04    0.10089E+00   -0.30649E+00 48460   0.857E+00    0.148E+00
DAV:   2    -0.132402853712E+04   -0.98233E-01   -0.86802E-01 37160   0.145E+00    0.738E-01
DAV:   3    -0.132403063118E+04   -0.20941E-02   -0.29519E-02 37390   0.342E-01    0.374E-01
DAV:   4    -0.132403072596E+04   -0.94783E-04   -0.18760E-03 38620   0.792E-02    0.264E-01
DAV:   5    -0.132403028349E+04    0.44247E-03   -0.23178E-04 33310   0.646E-02    0.174E-01
DAV:   6    -0.132403028984E+04   -0.63459E-05   -0.43864E-04 42180   0.812E-02
 174 F= -.13240303E+04 E0= -.13240303E+04  d E =0.917678E-03  mag=   114.0000
       N       E                     dE             d eps       ncg     rms          rms(c)
DAV:   1    -0.132376344315E+04    0.26684E+00   -0.96633E+00 46690   0.139E+01    0.231E+00
DAV:   2    -0.132400669675E+04   -0.24325E+00   -0.22316E+00 37070   0.241E+00    0.114E+00
DAV:   3    -0.132401143268E+04   -0.47359E-02   -0.70026E-02 37180   0.548E-01    0.594E-01
DAV:   4    -0.132401145868E+04   -0.26002E-04   -0.45979E-03 39490   0.139E-01    0.425E-01
