       N       E                     dE             d eps       ncg     rms          rms(c)
DAV:   1     0.112331644560E+05    0.11233E+05   -0.43023E+05 34700   0.160E+03
DAV:   2     0.218787610253E+02   -0.11211E+05   -0.10200E+05 34170   0.487E+02
DAV:   3    -0.160882121092E+04   -0.16307E+04   -0.15458E+04 36440   0.198E+02
DAV:   4    -0.169240960426E+04   -0.83588E+02   -0.82378E+02 39340   0.456E+01
DAV:   5    -0.169347643086E+04   -0.10668E+01   -0.10636E+01 37610   0.557E+00    0.146E+02
DAV:   6    -0.128402541355E+04    0.40945E+03   -0.81013E+02 41290   0.760E+01    0.119E+02
DAV:   7    -0.133370153496E+04   -0.49676E+02   -0.36060E+02 36970   0.644E+01    0.873E+01
DAV:   8    -0.130956850681E+04    0.24133E+02   -0.49783E+01 38810   0.226E+01    0.682E+01
DAV:   9    -0.131638301348E+04   -0.68145E+01   -0.52760E+01 36930   0.309E+01    0.646E+01
DAV:  10    -0.132118963518E+04   -0.48066E+01   -0.29320E+01 37920   0.167E+01    0.419E+01
DAV:  11    -0.131950327700E+04    0.16864E+01   -0.83802E+00 36800   0.107E+01    0.235E+01
DAV:  12    -0.132035922924E+04   -0.85595E+00   -0.50768E+00 40360   0.647E+00    0.241E+01
DAV:  13    -0.132132132033E+04   -0.96209E+00   -0.22674E+01 36980   0.490E+00    0.245E+01
DAV:  14    -0.132076441124E+04    0.55691E+00   -0.10192E+00 36530   0.334E+00    0.174E+01
DAV:  15    -0.132126416813E+04   -0.49976E+00   -0.31627E-01 36450   0.884E-01    0.204E+01
DAV:  16    -0.132131518869E+04   -0.51021E-01   -0.58467E-01 35880   0.126E+00    0.247E+01
DAV:  17    -0.132055903077E+04    0.75616E+00   -0.31007E-01 39710   0.135E+00    0.213E+01
DAV:  18    -0.132093129062E+04   -0.37226E+00   -0.10122E+00 36610   0.119E+00    0.226E+01
DAV:  19    -0.132103773598E+04   -0.10645E+00   -0.61914E-01 39500   0.158E+00    0.146E+01
DAV:  20    -0.132175630603E+04   -0.71857E+00   -0.39083E-01 37100   0.170E+00    0.983E+00
DAV:  21    -0.132223825168E+04   -0.48195E+00   -0.48325E-01 37150   0.174E+00    0.829E+00
DAV:  22    -0.132217148404E+04    0.66768E-01   -0.36023E-01 40720   0.954E-01    0.891E+00
DAV:  23    -0.132234891792E+04   -0.17743E+00   -0.14406E+00 36230   0.809E-01    0.125E+01
DAV:  24    -0.132252731636E+04   -0.17840E+00   -0.20874E-01 36620   0.777E-01    0.152E+01
DAV:  25    -0.132263346790E+04   -0.10615E+00   -0.69512E-02 38870   0.761E-01    0.154E+01
DAV:  26    -0.132264681691E+04   -0.13349E-01   -0.18197E-02 42980   0.485E-01    0.154E+01
DAV:  27    -0.132279292892E+04   -0.14611E+00   -0.41071E-02 43550   0.136E+00    0.169E+01
DAV:  28    -0.132314925551E+04   -0.35633E+00   -0.13612E-01 36200   0.755E-01    0.207E+01
DAV:  29    -0.132338184077E+04   -0.23259E+00   -0.20856E-01 34930   0.819E-01    0.218E+01
DAV:  30    -0.132349530640E+04   -0.11347E+00   -0.32610E-02 37280   0.367E-01    0.249E+01
DAV:  31    -0.132371877231E+04   -0.22347E+00   -0.95348E-02 35160   0.712E-01    0.277E+01
DAV:  32    -0.132383658453E+04   -0.11781E+00   -0.98997E-02 34850   0.556E-01    0.281E+01
DAV:  33    -0.132380509254E+04    0.31492E-01   -0.31910E-02 36790   0.407E-01    0.281E+01
DAV:  34    -0.132369927997E+04    0.10581E+00   -0.99431E-03 45020   0.395E-01    0.278E+01
DAV:  35    -0.132320596153E+04    0.49332E+00   -0.25260E-02 42600   0.115E+00    0.268E+01
DAV:  36    -0.132202661168E+04    0.11793E+01   -0.15112E-01 42990   0.253E+00    0.243E+01
DAV:  37    -0.132105854167E+04    0.96807E+00   -0.72300E-01 45880   0.222E+00    0.169E+01
DAV:  38    -0.132146385879E+04   -0.40532E+00   -0.12912E+00 36790   0.138E+00    0.121E+01
DAV:  39    -0.132200327883E+04   -0.53942E+00   -0.38423E-01 35980   0.115E+00    0.126E+01
DAV:  40    -0.132208428617E+04   -0.81007E-01   -0.44888E-02 37840   0.532E-01    0.127E+01
DAV:  41    -0.132210259373E+04   -0.18308E-01   -0.10661E-02 38230   0.192E-01    0.128E+01
DAV:  42    -0.132211065203E+04   -0.80583E-02   -0.41115E-03 36900   0.101E-01    0.128E+01
DAV:  43    -0.132211188470E+04   -0.12327E-02   -0.95262E-04 33690   0.450E-02    0.128E+01
DAV:  44    -0.132211554466E+04   -0.36600E-02   -0.30192E-04 29890   0.434E-02    0.128E+01
DAV:  45    -0.132211556513E+04   -0.20470E-04   -0.92612E-05 23330   0.157E-02
   1 F= -.13221156E+04 E0= -.13221151E+04  d E =-.132212E+04  mag=   119.5923
       N       E                     dE             d eps       ncg     rms          rms(c)
DAV:   1    -0.132213643101E+04   -0.20886E-01   -0.73894E-02 42800   0.931E-01    0.128E+01
DAV:   2    -0.132870271856E+04   -0.65663E+01   -0.19848E+01 39110   0.126E+01    0.500E+01
DAV:   3    -0.131949991584E+04    0.92028E+01   -0.17665E+01 36960   0.134E+01    0.172E+01
DAV:   4    -0.132123606588E+04   -0.17362E+01   -0.33877E+00 37960   0.498E+00    0.105E+01
DAV:   5    -0.132162905035E+04   -0.39298E+00   -0.94332E-01 37520   0.211E+00    0.843E+00
DAV:   6    -0.132177539011E+04   -0.14634E+00   -0.30780E-01 36920   0.710E-01    0.851E+00
DAV:   7    -0.132182770359E+04   -0.52313E-01   -0.64386E-02 40740   0.737E-01    0.797E+00
DAV:   8    -0.132188964135E+04   -0.61938E-01   -0.16344E-01 42670   0.170E+00    0.720E+00
DAV:   9    -0.132196656142E+04   -0.76920E-01   -0.30864E-01 43630   0.163E+00    0.828E+00
DAV:  10    -0.132204558858E+04   -0.79027E-01   -0.23791E-01 37360   0.673E-01    0.116E+01
DAV:  11    -0.132237621282E+04   -0.33062E+00   -0.23303E-01 35070   0.669E-01    0.167E+01
DAV:  12    -0.132269327181E+04   -0.31706E+00   -0.19418E-01 34750   0.905E-01    0.175E+01
DAV:  13    -0.132269623949E+04   -0.29677E-02   -0.21687E-02 35210   0.404E-01    0.179E+01
DAV:  14    -0.132255435289E+04    0.14189E+00   -0.13383E-02 39670   0.602E-01    0.178E+01
DAV:  15    -0.132271067839E+04   -0.15633E+00   -0.18584E-02 41210   0.946E-01    0.185E+01
DAV:  16    -0.132284157715E+04   -0.13090E+00   -0.31248E-02 46390   0.704E-01    0.191E+01
DAV:  17    -0.132280184229E+04    0.39735E-01   -0.30782E-02 40600   0.933E-01    0.182E+01
DAV:  18    -0.132280965472E+04   -0.78124E-02   -0.34575E-01 45010   0.333E+00    0.171E+01
DAV:  19    -0.132342244430E+04   -0.61279E+00   -0.56800E-01 36240   0.148E+00    0.173E+01
DAV:  20    -0.132349952861E+04   -0.77084E-01   -0.37729E-02 36540   0.402E-01    0.171E+01
DAV:  21    -0.132348949202E+04    0.10037E-01   -0.19161E-02 44040   0.671E-01    0.169E+01
DAV:  22    -0.132372285708E+04   -0.23337E+00   -0.59702E-02 43250   0.866E-01    0.163E+01
DAV:  23    -0.132399900336E+04   -0.27615E+00   -0.13671E-01 43760   0.177E+00    0.158E+01
DAV:  24    -0.132394591152E+04    0.53092E-01   -0.44993E-01 45680   0.180E+00    0.154E+01
DAV:  25    -0.132410607915E+04   -0.16017E+00   -0.36537E-01 38130   0.181E+00    0.158E+01
DAV:  26    -0.132422938919E+04   -0.12331E+00   -0.75494E-02 35300   0.628E-01    0.163E+01
DAV:  27    -0.132421419694E+04    0.15192E-01   -0.81665E-03 39000   0.323E-01    0.161E+01
DAV:  28    -0.132420732858E+04    0.68684E-02   -0.77272E-03 46000   0.431E-01    0.157E+01
DAV:  29    -0.132407496371E+04    0.13236E+00   -0.11801E+00 45270   0.257E+00    0.155E+01
DAV:  30    -0.132434186319E+04   -0.26690E+00   -0.11347E+00 36080   0.137E+00    0.162E+01
DAV:  31    -0.132416597369E+04    0.17589E+00   -0.70378E-02 38600   0.957E-01    0.155E+01
DAV:  32    -0.132402080356E+04    0.14517E+00   -0.49407E-02 45400   0.957E-01    0.149E+01
DAV:  33    -0.132386673594E+04    0.15407E+00   -0.33421E-02 46520   0.811E-01    0.143E+01
DAV:  34    -0.132370952405E+04    0.15721E+00   -0.20934E-02 46220   0.765E-01    0.137E+01
DAV:  35    -0.132345179101E+04    0.25773E+00   -0.82888E-02 44070   0.153E+00    0.118E+01
DAV:  36    -0.132345619227E+04   -0.44013E-02   -0.14062E+00 40680   0.108E+00    0.143E+01
DAV:  37    -0.132355628593E+04   -0.10009E+00   -0.13837E-01 37550   0.145E+00    0.137E+01
DAV:  38    -0.132351889753E+04    0.37388E-01   -0.34320E-02 39990   0.401E-01    0.135E+01
DAV:  39    -0.132345083433E+04    0.68063E-01   -0.38435E-03 43660   0.309E-01    0.131E+01
DAV:  40    -0.132327456580E+04    0.17627E+00   -0.27205E-02 46220   0.906E-01    0.120E+01
DAV:  41    -0.132313041601E+04    0.14415E+00   -0.17803E-01 46790   0.102E+00    0.948E+00
DAV:  42    -0.132330738141E+04   -0.17697E+00   -0.11130E+00 35470   0.636E-01    0.131E+01
DAV:  43    -0.132348685551E+04   -0.17947E+00   -0.11256E-01 34930   0.762E-01    0.138E+01
DAV:  44    -0.132352044840E+04   -0.33593E-01   -0.14614E-02 35930   0.221E-01    0.139E+01
DAV:  45    -0.132352711461E+04   -0.66662E-02   -0.13664E-03 34180   0.597E-02    0.140E+01
DAV:  46    -0.132352777521E+04   -0.66060E-03   -0.13446E-04 31020   0.473E-02    0.140E+01
DAV:  47    -0.132354711296E+04   -0.19338E-01   -0.17376E-02 45300   0.938E-01    0.145E+01
DAV:  48    -0.132352876991E+04    0.18343E-01   -0.12975E-02 36570   0.249E-01    0.143E+01
DAV:  49    -0.132351776672E+04    0.11003E-01   -0.12118E-03 42620   0.134E-01    0.142E+01
DAV:  50    -0.132353588539E+04   -0.18119E-01   -0.33757E-03 39680   0.404E-01    0.141E+01
DAV:  51    -0.132357580846E+04   -0.39923E-01   -0.87289E-03 44170   0.620E-01    0.143E+01
DAV:  52    -0.132506742397E+04   -0.14916E+01   -0.27507E+00 43450   0.115E+01    0.273E+01
DAV:  53    -0.132646046167E+04   -0.13930E+01   -0.27194E+00 37420   0.268E+00    0.284E+01
DAV:  54    -0.132661127183E+04   -0.15081E+00   -0.11115E-01 37370   0.529E-01    0.287E+01
DAV:  55    -0.132687540303E+04   -0.26413E+00   -0.12060E-02 43110   0.482E-01    0.294E+01
DAV:  56    -0.132688218934E+04   -0.67863E-02   -0.97553E-03 36380   0.136E-01    0.294E+01
DAV:  57    -0.133153002591E+04   -0.46478E+01   -0.72751E+00 46460   0.168E+01    0.541E+01
DAV:  58    -0.133539500236E+04   -0.38650E+01   -0.75339E+00 37660   0.480E+00    0.581E+01
DAV:  59    -0.133618007874E+04   -0.78508E+00   -0.56103E-01 37600   0.134E+00    0.618E+01
DAV:  60    -0.133662099967E+04   -0.44092E+00   -0.10707E-01 38640   0.819E-01    0.654E+01
DAV:  61    -0.133681976744E+04   -0.19877E+00   -0.89159E-02 36280   0.614E-01    0.665E+01
DAV:  62    -0.133385461867E+04    0.29651E+01   -0.72740E-01 41920   0.456E+00    0.585E+01
DAV:  63    -0.133419838094E+04   -0.34376E+00   -0.61828E-01 36560   0.142E+00    0.559E+01
DAV:  64    -0.133454841943E+04   -0.35004E+00   -0.34240E-01 35620   0.133E+00    0.550E+01
DAV:  65    -0.133447570489E+04    0.72715E-01   -0.12568E-01 35960   0.113E+00    0.545E+01
DAV:  66    -0.133466328422E+04   -0.18758E+00   -0.28392E-02 36010   0.433E-01    0.546E+01
DAV:  67    -0.133383375488E+04    0.82953E+00   -0.39057E-02 42310   0.111E+00    0.538E+01
DAV:  68    -0.133433927416E+04   -0.50552E+00   -0.67289E-02 46140   0.111E+00    0.539E+01
DAV:  69    -0.133501626849E+04   -0.67699E+00   -0.29055E-01 46520   0.129E+00    0.549E+01
DAV:  70    -0.133516041590E+04   -0.14415E+00   -0.85246E-01 36730   0.833E-01    0.574E+01
DAV:  71    -0.133585404900E+04   -0.69363E+00   -0.90465E-02 36370   0.938E-01    0.593E+01
DAV:  72    -0.133538999802E+04    0.46405E+00   -0.43187E-01 38400   0.381E+00    0.591E+01
DAV:  73    -0.133314382032E+04    0.22462E+01   -0.23707E-01 42570   0.172E+00    0.566E+01
DAV:  74    -0.133386847746E+04   -0.72466E+00   -0.20658E-01 36660   0.110E+00    0.564E+01
DAV:  75    -0.133432972941E+04   -0.46125E+00   -0.14532E-01 39780   0.103E+00    0.564E+01
DAV:  76    -0.133434596500E+04   -0.16236E-01   -0.30286E-02 42000   0.485E-01    0.561E+01
DAV:  77    -0.133498319066E+04   -0.63723E+00   -0.14397E-01 41590   0.199E+00    0.562E+01
DAV:  78    -0.133499365759E+04   -0.10467E-01   -0.77857E-02 37760   0.577E-01    0.562E+01
DAV:  79    -0.133514920894E+04   -0.15555E+00   -0.17160E-02 37400   0.346E-01    0.561E+01
DAV:  80    -0.133515864021E+04   -0.94313E-02   -0.47428E-01 37670   0.346E-01    0.561E+01
DAV:  81    -0.133555960742E+04   -0.40097E+00   -0.24231E-01 38320   0.114E+00    0.565E+01
DAV:  82    -0.133233563454E+04    0.32240E+01   -0.15974E-01 39200   0.230E+00    0.550E+01
DAV:  83    -0.133205442808E+04    0.28121E+00   -0.66090E-02 37760   0.460E-01    0.549E+01
DAV:  84    -0.133196712103E+04    0.87307E-01   -0.41052E-03 38280   0.113E-01    0.549E+01
DAV:  85    -0.133209980891E+04   -0.13269E+00   -0.17907E-03 37230   0.218E-01    0.550E+01
DAV:  86    -0.133121403165E+04    0.88578E+00   -0.19299E-02 39760   0.868E-01    0.546E+01
DAV:  87    -0.132386840720E+04    0.73456E+01   -0.25703E+00 41010   0.628E+00    0.417E+01
DAV:  88    -0.132391218203E+04   -0.43775E-01   -0.12710E+00 37970   0.225E+00    0.392E+01
DAV:  89    -0.132386601089E+04    0.46171E-01   -0.51543E-01 40270   0.128E+00    0.338E+01
DAV:  90    -0.132353503443E+04    0.33098E+00   -0.10934E+00 39580   0.195E+00    0.282E+01
DAV:  91    -0.132395855906E+04   -0.42352E+00   -0.24870E-01 37330   0.156E+00    0.274E+01
DAV:  92    -0.132336856207E+04    0.59000E+00   -0.13830E+00 45810   0.484E+00    0.169E+01
DAV:  93    -0.132342114661E+04   -0.52585E-01   -0.18580E+00 38110   0.314E+00    0.134E+01
DAV:  94    -0.132353025052E+04   -0.10910E+00   -0.51178E-01 41310   0.190E+00    0.818E+00
DAV:  95    -0.132397413935E+04   -0.44389E+00   -0.52455E-01 37240   0.245E+00    0.631E+00
DAV:  96    -0.132397486432E+04   -0.72496E-03   -0.10355E-01 40360   0.808E-01    0.584E+00
DAV:  97    -0.132394459203E+04    0.30272E-01   -0.14657E-01 45690   0.201E+00    0.431E+00
DAV:  98    -0.132394135974E+04    0.32323E-02   -0.82649E-02 37100   0.836E-01    0.405E+00
DAV:  99    -0.132393475680E+04    0.66029E-02   -0.14268E-02 45320   0.549E-01    0.411E+00
DAV: 100    -0.132393658916E+04   -0.18324E-02   -0.88985E-03 42660   0.354E-01    0.410E+00
DAV: 101    -0.132393901559E+04   -0.24264E-02   -0.45299E-03 44670   0.300E-01    0.427E+00
DAV: 102    -0.132393984263E+04   -0.82704E-03   -0.96539E-03 39010   0.609E-01    0.392E+00
DAV: 103    -0.132394502268E+04   -0.51800E-02   -0.49574E-03 45370   0.263E-01    0.376E+00
DAV: 104    -0.132394995500E+04   -0.49323E-02   -0.25859E-03 47400   0.220E-01    0.366E+00
DAV: 105    -0.132395433482E+04   -0.43798E-02   -0.19381E-03 44610   0.237E-01    0.357E+00
DAV: 106    -0.132395868836E+04   -0.43535E-02   -0.27388E-03 39690   0.227E-01    0.337E+00
DAV: 107    -0.132397240369E+04   -0.13715E-01   -0.24485E-02 42610   0.889E-01    0.253E+00
DAV: 108    -0.132396988306E+04    0.25206E-02   -0.13273E-02 37030   0.393E-01    0.217E+00
DAV: 109    -0.132396901890E+04    0.86416E-03   -0.31717E-03 44090   0.303E-01    0.186E+00
DAV: 110    -0.132396827261E+04    0.74629E-03   -0.31291E-03 46590   0.241E-01    0.161E+00
DAV: 111    -0.132396760486E+04    0.66776E-03   -0.17528E-03 48020   0.193E-01    0.139E+00
DAV: 112    -0.132396626721E+04    0.13376E-02   -0.32759E-03 44510   0.387E-01    0.108E+00
DAV: 113    -0.132396603060E+04    0.23661E-03   -0.23732E-03 37610   0.102E-01    0.103E+00
DAV: 114    -0.132396587176E+04    0.15884E-03   -0.23996E-04 37880   0.619E-02    0.969E-01
DAV: 115    -0.132396530450E+04    0.56725E-03   -0.17113E-04 34890   0.598E-02    0.911E-01
DAV: 116    -0.132396470260E+04    0.60190E-03   -0.11453E-04 30160   0.612E-02    0.865E-01
DAV: 117    -0.132396007701E+04    0.46256E-02   -0.10546E-02 40390   0.715E-01    0.669E-01
DAV: 118    -0.132396051772E+04   -0.44071E-03   -0.43198E-03 37440   0.176E-01    0.552E-01
DAV: 119    -0.132396063490E+04   -0.11718E-03   -0.53955E-04 40750   0.847E-02    0.501E-01
DAV: 120    -0.132396041489E+04    0.22001E-03   -0.18738E-04 36260   0.423E-02    0.464E-01
DAV: 121    -0.132396023344E+04    0.18145E-03   -0.60640E-05 24760   0.480E-02    0.425E-01
DAV: 122    -0.132395966300E+04    0.57044E-03   -0.25612E-04 36190   0.972E-02    0.360E-01
DAV: 123    -0.132395964025E+04    0.22758E-04   -0.11452E-04 28610   0.322E-02
   2 F= -.13239596E+04 E0= -.13239596E+04  d E =-.184408E+01  mag=   119.9501
       N       E                     dE             d eps       ncg     rms          rms(c)
DAV:   1    -0.132396108721E+04   -0.14242E-02   -0.48282E-03 46250   0.343E-01    0.325E-01
DAV:   2    -0.132396024644E+04    0.84077E-03   -0.49752E-03 40620   0.443E-01    0.352E-01
DAV:   3    -0.132396053146E+04   -0.28502E-03   -0.12591E-03 39590   0.115E-01    0.119E-01
DAV:   4    -0.132396055905E+04   -0.27593E-04   -0.20355E-04 36410   0.479E-02
   3 F= -.13239606E+04 E0= -.13239606E+04  d E =-.918806E-03  mag=   119.9905
       N       E                     dE             d eps       ncg     rms          rms(c)
DAV:   1    -0.132143391919E+04    0.25266E+01   -0.86213E+01 46730   0.411E+01    0.792E+00
DAV:   2    -0.132376018390E+04   -0.23263E+01   -0.21091E+01 38260   0.767E+00    0.488E+00
DAV:   3    -0.132382568617E+04   -0.65502E-01   -0.82701E-01 37290   0.209E+00    0.263E+00
DAV:   4    -0.132382251897E+04    0.31672E-02   -0.53394E-02 40390   0.532E-01    0.166E+00
DAV:   5    -0.132381580157E+04    0.67174E-02   -0.11329E-02 40370   0.337E-01    0.117E+00
DAV:   6    -0.132381054916E+04    0.52524E-02   -0.13436E-02 39970   0.443E-01    0.647E-01
DAV:   7    -0.132381130994E+04   -0.76078E-03   -0.91188E-03 40260   0.279E-01    0.216E-01
DAV:   8    -0.132381154918E+04   -0.23924E-03   -0.19994E-03 37540   0.131E-01    0.120E-01
DAV:   9    -0.132381149008E+04    0.59103E-04   -0.29868E-04 35430   0.416E-02    0.720E-02
DAV:  10    -0.132381138589E+04    0.10419E-03   -0.53508E-05 22230   0.229E-02    0.441E-02
DAV:  11    -0.132381146877E+04   -0.82877E-04   -0.31685E-05 21390   0.199E-02    0.234E-02
DAV:  12    -0.132381144613E+04    0.22631E-04   -0.15642E-05 18740   0.839E-03
   4 F= -.13238114E+04 E0= -.13238114E+04  d E =0.149113E+00  mag=   120.0000
       N       E                     dE             d eps       ncg     rms          rms(c)
DAV:   1    -0.132336527111E+04    0.44620E+00   -0.24189E+01 48040   0.221E+01    0.389E+00
DAV:   2    -0.132397382495E+04   -0.60855E+00   -0.55951E+00 38320   0.408E+00    0.243E+00
DAV:   3    -0.132399691826E+04   -0.23093E-01   -0.28207E-01 37280   0.118E+00    0.146E+00
DAV:   4    -0.132399586620E+04    0.10521E-02   -0.15906E-02 40130   0.307E-01    0.824E-01
DAV:   5    -0.132399225591E+04    0.36103E-02   -0.49083E-03 40560   0.216E-01    0.545E-01
DAV:   6    -0.132399109998E+04    0.11559E-02   -0.53565E-03 39480   0.252E-01    0.320E-01
DAV:   7    -0.132399062676E+04    0.47322E-03   -0.30102E-03 39340   0.148E-01    0.124E-01
DAV:   8    -0.132399089449E+04   -0.26773E-03   -0.63016E-04 36720   0.785E-02    0.760E-02
DAV:   9    -0.132399081455E+04    0.79937E-04   -0.95230E-05 24770   0.272E-02    0.439E-02
DAV:  10    -0.132399082061E+04   -0.60556E-05   -0.31446E-05 19670   0.159E-02
   5 F= -.13239908E+04 E0= -.13239908E+04  d E =-.179374E+00  mag=   120.0000
       N       E                     dE             d eps       ncg     rms          rms(c)
DAV:   1    -0.132393282926E+04    0.57985E-01   -0.29055E+00 46220   0.742E+00    0.135E+00
DAV:   2    -0.132400501603E+04   -0.72187E-01   -0.67759E-01 38610   0.142E+00    0.816E-01
DAV:   3    -0.132400744079E+04   -0.24248E-02   -0.32472E-02 37130   0.407E-01    0.511E-01
DAV:   4    -0.132400731940E+04    0.12139E-03   -0.17691E-03 39950   0.961E-02    0.299E-01
DAV:   5    -0.132400675668E+04    0.56272E-03   -0.52669E-04 37550   0.727E-02    0.193E-01
DAV:   6    -0.132400668040E+04    0.76278E-04   -0.66793E-04 40190   0.886E-02    0.103E-01
DAV:   7    -0.132400651655E+04    0.16385E-03   -0.36753E-04 38660   0.496E-02    0.437E-02
DAV:   8    -0.132400658156E+04   -0.65013E-04   -0.57117E-05 21200   0.271E-02    0.274E-02
DAV:   9    -0.132400655934E+04    0.22224E-04   -0.18634E-05 18800   0.109E-02
   6 F= -.13240066E+04 E0= -.13240066E+04  d E =-.157387E-01  mag=   120.0000
       N       E                     dE             d eps       ncg     rms          rms(c)
DAV:   1    -0.132383409082E+04    0.17249E+00   -0.10730E+01 41400   0.111E+01    0.200E+00
DAV:   2    -0.132398870563E+04   -0.15461E+00   -0.15702E+00 38150   0.225E+00    0.135E+00
DAV:   3    -0.132399263820E+04   -0.39326E-02   -0.74261E-02 37130   0.625E-01    0.850E-01
DAV:   4    -0.132399195140E+04    0.68680E-03   -0.38960E-03 40490   0.135E-01    0.506E-01
DAV:   5    -0.132399048979E+04    0.14616E-02   -0.17333E-03 41840   0.136E-01    0.280E-01
DAV:   6    -0.132399053405E+04   -0.44261E-04   -0.18228E-03 39820   0.126E-01    0.162E-01
DAV:   7    -0.132399028749E+04    0.24656E-03   -0.78701E-04 38040   0.704E-02    0.677E-02
DAV:   8    -0.132399035510E+04   -0.67617E-04   -0.10750E-04 25710   0.383E-02    0.427E-02
DAV:   9    -0.132399030106E+04    0.54043E-04   -0.34388E-05 19430   0.168E-02    0.279E-02
DAV:  10    -0.132399032429E+04   -0.23229E-04   -0.96984E-06 18700   0.971E-03
   7 F= -.13239903E+04 E0= -.13239903E+04  d E =0.162351E-01  mag=   120.0000
       N       E                     dE             d eps       ncg     rms          rms(c)
DAV:   1    -0.130914565534E+04    0.14845E+02   -0.39533E+02 49760   0.964E+01    0.210E+01
DAV:   2    -0.132200714409E+04   -0.12861E+02   -0.11478E+02 38850   0.176E+01    0.155E+01
DAV:   3    -0.132249189189E+04   -0.48475E+00   -0.51343E+00 37750   0.532E+00    0.710E+00
DAV:   4    -0.132247745441E+04    0.14437E-01   -0.40379E-01 39590   0.177E+00    0.477E+00
DAV:   5    -0.132243728610E+04    0.40168E-01   -0.10110E-01 39140   0.910E-01    0.348E+00
DAV:   6    -0.132240864609E+04    0.28640E-01   -0.74523E-02 40050   0.994E-01    0.183E+00
DAV:   7    -0.132240255760E+04    0.60885E-02   -0.56084E-02 40070   0.795E-01    0.685E-01
DAV:   8    -0.132240713738E+04   -0.45798E-02   -0.21654E-02 37500   0.347E-01    0.371E-01
DAV:   9    -0.132240638239E+04    0.75500E-03   -0.23074E-03 37930   0.108E-01    0.188E-01
DAV:  10    -0.132240580315E+04    0.57923E-03   -0.44613E-04 36720   0.640E-02    0.116E-01
DAV:  11    -0.132240624734E+04   -0.44418E-03   -0.27471E-04 35830   0.482E-02    0.579E-02
DAV:  12    -0.132240603406E+04    0.21328E-03   -0.69862E-05 23490   0.237E-02    0.278E-02
DAV:  13    -0.132240598525E+04    0.48806E-04   -0.32538E-05 19030   0.108E-02
   8 F= -.13224060E+04 E0= -.13224060E+04  d E =0.158434E+01  mag=   120.0000
       N       E                     dE             d eps       ncg     rms          rms(c)
DAV:   1    -0.131751530130E+04    0.48907E+01   -0.21409E+02 49480   0.695E+01    0.137E+01
DAV:   2    -0.132377519375E+04   -0.62599E+01   -0.56270E+01 38710   0.129E+01    0.106E+01
DAV:   3    -0.132401623999E+04   -0.24105E+00   -0.29860E+00 37530   0.417E+00    0.487E+00
DAV:   4    -0.132399826566E+04    0.17974E-01   -0.22160E-01 39480   0.138E+00    0.291E+00
DAV:   5    -0.132397283062E+04    0.25435E-01   -0.64382E-02 40350   0.794E-01    0.207E+00
DAV:   6    -0.132395641494E+04    0.16416E-01   -0.50430E-02 38390   0.797E-01    0.107E+00
DAV:   7    -0.132395372235E+04    0.26926E-02   -0.28450E-02 40140   0.495E-01    0.457E-01
DAV:   8    -0.132395622370E+04   -0.25014E-02   -0.98253E-03 37420   0.235E-01    0.252E-01
DAV:   9    -0.132395605673E+04    0.16697E-03   -0.86492E-04 38360   0.816E-02    0.146E-01
DAV:  10    -0.132395568353E+04    0.37320E-03   -0.33322E-04 37080   0.512E-02    0.101E-01
DAV:  11    -0.132395617458E+04   -0.49105E-03   -0.13717E-04 30550   0.485E-02    0.447E-02
DAV:  12    -0.132395613629E+04    0.38289E-04   -0.73403E-05 20490   0.183E-02
   9 F= -.13239561E+04 E0= -.13239561E+04  d E =-.155015E+01  mag=   120.0000
       N       E                     dE             d eps       ncg     rms          rms(c)
DAV:   1    -0.132370464867E+04    0.25153E+00   -0.99254E+00 49030   0.155E+01    0.274E+00
DAV:   2    -0.132400586572E+04   -0.30122E+00   -0.27096E+00 38720   0.278E+00    0.164E+00
DAV:   3    -0.132401838213E+04   -0.12516E-01   -0.13012E-01 37210   0.809E-01    0.978E-01
DAV:   4    -0.132401804306E+04    0.33908E-03   -0.70191E-03 39980   0.207E-01    0.534E-01
DAV:   5    -0.132401641230E+04    0.16308E-02   -0.20642E-03 41290   0.139E-01    0.363E-01
DAV:   6    -0.132401588168E+04    0.53062E-03   -0.21746E-03 39770   0.163E-01    0.212E-01
DAV:   7    -0.132401555320E+04    0.32848E-03   -0.12247E-03 39500   0.100E-01    0.858E-02
DAV:   8    -0.132401573798E+04   -0.18478E-03   -0.30527E-04 35070   0.540E-02    0.520E-02
DAV:   9    -0.132401567706E+04    0.60922E-04   -0.47764E-05 20730   0.192E-02    0.288E-02
DAV:  10    -0.132401566845E+04    0.86045E-05   -0.14708E-05 18830   0.108E-02
  10 F= -.13240157E+04 E0= -.13240157E+04  d E =-.595322E-01  mag=   120.0000
       N       E                     dE             d eps       ncg     rms          rms(c)
DAV:   1    -0.132394498654E+04    0.70691E-01   -0.27972E+00 48500   0.806E+00    0.141E+00
DAV:   2    -0.132402980638E+04   -0.84820E-01   -0.75800E-01 37960   0.142E+00    0.775E-01
DAV:   3    -0.132403258558E+04   -0.27792E-02   -0.28696E-02 36720   0.378E-01    0.450E-01
DAV:   4    -0.132403218372E+04    0.40186E-03   -0.18250E-03 40130   0.950E-02    0.284E-01
DAV:   5    -0.132403192859E+04    0.25513E-03   -0.34481E-04 35920   0.655E-02    0.201E-01
DAV:   6    -0.132403165226E+04    0.27632E-03   -0.50477E-04 41030   0.877E-02    0.933E-02
DAV:   7    -0.132403180009E+04   -0.14783E-03   -0.27527E-04 37060   0.485E-02    0.377E-02
DAV:   8    -0.132403168862E+04    0.11147E-03   -0.39207E-05 19900   0.214E-02    0.194E-02
DAV:   9    -0.132403170275E+04   -0.14127E-04   -0.94992E-06 18480   0.716E-03
  11 F= -.13240317E+04 E0= -.13240317E+04  d E =-.160343E-01  mag=   120.0000
       N       E                     dE             d eps       ncg     rms          rms(c)
DAV:   1    -0.132390896904E+04    0.12272E+00   -0.50208E+00 47680   0.996E+00    0.166E+00
DAV:   2    -0.132403345922E+04   -0.12449E+00   -0.11238E+00 37650   0.174E+00    0.956E-01
DAV:   3    -0.132403712237E+04   -0.36632E-02   -0.42172E-02 36670   0.484E-01    0.572E-01
DAV:   4    -0.132403620943E+04    0.91294E-03   -0.31191E-03 39940   0.140E-01    0.356E-01
DAV:   5    -0.132403588451E+04    0.32492E-03   -0.65622E-04 39220   0.931E-02    0.247E-01
DAV:   6    -0.132403559599E+04    0.28852E-03   -0.83091E-04 43670   0.108E-01    0.967E-02
DAV:   7    -0.132403580034E+04   -0.20435E-03   -0.34968E-04 38000   0.491E-02    0.361E-02
DAV:   8    -0.132403569641E+04    0.10393E-03   -0.37293E-05 19570   0.184E-02    0.221E-02
DAV:   9    -0.132403569398E+04    0.24347E-05   -0.69033E-06 18430   0.662E-03
  12 F= -.13240357E+04 E0= -.13240357E+04  d E =-.399122E-02  mag=   120.0000
       N       E                     dE             d eps       ncg     rms          rms(c)
DAV:   1    -0.132394663518E+04    0.89061E-01   -0.43784E+00 44820   0.817E+00    0.133E+00
DAV:   2    -0.132403141495E+04   -0.84780E-01   -0.79373E-01 37650   0.147E+00    0.886E-01
DAV:   3    -0.132403384163E+04   -0.24267E-02   -0.32781E-02 36950   0.435E-01    0.534E-01
DAV:   4    -0.132403303393E+04    0.80770E-03   -0.23915E-03 39740   0.131E-01    0.311E-01
DAV:   5    -0.132403283008E+04    0.20385E-03   -0.72087E-04 40120   0.936E-02    0.201E-01
DAV:   6    -0.132403265128E+04    0.17880E-03   -0.69679E-04 40560   0.911E-02    0.925E-02
DAV:   7    -0.132403282532E+04   -0.17404E-03   -0.30594E-04 37450   0.471E-02    0.374E-02
DAV:   8    -0.132403275177E+04    0.73544E-04   -0.40311E-05 19870   0.181E-02    0.222E-02
DAV:   9    -0.132403274588E+04    0.58967E-05   -0.86855E-06 18710   0.690E-03
  13 F= -.13240327E+04 E0= -.13240327E+04  d E =0.294810E-02  mag=   120.0000
       N       E                     dE             d eps       ncg     rms          rms(c)
DAV:   1    -0.131303157354E+04    0.11001E+02   -0.32941E+02 46650   0.847E+01    0.175E+01
DAV:   2    -0.132279046298E+04   -0.97589E+01   -0.87407E+01 37930   0.155E+01    0.123E+01
DAV:   3    -0.132309694347E+04   -0.30648E+00   -0.35014E+00 37500   0.407E+00    0.534E+00
DAV:   4    -0.132309815024E+04   -0.12068E-02   -0.22988E-01 40660   0.105E+00    0.376E+00
DAV:   5    -0.132307408723E+04    0.24063E-01   -0.45970E-02 39010   0.636E-01    0.268E+00
DAV:   6    -0.132306021028E+04    0.13877E-01   -0.39901E-02 41300   0.836E-01    0.149E+00
DAV:   7    -0.132305693163E+04    0.32786E-02   -0.37871E-02 40390   0.630E-01    0.493E-01
DAV:   8    -0.132306086226E+04   -0.39306E-02   -0.64920E-03 37230   0.240E-01    0.186E-01
DAV:   9    -0.132306031740E+04    0.54486E-03   -0.12467E-03 37870   0.703E-02    0.122E-01
DAV:  10    -0.132306010612E+04    0.21128E-03   -0.17103E-04 30220   0.414E-02    0.735E-02
DAV:  11    -0.132306042287E+04   -0.31675E-03   -0.88456E-05 23630   0.315E-02    0.342E-02
DAV:  12    -0.132306030387E+04    0.11900E-03   -0.36915E-05 18930   0.154E-02    0.185E-02
DAV:  13    -0.132306024392E+04    0.59952E-04   -0.81319E-06 18740   0.807E-03    0.101E-02
DAV:  14    -0.132306026909E+04   -0.25168E-04   -0.21543E-06 18500   0.375E-03
  14 F= -.13230603E+04 E0= -.13230603E+04  d E =0.972477E+00  mag=   120.0000
       N       E                     dE             d eps       ncg     rms          rms(c)
DAV:   1    -0.131977906679E+04    0.32812E+01   -0.13061E+02 48180   0.561E+01    0.105E+01
DAV:   2    -0.132383726866E+04   -0.40582E+01   -0.36311E+01 38560   0.987E+00    0.647E+00
DAV:   3    -0.132396541426E+04   -0.12815E+00   -0.12391E+00 37460   0.248E+00    0.310E+00
DAV:   4    -0.132396035935E+04    0.50549E-02   -0.78604E-02 40460   0.612E-01    0.204E+00
DAV:   5    -0.132394773319E+04    0.12626E-01   -0.21642E-02 39760   0.401E-01    0.135E+00
DAV:   6    -0.132394058402E+04    0.71492E-02   -0.12566E-02 41720   0.443E-01    0.668E-01
DAV:   7    -0.132394224417E+04   -0.16602E-02   -0.10208E-02 39510   0.305E-01    0.305E-01
DAV:   8    -0.132394200759E+04    0.23658E-03   -0.21989E-03 37180   0.150E-01    0.127E-01
DAV:   9    -0.132394193503E+04    0.72568E-04   -0.51033E-04 36640   0.543E-02    0.923E-02
DAV:  10    -0.132394185191E+04    0.83111E-04   -0.70082E-05 23440   0.245E-02    0.518E-02
DAV:  11    -0.132394204700E+04   -0.19509E-03   -0.33434E-05 20020   0.178E-02    0.196E-02
DAV:  12    -0.132394199992E+04    0.47078E-04   -0.15169E-05 18760   0.984E-03
  15 F= -.13239420E+04 E0= -.13239420E+04  d E =-.881731E+00  mag=   120.0000
       N       E                     dE             d eps       ncg     rms          rms(c)
DAV:   1    -0.132362919598E+04    0.31285E+00   -0.16664E+01 46180   0.181E+01    0.305E+00
DAV:   2    -0.132402115767E+04   -0.39196E+00   -0.36132E+00 37800   0.325E+00    0.182E+00
DAV:   3    -0.132403393405E+04   -0.12776E-01   -0.14873E-01 37220   0.899E-01    0.108E+00
DAV:   4    -0.132403217124E+04    0.17628E-02   -0.10084E-02 39960   0.246E-01    0.654E-01
DAV:   5    -0.132403067303E+04    0.14982E-02   -0.24310E-03 41060   0.166E-01    0.453E-01
DAV:   6    -0.132402968964E+04    0.98340E-03   -0.29069E-03 40210   0.201E-01    0.226E-01
DAV:   7    -0.132403002718E+04   -0.33754E-03   -0.13829E-03 39030   0.111E-01    0.825E-02
DAV:   8    -0.132402976208E+04    0.26509E-03   -0.22314E-04 34420   0.462E-02    0.444E-02
DAV:   9    -0.132402978271E+04   -0.20629E-04   -0.25247E-05 19160   0.141E-02
  16 F= -.13240298E+04 E0= -.13240298E+04  d E =-.877828E-01  mag=   120.0000
       N       E                     dE             d eps       ncg     rms          rms(c)
DAV:   1    -0.132393643864E+04    0.93323E-01   -0.48916E+00 45600   0.934E+00    0.161E+00
DAV:   2    -0.132405019341E+04   -0.11375E+00   -0.10498E+00 37820   0.172E+00    0.951E-01
DAV:   3    -0.132405384630E+04   -0.36529E-02   -0.41733E-02 37110   0.500E-01    0.595E-01
DAV:   4    -0.132405272989E+04    0.11164E-02   -0.31185E-03 39980   0.143E-01    0.369E-01
DAV:   5    -0.132405229045E+04    0.43944E-03   -0.53869E-04 38860   0.853E-02    0.266E-01
DAV:   6    -0.132405188826E+04    0.40219E-03   -0.87747E-04 42070   0.113E-01    0.995E-02
DAV:   7    -0.132405211067E+04   -0.22241E-03   -0.41258E-04 38350   0.525E-02    0.412E-02
DAV:   8    -0.132405196177E+04    0.14890E-03   -0.50247E-05 20000   0.213E-02    0.253E-02
DAV:   9    -0.132405196517E+04   -0.34007E-05   -0.10009E-05 18630   0.791E-03
  17 F= -.13240520E+04 E0= -.13240520E+04  d E =-.221825E-01  mag=   120.0000
       N       E                     dE             d eps       ncg     rms          rms(c)
DAV:   1    -0.132395179837E+04    0.10016E+00   -0.42310E+00 46020   0.881E+00    0.153E+00
DAV:   2    -0.132405610558E+04   -0.10431E+00   -0.94806E-01 37110   0.158E+00    0.855E-01
DAV:   3    -0.132405935005E+04   -0.32445E-02   -0.36017E-02 37070   0.446E-01    0.514E-01
DAV:   4    -0.132405853445E+04    0.81560E-03   -0.27736E-03 39730   0.132E-01    0.332E-01
DAV:   5    -0.132405824833E+04    0.28612E-03   -0.44680E-04 38300   0.793E-02    0.225E-01
DAV:   6    -0.132405802345E+04    0.22488E-03   -0.65298E-04 43080   0.973E-02    0.925E-02
DAV:   7    -0.132405819439E+04   -0.17094E-03   -0.29058E-04 37630   0.431E-02    0.321E-02
DAV:   8    -0.132405811473E+04    0.79655E-04   -0.24126E-05 19220   0.147E-02    0.201E-02
DAV:   9    -0.132405810617E+04    0.85644E-05   -0.47471E-06 18380   0.588E-03
  18 F= -.13240581E+04 E0= -.13240581E+04  d E =-.614100E-02  mag=   120.0000
       N       E                     dE             d eps       ncg     rms          rms(c)
DAV:   1    -0.132403117238E+04    0.26942E-01   -0.13788E+00 45130   0.482E+00    0.773E-01
DAV:   2    -0.132406033103E+04   -0.29159E-01   -0.27165E-01 37320   0.847E-01    0.447E-01
DAV:   3    -0.132406106792E+04   -0.73690E-03   -0.99069E-03 36960   0.223E-01    0.264E-01
DAV:   4    -0.132406093336E+04    0.13456E-03   -0.68664E-04 37540   0.637E-02    0.166E-01
DAV:   5    -0.132406099446E+04   -0.61091E-04   -0.16688E-04 30390   0.473E-02    0.108E-01
DAV:   6    -0.132406087081E+04    0.12365E-03   -0.19509E-04 34010   0.503E-02    0.487E-02
DAV:   7    -0.132406097344E+04   -0.10263E-03   -0.78052E-05 21230   0.258E-02    0.175E-02
DAV:   8    -0.132406096706E+04    0.63820E-05   -0.14029E-05 18320   0.935E-03
  19 F= -.13240610E+04 E0= -.13240610E+04  d E =-.286089E-02  mag=   120.0000
       N       E                     dE             d eps       ncg     rms          rms(c)
DAV:   1    -0.132378889838E+04    0.27208E+00   -0.13158E+01 43760   0.143E+01    0.238E+00
DAV:   2    -0.132404768355E+04   -0.25879E+00   -0.24726E+00 37270   0.260E+00    0.129E+00
DAV:   3    -0.132405182731E+04   -0.41438E-02   -0.81417E-02 36920   0.644E-01    0.771E-01
DAV:   4    -0.132405173559E+04    0.91725E-04   -0.55071E-03 40150   0.160E-01    0.513E-01
DAV:   5    -0.132405125404E+04    0.48155E-03   -0.11572E-03 41030   0.130E-01    0.329E-01
DAV:   6    -0.132405049939E+04    0.75466E-03   -0.16580E-03 42410   0.147E-01    0.158E-01
DAV:   7    -0.132405089735E+04   -0.39797E-03   -0.76065E-04 38330   0.753E-02    0.568E-02
DAV:   8    -0.132405095532E+04   -0.57964E-04   -0.77993E-05 23750   0.276E-02    0.325E-02
DAV:   9    -0.132405093756E+04    0.17758E-04   -0.14497E-05 18760   0.997E-03
  20 F= -.13240509E+04 E0= -.13240509E+04  d E =0.100295E-01  mag=   120.0000
       N       E                     dE             d eps       ncg     rms          rms(c)
DAV:   1    -0.132379491550E+04    0.25604E+00   -0.10676E+01 45170   0.137E+01    0.235E+00
DAV:   2    -0.132403272839E+04   -0.23781E+00   -0.22203E+00 37980   0.247E+00    0.120E+00
DAV:   3    -0.132403718945E+04   -0.44611E-02   -0.74856E-02 36840   0.601E-01    0.675E-01
DAV:   4    -0.132403756058E+04   -0.37113E-03   -0.49381E-03 39330   0.161E-01    0.433E-01
DAV:   5    -0.132403678897E+04    0.77161E-03   -0.11456E-03 40670   0.116E-01    0.300E-01
DAV:   6    -0.132403653179E+04    0.25718E-03   -0.13625E-03 42620   0.135E-01    0.144E-01
DAV:   7    -0.132403645491E+04    0.76884E-04   -0.61160E-04 39210   0.639E-02    0.478E-02
DAV:   8    -0.132403664159E+04   -0.18668E-03   -0.81970E-05 23470   0.267E-02    0.300E-02
DAV:   9    -0.132403659298E+04    0.48614E-04   -0.20657E-05 18760   0.106E-02
  21 F= -.13240366E+04 E0= -.13240366E+04  d E =0.143446E-01  mag=   120.0000
       N       E                     dE             d eps       ncg     rms          rms(c)
DAV:   1    -0.132378694059E+04    0.24970E+00   -0.10201E+01 46950   0.143E+01    0.243E+00
DAV:   2    -0.132405266657E+04   -0.26573E+00   -0.23877E+00 37620   0.249E+00    0.132E+00
DAV:   3    -0.132405905799E+04   -0.63914E-02   -0.83481E-02 37340   0.625E-01    0.742E-01
DAV:   4    -0.132405891204E+04    0.14595E-03   -0.54181E-03 39570   0.159E-01    0.474E-01
DAV:   5    -0.132405759806E+04    0.13140E-02   -0.12573E-03 41700   0.120E-01    0.300E-01
DAV:   6    -0.132405737219E+04    0.22587E-03   -0.11929E-03 42450   0.126E-01    0.142E-01
DAV:   7    -0.132405716936E+04    0.20282E-03   -0.61148E-04 38790   0.730E-02    0.626E-02
DAV:   8    -0.132405724937E+04   -0.80002E-04   -0.81264E-05 23560   0.301E-02    0.316E-02
DAV:   9    -0.132405721524E+04    0.34129E-04   -0.17289E-05 18760   0.104E-02
  22 F= -.13240572E+04 E0= -.13240572E+04  d E =-.206223E-01  mag=   120.0000
       N       E                     dE             d eps       ncg     rms          rms(c)
DAV:   1    -0.132397565697E+04    0.81592E-01   -0.36520E+00 45100   0.814E+00    0.139E+00
DAV:   2    -0.132406037246E+04   -0.84715E-01   -0.79900E-01 37960   0.147E+00    0.705E-01
DAV:   3    -0.132406216603E+04   -0.17936E-02   -0.26010E-02 37300   0.347E-01    0.400E-01
DAV:   4    -0.132406195847E+04    0.20756E-03   -0.16413E-03 39150   0.846E-02    0.272E-01
DAV:   5    -0.132406139518E+04    0.56329E-03   -0.44249E-04 37850   0.706E-02    0.176E-01
DAV:   6    -0.132406134458E+04    0.50594E-04   -0.48101E-04 41340   0.824E-02    0.836E-02
DAV:   7    -0.132406115962E+04    0.18496E-03   -0.25349E-04 36550   0.447E-02    0.334E-02
DAV:   8    -0.132406118761E+04   -0.27993E-04   -0.28317E-05 19630   0.176E-02
  23 F= -.13240612E+04 E0= -.13240612E+04  d E =-.397238E-02  mag=   120.0000
       N       E                     dE             d eps       ncg     rms          rms(c)
DAV:   1    -0.132403233089E+04    0.28829E-01   -0.13681E+00 44050   0.477E+00    0.786E-01
DAV:   2    -0.132405959281E+04   -0.27262E-01   -0.25926E-01 37130   0.850E-01    0.376E-01
DAV:   3    -0.132405996095E+04   -0.36814E-03   -0.78573E-03 37180   0.183E-01    0.193E-01
DAV:   4    -0.132405999501E+04   -0.34065E-04   -0.49033E-04 33250   0.416E-02
  24 F= -.13240600E+04 E0= -.13240600E+04  d E =0.119260E-02  mag=   120.0000
       N       E                     dE             d eps       ncg     rms          rms(c)
DAV:   1    -0.132025941793E+04    0.38005E+01   -0.95246E+01 48670   0.505E+01    0.957E+00
DAV:   2    -0.132364124101E+04   -0.33818E+01   -0.29770E+01 37730   0.865E+00    0.551E+00
DAV:   3    -0.132374483622E+04   -0.10360E+00   -0.10228E+00 37410   0.218E+00    0.255E+00
DAV:   4    -0.132374548755E+04   -0.65132E-03   -0.68982E-02 40680   0.594E-01    0.181E+00
DAV:   5    -0.132373884622E+04    0.66413E-02   -0.12641E-02 39670   0.355E-01    0.127E+00
DAV:   6    -0.132373266727E+04    0.61789E-02   -0.11154E-02 42910   0.449E-01    0.637E-01
DAV:   7    -0.132373462647E+04   -0.19592E-02   -0.79908E-03 39800   0.284E-01    0.258E-01
DAV:   8    -0.132373509170E+04   -0.46523E-03   -0.14728E-03 37210   0.113E-01    0.109E-01
DAV:   9    -0.132373510321E+04   -0.11507E-04   -0.26036E-04 35050   0.356E-02
  25 F= -.13237351E+04 E0= -.13237351E+04  d E =0.324892E+00  mag=   120.0000
       N       E                     dE             d eps       ncg     rms          rms(c)
DAV:   1    -0.132104107882E+04    0.26940E+01   -0.80284E+01 49140   0.471E+01    0.884E+00
DAV:   2    -0.132394498828E+04   -0.29039E+01   -0.25358E+01 38190   0.804E+00    0.534E+00
DAV:   3    -0.132404592475E+04   -0.10094E+00   -0.92798E-01 37290   0.205E+00    0.234E+00
DAV:   4    -0.132404542491E+04    0.49984E-03   -0.55740E-02 40910   0.481E-01    0.155E+00
DAV:   5    -0.132403784659E+04    0.75783E-02   -0.13902E-02 39920   0.317E-01    0.101E+00
DAV:   6    -0.132403357794E+04    0.42687E-02   -0.72714E-03 43190   0.351E-01    0.437E-01
DAV:   7    -0.132403443931E+04   -0.86137E-03   -0.57675E-03 39110   0.215E-01    0.232E-01
DAV:   8    -0.132403511085E+04   -0.67154E-03   -0.10226E-03 37140   0.993E-02    0.893E-02
DAV:   9    -0.132403473606E+04    0.37480E-03   -0.21752E-04 34200   0.331E-02    0.578E-02
DAV:  10    -0.132403479087E+04   -0.54811E-04   -0.31710E-05 19940   0.189E-02    0.345E-02
DAV:  11    -0.132403488142E+04   -0.90552E-04   -0.18950E-05 19040   0.135E-02    0.158E-02
DAV:  12    -0.132403481984E+04    0.61585E-04   -0.67665E-06 18680   0.673E-03    0.827E-03
DAV:  13    -0.132403481661E+04    0.32247E-05   -0.21819E-06 18260   0.382E-03
  26 F= -.13240348E+04 E0= -.13240348E+04  d E =-.299713E+00  mag=   120.0000
       N       E                     dE             d eps       ncg     rms          rms(c)
DAV:   1    -0.132400529387E+04    0.29526E-01   -0.13602E+00 48630   0.606E+00    0.106E+00
DAV:   2    -0.132405230860E+04   -0.47015E-01   -0.41766E-01 38170   0.104E+00    0.517E-01
DAV:   3    -0.132405372817E+04   -0.14196E-02   -0.16116E-02 37850   0.265E-01    0.289E-01
DAV:   4    -0.132405371957E+04    0.85957E-05   -0.93474E-04 38620   0.672E-02    0.183E-01
DAV:   5    -0.132405344390E+04    0.27567E-03   -0.26560E-04 34920   0.494E-02    0.119E-01
DAV:   6    -0.132405343741E+04    0.64870E-05   -0.20989E-04 36400   0.555E-02
  27 F= -.13240534E+04 E0= -.13240534E+04  d E =-.186208E-01  mag=   120.0000
       N       E                     dE             d eps       ncg     rms          rms(c)
DAV:   1    -0.132396589417E+04    0.87550E-01   -0.27753E+00 47740   0.847E+00    0.145E+00
DAV:   2    -0.132405968243E+04   -0.93788E-01   -0.84018E-01 37900   0.146E+00    0.746E-01
DAV:   3    -0.132406180793E+04   -0.21255E-02   -0.29738E-02 37260   0.381E-01    0.434E-01
DAV:   4    -0.132406181203E+04   -0.41005E-05   -0.19471E-03 39740   0.105E-01    0.284E-01
DAV:   5    -0.132406126220E+04    0.54984E-03   -0.39584E-04 37700   0.704E-02    0.194E-01
DAV:   6    -0.132406119802E+04    0.64175E-04   -0.47888E-04 41960   0.889E-02    0.881E-02
DAV:   7    -0.132406105817E+04    0.13985E-03   -0.27272E-04 37890   0.452E-02    0.358E-02
DAV:   8    -0.132406106707E+04   -0.88998E-05   -0.35840E-05 19870   0.192E-02
  28 F= -.13240611E+04 E0= -.13240611E+04  d E =-.762966E-02  mag=   120.0000
       N       E                     dE             d eps       ncg     rms          rms(c)
DAV:   1    -0.132405501925E+04    0.60389E-02   -0.45754E-01 44530   0.277E+00    0.418E-01
DAV:   2    -0.132406377005E+04   -0.87508E-02   -0.82240E-02 37130   0.485E-01    0.240E-01
DAV:   3    -0.132406377993E+04   -0.98813E-05   -0.29485E-03 37020   0.128E-01    0.147E-01
DAV:   4    -0.132406378280E+04   -0.28697E-05   -0.21393E-04 30910   0.380E-02
  29 F= -.13240638E+04 E0= -.13240638E+04  d E =-.271573E-02  mag=   120.0000
       N       E                     dE             d eps       ncg     rms          rms(c)
DAV:   1    -0.132386227175E+04    0.20151E+00   -0.96611E+00 43910   0.129E+01    0.200E+00
DAV:   2    -0.132406114377E+04   -0.19887E+00   -0.18509E+00 37080   0.226E+00    0.110E+00
DAV:   3    -0.132406329059E+04   -0.21468E-02   -0.62132E-02 37090   0.553E-01    0.637E-01
DAV:   4    -0.132406319678E+04    0.93815E-04   -0.44875E-03 40100   0.164E-01    0.425E-01
DAV:   5    -0.132406212814E+04    0.10686E-02   -0.10141E-03 41260   0.131E-01    0.272E-01
DAV:   6    -0.132406201769E+04    0.11045E-03   -0.13310E-03 42110   0.136E-01    0.126E-01
DAV:   7    -0.132406176571E+04    0.25198E-03   -0.58080E-04 38430   0.648E-02    0.440E-02
DAV:   8    -0.132406182992E+04   -0.64208E-04   -0.47873E-05 21020   0.213E-02    0.264E-02
DAV:   9    -0.132406183622E+04   -0.62968E-05   -0.12221E-05 18760   0.912E-03
  30 F= -.13240618E+04 E0= -.13240618E+04  d E =0.194658E-02  mag=   120.0000
       N       E                     dE             d eps       ncg     rms          rms(c)
DAV:   1    -0.132400713354E+04    0.54696E-01   -0.19438E+00 46450   0.667E+00    0.115E+00
DAV:   2    -0.132406330020E+04   -0.56167E-01   -0.50624E-01 37900   0.115E+00    0.559E-01
DAV:   3    -0.132406461815E+04   -0.13179E-02   -0.16392E-02 37410   0.266E-01    0.292E-01
DAV:   4    -0.132406479835E+04   -0.18019E-03   -0.96712E-04 39000   0.617E-02    0.199E-01
DAV:   5    -0.132406457410E+04    0.22425E-03   -0.25506E-04 34790   0.574E-02    0.116E-01
DAV:   6    -0.132406461622E+04   -0.42126E-04   -0.23773E-04 37470   0.533E-02
  31 F= -.13240646E+04 E0= -.13240646E+04  d E =-.278001E-02  mag=   120.0000
       N       E                     dE             d eps       ncg     rms          rms(c)
DAV:   1    -0.132405156331E+04    0.13011E-01   -0.96887E-01 44400   0.388E+00    0.597E-01
DAV:   2    -0.132406878665E+04   -0.17223E-01   -0.16658E-01 37560   0.688E-01    0.352E-01
DAV:   3    -0.132406926341E+04   -0.47677E-03   -0.61083E-03 37090   0.184E-01    0.221E-01
DAV:   4    -0.132406919541E+04    0.68004E-04   -0.41026E-04 37310   0.498E-02    0.134E-01
DAV:   5    -0.132406927390E+04   -0.78484E-04   -0.11882E-04 28140   0.392E-02    0.864E-02
DAV:   6    -0.132406918966E+04    0.84236E-04   -0.14460E-04 31620   0.409E-02    0.437E-02
DAV:   7    -0.132406925846E+04   -0.68806E-04   -0.63051E-05 20420   0.231E-02    0.184E-02
DAV:   8    -0.132406924844E+04    0.10026E-04   -0.13539E-05 18510   0.101E-02
  32 F= -.13240692E+04 E0= -.13240692E+04  d E =-.463221E-02  mag=   120.0000
       N       E                     dE             d eps       ncg     rms          rms(c)
DAV:   1    -0.132402999344E+04    0.39265E-01   -0.29468E+00 41570   0.582E+00    0.891E-01
DAV:   2    -0.132406796647E+04   -0.37973E-01   -0.39117E-01 37300   0.106E+00    0.512E-01
DAV:   3    -0.132406866189E+04   -0.69542E-03   -0.12714E-02 36940   0.267E-01    0.319E-01
DAV:   4    -0.132406840748E+04    0.25441E-03   -0.92058E-04 38690   0.784E-02    0.196E-01
DAV:   5    -0.132406842562E+04   -0.18140E-04   -0.25375E-04 31790   0.591E-02
  33 F= -.13240684E+04 E0= -.13240684E+04  d E =0.822819E-03  mag=   120.0000
       N       E                     dE             d eps       ncg     rms          rms(c)
DAV:   1    -0.132394211005E+04    0.12630E+00   -0.78609E+00 42070   0.988E+00    0.157E+00
DAV:   2    -0.132405518234E+04   -0.11307E+00   -0.11425E+00 37190   0.181E+00    0.832E-01
DAV:   3    -0.132405713015E+04   -0.19478E-02   -0.34590E-02 36850   0.421E-01    0.484E-01
DAV:   4    -0.132405662440E+04    0.50576E-03   -0.25024E-03 39600   0.124E-01    0.322E-01
DAV:   5    -0.132405644753E+04    0.17687E-03   -0.57308E-04 39650   0.915E-02    0.209E-01
DAV:   6    -0.132405614750E+04    0.30003E-03   -0.81261E-04 41740   0.103E-01    0.947E-02
DAV:   7    -0.132405635997E+04   -0.21247E-03   -0.37696E-04 37930   0.498E-02    0.431E-02
DAV:   8    -0.132405634435E+04    0.15620E-04   -0.33830E-05 19750   0.174E-02
  34 F= -.13240563E+04 E0= -.13240563E+04  d E =0.120813E-01  mag=   120.0000
       N       E                     dE             d eps       ncg     rms          rms(c)
DAV:   1    -0.132401027809E+04    0.46082E-01   -0.18622E+00 47490   0.642E+00    0.106E+00
DAV:   2    -0.132406274393E+04   -0.52466E-01   -0.47976E-01 37430   0.111E+00    0.547E-01
DAV:   3    -0.132406377231E+04   -0.10284E-02   -0.16373E-02 37180   0.283E-01    0.317E-01
DAV:   4    -0.132406381903E+04   -0.46717E-04   -0.11335E-03 38980   0.811E-02    0.209E-01
DAV:   5    -0.132406345928E+04    0.35974E-03   -0.22774E-04 32520   0.567E-02    0.143E-01
DAV:   6    -0.132406340870E+04    0.50584E-04   -0.30462E-04 39680   0.671E-02    0.599E-02
DAV:   7    -0.132406331068E+04    0.98021E-04   -0.14016E-04 30250   0.307E-02    0.219E-02
DAV:   8    -0.132406333957E+04   -0.28888E-04   -0.19777E-05 18800   0.127E-02
  35 F= -.13240633E+04 E0= -.13240633E+04  d E =-.699521E-02  mag=   120.0000
       N       E                     dE             d eps       ncg     rms          rms(c)
DAV:   1    -0.132404898848E+04    0.14322E-01   -0.77415E-01 45150   0.373E+00    0.598E-01
DAV:   2    -0.132406633783E+04   -0.17349E-01   -0.15916E-01 37330   0.649E-01    0.338E-01
DAV:   3    -0.132406637552E+04   -0.37693E-04   -0.56318E-03 37010   0.176E-01    0.206E-01
DAV:   4    -0.132406644177E+04   -0.66246E-04   -0.39821E-04 37060   0.517E-02    0.129E-01
DAV:   5    -0.132406625975E+04    0.18202E-03   -0.78501E-05 23990   0.354E-02    0.840E-02
DAV:   6    -0.132406624718E+04    0.12577E-04   -0.12357E-04 27700   0.399E-02
  36 F= -.13240662E+04 E0= -.13240662E+04  d E =-.290761E-02  mag=   120.0000
       N       E                     dE             d eps       ncg     rms          rms(c)
DAV:   1    -0.132405250170E+04    0.13758E-01   -0.57314E-01 45190   0.319E+00    0.530E-01
DAV:   2    -0.132406577257E+04   -0.13271E-01   -0.12391E-01 37360   0.560E-01    0.268E-01
DAV:   3    -0.132406584764E+04   -0.75072E-04   -0.36753E-03 37000   0.133E-01    0.152E-01
DAV:   4    -0.132406590282E+04   -0.55185E-04   -0.25482E-04 30520   0.393E-02    0.103E-01
DAV:   5    -0.132406577353E+04    0.12929E-03   -0.47572E-05 20670   0.285E-02    0.701E-02
DAV:   6    -0.132406576958E+04    0.39506E-05   -0.78847E-05 24210   0.333E-02
  37 F= -.13240658E+04 E0= -.13240658E+04  d E =0.477596E-03  mag=   120.0000
       N       E                     dE             d eps       ncg     rms          rms(c)
DAV:   1    -0.132306703949E+04    0.99873E+00   -0.29782E+01 46800   0.262E+01    0.464E+00
DAV:   2    -0.132398349598E+04   -0.91646E+00   -0.82435E+00 37870   0.456E+00    0.255E+00
DAV:   3    -0.132400555687E+04   -0.22061E-01   -0.27241E-01 37290   0.110E+00    0.130E+00
DAV:   4    -0.132400485976E+04    0.69711E-03   -0.16994E-02 40040   0.293E-01    0.876E-01
DAV:   5    -0.132400272380E+04    0.21360E-02   -0.34541E-03 41580   0.212E-01    0.589E-01
DAV:   6    -0.132400066282E+04    0.20610E-02   -0.40688E-03 42430   0.260E-01    0.312E-01
DAV:   7    -0.132400128632E+04   -0.62350E-03   -0.25549E-03 39240   0.143E-01    0.993E-02
DAV:   8    -0.132400137704E+04   -0.90717E-04   -0.31706E-04 36390   0.552E-02    0.527E-02
DAV:   9    -0.132400130287E+04    0.74167E-04   -0.63412E-05 22780   0.183E-02    0.392E-02
DAV:  10    -0.132400128846E+04    0.14404E-04   -0.13937E-05 19400   0.128E-02
  38 F= -.13240013E+04 E0= -.13240013E+04  d E =0.644811E-01  mag=   120.0000
       N       E                     dE             d eps       ncg     rms          rms(c)
DAV:   1    -0.132336191888E+04    0.63938E+00   -0.19495E+01 48930   0.229E+01    0.412E+00
DAV:   2    -0.132403151029E+04   -0.66959E+00   -0.58834E+00 38280   0.391E+00    0.214E+00
DAV:   3    -0.132405445004E+04   -0.22940E-01   -0.22597E-01 37990   0.102E+00    0.114E+00
DAV:   4    -0.132405463881E+04   -0.18877E-03   -0.13289E-02 39730   0.274E-01    0.704E-01
DAV:   5    -0.132405204043E+04    0.25984E-02   -0.35806E-03 39770   0.187E-01    0.474E-01
DAV:   6    -0.132405103135E+04    0.10091E-02   -0.30917E-03 41060   0.214E-01    0.268E-01
DAV:   7    -0.132405082245E+04    0.20890E-03   -0.19324E-03 39480   0.127E-01    0.101E-01
DAV:   8    -0.132405112362E+04   -0.30117E-03   -0.38385E-04 36750   0.621E-02    0.609E-02
DAV:   9    -0.132405104534E+04    0.78290E-04   -0.84667E-05 25970   0.227E-02    0.422E-02
DAV:  10    -0.132405098189E+04    0.63446E-04   -0.15907E-05 19050   0.113E-02    0.229E-02
DAV:  11    -0.132405107242E+04   -0.90536E-04   -0.77694E-06 20140   0.103E-02    0.961E-03
DAV:  12    -0.132405105363E+04    0.18797E-04   -0.51968E-06 18540   0.490E-03
  39 F= -.13240511E+04 E0= -.13240511E+04  d E =-.497652E-01  mag=   120.0000
       N       E                     dE             d eps       ncg     rms          rms(c)
DAV:   1    -0.132402430111E+04    0.26771E-01   -0.92737E-01 48990   0.522E+00    0.951E-01
DAV:   2    -0.132406171190E+04   -0.37411E-01   -0.32468E-01 38430   0.883E-01    0.458E-01
DAV:   3    -0.132406304388E+04   -0.13320E-02   -0.11979E-02 37910   0.225E-01    0.250E-01
DAV:   4    -0.132406299736E+04    0.46518E-04   -0.71910E-04 38580   0.552E-02    0.159E-01
DAV:   5    -0.132406293457E+04    0.62784E-04   -0.14741E-04 31340   0.392E-02    0.105E-01
DAV:   6    -0.132406285113E+04    0.83446E-04   -0.15054E-04 33380   0.449E-02    0.450E-02
DAV:   7    -0.132406290402E+04   -0.52892E-04   -0.82205E-05 25710   0.210E-02    0.182E-02
DAV:   8    -0.132406288646E+04    0.17559E-04   -0.16090E-05 18770   0.120E-02
  40 F= -.13240629E+04 E0= -.13240629E+04  d E =-.118328E-01  mag=   120.0000
       N       E                     dE             d eps       ncg     rms          rms(c)
DAV:   1    -0.132400923014E+04    0.53674E-01   -0.14352E+00 48330   0.636E+00    0.111E+00
DAV:   2    -0.132406369065E+04   -0.54461E-01   -0.47876E-01 37440   0.107E+00    0.537E-01
DAV:   3    -0.132406509679E+04   -0.14061E-02   -0.16330E-02 37520   0.261E-01    0.285E-01
DAV:   4    -0.132406509119E+04    0.55946E-05   -0.10359E-03 38970   0.641E-02    0.197E-01
DAV:   5    -0.132406493206E+04    0.15913E-03   -0.14057E-04 30610   0.464E-02    0.131E-01
DAV:   6    -0.132406491757E+04    0.14497E-04   -0.21685E-04 37870   0.580E-02
  41 F= -.13240649E+04 E0= -.13240649E+04  d E =-.203110E-02  mag=   120.0000
       N       E                     dE             d eps       ncg     rms          rms(c)
DAV:   1    -0.132405161860E+04    0.13313E-01   -0.57458E-01 44830   0.327E+00    0.505E-01
DAV:   2    -0.132406440520E+04   -0.12787E-01   -0.11843E-01 36670   0.560E-01    0.264E-01
DAV:   3    -0.132406447811E+04   -0.72908E-04   -0.37698E-03 36970   0.131E-01    0.142E-01
DAV:   4    -0.132406453681E+04   -0.58701E-04   -0.25814E-04 30550   0.389E-02    0.963E-02
DAV:   5    -0.132406444361E+04    0.93198E-04   -0.50051E-05 20440   0.296E-02    0.634E-02
DAV:   6    -0.132406446495E+04   -0.21334E-04   -0.73014E-05 22940   0.320E-02
  42 F= -.13240645E+04 E0= -.13240645E+04  d E =0.452620E-03  mag=   120.0000
       N       E                     dE             d eps       ncg     rms          rms(c)
DAV:   1    -0.132398781595E+04    0.76628E-01   -0.40512E+00 42480   0.763E+00    0.122E+00
DAV:   2    -0.132405815944E+04   -0.70343E-01   -0.68489E-01 37260   0.137E+00    0.600E-01
DAV:   3    -0.132405892518E+04   -0.76574E-03   -0.19066E-02 37240   0.274E-01    0.304E-01
DAV:   4    -0.132405881058E+04    0.11460E-03   -0.11536E-03 38380   0.679E-02    0.221E-01
DAV:   5    -0.132405845075E+04    0.35984E-03   -0.30974E-04 34420   0.717E-02    0.131E-01
DAV:   6    -0.132405851273E+04   -0.61985E-04   -0.40940E-04 39180   0.692E-02    0.669E-02
DAV:   7    -0.132405838293E+04    0.12981E-03   -0.16022E-04 30330   0.364E-02    0.244E-02
DAV:   8    -0.132405841308E+04   -0.30157E-04   -0.18247E-05 18650   0.123E-02
  43 F= -.13240584E+04 E0= -.13240584E+04  d E =0.605186E-02  mag=   120.0000
       N       E                     dE             d eps       ncg     rms          rms(c)
DAV:   1    -0.132401643154E+04    0.41951E-01   -0.22416E+00 44160   0.561E+00    0.891E-01
DAV:   2    -0.132405220163E+04   -0.35770E-01   -0.35412E-01 36930   0.100E+00    0.428E-01
DAV:   3    -0.132405297384E+04   -0.77221E-03   -0.10703E-02 37120   0.210E-01    0.218E-01
DAV:   4    -0.132405284512E+04    0.12872E-03   -0.67812E-04 38070   0.510E-02    0.152E-01
DAV:   5    -0.132405278811E+04    0.57013E-04   -0.15880E-04 30010   0.472E-02    0.918E-02
DAV:   6    -0.132405267946E+04    0.10864E-03   -0.19121E-04 34040   0.468E-02    0.463E-02
DAV:   7    -0.132405276832E+04   -0.88859E-04   -0.83934E-05 21500   0.267E-02    0.200E-02
DAV:   8    -0.132405274033E+04    0.27996E-04   -0.14640E-05 18210   0.103E-02
  44 F= -.13240527E+04 E0= -.13240527E+04  d E =0.567276E-02  mag=   120.0000
       N       E                     dE             d eps       ncg     rms          rms(c)
DAV:   1    -0.132396299472E+04    0.89774E-01   -0.48792E+00 43750   0.836E+00    0.139E+00
DAV:   2    -0.132404544441E+04   -0.82450E-01   -0.80732E-01 37110   0.150E+00    0.653E-01
DAV:   3    -0.132404685550E+04   -0.14111E-02   -0.22671E-02 37170   0.306E-01    0.320E-01
DAV:   4    -0.132404668902E+04    0.16647E-03   -0.14933E-03 38650   0.788E-02    0.235E-01
DAV:   5    -0.132404654150E+04    0.14752E-03   -0.31249E-04 35160   0.714E-02    0.152E-01
DAV:   6    -0.132404627950E+04    0.26201E-03   -0.46286E-04 40940   0.783E-02    0.664E-02
DAV:   7    -0.132404645584E+04   -0.17634E-03   -0.20228E-04 33840   0.390E-02    0.286E-02
DAV:   8    -0.132404642161E+04    0.34232E-04   -0.19134E-05 18810   0.130E-02
  45 F= -.13240464E+04 E0= -.13240464E+04  d E =0.631872E-02  mag=   120.0000
       N       E                     dE             d eps       ncg     rms          rms(c)
DAV:   1    -0.132336874183E+04    0.67771E+00   -0.30406E+01 44810   0.227E+01    0.390E+00
DAV:   2    -0.132401241005E+04   -0.64367E+00   -0.60286E+00 36530   0.396E+00    0.191E+00
DAV:   3    -0.132402376194E+04   -0.11352E-01   -0.16507E-01 37140   0.809E-01    0.862E-01
DAV:   4    -0.132402341801E+04    0.34393E-03   -0.10584E-02 39420   0.191E-01    0.649E-01
DAV:   5    -0.132402167772E+04    0.17403E-02   -0.17493E-03 44030   0.168E-01    0.400E-01
DAV:   6    -0.132402075724E+04    0.92048E-03   -0.23048E-03 44000   0.180E-01    0.177E-01
DAV:   7    -0.132402139485E+04   -0.63762E-03   -0.11564E-03 38310   0.989E-02    0.848E-02
DAV:   8    -0.132402132163E+04    0.73219E-04   -0.12229E-04 28670   0.339E-02    0.379E-02
DAV:   9    -0.132402126592E+04    0.55717E-04   -0.22970E-05 19190   0.138E-02    0.256E-02
DAV:  10    -0.132402130671E+04   -0.40794E-04   -0.91561E-06 18160   0.107E-02
  46 F= -.13240213E+04 E0= -.13240213E+04  d E =0.251149E-01  mag=   120.0000
       N       E                     dE             d eps       ncg     rms          rms(c)
DAV:   1    -0.132387666673E+04    0.14460E+00   -0.41794E+00 49420   0.107E+01    0.193E+00
DAV:   2    -0.132403106686E+04   -0.15440E+00   -0.13290E+00 37850   0.174E+00    0.926E-01
DAV:   3    -0.132403589850E+04   -0.48316E-02   -0.42813E-02 37460   0.409E-01    0.423E-01
DAV:   4    -0.132403599766E+04   -0.99168E-04   -0.25685E-03 39260   0.908E-02    0.297E-01
DAV:   5    -0.132403572631E+04    0.27135E-03   -0.54883E-04 41800   0.777E-02    0.187E-01
DAV:   6    -0.132403540630E+04    0.32001E-03   -0.38409E-04 41810   0.746E-02    0.825E-02
DAV:   7    -0.132403563636E+04   -0.23006E-03   -0.21148E-04 36290   0.405E-02    0.398E-02
DAV:   8    -0.132403560308E+04    0.33282E-04   -0.33748E-05 20100   0.194E-02
  47 F= -.13240356E+04 E0= -.13240356E+04  d E =-.142964E-01  mag=   120.0000
       N       E                     dE             d eps       ncg     rms          rms(c)
DAV:   1    -0.132402631964E+04    0.93167E-02   -0.47758E-01 47090   0.327E+00    0.555E-01
DAV:   2    -0.132404013965E+04   -0.13820E-01   -0.12473E-01 37360   0.561E-01    0.267E-01
DAV:   3    -0.132404042672E+04   -0.28706E-03   -0.42494E-03 37500   0.135E-01    0.141E-01
DAV:   4    -0.132404045963E+04   -0.32916E-04   -0.26255E-04 30100   0.338E-02
  48 F= -.13240405E+04 E0= -.13240405E+04  d E =-.485656E-02  mag=   120.0000
       N       E                     dE             d eps       ncg     rms          rms(c)
DAV:   1    -0.132401996907E+04    0.20458E-01   -0.75665E-01 48260   0.426E+00    0.702E-01
DAV:   2    -0.132404282077E+04   -0.22852E-01   -0.20274E-01 36790   0.704E-01    0.340E-01
DAV:   3    -0.132404305321E+04   -0.23245E-03   -0.64228E-03 37270   0.163E-01    0.174E-01
DAV:   4    -0.132404314216E+04   -0.88949E-04   -0.40794E-04 32150   0.443E-02    0.127E-01
DAV:   5    -0.132404301494E+04    0.12723E-03   -0.80943E-05 23340   0.393E-02    0.849E-02
DAV:   6    -0.132404303404E+04   -0.19102E-04   -0.13363E-04 27950   0.434E-02
  49 F= -.13240430E+04 E0= -.13240430E+04  d E =-.257440E-02  mag=   120.0000
       N       E                     dE             d eps       ncg     rms          rms(c)
DAV:   1    -0.132392682767E+04    0.11619E+00   -0.53242E+00 46610   0.995E+00    0.160E+00
DAV:   2    -0.132404393995E+04   -0.11711E+00   -0.10596E+00 35700   0.165E+00    0.766E-01
DAV:   3    -0.132404589813E+04   -0.19582E-02   -0.33377E-02 37070   0.343E-01    0.335E-01
DAV:   4    -0.132404604530E+04   -0.14716E-03   -0.20054E-03 40370   0.779E-02    0.247E-01
DAV:   5    -0.132404560915E+04    0.43615E-03   -0.34301E-04 37040   0.820E-02    0.140E-01
DAV:   6    -0.132404568130E+04   -0.72149E-04   -0.42916E-04 40620   0.698E-02    0.663E-02
DAV:   7    -0.132404561721E+04    0.64093E-04   -0.15705E-04 29150   0.388E-02    0.294E-02
DAV:   8    -0.132404568345E+04   -0.66245E-04   -0.16270E-05 18170   0.117E-02    0.159E-02
DAV:   9    -0.132404566422E+04    0.19230E-04   -0.36934E-06 17930   0.519E-03
  50 F= -.13240457E+04 E0= -.13240457E+04  d E =-.263018E-02  mag=   120.0000
       N       E                     dE             d eps       ncg     rms          rms(c)
DAV:   1    -0.132310492167E+04    0.94076E+00   -0.53053E+01 44690   0.277E+01    0.451E+00
DAV:   2    -0.132401413191E+04   -0.90921E+00   -0.85886E+00 35920   0.475E+00    0.239E+00
DAV:   3    -0.132402722358E+04   -0.13092E-01   -0.23669E-01 37070   0.971E-01    0.104E+00
DAV:   4    -0.132402651370E+04    0.70988E-03   -0.15197E-02 40860   0.244E-01    0.752E-01
DAV:   5    -0.132402349363E+04    0.30201E-02   -0.30296E-03 42790   0.212E-01    0.450E-01
DAV:   6    -0.132402270262E+04    0.79101E-03   -0.36046E-03 42910   0.210E-01    0.215E-01
DAV:   7    -0.132402269777E+04    0.48560E-05   -0.17386E-03 37640   0.118E-01    0.101E-01
DAV:   8    -0.132402307811E+04   -0.38035E-03   -0.17169E-04 31690   0.404E-02    0.486E-02
DAV:   9    -0.132402297245E+04    0.10566E-03   -0.27881E-05 19480   0.145E-02    0.328E-02
DAV:  10    -0.132402295548E+04    0.16966E-04   -0.11344E-05 18730   0.117E-02
  51 F= -.13240230E+04 E0= -.13240230E+04  d E =0.227087E-01  mag=   120.0000
       N       E                     dE             d eps       ncg     rms          rms(c)
DAV:   1    -0.132383971089E+04    0.18326E+00   -0.64747E+00 48920   0.128E+01    0.215E+00
DAV:   2    -0.132403954101E+04   -0.19983E+00   -0.17188E+00 37530   0.207E+00    0.108E+00
DAV:   3    -0.132404485511E+04   -0.53141E-02   -0.62268E-02 37460   0.506E-01    0.511E-01
DAV:   4    -0.132404495757E+04   -0.10246E-03   -0.38048E-03 40400   0.136E-01    0.325E-01
DAV:   5    -0.132404469811E+04    0.25945E-03   -0.96073E-04 41320   0.104E-01    0.209E-01
DAV:   6    -0.132404431600E+04    0.38212E-03   -0.79931E-04 42170   0.107E-01    0.113E-01
DAV:   7    -0.132404459004E+04   -0.27404E-03   -0.39311E-04 38720   0.583E-02    0.435E-02
DAV:   8    -0.132404453613E+04    0.53912E-04   -0.49645E-05 21020   0.228E-02    0.231E-02
DAV:   9    -0.132404452839E+04    0.77318E-05   -0.13707E-05 18770   0.827E-03
  52 F= -.13240445E+04 E0= -.13240445E+04  d E =-.215729E-01  mag=   120.0000
       N       E                     dE             d eps       ncg     rms          rms(c)
DAV:   1    -0.132403601150E+04    0.85246E-02   -0.56390E-01 44610   0.295E+00    0.466E-01
DAV:   2    -0.132404583291E+04   -0.98214E-02   -0.94568E-02 37470   0.525E-01    0.232E-01
DAV:   3    -0.132404605079E+04   -0.21788E-03   -0.31373E-03 37390   0.117E-01    0.127E-01
DAV:   4    -0.132404600391E+04    0.46883E-04   -0.18535E-04 28430   0.279E-02
  53 F= -.13240460E+04 E0= -.13240460E+04  d E =-.147552E-02  mag=   120.0000
       N       E                     dE             d eps       ncg     rms          rms(c)
DAV:   1    -0.132401228560E+04    0.33765E-01   -0.14869E+00 44430   0.494E+00    0.833E-01
DAV:   2    -0.132404413865E+04   -0.31853E-01   -0.30568E-01 37140   0.880E-01    0.413E-01
DAV:   3    -0.132404467661E+04   -0.53797E-03   -0.82754E-03 37310   0.188E-01    0.222E-01
DAV:   4    -0.132404451716E+04    0.15946E-03   -0.55486E-04 35830   0.490E-02    0.168E-01
DAV:   5    -0.132404442342E+04    0.93737E-04   -0.12656E-04 27150   0.490E-02    0.110E-01
DAV:   6    -0.132404427517E+04    0.14826E-03   -0.25033E-04 37320   0.556E-02    0.472E-02
DAV:   7    -0.132404437447E+04   -0.99307E-04   -0.91974E-05 22450   0.265E-02    0.173E-02
DAV:   8    -0.132404433507E+04    0.39403E-04   -0.13345E-05 18360   0.917E-03
  54 F= -.13240443E+04 E0= -.13240443E+04  d E =0.166884E-02  mag=   120.0000
       N       E                     dE             d eps       ncg     rms          rms(c)
DAV:   1    -0.132397786272E+04    0.66512E-01   -0.31047E+00 44630   0.673E+00    0.119E+00
DAV:   2    -0.132404134289E+04   -0.63480E-01   -0.60098E-01 36240   0.117E+00    0.571E-01
DAV:   3    -0.132404221101E+04   -0.86812E-03   -0.17236E-02 37050   0.236E-01    0.264E-01
DAV:   4    -0.132404217139E+04    0.39620E-04   -0.10536E-03 39120   0.524E-02    0.205E-01
DAV:   5    -0.132404195423E+04    0.21716E-03   -0.14331E-04 28620   0.539E-02    0.122E-01
DAV:   6    -0.132404182549E+04    0.12873E-03   -0.27462E-04 39480   0.516E-02    0.456E-02
DAV:   7    -0.132404195063E+04   -0.12513E-03   -0.96280E-05 23410   0.265E-02    0.222E-02
DAV:   8    -0.132404191723E+04    0.33395E-04   -0.12816E-05 18000   0.101E-02
  55 F= -.13240419E+04 E0= -.13240419E+04  d E =0.241784E-02  mag=   120.0000
       N       E                     dE             d eps       ncg     rms          rms(c)
DAV:   1    -0.132390315526E+04    0.13880E+00   -0.92135E+00 42100   0.105E+01    0.164E+00
DAV:   2    -0.132403249230E+04   -0.12934E+00   -0.13036E+00 36300   0.187E+00    0.812E-01
DAV:   3    -0.132403343158E+04   -0.93927E-03   -0.35638E-02 37170   0.369E-01    0.401E-01
DAV:   4    -0.132403325863E+04    0.17295E-03   -0.22376E-03 39910   0.889E-02    0.298E-01
DAV:   5    -0.132403253290E+04    0.72572E-03   -0.56247E-04 42370   0.961E-02    0.169E-01
DAV:   6    -0.132403248591E+04    0.46986E-04   -0.69627E-04 41350   0.840E-02    0.823E-02
DAV:   7    -0.132403239777E+04    0.88142E-04   -0.25484E-04 35570   0.443E-02    0.332E-02
DAV:   8    -0.132403246953E+04   -0.71754E-04   -0.20935E-05 19340   0.133E-02    0.185E-02
DAV:   9    -0.132403244454E+04    0.24982E-04   -0.58078E-06 18250   0.656E-03
  56 F= -.13240324E+04 E0= -.13240324E+04  d E =0.947269E-02  mag=   120.0000
       N       E                     dE             d eps       ncg     rms          rms(c)
DAV:   1    -0.132398296302E+04    0.49507E-01   -0.16882E+00 46720   0.617E+00    0.104E+00
DAV:   2    -0.132403170656E+04   -0.48744E-01   -0.44043E-01 36890   0.105E+00    0.486E-01
DAV:   3    -0.132403260215E+04   -0.89560E-03   -0.12998E-02 37000   0.224E-01    0.233E-01
DAV:   4    -0.132403255382E+04    0.48336E-04   -0.77055E-04 35900   0.482E-02    0.175E-01
DAV:   5    -0.132403245814E+04    0.95676E-04   -0.13831E-04 28720   0.504E-02    0.108E-01
DAV:   6    -0.132403231577E+04    0.14237E-03   -0.19771E-04 33800   0.501E-02    0.458E-02
DAV:   7    -0.132403242287E+04   -0.10710E-03   -0.86687E-05 22170   0.265E-02    0.206E-02
DAV:   8    -0.132403240000E+04    0.22872E-04   -0.14181E-05 18260   0.104E-02
  57 F= -.13240324E+04 E0= -.13240324E+04  d E =0.445461E-04  mag=   120.0000
       N       E                     dE             d eps       ncg     rms          rms(c)
DAV:   1    -0.132402461240E+04    0.78105E-02   -0.68862E-01 42660   0.312E+00    0.526E-01
DAV:   2    -0.132403699607E+04   -0.12384E-01   -0.12116E-01 37240   0.564E-01    0.254E-01
DAV:   3    -0.132403723897E+04   -0.24290E-03   -0.32451E-03 37450   0.114E-01    0.130E-01
DAV:   4    -0.132403716605E+04    0.72914E-04   -0.19999E-04 28490   0.272E-02    0.972E-02
DAV:   5    -0.132403715388E+04    0.12171E-04   -0.62803E-05 22070   0.303E-02
  58 F= -.13240372E+04 E0= -.13240372E+04  d E =-.475389E-02  mag=   120.0000
       N       E                     dE             d eps       ncg     rms          rms(c)
DAV:   1    -0.132401402263E+04    0.23143E-01   -0.94903E-01 46210   0.421E+00    0.708E-01
DAV:   2    -0.132403744145E+04   -0.23419E-01   -0.21604E-01 36250   0.724E-01    0.340E-01
DAV:   3    -0.132403784578E+04   -0.40433E-03   -0.66287E-03 37030   0.157E-01    0.168E-01
DAV:   4    -0.132403787534E+04   -0.29561E-04   -0.41452E-04 32150   0.397E-02
  59 F= -.13240379E+04 E0= -.13240379E+04  d E =-.721453E-03  mag=   120.0000
       N       E                     dE             d eps       ncg     rms          rms(c)
DAV:   1    -0.132383007267E+04    0.20777E+00   -0.87449E+00 45850   0.122E+01    0.204E+00
DAV:   2    -0.132403372388E+04   -0.20365E+00   -0.18859E+00 36210   0.207E+00    0.105E+00
DAV:   3    -0.132403638572E+04   -0.26618E-02   -0.49444E-02 37140   0.410E-01    0.492E-01
DAV:   4    -0.132403622678E+04    0.15894E-03   -0.29779E-03 41360   0.102E-01    0.371E-01
DAV:   5    -0.132403547316E+04    0.75362E-03   -0.67464E-04 44080   0.112E-01    0.213E-01
DAV:   6    -0.132403537682E+04    0.96343E-04   -0.81123E-04 43480   0.958E-02    0.840E-02
DAV:   7    -0.132403532189E+04    0.54926E-04   -0.30937E-04 35350   0.511E-02    0.412E-02
DAV:   8    -0.132403543316E+04   -0.11127E-03   -0.26737E-05 19430   0.167E-02    0.212E-02
DAV:   9    -0.132403539102E+04    0.42140E-04   -0.64008E-06 18130   0.748E-03
  60 F= -.13240354E+04 E0= -.13240354E+04  d E =0.248432E-02  mag=   120.0000
       N       E                     dE             d eps       ncg     rms          rms(c)
DAV:   1    -0.132396834556E+04    0.67088E-01   -0.23679E+00 46370   0.704E+00    0.124E+00
DAV:   2    -0.132403750180E+04   -0.69156E-01   -0.62519E-01 37020   0.121E+00    0.584E-01
DAV:   3    -0.132403890507E+04   -0.14033E-02   -0.18038E-02 37200   0.253E-01    0.280E-01
DAV:   4    -0.132403893530E+04   -0.30236E-04   -0.11126E-03 38010   0.536E-02    0.217E-01
DAV:   5    -0.132403873384E+04    0.20147E-03   -0.16631E-04 31960   0.537E-02    0.133E-01
DAV:   6    -0.132403862196E+04    0.11187E-03   -0.24100E-04 40220   0.518E-02    0.373E-02
DAV:   7    -0.132403869442E+04   -0.72456E-04   -0.96222E-05 25560   0.221E-02    0.211E-02
DAV:   8    -0.132403869921E+04   -0.47905E-05   -0.97504E-06 18190   0.760E-03
  61 F= -.13240387E+04 E0= -.13240387E+04  d E =-.330819E-02  mag=   120.0000
       N       E                     dE             d eps       ncg     rms          rms(c)
DAV:   1    -0.132400499537E+04    0.33699E-01   -0.15531E+00 45400   0.516E+00    0.863E-01
DAV:   2    -0.132404093980E+04   -0.35944E-01   -0.33221E-01 36620   0.888E-01    0.422E-01
DAV:   3    -0.132404143164E+04   -0.49184E-03   -0.97040E-03 36960   0.185E-01    0.209E-01
DAV:   4    -0.132404145307E+04   -0.21424E-04   -0.58963E-04 36260   0.430E-02    0.155E-01
DAV:   5    -0.132404126012E+04    0.19294E-03   -0.97111E-05 25500   0.418E-02    0.924E-02
DAV:   6    -0.132404124127E+04    0.18859E-04   -0.16081E-04 34740   0.376E-02
  62 F= -.13240412E+04 E0= -.13240412E+04  d E =-.254206E-02  mag=   120.0000
       N       E                     dE             d eps       ncg     rms          rms(c)
DAV:   1    -0.132402260241E+04    0.18658E-01   -0.73697E-01 47590   0.380E+00    0.639E-01
DAV:   2    -0.132404152478E+04   -0.18922E-01   -0.16851E-01 35380   0.620E-01    0.306E-01
DAV:   3    -0.132404196294E+04   -0.43816E-03   -0.56687E-03 37180   0.133E-01    0.136E-01
DAV:   4    -0.132404194466E+04    0.18280E-04   -0.31990E-04 28950   0.279E-02
  63 F= -.13240419E+04 E0= -.13240419E+04  d E =-.703393E-03  mag=   120.0000
       N       E                     dE             d eps       ncg     rms          rms(c)
DAV:   1    -0.132372786961E+04    0.31409E+00   -0.11924E+01 46950   0.151E+01    0.255E+00
DAV:   2    -0.132403423141E+04   -0.30636E+00   -0.27347E+00 35390   0.247E+00    0.129E+00
DAV:   3    -0.132404082035E+04   -0.65889E-02   -0.90295E-02 37060   0.520E-01    0.568E-01
DAV:   4    -0.132404091634E+04   -0.95987E-04   -0.54415E-03 41310   0.116E-01    0.428E-01
DAV:   5    -0.132403995481E+04    0.96153E-03   -0.82389E-04 45330   0.124E-01    0.224E-01
DAV:   6    -0.132403960468E+04    0.35013E-03   -0.93720E-04 43520   0.990E-02    0.100E-01
DAV:   7    -0.132403993522E+04   -0.33054E-03   -0.35805E-04 35400   0.572E-02    0.478E-02
DAV:   8    -0.132403987427E+04    0.60947E-04   -0.30524E-05 19500   0.176E-02    0.213E-02
DAV:   9    -0.132403984308E+04    0.31190E-04   -0.70299E-06 18190   0.775E-03
  64 F= -.13240398E+04 E0= -.13240398E+04  d E =0.210158E-02  mag=   120.0000
       N       E                     dE             d eps       ncg     rms          rms(c)
DAV:   1    -0.132399040619E+04    0.49468E-01   -0.16770E+00 47290   0.582E+00    0.111E+00
DAV:   2    -0.132404204056E+04   -0.51634E-01   -0.45761E-01 37520   0.100E+00    0.515E-01
DAV:   3    -0.132404330416E+04   -0.12636E-02   -0.15233E-02 37270   0.223E-01    0.253E-01
DAV:   4    -0.132404335346E+04   -0.49296E-04   -0.94081E-04 37960   0.483E-02    0.183E-01
DAV:   5    -0.132404319312E+04    0.16034E-03   -0.13961E-04 31470   0.417E-02    0.112E-01
DAV:   6    -0.132404313487E+04    0.58251E-04   -0.16671E-04 35310   0.431E-02    0.309E-02
DAV:   7    -0.132404319442E+04   -0.59553E-04   -0.81391E-05 23850   0.215E-02    0.193E-02
DAV:   8    -0.132404317604E+04    0.18387E-04   -0.14353E-05 18530   0.978E-03
  65 F= -.13240432E+04 E0= -.13240432E+04  d E =-.333296E-02  mag=   120.0000
       N       E                     dE             d eps       ncg     rms          rms(c)
DAV:   1    -0.132402609362E+04    0.17101E-01   -0.74639E-01 45280   0.373E+00    0.637E-01
DAV:   2    -0.132404589509E+04   -0.19801E-01   -0.18112E-01 36740   0.640E-01    0.316E-01
DAV:   3    -0.132404616669E+04   -0.27161E-03   -0.54340E-03 37490   0.140E-01    0.165E-01
DAV:   4    -0.132404617494E+04   -0.82474E-05   -0.31607E-04 29280   0.304E-02
  66 F= -.13240462E+04 E0= -.13240462E+04  d E =-.299890E-02  mag=   120.0000
       N       E                     dE             d eps       ncg     rms          rms(c)
DAV:   1    -0.132403711260E+04    0.90541E-02   -0.36582E-01 46410   0.267E+00    0.474E-01
DAV:   2    -0.132404714798E+04   -0.10035E-01   -0.91474E-02 37110   0.453E-01    0.229E-01
DAV:   3    -0.132404729751E+04   -0.14952E-03   -0.27733E-03 37230   0.966E-02    0.115E-01
DAV:   4    -0.132404730468E+04   -0.71762E-05   -0.16120E-04 27260   0.213E-02
  67 F= -.13240473E+04 E0= -.13240473E+04  d E =-.112974E-02  mag=   120.0000
       N       E                     dE             d eps       ncg     rms          rms(c)
DAV:   1    -0.132391992396E+04    0.12737E+00   -0.52637E+00 45590   0.953E+00    0.166E+00
DAV:   2    -0.132404542824E+04   -0.12550E+00   -0.11689E+00 36370   0.164E+00    0.798E-01
DAV:   3    -0.132404748619E+04   -0.20580E-02   -0.34202E-02 36940   0.335E-01    0.378E-01
DAV:   4    -0.132404747599E+04    0.10205E-04   -0.21842E-03 39320   0.742E-02    0.296E-01
DAV:   5    -0.132404695656E+04    0.51943E-03   -0.31590E-04 36740   0.837E-02    0.166E-01
DAV:   6    -0.132404697093E+04   -0.14369E-04   -0.53442E-04 42050   0.727E-02    0.621E-02
DAV:   7    -0.132404690349E+04    0.67439E-04   -0.19129E-04 31390   0.397E-02    0.324E-02
DAV:   8    -0.132404698065E+04   -0.77159E-04   -0.16109E-05 18640   0.130E-02    0.155E-02
DAV:   9    -0.132404696515E+04    0.15494E-04   -0.39066E-06 18040   0.521E-03
  68 F= -.13240470E+04 E0= -.13240470E+04  d E =0.339528E-03  mag=   120.0000
       N       E                     dE             d eps       ncg     rms          rms(c)
DAV:   1    -0.132395163072E+04    0.95350E-01   -0.40561E+00 45090   0.820E+00    0.142E+00
DAV:   2    -0.132404296678E+04   -0.91336E-01   -0.84941E-01 36640   0.142E+00    0.683E-01
DAV:   3    -0.132404448436E+04   -0.15176E-02   -0.24525E-02 37140   0.293E-01    0.331E-01
DAV:   4    -0.132404445479E+04    0.29569E-04   -0.15131E-03 38650   0.700E-02    0.248E-01
DAV:   5    -0.132404405003E+04    0.40477E-03   -0.29184E-04 35720   0.718E-02    0.148E-01
DAV:   6    -0.132404409093E+04   -0.40902E-04   -0.41220E-04 40990   0.708E-02
  69 F= -.13240441E+04 E0= -.13240441E+04  d E =0.287423E-02  mag=   120.0000
       N       E                     dE             d eps       ncg     rms          rms(c)
DAV:   1    -0.132400865010E+04    0.35400E-01   -0.14066E+00 46540   0.535E+00    0.891E-01
DAV:   2    -0.132404709339E+04   -0.38443E-01   -0.34113E-01 36550   0.894E-01    0.442E-01
DAV:   3    -0.132404770647E+04   -0.61308E-03   -0.11251E-02 37320   0.198E-01    0.214E-01
DAV:   4    -0.132404773411E+04   -0.27642E-04   -0.66045E-04 34800   0.458E-02    0.155E-01
DAV:   5    -0.132404756147E+04    0.17264E-03   -0.11126E-04 26650   0.438E-02    0.939E-02
DAV:   6    -0.132404754646E+04    0.15015E-04   -0.16570E-04 33150   0.442E-02
  70 F= -.13240475E+04 E0= -.13240475E+04  d E =-.345553E-02  mag=   120.0000
       N       E                     dE             d eps       ncg     rms          rms(c)
DAV:   1    -0.132403784628E+04    0.97152E-02   -0.30703E-01 47700   0.268E+00    0.476E-01
DAV:   2    -0.132404789260E+04   -0.10046E-01   -0.89678E-02 37020   0.456E-01    0.225E-01
DAV:   3    -0.132404810338E+04   -0.21078E-03   -0.26816E-03 37400   0.100E-01    0.111E-01
DAV:   4    -0.132404811254E+04   -0.91681E-05   -0.15730E-04 25750   0.222E-02
  71 F= -.13240481E+04 E0= -.13240481E+04  d E =-.566089E-03  mag=   120.0000
       N       E                     dE             d eps       ncg     rms          rms(c)
DAV:   1    -0.132400150927E+04    0.46594E-01   -0.16103E+00 45970   0.565E+00    0.976E-01
DAV:   2    -0.132404661707E+04   -0.45108E-01   -0.41045E-01 36010   0.956E-01    0.472E-01
DAV:   3    -0.132404744753E+04   -0.83046E-03   -0.12008E-02 37390   0.197E-01    0.230E-01
DAV:   4    -0.132404743279E+04    0.14739E-04   -0.73010E-04 33590   0.423E-02    0.181E-01
DAV:   5    -0.132404722603E+04    0.20676E-03   -0.11843E-04 27310   0.556E-02    0.101E-01
DAV:   6    -0.132404728428E+04   -0.58247E-04   -0.23848E-04 37650   0.470E-02    0.425E-02
DAV:   7    -0.132404722440E+04    0.59882E-04   -0.70443E-05 22550   0.251E-02    0.180E-02
DAV:   8    -0.132404726069E+04   -0.36290E-04   -0.87929E-06 17940   0.816E-03
  72 F= -.13240473E+04 E0= -.13240473E+04  d E =0.851857E-03  mag=   120.0000
       N       E                     dE             d eps       ncg     rms          rms(c)
DAV:   1    -0.132392759496E+04    0.11963E+00   -0.48028E+00 45370   0.929E+00    0.154E+00
DAV:   2    -0.132404472037E+04   -0.11713E+00   -0.10818E+00 35670   0.157E+00    0.762E-01
DAV:   3    -0.132404663248E+04   -0.19121E-02   -0.32876E-02 37280   0.328E-01    0.363E-01
DAV:   4    -0.132404651845E+04    0.11403E-03   -0.18615E-03 40040   0.767E-02    0.275E-01
DAV:   5    -0.132404610846E+04    0.40999E-03   -0.31188E-04 37630   0.784E-02    0.160E-01
DAV:   6    -0.132404583600E+04    0.27246E-03   -0.47339E-04 41450   0.772E-02    0.740E-02
DAV:   7    -0.132404601821E+04   -0.18222E-03   -0.20450E-04 32960   0.413E-02    0.286E-02
DAV:   8    -0.132404597147E+04    0.46737E-04   -0.16469E-05 18560   0.124E-02
  73 F= -.13240460E+04 E0= -.13240460E+04  d E =0.128921E-02  mag=   120.0000
       N       E                     dE             d eps       ncg     rms          rms(c)
DAV:   1    -0.132403303906E+04    0.12979E-01   -0.53586E-01 46120   0.330E+00    0.562E-01
DAV:   2    -0.132404698254E+04   -0.13943E-01   -0.12645E-01 37410   0.575E-01    0.271E-01
DAV:   3    -0.132404736780E+04   -0.38526E-03   -0.40413E-03 37370   0.132E-01    0.142E-01
DAV:   4    -0.132404733180E+04    0.36003E-04   -0.24334E-04 28630   0.317E-02
  74 F= -.13240473E+04 E0= -.13240473E+04  d E =-.136032E-02  mag=   120.0000
       N       E                     dE             d eps       ncg     rms          rms(c)
DAV:   1    -0.132404182918E+04    0.55386E-02   -0.20080E-01 47590   0.212E+00    0.341E-01
DAV:   2    -0.132404759007E+04   -0.57609E-02   -0.52881E-02 37220   0.352E-01    0.184E-01
DAV:   3    -0.132404779735E+04   -0.20727E-03   -0.16373E-03 37380   0.805E-02    0.102E-01
DAV:   4    -0.132404774028E+04    0.57065E-04   -0.98981E-05 23530   0.223E-02    0.761E-02
DAV:   5    -0.132404776542E+04   -0.25144E-04   -0.36989E-05 20760   0.270E-02
  75 F= -.13240478E+04 E0= -.13240478E+04  d E =-.433630E-03  mag=   120.0000
       N       E                     dE             d eps       ncg     rms          rms(c)
DAV:   1    -0.132402693619E+04    0.20804E-01   -0.85273E-01 46220   0.396E+00    0.650E-01
DAV:   2    -0.132404710418E+04   -0.20168E-01   -0.18635E-01 35440   0.655E-01    0.321E-01
DAV:   3    -0.132404752591E+04   -0.42173E-03   -0.58791E-03 37290   0.139E-01    0.147E-01
DAV:   4    -0.132404755600E+04   -0.30095E-04   -0.34741E-04 30420   0.369E-02
  76 F= -.13240476E+04 E0= -.13240476E+04  d E =0.209424E-03  mag=   120.0000
       N       E                     dE             d eps       ncg     rms          rms(c)
DAV:   1    -0.132217766020E+04    0.18699E+01   -0.64725E+01 46350   0.354E+01    0.648E+00
DAV:   2    -0.132397264813E+04   -0.17950E+01   -0.16066E+01 35200   0.595E+00    0.430E+00
DAV:   3    -0.132400647800E+04   -0.33830E-01   -0.51939E-01 37180   0.135E+00    0.167E+00
DAV:   4    -0.132400587580E+04    0.60220E-03   -0.33430E-02 41010   0.337E-01    0.126E+00
DAV:   5    -0.132400126639E+04    0.46094E-02   -0.35053E-03 45300   0.206E-01    0.796E-01
DAV:   6    -0.132399757830E+04    0.36881E-02   -0.40867E-03 44280   0.270E-01    0.271E-01
DAV:   7    -0.132399820574E+04   -0.62743E-03   -0.30896E-03 38550   0.140E-01    0.143E-01
DAV:   8    -0.132399878886E+04   -0.58313E-03   -0.30512E-04 34620   0.567E-02    0.626E-02
DAV:   9    -0.132399866918E+04    0.11968E-03   -0.40376E-05 21450   0.169E-02    0.383E-02
DAV:  10    -0.132399862456E+04    0.44626E-04   -0.15773E-05 18920   0.148E-02
  77 F= -.13239986E+04 E0= -.13239986E+04  d E =0.489314E-01  mag=   120.0000
       N       E                     dE             d eps       ncg     rms          rms(c)
DAV:   1    -0.132305585214E+04    0.94282E+00   -0.29775E+01 46340   0.247E+01    0.476E+00
DAV:   2    -0.132403012684E+04   -0.97427E+00   -0.87353E+00 35650   0.425E+00    0.272E+00
DAV:   3    -0.132404625846E+04   -0.16132E-01   -0.24959E-01 37310   0.904E-01    0.118E+00
DAV:   4    -0.132404610335E+04    0.15511E-03   -0.16006E-02 40320   0.222E-01    0.916E-01
DAV:   5    -0.132404329838E+04    0.28050E-02   -0.15036E-03 45170   0.144E-01    0.595E-01
DAV:   6    -0.132404072743E+04    0.25709E-02   -0.19806E-03 45470   0.185E-01    0.172E-01
DAV:   7    -0.132404156242E+04   -0.83499E-03   -0.14536E-03 38870   0.770E-02    0.817E-02
DAV:   8    -0.132404150030E+04    0.62119E-04   -0.12303E-04 27950   0.331E-02    0.454E-02
DAV:   9    -0.132404148827E+04    0.12033E-04   -0.20197E-05 18790   0.131E-02
  78 F= -.13240415E+04 E0= -.13240415E+04  d E =-.428637E-01  mag=   120.0000
       N       E                     dE             d eps       ncg     rms          rms(c)
DAV:   1    -0.132379353061E+04    0.24797E+00   -0.73495E+00 47640   0.131E+01    0.223E+00
DAV:   2    -0.132403655093E+04   -0.24302E+00   -0.21142E+00 36370   0.212E+00    0.123E+00
DAV:   3    -0.132404110492E+04   -0.45540E-02   -0.71687E-02 37350   0.476E-01    0.537E-01
DAV:   4    -0.132404115055E+04   -0.45621E-04   -0.39883E-03 41930   0.117E-01    0.385E-01
DAV:   5    -0.132404050717E+04    0.64337E-03   -0.64962E-04 44420   0.991E-02    0.214E-01
DAV:   6    -0.132404000966E+04    0.49751E-03   -0.65075E-04 41950   0.995E-02    0.102E-01
DAV:   7    -0.132404025374E+04   -0.24408E-03   -0.38447E-04 37350   0.563E-02    0.425E-02
DAV:   8    -0.132404021168E+04    0.42056E-04   -0.31027E-05 19810   0.198E-02
  79 F= -.13240402E+04 E0= -.13240402E+04  d E =0.127659E-02  mag=   120.0000
       N       E                     dE             d eps       ncg     rms          rms(c)
DAV:   1    -0.132393992969E+04    0.10032E+00   -0.30884E+00 47380   0.856E+00    0.146E+00
DAV:   2    -0.132404342185E+04   -0.10349E+00   -0.91160E-01 35820   0.139E+00    0.738E-01
DAV:   3    -0.132404531361E+04   -0.18918E-02   -0.30507E-02 37240   0.312E-01    0.340E-01
DAV:   4    -0.132404552283E+04   -0.20922E-03   -0.17123E-03 40700   0.728E-02    0.251E-01
DAV:   5    -0.132404507314E+04    0.44969E-03   -0.25098E-04 34280   0.683E-02    0.142E-01
DAV:   6    -0.132404504677E+04    0.26370E-04   -0.32859E-04 40680   0.667E-02
  80 F= -.13240450E+04 E0= -.13240450E+04  d E =-.483509E-02  mag=   120.0000
       N       E                     dE             d eps       ncg     rms          rms(c)
DAV:   1    -0.132404075448E+04    0.43187E-02   -0.17214E-01 45470   0.172E+00    0.277E-01
DAV:   2    -0.132404445540E+04   -0.37009E-02   -0.34254E-02 35890   0.295E-01    0.140E-01
DAV:   3    -0.132404446941E+04   -0.14011E-04   -0.11137E-03 36260   0.666E-02    0.712E-02
DAV:   4    -0.132404452024E+04   -0.50837E-04   -0.71394E-05 22370   0.202E-02    0.500E-02
DAV:   5    -0.132404448644E+04    0.33807E-04   -0.14614E-05 18160   0.159E-02
  81 F= -.13240445E+04 E0= -.13240445E+04  d E =0.560335E-03  mag=   120.0000
       N       E                     dE             d eps       ncg     rms          rms(c)
DAV:   1    -0.132358785199E+04    0.45667E+00   -0.19990E+01 45490   0.187E+01    0.302E+00
DAV:   2    -0.132402287676E+04   -0.43502E+00   -0.40162E+00 35620   0.317E+00    0.160E+00
DAV:   3    -0.132402965936E+04   -0.67826E-02   -0.12035E-01 37150   0.647E-01    0.703E-01
DAV:   4    -0.132402951266E+04    0.14670E-03   -0.71633E-03 41140   0.151E-01    0.520E-01
DAV:   5    -0.132402810447E+04    0.14082E-02   -0.11642E-03 45060   0.138E-01    0.287E-01
DAV:   6    -0.132402747750E+04    0.62697E-03   -0.12724E-03 43180   0.120E-01    0.103E-01
DAV:   7    -0.132402783077E+04   -0.35327E-03   -0.57706E-04 37150   0.646E-02    0.655E-02
DAV:   8    -0.132402776343E+04    0.67340E-04   -0.55274E-05 21250   0.248E-02    0.276E-02
DAV:   9    -0.132402775450E+04    0.89218E-05   -0.11381E-05 18530   0.878E-03
  82 F= -.13240278E+04 E0= -.13240278E+04  d E =0.167319E-01  mag=   120.0000
       N       E                     dE             d eps       ncg     rms          rms(c)
DAV:   1    -0.132386255921E+04    0.16520E+00   -0.69865E+00 46250   0.115E+01    0.190E+00
DAV:   2    -0.132403759765E+04   -0.17504E+00   -0.15821E+00 35260   0.190E+00    0.995E-01
DAV:   3    -0.132404054332E+04   -0.29457E-02   -0.53339E-02 37230   0.414E-01    0.446E-01
DAV:   4    -0.132404066007E+04   -0.11675E-03   -0.30912E-03 41350   0.949E-02    0.327E-01
DAV:   5    -0.132404002060E+04    0.63947E-03   -0.45807E-04 42950   0.840E-02    0.177E-01
DAV:   6    -0.132403980179E+04    0.21881E-03   -0.43991E-04 42470   0.690E-02    0.505E-02
DAV:   7    -0.132403985465E+04   -0.52867E-04   -0.20266E-04 33650   0.349E-02    0.350E-02
DAV:   8    -0.132403991900E+04   -0.64343E-04   -0.19362E-05 19140   0.142E-02    0.178E-02
DAV:   9    -0.132403988746E+04    0.31539E-04   -0.42891E-06 18120   0.597E-03
  83 F= -.13240399E+04 E0= -.13240399E+04  d E =-.121330E-01  mag=   120.0000
       N       E                     dE             d eps       ncg     rms          rms(c)
DAV:   1    -0.132396576929E+04    0.74150E-01   -0.23343E+00 47560   0.730E+00    0.120E+00
DAV:   2    -0.132403991507E+04   -0.74146E-01   -0.64395E-01 36470   0.116E+00    0.623E-01
DAV:   3    -0.132404149151E+04   -0.15764E-02   -0.22305E-02 37110   0.265E-01    0.283E-01
DAV:   4    -0.132404146810E+04    0.23408E-04   -0.12443E-03 39500   0.688E-02    0.202E-01
DAV:   5    -0.132404133993E+04    0.12817E-03   -0.22601E-04 33730   0.610E-02    0.123E-01
DAV:   6    -0.132404108521E+04    0.25472E-03   -0.23425E-04 35540   0.597E-02    0.594E-02
DAV:   7    -0.132404123730E+04   -0.15209E-03   -0.11459E-04 26380   0.321E-02    0.228E-02
DAV:   8    -0.132404120786E+04    0.29439E-04   -0.14652E-05 18340   0.107E-02
  84 F= -.13240412E+04 E0= -.13240412E+04  d E =-.132041E-02  mag=   120.0000
       N       E                     dE             d eps       ncg     rms          rms(c)
DAV:   1    -0.132401648643E+04    0.24751E-01   -0.85916E-01 47180   0.440E+00    0.712E-01
DAV:   2    -0.132404130491E+04   -0.24818E-01   -0.22401E-01 36250   0.712E-01    0.364E-01
DAV:   3    -0.132404176999E+04   -0.46507E-03   -0.76567E-03 37120   0.162E-01    0.172E-01
DAV:   4    -0.132404188661E+04   -0.11662E-03   -0.42371E-04 31770   0.427E-02    0.121E-01
DAV:   5    -0.132404176060E+04    0.12601E-03   -0.82774E-05 22180   0.364E-02    0.768E-02
DAV:   6    -0.132404177693E+04   -0.16325E-04   -0.10549E-04 25330   0.380E-02
  85 F= -.13240418E+04 E0= -.13240418E+04  d E =-.569064E-03  mag=   120.0000
       N       E                     dE             d eps       ncg     rms          rms(c)
DAV:   1    -0.132399649653E+04    0.45264E-01   -0.18973E+00 45970   0.580E+00    0.942E-01
DAV:   2    -0.132403839805E+04   -0.41902E-01   -0.38868E-01 35590   0.978E-01    0.455E-01
DAV:   3    -0.132403902323E+04   -0.62518E-03   -0.11848E-02 37010   0.200E-01    0.208E-01
DAV:   4    -0.132403907844E+04   -0.55209E-04   -0.67937E-04 35530   0.458E-02    0.156E-01
DAV:   5    -0.132403887631E+04    0.20213E-03   -0.11454E-04 25410   0.505E-02    0.911E-02
DAV:   6    -0.132403893824E+04   -0.61926E-04   -0.20861E-04 35220   0.461E-02    0.448E-02
DAV:   7    -0.132403888174E+04    0.56498E-04   -0.65047E-05 20730   0.247E-02    0.156E-02
DAV:   8    -0.132403892085E+04   -0.39114E-04   -0.91315E-06 17920   0.770E-03
  86 F= -.13240389E+04 E0= -.13240389E+04  d E =0.285607E-02  mag=   120.0000
       N       E                     dE             d eps       ncg     rms          rms(c)
DAV:   1    -0.132401894330E+04    0.19938E-01   -0.74445E-01 46980   0.387E+00    0.660E-01
DAV:   2    -0.132403797684E+04   -0.19034E-01   -0.17344E-01 36380   0.653E-01    0.308E-01
DAV:   3    -0.132403842098E+04   -0.44415E-03   -0.53037E-03 37040   0.135E-01    0.140E-01
DAV:   4    -0.132403839100E+04    0.29985E-04   -0.31261E-04 29060   0.290E-02
  87 F= -.13240384E+04 E0= -.13240384E+04  d E =0.529854E-03  mag=   120.0000
       N       E                     dE             d eps       ncg     rms          rms(c)
DAV:   1    -0.132393666167E+04    0.10176E+00   -0.36386E+00 47450   0.882E+00    0.145E+00
DAV:   2    -0.132403466989E+04   -0.98008E-01   -0.87730E-01 36150   0.145E+00    0.718E-01
DAV:   3    -0.132403675766E+04   -0.20878E-02   -0.29182E-02 37120   0.309E-01    0.328E-01
DAV:   4    -0.132403672018E+04    0.37482E-04   -0.17141E-03 40310   0.690E-02    0.242E-01
DAV:   5    -0.132403642633E+04    0.29384E-03   -0.28344E-04 35870   0.764E-02    0.128E-01
DAV:   6    -0.132403624941E+04    0.17693E-03   -0.36134E-04 40080   0.599E-02    0.607E-02
DAV:   7    -0.132403639782E+04   -0.14842E-03   -0.12314E-04 26380   0.351E-02    0.271E-02
DAV:   8    -0.132403635149E+04    0.46336E-04   -0.14835E-05 18320   0.114E-02
  88 F= -.13240364E+04 E0= -.13240364E+04  d E =0.203951E-02  mag=   120.0000
       N       E                     dE             d eps       ncg     rms          rms(c)
DAV:   1    -0.132401921322E+04    0.17185E-01   -0.47959E-01 48910   0.369E+00    0.645E-01
DAV:   2    -0.132403729458E+04   -0.18081E-01   -0.15806E-01 37670   0.613E-01    0.315E-01
DAV:   3    -0.132403788079E+04   -0.58621E-03   -0.57036E-03 37440   0.152E-01    0.164E-01
DAV:   4    -0.132403786465E+04    0.16137E-04   -0.33664E-04 30300   0.372E-02
  89 F= -.13240379E+04 E0= -.13240379E+04  d E =-.151317E-02  mag=   120.0000
       N       E                     dE             d eps       ncg     rms          rms(c)
DAV:   1    -0.132403012793E+04    0.77529E-02   -0.27069E-01 45710   0.237E+00    0.385E-01
DAV:   2    -0.132403779118E+04   -0.76632E-02   -0.69547E-02 36380   0.375E-01    0.208E-01
DAV:   3    -0.132403797957E+04   -0.18839E-03   -0.22591E-03 37090   0.825E-02    0.101E-01
DAV:   4    -0.132403794267E+04    0.36893E-04   -0.11278E-04 23760   0.222E-02
  90 F= -.13240379E+04 E0= -.13240379E+04  d E =-.780190E-04  mag=   120.0000
       N       E                     dE             d eps       ncg     rms          rms(c)
DAV:   1    -0.132402376579E+04    0.14214E-01   -0.54796E-01 46110   0.318E+00    0.529E-01
DAV:   2    -0.132403638247E+04   -0.12617E-01   -0.11847E-01 36320   0.537E-01    0.253E-01
DAV:   3    -0.132403673007E+04   -0.34760E-03   -0.37156E-03 37290   0.117E-01    0.125E-01
DAV:   4    -0.132403664703E+04    0.83040E-04   -0.22635E-04 28300   0.308E-02    0.929E-02
DAV:   5    -0.132403664186E+04    0.51649E-05   -0.50781E-05 19690   0.298E-02
  91 F= -.13240366E+04 E0= -.13240366E+04  d E =0.130081E-02  mag=   120.0000
       N       E                     dE             d eps       ncg     rms          rms(c)
DAV:   1    -0.132401381142E+04    0.22836E-01   -0.12451E+00 44100   0.400E+00    0.693E-01
DAV:   2    -0.132403441078E+04   -0.20599E-01   -0.20286E-01 36270   0.710E-01    0.326E-01
DAV:   3    -0.132403477314E+04   -0.36236E-03   -0.58368E-03 36920   0.140E-01    0.158E-01
DAV:   4    -0.132403470171E+04    0.71429E-04   -0.37734E-04 30730   0.347E-02    0.119E-01
DAV:   5    -0.132403462175E+04    0.79956E-04   -0.75729E-05 21720   0.361E-02    0.749E-02
DAV:   6    -0.132403465085E+04   -0.29104E-04   -0.13216E-04 28940   0.358E-02
  92 F= -.13240347E+04 E0= -.13240347E+04  d E =0.199101E-02  mag=   120.0000
       N       E                     dE             d eps       ncg     rms          rms(c)
DAV:   1    -0.132402534253E+04    0.92792E-02   -0.38105E-01 46570   0.278E+00    0.474E-01
DAV:   2    -0.132403559259E+04   -0.10250E-01   -0.91997E-02 36160   0.467E-01    0.222E-01
DAV:   3    -0.132403566382E+04   -0.71222E-04   -0.28172E-03 37170   0.997E-02    0.105E-01
DAV:   4    -0.132403572462E+04   -0.60807E-04   -0.16813E-04 25800   0.227E-02    0.789E-02
DAV:   5    -0.132403565082E+04    0.73803E-04   -0.27729E-05 18540   0.224E-02    0.506E-02
DAV:   6    -0.132403565196E+04   -0.11446E-05   -0.42277E-05 19290   0.232E-02
  93 F= -.13240357E+04 E0= -.13240357E+04  d E =-.100111E-02  mag=   120.0000
       N       E                     dE             d eps       ncg     rms          rms(c)
DAV:   1    -0.132403254200E+04    0.31088E-02   -0.87754E-02 47770   0.151E+00    0.262E-01
DAV:   2    -0.132403573629E+04   -0.31943E-02   -0.28031E-02 37510   0.255E-01    0.128E-01
DAV:   3    -0.132403579957E+04   -0.63280E-04   -0.88648E-04 36910   0.589E-02    0.658E-02
DAV:   4    -0.132403581533E+04   -0.15767E-04   -0.48850E-05 21690   0.134E-02
  94 F= -.13240358E+04 E0= -.13240358E+04  d E =-.163371E-03  mag=   120.0000
       N       E                     dE             d eps       ncg     rms          rms(c)
DAV:   1    -0.132403502332E+04    0.77624E-03   -0.21070E-02 46310   0.680E-01    0.111E-01
DAV:   2    -0.132403568178E+04   -0.65845E-03   -0.56787E-03 36920   0.113E-01    0.621E-02
DAV:   3    -0.132403565437E+04    0.27402E-04   -0.16749E-04 25550   0.266E-02    0.352E-02
DAV:   4    -0.132403567534E+04   -0.20961E-04   -0.13375E-05 18670   0.945E-03
  95 F= -.13240357E+04 E0= -.13240357E+04  d E =0.139999E-03  mag=   120.0000
