       N       E                     dE             d eps       ncg     rms          rms(c)
DAV:   1     0.112264031340E+05    0.11226E+05   -0.43027E+05 34690   0.160E+03
DAV:   2     0.209400246900E+02   -0.11205E+05   -0.10197E+05 34160   0.487E+02
DAV:   3    -0.160906909361E+04   -0.16300E+04   -0.15449E+04 36410   0.197E+02
DAV:   4    -0.169271241082E+04   -0.83643E+02   -0.82436E+02 39160   0.456E+01
DAV:   5    -0.169378166944E+04   -0.10693E+01   -0.10660E+01 37620   0.557E+00    0.146E+02
DAV:   6    -0.128512295801E+04    0.40866E+03   -0.80927E+02 41470   0.758E+01    0.119E+02
DAV:   7    -0.133490297341E+04   -0.49780E+02   -0.35932E+02 36920   0.644E+01    0.876E+01
DAV:   8    -0.131001634302E+04    0.24887E+02   -0.50034E+01 38900   0.224E+01    0.682E+01
DAV:   9    -0.131689836486E+04   -0.68820E+01   -0.49353E+01 37030   0.306E+01    0.644E+01
DAV:  10    -0.132193738705E+04   -0.50390E+01   -0.26414E+01 37820   0.160E+01    0.387E+01
DAV:  11    -0.131875001003E+04    0.31874E+01   -0.75534E+00 36770   0.107E+01    0.161E+01
DAV:  12    -0.132252273504E+04   -0.37727E+01   -0.15562E+01 39400   0.628E+00    0.335E+01
DAV:  13    -0.131967759548E+04    0.28451E+01   -0.12131E+01 36930   0.568E+00    0.188E+01
DAV:  14    -0.132117443821E+04   -0.14968E+01   -0.11180E+00 36490   0.278E+00    0.181E+01
DAV:  15    -0.132147207814E+04   -0.29764E+00   -0.22961E-01 35610   0.861E-01    0.180E+01
DAV:  16    -0.132132249790E+04    0.14958E+00   -0.21968E-01 40500   0.870E-01    0.160E+01
DAV:  17    -0.132184021652E+04   -0.51772E+00   -0.26788E+00 39380   0.173E+00    0.126E+01
DAV:  18    -0.132244541530E+04   -0.60520E+00   -0.38589E-01 38630   0.117E+00    0.115E+01
DAV:  19    -0.132276310312E+04   -0.31769E+00   -0.33804E-01 40040   0.218E+00    0.784E+00
DAV:  20    -0.132280775091E+04   -0.44648E-01   -0.44888E-01 40690   0.265E+00    0.828E+00
DAV:  21    -0.132287653962E+04   -0.68789E-01   -0.27144E-01 37180   0.975E-01    0.789E+00
DAV:  22    -0.132292149781E+04   -0.44958E-01   -0.46301E-02 41770   0.600E-01    0.932E+00
DAV:  23    -0.132330076069E+04   -0.37926E+00   -0.70313E-02 35710   0.813E-01    0.130E+01
DAV:  24    -0.132341068763E+04   -0.10993E+00   -0.63699E-02 35260   0.598E-01    0.135E+01
DAV:  25    -0.132341509849E+04   -0.44109E-02   -0.12895E-02 34780   0.215E-01    0.137E+01
DAV:  26    -0.132352342099E+04   -0.10832E+00   -0.16045E-02 39430   0.632E-01    0.142E+01
DAV:  27    -0.132359481254E+04   -0.71392E-01   -0.12176E-02 42760   0.319E-01    0.144E+01
DAV:  28    -0.132355618587E+04    0.38627E-01   -0.46743E-02 37400   0.373E-01    0.154E+01
DAV:  29    -0.132369304023E+04   -0.13685E+00   -0.41955E-02 37400   0.645E-01    0.145E+01
DAV:  30    -0.132371242932E+04   -0.19389E-01   -0.17666E-01 42150   0.451E-01    0.126E+01
DAV:  31    -0.132370241154E+04    0.10018E-01   -0.61665E-02 36400   0.417E-01    0.123E+01
DAV:  32    -0.132371104701E+04   -0.86355E-02   -0.32729E-02 34410   0.182E-01    0.123E+01
DAV:  33    -0.132377918239E+04   -0.68135E-01   -0.57687E-02 42770   0.962E-01    0.131E+01
DAV:  34    -0.132392619131E+04   -0.14701E+00   -0.21221E-01 46270   0.648E-01    0.141E+01
DAV:  35    -0.132406154849E+04   -0.13536E+00   -0.28851E-01 36270   0.630E-01    0.149E+01
DAV:  36    -0.132406051715E+04    0.10313E-02   -0.11836E-01 36880   0.584E-01    0.147E+01
DAV:  37    -0.132405396671E+04    0.65504E-02   -0.26370E-02 41050   0.292E-01    0.144E+01
DAV:  38    -0.132403602859E+04    0.17938E-01   -0.47213E-03 40070   0.141E-01    0.142E+01
DAV:  39    -0.132397947861E+04    0.56550E-01   -0.19787E-03 41980   0.223E-01    0.139E+01
DAV:  40    -0.132361880083E+04    0.36068E+00   -0.74966E-02 41390   0.156E+00    0.116E+01
DAV:  41    -0.132354082584E+04    0.77975E-01   -0.91645E-01 45930   0.111E+00    0.111E+01
DAV:  42    -0.132384410031E+04   -0.30327E+00   -0.50696E-01 36430   0.112E+00    0.132E+01
DAV:  43    -0.132392005950E+04   -0.75959E-01   -0.35506E-02 35960   0.471E-01    0.134E+01
DAV:  44    -0.132392931242E+04   -0.92529E-02   -0.66791E-03 39980   0.261E-01    0.134E+01
DAV:  45    -0.132392079771E+04    0.85147E-02   -0.17024E-02 41650   0.665E-01    0.130E+01
DAV:  46    -0.132382053360E+04    0.10026E+00   -0.95524E-02 41390   0.144E+00    0.126E+01
DAV:  47    -0.132367392272E+04    0.14661E+00   -0.11357E-01 44920   0.799E-01    0.121E+01
DAV:  48    -0.132362093536E+04    0.52987E-01   -0.14208E-01 43250   0.406E-01    0.886E+00
DAV:  49    -0.132385767494E+04   -0.23674E+00   -0.15761E+00 35150   0.489E-01    0.727E+00
DAV:  50    -0.132405802278E+04   -0.20035E+00   -0.10066E-01 34400   0.795E-01    0.750E+00
DAV:  51    -0.132412120466E+04   -0.63182E-01   -0.13955E-02 40240   0.320E-01    0.747E+00
DAV:  52    -0.132410878074E+04    0.12424E-01   -0.13925E-02 40140   0.483E-01    0.715E+00
DAV:  53    -0.132413151086E+04   -0.22730E-01   -0.13285E-02 43810   0.463E-01    0.703E+00
DAV:  54    -0.132425273212E+04   -0.12122E+00   -0.18187E-02 43770   0.816E-01    0.696E+00
DAV:  55    -0.132430502492E+04   -0.52293E-01   -0.46497E-02 44930   0.928E-01    0.735E+00
DAV:  56    -0.132434470577E+04   -0.39681E-01   -0.30090E-02 37540   0.633E-01    0.675E+00
DAV:  57    -0.132433083209E+04    0.13874E-01   -0.47816E-03 37330   0.161E-01    0.680E+00
DAV:  58    -0.132433757852E+04   -0.67464E-02   -0.14331E-03 40430   0.127E-01    0.669E+00
DAV:  59    -0.132435089172E+04   -0.13313E-01   -0.27032E-03 40110   0.171E-01    0.657E+00
DAV:  60    -0.132435591696E+04   -0.50252E-02   -0.22599E-03 40110   0.175E-01    0.634E+00
DAV:  61    -0.132438055684E+04   -0.24640E-01   -0.82340E-03 39190   0.478E-01    0.561E+00
DAV:  62    -0.132436721001E+04    0.13347E-01   -0.12917E-02 40630   0.502E-01    0.576E+00
DAV:  63    -0.132436765286E+04   -0.44285E-03   -0.48973E-03 37010   0.109E-01    0.576E+00
DAV:  64    -0.132437289170E+04   -0.52388E-02   -0.10107E-04 28410   0.461E-02    0.577E+00
DAV:  65    -0.132437011260E+04    0.27791E-02   -0.21226E-04 33430   0.353E-02    0.577E+00
DAV:  66    -0.132435967552E+04    0.10437E-01   -0.99244E-02 41510   0.127E+00    0.746E+00
DAV:  67    -0.132437145425E+04   -0.11779E-01   -0.29549E-02 38090   0.698E-01    0.706E+00
DAV:  68    -0.132440628260E+04   -0.34828E-01   -0.21282E-02 43990   0.622E-01    0.726E+00
DAV:  69    -0.132443389631E+04   -0.27614E-01   -0.15194E-02 45970   0.441E-01    0.760E+00
DAV:  70    -0.132445341002E+04   -0.19514E-01   -0.88015E-03 45800   0.356E-01    0.793E+00
DAV:  71    -0.132452998816E+04   -0.76578E-01   -0.12133E-02 42050   0.714E-01    0.877E+00
DAV:  72    -0.132455780115E+04   -0.27813E-01   -0.16844E-02 40610   0.282E-01    0.917E+00
DAV:  73    -0.132455299420E+04    0.48070E-02   -0.36264E-03 35240   0.114E-01    0.913E+00
DAV:  74    -0.132455275239E+04    0.24181E-03   -0.13374E-04 32830   0.209E-02    0.913E+00
DAV:  75    -0.132455285071E+04   -0.98326E-04   -0.18805E-05 21350   0.181E-02    0.914E+00
DAV:  76    -0.132458072924E+04   -0.27879E-01   -0.11745E-02 42210   0.500E-01    0.964E+00
DAV:  77    -0.132457673479E+04    0.39944E-02   -0.67397E-03 40040   0.327E-01    0.977E+00
DAV:  78    -0.132457523000E+04    0.15048E-02   -0.16368E-03 34830   0.110E-01    0.968E+00
DAV:  79    -0.132453678154E+04    0.38448E-01   -0.28869E-03 43920   0.342E-01    0.918E+00
DAV:  80    -0.132447055359E+04    0.66228E-01   -0.21126E-02 46680   0.741E-01    0.825E+00
DAV:  81    -0.132440811008E+04    0.62444E-01   -0.38574E-02 46650   0.916E-01    0.741E+00
DAV:  82    -0.132439536295E+04    0.12747E-01   -0.36642E-02 43970   0.498E-01    0.732E+00
DAV:  83    -0.132439929669E+04   -0.39337E-02   -0.10308E-02 44680   0.814E-01    0.752E+00
DAV:  84    -0.132440760607E+04   -0.83094E-02   -0.24738E-02 44450   0.791E-01    0.786E+00
DAV:  85    -0.132442208213E+04   -0.14476E-01   -0.23808E-02 46010   0.621E-01    0.826E+00
DAV:  86    -0.132447468000E+04   -0.52598E-01   -0.27746E-02 44890   0.121E+00    0.931E+00
DAV:  87    -0.132448839113E+04   -0.13711E-01   -0.39558E-02 36870   0.311E-01    0.944E+00
DAV:  88    -0.132448760677E+04    0.78436E-03   -0.11109E-03 36900   0.589E-02    0.940E+00
DAV:  89    -0.132448822666E+04   -0.61989E-03   -0.43220E-05 24110   0.189E-02    0.942E+00
DAV:  90    -0.132448629676E+04    0.19299E-02   -0.72135E-05 25420   0.201E-02    0.940E+00
DAV:  91    -0.132419088180E+04    0.29541E+00   -0.10243E+00 38760   0.562E+00    0.417E+00
DAV:  92    -0.132413309023E+04    0.57792E-01   -0.32497E-01 37650   0.164E+00    0.253E+00
DAV:  93    -0.132412473360E+04    0.83566E-02   -0.85527E-02 38760   0.617E-01    0.158E+00
DAV:  94    -0.132411926617E+04    0.54674E-02   -0.15714E-02 37880   0.352E-01    0.101E+00
DAV:  95    -0.132411630351E+04    0.29627E-02   -0.51878E-03 37810   0.205E-01    0.815E-01
DAV:  96    -0.132411713365E+04   -0.83014E-03   -0.16070E-03 37330   0.107E-01    0.638E-01
DAV:  97    -0.132411641234E+04    0.72131E-03   -0.64320E-04 36620   0.783E-02    0.497E-01
DAV:  98    -0.132411607883E+04    0.33351E-03   -0.88208E-04 38610   0.758E-02    0.332E-01
DAV:  99    -0.132411605900E+04    0.19830E-04   -0.57245E-04 37190   0.463E-02    0.237E-01
DAV: 100    -0.132411590394E+04    0.15506E-03   -0.12494E-04 28880   0.238E-02    0.201E-01
DAV: 101    -0.132411589377E+04    0.10171E-04   -0.68376E-05 23310   0.203E-02
   1 F= -.13241159E+04 E0= -.13241159E+04  d E =-.132412E+04  mag=   113.9996
       N       E                     dE             d eps       ncg     rms          rms(c)
DAV:   1    -0.132411696867E+04   -0.10647E-02   -0.33114E-03 44450   0.263E-01    0.159E-01
DAV:   2    -0.132411733703E+04   -0.36836E-03   -0.94984E-04 38510   0.699E-02    0.120E-01
DAV:   3    -0.132411729750E+04    0.39526E-04   -0.13493E-04 28600   0.367E-02    0.561E-02
DAV:   4    -0.132411716477E+04    0.13273E-03   -0.20048E-05 18820   0.167E-02    0.330E-02
DAV:   5    -0.132411719486E+04   -0.30089E-04   -0.16280E-05 18480   0.155E-02
   2 F= -.13241172E+04 E0= -.13241172E+04  d E =-.130109E-02  mag=   114.0000
       N       E                     dE             d eps       ncg     rms          rms(c)
DAV:   1    -0.132411765322E+04   -0.48845E-03   -0.15298E-03 45350   0.190E-01    0.320E-02
DAV:   2    -0.132411769207E+04   -0.38850E-04   -0.41888E-04 32250   0.329E-02    0.173E-02
DAV:   3    -0.132411770133E+04   -0.92581E-05   -0.13674E-05 18310   0.870E-03    0.103E-02
DAV:   4    -0.132411769845E+04    0.28826E-05   -0.18872E-06 17920   0.345E-03
   3 F= -.13241177E+04 E0= -.13241177E+04  d E =-.503588E-03  mag=   114.0000
       N       E                     dE             d eps       ncg     rms          rms(c)
DAV:   1    -0.132141572376E+04    0.27020E+01   -0.90287E+01 48720   0.454E+01    0.759E+00
DAV:   2    -0.132391638082E+04   -0.25007E+01   -0.22080E+01 37210   0.763E+00    0.466E+00
DAV:   3    -0.132398286790E+04   -0.66487E-01   -0.80610E-01 36660   0.203E+00    0.226E+00
DAV:   4    -0.132397809871E+04    0.47692E-02   -0.62951E-02 40230   0.666E-01    0.149E+00
DAV:   5    -0.132397328425E+04    0.48145E-02   -0.12989E-02 40890   0.386E-01    0.102E+00
DAV:   6    -0.132396754511E+04    0.57391E-02   -0.11634E-02 42460   0.437E-01    0.493E-01
DAV:   7    -0.132396863958E+04   -0.10945E-02   -0.68062E-03 39130   0.238E-01    0.181E-01
DAV:   8    -0.132396890822E+04   -0.26864E-03   -0.11571E-03 36570   0.103E-01    0.107E-01
DAV:   9    -0.132396876536E+04    0.14286E-03   -0.18749E-04 30630   0.448E-02    0.599E-02
DAV:  10    -0.132396864776E+04    0.11760E-03   -0.59095E-05 22980   0.253E-02    0.345E-02
DAV:  11    -0.132396878556E+04   -0.13780E-03   -0.26463E-05 18850   0.136E-02    0.132E-02
DAV:  12    -0.132396876079E+04    0.24773E-04   -0.79272E-06 18600   0.604E-03
   4 F= -.13239688E+04 E0= -.13239688E+04  d E =0.148938E+00  mag=   114.0000
       N       E                     dE             d eps       ncg     rms          rms(c)
DAV:   1    -0.132165469906E+04    0.23141E+01   -0.72881E+01 49840   0.445E+01    0.764E+00
DAV:   2    -0.132398836249E+04   -0.23337E+01   -0.20335E+01 38470   0.737E+00    0.451E+00
DAV:   3    -0.132406036919E+04   -0.72007E-01   -0.76691E-01 37550   0.206E+00    0.216E+00
DAV:   4    -0.132406101846E+04   -0.64927E-03   -0.61338E-02 40120   0.702E-01    0.135E+00
DAV:   5    -0.132405533343E+04    0.56850E-02   -0.15796E-02 39550   0.402E-01    0.939E-01
DAV:   6    -0.132405147562E+04    0.38578E-02   -0.11425E-02 41940   0.405E-01    0.463E-01
DAV:   7    -0.132405134925E+04    0.12637E-03   -0.61620E-03 39690   0.236E-01    0.190E-01
DAV:   8    -0.132405246001E+04   -0.11108E-02   -0.15409E-03 37450   0.110E-01    0.106E-01
DAV:   9    -0.132405245583E+04    0.41848E-05   -0.27443E-04 34610   0.470E-02
   5 F= -.13240525E+04 E0= -.13240525E+04  d E =-.836950E-01  mag=   114.0000
       N       E                     dE             d eps       ncg     rms          rms(c)
DAV:   1    -0.132387032621E+04    0.18213E+00   -0.73315E+00 50130   0.146E+01    0.238E+00
DAV:   2    -0.132411095750E+04   -0.24063E+00   -0.21168E+00 38080   0.239E+00    0.115E+00
DAV:   3    -0.132411957142E+04   -0.86139E-02   -0.85702E-02 37790   0.602E-01    0.590E-01
DAV:   4    -0.132411945095E+04    0.12047E-03   -0.47414E-03 40420   0.145E-01    0.369E-01
DAV:   5    -0.132411822262E+04    0.12283E-02   -0.17868E-03 41250   0.121E-01    0.215E-01
DAV:   6    -0.132411815031E+04    0.72302E-04   -0.95629E-04 40790   0.114E-01    0.129E-01
DAV:   7    -0.132411793177E+04    0.21855E-03   -0.55377E-04 38170   0.677E-02    0.564E-02
DAV:   8    -0.132411805817E+04   -0.12640E-03   -0.89406E-05 24840   0.337E-02    0.277E-02
DAV:   9    -0.132411803486E+04    0.23307E-04   -0.30517E-05 19110   0.150E-02
   6 F= -.13241180E+04 E0= -.13241180E+04  d E =-.655790E-01  mag=   114.0000
       N       E                     dE             d eps       ncg     rms          rms(c)
DAV:   1    -0.132407734501E+04    0.40713E-01   -0.13925E+00 49850   0.626E+00    0.102E+00
DAV:   2    -0.132412274481E+04   -0.45400E-01   -0.40419E-01 37910   0.104E+00    0.499E-01
DAV:   3    -0.132412400369E+04   -0.12589E-02   -0.15728E-02 37400   0.262E-01    0.266E-01
DAV:   4    -0.132412417898E+04   -0.17529E-03   -0.96650E-04 39570   0.730E-02    0.169E-01
DAV:   5    -0.132412389705E+04    0.28193E-03   -0.31242E-04 34040   0.545E-02    0.112E-01
DAV:   6    -0.132412394180E+04   -0.44752E-04   -0.22986E-04 35670   0.570E-02
   7 F= -.13241239E+04 E0= -.13241239E+04  d E =-.590694E-02  mag=   114.0000
       N       E                     dE             d eps       ncg     rms          rms(c)
DAV:   1    -0.132379051835E+04    0.33338E+00   -0.10964E+01 47220   0.151E+01    0.257E+00
DAV:   2    -0.132408435597E+04   -0.29384E+00   -0.26821E+00 37360   0.261E+00    0.131E+00
DAV:   3    -0.132408990267E+04   -0.55467E-02   -0.90327E-02 37030   0.633E-01    0.696E-01
DAV:   4    -0.132409033299E+04   -0.43032E-03   -0.62251E-03 39590   0.194E-01    0.481E-01
DAV:   5    -0.132408907110E+04    0.12619E-02   -0.16393E-03 41890   0.140E-01    0.326E-01
DAV:   6    -0.132408874083E+04    0.33027E-03   -0.16623E-03 42070   0.156E-01    0.159E-01
DAV:   7    -0.132408850262E+04    0.23821E-03   -0.86404E-04 39190   0.836E-02    0.590E-02
DAV:   8    -0.132408863080E+04   -0.12818E-03   -0.13428E-04 28690   0.364E-02    0.392E-02
DAV:   9    -0.132408864144E+04   -0.10636E-04   -0.30224E-05 19860   0.170E-02
   8 F= -.13240886E+04 E0= -.13240886E+04  d E =0.353004E-01  mag=   114.0000
       N       E                     dE             d eps       ncg     rms          rms(c)
DAV:   1    -0.131975473731E+04    0.43339E+01   -0.10804E+02 49730   0.569E+01    0.999E+00
DAV:   2    -0.132361313656E+04   -0.38584E+01   -0.33913E+01 38490   0.945E+00    0.581E+00
DAV:   3    -0.132374790331E+04   -0.13477E+00   -0.12815E+00 37460   0.245E+00    0.269E+00
DAV:   4    -0.132374693023E+04    0.97308E-03   -0.79491E-02 41740   0.660E-01    0.171E+00
DAV:   5    -0.132373610542E+04    0.10825E-01   -0.22944E-02 40360   0.445E-01    0.115E+00
DAV:   6    -0.132373180174E+04    0.43037E-02   -0.18022E-02 41040   0.528E-01    0.708E-01
DAV:   7    -0.132373065113E+04    0.11506E-02   -0.12544E-02 39960   0.372E-01    0.279E-01
DAV:   8    -0.132373221738E+04   -0.15662E-02   -0.26506E-03 37620   0.164E-01    0.122E-01
DAV:   9    -0.132373197357E+04    0.24381E-03   -0.68575E-04 37130   0.602E-02    0.101E-01
DAV:  10    -0.132373172428E+04    0.24929E-03   -0.83098E-05 24710   0.317E-02    0.578E-02
DAV:  11    -0.132373196537E+04   -0.24109E-03   -0.50787E-05 23250   0.242E-02    0.296E-02
DAV:  12    -0.132373201771E+04   -0.52341E-04   -0.33274E-05 19690   0.177E-02    0.204E-02
DAV:  13    -0.132373194444E+04    0.73272E-04   -0.79966E-06 18730   0.780E-03    0.992E-03
DAV:  14    -0.132373193603E+04    0.84161E-05   -0.26356E-06 18420   0.376E-03
   9 F= -.13237319E+04 E0= -.13237319E+04  d E =0.356705E+00  mag=   114.0000
       N       E                     dE             d eps       ncg     rms          rms(c)
DAV:   1    -0.132285205257E+04    0.87989E+00   -0.38396E+01 50080   0.324E+01    0.536E+00
DAV:   2    -0.132403011195E+04   -0.11781E+01   -0.10443E+01 38370   0.538E+00    0.281E+00
DAV:   3    -0.132407312445E+04   -0.43012E-01   -0.42676E-01 37830   0.139E+00    0.143E+00
DAV:   4    -0.132407314809E+04   -0.23646E-04   -0.26579E-02 40040   0.408E-01    0.879E-01
DAV:   5    -0.132406810566E+04    0.50424E-02   -0.98004E-03 40090   0.302E-01    0.593E-01
DAV:   6    -0.132406643249E+04    0.16732E-02   -0.71874E-03 40450   0.314E-01    0.360E-01
DAV:   7    -0.132406585510E+04    0.57739E-03   -0.36633E-03 39350   0.192E-01    0.133E-01
DAV:   8    -0.132406632876E+04   -0.47366E-03   -0.10030E-03 37450   0.936E-02    0.894E-02
DAV:   9    -0.132406628975E+04    0.39014E-04   -0.23792E-04 34530   0.420E-02
  10 F= -.13240663E+04 E0= -.13240663E+04  d E =-.334354E+00  mag=   114.0000
       N       E                     dE             d eps       ncg     rms          rms(c)
DAV:   1    -0.132389503848E+04    0.17129E+00   -0.60769E+00 50000   0.131E+01    0.213E+00
DAV:   2    -0.132409229318E+04   -0.19725E+00   -0.17501E+00 38030   0.216E+00    0.106E+00
DAV:   3    -0.132409870221E+04   -0.64090E-02   -0.69892E-02 37370   0.552E-01    0.559E-01
DAV:   4    -0.132409906639E+04   -0.36418E-03   -0.43226E-03 39260   0.157E-01    0.348E-01
DAV:   5    -0.132409817047E+04    0.89592E-03   -0.14042E-03 40660   0.113E-01    0.232E-01
DAV:   6    -0.132409811457E+04    0.55902E-04   -0.10032E-03 41940   0.118E-01    0.129E-01
DAV:   7    -0.132409791372E+04    0.20085E-03   -0.49946E-04 38730   0.680E-02    0.524E-02
DAV:   8    -0.132409803675E+04   -0.12303E-03   -0.11454E-04 25930   0.342E-02    0.328E-02
DAV:   9    -0.132409802915E+04    0.75953E-05   -0.34414E-05 19710   0.171E-02
  11 F= -.13240980E+04 E0= -.13240980E+04  d E =-.317394E-01  mag=   114.0000
       N       E                     dE             d eps       ncg     rms          rms(c)
DAV:   1    -0.132394504252E+04    0.15299E+00   -0.45773E+00 48620   0.107E+01    0.184E+00
DAV:   2    -0.132409088770E+04   -0.14585E+00   -0.13038E+00 37450   0.181E+00    0.875E-01
DAV:   3    -0.132409462067E+04   -0.37330E-02   -0.43297E-02 37140   0.423E-01    0.427E-01
DAV:   4    -0.132409479223E+04   -0.17156E-03   -0.26529E-03 39450   0.102E-01    0.307E-01
DAV:   5    -0.132409422988E+04    0.56235E-03   -0.57952E-04 39950   0.819E-02    0.202E-01
DAV:   6    -0.132409424095E+04   -0.11064E-04   -0.51221E-04 42310   0.917E-02    0.949E-02
DAV:   7    -0.132409409966E+04    0.14128E-03   -0.28439E-04 37600   0.498E-02    0.411E-02
DAV:   8    -0.132409420860E+04   -0.10894E-03   -0.46615E-05 20810   0.214E-02    0.200E-02
DAV:   9    -0.132409419055E+04    0.18047E-04   -0.11659E-05 18560   0.103E-02
  12 F= -.13240942E+04 E0= -.13240942E+04  d E =0.383860E-02  mag=   114.0000
       N       E                     dE             d eps       ncg     rms          rms(c)
DAV:   1    -0.132055131759E+04    0.35429E+01   -0.10799E+02 49460   0.519E+01    0.889E+00
DAV:   2    -0.132369875278E+04   -0.31474E+01   -0.28267E+01 38390   0.881E+00    0.507E+00
DAV:   3    -0.132379936533E+04   -0.10061E+00   -0.10626E+00 37430   0.236E+00    0.253E+00
DAV:   4    -0.132379747673E+04    0.18886E-02   -0.83986E-02 40320   0.794E-01    0.159E+00
DAV:   5    -0.132378830444E+04    0.91723E-02   -0.23435E-02 39620   0.492E-01    0.116E+00
DAV:   6    -0.132378262610E+04    0.56783E-02   -0.18057E-02 40830   0.507E-01    0.606E-01
DAV:   7    -0.132378195859E+04    0.66751E-03   -0.99433E-03 40660   0.311E-01    0.214E-01
DAV:   8    -0.132378330462E+04   -0.13460E-02   -0.27697E-03 38270   0.144E-01    0.129E-01
DAV:   9    -0.132378320840E+04    0.96213E-04   -0.52786E-04 37030   0.571E-02    0.898E-02
DAV:  10    -0.132378286365E+04    0.34475E-03   -0.92080E-05 25370   0.305E-02    0.534E-02
DAV:  11    -0.132378311392E+04   -0.25027E-03   -0.50397E-05 23000   0.218E-02    0.279E-02
DAV:  12    -0.132378315580E+04   -0.41879E-04   -0.26607E-05 19500   0.160E-02
  13 F= -.13237832E+04 E0= -.13237832E+04  d E =0.311035E+00  mag=   114.0000
       N       E                     dE             d eps       ncg     rms          rms(c)
DAV:   1    -0.132124372447E+04    0.25394E+01   -0.84703E+01 49860   0.488E+01    0.835E+00
DAV:   2    -0.132399213689E+04   -0.27484E+01   -0.24209E+01 38300   0.816E+00    0.455E+00
DAV:   3    -0.132409382453E+04   -0.10169E+00   -0.98815E-01 37850   0.213E+00    0.220E+00
DAV:   4    -0.132409320491E+04    0.61961E-03   -0.62646E-02 40370   0.635E-01    0.140E+00
DAV:   5    -0.132408343328E+04    0.97716E-02   -0.20333E-02 39910   0.432E-01    0.974E-01
DAV:   6    -0.132407889179E+04    0.45415E-02   -0.15410E-02 40520   0.472E-01    0.591E-01
DAV:   7    -0.132407798909E+04    0.90269E-03   -0.88800E-03 39750   0.309E-01    0.222E-01
DAV:   8    -0.132407917042E+04   -0.11813E-02   -0.25790E-03 37740   0.149E-01    0.137E-01
DAV:   9    -0.132407905420E+04    0.11622E-03   -0.57736E-04 37170   0.615E-02    0.102E-01
DAV:  10    -0.132407880198E+04    0.25222E-03   -0.71638E-05 24890   0.298E-02    0.542E-02
DAV:  11    -0.132407903772E+04   -0.23574E-03   -0.48633E-05 23440   0.222E-02    0.226E-02
DAV:  12    -0.132407904592E+04   -0.82001E-05   -0.23833E-05 19120   0.132E-02
  14 F= -.13240790E+04 E0= -.13240790E+04  d E =-.295890E+00  mag=   114.0000
       N       E                     dE             d eps       ncg     rms          rms(c)
DAV:   1    -0.132404891274E+04    0.30125E-01   -0.18152E+00 49990   0.676E+00    0.109E+00
DAV:   2    -0.132409877585E+04   -0.49863E-01   -0.44449E-01 38190   0.113E+00    0.549E-01
DAV:   3    -0.132410068490E+04   -0.19090E-02   -0.20057E-02 37880   0.293E-01    0.303E-01
DAV:   4    -0.132410050235E+04    0.18255E-03   -0.11174E-03 39910   0.804E-02    0.172E-01
DAV:   5    -0.132410037109E+04    0.13126E-03   -0.41552E-04 35900   0.630E-02    0.105E-01
DAV:   6    -0.132410024403E+04    0.12706E-03   -0.31554E-04 36630   0.642E-02    0.716E-02
DAV:   7    -0.132410028498E+04   -0.40954E-04   -0.15287E-04 30630   0.375E-02
  15 F= -.13241003E+04 E0= -.13241003E+04  d E =-.212391E-01  mag=   114.0000
       N       E                     dE             d eps       ncg     rms          rms(c)
DAV:   1    -0.132379732947E+04    0.30291E+00   -0.13115E+01 47410   0.161E+01    0.260E+00
DAV:   2    -0.132408612393E+04   -0.28879E+00   -0.26637E+00 37590   0.278E+00    0.127E+00
DAV:   3    -0.132409406406E+04   -0.79401E-02   -0.94380E-02 37580   0.657E-01    0.663E-01
DAV:   4    -0.132409341423E+04    0.64983E-03   -0.53108E-03 39640   0.161E-01    0.433E-01
DAV:   5    -0.132409244475E+04    0.96948E-03   -0.16491E-03 41850   0.140E-01    0.260E-01
DAV:   6    -0.132409181105E+04    0.63370E-03   -0.14908E-03 40960   0.143E-01    0.146E-01
DAV:   7    -0.132409207391E+04   -0.26286E-03   -0.79755E-04 38770   0.766E-02    0.565E-02
DAV:   8    -0.132409206500E+04    0.89128E-05   -0.88217E-05 25200   0.332E-02
  16 F= -.13240921E+04 E0= -.13240921E+04  d E =0.821998E-02  mag=   114.0000
       N       E                     dE             d eps       ncg     rms          rms(c)
DAV:   1    -0.132004932654E+04    0.40427E+01   -0.11414E+02 49910   0.553E+01    0.101E+01
DAV:   2    -0.132371811595E+04   -0.36688E+01   -0.32341E+01 38480   0.932E+00    0.597E+00
DAV:   3    -0.132383990642E+04   -0.12179E+00   -0.12561E+00 37730   0.244E+00    0.275E+00
DAV:   4    -0.132384016017E+04   -0.25376E-03   -0.80840E-02 39650   0.720E-01    0.176E+00
DAV:   5    -0.132382949926E+04    0.10661E-01   -0.20512E-02 39750   0.455E-01    0.125E+00
DAV:   6    -0.132382425539E+04    0.52439E-02   -0.17307E-02 40410   0.523E-01    0.783E-01
DAV:   7    -0.132382234471E+04    0.19107E-02   -0.11745E-02 40720   0.368E-01    0.258E-01
DAV:   8    -0.132382409440E+04   -0.17497E-02   -0.37408E-03 38080   0.175E-01    0.162E-01
DAV:   9    -0.132382390801E+04    0.18638E-03   -0.84966E-04 37110   0.753E-02    0.115E-01
DAV:  10    -0.132382356895E+04    0.33906E-03   -0.99699E-05 27010   0.334E-02    0.603E-02
DAV:  11    -0.132382377417E+04   -0.20521E-03   -0.57196E-05 23410   0.226E-02    0.245E-02
DAV:  12    -0.132382379190E+04   -0.17732E-04   -0.25049E-05 19250   0.139E-02
  17 F= -.13238238E+04 E0= -.13238238E+04  d E =0.268273E+00  mag=   114.0000
       N       E                     dE             d eps       ncg     rms          rms(c)
DAV:   1    -0.132164392083E+04    0.21799E+01   -0.84036E+01 50330   0.462E+01    0.782E+00
DAV:   2    -0.132401415378E+04   -0.23702E+01   -0.20942E+01 38210   0.789E+00    0.496E+00
DAV:   3    -0.132410812370E+04   -0.93970E-01   -0.10039E+00 37870   0.225E+00    0.240E+00
DAV:   4    -0.132410376807E+04    0.43556E-02   -0.68779E-02 39960   0.761E-01    0.136E+00
DAV:   5    -0.132409478948E+04    0.89786E-02   -0.24086E-02 39530   0.513E-01    0.993E-01
DAV:   6    -0.132408936712E+04    0.54224E-02   -0.20111E-02 40470   0.519E-01    0.560E-01
DAV:   7    -0.132408799353E+04    0.13736E-02   -0.10337E-02 39980   0.329E-01    0.241E-01
DAV:   8    -0.132408939557E+04   -0.14020E-02   -0.37964E-03 38690   0.157E-01    0.157E-01
DAV:   9    -0.132408906275E+04    0.33281E-03   -0.58854E-04 37360   0.684E-02    0.110E-01
DAV:  10    -0.132408893477E+04    0.12799E-03   -0.95363E-05 26850   0.319E-02    0.631E-02
DAV:  11    -0.132408915417E+04   -0.21941E-03   -0.58734E-05 23260   0.252E-02    0.267E-02
DAV:  12    -0.132408913739E+04    0.16781E-04   -0.35955E-05 19830   0.165E-02
  18 F= -.13240891E+04 E0= -.13240891E+04  d E =-.265345E+00  mag=   114.0000
       N       E                     dE             d eps       ncg     rms          rms(c)
DAV:   1    -0.132406290411E+04    0.26250E-01   -0.18657E+00 49760   0.673E+00    0.108E+00
DAV:   2    -0.132411230224E+04   -0.49398E-01   -0.44915E-01 38140   0.115E+00    0.565E-01
DAV:   3    -0.132411387654E+04   -0.15743E-02   -0.20455E-02 37750   0.310E-01    0.331E-01
DAV:   4    -0.132411397972E+04   -0.10318E-03   -0.12075E-03 39220   0.896E-02    0.184E-01
DAV:   5    -0.132411356378E+04    0.41594E-03   -0.40319E-04 35150   0.618E-02    0.122E-01
DAV:   6    -0.132411358547E+04   -0.21693E-04   -0.36772E-04 37120   0.680E-02
  19 F= -.13241136E+04 E0= -.13241136E+04  d E =-.244481E-01  mag=   114.0000
       N       E                     dE             d eps       ncg     rms          rms(c)
DAV:   1    -0.132311961187E+04    0.99395E+00   -0.38350E+01 48340   0.283E+01    0.464E+00
DAV:   2    -0.132404571986E+04   -0.92611E+00   -0.84292E+00 37890   0.483E+00    0.240E+00
DAV:   3    -0.132406732263E+04   -0.21603E-01   -0.27108E-01 37570   0.115E+00    0.125E+00
DAV:   4    -0.132406675917E+04    0.56346E-03   -0.16796E-02 40180   0.333E-01    0.797E-01
DAV:   5    -0.132406304078E+04    0.37184E-02   -0.50842E-03 42320   0.243E-01    0.537E-01
DAV:   6    -0.132406207772E+04    0.96306E-03   -0.52271E-03 40470   0.272E-01    0.306E-01
DAV:   7    -0.132406152369E+04    0.55403E-03   -0.28562E-03 39460   0.154E-01    0.109E-01
DAV:   8    -0.132406180009E+04   -0.27641E-03   -0.59645E-04 36560   0.752E-02    0.751E-02
DAV:   9    -0.132406181100E+04   -0.10907E-04   -0.13032E-04 28800   0.339E-02
  20 F= -.13240618E+04 E0= -.13240618E+04  d E =0.517745E-01  mag=   114.0000
       N       E                     dE             d eps       ncg     rms          rms(c)
DAV:   1    -0.131917881107E+04    0.48830E+01   -0.14164E+02 50200   0.615E+01    0.109E+01
DAV:   2    -0.132361769542E+04   -0.44389E+01   -0.39032E+01 38190   0.104E+01    0.724E+00
DAV:   3    -0.132378141913E+04   -0.16372E+00   -0.18408E+00 37630   0.324E+00    0.346E+00
DAV:   4    -0.132377340800E+04    0.80111E-02   -0.16587E-01 39490   0.124E+00    0.203E+00
DAV:   5    -0.132376063477E+04    0.12773E-01   -0.39515E-02 38780   0.620E-01    0.144E+00
DAV:   6    -0.132375200941E+04    0.86254E-02   -0.23468E-02 40460   0.569E-01    0.732E-01
DAV:   7    -0.132375109313E+04    0.91628E-03   -0.13316E-02 40370   0.347E-01    0.255E-01
DAV:   8    -0.132375328381E+04   -0.21907E-02   -0.46976E-03 38590   0.159E-01    0.147E-01
DAV:   9    -0.132375268916E+04    0.59465E-03   -0.72126E-04 38200   0.565E-02    0.120E-01
DAV:  10    -0.132375250605E+04    0.18311E-03   -0.10738E-04 26720   0.364E-02    0.679E-02
DAV:  11    -0.132375278032E+04   -0.27427E-03   -0.67362E-05 24390   0.251E-02    0.377E-02
DAV:  12    -0.132375283461E+04   -0.54292E-04   -0.36352E-05 20170   0.195E-02    0.203E-02
DAV:  13    -0.132375272062E+04    0.11399E-03   -0.12522E-05 18770   0.941E-03    0.135E-02
DAV:  14    -0.132375273826E+04   -0.17639E-04   -0.30470E-06 18520   0.419E-03
  21 F= -.13237527E+04 E0= -.13237527E+04  d E =0.309073E+00  mag=   114.0000
       N       E                     dE             d eps       ncg     rms          rms(c)
DAV:   1    -0.132245272795E+04    0.13000E+01   -0.57244E+01 50140   0.380E+01    0.622E+00
DAV:   2    -0.132405016646E+04   -0.15974E+01   -0.14200E+01 38400   0.639E+00    0.368E+00
DAV:   3    -0.132410537934E+04   -0.55213E-01   -0.61463E-01 37840   0.178E+00    0.192E+00
DAV:   4    -0.132410369970E+04    0.16796E-02   -0.44111E-02 39990   0.604E-01    0.108E+00
DAV:   5    -0.132409655810E+04    0.71416E-02   -0.15420E-02 40780   0.388E-01    0.770E-01
DAV:   6    -0.132409325704E+04    0.33011E-02   -0.12756E-02 40050   0.403E-01    0.440E-01
DAV:   7    -0.132409228325E+04    0.97380E-03   -0.61535E-03 39620   0.244E-01    0.187E-01
DAV:   8    -0.132409283942E+04   -0.55618E-03   -0.22148E-03 38200   0.126E-01    0.135E-01
DAV:   9    -0.132409285663E+04   -0.17206E-04   -0.33987E-04 35690   0.524E-02
  22 F= -.13240929E+04 E0= -.13240929E+04  d E =-.340118E+00  mag=   114.0000
       N       E                     dE             d eps       ncg     rms          rms(c)
DAV:   1    -0.132395477983E+04    0.13806E+00   -0.47129E+00 49670   0.108E+01    0.176E+00
DAV:   2    -0.132409328489E+04   -0.13851E+00   -0.12397E+00 37970   0.182E+00    0.910E-01
DAV:   3    -0.132409748770E+04   -0.42028E-02   -0.52024E-02 37670   0.475E-01    0.505E-01
DAV:   4    -0.132409764301E+04   -0.15531E-03   -0.33258E-03 39610   0.139E-01    0.306E-01
DAV:   5    -0.132409682691E+04    0.81610E-03   -0.90940E-04 39400   0.961E-02    0.210E-01
DAV:   6    -0.132409675617E+04    0.70741E-04   -0.87700E-04 40030   0.109E-01    0.120E-01
DAV:   7    -0.132409651637E+04    0.23980E-03   -0.45418E-04 38960   0.645E-02    0.493E-02
DAV:   8    -0.132409660947E+04   -0.93100E-04   -0.11285E-04 25480   0.333E-02    0.337E-02
DAV:   9    -0.132409661977E+04   -0.10307E-04   -0.29887E-05 19530   0.155E-02
  23 F= -.13240966E+04 E0= -.13240966E+04  d E =-.376315E-02  mag=   114.0000
       N       E                     dE             d eps       ncg     rms          rms(c)
DAV:   1    -0.132231532828E+04    0.17813E+01   -0.66020E+01 47460   0.368E+01    0.626E+00
DAV:   2    -0.132390070506E+04   -0.15854E+01   -0.14492E+01 38040   0.643E+00    0.347E+00
DAV:   3    -0.132394666741E+04   -0.45962E-01   -0.52231E-01 37670   0.158E+00    0.177E+00
DAV:   4    -0.132394207910E+04    0.45883E-02   -0.33512E-02 39680   0.478E-01    0.111E+00
DAV:   5    -0.132393657452E+04    0.55046E-02   -0.11713E-02 40840   0.350E-01    0.751E-01
DAV:   6    -0.132393284706E+04    0.37275E-02   -0.11447E-02 40190   0.407E-01    0.500E-01
DAV:   7    -0.132393317523E+04   -0.32818E-03   -0.61467E-03 39940   0.256E-01    0.158E-01
DAV:   8    -0.132393332958E+04   -0.15434E-03   -0.15942E-03 37890   0.110E-01    0.100E-01
DAV:   9    -0.132393312938E+04    0.20019E-03   -0.32675E-04 35550   0.416E-02    0.878E-02
DAV:  10    -0.132393312883E+04    0.55008E-06   -0.43102E-05 22610   0.234E-02
  24 F= -.13239331E+04 E0= -.13239331E+04  d E =0.163491E+00  mag=   114.0000
       N       E                     dE             d eps       ncg     rms          rms(c)
DAV:   1    -0.131852551435E+04    0.54076E+01   -0.16322E+02 49920   0.658E+01    0.120E+01
DAV:   2    -0.132355540766E+04   -0.50299E+01   -0.44313E+01 38570   0.112E+01    0.765E+00
DAV:   3    -0.132375819022E+04   -0.20278E+00   -0.20447E+00 37830   0.312E+00    0.347E+00
DAV:   4    -0.132375431028E+04    0.38799E-02   -0.12401E-01 40750   0.932E-01    0.208E+00
DAV:   5    -0.132373644240E+04    0.17868E-01   -0.38090E-02 40110   0.566E-01    0.146E+00
DAV:   6    -0.132372771751E+04    0.87249E-02   -0.28337E-02 41120   0.654E-01    0.985E-01
DAV:   7    -0.132372428173E+04    0.34358E-02   -0.18378E-02 40130   0.475E-01    0.313E-01
DAV:   8    -0.132372672961E+04   -0.24479E-02   -0.66619E-03 37690   0.227E-01    0.199E-01
DAV:   9    -0.132372644054E+04    0.28907E-03   -0.15440E-03 37530   0.973E-02    0.164E-01
DAV:  10    -0.132372603273E+04    0.40782E-03   -0.17767E-04 31780   0.422E-02    0.888E-02
DAV:  11    -0.132372634979E+04   -0.31706E-03   -0.89520E-05 24890   0.305E-02    0.355E-02
DAV:  12    -0.132372637317E+04   -0.23386E-04   -0.51275E-05 21840   0.182E-02
  25 F= -.13237264E+04 E0= -.13237264E+04  d E =0.206756E+00  mag=   114.0000
       N       E                     dE             d eps       ncg     rms          rms(c)
DAV:   1    -0.132317387387E+04    0.55248E+00   -0.31063E+01 50380   0.278E+01    0.454E+00
DAV:   2    -0.132400144025E+04   -0.82757E+00   -0.73524E+00 38320   0.466E+00    0.246E+00
DAV:   3    -0.132403472394E+04   -0.33284E-01   -0.33891E-01 37960   0.126E+00    0.134E+00
DAV:   4    -0.132403323811E+04    0.14858E-02   -0.19940E-02 40330   0.352E-01    0.735E-01
DAV:   5    -0.132402943362E+04    0.38045E-02   -0.82291E-03 40970   0.281E-01    0.496E-01
DAV:   6    -0.132402809449E+04    0.13391E-02   -0.69195E-03 40180   0.299E-01    0.337E-01
DAV:   7    -0.132402777266E+04    0.32183E-03   -0.34403E-03 39400   0.191E-01    0.141E-01
DAV:   8    -0.132402815906E+04   -0.38640E-03   -0.93806E-04 37780   0.872E-02    0.801E-02
DAV:   9    -0.132402803412E+04    0.12494E-03   -0.17864E-04 33570   0.347E-02    0.680E-02
DAV:  10    -0.132402804772E+04   -0.13598E-04   -0.39741E-05 22150   0.217E-02
  26 F= -.13240280E+04 E0= -.13240280E+04  d E =-.301675E+00  mag=   114.0000
       N       E                     dE             d eps       ncg     rms          rms(c)
DAV:   1    -0.132352205109E+04    0.50598E+00   -0.17534E+01 49790   0.211E+01    0.349E+00
DAV:   2    -0.132402050925E+04   -0.49846E+00   -0.44316E+00 38300   0.357E+00    0.181E+00
DAV:   3    -0.132403975257E+04   -0.19243E-01   -0.20203E-01 37810   0.965E-01    0.101E+00
DAV:   4    -0.132403891289E+04    0.83968E-03   -0.11883E-02 39940   0.269E-01    0.581E-01
DAV:   5    -0.132403674739E+04    0.21655E-02   -0.41986E-03 40680   0.207E-01    0.387E-01
DAV:   6    -0.132403601034E+04    0.73706E-03   -0.38655E-03 40230   0.228E-01    0.261E-01
DAV:   7    -0.132403575224E+04    0.25810E-03   -0.20351E-03 39420   0.150E-01    0.107E-01
DAV:   8    -0.132403605921E+04   -0.30697E-03   -0.53182E-04 36120   0.683E-02    0.598E-02
DAV:   9    -0.132403595953E+04    0.99686E-04   -0.10326E-04 27390   0.277E-02    0.495E-02
DAV:  10    -0.132403598132E+04   -0.21792E-04   -0.24333E-05 19870   0.161E-02
  27 F= -.13240360E+04 E0= -.13240360E+04  d E =-.793360E-02  mag=   114.0000
       N       E                     dE             d eps       ncg     rms          rms(c)
DAV:   1    -0.132363256675E+04    0.40339E+00   -0.11657E+01 47950   0.160E+01    0.271E+00
DAV:   2    -0.132393944803E+04   -0.30688E+00   -0.27759E+00 38110   0.277E+00    0.140E+00
DAV:   3    -0.132394845869E+04   -0.90107E-02   -0.10160E-01 37600   0.674E-01    0.738E-01
DAV:   4    -0.132394776578E+04    0.69290E-03   -0.58069E-03 39470   0.176E-01    0.460E-01
DAV:   5    -0.132394678300E+04    0.98278E-03   -0.18576E-03 41650   0.140E-01    0.285E-01
DAV:   6    -0.132394606136E+04    0.72164E-03   -0.15685E-03 40970   0.153E-01    0.169E-01
DAV:   7    -0.132394637722E+04   -0.31586E-03   -0.89019E-04 39300   0.849E-02    0.612E-02
DAV:   8    -0.132394635391E+04    0.23312E-04   -0.13562E-04 29830   0.385E-02
  28 F= -.13239464E+04 E0= -.13239464E+04  d E =0.896274E-01  mag=   114.0000
       N       E                     dE             d eps       ncg     rms          rms(c)
DAV:   1    -0.131847511320E+04    0.54713E+01   -0.15473E+02 49820   0.648E+01    0.120E+01
DAV:   2    -0.132351655165E+04   -0.50414E+01   -0.44686E+01 38610   0.111E+01    0.748E+00
DAV:   3    -0.132369377623E+04   -0.17722E+00   -0.18320E+00 37920   0.307E+00    0.353E+00
DAV:   4    -0.132368736235E+04    0.64139E-02   -0.12351E-01 39870   0.991E-01    0.217E+00
DAV:   5    -0.132366955592E+04    0.17806E-01   -0.37718E-02 40330   0.599E-01    0.157E+00
DAV:   6    -0.132365964797E+04    0.99079E-02   -0.29153E-02 40850   0.659E-01    0.978E-01
DAV:   7    -0.132365628037E+04    0.33676E-02   -0.17804E-02 40240   0.481E-01    0.328E-01
DAV:   8    -0.132365858708E+04   -0.23067E-02   -0.77324E-03 37950   0.237E-01    0.225E-01
DAV:   9    -0.132365836340E+04    0.22369E-03   -0.16001E-03 37430   0.101E-01    0.154E-01
DAV:  10    -0.132365791027E+04    0.45313E-03   -0.17296E-04 31590   0.408E-02    0.859E-02
DAV:  11    -0.132365825291E+04   -0.34264E-03   -0.93460E-05 25810   0.294E-02    0.345E-02
DAV:  12    -0.132365820930E+04    0.43613E-04   -0.46217E-05 22150   0.193E-02
  29 F= -.13236582E+04 E0= -.13236582E+04  d E =0.288145E+00  mag=   114.0000
       N       E                     dE             d eps       ncg     rms          rms(c)
DAV:   1    -0.132263161934E+04    0.10266E+01   -0.45743E+01 50110   0.343E+01    0.575E+00
DAV:   2    -0.132396810535E+04   -0.13365E+01   -0.11939E+01 38440   0.583E+00    0.316E+00
DAV:   3    -0.132401944114E+04   -0.51336E-01   -0.54144E-01 37780   0.156E+00    0.170E+00
DAV:   4    -0.132401751536E+04    0.19258E-02   -0.32992E-02 40220   0.437E-01    0.975E-01
DAV:   5    -0.132401169775E+04    0.58176E-02   -0.11794E-02 41110   0.341E-01    0.656E-01
DAV:   6    -0.132400930593E+04    0.23918E-02   -0.10506E-02 40150   0.381E-01    0.446E-01
DAV:   7    -0.132400884286E+04    0.46307E-03   -0.56894E-03 39560   0.254E-01    0.181E-01
DAV:   8    -0.132400944557E+04   -0.60270E-03   -0.15464E-03 38240   0.114E-01    0.101E-01
DAV:   9    -0.132400924521E+04    0.20036E-03   -0.30838E-04 35790   0.458E-02    0.868E-02
DAV:  10    -0.132400925182E+04   -0.66127E-05   -0.60134E-05 24280   0.265E-02
  30 F= -.13240093E+04 E0= -.13240093E+04  d E =-.351043E+00  mag=   114.0000
       N       E                     dE             d eps       ncg     rms          rms(c)
DAV:   1    -0.132363691552E+04    0.37233E+00   -0.11553E+01 49540   0.175E+01    0.295E+00
DAV:   2    -0.132399025105E+04   -0.35334E+00   -0.31324E+00 38660   0.297E+00    0.153E+00
DAV:   3    -0.132400251181E+04   -0.12261E-01   -0.12800E-01 37780   0.786E-01    0.842E-01
DAV:   4    -0.132400200966E+04    0.50215E-03   -0.78036E-03 39580   0.226E-01    0.493E-01
DAV:   5    -0.132400058095E+04    0.14287E-02   -0.28177E-03 41140   0.174E-01    0.343E-01
DAV:   6    -0.132400013309E+04    0.44787E-03   -0.27513E-03 40560   0.196E-01    0.213E-01
DAV:   7    -0.132399988998E+04    0.24311E-03   -0.14318E-03 39470   0.125E-01    0.908E-02
DAV:   8    -0.132400015152E+04   -0.26154E-03   -0.39981E-04 35780   0.564E-02    0.499E-02
DAV:   9    -0.132400007526E+04    0.76267E-04   -0.67136E-05 23040   0.235E-02    0.391E-02
DAV:  10    -0.132400009126E+04   -0.16002E-04   -0.17494E-05 19350   0.134E-02
  31 F= -.13240001E+04 E0= -.13240001E+04  d E =0.916056E-02  mag=   114.0000
       N       E                     dE             d eps       ncg     rms          rms(c)
DAV:   1    -0.132138827507E+04    0.26118E+01   -0.90679E+01 47880   0.452E+01    0.764E+00
DAV:   2    -0.132376573297E+04   -0.23775E+01   -0.21504E+01 37920   0.786E+00    0.427E+00
DAV:   3    -0.132383542021E+04   -0.69687E-01   -0.82914E-01 37610   0.194E+00    0.213E+00
DAV:   4    -0.132383234208E+04    0.30781E-02   -0.46996E-02 41530   0.526E-01    0.132E+00
DAV:   5    -0.132382266668E+04    0.96754E-02   -0.14710E-02 41420   0.378E-01    0.848E-01
DAV:   6    -0.132381819296E+04    0.44737E-02   -0.13158E-02 41030   0.457E-01    0.541E-01
DAV:   7    -0.132381837427E+04   -0.18131E-03   -0.85525E-03 39450   0.282E-01    0.205E-01
DAV:   8    -0.132381857636E+04   -0.20208E-03   -0.16316E-03 37770   0.128E-01    0.116E-01
DAV:   9    -0.132381862612E+04   -0.49764E-04   -0.39470E-04 36080   0.524E-02
  32 F= -.13238186E+04 E0= -.13238186E+04  d E =0.181465E+00  mag=   114.0000
       N       E                     dE             d eps       ncg     rms          rms(c)
DAV:   1    -0.131930304830E+04    0.45155E+01   -0.14661E+02 49620   0.613E+01    0.107E+01
DAV:   2    -0.132363188040E+04   -0.43288E+01   -0.38709E+01 38490   0.105E+01    0.615E+00
DAV:   3    -0.132378967734E+04   -0.15780E+00   -0.16668E+00 37730   0.273E+00    0.295E+00
DAV:   4    -0.132378442747E+04    0.52499E-02   -0.99275E-02 41400   0.724E-01    0.184E+00
DAV:   5    -0.132376698678E+04    0.17441E-01   -0.31465E-02 38950   0.520E-01    0.121E+00
DAV:   6    -0.132375992224E+04    0.70645E-02   -0.26509E-02 41100   0.636E-01    0.811E-01
DAV:   7    -0.132375862289E+04    0.12994E-02   -0.21236E-02 39200   0.476E-01    0.372E-01
DAV:   8    -0.132376048341E+04   -0.18605E-02   -0.40374E-03 37840   0.209E-01    0.149E-01
DAV:   9    -0.132376003616E+04    0.44724E-03   -0.97436E-04 37770   0.615E-02    0.130E-01
DAV:  10    -0.132375976987E+04    0.26629E-03   -0.95443E-05 25550   0.364E-02    0.744E-02
DAV:  11    -0.132376014327E+04   -0.37339E-03   -0.76242E-05 24550   0.269E-02    0.295E-02
DAV:  12    -0.132376009075E+04    0.52522E-04   -0.41113E-05 20720   0.195E-02    0.211E-02
DAV:  13    -0.132376003424E+04    0.56504E-04   -0.15234E-05 18800   0.106E-02    0.135E-02
DAV:  14    -0.132376002973E+04    0.45159E-05   -0.35834E-06 18580   0.525E-03
  33 F= -.13237600E+04 E0= -.13237600E+04  d E =0.585964E-01  mag=   114.0000
       N       E                     dE             d eps       ncg     rms          rms(c)
DAV:   1    -0.132352452800E+04    0.23551E+00   -0.15107E+01 50180   0.198E+01    0.315E+00
DAV:   2    -0.132393555845E+04   -0.41103E+00   -0.36882E+00 38260   0.332E+00    0.169E+00
DAV:   3    -0.132395178087E+04   -0.16222E-01   -0.17639E-01 37890   0.889E-01    0.940E-01
DAV:   4    -0.132395159991E+04    0.18096E-03   -0.96983E-03 40240   0.257E-01    0.510E-01
DAV:   5    -0.132394908384E+04    0.25161E-02   -0.42189E-03 41600   0.193E-01    0.322E-01
DAV:   6    -0.132394880148E+04    0.28236E-03   -0.31933E-03 39590   0.199E-01    0.245E-01
DAV:   7    -0.132394825901E+04    0.54247E-03   -0.15944E-03 39430   0.121E-01    0.853E-02
DAV:   8    -0.132394847911E+04   -0.22010E-03   -0.42253E-04 35740   0.640E-02    0.608E-02
DAV:   9    -0.132394847158E+04    0.75248E-05   -0.11371E-04 27550   0.315E-02
  34 F= -.13239485E+04 E0= -.13239485E+04  d E =-.188442E+00  mag=   114.0000
       N       E                     dE             d eps       ncg     rms          rms(c)
DAV:   1    -0.132355043703E+04    0.39804E+00   -0.18063E+01 47480   0.193E+01    0.307E+00
DAV:   2    -0.132395492675E+04   -0.40449E+00   -0.37500E+00 37800   0.335E+00    0.161E+00
DAV:   3    -0.132396693828E+04   -0.12012E-01   -0.15651E-01 37660   0.841E-01    0.887E-01
DAV:   4    -0.132396654056E+04    0.39772E-03   -0.86275E-03 40320   0.230E-01    0.518E-01
DAV:   5    -0.132396435140E+04    0.21892E-02   -0.32552E-03 41160   0.178E-01    0.316E-01
DAV:   6    -0.132396384277E+04    0.50864E-03   -0.26893E-03 40020   0.189E-01    0.208E-01
DAV:   7    -0.132396374147E+04    0.10129E-03   -0.14264E-03 38930   0.107E-01    0.773E-02
DAV:   8    -0.132396376890E+04   -0.27426E-04   -0.24791E-04 34100   0.524E-02
  35 F= -.13239638E+04 E0= -.13239638E+04  d E =-.152973E-01  mag=   114.0000
       N       E                     dE             d eps       ncg     rms          rms(c)
DAV:   1    -0.132221117930E+04    0.17526E+01   -0.65717E+01 48390   0.373E+01    0.611E+00
DAV:   2    -0.132379613710E+04   -0.15850E+01   -0.14477E+01 37620   0.639E+00    0.336E+00
DAV:   3    -0.132384586171E+04   -0.49725E-01   -0.58251E-01 37520   0.164E+00    0.170E+00
DAV:   4    -0.132384497690E+04    0.88481E-03   -0.39837E-02 40510   0.515E-01    0.107E+00
DAV:   5    -0.132383969943E+04    0.52775E-02   -0.11181E-02 39440   0.367E-01    0.768E-01
DAV:   6    -0.132383733516E+04    0.23643E-02   -0.10415E-02 40430   0.388E-01    0.439E-01
DAV:   7    -0.132383654380E+04    0.79136E-03   -0.56548E-03 40260   0.244E-01    0.156E-01
DAV:   8    -0.132383736471E+04   -0.82091E-03   -0.15359E-03 38270   0.104E-01    0.868E-02
DAV:   9    -0.132383722669E+04    0.13802E-03   -0.23877E-04 34600   0.359E-02    0.712E-02
DAV:  10    -0.132383713055E+04    0.96139E-04   -0.44976E-05 22250   0.239E-02    0.402E-02
DAV:  11    -0.132383723584E+04   -0.10529E-03   -0.27150E-05 21240   0.164E-02    0.243E-02
DAV:  12    -0.132383729214E+04   -0.56306E-04   -0.16825E-05 19850   0.134E-02    0.124E-02
DAV:  13    -0.132383722258E+04    0.69564E-04   -0.50710E-06 18550   0.563E-03    0.753E-03
DAV:  14    -0.132383722552E+04   -0.29384E-05   -0.12538E-06 18260   0.287E-03
  36 F= -.13238372E+04 E0= -.13238372E+04  d E =0.126543E+00  mag=   114.0000
       N       E                     dE             d eps       ncg     rms          rms(c)
DAV:   1    -0.131741709117E+04    0.64201E+01   -0.18602E+02 50080   0.712E+01    0.128E+01
DAV:   2    -0.132336091611E+04   -0.59438E+01   -0.52643E+01 38770   0.123E+01    0.863E+00
DAV:   3    -0.132357017274E+04   -0.20926E+00   -0.23513E+00 37800   0.371E+00    0.403E+00
DAV:   4    -0.132355789804E+04    0.12275E-01   -0.20385E-01 39570   0.139E+00    0.243E+00
DAV:   5    -0.132353691804E+04    0.20980E-01   -0.53838E-02 39500   0.747E-01    0.177E+00
DAV:   6    -0.132352157570E+04    0.15342E-01   -0.37085E-02 40880   0.718E-01    0.952E-01
DAV:   7    -0.132351842888E+04    0.31468E-02   -0.22288E-02 39980   0.496E-01    0.371E-01
DAV:   8    -0.132352062433E+04   -0.21955E-02   -0.10273E-02 37770   0.239E-01    0.245E-01
DAV:   9    -0.132352050944E+04    0.11489E-03   -0.13495E-03 37600   0.966E-02    0.161E-01
DAV:  10    -0.132351991449E+04    0.59496E-03   -0.25230E-04 34150   0.472E-02    0.941E-02
DAV:  11    -0.132352031731E+04   -0.40283E-03   -0.12306E-04 30910   0.358E-02    0.456E-02
DAV:  12    -0.132352032751E+04   -0.10202E-04   -0.68081E-05 23880   0.252E-02
  37 F= -.13235203E+04 E0= -.13235203E+04  d E =0.316898E+00  mag=   114.0000
       N       E                     dE             d eps       ncg     rms          rms(c)
DAV:   1    -0.132266476144E+04    0.85556E+00   -0.44449E+01 49770   0.330E+01    0.545E+00
DAV:   2    -0.132388627208E+04   -0.12215E+01   -0.11053E+01 38290   0.564E+00    0.305E+00
DAV:   3    -0.132393330769E+04   -0.47036E-01   -0.51421E-01 37860   0.154E+00    0.169E+00
DAV:   4    -0.132393120851E+04    0.20992E-02   -0.34574E-02 39930   0.485E-01    0.963E-01
DAV:   5    -0.132392519273E+04    0.60158E-02   -0.13072E-02 39780   0.369E-01    0.714E-01
DAV:   6    -0.132392246901E+04    0.27237E-02   -0.12244E-02 40350   0.395E-01    0.418E-01
DAV:   7    -0.132392133131E+04    0.11377E-02   -0.57306E-03 39720   0.243E-01    0.167E-01
DAV:   8    -0.132392206150E+04   -0.73019E-03   -0.19346E-03 39620   0.112E-01    0.949E-02
DAV:   9    -0.132392196255E+04    0.98958E-04   -0.30823E-04 35840   0.410E-02    0.824E-02
DAV:  10    -0.132392187108E+04    0.91468E-04   -0.50409E-05 23350   0.248E-02    0.463E-02
DAV:  11    -0.132392196700E+04   -0.95917E-04   -0.37282E-05 22350   0.198E-02    0.278E-02
DAV:  12    -0.132392204157E+04   -0.74572E-04   -0.23319E-05 19340   0.148E-02    0.150E-02
DAV:  13    -0.132392197112E+04    0.70446E-04   -0.65114E-06 18670   0.627E-03    0.824E-03
DAV:  14    -0.132392195937E+04    0.11751E-04   -0.17559E-06 18290   0.351E-03
  38 F= -.13239220E+04 E0= -.13239220E+04  d E =-.401632E+00  mag=   114.0000
       N       E                     dE             d eps       ncg     rms          rms(c)
DAV:   1    -0.132361454907E+04    0.30742E+00   -0.11857E+01 49470   0.169E+01    0.278E+00
DAV:   2    -0.132394082744E+04   -0.32628E+00   -0.29487E+00 38490   0.292E+00    0.146E+00
DAV:   3    -0.132395280537E+04   -0.11978E-01   -0.13604E-01 37890   0.779E-01    0.856E-01
DAV:   4    -0.132395199070E+04    0.81466E-03   -0.74674E-03 39770   0.212E-01    0.481E-01
DAV:   5    -0.132395033608E+04    0.16546E-02   -0.30055E-03 41790   0.167E-01    0.295E-01
DAV:   6    -0.132394974921E+04    0.58687E-03   -0.26531E-03 39930   0.183E-01    0.215E-01
DAV:   7    -0.132394953452E+04    0.21469E-03   -0.15161E-03 39330   0.123E-01    0.933E-02
DAV:   8    -0.132394975443E+04   -0.21991E-03   -0.34288E-04 35740   0.596E-02    0.526E-02
DAV:   9    -0.132394964881E+04    0.10562E-03   -0.73135E-05 23860   0.243E-02    0.414E-02
DAV:  10    -0.132394968600E+04   -0.37188E-04   -0.20863E-05 19700   0.148E-02
  39 F= -.13239497E+04 E0= -.13239497E+04  d E =-.277266E-01  mag=   114.0000
       N       E                     dE             d eps       ncg     rms          rms(c)
DAV:   1    -0.132376104394E+04    0.18860E+00   -0.65993E+00 47020   0.117E+01    0.197E+00
DAV:   2    -0.132392522925E+04   -0.16419E+00   -0.15184E+00 37660   0.205E+00    0.981E-01
DAV:   3    -0.132392965477E+04   -0.44255E-02   -0.56031E-02 37760   0.494E-01    0.537E-01
DAV:   4    -0.132392917464E+04    0.48013E-03   -0.32373E-03 39890   0.127E-01    0.346E-01
DAV:   5    -0.132392865071E+04    0.52393E-03   -0.95670E-04 41910   0.107E-01    0.223E-01
DAV:   6    -0.132392814118E+04    0.50952E-03   -0.12699E-03 40540   0.133E-01    0.160E-01
DAV:   7    -0.132392838507E+04   -0.24389E-03   -0.72256E-04 39040   0.823E-02    0.510E-02
DAV:   8    -0.132392828553E+04    0.99543E-04   -0.10290E-04 26820   0.326E-02    0.285E-02
DAV:   9    -0.132392823492E+04    0.50610E-04   -0.28490E-05 19000   0.123E-02    0.234E-02
DAV:  10    -0.132392826323E+04   -0.28304E-04   -0.58458E-06 18700   0.834E-03
  40 F= -.13239283E+04 E0= -.13239283E+04  d E =0.214228E-01  mag=   114.0000
       N       E                     dE             d eps       ncg     rms          rms(c)
DAV:   1    -0.131917667787E+04    0.47516E+01   -0.14993E+02 49660   0.613E+01    0.105E+01
DAV:   2    -0.132338985651E+04   -0.42132E+01   -0.37937E+01 38470   0.106E+01    0.656E+00
DAV:   3    -0.132355467635E+04   -0.16482E+00   -0.17976E+00 37850   0.296E+00    0.326E+00
DAV:   4    -0.132354583860E+04    0.88378E-02   -0.11895E-01 40890   0.988E-01    0.192E+00
DAV:   5    -0.132352713757E+04    0.18701E-01   -0.40005E-02 39850   0.622E-01    0.140E+00
DAV:   6    -0.132351705376E+04    0.10084E-01   -0.32761E-02 40530   0.666E-01    0.861E-01
DAV:   7    -0.132351365749E+04    0.33963E-02   -0.17375E-02 40210   0.454E-01    0.307E-01
DAV:   8    -0.132351545904E+04   -0.18015E-02   -0.75697E-03 37660   0.220E-01    0.231E-01
DAV:   9    -0.132351537900E+04    0.80036E-04   -0.12338E-03 37600   0.902E-02    0.152E-01
DAV:  10    -0.132351494675E+04    0.43225E-03   -0.16512E-04 31560   0.408E-02    0.856E-02
DAV:  11    -0.132351524992E+04   -0.30317E-03   -0.10674E-04 28190   0.333E-02    0.351E-02
DAV:  12    -0.132351526244E+04   -0.12521E-04   -0.55469E-05 22250   0.218E-02
  41 F= -.13235153E+04 E0= -.13235153E+04  d E =0.413001E+00  mag=   114.0000
       N       E                     dE             d eps       ncg     rms          rms(c)
DAV:   1    -0.132162957056E+04    0.18857E+01   -0.84466E+01 50130   0.457E+01    0.754E+00
DAV:   2    -0.132392154889E+04   -0.22920E+01   -0.20701E+01 38340   0.780E+00    0.442E+00
DAV:   3    -0.132400433064E+04   -0.82782E-01   -0.93839E-01 37840   0.214E+00    0.235E+00
DAV:   4    -0.132400002311E+04    0.43075E-02   -0.67332E-02 40270   0.716E-01    0.135E+00
DAV:   5    -0.132398882262E+04    0.11200E-01   -0.26481E-02 39090   0.526E-01    0.101E+00
DAV:   6    -0.132398306308E+04    0.57595E-02   -0.22865E-02 39850   0.536E-01    0.562E-01
DAV:   7    -0.132398137734E+04    0.16857E-02   -0.10778E-02 39660   0.337E-01    0.241E-01
DAV:   8    -0.132398248926E+04   -0.11119E-02   -0.38276E-03 39580   0.163E-01    0.144E-01
DAV:   9    -0.132398247566E+04    0.13600E-04   -0.64880E-04 37670   0.642E-02    0.113E-01
DAV:  10    -0.132398214157E+04    0.33409E-03   -0.12179E-04 29230   0.355E-02    0.695E-02
DAV:  11    -0.132398238358E+04   -0.24201E-03   -0.65978E-05 24430   0.309E-02    0.379E-02
DAV:  12    -0.132398247485E+04   -0.91262E-04   -0.50104E-05 20300   0.210E-02    0.230E-02
DAV:  13    -0.132398238801E+04    0.86837E-04   -0.11820E-05 18760   0.895E-03    0.111E-02
DAV:  14    -0.132398236383E+04    0.24174E-04   -0.36821E-06 18540   0.499E-03
  42 F= -.13239824E+04 E0= -.13239824E+04  d E =-.467101E+00  mag=   114.0000
       N       E                     dE             d eps       ncg     rms          rms(c)
DAV:   1    -0.132396483284E+04    0.17555E-01   -0.75399E-01 49330   0.431E+00    0.711E-01
DAV:   2    -0.132398707430E+04   -0.22241E-01   -0.19869E-01 38200   0.735E-01    0.359E-01
DAV:   3    -0.132398760223E+04   -0.52792E-03   -0.79438E-03 37780   0.186E-01    0.203E-01
DAV:   4    -0.132398761828E+04   -0.16055E-04   -0.45459E-04 34950   0.482E-02
  43 F= -.13239876E+04 E0= -.13239876E+04  d E =-.525445E-02  mag=   114.0000
       N       E                     dE             d eps       ncg     rms          rms(c)
DAV:   1    -0.132238024440E+04    0.16074E+01   -0.50635E+01 48400   0.353E+01    0.584E+00
DAV:   2    -0.132386587675E+04   -0.14856E+01   -0.13347E+01 37630   0.600E+00    0.306E+00
DAV:   3    -0.132391128169E+04   -0.45405E-01   -0.51898E-01 37650   0.152E+00    0.159E+00
DAV:   4    -0.132391057524E+04    0.70645E-03   -0.31091E-02 40320   0.425E-01    0.104E+00
DAV:   5    -0.132390533441E+04    0.52408E-02   -0.80946E-03 41630   0.299E-01    0.704E-01
DAV:   6    -0.132390356664E+04    0.17678E-02   -0.73676E-03 41620   0.332E-01    0.388E-01
DAV:   7    -0.132390307985E+04    0.48679E-03   -0.42602E-03 39670   0.189E-01    0.152E-01
DAV:   8    -0.132390373942E+04   -0.65957E-03   -0.11660E-03 36840   0.102E-01    0.108E-01
DAV:   9    -0.132390358514E+04    0.15428E-03   -0.24074E-04 33430   0.503E-02    0.598E-02
DAV:  10    -0.132390355073E+04    0.34410E-04   -0.46147E-05 22320   0.208E-02
  44 F= -.13239036E+04 E0= -.13239036E+04  d E =0.840676E-01  mag=   114.0000
       N       E                     dE             d eps       ncg     rms          rms(c)
DAV:   1    -0.131742051964E+04    0.64831E+01   -0.19082E+02 50070   0.719E+01    0.126E+01
DAV:   2    -0.132339529007E+04   -0.59748E+01   -0.52946E+01 38490   0.121E+01    0.769E+00
DAV:   3    -0.132361887960E+04   -0.22359E+00   -0.22181E+00 37630   0.347E+00    0.375E+00
DAV:   4    -0.132361519026E+04    0.36893E-02   -0.18577E-01 39580   0.121E+00    0.232E+00
DAV:   5    -0.132359687518E+04    0.18315E-01   -0.49897E-02 39200   0.663E-01    0.164E+00
DAV:   6    -0.132358511177E+04    0.11763E-01   -0.35862E-02 41030   0.687E-01    0.924E-01
DAV:   7    -0.132358338890E+04    0.17229E-02   -0.23466E-02 40030   0.506E-01    0.504E-01
DAV:   8    -0.132358571644E+04   -0.23275E-02   -0.83107E-03 37780   0.286E-01    0.241E-01
DAV:   9    -0.132358559179E+04    0.12465E-03   -0.14534E-03 37620   0.111E-01    0.119E-01
DAV:  10    -0.132358505330E+04    0.53849E-03   -0.37465E-04 36210   0.467E-02    0.936E-02
DAV:  11    -0.132358532718E+04   -0.27388E-03   -0.96577E-05 26660   0.353E-02    0.406E-02
DAV:  12    -0.132358540931E+04   -0.82126E-04   -0.49440E-05 20550   0.159E-02    0.249E-02
DAV:  13    -0.132358533334E+04    0.75968E-04   -0.13348E-05 18840   0.110E-02    0.140E-02
DAV:  14    -0.132358535565E+04   -0.22309E-04   -0.54843E-06 18690   0.649E-03
  45 F= -.13235854E+04 E0= -.13235854E+04  d E =0.318195E+00  mag=   114.0000
       N       E                     dE             d eps       ncg     rms          rms(c)
DAV:   1    -0.132209757624E+04    0.14878E+01   -0.64992E+01 50290   0.415E+01    0.675E+00
DAV:   2    -0.132396596023E+04   -0.18684E+01   -0.16571E+01 38220   0.685E+00    0.383E+00
DAV:   3    -0.132403719300E+04   -0.71233E-01   -0.75603E-01 37670   0.196E+00    0.205E+00
DAV:   4    -0.132403509399E+04    0.20990E-02   -0.51364E-02 39990   0.639E-01    0.115E+00
DAV:   5    -0.132402713151E+04    0.79625E-02   -0.17233E-02 40920   0.386E-01    0.796E-01
DAV:   6    -0.132402399461E+04    0.31369E-02   -0.13520E-02 39850   0.405E-01    0.466E-01
DAV:   7    -0.132402311112E+04    0.88349E-03   -0.74573E-03 39600   0.271E-01    0.233E-01
DAV:   8    -0.132402385894E+04   -0.74781E-03   -0.27324E-03 37520   0.153E-01    0.155E-01
DAV:   9    -0.132402367472E+04    0.18422E-03   -0.41715E-04 35310   0.652E-02    0.789E-02
DAV:  10    -0.132402358890E+04    0.85825E-04   -0.10901E-04 27740   0.260E-02    0.506E-02
DAV:  11    -0.132402372725E+04   -0.13835E-03   -0.38447E-05 23250   0.256E-02    0.254E-02
DAV:  12    -0.132402373431E+04   -0.70590E-05   -0.28950E-05 18910   0.141E-02
  46 F= -.13240237E+04 E0= -.13240237E+04  d E =-.438379E+00  mag=   114.0000
       N       E                     dE             d eps       ncg     rms          rms(c)
DAV:   1    -0.132400635179E+04    0.17375E-01   -0.82108E-01 49850   0.489E+00    0.789E-01
DAV:   2    -0.132403326049E+04   -0.26909E-01   -0.23882E-01 38460   0.805E-01    0.400E-01
DAV:   3    -0.132403410178E+04   -0.84129E-03   -0.10361E-02 37520   0.219E-01    0.232E-01
DAV:   4    -0.132403426555E+04   -0.16376E-03   -0.66460E-04 38400   0.653E-02    0.132E-01
DAV:   5    -0.132403401772E+04    0.24782E-03   -0.21188E-04 30950   0.446E-02    0.938E-02
DAV:   6    -0.132403407271E+04   -0.54990E-04   -0.20529E-04 34130   0.497E-02    0.553E-02
DAV:   7    -0.132403397233E+04    0.10039E-03   -0.98432E-05 25330   0.315E-02    0.250E-02
DAV:   8    -0.132403401248E+04   -0.40157E-04   -0.33075E-05 19450   0.180E-02
  47 F= -.13240340E+04 E0= -.13240340E+04  d E =-.102782E-01  mag=   114.0000
       N       E                     dE             d eps       ncg     rms          rms(c)
DAV:   1    -0.132383591156E+04    0.19806E+00   -0.68726E+00 48230   0.130E+01    0.210E+00
DAV:   2    -0.132403207442E+04   -0.19616E+00   -0.17747E+00 37910   0.220E+00    0.108E+00
DAV:   3    -0.132403702434E+04   -0.49499E-02   -0.67484E-02 37350   0.564E-01    0.598E-01
DAV:   4    -0.132403733266E+04   -0.30832E-03   -0.44285E-03 39360   0.167E-01    0.365E-01
DAV:   5    -0.132403637834E+04    0.95432E-03   -0.12655E-03 40860   0.118E-01    0.254E-01
DAV:   6    -0.132403636599E+04    0.12353E-04   -0.13226E-03 41590   0.130E-01    0.141E-01
DAV:   7    -0.132403608176E+04    0.28423E-03   -0.70930E-04 39360   0.790E-02    0.645E-02
DAV:   8    -0.132403624203E+04   -0.16027E-03   -0.18195E-04 30840   0.415E-02    0.421E-02
DAV:   9    -0.132403622120E+04    0.20829E-04   -0.34275E-05 20140   0.190E-02
  48 F= -.13240362E+04 E0= -.13240362E+04  d E =-.220872E-02  mag=   114.0000
       N       E                     dE             d eps       ncg     rms          rms(c)
DAV:   1    -0.131990556008E+04    0.41307E+01   -0.12094E+02 50010   0.559E+01    0.970E+00
DAV:   2    -0.132349370133E+04   -0.35881E+01   -0.31837E+01 38330   0.942E+00    0.579E+00
DAV:   3    -0.132362614972E+04   -0.13245E+00   -0.13929E+00 37510   0.264E+00    0.285E+00
DAV:   4    -0.132362188131E+04    0.42684E-02   -0.10078E-01 39680   0.846E-01    0.174E+00
DAV:   5    -0.132361011010E+04    0.11771E-01   -0.34664E-02 39730   0.594E-01    0.128E+00
DAV:   6    -0.132360369149E+04    0.64186E-02   -0.28663E-02 40450   0.607E-01    0.776E-01
DAV:   7    -0.132360120629E+04    0.24852E-02   -0.14532E-02 40240   0.402E-01    0.309E-01
DAV:   8    -0.132360351963E+04   -0.23133E-02   -0.49071E-03 38350   0.184E-01    0.182E-01
DAV:   9    -0.132360311762E+04    0.40201E-03   -0.88609E-04 37660   0.794E-02    0.118E-01
DAV:  10    -0.132360286238E+04    0.25524E-03   -0.14293E-04 31170   0.367E-02    0.642E-02
DAV:  11    -0.132360315298E+04   -0.29061E-03   -0.63918E-05 24500   0.242E-02    0.301E-02
DAV:  12    -0.132360311308E+04    0.39902E-04   -0.34404E-05 19780   0.169E-02
  49 F= -.13236031E+04 E0= -.13236031E+04  d E =0.433108E+00  mag=   114.0000
       N       E                     dE             d eps       ncg     rms          rms(c)
DAV:   1    -0.132228756403E+04    0.13156E+01   -0.61622E+01 50080   0.400E+01    0.650E+00
DAV:   2    -0.132399792265E+04   -0.17104E+01   -0.15244E+01 38200   0.670E+00    0.375E+00
DAV:   3    -0.132406229487E+04   -0.64372E-01   -0.69089E-01 37950   0.187E+00    0.200E+00
DAV:   4    -0.132406062443E+04    0.16704E-02   -0.46780E-02 40080   0.611E-01    0.112E+00
DAV:   5    -0.132405296612E+04    0.76583E-02   -0.18321E-02 40730   0.408E-01    0.810E-01
DAV:   6    -0.132405005733E+04    0.29088E-02   -0.15847E-02 39950   0.435E-01    0.494E-01
DAV:   7    -0.132404865969E+04    0.13976E-02   -0.78576E-03 39670   0.286E-01    0.219E-01
DAV:   8    -0.132404940925E+04   -0.74956E-03   -0.28030E-03 37870   0.149E-01    0.154E-01
DAV:   9    -0.132404937099E+04    0.38257E-04   -0.40657E-04 36150   0.636E-02
  50 F= -.13240494E+04 E0= -.13240494E+04  d E =-.446258E+00  mag=   114.0000
       N       E                     dE             d eps       ncg     rms          rms(c)
DAV:   1    -0.132396944353E+04    0.79966E-01   -0.29682E+00 49800   0.905E+00    0.148E+00
DAV:   2    -0.132406355795E+04   -0.94114E-01   -0.83428E-01 38350   0.150E+00    0.773E-01
DAV:   3    -0.132406627599E+04   -0.27180E-02   -0.36988E-02 37470   0.434E-01    0.471E-01
DAV:   4    -0.132406673392E+04   -0.45793E-03   -0.28547E-03 39240   0.145E-01    0.261E-01
DAV:   5    -0.132406613445E+04    0.59947E-03   -0.75147E-04 37780   0.833E-02    0.190E-01
DAV:   6    -0.132406608448E+04    0.49970E-04   -0.76332E-04 39100   0.962E-02    0.101E-01
DAV:   7    -0.132406589159E+04    0.19290E-03   -0.39471E-04 37240   0.618E-02    0.586E-02
DAV:   8    -0.132406596303E+04   -0.71444E-04   -0.12526E-04 25680   0.336E-02    0.314E-02
DAV:   9    -0.132406596120E+04    0.18281E-05   -0.21665E-05 19070   0.141E-02
  51 F= -.13240660E+04 E0= -.13240660E+04  d E =-.165902E-01  mag=   114.0000
       N       E                     dE             d eps       ncg     rms          rms(c)
DAV:   1    -0.132403940971E+04    0.26553E-01   -0.82453E-01 50050   0.507E+00    0.857E-01
DAV:   2    -0.132407185020E+04   -0.32440E-01   -0.28051E-01 37210   0.803E-01    0.412E-01
DAV:   3    -0.132407264034E+04   -0.79014E-03   -0.10671E-02 37090   0.212E-01    0.215E-01
DAV:   4    -0.132407286736E+04   -0.22702E-03   -0.83951E-04 37600   0.679E-02    0.144E-01
DAV:   5    -0.132407259926E+04    0.26810E-03   -0.13812E-04 25410   0.406E-02    0.105E-01
DAV:   6    -0.132407258392E+04    0.15341E-04   -0.16722E-04 29360   0.492E-02
  52 F= -.13240726E+04 E0= -.13240726E+04  d E =-.662272E-02  mag=   114.0000
       N       E                     dE             d eps       ncg     rms          rms(c)
DAV:   1    -0.132377677706E+04    0.29582E+00   -0.79613E+00 49700   0.148E+01    0.252E+00
DAV:   2    -0.132406313236E+04   -0.28636E+00   -0.24658E+00 36430   0.235E+00    0.130E+00
DAV:   3    -0.132407013864E+04   -0.70063E-02   -0.79439E-02 37220   0.543E-01    0.562E-01
DAV:   4    -0.132407048544E+04   -0.34680E-03   -0.52581E-03 39770   0.150E-01    0.411E-01
DAV:   5    -0.132406972193E+04    0.76351E-03   -0.11618E-03 42960   0.126E-01    0.284E-01
DAV:   6    -0.132406959254E+04    0.12939E-03   -0.14320E-03 43050   0.146E-01    0.149E-01
DAV:   7    -0.132406930103E+04    0.29151E-03   -0.67479E-04 38390   0.795E-02    0.498E-02
DAV:   8    -0.132406956409E+04   -0.26306E-03   -0.66598E-05 22120   0.240E-02    0.237E-02
DAV:   9    -0.132406952615E+04    0.37938E-04   -0.13453E-05 18580   0.108E-02
  53 F= -.13240695E+04 E0= -.13240695E+04  d E =0.305777E-02  mag=   114.0000
       N       E                     dE             d eps       ncg     rms          rms(c)
DAV:   1    -0.132371407045E+04    0.35549E+00   -0.17895E+01 46380   0.173E+01    0.270E+00
DAV:   2    -0.132407688821E+04   -0.36282E+00   -0.33622E+00 36920   0.295E+00    0.140E+00
DAV:   3    -0.132408298498E+04   -0.60968E-02   -0.10460E-01 37130   0.653E-01    0.697E-01
DAV:   4    -0.132408283401E+04    0.15098E-03   -0.66049E-03 40910   0.185E-01    0.491E-01
DAV:   5    -0.132408143236E+04    0.14016E-02   -0.25019E-03 42310   0.183E-01    0.354E-01
DAV:   6    -0.132408113749E+04    0.29487E-03   -0.29113E-03 40950   0.190E-01    0.184E-01
DAV:   7    -0.132408067015E+04    0.46734E-03   -0.10724E-03 39130   0.926E-02    0.576E-02
DAV:   8    -0.132408095684E+04   -0.28669E-03   -0.14542E-04 30940   0.301E-02    0.353E-02
DAV:   9    -0.132408092793E+04    0.28912E-04   -0.21218E-05 18880   0.140E-02
  54 F= -.13240809E+04 E0= -.13240809E+04  d E =-.114018E-01  mag=   114.0000
       N       E                     dE             d eps       ncg     rms          rms(c)
DAV:   1    -0.132387596010E+04    0.20500E+00   -0.67997E+00 49020   0.134E+01    0.218E+00
DAV:   2    -0.132409461787E+04   -0.21866E+00   -0.19385E+00 37630   0.225E+00    0.115E+00
DAV:   3    -0.132410089501E+04   -0.62771E-02   -0.75579E-02 36910   0.573E-01    0.604E-01
DAV:   4    -0.132410091484E+04   -0.19833E-04   -0.45279E-03 39740   0.158E-01    0.375E-01
DAV:   5    -0.132410040540E+04    0.50944E-03   -0.13196E-03 40780   0.125E-01    0.259E-01
DAV:   6    -0.132410001445E+04    0.39095E-03   -0.14637E-03 40250   0.138E-01    0.170E-01
DAV:   7    -0.132410020492E+04   -0.19047E-03   -0.71394E-04 39090   0.810E-02    0.627E-02
DAV:   8    -0.132410004774E+04    0.15718E-03   -0.14027E-04 29330   0.362E-02    0.381E-02
DAV:   9    -0.132410011676E+04   -0.69017E-04   -0.35037E-05 19980   0.182E-02    0.212E-02
DAV:  10    -0.132410007848E+04    0.38276E-04   -0.78942E-06 18640   0.735E-03
  55 F= -.13241001E+04 E0= -.13241001E+04  d E =-.191506E-01  mag=   114.0000
       N       E                     dE             d eps       ncg     rms          rms(c)
DAV:   1    -0.132402935224E+04    0.70765E-01   -0.21769E+00 49450   0.798E+00    0.134E+00
DAV:   2    -0.132410899086E+04   -0.79639E-01   -0.69874E-01 37730   0.131E+00    0.673E-01
DAV:   3    -0.132411122966E+04   -0.22388E-02   -0.24699E-02 37150   0.331E-01    0.353E-01
DAV:   4    -0.132411116597E+04    0.63689E-04   -0.14390E-03 39420   0.831E-02    0.229E-01
DAV:   5    -0.132411114804E+04    0.17926E-04   -0.32749E-04 35970   0.638E-02
  56 F= -.13241111E+04 E0= -.13241111E+04  d E =-.110696E-01  mag=   114.0000
       N       E                     dE             d eps       ncg     rms          rms(c)
DAV:   1    -0.132408404420E+04    0.27122E-01   -0.12138E+00 47880   0.501E+00    0.774E-01
DAV:   2    -0.132411279908E+04   -0.28755E-01   -0.26359E-01 37430   0.845E-01    0.419E-01
DAV:   3    -0.132411347378E+04   -0.67470E-03   -0.10095E-02 36430   0.212E-01    0.237E-01
DAV:   4    -0.132411358495E+04   -0.11117E-03   -0.63260E-04 38480   0.584E-02    0.152E-01
DAV:   5    -0.132411339470E+04    0.19025E-03   -0.24293E-04 31040   0.547E-02    0.114E-01
DAV:   6    -0.132411351626E+04   -0.12156E-03   -0.32523E-04 35910   0.601E-02    0.653E-02
DAV:   7    -0.132411338600E+04    0.13026E-03   -0.10056E-04 25130   0.303E-02    0.206E-02
DAV:   8    -0.132411344899E+04   -0.62995E-04   -0.25046E-05 18800   0.134E-02    0.150E-02
DAV:   9    -0.132411347101E+04   -0.22013E-04   -0.68338E-06 18310   0.647E-03
  57 F= -.13241135E+04 E0= -.13241135E+04  d E =-.232297E-02  mag=   114.0000
       N       E                     dE             d eps       ncg     rms          rms(c)
DAV:   1    -0.132407615801E+04    0.37291E-01   -0.24632E+00 43950   0.572E+00    0.895E-01
DAV:   2    -0.132411691105E+04   -0.40753E-01   -0.39875E-01 37160   0.102E+00    0.473E-01
DAV:   3    -0.132411764603E+04   -0.73498E-03   -0.11859E-02 35950   0.230E-01    0.257E-01
DAV:   4    -0.132411728095E+04    0.36508E-03   -0.93019E-04 38310   0.744E-02    0.176E-01
DAV:   5    -0.132411737392E+04   -0.92970E-04   -0.24955E-04 31450   0.556E-02    0.124E-01
DAV:   6    -0.132411721371E+04    0.16022E-03   -0.34170E-04 35420   0.641E-02    0.614E-02
DAV:   7    -0.132411733537E+04   -0.12166E-03   -0.14663E-04 27670   0.336E-02    0.265E-02
DAV:   8    -0.132411729450E+04    0.40873E-04   -0.22934E-05 18920   0.143E-02
  58 F= -.13241173E+04 E0= -.13241173E+04  d E =-.382349E-02  mag=   114.0000
       N       E                     dE             d eps       ncg     rms          rms(c)
DAV:   1    -0.132399401946E+04    0.12332E+00   -0.79259E+00 45410   0.102E+01    0.155E+00
DAV:   2    -0.132411942770E+04   -0.12541E+00   -0.12188E+00 36750   0.178E+00    0.836E-01
DAV:   3    -0.132412123308E+04   -0.18054E-02   -0.39076E-02 36090   0.379E-01    0.401E-01
DAV:   4    -0.132412083563E+04    0.39745E-03   -0.21717E-03 41800   0.916E-02    0.270E-01
DAV:   5    -0.132412025409E+04    0.58154E-03   -0.66293E-04 41140   0.917E-02    0.142E-01
DAV:   6    -0.132412043891E+04   -0.18481E-03   -0.71881E-04 38910   0.790E-02    0.101E-01
DAV:   7    -0.132412020243E+04    0.23648E-03   -0.34214E-04 35690   0.534E-02    0.445E-02
DAV:   8    -0.132412032882E+04   -0.12638E-03   -0.33175E-05 20240   0.184E-02    0.229E-02
DAV:   9    -0.132412033130E+04   -0.24812E-05   -0.10760E-05 18660   0.940E-03
  59 F= -.13241203E+04 E0= -.13241203E+04  d E =-.303680E-02  mag=   114.0000
       N       E                     dE             d eps       ncg     rms          rms(c)
DAV:   1    -0.132394114406E+04    0.17918E+00   -0.85141E+00 46360   0.121E+01    0.192E+00
DAV:   2    -0.132412027197E+04   -0.17913E+00   -0.16680E+00 37410   0.206E+00    0.102E+00
DAV:   3    -0.132412412354E+04   -0.38516E-02   -0.57285E-02 36220   0.484E-01    0.509E-01
DAV:   4    -0.132412399079E+04    0.13275E-03   -0.37999E-03 39310   0.150E-01    0.340E-01
DAV:   5    -0.132412356153E+04    0.42927E-03   -0.11984E-03 39040   0.121E-01    0.227E-01
DAV:   6    -0.132412334697E+04    0.21456E-03   -0.11982E-03 39350   0.123E-01    0.134E-01
DAV:   7    -0.132412352766E+04   -0.18070E-03   -0.57633E-04 38280   0.686E-02    0.592E-02
DAV:   8    -0.132412338280E+04    0.14486E-03   -0.98975E-05 24480   0.308E-02    0.343E-02
DAV:   9    -0.132412346098E+04   -0.78180E-04   -0.24472E-05 19640   0.154E-02    0.193E-02
DAV:  10    -0.132412343893E+04    0.22059E-04   -0.65232E-06 18500   0.618E-03
  60 F= -.13241234E+04 E0= -.13241234E+04  d E =-.310763E-02  mag=   114.0000
       N       E                     dE             d eps       ncg     rms          rms(c)
DAV:   1    -0.132403508036E+04    0.88381E-01   -0.35362E+00 48160   0.865E+00    0.139E+00
DAV:   2    -0.132412705620E+04   -0.91976E-01   -0.83606E-01 37630   0.147E+00    0.748E-01
DAV:   3    -0.132412865776E+04   -0.16016E-02   -0.31277E-02 36530   0.407E-01    0.446E-01
DAV:   4    -0.132412901761E+04   -0.35985E-03   -0.26975E-03 39620   0.139E-01    0.264E-01
DAV:   5    -0.132412836201E+04    0.65561E-03   -0.59826E-04 36530   0.813E-02    0.190E-01
DAV:   6    -0.132412826461E+04    0.97398E-04   -0.69919E-04 41500   0.933E-02    0.970E-02
DAV:   7    -0.132412812725E+04    0.13735E-03   -0.36296E-04 37400   0.569E-02    0.562E-02
DAV:   8    -0.132412818848E+04   -0.61225E-04   -0.75645E-05 21800   0.281E-02    0.220E-02
DAV:   9    -0.132412818740E+04    0.10801E-05   -0.13972E-05 18760   0.109E-02
  61 F= -.13241282E+04 E0= -.13241282E+04  d E =-.474847E-02  mag=   114.0000
       N       E                     dE             d eps       ncg     rms          rms(c)
DAV:   1    -0.132406173309E+04    0.66455E-01   -0.30884E+00 47230   0.750E+00    0.118E+00
DAV:   2    -0.132412771197E+04   -0.65979E-01   -0.61084E-01 37150   0.129E+00    0.597E-01
DAV:   3    -0.132412954428E+04   -0.18323E-02   -0.20932E-02 36730   0.311E-01    0.320E-01
DAV:   4    -0.132412944186E+04    0.10242E-03   -0.12756E-03 39750   0.771E-02    0.204E-01
DAV:   5    -0.132412942788E+04    0.13985E-04   -0.39055E-04 37310   0.650E-02
  62 F= -.13241294E+04 E0= -.13241294E+04  d E =-.124048E-02  mag=   114.0000
       N       E                     dE             d eps       ncg     rms          rms(c)
DAV:   1    -0.132406958595E+04    0.59856E-01   -0.21322E+00 49480   0.676E+00    0.112E+00
DAV:   2    -0.132412987109E+04   -0.60285E-01   -0.53382E-01 37190   0.113E+00    0.628E-01
DAV:   3    -0.132413075448E+04   -0.88339E-03   -0.24126E-02 36410   0.370E-01    0.401E-01
DAV:   4    -0.132413127781E+04   -0.52333E-03   -0.23427E-03 39490   0.136E-01    0.201E-01
DAV:   5    -0.132413087266E+04    0.40515E-03   -0.38813E-04 35110   0.592E-02    0.139E-01
DAV:   6    -0.132413081080E+04    0.61863E-04   -0.35194E-04 38240   0.640E-02    0.725E-02
DAV:   7    -0.132413071440E+04    0.96402E-04   -0.18816E-04 30220   0.422E-02    0.489E-02
DAV:   8    -0.132413076369E+04   -0.49293E-04   -0.50113E-05 20490   0.229E-02
  63 F= -.13241308E+04 E0= -.13241308E+04  d E =-.133581E-02  mag=   114.0000
       N       E                     dE             d eps       ncg     rms          rms(c)
DAV:   1    -0.132407525039E+04    0.55464E-01   -0.30374E+00 46770   0.686E+00    0.105E+00
DAV:   2    -0.132413318803E+04   -0.57938E-01   -0.55014E-01 36480   0.117E+00    0.546E-01
DAV:   3    -0.132413452732E+04   -0.13393E-02   -0.17944E-02 36730   0.265E-01    0.274E-01
DAV:   4    -0.132413435361E+04    0.17371E-03   -0.13653E-03 38500   0.875E-02    0.196E-01
DAV:   5    -0.132413443882E+04   -0.85208E-04   -0.47284E-04 34760   0.724E-02    0.139E-01
DAV:   6    -0.132413420255E+04    0.23627E-03   -0.40643E-04 36130   0.717E-02    0.590E-02
DAV:   7    -0.132413435131E+04   -0.14877E-03   -0.15676E-04 27690   0.337E-02    0.225E-02
DAV:   8    -0.132413433015E+04    0.21164E-04   -0.24750E-05 19120   0.122E-02
  64 F= -.13241343E+04 E0= -.13241343E+04  d E =-.356646E-02  mag=   114.0000
       N       E                     dE             d eps       ncg     rms          rms(c)
DAV:   1    -0.132393277902E+04    0.20157E+00   -0.15360E+01 42170   0.130E+01    0.201E+00
DAV:   2    -0.132411979872E+04   -0.18702E+00   -0.19409E+00 36260   0.237E+00    0.993E-01
DAV:   3    -0.132412272452E+04   -0.29258E-02   -0.57271E-02 36810   0.495E-01    0.515E-01
DAV:   4    -0.132412186370E+04    0.86083E-03   -0.39056E-03 39250   0.136E-01    0.366E-01
DAV:   5    -0.132412138988E+04    0.47382E-03   -0.13236E-03 41090   0.123E-01    0.246E-01
DAV:   6    -0.132412074533E+04    0.64454E-03   -0.14998E-03 42020   0.129E-01    0.135E-01
DAV:   7    -0.132412109865E+04   -0.35331E-03   -0.67757E-04 38000   0.732E-02    0.546E-02
DAV:   8    -0.132412101051E+04    0.88132E-04   -0.79408E-05 23580   0.281E-02    0.339E-02
DAV:   9    -0.132412099504E+04    0.15478E-04   -0.22578E-05 19440   0.152E-02
  65 F= -.13241210E+04 E0= -.13241210E+04  d E =0.133351E-01  mag=   114.0000
       N       E                     dE             d eps       ncg     rms          rms(c)
DAV:   1    -0.131721761262E+04    0.69034E+01   -0.17134E+02 50950   0.659E+01    0.132E+01
DAV:   2    -0.132327875860E+04   -0.60611E+01   -0.51810E+01 37830   0.109E+01    0.103E+01
DAV:   3    -0.132350217036E+04   -0.22341E+00   -0.23356E+00 37340   0.365E+00    0.381E+00
DAV:   4    -0.132350414710E+04   -0.19767E-02   -0.18835E-01 39340   0.133E+00    0.246E+00
DAV:   5    -0.132349657711E+04    0.75700E-02   -0.41590E-02 39920   0.596E-01    0.166E+00
DAV:   6    -0.132349174826E+04    0.48288E-02   -0.16364E-02 41960   0.465E-01    0.895E-01
DAV:   7    -0.132349219187E+04   -0.44362E-03   -0.13122E-02 40530   0.354E-01    0.473E-01
DAV:   8    -0.132349241523E+04   -0.22336E-03   -0.62122E-03 37280   0.231E-01    0.212E-01
DAV:   9    -0.132349362569E+04   -0.12105E-02   -0.80805E-04 37280   0.910E-02    0.830E-02
DAV:  10    -0.132349310478E+04    0.52091E-03   -0.27414E-04 35620   0.369E-02    0.564E-02
DAV:  11    -0.132349320647E+04   -0.10168E-03   -0.41491E-05 20060   0.212E-02    0.255E-02
DAV:  12    -0.132349333717E+04   -0.13070E-03   -0.24433E-05 18740   0.116E-02    0.128E-02
DAV:  13    -0.132349328294E+04    0.54227E-04   -0.85206E-06 18390   0.521E-03    0.749E-03
DAV:  14    -0.132349324945E+04    0.33493E-04   -0.93571E-07 18150   0.293E-03
  66 F= -.13234932E+04 E0= -.13234932E+04  d E =0.627746E+00  mag=   114.0000
       N       E                     dE             d eps       ncg     rms          rms(c)
DAV:   1    -0.132176070288E+04    0.17326E+01   -0.60069E+01 50100   0.403E+01    0.760E+00
DAV:   2    -0.132398189204E+04   -0.22212E+01   -0.19040E+01 38140   0.659E+00    0.487E+00
DAV:   3    -0.132406451718E+04   -0.82625E-01   -0.75989E-01 37350   0.200E+00    0.224E+00
DAV:   4    -0.132406531393E+04   -0.79675E-03   -0.59920E-02 39210   0.703E-01    0.135E+00
DAV:   5    -0.132406053907E+04    0.47749E-02   -0.15527E-02 40730   0.360E-01    0.918E-01
DAV:   6    -0.132405798767E+04    0.25514E-02   -0.91862E-03 42430   0.333E-01    0.454E-01
DAV:   7    -0.132405744227E+04    0.54540E-03   -0.58850E-03 39510   0.219E-01    0.266E-01
DAV:   8    -0.132405843068E+04   -0.98840E-03   -0.17250E-03 36830   0.133E-01    0.122E-01
DAV:   9    -0.132405831466E+04    0.11602E-03   -0.27959E-04 33370   0.546E-02    0.515E-02
DAV:  10    -0.132405814827E+04    0.16639E-03   -0.83879E-05 23970   0.235E-02    0.362E-02
DAV:  11    -0.132405829944E+04   -0.15117E-03   -0.28721E-05 19470   0.160E-02    0.175E-02
DAV:  12    -0.132405829556E+04    0.38804E-05   -0.80508E-06 18500   0.719E-03
  67 F= -.13240583E+04 E0= -.13240583E+04  d E =-.565046E+00  mag=   114.0000
       N       E                     dE             d eps       ncg     rms          rms(c)
DAV:   1    -0.132352893706E+04    0.52936E+00   -0.15277E+01 50130   0.202E+01    0.372E+00
DAV:   2    -0.132409849026E+04   -0.56955E+00   -0.47939E+00 37820   0.313E+00    0.197E+00
DAV:   3    -0.132412078031E+04   -0.22290E-01   -0.16753E-01 37420   0.790E-01    0.854E-01
DAV:   4    -0.132412171365E+04   -0.93335E-03   -0.10976E-02 39710   0.229E-01    0.556E-01
DAV:   5    -0.132412042270E+04    0.12910E-02   -0.31290E-03 42320   0.162E-01    0.362E-01
[...]
DAV:   9    -0.132293437800E+04   -0.50944E-03   -0.23258E-03 37780   0.136E-01    0.175E-01
DAV:  10    -0.132293412317E+04    0.25483E-03   -0.52055E-04 35220   0.719E-02    0.102E-01
DAV:  11    -0.132293426195E+04   -0.13878E-03   -0.10423E-04 26640   0.359E-02    0.428E-02
DAV:  12    -0.132293421627E+04    0.45679E-04   -0.53513E-05 20050   0.200E-02
 171 F= -.13229342E+04 E0= -.13229342E+04  d E =0.114569E+01  mag=   114.0000
       N       E                     dE             d eps       ncg     rms          rms(c)
DAV:   1    -0.132007859743E+04    0.28557E+01   -0.92905E+01 49930   0.498E+01    0.105E+01
DAV:   2    -0.132376965193E+04   -0.36911E+01   -0.31854E+01 38230   0.868E+00    0.685E+00
DAV:   3    -0.132392740844E+04   -0.15776E+00   -0.12902E+00 37770   0.241E+00    0.309E+00
DAV:   4    -0.132392877372E+04   -0.13653E-02   -0.77204E-02 39930   0.645E-01    0.198E+00
DAV:   5    -0.132392276366E+04    0.60101E-02   -0.22675E-02 41500   0.489E-01    0.134E+00
DAV:   6    -0.132391890563E+04    0.38580E-02   -0.23446E-02 40020   0.592E-01    0.930E-01
DAV:   7    -0.132391782435E+04    0.10813E-02   -0.12995E-02 40460   0.384E-01    0.310E-01
DAV:   8    -0.132391833821E+04   -0.51385E-03   -0.26997E-03 37990   0.155E-01    0.152E-01
DAV:   9    -0.132391875343E+04   -0.41523E-03   -0.65552E-04 36670   0.718E-02    0.890E-02
DAV:  10    -0.132391843796E+04    0.31548E-03   -0.11737E-04 27510   0.318E-02    0.487E-02
DAV:  11    -0.132391862400E+04   -0.18604E-03   -0.32499E-05 19520   0.171E-02    0.222E-02
DAV:  12    -0.132391865147E+04   -0.27470E-04   -0.20655E-05 19090   0.125E-02
 172 F= -.13239187E+04 E0= -.13239187E+04  d E =-.984435E+00  mag=   114.0000
       N       E                     dE             d eps       ncg     rms          rms(c)
DAV:   1    -0.132302712347E+04    0.89150E+00   -0.26239E+01 49730   0.272E+01    0.508E+00
DAV:   2    -0.132404370841E+04   -0.10166E+01   -0.87005E+00 37680   0.455E+00    0.277E+00
DAV:   3    -0.132408374519E+04   -0.40037E-01   -0.35205E-01 37710   0.119E+00    0.128E+00
DAV:   4    -0.132408434605E+04   -0.60086E-03   -0.20555E-02 40150   0.316E-01    0.815E-01
DAV:   5    -0.132408231352E+04    0.20325E-02   -0.50086E-03 41460   0.225E-01    0.554E-01
DAV:   6    -0.132408107505E+04    0.12385E-02   -0.44053E-03 41810   0.260E-01    0.369E-01
DAV:   7    -0.132408122141E+04   -0.14636E-03   -0.26251E-03 39810   0.164E-01    0.133E-01
DAV:   8    -0.132408126128E+04   -0.39867E-04   -0.54431E-04 36470   0.707E-02    0.711E-02
DAV:   9    -0.132408141232E+04   -0.15104E-03   -0.13661E-04 28470   0.333E-02    0.402E-02
DAV:  10    -0.132408126343E+04    0.14889E-03   -0.29246E-05 19530   0.166E-02    0.218E-02
DAV:  11    -0.132408132998E+04   -0.66554E-04   -0.89667E-06 18650   0.821E-03    0.112E-02
DAV:  12    -0.132408136113E+04   -0.31151E-04   -0.42633E-06 18240   0.603E-03
 173 F= -.13240814E+04 E0= -.13240814E+04  d E =-.162710E+00  mag=   114.0000
       N       E                     dE             d eps       ncg     rms          rms(c)
DAV:   1    -0.132399674560E+04    0.84584E-01   -0.26320E+00 49890   0.861E+00    0.154E+00
DAV:   2    -0.132409699776E+04   -0.10025E+00   -0.84770E-01 37270   0.138E+00    0.727E-01
DAV:   3    -0.132409982669E+04   -0.28289E-02   -0.29205E-02 37250   0.323E-01    0.333E-01
DAV:   4    -0.132409992760E+04   -0.10091E-03   -0.18663E-03 38940   0.839E-02    0.236E-01
DAV:   5    -0.132409948539E+04    0.44220E-03   -0.40445E-04 36640   0.714E-02    0.168E-01
DAV:   6    -0.132409957811E+04   -0.92719E-04   -0.47874E-04 38030   0.820E-02    0.868E-02
DAV:   7    -0.132409938490E+04    0.19322E-03   -0.22147E-04 32850   0.453E-02    0.320E-02
DAV:   8    -0.132409945579E+04   -0.70896E-04   -0.31176E-05 19540   0.183E-02    0.198E-02
DAV:   9    -0.132409946672E+04   -0.10927E-04   -0.76860E-06 18060   0.832E-03
 174 F= -.13240995E+04 E0= -.13240995E+04  d E =-.181056E-01  mag=   114.0000
       N       E                     dE             d eps       ncg     rms          rms(c)
DAV:   1    -0.132394251922E+04    0.15694E+00   -0.53729E+00 49110   0.112E+01    0.190E+00
DAV:   2    -0.132410621630E+04   -0.16370E+00   -0.14129E+00 36880   0.185E+00    0.954E-01
DAV:   3    -0.132410991630E+04   -0.37000E-02   -0.49776E-02 37220   0.429E-01    0.468E-01
DAV:   4    -0.132410993866E+04   -0.22363E-04   -0.32707E-03 40300   0.116E-01    0.329E-01
DAV:   5    -0.132410922345E+04    0.71521E-03   -0.73223E-04 38470   0.103E-01    0.234E-01
DAV:   6    -0.132410931836E+04   -0.94906E-04   -0.10479E-03 42400   0.121E-01    0.124E-01
DAV:   7    -0.132410901683E+04    0.30153E-03   -0.44042E-04 37340   0.618E-02    0.376E-02
DAV:   8    -0.132410911003E+04   -0.93194E-04   -0.42054E-05 20370   0.204E-02    0.238E-02
DAV:   9    -0.132410913402E+04   -0.23993E-04   -0.93227E-06 18400   0.960E-03
 175 F= -.13241091E+04 E0= -.13241091E+04  d E =-.966730E-02  mag=   114.0000
       N       E                     dE             d eps       ncg     rms          rms(c)
DAV:   1    -0.132407104335E+04    0.38067E-01   -0.17170E+00 46390   0.570E+00    0.961E-01
DAV:   2    -0.132411567297E+04   -0.44630E-01   -0.40815E-01 37320   0.999E-01    0.500E-01
DAV:   3    -0.132411678246E+04   -0.11095E-02   -0.15017E-02 37370   0.249E-01    0.290E-01
DAV:   4    -0.132411674415E+04    0.38312E-04   -0.96301E-04 38810   0.657E-02    0.194E-01
DAV:   5    -0.132411653639E+04    0.20775E-03   -0.24460E-04 32290   0.578E-02    0.138E-01
DAV:   6    -0.132411652743E+04    0.89693E-05   -0.42131E-04 38510   0.734E-02
 176 F= -.13241165E+04 E0= -.13241165E+04  d E =-.739341E-02  mag=   114.0000
       N       E                     dE             d eps       ncg     rms          rms(c)
DAV:   1    -0.132390312825E+04    0.21341E+00   -0.96858E+00 45080   0.131E+01    0.201E+00
DAV:   2    -0.132411393281E+04   -0.21080E+00   -0.19190E+00 37010   0.219E+00    0.116E+00
DAV:   3    -0.132411578552E+04   -0.18527E-02   -0.59316E-02 37210   0.510E-01    0.593E-01
DAV:   4    -0.132411571359E+04    0.71922E-04   -0.36415E-03 40930   0.137E-01    0.391E-01
DAV:   5    -0.132411484766E+04    0.86593E-03   -0.12897E-03 43050   0.134E-01    0.247E-01
DAV:   6    -0.132411485460E+04   -0.69355E-05   -0.17079E-03 40250   0.143E-01    0.180E-01
DAV:   7    -0.132411438120E+04    0.47339E-03   -0.70264E-04 38800   0.823E-02    0.429E-02
DAV:   8    -0.132411461334E+04   -0.23213E-03   -0.68209E-05 22640   0.229E-02    0.254E-02
DAV:   9    -0.132411463429E+04   -0.20951E-04   -0.13831E-05 18730   0.996E-03
 177 F= -.13241146E+04 E0= -.13241146E+04  d E =0.189314E-02  mag=   114.0000
       N       E                     dE             d eps       ncg     rms          rms(c)
DAV:   1    -0.132378116670E+04    0.33345E+00   -0.14490E+01 45440   0.156E+01    0.245E+00
DAV:   2    -0.132407902223E+04   -0.29786E+00   -0.27853E+00 36540   0.272E+00    0.134E+00
DAV:   3    -0.132408421883E+04   -0.51966E-02   -0.94789E-02 37280   0.642E-01    0.716E-01
DAV:   4    -0.132408424767E+04   -0.28835E-04   -0.63676E-03 40040   0.174E-01    0.491E-01
DAV:   5    -0.132408313208E+04    0.11156E-02   -0.18526E-03 42600   0.163E-01    0.337E-01
DAV:   6    -0.132408277046E+04    0.36161E-03   -0.25555E-03 41580   0.184E-01    0.219E-01
DAV:   7    -0.132408222920E+04    0.54126E-03   -0.10947E-03 39010   0.101E-01    0.570E-02
DAV:   8    -0.132408257470E+04   -0.34549E-03   -0.14469E-04 31440   0.313E-02    0.348E-02
DAV:   9    -0.132408254473E+04    0.29964E-04   -0.21816E-05 19490   0.142E-02
 178 F= -.13240825E+04 E0= -.13240825E+04  d E =0.320896E-01  mag=   114.0000
       N       E                     dE             d eps       ncg     rms          rms(c)
DAV:   1    -0.131439191744E+04    0.96907E+01   -0.25174E+02 49620   0.732E+01    0.166E+01
DAV:   2    -0.132309929363E+04   -0.87074E+01   -0.77381E+01 37420   0.139E+01    0.134E+01
DAV:   3    -0.132343271337E+04   -0.33342E+00   -0.37121E+00 37100   0.424E+00    0.511E+00
DAV:   4    -0.132343008532E+04    0.26280E-02   -0.27415E-01 40390   0.130E+00    0.352E+00
DAV:   5    -0.132341822538E+04    0.11860E-01   -0.67774E-02 39800   0.784E-01    0.275E+00
DAV:   6    -0.132340632802E+04    0.11897E-01   -0.45737E-02 38890   0.711E-01    0.179E+00
DAV:   7    -0.132340091216E+04    0.54159E-02   -0.31354E-02 41020   0.609E-01    0.682E-01
DAV:   8    -0.132340177389E+04   -0.86173E-03   -0.11982E-02 38780   0.313E-01    0.363E-01
DAV:   9    -0.132340330064E+04   -0.15268E-02   -0.23029E-03 37480   0.136E-01    0.134E-01
DAV:  10    -0.132340266119E+04    0.63945E-03   -0.45644E-04 36260   0.534E-02    0.779E-02
DAV:  11    -0.132340272367E+04   -0.62480E-04   -0.86806E-05 24510   0.299E-02    0.418E-02
DAV:  12    -0.132340293291E+04   -0.20924E-03   -0.67608E-05 21330   0.241E-02    0.236E-02
DAV:  13    -0.132340279971E+04    0.13321E-03   -0.14790E-05 18670   0.965E-03    0.110E-02
DAV:  14    -0.132340278367E+04    0.16036E-04   -0.27798E-06 18280   0.360E-03
 179 F= -.13234028E+04 E0= -.13234028E+04  d E =0.679761E+00  mag=   114.0000
       N       E                     dE             d eps       ncg     rms          rms(c)
DAV:   1    -0.132156654718E+04    0.18363E+01   -0.62996E+01 49110   0.387E+01    0.776E+00
DAV:   2    -0.132393655858E+04   -0.23700E+01   -0.20566E+01 37730   0.665E+00    0.520E+00
DAV:   3    -0.132403137421E+04   -0.94816E-01   -0.84925E-01 37380   0.184E+00    0.218E+00
DAV:   4    -0.132403285613E+04   -0.14819E-02   -0.60523E-02 40190   0.599E-01    0.144E+00
DAV:   5    -0.132402763454E+04    0.52216E-02   -0.17651E-02 42260   0.381E-01    0.993E-01
DAV:   6    -0.132402553866E+04    0.20959E-02   -0.11105E-02 40940   0.384E-01    0.557E-01
DAV:   7    -0.132402387873E+04    0.16599E-02   -0.58782E-03 40420   0.229E-01    0.232E-01
DAV:   8    -0.132402515487E+04   -0.12761E-02   -0.18028E-03 36830   0.122E-01    0.147E-01
DAV:   9    -0.132402503587E+04    0.11899E-03   -0.49443E-04 34480   0.683E-02    0.652E-02
DAV:  10    -0.132402493753E+04    0.98341E-04   -0.84187E-05 25510   0.243E-02    0.370E-02
DAV:  11    -0.132402505937E+04   -0.12184E-03   -0.22177E-05 18990   0.144E-02    0.192E-02
DAV:  12    -0.132402505198E+04    0.73844E-05   -0.15202E-05 18410   0.109E-02
 180 F= -.13240251E+04 E0= -.13240251E+04  d E =-.622268E+00  mag=   114.0000
       N       E                     dE             d eps       ncg     rms          rms(c)
DAV:   1    -0.132354205789E+04    0.48300E+00   -0.15640E+01 50000   0.187E+01    0.362E+00
DAV:   2    -0.132409675639E+04   -0.55470E+00   -0.47568E+00 37850   0.309E+00    0.201E+00
DAV:   3    -0.132411651168E+04   -0.19755E-01   -0.16708E-01 37120   0.754E-01    0.861E-01
DAV:   4    -0.132411649182E+04    0.19851E-04   -0.97437E-03 41760   0.189E-01    0.570E-01
DAV:   5    -0.132411531567E+04    0.11762E-02   -0.31594E-03 40760   0.163E-01    0.361E-01
DAV:   6    -0.132411473566E+04    0.58001E-03   -0.20428E-03 41320   0.164E-01    0.232E-01
DAV:   7    -0.132411458399E+04    0.15167E-03   -0.12686E-03 38890   0.112E-01    0.103E-01
DAV:   8    -0.132411490688E+04   -0.32289E-03   -0.27162E-04 34070   0.487E-02    0.428E-02
DAV:   9    -0.132411475942E+04    0.14747E-03   -0.57884E-05 21490   0.213E-02    0.300E-02
DAV:  10    -0.132411479576E+04   -0.36338E-04   -0.17446E-05 19080   0.132E-02
 181 F= -.13241148E+04 E0= -.13241148E+04  d E =-.897438E-01  mag=   114.0000
       N       E                     dE             d eps       ncg     rms          rms(c)
DAV:   1    -0.132409212191E+04    0.22638E-01   -0.10102E+00 47820   0.456E+00    0.801E-01
DAV:   2    -0.132412099019E+04   -0.28868E-01   -0.25658E-01 37640   0.782E-01    0.427E-01
DAV:   3    -0.132412202121E+04   -0.10310E-02   -0.94300E-03 37250   0.204E-01    0.240E-01
DAV:   4    -0.132412179987E+04    0.22133E-03   -0.62467E-04 37680   0.587E-02    0.156E-01
DAV:   5    -0.132412175257E+04    0.47308E-04   -0.14309E-04 30470   0.457E-02
 182 F= -.13241218E+04 E0= -.13241218E+04  d E =-.695681E-02  mag=   114.0000
       N       E                     dE             d eps       ncg     rms          rms(c)
DAV:   1    -0.132390473399E+04    0.21707E+00   -0.95502E+00 44670   0.132E+01    0.213E+00
DAV:   2    -0.132412302530E+04   -0.21829E+00   -0.20450E+00 37390   0.231E+00    0.119E+00
DAV:   3    -0.132412691930E+04   -0.38940E-02   -0.66933E-02 37150   0.566E-01    0.692E-01
DAV:   4    -0.132412638257E+04    0.53672E-03   -0.44105E-03 39710   0.142E-01    0.475E-01
DAV:   5    -0.132412528856E+04    0.10940E-02   -0.13183E-03 42650   0.152E-01    0.296E-01
DAV:   6    -0.132412527291E+04    0.15654E-04   -0.19456E-03 41600   0.160E-01    0.186E-01
DAV:   7    -0.132412501802E+04    0.25489E-03   -0.92744E-04 38400   0.958E-02    0.692E-02
DAV:   8    -0.132412518541E+04   -0.16738E-03   -0.11699E-04 27010   0.326E-02    0.359E-02
DAV:   9    -0.132412509836E+04    0.87046E-04   -0.23942E-05 19640   0.160E-02    0.227E-02
DAV:  10    -0.132412513371E+04   -0.35345E-04   -0.64026E-06 18260   0.897E-03
 183 F= -.13241251E+04 E0= -.13241251E+04  d E =-.338114E-02  mag=   114.0000
       N       E                     dE             d eps       ncg     rms          rms(c)
DAV:   1    -0.132354346269E+04    0.58164E+00   -0.22858E+01 45490   0.195E+01    0.337E+00
DAV:   2    -0.132405617598E+04   -0.51271E+00   -0.47196E+00 37020   0.342E+00    0.193E+00
DAV:   3    -0.132406727966E+04   -0.11104E-01   -0.16066E-01 37360   0.841E-01    0.105E+00
DAV:   4    -0.132406676338E+04    0.51628E-03   -0.10617E-02 39480   0.218E-01    0.716E-01
DAV:   5    -0.132406473929E+04    0.20241E-02   -0.28939E-03 42700   0.209E-01    0.441E-01
DAV:   6    -0.132406450627E+04    0.23302E-03   -0.43168E-03 41440   0.235E-01    0.323E-01
DAV:   7    -0.132406379539E+04    0.71088E-03   -0.21697E-03 38800   0.148E-01    0.941E-02
DAV:   8    -0.132406420179E+04   -0.40640E-03   -0.23215E-04 34470   0.440E-02    0.511E-02
DAV:   9    -0.132406413015E+04    0.71649E-04   -0.39634E-05 20500   0.213E-02    0.328E-02
DAV:  10    -0.132406414522E+04   -0.15073E-04   -0.13299E-05 18660   0.142E-02
 184 F= -.13240641E+04 E0= -.13240641E+04  d E =0.609885E-01  mag=   114.0000
       N       E                     dE             d eps       ncg     rms          rms(c)
DAV:   1    -0.131595010101E+04    0.81140E+01   -0.20995E+02 48290   0.642E+01    0.166E+01
DAV:   2    -0.132340906675E+04   -0.74590E+01   -0.66092E+01 37500   0.125E+01    0.134E+01
DAV:   3    -0.132367661067E+04   -0.26754E+00   -0.31565E+00 37330   0.376E+00    0.493E+00
DAV:   4    -0.132367936985E+04   -0.27592E-02   -0.18933E-01 40180   0.925E-01    0.340E+00
DAV:   5    -0.132367105842E+04    0.83114E-02   -0.39271E-02 41340   0.590E-01    0.268E+00
DAV:   6    -0.132366407607E+04    0.69824E-02   -0.43047E-02 39050   0.701E-01    0.192E+00
DAV:   7    -0.132365725567E+04    0.68204E-02   -0.34199E-02 40870   0.642E-01    0.673E-01
DAV:   8    -0.132365811997E+04   -0.86431E-03   -0.10290E-02 38550   0.289E-01    0.335E-01
DAV:   9    -0.132365962249E+04   -0.15025E-02   -0.20131E-03 37290   0.132E-01    0.150E-01
DAV:  10    -0.132365899888E+04    0.62361E-03   -0.31279E-04 34430   0.526E-02    0.785E-02
DAV:  11    -0.132365905310E+04   -0.54214E-04   -0.92790E-05 27440   0.286E-02    0.425E-02
DAV:  12    -0.132365927428E+04   -0.22118E-03   -0.64908E-05 21230   0.237E-02    0.200E-02
DAV:  13    -0.132365914295E+04    0.13133E-03   -0.10709E-05 18510   0.925E-03    0.868E-03
DAV:  14    -0.132365915306E+04   -0.10111E-04   -0.29942E-06 18230   0.347E-03
 185 F= -.13236592E+04 E0= -.13236592E+04  d E =0.404992E+00  mag=   114.0000
       N       E                     dE             d eps       ncg     rms          rms(c)
DAV:   1    -0.132239979856E+04    0.12593E+01   -0.50897E+01 49920   0.318E+01    0.652E+00
DAV:   2    -0.132401168046E+04   -0.16119E+01   -0.13683E+01 37550   0.542E+00    0.481E+00
DAV:   3    -0.132407725430E+04   -0.65574E-01   -0.58704E-01 37280   0.155E+00    0.184E+00
DAV:   4    -0.132407528456E+04    0.19697E-02   -0.42051E-02 39830   0.516E-01    0.115E+00
DAV:   5    -0.132407452307E+04    0.76149E-03   -0.14558E-02 40930   0.359E-01    0.793E-01
DAV:   6    -0.132407167252E+04    0.28506E-02   -0.10861E-02 42770   0.329E-01    0.475E-01
DAV:   7    -0.132407189662E+04   -0.22410E-03   -0.52249E-03 40360   0.223E-01    0.217E-01
DAV:   8    -0.132407179513E+04    0.10149E-03   -0.15218E-03 36980   0.120E-01    0.120E-01
DAV:   9    -0.132407184511E+04   -0.49984E-04   -0.20682E-04 31950   0.418E-02
 186 F= -.13240718E+04 E0= -.13240718E+04  d E =-.412692E+00  mag=   114.0000
       N       E                     dE             d eps       ncg     rms          rms(c)
DAV:   1    -0.132371779329E+04    0.35400E+00   -0.12917E+01 49040   0.159E+01    0.308E+00
DAV:   2    -0.132411260079E+04   -0.39481E+00   -0.33588E+00 37680   0.266E+00    0.172E+00
DAV:   3    -0.132412752785E+04   -0.14927E-01   -0.13265E-01 37360   0.712E-01    0.843E-01
DAV:   4    -0.132412639448E+04    0.11334E-02   -0.95377E-03 39450   0.241E-01    0.540E-01
DAV:   5    -0.132412623581E+04    0.15867E-03   -0.22881E-03 39990   0.149E-01    0.363E-01
DAV:   6    -0.132412535152E+04    0.88429E-03   -0.20094E-03 43210   0.149E-01    0.194E-01
DAV:   7    -0.132412575076E+04   -0.39924E-03   -0.12432E-03 39070   0.103E-01    0.111E-01
DAV:   8    -0.132412553842E+04    0.21234E-03   -0.30011E-04 33580   0.560E-02    0.474E-02
DAV:   9    -0.132412556895E+04   -0.30527E-04   -0.35038E-05 20390   0.144E-02
 187 F= -.13241256E+04 E0= -.13241256E+04  d E =-.537238E-01  mag=   114.0000
       N       E                     dE             d eps       ncg     rms          rms(c)
DAV:   1    -0.132405672377E+04    0.68815E-01   -0.28382E+00 46020   0.701E+00    0.125E+00
DAV:   2    -0.132412487452E+04   -0.68151E-01   -0.61647E-01 37820   0.123E+00    0.653E-01
DAV:   3    -0.132412710098E+04   -0.22265E-02   -0.20603E-02 37180   0.303E-01    0.385E-01
DAV:   4    -0.132412657093E+04    0.53005E-03   -0.14018E-03 38550   0.840E-02    0.261E-01
DAV:   5    -0.132412641057E+04    0.16036E-03   -0.38155E-04 36360   0.732E-02    0.174E-01
DAV:   6    -0.132412621694E+04    0.19363E-03   -0.57665E-04 39950   0.819E-02    0.932E-02
DAV:   7    -0.132412644598E+04   -0.22904E-03   -0.26856E-04 34420   0.487E-02    0.401E-02
DAV:   8    -0.132412630546E+04    0.14052E-03   -0.44252E-05 20140   0.220E-02    0.221E-02
DAV:   9    -0.132412629420E+04    0.11259E-04   -0.92138E-06 18150   0.894E-03
 188 F= -.13241263E+04 E0= -.13241263E+04  d E =-.725256E-03  mag=   114.0000
       N       E                     dE             d eps       ncg     rms          rms(c)
DAV:   1    -0.132395666155E+04    0.16964E+00   -0.10122E+01 40810   0.114E+01    0.187E+00
DAV:   2    -0.132411721359E+04   -0.16055E+00   -0.16013E+00 37650   0.213E+00    0.106E+00
DAV:   3    -0.132411957324E+04   -0.23596E-02   -0.48089E-02 36740   0.501E-01    0.638E-01
DAV:   4    -0.132411852145E+04    0.10518E-02   -0.31829E-03 39960   0.114E-01    0.437E-01
DAV:   5    -0.132411737683E+04    0.11446E-02   -0.11429E-03 41610   0.133E-01    0.265E-01
DAV:   6    -0.132411709594E+04    0.28089E-03   -0.18116E-03 41240   0.141E-01    0.168E-01
DAV:   7    -0.132411756958E+04   -0.47363E-03   -0.75464E-04 37380   0.830E-02    0.532E-02
DAV:   8    -0.132411727236E+04    0.29722E-03   -0.74673E-05 22590   0.289E-02    0.323E-02
DAV:   9    -0.132411723901E+04    0.33348E-04   -0.19074E-05 19220   0.147E-02
 189 F= -.13241172E+04 E0= -.13241172E+04  d E =0.905519E-02  mag=   114.0000
       N       E                     dE             d eps       ncg     rms          rms(c)
DAV:   1    -0.132065992307E+04    0.34573E+01   -0.96728E+01 46820   0.442E+01    0.979E+00
