       N       E                     dE             d eps       ncg     rms          ort
DAV:   1     0.112479106994E+05    0.11248E+05   -0.46716E+05  8540   0.171E+03
DAV:   2     0.275305131845E+02   -0.11220E+05   -0.10204E+05  8540   0.487E+02
DAV:   3    -0.160851674626E+04   -0.16360E+04   -0.15505E+04  8540   0.198E+02
DAV:   4    -0.169271670874E+04   -0.84200E+02   -0.82988E+02  8540   0.457E+01
DAV:   5    -0.169379518975E+04   -0.10785E+01   -0.10751E+01  8540   0.559E+00
SDA:   6    -0.803713670246E+03    0.89008E+03   -0.10751E+01  8540   0.300E+04 0.000E+00
CGA:   7    -0.122888715024E+04   -0.42517E+03   -0.42461E+03  8540   0.310E+03 0.326E+02
CGA:   8    -0.128720557310E+04   -0.58318E+02   -0.58404E+02  8540   0.742E+02 0.499E+01
CGA:   9    -0.131125206263E+04   -0.24046E+02   -0.24381E+02  8540   0.499E+02-0.329E+01
CGA:  10    -0.131955239613E+04   -0.83003E+01   -0.85381E+01  8540   0.129E+02 0.397E+01
CGA:  11    -0.132267409595E+04   -0.31217E+01   -0.31366E+01  8540   0.372E+01-0.630E+00
CGA:  12    -0.132350195693E+04   -0.82786E+00   -0.83780E+00  8540   0.109E+01-0.295E+00
CGA:  13    -0.132376416763E+04   -0.26221E+00   -0.26257E+00  8540   0.395E+00-0.711E-02
CGA:  14    -0.132386642693E+04   -0.10226E+00   -0.10128E+00  8540   0.147E+00 0.185E-01
CGA:  15    -0.132391752609E+04   -0.51099E-01   -0.57968E-01  8540   0.899E-01-0.415E-01
CGA:  16    -0.132392940549E+04   -0.11879E-01   -0.35395E-01  8540   0.117E+00-0.718E-01
CGA:  17    -0.132396118009E+04   -0.31775E-01   -0.32066E-01  8540   0.350E-01-0.745E-02
CGA:  18    -0.132396977602E+04   -0.85959E-02   -0.86851E-02  8540   0.940E-02-0.301E-02
CGA:  19    -0.132393678299E+04    0.32993E-01   -0.17911E-01  8540   0.207E+00-0.363E-01
CGA:  20    -0.132397101450E+04   -0.34232E-01   -0.35823E-01  8540   0.248E-01 0.945E-02
CGA:  21    -0.132397639095E+04   -0.53764E-02   -0.60215E-02  8540   0.429E-02 0.339E-02
CGA:  22    -0.132397723668E+04   -0.84574E-03   -0.11942E-02  8540   0.148E-02 0.209E-02
CGA:  23    -0.132397742162E+04   -0.18493E-03   -0.38806E-03  8540   0.349E-03 0.894E-03
CGA:  24    -0.132397762876E+04   -0.20715E-03   -0.29350E-03  8540   0.515E-03-0.192E-03
CGA:  25    -0.132397760267E+04    0.26098E-04   -0.50280E-04  8540   0.128E-03 0.241E-03
CGA:  26    -0.132397758498E+04    0.17689E-04   -0.14031E-04  8540   0.474E-04 0.978E-04
CGA:  27    -0.132397763037E+04   -0.45397E-04    0.35897E-04  8540   0.854E-05-0.210E-05
CGA:  28    -0.132397771777E+04   -0.87398E-04    0.12033E-06  8540   0.549E-05-0.141E-05
CGA:  29    -0.132397774383E+04   -0.26059E-04    0.13660E-06  8540   0.168E-05-0.912E-07
CGA:  30    -0.132397774340E+04    0.42700E-06   -0.62741E-07  8540   0.127E-05 0.142E-05
   1 F= -.13239777E+04 E0= -.13239777E+04  d E =-.132398E+04  mag=   126.0000
       N       E                     dE             d eps       ncg     rms          ort
SDA:   1    -0.132397989335E+04   -0.21495E-02    0.00000E+00  8540   0.185E-02 0.000E+00
CGA:   2    -0.132398032817E+04   -0.43482E-03   -0.43930E-03  8540   0.850E-03 0.394E-04
CGA:   3    -0.132398053568E+04   -0.20751E-03   -0.20316E-03  8540   0.195E-03-0.405E-04
CGA:   4    -0.132398059427E+04   -0.58594E-04   -0.54607E-04  8540   0.110E-03-0.940E-04
CGA:   5    -0.132398059763E+04   -0.33643E-05   -0.65995E-05  8540   0.416E-04 0.147E-04
   2 F= -.13239806E+04 E0= -.13239806E+04  d E =-.285423E-02  mag=   126.0000
       N       E                     dE             d eps       ncg     rms          ort
SDA:   1    -0.132368202517E+04    0.29857E+00    0.00000E+00  8540   0.941E+00 0.000E+00
CGA:   2    -0.132391386189E+04   -0.23184E+00   -0.23189E+00  8540   0.448E+00 0.375E-03
CGA:   3    -0.132401165706E+04   -0.97795E-01   -0.97687E-01  8540   0.894E-01-0.143E-02
CGA:   4    -0.132403020253E+04   -0.18545E-01   -0.18454E-01  8540   0.161E-01-0.965E-03
CGA:   5    -0.132403353463E+04   -0.33321E-02   -0.33641E-02  8540   0.358E-02 0.357E-03
CGA:   6    -0.132403435079E+04   -0.81616E-03   -0.83424E-03  8540   0.887E-03 0.271E-03
CGA:   7    -0.132403463470E+04   -0.28391E-03   -0.28436E-03  8540   0.340E-03-0.689E-04
CGA:   8    -0.132403474652E+04   -0.11183E-03   -0.13039E-03  8540   0.251E-03-0.149E-03
CGA:   9    -0.132403479163E+04   -0.45105E-04   -0.48899E-04  8540   0.118E-03-0.770E-04
CGA:  10    -0.132403480587E+04   -0.14242E-04   -0.16344E-04  8540   0.494E-04 0.208E-04
CGA:  11    -0.132403481515E+04   -0.92775E-05   -0.10920E-04  8540   0.203E-04 0.153E-04
CGA:  12    -0.132403482511E+04   -0.99658E-05   -0.12113E-04  8540   0.215E-04-0.131E-04
CGA:  13    -0.132403483289E+04   -0.77783E-05   -0.10591E-04  8540   0.207E-04-0.145E-04
CGA:  14    -0.132403484622E+04   -0.13327E-04    0.69866E-04  8540   0.102E-04-0.107E-04
CGA:  15    -0.132403484468E+04    0.15352E-05   -0.43100E-06  8540   0.530E-05 0.740E-05
   3 F= -.13240348E+04 E0= -.13240348E+04  d E =-.542470E-01  mag=   126.0000
       N       E                     dE             d eps       ncg     rms          ort
SDA:   1    -0.132018044474E+04    0.38544E+01    0.00000E+00  8540   0.103E+02 0.000E+00
CGA:   2    -0.132279717606E+04   -0.26167E+01   -0.26170E+01  8540   0.500E+01 0.306E-02
CGA:   3    -0.132385982636E+04   -0.10627E+01   -0.10625E+01  8540   0.971E+00-0.466E-02
CGA:   4    -0.132405833394E+04   -0.19851E+00   -0.19835E+00  8540   0.172E+00-0.228E-02
CGA:   5    -0.132409564771E+04   -0.37314E-01   -0.37375E-01  8540   0.397E-01 0.106E-02
CGA:   6    -0.132410526986E+04   -0.96221E-02   -0.96373E-02  8540   0.105E-01 0.505E-03
CGA:   7    -0.132410825263E+04   -0.29828E-02   -0.29874E-02  8540   0.352E-02-0.399E-03
CGA:   8    -0.132410935273E+04   -0.11001E-02   -0.11308E-02  8540   0.147E-02-0.477E-03
CGA:   9    -0.132410978288E+04   -0.43014E-03   -0.45025E-03  8540   0.571E-03-0.247E-03
CGA:  10    -0.132410992405E+04   -0.14117E-03   -0.14128E-03  8540   0.154E-03-0.549E-05
CGA:  11    -0.132410996765E+04   -0.43603E-04   -0.95356E-04  8540   0.245E-03-0.149E-03
CGA:  12    -0.132411002393E+04   -0.56274E-04   -0.56844E-04  8540   0.304E-04 0.902E-05
CGA:  13    -0.132411006246E+04   -0.38530E-04    0.42071E-05  8540   0.123E-04-0.927E-06
CGA:  14    -0.132411006377E+04   -0.13115E-05   -0.19743E-05  8540   0.421E-05 0.526E-05
   4 F= -.13241101E+04 E0= -.13241101E+04  d E =-.752191E-01  mag=   126.0000
       N       E                     dE             d eps       ncg     rms          ort
SDA:   1    -0.132360931517E+04    0.50075E+00    0.00000E+00  8540   0.132E+01 0.000E+00
CGA:   2    -0.132396799224E+04   -0.35868E+00   -0.35868E+00  8540   0.629E+00-0.377E-03
CGA:   3    -0.132409314267E+04   -0.12515E+00   -0.12512E+00  8540   0.116E+00-0.539E-03
CGA:   4    -0.132411711136E+04   -0.23969E-01   -0.24016E-01  8540   0.211E-01 0.638E-03
CGA:   5    -0.132412168858E+04   -0.45772E-02   -0.45733E-02  8540   0.483E-02-0.731E-04
CGA:   6    -0.132412293436E+04   -0.12458E-02   -0.12415E-02  8540   0.148E-02-0.311E-03
CGA:   7    -0.132412331169E+04   -0.37732E-03   -0.37747E-03  8540   0.466E-03-0.708E-04
CGA:   8    -0.132412345812E+04   -0.14643E-03   -0.15203E-03  8540   0.201E-03-0.784E-04
CGA:   9    -0.132412351333E+04   -0.55209E-04   -0.56912E-04  8540   0.669E-04-0.262E-04
CGA:  10    -0.132412353023E+04   -0.16904E-04   -0.33744E-04  8540   0.877E-04-0.559E-04
CGA:  11    -0.132412354582E+04   -0.15584E-04   -0.16719E-04  8540   0.981E-05 0.111E-04
CGA:  12    -0.132412355613E+04   -0.10317E-04    0.25588E-05  8540   0.305E-05 0.693E-06
CGA:  13    -0.132412355642E+04   -0.28370E-06   -0.52044E-06  8540   0.144E-05 0.184E-05
   5 F= -.13241236E+04 E0= -.13241236E+04  d E =-.134927E-01  mag=   126.0000
       N       E                     dE             d eps       ncg     rms          ort
SDA:   1    -0.132188912589E+04    0.22344E+01    0.00000E+00  8540   0.561E+01 0.000E+00
CGA:   2    -0.132348205685E+04   -0.15929E+01   -0.15929E+01  8540   0.272E+01-0.311E-02
CGA:   3    -0.132400957705E+04   -0.52752E+00   -0.52764E+00  8540   0.478E+00 0.340E-03
CGA:   4    -0.132410817278E+04   -0.98596E-01   -0.98736E-01  8540   0.887E-01 0.184E-02
CGA:   5    -0.132412733770E+04   -0.19165E-01   -0.19150E-01  8540   0.203E-01-0.289E-03
CGA:   6    -0.132413240640E+04   -0.50687E-02   -0.50535E-02  8540   0.591E-02-0.747E-03
CGA:   7    -0.132413393900E+04   -0.15326E-02   -0.15326E-02  8540   0.184E-02-0.110E-03
CGA:   8    -0.132413448886E+04   -0.54986E-03   -0.54998E-03  8540   0.626E-03-0.346E-05
CGA:   9    -0.132413470493E+04   -0.21607E-03   -0.21816E-03  8540   0.215E-03-0.268E-04
CGA:  10    -0.132413478120E+04   -0.76270E-04   -0.82050E-04  8540   0.921E-04-0.466E-04
CGA:  11    -0.132413480298E+04   -0.21771E-04   -0.42366E-04  8540   0.110E-03-0.674E-04
CGA:  12    -0.132413483153E+04   -0.28557E-04   -0.28195E-04  8540   0.208E-04-0.876E-05
CGA:  13    -0.132413483530E+04   -0.37703E-05   -0.42704E-05  8540   0.552E-05 0.693E-05
   6 F= -.13241348E+04 E0= -.13241348E+04  d E =-.112789E-01  mag=   126.0000
       N       E                     dE             d eps       ncg     rms          ort
SDA:   1    -0.132344803544E+04    0.68680E+00    0.00000E+00  8540   0.193E+01 0.000E+00
CGA:   2    -0.132389530066E+04   -0.44727E+00   -0.44742E+00  8540   0.879E+00 0.159E-02
CGA:   3    -0.132409194198E+04   -0.19664E+00   -0.19671E+00  8540   0.184E+00 0.649E-03
CGA:   4    -0.132412953484E+04   -0.37593E-01   -0.37630E-01  8540   0.330E-01 0.410E-03
CGA:   5    -0.132413688544E+04   -0.73506E-02   -0.73430E-02  8540   0.784E-02-0.140E-03
CGA:   6    -0.132413877282E+04   -0.18874E-02   -0.18844E-02  8540   0.210E-02-0.820E-04
CGA:   7    -0.132413929623E+04   -0.52341E-03   -0.52578E-03  8540   0.585E-03 0.101E-03
CGA:   8    -0.132413947914E+04   -0.18292E-03   -0.18275E-03  8540   0.200E-03 0.712E-05
CGA:   9    -0.132413954589E+04   -0.66746E-04   -0.66428E-04  8540   0.714E-04 0.599E-05
CGA:  10    -0.132413956878E+04   -0.22890E-04   -0.22615E-04  8540   0.221E-04 0.958E-05
CGA:  11    -0.132413957460E+04   -0.58264E-05   -0.61334E-05  8540   0.728E-05 0.853E-05
   7 F= -.13241396E+04 E0= -.13241396E+04  d E =-.473930E-02  mag=   126.0000
       N       E                     dE             d eps       ncg     rms          ort
SDA:   1    -0.132390737973E+04    0.23219E+00    0.00000E+00  8540   0.662E+00 0.000E+00
CGA:   2    -0.132406399218E+04   -0.15661E+00   -0.15667E+00  8540   0.301E+00 0.117E-02
CGA:   3    -0.132413072905E+04   -0.66737E-01   -0.66732E-01  8540   0.644E-01-0.223E-03
CGA:   4    -0.132414405441E+04   -0.13325E-01   -0.13300E-01  8540   0.116E-01-0.409E-03
CGA:   5    -0.132414650625E+04   -0.24518E-02   -0.24523E-02  8540   0.272E-02 0.542E-05
CGA:   6    -0.132414713683E+04   -0.63058E-03   -0.63426E-03  8540   0.684E-03 0.120E-03
CGA:   7    -0.132414731612E+04   -0.17929E-03   -0.17986E-03  8540   0.195E-03 0.528E-04
CGA:   8    -0.132414738638E+04   -0.70255E-04   -0.71319E-04  8540   0.835E-04-0.139E-04
CGA:   9    -0.132414741258E+04   -0.26208E-04   -0.26669E-04  8540   0.309E-04-0.592E-05
CGA:  10    -0.132414741958E+04   -0.69941E-05   -0.71405E-05  8540   0.922E-05 0.689E-05
   8 F= -.13241474E+04 E0= -.13241474E+04  d E =-.784497E-02  mag=   126.0000
       N       E                     dE             d eps       ncg     rms          ort
SDA:   1    -0.132376381972E+04    0.38359E+00    0.00000E+00  8540   0.102E+01 0.000E+00
CGA:   2    -0.132402282032E+04   -0.25900E+00   -0.25901E+00  8540   0.491E+00 0.822E-03
CGA:   3    -0.132412621396E+04   -0.10339E+00   -0.10340E+00  8540   0.964E-01-0.690E-04
CGA:   4    -0.132414588425E+04   -0.19670E-01   -0.19640E-01  8540   0.172E-01-0.534E-03
CGA:   5    -0.132414960505E+04   -0.37208E-02   -0.37190E-02  8540   0.407E-02-0.479E-04
CGA:   6    -0.132415056933E+04   -0.96428E-03   -0.96531E-03  8540   0.104E-02 0.550E-04
CGA:   7    -0.132415084084E+04   -0.27151E-03   -0.27143E-03  8540   0.303E-03 0.403E-04
CGA:   8    -0.132415094131E+04   -0.10048E-03   -0.10085E-03  8540   0.115E-03-0.582E-05
CGA:   9    -0.132415098446E+04   -0.43144E-04   -0.51251E-04  8540   0.790E-04-0.412E-04
CGA:  10    -0.132415099584E+04   -0.11387E-04   -0.11642E-04  8540   0.288E-04 0.665E-05
CGA:  11    -0.132415100221E+04   -0.63687E-05   -0.65946E-05  8540   0.108E-04 0.407E-05
   9 F= -.13241510E+04 E0= -.13241510E+04  d E =-.358264E-02  mag=   126.0000
       N       E                     dE             d eps       ncg     rms          ort
SDA:   1    -0.132350361139E+04    0.64738E+00    0.00000E+00  8540   0.168E+01 0.000E+00
CGA:   2    -0.132394178394E+04   -0.43817E+00   -0.43820E+00  8540   0.819E+00 0.162E-02
CGA:   3    -0.132411184302E+04   -0.17006E+00   -0.17004E+00  8540   0.150E+00-0.469E-03
CGA:   4    -0.132414243271E+04   -0.30590E-01   -0.30572E-01  8540   0.266E-01-0.291E-03
CGA:   5    -0.132414835716E+04   -0.59245E-02   -0.59132E-02  8540   0.641E-02-0.273E-03
CGA:   6    -0.132414991098E+04   -0.15538E-02   -0.15515E-02  8540   0.170E-02-0.127E-03
CGA:   7    -0.132415033580E+04   -0.42482E-03   -0.42522E-03  8540   0.491E-03 0.578E-04
CGA:   8    -0.132415049167E+04   -0.15586E-03   -0.15548E-03  8540   0.171E-03 0.843E-05
CGA:   9    -0.132415055706E+04   -0.65390E-04   -0.68917E-04  8540   0.821E-04-0.270E-04
CGA:  10    -0.132415058280E+04   -0.25739E-04   -0.32806E-04  8540   0.536E-04-0.348E-04
CGA:  11    -0.132415059293E+04   -0.10128E-04   -0.10782E-04  8540   0.221E-04-0.966E-05
CGA:  12    -0.132415060012E+04   -0.71994E-05   -0.88195E-05  8540   0.175E-04-0.802E-05
  10 F= -.13241506E+04 E0= -.13241506E+04  d E =0.402089E-03  mag=   126.0000
       N       E                     dE             d eps       ncg     rms          ort
SDA:   1    -0.132325374041E+04    0.89685E+00    0.00000E+00  8540   0.231E+01 0.000E+00
CGA:   2    -0.132386609680E+04   -0.61236E+00   -0.61238E+00  8540   0.115E+01-0.830E-04
CGA:   3    -0.132410134569E+04   -0.23525E+00   -0.23532E+00  8540   0.204E+00 0.551E-03
CGA:   4    -0.132414254552E+04   -0.41200E-01   -0.41212E-01  8540   0.365E-01 0.118E-03
CGA:   5    -0.132415077622E+04   -0.82307E-02   -0.82133E-02  8540   0.872E-02-0.348E-03
CGA:   6    -0.132415287860E+04   -0.21024E-02   -0.20966E-02  8540   0.230E-02-0.191E-03
CGA:   7    -0.132415344984E+04   -0.57124E-03   -0.57299E-03  8540   0.650E-03 0.981E-04
CGA:   8    -0.132415363740E+04   -0.18757E-03   -0.18718E-03  8540   0.201E-03 0.735E-04
CGA:   9    -0.132415372171E+04   -0.84310E-04   -0.85996E-04  8540   0.940E-04-0.150E-04
CGA:  10    -0.132415375108E+04   -0.29366E-04   -0.29703E-04  8540   0.327E-04-0.527E-05
CGA:  11    -0.132415376255E+04   -0.11477E-04   -0.12545E-04  8540   0.148E-04-0.848E-05
CGA:  12    -0.132415376310E+04   -0.54920E-06   -0.15112E-05  8540   0.777E-05 0.645E-05
  11 F= -.13241538E+04 E0= -.13241538E+04  d E =-.316298E-02  mag=   126.0000
       N       E                     dE             d eps       ncg     rms          ort
SDA:   1    -0.132395727208E+04    0.19649E+00    0.00000E+00  8540   0.536E+00 0.000E+00
CGA:   2    -0.132408427199E+04   -0.12700E+00   -0.12702E+00  8540   0.255E+00 0.361E-03
CGA:   3    -0.132414065943E+04   -0.56387E-01   -0.56391E-01  8540   0.519E-01-0.138E-04
CGA:   4    -0.132415112798E+04   -0.10469E-01   -0.10470E-01  8540   0.943E-02 0.154E-04
CGA:   5    -0.132415319678E+04   -0.20688E-02   -0.20634E-02  8540   0.227E-02-0.124E-03
CGA:   6    -0.132415374169E+04   -0.54491E-03   -0.54356E-03  8540   0.617E-03-0.736E-04
CGA:   7    -0.132415388764E+04   -0.14595E-03   -0.14637E-03  8540   0.161E-03 0.283E-04
CGA:   8    -0.132415393335E+04   -0.45712E-04   -0.45532E-04  8540   0.464E-04 0.155E-04
CGA:   9    -0.132415395346E+04   -0.20109E-04   -0.22693E-04  8540   0.308E-04-0.139E-04
CGA:  10    -0.132415396052E+04   -0.70600E-05   -0.94947E-05  8540   0.199E-04-0.143E-04
  12 F= -.13241540E+04 E0= -.13241540E+04  d E =-.197419E-03  mag=   126.0000
       N       E                     dE             d eps       ncg     rms          ort
SDA:   1    -0.132411515992E+04    0.38794E-01    0.00000E+00  8540   0.117E+00 0.000E+00
CGA:   2    -0.132414035006E+04   -0.25190E-01   -0.25204E-01  8540   0.492E-01 0.154E-03
CGA:   3    -0.132415203067E+04   -0.11681E-01   -0.11682E-01  8540   0.117E-01 0.138E-04
CGA:   4    -0.132415446644E+04   -0.24358E-02   -0.24362E-02  8540   0.214E-02 0.331E-05
CGA:   5    -0.132415491613E+04   -0.44969E-03   -0.45213E-03  8540   0.477E-03 0.402E-04
CGA:   6    -0.132415502596E+04   -0.10983E-03   -0.11117E-03  8540   0.116E-03 0.348E-04
CGA:   7    -0.132415506150E+04   -0.35534E-04   -0.35603E-04  8540   0.392E-04-0.340E-05
CGA:   8    -0.132415506439E+04   -0.28988E-05   -0.26730E-04  8540   0.126E-03-0.546E-04
CGA:   9    -0.132415508218E+04   -0.17783E-04   -0.20113E-04  8540   0.125E-04 0.180E-04
CGA:  10    -0.132415508426E+04   -0.20826E-05   -0.26166E-05  8540   0.380E-05 0.538E-05
  13 F= -.13241551E+04 E0= -.13241551E+04  d E =-.112374E-02  mag=   126.0000
       N       E                     dE             d eps       ncg     rms          ort
SDA:   1    -0.132408458767E+04    0.70495E-01    0.00000E+00  8540   0.181E+00 0.000E+00
CGA:   2    -0.132413063216E+04   -0.46044E-01   -0.46051E-01  8540   0.907E-01 0.248E-03
CGA:   3    -0.132414992561E+04   -0.19293E-01   -0.19293E-01  8540   0.166E-01-0.388E-04
CGA:   4    -0.132415327011E+04   -0.33445E-02   -0.33401E-02  8540   0.299E-02-0.682E-04
CGA:   5    -0.132415393166E+04   -0.66155E-03   -0.66010E-03  8540   0.725E-03-0.342E-04
CGA:   6    -0.132415409400E+04   -0.16234E-03   -0.16295E-03  8540   0.174E-03 0.167E-04
CGA:   7    -0.132415413540E+04   -0.41403E-04   -0.41965E-04  8540   0.455E-04 0.214E-04
CGA:   8    -0.132415415329E+04   -0.17890E-04   -0.18729E-04  8540   0.238E-04-0.788E-05
CGA:   9    -0.132415415999E+04   -0.67011E-05   -0.97641E-05  8540   0.210E-04-0.133E-04
  14 F= -.13241542E+04 E0= -.13241542E+04  d E =0.924265E-03  mag=   126.0000
       N       E                     dE             d eps       ncg     rms          ort
SDA:   1    -0.132393468841E+04    0.21946E+00    0.00000E+00  8540   0.600E+00 0.000E+00
CGA:   2    -0.132407342679E+04   -0.13874E+00   -0.13876E+00  8540   0.280E+00 0.293E-03
CGA:   3    -0.132413693908E+04   -0.63512E-01   -0.63535E-01  8540   0.594E-01 0.412E-03
CGA:   4    -0.132414888246E+04   -0.11943E-01   -0.11960E-01  8540   0.103E-01 0.228E-03
CGA:   5    -0.132415113999E+04   -0.22575E-02   -0.22586E-02  8540   0.248E-02 0.176E-04
CGA:   6    -0.132415173253E+04   -0.59254E-03   -0.59236E-03  8540   0.637E-03-0.759E-05
CGA:   7    -0.132415188583E+04   -0.15330E-03   -0.15420E-03  8540   0.166E-03 0.444E-04
CGA:   8    -0.132415193814E+04   -0.52312E-04   -0.52095E-04  8540   0.536E-04 0.692E-05
CGA:   9    -0.132415195658E+04   -0.18439E-04   -0.18273E-04  8540   0.187E-04 0.257E-05
CGA:  10    -0.132415196206E+04   -0.54835E-05   -0.54410E-05  8540   0.555E-05 0.399E-05
  15 F= -.13241520E+04 E0= -.13241520E+04  d E =0.219793E-02  mag=   126.0000
       N       E                     dE             d eps       ncg     rms          ort
SDA:   1    -0.132384995002E+04    0.30201E+00    0.00000E+00  8540   0.834E+00 0.000E+00
CGA:   2    -0.132404148356E+04   -0.19153E+00   -0.19159E+00  8540   0.389E+00 0.921E-03
CGA:   3    -0.132413077251E+04   -0.89289E-01   -0.89303E-01  8540   0.817E-01 0.212E-03
CGA:   4    -0.132414733925E+04   -0.16567E-01   -0.16570E-01  8540   0.141E-01 0.324E-04
CGA:   5    -0.132415044484E+04   -0.31056E-02   -0.31052E-02  8540   0.336E-02-0.147E-04
CGA:   6    -0.132415126667E+04   -0.82183E-03   -0.82079E-03  8540   0.881E-03-0.621E-04
CGA:   7    -0.132415149036E+04   -0.22369E-03   -0.22370E-03  8540   0.250E-03 0.387E-05
CGA:   8    -0.132415156400E+04   -0.73647E-04   -0.73664E-04  8540   0.792E-04-0.615E-06
CGA:   9    -0.132415159154E+04   -0.27538E-04   -0.28030E-04  8540   0.298E-04-0.535E-05
CGA:  10    -0.132415160219E+04   -0.10644E-04   -0.13900E-04  8540   0.226E-04-0.140E-04
CGA:  11    -0.132415160909E+04   -0.69056E-05    0.47983E-04  8540   0.850E-05-0.215E-05
  16 F= -.13241516E+04 E0= -.13241516E+04  d E =0.352973E-03  mag=   126.0000
       N       E                     dE             d eps       ncg     rms          ort
SDA:   1    -0.132400784237E+04    0.14376E+00    0.00000E+00  8540   0.400E+00 0.000E+00
CGA:   2    -0.132410046990E+04   -0.92628E-01   -0.92644E-01  8540   0.188E+00 0.757E-04
CGA:   3    -0.132414258992E+04   -0.42120E-01   -0.42150E-01  8540   0.392E-01 0.403E-03
CGA:   4    -0.132415043167E+04   -0.78417E-02   -0.78645E-02  8540   0.685E-02 0.253E-03
CGA:   5    -0.132415195185E+04   -0.15202E-02   -0.15195E-02  8540   0.166E-02-0.134E-04
CGA:   6    -0.132415235596E+04   -0.40411E-03   -0.40239E-03  8540   0.444E-03-0.464E-04
CGA:   7    -0.132415246474E+04   -0.10878E-03   -0.10898E-03  8540   0.123E-03 0.794E-05
CGA:   8    -0.132415249621E+04   -0.31465E-04   -0.31839E-04  8540   0.329E-04 0.167E-04
CGA:   9    -0.132415250648E+04   -0.10278E-04   -0.10285E-04  8540   0.108E-04 0.799E-05
CGA:  10    -0.132415251195E+04   -0.54687E-05   -0.57858E-05  8540   0.711E-05-0.205E-05
  17 F= -.13241525E+04 E0= -.13241525E+04  d E =-.902861E-03  mag=   126.0000
       N       E                     dE             d eps       ncg     rms          ort
SDA:   1    -0.132369366858E+04    0.45884E+00    0.00000E+00  8540   0.122E+01 0.000E+00
CGA:   2    -0.132399439860E+04   -0.30073E+00   -0.30076E+00  8540   0.591E+00-0.128E-03
CGA:   3    -0.132412158944E+04   -0.12719E+00   -0.12729E+00  8540   0.113E+00 0.907E-03
CGA:   4    -0.132414440701E+04   -0.22818E-01   -0.22884E-01  8540   0.198E-01 0.629E-03
CGA:   5    -0.132414884920E+04   -0.44422E-02   -0.44381E-02  8540   0.471E-02-0.609E-04
CGA:   6    -0.132415000214E+04   -0.11529E-02   -0.11478E-02  8540   0.125E-02-0.103E-03
CGA:   7    -0.132415030606E+04   -0.30391E-03   -0.30608E-03  8540   0.341E-03 0.520E-04
CGA:   8    -0.132415039936E+04   -0.93299E-04   -0.94391E-04  8540   0.984E-04 0.438E-04
CGA:   9    -0.132415043228E+04   -0.32927E-04   -0.32809E-04  8540   0.327E-04 0.185E-04
CGA:  10    -0.132415044793E+04   -0.15642E-04   -0.16273E-04  8540   0.181E-04-0.488E-05
CGA:  11    -0.132415045319E+04   -0.52604E-05   -0.54196E-05  8540   0.680E-05-0.283E-05
  18 F= -.13241505E+04 E0= -.13241505E+04  d E =0.205877E-02  mag=   126.0000
       N       E                     dE             d eps       ncg     rms          ort
SDA:   1    -0.131076166099E+04    0.13389E+02    0.00000E+00  8540   0.398E+02 0.000E+00
CGA:   2    -0.131895771800E+04   -0.81961E+01   -0.82145E+01  8540   0.160E+02 0.627E-01
CGA:   3    -0.132286930201E+04   -0.39116E+01   -0.39121E+01  8540   0.411E+01 0.457E-02
CGA:   4    -0.132371313110E+04   -0.84383E+00   -0.84316E+00  8540   0.749E+00-0.953E-02
CGA:   5    -0.132387350880E+04   -0.16038E+00   -0.16041E+00  8540   0.173E+00 0.984E-04
CGA:   6    -0.132391449602E+04   -0.40987E-01   -0.41019E-01  8540   0.445E-01 0.700E-03
CGA:   7    -0.132392631245E+04   -0.11816E-01   -0.11820E-01  8540   0.129E-01 0.326E-03
CGA:   8    -0.132393008606E+04   -0.37736E-02   -0.37740E-02  8540   0.401E-02-0.334E-04
CGA:   9    -0.132393147135E+04   -0.13853E-02   -0.14002E-02  8540   0.147E-02-0.205E-03
CGA:  10    -0.132393189029E+04   -0.41894E-03   -0.41592E-03  8540   0.413E-03 0.173E-03
CGA:  11    -0.132393203436E+04   -0.14407E-03   -0.14270E-03  8540   0.114E-03 0.488E-04
CGA:  12    -0.132393208276E+04   -0.48401E-04   -0.49079E-04  8540   0.492E-04-0.678E-05
CGA:  13    -0.132393209901E+04   -0.16253E-04   -0.15942E-04  8540   0.171E-04 0.536E-05
CGA:  14    -0.132393210730E+04   -0.82924E-05   -0.87452E-05  8540   0.952E-05-0.271E-05
  19 F= -.13239321E+04 E0= -.13239321E+04  d E =0.218346E+00  mag=   126.0000
       N       E                     dE             d eps       ncg     rms          ort
SDA:   1    -0.131906195061E+04    0.48701E+01    0.00000E+00  8540   0.153E+02 0.000E+00
CGA:   2    -0.132226552951E+04   -0.32036E+01   -0.32083E+01  8540   0.618E+01 0.141E-01
CGA:   3    -0.132374967924E+04   -0.14841E+01   -0.14846E+01  8540   0.149E+01 0.635E-02
CGA:   4    -0.132406094125E+04   -0.31126E+00   -0.31155E+00  8540   0.281E+00 0.246E-02
CGA:   5    -0.132412259318E+04   -0.61652E-01   -0.61648E-01  8540   0.649E-01-0.175E-03
CGA:   6    -0.132413834362E+04   -0.15750E-01   -0.15709E-01  8540   0.177E-01-0.102E-02
CGA:   7    -0.132414296140E+04   -0.46178E-02   -0.46208E-02  8540   0.505E-02 0.178E-03
CGA:   8    -0.132414434309E+04   -0.13817E-02   -0.13848E-02  8540   0.146E-02 0.313E-03
CGA:   9    -0.132414484266E+04   -0.49957E-03   -0.49489E-03  8540   0.490E-03 0.120E-03
CGA:  10    -0.132414502269E+04   -0.18003E-03   -0.17760E-03  8540   0.171E-03 0.464E-04
CGA:  11    -0.132414509015E+04   -0.67462E-04   -0.67392E-04  8540   0.574E-04 0.834E-06
CGA:  12    -0.132414510323E+04   -0.13074E-04   -0.13978E-04  8540   0.177E-04 0.194E-04
CGA:  13    -0.132414510562E+04   -0.23972E-05   -0.39546E-05  8540   0.822E-05 0.130E-04
  20 F= -.13241451E+04 E0= -.13241451E+04  d E =-.212998E+00  mag=   126.0000
       N       E                     dE             d eps       ncg     rms          ort
SDA:   1    -0.132397661460E+04    0.16849E+00    0.00000E+00  8540   0.536E+00 0.000E+00
CGA:   2    -0.132409194746E+04   -0.11533E+00   -0.11541E+00  8540   0.229E+00 0.680E-03
CGA:   3    -0.132414615326E+04   -0.54206E-01   -0.54224E-01  8540   0.541E-01 0.215E-03
CGA:   4    -0.132415723571E+04   -0.11082E-01   -0.11090E-01  8540   0.990E-02 0.825E-04
CGA:   5    -0.132415939027E+04   -0.21546E-02   -0.21539E-02  8540   0.231E-02-0.135E-04
CGA:   6    -0.132415994434E+04   -0.55407E-03   -0.55377E-03  8540   0.608E-03-0.826E-05
CGA:   7    -0.132416009546E+04   -0.15112E-03   -0.15202E-03  8540   0.163E-03 0.344E-04
CGA:   8    -0.132416014281E+04   -0.47348E-04   -0.47364E-04  8540   0.487E-04 0.127E-04
CGA:   9    -0.132416016004E+04   -0.17226E-04   -0.17026E-04  8540   0.171E-04 0.408E-05
CGA:  10    -0.132416016473E+04   -0.46934E-05   -0.47921E-05  8540   0.525E-05 0.521E-05
  21 F= -.13241602E+04 E0= -.13241602E+04  d E =-.150591E-01  mag=   126.0000
       N       E                     dE             d eps       ncg     rms          ort
SDA:   1    -0.132337971257E+04    0.78045E+00    0.00000E+00  8540   0.233E+01 0.000E+00
CGA:   2    -0.132386905002E+04   -0.48934E+00   -0.48963E+00  8540   0.985E+00 0.318E-02
CGA:   3    -0.132410743534E+04   -0.23839E+00   -0.23840E+00  8540   0.246E+00-0.104E-03
CGA:   4    -0.132415732027E+04   -0.49885E-01   -0.49843E-01  8540   0.437E-01-0.692E-03
CGA:   5    -0.132416669099E+04   -0.93707E-02   -0.93690E-02  8540   0.102E-01-0.500E-04
CGA:   6    -0.132416909749E+04   -0.24065E-02   -0.24095E-02  8540   0.258E-02 0.104E-03
CGA:   7    -0.132416977257E+04   -0.67508E-03   -0.67525E-03  8540   0.723E-03 0.614E-04
CGA:   8    -0.132417000142E+04   -0.22885E-03   -0.23146E-03  8540   0.259E-03-0.513E-04
CGA:   9    -0.132417008935E+04   -0.87923E-04   -0.96321E-04  8540   0.130E-03-0.621E-04
CGA:  10    -0.132417011875E+04   -0.29401E-04   -0.29464E-04  8540   0.381E-04-0.237E-05
CGA:  11    -0.132417013003E+04   -0.11277E-04   -0.11271E-04  8540   0.106E-04 0.178E-06
CGA:  12    -0.132417013600E+04   -0.59793E-05    0.64844E-04  8540   0.352E-05 0.158E-05
  22 F= -.13241701E+04 E0= -.13241701E+04  d E =-.997127E-02  mag=   126.0000
       N       E                     dE             d eps       ncg     rms          ort
SDA:   1    -0.132408827345E+04    0.81857E-01    0.00000E+00  8540   0.238E+00 0.000E+00
CGA:   2    -0.132413878095E+04   -0.50507E-01   -0.50541E-01  8540   0.102E+00 0.415E-03
CGA:   3    -0.132416335041E+04   -0.24569E-01   -0.24562E-01  8540   0.249E-01-0.294E-03
CGA:   4    -0.132416846373E+04   -0.51133E-02   -0.50997E-02  8540   0.442E-02-0.219E-03
CGA:   5    -0.132416939211E+04   -0.92838E-03   -0.93168E-03  8540   0.998E-03 0.607E-04
CGA:   6    -0.132416961108E+04   -0.21897E-03   -0.22262E-03  8540   0.228E-03 0.838E-04
CGA:   7    -0.132416967363E+04   -0.62548E-04   -0.62713E-04  8540   0.648E-04 0.220E-04
CGA:   8    -0.132416969921E+04   -0.25587E-04   -0.29727E-04  8540   0.480E-04-0.263E-04
CGA:   9    -0.132416970772E+04   -0.85078E-05   -0.11793E-04  8540   0.316E-04-0.227E-04
  23 F= -.13241697E+04 E0= -.13241697E+04  d E =0.428284E-03  mag=   126.0000
       N       E                     dE             d eps       ncg     rms          ort
SDA:   1    -0.132399415412E+04    0.17555E+00    0.00000E+00  8540   0.489E+00 0.000E+00
CGA:   2    -0.132409878073E+04   -0.10463E+00   -0.10467E+00  8540   0.212E+00 0.548E-03
CGA:   3    -0.132415021524E+04   -0.51435E-01   -0.51435E-01  8540   0.518E-01-0.570E-04
CGA:   4    -0.132416064825E+04   -0.10433E-01   -0.10433E-01  8540   0.868E-02-0.160E-04
CGA:   5    -0.132416251019E+04   -0.18619E-02   -0.18644E-02  8540   0.207E-02 0.458E-04
CGA:   6    -0.132416299210E+04   -0.48192E-03   -0.48326E-03  8540   0.505E-03 0.456E-04
CGA:   7    -0.132416311878E+04   -0.12668E-03   -0.12716E-03  8540   0.134E-03 0.340E-04
CGA:   8    -0.132416316163E+04   -0.42847E-04   -0.42851E-04  8540   0.445E-04-0.136E-06
CGA:   9    -0.132416317658E+04   -0.14958E-04   -0.15024E-04  8540   0.160E-04-0.882E-06
CGA:  10    -0.132416318089E+04   -0.43010E-05   -0.42799E-05  8540   0.462E-05 0.314E-05
  24 F= -.13241632E+04 E0= -.13241632E+04  d E =0.652683E-02  mag=   126.0000
       N       E                     dE             d eps       ncg     rms          ort
SDA:   1    -0.132403648069E+04    0.12670E+00    0.00000E+00  8540   0.338E+00 0.000E+00
CGA:   2    -0.132411388061E+04   -0.77400E-01   -0.77411E-01  8540   0.154E+00 0.171E-03
CGA:   3    -0.132414869812E+04   -0.34818E-01   -0.34816E-01  8540   0.330E-01-0.940E-04
CGA:   4    -0.132415543000E+04   -0.67319E-02   -0.67322E-02  8540   0.595E-02-0.140E-07
CGA:   5    -0.132415670693E+04   -0.12769E-02   -0.12794E-02  8540   0.137E-02 0.584E-04
CGA:   6    -0.132415703272E+04   -0.32579E-03   -0.32634E-03  8540   0.347E-03 0.300E-04
CGA:   7    -0.132415712443E+04   -0.91705E-04   -0.91622E-04  8540   0.989E-04 0.135E-04
CGA:   8    -0.132415715916E+04   -0.34730E-04   -0.36892E-04  8540   0.475E-04-0.204E-04
CGA:   9    -0.132415717203E+04   -0.12873E-04   -0.14368E-04  8540   0.215E-04-0.122E-04
CGA:  10    -0.132415717658E+04   -0.45539E-05   -0.45608E-05  8540   0.620E-05-0.336E-06
  25 F= -.13241572E+04 E0= -.13241572E+04  d E =0.600430E-02  mag=   126.0000
       N       E                     dE             d eps       ncg     rms          ort
SDA:   1    -0.132382250915E+04    0.33466E+00    0.00000E+00  8540   0.891E+00 0.000E+00
CGA:   2    -0.132402865837E+04   -0.20615E+00   -0.20620E+00  8540   0.414E+00 0.559E-03
CGA:   3    -0.132412268489E+04   -0.94027E-01   -0.94037E-01  8540   0.878E-01 0.787E-04
CGA:   4    -0.132414037639E+04   -0.17691E-01   -0.17704E-01  8540   0.153E-01 0.154E-03
CGA:   5    -0.132414372845E+04   -0.33521E-02   -0.33528E-02  8540   0.363E-02 0.839E-05
CGA:   6    -0.132414460430E+04   -0.87585E-03   -0.87508E-03  8540   0.933E-03-0.287E-04
CGA:   7    -0.132414483905E+04   -0.23475E-03   -0.23513E-03  8540   0.258E-03 0.271E-04
CGA:   8    -0.132414491913E+04   -0.80078E-04   -0.80219E-04  8540   0.849E-04-0.411E-05
CGA:   9    -0.132414494569E+04   -0.26565E-04   -0.26408E-04  8540   0.265E-04 0.331E-05
CGA:  10    -0.132414495648E+04   -0.10783E-04   -0.11765E-04  8540   0.131E-04-0.630E-05
CGA:  11    -0.132414496001E+04   -0.35331E-05   -0.46796E-05  8540   0.792E-05-0.606E-05
  26 F= -.13241450E+04 E0= -.13241450E+04  d E =0.122166E-01  mag=   126.0000
       N       E                     dE             d eps       ncg     rms          ort
SDA:   1    -0.132390336896E+04    0.24159E+00    0.00000E+00  8540   0.656E+00 0.000E+00
CGA:   2    -0.132405003637E+04   -0.14667E+00   -0.14670E+00  8540   0.296E+00-0.894E-04
CGA:   3    -0.132411927251E+04   -0.69236E-01   -0.69262E-01  8540   0.639E-01 0.128E-03
CGA:   4    -0.132413228083E+04   -0.13008E-01   -0.13030E-01  8540   0.113E-01 0.164E-03
CGA:   5    -0.132413476876E+04   -0.24879E-02   -0.24891E-02  8540   0.267E-02 0.824E-05
CGA:   6    -0.132413542337E+04   -0.65461E-03   -0.65217E-03  8540   0.696E-03-0.372E-04
CGA:   7    -0.132413559952E+04   -0.17616E-03   -0.17698E-03  8540   0.195E-03 0.163E-04
CGA:   8    -0.132413565734E+04   -0.57816E-04   -0.57855E-04  8540   0.610E-04 0.239E-05
CGA:   9    -0.132413567818E+04   -0.20836E-04   -0.20826E-04  8540   0.211E-04 0.286E-06
CGA:  10    -0.132413568564E+04   -0.74594E-05   -0.74682E-05  8540   0.706E-05-0.204E-06
  27 F= -.13241357E+04 E0= -.13241357E+04  d E =0.927438E-02  mag=   126.0000
       N       E                     dE             d eps       ncg     rms          ort
SDA:   1    -0.132403576517E+04    0.99913E-01    0.00000E+00  8540   0.305E+00 0.000E+00
CGA:   2    -0.132409888616E+04   -0.63121E-01   -0.63173E-01  8540   0.124E+00 0.235E-03
CGA:   3    -0.132412921949E+04   -0.30333E-01   -0.30342E-01  8540   0.312E-01 0.415E-04
CGA:   4    -0.132413575035E+04   -0.65309E-02   -0.65210E-02  8540   0.567E-02-0.102E-03
CGA:   5    -0.132413697502E+04   -0.12247E-02   -0.12180E-02  8540   0.131E-02-0.741E-04
CGA:   6    -0.132413729751E+04   -0.32249E-03   -0.32045E-03  8540   0.348E-03-0.361E-04
CGA:   7    -0.132413738579E+04   -0.88282E-04   -0.88201E-04  8540   0.975E-04-0.208E-05
CGA:   8    -0.132413741009E+04   -0.24298E-04   -0.24722E-04  8540   0.256E-04 0.950E-05
CGA:   9    -0.132413741969E+04   -0.95971E-05   -0.95821E-05  8540   0.972E-05 0.324E-06
  28 F= -.13241374E+04 E0= -.13241374E+04  d E =-.173405E-02  mag=   126.0000
       N       E                     dE             d eps       ncg     rms          ort
SDA:   1    -0.132412871984E+04    0.86903E-02    0.00000E+00  8540   0.231E-01 0.000E+00
CGA:   2    -0.132413376401E+04   -0.50442E-02   -0.50563E-02  8540   0.101E-01 0.932E-04
CGA:   3    -0.132413615108E+04   -0.23871E-02   -0.23843E-02  8540   0.236E-02-0.356E-04
CGA:   4    -0.132413665543E+04   -0.50435E-03   -0.49514E-03  8540   0.442E-03-0.816E-04
CGA:   5    -0.132413674640E+04   -0.90969E-04   -0.90598E-04  8540   0.103E-03-0.363E-05
CGA:   6    -0.132413676313E+04   -0.16733E-04   -0.19177E-04  8540   0.224E-04 0.195E-04
CGA:   7    -0.132413676799E+04   -0.48649E-05   -0.55304E-05  8540   0.691E-05 0.664E-05
  29 F= -.13241368E+04 E0= -.13241368E+04  d E =0.651693E-03  mag=   126.0000
       N       E                     dE             d eps       ncg     rms          ort
SDA:   1    -0.132409229103E+04    0.44472E-01    0.00000E+00  8540   0.111E+00 0.000E+00
CGA:   2    -0.132411891156E+04   -0.26621E-01   -0.26629E-01  8540   0.530E-01 0.562E-04
CGA:   3    -0.132413071227E+04   -0.11801E-01   -0.11800E-01  8540   0.107E-01-0.313E-04
CGA:   4    -0.132413288900E+04   -0.21767E-02   -0.21695E-02  8540   0.188E-02-0.720E-04
CGA:   5    -0.132413330048E+04   -0.41148E-03   -0.41067E-03  8540   0.455E-03-0.104E-04
CGA:   6    -0.132413339798E+04   -0.97498E-04   -0.99917E-04  8540   0.106E-03 0.308E-04
CGA:   7    -0.132413342375E+04   -0.25771E-04   -0.26661E-04  8540   0.282E-04 0.151E-04
CGA:   8    -0.132413343519E+04   -0.11438E-04   -0.11780E-04  8540   0.149E-04-0.465E-05
CGA:   9    -0.132413343947E+04   -0.42783E-05   -0.44635E-05  8540   0.646E-05-0.294E-05
  30 F= -.13241334E+04 E0= -.13241334E+04  d E =0.332853E-02  mag=   126.0000
       N       E                     dE             d eps       ncg     rms          ort
SDA:   1    -0.132403363984E+04    0.99795E-01    0.00000E+00  8540   0.266E+00 0.000E+00
CGA:   2    -0.132409816048E+04   -0.64521E-01   -0.64539E-01  8540   0.128E+00 0.147E-03
CGA:   3    -0.132412665385E+04   -0.28493E-01   -0.28491E-01  8540   0.246E-01-0.945E-04
CGA:   4    -0.132413166396E+04   -0.50101E-02   -0.50063E-02  8540   0.433E-02-0.459E-04
CGA:   5    -0.132413262746E+04   -0.96351E-03   -0.96160E-03  8540   0.106E-02-0.282E-04
CGA:   6    -0.132413287812E+04   -0.25066E-03   -0.25056E-03  8540   0.265E-03-0.217E-05
CGA:   7    -0.132413294177E+04   -0.63644E-04   -0.64553E-04  8540   0.711E-04 0.210E-04
CGA:   8    -0.132413296322E+04   -0.21453E-04   -0.21490E-04  8540   0.221E-04 0.684E-05
CGA:   9    -0.132413297186E+04   -0.86438E-05   -0.86537E-05  8540   0.883E-05-0.142E-06
  31 F= -.13241330E+04 E0= -.13241330E+04  d E =0.467602E-03  mag=   126.0000
       N       E                     dE             d eps       ncg     rms          ort
SDA:   1    -0.132386191040E+04    0.27105E+00    0.00000E+00  8540   0.711E+00 0.000E+00
CGA:   2    -0.132404004043E+04   -0.17813E+00   -0.17815E+00  8540   0.350E+00 0.216E-03
CGA:   3    -0.132411604234E+04   -0.76002E-01   -0.76005E-01  8540   0.642E-01-0.127E-03
CGA:   4    -0.132412910112E+04   -0.13059E-01   -0.13061E-01  8540   0.112E-01 0.931E-05
CGA:   5    -0.132413164541E+04   -0.25443E-02   -0.25405E-02  8540   0.275E-02-0.739E-04
CGA:   6    -0.132413230201E+04   -0.65660E-03   -0.65497E-03  8540   0.708E-03-0.450E-04
CGA:   7    -0.132413247569E+04   -0.17368E-03   -0.17459E-03  8540   0.194E-03 0.374E-04
CGA:   8    -0.132413252923E+04   -0.53530E-04   -0.53801E-04  8540   0.564E-04 0.272E-04
CGA:   9    -0.132413255055E+04   -0.21327E-04   -0.20977E-04  8540   0.207E-04 0.661E-05
CGA:  10    -0.132413255873E+04   -0.81791E-05   -0.81440E-05  8540   0.788E-05 0.454E-06
  32 F= -.13241326E+04 E0= -.13241326E+04  d E =0.413133E-03  mag=   126.0000
       N       E                     dE             d eps       ncg     rms          ort
SDA:   1    -0.132403641312E+04    0.96137E-01    0.00000E+00  8540   0.281E+00 0.000E+00
CGA:   2    -0.132409762452E+04   -0.61211E-01   -0.61224E-01  8540   0.123E+00 0.486E-04
CGA:   3    -0.132412702221E+04   -0.29398E-01   -0.29405E-01  8540   0.274E-01 0.118E-03
CGA:   4    -0.132413261689E+04   -0.55947E-02   -0.56029E-02  8540   0.482E-02 0.114E-03
CGA:   5    -0.132413369613E+04   -0.10792E-02   -0.10790E-02  8540   0.116E-02-0.726E-05
CGA:   6    -0.132413398371E+04   -0.28758E-03   -0.28671E-03  8540   0.316E-03-0.432E-04
CGA:   7    -0.132413406380E+04   -0.80091E-04   -0.80083E-04  8540   0.914E-04-0.273E-05
CGA:   8    -0.132413408850E+04   -0.24698E-04   -0.24680E-04  8540   0.259E-04 0.274E-05
CGA:   9    -0.132413409665E+04   -0.81453E-05   -0.80404E-05  8540   0.772E-05 0.302E-05
  33 F= -.13241341E+04 E0= -.13241341E+04  d E =-.153792E-02  mag=   126.0000
       N       E                     dE             d eps       ncg     rms          ort
SDA:   1    -0.132411801392E+04    0.16075E-01    0.00000E+00  8540   0.432E-01 0.000E+00
CGA:   2    -0.132412784555E+04   -0.98316E-02   -0.98345E-02  8540   0.199E-01 0.508E-04
CGA:   3    -0.132413240131E+04   -0.45558E-02   -0.45545E-02  8540   0.429E-02-0.388E-04
CGA:   4    -0.132413327728E+04   -0.87598E-03   -0.87487E-03  8540   0.758E-03-0.193E-04
CGA:   5    -0.132413343504E+04   -0.15776E-03   -0.15897E-03  8540   0.169E-03 0.234E-04
CGA:   6    -0.132413347384E+04   -0.38794E-04   -0.39288E-04  8540   0.406E-04 0.142E-04
CGA:   7    -0.132413348735E+04   -0.13518E-04   -0.13810E-04  8540   0.166E-04-0.524E-05
CGA:   8    -0.132413349211E+04   -0.47592E-05   -0.62852E-05  8540   0.137E-04-0.875E-05
  34 F= -.13241335E+04 E0= -.13241335E+04  d E =0.604534E-03  mag=   126.0000
       N       E                     dE             d eps       ncg     rms          ort
SDA:   1    -0.132406518908E+04    0.68298E-01    0.00000E+00  8540   0.178E+00 0.000E+00
CGA:   2    -0.132410769140E+04   -0.42502E-01   -0.42506E-01  8540   0.878E-01 0.646E-04
CGA:   3    -0.132412738485E+04   -0.19693E-01   -0.19687E-01  8540   0.172E-01-0.188E-03
CGA:   4    -0.132413082523E+04   -0.34404E-02   -0.34366E-02  8540   0.296E-02-0.670E-04
CGA:   5    -0.132413147302E+04   -0.64779E-03   -0.64883E-03  8540   0.713E-03 0.261E-04
CGA:   6    -0.132413163547E+04   -0.16245E-03   -0.16325E-03  8540   0.169E-03 0.267E-04
CGA:   7    -0.132413168169E+04   -0.46224E-04   -0.46184E-04  8540   0.500E-04 0.467E-05
CGA:   8    -0.132413169891E+04   -0.17212E-04   -0.18074E-04  8540   0.234E-04-0.901E-05
CGA:   9    -0.132413170571E+04   -0.68001E-05   -0.77352E-05  8540   0.117E-04-0.655E-05
  35 F= -.13241317E+04 E0= -.13241317E+04  d E =0.178641E-02  mag=   126.0000
       N       E                     dE             d eps       ncg     rms          ort
SDA:   1    -0.132374641859E+04    0.38528E+00    0.00000E+00  8540   0.103E+01 0.000E+00
CGA:   2    -0.132398551097E+04   -0.23909E+00   -0.23913E+00  8540   0.495E+00 0.523E-03
CGA:   3    -0.132409810185E+04   -0.11259E+00   -0.11257E+00  8540   0.102E+00-0.662E-03
CGA:   4    -0.132411869196E+04   -0.20590E-01   -0.20578E-01  8540   0.176E-01-0.233E-03
CGA:   5    -0.132412248911E+04   -0.37971E-02   -0.38060E-02  8540   0.414E-02 0.210E-03
CGA:   6    -0.132412346053E+04   -0.97142E-03   -0.97430E-03  8540   0.101E-02 0.120E-03
CGA:   7    -0.132412374328E+04   -0.28276E-03   -0.28287E-03  8540   0.313E-03-0.701E-05
CGA:   8    -0.132412383812E+04   -0.94837E-04   -0.95712E-04  8540   0.110E-03-0.169E-04
CGA:   9    -0.132412387614E+04   -0.38020E-04   -0.40762E-04  8540   0.491E-04-0.207E-04
CGA:  10    -0.132412388303E+04   -0.68916E-05   -0.78636E-05  8540   0.161E-04 0.143E-04
  36 F= -.13241239E+04 E0= -.13241239E+04  d E =0.782267E-02  mag=   126.0000
       N       E                     dE             d eps       ncg     rms          ort
SDA:   1    -0.132406753785E+04    0.56338E-01    0.00000E+00  8540   0.152E+00 0.000E+00
CGA:   2    -0.132410267375E+04   -0.35136E-01   -0.35137E-01  8540   0.717E-01-0.864E-05
CGA:   3    -0.132411890402E+04   -0.16230E-01   -0.16227E-01  8540   0.147E-01-0.158E-03
CGA:   4    -0.132412187890E+04   -0.29749E-02   -0.29709E-02  8540   0.263E-02-0.812E-04
CGA:   5    -0.132412245351E+04   -0.57460E-03   -0.57508E-03  8540   0.625E-03 0.143E-04
CGA:   6    -0.132412259853E+04   -0.14502E-03   -0.14535E-03  8540   0.153E-03 0.178E-04
CGA:   7    -0.132412264016E+04   -0.41633E-04   -0.41559E-04  8540   0.448E-04 0.480E-05
CGA:   8    -0.132412265286E+04   -0.12700E-04   -0.12609E-04  8540   0.133E-04 0.382E-05
CGA:   9    -0.132412265765E+04   -0.47931E-05   -0.47099E-05  8540   0.445E-05 0.108E-05
  37 F= -.13241227E+04 E0= -.13241227E+04  d E =0.122538E-02  mag=   126.0000
       N       E                     dE             d eps       ncg     rms          ort
SDA:   1    -0.132409603088E+04    0.26622E-01    0.00000E+00  8540   0.659E-01 0.000E+00
CGA:   2    -0.132411219549E+04   -0.16165E-01   -0.16164E-01  8540   0.323E-01-0.481E-04
CGA:   3    -0.132411927093E+04   -0.70754E-02   -0.70729E-02  8540   0.606E-02-0.866E-04
CGA:   4    -0.132412049746E+04   -0.12265E-02   -0.12262E-02  8540   0.108E-02-0.712E-05
CGA:   5    -0.132412073360E+04   -0.23615E-03   -0.23644E-03  8540   0.254E-03 0.930E-05
CGA:   6    -0.132412079200E+04   -0.58395E-04   -0.58656E-04  8540   0.597E-04 0.140E-04
CGA:   7    -0.132412080657E+04   -0.14568E-04   -0.14703E-04  8540   0.159E-04 0.986E-05
CGA:   8    -0.132412081152E+04   -0.49541E-05   -0.48956E-05  8540   0.526E-05 0.335E-05
  38 F= -.13241208E+04 E0= -.13241208E+04  d E =0.184613E-02  mag=   126.0000
       N       E                     dE             d eps       ncg     rms          ort
SDA:   1    -0.132396474986E+04    0.15606E+00    0.00000E+00  8540   0.384E+00 0.000E+00
CGA:   2    -0.132406513559E+04   -0.10039E+00   -0.10038E+00  8540   0.196E+00 0.190E-04
CGA:   3    -0.132410580183E+04   -0.40666E-01   -0.40654E-01  8540   0.339E-01-0.337E-03
CGA:   4    -0.132411264940E+04   -0.68476E-02   -0.68431E-02  8540   0.616E-02-0.107E-03
CGA:   5    -0.132411399610E+04   -0.13467E-02   -0.13486E-02  8540   0.143E-02 0.775E-04
CGA:   6    -0.132411432393E+04   -0.32783E-03   -0.32893E-03  8540   0.333E-03 0.701E-04
CGA:   7    -0.132411441722E+04   -0.93289E-04   -0.93021E-04  8540   0.101E-03 0.109E-04
CGA:   8    -0.132411444917E+04   -0.31951E-04   -0.31830E-04  8540   0.351E-04 0.197E-05
CGA:   9    -0.132411446117E+04   -0.11997E-04   -0.11939E-04  8540   0.117E-04 0.658E-06
CGA:  10    -0.132411446386E+04   -0.26860E-05   -0.27578E-05  8540   0.325E-05 0.365E-05
  39 F= -.13241145E+04 E0= -.13241145E+04  d E =0.634767E-02  mag=   126.0000
       N       E                     dE             d eps       ncg     rms          ort
SDA:   1    -0.132299968422E+04    0.11148E+01    0.00000E+00  8540   0.278E+01 0.000E+00
CGA:   2    -0.132373613355E+04   -0.73645E+00   -0.73640E+00  8540   0.144E+01 0.735E-03
CGA:   3    -0.132403007085E+04   -0.29394E+00   -0.29390E+00  8540   0.247E+00-0.119E-02
CGA:   4    -0.132407928275E+04   -0.49212E-01   -0.49199E-01  8540   0.451E-01-0.354E-03
CGA:   5    -0.132408918172E+04   -0.98990E-02   -0.99046E-02  8540   0.107E-01 0.260E-03
CGA:   6    -0.132409165531E+04   -0.24736E-02   -0.24756E-02  8540   0.254E-02 0.215E-03
CGA:   7    -0.132409235242E+04   -0.69711E-03   -0.69675E-03  8540   0.777E-03 0.117E-04
CGA:   8    -0.132409259147E+04   -0.23905E-03   -0.23942E-03  8540   0.267E-03-0.580E-05
CGA:   9    -0.132409268365E+04   -0.92177E-04   -0.93947E-04  8540   0.969E-04-0.160E-04
CGA:  10    -0.132409270915E+04   -0.25505E-04   -0.25194E-04  8540   0.245E-04 0.114E-04
CGA:  11    -0.132409271579E+04   -0.66424E-05   -0.66895E-05  8540   0.660E-05 0.677E-05
  40 F= -.13240927E+04 E0= -.13240927E+04  d E =0.217481E-01  mag=   126.0000
       N       E                     dE             d eps       ncg     rms          ort
SDA:   1    -0.132357891375E+04    0.51380E+00    0.00000E+00  8540   0.129E+01 0.000E+00
CGA:   2    -0.132392046761E+04   -0.34155E+00   -0.34153E+00  8540   0.652E+00 0.104E-02
CGA:   3    -0.132405567282E+04   -0.13521E+00   -0.13518E+00  8540   0.113E+00-0.842E-03
CGA:   4    -0.132407857640E+04   -0.22904E-01   -0.22892E-01  8540   0.204E-01-0.288E-03
CGA:   5    -0.132408307343E+04   -0.44970E-02   -0.45007E-02  8540   0.479E-02 0.155E-03
CGA:   6    -0.132408421567E+04   -0.11422E-02   -0.11425E-02  8540   0.119E-02 0.344E-04
CGA:   7    -0.132408454962E+04   -0.33395E-03   -0.33560E-03  8540   0.387E-03-0.444E-04
CGA:   8    -0.132408466541E+04   -0.11579E-03   -0.11759E-03  8540   0.141E-03-0.257E-04
CGA:   9    -0.132408471296E+04   -0.47548E-04   -0.53282E-04  8540   0.689E-04-0.363E-04
CGA:  10    -0.132408472977E+04   -0.16816E-04   -0.18402E-04  8540   0.245E-04-0.153E-04
CGA:  11    -0.132408473525E+04   -0.54758E-05   -0.54610E-05  8540   0.663E-05 0.598E-06
  41 F= -.13240847E+04 E0= -.13240847E+04  d E =0.798055E-02  mag=   126.0000
       N       E                     dE             d eps       ncg     rms          ort
SDA:   1    -0.132369457373E+04    0.39016E+00    0.00000E+00  8540   0.112E+01 0.000E+00
CGA:   2    -0.132394046598E+04   -0.24589E+00   -0.24603E+00  8540   0.503E+00 0.145E-02
CGA:   3    -0.132405843215E+04   -0.11797E+00   -0.11796E+00  8540   0.114E+00-0.364E-03
CGA:   4    -0.132408129863E+04   -0.22866E-01   -0.22835E-01  8540   0.201E-01-0.418E-03
CGA:   5    -0.132408569103E+04   -0.43924E-02   -0.43897E-02  8540   0.484E-02-0.571E-04
CGA:   6    -0.132408685442E+04   -0.11634E-02   -0.11601E-02  8540   0.123E-02-0.104E-03
CGA:   7    -0.132408717129E+04   -0.31687E-03   -0.31670E-03  8540   0.355E-03-0.231E-04
CGA:   8    -0.132408727353E+04   -0.10225E-03   -0.10250E-03  8540   0.110E-03-0.108E-04
CGA:   9    -0.132408731373E+04   -0.40197E-04   -0.46700E-04  8540   0.709E-04-0.389E-04
CGA:  10    -0.132408732859E+04   -0.14862E-04   -0.15712E-04  8540   0.280E-04-0.135E-04
CGA:  11    -0.132408732172E+04    0.68787E-05   -0.19320E-04  8540   0.102E-03-0.462E-04
CGA:  12    -0.132408734270E+04   -0.20981E-04   -0.22220E-04  8540   0.102E-04 0.132E-04
CGA:  13    -0.132408734685E+04   -0.41550E-05   -0.42116E-05  8540   0.360E-05-0.993E-06
  42 F= -.13240873E+04 E0= -.13240873E+04  d E =-.261160E-02  mag=   126.0000
       N       E                     dE             d eps       ncg     rms          ort
SDA:   1    -0.132364747707E+04    0.43987E+00    0.00000E+00  8540   0.108E+01 0.000E+00
CGA:   2    -0.132394555304E+04   -0.29808E+00   -0.29809E+00  8540   0.558E+00 0.596E-04
CGA:   3    -0.132405734297E+04   -0.11179E+00   -0.11176E+00  8540   0.899E-01-0.583E-03
CGA:   4    -0.132407556858E+04   -0.18226E-01   -0.18209E-01  8540   0.167E-01-0.204E-03
CGA:   5    -0.132407925714E+04   -0.36886E-02   -0.36935E-02  8540   0.394E-02 0.702E-04
CGA:   6    -0.132408018222E+04   -0.92508E-03   -0.92566E-03  8540   0.975E-03 0.105E-04
CGA:   7    -0.132408045231E+04   -0.27010E-03   -0.26992E-03  8540   0.311E-03-0.251E-04
CGA:   8    -0.132408054600E+04   -0.93684E-04   -0.93976E-04  8540   0.110E-03-0.109E-04
CGA:   9    -0.132408058567E+04   -0.39668E-04   -0.42203E-04  8540   0.483E-04-0.220E-04
CGA:  10    -0.132408059502E+04   -0.93550E-05   -0.95814E-05  8540   0.124E-04 0.544E-05
  43 F= -.13240806E+04 E0= -.13240806E+04  d E =0.675183E-02  mag=   126.0000
       N       E                     dE             d eps       ncg     rms          ort
SDA:   1    -0.131005593148E+04    0.14025E+02    0.00000E+00  8540   0.399E+02 0.000E+00
CGA:   2    -0.131870282918E+04   -0.86469E+01   -0.86595E+01  8540   0.174E+02 0.619E-01
CGA:   3    -0.132286748492E+04   -0.41647E+01   -0.41650E+01  8540   0.404E+01 0.382E-02
CGA:   4    -0.132368067814E+04   -0.81319E+00   -0.81308E+00  8540   0.703E+00-0.276E-02
CGA:   5    -0.132383474011E+04   -0.15406E+00   -0.15411E+00  8540   0.169E+00 0.473E-03
CGA:   6    -0.132387512761E+04   -0.40388E-01   -0.40395E-01  8540   0.425E-01 0.146E-03
CGA:   7    -0.132388622805E+04   -0.11100E-01   -0.11111E-01  8540   0.122E-01 0.781E-03
CGA:   8    -0.132388982539E+04   -0.35973E-02   -0.35930E-02  8540   0.376E-02 0.261E-03
CGA:   9    -0.132389111288E+04   -0.12875E-02   -0.12853E-02  8540   0.131E-02 0.349E-04
CGA:  10    -0.132389150298E+04   -0.39010E-03   -0.38680E-03  8540   0.374E-03 0.222E-03
CGA:  11    -0.132389160056E+04   -0.97586E-04   -0.10362E-03  8540   0.112E-03 0.144E-03
CGA:  12    -0.132389163207E+04   -0.31502E-04   -0.34533E-04  8540   0.407E-04 0.570E-04
CGA:  13    -0.132389163514E+04   -0.30725E-05   -0.64321E-05  8540   0.230E-04 0.290E-04
  44 F= -.13238916E+04 E0= -.13238916E+04  d E =0.188960E+00  mag=   126.0000
       N       E                     dE             d eps       ncg     rms          ort
SDA:   1    -0.131907654699E+04    0.48151E+01    0.00000E+00  8540   0.150E+02 0.000E+00
CGA:   2    -0.132216093040E+04   -0.30844E+01   -0.30867E+01  8540   0.602E+01 0.210E-01
CGA:   3    -0.132365008236E+04   -0.14892E+01   -0.14892E+01  8540   0.152E+01 0.182E-02
CGA:   4    -0.132396410964E+04   -0.31403E+00   -0.31391E+00  8540   0.276E+00-0.293E-02
CGA:   5    -0.132402450140E+04   -0.60392E-01   -0.60379E-01  8540   0.650E-01-0.465E-03
CGA:   6    -0.132404007215E+04   -0.15571E-01   -0.15561E-01  8540   0.169E-01-0.750E-03
CGA:   7    -0.132404456442E+04   -0.44923E-02   -0.44943E-02  8540   0.500E-02-0.130E-03
CGA:   8    -0.132404600314E+04   -0.14387E-02   -0.14434E-02  8540   0.157E-02-0.129E-03
CGA:   9    -0.132404654745E+04   -0.54430E-03   -0.56999E-03  8540   0.665E-03-0.220E-03
CGA:  10    -0.132404674839E+04   -0.20094E-03   -0.21024E-03  8540   0.240E-03-0.881E-04
CGA:  11    -0.132404679810E+04   -0.49714E-04   -0.13306E-03  8540   0.354E-03-0.224E-03
CGA:  12    -0.132404686584E+04   -0.67740E-04   -0.71760E-04  8540   0.387E-04 0.486E-04
CGA:  13    -0.132404666940E+04    0.19644E-03   -0.10605E-03  8540   0.791E-03-0.177E-03
CGA:  14    -0.132404687507E+04   -0.20567E-03   -0.22107E-03  8540   0.715E-04 0.658E-04
CGA:  15    -0.132404691410E+04   -0.39036E-04   -0.39883E-04  8540   0.928E-04-0.631E-04
CGA:  16    -0.132404691693E+04   -0.28319E-05   -0.12394E-04  8540   0.121E-04 0.260E-04
  45 F= -.13240469E+04 E0= -.13240469E+04  d E =-.155282E+00  mag=   126.0000
       N       E                     dE             d eps       ncg     rms          ort
SDA:   1    -0.132392951914E+04    0.11739E+00    0.00000E+00  8540   0.383E+00 0.000E+00
CGA:   2    -0.132401054428E+04   -0.81025E-01   -0.81100E-01  8540   0.163E+00 0.791E-04
CGA:   3    -0.132405015132E+04   -0.39607E-01   -0.39599E-01  8540   0.392E-01-0.130E-03
CGA:   4    -0.132405814484E+04   -0.79935E-02   -0.79984E-02  8540   0.683E-02 0.109E-04
CGA:   5    -0.132405962053E+04   -0.14757E-02   -0.14822E-02  8540   0.160E-02 0.281E-04
CGA:   6    -0.132406000478E+04   -0.38425E-03   -0.38554E-03  8540   0.410E-03 0.666E-05
CGA:   7    -0.132406011270E+04   -0.10792E-03   -0.10858E-03  8540   0.119E-03 0.444E-05
CGA:   8    -0.132406014914E+04   -0.36443E-04   -0.36006E-04  8540   0.390E-04-0.431E-05
CGA:   9    -0.132406015989E+04   -0.10746E-04   -0.11086E-04  8540   0.112E-04 0.328E-05
CGA:  10    -0.132406016317E+04   -0.32763E-05   -0.35090E-05  8540   0.335E-05 0.224E-05
  46 F= -.13240602E+04 E0= -.13240602E+04  d E =-.132462E-01  mag=   126.0000
       N       E                     dE             d eps       ncg     rms          ort
SDA:   1    -0.132336783444E+04    0.69233E+00    0.00000E+00  8540   0.206E+01 0.000E+00
CGA:   2    -0.132380157325E+04   -0.43374E+00   -0.43428E+00  8540   0.882E+00 0.125E-02
CGA:   3    -0.132401655922E+04   -0.21499E+00   -0.21500E+00  8540   0.216E+00-0.242E-03
CGA:   4    -0.132406031440E+04   -0.43755E-01   -0.43722E-01  8540   0.367E-01-0.234E-03
CGA:   5    -0.132406825447E+04   -0.79401E-02   -0.79541E-02  8540   0.863E-02 0.805E-04
CGA:   6    -0.132407032670E+04   -0.20722E-02   -0.20757E-02  8540   0.215E-02 0.279E-04
CGA:   7    -0.132407088303E+04   -0.55633E-03   -0.55843E-03  8540   0.602E-03 0.235E-04
CGA:   8    -0.132407106011E+04   -0.17708E-03   -0.17714E-03  8540   0.185E-03 0.997E-06
CGA:   9    -0.132407111629E+04   -0.56179E-04   -0.56604E-04  8540   0.571E-04 0.124E-04
CGA:  10    -0.132407113333E+04   -0.17041E-04   -0.17627E-04  8540   0.173E-04 0.119E-04
CGA:  11    -0.132407113898E+04   -0.56457E-05   -0.58921E-05  8540   0.511E-05 0.462E-05
  47 F= -.13240711E+04 E0= -.13240711E+04  d E =-.109758E-01  mag=   126.0000
       N       E                     dE             d eps       ncg     rms          ort
SDA:   1    -0.132397480857E+04    0.96325E-01    0.00000E+00  8540   0.276E+00 0.000E+00
CGA:   2    -0.132403653062E+04   -0.61722E-01   -0.61766E-01  8540   0.125E+00 0.268E-03
CGA:   3    -0.132406557298E+04   -0.29042E-01   -0.29033E-01  8540   0.285E-01-0.144E-03
CGA:   4    -0.132407132084E+04   -0.57479E-02   -0.57480E-02  8540   0.488E-02-0.446E-05
CGA:   5    -0.132407237096E+04   -0.10501E-02   -0.10561E-02  8540   0.113E-02 0.572E-04
CGA:   6    -0.132407264315E+04   -0.27219E-03   -0.27321E-03  8540   0.285E-03 0.134E-04
CGA:   7    -0.132407271900E+04   -0.75847E-04   -0.75983E-04  8540   0.819E-04 0.297E-05
CGA:   8    -0.132407274331E+04   -0.24308E-04   -0.24308E-04  8540   0.258E-04-0.414E-07
CGA:   9    -0.132407274969E+04   -0.63861E-05   -0.66507E-05  8540   0.722E-05 0.558E-05
  48 F= -.13240727E+04 E0= -.13240727E+04  d E =-.161072E-02  mag=   126.0000
       N       E                     dE             d eps       ncg     rms          ort
SDA:   1    -0.132357027639E+04    0.50247E+00    0.00000E+00  8540   0.138E+01 0.000E+00
CGA:   2    -0.132388606314E+04   -0.31579E+00   -0.31591E+00  8540   0.646E+00 0.884E-03
CGA:   3    -0.132403408554E+04   -0.14802E+00   -0.14801E+00  8540   0.141E+00-0.329E-03
CGA:   4    -0.132406229357E+04   -0.28208E-01   -0.28207E-01  8540   0.240E-01-0.426E-04
CGA:   5    -0.132406752733E+04   -0.52338E-02   -0.52458E-02  8540   0.569E-02 0.164E-03
CGA:   6    -0.132406888706E+04   -0.13597E-02   -0.13613E-02  8540   0.141E-02 0.313E-04
CGA:   7    -0.132406925641E+04   -0.36935E-03   -0.36988E-03  8540   0.399E-03 0.237E-04
CGA:   8    -0.132406937301E+04   -0.11660E-03   -0.11654E-03  8540   0.122E-03 0.101E-04
CGA:   9    -0.132406941164E+04   -0.38630E-04   -0.38355E-04  8540   0.379E-04 0.105E-04
CGA:  10    -0.132406942368E+04   -0.12043E-04   -0.11980E-04  8540   0.114E-04 0.809E-05
CGA:  11    -0.132406942867E+04   -0.49877E-05   -0.49666E-05  8540   0.410E-05 0.277E-06
  49 F= -.13240694E+04 E0= -.13240694E+04  d E =0.332102E-02  mag=   126.0000
       N       E                     dE             d eps       ncg     rms          ort
SDA:   1    -0.132370059434E+04    0.36883E+00    0.00000E+00  8540   0.988E+00 0.000E+00
CGA:   2    -0.132393343967E+04   -0.23285E+00   -0.23289E+00  8540   0.479E+00 0.291E-03
CGA:   3    -0.132404113786E+04   -0.10770E+00   -0.10773E+00  8540   0.959E-01 0.335E-03
CGA:   4    -0.132406042430E+04   -0.19286E-01   -0.19302E-01  8540   0.165E-01 0.162E-03
CGA:   5    -0.132406408685E+04   -0.36626E-02   -0.36682E-02  8540   0.392E-02 0.910E-04
CGA:   6    -0.132406503208E+04   -0.94522E-03   -0.94526E-03  8540   0.976E-03-0.713E-07
CGA:   7    -0.132406527945E+04   -0.24738E-03   -0.24836E-03  8540   0.267E-03 0.481E-04
CGA:   8    -0.132406535204E+04   -0.72592E-04   -0.73093E-04  8540   0.760E-04 0.375E-04
CGA:   9    -0.132406537510E+04   -0.23058E-04   -0.23186E-04  8540   0.246E-04 0.227E-04
CGA:  10    -0.132406537995E+04   -0.48507E-05   -0.61221E-05  8540   0.101E-04 0.157E-04
  50 F= -.13240654E+04 E0= -.13240654E+04  d E =0.404872E-02  mag=   126.0000
       N       E                     dE             d eps       ncg     rms          ort
SDA:   1    -0.132293675815E+04    0.11286E+01    0.00000E+00  8540   0.298E+01 0.000E+00
CGA:   2    -0.132365888853E+04   -0.72213E+00   -0.72222E+00  8540   0.147E+01 0.240E-02
CGA:   3    -0.132398577866E+04   -0.32689E+00   -0.32691E+00  8540   0.282E+00-0.833E-04
CGA:   4    -0.132404242220E+04   -0.56644E-01   -0.56659E-01  8540   0.489E-01 0.170E-03
CGA:   5    -0.132405332959E+04   -0.10907E-01   -0.10912E-01  8540   0.117E-01 0.109E-03
CGA:   6    -0.132405612628E+04   -0.27967E-02   -0.27967E-02  8540   0.287E-02-0.424E-05
CGA:   7    -0.132405687734E+04   -0.75106E-03   -0.75066E-03  8540   0.821E-03 0.712E-04
CGA:   8    -0.132405712208E+04   -0.24474E-03   -0.24393E-03  8540   0.262E-03 0.235E-04
CGA:   9    -0.132405721053E+04   -0.88448E-04   -0.87490E-04  8540   0.841E-04 0.141E-04
CGA:  10    -0.132405723522E+04   -0.24692E-04   -0.24408E-04  8540   0.234E-04 0.197E-04
CGA:  11    -0.132405724125E+04   -0.60312E-05   -0.64440E-05  8540   0.739E-05 0.106E-04
  51 F= -.13240572E+04 E0= -.13240572E+04  d E =0.813870E-02  mag=   126.0000
       N       E                     dE             d eps       ncg     rms          ort
SDA:   1    -0.132145539281E+04    0.26018E+01    0.00000E+00  8540   0.676E+01 0.000E+00
CGA:   2    -0.132316667942E+04   -0.17113E+01   -0.17113E+01  8540   0.338E+01 0.373E-02
CGA:   3    -0.132388932660E+04   -0.72265E+00   -0.72270E+00  8540   0.605E+00 0.253E-03
CGA:   4    -0.132401223086E+04   -0.12290E+00   -0.12292E+00  8540   0.107E+00 0.231E-03
CGA:   5    -0.132403611623E+04   -0.23885E-01   -0.23895E-01  8540   0.254E-01 0.294E-03
CGA:   6    -0.132404221192E+04   -0.60957E-02   -0.60958E-02  8540   0.631E-02 0.549E-05
CGA:   7    -0.132404388780E+04   -0.16759E-02   -0.16746E-02  8540   0.188E-02 0.769E-04
CGA:   8    -0.132404445652E+04   -0.56872E-03   -0.56870E-03  8540   0.630E-03-0.120E-06
CGA:   9    -0.132404467818E+04   -0.22166E-03   -0.22687E-03  8540   0.231E-03-0.486E-04
CGA:  10    -0.132404473665E+04   -0.58468E-04   -0.57983E-04  8540   0.578E-04 0.336E-04
CGA:  11    -0.132404475991E+04   -0.23256E-04   -0.24261E-04  8540   0.217E-04-0.937E-05
CGA:  12    -0.132404476662E+04   -0.67085E-05   -0.78822E-05  8540   0.119E-04-0.692E-05
  52 F= -.13240448E+04 E0= -.13240448E+04  d E =0.124746E-01  mag=   126.0000
       N       E                     dE             d eps       ncg     rms          ort
SDA:   1    -0.132344685753E+04    0.59790E+00    0.00000E+00  8540   0.166E+01 0.000E+00
CGA:   2    -0.132384007006E+04   -0.39321E+00   -0.39332E+00  8540   0.770E+00 0.205E-02
CGA:   3    -0.132401072332E+04   -0.17065E+00   -0.17064E+00  8540   0.154E+00-0.579E-03
CGA:   4    -0.132404273867E+04   -0.32015E-01   -0.31998E-01  8540   0.277E-01-0.304E-03
CGA:   5    -0.132404881549E+04   -0.60768E-02   -0.60797E-02  8540   0.639E-02 0.518E-04
CGA:   6    -0.132405038948E+04   -0.15740E-02   -0.15736E-02  8540   0.167E-02-0.263E-04
CGA:   7    -0.132405084024E+04   -0.45075E-03   -0.45092E-03  8540   0.503E-03-0.197E-04
CGA:   8    -0.132405099466E+04   -0.15443E-03   -0.15663E-03  8540   0.185E-03-0.420E-04
CGA:   9    -0.132405105623E+04   -0.61567E-04   -0.69970E-04  8540   0.978E-04-0.574E-04
CGA:  10    -0.132405107681E+04   -0.20579E-04   -0.20910E-04  8540   0.296E-04-0.896E-05
CGA:  11    -0.132405108514E+04   -0.83290E-05   -0.83765E-05  8540   0.906E-05-0.130E-05
  53 F= -.13240511E+04 E0= -.13240511E+04  d E =-.631852E-02  mag=   126.0000
       N       E                     dE             d eps       ncg     rms          ort
SDA:   1    -0.132396420493E+04    0.86872E-01    0.00000E+00  8540   0.245E+00 0.000E+00
CGA:   2    -0.132402582985E+04   -0.61625E-01   -0.61634E-01  8540   0.117E+00 0.252E-03
CGA:   3    -0.132405077229E+04   -0.24942E-01   -0.24934E-01  8540   0.216E-01-0.174E-03
CGA:   4    -0.132405523719E+04   -0.44649E-02   -0.44660E-02  8540   0.394E-02 0.127E-04
CGA:   5    -0.132405610774E+04   -0.87055E-03   -0.87088E-03  8540   0.917E-03 0.566E-05
CGA:   6    -0.132405633520E+04   -0.22746E-03   -0.22704E-03  8540   0.250E-03-0.221E-04
CGA:   7    -0.132405640270E+04   -0.67507E-04   -0.67599E-04  8540   0.785E-04-0.785E-05
CGA:   8    -0.132405642276E+04   -0.20059E-04   -0.20071E-04  8540   0.220E-04 0.657E-05
CGA:   9    -0.132405643054E+04   -0.77771E-05   -0.76978E-05  8540   0.708E-05 0.138E-05
  54 F= -.13240564E+04 E0= -.13240564E+04  d E =-.534540E-02  mag=   126.0000
       N       E                     dE             d eps       ncg     rms          ort
SDA:   1    -0.132322811563E+04    0.82831E+00    0.00000E+00  8540   0.215E+01 0.000E+00
CGA:   2    -0.132377344555E+04   -0.54533E+00   -0.54543E+00  8540   0.109E+01 0.828E-03
CGA:   3    -0.132400506890E+04   -0.23162E+00   -0.23164E+00  8540   0.193E+00-0.102E-04
CGA:   4    -0.132404391442E+04   -0.38846E-01   -0.38859E-01  8540   0.339E-01 0.117E-03
CGA:   5    -0.132405153396E+04   -0.76195E-02   -0.76263E-02  8540   0.819E-02 0.902E-04
CGA:   6    -0.132405349546E+04   -0.19615E-02   -0.19604E-02  8540   0.200E-02-0.238E-04
CGA:   7    -0.132405402498E+04   -0.52952E-03   -0.52975E-03  8540   0.598E-03 0.108E-04
CGA:   8    -0.132405419904E+04   -0.17406E-03   -0.17398E-03  8540   0.188E-03 0.180E-04
CGA:   9    -0.132405426952E+04   -0.70482E-04   -0.71979E-04  8540   0.734E-04-0.176E-04
CGA:  10    -0.132405429057E+04   -0.21051E-04   -0.21010E-04  8540   0.202E-04 0.154E-05
CGA:  11    -0.132405429802E+04   -0.74468E-05   -0.77043E-05  8540   0.662E-05-0.314E-05
  55 F= -.13240543E+04 E0= -.13240543E+04  d E =0.213252E-02  mag=   126.0000
       N       E                     dE             d eps       ncg     rms          ort
SDA:   1    -0.131334526551E+04    0.10709E+02    0.00000E+00  8540   0.266E+02 0.000E+00
CGA:   2    -0.132074768171E+04   -0.74024E+01   -0.74032E+01  8540   0.136E+02 0.122E-01
CGA:   3    -0.132343844142E+04   -0.26908E+01   -0.26911E+01  8540   0.216E+01 0.411E-02
CGA:   4    -0.132388071290E+04   -0.44227E+00   -0.44255E+00  8540   0.398E+00 0.316E-02
CGA:   5    -0.132397033025E+04   -0.89617E-01   -0.89666E-01  8540   0.951E-01 0.616E-03
CGA:   6    -0.132399305447E+04   -0.22724E-01   -0.22705E-01  8540   0.243E-01-0.433E-03
CGA:   7    -0.132399959748E+04   -0.65430E-02   -0.65457E-02  8540   0.759E-02 0.205E-03
CGA:   8    -0.132400189077E+04   -0.22933E-02   -0.22896E-02  8540   0.258E-02 0.222E-03
CGA:   9    -0.132400282312E+04   -0.93234E-03   -0.93637E-03  8540   0.864E-03-0.586E-04
CGA:  10    -0.132400308871E+04   -0.26559E-03   -0.26444E-03  8540   0.230E-03 0.434E-04
CGA:  11    -0.132400317309E+04   -0.84384E-04   -0.85121E-04  8540   0.699E-04-0.115E-04
CGA:  12    -0.132400319261E+04   -0.19522E-04   -0.19493E-04  8540   0.212E-04 0.133E-04
CGA:  13    -0.132400319906E+04   -0.64509E-05   -0.66959E-05  8540   0.844E-05 0.939E-05
  56 F= -.13240032E+04 E0= -.13240032E+04  d E =0.510990E-01  mag=   126.0000
       N       E                     dE             d eps       ncg     rms          ort
SDA:   1    -0.130919644339E+04    0.14807E+02    0.00000E+00  8540   0.367E+02 0.000E+00
CGA:   2    -0.131949807162E+04   -0.10302E+02   -0.10302E+02  8540   0.188E+02 0.464E-02
CGA:   3    -0.132319189594E+04   -0.36938E+01   -0.36948E+01  8540   0.295E+01 0.535E-02
CGA:   4    -0.132379690027E+04   -0.60500E+00   -0.60535E+00  8540   0.554E+00 0.382E-02
CGA:   5    -0.132392113378E+04   -0.12423E+00   -0.12430E+00  8540   0.132E+00 0.845E-03
CGA:   6    -0.132395256241E+04   -0.31429E-01   -0.31407E-01  8540   0.340E-01-0.493E-03
CGA:   7    -0.132396170131E+04   -0.91389E-02   -0.91426E-02  8540   0.106E-01 0.312E-03
CGA:   8    -0.132396493596E+04   -0.32347E-02   -0.32297E-02  8540   0.366E-02 0.245E-03
CGA:   9    -0.132396623926E+04   -0.13033E-02   -0.13077E-02  8540   0.119E-02-0.650E-04
CGA:  10    -0.132396658992E+04   -0.35066E-03   -0.34932E-03  8540   0.302E-03 0.101E-03
CGA:  11    -0.132396670569E+04   -0.11577E-03   -0.11718E-03  8540   0.949E-04-0.201E-04
CGA:  12    -0.132396672190E+04   -0.16210E-04   -0.18918E-04  8540   0.324E-04 0.354E-04
CGA:  13    -0.132396672838E+04   -0.64765E-05   -0.83585E-05  8540   0.131E-04 0.191E-04
  57 F= -.13239667E+04 E0= -.13239667E+04  d E =0.364707E-01  mag=   126.0000
       N       E                     dE             d eps       ncg     rms          ort
SDA:   1    -0.128920500819E+04    0.34762E+02    0.00000E+00  8540   0.103E+03 0.000E+00
CGA:   2    -0.131064694741E+04   -0.21442E+02   -0.21523E+02  8540   0.420E+02 0.254E+00
CGA:   3    -0.132079663201E+04   -0.10150E+02   -0.10153E+02  8540   0.101E+02 0.398E-01
CGA:   4    -0.132290792149E+04   -0.21113E+01   -0.21104E+01  8540   0.187E+01-0.151E-01
CGA:   5    -0.132330794117E+04   -0.40002E+00   -0.40017E+00  8540   0.437E+00 0.873E-03
CGA:   6    -0.132341375485E+04   -0.10581E+00   -0.10585E+00  8540   0.117E+00 0.839E-03
CGA:   7    -0.132344529997E+04   -0.31545E-01   -0.31552E-01  8540   0.348E-01 0.934E-03
CGA:   8    -0.132345560524E+04   -0.10305E-01   -0.10307E-01  8540   0.113E-01-0.137E-03
CGA:   9    -0.132345951104E+04   -0.39058E-02   -0.39552E-02  8540   0.409E-02-0.667E-03
CGA:  10    -0.132346071009E+04   -0.11991E-02   -0.11922E-02  8540   0.114E-02 0.234E-03
CGA:  11    -0.132346110850E+04   -0.39841E-03   -0.39731E-03  8540   0.308E-03 0.226E-04
CGA:  12    -0.132346123787E+04   -0.12936E-03   -0.17098E-03  8540   0.265E-03-0.161E-03
CGA:  13    -0.132346129471E+04   -0.56844E-04   -0.59500E-04  8540   0.326E-04 0.364E-04
CGA:  14    -0.132346133058E+04   -0.35866E-04    0.84453E-05  8540   0.110E-04 0.106E-04
CGA:  15    -0.132346134408E+04   -0.13503E-04    0.37136E-05  8540   0.521E-05 0.522E-05
CGA:  16    -0.132346135914E+04   -0.15061E-04    0.48433E-06  8540   0.240E-05 0.332E-05
CGA:  17    -0.132346136734E+04   -0.82019E-05    0.72940E-07  8540   0.104E-05 0.116E-05
  58 F= -.13234614E+04 E0= -.13234614E+04  d E =0.505361E+00  mag=   126.0000
       N       E                     dE             d eps       ncg     rms          ort
SDA:   1    -0.131460065685E+04    0.88607E+01    0.00000E+00  8540   0.283E+02 0.000E+00
CGA:   2    -0.132048542940E+04   -0.58848E+01   -0.58918E+01  8540   0.115E+02 0.246E-01
CGA:   3    -0.132328110862E+04   -0.27957E+01   -0.27965E+01  8540   0.280E+01 0.104E-01
CGA:   4    -0.132386389865E+04   -0.58279E+00   -0.58309E+00  8540   0.519E+00 0.219E-02
CGA:   5    -0.132397643299E+04   -0.11253E+00   -0.11252E+00  8540   0.123E+00-0.461E-03
CGA:   6    -0.132400607197E+04   -0.29639E-01   -0.29579E-01  8540   0.329E-01-0.161E-02
CGA:   7    -0.132401481801E+04   -0.87460E-02   -0.87464E-02  8540   0.971E-02 0.346E-04
CGA:   8    -0.132401751371E+04   -0.26957E-02   -0.26958E-02  8540   0.283E-02 0.276E-03
CGA:   9    -0.132401848758E+04   -0.97387E-03   -0.97053E-03  8540   0.947E-03 0.583E-04
CGA:  10    -0.132401880371E+04   -0.31613E-03   -0.31298E-03  8540   0.296E-03 0.720E-04
CGA:  11    -0.132401893141E+04   -0.12770E-03   -0.17172E-03  8540   0.253E-03-0.172E-03
CGA:  12    -0.132401896912E+04   -0.37705E-04   -0.45610E-04  8540   0.349E-04 0.684E-04
CGA:  13    -0.132401898092E+04   -0.11801E-04   -0.11911E-04  8540   0.113E-04 0.519E-05
CGA:  14    -0.132401899121E+04   -0.10286E-04    0.50066E-05  8540   0.505E-05 0.278E-05
CGA:  15    -0.132401899673E+04   -0.55228E-05    0.17452E-05  8540   0.242E-05 0.195E-05
  59 F= -.13240190E+04 E0= -.13240190E+04  d E =-.557629E+00  mag=   126.0000
       N       E                     dE             d eps       ncg     rms          ort
SDA:   1    -0.132264013183E+04    0.13789E+01    0.00000E+00  8540   0.430E+01 0.000E+00
CGA:   2    -0.132352980837E+04   -0.88968E+00   -0.89019E+00  8540   0.176E+01 0.227E-02
CGA:   3    -0.132395996421E+04   -0.43016E+00   -0.43026E+00  8540   0.432E+00 0.128E-02
CGA:   4    -0.132404991567E+04   -0.89951E-01   -0.89978E-01  8540   0.785E-01 0.223E-03
CGA:   5    -0.132406704810E+04   -0.17132E-01   -0.17125E-01  8540   0.184E-01-0.145E-03
CGA:   6    -0.132407153081E+04   -0.44827E-02   -0.44720E-02  8540   0.488E-02-0.335E-03
CGA:   7    -0.132407281140E+04   -0.12806E-02   -0.12806E-02  8540   0.142E-02 0.331E-05
CGA:   8    -0.132407320551E+04   -0.39411E-03   -0.39402E-03  8540   0.419E-03 0.249E-04
CGA:   9    -0.132407335646E+04   -0.15096E-03   -0.15331E-03  8540   0.162E-03-0.278E-04
CGA:  10    -0.132407340755E+04   -0.51085E-04   -0.51256E-04  8540   0.523E-04-0.292E-05
CGA:  11    -0.132407313238E+04    0.27517E-03   -0.14820E-03  8540   0.121E-02-0.237E-03
CGA:  12    -0.132407337521E+04   -0.24284E-03   -0.27173E-03  8540   0.133E-03 0.995E-04
CGA:  13    -0.132407344679E+04   -0.71573E-04   -0.71530E-04  8540   0.951E-04-0.716E-04
CGA:  14    -0.132407344033E+04    0.64595E-05   -0.11894E-04  8540   0.283E-04 0.491E-04
  60 F= -.13240734E+04 E0= -.13240734E+04  d E =-.544436E-01  mag=   126.0000
       N       E                     dE             d eps       ncg     rms          ort
SDA:   1    -0.132388216328E+04    0.19128E+00    0.00000E+00  8540   0.586E+00 0.000E+00
CGA:   2    -0.132400863833E+04   -0.12648E+00   -0.12654E+00  8540   0.256E+00-0.101E-03
CGA:   3    -0.132406947008E+04   -0.60832E-01   -0.60824E-01  8540   0.595E-01-0.179E-03
CGA:   4    -0.132408165743E+04   -0.12187E-01   -0.12191E-01  8540   0.105E-01 0.160E-05
CGA:   5    -0.132408393502E+04   -0.22776E-02   -0.22870E-02  8540   0.245E-02 0.408E-04
CGA:   6    -0.132408452317E+04   -0.58815E-03   -0.58934E-03  8540   0.627E-03 0.583E-05
CGA:   7    -0.132408468563E+04   -0.16246E-03   -0.16501E-03  8540   0.176E-03 0.169E-04
CGA:   8    -0.132408473622E+04   -0.50595E-04   -0.51222E-04  8540   0.542E-04 0.514E-05
CGA:   9    -0.132408475883E+04   -0.22601E-04   -0.22688E-04  8540   0.271E-04-0.104E-04
CGA:  10    -0.132408476288E+04   -0.40524E-05   -0.50007E-05  8540   0.846E-05 0.557E-05
  61 F= -.13240848E+04 E0= -.13240848E+04  d E =-.113225E-01  mag=   126.0000
       N       E                     dE             d eps       ncg     rms          ort
SDA:   1    -0.132322926106E+04    0.85550E+00    0.00000E+00  8540   0.238E+01 0.000E+00
CGA:   2    -0.132377909688E+04   -0.54984E+00   -0.55011E+00  8540   0.111E+01 0.428E-03
CGA:   3    -0.132403184601E+04   -0.25275E+00   -0.25274E+00  8540   0.234E+00-0.516E-03
CGA:   4    -0.132407942616E+04   -0.47580E-01   -0.47559E-01  8540   0.411E-01-0.176E-03
CGA:   5    -0.132408840428E+04   -0.89781E-02   -0.89968E-02  8540   0.980E-02 0.121E-03
CGA:   6    -0.132409073530E+04   -0.23310E-02   -0.23395E-02  8540   0.249E-02 0.731E-04
CGA:   7    -0.132409139572E+04   -0.66043E-03   -0.66306E-03  8540   0.721E-03 0.321E-04
CGA:   8    -0.132409161377E+04   -0.21804E-03   -0.21773E-03  8540   0.239E-03-0.756E-05
CGA:   9    -0.132409170493E+04   -0.91161E-04   -0.93820E-04  8540   0.111E-03-0.453E-04
CGA:  10    -0.132409172958E+04   -0.24656E-04   -0.25130E-04  8540   0.311E-04 0.765E-05
CGA:  11    -0.132409173792E+04   -0.83407E-05   -0.87026E-05  8540   0.867E-05 0.472E-05
CGA:  12    -0.132409173284E+04    0.50791E-05   -0.10275E-04  8540   0.597E-04-0.221E-04
CGA:  13    -0.132409174437E+04   -0.11527E-04   -0.12947E-04  8540   0.650E-05 0.929E-05
CGA:  14    -0.132409175110E+04   -0.67275E-05    0.57026E-05  8540   0.130E-05-0.552E-06
  62 F= -.13240918E+04 E0= -.13240918E+04  d E =-.698822E-02  mag=   126.0000
       N       E                     dE             d eps       ncg     rms          ort
SDA:   1    -0.132348821943E+04    0.60352E+00    0.00000E+00  8540   0.157E+01 0.000E+00
CGA:   2    -0.132389093335E+04   -0.40271E+00   -0.40276E+00  8540   0.792E+00-0.225E-03
CGA:   3    -0.132405733311E+04   -0.16640E+00   -0.16639E+00  8540   0.142E+00-0.297E-03
CGA:   4    -0.132408598915E+04   -0.28656E-01   -0.28650E-01  8540   0.253E-01-0.667E-04
CGA:   5    -0.132409156380E+04   -0.55746E-02   -0.55878E-02  8540   0.605E-02 0.115E-03
CGA:   6    -0.132409297701E+04   -0.14132E-02   -0.14223E-02  8540   0.149E-02 0.101E-03
CGA:   7    -0.132409337706E+04   -0.40005E-03   -0.40137E-03  8540   0.448E-03 0.243E-04
CGA:   8    -0.132409351576E+04   -0.13870E-03   -0.13869E-03  8540   0.154E-03-0.149E-05
CGA:   9    -0.132409357284E+04   -0.57076E-04   -0.58344E-04  8540   0.636E-04-0.196E-04
CGA:  10    -0.132409358788E+04   -0.15039E-04   -0.15328E-04  8540   0.169E-04 0.675E-05
CGA:  11    -0.132409359250E+04   -0.46192E-05   -0.48287E-05  8540   0.485E-05 0.353E-05
  63 F= -.13240936E+04 E0= -.13240936E+04  d E =-.184140E-02  mag=   126.0000
       N       E                     dE             d eps       ncg     rms          ort
SDA:   1    -0.131471742944E+04    0.93762E+01    0.00000E+00  8540   0.239E+02 0.000E+00
CGA:   2    -0.132102962830E+04   -0.63122E+01   -0.63139E+01  8540   0.121E+02 0.333E-02
CGA:   3    -0.132353615680E+04   -0.25065E+01   -0.25071E+01  8540   0.210E+01 0.279E-02
CGA:   4    -0.132395812055E+04   -0.42196E+00   -0.42220E+00  8540   0.377E+00 0.166E-02
CGA:   5    -0.132404238888E+04   -0.84268E-01   -0.84354E-01  8540   0.909E-01 0.780E-03
CGA:   6    -0.132406393889E+04   -0.21550E-01   -0.21565E-01  8540   0.230E-01 0.173E-03
CGA:   7    -0.132407006707E+04   -0.61282E-02   -0.61361E-02  8540   0.706E-02 0.185E-03
CGA:   8    -0.132407221560E+04   -0.21485E-02   -0.21489E-02  8540   0.239E-02 0.788E-04
CGA:   9    -0.132407306423E+04   -0.84863E-03   -0.85227E-03  8540   0.855E-03-0.792E-04
CGA:  10    -0.132407332196E+04   -0.25773E-03   -0.25757E-03  8540   0.236E-03 0.554E-04
CGA:  11    -0.132407341142E+04   -0.89453E-04   -0.90031E-04  8540   0.783E-04-0.118E-04
CGA:  12    -0.132407344102E+04   -0.29601E-04   -0.30232E-04  8540   0.346E-04-0.678E-05
CGA:  13    -0.132407346760E+04   -0.26583E-04    0.15036E-04  8540   0.130E-04 0.756E-05
CGA:  14    -0.132407347483E+04   -0.72346E-05   -0.75773E-05  8540   0.959E-05-0.219E-05
  64 F= -.13240735E+04 E0= -.13240735E+04  d E =0.201177E-01  mag=   126.0000
       N       E                     dE             d eps       ncg     rms          ort
SDA:   1    -0.131063146619E+04    0.13442E+02    0.00000E+00  8540   0.337E+02 0.000E+00
CGA:   2    -0.131982572378E+04   -0.91943E+01   -0.91954E+01  8540   0.172E+02 0.345E-03
CGA:   3    -0.132329742430E+04   -0.34717E+01   -0.34729E+01  8540   0.282E+01 0.507E-02
CGA:   4    -0.132386971786E+04   -0.57229E+00   -0.57260E+00  8540   0.523E+00 0.241E-02
CGA:   5    -0.132398664046E+04   -0.11692E+00   -0.11702E+00  8540   0.125E+00 0.982E-03
CGA:   6    -0.132401633110E+04   -0.29691E-01   -0.29696E-01  8540   0.320E-01 0.372E-04
CGA:   7    -0.132402501494E+04   -0.86838E-02   -0.86862E-02  8540   0.101E-01 0.703E-04
CGA:   8    -0.132402804617E+04   -0.30312E-02   -0.30315E-02  8540   0.339E-02 0.226E-03
CGA:   9    -0.132402926215E+04   -0.12160E-02   -0.12203E-02  8540   0.118E-02-0.827E-04
CGA:  10    -0.132402962031E+04   -0.35816E-03   -0.35765E-03  8540   0.319E-03 0.590E-04
CGA:  11    -0.132402974275E+04   -0.12245E-03   -0.12515E-03  8540   0.114E-03-0.385E-04
CGA:  12    -0.132402977253E+04   -0.29776E-04   -0.29913E-04  8540   0.391E-04 0.137E-04
CGA:  13    -0.132402980634E+04   -0.33810E-04    0.25954E-04  8540   0.160E-04 0.826E-05
CGA:  14    -0.132402980757E+04   -0.12337E-05   -0.19885E-04  8540   0.680E-04-0.261E-04
CGA:  15    -0.132402950051E+04    0.30706E-03   -0.10687E-03  8540   0.204E-02-0.337E-03
CGA:  16    -0.132402976546E+04   -0.26495E-03   -0.33488E-03  8540   0.198E-03 0.294E-03
CGA:  17    -0.132402983977E+04   -0.74310E-04   -0.68871E-04  8540   0.430E-04-0.613E-04
CGA:  18    -0.132402984516E+04   -0.53836E-05   -0.65975E-05  8540   0.979E-05 0.733E-05
  65 F= -.13240298E+04 E0= -.13240298E+04  d E =0.436297E-01  mag=   126.0000
       N       E                     dE             d eps       ncg     rms          ort
SDA:   1    -0.131045813091E+04    0.13572E+02    0.00000E+00  8540   0.354E+02 0.000E+00
CGA:   2    -0.131934893294E+04   -0.88908E+01   -0.88979E+01  8540   0.177E+02 0.807E-02
CGA:   3    -0.132314414406E+04   -0.37952E+01   -0.37963E+01  8540   0.320E+01 0.611E-02
CGA:   4    -0.132378993615E+04   -0.64579E+00   -0.64611E+00  8540   0.578E+00 0.118E-02
CGA:   5    -0.132391879828E+04   -0.12886E+00   -0.12899E+00  8540   0.138E+00 0.841E-03
CGA:   6    -0.132395183003E+04   -0.33032E-01   -0.33014E-01  8540   0.351E-01-0.204E-03
CGA:   7    -0.132396124189E+04   -0.94119E-02   -0.94222E-02  8540   0.106E-01 0.144E-03
CGA:   8    -0.132396437498E+04   -0.31331E-02   -0.31396E-02  8540   0.348E-02 0.168E-03
CGA:   9    -0.132396560638E+04   -0.12314E-02   -0.12327E-02  8540   0.121E-02-0.750E-04
CGA:  10    -0.132396597838E+04   -0.37200E-03   -0.37322E-03  8540   0.335E-03 0.721E-04
CGA:  11    -0.132396610254E+04   -0.12417E-03   -0.12438E-03  8540   0.101E-03-0.115E-04
CGA:  12    -0.132396613109E+04   -0.28549E-04   -0.29101E-04  8540   0.310E-04 0.165E-04
CGA:  13    -0.132396614402E+04   -0.12933E-04   -0.28615E-04  8540   0.753E-04-0.340E-04
CGA:  14    -0.132396615376E+04   -0.97359E-05   -0.13626E-04  8540   0.135E-04 0.225E-04
  66 F= -.13239662E+04 E0= -.13239662E+04  d E =0.636914E-01  mag=   126.0000
       N       E                     dE             d eps       ncg     rms          ort
SDA:   1    -0.131323748175E+04    0.10729E+02    0.00000E+00  8540   0.281E+02 0.000E+00
CGA:   2    -0.132049562712E+04   -0.72581E+01   -0.72618E+01  8540   0.140E+02 0.935E-02
CGA:   3    -0.132341689574E+04   -0.29213E+01   -0.29215E+01  8540   0.250E+01 0.267E-02
CGA:   4    -0.132392460579E+04   -0.50771E+00   -0.50794E+00  8540   0.450E+00 0.138E-02
CGA:   5    -0.132402407640E+04   -0.99471E-01   -0.99565E-01  8540   0.107E+00 0.708E-03
CGA:   6    -0.132404991936E+04   -0.25843E-01   -0.25798E-01  8540   0.279E-01-0.564E-03
CGA:   7    -0.132405735917E+04   -0.74398E-02   -0.74451E-02  8540   0.849E-02 0.100E-03
CGA:   8    -0.132405990117E+04   -0.25420E-02   -0.25439E-02  8540   0.281E-02 0.104E-03
CGA:   9    -0.132406090278E+04   -0.10016E-02   -0.10059E-02  8540   0.990E-03-0.116E-03
CGA:  10    -0.132406119498E+04   -0.29221E-03   -0.29284E-03  8540   0.267E-03 0.688E-04
[...]
 107 F= -.13241611E+04 E0= -.13241611E+04  d E =-.608423E-02  mag=   126.0000
       N       E                     dE             d eps       ncg     rms          ort
SDA:   1    -0.132362957863E+04    0.53152E+00    0.00000E+00  8540   0.166E+01 0.000E+00
CGA:   2    -0.132394918029E+04   -0.31960E+00   -0.31987E+00  8540   0.632E+00 0.191E-02
CGA:   3    -0.132411494167E+04   -0.16576E+00   -0.16576E+00  8540   0.185E+00-0.106E-03
CGA:   4    -0.132415255452E+04   -0.37613E-01   -0.37572E-01  8540   0.306E-01-0.615E-03
CGA:   5    -0.132415911112E+04   -0.65566E-02   -0.65503E-02  8540   0.719E-02-0.128E-03
CGA:   6    -0.132416080082E+04   -0.16897E-02   -0.16899E-02  8540   0.173E-02 0.116E-05
CGA:   7    -0.132416122649E+04   -0.42567E-03   -0.42720E-03  8540   0.455E-03 0.801E-04
CGA:   8    -0.132416135645E+04   -0.12997E-03   -0.12971E-03  8540   0.129E-03 0.345E-04
CGA:   9    -0.132416140180E+04   -0.45345E-04   -0.44836E-04  8540   0.458E-04 0.867E-05
CGA:  10    -0.132416141458E+04   -0.12778E-04   -0.12854E-04  8540   0.147E-04 0.138E-04
CGA:  11    -0.132416141810E+04   -0.35241E-05   -0.40003E-05  8540   0.520E-05 0.808E-05
 108 F= -.13241614E+04 E0= -.13241614E+04  d E =-.312729E-03  mag=   126.0000
       N       E                     dE             d eps       ncg     rms          ort
SDA:   1    -0.132383722198E+04    0.32419E+00    0.00000E+00  8540   0.963E+00 0.000E+00
CGA:   2    -0.132402872877E+04   -0.19151E+00   -0.19162E+00  8540   0.387E+00 0.114E-02
CGA:   3    -0.132412647174E+04   -0.97743E-01   -0.97742E-01  8540   0.106E+00-0.240E-03
CGA:   4    -0.132414794436E+04   -0.21473E-01   -0.21451E-01  8540   0.177E-01-0.394E-03
CGA:   5    -0.132415178784E+04   -0.38435E-02   -0.38400E-02  8540   0.421E-02-0.972E-04
CGA:   6    -0.132415278155E+04   -0.99371E-03   -0.99305E-03  8540   0.103E-02-0.401E-04
CGA:   7    -0.132415303403E+04   -0.25248E-03   -0.25275E-03  8540   0.269E-03 0.390E-04
CGA:   8    -0.132415310685E+04   -0.72818E-04   -0.72617E-04  8540   0.718E-04 0.284E-04
CGA:   9    -0.132415313227E+04   -0.25424E-04   -0.25011E-04  8540   0.248E-04 0.671E-05
CGA:  10    -0.132415314020E+04   -0.79254E-05   -0.77555E-05  8540   0.817E-05 0.580E-05
 109 F= -.13241531E+04 E0= -.13241531E+04  d E =0.827790E-02  mag=   126.0000
       N       E                     dE             d eps       ncg     rms          ort
SDA:   1    -0.131471000278E+04    0.94431E+01    0.00000E+00  8540   0.286E+02 0.000E+00
CGA:   2    -0.132042355485E+04   -0.57136E+01   -0.57201E+01  8540   0.113E+02 0.531E-01
CGA:   3    -0.132323821738E+04   -0.28147E+01   -0.28147E+01  8540   0.299E+01 0.676E-02
CGA:   4    -0.132385623863E+04   -0.61802E+00   -0.61779E+00  8540   0.538E+00-0.574E-02
CGA:   5    -0.132397201541E+04   -0.11578E+00   -0.11577E+00  8540   0.125E+00-0.503E-03
CGA:   6    -0.132400176987E+04   -0.29754E-01   -0.29750E-01  8540   0.322E-01-0.448E-03
CGA:   7    -0.132401025194E+04   -0.84821E-02   -0.84799E-02  8540   0.923E-02 0.138E-03
CGA:   8    -0.132401288128E+04   -0.26293E-02   -0.26285E-02  8540   0.278E-02 0.225E-04
CGA:   9    -0.132401385726E+04   -0.97598E-03   -0.99650E-03  8540   0.106E-02-0.195E-03
CGA:  10    -0.132401416905E+04   -0.31180E-03   -0.30846E-03  8540   0.309E-03 0.589E-04
CGA:  11    -0.132401429098E+04   -0.12193E-03   -0.13035E-03  8540   0.115E-03-0.606E-04
CGA:  12    -0.132401431541E+04   -0.24429E-04   -0.60393E-04  8540   0.161E-03-0.937E-04
CGA:  13    -0.132401435518E+04   -0.39770E-04   -0.39768E-04  8540   0.197E-04-0.115E-06
CGA:  14    -0.132401436859E+04   -0.13408E-04    0.13926E-04  8540   0.442E-05 0.584E-05
CGA:  15    -0.132401437276E+04   -0.41671E-05    0.28912E-05  8540   0.180E-05 0.206E-05
 110 F= -.13240144E+04 E0= -.13240144E+04  d E =0.138767E+00  mag=   126.0000
       N       E                     dE             d eps       ncg     rms          ort
SDA:   1    -0.131990492255E+04    0.41094E+01    0.00000E+00  8540   0.126E+02 0.000E+00
CGA:   2    -0.132257002398E+04   -0.26651E+01   -0.26670E+01  8540   0.519E+01 0.114E-01
CGA:   3    -0.132381080292E+04   -0.12408E+01   -0.12409E+01  8540   0.125E+01 0.283E-03
CGA:   4    -0.132407099901E+04   -0.26020E+00   -0.26012E+00  8540   0.235E+00-0.153E-02
CGA:   5    -0.132412160512E+04   -0.50606E-01   -0.50613E-01  8540   0.541E-01 0.368E-04
CGA:   6    -0.132413456664E+04   -0.12962E-01   -0.12959E-01  8540   0.146E-01-0.987E-04
CGA:   7    -0.132413845401E+04   -0.38874E-02   -0.38881E-02  8540   0.424E-02 0.197E-03
CGA:   8    -0.132413968796E+04   -0.12340E-02   -0.12337E-02  8540   0.132E-02 0.135E-04
CGA:   9    -0.132414014642E+04   -0.45847E-03   -0.46385E-03  8540   0.473E-03-0.677E-04
CGA:  10    -0.132414028301E+04   -0.13659E-03   -0.13550E-03  8540   0.131E-03 0.403E-04
CGA:  11    -0.132414032971E+04   -0.46706E-04   -0.46387E-04  8540   0.355E-04 0.625E-05
CGA:  12    -0.132414034115E+04   -0.11440E-04   -0.11293E-04  8540   0.106E-04 0.599E-05
CGA:  13    -0.132414034346E+04   -0.23091E-05   -0.26848E-05  8540   0.403E-05 0.585E-05
 111 F= -.13241403E+04 E0= -.13241403E+04  d E =-.125971E+00  mag=   126.0000
       N       E                     dE             d eps       ncg     rms          ort
SDA:   1    -0.132396381904E+04    0.17652E+00    0.00000E+00  8540   0.577E+00 0.000E+00
CGA:   2    -0.132408160014E+04   -0.11778E+00   -0.11787E+00  8540   0.235E+00 0.450E-03
CGA:   3    -0.132413994727E+04   -0.58347E-01   -0.58343E-01  8540   0.601E-01-0.220E-03
CGA:   4    -0.132415232586E+04   -0.12379E-01   -0.12366E-01  8540   0.107E-01-0.140E-03
CGA:   5    -0.132415462392E+04   -0.22981E-02   -0.22998E-02  8540   0.247E-02 0.161E-04
CGA:   6    -0.132415520370E+04   -0.57979E-03   -0.58282E-03  8540   0.618E-03 0.476E-04
CGA:   7    -0.132415536155E+04   -0.15785E-03   -0.15953E-03  8540   0.167E-03 0.403E-04
CGA:   8    -0.132415541375E+04   -0.52201E-04   -0.52199E-04  8540   0.547E-04 0.264E-05
CGA:   9    -0.132415543158E+04   -0.17828E-04   -0.17735E-04  8540   0.178E-04 0.356E-05
CGA:  10    -0.132415543598E+04   -0.44012E-05   -0.46817E-05  8540   0.537E-05 0.587E-05
 112 F= -.13241554E+04 E0= -.13241554E+04  d E =-.150925E-01  mag=   126.0000
       N       E                     dE             d eps       ncg     rms          ort
SDA:   1    -0.132273893962E+04    0.14165E+01    0.00000E+00  8540   0.436E+01 0.000E+00
CGA:   2    -0.132359368726E+04   -0.85475E+00   -0.85557E+00  8540   0.170E+01 0.492E-02
CGA:   3    -0.132403313533E+04   -0.43945E+00   -0.43947E+00  8540   0.472E+00-0.263E-03
CGA:   4    -0.132412973895E+04   -0.96604E-01   -0.96508E-01  8540   0.798E-01-0.138E-02
CGA:   5    -0.132414698063E+04   -0.17242E-01   -0.17233E-01  8540   0.188E-01-0.173E-03
CGA:   6    -0.132415141615E+04   -0.44355E-02   -0.44377E-02  8540   0.462E-02 0.514E-04
CGA:   7    -0.132415260341E+04   -0.11873E-02   -0.11891E-02  8540   0.128E-02 0.123E-03
CGA:   8    -0.132415298587E+04   -0.38246E-03   -0.38268E-03  8540   0.404E-03-0.108E-04
CGA:   9    -0.132415312761E+04   -0.14174E-03   -0.14503E-03  8540   0.162E-03-0.367E-04
CGA:  10    -0.132415317276E+04   -0.45147E-04   -0.44810E-04  8540   0.470E-04 0.120E-04
CGA:  11    -0.132415318820E+04   -0.15444E-04   -0.15334E-04  8540   0.117E-04 0.413E-05
CGA:  12    -0.132415319322E+04   -0.50141E-05   -0.54739E-05  8540   0.635E-05-0.309E-05
 113 F= -.13241532E+04 E0= -.13241532E+04  d E =0.224277E-02  mag=   126.0000
       N       E                     dE             d eps       ncg     rms          ort
SDA:   1    -0.132387830605E+04    0.27488E+00    0.00000E+00  8540   0.790E+00 0.000E+00
CGA:   2    -0.132404151632E+04   -0.16321E+00   -0.16330E+00  8540   0.327E+00 0.614E-03
CGA:   3    -0.132412206484E+04   -0.80549E-01   -0.80559E-01  8540   0.825E-01 0.693E-04
CGA:   4    -0.132413891932E+04   -0.16854E-01   -0.16855E-01  8540   0.146E-01-0.179E-04
CGA:   5    -0.132414209091E+04   -0.31716E-02   -0.31688E-02  8540   0.343E-02-0.483E-04
CGA:   6    -0.132414292120E+04   -0.83029E-03   -0.82817E-03  8540   0.883E-03-0.585E-04
CGA:   7    -0.132414314759E+04   -0.22639E-03   -0.22646E-03  8540   0.248E-03 0.415E-05
CGA:   8    -0.132414321235E+04   -0.64760E-04   -0.65087E-04  8540   0.659E-04 0.209E-04
CGA:   9    -0.132414323284E+04   -0.20490E-04   -0.20373E-04  8540   0.202E-04 0.125E-04
CGA:  10    -0.132414324180E+04   -0.89657E-05   -0.89277E-05  8540   0.905E-05 0.388E-06
 114 F= -.13241432E+04 E0= -.13241432E+04  d E =0.995141E-02  mag=   126.0000
       N       E                     dE             d eps       ncg     rms          ort
SDA:   1    -0.131061003387E+04    0.13533E+02    0.00000E+00  8540   0.399E+02 0.000E+00
CGA:   2    -0.131885441059E+04   -0.82444E+01   -0.82551E+01  8540   0.163E+02 0.558E-01
CGA:   3    -0.132287599603E+04   -0.40216E+01   -0.40222E+01  8540   0.406E+01 0.850E-02
CGA:   4    -0.132371313168E+04   -0.83714E+00   -0.83684E+00  8540   0.731E+00-0.598E-02
CGA:   5    -0.132387089809E+04   -0.15777E+00   -0.15777E+00  8540   0.172E+00-0.341E-03
CGA:   6    -0.132391219981E+04   -0.41302E-01   -0.41285E-01  8540   0.455E-01-0.659E-03
CGA:   7    -0.132392419728E+04   -0.11997E-01   -0.11998E-01  8540   0.132E-01 0.250E-03
CGA:   8    -0.132392794295E+04   -0.37457E-02   -0.37425E-02  8540   0.399E-02 0.206E-03
CGA:   9    -0.132392934306E+04   -0.14001E-02   -0.14104E-02  8540   0.145E-02-0.131E-03
CGA:  10    -0.132392977195E+04   -0.42889E-03   -0.42395E-03  8540   0.419E-03 0.157E-03
CGA:  11    -0.132392993470E+04   -0.16275E-03   -0.16291E-03  8540   0.130E-03-0.239E-05
CGA:  12    -0.132392998353E+04   -0.48828E-04   -0.49492E-04  8540   0.524E-04-0.643E-05
CGA:  13    -0.132393000361E+04   -0.20079E-04   -0.20118E-04  8540   0.208E-04-0.379E-06
CGA:  14    -0.132392993406E+04    0.69553E-04   -0.38266E-04  8540   0.359E-03-0.720E-04
CGA:  15    -0.132393001160E+04   -0.77550E-04   -0.82187E-04  8540   0.602E-04 0.156E-04
CGA:  16    -0.132393002568E+04   -0.14079E-04   -0.15323E-04  8540   0.136E-04 0.468E-05
CGA:  17    -0.132393004726E+04   -0.21579E-04    0.77299E-05  8540   0.749E-05-0.235E-05
CGA:  18    -0.132393004583E+04    0.14367E-05   -0.55757E-06  8540   0.516E-05 0.488E-05
 115 F= -.13239300E+04 E0= -.13239300E+04  d E =0.213196E+00  mag=   126.0000
       N       E                     dE             d eps       ncg     rms          ort
SDA:   1    -0.131690753119E+04    0.70225E+01    0.00000E+00  8540   0.210E+02 0.000E+00
CGA:   2    -0.132144030265E+04   -0.45328E+01   -0.45441E+01  8540   0.903E+01-0.174E-02
CGA:   3    -0.132358573509E+04   -0.21454E+01   -0.21463E+01  8540   0.205E+01 0.366E-02
CGA:   4    -0.132400853100E+04   -0.42280E+00   -0.42269E+00  8540   0.375E+00-0.825E-03
CGA:   5    -0.132408993430E+04   -0.81403E-01   -0.81465E-01  8540   0.884E-01 0.133E-03
CGA:   6    -0.132411121710E+04   -0.21283E-01   -0.21276E-01  8540   0.239E-01-0.628E-04
CGA:   7    -0.132411760618E+04   -0.63891E-02   -0.64070E-02  8540   0.703E-02 0.127E-03
CGA:   8    -0.132411966778E+04   -0.20616E-02   -0.20602E-02  8540   0.220E-02-0.149E-04
CGA:   9    -0.132412042105E+04   -0.75328E-03   -0.74886E-03  8540   0.755E-03-0.879E-04
CGA:  10    -0.132412066082E+04   -0.23977E-03   -0.24024E-03  8540   0.227E-03 0.766E-05
CGA:  11    -0.132412074473E+04   -0.83908E-04   -0.83473E-04  8540   0.706E-04-0.193E-04
CGA:  12    -0.132412077380E+04   -0.29063E-04   -0.32185E-04  8540   0.476E-04-0.278E-04
CGA:  13    -0.132412078325E+04   -0.94554E-05   -0.92131E-05  8540   0.194E-04-0.336E-05
CGA:  14    -0.132412080117E+04   -0.17918E-04    0.12593E-04  8540   0.115E-04-0.601E-05
CGA:  15    -0.132412080328E+04   -0.21092E-05   -0.21646E-05  8540   0.484E-05 0.481E-06
 116 F= -.13241208E+04 E0= -.13241208E+04  d E =-.190757E+00  mag=   126.0000
       N       E                     dE             d eps       ncg     rms          ort
SDA:   1    -0.132393248582E+04    0.18832E+00    0.00000E+00  8540   0.630E+00 0.000E+00
CGA:   2    -0.132406220921E+04   -0.12972E+00   -0.12980E+00  8540   0.258E+00 0.349E-04
CGA:   3    -0.132412548808E+04   -0.63279E-01   -0.63249E-01  8540   0.654E-01-0.367E-03
CGA:   4    -0.132413897423E+04   -0.13486E-01   -0.13465E-01  8540   0.119E-01-0.131E-03
CGA:   5    -0.132414149101E+04   -0.25168E-02   -0.25354E-02  8540   0.271E-02 0.110E-03
CGA:   6    -0.132414210137E+04   -0.61037E-03   -0.62722E-03  8540   0.675E-03 0.119E-03
CGA:   7    -0.132414226964E+04   -0.16827E-03   -0.17560E-03  8540   0.184E-03 0.646E-04
CGA:   8    -0.132414232577E+04   -0.56123E-04   -0.57133E-04  8540   0.584E-04 0.136E-04
CGA:   9    -0.132414234500E+04   -0.19238E-04   -0.19540E-04  8540   0.194E-04 0.728E-05
CGA:  10    -0.132414234708E+04   -0.20783E-05   -0.39348E-05  8540   0.742E-05 0.109E-04
 117 F= -.13241423E+04 E0= -.13241423E+04  d E =-.215438E-01  mag=   126.0000
       N       E                     dE             d eps       ncg     rms          ort
SDA:   1    -0.132052392241E+04    0.36184E+01    0.00000E+00  8540   0.111E+02 0.000E+00
CGA:   2    -0.132270314227E+04   -0.21792E+01   -0.21828E+01  8540   0.432E+01 0.928E-02
CGA:   3    -0.132380746234E+04   -0.11043E+01   -0.11045E+01  8540   0.120E+01-0.462E-03
CGA:   4    -0.132405346243E+04   -0.24600E+00   -0.24567E+00  8540   0.209E+00-0.323E-02
CGA:   5    -0.132409851240E+04   -0.45050E-01   -0.45037E-01  8540   0.489E-01-0.228E-03
CGA:   6    -0.132410993488E+04   -0.11422E-01   -0.11445E-01  8540   0.122E-01 0.282E-03
CGA:   7    -0.132411310282E+04   -0.31679E-02   -0.31803E-02  8540   0.345E-02 0.259E-03
CGA:   8    -0.132411414586E+04   -0.10430E-02   -0.10422E-02  8540   0.112E-02-0.934E-04
CGA:   9    -0.132411454440E+04   -0.39854E-03   -0.40954E-03  8540   0.474E-03-0.151E-03
CGA:  10    -0.132411466467E+04   -0.12028E-03   -0.12070E-03  8540   0.132E-03 0.325E-04
CGA:  11    -0.132411470047E+04   -0.35796E-04   -0.37019E-04  8540   0.333E-04 0.270E-04
CGA:  12    -0.132411471440E+04   -0.13935E-04   -0.14071E-04  8540   0.143E-04-0.299E-05
CGA:  13    -0.132411471732E+04   -0.29176E-05   -0.31814E-05  8540   0.553E-05 0.424E-05
 118 F= -.13241147E+04 E0= -.13241147E+04  d E =0.276298E-01  mag=   126.0000
       N       E                     dE             d eps       ncg     rms          ort
SDA:   1    -0.132307620917E+04    0.10385E+01    0.00000E+00  8540   0.302E+01 0.000E+00
CGA:   2    -0.132369918233E+04   -0.62297E+00   -0.62349E+00  8540   0.124E+01 0.153E-02
CGA:   3    -0.132400733022E+04   -0.30815E+00   -0.30817E+00  8540   0.318E+00-0.452E-03
CGA:   4    -0.132407244775E+04   -0.65118E-01   -0.65064E-01  8540   0.548E-01-0.544E-03
CGA:   5    -0.132408427611E+04   -0.11828E-01   -0.11833E-01  8540   0.130E-01 0.263E-04
CGA:   6    -0.132408741200E+04   -0.31359E-02   -0.31313E-02  8540   0.327E-02-0.705E-04
CGA:   7    -0.132408826809E+04   -0.85609E-03   -0.85557E-03  8540   0.948E-03-0.129E-04
CGA:   8    -0.132408854603E+04   -0.27794E-03   -0.27763E-03  8540   0.298E-03-0.306E-04
CGA:   9    -0.132408865136E+04   -0.10533E-03   -0.10886E-03  8540   0.130E-03-0.479E-04
CGA:  10    -0.132408868734E+04   -0.35983E-04   -0.36121E-04  8540   0.397E-04-0.593E-05
CGA:  11    -0.132408870220E+04   -0.14858E-04   -0.18050E-04  8540   0.244E-04-0.191E-04
CGA:  12    -0.132408870569E+04   -0.34941E-05   -0.34751E-05  8540   0.991E-05-0.450E-06
 119 F= -.13240887E+04 E0= -.13240887E+04  d E =0.260116E-01  mag=   126.0000
       N       E                     dE             d eps       ncg     rms          ort
SDA:   1    -0.130690267441E+04    0.17186E+02    0.00000E+00  8540   0.511E+02 0.000E+00
CGA:   2    -0.131740641780E+04   -0.10504E+02   -0.10530E+02  8540   0.208E+02 0.435E-01
CGA:   3    -0.132250688236E+04   -0.51005E+01   -0.51023E+01  8540   0.518E+01 0.133E-01
CGA:   4    -0.132357721327E+04   -0.10703E+01   -0.10700E+01  8540   0.940E+00-0.513E-02
CGA:   5    -0.132378159468E+04   -0.20438E+00   -0.20431E+00  8540   0.222E+00-0.123E-02
CGA:   6    -0.132383452731E+04   -0.52933E-01   -0.52849E-01  8540   0.586E-01-0.127E-02
CGA:   7    -0.132385004527E+04   -0.15518E-01   -0.15528E-01  8540   0.171E-01 0.241E-03
CGA:   8    -0.132385487579E+04   -0.48305E-02   -0.48372E-02  8540   0.510E-02 0.293E-03
CGA:   9    -0.132385666080E+04   -0.17850E-02   -0.17897E-02  8540   0.180E-02-0.114E-03
CGA:  10    -0.132385724421E+04   -0.58341E-03   -0.58164E-03  8540   0.559E-03 0.677E-04
CGA:  11    -0.132385746619E+04   -0.22198E-03   -0.23043E-03  8540   0.205E-03-0.925E-04
CGA:  12    -0.132385753034E+04   -0.64152E-04   -0.66283E-04  8540   0.761E-04-0.278E-04
CGA:  13    -0.132385755876E+04   -0.28421E-04   -0.33502E-04  8540   0.455E-04-0.262E-04
CGA:  14    -0.132385759296E+04   -0.34197E-04    0.63143E-05  8540   0.194E-04 0.235E-06
CGA:  15    -0.132385759646E+04   -0.34957E-05   -0.41471E-05  8540   0.654E-05 0.582E-05
CGA:  16    -0.132385753197E+04    0.64482E-04   -0.34734E-04  8540   0.247E-03-0.471E-04
CGA:  17    -0.132385765700E+04   -0.12503E-03   -0.10484E-03  8540   0.201E-03-0.130E-03
CGA:  18    -0.132385764400E+04    0.13003E-04   -0.19655E-04  8540   0.282E-04 0.690E-04
CGA:  19    -0.132385763651E+04    0.74866E-05   -0.24120E-05  8540   0.102E-04 0.204E-04
 120 F= -.13238576E+04 E0= -.13238576E+04  d E =0.231069E+00  mag=   126.0000
       N       E                     dE             d eps       ncg     rms          ort
SDA:   1    -0.131967732615E+04    0.41803E+01    0.00000E+00  8540   0.130E+02 0.000E+00
CGA:   2    -0.132244098839E+04   -0.27637E+01   -0.27690E+01  8540   0.551E+01-0.190E-02
CGA:   3    -0.132376683172E+04   -0.13258E+01   -0.13261E+01  8540   0.130E+01-0.414E-03
CGA:   4    -0.132403241591E+04   -0.26558E+00   -0.26543E+00  8540   0.235E+00-0.801E-03
CGA:   5    -0.132408365029E+04   -0.51234E-01   -0.51335E-01  8540   0.559E-01 0.313E-03
CGA:   6    -0.132409692193E+04   -0.13272E-01   -0.13294E-01  8540   0.147E-01 0.874E-04
CGA:   7    -0.132410085483E+04   -0.39329E-02   -0.39479E-02  8540   0.434E-02 0.850E-04
CGA:   8    -0.132410213417E+04   -0.12793E-02   -0.12729E-02  8540   0.136E-02-0.475E-04
CGA:   9    -0.132410261091E+04   -0.47674E-03   -0.47058E-03  8540   0.486E-03-0.822E-04
CGA:  10    -0.132410275724E+04   -0.14633E-03   -0.14756E-03  8540   0.142E-03 0.125E-04
CGA:  11    -0.132410280846E+04   -0.51220E-04   -0.50899E-04  8540   0.406E-04-0.485E-05
CGA:  12    -0.132410279503E+04    0.13424E-04   -0.43384E-04  8540   0.242E-03-0.820E-04
CGA:  13    -0.132410283524E+04   -0.40207E-04   -0.49139E-04  8540   0.252E-04 0.366E-04
CGA:  14    -0.132410286318E+04   -0.27938E-04    0.57726E-04  8540   0.170E-04-0.109E-04
CGA:  15    -0.132410286175E+04    0.14310E-05   -0.72223E-06  8540   0.112E-04 0.599E-05
 121 F= -.13241029E+04 E0= -.13241029E+04  d E =-.245225E+00  mag=   126.0000
       N       E                     dE             d eps       ncg     rms          ort
SDA:   1    -0.132355301055E+04    0.54985E+00    0.00000E+00  8540   0.170E+01 0.000E+00
CGA:   2    -0.132390812522E+04   -0.35511E+00   -0.35543E+00  8540   0.702E+00 0.497E-03
CGA:   3    -0.132407871036E+04   -0.17059E+00   -0.17053E+00  8540   0.172E+00-0.826E-03
CGA:   4    -0.132411426606E+04   -0.35556E-01   -0.35459E-01  8540   0.315E-01-0.597E-03
CGA:   5    -0.132412100677E+04   -0.67407E-02   -0.67700E-02  8540   0.728E-02 0.175E-03
CGA:   6    -0.132412267438E+04   -0.16676E-02   -0.16960E-02  8540   0.184E-02 0.210E-03
CGA:   7    -0.132412316554E+04   -0.49116E-03   -0.49803E-03  8540   0.532E-03 0.718E-04
CGA:   8    -0.132412333712E+04   -0.17158E-03   -0.17041E-03  8540   0.188E-03-0.256E-04
CGA:   9    -0.132412340321E+04   -0.66087E-04   -0.66668E-04  8540   0.774E-04-0.269E-04
CGA:  10    -0.132412341627E+04   -0.13066E-04   -0.15221E-04  8540   0.220E-04 0.175E-04
CGA:  11    -0.132412341868E+04   -0.24067E-05   -0.44776E-05  8540   0.799E-05 0.115E-04
