       N       E                     dE             d eps       ncg     rms          ort
DAV:   1     0.112924638902E+05    0.11292E+05   -0.46593E+05  8540   0.170E+03
DAV:   2     0.795809266074E+02   -0.11213E+05   -0.10208E+05  8540   0.487E+02
DAV:   3    -0.154329611562E+04   -0.16229E+04   -0.15375E+04  8540   0.197E+02
DAV:   4    -0.162642197464E+04   -0.83126E+02   -0.81992E+02  8540   0.454E+01
DAV:   5    -0.162746282675E+04   -0.10409E+01   -0.10380E+01  8540   0.554E+00
SDA:   6    -0.791037912168E+03    0.83642E+03   -0.10380E+01  8540   0.285E+04 0.000E+00
CGA:   7    -0.118303855289E+04   -0.39200E+03   -0.39072E+03  8540   0.522E+03 0.611E+02
CGA:   8    -0.123645960473E+04   -0.53421E+02   -0.66385E+02  8540   0.127E+03 0.201E+02
CGA:   9    -0.126122990263E+04   -0.24770E+02   -0.18279E+02  8540   0.452E+02 0.510E+02
CGA:  10    -0.125871407223E+04    0.25158E+01   -0.50244E+01  8540   0.198E+03-0.332E+02
CGA:  11    -0.126923547311E+04   -0.10521E+02   -0.19895E+02  8540   0.403E+02-0.157E+02
CGA:  12    -0.127643855282E+04   -0.72031E+01   -0.42246E+01  8540   0.159E+02 0.297E+02
CGA:  13    -0.127772235640E+04   -0.12838E+01   -0.69725E+00  8540   0.904E+01 0.113E+02
CGA:  14    -0.128007213812E+04   -0.23498E+01   -0.32502E+01  8540   0.925E+02-0.441E+01
CGA:  15    -0.128126240328E+04   -0.11903E+01   -0.13550E+01  8540   0.914E+02-0.662E+01
CGA:  16    -0.128243458337E+04   -0.11722E+01   -0.32615E+01  8540   0.116E+02-0.363E+02
CGA:  17    -0.128263106193E+04   -0.19648E+00   -0.48614E+00  8540   0.472E+01-0.168E+01
CGA:  18    -0.128321495673E+04   -0.58389E+00   -0.58469E+00  8540   0.263E+01 0.445E-01
CGA:  19    -0.128393875194E+04   -0.72380E+00   -0.71424E+00  8540   0.280E+01 0.856E-01
CGA:  20    -0.128444117890E+04   -0.50243E+00   -0.50193E+00  8540   0.881E+00 0.406E-01
CGA:  21    -0.128460215865E+04   -0.16098E+00   -0.16121E+00  8540   0.444E+00-0.163E-01
CGA:  22    -0.128469765570E+04   -0.95497E-01   -0.96337E-01  8540   0.218E+00-0.149E-01
CGA:  23    -0.128473778728E+04   -0.40132E-01   -0.40368E-01  8540   0.115E+00-0.919E-02
CGA:  24    -0.128476212202E+04   -0.24335E-01   -0.24920E-01  8540   0.604E-01-0.104E-01
CGA:  25    -0.128477302899E+04   -0.10907E-01   -0.10944E-01  8540   0.358E-01-0.144E-02
CGA:  26    -0.128477909503E+04   -0.60660E-02   -0.60734E-02  8540   0.190E-01 0.648E-02
CGA:  27    -0.128478195730E+04   -0.28623E-02   -0.30800E-02  8540   0.905E-02 0.589E-02
CGA:  28    -0.128478367444E+04   -0.17171E-02   -0.17836E-02  8540   0.466E-02 0.297E-02
CGA:  29    -0.128478478117E+04   -0.11067E-02   -0.11072E-02  8540   0.190E-02-0.717E-04
CGA:  30    -0.128478522904E+04   -0.44788E-03   -0.57432E-03  8540   0.184E-02-0.939E-03
CGA:  31    -0.128478532125E+04   -0.92202E-04   -0.99491E-04  8540   0.127E-02 0.101E-03
CGA:  32    -0.128478547471E+04   -0.15346E-03   -0.16411E-03  8540   0.704E-03 0.202E-03
CGA:  33    -0.128478293194E+04    0.25428E-02   -0.13680E-02  8540   0.135E-01-0.372E-02
CGA:  34    -0.128478638693E+04   -0.34550E-02   -0.33350E-02  8540   0.270E-02-0.177E-02
CGA:  35    -0.128478675448E+04   -0.36755E-03   -0.44380E-03  8540   0.540E-03 0.628E-03
CGA:  36    -0.128478685476E+04   -0.10028E-03   -0.12224E-03  8540   0.159E-03 0.181E-03
CGA:  37    -0.128478678848E+04    0.66286E-04   -0.18617E-03  8540   0.140E-02-0.438E-03
CGA:  38    -0.128478692263E+04   -0.13416E-03   -0.18984E-03  8540   0.158E-03 0.296E-03
CGA:  39    -0.128478697674E+04   -0.54104E-04   -0.52920E-04  8540   0.806E-04-0.287E-04
CGA:  40    -0.128478705736E+04   -0.80628E-04    0.11179E-04  8540   0.561E-04-0.352E-04
CGA:  41    -0.128478706362E+04   -0.62544E-05   -0.59752E-05  8540   0.207E-04-0.214E-05
   1 F= -.12847871E+04 E0= -.12847871E+04  d E =-.128479E+04  mag=   126.0000
       N       E                     dE             d eps       ncg     rms          ort
SDA:   1    -0.128479266810E+04   -0.56107E-02    0.00000E+00  8540   0.653E-02 0.000E+00
CGA:   2    -0.128479419100E+04   -0.15229E-02   -0.15226E-02  8540   0.306E-02-0.770E-05
CGA:   3    -0.128479490003E+04   -0.70902E-03   -0.70290E-03  8540   0.682E-03-0.976E-04
CGA:   4    -0.128479508373E+04   -0.18370E-03   -0.17880E-03  8540   0.288E-03-0.246E-03
CGA:   5    -0.128479511853E+04   -0.34806E-04   -0.33544E-04  8540   0.705E-04-0.117E-04
CGA:   6    -0.128479513401E+04   -0.15479E-04   -0.15115E-04  8540   0.269E-04-0.602E-05
CGA:   7    -0.128479515240E+04   -0.18383E-04    0.10465E-04  8540   0.146E-04-0.752E-05
CGA:   8    -0.128479516085E+04   -0.84496E-05    0.34303E-05  8540   0.602E-05-0.312E-05
   2 F= -.12847952E+04 E0= -.12847952E+04  d E =-.809723E-02  mag=   126.0000
       N       E                     dE             d eps       ncg     rms          ort
SDA:   1    -0.128356952250E+04    0.12256E+01    0.00000E+00  8540   0.381E+01 0.000E+00
CGA:   2    -0.128446785672E+04   -0.89833E+00   -0.89855E+00  8540   0.177E+01 0.273E-02
CGA:   3    -0.128486190767E+04   -0.39405E+00   -0.39388E+00  8540   0.374E+00-0.391E-02
CGA:   4    -0.128493857388E+04   -0.76666E-01   -0.76501E-01  8540   0.687E-01-0.251E-02
CGA:   5    -0.128495324348E+04   -0.14670E-01   -0.14645E-01  8540   0.159E-01-0.445E-03
CGA:   6    -0.128495719351E+04   -0.39500E-02   -0.39402E-02  8540   0.481E-02-0.479E-03
CGA:   7    -0.128495862751E+04   -0.14340E-02   -0.14763E-02  8540   0.224E-02-0.889E-03
CGA:   8    -0.128495922402E+04   -0.59651E-03   -0.85694E-03  8540   0.243E-02-0.132E-02
CGA:   9    -0.128495974540E+04   -0.52138E-03   -0.50653E-03  8540   0.501E-03-0.206E-03
CGA:  10    -0.128495930271E+04    0.44269E-03   -0.51049E-03  8540   0.460E-02-0.114E-02
CGA:  11    -0.128496025476E+04   -0.95205E-03   -0.92322E-03  8540   0.508E-03-0.244E-03
CGA:  12    -0.128496043807E+04   -0.18332E-03   -0.20581E-03  8540   0.198E-03-0.197E-03
CGA:  13    -0.128496057840E+04   -0.14033E-03    0.23718E-04  8540   0.766E-04-0.806E-05
CGA:  14    -0.128495988202E+04    0.69638E-03   -0.37574E-03  8540   0.438E-02-0.484E-03
CGA:  15    -0.128496093046E+04   -0.10484E-02   -0.84604E-03  8540   0.761E-03-0.544E-03
CGA:  16    -0.128496100067E+04   -0.70216E-04   -0.11851E-03  8540   0.462E-04 0.126E-03
CGA:  17    -0.128496099481E+04    0.58653E-05   -0.54734E-05  8540   0.148E-04 0.257E-04
   3 F= -.12849610E+04 E0= -.12849610E+04  d E =-.165834E+00  mag=   126.0000
       N       E                     dE             d eps       ncg     rms          ort
SDA:   1    -0.126685344064E+04    0.18108E+02    0.00000E+00  8540   0.476E+02 0.000E+00
CGA:   2    -0.127958031085E+04   -0.12727E+02   -0.12737E+02  8540   0.215E+02 0.703E-01
CGA:   3    -0.128399404505E+04   -0.44137E+01   -0.44247E+01  8540   0.442E+01 0.622E-01
CGA:   4    -0.128492102956E+04   -0.92698E+00   -0.92985E+00  8540   0.811E+00-0.199E-02
CGA:   5    -0.128509781598E+04   -0.17679E+00   -0.17717E+00  8540   0.194E+00-0.965E-04
CGA:   6    -0.128514682215E+04   -0.49006E-01   -0.48883E-01  8540   0.637E-01-0.926E-03
CGA:   7    -0.128516514994E+04   -0.18328E-01   -0.18091E-01  8540   0.226E-01-0.150E-02
CGA:   8    -0.128517259437E+04   -0.74444E-02   -0.73475E-02  8540   0.917E-02-0.934E-03
CGA:   9    -0.128517590398E+04   -0.33096E-02   -0.32420E-02  8540   0.378E-02-0.107E-02
CGA:  10    -0.128517743374E+04   -0.15298E-02   -0.16002E-02  8540   0.268E-02-0.145E-02
CGA:  11    -0.128517802484E+04   -0.59110E-03   -0.11776E-02  8540   0.426E-02-0.209E-02
CGA:  12    -0.128517921957E+04   -0.11947E-02   -0.11524E-02  8540   0.993E-03-0.241E-03
CGA:  13    -0.128517965085E+04   -0.43128E-03   -0.43618E-03  8540   0.413E-03-0.174E-03
CGA:  14    -0.128517967004E+04   -0.19196E-04   -0.33399E-03  8540   0.172E-02-0.582E-03
CGA:  15    -0.128517996446E+04   -0.29442E-03   -0.31867E-03  8540   0.166E-03 0.890E-04
CGA:  16    -0.128517952613E+04    0.43834E-03   -0.27563E-03  8540   0.315E-02-0.636E-03
CGA:  17    -0.128518000582E+04   -0.47969E-03   -0.60199E-03  8540   0.375E-03 0.389E-03
CGA:  18    -0.128518016233E+04   -0.15652E-03   -0.14161E-03  8540   0.829E-04-0.956E-04
CGA:  19    -0.128518017729E+04   -0.14959E-04   -0.17901E-04  8540   0.179E-04 0.151E-04
CGA:  20    -0.128518002253E+04    0.15476E-03   -0.42863E-04  8540   0.660E-03-0.128E-03
CGA:  21    -0.128518023711E+04   -0.21458E-03   -0.21289E-03  8540   0.310E-04-0.742E-05
CGA:  22    -0.128518023530E+04    0.18089E-05   -0.43593E-05  8540   0.101E-04 0.155E-04
   4 F= -.12851802E+04 E0= -.12851802E+04  d E =-.219240E+00  mag=   126.0000
       N       E                     dE             d eps       ncg     rms          ort
SDA:   1    -0.128407427452E+04    0.11060E+01    0.00000E+00  8540   0.317E+01 0.000E+00
CGA:   2    -0.128484179294E+04   -0.76752E+00   -0.76773E+00  8540   0.146E+01-0.816E-03
CGA:   3    -0.128515929970E+04   -0.31751E+00   -0.31772E+00  8540   0.300E+00 0.816E-03
CGA:   4    -0.128522103684E+04   -0.61737E-01   -0.61946E-01  8540   0.533E-01 0.653E-03
CGA:   5    -0.128523250699E+04   -0.11470E-01   -0.11484E-01  8540   0.123E-01 0.359E-04
CGA:   6    -0.128523567548E+04   -0.31685E-02   -0.31025E-02  8540   0.354E-02-0.331E-03
CGA:   7    -0.128523661979E+04   -0.94431E-03   -0.92872E-03  8540   0.113E-02-0.906E-04
CGA:   8    -0.128523693128E+04   -0.31149E-03   -0.31492E-03  8540   0.359E-03 0.229E-04
CGA:   9    -0.128523707561E+04   -0.14433E-03   -0.14211E-03  8540   0.177E-03-0.571E-04
CGA:  10    -0.128523714411E+04   -0.68495E-04   -0.74547E-04  8540   0.138E-03-0.805E-04
CGA:  11    -0.128523653734E+04    0.60677E-03   -0.14903E-03  8540   0.289E-02-0.490E-03
CGA:  12    -0.128523711084E+04   -0.57350E-03   -0.61316E-03  8540   0.347E-03 0.134E-03
CGA:  13    -0.128523727630E+04   -0.16546E-03   -0.16317E-03  8540   0.178E-03-0.544E-04
CGA:  14    -0.128523729248E+04   -0.16185E-04   -0.32379E-04  8540   0.710E-04 0.592E-04
CGA:  15    -0.128523731269E+04   -0.20210E-04   -0.24353E-04  8540   0.257E-04 0.189E-04
CGA:  16    -0.128523734640E+04   -0.33709E-04    0.65512E-04  8540   0.378E-04-0.181E-04
CGA:  17    -0.128523734021E+04    0.61940E-05   -0.28733E-05  8540   0.153E-04 0.233E-04
   5 F= -.12852373E+04 E0= -.12852373E+04  d E =-.571049E-01  mag=   126.0000
       N       E                     dE             d eps       ncg     rms          ort
SDA:   1    -0.128256541120E+04    0.26719E+01    0.00000E+00  8540   0.703E+01 0.000E+00
CGA:   2    -0.128445258330E+04   -0.18872E+01   -0.18874E+01  8540   0.326E+01-0.137E-02
CGA:   3    -0.128510996911E+04   -0.65739E+00   -0.65716E+00  8540   0.621E+00-0.360E-03
CGA:   4    -0.128523986177E+04   -0.12989E+00   -0.13004E+00  8540   0.110E+00 0.635E-03
CGA:   5    -0.128526351596E+04   -0.23654E-01   -0.23685E-01  8540   0.253E-01 0.140E-03
CGA:   6    -0.128526990169E+04   -0.63857E-02   -0.63362E-02  8540   0.731E-02-0.365E-03
CGA:   7    -0.128527188224E+04   -0.19806E-02   -0.19666E-02  8540   0.243E-02-0.130E-03
CGA:   8    -0.128527263987E+04   -0.75763E-03   -0.75264E-03  8540   0.904E-03-0.827E-04
CGA:   9    -0.128527298943E+04   -0.34955E-03   -0.35721E-03  8540   0.479E-03-0.214E-03
CGA:  10    -0.128527313830E+04   -0.14887E-03   -0.15708E-03  8540   0.257E-03-0.152E-03
CGA:  11    -0.128527285904E+04    0.27926E-03   -0.22883E-03  8540   0.216E-02-0.550E-03
CGA:  12    -0.128527331179E+04   -0.45275E-03   -0.47142E-03  8540   0.233E-03 0.904E-04
CGA:  13    -0.128527342191E+04   -0.11012E-03   -0.11640E-03  8540   0.156E-03-0.968E-04
CGA:  14    -0.128527342636E+04   -0.44496E-05   -0.14841E-04  8540   0.804E-04 0.409E-04
CGA:  15    -0.128527343340E+04   -0.70446E-05   -0.15306E-04  8540   0.271E-04 0.326E-04
CGA:  16    -0.128527344343E+04   -0.10033E-04   -0.23425E-04  8540   0.866E-04-0.598E-04
CGA:  17    -0.128527345469E+04   -0.11257E-04   -0.16921E-04  8540   0.119E-04 0.273E-04
CGA:  18    -0.128527346021E+04   -0.55226E-05   -0.52673E-05  8540   0.268E-05-0.457E-05
   6 F= -.12852735E+04 E0= -.12852735E+04  d E =-.361200E-01  mag=   126.0000
       N       E                     dE             d eps       ncg     rms          ort
SDA:   1    -0.128446470322E+04    0.80875E+00    0.00000E+00  8540   0.212E+01 0.000E+00
CGA:   2    -0.128503830764E+04   -0.57360E+00   -0.57379E+00  8540   0.100E+01 0.720E-03
CGA:   3    -0.128523812553E+04   -0.19982E+00   -0.19966E+00  8540   0.185E+00-0.103E-02
CGA:   4    -0.128527652498E+04   -0.38399E-01   -0.38366E-01  8540   0.337E-01-0.225E-03
CGA:   5    -0.128528370301E+04   -0.71780E-02   -0.71868E-02  8540   0.765E-02 0.542E-04
CGA:   6    -0.128528556488E+04   -0.18619E-02   -0.18625E-02  8540   0.211E-02 0.443E-05
CGA:   7    -0.128528614543E+04   -0.58054E-03   -0.57773E-03  8540   0.704E-03-0.418E-04
CGA:   8    -0.128528638258E+04   -0.23715E-03   -0.23778E-03  8540   0.311E-03-0.871E-04
CGA:   9    -0.128528649144E+04   -0.10886E-03   -0.12440E-03  8540   0.221E-03-0.130E-03
CGA:  10    -0.128528653709E+04   -0.45652E-04   -0.47066E-04  8540   0.100E-03-0.589E-04
CGA:  11    -0.128528656665E+04   -0.29563E-04   -0.39414E-04  8540   0.952E-04-0.513E-04
CGA:  12    -0.128528659999E+04   -0.33338E-04   -0.33215E-04  8540   0.333E-04-0.211E-04
CGA:  13    -0.128528660327E+04   -0.32834E-05   -0.25698E-04  8540   0.106E-03-0.352E-04
CGA:  14    -0.128528662173E+04   -0.18456E-04   -0.20546E-04  8540   0.692E-05 0.108E-04
CGA:  15    -0.128528663077E+04   -0.90430E-05    0.24975E-05  8540   0.252E-05-0.108E-05
   7 F= -.12852866E+04 E0= -.12852866E+04  d E =-.131706E-01  mag=   126.0000
       N       E                     dE             d eps       ncg     rms          ort
SDA:   1    -0.128386572738E+04    0.14209E+01    0.00000E+00  8540   0.374E+01 0.000E+00
CGA:   2    -0.128485155235E+04   -0.98582E+00   -0.98619E+00  8540   0.178E+01 0.144E-02
CGA:   3    -0.128520943715E+04   -0.35788E+00   -0.35776E+00  8540   0.336E+00-0.621E-03
CGA:   4    -0.128527866634E+04   -0.69229E-01   -0.69201E-01  8540   0.612E-01-0.194E-03
CGA:   5    -0.128529183591E+04   -0.13170E-01   -0.13183E-01  8540   0.137E-01 0.932E-04
CGA:   6    -0.128529515399E+04   -0.33181E-02   -0.33283E-02  8540   0.371E-02 0.107E-03
CGA:   7    -0.128529613114E+04   -0.97715E-03   -0.98278E-03  8540   0.112E-02 0.834E-04
CGA:   8    -0.128529649746E+04   -0.36632E-03   -0.36617E-03  8540   0.427E-03-0.224E-04
CGA:   9    -0.128529665149E+04   -0.15403E-03   -0.15670E-03  8540   0.185E-03-0.561E-04
CGA:  10    -0.128529670287E+04   -0.51381E-04   -0.51376E-04  8540   0.592E-04-0.660E-06
CGA:  11    -0.128529672151E+04   -0.18642E-04   -0.18723E-04  8540   0.217E-04 0.731E-05
CGA:  12    -0.128529673355E+04   -0.12039E-04   -0.13057E-04  8540   0.210E-04-0.497E-05
CGA:  13    -0.128529672504E+04    0.85143E-05   -0.19404E-04  8540   0.864E-04-0.328E-04
CGA:  14    -0.128529674487E+04   -0.19835E-04   -0.21491E-04  8540   0.150E-04 0.125E-04
CGA:  15    -0.128529671074E+04    0.34132E-04   -0.28414E-04  8540   0.170E-03-0.487E-04
CGA:  16    -0.128529673270E+04   -0.21958E-04   -0.34235E-04  8540   0.368E-04 0.518E-04
CGA:  17    -0.128529675362E+04   -0.20919E-04   -0.21179E-04  8540   0.162E-04-0.185E-04
CGA:  18    -0.128529675412E+04   -0.49878E-06   -0.25378E-05  8540   0.386E-05 0.752E-05
   8 F= -.12852968E+04 E0= -.12852968E+04  d E =-.101233E-01  mag=   126.0000
       N       E                     dE             d eps       ncg     rms          ort
SDA:   1    -0.128187178226E+04    0.34250E+01    0.00000E+00  8540   0.874E+01 0.000E+00
CGA:   2    -0.128427821492E+04   -0.24064E+01   -0.24071E+01  8540   0.417E+01 0.821E-04
CGA:   3    -0.128510017859E+04   -0.82196E+00   -0.82206E+00  8540   0.762E+00 0.154E-02
CGA:   4    -0.128525607222E+04   -0.15589E+00   -0.15600E+00  8540   0.138E+00 0.594E-03
CGA:   5    -0.128528600187E+04   -0.29930E-01   -0.29933E-01  8540   0.318E-01-0.237E-04
CGA:   6    -0.128529369479E+04   -0.76929E-02   -0.76858E-02  8540   0.866E-02-0.638E-04
CGA:   7    -0.128529595529E+04   -0.22605E-02   -0.22715E-02  8540   0.265E-02 0.110E-03
CGA:   8    -0.128529679372E+04   -0.83842E-03   -0.83968E-03  8540   0.953E-03 0.284E-04
CGA:   9    -0.128529715004E+04   -0.35633E-03   -0.35792E-03  8540   0.401E-03-0.920E-04
CGA:  10    -0.128529728805E+04   -0.13801E-03   -0.13998E-03  8540   0.169E-03-0.642E-04
CGA:  11    -0.128529734506E+04   -0.57005E-04   -0.58610E-04  8540   0.825E-04-0.287E-04
CGA:  12    -0.128529737708E+04   -0.32017E-04   -0.34016E-04  8540   0.537E-04-0.148E-04
CGA:  13    -0.128529709359E+04    0.28349E-03   -0.15284E-03  8540   0.124E-02-0.195E-03
CGA:  14    -0.128529734681E+04   -0.25322E-03   -0.28621E-03  8540   0.152E-03 0.756E-04
CGA:  15    -0.128529743560E+04   -0.88791E-04   -0.75099E-04  8540   0.146E-03-0.753E-04
CGA:  16    -0.128529743108E+04    0.45227E-05   -0.96811E-05  8540   0.841E-04 0.281E-04
CGA:  17    -0.128529742359E+04    0.74884E-05   -0.10630E-04  8540   0.335E-04 0.358E-04
   9 F= -.12852974E+04 E0= -.12852974E+04  d E =-.669477E-03  mag=   126.0000
       N       E                     dE             d eps       ncg     rms          ort
SDA:   1    -0.127851459647E+04    0.67828E+01    0.00000E+00  8540   0.169E+02 0.000E+00
CGA:   2    -0.128334637075E+04   -0.48318E+01   -0.48348E+01  8540   0.811E+01-0.171E-02
CGA:   3    -0.128491195842E+04   -0.15656E+01   -0.15665E+01  8540   0.141E+01 0.139E-01
CGA:   4    -0.128520218067E+04   -0.29022E+00   -0.29067E+00  8540   0.255E+00 0.185E-02
CGA:   5    -0.128525795226E+04   -0.55772E-01   -0.55727E-01  8540   0.597E-01-0.223E-03
CGA:   6    -0.128527267222E+04   -0.14720E-01   -0.14648E-01  8540   0.161E-01-0.301E-03
CGA:   7    -0.128527696569E+04   -0.42935E-02   -0.43149E-02  8540   0.517E-02 0.937E-04
CGA:   8    -0.128527860005E+04   -0.16344E-02   -0.16418E-02  8540   0.186E-02 0.447E-04
CGA:   9    -0.128527927884E+04   -0.67878E-03   -0.66760E-03  8540   0.694E-03-0.983E-04
CGA:  10    -0.128527953974E+04   -0.26090E-03   -0.25273E-03  8540   0.277E-03-0.104E-03
CGA:  11    -0.128527963440E+04   -0.94662E-04   -0.92559E-04  8540   0.117E-03-0.315E-04
CGA:  12    -0.128527967968E+04   -0.45284E-04   -0.45192E-04  8540   0.591E-04-0.450E-05
CGA:  13    -0.128527970491E+04   -0.25226E-04   -0.56287E-04  8540   0.161E-03-0.585E-04
CGA:  14    -0.128527973259E+04   -0.27678E-04   -0.35256E-04  8540   0.195E-04 0.287E-04
CGA:  15    -0.128527957614E+04    0.15645E-03   -0.48617E-04  8540   0.736E-03-0.124E-03
CGA:  16    -0.128527968784E+04   -0.11170E-03   -0.15377E-03  8540   0.130E-03 0.123E-03
CGA:  17    -0.128527975150E+04   -0.63656E-04   -0.55527E-04  8540   0.326E-04-0.484E-04
CGA:  18    -0.128527974927E+04    0.22279E-05   -0.25832E-05  8540   0.162E-04 0.120E-04
  10 F= -.12852797E+04 E0= -.12852797E+04  d E =0.176743E-01  mag=   126.0000
       N       E                     dE             d eps       ncg     rms          ort
SDA:   1    -0.128358444965E+04    0.16953E+01    0.00000E+00  8540   0.482E+01 0.000E+00
CGA:   2    -0.128472438450E+04   -0.11399E+01   -0.11411E+01  8540   0.217E+01-0.124E-02
CGA:   3    -0.128519280164E+04   -0.46842E+00   -0.46867E+00  8540   0.457E+00 0.149E-02
CGA:   4    -0.128528836471E+04   -0.95563E-01   -0.95713E-01  8540   0.842E-01 0.544E-03
CGA:   5    -0.128530650545E+04   -0.18141E-01   -0.18104E-01  8540   0.183E-01-0.204E-03
CGA:   6    -0.128531122618E+04   -0.47207E-02   -0.46633E-02  8540   0.514E-02-0.321E-03
CGA:   7    -0.128531259445E+04   -0.13683E-02   -0.13677E-02  8540   0.149E-02-0.454E-05
CGA:   8    -0.128531300118E+04   -0.40673E-03   -0.41967E-03  8540   0.449E-03 0.943E-04
CGA:   9    -0.128531314448E+04   -0.14330E-03   -0.14769E-03  8540   0.144E-03 0.424E-04
CGA:  10    -0.128531320399E+04   -0.59508E-04   -0.59417E-04  8540   0.617E-04-0.312E-05
CGA:  11    -0.128531323315E+04   -0.29162E-04   -0.34100E-04  8540   0.583E-04-0.312E-04
CGA:  12    -0.128531324401E+04   -0.10861E-04   -0.12861E-04  8540   0.983E-05 0.103E-04
CGA:  13    -0.128531325034E+04   -0.63307E-05   -0.67720E-05  8540   0.957E-05-0.247E-05
  11 F= -.12853133E+04 E0= -.12853133E+04  d E =-.335011E-01  mag=   126.0000
       N       E                     dE             d eps       ncg     rms          ort
SDA:   1    -0.127924336189E+04    0.60699E+01    0.00000E+00  8540   0.173E+02 0.000E+00
CGA:   2    -0.128315663662E+04   -0.39133E+01   -0.39208E+01  8540   0.744E+01 0.543E-02
CGA:   3    -0.128483377811E+04   -0.16771E+01   -0.16772E+01  8540   0.165E+01 0.204E-03
CGA:   4    -0.128518115174E+04   -0.34737E+00   -0.34706E+00  8540   0.305E+00-0.178E-02
CGA:   5    -0.128524705708E+04   -0.65905E-01   -0.65999E-01  8540   0.678E-01 0.400E-03
CGA:   6    -0.128526380203E+04   -0.16745E-01   -0.16761E-01  8540   0.185E-01 0.107E-03
CGA:   7    -0.128526886838E+04   -0.50663E-02   -0.50784E-02  8540   0.549E-02 0.119E-03
CGA:   8    -0.128527056693E+04   -0.16986E-02   -0.16948E-02  8540   0.195E-02-0.653E-04
CGA:   9    -0.128527124261E+04   -0.67567E-03   -0.67441E-03  8540   0.748E-03-0.991E-04
CGA:  10    -0.128527148304E+04   -0.24043E-03   -0.24097E-03  8540   0.259E-03 0.230E-04
CGA:  11    -0.128527159750E+04   -0.11447E-03   -0.11792E-03  8540   0.143E-03-0.431E-04
CGA:  12    -0.128527165494E+04   -0.57436E-04   -0.62970E-04  8540   0.107E-03-0.345E-04
CGA:  13    -0.128527171760E+04   -0.62662E-04    0.51853E-03  8540   0.483E-04 0.371E-05
CGA:  14    -0.128527173188E+04   -0.14277E-04   -0.15086E-04  8540   0.193E-04 0.112E-04
CGA:  15    -0.128527174348E+04   -0.11597E-04   -0.15284E-04  8540   0.248E-04-0.137E-04
CGA:  16    -0.128527168949E+04    0.53988E-04   -0.34308E-04  8540   0.378E-03-0.883E-04
CGA:  17    -0.128527174721E+04   -0.57724E-04   -0.74115E-04  8540   0.292E-04 0.690E-04
CGA:  18    -0.128527176174E+04   -0.14523E-04   -0.14466E-04  8540   0.156E-04-0.193E-04
CGA:  19    -0.128527176035E+04    0.13893E-05   -0.15914E-05  8540   0.555E-05 0.934E-05
  12 F= -.12852718E+04 E0= -.12852718E+04  d E =0.414900E-01  mag=   126.0000
       N       E                     dE             d eps       ncg     rms          ort
SDA:   1    -0.128316053159E+04    0.21112E+01    0.00000E+00  8540   0.677E+01 0.000E+00
CGA:   2    -0.128453037520E+04   -0.13698E+01   -0.13723E+01  8540   0.263E+01 0.214E-02
CGA:   3    -0.128518103489E+04   -0.65066E+00   -0.65098E+00  8540   0.676E+00 0.455E-03
CGA:   4    -0.128532294488E+04   -0.14191E+00   -0.14188E+00  8540   0.125E+00-0.431E-03
CGA:   5    -0.128535037616E+04   -0.27431E-01   -0.27402E-01  8540   0.280E-01-0.250E-03
CGA:   6    -0.128535721566E+04   -0.68395E-02   -0.68080E-02  8540   0.730E-02-0.281E-03
CGA:   7    -0.128535920287E+04   -0.19872E-02   -0.19815E-02  8540   0.214E-02-0.732E-04
CGA:   8    -0.128535980613E+04   -0.60326E-03   -0.60361E-03  8540   0.657E-03 0.460E-05
CGA:   9    -0.128536002860E+04   -0.22247E-03   -0.22238E-03  8540   0.235E-03-0.115E-04
CGA:  10    -0.128536011272E+04   -0.84125E-04   -0.84310E-04  8540   0.874E-04-0.946E-05
CGA:  11    -0.128536014879E+04   -0.36061E-04   -0.41614E-04  8540   0.558E-04-0.373E-04
CGA:  12    -0.128536015952E+04   -0.10735E-04   -0.19049E-04  8540   0.565E-04-0.345E-04
CGA:  13    -0.128536017855E+04   -0.19033E-04   -0.18644E-04  8540   0.202E-04-0.107E-04
CGA:  14    -0.128536018592E+04   -0.73671E-05   -0.81891E-05  8540   0.107E-04-0.606E-05
  13 F= -.12853602E+04 E0= -.12853602E+04  d E =-.884256E-01  mag=   126.0000
       N       E                     dE             d eps       ncg     rms          ort
SDA:   1    -0.128533528831E+04    0.24890E-01    0.00000E+00  8540   0.839E-01 0.000E+00
CGA:   2    -0.128535420213E+04   -0.18914E-01   -0.18892E-01  8540   0.365E-01-0.191E-03
CGA:   3    -0.128536255627E+04   -0.83541E-02   -0.83629E-02  8540   0.821E-02 0.466E-04
CGA:   4    -0.128536420832E+04   -0.16521E-02   -0.16750E-02  8540   0.144E-02 0.147E-03
CGA:   5    -0.128536454391E+04   -0.33559E-03   -0.33119E-03  8540   0.350E-03-0.363E-04
CGA:   6    -0.128536464555E+04   -0.10164E-03   -0.98084E-04  8540   0.133E-03-0.637E-04
CGA:   7    -0.128536467106E+04   -0.25514E-04   -0.25625E-04  8540   0.334E-04 0.103E-05
CGA:   8    -0.128536467514E+04   -0.40726E-05   -0.59688E-05  8540   0.982E-05 0.120E-04
  14 F= -.12853647E+04 E0= -.12853647E+04  d E =-.448921E-02  mag=   126.0000
       N       E                     dE             d eps       ncg     rms          ort
SDA:   1    -0.128509177253E+04    0.27290E+00    0.00000E+00  8540   0.786E+00 0.000E+00
CGA:   2    -0.128528021651E+04   -0.18844E+00   -0.18841E+00  8540   0.353E+00-0.690E-03
CGA:   3    -0.128535666976E+04   -0.76453E-01   -0.76514E-01  8540   0.749E-01 0.520E-03
CGA:   4    -0.128537207540E+04   -0.15406E-01   -0.15476E-01  8540   0.132E-01 0.670E-03
CGA:   5    -0.128537500574E+04   -0.29303E-02   -0.29208E-02  8540   0.304E-02-0.118E-03
CGA:   6    -0.128537581053E+04   -0.80479E-03   -0.79842E-03  8540   0.918E-03-0.183E-03
CGA:   7    -0.128537602399E+04   -0.21347E-03   -0.21501E-03  8540   0.240E-03 0.316E-04
CGA:   8    -0.128537607413E+04   -0.50140E-04   -0.55087E-04  8540   0.672E-04 0.675E-04
CGA:   9    -0.128537608597E+04   -0.11836E-04   -0.15995E-04  8540   0.272E-04 0.392E-04
CGA:  10    -0.128537609188E+04   -0.59073E-05   -0.65543E-05  8540   0.128E-04 0.141E-04
  15 F= -.12853761E+04 E0= -.12853761E+04  d E =-.114167E-01  mag=   126.0000
       N       E                     dE             d eps       ncg     rms          ort
SDA:   1    -0.128528325220E+04    0.92834E-01    0.00000E+00  8540   0.269E+00 0.000E+00
CGA:   2    -0.128535209510E+04   -0.68843E-01   -0.68840E-01  8540   0.123E+00-0.187E-03
CGA:   3    -0.128537748590E+04   -0.25391E-01   -0.25402E-01  8540   0.249E-01 0.138E-03
CGA:   4    -0.128538260549E+04   -0.51196E-02   -0.51351E-02  8540   0.427E-02 0.220E-03
CGA:   5    -0.128538354162E+04   -0.93612E-03   -0.93835E-03  8540   0.964E-03 0.402E-04
CGA:   6    -0.128538378381E+04   -0.24220E-03   -0.24248E-03  8540   0.259E-03 0.140E-04
CGA:   7    -0.128538384609E+04   -0.62279E-04   -0.63160E-04  8540   0.689E-04 0.320E-04
CGA:   8    -0.128538386033E+04   -0.14234E-04   -0.16032E-04  8540   0.237E-04 0.301E-04
CGA:   9    -0.128538386326E+04   -0.29323E-05   -0.51357E-05  8540   0.116E-04 0.195E-04
  16 F= -.12853839E+04 E0= -.12853839E+04  d E =-.777138E-02  mag=   126.0000
       N       E                     dE             d eps       ncg     rms          ort
SDA:   1    -0.128476949853E+04    0.61436E+00    0.00000E+00  8540   0.163E+01 0.000E+00
CGA:   2    -0.128521496350E+04   -0.44546E+00   -0.44548E+00  8540   0.749E+00-0.111E-02
CGA:   3    -0.128536272093E+04   -0.14776E+00   -0.14778E+00  8540   0.144E+00 0.404E-03
CGA:   4    -0.128539262817E+04   -0.29907E-01   -0.29931E-01  8540   0.249E-01 0.526E-03
CGA:   5    -0.128539802040E+04   -0.53922E-02   -0.53991E-02  8540   0.560E-02 0.205E-03
CGA:   6    -0.128539939832E+04   -0.13779E-02   -0.13784E-02  8540   0.143E-02 0.197E-03
CGA:   7    -0.128539978298E+04   -0.38465E-03   -0.38329E-03  8540   0.416E-03 0.112E-03
CGA:   8    -0.128539991130E+04   -0.12833E-03   -0.12565E-03  8540   0.136E-03 0.803E-04
CGA:   9    -0.128539994908E+04   -0.37774E-04   -0.38476E-04  8540   0.471E-04 0.580E-04
CGA:  10    -0.128539995921E+04   -0.10135E-04   -0.12399E-04  8540   0.218E-04 0.356E-04
CGA:  11    -0.128539996198E+04   -0.27639E-05   -0.38354E-05  8540   0.127E-04 0.154E-04
  17 F= -.12854000E+04 E0= -.12854000E+04  d E =-.160987E-01  mag=   126.0000
       N       E                     dE             d eps       ncg     rms          ort
SDA:   1    -0.128486559889E+04    0.53436E+00    0.00000E+00  8540   0.145E+01 0.000E+00
CGA:   2    -0.128524173640E+04   -0.37614E+00   -0.37614E+00  8540   0.669E+00-0.485E-03
CGA:   3    -0.128538027278E+04   -0.13854E+00   -0.13854E+00  8540   0.131E+00-0.151E-03
CGA:   4    -0.128540744849E+04   -0.27176E-01   -0.27193E-01  8540   0.225E-01 0.579E-03
CGA:   5    -0.128541241232E+04   -0.49638E-02   -0.49649E-02  8540   0.509E-02 0.625E-04
CGA:   6    -0.128541369606E+04   -0.12837E-02   -0.12835E-02  8540   0.139E-02 0.103E-04
CGA:   7    -0.128541405260E+04   -0.35655E-03   -0.35489E-03  8540   0.386E-03 0.792E-04
CGA:   8    -0.128541417343E+04   -0.12082E-03   -0.11814E-03  8540   0.128E-03 0.502E-04
CGA:   9    -0.128541421326E+04   -0.39831E-04   -0.38707E-04  8540   0.420E-04 0.376E-04
CGA:  10    -0.128541422505E+04   -0.11793E-04   -0.12174E-04  8540   0.174E-04 0.238E-04
CGA:  11    -0.128541422971E+04   -0.46624E-05   -0.44931E-05  8540   0.817E-05 0.894E-05
  18 F= -.12854142E+04 E0= -.12854142E+04  d E =-.142677E-01  mag=   126.0000
       N       E                     dE             d eps       ncg     rms          ort
SDA:   1    -0.128534286663E+04    0.71358E-01    0.00000E+00  8540   0.217E+00 0.000E+00
CGA:   2    -0.128538965925E+04   -0.46793E-01   -0.46791E-01  8540   0.926E-01-0.196E-03
CGA:   3    -0.128541167039E+04   -0.22011E-01   -0.22010E-01  8540   0.220E-01 0.301E-03
CGA:   4    -0.128541613301E+04   -0.44626E-02   -0.44715E-02  8540   0.378E-02 0.266E-03
CGA:   5    -0.128541698708E+04   -0.85407E-03   -0.85360E-03  8540   0.890E-03-0.441E-04
CGA:   6    -0.128541723366E+04   -0.24658E-03   -0.25631E-03  8540   0.332E-03-0.169E-03
CGA:   7    -0.128541730511E+04   -0.71449E-04   -0.72751E-04  8540   0.102E-03-0.383E-04
CGA:   8    -0.128541731990E+04   -0.14791E-04   -0.16384E-04  8540   0.272E-04 0.282E-04
CGA:   9    -0.128541732389E+04   -0.39848E-05   -0.52253E-05  8540   0.103E-04 0.146E-04
  19 F= -.12854173E+04 E0= -.12854173E+04  d E =-.309417E-02  mag=   126.0000
       N       E                     dE             d eps       ncg     rms          ort
SDA:   1    -0.128540203720E+04    0.15283E-01    0.00000E+00  8540   0.444E-01 0.000E+00
CGA:   2    -0.128541328295E+04   -0.11246E-01   -0.11227E-01  8540   0.213E-01-0.129E-03
CGA:   3    -0.128541764399E+04   -0.43610E-02   -0.43603E-02  8540   0.422E-02-0.663E-05
CGA:   4    -0.128541848231E+04   -0.83832E-03   -0.84109E-03  8540   0.840E-03 0.130E-04
CGA:   5    -0.128541866516E+04   -0.18285E-03   -0.17719E-03  8540   0.201E-03-0.313E-04
CGA:   6    -0.128541872189E+04   -0.56723E-04   -0.52961E-04  8540   0.706E-04-0.343E-04
CGA:   7    -0.128541874195E+04   -0.20065E-04   -0.19093E-04  8540   0.306E-04-0.186E-04
CGA:   8    -0.128541874879E+04   -0.68354E-05   -0.65945E-05  8540   0.894E-05-0.292E-05
  20 F= -.12854187E+04 E0= -.12854187E+04  d E =-.142490E-02  mag=   126.0000
       N       E                     dE             d eps       ncg     rms          ort
SDA:   1    -0.128532357553E+04    0.95166E-01    0.00000E+00  8540   0.262E+00 0.000E+00
CGA:   2    -0.128539557533E+04   -0.72000E-01   -0.71950E-01  8540   0.124E+00-0.523E-03
CGA:   3    -0.128541997127E+04   -0.24396E-01   -0.24431E-01  8540   0.229E-01 0.183E-03
CGA:   4    -0.128542475292E+04   -0.47816E-02   -0.48068E-02  8540   0.399E-02 0.158E-03
CGA:   5    -0.128542566542E+04   -0.91250E-03   -0.90125E-03  8540   0.920E-03-0.849E-04
CGA:   6    -0.128542590797E+04   -0.24254E-03   -0.23771E-03  8540   0.274E-03-0.553E-04
CGA:   7    -0.128542597555E+04   -0.67586E-04   -0.67594E-04  8540   0.778E-04 0.379E-07
CGA:   8    -0.128542599250E+04   -0.16944E-04   -0.18755E-04  8540   0.216E-04 0.177E-04
CGA:   9    -0.128542599826E+04   -0.57651E-05   -0.65038E-05  8540   0.771E-05 0.791E-05
  21 F= -.12854260E+04 E0= -.12854260E+04  d E =-.724947E-02  mag=   126.0000
       N       E                     dE             d eps       ncg     rms          ort
SDA:   1    -0.128362562248E+04    0.18004E+01    0.00000E+00  8540   0.462E+01 0.000E+00
CGA:   2    -0.128494359387E+04   -0.13180E+01   -0.13178E+01  8540   0.206E+01-0.308E-02
CGA:   3    -0.128534294796E+04   -0.39935E+00   -0.39959E+00  8540   0.389E+00 0.868E-03
CGA:   4    -0.128542509492E+04   -0.82147E-01   -0.82292E-01  8540   0.690E-01 0.110E-02
CGA:   5    -0.128544023094E+04   -0.15136E-01   -0.15103E-01  8540   0.153E-01-0.337E-03
CGA:   6    -0.128544419871E+04   -0.39678E-02   -0.39529E-02  8540   0.444E-02-0.241E-03
CGA:   7    -0.128544536706E+04   -0.11684E-02   -0.11723E-02  8540   0.132E-02 0.778E-04
CGA:   8    -0.128544577705E+04   -0.40999E-03   -0.41086E-03  8540   0.436E-03 0.970E-04
CGA:   9    -0.128544592675E+04   -0.14970E-03   -0.14956E-03  8540   0.139E-03 0.379E-04
CGA:  10    -0.128544599029E+04   -0.63539E-04   -0.68547E-04  8540   0.844E-04-0.363E-04
CGA:  11    -0.128544601200E+04   -0.21706E-04   -0.21889E-04  8540   0.345E-04-0.651E-05
CGA:  12    -0.128544602051E+04   -0.85111E-05   -0.88793E-05  8540   0.151E-04 0.815E-05
CGA:  13    -0.128544602894E+04   -0.84313E-05   -0.11531E-04  8540   0.245E-04-0.106E-04
  22 F= -.12854460E+04 E0= -.12854460E+04  d E =-.200307E-01  mag=   126.0000
       N       E                     dE             d eps       ncg     rms          ort
SDA:   1    -0.128357903643E+04    0.18670E+01    0.00000E+00  8540   0.503E+01 0.000E+00
CGA:   2    -0.128486693650E+04   -0.12879E+01   -0.12879E+01  8540   0.232E+01-0.870E-03
CGA:   3    -0.128534760339E+04   -0.48067E+00   -0.48088E+00  8540   0.443E+00 0.116E-02
CGA:   4    -0.128544078318E+04   -0.93180E-01   -0.93303E-01  8540   0.799E-01 0.971E-03
CGA:   5    -0.128545851675E+04   -0.17734E-01   -0.17705E-01  8540   0.180E-01-0.319E-03
CGA:   6    -0.128546317351E+04   -0.46568E-02   -0.46306E-02  8540   0.512E-02-0.448E-03
CGA:   7    -0.128546453482E+04   -0.13613E-02   -0.13623E-02  8540   0.147E-02 0.238E-04
CGA:   8    -0.128546496018E+04   -0.42537E-03   -0.42823E-03  8540   0.446E-03 0.135E-03
CGA:   9    -0.128546513347E+04   -0.17329E-03   -0.17376E-03  8540   0.172E-03-0.104E-04
CGA:  10    -0.128546520283E+04   -0.69355E-04   -0.91589E-04  8540   0.162E-03-0.962E-04
CGA:  11    -0.128546524194E+04   -0.39112E-04   -0.38842E-04  8540   0.253E-04-0.321E-05
CGA:  12    -0.128546525217E+04   -0.10233E-04   -0.17593E-04  8540   0.410E-04-0.189E-04
CGA:  13    -0.128546524875E+04    0.34202E-05   -0.30452E-04  8540   0.218E-03-0.839E-04
CGA:  14    -0.128546527959E+04   -0.30838E-04   -0.37076E-04  8540   0.953E-05 0.328E-04
CGA:  15    -0.128546528165E+04   -0.20591E-05   -0.23148E-05  8540   0.206E-05 0.183E-05
  23 F= -.12854653E+04 E0= -.12854653E+04  d E =-.192527E-01  mag=   126.0000
       N       E                     dE             d eps       ncg     rms          ort
SDA:   1    -0.128426141836E+04    0.12039E+01    0.00000E+00  8540   0.336E+01 0.000E+00
CGA:   2    -0.128505336033E+04   -0.79194E+00   -0.79211E+00  8540   0.156E+01-0.252E-03
CGA:   3    -0.128539198544E+04   -0.33863E+00   -0.33862E+00  8540   0.319E+00-0.342E-03
CGA:   4    -0.128545794786E+04   -0.65962E-01   -0.66012E-01  8540   0.586E-01 0.328E-03
CGA:   5    -0.128547068655E+04   -0.12739E-01   -0.12744E-01  8540   0.130E-01 0.314E-04
CGA:   6    -0.128547391444E+04   -0.32279E-02   -0.32281E-02  8540   0.343E-02 0.359E-06
CGA:   7    -0.128547481886E+04   -0.90442E-03   -0.91320E-03  8540   0.937E-03 0.172E-03
CGA:   8    -0.128547508392E+04   -0.26506E-03   -0.27008E-03  8540   0.274E-03 0.127E-03
CGA:   9    -0.128547517063E+04   -0.86710E-04   -0.88534E-04  8540   0.888E-04 0.669E-04
CGA:  10    -0.128547519631E+04   -0.25686E-04   -0.27956E-04  8540   0.330E-04 0.392E-04
CGA:  11    -0.128547520141E+04   -0.50988E-05   -0.85294E-05  8540   0.159E-04 0.266E-04
  24 F= -.12854752E+04 E0= -.12854752E+04  d E =-.991976E-02  mag=   126.0000
       N       E                     dE             d eps       ncg     rms          ort
SDA:   1    -0.128441775494E+04    0.10574E+01    0.00000E+00  8540   0.269E+01 0.000E+00
CGA:   2    -0.128516883527E+04   -0.75108E+00   -0.75111E+00  8540   0.124E+01 0.127E-02
CGA:   3    -0.128541270085E+04   -0.24387E+00   -0.24380E+00  8540   0.226E+00-0.105E-02
CGA:   4    -0.128546070577E+04   -0.48005E-01   -0.47969E-01  8540   0.409E-01-0.480E-03
CGA:   5    -0.128546942059E+04   -0.87148E-02   -0.87413E-02  8540   0.891E-02 0.370E-03
CGA:   6    -0.128547162482E+04   -0.22042E-02   -0.22146E-02  8540   0.233E-02 0.303E-03
CGA:   7    -0.128547232110E+04   -0.69628E-03   -0.69652E-03  8540   0.783E-03-0.234E-04
CGA:   8    -0.128547260122E+04   -0.28013E-03   -0.29204E-03  8540   0.372E-03-0.122E-03
CGA:   9    -0.128547269952E+04   -0.98291E-04   -0.98753E-04  8540   0.110E-03-0.152E-04
CGA:  10    -0.128547272216E+04   -0.22649E-04   -0.24350E-04  8540   0.330E-04 0.307E-04
CGA:  11    -0.128547273114E+04   -0.89800E-05   -0.96687E-05  8540   0.133E-04 0.128E-04
CGA:  12    -0.128547273952E+04   -0.83776E-05   -0.10377E-04  8540   0.174E-04-0.715E-05
  25 F= -.12854727E+04 E0= -.12854727E+04  d E =0.246189E-02  mag=   126.0000
       N       E                     dE             d eps       ncg     rms          ort
SDA:   1    -0.128459317145E+04    0.87956E+00    0.00000E+00  8540   0.249E+01 0.000E+00
CGA:   2    -0.128514342745E+04   -0.55026E+00   -0.55060E+00  8540   0.109E+01 0.281E-02
CGA:   3    -0.128539690266E+04   -0.25348E+00   -0.25352E+00  8540   0.242E+00 0.357E-03
CGA:   4    -0.128544694278E+04   -0.50040E-01   -0.50006E-01  8540   0.434E-01-0.425E-03
CGA:   5    -0.128545643756E+04   -0.94948E-02   -0.95012E-02  8540   0.982E-02 0.883E-04
CGA:   6    -0.128545882778E+04   -0.23902E-02   -0.23938E-02  8540   0.250E-02 0.937E-04
CGA:   7    -0.128545952671E+04   -0.69893E-03   -0.69892E-03  8540   0.739E-03-0.550E-05
CGA:   8    -0.128545976588E+04   -0.23918E-03   -0.24248E-03  8540   0.284E-03-0.652E-04
CGA:   9    -0.128545985482E+04   -0.88936E-04   -0.91128E-04  8540   0.109E-03-0.310E-04
CGA:  10    -0.128545988311E+04   -0.28287E-04   -0.28215E-04  8540   0.305E-04 0.975E-05
CGA:  11    -0.128545989425E+04   -0.11148E-04   -0.11079E-04  8540   0.108E-04 0.140E-05
CGA:  12    -0.128545989748E+04   -0.32247E-05   -0.91017E-05  8540   0.279E-04-0.114E-04
  26 F= -.12854599E+04 E0= -.12854599E+04  d E =0.128420E-01  mag=   126.0000
       N       E                     dE             d eps       ncg     rms          ort
SDA:   1    -0.128527767865E+04    0.18222E+00    0.00000E+00  8540   0.568E+00 0.000E+00
CGA:   2    -0.128539884497E+04   -0.12117E+00   -0.12119E+00  8540   0.240E+00-0.105E-03
CGA:   3    -0.128545596422E+04   -0.57119E-01   -0.57121E-01  8540   0.562E-01-0.116E-03
CGA:   4    -0.128546755879E+04   -0.11595E-01   -0.11585E-01  8540   0.103E-01-0.115E-03
CGA:   5    -0.128546983351E+04   -0.22747E-02   -0.22682E-02  8540   0.236E-02-0.914E-04
CGA:   6    -0.128547041884E+04   -0.58533E-03   -0.58236E-03  8540   0.635E-03-0.699E-04
CGA:   7    -0.128547059667E+04   -0.17783E-03   -0.17781E-03  8540   0.198E-03-0.428E-04
CGA:   8    -0.128547064953E+04   -0.52859E-04   -0.52852E-04  8540   0.586E-04-0.245E-05
CGA:   9    -0.128547067179E+04   -0.22260E-04   -0.30245E-04  8540   0.602E-04-0.342E-04
CGA:  10    -0.128547068841E+04   -0.16614E-04   -0.16138E-04  8540   0.148E-04-0.145E-04
CGA:  11    -0.128547069684E+04   -0.84325E-05    0.65988E-05  8540   0.291E-05-0.803E-06
  27 F= -.12854707E+04 E0= -.12854707E+04  d E =-.107994E-01  mag=   126.0000
       N       E                     dE             d eps       ncg     rms          ort
SDA:   1    -0.128535988039E+04    0.11081E+00    0.00000E+00  8540   0.263E+00 0.000E+00
CGA:   2    -0.128543747974E+04   -0.77599E-01   -0.77600E-01  8540   0.116E+00 0.579E-04
CGA:   3    -0.128545954529E+04   -0.22066E-01   -0.22048E-01  8540   0.214E-01-0.180E-03
CGA:   4    -0.128546412030E+04   -0.45750E-02   -0.45677E-02  8540   0.374E-02-0.939E-04
CGA:   5    -0.128546491416E+04   -0.79386E-03   -0.79843E-03  8540   0.801E-03 0.601E-04
CGA:   6    -0.128546511145E+04   -0.19729E-03   -0.19894E-03  8540   0.206E-03 0.398E-04
CGA:   7    -0.128546517549E+04   -0.64046E-04   -0.64138E-04  8540   0.749E-04-0.716E-05
CGA:   8    -0.128546520322E+04   -0.27725E-04   -0.31092E-04  8540   0.478E-04-0.231E-04
CGA:   9    -0.128546521380E+04   -0.10581E-04   -0.10897E-04  8540   0.169E-04-0.825E-05
CGA:  10    -0.128546521741E+04   -0.36148E-05   -0.36652E-05  8540   0.569E-05 0.164E-05
  28 F= -.12854652E+04 E0= -.12854652E+04  d E =0.547943E-02  mag=   126.0000
       N       E                     dE             d eps       ncg     rms          ort
SDA:   1    -0.128177904703E+04    0.36862E+01    0.00000E+00  8540   0.912E+01 0.000E+00
CGA:   2    -0.128445359871E+04   -0.26746E+01   -0.26745E+01  8540   0.394E+01-0.104E-02
CGA:   3    -0.128520539779E+04   -0.75180E+00   -0.75185E+00  8540   0.755E+00-0.405E-03
CGA:   4    -0.128536693380E+04   -0.16154E+00   -0.16158E+00  8540   0.129E+00 0.594E-03
CGA:   5    -0.128539493864E+04   -0.28005E-01   -0.28030E-01  8540   0.291E-01 0.371E-03
CGA:   6    -0.128540240645E+04   -0.74678E-02   -0.74739E-02  8540   0.795E-02 0.256E-03
CGA:   7    -0.128540465023E+04   -0.22438E-02   -0.22438E-02  8540   0.261E-02-0.174E-04
CGA:   8    -0.128540554236E+04   -0.89213E-03   -0.89955E-03  8540   0.103E-02-0.112E-03
CGA:   9    -0.128540586548E+04   -0.32312E-03   -0.32432E-03  8540   0.317E-03-0.252E-04
CGA:  10    -0.128540597491E+04   -0.10943E-03   -0.11105E-03  8540   0.109E-03-0.218E-04
CGA:  11    -0.128540601808E+04   -0.43162E-04   -0.49086E-04  8540   0.702E-04-0.303E-04
CGA:  12    -0.128540597114E+04    0.46937E-04   -0.65665E-04  8540   0.395E-03-0.113E-03
CGA:  13    -0.128540606128E+04   -0.90142E-04   -0.92738E-04  8540   0.478E-04 0.230E-04
CGA:  14    -0.128540607927E+04   -0.17990E-04   -0.17937E-04  8540   0.131E-04 0.445E-05
CGA:  15    -0.128540608064E+04   -0.13648E-05   -0.26328E-05  8540   0.513E-05 0.795E-05
  29 F= -.12854061E+04 E0= -.12854061E+04  d E =0.591368E-01  mag=   126.0000
       N       E                     dE             d eps       ncg     rms          ort
SDA:   1    -0.128412457690E+04    0.12815E+01    0.00000E+00  8540   0.332E+01 0.000E+00
CGA:   2    -0.128504151399E+04   -0.91694E+00   -0.91682E+00  8540   0.155E+01-0.256E-02
CGA:   3    -0.128535082565E+04   -0.30931E+00   -0.30939E+00  8540   0.287E+00 0.171E-03
CGA:   4    -0.128541013884E+04   -0.59313E-01   -0.59438E-01  8540   0.498E-01 0.107E-02
CGA:   5    -0.128542119954E+04   -0.11061E-01   -0.11045E-01  8540   0.113E-01-0.186E-03
CGA:   6    -0.128542407036E+04   -0.28708E-02   -0.28579E-02  8540   0.316E-02-0.237E-03
CGA:   7    -0.128542488339E+04   -0.81302E-03   -0.81591E-03  8540   0.905E-03 0.666E-04
CGA:   8    -0.128542515212E+04   -0.26874E-03   -0.26992E-03  8540   0.286E-03 0.923E-04
CGA:   9    -0.128542525092E+04   -0.98792E-04   -0.98484E-04  8540   0.949E-04 0.381E-04
CGA:  10    -0.128542529336E+04   -0.42440E-04   -0.43330E-04  8540   0.449E-04-0.909E-05
CGA:  11    -0.128542530941E+04   -0.16051E-04   -0.16934E-04  8540   0.215E-04-0.828E-05
CGA:  12    -0.128542531365E+04   -0.42450E-05   -0.45420E-05  8540   0.840E-05 0.532E-05
CGA:  13    -0.128542525433E+04    0.59319E-04   -0.31962E-04  8540   0.271E-03-0.468E-04
CGA:  14    -0.128542532490E+04   -0.70563E-04   -0.70612E-04  8540   0.271E-04 0.156E-06
CGA:  15    -0.128542533265E+04   -0.77500E-05   -0.82235E-05  8540   0.453E-05 0.189E-05
  30 F= -.12854253E+04 E0= -.12854253E+04  d E =-.192520E-01  mag=   126.0000
       N       E                     dE             d eps       ncg     rms          ort
SDA:   1    -0.128361529142E+04    0.18100E+01    0.00000E+00  8540   0.464E+01 0.000E+00
CGA:   2    -0.128491342743E+04   -0.12981E+01   -0.12981E+01  8540   0.217E+01-0.474E-03
CGA:   3    -0.128533826100E+04   -0.42483E+00   -0.42496E+00  8540   0.382E+00 0.197E-03
CGA:   4    -0.128541865712E+04   -0.80396E-01   -0.80533E-01  8540   0.687E-01 0.428E-03
CGA:   5    -0.128543369807E+04   -0.15041E-01   -0.15051E-01  8540   0.155E-01 0.122E-04
CGA:   6    -0.128543755931E+04   -0.38612E-02   -0.38576E-02  8540   0.417E-02-0.191E-04
CGA:   7    -0.128543868647E+04   -0.11272E-02   -0.11378E-02  8540   0.128E-02 0.535E-04
CGA:   8    -0.128543908071E+04   -0.39424E-03   -0.40238E-03  8540   0.430E-03 0.538E-04
CGA:   9    -0.128543922487E+04   -0.14416E-03   -0.14694E-03  8540   0.135E-03 0.221E-04
CGA:  10    -0.128543927166E+04   -0.46788E-04   -0.47509E-04  8540   0.418E-04 0.637E-05
CGA:  11    -0.128543928389E+04   -0.12229E-04   -0.13390E-04  8540   0.137E-04 0.851E-05
CGA:  12    -0.128543928844E+04   -0.45492E-05   -0.51826E-05  8540   0.645E-05 0.526E-05
  31 F= -.12854393E+04 E0= -.12854393E+04  d E =-.139558E-01  mag=   126.0000
       N       E                     dE             d eps       ncg     rms          ort
SDA:   1    -0.128450241599E+04    0.93687E+00    0.00000E+00  8540   0.234E+01 0.000E+00
CGA:   2    -0.128514546887E+04   -0.64305E+00   -0.64322E+00  8540   0.113E+01-0.186E-03
CGA:   3    -0.128537020723E+04   -0.22474E+00   -0.22474E+00  8540   0.198E+00-0.243E-03
CGA:   4    -0.128541139809E+04   -0.41191E-01   -0.41194E-01  8540   0.361E-01-0.156E-05
CGA:   5    -0.128541926646E+04   -0.78684E-02   -0.78960E-02  8540   0.806E-02 0.149E-03
CGA:   6    -0.128542125022E+04   -0.19838E-02   -0.19979E-02  8540   0.210E-02 0.982E-04
CGA:   7    -0.128542183132E+04   -0.58110E-03   -0.58282E-03  8540   0.645E-03 0.157E-04
CGA:   8    -0.128542204188E+04   -0.21057E-03   -0.21035E-03  8540   0.232E-03-0.431E-05
CGA:   9    -0.128542211935E+04   -0.77465E-04   -0.77361E-04  8540   0.747E-04-0.274E-05
CGA:  10    -0.128542213692E+04   -0.17575E-04   -0.19385E-04  8540   0.199E-04 0.166E-04
CGA:  11    -0.128542214140E+04   -0.44791E-05   -0.56478E-05  8540   0.742E-05 0.869E-05
  32 F= -.12854221E+04 E0= -.12854221E+04  d E =0.171470E-01  mag=   126.0000
       N       E                     dE             d eps       ncg     rms          ort
SDA:   1    -0.127663016622E+04    0.87920E+01    0.00000E+00  8540   0.264E+02 0.000E+00
CGA:   2    -0.128195996918E+04   -0.53298E+01   -0.53464E+01  8540   0.106E+02 0.139E-01
CGA:   3    -0.128453964335E+04   -0.25797E+01   -0.25808E+01  8540   0.267E+01 0.498E-02
CGA:   4    -0.128509414969E+04   -0.55451E+00   -0.55382E+00  8540   0.496E+00-0.556E-02
CGA:   5    -0.128520183346E+04   -0.10768E+00   -0.10758E+00  8540   0.112E+00-0.109E-02
CGA:   6    -0.128522872943E+04   -0.26896E-01   -0.26916E-01  8540   0.284E-01 0.189E-03
CGA:   7    -0.128523660366E+04   -0.78742E-02   -0.78786E-02  8540   0.830E-02 0.857E-04
CGA:   8    -0.128523913203E+04   -0.25284E-02   -0.25241E-02  8540   0.277E-02-0.235E-03
CGA:   9    -0.128524008763E+04   -0.95560E-03   -0.96314E-03  8540   0.107E-02-0.208E-03
CGA:  10    -0.128524041701E+04   -0.32938E-03   -0.32916E-03  8540   0.333E-03 0.214E-04
CGA:  11    -0.128524054300E+04   -0.12599E-03   -0.12689E-03  8540   0.114E-03-0.182E-04
CGA:  12    -0.128524049057E+04    0.52433E-04   -0.12694E-03  8540   0.680E-03-0.210E-03
CGA:  13    -0.128524066429E+04   -0.17372E-03   -0.17288E-03  8540   0.748E-04-0.749E-05
CGA:  14    -0.128524069085E+04   -0.26555E-04   -0.26564E-04  8540   0.173E-04 0.266E-05
CGA:  15    -0.128524071614E+04   -0.25295E-04    0.34090E-05  8540   0.686E-05 0.313E-05
CGA:  16    -0.128524071873E+04   -0.25847E-05   -0.73725E-05  8540   0.297E-04-0.879E-05
  33 F= -.12852407E+04 E0= -.12852407E+04  d E =0.181423E+00  mag=   126.0000
       N       E                     dE             d eps       ncg     rms          ort
SDA:   1    -0.128123686769E+04    0.40038E+01    0.00000E+00  8540   0.129E+02 0.000E+00
CGA:   2    -0.128381447345E+04   -0.25776E+01   -0.25843E+01  8540   0.505E+01 0.551E-03
CGA:   3    -0.128505830507E+04   -0.12438E+01   -0.12449E+01  8540   0.129E+01 0.589E-02
CGA:   4    -0.128532762981E+04   -0.26932E+00   -0.26956E+00  8540   0.246E+00 0.924E-03
CGA:   5    -0.128538079682E+04   -0.53167E-01   -0.53176E-01  8540   0.547E-01-0.654E-04
CGA:   6    -0.128539423561E+04   -0.13439E-01   -0.13382E-01  8540   0.142E-01-0.517E-03
CGA:   7    -0.128539810578E+04   -0.38702E-02   -0.38692E-02  8540   0.411E-02-0.163E-04
CGA:   8    -0.128539924258E+04   -0.11368E-02   -0.11483E-02  8540   0.120E-02 0.166E-03
CGA:   9    -0.128539964561E+04   -0.40303E-03   -0.40465E-03  8540   0.403E-03 0.739E-04
CGA:  10    -0.128539978597E+04   -0.14036E-03   -0.14102E-03  8540   0.133E-03 0.451E-04
CGA:  11    -0.128539983192E+04   -0.45955E-04   -0.46640E-04  8540   0.382E-04 0.235E-04
CGA:  12    -0.128539984123E+04   -0.93061E-05   -0.10967E-04  8540   0.131E-04 0.170E-04
  34 F= -.12853998E+04 E0= -.12853998E+04  d E =-.159123E+00  mag=   126.0000
       N       E                     dE             d eps       ncg     rms          ort
SDA:   1    -0.128527817343E+04    0.12166E+00    0.00000E+00  8540   0.376E+00 0.000E+00
CGA:   2    -0.128535732198E+04   -0.79149E-01   -0.79204E-01  8540   0.160E+00 0.265E-03
CGA:   3    -0.128539529833E+04   -0.37976E-01   -0.37995E-01  8540   0.381E-01 0.133E-03
CGA:   4    -0.128540314059E+04   -0.78423E-02   -0.78403E-02  8540   0.692E-02-0.229E-04
CGA:   5    -0.128540463377E+04   -0.14932E-02   -0.14999E-02  8540   0.156E-02 0.688E-04
CGA:   6    -0.128540500274E+04   -0.36897E-03   -0.37221E-03  8540   0.390E-03 0.455E-04
CGA:   7    -0.128540511169E+04   -0.10895E-03   -0.10935E-03  8540   0.113E-03 0.126E-04
CGA:   8    -0.128540514961E+04   -0.37920E-04   -0.38118E-04  8540   0.447E-04-0.819E-05
CGA:   9    -0.128540516562E+04   -0.16010E-04   -0.17484E-04  8540   0.255E-04-0.125E-04
CGA:  10    -0.128540516806E+04   -0.24411E-05   -0.33293E-05  8540   0.988E-05 0.694E-05
  35 F= -.12854052E+04 E0= -.12854052E+04  d E =-.532684E-02  mag=   126.0000
       N       E                     dE             d eps       ncg     rms          ort
SDA:   1    -0.128487062717E+04    0.53454E+00    0.00000E+00  8540   0.153E+01 0.000E+00
CGA:   2    -0.128520408432E+04   -0.33346E+00   -0.33363E+00  8540   0.679E+00 0.122E-02
CGA:   3    -0.128536221066E+04   -0.15813E+00   -0.15813E+00  8540   0.152E+00-0.286E-03
CGA:   4    -0.128539346366E+04   -0.31253E-01   -0.31210E-01  8540   0.268E-01-0.532E-03
CGA:   5    -0.128539928886E+04   -0.58252E-02   -0.58353E-02  8540   0.616E-02 0.150E-03
CGA:   6    -0.128540074984E+04   -0.14610E-02   -0.14691E-02  8540   0.153E-02 0.190E-03
CGA:   7    -0.128540118670E+04   -0.43686E-03   -0.43687E-03  8540   0.462E-03 0.747E-05
CGA:   8    -0.128540134884E+04   -0.16214E-03   -0.17204E-03  8540   0.244E-03-0.107E-03
CGA:   9    -0.128540141507E+04   -0.66234E-04   -0.81322E-04  8540   0.156E-03-0.998E-04
CGA:  10    -0.128540143639E+04   -0.21315E-04   -0.21767E-04  8540   0.556E-04 0.837E-05
CGA:  11    -0.128540144655E+04   -0.10155E-04   -0.11424E-04  8540   0.224E-04 0.137E-04
CGA:  12    -0.128540145527E+04   -0.87239E-05   -0.87662E-05  8540   0.127E-04-0.139E-05
CGA:  13    -0.128540139240E+04    0.62871E-04   -0.33901E-04  8540   0.231E-03-0.563E-04
CGA:  14    -0.128540144880E+04   -0.56407E-04   -0.60890E-04  8540   0.393E-04 0.176E-04
CGA:  15    -0.128540147425E+04   -0.25445E-04   -0.30156E-04  8540   0.318E-04-0.228E-04
CGA:  16    -0.128540147463E+04   -0.37659E-06   -0.52353E-05  8540   0.754E-05 0.138E-04
  36 F= -.12854015E+04 E0= -.12854015E+04  d E =0.369344E-02  mag=   126.0000
       N       E                     dE             d eps       ncg     rms          ort
SDA:   1    -0.128519459423E+04    0.20688E+00    0.00000E+00  8540   0.504E+00 0.000E+00
CGA:   2    -0.128533511198E+04   -0.14052E+00   -0.14055E+00  8540   0.244E+00-0.253E-04
CGA:   3    -0.128538320834E+04   -0.48096E-01   -0.48024E-01  8540   0.426E-01-0.298E-03
CGA:   4    -0.128539215472E+04   -0.89464E-02   -0.89154E-02  8540   0.756E-02-0.125E-03
CGA:   5    -0.128539377035E+04   -0.16156E-02   -0.16331E-02  8540   0.168E-02 0.750E-04
CGA:   6    -0.128539416152E+04   -0.39117E-03   -0.40652E-03  8540   0.417E-03 0.785E-04
CGA:   7    -0.128539428384E+04   -0.12232E-03   -0.12267E-03  8540   0.137E-03 0.237E-05
CGA:   8    -0.128539434180E+04   -0.57965E-04   -0.58274E-04  8540   0.928E-04-0.432E-04
CGA:   9    -0.128539436218E+04   -0.20377E-04   -0.19203E-04  8540   0.328E-04-0.102E-04
CGA:  10    -0.128539436680E+04   -0.46179E-05   -0.61638E-05  8540   0.119E-04 0.771E-05
  37 F= -.12853944E+04 E0= -.12853944E+04  d E =0.710783E-02  mag=   126.0000
       N       E                     dE             d eps       ncg     rms          ort
SDA:   1    -0.128105309021E+04    0.43413E+01    0.00000E+00  8540   0.108E+02 0.000E+00
CGA:   2    -0.128406850291E+04   -0.30154E+01   -0.30161E+01  8540   0.530E+01-0.103E-02
CGA:   3    -0.128510593472E+04   -0.10374E+01   -0.10376E+01  8540   0.920E+00 0.599E-03
CGA:   4    -0.128529721966E+04   -0.19128E+00   -0.19135E+00  8540   0.163E+00 0.539E-03
CGA:   5    -0.128533316938E+04   -0.35950E-01   -0.35996E-01  8540   0.374E-01 0.282E-03
CGA:   6    -0.128534235753E+04   -0.91881E-02   -0.92166E-02  8540   0.978E-02 0.240E-03
CGA:   7    -0.128534506972E+04   -0.27122E-02   -0.27159E-02  8540   0.310E-02 0.455E-04
CGA:   8    -0.128534609080E+04   -0.10211E-02   -0.10198E-02  8540   0.120E-02-0.558E-04
CGA:   9    -0.128534649732E+04   -0.40652E-03   -0.40638E-03  8540   0.427E-03-0.262E-04
CGA:  10    -0.128534663714E+04   -0.13982E-03   -0.14008E-03  8540   0.141E-03 0.190E-04
CGA:  11    -0.128534669121E+04   -0.54068E-04   -0.53814E-04  8540   0.616E-04 0.150E-04
CGA:  12    -0.128534672839E+04   -0.37177E-04   -0.38194E-04  8540   0.561E-04-0.514E-05
CGA:  13    -0.128534674998E+04   -0.21595E-04   -0.21104E-04  8540   0.315E-04 0.939E-05
CGA:  14    -0.128534676398E+04   -0.14002E-04   -0.13911E-04  8540   0.142E-04 0.567E-05
CGA:  15    -0.128534676751E+04   -0.35228E-05   -0.42743E-05  8540   0.578E-05 0.692E-05
  38 F= -.12853468E+04 E0= -.12853468E+04  d E =0.475993E-01  mag=   126.0000
       N       E                     dE             d eps       ncg     rms          ort
SDA:   1    -0.127896985443E+04    0.63769E+01    0.00000E+00  8540   0.194E+02 0.000E+00
CGA:   2    -0.128284530613E+04   -0.38755E+01   -0.38846E+01  8540   0.777E+01 0.109E-01
CGA:   3    -0.128476886313E+04   -0.19236E+01   -0.19245E+01  8540   0.201E+01 0.730E-02
CGA:   4    -0.128518309960E+04   -0.41424E+00   -0.41427E+00  8540   0.350E+00-0.165E-03
CGA:   5    -0.128525974985E+04   -0.76650E-01   -0.76568E-01  8540   0.809E-01-0.906E-03
CGA:   6    -0.128527960759E+04   -0.19858E-01   -0.19773E-01  8540   0.208E-01-0.106E-02
CGA:   7    -0.128528508522E+04   -0.54776E-02   -0.54798E-02  8540   0.586E-02 0.348E-04
CGA:   8    -0.128528667402E+04   -0.15888E-02   -0.16048E-02  8540   0.167E-02 0.338E-03
CGA:   9    -0.128528720262E+04   -0.52861E-03   -0.53238E-03  8540   0.526E-03 0.220E-03
CGA:  10    -0.128528739903E+04   -0.19641E-03   -0.19542E-03  8540   0.193E-03 0.901E-04
CGA:  11    -0.128528747444E+04   -0.75410E-04   -0.74966E-04  8540   0.645E-04 0.322E-04
CGA:  12    -0.128528748783E+04   -0.13388E-04   -0.16670E-04  8540   0.243E-04 0.337E-04
CGA:  13    -0.128528749069E+04   -0.28638E-05   -0.47636E-05  8540   0.126E-04 0.161E-04
  39 F= -.12852875E+04 E0= -.12852875E+04  d E =0.592768E-01  mag=   126.0000
       N       E                     dE             d eps       ncg     rms          ort
SDA:   1    -0.128414782381E+04    0.11397E+01    0.00000E+00  8540   0.358E+01 0.000E+00
CGA:   2    -0.128490007017E+04   -0.75225E+00   -0.75266E+00  8540   0.151E+01 0.191E-02
CGA:   3    -0.128526161703E+04   -0.36155E+00   -0.36155E+00  8540   0.357E+00-0.801E-03
CGA:   4    -0.128533532193E+04   -0.73705E-01   -0.73622E-01  8540   0.652E-01-0.100E-02
CGA:   5    -0.128534955763E+04   -0.14236E-01   -0.14250E-01  8540   0.149E-01 0.174E-03
CGA:   6    -0.128535307535E+04   -0.35177E-02   -0.35357E-02  8540   0.375E-02 0.349E-03
CGA:   7    -0.128535411586E+04   -0.10405E-02   -0.10418E-02  8540   0.108E-02 0.100E-03
CGA:   8    -0.128535446369E+04   -0.34784E-03   -0.34945E-03  8540   0.393E-03-0.546E-04
CGA:   9    -0.128535459891E+04   -0.13521E-03   -0.14098E-03  8540   0.169E-03-0.626E-04
CGA:  10    -0.128535463305E+04   -0.34148E-04   -0.35401E-04  8540   0.481E-04 0.301E-04
CGA:  11    -0.128535464117E+04   -0.81143E-05   -0.10438E-04  8540   0.174E-04 0.224E-04
  40 F= -.12853546E+04 E0= -.12853546E+04  d E =-.671505E-01  mag=   126.0000
       N       E                     dE             d eps       ncg     rms          ort
SDA:   1    -0.128512271915E+04    0.23191E+00    0.00000E+00  8540   0.722E+00 0.000E+00
CGA:   2    -0.128527488825E+04   -0.15217E+00   -0.15224E+00  8540   0.305E+00 0.679E-03
CGA:   3    -0.128534770213E+04   -0.72814E-01   -0.72799E-01  8540   0.717E-01-0.575E-03
CGA:   4    -0.128536261907E+04   -0.14917E-01   -0.14881E-01  8540   0.132E-01-0.558E-03
CGA:   5    -0.128536544695E+04   -0.28279E-02   -0.28342E-02  8540   0.296E-02 0.113E-03
CGA:   6    -0.128536611059E+04   -0.66365E-03   -0.67360E-03  8540   0.703E-03 0.236E-03
CGA:   7    -0.128536630724E+04   -0.19664E-03   -0.19703E-03  8540   0.201E-03 0.699E-04
CGA:   8    -0.128536638565E+04   -0.78409E-04   -0.83379E-04  8540   0.112E-03-0.441E-04
CGA:   9    -0.128536641595E+04   -0.30303E-04   -0.34962E-04  8540   0.594E-04-0.362E-04
CGA:  10    -0.128536642183E+04   -0.58849E-05   -0.72121E-05  8540   0.248E-04 0.136E-04
  41 F= -.12853664E+04 E0= -.12853664E+04  d E =-.117807E-01  mag=   126.0000
       N       E                     dE             d eps       ncg     rms          ort
SDA:   1    -0.128529610143E+04    0.70315E-01    0.00000E+00  8540   0.224E+00 0.000E+00
CGA:   2    -0.128534257864E+04   -0.46477E-01   -0.46504E-01  8540   0.936E-01 0.357E-03
CGA:   3    -0.128536529429E+04   -0.22716E-01   -0.22711E-01  8540   0.227E-01-0.278E-03
CGA:   4    -0.128536999734E+04   -0.47030E-02   -0.46896E-02  8540   0.408E-02-0.253E-03
CGA:   5    -0.128537085148E+04   -0.85414E-03   -0.85731E-03  8540   0.903E-03 0.679E-04
CGA:   6    -0.128537104301E+04   -0.19153E-03   -0.19651E-03  8540   0.205E-03 0.118E-03
CGA:   7    -0.128537109645E+04   -0.53441E-04   -0.54301E-04  8540   0.573E-04 0.437E-04
CGA:   8    -0.128537112076E+04   -0.24312E-04   -0.25224E-04  8540   0.317E-04-0.834E-05
CGA:   9    -0.128537113000E+04   -0.92449E-05   -0.11835E-04  8540   0.226E-04-0.146E-04
  42 F= -.12853711E+04 E0= -.12853711E+04  d E =-.470817E-02  mag=   126.0000
       N       E                     dE             d eps       ncg     rms          ort
SDA:   1    -0.128526684058E+04    0.10428E+00    0.00000E+00  8540   0.332E+00 0.000E+00
CGA:   2    -0.128533293130E+04   -0.66091E-01   -0.66124E-01  8540   0.135E+00 0.376E-03
CGA:   3    -0.128536663885E+04   -0.33708E-01   -0.33705E-01  8540   0.347E-01-0.364E-03
CGA:   4    -0.128537379263E+04   -0.71538E-02   -0.71385E-02  8540   0.586E-02-0.303E-03
CGA:   5    -0.128537504733E+04   -0.12547E-02   -0.12576E-02  8540   0.132E-02 0.731E-04
CGA:   6    -0.128537533982E+04   -0.29249E-03   -0.29625E-03  8540   0.290E-03 0.123E-03
CGA:   7    -0.128537541619E+04   -0.76375E-04   -0.76786E-04  8540   0.773E-04 0.458E-04
CGA:   8    -0.128537544545E+04   -0.29253E-04   -0.29489E-04  8540   0.325E-04-0.302E-05
CGA:   9    -0.128537545702E+04   -0.11575E-04   -0.13585E-04  8540   0.206E-04-0.112E-04
CGA:  10    -0.128537545820E+04   -0.11742E-05   -0.19287E-05  8540   0.104E-04 0.625E-05
  43 F= -.12853755E+04 E0= -.12853755E+04  d E =-.432819E-02  mag=   126.0000
       N       E                     dE             d eps       ncg     rms          ort
SDA:   1    -0.128531113932E+04    0.64318E-01    0.00000E+00  8540   0.200E+00 0.000E+00
CGA:   2    -0.128535363752E+04   -0.42498E-01   -0.42513E-01  8540   0.874E-01 0.291E-03
CGA:   3    -0.128537455265E+04   -0.20915E-01   -0.20914E-01  8540   0.201E-01-0.145E-03
CGA:   4    -0.128537867598E+04   -0.41233E-02   -0.41173E-02  8540   0.335E-02-0.141E-03
CGA:   5    -0.128537940910E+04   -0.73313E-03   -0.73390E-03  8540   0.766E-03 0.298E-04
CGA:   6    -0.128537958938E+04   -0.18028E-03   -0.18065E-03  8540   0.175E-03 0.367E-04
CGA:   7    -0.128537963683E+04   -0.47449E-04   -0.47294E-04  8540   0.491E-04 0.106E-04
CGA:   8    -0.128537965205E+04   -0.15221E-04   -0.15071E-04  8540   0.161E-04 0.329E-05
CGA:   9    -0.128537965796E+04   -0.59117E-05   -0.58788E-05  8540   0.638E-05 0.335E-06
  44 F= -.12853797E+04 E0= -.12853797E+04  d E =-.419977E-02  mag=   126.0000
       N       E                     dE             d eps       ncg     rms          ort
SDA:   1    -0.128447138041E+04    0.90827E+00    0.00000E+00  8540   0.249E+01 0.000E+00
CGA:   2    -0.128507723717E+04   -0.60586E+00   -0.60589E+00  8540   0.120E+01 0.190E-02
CGA:   3    -0.128533571470E+04   -0.25848E+00   -0.25847E+00  8540   0.229E+00-0.141E-03
CGA:   4    -0.128538283780E+04   -0.47123E-01   -0.47125E-01  8540   0.393E-01 0.441E-04
CGA:   5    -0.128539161470E+04   -0.87769E-02   -0.87796E-02  8540   0.900E-02 0.102E-03
CGA:   6    -0.128539383539E+04   -0.22207E-02   -0.22207E-02  8540   0.223E-02 0.472E-04
CGA:   7    -0.128539443473E+04   -0.59934E-03   -0.59802E-03  8540   0.647E-03 0.618E-04
CGA:   8    -0.128539462368E+04   -0.18895E-03   -0.18656E-03  8540   0.202E-03 0.708E-04
CGA:   9    -0.128539469224E+04   -0.68560E-04   -0.66712E-04  8540   0.676E-04 0.374E-04
CGA:  10    -0.128539471826E+04   -0.26018E-04   -0.24916E-04  8540   0.264E-04 0.182E-04
CGA:  11    -0.128539472804E+04   -0.97856E-05   -0.94583E-05  8540   0.114E-04 0.115E-04
  45 F= -.12853947E+04 E0= -.12853947E+04  d E =-.150701E-01  mag=   126.0000
       N       E                     dE             d eps       ncg     rms          ort
SDA:   1    -0.128485486245E+04    0.53986E+00    0.00000E+00  8540   0.146E+01 0.000E+00
CGA:   2    -0.128523421851E+04   -0.37936E+00   -0.37935E+00  8540   0.722E+00-0.880E-04
CGA:   3    -0.128538042500E+04   -0.14621E+00   -0.14619E+00  8540   0.130E+00-0.453E-03
CGA:   4    -0.128540751756E+04   -0.27093E-01   -0.27104E-01  8540   0.230E-01 0.259E-03
CGA:   5    -0.128541262595E+04   -0.51084E-02   -0.51064E-02  8540   0.520E-02-0.769E-04
CGA:   6    -0.128541395781E+04   -0.13319E-02   -0.13332E-02  8540   0.143E-02-0.169E-03
CGA:   7    -0.128541432869E+04   -0.37088E-03   -0.37060E-03  8540   0.409E-03 0.142E-04
CGA:   8    -0.128541444046E+04   -0.11176E-03   -0.11064E-03  8540   0.122E-03 0.648E-04
CGA:   9    -0.128541448542E+04   -0.44959E-04   -0.43719E-04  8540   0.444E-04 0.217E-04
CGA:  10    -0.128541450677E+04   -0.21351E-04   -0.21577E-04  8540   0.253E-04-0.149E-05
CGA:  11    -0.128541451567E+04   -0.89078E-05   -0.87679E-05  8540   0.116E-04 0.139E-05
  46 F= -.12854145E+04 E0= -.12854145E+04  d E =-.197876E-01  mag=   126.0000
       N       E                     dE             d eps       ncg     rms          ort
SDA:   1    -0.128528789297E+04    0.12661E+00    0.00000E+00  8540   0.394E+00 0.000E+00
CGA:   2    -0.128536805760E+04   -0.80165E-01   -0.80186E-01  8540   0.162E+00 0.986E-04
CGA:   3    -0.128540819561E+04   -0.40138E-01   -0.40138E-01  8540   0.405E-01-0.682E-04
CGA:   4    -0.128541644354E+04   -0.82479E-02   -0.82517E-02  8540   0.685E-02 0.566E-04
CGA:   5    -0.128541797609E+04   -0.15325E-02   -0.15284E-02  8540   0.162E-02-0.108E-03
CGA:   6    -0.128541839413E+04   -0.41804E-03   -0.41840E-03  8540   0.459E-03-0.142E-03
CGA:   7    -0.128541850411E+04   -0.10998E-03   -0.11003E-03  8540   0.129E-03-0.203E-04
CGA:   8    -0.128541853680E+04   -0.32694E-04   -0.32659E-04  8540   0.337E-04 0.628E-05
CGA:   9    -0.128541854909E+04   -0.12289E-04   -0.12449E-04  8540   0.140E-04-0.179E-05
CGA:  10    -0.128541855683E+04   -0.77365E-05    0.18189E-04  8540   0.489E-05 0.351E-05
  47 F= -.12854186E+04 E0= -.12854186E+04  d E =-.404115E-02  mag=   126.0000
       N       E                     dE             d eps       ncg     rms          ort
SDA:   1    -0.128537400116E+04    0.44548E-01    0.00000E+00  8540   0.137E+00 0.000E+00
CGA:   2    -0.128540440107E+04   -0.30400E-01   -0.30396E-01  8540   0.622E-01-0.147E-03
CGA:   3    -0.128541850843E+04   -0.14107E-01   -0.14106E-01  8540   0.137E-01-0.379E-04
CGA:   4    -0.128542133129E+04   -0.28229E-02   -0.28242E-02  8540   0.240E-02 0.222E-04
CGA:   5    -0.128542187300E+04   -0.54171E-03   -0.54011E-03  8540   0.564E-03-0.483E-04
CGA:   6    -0.128542202086E+04   -0.14786E-03   -0.14854E-03  8540   0.172E-03-0.558E-04
CGA:   7    -0.128542206392E+04   -0.43056E-04   -0.43279E-04  8540   0.509E-04-0.105E-04
CGA:   8    -0.128542207714E+04   -0.13221E-04   -0.13187E-04  8540   0.147E-04 0.195E-05
CGA:   9    -0.128542207080E+04    0.63370E-05   -0.15153E-04  8540   0.883E-04-0.292E-04
CGA:  10    -0.128542209261E+04   -0.21806E-04   -0.21353E-04  8540   0.124E-04-0.835E-05
CGA:  11    -0.128542209600E+04   -0.33990E-05   -0.60480E-05  8540   0.176E-04-0.108E-04
  48 F= -.12854221E+04 E0= -.12854221E+04  d E =-.353918E-02  mag=   126.0000
       N       E                     dE             d eps       ncg     rms          ort
SDA:   1    -0.128526468302E+04    0.15741E+00    0.00000E+00  8540   0.448E+00 0.000E+00
CGA:   2    -0.128537966611E+04   -0.11498E+00   -0.11497E+00  8540   0.208E+00-0.302E-03
CGA:   3    -0.128542229510E+04   -0.42629E-01   -0.42569E-01  8540   0.415E-01-0.663E-03
CGA:   4    -0.128543100437E+04   -0.87093E-02   -0.87066E-02  8540   0.756E-02-0.373E-04
CGA:   5    -0.128543264867E+04   -0.16443E-02   -0.16383E-02  8540   0.166E-02-0.860E-04
CGA:   6    -0.128543308829E+04   -0.43962E-03   -0.43787E-03  8540   0.510E-03-0.983E-04
CGA:   7    -0.128543321735E+04   -0.12905E-03   -0.12898E-03  8540   0.144E-03-0.493E-05
CGA:   8    -0.128543326270E+04   -0.45357E-04   -0.45397E-04  8540   0.516E-04-0.120E-05
CGA:   9    -0.128543328309E+04   -0.20391E-04   -0.23670E-04  8540   0.369E-04-0.185E-04
CGA:  10    -0.128543311913E+04    0.16396E-03   -0.88310E-04  8540   0.745E-03-0.130E-03
CGA:  11    -0.128543327413E+04   -0.15500E-03   -0.15977E-03  8540   0.916E-04 0.147E-04
CGA:  12    -0.128543330642E+04   -0.32291E-04   -0.34290E-04  8540   0.262E-04 0.130E-04
CGA:  13    -0.128543332426E+04   -0.17836E-04   -0.19026E-04  8540   0.216E-04-0.970E-05
CGA:  14    -0.128543332383E+04    0.43141E-06   -0.19064E-05  8540   0.110E-04 0.618E-05
  49 F= -.12854333E+04 E0= -.12854333E+04  d E =-.112278E-01  mag=   126.0000
       N       E                     dE             d eps       ncg     rms          ort
SDA:   1    -0.128117968843E+04    0.42536E+01    0.00000E+00  8540   0.129E+02 0.000E+00
CGA:   2    -0.128376725135E+04   -0.25876E+01   -0.25995E+01  8540   0.507E+01-0.396E-02
CGA:   3    -0.128502473014E+04   -0.12575E+01   -0.12587E+01  8540   0.129E+01 0.483E-02
CGA:   4    -0.128529370473E+04   -0.26897E+00   -0.26880E+00  8540   0.230E+00-0.582E-03
CGA:   5    -0.128534363093E+04   -0.49926E-01   -0.49891E-01  8540   0.523E-01-0.293E-03
CGA:   6    -0.128535659752E+04   -0.12967E-01   -0.12937E-01  8540   0.132E-01-0.179E-03
CGA:   7    -0.128536016277E+04   -0.35653E-02   -0.35759E-02  8540   0.371E-02 0.681E-04
CGA:   8    -0.128536120540E+04   -0.10426E-02   -0.10661E-02  8540   0.110E-02 0.180E-03
CGA:   9    -0.128536158261E+04   -0.37721E-03   -0.38197E-03  8540   0.387E-03 0.602E-04
CGA:  10    -0.128536171972E+04   -0.13711E-03   -0.13972E-03  8540   0.139E-03 0.411E-04
CGA:  11    -0.128536176067E+04   -0.40949E-04   -0.44975E-04  8540   0.427E-04 0.369E-04
CGA:  12    -0.128536177248E+04   -0.11806E-04   -0.14425E-04  8540   0.182E-04 0.201E-04
CGA:  13    -0.128536177520E+04   -0.27279E-05   -0.56194E-05  8540   0.106E-04 0.159E-04
  50 F= -.12853618E+04 E0= -.12853618E+04  d E =0.715486E-01  mag=   126.0000
       N       E                     dE             d eps       ncg     rms          ort
SDA:   1    -0.128304971721E+04    0.23121E+01    0.00000E+00  8540   0.751E+01 0.000E+00
CGA:   2    -0.128453108511E+04   -0.14814E+01   -0.14847E+01  8540   0.288E+01 0.376E-02
CGA:   3    -0.128525407114E+04   -0.72299E+00   -0.72326E+00  8540   0.746E+00 0.135E-03
CGA:   4    -0.128541111139E+04   -0.15704E+00   -0.15684E+00  8540   0.137E+00-0.161E-02
CGA:   5    -0.128544091432E+04   -0.29803E-01   -0.29760E-01  8540   0.307E-01-0.382E-03
CGA:   6    -0.128544844455E+04   -0.75302E-02   -0.75202E-02  8540   0.784E-02-0.110E-03
CGA:   7    -0.128545063117E+04   -0.21866E-02   -0.21839E-02  8540   0.229E-02-0.469E-04
CGA:   8    -0.128545134251E+04   -0.71134E-03   -0.70788E-03  8540   0.802E-03-0.138E-03
CGA:   9    -0.128545161096E+04   -0.26844E-03   -0.27059E-03  8540   0.310E-03-0.902E-04
CGA:  10    -0.128545171050E+04   -0.99547E-04   -0.10048E-03  8540   0.109E-03-0.322E-04
CGA:  11    -0.128545174968E+04   -0.39182E-04   -0.53503E-04  8540   0.955E-04-0.684E-04
CGA:  12    -0.128545177529E+04   -0.25601E-04   -0.25125E-04  8540   0.151E-04-0.560E-05
CGA:  13    -0.128545178951E+04   -0.14222E-04    0.54202E-05  8540   0.399E-05 0.826E-06
CGA:  14    -0.128545179557E+04   -0.60599E-05    0.66363E-06  8540   0.140E-05 0.148E-05
  51 F= -.12854518E+04 E0= -.12854518E+04  d E =-.900204E-01  mag=   126.0000
       N       E                     dE             d eps       ncg     rms          ort
SDA:   1    -0.128542444111E+04    0.27348E-01    0.00000E+00  8540   0.951E-01 0.000E+00
CGA:   2    -0.128544347762E+04   -0.19037E-01   -0.19052E-01  8540   0.385E-01 0.541E-04
CGA:   3    -0.128545309710E+04   -0.96195E-02   -0.96391E-02  8540   0.988E-02 0.205E-03
CGA:   4    -0.128545511121E+04   -0.20141E-02   -0.20194E-02  8540   0.169E-02 0.396E-04
CGA:   5    -0.128545548900E+04   -0.37779E-03   -0.37521E-03  8540   0.402E-03-0.253E-04
CGA:   6    -0.128545558651E+04   -0.97515E-04   -0.97156E-04  8540   0.986E-04-0.486E-05
CGA:   7    -0.128545560883E+04   -0.22319E-04   -0.23179E-04  8540   0.240E-04 0.109E-04
CGA:   8    -0.128545561583E+04   -0.69998E-05   -0.71645E-05  8540   0.708E-05 0.371E-05
  52 F= -.12854556E+04 E0= -.12854556E+04  d E =-.382027E-02  mag=   126.0000
       N       E                     dE             d eps       ncg     rms          ort
SDA:   1    -0.128529566360E+04    0.15995E+00    0.00000E+00  8540   0.487E+00 0.000E+00
CGA:   2    -0.128539694854E+04   -0.10128E+00   -0.10134E+00  8540   0.209E+00 0.241E-03
CGA:   3    -0.128544796716E+04   -0.51019E-01   -0.51057E-01  8540   0.502E-01 0.516E-03
CGA:   4    -0.128545813097E+04   -0.10164E-01   -0.10173E-01  8540   0.842E-02 0.812E-04
CGA:   5    -0.128546000807E+04   -0.18771E-02   -0.18726E-02  8540   0.199E-02-0.608E-04
CGA:   6    -0.128546049471E+04   -0.48664E-03   -0.48605E-03  8540   0.488E-03-0.123E-04
CGA:   7    -0.128546061501E+04   -0.12030E-03   -0.12179E-03  8540   0.125E-03 0.347E-04
CGA:   8    -0.128546065000E+04   -0.34994E-04   -0.35514E-04  8540   0.352E-04 0.191E-04
CGA:   9    -0.128546066257E+04   -0.12561E-04   -0.12454E-04  8540   0.128E-04 0.640E-05
CGA:  10    -0.128546066758E+04   -0.50147E-05   -0.49227E-05  8540   0.493E-05 0.266E-05
  53 F= -.12854607E+04 E0= -.12854607E+04  d E =-.505175E-02  mag=   126.0000
       N       E                     dE             d eps       ncg     rms          ort
SDA:   1    -0.128544544406E+04    0.15219E-01    0.00000E+00  8540   0.451E-01 0.000E+00
CGA:   2    -0.128545698668E+04   -0.11543E-01   -0.11544E-01  8540   0.216E-01 0.319E-04
CGA:   3    -0.128546151114E+04   -0.45245E-02   -0.45079E-02  8540   0.409E-02-0.205E-03
CGA:   4    -0.128546237241E+04   -0.86127E-03   -0.85622E-03  8540   0.750E-03-0.673E-04
CGA:   5    -0.128546253850E+04   -0.16609E-03   -0.16488E-03  8540   0.169E-03-0.204E-04
CGA:   6    -0.128546258217E+04   -0.43676E-04   -0.43472E-04  8540   0.510E-04-0.132E-04
CGA:   7    -0.128546259337E+04   -0.11195E-04   -0.11348E-04  8540   0.125E-04 0.400E-05
CGA:   8    -0.128546259714E+04   -0.37691E-05   -0.37676E-05  8540   0.406E-05 0.152E-05
  54 F= -.12854626E+04 E0= -.12854626E+04  d E =-.192956E-02  mag=   126.0000
       N       E                     dE             d eps       ncg     rms          ort
SDA:   1    -0.128512894954E+04    0.33364E+00    0.00000E+00  8540   0.851E+00 0.000E+00
CGA:   2    -0.128537124241E+04   -0.24229E+00   -0.24229E+00  8540   0.409E+00-0.262E-04
CGA:   3    -0.128545060553E+04   -0.79363E-01   -0.79295E-01  8540   0.702E-01-0.710E-03
CGA:   4    -0.128546535344E+04   -0.14748E-01   -0.14741E-01  8540   0.127E-01-0.950E-04
CGA:   5    -0.128546817948E+04   -0.28260E-02   -0.28188E-02  8540   0.281E-02-0.121E-03
CGA:   6    -0.128546890046E+04   -0.72098E-03   -0.71833E-03  8540   0.797E-03-0.111E-03
CGA:   7    -0.128546909954E+04   -0.19908E-03   -0.19960E-03  8540   0.222E-03 0.268E-04
CGA:   8    -0.128546916983E+04   -0.70290E-04   -0.69927E-04  8540   0.753E-04 0.141E-04
CGA:   9    -0.128546920126E+04   -0.31431E-04   -0.33644E-04  8540   0.406E-04-0.159E-04
CGA:  10    -0.128546921304E+04   -0.11775E-04   -0.15278E-04  8540   0.276E-04-0.185E-04
CGA:  11    -0.128546918855E+04    0.24484E-04   -0.17352E-04  8540   0.153E-03-0.488E-04
CGA:  12    -0.128546921610E+04   -0.27549E-04   -0.31033E-04  8540   0.202E-04 0.253E-04
CGA:  13    -0.128546922452E+04   -0.84236E-05   -0.18126E-04  8540   0.438E-04-0.222E-04
  55 F= -.12854692E+04 E0= -.12854692E+04  d E =-.662739E-02  mag=   126.0000
       N       E                     dE             d eps       ncg     rms          ort
SDA:   1    -0.128460416485E+04    0.86505E+00    0.00000E+00  8540   0.219E+01 0.000E+00
CGA:   2    -0.128520987730E+04   -0.60571E+00   -0.60577E+00  8540   0.108E+01 0.124E-03
CGA:   3    -0.128542317728E+04   -0.21330E+00   -0.21326E+00  8540   0.180E+00-0.445E-03
CGA:   4    -0.128546074824E+04   -0.37571E-01   -0.37558E-01  8540   0.330E-01-0.134E-03
CGA:   5    -0.128546815939E+04   -0.74111E-02   -0.73865E-02  8540   0.747E-02-0.247E-03
CGA:   6    -0.128547002896E+04   -0.18696E-02   -0.18572E-02  8540   0.199E-02-0.173E-03
CGA:   7    -0.128547055631E+04   -0.52735E-03   -0.52842E-03  8540   0.582E-03 0.225E-04
CGA:   8    -0.128547073588E+04   -0.17957E-03   -0.17985E-03  8540   0.195E-03 0.250E-04
CGA:   9    -0.128547081846E+04   -0.82573E-04   -0.88506E-04  8540   0.110E-03-0.501E-04
CGA:  10    -0.128547084799E+04   -0.29536E-04   -0.43543E-04  8540   0.988E-04-0.668E-04
CGA:  11    -0.128547087292E+04   -0.24932E-04   -0.24809E-04  8540   0.201E-04-0.153E-05
CGA:  12    -0.128547088098E+04   -0.80512E-05   -0.80695E-05  8540   0.656E-05-0.241E-06
  56 F= -.12854709E+04 E0= -.12854709E+04  d E =-.165645E-02  mag=   126.0000
       N       E                     dE             d eps       ncg     rms          ort
SDA:   1    -0.128127671720E+04    0.41942E+01    0.00000E+00  8540   0.124E+02 0.000E+00
CGA:   2    -0.128383801872E+04   -0.25613E+01   -0.25671E+01  8540   0.505E+01 0.103E-01
CGA:   3    -0.128505843912E+04   -0.12204E+01   -0.12209E+01  8540   0.121E+01 0.229E-02
CGA:   4    -0.128531194968E+04   -0.25351E+00   -0.25337E+00  8540   0.222E+00-0.152E-02
CGA:   5    -0.128536055699E+04   -0.48607E-01   -0.48605E-01  8540   0.501E-01-0.135E-03
CGA:   6    -0.128537282394E+04   -0.12267E-01   -0.12274E-01  8540   0.130E-01 0.891E-04
CGA:   7    -0.128537640821E+04   -0.35843E-02   -0.35904E-02  8540   0.373E-02 0.190E-03
CGA:   8    -0.128537753215E+04   -0.11239E-02   -0.11246E-02  8540   0.119E-02 0.685E-04
CGA:   9    -0.128537791772E+04   -0.38557E-03   -0.38450E-03  8540   0.384E-03 0.104E-03
CGA:  10    -0.128537802547E+04   -0.10775E-03   -0.11232E-03  8540   0.125E-03 0.122E-03
CGA:  11    -0.128537805193E+04   -0.26464E-04   -0.34039E-04  8540   0.523E-04 0.776E-04
CGA:  12    -0.128537805943E+04   -0.74988E-05   -0.10711E-04  8540   0.281E-04 0.337E-04
  57 F= -.12853781E+04 E0= -.12853781E+04  d E =0.928215E-01  mag=   126.0000
       N       E                     dE             d eps       ncg     rms          ort
SDA:   1    -0.128380664257E+04    0.15714E+01    0.00000E+00  8540   0.509E+01 0.000E+00
CGA:   2    -0.128483464102E+04   -0.10280E+01   -0.10290E+01  8540   0.202E+01 0.458E-02
CGA:   3    -0.128533264963E+04   -0.49801E+00   -0.49813E+00  8540   0.502E+00 0.194E-02
CGA:   4    -0.128543786959E+04   -0.10522E+00   -0.10520E+00  8540   0.930E-01-0.381E-03
CGA:   5    -0.128545810736E+04   -0.20238E-01   -0.20237E-01  8540   0.209E-01-0.564E-04
CGA:   6    -0.128546325563E+04   -0.51483E-02   -0.51454E-02  8540   0.543E-02-0.106E-03
CGA:   7    -0.128546475948E+04   -0.15039E-02   -0.15039E-02  8540   0.158E-02-0.101E-04
CGA:   8    -0.128546520733E+04   -0.44784E-03   -0.44717E-03  8540   0.472E-03 0.696E-04
CGA:   9    -0.128546537437E+04   -0.16705E-03   -0.16608E-03  8540   0.168E-03 0.148E-04
CGA:  10    -0.128546543193E+04   -0.57560E-04   -0.56480E-04  8540   0.566E-04 0.217E-04
CGA:  11    -0.128546545275E+04   -0.20816E-04   -0.20381E-04  8540   0.180E-04 0.110E-04
CGA:  12    -0.128546546268E+04   -0.99339E-05   -0.10454E-04  8540   0.133E-04-0.262E-05
  58 F= -.12854655E+04 E0= -.12854655E+04  d E =-.874033E-01  mag=   126.0000
       N       E                     dE             d eps       ncg     rms          ort
SDA:   1    -0.128535015670E+04    0.11530E+00    0.00000E+00  8540   0.363E+00 0.000E+00
CGA:   2    -0.128542342908E+04   -0.73272E-01   -0.73348E-01  8540   0.144E+00 0.535E-03
CGA:   3    -0.128545911885E+04   -0.35690E-01   -0.35691E-01  8540   0.360E-01-0.756E-04
CGA:   4    -0.128546668792E+04   -0.75691E-02   -0.75497E-02  8540   0.670E-02-0.258E-03
CGA:   5    -0.128546813963E+04   -0.14517E-02   -0.14514E-02  8540   0.152E-02-0.753E-05
CGA:   6    -0.128546849991E+04   -0.36029E-03   -0.36128E-03  8540   0.372E-03 0.227E-04
CGA:   7    -0.128546860969E+04   -0.10977E-03   -0.10994E-03  8540   0.118E-03-0.129E-04
CGA:   8    -0.128546864628E+04   -0.36591E-04   -0.37275E-04  8540   0.456E-04-0.145E-04
CGA:   9    -0.128546865856E+04   -0.12279E-04   -0.23968E-04  8540   0.686E-04-0.369E-04
CGA:  10    -0.128546867069E+04   -0.12129E-04   -0.12815E-04  8540   0.780E-05 0.621E-05
CGA:  11    -0.128546867403E+04   -0.33422E-05   -0.42417E-05  8540   0.595E-05-0.435E-05
  59 F= -.12854687E+04 E0= -.12854687E+04  d E =-.321135E-02  mag=   126.0000
       N       E                     dE             d eps       ncg     rms          ort
SDA:   1    -0.128544952104E+04    0.19150E-01    0.00000E+00  8540   0.579E-01 0.000E+00
CGA:   2    -0.128546147779E+04   -0.11957E-01   -0.11971E-01  8540   0.240E-01 0.103E-03
CGA:   3    -0.128546734898E+04   -0.58712E-02   -0.58633E-02  8540   0.597E-02-0.141E-03
CGA:   4    -0.128546859213E+04   -0.12432E-02   -0.12331E-02  8540   0.109E-02-0.107E-03
CGA:   5    -0.128546881534E+04   -0.22321E-03   -0.22535E-03  8540   0.236E-03 0.246E-04
CGA:   6    -0.128546886466E+04   -0.49321E-04   -0.51758E-04  8540   0.528E-04 0.309E-04
CGA:   7    -0.128546887970E+04   -0.15044E-04   -0.15300E-04  8540   0.159E-04 0.776E-05
CGA:   8    -0.128546888633E+04   -0.66310E-05   -0.10175E-04  8540   0.255E-04-0.131E-04
  60 F= -.12854689E+04 E0= -.12854689E+04  d E =-.212306E-03  mag=   126.0000
       N       E                     dE             d eps       ncg     rms          ort
SDA:   1    -0.128526930808E+04    0.19957E+00    0.00000E+00  8540   0.531E+00 0.000E+00
CGA:   2    -0.128539478192E+04   -0.12547E+00   -0.12550E+00  8540   0.254E+00 0.154E-03
CGA:   3    -0.128545120819E+04   -0.56426E-01   -0.56405E-01  8540   0.508E-01-0.393E-03
CGA:   4    -0.128546155059E+04   -0.10342E-01   -0.10325E-01  8540   0.894E-02-0.214E-03
CGA:   5    -0.128546347537E+04   -0.19248E-02   -0.19336E-02  8540   0.202E-02 0.128E-03
CGA:   6    -0.128546394498E+04   -0.46961E-03   -0.47589E-03  8540   0.479E-03 0.127E-03
CGA:   7    -0.128546408599E+04   -0.14101E-03   -0.14104E-03  8540   0.148E-03 0.163E-04
CGA:   8    -0.128546414373E+04   -0.57739E-04   -0.63816E-04  8540   0.987E-04-0.445E-04
CGA:   9    -0.128546416570E+04   -0.21970E-04   -0.22448E-04  8540   0.401E-04-0.123E-04
[...]
CGA:  11    -0.128528442905E+04   -0.23587E-03   -0.23529E-03  8540   0.240E-03 0.155E-04
CGA:  12    -0.128528452648E+04   -0.97427E-04   -0.95440E-04  8540   0.121E-03 0.448E-04
CGA:  13    -0.128528460948E+04   -0.83002E-04   -0.81521E-04  8540   0.110E-03 0.599E-05
CGA:  14    -0.128528464843E+04   -0.38946E-04   -0.39609E-04  8540   0.615E-04 0.454E-04
CGA:  15    -0.128528468765E+04   -0.39225E-04   -0.38577E-04  8540   0.399E-04 0.690E-05
CGA:  16    -0.128528471029E+04   -0.22640E-04   -0.22617E-04  8540   0.302E-04-0.185E-06
CGA:  17    -0.128528472539E+04   -0.15100E-04   -0.15907E-04  8540   0.227E-04-0.523E-05
CGA:  18    -0.128528474152E+04   -0.16131E-04    0.24396E-04  8540   0.117E-04-0.281E-05
CGA:  19    -0.128528474012E+04    0.14041E-05   -0.85313E-06  8540   0.830E-05 0.770E-05
  86 F= -.12852847E+04 E0= -.12852847E+04  d E =0.146987E+00  mag=   126.0000
       N       E                     dE             d eps       ncg     rms          ort
SDA:   1    -0.128054121856E+04    0.47435E+01    0.00000E+00  8540   0.148E+02 0.000E+00
CGA:   2    -0.128361043795E+04   -0.30692E+01   -0.30747E+01  8540   0.606E+01 0.656E-02
CGA:   3    -0.128508708237E+04   -0.14766E+01   -0.14772E+01  8540   0.147E+01 0.402E-02
CGA:   4    -0.128539033833E+04   -0.30326E+00   -0.30337E+00  8540   0.269E+00 0.322E-03
CGA:   5    -0.128544956168E+04   -0.59223E-01   -0.59217E-01  8540   0.614E-01-0.186E-03
CGA:   6    -0.128546455193E+04   -0.14990E-01   -0.14965E-01  8540   0.157E-01-0.339E-03
CGA:   7    -0.128546879077E+04   -0.42388E-02   -0.42499E-02  8540   0.445E-02 0.234E-03
CGA:   8    -0.128547012260E+04   -0.13318E-02   -0.13333E-02  8540   0.143E-02 0.696E-04
CGA:   9    -0.128547062903E+04   -0.50643E-03   -0.50654E-03  8540   0.553E-03-0.474E-05
CGA:  10    -0.128547081246E+04   -0.18343E-03   -0.18270E-03  8540   0.189E-03 0.501E-04
CGA:  11    -0.128547088211E+04   -0.69654E-04   -0.69187E-04  8540   0.650E-04 0.252E-04
CGA:  12    -0.128547090066E+04   -0.18551E-04   -0.19995E-04  8540   0.292E-04 0.303E-04
CGA:  13    -0.128547090858E+04   -0.79197E-05   -0.99555E-05  8540   0.174E-04 0.241E-04
  87 F= -.12854709E+04 E0= -.12854709E+04  d E =-.186168E+00  mag=   126.0000
       N       E                     dE             d eps       ncg     rms          ort
SDA:   1    -0.128450981451E+04    0.96109E+00    0.00000E+00  8540   0.271E+01 0.000E+00
CGA:   2    -0.128512532307E+04   -0.61551E+00   -0.61581E+00  8540   0.126E+01 0.157E-02
CGA:   3    -0.128541638059E+04   -0.29106E+00   -0.29104E+00  8540   0.259E+00-0.729E-03
CGA:   4    -0.128546898229E+04   -0.52602E-01   -0.52542E-01  8540   0.459E-01-0.633E-03
CGA:   5    -0.128547919464E+04   -0.10212E-01   -0.10216E-01  8540   0.107E-01 0.337E-04
CGA:   6    -0.128548177289E+04   -0.25782E-02   -0.25863E-02  8540   0.261E-02 0.142E-03
CGA:   7    -0.128548249054E+04   -0.71765E-03   -0.71895E-03  8540   0.747E-03 0.600E-04
CGA:   8    -0.128548274350E+04   -0.25296E-03   -0.25570E-03  8540   0.302E-03-0.651E-04
CGA:   9    -0.128548284709E+04   -0.10359E-03   -0.11098E-03  8540   0.151E-03-0.687E-04
CGA:  10    -0.128548288312E+04   -0.36029E-04   -0.36070E-04  8540   0.464E-04-0.437E-05
CGA:  11    -0.128548289846E+04   -0.15342E-04   -0.15457E-04  8540   0.169E-04-0.272E-05
CGA:  12    -0.128548290110E+04   -0.26423E-05   -0.13474E-04  8540   0.500E-04-0.199E-04
CGA:  13    -0.128548291391E+04   -0.12807E-04   -0.12780E-04  8540   0.644E-05-0.373E-06
CGA:  14    -0.128548287774E+04    0.36174E-04   -0.19521E-04  8540   0.162E-03-0.285E-04
CGA:  15    -0.128548291199E+04   -0.34254E-04   -0.39190E-04  8540   0.182E-04 0.140E-04
CGA:  16    -0.128548292314E+04   -0.11145E-04   -0.10908E-04  8540   0.897E-05-0.966E-05
CGA:  17    -0.128548292130E+04    0.18398E-05   -0.85921E-06  8540   0.368E-05 0.562E-05
  88 F= -.12854829E+04 E0= -.12854829E+04  d E =-.120127E-01  mag=   126.0000
       N       E                     dE             d eps       ncg     rms          ort
SDA:   1    -0.127948521539E+04    0.59977E+01    0.00000E+00  8540   0.152E+02 0.000E+00
CGA:   2    -0.128354141540E+04   -0.40562E+01   -0.40583E+01  8540   0.782E+01 0.509E-03
CGA:   3    -0.128514017561E+04   -0.15988E+01   -0.15991E+01  8540   0.128E+01 0.182E-02
CGA:   4    -0.128540110755E+04   -0.26093E+00   -0.26090E+00  8540   0.234E+00-0.135E-03
CGA:   5    -0.128545358096E+04   -0.52473E-01   -0.52575E-01  8540   0.538E-01 0.323E-03
CGA:   6    -0.128546655941E+04   -0.12978E-01   -0.13036E-01  8540   0.131E-01 0.239E-03
CGA:   7    -0.128547019296E+04   -0.36335E-02   -0.36527E-02  8540   0.392E-02 0.102E-03
CGA:   8    -0.128547143337E+04   -0.12404E-02   -0.12440E-02  8540   0.136E-02 0.253E-04
CGA:   9    -0.128547191248E+04   -0.47910E-03   -0.47675E-03  8540   0.455E-03-0.246E-04
CGA:  10    -0.128547204886E+04   -0.13638E-03   -0.14048E-03  8540   0.127E-03 0.324E-04
CGA:  11    -0.128547209159E+04   -0.42731E-04   -0.44305E-04  8540   0.399E-04 0.144E-04
CGA:  12    -0.128547211031E+04   -0.18723E-04   -0.18741E-04  8540   0.227E-04 0.254E-05
CGA:  13    -0.128547212211E+04   -0.11794E-04   -0.11607E-04  8540   0.154E-04 0.345E-05
CGA:  14    -0.128547212843E+04   -0.63186E-05   -0.66717E-05  8540   0.804E-05 0.640E-05
  89 F= -.12854721E+04 E0= -.12854721E+04  d E =0.107929E-01  mag=   126.0000
       N       E                     dE             d eps       ncg     rms          ort
SDA:   1    -0.126258544431E+04    0.22887E+02    0.00000E+00  8540   0.626E+02 0.000E+00
CGA:   2    -0.127729082548E+04   -0.14705E+02   -0.14755E+02  8540   0.294E+02 0.803E-02
CGA:   3    -0.128385516519E+04   -0.65643E+01   -0.65680E+01  8540   0.574E+01 0.345E-01
CGA:   4    -0.128501857340E+04   -0.11634E+01   -0.11632E+01  8540   0.105E+01-0.402E-03
CGA:   5    -0.128525317158E+04   -0.23460E+00   -0.23480E+00  8540   0.246E+00 0.532E-03
CGA:   6    -0.128531291189E+04   -0.59740E-01   -0.59724E-01  8540   0.622E-01-0.186E-03
CGA:   7    -0.128533016923E+04   -0.17257E-01   -0.17287E-01  8540   0.182E-01 0.285E-03
CGA:   8    -0.128533577656E+04   -0.56073E-02   -0.56210E-02  8540   0.614E-02 0.199E-03
CGA:   9    -0.128533794418E+04   -0.21676E-02   -0.21668E-02  8540   0.219E-02-0.393E-04
CGA:  10    -0.128533866833E+04   -0.72415E-03   -0.72844E-03  8540   0.713E-03 0.122E-03
CGA:  11    -0.128533894007E+04   -0.27175E-03   -0.27203E-03  8540   0.275E-03 0.455E-04
CGA:  12    -0.128533906944E+04   -0.12937E-03   -0.12722E-03  8540   0.165E-03 0.304E-04
CGA:  13    -0.128533917923E+04   -0.10978E-03   -0.10848E-03  8540   0.152E-03 0.471E-05
CGA:  14    -0.128533924375E+04   -0.64520E-04   -0.63398E-04  8540   0.853E-04 0.454E-04
CGA:  15    -0.128533930638E+04   -0.62636E-04   -0.67695E-04  8540   0.884E-04-0.231E-04
CGA:  16    -0.128533932207E+04   -0.15682E-04   -0.17710E-04  8540   0.572E-04 0.165E-04
CGA:  17    -0.128533934924E+04   -0.27177E-04   -0.27431E-04  8540   0.399E-04-0.165E-04
CGA:  18    -0.128533938114E+04   -0.31899E-04    0.12417E-04  8540   0.299E-04-0.114E-04
CGA:  19    -0.128533938187E+04   -0.72557E-06   -0.30025E-05  8540   0.176E-04 0.911E-05
  90 F= -.12853394E+04 E0= -.12853394E+04  d E =0.132747E+00  mag=   126.0000
       N       E                     dE             d eps       ncg     rms          ort
SDA:   1    -0.127676485303E+04    0.85745E+01    0.00000E+00  8540   0.257E+02 0.000E+00
CGA:   2    -0.128223141904E+04   -0.54666E+01   -0.54824E+01  8540   0.109E+02 0.672E-02
CGA:   3    -0.128483377417E+04   -0.26024E+01   -0.26031E+01  8540   0.250E+01 0.792E-02
CGA:   4    -0.128534575659E+04   -0.51198E+00   -0.51225E+00  8540   0.459E+00 0.897E-03
CGA:   5    -0.128544673664E+04   -0.10098E+00   -0.10099E+00  8540   0.106E+00-0.163E-03
CGA:   6    -0.128547266964E+04   -0.25933E-01   -0.25880E-01  8540   0.271E-01-0.620E-03
CGA:   7    -0.128548000117E+04   -0.73315E-02   -0.73500E-02  8540   0.768E-02 0.311E-03
CGA:   8    -0.128548226820E+04   -0.22670E-02   -0.22755E-02  8540   0.240E-02 0.238E-03
CGA:   9    -0.128548310256E+04   -0.83436E-03   -0.83347E-03  8540   0.852E-03 0.813E-04
CGA:  10    -0.128548338494E+04   -0.28237E-03   -0.28296E-03  8540   0.278E-03 0.108E-03
CGA:  11    -0.128548347918E+04   -0.94241E-04   -0.95567E-04  8540   0.887E-04 0.625E-04
CGA:  12    -0.128548350136E+04   -0.22188E-04   -0.26297E-04  8540   0.390E-04 0.491E-04
CGA:  13    -0.128548350756E+04   -0.61913E-05   -0.87134E-05  8540   0.215E-04 0.257E-04
  91 F= -.12854835E+04 E0= -.12854835E+04  d E =-.144126E+00  mag=   126.0000
       N       E                     dE             d eps       ncg     rms          ort
SDA:   1    -0.128327375561E+04    0.22097E+01    0.00000E+00  8540   0.567E+01 0.000E+00
CGA:   2    -0.128474509594E+04   -0.14713E+01   -0.14716E+01  8540   0.291E+01 0.156E-02
CGA:   3    -0.128535138657E+04   -0.60629E+00   -0.60625E+00  8540   0.483E+00-0.108E-02
CGA:   4    -0.128544935350E+04   -0.97967E-01   -0.97967E-01  8540   0.880E-01-0.549E-04
CGA:   5    -0.128546924181E+04   -0.19888E-01   -0.19903E-01  8540   0.204E-01 0.176E-03
CGA:   6    -0.128547415995E+04   -0.49181E-02   -0.49222E-02  8540   0.492E-02 0.716E-04
CGA:   7    -0.128547552805E+04   -0.13681E-02   -0.13689E-02  8540   0.145E-02 0.507E-04
CGA:   8    -0.128547599288E+04   -0.46483E-03   -0.46502E-03  8540   0.512E-03-0.789E-05
CGA:   9    -0.128547617789E+04   -0.18501E-03   -0.18767E-03  8540   0.190E-03-0.354E-04
CGA:  10    -0.128547623286E+04   -0.54966E-04   -0.54795E-04  8540   0.538E-04 0.131E-04
CGA:  11    -0.128547625219E+04   -0.19331E-04   -0.19147E-04  8540   0.182E-04 0.522E-05
CGA:  12    -0.128547626155E+04   -0.93623E-05   -0.14604E-04  8540   0.333E-04-0.123E-04
  92 F= -.12854763E+04 E0= -.12854763E+04  d E =0.724601E-02  mag=   126.0000
       N       E                     dE             d eps       ncg     rms          ort
SDA:   1    -0.126252352306E+04    0.22953E+02    0.00000E+00  8540   0.608E+02 0.000E+00
CGA:   2    -0.127758005979E+04   -0.15057E+02   -0.15067E+02  8540   0.300E+02 0.549E-01
CGA:   3    -0.128401923558E+04   -0.64392E+01   -0.64412E+01  8540   0.543E+01 0.475E-02
CGA:   4    -0.128511368044E+04   -0.10944E+01   -0.10942E+01  8540   0.100E+01-0.284E-02
CGA:   5    -0.128533723478E+04   -0.22355E+00   -0.22372E+00  8540   0.234E+00 0.168E-02
CGA:   6    -0.128539382732E+04   -0.56593E-01   -0.56634E-01  8540   0.582E-01 0.655E-03
CGA:   7    -0.128541019468E+04   -0.16367E-01   -0.16372E-01  8540   0.173E-01 0.273E-03
CGA:   8    -0.128541565295E+04   -0.54583E-02   -0.54569E-02  8540   0.594E-02 0.703E-04
CGA:   9    -0.128541777382E+04   -0.21209E-02   -0.21319E-02  8540   0.209E-02-0.185E-03
CGA:  10    -0.128541842273E+04   -0.64891E-03   -0.64631E-03  8540   0.618E-03 0.137E-03
CGA:  11    -0.128541866582E+04   -0.24309E-03   -0.24265E-03  8540   0.236E-03 0.591E-05
CGA:  12    -0.128541878350E+04   -0.11767E-03   -0.16401E-03  8540   0.338E-03-0.121E-03
CGA:  13    -0.128541888292E+04   -0.99427E-04   -0.99441E-04  8540   0.770E-04 0.350E-06
CGA:  14    -0.128541892310E+04   -0.40173E-04   -0.40266E-04  8540   0.568E-04-0.638E-06
CGA:  15    -0.128541897828E+04   -0.55181E-04    0.19717E-04  8540   0.342E-04 0.231E-04
CGA:  16    -0.128541901107E+04   -0.32797E-04   -0.37075E-04  8540   0.595E-04-0.101E-04
CGA:  17    -0.128541905838E+04   -0.47303E-04    0.12479E-04  8540   0.488E-04-0.101E-05
CGA:  18    -0.128541909996E+04   -0.41587E-04    0.37730E-04  8540   0.275E-04-0.130E-04
CGA:  19    -0.128541909828E+04    0.16800E-05   -0.17503E-05  8540   0.186E-04 0.128E-04
  93 F= -.12854191E+04 E0= -.12854191E+04  d E =0.571633E-01  mag=   126.0000
       N       E                     dE             d eps       ncg     rms          ort
SDA:   1    -0.126511052226E+04    0.20309E+02    0.00000E+00  8540   0.579E+02 0.000E+00
CGA:   2    -0.127801929340E+04   -0.12909E+02   -0.12954E+02  8540   0.258E+02 0.813E-01
CGA:   3    -0.128400129077E+04   -0.59820E+01   -0.59834E+01  8540   0.544E+01 0.243E-01
CGA:   4    -0.128510772206E+04   -0.11064E+01   -0.11070E+01  8540   0.101E+01 0.118E-02
CGA:   5    -0.128532833734E+04   -0.22062E+00   -0.22073E+00  8540   0.234E+00 0.323E-03
CGA:   6    -0.128538651598E+04   -0.58179E-01   -0.58118E-01  8540   0.609E-01-0.111E-02
CGA:   7    -0.128540311924E+04   -0.16603E-01   -0.16616E-01  8540   0.175E-01 0.400E-03
CGA:   8    -0.128540843114E+04   -0.53119E-02   -0.53125E-02  8540   0.560E-02 0.517E-03
CGA:   9    -0.128541038802E+04   -0.19569E-02   -0.19519E-02  8540   0.191E-02 0.133E-03
CGA:  10    -0.128541102158E+04   -0.63356E-03   -0.63017E-03  8540   0.598E-03 0.188E-03
CGA:  11    -0.128541123051E+04   -0.20892E-03   -0.20778E-03  8540   0.188E-03 0.100E-03
CGA:  12    -0.128541128790E+04   -0.57389E-04   -0.60037E-04  8540   0.794E-04 0.832E-04
CGA:  13    -0.128541130555E+04   -0.17651E-04   -0.24074E-04  8540   0.468E-04 0.683E-04
CGA:  14    -0.128541131730E+04   -0.11753E-04   -0.12673E-04  8540   0.289E-04 0.321E-04
CGA:  15    -0.128541132340E+04   -0.61017E-05   -0.72765E-05  8540   0.236E-04 0.256E-04
  94 F= -.12854113E+04 E0= -.12854113E+04  d E =0.777488E-02  mag=   126.0000
       N       E                     dE             d eps       ncg     rms          ort
SDA:   1    -0.128166036536E+04    0.37510E+01    0.00000E+00  8540   0.975E+01 0.000E+00
CGA:   2    -0.128421558511E+04   -0.25552E+01   -0.25555E+01  8540   0.499E+01 0.420E-02
CGA:   3    -0.128525141525E+04   -0.10358E+01   -0.10358E+01  8540   0.838E+00-0.252E-02
CGA:   4    -0.128542067615E+04   -0.16926E+00   -0.16922E+00  8540   0.152E+00-0.680E-03
CGA:   5    -0.128545494879E+04   -0.34273E-01   -0.34291E-01  8540   0.352E-01 0.289E-03
CGA:   6    -0.128546347803E+04   -0.85292E-02   -0.85324E-02  8540   0.857E-02 0.772E-04
CGA:   7    -0.128546587606E+04   -0.23980E-02   -0.23980E-02  8540   0.259E-02 0.143E-04
CGA:   8    -0.128546670002E+04   -0.82396E-03   -0.82365E-03  8540   0.938E-03 0.663E-05
CGA:   9    -0.128546703290E+04   -0.33288E-03   -0.33373E-03  8540   0.351E-03-0.118E-04
CGA:  10    -0.128546715165E+04   -0.11875E-03   -0.11763E-03  8540   0.126E-03 0.196E-04
CGA:  11    -0.128546720759E+04   -0.55936E-04   -0.56103E-04  8540   0.679E-04-0.158E-05
CGA:  12    -0.128546724565E+04   -0.38066E-04   -0.41829E-04  8540   0.730E-04-0.119E-04
CGA:  13    -0.128546707339E+04    0.17226E-03   -0.96553E-04  8540   0.811E-03-0.184E-03
CGA:  14    -0.128546722750E+04   -0.15411E-03   -0.18762E-03  8540   0.121E-03 0.101E-03
CGA:  15    -0.128546730194E+04   -0.74445E-04   -0.97701E-04  8540   0.324E-03-0.137E-03
CGA:  16    -0.128546730399E+04   -0.20505E-05   -0.44836E-04  8540   0.590E-04 0.103E-03
CGA:  17    -0.128546730657E+04   -0.25815E-05   -0.12737E-04  8540   0.233E-04 0.273E-04
CGA:  18    -0.128546728510E+04    0.21470E-04   -0.35530E-04  8540   0.313E-03-0.108E-03
CGA:  19    -0.128546730407E+04   -0.18970E-04   -0.55732E-04  8540   0.649E-04 0.101E-03
CGA:  20    -0.128546732508E+04   -0.21003E-04   -0.22359E-04  8540   0.691E-05 0.510E-05
CGA:  21    -0.128546735115E+04   -0.26078E-04    0.78813E-06  8540   0.210E-04-0.833E-05
CGA:  22    -0.128546734562E+04    0.55319E-05   -0.10788E-05  8540   0.100E-04 0.144E-04
  95 F= -.12854673E+04 E0= -.12854673E+04  d E =-.560222E-01  mag=   126.0000
       N       E                     dE             d eps       ncg     rms          ort
SDA:   1    -0.126935226013E+04    0.16115E+02    0.00000E+00  8540   0.448E+02 0.000E+00
CGA:   2    -0.127976109928E+04   -0.10409E+02   -0.10448E+02  8540   0.206E+02 0.246E-02
CGA:   3    -0.128435386437E+04   -0.45928E+01   -0.45979E+01  8540   0.416E+01 0.278E-01
CGA:   4    -0.128520067942E+04   -0.84682E+00   -0.84598E+00  8540   0.783E+00-0.103E-02
CGA:   5    -0.128537234058E+04   -0.17166E+00   -0.17182E+00  8540   0.180E+00 0.453E-03
CGA:   6    -0.128541603960E+04   -0.43699E-01   -0.43823E-01  8540   0.461E-01 0.634E-03
CGA:   7    -0.128542892316E+04   -0.12884E-01   -0.12917E-01  8540   0.135E-01 0.239E-03
CGA:   8    -0.128543316396E+04   -0.42408E-02   -0.42364E-02  8540   0.455E-02-0.523E-04
CGA:   9    -0.128543473897E+04   -0.15750E-02   -0.15716E-02  8540   0.155E-02-0.663E-04
CGA:  10    -0.128543521710E+04   -0.47813E-03   -0.48755E-03  8540   0.461E-03 0.119E-03
CGA:  11    -0.128543537605E+04   -0.15895E-03   -0.16284E-03  8540   0.153E-03 0.586E-04
CGA:  12    -0.128543545004E+04   -0.73991E-04   -0.73603E-04  8540   0.875E-04 0.946E-05
CGA:  13    -0.128543550029E+04   -0.50249E-04   -0.50521E-04  8540   0.660E-04-0.292E-05
CGA:  14    -0.128543551699E+04   -0.16705E-04   -0.19237E-04  8540   0.324E-04 0.251E-04
CGA:  15    -0.128543553137E+04   -0.14376E-04   -0.14964E-04  8540   0.162E-04 0.938E-05
CGA:  16    -0.128543554228E+04   -0.10911E-04   -0.17821E-04  8540   0.361E-04-0.155E-04
CGA:  17    -0.128543554837E+04   -0.60903E-05   -0.81470E-05  8540   0.715E-05 0.109E-04
  96 F= -.12854355E+04 E0= -.12854355E+04  d E =0.317973E-01  mag=   126.0000
       N       E                     dE             d eps       ncg     rms          ort
SDA:   1    -0.128071249855E+04    0.47230E+01    0.00000E+00  8540   0.140E+02 0.000E+00
CGA:   2    -0.128373036884E+04   -0.30179E+01   -0.30249E+01  8540   0.601E+01-0.417E-03
CGA:   3    -0.128514945626E+04   -0.14191E+01   -0.14198E+01  8540   0.136E+01 0.405E-02
CGA:   4    -0.128542804666E+04   -0.27859E+00   -0.27882E+00  8540   0.253E+00 0.724E-03
CGA:   5    -0.128548317809E+04   -0.55131E-01   -0.55176E-01  8540   0.575E-01 0.142E-03
CGA:   6    -0.128549740518E+04   -0.14227E-01   -0.14196E-01  8540   0.150E-01-0.266E-03
CGA:   7    -0.128550141328E+04   -0.40081E-02   -0.40323E-02  8540   0.413E-02 0.253E-03
CGA:   8    -0.128550261428E+04   -0.12010E-02   -0.12159E-02  8540   0.124E-02 0.211E-03
CGA:   9    -0.128550303042E+04   -0.41615E-03   -0.41967E-03  8540   0.401E-03 0.103E-03
CGA:  10    -0.128550315032E+04   -0.11990E-03   -0.12606E-03  8540   0.125E-03 0.947E-04
CGA:  11    -0.128550317707E+04   -0.26743E-04   -0.34814E-04  8540   0.448E-04 0.640E-04
CGA:  12    -0.128550318036E+04   -0.32919E-05   -0.80869E-05  8540   0.232E-04 0.291E-04
  97 F= -.12855032E+04 E0= -.12855032E+04  d E =-.676320E-01  mag=   126.0000
       N       E                     dE             d eps       ncg     rms          ort
SDA:   1    -0.127820692102E+04    0.72963E+01    0.00000E+00  8540   0.188E+02 0.000E+00
CGA:   2    -0.128306163881E+04   -0.48547E+01   -0.48562E+01  8540   0.945E+01 0.888E-02
CGA:   3    -0.128502946983E+04   -0.19678E+01   -0.19679E+01  8540   0.164E+01-0.356E-02
CGA:   4    -0.128536332307E+04   -0.33385E+00   -0.33367E+00  8540   0.300E+00-0.179E-02
CGA:   5    -0.128543046060E+04   -0.67138E-01   -0.67191E-01  8540   0.690E-01 0.535E-03
CGA:   6    -0.128544712465E+04   -0.16664E-01   -0.16698E-01  8540   0.170E-01 0.503E-03
CGA:   7    -0.128545190707E+04   -0.47824E-02   -0.47860E-02  8540   0.507E-02 0.146E-03
CGA:   8    -0.128545355517E+04   -0.16481E-02   -0.16499E-02  8540   0.185E-02-0.915E-04
CGA:   9    -0.128545420082E+04   -0.64566E-03   -0.65125E-03  8540   0.681E-03-0.102E-03
CGA:  10    -0.128545441145E+04   -0.21062E-03   -0.21015E-03  8540   0.214E-03 0.222E-04
CGA:  11    -0.128545449914E+04   -0.87698E-04   -0.88728E-04  8540   0.998E-04-0.114E-04
CGA:  12    -0.128545452843E+04   -0.29283E-04   -0.89786E-04  8540   0.290E-03-0.958E-04
CGA:  13    -0.128545460944E+04   -0.81014E-04   -0.80614E-04  8540   0.503E-04-0.611E-05
CGA:  14    -0.128545461682E+04   -0.73816E-05   -0.10369E-04  8540   0.171E-04 0.230E-04
CGA:  15    -0.128545462683E+04   -0.10007E-04   -0.17822E-04  8540   0.590E-04-0.207E-04
CGA:  16    -0.128545464161E+04   -0.14785E-04   -0.14866E-04  8540   0.754E-05 0.774E-06
CGA:  17    -0.128545464186E+04   -0.24479E-06   -0.12365E-05  8540   0.445E-05 0.533E-05
