       N       E                     dE             d eps       ncg     rms          ort
DAV:   1     0.103950695224E+05    0.10395E+05   -0.42392E+05 10564   0.156E+03
DAV:   2    -0.804151858677E+02   -0.10475E+05   -0.98820E+04 10564   0.479E+02
DAV:   3    -0.151661873970E+04   -0.14362E+04   -0.13359E+04 10564   0.185E+02
DAV:   4    -0.160266853012E+04   -0.86050E+02   -0.83533E+02 10564   0.474E+01
DAV:   5    -0.160524658234E+04   -0.25781E+01   -0.25689E+01 10564   0.877E+00
SDA:   6    -0.737870113888E+03    0.86738E+03   -0.25689E+01 10564   0.288E+04 0.000E+00
CGA:   7    -0.113571258758E+04   -0.39784E+03   -0.39523E+03 10564   0.117E+04-0.194E+02
CGA:   8    -0.116881455892E+04   -0.33102E+02   -0.62085E+02 10564   0.919E+03-0.525E+03
CGA:   9    -0.120577236882E+04   -0.36958E+02   -0.37734E+02 10564   0.438E+03-0.117E+02
CGA:  10    -0.122875504098E+04   -0.22983E+02   -0.27908E+02 10564   0.341E+03-0.518E+02
CGA:  11    -0.125583406485E+04   -0.27079E+02   -0.28509E+02 10564   0.171E+03-0.520E+01
CGA:  12    -0.126733915108E+04   -0.11505E+02   -0.12548E+02 10564   0.564E+02-0.865E+01
CGA:  13    -0.127343415017E+04   -0.60950E+01   -0.62379E+01 10564   0.410E+02-0.149E+00
CGA:  14    -0.127724822690E+04   -0.38141E+01   -0.39249E+01 10564   0.135E+02-0.929E+00
CGA:  15    -0.127835768325E+04   -0.11095E+01   -0.11270E+01 10564   0.101E+02-0.410E+00
CGA:  16    -0.127949278377E+04   -0.11351E+01   -0.11395E+01 10564   0.416E+01-0.264E+00
CGA:  17    -0.127997925255E+04   -0.48647E+00   -0.48345E+00 10564   0.349E+01-0.208E+00
CGA:  18    -0.128044633027E+04   -0.46708E+00   -0.46427E+00 10564   0.307E+01-0.300E+00
CGA:  19    -0.128080228511E+04   -0.35595E+00   -0.34933E+00 10564   0.180E+01-0.352E+00
CGA:  20    -0.128120117198E+04   -0.39889E+00   -0.53114E+00 10564   0.386E+01-0.711E+00
CGA:  21    -0.128143298446E+04   -0.23181E+00   -0.20919E+00 10564   0.146E+01-0.473E+00
CGA:  22    -0.128164072422E+04   -0.20774E+00   -0.20901E+00 10564   0.200E+01-0.272E+00
CGA:  23    -0.128188612836E+04   -0.24540E+00   -0.24231E+00 10564   0.135E+01-0.326E+00
CGA:  24    -0.128199603726E+04   -0.10991E+00   -0.10240E+00 10564   0.523E+00-0.127E+00
CGA:  25    -0.128208210467E+04   -0.86067E-01   -0.88002E-01 10564   0.785E+00-0.638E-01
CGA:  26    -0.128216193201E+04   -0.79827E-01   -0.78340E-01 10564   0.340E+00-0.397E-01
CGA:  27    -0.128219489646E+04   -0.32964E-01   -0.33282E-01 10564   0.216E+00 0.593E-02
CGA:  28    -0.128222359077E+04   -0.28694E-01   -0.29275E-01 10564   0.225E+00 0.313E-01
CGA:  29    -0.128225533777E+04   -0.31747E-01   -0.32936E-01 10564   0.140E+00 0.523E-01
CGA:  30    -0.128227018291E+04   -0.14845E-01   -0.16781E-01 10564   0.811E-01 0.372E-01
CGA:  31    -0.128228061984E+04   -0.10437E-01   -0.11611E-01 10564   0.594E-01 0.346E-01
CGA:  32    -0.128228883976E+04   -0.82199E-02   -0.92567E-02 10564   0.417E-01 0.285E-01
CGA:  33    -0.128229431957E+04   -0.54798E-02   -0.63783E-02 10564   0.261E-01 0.224E-01
CGA:  34    -0.128229842472E+04   -0.41052E-02   -0.40126E-02 10564   0.168E-01 0.745E-02
CGA:  35    -0.128230233111E+04   -0.39064E-02   -0.36709E-02 10564   0.131E-01 0.842E-02
CGA:  36    -0.128230436301E+04   -0.20319E-02   -0.20205E-02 10564   0.144E-01 0.105E-02
CGA:  37    -0.128230814142E+04   -0.37784E-02   -0.33666E-02 10564   0.139E-01 0.558E-02
CGA:  38    -0.128231254770E+04   -0.44063E-02   -0.38653E-02 10564   0.917E-02 0.993E-02
CGA:  39    -0.128231379318E+04   -0.12455E-02   -0.12627E-02 10564   0.637E-02 0.137E-02
CGA:  40    -0.128231542259E+04   -0.16294E-02   -0.15095E-02 10564   0.708E-02 0.206E-02
CGA:  41    -0.128231986623E+04   -0.44436E-02   -0.36385E-02 10564   0.151E-01 0.311E-02
CGA:  42    -0.128233020564E+04   -0.10339E-01   -0.13700E-01 10564   0.639E-01-0.100E-01
CGA:  43    -0.128233540350E+04   -0.51979E-02   -0.49190E-02 10564   0.776E-02-0.291E-02
CGA:  44    -0.128233668367E+04   -0.12802E-02   -0.29043E-02 10564   0.334E-01-0.773E-02
CGA:  45    -0.128233967349E+04   -0.29898E-02   -0.26651E-02 10564   0.465E-02-0.290E-02
CGA:  46    -0.128231134492E+04    0.28329E-01   -0.15399E-01 10564   0.455E+00-0.327E-01
CGA:  47    -0.128234276126E+04   -0.31416E-01   -0.31919E-01 10564   0.392E-01-0.436E-02
CGA:  48    -0.128234724098E+04   -0.44797E-02   -0.47889E-02 10564   0.557E-02 0.160E-02
CGA:  49    -0.128234798746E+04   -0.74648E-03   -0.73970E-03 10564   0.604E-03-0.298E-04
CGA:  50    -0.128234870241E+04   -0.71495E-03    0.98901E-04 10564   0.190E-02-0.748E-04
CGA:  51    -0.128235150088E+04   -0.27985E-02    0.14678E-03 10564   0.215E-02 0.600E-03
CGA:  52    -0.128235465132E+04   -0.31504E-02    0.53799E-03 10564   0.918E-02-0.186E-02
CGA:  53    -0.128235557805E+04   -0.92673E-03   -0.78253E-03 10564   0.937E-03-0.705E-03
CGA:  54    -0.128235583101E+04   -0.25296E-03   -0.24759E-03 10564   0.251E-02-0.533E-03
CGA:  55    -0.128235604351E+04   -0.21250E-03   -0.19097E-03 10564   0.269E-03-0.996E-04
CGA:  56    -0.128235565682E+04    0.38669E-03   -0.34152E-03 10564   0.127E-01-0.705E-03
CGA:  57    -0.128235676407E+04   -0.11073E-02   -0.99624E-03 10564   0.860E-03-0.447E-03
CGA:  58    -0.128235691120E+04   -0.14712E-03   -0.10388E-03 10564   0.417E-03-0.218E-03
CGA:  59    -0.128235719316E+04   -0.28196E-03    0.10984E-03 10564   0.528E-03 0.207E-04
CGA:  60    -0.128235766320E+04   -0.47005E-03    0.24881E-03 10564   0.181E-02-0.309E-03
CGA:  61    -0.128235777459E+04   -0.11139E-03   -0.12547E-03 10564   0.211E-03 0.563E-04
CGA:  62    -0.128235766614E+04    0.10845E-03   -0.18425E-03 10564   0.433E-02-0.537E-03
CGA:  63    -0.128235817210E+04   -0.50596E-03   -0.45249E-03 10564   0.478E-03-0.237E-03
CGA:  64    -0.128235831989E+04   -0.14780E-03   -0.96799E-04 10564   0.145E-02-0.493E-03
CGA:  65    -0.128235843575E+04   -0.11585E-03   -0.99768E-04 10564   0.121E-03-0.663E-04
CGA:  66    -0.128235860218E+04   -0.16643E-03    0.12460E-04 10564   0.242E-03 0.281E-05
CGA:  67    -0.128235906259E+04   -0.46041E-03    0.17830E-04 10564   0.198E-03 0.176E-03
CGA:  68    -0.128235912151E+04   -0.58925E-04   -0.49933E-04 10564   0.633E-03-0.186E-03
CGA:  69    -0.128235917500E+04   -0.53490E-04   -0.48996E-04 10564   0.103E-03-0.206E-04
CGA:  70    -0.128235930819E+04   -0.13319E-03    0.10737E-04 10564   0.235E-03-0.130E-04
CGA:  71    -0.128235973309E+04   -0.42490E-03    0.11292E-04 10564   0.247E-03 0.169E-03
CGA:  72    -0.128235978454E+04   -0.51448E-04   -0.40877E-04 10564   0.166E-03-0.869E-04
CGA:  73    -0.128235994165E+04   -0.15711E-03    0.94305E-05 10564   0.308E-03 0.576E-06
CGA:  74    -0.128236032336E+04   -0.38171E-03    0.36165E-04 10564   0.256E-03 0.376E-04
CGA:  75    -0.128236078673E+04   -0.46337E-03    0.21509E-04 10564   0.130E-03 0.110E-03
CGA:  76    -0.128236101528E+04   -0.22854E-03    0.21970E-04 10564   0.670E-03-0.778E-04
CGA:  77    -0.128236107847E+04   -0.63194E-04   -0.47243E-04 10564   0.557E-04-0.760E-04
CGA:  78    -0.128236113560E+04   -0.57134E-04    0.58643E-05 10564   0.997E-04-0.324E-06
CGA:  79    -0.128236131592E+04   -0.18032E-03    0.56653E-05 10564   0.865E-04 0.503E-04
CGA:  80    -0.128235971942E+04    0.15965E-02   -0.87781E-03 10564   0.284E-01-0.119E-02
CGA:  81    -0.128236161857E+04   -0.18992E-02   -0.18503E-02 10564   0.135E-02 0.316E-04
CGA:  82    -0.128236175037E+04   -0.13179E-03   -0.15738E-03 10564   0.101E-03 0.752E-04
CGA:  83    -0.128236176589E+04   -0.15520E-04   -0.17711E-04 10564   0.346E-04 0.743E-05
CGA:  84    -0.128236183741E+04   -0.71523E-04    0.68645E-05 10564   0.310E-03-0.390E-04
CGA:  85    -0.128236187986E+04   -0.42453E-04   -0.28001E-04 10564   0.647E-04-0.417E-04
CGA:  86    -0.128236199643E+04   -0.11657E-03    0.80566E-05 10564   0.322E-03-0.674E-04
CGA:  87    -0.128236200588E+04   -0.94569E-05   -0.22766E-04 10564   0.466E-04 0.379E-04
CGA:  88    -0.128236202013E+04   -0.14242E-04   -0.12131E-04 10564   0.566E-04-0.123E-04
CGA:  89    -0.128236212803E+04   -0.10790E-03    0.36300E-05 10564   0.275E-03-0.331E-04
CGA:  90    -0.128236217460E+04   -0.46566E-04   -0.32295E-04 10564   0.126E-03-0.512E-04
CGA:  91    -0.128236229886E+04   -0.12426E-03    0.33276E-04 10564   0.495E-03-0.180E-03
CGA:  92    -0.128236231369E+04   -0.14832E-04   -0.37696E-04 10564   0.974E-04 0.748E-04
CGA:  93    -0.128236231965E+04   -0.59602E-05   -0.13666E-04 10564   0.272E-04 0.314E-04
CGA:  94    -0.128236234631E+04   -0.26659E-04    0.14617E-03 10564   0.253E-03-0.552E-04
CGA:  95    -0.128236237143E+04   -0.25118E-04   -0.20736E-04 10564   0.446E-04-0.161E-04
CGA:  96    -0.128236246240E+04   -0.90975E-04    0.32387E-05 10564   0.647E-04-0.165E-04
CGA:  97    -0.128236257072E+04   -0.10832E-03    0.23994E-05 10564   0.269E-03-0.339E-04
CGA:  98    -0.128236259173E+04   -0.21002E-04   -0.21674E-04 10564   0.623E-04 0.257E-05
CGA:  99    -0.128236259674E+04   -0.50114E-05   -0.86850E-05 10564   0.134E-04 0.193E-04
   1 F= -.12823626E+04 E0= -.12823516E+04  d E =-.220683E-01  mag=    47.0000
