       N       E                     dE             d eps       ncg     rms          rms(c)
DAV:   1     0.580966771329E+04    0.58097E+04   -0.20832E+05 16808   0.162E+03
DAV:   2     0.353420697960E+03   -0.54562E+04   -0.49358E+04 16584   0.492E+02
DAV:   3    -0.472719619995E+03   -0.82614E+03   -0.77551E+03 17640   0.201E+02
DAV:   4    -0.516131572771E+03   -0.43412E+02   -0.42836E+02 18320   0.469E+01
DAV:   5    -0.516659702753E+03   -0.52813E+00   -0.52683E+00 18096   0.560E+00    0.121E+02
DAV:   6    -0.452485370103E+03    0.64174E+02   -0.51461E+02 20656   0.878E+01    0.102E+02
DAV:   7    -0.429219064156E+03    0.23266E+02   -0.27319E+02 18336   0.977E+01    0.572E+01
DAV:   8    -0.433274940796E+03   -0.40559E+01   -0.73050E+01 20064   0.322E+01    0.547E+01
DAV:   9    -0.426810656879E+03    0.64643E+01   -0.34901E+01 19680   0.258E+01    0.566E+01
DAV:  10    -0.418064013098E+03    0.87466E+01   -0.28707E+01 18368   0.212E+01    0.339E+01
DAV:  11    -0.421654289204E+03   -0.35903E+01   -0.14025E+01 18824   0.171E+01    0.283E+01
DAV:  12    -0.416997175327E+03    0.46571E+01   -0.47471E+00 17984   0.146E+01    0.167E+01
DAV:  13    -0.416620355813E+03    0.37682E+00   -0.11435E+00 18072   0.473E+00    0.112E+01
DAV:  14    -0.416868475362E+03   -0.24812E+00   -0.55376E-01 18488   0.337E+00    0.104E+01
DAV:  15    -0.416999794692E+03   -0.13132E+00   -0.16827E-01 17560   0.254E+00    0.945E+00
DAV:  16    -0.417109397857E+03   -0.10960E+00   -0.29023E-02 17984   0.762E-01    0.875E+00
DAV:  17    -0.417627161812E+03   -0.51776E+00   -0.41474E-01 19088   0.429E+00    0.617E+00
DAV:  18    -0.417570298837E+03    0.56863E-01   -0.35123E-01 19984   0.407E+00    0.459E+00
DAV:  19    -0.417588686740E+03   -0.18388E-01   -0.98977E-02 17968   0.168E+00    0.303E+00
DAV:  20    -0.417602675778E+03   -0.13989E-01   -0.30873E-02 18288   0.109E+00    0.223E+00
DAV:  21    -0.417605538643E+03   -0.28629E-02   -0.22268E-02 18792   0.113E+00    0.178E+00
DAV:  22    -0.417609605817E+03   -0.40672E-02   -0.11842E-02 19752   0.668E-01    0.927E-01
DAV:  23    -0.417612796676E+03   -0.31909E-02   -0.44539E-03 19016   0.397E-01    0.685E-01
DAV:  24    -0.417613091013E+03   -0.29434E-03   -0.24497E-03 18152   0.383E-01    0.542E-01
DAV:  25    -0.417613763097E+03   -0.67208E-03   -0.69314E-04 18272   0.206E-01    0.349E-01
DAV:  26    -0.417614119427E+03   -0.35633E-03   -0.32305E-04 17856   0.112E-01    0.200E-01
DAV:  27    -0.417614179361E+03   -0.59934E-04   -0.23086E-04 18248   0.126E-01    0.162E-01
DAV:  28    -0.417614195086E+03   -0.15725E-04   -0.68658E-05 15880   0.717E-02    0.102E-01
DAV:  29    -0.417614209836E+03   -0.14750E-04   -0.23776E-05 12544   0.265E-02    0.686E-02
DAV:  30    -0.417614214751E+03   -0.49157E-05   -0.16714E-05 11424   0.288E-02
   1 F= -.41761421E+03 E0= -.41760722E+03  d E =-.417614E+03  mag=    41.0018
       N       E                     dE             d eps       ncg     rms          rms(c)
DAV:   1    -0.417616925468E+03   -0.27156E-02   -0.21732E-02 22320   0.107E+00    0.109E-01
DAV:   2    -0.417617582076E+03   -0.65661E-03   -0.63200E-03 17896   0.183E-01    0.849E-02
DAV:   3    -0.417617639921E+03   -0.57845E-04   -0.34898E-04 17520   0.130E-01    0.107E-01
DAV:   4    -0.417617595013E+03    0.44908E-04   -0.80449E-05 15224   0.772E-02    0.281E-02
DAV:   5    -0.417617595107E+03   -0.93787E-07   -0.13712E-05 10800   0.143E-02
   2 F= -.41761760E+03 E0= -.41761061E+03  d E =-.338036E-02  mag=    41.0001
       N       E                     dE             d eps       ncg     rms          rms(c)
DAV:   1    -0.417553290866E+03    0.64304E-01   -0.30742E+00 21984   0.126E+01    0.127E+00
DAV:   2    -0.417644614422E+03   -0.91324E-01   -0.88724E-01 17984   0.217E+00    0.889E-01
DAV:   3    -0.417651812956E+03   -0.71985E-02   -0.45218E-02 17760   0.130E+00    0.110E+00
DAV:   4    -0.417647011207E+03    0.48017E-02   -0.10096E-02 17680   0.709E-01    0.339E-01
DAV:   5    -0.417647026439E+03   -0.15233E-04   -0.18539E-03 18800   0.193E-01    0.281E-01
DAV:   6    -0.417647121727E+03   -0.95287E-04   -0.11978E-03 18528   0.266E-01    0.294E-01
DAV:   7    -0.417646872553E+03    0.24917E-03   -0.59597E-04 18696   0.198E-01    0.657E-02
DAV:   8    -0.417646906547E+03   -0.33994E-04   -0.16919E-04 18096   0.665E-02    0.556E-02
DAV:   9    -0.417646902402E+03    0.41455E-05   -0.67179E-05 15792   0.658E-02
   3 F= -.41764690E+03 E0= -.41764004E+03  d E =-.293073E-01  mag=    41.0000
       N       E                     dE             d eps       ncg     rms          rms(c)
DAV:   1    -0.417556856179E+03    0.90050E-01   -0.42443E+00 21256   0.134E+01    0.133E+00
DAV:   2    -0.417657626829E+03   -0.10077E+00   -0.97641E-01 17984   0.234E+00    0.975E-01
DAV:   3    -0.417665812513E+03   -0.81857E-02   -0.55725E-02 17768   0.138E+00    0.119E+00
DAV:   4    -0.417660146019E+03    0.56665E-02   -0.11412E-02 18328   0.747E-01    0.368E-01
DAV:   5    -0.417660219621E+03   -0.73602E-04   -0.20184E-03 18800   0.228E-01    0.325E-01
DAV:   6    -0.417660223498E+03   -0.38771E-05   -0.15277E-03 18952   0.310E-01    0.303E-01
DAV:   7    -0.417659995636E+03    0.22786E-03   -0.73093E-04 18776   0.210E-01    0.694E-02
DAV:   8    -0.417660027684E+03   -0.32048E-04   -0.21028E-04 18024   0.644E-02    0.485E-02
DAV:   9    -0.417660028526E+03   -0.84227E-06   -0.74800E-05 15768   0.652E-02
   4 F= -.41766003E+03 E0= -.41765331E+03  d E =-.131261E-01  mag=    41.0000
       N       E                     dE             d eps       ncg     rms          rms(c)
DAV:   1    -0.417656296262E+03    0.37314E-02   -0.87832E-01 19152   0.358E+00    0.327E-01
DAV:   2    -0.417663417094E+03   -0.71208E-02   -0.69413E-02 18432   0.676E-01    0.283E-01
DAV:   3    -0.417663758763E+03   -0.34167E-03   -0.36623E-03 18216   0.395E-01    0.303E-01
DAV:   4    -0.417663374922E+03    0.38384E-03   -0.76012E-04 18952   0.222E-01    0.101E-01
DAV:   5    -0.417663369159E+03    0.57630E-05   -0.19992E-04 19672   0.765E-02    0.960E-02
DAV:   6    -0.417663365813E+03    0.33467E-05   -0.18281E-04 18424   0.111E-01    0.848E-02
DAV:   7    -0.417663345297E+03    0.20515E-04   -0.65631E-05 17224   0.623E-02    0.170E-02
DAV:   8    -0.417663347817E+03   -0.25196E-05   -0.12983E-05 10296   0.231E-02
   5 F= -.41766335E+03 E0= -.41765674E+03  d E =-.331929E-02  mag=    41.0000
       N       E                     dE             d eps       ncg     rms          rms(c)
DAV:   1    -0.417635042882E+03    0.28302E-01   -0.47450E+00 18880   0.772E+00    0.675E-01
DAV:   2    -0.417668339465E+03   -0.33297E-01   -0.32536E-01 18256   0.147E+00    0.587E-01
DAV:   3    -0.417669699976E+03   -0.13605E-02   -0.17308E-02 18144   0.811E-01    0.603E-01
DAV:   4    -0.417668013680E+03    0.16863E-02   -0.31700E-03 19224   0.457E-01    0.184E-01
DAV:   5    -0.417667866417E+03    0.14726E-03   -0.89705E-04 20000   0.119E-01    0.140E-01
DAV:   6    -0.417667980511E+03   -0.11409E-03   -0.58718E-04 19352   0.199E-01    0.205E-01
DAV:   7    -0.417667813477E+03    0.16703E-03   -0.28127E-04 18824   0.143E-01    0.287E-02
DAV:   8    -0.417667830230E+03   -0.16752E-04   -0.62810E-05 17208   0.423E-02    0.384E-02
DAV:   9    -0.417667826406E+03    0.38236E-05   -0.28568E-05 13232   0.399E-02
   6 F= -.41766783E+03 E0= -.41766133E+03  d E =-.447859E-02  mag=    41.0000
       N       E                     dE             d eps       ncg     rms          rms(c)
DAV:   1    -0.417654114252E+03    0.13716E-01   -0.83414E-01 20872   0.500E+00    0.482E-01
DAV:   2    -0.417668569161E+03   -0.14455E-01   -0.13914E-01 18056   0.912E-01    0.393E-01
DAV:   3    -0.417669473346E+03   -0.90418E-03   -0.76089E-03 17512   0.552E-01    0.430E-01
DAV:   4    -0.417668687774E+03    0.78557E-03   -0.14805E-03 18576   0.331E-01    0.129E-01
DAV:   5    -0.417668678849E+03    0.89254E-05   -0.33814E-04 19648   0.720E-02    0.104E-01
DAV:   6    -0.417668705454E+03   -0.26605E-04   -0.19951E-04 18328   0.119E-01    0.122E-01
DAV:   7    -0.417668652096E+03    0.53358E-04   -0.10320E-04 17680   0.866E-02    0.221E-02
DAV:   8    -0.417668657540E+03   -0.54437E-05   -0.27390E-05 13912   0.217E-02
   7 F= -.41766866E+03 E0= -.41766212E+03  d E =-.831134E-03  mag=    41.0000
