       N       E                     dE             d eps       ncg     rms          rms(c)
DAV:   1     0.305791446021E+04    0.30579E+04   -0.25762E+05 11520   0.130E+03
DAV:   2    -0.604076940575E+03   -0.36620E+04   -0.35372E+04 14040   0.298E+02
DAV:   3    -0.862462010150E+03   -0.25839E+03   -0.25581E+03 13992   0.835E+01
DAV:   4    -0.865734433603E+03   -0.32724E+01   -0.32601E+01 14004   0.101E+01
DAV:   5    -0.865791221529E+03   -0.56788E-01   -0.56645E-01 14352   0.123E+00    0.985E+01
DAV:   6    -0.774001226121E+03    0.91790E+02   -0.38639E+02 12912   0.316E+01    0.517E+01
DAV:   7    -0.782173061049E+03   -0.81718E+01   -0.37674E+01 13956   0.112E+01    0.207E+01
DAV:   8    -0.786129726724E+03   -0.39567E+01   -0.23414E+01 14832   0.717E+00    0.137E+01
DAV:   9    -0.788466672666E+03   -0.23369E+01   -0.27188E+01 15096   0.526E+00    0.971E+00
DAV:  10    -0.788587345086E+03   -0.12067E+00   -0.79104E+00 15048   0.399E+00    0.729E+00
DAV:  11    -0.788808030482E+03   -0.22069E+00   -0.19026E+00 14424   0.260E+00    0.543E+00
DAV:  12    -0.789155888066E+03   -0.34786E+00   -0.14158E+00 13752   0.200E+00    0.492E+00
DAV:  13    -0.789336525411E+03   -0.18064E+00   -0.19423E+00 14700   0.151E+00    0.508E+00
DAV:  14    -0.789371273932E+03   -0.34749E-01   -0.10365E+00 14760   0.128E+00    0.272E+00
DAV:  15    -0.789451936836E+03   -0.80663E-01   -0.26970E-01 14280   0.111E+00    0.294E+00
DAV:  16    -0.789466598668E+03   -0.14662E-01   -0.10723E-01 14568   0.648E-01    0.251E+00
DAV:  17    -0.789452061474E+03    0.14537E-01   -0.10748E-01 15408   0.489E-01    0.252E+00
DAV:  18    -0.789450077505E+03    0.19840E-02   -0.23284E-02 12324   0.265E-01    0.243E+00
DAV:  19    -0.789438354044E+03    0.11723E-01   -0.17721E-02 15528   0.278E-01    0.145E+00
DAV:  20    -0.789436428168E+03    0.19259E-02   -0.63198E-02 14916   0.296E-01    0.833E-01
DAV:  21    -0.789441268772E+03   -0.48406E-02   -0.22666E-02 12516   0.240E-01    0.885E-01
DAV:  22    -0.789444707344E+03   -0.34386E-02   -0.65980E-03 13476   0.106E-01    0.128E+00
DAV:  23    -0.789443906295E+03    0.80105E-03   -0.27891E-04 12228   0.435E-02    0.130E+00
DAV:  24    -0.789442721612E+03    0.11847E-02   -0.42156E-03 15072   0.886E-02    0.841E-01
DAV:  25    -0.789443780374E+03   -0.10588E-02   -0.80483E-03 15396   0.168E-01    0.619E-01
DAV:  26    -0.789444128769E+03   -0.34839E-03   -0.47484E-03 13968   0.161E-01    0.499E-01
DAV:  27    -0.789444370495E+03   -0.24173E-03   -0.40423E-03 13956   0.123E-01    0.220E-01
DAV:  28    -0.789444674844E+03   -0.30435E-03   -0.89451E-04 12156   0.623E-02    0.136E-01
DAV:  29    -0.789444778221E+03   -0.10338E-03   -0.62409E-04 12780   0.296E-02    0.108E-01
DAV:  30    -0.789444780816E+03   -0.25951E-05   -0.21493E-04 14940   0.334E-02    0.523E-02
DAV:  31    -0.789444799701E+03   -0.18885E-04   -0.76591E-05 13572   0.177E-02    0.586E-02
DAV:  32    -0.789444822249E+03   -0.22548E-04   -0.25549E-05  9132   0.886E-03    0.706E-02
DAV:  33    -0.789444838804E+03   -0.16555E-04   -0.22245E-05 10896   0.117E-02    0.601E-02
DAV:  34    -0.789444839792E+03   -0.98830E-06   -0.31779E-05 10860   0.106E-02
   1 F= -.78944484E+03 E0= -.78942369E+03  d E =-.789445E+03  mag=     1.9984
       N       E                     dE             d eps       ncg     rms          rms(c)
DAV:   1    -0.789445298307E+03   -0.45950E-03   -0.18173E-05 10104   0.846E-03    0.127E-02
DAV:   2    -0.789445302969E+03   -0.46622E-05   -0.31338E-05  9060   0.935E-03    0.431E-02
DAV:   3    -0.789445298857E+03    0.41116E-05   -0.10404E-05  6552   0.616E-03    0.133E-02
DAV:   4    -0.789445299339E+03   -0.48140E-06   -0.53356E-06  6336   0.351E-03
   2 F= -.78944530E+03 E0= -.78942415E+03  d E =-.459547E-03  mag=     1.9993
       N       E                     dE             d eps       ncg     rms          rms(c)
DAV:   1    -0.789454768179E+03   -0.94693E-02   -0.50742E-03 11808   0.118E-01    0.465E-02
DAV:   2    -0.789454786478E+03   -0.18299E-04   -0.24260E-04 14124   0.274E-02    0.678E-02
DAV:   3    -0.789454776115E+03    0.10363E-04   -0.58264E-05 11424   0.160E-02    0.223E-02
DAV:   4    -0.789454777771E+03   -0.16568E-05   -0.21893E-05  9936   0.101E-02
   3 F= -.78945478E+03 E0= -.78943365E+03  d E =-.947843E-02  mag=     1.9997
       N       E                     dE             d eps       ncg     rms          rms(c)
DAV:   1    -0.789488834505E+03   -0.34058E-01   -0.70728E-02 11736   0.439E-01    0.169E-01
DAV:   2    -0.789489113718E+03   -0.27921E-03   -0.35727E-03 14040   0.102E-01    0.279E-01
DAV:   3    -0.789488932880E+03    0.18084E-03   -0.92455E-04 15060   0.599E-02    0.764E-02
DAV:   4    -0.789488967228E+03   -0.34348E-04   -0.29175E-04 13284   0.371E-02    0.968E-02
DAV:   5    -0.789488947233E+03    0.19995E-04   -0.17585E-04 13500   0.259E-02    0.524E-02
DAV:   6    -0.789488945595E+03    0.16374E-05   -0.64671E-05 12048   0.163E-02
   4 F= -.78948895E+03 E0= -.78946785E+03  d E =-.341678E-01  mag=     1.9999
       N       E                     dE             d eps       ncg     rms          rms(c)
DAV:   1    -0.789553497987E+03   -0.64551E-01   -0.30818E-01 11640   0.920E-01    0.336E-01
DAV:   2    -0.789554538503E+03   -0.10405E-02   -0.14194E-02 14100   0.205E-01    0.540E-01
DAV:   3    -0.789553956542E+03    0.58196E-03   -0.38682E-03 15048   0.118E-01    0.148E-01
DAV:   4    -0.789554087256E+03   -0.13071E-03   -0.97465E-04 12840   0.685E-02    0.182E-01
DAV:   5    -0.789554003790E+03    0.83466E-04   -0.54107E-04 14256   0.489E-02    0.844E-02
DAV:   6    -0.789554009214E+03   -0.54239E-05   -0.24209E-04 13848   0.307E-02    0.774E-02
DAV:   7    -0.789553995732E+03    0.13481E-04   -0.12114E-04 13032   0.221E-02    0.481E-02
DAV:   8    -0.789553997189E+03   -0.14572E-05   -0.69142E-05 11736   0.144E-02
   5 F= -.78955400E+03 E0= -.78953307E+03  d E =-.650516E-01  mag=     1.9999
       N       E                     dE             d eps       ncg     rms          rms(c)
DAV:   1    -0.789623911551E+03   -0.69916E-01   -0.48245E-01 11544   0.115E+00    0.412E-01
DAV:   2    -0.789625763551E+03   -0.18520E-02   -0.26620E-02 14424   0.287E-01    0.891E-01
DAV:   3    -0.789624216030E+03    0.15475E-02   -0.94600E-03 14520   0.173E-01    0.167E-01
DAV:   4    -0.789624636473E+03   -0.42044E-03   -0.18912E-03 12708   0.844E-02    0.223E-01
DAV:   5    -0.789624534749E+03    0.10172E-03   -0.67621E-04 13452   0.557E-02    0.875E-02
DAV:   6    -0.789624552801E+03   -0.18052E-04   -0.48889E-04 14088   0.364E-02    0.117E-01
DAV:   7    -0.789624527257E+03    0.25544E-04   -0.15474E-04 13044   0.258E-02    0.765E-02
DAV:   8    -0.789624518954E+03    0.83031E-05   -0.16319E-04 13476   0.184E-02    0.388E-02
DAV:   9    -0.789624526020E+03   -0.70659E-05   -0.20176E-05  9108   0.108E-02
   6 F= -.78962453E+03 E0= -.78960370E+03  d E =-.705288E-01  mag=     1.9999
       N       E                     dE             d eps       ncg     rms          rms(c)
DAV:   1    -0.789729869910E+03   -0.10535E+00   -0.17920E+00 11520   0.223E+00    0.755E-01
DAV:   2    -0.789736833251E+03   -0.69633E-02   -0.11258E-01 14604   0.584E-01    0.192E+00
DAV:   3    -0.789730153917E+03    0.66793E-02   -0.44045E-02 13992   0.355E-01    0.423E-01
DAV:   4    -0.789731463094E+03   -0.13092E-02   -0.64790E-03 12336   0.146E-01    0.242E-01
DAV:   5    -0.789731432996E+03    0.30098E-04   -0.13959E-03 13632   0.796E-02    0.145E-01
DAV:   6    -0.789731435998E+03   -0.30018E-05   -0.86318E-04 15048   0.537E-02    0.182E-01
DAV:   7    -0.789731357005E+03    0.78993E-04   -0.33600E-04 15000   0.389E-02    0.816E-02
DAV:   8    -0.789731380548E+03   -0.23543E-04   -0.46095E-04 14244   0.282E-02    0.107E-01
DAV:   9    -0.789731360734E+03    0.19814E-04   -0.13878E-04 12012   0.211E-02    0.617E-02
DAV:  10    -0.789731354413E+03    0.63207E-05   -0.47072E-05 11688   0.118E-02
   7 F= -.78973135E+03 E0= -.78971057E+03  d E =-.106828E+00  mag=     1.9999
       N       E                     dE             d eps       ncg     rms          rms(c)
DAV:   1    -0.789863996287E+03   -0.13264E+00   -0.67047E+00 11520   0.433E+00    0.134E+00
DAV:   2    -0.789886826112E+03   -0.22830E-01   -0.41132E-01 14616   0.106E+00    0.325E+00
DAV:   3    -0.789868981945E+03    0.17844E-01   -0.15395E-01 14004   0.620E-01    0.114E+00
DAV:   4    -0.789869572430E+03   -0.59049E-03   -0.23390E-02 12456   0.277E-01    0.429E-01
DAV:   5    -0.789869672045E+03   -0.99614E-04   -0.49918E-03 14376   0.157E-01    0.362E-01
DAV:   6    -0.789869428982E+03    0.24306E-03   -0.26764E-03 14832   0.993E-02    0.288E-01
DAV:   7    -0.789869203118E+03    0.22586E-03   -0.93054E-04 14700   0.697E-02    0.918E-02
DAV:   8    -0.789869258888E+03   -0.55771E-04   -0.60311E-04 13524   0.485E-02    0.144E-01
DAV:   9    -0.789869203883E+03    0.55005E-04   -0.43110E-04 13776   0.372E-02    0.822E-02
DAV:  10    -0.789869199940E+03    0.39429E-05   -0.90620E-05 13512   0.208E-02
   8 F= -.78986920E+03 E0= -.78984831E+03  d E =-.137846E+00  mag=     1.9999
       N       E                     dE             d eps       ncg     rms          rms(c)
DAV:   1    -0.789988556728E+03   -0.11935E+00   -0.16282E+01 11520   0.688E+00    0.223E+00
DAV:   2    -0.790044586877E+03   -0.56030E-01   -0.12006E+00 14712   0.169E+00    0.440E+00
DAV:   3    -0.790016522534E+03    0.28064E-01   -0.43834E-01 14712   0.963E-01    0.238E+00
DAV:   4    -0.790005791924E+03    0.10731E-01   -0.69260E-02 13332   0.482E-01    0.108E+00
DAV:   5    -0.790005281364E+03    0.51056E-03   -0.22510E-02 14532   0.313E-01    0.867E-01
DAV:   6    -0.790004668999E+03    0.61237E-03   -0.15010E-02 14400   0.217E-01    0.591E-01
DAV:   7    -0.790003965104E+03    0.70389E-03   -0.54476E-03 14400   0.147E-01    0.386E-01
DAV:   8    -0.790003850014E+03    0.11509E-03   -0.51196E-03 14160   0.107E-01    0.261E-01
DAV:   9    -0.790003780697E+03    0.69316E-04   -0.19186E-03 12636   0.800E-02    0.188E-01
DAV:  10    -0.790003763842E+03    0.16856E-04   -0.10283E-03 13224   0.487E-02    0.154E-01
DAV:  11    -0.790003737652E+03    0.26190E-04   -0.17579E-04 13776   0.296E-02    0.864E-02
DAV:  12    -0.790003738780E+03   -0.11280E-05   -0.12580E-04 12240   0.165E-02    0.678E-02
DAV:  13    -0.790003736165E+03    0.26146E-05   -0.12291E-04 10272   0.132E-02    0.393E-02
DAV:  14    -0.790003736005E+03    0.16042E-06   -0.34226E-05  7812   0.789E-03
   9 F= -.79000374E+03 E0= -.78998252E+03  d E =-.134536E+00  mag=     1.9999
       N       E                     dE             d eps       ncg     rms          rms(c)
DAV:   1    -0.790060834160E+03   -0.57098E-01   -0.22752E+01 11520   0.833E+00    0.197E+00
DAV:   2    -0.790129546834E+03   -0.68713E-01   -0.11156E+00 13944   0.162E+00    0.389E+00
DAV:   3    -0.790102794370E+03    0.26752E-01   -0.17743E-01 14952   0.793E-01    0.178E+00
DAV:   4    -0.790097488661E+03    0.53057E-02   -0.48880E-02 14040   0.421E-01    0.607E-01
DAV:   5    -0.790097275303E+03    0.21336E-03   -0.10791E-02 13896   0.248E-01    0.396E-01
DAV:   6    -0.790096687973E+03    0.58733E-03   -0.54450E-03 13500   0.144E-01    0.329E-01
DAV:   7    -0.790096844702E+03   -0.15673E-03   -0.71194E-03 14004   0.119E-01    0.504E-01
DAV:   8    -0.790096207384E+03    0.63732E-03   -0.22387E-03 14676   0.882E-02    0.167E-01
DAV:   9    -0.790096372764E+03   -0.16538E-03   -0.17125E-03 13848   0.540E-02    0.224E-01
DAV:  10    -0.790096283430E+03    0.89335E-04   -0.82371E-04 13992   0.394E-02    0.559E-02
DAV:  11    -0.790096316706E+03   -0.33276E-04   -0.12904E-04 12744   0.178E-02    0.851E-02
DAV:  12    -0.790096297792E+03    0.18914E-04   -0.70926E-05  9024   0.123E-02    0.200E-02
DAV:  13    -0.790096305321E+03   -0.75288E-05   -0.47996E-05  9012   0.910E-03
  10 F= -.79009631E+03 E0= -.79007458E+03  d E =-.925693E-01  mag=     1.9999
       N       E                     dE             d eps       ncg     rms          rms(c)
DAV:   1    -0.790108512546E+03   -0.12215E-01   -0.26779E+00 11520   0.282E+00    0.121E+00
DAV:   2    -0.790118090689E+03   -0.95781E-02   -0.12494E-01 13968   0.604E-01    0.129E+00
DAV:   3    -0.790115076313E+03    0.30144E-02   -0.39300E-02 16128   0.377E-01    0.689E-01
DAV:   4    -0.790115102191E+03   -0.25878E-04   -0.78082E-03 13368   0.188E-01    0.638E-01
DAV:   5    -0.790114237886E+03    0.86430E-03   -0.66200E-03 15612   0.135E-01    0.300E-01
DAV:   6    -0.790114350515E+03   -0.11263E-03   -0.31716E-03 13848   0.935E-02    0.317E-01
DAV:   7    -0.790114142611E+03    0.20790E-03   -0.12367E-03 13284   0.650E-02    0.147E-01
DAV:   8    -0.790114164764E+03   -0.22153E-04   -0.82990E-04 14040   0.420E-02    0.119E-01
DAV:   9    -0.790114166474E+03   -0.17107E-05   -0.16642E-04 12276   0.262E-02    0.739E-02
DAV:  10    -0.790114159443E+03    0.70315E-05   -0.13725E-04 12636   0.176E-02    0.462E-02
DAV:  11    -0.790114159064E+03    0.37890E-06   -0.27404E-05  8544   0.108E-02
  11 F= -.79011416E+03 E0= -.79009241E+03  d E =-.178537E-01  mag=     1.9999
       N       E                     dE             d eps       ncg     rms          rms(c)
DAV:   1    -0.790118688226E+03   -0.45288E-02   -0.25568E-01 11568   0.865E-01    0.408E-01
DAV:   2    -0.790119958364E+03   -0.12701E-02   -0.17095E-02 14124   0.213E-01    0.610E-01
DAV:   3    -0.790119279704E+03    0.67866E-03   -0.66523E-03 16056   0.140E-01    0.231E-01
DAV:   4    -0.790119414047E+03   -0.13434E-03   -0.20121E-03 13332   0.800E-02    0.293E-01
DAV:   5    -0.790119197578E+03    0.21647E-03   -0.95263E-04 14652   0.581E-02    0.848E-02
DAV:   6    -0.790119242343E+03   -0.44765E-04   -0.37034E-04 13056   0.336E-02    0.941E-02
DAV:   7    -0.790119236263E+03    0.60799E-05   -0.10396E-04 12696   0.224E-02    0.611E-02
DAV:   8    -0.790119227971E+03    0.82926E-05   -0.98788E-05 11832   0.144E-02
  12 F= -.79011923E+03 E0= -.79009749E+03  d E =-.506891E-02  mag=     1.9999
       N       E                     dE             d eps       ncg     rms          rms(c)
DAV:   1    -0.790123107354E+03   -0.38711E-02   -0.42540E-02 11520   0.371E-01    0.137E-01
DAV:   2    -0.790123387622E+03   -0.28027E-03   -0.37858E-03 14808   0.101E-01    0.382E-01
DAV:   3    -0.790123107139E+03    0.28048E-03   -0.16429E-03 15564   0.651E-02    0.611E-02
DAV:   4    -0.790123169886E+03   -0.62747E-04   -0.23587E-04 12888   0.276E-02    0.674E-02
DAV:   5    -0.790123165496E+03    0.43892E-05   -0.52436E-05 11724   0.160E-02
  13 F= -.79012317E+03 E0= -.79010145E+03  d E =-.393753E-02  mag=     1.9999
       N       E                     dE             d eps       ncg     rms          rms(c)
DAV:   1    -0.790135679446E+03   -0.12510E-01   -0.46540E-01 11520   0.122E+00    0.328E-01
DAV:   2    -0.790138193109E+03   -0.25137E-02   -0.33324E-02 14712   0.282E-01    0.111E+00
DAV:   3    -0.790135823370E+03    0.23697E-02   -0.11584E-02 15468   0.171E-01    0.153E-01
DAV:   4    -0.790136263977E+03   -0.44061E-03   -0.13989E-03 13332   0.617E-02    0.133E-01
DAV:   5    -0.790136264496E+03   -0.51874E-06   -0.27361E-04 13128   0.333E-02    0.581E-02
DAV:   6    -0.790136264732E+03   -0.23586E-06   -0.15975E-04 13920   0.213E-02    0.796E-02
DAV:   7    -0.790136250482E+03    0.14249E-04   -0.56519E-05 12144   0.158E-02    0.550E-02
DAV:   8    -0.790136245211E+03    0.52712E-05   -0.78321E-05 10008   0.123E-02
  14 F= -.79013625E+03 E0= -.79011441E+03  d E =-.130797E-01  mag=     1.9999
       N       E                     dE             d eps       ncg     rms          rms(c)
DAV:   1    -0.790155358367E+03   -0.19108E-01   -0.14146E+00 11520   0.213E+00    0.400E-01
DAV:   2    -0.790159840997E+03   -0.44826E-02   -0.58889E-02 13968   0.396E-01    0.129E+00
DAV:   3    -0.790156712922E+03    0.31281E-02   -0.18843E-02 15012   0.203E-01    0.190E-01
DAV:   4    -0.790157457735E+03   -0.74481E-03   -0.19476E-03 12996   0.815E-02    0.168E-01
DAV:   5    -0.790157432180E+03    0.25555E-04   -0.58461E-04 13128   0.466E-02    0.875E-02
DAV:   6    -0.790157429466E+03    0.27142E-05   -0.31774E-04 13896   0.314E-02    0.128E-01
DAV:   7    -0.790157379726E+03    0.49739E-04   -0.15222E-04 14700   0.252E-02    0.739E-02
DAV:   8    -0.790157380140E+03   -0.41347E-06   -0.21527E-04 13440   0.192E-02    0.574E-02
DAV:   9    -0.790157386907E+03   -0.67669E-05   -0.27168E-05  9804   0.119E-02
  15 F= -.79015739E+03 E0= -.79013543E+03  d E =-.211417E-01  mag=     1.9999
       N       E                     dE             d eps       ncg     rms          rms(c)
DAV:   1    -0.790173223676E+03   -0.15844E-01   -0.73463E+00 11520   0.487E+00    0.186E+00
DAV:   2    -0.790238541918E+03   -0.65318E-01   -0.98347E-01 15552   0.144E+00    0.518E+00
DAV:   3    -0.790183636145E+03    0.54906E-01   -0.46463E-01 15936   0.877E-01    0.208E+00
DAV:   4    -0.790179958054E+03    0.36781E-02   -0.44473E-02 13644   0.404E-01    0.680E-01
DAV:   5    -0.790181218216E+03   -0.12602E-02   -0.17667E-02 13992   0.272E-01    0.574E-01
DAV:   6    -0.790181233644E+03   -0.15428E-04   -0.83907E-03 13512   0.163E-01    0.507E-01
DAV:   7    -0.790180693612E+03    0.54003E-03   -0.24473E-03 14028   0.108E-01    0.288E-01
DAV:   8    -0.790180672657E+03    0.20955E-04   -0.28160E-03 13752   0.785E-02    0.233E-01
DAV:   9    -0.790180648091E+03    0.24566E-04   -0.83413E-04 13620   0.549E-02    0.197E-01
DAV:  10    -0.790180574597E+03    0.73494E-04   -0.71154E-04 14916   0.390E-02    0.865E-02
DAV:  11    -0.790180616758E+03   -0.42161E-04   -0.26211E-04 12264   0.216E-02    0.120E-01
DAV:  12    -0.790180584842E+03    0.31916E-04   -0.23677E-04 11208   0.183E-02    0.347E-02
DAV:  13    -0.790180593608E+03   -0.87666E-05   -0.44389E-05 10236   0.971E-03
  16 F= -.79018059E+03 E0= -.79015830E+03  d E =-.232067E-01  mag=     1.9998
       N       E                     dE             d eps       ncg     rms          rms(c)
DAV:   1    -0.790194186849E+03   -0.13602E-01   -0.91240E-01 11520   0.169E+00    0.916E-01
DAV:   2    -0.790206388753E+03   -0.12202E-01   -0.11932E-01 15084   0.584E-01    0.238E+00
DAV:   3    -0.790194236928E+03    0.12152E-01   -0.55665E-02 15444   0.403E-01    0.562E-01
DAV:   4    -0.790196175858E+03   -0.19389E-02   -0.15012E-02 13416   0.206E-01    0.625E-01
DAV:   5    -0.790195831671E+03    0.34419E-03   -0.35819E-03 12900   0.117E-01    0.375E-01
DAV:   6    -0.790195578783E+03    0.25289E-03   -0.42988E-03 13776   0.843E-02    0.251E-01
DAV:   7    -0.790195714029E+03   -0.13525E-03   -0.68098E-04 12708   0.518E-02    0.267E-01
DAV:   8    -0.790195503532E+03    0.21050E-03   -0.10230E-03 14580   0.420E-02    0.950E-02
DAV:   9    -0.790195547749E+03   -0.44217E-04   -0.15637E-04 12624   0.219E-02    0.530E-02
DAV:  10    -0.790195548521E+03   -0.77264E-06   -0.37694E-05  9108   0.113E-02
  17 F= -.79019555E+03 E0= -.79017335E+03  d E =-.149549E-01  mag=     1.9999
       N       E                     dE             d eps       ncg     rms          rms(c)
DAV:   1    -0.790196542154E+03   -0.99441E-03   -0.17081E-02 11616   0.235E-01    0.958E-02
DAV:   2    -0.790196747114E+03   -0.20496E-03   -0.21339E-03 14880   0.659E-02    0.330E-01
DAV:   3    -0.790196525083E+03    0.22203E-03   -0.99682E-04 15420   0.447E-02    0.374E-02
DAV:   4    -0.790196586075E+03   -0.60992E-04   -0.25558E-04 12828   0.195E-02    0.922E-02
DAV:   5    -0.790196569753E+03    0.16322E-04   -0.81436E-05  9252   0.139E-02    0.276E-02
DAV:   6    -0.790196572099E+03   -0.23463E-05   -0.36394E-05  7896   0.726E-03
  18 F= -.79019657E+03 E0= -.79017439E+03  d E =-.102358E-02  mag=     1.9999
       N       E                     dE             d eps       ncg     rms          rms(c)
DAV:   1    -0.790199684370E+03   -0.31146E-02   -0.14010E-01 11520   0.670E-01    0.141E-01
DAV:   2    -0.790200082953E+03   -0.39858E-03   -0.47058E-03 13812   0.117E-01    0.336E-01
DAV:   3    -0.790199881160E+03    0.20179E-03   -0.14673E-03 15300   0.601E-02    0.682E-02
DAV:   4    -0.790199916151E+03   -0.34991E-04   -0.15096E-04 13104   0.255E-02    0.747E-02
DAV:   5    -0.790199900482E+03    0.15669E-04   -0.70097E-05 11952   0.171E-02    0.284E-02
DAV:   6    -0.790199904243E+03   -0.37612E-05   -0.50654E-05  9960   0.115E-02
  19 F= -.79019990E+03 E0= -.79017763E+03  d E =-.333214E-02  mag=     1.9999
       N       E                     dE             d eps       ncg     rms          rms(c)
DAV:   1    -0.790201228161E+03   -0.13277E-02   -0.21642E-02 11568   0.262E-01    0.646E-02
DAV:   2    -0.790201325729E+03   -0.97568E-04   -0.11246E-03 14028   0.517E-02    0.202E-01
DAV:   3    -0.790201246801E+03    0.78928E-04   -0.39372E-04 14916   0.285E-02    0.268E-02
DAV:   4    -0.790201265534E+03   -0.18733E-04   -0.75717E-05 12372   0.129E-02    0.510E-02
DAV:   5    -0.790201260791E+03    0.47433E-05   -0.23417E-05  7824   0.898E-03
  20 F= -.79020126E+03 E0= -.79017899E+03  d E =-.135655E-02  mag=     1.9999
       N       E                     dE             d eps       ncg     rms          rms(c)
DAV:   1    -0.790204242746E+03   -0.29772E-02   -0.12303E-01 11520   0.620E-01    0.123E-01
DAV:   2    -0.790204677224E+03   -0.43448E-03   -0.50114E-03 13992   0.117E-01    0.407E-01
DAV:   3    -0.790204363466E+03    0.31376E-03   -0.16351E-03 14976   0.622E-02    0.582E-02
DAV:   4    -0.790204421255E+03   -0.57789E-04   -0.18170E-04 13068   0.252E-02    0.575E-02
DAV:   5    -0.790204414364E+03    0.68912E-05   -0.52077E-05 11292   0.147E-02
  21 F= -.79020441E+03 E0= -.79018214E+03  d E =-.315357E-02  mag=     1.9999
       N       E                     dE             d eps       ncg     rms          rms(c)
DAV:   1    -0.790208989038E+03   -0.45678E-02   -0.34392E-01 11520   0.104E+00    0.212E-01
DAV:   2    -0.790210435925E+03   -0.14469E-02   -0.17493E-02 14064   0.203E-01    0.793E-01
DAV:   3    -0.790209207707E+03    0.12282E-02   -0.55273E-03 15144   0.114E-01    0.893E-02
DAV:   4    -0.790209457218E+03   -0.24951E-03   -0.74406E-04 13416   0.409E-02    0.115E-01
DAV:   5    -0.790209447720E+03    0.94976E-05   -0.49108E-04 12936   0.257E-02    0.794E-02
DAV:   6    -0.790209440323E+03    0.73966E-05   -0.66123E-05 12732   0.165E-02
  22 F= -.79020944E+03 E0= -.79018700E+03  d E =-.502596E-02  mag=     1.9999
       N       E                     dE             d eps       ncg     rms          rms(c)
DAV:   1    -0.790206643387E+03    0.28043E-02   -0.95348E+00 11520   0.548E+00    0.126E+00
DAV:   2    -0.790239594865E+03   -0.32951E-01   -0.37582E-01 13968   0.106E+00    0.276E+00
DAV:   3    -0.790220507896E+03    0.19087E-01   -0.61767E-02 14064   0.570E-01    0.773E-01
DAV:   4    -0.790223124850E+03   -0.26170E-02   -0.43843E-02 13620   0.287E-01    0.996E-01
DAV:   5    -0.790222020277E+03    0.11046E-02   -0.99730E-03 13452   0.183E-01    0.525E-01
DAV:   6    -0.790221471773E+03    0.54850E-03   -0.96044E-03 14880   0.128E-01    0.335E-01
DAV:   7    -0.790221907409E+03   -0.43564E-03   -0.21146E-03 12528   0.866E-02    0.457E-01
DAV:   8    -0.790221185965E+03    0.72144E-03   -0.28604E-03 14892   0.736E-02    0.106E-01
DAV:   9    -0.790221444459E+03   -0.25849E-03   -0.55950E-04 12468   0.377E-02    0.179E-01
DAV:  10    -0.790221375387E+03    0.69072E-04   -0.20793E-04 12432   0.257E-02    0.767E-02
DAV:  11    -0.790221378827E+03   -0.34392E-05   -0.12293E-04 12852   0.159E-02    0.295E-02
DAV:  12    -0.790221389193E+03   -0.10366E-04   -0.26492E-05  8832   0.105E-02    0.265E-02
DAV:  13    -0.790221389637E+03   -0.44384E-06   -0.23603E-05  7632   0.742E-03
  23 F= -.79022139E+03 E0= -.79019888E+03  d E =-.119493E-01  mag=     2.0000
       N       E                     dE             d eps       ncg     rms          rms(c)
DAV:   1    -0.790231378861E+03   -0.99897E-02   -0.77265E-01 11520   0.157E+00    0.117E+00
DAV:   2    -0.790260491971E+03   -0.29113E-01   -0.34955E-01 16296   0.831E-01    0.428E+00
DAV:   3    -0.790225971423E+03    0.34521E-01   -0.27205E-01 16176   0.597E-01    0.950E-01
DAV:   4    -0.790230440306E+03   -0.44689E-02   -0.19011E-02 13104   0.239E-01    0.363E-01
DAV:   5    -0.790231298643E+03   -0.85834E-03   -0.64490E-03 13788   0.161E-01    0.418E-01
DAV:   6    -0.790231073762E+03    0.22488E-03   -0.23724E-03 14952   0.968E-02    0.274E-01
DAV:   7    -0.790230925582E+03    0.14818E-03   -0.77999E-04 13968   0.602E-02    0.134E-01
DAV:   8    -0.790230918481E+03    0.71007E-05   -0.55948E-04 13800   0.380E-02    0.965E-02
DAV:   9    -0.790230923547E+03   -0.50663E-05   -0.20052E-04 12864   0.240E-02    0.737E-02
DAV:  10    -0.790230916630E+03    0.69172E-05   -0.53864E-05 10872   0.148E-02
  24 F= -.79023092E+03 E0= -.79020819E+03  d E =-.952699E-02  mag=     1.9997
       N       E                     dE             d eps       ncg     rms          rms(c)
DAV:   1    -0.790231193425E+03   -0.26988E-03   -0.79775E-03 11712   0.161E-01    0.563E-02
DAV:   2    -0.790231250961E+03   -0.57536E-04   -0.48620E-04 14640   0.411E-02    0.155E-01
DAV:   3    -0.790231201668E+03    0.49293E-04   -0.14590E-04 14076   0.249E-02    0.327E-02
DAV:   4    -0.790231209318E+03   -0.76507E-05   -0.60763E-05 11760   0.128E-02
  25 F= -.79023121E+03 E0= -.79020864E+03  d E =-.292688E-03  mag=     1.9999
       N       E                     dE             d eps       ncg     rms          rms(c)
DAV:   1    -0.790232076827E+03   -0.87516E-03   -0.19122E-01 11520   0.760E-01    0.296E-01
DAV:   2    -0.790234508981E+03   -0.24322E-02   -0.30639E-02 15420   0.244E-01    0.123E+00
DAV:   3    -0.790231481144E+03    0.30278E-02   -0.11824E-02 15516   0.172E-01    0.144E-01
DAV:   4    -0.790232178332E+03   -0.69719E-03   -0.12173E-03 12504   0.545E-02    0.924E-02
DAV:   5    -0.790232243208E+03   -0.64877E-04   -0.99218E-05 12504   0.255E-02    0.449E-02
DAV:   6    -0.790232244651E+03   -0.14423E-05   -0.17423E-04 12936   0.150E-02    0.703E-02
DAV:   7    -0.790232242856E+03    0.17948E-05   -0.27201E-05  8916   0.110E-02
  26 F= -.79023224E+03 E0= -.79020958E+03  d E =-.103354E-02  mag=     1.9999
       N       E                     dE             d eps       ncg     rms          rms(c)
DAV:   1    -0.790232489856E+03   -0.24521E-03   -0.38810E-03 11712   0.110E-01    0.153E-01
DAV:   2    -0.790233264171E+03   -0.77432E-03   -0.83192E-03 17796   0.116E-01    0.741E-01
DAV:   3    -0.790232177610E+03    0.10866E-02   -0.43345E-03 16140   0.929E-02    0.102E-01
DAV:   4    -0.790232420632E+03   -0.24302E-03   -0.33770E-04 12360   0.290E-02    0.263E-02
DAV:   5    -0.790232457834E+03   -0.37202E-04   -0.30145E-05 11496   0.131E-02    0.276E-02
DAV:   6    -0.790232458334E+03   -0.50089E-06   -0.97061E-06  8268   0.690E-03
  27 F= -.79023246E+03 E0= -.79020983E+03  d E =-.215478E-03  mag=     1.9999
       N       E                     dE             d eps       ncg     rms          rms(c)
DAV:   1    -0.790232815289E+03   -0.35746E-03   -0.12153E-02 11544   0.191E-01    0.299E-02
DAV:   2    -0.790232843940E+03   -0.28650E-04   -0.32844E-04 13728   0.308E-02    0.787E-02
DAV:   3    -0.790232833379E+03    0.10560E-04   -0.68229E-05 10116   0.138E-02    0.173E-02
DAV:   4    -0.790232834895E+03   -0.15155E-05   -0.96564E-06  7176   0.625E-03
  28 F= -.79023283E+03 E0= -.79021024E+03  d E =-.376561E-03  mag=     2.0000
       N       E                     dE             d eps       ncg     rms          rms(c)
DAV:   1    -0.790234613095E+03   -0.17797E-02   -0.47967E-01 11520   0.120E+00    0.307E-01
DAV:   2    -0.790237742565E+03   -0.31295E-02   -0.33690E-02 14400   0.281E-01    0.129E+00
DAV:   3    -0.790234572914E+03    0.31697E-02   -0.12951E-02 15288   0.176E-01    0.132E-01
DAV:   4    -0.790235206489E+03   -0.63358E-03   -0.13854E-03 13224   0.584E-02    0.134E-01
DAV:   5    -0.790235219910E+03   -0.13421E-04   -0.31999E-04 13656   0.300E-02    0.645E-02
DAV:   6    -0.790235211849E+03    0.80611E-05   -0.90686E-05 13620   0.180E-02
  29 F= -.79023521E+03 E0= -.79021246E+03  d E =-.237695E-02  mag=     1.9999
       N       E                     dE             d eps       ncg     rms          rms(c)
DAV:   1    -0.790235728149E+03   -0.50824E-03   -0.26078E+00 11520   0.280E+00    0.434E-01
DAV:   2    -0.790242428661E+03   -0.67005E-02   -0.73940E-02 13800   0.447E-01    0.106E+00
DAV:   3    -0.790239848057E+03    0.25806E-02   -0.11367E-02 14676   0.195E-01    0.293E-01
DAV:   4    -0.790240057680E+03   -0.20962E-03   -0.28420E-03 13692   0.996E-02    0.290E-01
DAV:   5    -0.790239847468E+03    0.21021E-03   -0.96179E-04 13968   0.628E-02    0.140E-01
DAV:   6    -0.790239802593E+03    0.44875E-04   -0.62468E-04 13908   0.486E-02    0.131E-01
DAV:   7    -0.790239789084E+03    0.13509E-04   -0.41124E-04 14592   0.376E-02    0.132E-01
DAV:   8    -0.790239743465E+03    0.45619E-04   -0.23027E-04 14472   0.271E-02    0.429E-02
DAV:   9    -0.790239755619E+03   -0.12155E-04   -0.67733E-05 12528   0.135E-02    0.518E-02
DAV:  10    -0.790239753610E+03    0.20091E-05   -0.12169E-05  7884   0.853E-03
  30 F= -.79023975E+03 E0= -.79021694E+03  d E =-.454176E-02  mag=     2.0000
       N       E                     dE             d eps       ncg     rms          rms(c)
DAV:   1    -0.790180154159E+03    0.59601E-01   -0.11911E+01 11520   0.612E+00    0.424E+00
DAV:   2    -0.790389582297E+03   -0.20943E+00   -0.40319E+00 16932   0.291E+00    0.866E+00
DAV:   3    -0.790295427890E+03    0.94154E-01   -0.60750E+00 16956   0.178E+00    0.517E+00
DAV:   4    -0.790175545292E+03    0.11988E+00   -0.35646E-01 14592   0.109E+00    0.217E+00
DAV:   5    -0.790160398068E+03    0.15147E-01   -0.11686E-01 14004   0.751E-01    0.181E+00
DAV:   6    -0.790152789586E+03    0.76085E-02   -0.62972E-02 14592   0.485E-01    0.154E+00
DAV:   7    -0.790157523415E+03   -0.47338E-02   -0.35706E-02 12732   0.255E-01    0.146E+00
DAV:   8    -0.790158523424E+03   -0.10000E-02   -0.27384E-03 12156   0.121E-01    0.142E+00
DAV:   9    -0.790157723974E+03    0.79945E-03   -0.17964E-04 13872   0.293E-02    0.142E+00
DAV:  10    -0.790156284328E+03    0.14396E-02   -0.29507E-04 13896   0.413E-02    0.144E+00
DAV:  11    -0.790159892766E+03   -0.36084E-02   -0.96123E-03 15420   0.181E-01    0.109E+00
DAV:  12    -0.790150900796E+03    0.89920E-02   -0.55360E-02 15396   0.601E-01    0.117E+00
DAV:  13    -0.790151268636E+03   -0.36784E-03   -0.20030E-02 12828   0.235E-01    0.119E+00
DAV:  14    -0.790151046707E+03    0.22193E-03   -0.37265E-03 14712   0.120E-01    0.113E+00
DAV:  15    -0.790158463562E+03   -0.74169E-02   -0.79871E-03 15060   0.205E-01    0.803E-01
DAV:  16    -0.790160348504E+03   -0.18849E-02   -0.72359E-03 14064   0.184E-01    0.410E-01
DAV:  17    -0.790160629018E+03   -0.28051E-03   -0.22359E-03 13776   0.106E-01    0.246E-01
DAV:  18    -0.790160497710E+03    0.13131E-03   -0.97484E-04 14172   0.584E-02    0.135E-01
DAV:  19    -0.790160575771E+03   -0.78061E-04   -0.12876E-04 12660   0.253E-02    0.121E-01
DAV:  20    -0.790160566120E+03    0.96513E-05   -0.77001E-05 13020   0.175E-02
  31 F= -.79016057E+03 E0= -.79013835E+03  d E =0.791875E-01  mag=     1.9875
       N       E                     dE             d eps       ncg     rms          rms(c)
DAV:   1    -0.790308267087E+03   -0.14769E+00   -0.93659E+00 11904   0.522E+00    0.642E+00
DAV:   2    -0.790680359988E+03   -0.37209E+00   -0.10549E+01 18144   0.456E+00    0.806E+00
DAV:   3    -0.790449654307E+03    0.23071E+00   -0.13245E+00 16224   0.238E+00    0.571E+00
DAV:   4    -0.790332066320E+03    0.11759E+00   -0.10122E+00 14232   0.121E+00    0.367E+00
DAV:   5    -0.790311142892E+03    0.20923E-01   -0.13808E-01 13620   0.673E-01    0.320E+00
DAV:   6    -0.790281726401E+03    0.29416E-01   -0.85460E-02 14988   0.563E-01    0.264E+00
DAV:   7    -0.790274164226E+03    0.75622E-02   -0.39261E-02 14268   0.479E-01    0.319E+00
DAV:   8    -0.790266752348E+03    0.74119E-02   -0.10352E-02 12780   0.249E-01    0.293E+00
DAV:   9    -0.790224081365E+03    0.42671E-01   -0.61614E-02 18468   0.957E-01    0.235E+00
DAV:  10    -0.790234668513E+03   -0.10587E-01   -0.63317E-02 12936   0.415E-01    0.179E+00
DAV:  11    -0.790239252200E+03   -0.45837E-02   -0.79127E-02 15576   0.386E-01    0.142E+00
DAV:  12    -0.790237521604E+03    0.17306E-02   -0.13712E-02 12984   0.204E-01    0.119E+00
DAV:  13    -0.790234031973E+03    0.34896E-02   -0.33357E-02 16776   0.299E-01    0.106E+00
DAV:  14    -0.790236421480E+03   -0.23895E-02   -0.17250E-02 12660   0.177E-01    0.113E+00
DAV:  15    -0.790234185836E+03    0.22356E-02   -0.41830E-03 13872   0.140E-01    0.337E-01
DAV:  16    -0.790234641257E+03   -0.45542E-03   -0.24507E-03 13200   0.757E-02    0.155E-01
DAV:  17    -0.790234844923E+03   -0.20367E-03   -0.40104E-04 12432   0.398E-02    0.153E-01
DAV:  18    -0.790234837470E+03    0.74527E-05   -0.60781E-04 14544   0.318E-02    0.109E-01
DAV:  19    -0.790234832704E+03    0.47660E-05   -0.37047E-04 12324   0.215E-02    0.523E-02
DAV:  20    -0.790234833642E+03   -0.93784E-06   -0.18737E-05  8472   0.864E-03
  32 F= -.79023483E+03 E0= -.79021092E+03  d E =-.742675E-01  mag=     1.1422
       N       E                     dE             d eps       ncg     rms          rms(c)
DAV:   1    -0.790233979799E+03    0.85291E-03   -0.68813E-02 11568   0.466E-01    0.563E-01
DAV:   2    -0.790245031850E+03   -0.11052E-01   -0.28107E-02 17784   0.422E-01    0.279E+00
DAV:   3    -0.790230765560E+03    0.14266E-01   -0.11917E-02 16452   0.329E-01    0.411E-01
DAV:   4    -0.790233221977E+03   -0.24564E-02   -0.39296E-03 12564   0.105E-01    0.106E-01
DAV:   5    -0.790233610875E+03   -0.38890E-03   -0.51800E-04 14064   0.465E-02    0.123E-01
DAV:   6    -0.790233629249E+03   -0.18374E-04   -0.19880E-04 13560   0.265E-02    0.985E-02
DAV:   7    -0.790233615029E+03    0.14220E-04   -0.13103E-04 11772   0.179E-02    0.462E-02
DAV:   8    -0.790233618146E+03   -0.31172E-05   -0.25208E-05  9420   0.111E-02
  33 F= -.79023362E+03 E0= -.79020970E+03  d E =0.121550E-02  mag=     1.1494
       N       E                     dE             d eps       ncg     rms          rms(c)
DAV:   1    -0.790239645443E+03   -0.60304E-02   -0.90376E-01 11520   0.170E+00    0.118E+00
DAV:   2    -0.790275127320E+03   -0.35482E-01   -0.23526E-01 17268   0.892E-01    0.446E+00
DAV:   3    -0.790234297221E+03    0.40830E-01   -0.30797E-01 17220   0.638E-01    0.114E+00
DAV:   4    -0.790237954148E+03   -0.36569E-02   -0.12880E-02 13128   0.202E-01    0.320E-01
DAV:   5    -0.790239145516E+03   -0.11914E-02   -0.87879E-03 13944   0.137E-01    0.463E-01
DAV:   6    -0.790239110452E+03    0.35065E-04   -0.11552E-03 13848   0.826E-02    0.370E-01
DAV:   7    -0.790238974321E+03    0.13613E-03   -0.13403E-03 13656   0.621E-02    0.335E-01
DAV:   8    -0.790238779454E+03    0.19487E-03   -0.94682E-04 14244   0.487E-02    0.128E-01
DAV:   9    -0.790238879233E+03   -0.99780E-04   -0.42100E-04 12348   0.317E-02    0.154E-01
DAV:  10    -0.790238834670E+03    0.44563E-04   -0.10191E-04 11976   0.200E-02    0.663E-02
DAV:  11    -0.790238842837E+03   -0.81665E-05   -0.66929E-05 11592   0.141E-02
  34 F= -.79023884E+03 E0= -.79021510E+03  d E =-.522469E-02  mag=     1.1269
       N       E                     dE             d eps       ncg     rms          rms(c)
DAV:   1    -0.790238809629E+03    0.25042E-04   -0.15587E-01 11520   0.694E-01    0.238E-01
DAV:   2    -0.790239912621E+03   -0.11030E-02   -0.14862E-02 15120   0.178E-01    0.780E-01
DAV:   3    -0.790238818454E+03    0.10942E-02   -0.78181E-03 15672   0.111E-01    0.126E-01
DAV:   4    -0.790239021483E+03   -0.20303E-03   -0.59904E-04 13692   0.495E-02    0.176E-01
DAV:   5    -0.790238976492E+03    0.44990E-04   -0.91497E-05 13092   0.301E-02    0.871E-02
DAV:   6    -0.790238973345E+03    0.31475E-05   -0.15361E-04 12696   0.195E-02    0.452E-02
DAV:   7    -0.790238978628E+03   -0.52832E-05   -0.12484E-04 11700   0.138E-02    0.604E-02
DAV:   8    -0.790238969876E+03    0.87519E-05   -0.53273E-05  8556   0.972E-03
  35 F= -.79023897E+03 E0= -.79021509E+03  d E =-.127040E-03  mag=     1.1319
       N       E                     dE             d eps       ncg     rms          rms(c)
DAV:   1    -0.790239092700E+03   -0.11407E-03   -0.27441E-02 11520   0.290E-01    0.144E-01
DAV:   2    -0.790239508284E+03   -0.41558E-03   -0.49355E-03 16248   0.111E-01    0.513E-01
DAV:   3    -0.790239009778E+03    0.49851E-03   -0.24596E-03 16392   0.770E-02    0.917E-02
DAV:   4    -0.790239090714E+03   -0.80937E-04   -0.16075E-04 12840   0.240E-02    0.316E-02
DAV:   5    -0.790239100008E+03   -0.92941E-05   -0.31832E-05 10524   0.107E-02
  36 F= -.79023910E+03 E0= -.79021531E+03  d E =-.130132E-03  mag=     1.1311
       N       E                     dE             d eps       ncg     rms          rms(c)
DAV:   1    -0.790239257540E+03   -0.16683E-03   -0.66685E-02 11520   0.444E-01    0.146E-01
DAV:   2    -0.790239880968E+03   -0.62343E-03   -0.33880E-03 14688   0.122E-01    0.638E-01
DAV:   3    -0.790239116077E+03    0.76489E-03   -0.82963E-04 14928   0.829E-02    0.104E-01
DAV:   4    -0.790239316496E+03   -0.20042E-03   -0.33827E-04 12444   0.305E-02    0.348E-02
DAV:   5    -0.790239331076E+03   -0.14580E-04   -0.39035E-05 13056   0.127E-02    0.323E-02
DAV:   6    -0.790239329386E+03    0.16901E-05   -0.40629E-05  8904   0.994E-03
  37 F= -.79023933E+03 E0= -.79021558E+03  d E =-.229378E-03  mag=     1.1331
       N       E                     dE             d eps       ncg     rms          rms(c)
DAV:   1    -0.790239479243E+03   -0.14817E-03   -0.36324E-02 11520   0.329E-01    0.111E-01
DAV:   2    -0.790239896647E+03   -0.41740E-03   -0.21524E-03 15180   0.945E-02    0.518E-01
DAV:   3    -0.790239392114E+03    0.50453E-03   -0.59981E-04 15468   0.655E-02    0.806E-02
DAV:   4    -0.790239507776E+03   -0.11566E-03   -0.20238E-04 12828   0.235E-02    0.240E-02
DAV:   5    -0.790239516365E+03   -0.85891E-05   -0.21237E-05 10752   0.982E-03
  38 F= -.79023952E+03 E0= -.79021573E+03  d E =-.186979E-03  mag=     1.1344
       N       E                     dE             d eps       ncg     rms          rms(c)
DAV:   1    -0.790233631131E+03    0.58766E-02   -0.50679E+00 11520   0.393E+00    0.152E+00
DAV:   2    -0.790290709001E+03   -0.57078E-01   -0.36770E-01 16260   0.121E+00    0.449E+00
DAV:   3    -0.790240886248E+03    0.49823E-01   -0.16929E-01 16680   0.732E-01    0.208E+00
DAV:   4    -0.790237354592E+03    0.35317E-02   -0.22605E-02 13608   0.286E-01    0.930E-01
DAV:   5    -0.790238365101E+03   -0.10105E-02   -0.82328E-03 13956   0.199E-01    0.531E-01
DAV:   6    -0.790239448833E+03   -0.10837E-02   -0.45487E-03 13620   0.130E-01    0.574E-01
DAV:   7    -0.790238795535E+03    0.65330E-03   -0.14395E-03 12720   0.921E-02    0.247E-01
DAV:   8    -0.790239106849E+03   -0.31131E-03   -0.12951E-03 13776   0.726E-02    0.433E-01
DAV:   9    -0.790238886929E+03    0.21992E-03   -0.58247E-04 12444   0.519E-02    0.298E-01
DAV:  10    -0.790238768907E+03    0.11802E-03   -0.25721E-04 16008   0.404E-02    0.161E-01
DAV:  11    -0.790238824532E+03   -0.55625E-04   -0.14437E-04 11856   0.264E-02    0.715E-02
DAV:  12    -0.790238820555E+03    0.39773E-05   -0.44400E-05 10860   0.117E-02
  39 F= -.79023882E+03 E0= -.79021527E+03  d E =0.695810E-03  mag=     1.1072
       N       E                     dE             d eps       ncg     rms          rms(c)
DAV:   1    -0.790239744972E+03   -0.92044E-03   -0.39025E+00 11520   0.350E+00    0.256E+00
DAV:   2    -0.790454115098E+03   -0.21437E+00   -0.96122E-01 17304   0.191E+00    0.866E+00
DAV:   3    -0.790281596090E+03    0.17252E+00   -0.45893E+00 17136   0.129E+00    0.418E+00
DAV:   4    -0.790250146092E+03    0.31450E-01   -0.17246E-01 13776   0.716E-01    0.218E+00
DAV:   5    -0.790240397280E+03    0.97488E-02   -0.75178E-02 13212   0.465E-01    0.202E+00
DAV:   6    -0.790223574474E+03    0.16823E-01   -0.15889E-02 14688   0.334E-01    0.127E+00
DAV:   7    -0.790220283691E+03    0.32908E-02   -0.25558E-02 14076   0.243E-01    0.927E-01
DAV:   8    -0.790224073325E+03   -0.37896E-02   -0.43008E-03 12168   0.119E-01    0.118E+00
DAV:   9    -0.790219104871E+03    0.49685E-02   -0.17126E-02 12912   0.987E-02    0.426E-01
DAV:  10    -0.790219984894E+03   -0.88002E-03   -0.29650E-03 13200   0.890E-02    0.228E-01
DAV:  11    -0.790221857518E+03   -0.18726E-02   -0.74496E-03 13524   0.120E-01    0.809E-01
DAV:  12    -0.790220501199E+03    0.13563E-02   -0.42433E-03 13428   0.956E-02    0.441E-01
DAV:  13    -0.790220172289E+03    0.32891E-03   -0.19550E-03 13932   0.655E-02    0.246E-01
DAV:  14    -0.790220255157E+03   -0.82868E-04   -0.10356E-03 13260   0.495E-02    0.121E-01
DAV:  15    -0.790220316558E+03   -0.61400E-04   -0.15079E-04 12120   0.241E-02    0.851E-02
DAV:  16    -0.790220309750E+03    0.68081E-05   -0.84330E-05 10020   0.123E-02
  40 F= -.79022031E+03 E0= -.79019438E+03  d E =0.185108E-01  mag=     1.5936
       N       E                     dE             d eps       ncg     rms          rms(c)
DAV:   1    -0.790226603695E+03   -0.62871E-02   -0.12569E+00 11520   0.199E+00    0.102E+00
DAV:   2    -0.790285441364E+03   -0.58838E-01   -0.27957E-01 16692   0.835E-01    0.325E+00
DAV:   3    -0.790228847421E+03    0.56594E-01   -0.76180E-02 17100   0.586E-01    0.134E+00
DAV:   4    -0.790226228384E+03    0.26190E-02   -0.15255E-02 13308   0.217E-01    0.502E-01
DAV:   5    -0.790227309213E+03   -0.10808E-02   -0.50702E-03 14160   0.149E-01    0.438E-01
DAV:   6    -0.790228748924E+03   -0.14397E-02   -0.10539E-02 15036   0.100E-01    0.748E-01
DAV:   7    -0.790228377068E+03    0.37186E-03   -0.54871E-04 12024   0.559E-02    0.736E-01
DAV:   8    -0.790226739226E+03    0.16378E-02   -0.46976E-03 13320   0.734E-02    0.476E-01
DAV:   9    -0.790226886727E+03   -0.14750E-03   -0.57068E-03 14280   0.969E-02    0.286E-01
DAV:  10    -0.790227233057E+03   -0.34633E-03   -0.56376E-04 12204   0.564E-02    0.243E-01
DAV:  11    -0.790227078495E+03    0.15456E-03   -0.20364E-04 13440   0.272E-02    0.110E-01
DAV:  12    -0.790227094150E+03   -0.15655E-04   -0.12505E-04 13596   0.198E-02    0.663E-02
DAV:  13    -0.790227113140E+03   -0.18990E-04   -0.12145E-04 11328   0.189E-02    0.861E-02
DAV:  14    -0.790227098065E+03    0.15075E-04   -0.71946E-05  8988   0.122E-02    0.323E-02
DAV:  15    -0.790227098712E+03   -0.64699E-06   -0.21196E-05  7872   0.665E-03
  41 F= -.79022710E+03 E0= -.79020110E+03  d E =-.678896E-02  mag=     1.5933
       N       E                     dE             d eps       ncg     rms          rms(c)
DAV:   1    -0.790228478340E+03   -0.13803E-02   -0.21531E-01 11520   0.827E-01    0.456E-01
DAV:   2    -0.790231733242E+03   -0.32549E-02   -0.35369E-02 15828   0.324E-01    0.133E+00
DAV:   3    -0.790228096287E+03    0.36370E-02   -0.12032E-02 15564   0.230E-01    0.428E-01
DAV:   4    -0.790228860995E+03   -0.76471E-03   -0.51477E-03 12504   0.848E-02    0.366E-01
DAV:   5    -0.790229582827E+03   -0.72183E-03   -0.50506E-04 14412   0.486E-02    0.518E-01
DAV:   6    -0.790228613668E+03    0.96916E-03   -0.16802E-03 12108   0.516E-02    0.372E-01
DAV:   7    -0.790228295934E+03    0.31773E-03   -0.82965E-04 13452   0.499E-02    0.172E-01
DAV:   8    -0.790228508784E+03   -0.21285E-03   -0.44595E-04 12132   0.441E-02    0.666E-02
DAV:   9    -0.790228565737E+03   -0.56953E-04   -0.24943E-04 13344   0.239E-02    0.109E-01
DAV:  10    -0.790228533887E+03    0.31850E-04   -0.98890E-05 10236   0.171E-02    0.392E-02
DAV:  11    -0.790228537418E+03   -0.35309E-05   -0.35344E-05  9192   0.943E-03
  42 F= -.79022854E+03 E0= -.79020276E+03  d E =-.143871E-02  mag=     1.5988
       N       E                     dE             d eps       ncg     rms          rms(c)
DAV:   1    -0.790229377424E+03   -0.84354E-03   -0.37978E-01 11520   0.110E+00    0.346E-01
DAV:   2    -0.790252638744E+03   -0.23261E-01   -0.76080E-02 15540   0.326E-01    0.326E+00
DAV:   3    -0.790223462108E+03    0.29177E-01   -0.12739E-01 14412   0.273E-01    0.399E-01
DAV:   4    -0.790230025385E+03   -0.65633E-02   -0.28822E-03 11772   0.104E-01    0.368E-01
DAV:   5    -0.790229934873E+03    0.90512E-04   -0.30918E-04 12972   0.364E-02    0.301E-01
DAV:   6    -0.790229500412E+03    0.43446E-03   -0.55105E-04 13788   0.402E-02    0.121E-01
DAV:   7    -0.790229666848E+03   -0.16644E-03   -0.33151E-04 12456   0.355E-02    0.731E-02
DAV:   8    -0.790229683493E+03   -0.16645E-04   -0.81747E-05 11916   0.210E-02    0.561E-02
DAV:   9    -0.790229674078E+03    0.94149E-05   -0.63418E-05 11280   0.150E-02
  43 F= -.79022967E+03 E0= -.79020402E+03  d E =-.113666E-02  mag=     1.6062
       N       E                     dE             d eps       ncg     rms          rms(c)
DAV:   1    -0.790160992815E+03    0.68691E-01   -0.35981E+01 11520   0.108E+01    0.245E+00
DAV:   2    -0.790558741039E+03   -0.39775E+00   -0.11569E+00 14376   0.220E+00    0.921E+00
DAV:   3    -0.790219311338E+03    0.33943E+00   -0.25071E+00 14616   0.109E+00    0.318E+00
DAV:   4    -0.790218953192E+03    0.35815E-03   -0.10696E-01 14460   0.807E-01    0.139E+00
DAV:   5    -0.790220729622E+03   -0.17764E-02   -0.54409E-02 13980   0.468E-01    0.120E+00
DAV:   6    -0.790232058020E+03   -0.11328E-01   -0.35991E-02 13428   0.227E-01    0.210E+00
DAV:   7    -0.790217121253E+03    0.14937E-01   -0.15005E-02 13164   0.207E-01    0.164E+00
DAV:   8    -0.790227211502E+03   -0.10090E-01   -0.21090E-02 15204   0.310E-01    0.322E+00
DAV:   9    -0.790204983977E+03    0.22228E-01   -0.54616E-02 13152   0.369E-01    0.734E-01
DAV:  10    -0.790215290471E+03   -0.10306E-01   -0.10598E-02 13692   0.225E-01    0.117E+00
DAV:  11    -0.790212752034E+03    0.25384E-02   -0.11487E-02 13284   0.186E-01    0.780E-01
DAV:  12    -0.790209960023E+03    0.27920E-02   -0.35362E-03 13392   0.136E-01    0.367E-01
DAV:  13    -0.790210153246E+03   -0.19322E-03   -0.14074E-03 13620   0.787E-02    0.384E-01
DAV:  14    -0.790210145431E+03    0.78147E-05   -0.76534E-04 12132   0.606E-02    0.174E-01
DAV:  15    -0.790210245017E+03   -0.99585E-04   -0.23114E-04 12480   0.273E-02    0.253E-01
DAV:  16    -0.790210066753E+03    0.17826E-03   -0.19330E-04 13020   0.273E-02    0.498E-02
DAV:  17    -0.790210133522E+03   -0.66770E-04   -0.58354E-05 12276   0.161E-02    0.505E-02
DAV:  18    -0.790210141743E+03   -0.82211E-05   -0.24829E-05  9132   0.116E-02
  44 F= -.79021014E+03 E0= -.79018422E+03  d E =0.195323E-01  mag=     1.6297
       N       E                     dE             d eps       ncg     rms          rms(c)
DAV:   1    -0.790217916233E+03   -0.77827E-02   -0.47982E+00 11520   0.388E+00    0.206E+00
DAV:   2    -0.790422411561E+03   -0.20450E+00   -0.82357E-01 15792   0.138E+00    0.853E+00
DAV:   3    -0.790223285014E+03    0.19913E+00   -0.21183E+00 15912   0.936E-01    0.304E+00
DAV:   4    -0.790222332929E+03    0.95209E-03   -0.14198E-01 13920   0.626E-01    0.110E+00
DAV:   5    -0.790225851127E+03   -0.35182E-02   -0.35424E-02 13476   0.379E-01    0.109E+00
DAV:   6    -0.790229852933E+03   -0.40018E-02   -0.12482E-02 14052   0.195E-01    0.111E+00
DAV:   7    -0.790224276755E+03    0.55762E-02   -0.78772E-03 12228   0.119E-01    0.854E-01
DAV:   8    -0.790219220556E+03    0.50562E-02   -0.98576E-03 14808   0.203E-01    0.733E-01
DAV:   9    -0.790220405367E+03   -0.11848E-02   -0.69190E-03 13440   0.169E-01    0.639E-01
DAV:  10    -0.790219773619E+03    0.63175E-03   -0.32660E-03 13056   0.122E-01    0.297E-01
DAV:  11    -0.790220237588E+03   -0.46397E-03   -0.15175E-03 13188   0.734E-02    0.330E-01
DAV:  12    -0.790219992257E+03    0.24533E-03   -0.78226E-04 14304   0.714E-02    0.259E-01
DAV:  13    -0.790219934181E+03    0.58075E-04   -0.61756E-04 12588   0.449E-02    0.124E-01
DAV:  14    -0.790219904134E+03    0.30047E-04   -0.16407E-04 12432   0.236E-02    0.462E-02
DAV:  15    -0.790219925560E+03   -0.21426E-04   -0.50468E-05 10068   0.142E-02    0.390E-02
DAV:  16    -0.790219921955E+03    0.36054E-05   -0.27055E-05  8472   0.795E-03
  45 F= -.79021992E+03 E0= -.79019459E+03  d E =-.978021E-02  mag=     1.6453
       N       E                     dE             d eps       ncg     rms          rms(c)
DAV:   1    -0.790235047205E+03   -0.15122E-01   -0.36141E+00 11520   0.342E+00    0.237E+00
DAV:   2    -0.790455450636E+03   -0.22040E+00   -0.31126E+00 18096   0.208E+00    0.393E+00
DAV:   3    -0.790304058180E+03    0.15139E+00   -0.17346E-01 17832   0.117E+00    0.235E+00
DAV:   4    -0.790271391079E+03    0.32667E-01   -0.64128E-02 14160   0.490E-01    0.194E+00
DAV:   5    -0.790243569646E+03    0.27821E-01   -0.17213E-02 14100   0.352E-01    0.159E+00
DAV:   6    -0.790228369916E+03    0.15200E-01   -0.88143E-03 13980   0.276E-01    0.475E-01
DAV:   7    -0.790231237955E+03   -0.28680E-02   -0.68511E-03 13092   0.149E-01    0.586E-01
DAV:   8    -0.790231561742E+03   -0.32379E-03   -0.10850E-03 15000   0.836E-02    0.679E-01
DAV:   9    -0.790230463503E+03    0.10982E-02   -0.11932E-03 12132   0.758E-02    0.502E-01
DAV:  10    -0.790229598875E+03    0.86463E-03   -0.44082E-03 15024   0.705E-02    0.354E-01
DAV:  11    -0.790230133986E+03   -0.53511E-03   -0.49474E-03 12756   0.875E-02    0.279E-01
DAV:  12    -0.790230243330E+03   -0.10934E-03   -0.54642E-04 13032   0.460E-02    0.282E-01
DAV:  13    -0.790229941596E+03    0.30173E-03   -0.12559E-03 14796   0.409E-02    0.106E-01
DAV:  14    -0.790230014369E+03   -0.72773E-04   -0.16097E-04 12420   0.211E-02    0.102E-01
DAV:  15    -0.790229978225E+03    0.36144E-04   -0.10206E-04  9072   0.137E-02    0.219E-02
DAV:  16    -0.790229986959E+03   -0.87345E-05   -0.19606E-05  8340   0.753E-03
  46 F= -.79022999E+03 E0= -.79020437E+03  d E =-.100650E-01  mag=     1.6248
       N       E                     dE             d eps       ncg     rms          rms(c)
DAV:   1    -0.790229391135E+03    0.58709E-03   -0.70183E-01 11520   0.149E+00    0.507E-01
DAV:   2    -0.790234335025E+03   -0.49439E-02   -0.24598E-02 14328   0.283E-01    0.106E+00
DAV:   3    -0.790230975558E+03    0.33595E-02   -0.89947E-03 16020   0.193E-01    0.675E-01
DAV:   4    -0.790231112718E+03   -0.13716E-03   -0.11160E-02 14112   0.149E-01    0.609E-01
DAV:   5    -0.790230932726E+03    0.17999E-03   -0.35577E-03 13500   0.882E-02    0.390E-01
DAV:   6    -0.790230404530E+03    0.52820E-03   -0.82376E-04 12192   0.405E-02    0.265E-01
DAV:   7    -0.790230272400E+03    0.13213E-03   -0.49506E-04 15240   0.400E-02    0.144E-01
DAV:   8    -0.790230344651E+03   -0.72251E-04   -0.37841E-04 13752   0.354E-02    0.110E-01
DAV:   9    -0.790230366867E+03   -0.22216E-04   -0.14341E-04 13068   0.253E-02    0.796E-02
DAV:  10    -0.790230355735E+03    0.11132E-04   -0.56513E-05 11616   0.158E-02    0.304E-02
DAV:  11    -0.790230358576E+03   -0.28411E-05   -0.36809E-05  9024   0.100E-02
  47 F= -.79023036E+03 E0= -.79020494E+03  d E =-.371616E-03  mag=     1.6311
       N       E                     dE             d eps       ncg     rms          rms(c)
DAV:   1    -0.790230939528E+03   -0.58379E-03   -0.84241E-02 11520   0.525E-01    0.252E-01
DAV:   2    -0.790233542054E+03   -0.26025E-02   -0.12269E-02 15348   0.168E-01    0.957E-01
DAV:   3    -0.790230691765E+03    0.28503E-02   -0.58622E-03 15984   0.132E-01    0.295E-01
DAV:   4    -0.790231100302E+03   -0.40854E-03   -0.17404E-03 12948   0.639E-02    0.169E-01
DAV:   5    -0.790231523492E+03   -0.42319E-03   -0.33906E-04 13536   0.363E-02    0.382E-01
DAV:   6    -0.790230923767E+03    0.59972E-03   -0.68916E-04 11796   0.415E-02    0.224E-01
DAV:   7    -0.790230934519E+03   -0.10752E-04   -0.24161E-04 12900   0.296E-02    0.882E-02
DAV:   8    -0.790231004421E+03   -0.69902E-04   -0.22915E-04 12024   0.234E-02    0.672E-02
DAV:   9    -0.790231017898E+03   -0.13477E-04   -0.33720E-05 10140   0.140E-02    0.467E-02
DAV:  10    -0.790231013663E+03    0.42349E-05   -0.31173E-05  8040   0.873E-03
  48 F= -.79023101E+03 E0= -.79020553E+03  d E =-.655087E-03  mag=     1.6278
       N       E                     dE             d eps       ncg     rms          rms(c)
DAV:   1    -0.790230998465E+03    0.19433E-04   -0.33620E-02 11520   0.334E-01    0.769E-02
DAV:   2    -0.790231357113E+03   -0.35865E-03   -0.15374E-03 14148   0.616E-02    0.333E-01
DAV:   3    -0.790230991478E+03    0.36564E-03   -0.10364E-03 14316   0.382E-02    0.772E-02
DAV:   4    -0.790231062230E+03   -0.70752E-04   -0.17912E-04 12132   0.231E-02    0.646E-02
DAV:   5    -0.790231075616E+03   -0.13387E-04   -0.29765E-05  9852   0.119E-02    0.769E-02
DAV:   6    -0.790231051686E+03    0.23930E-04   -0.22370E-05  8328   0.766E-03    0.447E-02
DAV:   7    -0.790231048474E+03    0.32128E-05   -0.18654E-05  6852   0.741E-03
  49 F= -.79023105E+03 E0= -.79020553E+03  d E =-.348107E-04  mag=     1.6273
       N       E                     dE             d eps       ncg     rms          rms(c)
DAV:   1    -0.790227840859E+03    0.32108E-02   -0.17375E+00 11520   0.239E+00    0.359E-01
DAV:   2    -0.790238494553E+03   -0.10654E-01   -0.62691E-02 13968   0.391E-01    0.183E+00
DAV:   3    -0.790229290446E+03    0.92041E-02   -0.45384E-02 14736   0.198E-01    0.508E-01
DAV:   4    -0.790230946088E+03   -0.16556E-02   -0.48902E-03 12888   0.113E-01    0.274E-01
DAV:   5    -0.790231556051E+03   -0.60996E-03   -0.12117E-03 12420   0.557E-02    0.418E-01
DAV:   6    -0.790230586199E+03    0.96985E-03   -0.13101E-03 12012   0.463E-02    0.182E-01
DAV:   7    -0.790230638595E+03   -0.52395E-04   -0.57407E-04 13596   0.431E-02    0.116E-01
DAV:   8    -0.790230737027E+03   -0.98433E-04   -0.44390E-04 13704   0.379E-02    0.156E-01
DAV:   9    -0.790230677336E+03    0.59691E-04   -0.43218E-04 13452   0.304E-02    0.525E-02
DAV:  10    -0.790230698628E+03   -0.21292E-04   -0.58872E-05 12012   0.159E-02    0.496E-02
DAV:  11    -0.790230695638E+03    0.29901E-05   -0.21237E-05  7932   0.833E-03
  50 F= -.79023070E+03 E0= -.79020521E+03  d E =0.352836E-03  mag=     1.6264
       N       E                     dE             d eps       ncg     rms          rms(c)
DAV:   1    -0.790225456833E+03    0.52418E-02   -0.31712E+00 11520   0.322E+00    0.964E-01
DAV:   2    -0.790276223227E+03   -0.50766E-01   -0.34188E-01 15564   0.900E-01    0.309E+00
DAV:   3    -0.790229354146E+03    0.46869E-01   -0.77397E-02 15600   0.575E-01    0.110E+00
DAV:   4    -0.790228255694E+03    0.10985E-02   -0.10216E-02 13656   0.192E-01    0.347E-01
DAV:   5    -0.790229338773E+03   -0.10831E-02   -0.23024E-03 13212   0.118E-01    0.257E-01
DAV:   6    -0.790230536596E+03   -0.11978E-02   -0.76746E-04 13020   0.580E-02    0.624E-01
DAV:   7    -0.790229538037E+03    0.99856E-03   -0.11187E-03 12396   0.580E-02    0.500E-01
DAV:   8    -0.790228965339E+03    0.57270E-03   -0.58607E-04 14556   0.459E-02    0.210E-01
DAV:   9    -0.790229274467E+03   -0.30913E-03   -0.84440E-04 13296   0.560E-02    0.199E-01
DAV:  10    -0.790229281866E+03   -0.73987E-05   -0.35996E-04 12120   0.409E-02    0.127E-01
DAV:  11    -0.790229242664E+03    0.39202E-04   -0.14202E-04 14232   0.261E-02    0.357E-02
DAV:  12    -0.790229257188E+03   -0.14524E-04   -0.44767E-05 11916   0.131E-02    0.361E-02
DAV:  13    -0.790229259083E+03   -0.18953E-05   -0.27605E-05  7884   0.795E-03
  51 F= -.79022926E+03 E0= -.79020377E+03  d E =0.143656E-02  mag=     1.6230
       N       E                     dE             d eps       ncg     rms          rms(c)
DAV:   1    -0.790228582067E+03    0.67512E-03   -0.18890E+00 11520   0.248E+00    0.660E-01
DAV:   2    -0.790251780482E+03   -0.23198E-01   -0.13806E-01 14568   0.589E-01    0.296E+00
DAV:   3    -0.790231082649E+03    0.20698E-01   -0.19362E-01 15072   0.390E-01    0.119E+00
DAV:   4    -0.790230884140E+03    0.19851E-03   -0.92685E-03 13020   0.204E-01    0.275E-01
DAV:   5    -0.790232346466E+03   -0.14623E-02   -0.47407E-03 14028   0.960E-02    0.524E-01
DAV:   6    -0.790231600971E+03    0.74549E-03   -0.74220E-04 12192   0.545E-02    0.416E-01
DAV:   7    -0.790230894043E+03    0.70693E-03   -0.25617E-03 14412   0.603E-02    0.176E-01
DAV:   8    -0.790231201037E+03   -0.30699E-03   -0.83137E-04 12912   0.535E-02    0.127E-01
DAV:   9    -0.790231231717E+03   -0.30680E-04   -0.20548E-04 12708   0.340E-02    0.984E-02
DAV:  10    -0.790231217863E+03    0.13854E-04   -0.25474E-04 14400   0.263E-02    0.861E-02
DAV:  11    -0.790231225006E+03   -0.71432E-05   -0.47691E-05 12216   0.161E-02
  52 F= -.79023123E+03 E0= -.79020540E+03  d E =-.196592E-02  mag=     1.6234
       N       E                     dE             d eps       ncg     rms          rms(c)
DAV:   1    -0.790230833699E+03    0.38416E-03   -0.36574E-01 11520   0.110E+00    0.413E-01
DAV:   2    -0.790235266118E+03   -0.44324E-02   -0.36542E-02 16068   0.337E-01    0.146E+00
DAV:   3    -0.790231545859E+03    0.37203E-02   -0.29903E-02 15636   0.238E-01    0.712E-01
DAV:   4    -0.790230886210E+03    0.65965E-03   -0.36521E-03 12972   0.102E-01    0.155E-01
DAV:   5    -0.790231414246E+03   -0.52804E-03   -0.11004E-03 14028   0.517E-02    0.271E-01
DAV:   6    -0.790231276862E+03    0.13738E-03   -0.18894E-04 12216   0.295E-02    0.227E-01
DAV:   7    -0.790231102737E+03    0.17412E-03   -0.57115E-04 14640   0.298E-02    0.129E-01
DAV:   8    -0.790231141397E+03   -0.38660E-04   -0.32842E-04 13140   0.303E-02    0.586E-02
DAV:   9    -0.790231168126E+03   -0.26729E-04   -0.56589E-05 12252   0.183E-02    0.589E-02
DAV:  10    -0.790231158476E+03    0.96503E-05   -0.51071E-05  8940   0.122E-02
  53 F= -.79023116E+03 E0= -.79020555E+03  d E =0.665296E-04  mag=     1.6242
       N       E                     dE             d eps       ncg     rms          rms(c)
DAV:   1    -0.790231425221E+03   -0.25709E-03   -0.91233E-02 11520   0.553E-01    0.296E-01
DAV:   2    -0.790235187193E+03   -0.37620E-02   -0.21896E-02 16848   0.238E-01    0.126E+00
DAV:   3    -0.790230874040E+03    0.43132E-02   -0.10381E-02 16020   0.185E-01    0.453E-01
DAV:   4    -0.790231295788E+03   -0.42175E-03   -0.22828E-03 12564   0.715E-02    0.981E-02
DAV:   5    -0.790231451254E+03   -0.15547E-03   -0.35983E-04 13644   0.406E-02    0.118E-01
DAV:   6    -0.790231504785E+03   -0.53532E-04   -0.12133E-04 12816   0.214E-02    0.147E-01
DAV:   7    -0.790231438135E+03    0.66651E-04   -0.47853E-05 10644   0.124E-02    0.104E-01
DAV:   8    -0.790231404543E+03    0.33592E-04   -0.55051E-05 11556   0.141E-02    0.341E-02
DAV:   9    -0.790231426702E+03   -0.22159E-04   -0.52631E-05 10356   0.133E-02    0.364E-02
DAV:  10    -0.790231428694E+03   -0.19922E-05   -0.13382E-05  7416   0.799E-03
  54 F= -.79023143E+03 E0= -.79020580E+03  d E =-.270218E-03  mag=     1.6239
       N       E                     dE             d eps       ncg     rms          rms(c)
DAV:   1    -0.790231381552E+03    0.45151E-04   -0.29759E-02 11520   0.314E-01    0.446E-02
DAV:   2    -0.790231466702E+03   -0.85150E-04   -0.74331E-04 13776   0.463E-02    0.107E-01
DAV:   3    -0.790231445643E+03    0.21059E-04   -0.19062E-04 11676   0.183E-02    0.760E-02
DAV:   4    -0.790231436800E+03    0.88431E-05   -0.80575E-05  9648   0.133E-02
  55 F= -.79023144E+03 E0= -.79020591E+03  d E =-.810513E-05  mag=     1.6225
       N       E                     dE             d eps       ncg     rms          rms(c)
DAV:   1    -0.790231006608E+03    0.43903E-03   -0.28864E-01 11520   0.981E-01    0.296E-01
DAV:   2    -0.790234096009E+03   -0.30894E-02   -0.22363E-02 15660   0.256E-01    0.123E+00
DAV:   3    -0.790231059237E+03    0.30368E-02   -0.13945E-02 15624   0.174E-01    0.498E-01
DAV:   4    -0.790231355665E+03   -0.29643E-03   -0.19234E-03 13200   0.806E-02    0.279E-01
DAV:   5    -0.790231657911E+03   -0.30225E-03   -0.24423E-04 12048   0.337E-02    0.339E-01
DAV:   6    -0.790231233331E+03    0.42458E-03   -0.41210E-04 13824   0.323E-02    0.181E-01
DAV:   7    -0.790231252711E+03   -0.19380E-04   -0.21609E-04 13668   0.293E-02    0.977E-02
DAV:   8    -0.790231294832E+03   -0.42121E-04   -0.12856E-04 12312   0.224E-02    0.421E-02
DAV:   9    -0.790231308139E+03   -0.13308E-04   -0.36189E-05 11340   0.141E-02    0.430E-02
DAV:  10    -0.790231303021E+03    0.51181E-05   -0.21094E-05  8196   0.979E-03
  56 F= -.79023130E+03 E0= -.79020574E+03  d E =0.133778E-03  mag=     1.6237
       N       E                     dE             d eps       ncg     rms          rms(c)
DAV:   1    -0.790223332321E+03    0.79758E-02   -0.32383E+00 11520   0.329E+00    0.832E-01
DAV:   2    -0.790245837947E+03   -0.22506E-01   -0.16113E-01 14472   0.717E-01    0.253E+00
DAV:   3    -0.790227638310E+03    0.18200E-01   -0.53084E-02 15204   0.437E-01    0.902E-01
DAV:   4    -0.790229049217E+03   -0.14109E-02   -0.22689E-02 13440   0.190E-01    0.529E-01
DAV:   5    -0.790228912172E+03    0.13704E-03   -0.64511E-03 12588   0.129E-01    0.467E-01
DAV:   6    -0.790228925931E+03   -0.13759E-04   -0.13609E-03 13956   0.801E-02    0.369E-01
DAV:   7    -0.790228844430E+03    0.81501E-04   -0.20370E-04 12348   0.293E-02    0.355E-01
DAV:   8    -0.790228596386E+03    0.24804E-03   -0.80166E-04 12588   0.332E-02    0.335E-01
DAV:   9    -0.790228305390E+03    0.29100E-03   -0.94029E-04 16212   0.563E-02    0.242E-01
DAV:  10    -0.790228407258E+03   -0.10187E-03   -0.12795E-03 14328   0.478E-02    0.320E-01
DAV:  11    -0.790228355640E+03    0.51618E-04   -0.62681E-04 13704   0.467E-02    0.174E-01
DAV:  12    -0.790228381574E+03   -0.25934E-04   -0.46315E-04 13692   0.368E-02    0.846E-02
DAV:  13    -0.790228411842E+03   -0.30269E-04   -0.60757E-05 11784   0.191E-02    0.686E-02
DAV:  14    -0.790228408561E+03    0.32817E-05   -0.59991E-05 10104   0.120E-02
  57 F= -.79022841E+03 E0= -.79020290E+03  d E =0.289446E-02  mag=     1.6195
       N       E                     dE             d eps       ncg     rms          rms(c)
DAV:   1    -0.790229420764E+03   -0.10089E-02   -0.14128E+00 11520   0.218E+00    0.817E-01
DAV:   2    -0.790250693737E+03   -0.21273E-01   -0.18936E-01 15240   0.622E-01    0.279E+00
DAV:   3    -0.790234345149E+03    0.16349E-01   -0.17257E-01 15732   0.434E-01    0.146E+00
DAV:   4    -0.790230215676E+03    0.41295E-02   -0.15780E-02 14124   0.238E-01    0.278E-01
DAV:   5    -0.790231504092E+03   -0.12884E-02   -0.52447E-03 12444   0.149E-01    0.419E-01
DAV:   6    -0.790231461629E+03    0.42463E-04   -0.21925E-03 14016   0.856E-02    0.275E-01
DAV:   7    -0.790231885453E+03   -0.42382E-03   -0.51094E-04 12588   0.358E-02    0.392E-01
DAV:   8    -0.790231034495E+03    0.85096E-03   -0.15437E-03 12240   0.469E-02    0.179E-01
DAV:   9    -0.790231130064E+03   -0.95569E-04   -0.45512E-04 14004   0.456E-02    0.101E-01
DAV:  10    -0.790231207116E+03   -0.77051E-04   -0.26478E-04 13452   0.303E-02    0.119E-01
DAV:  11    -0.790231183969E+03    0.23146E-04   -0.38131E-04 13608   0.280E-02    0.794E-02
DAV:  12    -0.790231187958E+03   -0.39887E-05   -0.96530E-05 10752   0.163E-02
  58 F= -.79023119E+03 E0= -.79020566E+03  d E =-.277940E-02  mag=     1.6245
       N       E                     dE             d eps       ncg     rms          rms(c)
DAV:   1    -0.790223288310E+03    0.78957E-02   -0.35107E+00 11520   0.344E+00    0.823E-01
DAV:   2    -0.790234480849E+03   -0.11193E-01   -0.12445E-01 14232   0.649E-01    0.164E+00
DAV:   3    -0.790228695950E+03    0.57849E-02   -0.19651E-02 14880   0.337E-01    0.487E-01
DAV:   4    -0.790230740793E+03   -0.20448E-02   -0.12799E-02 13668   0.172E-01    0.674E-01
DAV:   5    -0.790233029942E+03   -0.22891E-02   -0.27842E-03 12864   0.913E-02    0.979E-01
DAV:   6    -0.790232745785E+03    0.28416E-03   -0.28621E-03 14136   0.120E-01    0.152E+00
DAV:   7    -0.790227467099E+03    0.52787E-02   -0.18817E-03 12768   0.825E-02    0.609E-01
DAV:   8    -0.790228111830E+03   -0.64473E-03   -0.24555E-03 13188   0.104E-01    0.235E-01
DAV:   9    -0.790228901002E+03   -0.78917E-03   -0.14142E-03 12300   0.743E-02    0.238E-01
DAV:  10    -0.790228832958E+03    0.68044E-04   -0.62930E-04 13728   0.496E-02    0.978E-02
DAV:  11    -0.790228883807E+03   -0.50849E-04   -0.43045E-04 13512   0.282E-02    0.131E-01
DAV:  12    -0.790228862021E+03    0.21786E-04   -0.29274E-04 12324   0.240E-02    0.708E-02
DAV:  13    -0.790228850808E+03    0.11213E-04   -0.15923E-04 11184   0.143E-02    0.234E-02
DAV:  14    -0.790228856589E+03   -0.57808E-05   -0.17028E-05  7908   0.632E-03
  59 F= -.79022886E+03 E0= -.79020310E+03  d E =0.233137E-02  mag=     1.6182
       N       E                     dE             d eps       ncg     rms          rms(c)
DAV:   1    -0.790228414462E+03    0.43635E-03   -0.19465E+00 11520   0.256E+00    0.664E-01
DAV:   2    -0.790235830353E+03   -0.74159E-02   -0.62841E-02 14688   0.516E-01    0.175E+00
DAV:   3    -0.790231479937E+03    0.43504E-02   -0.51188E-02 15360   0.272E-01    0.544E-01
DAV:   4    -0.790233195702E+03   -0.17158E-02   -0.13563E-02 13872   0.148E-01    0.747E-01
DAV:   5    -0.790232344753E+03    0.85095E-03   -0.77451E-03 13320   0.115E-01    0.611E-01
DAV:   6    -0.790232912016E+03   -0.56726E-03   -0.76156E-04 12300   0.522E-02    0.656E-01
DAV:   7    -0.790230732877E+03    0.21791E-02   -0.49453E-03 12600   0.687E-02    0.238E-01
DAV:   8    -0.790231125228E+03   -0.39235E-03   -0.78434E-04 13752   0.650E-02    0.113E-01
DAV:   9    -0.790231313171E+03   -0.18794E-03   -0.49006E-04 13164   0.447E-02    0.138E-01
DAV:  10    -0.790231286339E+03    0.26832E-04   -0.13948E-04 13428   0.297E-02    0.894E-02
DAV:  11    -0.790231277295E+03    0.90449E-05   -0.21655E-04 13608   0.206E-02    0.599E-02
DAV:  12    -0.790231280499E+03   -0.32042E-05   -0.52217E-05  9768   0.138E-02
  60 F= -.79023128E+03 E0= -.79020575E+03  d E =-.242391E-02  mag=     1.6227
       N       E                     dE             d eps       ncg     rms          rms(c)
DAV:   1    -0.790226376082E+03    0.49012E-02   -0.18447E+00 11520   0.251E+00    0.722E-01
DAV:   2    -0.790235063493E+03   -0.86874E-02   -0.83765E-02 14940   0.534E-01    0.162E+00
DAV:   3    -0.790228571738E+03    0.64918E-02   -0.18459E-02 15768   0.302E-01    0.360E-01
DAV:   4    -0.790230272944E+03   -0.17012E-02   -0.11227E-02 14136   0.166E-01    0.702E-01
DAV:   5    -0.790230306673E+03   -0.33730E-04   -0.54818E-03 14304   0.124E-01    0.633E-01
DAV:   6    -0.790229652686E+03    0.65399E-03   -0.31966E-03 12756   0.723E-02    0.401E-01
DAV:   7    -0.790229728978E+03   -0.76292E-04   -0.17755E-04 12396   0.294E-02    0.395E-01
DAV:   8    -0.790229213310E+03    0.51567E-03   -0.98938E-04 13848   0.374E-02    0.226E-01
DAV:   9    -0.790229200476E+03    0.12834E-04   -0.34841E-04 14148   0.408E-02    0.188E-01
DAV:  10    -0.790229305771E+03   -0.10530E-03   -0.41543E-04 12576   0.342E-02    0.180E-01
DAV:  11    -0.790229295473E+03    0.10298E-04   -0.19857E-04 13092   0.250E-02    0.145E-01
DAV:  12    -0.790229264955E+03    0.30518E-04   -0.11802E-04 13224   0.213E-02    0.101E-01
DAV:  13    -0.790229267701E+03   -0.27460E-05   -0.17650E-04 11424   0.171E-02    0.668E-02
DAV:  14    -0.790229268049E+03   -0.34760E-06   -0.40296E-05 10248   0.129E-02
  61 F= -.79022927E+03 E0= -.79020369E+03  d E =0.201245E-02  mag=     1.6241
       N       E                     dE             d eps       ncg     rms          rms(c)
DAV:   1    -0.790230608689E+03   -0.13410E-02   -0.69009E-01 11520   0.154E+00    0.499E-01
DAV:   2    -0.790234043245E+03   -0.34346E-02   -0.36353E-02 15084   0.337E-01    0.119E+00
DAV:   3    -0.790231024062E+03    0.30192E-02   -0.11179E-02 15900   0.195E-01    0.228E-01
DAV:   4    -0.790232960425E+03   -0.19364E-02   -0.63637E-03 13848   0.105E-01    0.484E-01
DAV:   5    -0.790233583620E+03   -0.62319E-03   -0.74909E-04 14064   0.675E-02    0.740E-01
DAV:   6    -0.790232181704E+03    0.14019E-02   -0.18642E-03 12408   0.750E-02    0.694E-01
DAV:   7    -0.790230936159E+03    0.12455E-02   -0.10502E-03 14100   0.578E-02    0.220E-01
DAV:   8    -0.790231527600E+03   -0.59144E-03   -0.10134E-03 12516   0.590E-02    0.116E-01
DAV:   9    -0.790231680731E+03   -0.15313E-03   -0.24171E-04 12492   0.364E-02    0.142E-01
DAV:  10    -0.790231618697E+03    0.62034E-04   -0.11614E-04 12840   0.230E-02    0.501E-02
DAV:  11    -0.790231633290E+03   -0.14593E-04   -0.10751E-04 12768   0.145E-02    0.546E-02
DAV:  12    -0.790231632058E+03    0.12321E-05   -0.26753E-05  8832   0.108E-02
  62 F= -.79023163E+03 E0= -.79020607E+03  d E =-.236401E-02  mag=     1.6224
       N       E                     dE             d eps       ncg     rms          rms(c)
DAV:   1    -0.790231606657E+03    0.26634E-04   -0.48390E-02 11544   0.405E-01    0.268E-01
DAV:   2    -0.790234145532E+03   -0.25389E-02   -0.20577E-02 16524   0.197E-01    0.109E+00
DAV:   3    -0.790231496461E+03    0.26491E-02   -0.12066E-02 16224   0.157E-01    0.500E-01
DAV:   4    -0.790231491923E+03    0.45378E-05   -0.23525E-03 13092   0.714E-02    0.113E-01
DAV:   5    -0.790231912943E+03   -0.42102E-03   -0.55576E-04 12588   0.332E-02    0.273E-01
DAV:   6    -0.790231582466E+03    0.33048E-03   -0.38464E-04 12612   0.323E-02    0.185E-01
DAV:   7    -0.790231543913E+03    0.38553E-04   -0.27947E-04 13932   0.289E-02    0.102E-01
DAV:   8    -0.790231578241E+03   -0.34328E-04   -0.21963E-04 11724   0.240E-02    0.343E-02
DAV:   9    -0.790231590539E+03   -0.12299E-04   -0.32860E-05  9696   0.117E-02    0.363E-02
DAV:  10    -0.790231587231E+03    0.33082E-05   -0.18493E-05  7416   0.735E-03
  63 F= -.79023159E+03 E0= -.79020599E+03  d E =0.448269E-04  mag=     1.6241
       N       E                     dE             d eps       ncg     rms          rms(c)
DAV:   1    -0.790231719940E+03   -0.12940E-03   -0.19302E-02 11520   0.257E-01    0.137E-01
DAV:   2    -0.790232502828E+03   -0.78289E-03   -0.38920E-03 16260   0.102E-01    0.583E-01
DAV:   3    -0.790231606280E+03    0.89655E-03   -0.25745E-03 16272   0.801E-02    0.202E-01
DAV:   4    -0.790231720942E+03   -0.11466E-03   -0.63558E-04 12780   0.354E-02    0.501E-02
DAV:   5    -0.790231774170E+03   -0.53228E-04   -0.81980E-05 12780   0.195E-02    0.116E-01
DAV:   6    -0.790231779449E+03   -0.52794E-05   -0.18414E-05  9408   0.967E-03
  64 F= -.79023178E+03 E0= -.79020600E+03  d E =-.192218E-03  mag=     1.6226
