       N       E                     dE             d eps       ncg     rms          ort
DAV:   1     0.840286837986E+04    0.84029E+04   -0.38841E+05  6370   0.184E+03
DAV:   2    -0.111725385288E+03   -0.85146E+04   -0.78286E+04  6370   0.479E+02
DAV:   3    -0.137788488612E+04   -0.12662E+04   -0.12346E+04  6370   0.206E+02
DAV:   4    -0.144406600533E+04   -0.66181E+02   -0.62563E+02  6370   0.465E+01
DAV:   5    -0.144639629886E+04   -0.23303E+01   -0.22722E+01  6370   0.729E+00
SDA:   6    -0.741067666387E+03    0.70533E+03   -0.22722E+01  6370   0.287E+04 0.000E+00
CGA:   7    -0.106863670589E+04   -0.32757E+03   -0.32653E+03  6370   0.540E+03-0.233E+03
CGA:   8    -0.106748768228E+04    0.11490E+01   -0.34624E+02  6370   0.201E+04-0.254E+03
CGA:   9    -0.109640123340E+04   -0.28914E+02   -0.26486E+02  6370   0.624E+03-0.772E+01
CGA:  10    -0.109803221317E+04   -0.16310E+01   -0.26607E+02  6370   0.995E+03-0.684E+03
CGA:  11    -0.107038476267E+04    0.27647E+02   -0.60606E+02  6370   0.149E+04-0.564E+03
CGA:  12    -0.103560832403E+04    0.34776E+02   -0.74062E+02  6370   0.228E+04-0.143E+04
CGA:  13    -0.103256752980E+04    0.30408E+01   -0.10041E+03  6370   0.219E+04-0.172E+04
CGA:  14    -0.102074723404E+04    0.11820E+02   -0.89046E+02  6370   0.343E+04-0.290E+04
CGA:  15    -0.994499689621E+03    0.26248E+02   -0.15342E+03  6370   0.129E+04-0.112E+04
CGA:  16    -0.111759422865E+04   -0.12309E+03   -0.19353E+02  6370   0.801E+03 0.230E+04
CGA:  17    -0.109491634419E+04    0.22678E+02   -0.29442E+02  6370   0.254E+04-0.143E+04
CGA:  18    -0.100595185621E+04    0.88964E+02   -0.12871E+03  6370   0.317E+04-0.137E+04
CGA:  19    -0.987814950024E+03    0.18137E+02   -0.13501E+03  6370   0.286E+04-0.205E+04
CGA:  20    -0.980331468228E+03    0.74835E+01   -0.12899E+03  6370   0.104E+04-0.888E+03
CGA:  21    -0.112154118860E+04   -0.14121E+03   -0.18741E+02  6370   0.576E+03-0.996E+03
CGA:  22    -0.112397491050E+04   -0.24337E+01   -0.16495E+02  6370   0.765E+03-0.609E+03
CGA:  23    -0.111874887753E+04    0.52260E+01   -0.32069E+02  6370   0.586E+03-0.338E+03
CGA:  24    -0.112743906086E+04   -0.86902E+01   -0.69387E+01  6370   0.233E+03 0.178E+03
CGA:  25    -0.111685600802E+04    0.10583E+02   -0.67927E+01  6370   0.111E+04-0.755E+03
CGA:  26    -0.110752898756E+04    0.93270E+01   -0.39825E+02  6370   0.171E+04-0.762E+03
CGA:  27    -0.110601527948E+04    0.15137E+01   -0.51821E+02  6370   0.231E+04-0.205E+04
CGA:  28    -0.107920473400E+04    0.26811E+02   -0.77331E+02  6370   0.227E+04-0.153E+04
CGA:  29    -0.107017025930E+04    0.90345E+01   -0.70893E+02  6370   0.362E+04-0.298E+04
CGA:  30    -0.105413894007E+04    0.16031E+02   -0.12729E+03  6370   0.288E+04-0.224E+04
CGA:  31    -0.107031802200E+04   -0.16179E+02   -0.90914E+02  6370   0.306E+04-0.339E+04
CGA:  32    -0.107427797994E+04   -0.39600E+01   -0.95191E+02  6370   0.212E+04-0.235E+04
CGA:  33    -0.110833333460E+04   -0.34055E+02   -0.54446E+02  6370   0.192E+04-0.277E+04
CGA:  34    -0.111912901946E+04   -0.10796E+02   -0.51364E+02  6370   0.986E+03-0.127E+04
CGA:  35    -0.112807181049E+04   -0.89428E+01   -0.24265E+02  6370   0.467E+03-0.654E+03
CGA:  36    -0.113520773832E+04   -0.71359E+01   -0.92482E+01  6370   0.252E+03-0.428E+03
CGA:  37    -0.113631716948E+04   -0.11094E+01   -0.55630E+01  6370   0.128E+03-0.125E+03
CGA:  38    -0.113790073975E+04   -0.15836E+01   -0.17109E+01  6370   0.164E+02-0.441E+01
CGA:  39    -0.113823384821E+04   -0.33311E+00   -0.21725E+00  6370   0.473E+01 0.788E+01
CGA:  40    -0.113835386280E+04   -0.12001E+00   -0.75948E-01  6370   0.283E+01 0.315E+01
CGA:  41    -0.113870745511E+04   -0.35359E+00   -0.40953E+00  6370   0.183E+02-0.464E+00
CGA:  42    -0.113933752370E+04   -0.63007E+00   -0.32642E+00  6370   0.644E+01 0.146E+02
CGA:  43    -0.113946020499E+04   -0.12268E+00   -0.11118E+00  6370   0.175E+01 0.520E+00
CGA:  44    -0.113954399779E+04   -0.83793E-01   -0.70952E-01  6370   0.237E+01-0.577E-01
CGA:  45    -0.113965626255E+04   -0.11226E+00   -0.11268E+00  6370   0.522E+01-0.218E+00
CGA:  46    -0.113992453682E+04   -0.26827E+00   -0.25551E+00  6370   0.522E+01-0.243E+01
CGA:  47    -0.114000121936E+04   -0.76683E-01   -0.32549E-01  6370   0.283E+01 0.312E+01
CGA:  48    -0.114014387916E+04   -0.14266E+00   -0.13761E+00  6370   0.285E+01-0.379E+00
CGA:  49    -0.114018931851E+04   -0.45439E-01   -0.34265E-01  6370   0.684E+00 0.721E+00
CGA:  50    -0.114020045767E+04   -0.11139E-01   -0.10335E-01  6370   0.362E+00 0.116E+00
CGA:  51    -0.114021592609E+04   -0.15468E-01   -0.13627E-01  6370   0.103E+01-0.778E-02
CGA:  52    -0.114022936662E+04   -0.13441E-01   -0.84900E-02  6370   0.118E+01 0.329E+00
CGA:  53    -0.114025243454E+04   -0.23068E-01   -0.21838E-01  6370   0.967E+00-0.292E+00
CGA:  54    -0.114026740089E+04   -0.14966E-01   -0.12952E-01  6370   0.182E+01-0.210E+00
CGA:  55    -0.114027582445E+04   -0.84236E-02   -0.37596E-02  6370   0.186E+01 0.126E+01
CGA:  56    -0.114030946888E+04   -0.33644E-01   -0.31206E-01  6370   0.508E+00 0.214E+00
CGA:  57    -0.114032840975E+04   -0.18941E-01   -0.19232E-01  6370   0.188E+00-0.381E-03
CGA:  58    -0.114033539536E+04   -0.69856E-02   -0.67704E-02  6370   0.338E+00-0.484E-01
CGA:  59    -0.114034838582E+04   -0.12990E-01   -0.14851E-01  6370   0.533E+00-0.877E-01
CGA:  60    -0.114036498938E+04   -0.16604E-01   -0.16636E-01  6370   0.103E+01-0.105E+00
CGA:  61    -0.114038736949E+04   -0.22380E-01   -0.21942E-01  6370   0.570E+00-0.129E+00
CGA:  62    -0.114040128243E+04   -0.13913E-01   -0.13292E-01  6370   0.540E+00-0.125E+00
CGA:  63    -0.114041484547E+04   -0.13563E-01   -0.12158E-01  6370   0.233E+00-0.709E-01
CGA:  64    -0.114042375942E+04   -0.89139E-02   -0.17384E-01  6370   0.473E+00-0.183E+00
CGA:  65    -0.114043456453E+04   -0.10805E-01   -0.10840E-01  6370   0.239E+00-0.540E-01
CGA:  66    -0.114043882041E+04   -0.42559E-02   -0.44193E-02  6370   0.390E-01 0.244E-01
CGA:  67    -0.114044114753E+04   -0.23271E-02   -0.22290E-02  6370   0.548E-01 0.941E-02
CGA:  68    -0.114044361739E+04   -0.24699E-02   -0.23856E-02  6370   0.643E-01-0.165E-01
CGA:  69    -0.114044517950E+04   -0.15621E-02   -0.15826E-02  6370   0.420E-01 0.514E-02
CGA:  70    -0.114044655945E+04   -0.13799E-02   -0.14238E-02  6370   0.464E-01 0.624E-02
CGA:  71    -0.114044873354E+04   -0.21741E-02   -0.21884E-02  6370   0.431E-01-0.137E-01
CGA:  72    -0.114044999561E+04   -0.12621E-02   -0.12595E-02  6370   0.249E-01 0.221E-02
CGA:  73    -0.114045124453E+04   -0.12489E-02   -0.12571E-02  6370   0.234E-01-0.998E-03
CGA:  74    -0.114044932727E+04    0.19173E-02   -0.42326E-02  6370   0.199E+00-0.433E-01
CGA:  75    -0.114045414303E+04   -0.48158E-02   -0.49793E-02  6370   0.885E-01 0.221E-01
CGA:  76    -0.114045713762E+04   -0.29946E-02   -0.29157E-02  6370   0.233E-01-0.149E-01
CGA:  77    -0.114045753184E+04   -0.39422E-03   -0.48965E-03  6370   0.877E-02 0.507E-02
CGA:  78    -0.114045815037E+04   -0.61853E-03   -0.79252E-03  6370   0.205E-01-0.583E-02
CGA:  79    -0.114045850793E+04   -0.35756E-03   -0.43851E-03  6370   0.639E-02 0.442E-02
CGA:  80    -0.114045883521E+04   -0.32728E-03   -0.45982E-03  6370   0.251E-01-0.918E-02
CGA:  81    -0.114045904408E+04   -0.20887E-03   -0.37394E-03  6370   0.576E-02 0.556E-02
CGA:  82    -0.114045929794E+04   -0.25386E-03   -0.24605E-03  6370   0.366E-02-0.107E-02
CGA:  83    -0.114045968771E+04   -0.38977E-03    0.13041E-03  6370   0.700E-02 0.147E-02
CGA:  84    -0.114046058695E+04   -0.89924E-03   -0.14101E-02  6370   0.522E-01-0.523E-02
CGA:  85    -0.114046189977E+04   -0.13128E-02   -0.10067E-02  6370   0.173E-01-0.133E-01
CGA:  86    -0.114046199019E+04   -0.90423E-04   -0.19812E-03  6370   0.269E-02 0.359E-02
CGA:  87    -0.114046196157E+04    0.28614E-04   -0.28736E-04  6370   0.132E-02 0.156E-02
CGA:  88    -0.114046218398E+04   -0.22241E-03   -0.16569E-03  6370   0.226E-02 0.700E-03
CGA:  89    -0.114045928923E+04    0.28948E-02   -0.15500E-02  6370   0.190E+00-0.139E-01
CGA:  90    -0.114046220445E+04   -0.29152E-02   -0.33096E-02  6370   0.281E-01 0.204E-01
CGA:  91    -0.114046300252E+04   -0.79807E-03   -0.72560E-03  6370   0.340E-02-0.659E-02
CGA:  92    -0.114046298946E+04    0.13053E-04   -0.48868E-04  6370   0.154E-02 0.101E-02
CGA:  93    -0.114046311573E+04   -0.12627E-03   -0.12005E-03  6370   0.355E-02-0.291E-03
CGA:  94    -0.114045294533E+04    0.10170E-01   -0.62038E-02  6370   0.825E+00-0.265E-01
CGA:  95    -0.114046360956E+04   -0.10664E-01   -0.11282E-01  6370   0.106E+00 0.773E-01
CGA:  96    -0.114046618456E+04   -0.25750E-02   -0.37206E-02  6370   0.253E-01-0.268E-01
CGA:  97    -0.114046702827E+04   -0.84372E-03   -0.59403E-03  6370   0.210E-01-0.506E-02
CGA:  98    -0.114046716916E+04   -0.14088E-03   -0.23530E-03  6370   0.310E-02 0.362E-02
CGA:  99    -0.114046712358E+04    0.45581E-04   -0.35018E-04  6370   0.889E-03 0.814E-03
CGA: 100    -0.114046710747E+04    0.16107E-04   -0.23269E-04  6370   0.136E-02 0.448E-03
CGA: 101    -0.114046731234E+04   -0.20487E-03   -0.75982E-04  6370   0.117E-01-0.251E-02
CGA: 102    -0.114046726490E+04    0.47437E-04   -0.11800E-03  6370   0.608E-03 0.182E-02
CGA: 103    -0.114046724208E+04    0.22820E-04   -0.82310E-05  6370   0.461E-03 0.348E-03
CGA: 104    -0.114046741318E+04   -0.17110E-03    0.24020E-04  6370   0.228E-02 0.150E-03
CGA: 105    -0.114046762498E+04   -0.21180E-03   -0.23555E-03  6370   0.358E-02 0.130E-02
CGA: 106    -0.114046785614E+04   -0.23116E-03   -0.78913E-04  6370   0.278E-02-0.219E-02
CGA: 107    -0.114046781194E+04    0.44207E-04   -0.25630E-04  6370   0.460E-03 0.845E-03
CGA: 108    -0.114046779202E+04    0.19922E-04   -0.57906E-05  6370   0.387E-03 0.328E-03
CGA: 109    -0.114046792139E+04   -0.12937E-03    0.16284E-04  6370   0.145E-02 0.170E-03
CGA: 110    -0.114046798962E+04   -0.68228E-04   -0.10613E-03  6370   0.111E-02 0.116E-02
CGA: 111    -0.114046741051E+04    0.57911E-03   -0.18239E-03  6370   0.126E+00-0.937E-02
CGA: 112    -0.114046820609E+04   -0.79558E-03   -0.13535E-02  6370   0.138E-02 0.977E-02
CGA: 113    -0.114046817660E+04    0.29485E-04   -0.14885E-04  6370   0.512E-03 0.618E-03
CGA: 114    -0.114046816501E+04    0.11596E-04   -0.10993E-04  6370   0.514E-03 0.358E-03
CGA: 115    -0.114046833168E+04   -0.16668E-03    0.16939E-04  6370   0.608E-02-0.743E-03
CGA: 116    -0.114046828302E+04    0.48660E-04   -0.54747E-04  6370   0.580E-03 0.156E-02
CGA: 117    -0.114046826298E+04    0.20044E-04   -0.50938E-05  6370   0.310E-03 0.384E-03
CGA: 118    -0.114046828681E+04   -0.23827E-04   -0.22690E-04  6370   0.419E-03 0.272E-03
CGA: 119    -0.114046842806E+04   -0.14125E-03    0.10134E-04  6370   0.329E-02-0.307E-03
CGA: 120    -0.114046838740E+04    0.40655E-04   -0.27417E-04  6370   0.520E-03 0.112E-02
CGA: 121    -0.114046836907E+04    0.18328E-04   -0.44783E-05  6370   0.296E-03 0.381E-03
CGA: 122    -0.114046839985E+04   -0.30775E-04   -0.25093E-04  6370   0.414E-03 0.265E-03
CGA: 123    -0.114046853058E+04   -0.13073E-03    0.91009E-05  6370   0.282E-02-0.276E-03
CGA: 124    -0.114046849399E+04    0.36596E-04   -0.22561E-04  6370   0.517E-03 0.105E-02
CGA: 125    -0.114046847647E+04    0.17519E-04   -0.43042E-05  6370   0.291E-03 0.393E-03
CGA: 126    -0.114046849242E+04   -0.15957E-04   -0.16465E-04  6370   0.357E-03 0.254E-03
CGA: 127    -0.114046859887E+04   -0.10645E-03    0.67813E-05  6370   0.153E-02-0.362E-04
CGA: 128    -0.114046877882E+04   -0.17994E-03    0.35419E-03  6370   0.249E-02 0.116E-02
CGA: 129    -0.114046875054E+04    0.28283E-04   -0.21574E-04  6370   0.582E-03 0.101E-02
CGA: 130    -0.114046873651E+04    0.14030E-04   -0.63932E-05  6370   0.346E-03 0.428E-03
CGA: 131    -0.114046880264E+04   -0.66139E-04    0.11927E-04  6370   0.514E-03 0.119E-03
CGA: 132    -0.114046880522E+04   -0.25800E-05   -0.17583E-04  6370   0.443E-03 0.533E-03
CGA: 133    -0.114046886550E+04   -0.60275E-04    0.38497E-04  6370   0.682E-03-0.352E-05
CGA: 134    -0.114046886035E+04    0.51461E-05   -0.12111E-04  6370   0.570E-03 0.503E-03
CGA: 135    -0.114046888497E+04   -0.24618E-04   -0.24683E-04  6370   0.400E-03 0.162E-04
CGA: 136    -0.114046895892E+04   -0.73950E-04    0.13034E-04  6370   0.523E-03 0.355E-03
CGA: 137    -0.114046894952E+04    0.94021E-05   -0.51684E-05  6370   0.306E-03 0.362E-03
CGA: 138    -0.114046895907E+04   -0.95514E-05   -0.11579E-04  6370   0.255E-03 0.197E-03
   1 F= -.11404690E+04 E0= -.11404478E+04  d E =-.114047E+04  mag=    65.0000
