       N       E                     dE             d eps       ncg     rms          ort
DAV:   1     0.281951328720E+04    0.28195E+04   -0.29262E+05  2880   0.140E+03
DAV:   2    -0.963739037079E+03   -0.37833E+04   -0.36567E+04  2880   0.312E+02
DAV:   3    -0.122035020145E+04   -0.25661E+03   -0.25413E+03  2880   0.849E+01
DAV:   4    -0.122338085034E+04   -0.30306E+01   -0.30200E+01  2880   0.978E+00
DAV:   5    -0.122343106393E+04   -0.50214E-01   -0.50104E-01  2880   0.116E+00
SDA:   6    -0.870208879007E+03    0.35322E+03   -0.50104E-01  2880   0.612E+03 0.000E+00
CGA:   7    -0.972281506239E+03   -0.10207E+03   -0.10355E+03  2880   0.120E+03 0.184E+02
CGA:   8    -0.984746133922E+03   -0.12465E+02   -0.15761E+02  2880   0.421E+02 0.276E+01
CGA:   9    -0.990362106507E+03   -0.56160E+01   -0.66698E+01  2880   0.218E+02 0.929E+01
CGA:  10    -0.992879140310E+03   -0.25170E+01   -0.24602E+01  2880   0.170E+02-0.274E+01
CGA:  11    -0.993327097027E+03   -0.44796E+00   -0.11258E+01  2880   0.399E+02-0.722E+01
CGA:  12    -0.993957124928E+03   -0.63003E+00   -0.10448E+01  2880   0.132E+02-0.140E+02
CGA:  13    -0.995502588265E+03   -0.15455E+01   -0.11928E+01  2880   0.880E+01-0.643E+01
CGA:  14    -0.995874039921E+03   -0.37145E+00   -0.27551E+00  2880   0.540E+01 0.659E+00
CGA:  15    -0.996435286385E+03   -0.56125E+00   -0.29811E+00  2880   0.542E+01 0.449E+01
CGA:  16    -0.996719395187E+03   -0.28411E+00   -0.32329E+00  2880   0.245E+01-0.126E+01
CGA:  17    -0.997251379500E+03   -0.53198E+00   -0.54237E+00  2880   0.732E+00-0.784E-01
CGA:  18    -0.997302945284E+03   -0.51566E-01   -0.54879E-01  2880   0.485E+00-0.317E-01
CGA:  19    -0.997363136196E+03   -0.60191E-01   -0.56479E-01  2880   0.268E+00-0.163E-01
CGA:  20    -0.997393011375E+03   -0.29875E-01   -0.29889E-01  2880   0.172E+00-0.966E-02
CGA:  21    -0.997411135701E+03   -0.18124E-01   -0.17680E-01  2880   0.428E-01-0.373E-02
CGA:  22    -0.997413577083E+03   -0.24414E-02   -0.26137E-02  2880   0.171E-01 0.330E-02
CGA:  23    -0.997421266494E+03   -0.76894E-02   -0.68449E-02  2880   0.116E-01 0.398E-02
CGA:  24    -0.997422327869E+03   -0.10614E-02   -0.10342E-02  2880   0.809E-02 0.702E-03
CGA:  25    -0.997423721082E+03   -0.13932E-02   -0.13812E-02  2880   0.753E-02 0.209E-02
CGA:  26    -0.997425081985E+03   -0.13609E-02   -0.13806E-02  2880   0.918E-02 0.165E-02
CGA:  27    -0.997425898665E+03   -0.81668E-03   -0.72184E-03  2880   0.318E-02 0.194E-02
CGA:  28    -0.997426039821E+03   -0.14116E-03   -0.20742E-03  2880   0.114E-02 0.711E-03
CGA:  29    -0.997426096109E+03   -0.56289E-04   -0.93012E-04  2880   0.112E-02 0.470E-03
CGA:  30    -0.997426311101E+03   -0.21499E-03   -0.21460E-03  2880   0.193E-02-0.293E-04
CGA:  31    -0.997426508435E+03   -0.19733E-03   -0.15554E-03  2880   0.134E-02-0.629E-03
CGA:  32    -0.997426538043E+03   -0.29608E-04   -0.31642E-04  2880   0.693E-03 0.344E-04
CGA:  33    -0.997426541068E+03   -0.30251E-05   -0.22750E-04  2880   0.466E-03 0.213E-03
CGA:  34    -0.997426543083E+03   -0.20142E-05   -0.22837E-04  2880   0.420E-03 0.250E-03
CGA:  35    -0.997426542825E+03    0.25799E-06   -0.12131E-03  2880   0.611E-02-0.746E-03
CGA:  36    -0.997426687227E+03   -0.14440E-03   -0.20171E-03  2880   0.264E-03 0.626E-03
CGA:  37    -0.997426682408E+03    0.48197E-05   -0.96758E-05  2880   0.135E-03 0.158E-03
CGA:  38    -0.997426695460E+03   -0.13052E-04   -0.14289E-04  2880   0.152E-03 0.761E-04
CGA:  39    -0.997426716630E+03   -0.21170E-04   -0.22530E-04  2880   0.593E-03-0.499E-04
CGA:  40    -0.997426832254E+03   -0.11562E-03    0.13496E-03  2880   0.176E-02 0.454E-03
CGA:  41    -0.997426894369E+03   -0.62116E-04   -0.66714E-04  2880   0.125E-03 0.595E-04
CGA:  42    -0.997426891332E+03    0.30369E-05   -0.42815E-05  2880   0.740E-04 0.874E-04
   1 F= -.99742689E+03 E0= -.99740768E+03  d E =-.997427E+03  mag=     2.0000
       N       E                     dE             d eps       ncg     rms          ort
SDA:   1    -0.997426174585E+03    0.71978E-03    0.00000E+00  2880   0.128E+00 0.000E+00
CGA:   2    -0.997430023625E+03   -0.38490E-02   -0.41824E-02  2880   0.351E-02-0.186E-02
CGA:   3    -0.997430727540E+03   -0.70392E-03   -0.74533E-03  2880   0.878E-02-0.396E-03
CGA:   4    -0.997431270827E+03   -0.54329E-03   -0.54607E-03  2880   0.124E-02 0.605E-04
CGA:   5    -0.997431321955E+03   -0.51128E-04   -0.68577E-04  2880   0.485E-03 0.315E-03
CGA:   6    -0.997431374392E+03   -0.52438E-04   -0.54844E-04  2880   0.381E-03 0.131E-03
CGA:   7    -0.997431403909E+03   -0.29517E-04   -0.10515E-03  2880   0.172E-02-0.693E-03
CGA:   8    -0.997431441398E+03   -0.37489E-04   -0.65383E-04  2880   0.234E-03 0.369E-03
CGA:   9    -0.997431439957E+03    0.14416E-05   -0.98329E-05  2880   0.112E-03 0.150E-03
CGA:  10    -0.997431458435E+03   -0.18478E-04   -0.27980E-04  2880   0.391E-03-0.658E-04
CGA:  11    -0.997431471918E+03   -0.13483E-04   -0.13926E-04  2880   0.247E-04 0.410E-05
CGA:  12    -0.997431470837E+03    0.10807E-05   -0.53338E-06  2880   0.140E-04 0.184E-04
   2 F= -.99743147E+03 E0= -.99741192E+03  d E =-.457950E-02  mag=     2.0000
       N       E                     dE             d eps       ncg     rms          ort
SDA:   1    -0.997334975230E+03    0.96497E-01    0.00000E+00  2880   0.221E+01 0.000E+00
CGA:   2    -0.997405921494E+03   -0.70946E-01   -0.81179E-01  2880   0.161E+00-0.243E+00
CGA:   3    -0.997420869767E+03   -0.14948E-01   -0.14927E-01  2880   0.169E+00-0.411E-03
CGA:   4    -0.997441002907E+03   -0.20133E-01   -0.20148E-01  2880   0.660E-01-0.223E-03
CGA:   5    -0.997445268413E+03   -0.42655E-02   -0.42886E-02  2880   0.196E-01 0.177E-03
CGA:   6    -0.997447438696E+03   -0.21703E-02   -0.21678E-02  2880   0.161E-01 0.932E-04
CGA:   7    -0.997449015561E+03   -0.15769E-02   -0.15759E-02  2880   0.917E-02-0.156E-02
CGA:   8    -0.997449466777E+03   -0.45122E-03   -0.50415E-03  2880   0.925E-03 0.139E-02
CGA:   9    -0.997449138239E+03    0.32854E-03   -0.23744E-03  2880   0.147E-01-0.186E-02
CGA:  10    -0.997449695510E+03   -0.55727E-03   -0.65825E-03  2880   0.217E-02 0.185E-02
CGA:  11    -0.997449869033E+03   -0.17352E-03   -0.16685E-03  2880   0.545E-03-0.721E-04
CGA:  12    -0.997449955235E+03   -0.86202E-04   -0.83254E-04  2880   0.163E-02-0.556E-03
CGA:  13    -0.997449974421E+03   -0.19186E-04   -0.61165E-04  2880   0.196E-03 0.329E-03
CGA:  14    -0.997449969326E+03    0.50941E-05   -0.82983E-05  2880   0.819E-04 0.110E-03
CGA:  15    -0.997449982823E+03   -0.13497E-04   -0.16808E-04  2880   0.292E-03-0.609E-04
CGA:  16    -0.997449986637E+03   -0.38141E-05   -0.10332E-04  2880   0.438E-04 0.549E-04
   3 F= -.99744999E+03 E0= -.99743033E+03  d E =-.185158E-01  mag=     2.0000
       N       E                     dE             d eps       ncg     rms          ort
SDA:   1    -0.997213849367E+03    0.23613E+00    0.00000E+00  2880   0.404E+01 0.000E+00
CGA:   2    -0.997324071783E+03   -0.11022E+00   -0.19701E+00  2880   0.133E+01-0.177E+01
CGA:   3    -0.997393414450E+03   -0.69343E-01   -0.70730E-01  2880   0.362E+00-0.101E-01
CGA:   4    -0.997418303650E+03   -0.24889E-01   -0.23611E-01  2880   0.130E+00 0.991E-02
CGA:   5    -0.997444649672E+03   -0.26346E-01   -0.26263E-01  2880   0.143E+00 0.151E-02
CGA:   6    -0.997455183350E+03   -0.10534E-01   -0.10508E-01  2880   0.227E-01-0.639E-02
CGA:   7    -0.997456820201E+03   -0.16369E-02   -0.17368E-02  2880   0.980E-02 0.176E-02
CGA:   8    -0.997458013986E+03   -0.11938E-02   -0.12045E-02  2880   0.110E-01 0.622E-03
CGA:   9    -0.997459259212E+03   -0.12452E-02   -0.11956E-02  2880   0.652E-02-0.198E-02
CGA:  10    -0.997459467859E+03   -0.20865E-03   -0.28093E-03  2880   0.708E-03 0.992E-03
CGA:  11    -0.997459509019E+03   -0.41160E-04   -0.59222E-04  2880   0.772E-03 0.353E-03
CGA:  12    -0.997459733395E+03   -0.22438E-03   -0.27813E-03  2880   0.183E-02-0.454E-03
CGA:  13    -0.997459789101E+03   -0.55706E-04   -0.73080E-04  2880   0.325E-03 0.175E-03
CGA:  14    -0.997459834429E+03   -0.45328E-04   -0.45915E-04  2880   0.395E-03-0.941E-04
CGA:  15    -0.997459841189E+03   -0.67605E-05   -0.13922E-04  2880   0.230E-03 0.965E-04
CGA:  16    -0.997459844094E+03   -0.29047E-05   -0.10949E-04  2880   0.103E-03 0.994E-04
CGA:  17    -0.997459854310E+03   -0.10216E-04   -0.10478E-04  2880   0.773E-04 0.590E-05
CGA:  18    -0.997459884414E+03   -0.30104E-04    0.73854E-05  2880   0.176E-03-0.624E-04
CGA:  19    -0.997459883876E+03    0.53773E-06   -0.62005E-05  2880   0.569E-04 0.861E-04
   4 F= -.99745988E+03 E0= -.99744010E+03  d E =-.989724E-02  mag=     2.0000
       N       E                     dE             d eps       ncg     rms          ort
SDA:   1    -0.997454023497E+03    0.58609E-02    0.00000E+00  2880   0.263E-01 0.000E+00
CGA:   2    -0.997455555592E+03   -0.15321E-02   -0.15955E-02  2880   0.205E-01 0.135E-02
CGA:   3    -0.997459144304E+03   -0.35887E-02   -0.37091E-02  2880   0.850E-02-0.178E-02
CGA:   4    -0.997459909357E+03   -0.76505E-03   -0.76824E-03  2880   0.247E-02 0.459E-03
CGA:   5    -0.997460120790E+03   -0.21143E-03   -0.21151E-03  2880   0.221E-02-0.219E-04
CGA:   6    -0.997460326701E+03   -0.20591E-03   -0.20903E-03  2880   0.594E-03 0.321E-03
CGA:   7    -0.997460251478E+03    0.75223E-04   -0.19423E-03  2880   0.520E-02-0.149E-02
CGA:   8    -0.997460377953E+03   -0.12648E-03   -0.20341E-03  2880   0.706E-03 0.110E-02
CGA:   9    -0.997460410672E+03   -0.32719E-04   -0.45091E-04  2880   0.215E-03 0.220E-03
CGA:  10    -0.997460435907E+03   -0.25235E-04   -0.43576E-04  2880   0.864E-03-0.386E-03
CGA:  11    -0.997460444919E+03   -0.90114E-05   -0.29978E-04  2880   0.156E-03 0.283E-03
   5 F= -.99746044E+03 E0= -.99744066E+03  d E =-.561043E-03  mag=     2.0000
       N       E                     dE             d eps       ncg     rms          ort
SDA:   1    -0.997115177528E+03    0.34526E+00    0.00000E+00  2880   0.105E+01 0.000E+00
CGA:   2    -0.997216520765E+03   -0.10134E+00   -0.10165E+00  2880   0.158E+01 0.273E-01
CGA:   3    -0.997406845147E+03   -0.19032E+00   -0.19064E+00  2880   0.214E+00-0.190E-01
CGA:   4    -0.997425308836E+03   -0.18464E-01   -0.18504E-01  2880   0.178E+00 0.251E-02
CGA:   5    -0.997446371683E+03   -0.21063E-01   -0.21053E-01  2880   0.847E-01-0.587E-03
CGA:   6    -0.997450951565E+03   -0.45799E-02   -0.46667E-02  2880   0.161E-01 0.595E-03
CGA:   7    -0.997452795759E+03   -0.18442E-02   -0.18582E-02  2880   0.168E-01-0.121E-02
CGA:   8    -0.997454160906E+03   -0.13651E-02   -0.13899E-02  2880   0.447E-02 0.209E-02
CGA:   9    -0.997454674189E+03   -0.51328E-03   -0.51698E-03  2880   0.452E-02-0.173E-02
CGA:  10    -0.997454917518E+03   -0.24333E-03   -0.24530E-03  2880   0.312E-02 0.158E-03
CGA:  11    -0.997455075360E+03   -0.15784E-03   -0.18625E-03  2880   0.109E-02 0.650E-03
CGA:  12    -0.997455186156E+03   -0.11080E-03   -0.11030E-03  2880   0.107E-02-0.377E-04
CGA:  13    -0.997455272837E+03   -0.86681E-04   -0.86312E-04  2880   0.779E-03-0.308E-04
CGA:  14    -0.997455342167E+03   -0.69330E-04   -0.69087E-04  2880   0.659E-03-0.459E-04
CGA:  15    -0.997455388902E+03   -0.46735E-04   -0.44297E-04  2880   0.379E-03-0.986E-04
CGA:  16    -0.997455405735E+03   -0.16834E-04   -0.17362E-04  2880   0.139E-03 0.125E-04
CGA:  17    -0.997455420083E+03   -0.14347E-04   -0.20331E-04  2880   0.545E-03-0.124E-03
CGA:  18    -0.997455440134E+03   -0.20051E-04   -0.21655E-04  2880   0.629E-04 0.258E-04
CGA:  19    -0.997455438407E+03    0.17271E-05   -0.14700E-05  2880   0.335E-04 0.455E-04
   6 F= -.99745544E+03 E0= -.99743566E+03  d E =0.500651E-02  mag=     2.0000
       N       E                     dE             d eps       ncg     rms          ort
SDA:   1    -0.997334341151E+03    0.12110E+00    0.00000E+00  2880   0.110E+01 0.000E+00
CGA:   2    -0.997375971462E+03   -0.41630E-01   -0.42334E-01  2880   0.254E+00-0.364E-01
CGA:   3    -0.997442308022E+03   -0.66337E-01   -0.64165E-01  2880   0.102E+00 0.118E-01
CGA:   4    -0.997450527519E+03   -0.82195E-02   -0.81337E-02  2880   0.627E-01-0.802E-02
CGA:   5    -0.997456173873E+03   -0.56464E-02   -0.56303E-02  2880   0.408E-01 0.292E-02
CGA:   6    -0.997459267720E+03   -0.30938E-02   -0.31274E-02  2880   0.107E-01 0.175E-02
CGA:   7    -0.997460518051E+03   -0.12503E-02   -0.12700E-02  2880   0.508E-02-0.966E-03
CGA:   8    -0.997460947660E+03   -0.42961E-03   -0.42914E-03  2880   0.181E-02 0.815E-03
CGA:   9    -0.997461161464E+03   -0.21380E-03   -0.21173E-03  2880   0.143E-02 0.238E-03
CGA:  10    -0.997461318906E+03   -0.15744E-03   -0.24714E-03  2880   0.483E-02-0.152E-02
CGA:  11    -0.997461416872E+03   -0.97966E-04   -0.15475E-03  2880   0.603E-03 0.883E-03
CGA:  12    -0.997461430763E+03   -0.13891E-04   -0.29217E-04  2880   0.281E-03 0.298E-03
CGA:  13    -0.997461454274E+03   -0.23511E-04   -0.24894E-04  2880   0.172E-03 0.440E-04
CGA:  14    -0.997461443165E+03    0.11109E-04   -0.63876E-04  2880   0.155E-02-0.321E-03
CGA:  15    -0.997461500201E+03   -0.57036E-04   -0.76948E-04  2880   0.272E-03 0.404E-03
CGA:  16    -0.997461535858E+03   -0.35657E-04   -0.38758E-04  2880   0.245E-03-0.204E-03
CGA:  17    -0.997461545065E+03   -0.92068E-05   -0.11284E-04  2880   0.604E-04 0.383E-04
CGA:  18    -0.997461552336E+03   -0.72708E-05   -0.10737E-04  2880   0.126E-03-0.598E-04
   7 F= -.99746155E+03 E0= -.99744181E+03  d E =-.611393E-02  mag=     2.0000
       N       E                     dE             d eps       ncg     rms          ort
SDA:   1    -0.997365135996E+03    0.96409E-01    0.00000E+00  2880   0.230E+01 0.000E+00
CGA:   2    -0.997439669476E+03   -0.74533E-01   -0.76373E-01  2880   0.666E-01-0.143E+00
CGA:   3    -0.997448055288E+03   -0.83858E-02   -0.82660E-02  2880   0.959E-01 0.275E-02
CGA:   4    -0.997457206902E+03   -0.91516E-02   -0.91541E-02  2880   0.287E-01-0.172E-03
CGA:   5    -0.997459277010E+03   -0.20701E-02   -0.20965E-02  2880   0.121E-01 0.119E-02
CGA:   6    -0.997460654123E+03   -0.13771E-02   -0.14209E-02  2880   0.119E-01-0.228E-02
CGA:   7    -0.997461346760E+03   -0.69264E-03   -0.72258E-03  2880   0.277E-02 0.153E-02
CGA:   8    -0.997461665514E+03   -0.31875E-03   -0.31701E-03  2880   0.514E-03 0.212E-03
CGA:   9    -0.997461750482E+03   -0.84968E-04   -0.12865E-03  2880   0.258E-02-0.318E-03
CGA:  10    -0.997461814434E+03   -0.63952E-04   -0.88189E-04  2880   0.163E-03 0.369E-03
CGA:  11    -0.997461833398E+03   -0.18964E-04   -0.20603E-04  2880   0.414E-03-0.120E-03
CGA:  12    -0.997461856562E+03   -0.23164E-04   -0.21506E-04  2880   0.834E-04-0.397E-04
CGA:  13    -0.997461857554E+03   -0.99194E-06   -0.38122E-05  2880   0.590E-04 0.630E-04
CGA:  14    -0.997461869285E+03   -0.11731E-04   -0.15026E-04  2880   0.314E-03-0.208E-04
CGA:  15    -0.997461893541E+03   -0.24256E-04   -0.39829E-04  2880   0.452E-03-0.164E-03
CGA:  16    -0.997461899163E+03   -0.56226E-05   -0.15178E-04  2880   0.539E-04 0.131E-03
   8 F= -.99746190E+03 E0= -.99744216E+03  d E =-.346827E-03  mag=     2.0000
       N       E                     dE             d eps       ncg     rms          ort
SDA:   1    -0.997454674794E+03    0.72187E-02    0.00000E+00  2880   0.835E-01 0.000E+00
CGA:   2    -0.997457843201E+03   -0.31684E-02   -0.30079E-02  2880   0.108E-01-0.240E-02
CGA:   3    -0.997460346266E+03   -0.25031E-02   -0.23162E-02  2880   0.115E-01 0.147E-02
CGA:   4    -0.997461344152E+03   -0.99789E-03   -0.98063E-03  2880   0.351E-02-0.871E-03
CGA:   5    -0.997461594333E+03   -0.25018E-03   -0.25428E-03  2880   0.149E-02 0.177E-03
CGA:   6    -0.997461713159E+03   -0.11883E-03   -0.12225E-03  2880   0.700E-03 0.157E-03
CGA:   7    -0.997461770493E+03   -0.57334E-04   -0.61150E-04  2880   0.217E-03 0.199E-03
CGA:   8    -0.997461845754E+03   -0.75261E-04    0.34075E-04  2880   0.149E-03 0.336E-04
CGA:   9    -0.997461846489E+03   -0.73483E-06   -0.73009E-05  2880   0.642E-04 0.120E-03
   9 F= -.99746185E+03 E0= -.99744213E+03  d E =0.526745E-04  mag=     2.0000
       N       E                     dE             d eps       ncg     rms          ort
SDA:   1    -0.997108974973E+03    0.35287E+00    0.00000E+00  2880   0.289E+01 0.000E+00
CGA:   2    -0.997238133573E+03   -0.12916E+00   -0.11492E+00  2880   0.565E+00 0.945E-01
CGA:   3    -0.997348087965E+03   -0.10995E+00   -0.11513E+00  2880   0.130E+01-0.519E-01
CGA:   4    -0.997420983012E+03   -0.72895E-01   -0.73484E-01  2880   0.337E+00-0.415E-02
CGA:   5    -0.997435833477E+03   -0.14850E-01   -0.15794E-01  2880   0.901E-01-0.244E-01
CGA:   6    -0.997447409549E+03   -0.11576E-01   -0.11610E-01  2880   0.630E-01-0.479E-03
CGA:   7    -0.997451254513E+03   -0.38450E-02   -0.39606E-02  2880   0.316E-01 0.444E-02
CGA:   8    -0.997454040059E+03   -0.27855E-02   -0.27794E-02  2880   0.671E-02-0.109E-02
CGA:   9    -0.997454780667E+03   -0.74061E-03   -0.11671E-02  2880   0.239E-01-0.476E-02
CGA:  10    -0.997455483144E+03   -0.70248E-03   -0.87986E-03  2880   0.169E-02 0.363E-02
CGA:  11    -0.997455537092E+03   -0.53948E-04   -0.91229E-04  2880   0.106E-02 0.827E-03
CGA:  12    -0.997455697305E+03   -0.16021E-03   -0.15625E-03  2880   0.129E-02 0.427E-03
CGA:  13    -0.997455895615E+03   -0.19831E-03   -0.29388E-03  2880   0.252E-02-0.131E-02
CGA:  14    -0.997455963766E+03   -0.68151E-04   -0.10380E-03  2880   0.494E-03 0.715E-03
CGA:  15    -0.997455990759E+03   -0.26992E-04   -0.35090E-04  2880   0.256E-03 0.230E-03
CGA:  16    -0.997455691687E+03    0.29907E-03   -0.16208E-03  2880   0.679E-02-0.134E-02
CGA:  17    -0.997455956107E+03   -0.26442E-03   -0.32011E-03  2880   0.116E-02 0.882E-03
CGA:  18    -0.997456030003E+03   -0.73896E-04   -0.82581E-04  2880   0.198E-03 0.222E-03
CGA:  19    -0.997456082409E+03   -0.52406E-04    0.12852E-03  2880   0.272E-03-0.395E-04
CGA:  20    -0.997456096311E+03   -0.13902E-04   -0.15522E-04  2880   0.167E-03 0.536E-04
CGA:  21    -0.997456092730E+03    0.35810E-05   -0.44678E-05  2880   0.629E-04 0.104E-03
  10 F= -.99745609E+03 E0= -.99743659E+03  d E =0.575376E-02  mag=     2.0000
       N       E                     dE             d eps       ncg     rms          ort
SDA:   1    -0.997280842568E+03    0.17525E+00    0.00000E+00  2880   0.325E+01 0.000E+00
CGA:   2    -0.997386756936E+03   -0.10591E+00   -0.11914E+00  2880   0.255E+00-0.347E+00
CGA:   3    -0.997416172670E+03   -0.29416E-01   -0.29259E-01  2880   0.311E+00 0.596E-03
CGA:   4    -0.997447055857E+03   -0.30883E-01   -0.30881E-01  2880   0.978E-01 0.268E-02
CGA:   5    -0.997454052847E+03   -0.69970E-02   -0.69228E-02  2880   0.403E-01-0.312E-02
CGA:   6    -0.997457952201E+03   -0.38994E-02   -0.38877E-02  2880   0.206E-01 0.107E-02
CGA:   7    -0.997460181952E+03   -0.22298E-02   -0.22689E-02  2880   0.175E-01-0.260E-02
CGA:   8    -0.997461108207E+03   -0.92625E-03   -0.98284E-03  2880   0.129E-02 0.194E-02
CGA:   9    -0.997461351543E+03   -0.24334E-03   -0.29346E-03  2880   0.414E-02-0.443E-03
CGA:  10    -0.997461566806E+03   -0.21526E-03   -0.21163E-03  2880   0.258E-02-0.199E-03
CGA:  11    -0.997461638213E+03   -0.71407E-04   -0.85132E-04  2880   0.642E-03 0.198E-03
CGA:  12    -0.997461652939E+03   -0.14726E-04   -0.24996E-04  2880   0.344E-03 0.183E-03
CGA:  13    -0.997461671142E+03   -0.18203E-04   -0.22968E-04  2880   0.347E-03 0.126E-03
CGA:  14    -0.997461718695E+03   -0.47553E-04   -0.48754E-04  2880   0.484E-03-0.808E-04
CGA:  15    -0.997461744756E+03   -0.26061E-04   -0.19414E-04  2880   0.307E-03-0.185E-03
CGA:  16    -0.997461753106E+03   -0.83499E-05   -0.64435E-05  2880   0.205E-03-0.365E-04
  11 F= -.99746175E+03 E0= -.99744211E+03  d E =-.566038E-02  mag=     2.0000
       N       E                     dE             d eps       ncg     rms          ort
SDA:   1    -0.997449378589E+03    0.12366E-01    0.00000E+00  2880   0.558E-01 0.000E+00
CGA:   2    -0.997454034679E+03   -0.46561E-02   -0.46583E-02  2880   0.406E-01-0.352E-02
CGA:   3    -0.997459076603E+03   -0.50419E-02   -0.48695E-02  2880   0.212E-01 0.359E-02
CGA:   4    -0.997460820029E+03   -0.17434E-02   -0.17480E-02  2880   0.684E-02 0.560E-03
CGA:   5    -0.997461550663E+03   -0.73063E-03   -0.85883E-03  2880   0.112E-01-0.337E-02
CGA:   6    -0.997461788877E+03   -0.23821E-03   -0.25710E-03  2880   0.598E-02 0.459E-03
CGA:   7    -0.997461900014E+03   -0.11114E-03   -0.18316E-03  2880   0.229E-02 0.131E-02
CGA:   8    -0.997461962361E+03   -0.62348E-04   -0.99599E-04  2880   0.115E-02 0.833E-03
CGA:   9    -0.997462028397E+03   -0.66036E-04   -0.65590E-04  2880   0.389E-03-0.156E-04
CGA:  10    -0.997462096784E+03   -0.68386E-04    0.90343E-04  2880   0.454E-03-0.708E-04
CGA:  11    -0.997462128645E+03   -0.31862E-04   -0.34521E-04  2880   0.787E-03-0.166E-03
CGA:  12    -0.997462138578E+03   -0.99329E-05   -0.16317E-04  2880   0.560E-03 0.143E-03
CGA:  13    -0.997462146217E+03   -0.76387E-05   -0.15653E-04  2880   0.111E-03 0.159E-03
  12 F= -.99746215E+03 E0= -.99744246E+03  d E =-.393111E-03  mag=     2.0000
       N       E                     dE             d eps       ncg     rms          ort
SDA:   1    -0.997459340478E+03    0.27981E-02    0.00000E+00  2880   0.203E-01 0.000E+00
CGA:   2    -0.997460107354E+03   -0.76688E-03   -0.85150E-03  2880   0.545E-02 0.309E-02
CGA:   3    -0.997461161069E+03   -0.10537E-02   -0.95653E-03  2880   0.804E-02 0.115E-02
CGA:   4    -0.997461951294E+03   -0.79022E-03   -0.80456E-03  2880   0.322E-02-0.151E-02
CGA:   5    -0.997462083551E+03   -0.13226E-03   -0.14476E-03  2880   0.836E-03 0.698E-03
CGA:   6    -0.997462138288E+03   -0.54737E-04   -0.57683E-04  2880   0.504E-03 0.186E-03
CGA:   7    -0.997461720717E+03    0.41757E-03   -0.23357E-03  2880   0.609E-02-0.183E-02
CGA:   8    -0.997461973184E+03   -0.25247E-03   -0.33479E-03  2880   0.157E-02 0.119E-02
CGA:   9    -0.997462155453E+03   -0.18227E-03   -0.17619E-03  2880   0.879E-03-0.185E-03
CGA:  10    -0.997462218646E+03   -0.63193E-04   -0.63639E-04  2880   0.494E-03 0.727E-05
CGA:  11    -0.997462256771E+03   -0.38125E-04   -0.38294E-04  2880   0.934E-04 0.357E-05
CGA:  12    -0.997462267529E+03   -0.10758E-04   -0.10431E-04  2880   0.825E-04-0.331E-04
CGA:  13    -0.997462273410E+03   -0.58810E-05   -0.59590E-05  2880   0.607E-04 0.912E-05
  13 F= -.99746227E+03 E0= -.99744259E+03  d E =-.127193E-03  mag=     2.0000
       N       E                     dE             d eps       ncg     rms          ort
SDA:   1    -0.997309889364E+03    0.15238E+00    0.00000E+00  2880   0.448E+00 0.000E+00
CGA:   2    -0.997358846951E+03   -0.48958E-01   -0.48787E-01  2880   0.642E+00-0.393E-03
CGA:   3    -0.997444272993E+03   -0.85426E-01   -0.85403E-01  2880   0.621E-01-0.175E-02
CGA:   4    -0.997452899852E+03   -0.86269E-02   -0.86511E-02  2880   0.795E-01-0.942E-03
CGA:   5    -0.997458224409E+03   -0.53246E-02   -0.52956E-02  2880   0.215E-01-0.110E-02
CGA:   6    -0.997459500396E+03   -0.12760E-02   -0.13552E-02  2880   0.443E-02 0.133E-02
CGA:   7    -0.997460342213E+03   -0.84182E-03   -0.91365E-03  2880   0.595E-02-0.905E-03
CGA:   8    -0.997460582765E+03   -0.24055E-03   -0.27694E-03  2880   0.217E-02 0.627E-03
CGA:   9    -0.997460720341E+03   -0.13758E-03   -0.15347E-03  2880   0.977E-03 0.309E-03
CGA:  10    -0.997460844059E+03   -0.12372E-03   -0.11905E-03  2880   0.144E-02-0.751E-03
CGA:  11    -0.997460886116E+03   -0.42058E-04   -0.67682E-04  2880   0.329E-03 0.390E-03
CGA:  12    -0.997460914852E+03   -0.28736E-04   -0.31693E-04  2880   0.162E-03 0.887E-04
CGA:  13    -0.997460491354E+03    0.42350E-03   -0.22959E-03  2880   0.104E-01-0.946E-03
CGA:  14    -0.997460842471E+03   -0.35112E-03   -0.42775E-03  2880   0.844E-03 0.959E-03
CGA:  15    -0.997460944192E+03   -0.10172E-03   -0.96017E-04  2880   0.343E-03-0.774E-04
CGA:  16    -0.997461001675E+03   -0.57482E-04   -0.50759E-04  2880   0.119E-02-0.320E-03
CGA:  17    -0.997461009721E+03   -0.80467E-05   -0.41691E-04  2880   0.857E-04 0.228E-03
  14 F= -.99746101E+03 E0= -.99744139E+03  d E =0.126369E-02  mag=     2.0000
       N       E                     dE             d eps       ncg     rms          ort
SDA:   1    -0.997266055186E+03    0.19495E+00    0.00000E+00  2880   0.912E+00 0.000E+00
CGA:   2    -0.997320416040E+03   -0.54361E-01   -0.54000E-01  2880   0.603E+00-0.333E-01
CGA:   3    -0.997416798945E+03   -0.96383E-01   -0.96391E-01  2880   0.317E+00 0.118E-03
CGA:   4    -0.997440713627E+03   -0.23915E-01   -0.25005E-01  2880   0.129E+00-0.854E-02
CGA:   5    -0.997450390117E+03   -0.96765E-02   -0.96586E-02  2880   0.360E-01-0.320E-03
CGA:   6    -0.997456196467E+03   -0.58063E-02   -0.57984E-02  2880   0.250E-01 0.180E-02
CGA:   7    -0.997458363021E+03   -0.21666E-02   -0.20034E-02  2880   0.515E-02-0.270E-02
CGA:   8    -0.997458884897E+03   -0.52188E-03   -0.53318E-03  2880   0.463E-02 0.295E-03
CGA:   9    -0.997459143196E+03   -0.25830E-03   -0.31614E-03  2880   0.137E-02 0.653E-03
CGA:  10    -0.997459220717E+03   -0.77521E-04   -0.52306E-03  2880   0.135E-01-0.236E-02
CGA:  11    -0.997459551078E+03   -0.33036E-03   -0.50367E-03  2880   0.821E-03 0.202E-02
CGA:  12    -0.997459555238E+03   -0.41592E-05   -0.35866E-04  2880   0.264E-03 0.290E-03
CGA:  13    -0.997459579580E+03   -0.24342E-04   -0.30383E-04  2880   0.395E-03 0.103E-03
CGA:  14    -0.997459653061E+03   -0.73481E-04   -0.71689E-04  2880   0.170E-03-0.184E-03
CGA:  15    -0.997459625232E+03    0.27829E-04   -0.25666E-04  2880   0.155E-02-0.373E-03
CGA:  16    -0.997459670262E+03   -0.45030E-04   -0.67640E-04  2880   0.184E-03 0.212E-03
CGA:  17    -0.997459673381E+03   -0.31187E-05   -0.12441E-04  2880   0.121E-03 0.112E-03
CGA:  18    -0.997459545218E+03    0.12816E-03   -0.74508E-04  2880   0.465E-02-0.427E-03
CGA:  19    -0.997459711899E+03   -0.16668E-03   -0.19733E-03  2880   0.102E-03 0.272E-03
CGA:  20    -0.997459705462E+03    0.64377E-05   -0.25669E-05  2880   0.470E-04 0.685E-04
  15 F= -.99745971E+03 E0= -.99744009E+03  d E =0.130426E-02  mag=     2.0000
       N       E                     dE             d eps       ncg     rms          ort
SDA:   1    -0.997378562614E+03    0.81149E-01    0.00000E+00  2880   0.878E+00 0.000E+00
CGA:   2    -0.997408763359E+03   -0.30201E-01   -0.35070E-01  2880   0.168E+00-0.883E-01
CGA:   3    -0.997439977602E+03   -0.31214E-01   -0.31101E-01  2880   0.200E+00 0.843E-03
CGA:   4    -0.997451776722E+03   -0.11799E-01   -0.11406E-01  2880   0.273E-01 0.613E-02
CGA:   5    -0.997455592360E+03   -0.38156E-02   -0.38137E-02  2880   0.333E-01-0.117E-02
CGA:   6    -0.997457934067E+03   -0.23417E-02   -0.23958E-02  2880   0.105E-01 0.751E-03
CGA:   7    -0.997459164894E+03   -0.12308E-02   -0.12065E-02  2880   0.501E-02-0.115E-02
CGA:   8    -0.997459301081E+03   -0.13619E-03   -0.21736E-03  2880   0.118E-02 0.971E-03
CGA:   9    -0.997459418307E+03   -0.11723E-03   -0.13145E-03  2880   0.112E-02 0.407E-03
CGA:  10    -0.997459617175E+03   -0.19887E-03   -0.26552E-03  2880   0.439E-02-0.138E-02
CGA:  11    -0.997459693509E+03   -0.76334E-04   -0.15000E-03  2880   0.574E-03 0.737E-03
CGA:  12    -0.997459708328E+03   -0.14819E-04   -0.33020E-04  2880   0.242E-03 0.243E-03
CGA:  13    -0.997459742785E+03   -0.34458E-04   -0.30597E-04  2880   0.282E-03-0.121E-03
CGA:  14    -0.997459751444E+03   -0.86591E-05   -0.76250E-05  2880   0.322E-03-0.162E-04
CGA:  15    -0.997459762772E+03   -0.11328E-04   -0.15085E-04  2880   0.292E-03 0.557E-04
CGA:  16    -0.997459788930E+03   -0.26158E-04   -0.25233E-04  2880   0.142E-03-0.242E-04
CGA:  17    -0.997459600337E+03    0.18859E-03   -0.46211E-04  2880   0.766E-02-0.967E-03
CGA:  18    -0.997459781816E+03   -0.18148E-03   -0.24881E-03  2880   0.473E-03 0.653E-03
CGA:  19    -0.997459800476E+03   -0.18660E-04   -0.28193E-04  2880   0.145E-03 0.152E-03
CGA:  20    -0.997459817438E+03   -0.16962E-04   -0.14416E-04  2880   0.951E-04-0.648E-04
CGA:  21    -0.997459816202E+03    0.12358E-05   -0.13470E-05  2880   0.684E-04 0.294E-04
  16 F= -.99745982E+03 E0= -.99744011E+03  d E =-.110741E-03  mag=     2.0000
       N       E                     dE             d eps       ncg     rms          ort
SDA:   1    -0.997284311038E+03    0.17551E+00    0.00000E+00  2880   0.415E+01 0.000E+00
CGA:   2    -0.997423806949E+03   -0.13950E+00   -0.14725E+00  2880   0.166E+00-0.502E+00
CGA:   3    -0.997435476471E+03   -0.11670E-01   -0.11718E-01  2880   0.119E+00 0.243E-02
CGA:   4    -0.997452912821E+03   -0.17436E-01   -0.17285E-01  2880   0.708E-01 0.232E-02
CGA:   5    -0.997457402927E+03   -0.44901E-02   -0.45122E-02  2880   0.199E-01 0.628E-03
CGA:   6    -0.997459734295E+03   -0.23314E-02   -0.23747E-02  2880   0.199E-01-0.250E-02
CGA:   7    -0.997460980711E+03   -0.12464E-02   -0.12983E-02  2880   0.460E-02 0.189E-02
CGA:   8    -0.997461648984E+03   -0.66827E-03   -0.69005E-03  2880   0.182E-02-0.571E-03
CGA:   9    -0.997461703964E+03   -0.54980E-04   -0.85113E-04  2880   0.834E-03 0.620E-03
CGA:  10    -0.997461816765E+03   -0.11280E-03   -0.11255E-03  2880   0.460E-03 0.186E-03
CGA:  11    -0.997461946428E+03   -0.12966E-03    0.17538E-03  2880   0.721E-03-0.111E-03
CGA:  12    -0.997462006964E+03   -0.60536E-04   -0.63300E-04  2880   0.810E-03-0.170E-03
CGA:  13    -0.997461997293E+03    0.96711E-05   -0.12927E-04  2880   0.415E-03 0.284E-03
  17 F= -.99746200E+03 E0= -.99744232E+03  d E =-.218109E-02  mag=     2.0000
       N       E                     dE             d eps       ncg     rms          ort
SDA:   1    -0.997409010907E+03    0.52996E-01    0.00000E+00  2880   0.323E+00 0.000E+00
CGA:   2    -0.997427326600E+03   -0.18316E-01   -0.18999E-01  2880   0.130E+00-0.125E-01
CGA:   3    -0.997448109792E+03   -0.20783E-01   -0.20667E-01  2880   0.123E+00 0.144E-02
CGA:   4    -0.997457120799E+03   -0.90110E-02   -0.90988E-02  2880   0.224E-01 0.293E-02
CGA:   5    -0.997459039413E+03   -0.19186E-02   -0.18958E-02  2880   0.214E-01-0.239E-02
CGA:   6    -0.997460943366E+03   -0.19040E-02   -0.18937E-02  2880   0.475E-02 0.158E-02
CGA:   7    -0.997461523990E+03   -0.58062E-03   -0.57076E-03  2880   0.128E-02 0.535E-03
CGA:   8    -0.997461038426E+03    0.48556E-03   -0.45247E-03  2880   0.330E-01-0.419E-02
CGA:   9    -0.997461884799E+03   -0.84637E-03   -0.10473E-02  2880   0.120E-02 0.301E-02
CGA:  10    -0.997461887731E+03   -0.29322E-05   -0.40463E-04  2880   0.340E-03 0.536E-03
CGA:  11    -0.997461888958E+03   -0.12273E-05   -0.15193E-04  2880   0.158E-03 0.207E-03
CGA:  12    -0.997461933090E+03   -0.44132E-04    0.15901E-04  2880   0.112E-03 0.606E-04
CGA:  13    -0.997461938131E+03   -0.50412E-05   -0.89321E-05  2880   0.682E-04 0.105E-03
  18 F= -.99746194E+03 E0= -.99744231E+03  d E =0.591623E-04  mag=     2.0000
       N       E                     dE             d eps       ncg     rms          ort
SDA:   1    -0.997259980941E+03    0.20195E+00    0.00000E+00  2880   0.854E+00 0.000E+00
CGA:   2    -0.997311951882E+03   -0.51971E-01   -0.52530E-01  2880   0.626E+00-0.683E-02
CGA:   3    -0.997425199544E+03   -0.11325E+00   -0.11377E+00  2880   0.395E+00-0.635E-02
CGA:   4    -0.997446719108E+03   -0.21520E-01   -0.21252E-01  2880   0.528E-01 0.218E-01
CGA:   5    -0.997453436955E+03   -0.67178E-02   -0.66612E-02  2880   0.539E-01 0.116E-02
CGA:   6    -0.997459006029E+03   -0.55691E-02   -0.55762E-02  2880   0.123E-01-0.109E-02
CGA:   7    -0.997459716223E+03   -0.71019E-03   -0.71887E-03  2880   0.441E-02 0.368E-03
CGA:   8    -0.997460252940E+03   -0.53672E-03   -0.51747E-03  2880   0.381E-02 0.898E-03
CGA:   9    -0.997460776396E+03   -0.52346E-03   -0.56140E-03  2880   0.187E-02-0.133E-02
CGA:  10    -0.997460813903E+03   -0.37507E-04   -0.59770E-04  2880   0.718E-03 0.489E-03
CGA:  11    -0.997460837916E+03   -0.24014E-04   -0.39259E-04  2880   0.353E-03 0.312E-03
CGA:  12    -0.997460904866E+03   -0.66950E-04   -0.70028E-04  2880   0.862E-03-0.652E-04
CGA:  13    -0.997460948706E+03   -0.43840E-04   -0.38188E-04  2880   0.658E-03-0.148E-03
CGA:  14    -0.997460966663E+03   -0.17956E-04   -0.15737E-04  2880   0.261E-03-0.371E-04
CGA:  15    -0.997460974381E+03   -0.77178E-05   -0.79418E-05  2880   0.172E-03 0.353E-05
  19 F= -.99746097E+03 E0= -.99744135E+03  d E =0.963750E-03  mag=     2.0000
       N       E                     dE             d eps       ncg     rms          ort
SDA:   1    -0.995787708778E+03    0.16733E+01    0.00000E+00  2880   0.513E+01 0.000E+00
CGA:   2    -0.996312890187E+03   -0.52518E+00   -0.56595E+00  2880   0.796E+01-0.104E+01
CGA:   3    -0.997035153120E+03   -0.72226E+00   -0.73083E+00  2880   0.530E+01-0.208E+00
CGA:   4    -0.997271934909E+03   -0.23678E+00   -0.25705E+00  2880   0.923E+00-0.363E+00
CGA:   5    -0.997332532721E+03   -0.60598E-01   -0.61319E-01  2880   0.638E+00 0.798E-02
CGA:   6    -0.997390829283E+03   -0.58297E-01   -0.58635E-01  2880   0.393E+00-0.158E-01
CGA:   7    -0.997413568227E+03   -0.22739E-01   -0.23104E-01  2880   0.144E+00-0.318E-02
CGA:   8    -0.997424166564E+03   -0.10598E-01   -0.10614E-01  2880   0.748E-01-0.327E-02
CGA:   9    -0.997428167315E+03   -0.40008E-02   -0.41096E-02  2880   0.293E-01 0.488E-02
CGA:  10    -0.997431859124E+03   -0.36918E-02   -0.35687E-02  2880   0.282E-01 0.376E-02
CGA:  11    -0.997434295314E+03   -0.24362E-02   -0.24079E-02  2880   0.168E-01-0.434E-02
CGA:  12    -0.997435148436E+03   -0.85312E-03   -0.83293E-03  2880   0.474E-02-0.971E-03
CGA:  13    -0.997435443171E+03   -0.29474E-03   -0.31340E-03  2880   0.385E-02 0.170E-02
CGA:  14    -0.997435864264E+03   -0.42109E-03   -0.42119E-03  2880   0.232E-02 0.740E-03
CGA:  15    -0.997436071135E+03   -0.20687E-03   -0.70997E-03  2880   0.906E-02-0.285E-02
CGA:  16    -0.997436320712E+03   -0.24958E-03   -0.33687E-03  2880   0.109E-02 0.190E-02
CGA:  17    -0.997436359318E+03   -0.38606E-04   -0.60663E-04  2880   0.635E-03 0.553E-03
CGA:  18    -0.997436493921E+03   -0.13460E-03    0.10761E-03  2880   0.434E-03 0.203E-03
CGA:  19    -0.997436571187E+03   -0.77267E-04   -0.71599E-04  2880   0.164E-03 0.141E-03
CGA:  20    -0.997436581802E+03   -0.10614E-04   -0.13388E-04  2880   0.756E-04 0.109E-03
CGA:  21    -0.997436597320E+03   -0.15518E-04    0.16074E-04  2880   0.744E-04 0.278E-04
CGA:  22    -0.997436601496E+03   -0.41759E-05   -0.60097E-05  2880   0.391E-04 0.691E-04
  20 F= -.99743660E+03 E0= -.99741702E+03  d E =0.243729E-01  mag=     2.0000
       N       E                     dE             d eps       ncg     rms          ort
SDA:   1    -0.996354272566E+03    0.10823E+01    0.00000E+00  2880   0.484E+01 0.000E+00
CGA:   2    -0.996644152023E+03   -0.28988E+00   -0.29318E+00  2880   0.333E+01-0.397E-01
CGA:   3    -0.997261253612E+03   -0.61710E+00   -0.61743E+00  2880   0.194E+01 0.144E-02
CGA:   4    -0.997368153830E+03   -0.10690E+00   -0.10144E+00  2880   0.363E+00 0.676E-01
CGA:   5    -0.997407865479E+03   -0.39712E-01   -0.39522E-01  2880   0.362E+00 0.698E-02
CGA:   6    -0.997444574616E+03   -0.36709E-01   -0.36515E-01  2880   0.765E-01 0.604E-02
CGA:   7    -0.997450854519E+03   -0.62799E-02   -0.62778E-02  2880   0.384E-01 0.113E-02
CGA:   8    -0.997454701107E+03   -0.38466E-02   -0.38604E-02  2880   0.207E-01-0.950E-03
CGA:   9    -0.997457588480E+03   -0.28874E-02   -0.29275E-02  2880   0.108E-01-0.694E-03
CGA:  10    -0.997458315109E+03   -0.72663E-03   -0.74997E-03  2880   0.272E-02 0.141E-02
CGA:  11    -0.997458617490E+03   -0.30238E-03   -0.29827E-03  2880   0.335E-02 0.476E-03
CGA:  12    -0.997459283769E+03   -0.66628E-03   -0.69631E-03  2880   0.154E-02-0.346E-03
CGA:  13    -0.997459309939E+03   -0.26170E-04   -0.51197E-04  2880   0.557E-03 0.443E-03
CGA:  14    -0.997459341434E+03   -0.31495E-04   -0.41750E-04  2880   0.647E-03 0.317E-03
CGA:  15    -0.997457551575E+03    0.17899E-02   -0.97257E-03  2880   0.669E-01-0.450E-02
CGA:  16    -0.997459484930E+03   -0.19334E-02   -0.22701E-02  2880   0.142E-02 0.119E-02
CGA:  17    -0.997459522303E+03   -0.37373E-04   -0.62404E-04  2880   0.213E-03 0.241E-03
CGA:  18    -0.997459545445E+03   -0.23142E-04   -0.23930E-04  2880   0.212E-03 0.133E-04
CGA:  19    -0.997459557032E+03   -0.11588E-04   -0.16426E-04  2880   0.122E-03 0.642E-04
CGA:  20    -0.997459561152E+03   -0.41192E-05   -0.79902E-05  2880   0.296E-04 0.422E-04
  21 F= -.99745956E+03 E0= -.99743994E+03  d E =-.229597E-01  mag=     2.0000
       N       E                     dE             d eps       ncg     rms          ort
SDA:   1    -0.995391438782E+03    0.20681E+01    0.00000E+00  2880   0.106E+02 0.000E+00
CGA:   2    -0.995855531320E+03   -0.46409E+00   -0.74650E+00  2880   0.982E+01-0.332E+01
CGA:   3    -0.997187934485E+03   -0.13324E+01   -0.13521E+01  2880   0.185E+01-0.248E+00
CGA:   4    -0.997288600561E+03   -0.10067E+00   -0.11556E+00  2880   0.886E+00-0.148E+00
CGA:   5    -0.997365869117E+03   -0.77269E-01   -0.78306E-01  2880   0.638E+00 0.127E-01
CGA:   6    -0.997406065563E+03   -0.40196E-01   -0.42321E-01  2880   0.163E+00-0.314E-01
CGA:   7    -0.997420629063E+03   -0.14564E-01   -0.14411E-01  2880   0.587E-01-0.320E-02
CGA:   8    -0.997425465115E+03   -0.48361E-02   -0.49786E-02  2880   0.372E-01 0.545E-02
CGA:   9    -0.997430899109E+03   -0.54340E-02   -0.54631E-02  2880   0.315E-01-0.330E-02
CGA:  10    -0.997432252223E+03   -0.13531E-02   -0.14231E-02  2880   0.708E-02 0.907E-03
CGA:  11    -0.997432892678E+03   -0.64046E-03   -0.67992E-03  2880   0.598E-02 0.153E-02
CGA:  12    -0.997433661765E+03   -0.76909E-03   -0.75469E-03  2880   0.831E-02-0.941E-03
CGA:  13    -0.997434190467E+03   -0.52870E-03   -0.51915E-03  2880   0.421E-02-0.290E-03
CGA:  14    -0.997434345173E+03   -0.15471E-03   -0.19707E-03  2880   0.205E-02 0.620E-03
CGA:  15    -0.997434447165E+03   -0.10199E-03   -0.11930E-03  2880   0.818E-03 0.270E-03
CGA:  16    -0.997434562330E+03   -0.11517E-03   -0.12366E-03  2880   0.262E-02-0.373E-03
CGA:  17    -0.997434622704E+03   -0.60374E-04   -0.52066E-04  2880   0.266E-02-0.116E-03
CGA:  18    -0.997434682100E+03   -0.59396E-04   -0.67103E-04  2880   0.100E-02 0.865E-04
CGA:  19    -0.997434708681E+03   -0.26581E-04   -0.31673E-04  2880   0.652E-03 0.713E-04
CGA:  20    -0.997434736901E+03   -0.28220E-04   -0.27545E-04  2880   0.473E-03-0.127E-04
CGA:  21    -0.997434754068E+03   -0.17167E-04   -0.16141E-04  2880   0.354E-03-0.164E-04
CGA:  22    -0.997434761041E+03   -0.69725E-05   -0.11492E-04  2880   0.358E-03 0.745E-04
CGA:  23    -0.997434765092E+03   -0.40512E-05   -0.13507E-04  2880   0.267E-03 0.156E-03
CGA:  24    -0.997434769307E+03   -0.42155E-05   -0.11261E-04  2880   0.134E-03 0.118E-03
  22 F= -.99743477E+03 E0= -.99741524E+03  d E =0.247918E-01  mag=     2.0000
       N       E                     dE             d eps       ncg     rms          ort
SDA:   1    -0.996466953661E+03    0.96781E+00    0.00000E+00  2880   0.475E+01 0.000E+00
CGA:   2    -0.996719773957E+03   -0.25282E+00   -0.25572E+00  2880   0.286E+01-0.179E+00
CGA:   3    -0.997315201914E+03   -0.59543E+00   -0.59522E+00  2880   0.841E+00-0.813E-03
CGA:   4    -0.997383341861E+03   -0.68140E-01   -0.68018E-01  2880   0.398E+00-0.934E-02
CGA:   5    -0.997426613384E+03   -0.43272E-01   -0.43409E-01  2880   0.182E+00-0.722E-02
CGA:   6    -0.997445199545E+03   -0.18586E-01   -0.18493E-01  2880   0.739E-01 0.830E-02
CGA:   7    -0.997450974080E+03   -0.57745E-02   -0.57161E-02  2880   0.281E-01-0.599E-02
CGA:   8    -0.997453474564E+03   -0.25005E-02   -0.24848E-02  2880   0.238E-01 0.198E-02
CGA:   9    -0.997455829720E+03   -0.23552E-02   -0.23524E-02  2880   0.674E-02 0.962E-03
CGA:  10    -0.997456606648E+03   -0.77693E-03   -0.87915E-03  2880   0.106E-01-0.289E-02
CGA:  11    -0.997457268767E+03   -0.66212E-03   -0.66485E-03  2880   0.479E-02-0.157E-03
CGA:  12    -0.997457373899E+03   -0.10513E-03   -0.18112E-03  2880   0.156E-02 0.143E-02
CGA:  13    -0.997457433824E+03   -0.59925E-04   -0.95218E-04  2880   0.114E-02 0.828E-03
CGA:  14    -0.997457656089E+03   -0.22226E-03    0.43134E-03  2880   0.928E-03 0.226E-03
CGA:  15    -0.997457800613E+03   -0.14452E-03   -0.13085E-03  2880   0.311E-03 0.448E-03
CGA:  16    -0.997457822563E+03   -0.21950E-04   -0.28032E-04  2880   0.162E-03 0.217E-03
CGA:  17    -0.997457859303E+03   -0.36741E-04    0.23683E-04  2880   0.155E-03 0.824E-04
CGA:  18    -0.997457866933E+03   -0.76300E-05   -0.93004E-05  2880   0.128E-03 0.606E-04
CGA:  19    -0.997457890858E+03   -0.23925E-04   -0.20389E-04  2880   0.112E-03 0.126E-03
CGA:  20    -0.997457924225E+03   -0.33367E-04    0.69597E-05  2880   0.135E-03-0.719E-05
CGA:  21    -0.997457953118E+03   -0.28893E-04    0.17805E-04  2880   0.970E-04 0.860E-04
CGA:  22    -0.997457949061E+03    0.40563E-05   -0.14047E-05  2880   0.609E-04 0.749E-04
  23 F= -.99745795E+03 E0= -.99743833E+03  d E =-.231798E-01  mag=     2.0000
       N       E                     dE             d eps       ncg     rms          ort
SDA:   1    -0.997019542087E+03    0.43841E+00    0.00000E+00  2880   0.162E+01 0.000E+00
CGA:   2    -0.997126412381E+03   -0.10687E+00   -0.10680E+00  2880   0.147E+01 0.104E-01
CGA:   3    -0.997386955544E+03   -0.26054E+00   -0.26039E+00  2880   0.639E+00 0.133E-03
CGA:   4    -0.997421880054E+03   -0.34925E-01   -0.36985E-01  2880   0.145E+00-0.152E-01
CGA:   5    -0.997439430226E+03   -0.17550E-01   -0.17232E-01  2880   0.144E+00 0.803E-02
CGA:   6    -0.997449888843E+03   -0.10459E-01   -0.10421E-01  2880   0.298E-01-0.178E-02
CGA:   7    -0.997452073549E+03   -0.21847E-02   -0.21696E-02  2880   0.170E-01-0.177E-02
CGA:   8    -0.997454213654E+03   -0.21401E-02   -0.21320E-02  2880   0.950E-02 0.106E-03
CGA:   9    -0.997454834586E+03   -0.62093E-03   -0.64433E-03  2880   0.155E-02 0.128E-02
CGA:  10    -0.997454854233E+03   -0.19646E-04   -0.15050E-03  2880   0.189E-01-0.212E-02
CGA:  11    -0.997455365111E+03   -0.51088E-03   -0.66279E-03  2880   0.171E-02 0.104E-02
CGA:  12    -0.997455476286E+03   -0.11118E-03   -0.13881E-03  2880   0.685E-03 0.383E-03
CGA:  13    -0.997455609016E+03   -0.13273E-03   -0.15863E-03  2880   0.277E-02-0.600E-03
CGA:  14    -0.997455650609E+03   -0.41593E-04   -0.89829E-04  2880   0.274E-03 0.414E-03
CGA:  15    -0.997455656501E+03   -0.58916E-05   -0.15571E-04  2880   0.124E-03 0.105E-03
CGA:  16    -0.997455680084E+03   -0.23583E-04   -0.22859E-04  2880   0.403E-03-0.181E-03
CGA:  17    -0.997455687777E+03   -0.76924E-05   -0.16151E-04  2880   0.953E-04 0.843E-04
  24 F= -.99745569E+03 E0= -.99743613E+03  d E =0.226128E-02  mag=     2.0000
       N       E                     dE             d eps       ncg     rms          ort
SDA:   1    -0.997386257532E+03    0.69423E-01    0.00000E+00  2880   0.214E+00 0.000E+00
CGA:   2    -0.997412746532E+03   -0.26489E-01   -0.26408E-01  2880   0.313E+00-0.312E-02
CGA:   3    -0.997447811967E+03   -0.35065E-01   -0.35001E-01  2880   0.686E-01-0.442E-02
CGA:   4    -0.997453342694E+03   -0.55307E-02   -0.54792E-02  2880   0.326E-01-0.948E-03
CGA:   5    -0.997456169771E+03   -0.28271E-02   -0.29115E-02  2880   0.253E-01 0.217E-02
CGA:   6    -0.997458441008E+03   -0.22712E-02   -0.22657E-02  2880   0.622E-02-0.120E-02
CGA:   7    -0.997459087296E+03   -0.64629E-03   -0.64698E-03  2880   0.197E-02 0.762E-04
CGA:   8    -0.997459391403E+03   -0.30411E-03   -0.34083E-03  2880   0.550E-02-0.760E-03
CGA:   9    -0.997459526062E+03   -0.13466E-03   -0.16126E-03  2880   0.248E-02 0.341E-03
CGA:  10    -0.997459559197E+03   -0.33136E-04   -0.67227E-04  2880   0.504E-03 0.343E-03
CGA:  11    -0.997459573506E+03   -0.14308E-04   -0.22366E-04  2880   0.428E-03 0.104E-03
CGA:  12    -0.997459635865E+03   -0.62359E-04   -0.65595E-04  2880   0.156E-02-0.215E-03
CGA:  13    -0.997459701175E+03   -0.65310E-04   -0.66998E-04  2880   0.809E-04 0.113E-04
CGA:  14    -0.997459700790E+03    0.38445E-06   -0.35615E-05  2880   0.605E-04 0.604E-04
CGA:  15    -0.997459719842E+03   -0.19052E-04   -0.16711E-04  2880   0.123E-03 0.136E-04
CGA:  16    -0.997459733013E+03   -0.13171E-04   -0.31411E-04  2880   0.641E-03-0.195E-03
CGA:  17    -0.997459738097E+03   -0.50836E-05   -0.19336E-04  2880   0.542E-04 0.160E-03
  25 F= -.99745974E+03 E0= -.99744008E+03  d E =-.405032E-02  mag=     2.0000
       N       E                     dE             d eps       ncg     rms          ort
SDA:   1    -0.997432347202E+03    0.27386E-01    0.00000E+00  2880   0.103E+00 0.000E+00
CGA:   2    -0.997440596326E+03   -0.82491E-02   -0.80740E-02  2880   0.115E+00-0.770E-02
CGA:   3    -0.997456610575E+03   -0.16014E-01   -0.15954E-01  2880   0.437E-01 0.123E-02
CGA:   4    -0.997458694770E+03   -0.20842E-02   -0.21828E-02  2880   0.878E-02 0.354E-02
CGA:   5    -0.997459987408E+03   -0.12926E-02   -0.12981E-02  2880   0.714E-02-0.185E-03
CGA:   6    -0.997460671765E+03   -0.68436E-03   -0.67150E-03  2880   0.449E-02-0.106E-02
CGA:   7    -0.997460890190E+03   -0.21843E-03   -0.22557E-03  2880   0.137E-02 0.116E-03
CGA:   8    -0.997460923304E+03   -0.33113E-04   -0.62986E-04  2880   0.490E-03 0.487E-03
CGA:   9    -0.997460949825E+03   -0.26522E-04   -0.36900E-04  2880   0.406E-03 0.218E-03
CGA:  10    -0.997461012788E+03   -0.62962E-04   -0.14034E-03  2880   0.850E-03-0.557E-03
CGA:  11    -0.997461040733E+03   -0.27945E-04   -0.41866E-04  2880   0.213E-03 0.247E-03
CGA:  12    -0.997461064270E+03   -0.23537E-04   -0.24646E-04  2880   0.158E-03 0.739E-04
CGA:  13    -0.997460939504E+03    0.12477E-03   -0.90067E-04  2880   0.191E-02-0.671E-03
CGA:  14    -0.997460974110E+03   -0.34606E-04   -0.79224E-04  2880   0.440E-03 0.602E-03
CGA:  15    -0.997461005576E+03   -0.31466E-04   -0.40562E-04  2880   0.363E-03 0.200E-03
CGA:  16    -0.997460830726E+03    0.17485E-03   -0.20300E-03  2880   0.359E-02-0.140E-02
CGA:  17    -0.997460912510E+03   -0.81783E-04   -0.14966E-03  2880   0.746E-03 0.846E-03
CGA:  18    -0.997460974177E+03   -0.61668E-04   -0.75478E-04  2880   0.632E-03 0.340E-03
CGA:  19    -0.997461091399E+03   -0.11722E-03   -0.12159E-03  2880   0.658E-03-0.385E-03
CGA:  20    -0.997461091941E+03   -0.54240E-06   -0.21147E-04  2880   0.118E-03 0.232E-03
  26 F= -.99746109E+03 E0= -.99744145E+03  d E =-.135384E-02  mag=     2.0000
       N       E                     dE             d eps       ncg     rms          ort
SDA:   1    -0.997098926959E+03    0.36216E+00    0.00000E+00  2880   0.101E+01 0.000E+00
CGA:   2    -0.997254809528E+03   -0.15588E+00   -0.14910E+00  2880   0.124E+01 0.131E+00
CGA:   3    -0.997406884639E+03   -0.15208E+00   -0.15152E+00  2880   0.354E+00-0.286E-01
CGA:   4    -0.997432200884E+03   -0.25316E-01   -0.25439E-01  2880   0.124E+00-0.776E-02
CGA:   5    -0.997448868887E+03   -0.16668E-01   -0.16729E-01  2880   0.673E-01-0.289E-02
CGA:   6    -0.997454347013E+03   -0.54781E-02   -0.55606E-02  2880   0.130E-01 0.293E-02
CGA:   7    -0.997455934524E+03   -0.15875E-02   -0.15916E-02  2880   0.143E-01-0.902E-03
CGA:   8    -0.997456923365E+03   -0.98884E-03   -0.10088E-02  2880   0.611E-02 0.439E-03
CGA:   9    -0.997457474286E+03   -0.55092E-03   -0.55048E-03  2880   0.217E-02-0.243E-04
CGA:  10    -0.997457675839E+03   -0.20155E-03   -0.20218E-03  2880   0.131E-02 0.401E-04
CGA:  11    -0.997457859827E+03   -0.18399E-03   -0.22421E-03  2880   0.377E-02-0.683E-03
CGA:  12    -0.997457972855E+03   -0.11303E-03   -0.13507E-03  2880   0.314E-03 0.258E-03
CGA:  13    -0.997457972362E+03    0.49220E-06   -0.12606E-04  2880   0.167E-03 0.188E-03
CGA:  14    -0.997458008660E+03   -0.36297E-04   -0.36917E-04  2880   0.572E-03-0.572E-05
CGA:  15    -0.997458068730E+03   -0.60070E-04   -0.59944E-04  2880   0.339E-03-0.991E-04
CGA:  16    -0.997458078789E+03   -0.10059E-04   -0.15715E-04  2880   0.116E-03 0.105E-03
CGA:  17    -0.997458096317E+03   -0.17527E-04   -0.20291E-04  2880   0.249E-03-0.106E-03
CGA:  18    -0.997458116081E+03   -0.19764E-04   -0.15635E-04  2880   0.155E-03-0.938E-04
CGA:  19    -0.997458116634E+03   -0.55303E-06   -0.37149E-05  2880   0.614E-04 0.465E-04
  27 F= -.99745812E+03 E0= -.99743858E+03  d E =0.297531E-02  mag=     2.0000
       N       E                     dE             d eps       ncg     rms          ort
SDA:   1    -0.997201058463E+03    0.25706E+00    0.00000E+00  2880   0.351E+01 0.000E+00
CGA:   2    -0.997331658965E+03   -0.13060E+00   -0.12822E+00  2880   0.349E+00-0.165E+00
CGA:   3    -0.997414004417E+03   -0.82345E-01   -0.83123E-01  2880   0.488E+00-0.801E-02
CGA:   4    -0.997444939282E+03   -0.30935E-01   -0.31751E-01  2880   0.811E-01-0.133E-01
CGA:   5    -0.997451158544E+03   -0.62193E-02   -0.62846E-02  2880   0.570E-01 0.232E-02
CGA:   6    -0.997457037661E+03   -0.58791E-02   -0.58793E-02  2880   0.225E-01 0.963E-03
CGA:   7    -0.997459271534E+03   -0.22339E-02   -0.22348E-02  2880   0.840E-02 0.267E-03
CGA:   8    -0.997460004515E+03   -0.73298E-03   -0.70332E-03  2880   0.572E-02-0.174E-02
CGA:   9    -0.997460332542E+03   -0.32803E-03   -0.35257E-03  2880   0.194E-02 0.113E-02
CGA:  10    -0.997460540174E+03   -0.20763E-03   -0.21075E-03  2880   0.104E-02 0.422E-03
CGA:  11    -0.997460668535E+03   -0.12836E-03   -0.21765E-03  2880   0.475E-02-0.121E-02
CGA:  12    -0.997460760989E+03   -0.92454E-04   -0.15217E-03  2880   0.467E-03 0.877E-03
CGA:  13    -0.997460772628E+03   -0.11639E-04   -0.22928E-04  2880   0.227E-03 0.201E-03
CGA:  14    -0.997460807270E+03   -0.34642E-04   -0.41641E-04  2880   0.508E-03-0.212E-03
CGA:  15    -0.997460838920E+03   -0.31650E-04   -0.31967E-04  2880   0.187E-03 0.819E-05
CGA:  16    -0.997460852014E+03   -0.13095E-04   -0.13267E-04  2880   0.796E-04 0.582E-05
CGA:  17    -0.997460851866E+03    0.14866E-06   -0.34303E-05  2880   0.670E-04 0.685E-04
  28 F= -.99746085E+03 E0= -.99744126E+03  d E =-.273523E-02  mag=     2.0000
       N       E                     dE             d eps       ncg     rms          ort
SDA:   1    -0.996999325670E+03    0.46153E+00    0.00000E+00  2880   0.112E+01 0.000E+00
CGA:   2    -0.997230164017E+03   -0.23084E+00   -0.26414E+00  2880   0.350E+01-0.271E+00
CGA:   3    -0.997384798029E+03   -0.15463E+00   -0.15816E+00  2880   0.667E+00-0.376E-01
CGA:   4    -0.997413917254E+03   -0.29119E-01   -0.33177E-01  2880   0.201E+00-0.572E-01
CGA:   5    -0.997438192644E+03   -0.24275E-01   -0.24282E-01  2880   0.214E+00 0.693E-03
CGA:   6    -0.997450815178E+03   -0.12623E-01   -0.12875E-01  2880   0.259E-01 0.255E-02
CGA:   7    -0.997453974560E+03   -0.31594E-02   -0.32075E-02  2880   0.344E-01-0.207E-02
CGA:   8    -0.997456970037E+03   -0.29955E-02   -0.29956E-02  2880   0.140E-01-0.949E-05
CGA:   9    -0.997457636437E+03   -0.66640E-03   -0.73261E-03  2880   0.295E-02 0.135E-02
CGA:  10    -0.997457980989E+03   -0.34455E-03   -0.34392E-03  2880   0.457E-02 0.466E-04
CGA:  11    -0.997458529474E+03   -0.54848E-03   -0.55390E-03  2880   0.192E-02-0.235E-03
CGA:  12    -0.997458583616E+03   -0.54142E-04   -0.67330E-04  2880   0.465E-03 0.235E-03
CGA:  13    -0.997458625497E+03   -0.41882E-04   -0.42563E-04  2880   0.707E-03 0.549E-04
CGA:  14    -0.997458713563E+03   -0.88066E-04   -0.14424E-03  2880   0.135E-02-0.633E-03
CGA:  15    -0.997458749597E+03   -0.36034E-04   -0.58453E-04  2880   0.231E-03 0.412E-03
CGA:  16    -0.997458761106E+03   -0.11509E-04   -0.15503E-04  2880   0.964E-04 0.912E-04
CGA:  17    -0.997458777742E+03   -0.16635E-04   -0.16828E-04  2880   0.108E-03-0.593E-05
CGA:  18    -0.997458776866E+03    0.87541E-06   -0.27882E-05  2880   0.673E-04 0.546E-04
  29 F= -.99745878E+03 E0= -.99743915E+03  d E =0.207500E-02  mag=     2.0000
       N       E                     dE             d eps       ncg     rms          ort
SDA:   1    -0.997248270971E+03    0.21051E+00    0.00000E+00  2880   0.205E+01 0.000E+00
CGA:   2    -0.997325545291E+03   -0.77274E-01   -0.76978E-01  2880   0.339E+00-0.814E-02
CGA:   3    -0.997432768203E+03   -0.10722E+00   -0.10937E+00  2880   0.154E+00-0.889E-02
CGA:   4    -0.997441594659E+03   -0.88265E-02   -0.89255E-02  2880   0.605E-01 0.719E-02
CGA:   5    -0.997451004724E+03   -0.94101E-02   -0.93517E-02  2880   0.467E-01 0.109E-02
CGA:   6    -0.997454485601E+03   -0.34809E-02   -0.33637E-02  2880   0.186E-01-0.488E-02
CGA:   7    -0.997455425012E+03   -0.93941E-03   -0.98688E-03  2880   0.462E-02 0.149E-02
CGA:   8    -0.997455892738E+03   -0.46773E-03   -0.46905E-03  2880   0.315E-02 0.120E-02
CGA:   9    -0.997456377527E+03   -0.48479E-03   -0.57361E-03  2880   0.772E-02-0.182E-02
CGA:  10    -0.997456557625E+03   -0.18010E-03   -0.24949E-03  2880   0.686E-03 0.113E-02
CGA:  11    -0.997456586657E+03   -0.29033E-04   -0.39990E-04  2880   0.434E-03 0.258E-03
CGA:  12    -0.997456661587E+03   -0.74930E-04   -0.10217E-03  2880   0.183E-02-0.347E-03
CGA:  13    -0.997456731145E+03   -0.69558E-04   -0.81021E-04  2880   0.281E-03 0.217E-03
CGA:  14    -0.997456763127E+03   -0.31981E-04   -0.34680E-04  2880   0.417E-03-0.160E-03
CGA:  15    -0.997456774472E+03   -0.11345E-04   -0.17512E-04  2880   0.105E-03 0.120E-03
CGA:  16    -0.997456789467E+03   -0.14995E-04   -0.15499E-04  2880   0.208E-03-0.220E-04
CGA:  17    -0.997456810542E+03   -0.21075E-04   -0.33268E-04  2880   0.945E-03-0.112E-03
CGA:  18    -0.997456844236E+03   -0.33695E-04   -0.42953E-04  2880   0.105E-03 0.174E-03
CGA:  19    -0.997456855428E+03   -0.11192E-04   -0.15532E-04  2880   0.241E-03-0.149E-03
CGA:  20    -0.997456858967E+03   -0.35387E-05   -0.81504E-05  2880   0.386E-04 0.733E-04
  30 F= -.99745686E+03 E0= -.99743727E+03  d E =0.191790E-02  mag=     2.0000
       N       E                     dE             d eps       ncg     rms          ort
SDA:   1    -0.997344304051E+03    0.11255E+00    0.00000E+00  2880   0.138E+01 0.000E+00
CGA:   2    -0.997394275285E+03   -0.49971E-01   -0.49580E-01  2880   0.168E+00-0.342E-01
CGA:   3    -0.997447282057E+03   -0.53007E-01   -0.52326E-01  2880   0.114E+00 0.280E-02
CGA:   4    -0.997453716371E+03   -0.64343E-02   -0.65551E-02  2880   0.326E-01-0.403E-02
CGA:   5    -0.997457141691E+03   -0.34253E-02   -0.34261E-02  2880   0.295E-01-0.128E-03
CGA:   6    -0.997459728842E+03   -0.25872E-02   -0.25844E-02  2880   0.781E-02-0.439E-03
CGA:   7    -0.997460099680E+03   -0.37084E-03   -0.42433E-03  2880   0.186E-02 0.125E-02
CGA:   8    -0.997460246462E+03   -0.14678E-03   -0.90029E-03  2880   0.110E-01-0.231E-02
CGA:   9    -0.997460685168E+03   -0.43871E-03   -0.52893E-03  2880   0.112E-02 0.202E-02
CGA:  10    -0.997460786050E+03   -0.10088E-03   -0.10396E-03  2880   0.486E-03 0.107E-03
CGA:  11    -0.997460619272E+03    0.16678E-03   -0.18250E-03  2880   0.680E-02-0.150E-02
CGA:  12    -0.997460855015E+03   -0.23574E-03   -0.30922E-03  2880   0.799E-03 0.101E-02
CGA:  13    -0.997460875369E+03   -0.20354E-04   -0.42124E-04  2880   0.226E-03 0.315E-03
CGA:  14    -0.997460909002E+03   -0.33632E-04   -0.32868E-04  2880   0.180E-03-0.989E-04
CGA:  15    -0.997460209778E+03    0.69922E-03   -0.38505E-03  2880   0.148E-01-0.126E-02
CGA:  16    -0.997460640458E+03   -0.43068E-03   -0.52153E-03  2880   0.148E-02 0.818E-03
CGA:  17    -0.997460817881E+03   -0.17742E-03   -0.19037E-03  2880   0.781E-03 0.182E-03
CGA:  18    -0.997460923131E+03   -0.10525E-03   -0.82233E-04  2880   0.843E-03-0.248E-03
CGA:  19    -0.997460944243E+03   -0.21113E-04   -0.28229E-04  2880   0.300E-03 0.494E-04
CGA:  20    -0.997460939270E+03    0.49739E-05   -0.85126E-05  2880   0.980E-04 0.879E-04
  31 F= -.99746094E+03 E0= -.99744133E+03  d E =-.408030E-02  mag=     2.0000
       N       E                     dE             d eps       ncg     rms          ort
SDA:   1    -0.997384587721E+03    0.76357E-01    0.00000E+00  2880   0.154E+01 0.000E+00
CGA:   2    -0.997434489294E+03   -0.49902E-01   -0.60680E-01  2880   0.151E+00-0.337E+00
CGA:   3    -0.997443592353E+03   -0.91031E-02   -0.92982E-02  2880   0.686E-01 0.185E-02
CGA:   4    -0.997452931404E+03   -0.93391E-02   -0.93425E-02  2880   0.693E-01-0.484E-03
CGA:   5    -0.997457931718E+03   -0.50003E-02   -0.50935E-02  2880   0.122E-01 0.122E-02
CGA:   6    -0.997459092688E+03   -0.11610E-02   -0.10918E-02  2880   0.107E-01-0.125E-02
CGA:   7    -0.997460081778E+03   -0.98909E-03   -0.10267E-02  2880   0.161E-02 0.914E-03
CGA:   8    -0.997460264014E+03   -0.18224E-03   -0.15843E-03  2880   0.202E-02-0.461E-03
CGA:   9    -0.997460401515E+03   -0.13750E-03   -0.14817E-03  2880   0.571E-03 0.272E-03
CGA:  10    -0.997460417733E+03   -0.16218E-04   -0.28598E-04  2880   0.166E-03 0.134E-03
CGA:  11    -0.997460445860E+03   -0.28126E-04   -0.34094E-04  2880   0.751E-03-0.190E-03
CGA:  12    -0.997460464662E+03   -0.18802E-04   -0.29997E-04  2880   0.786E-04 0.115E-03
CGA:  13    -0.997460469291E+03   -0.46285E-05   -0.52673E-05  2880   0.339E-04 0.838E-05
CGA:  14    -0.997460476066E+03   -0.67751E-05   -0.14839E-04  2880   0.287E-03-0.303E-04
CGA:  15    -0.997460489975E+03   -0.13909E-04   -0.14104E-04  2880   0.446E-04 0.189E-06
CGA:  16    -0.997460492494E+03   -0.25194E-05   -0.26646E-05  2880   0.918E-05 0.165E-05
  32 F= -.99746049E+03 E0= -.99744088E+03  d E =0.446775E-03  mag=     2.0000
       N       E                     dE             d eps       ncg     rms          ort
SDA:   1    -0.996867727834E+03    0.59276E+00    0.00000E+00  2880   0.255E+01 0.000E+00
CGA:   2    -0.997010706554E+03   -0.14298E+00   -0.15280E+00  2880   0.197E+01-0.157E+00
CGA:   3    -0.997392493476E+03   -0.38179E+00   -0.38191E+00  2880   0.262E+00-0.185E-02
CGA:   4    -0.997424861324E+03   -0.32368E-01   -0.32431E-01  2880   0.252E+00 0.620E-02
CGA:   5    -0.997445033271E+03   -0.20172E-01   -0.20255E-01  2880   0.705E-01 0.442E-02
CGA:   6    -0.997450024267E+03   -0.49910E-02   -0.48420E-02  2880   0.256E-01-0.393E-02
CGA:   7    -0.997452391127E+03   -0.23669E-02   -0.23699E-02  2880   0.171E-01 0.337E-03
CGA:   8    -0.997453955512E+03   -0.15644E-02   -0.15919E-02  2880   0.553E-02 0.104E-02
CGA:   9    -0.997454734867E+03   -0.77935E-03   -0.79864E-03  2880   0.368E-02-0.123E-02
CGA:  10    -0.997454900135E+03   -0.16527E-03   -0.20352E-03  2880   0.135E-02 0.780E-03
CGA:  11    -0.997455019312E+03   -0.11918E-03   -0.13336E-03  2880   0.776E-03 0.397E-03
CGA:  12    -0.997454547525E+03    0.47179E-03   -0.42008E-03  2880   0.165E-01-0.296E-02
CGA:  13    -0.997455138032E+03   -0.59051E-03   -0.76835E-03  2880   0.163E-02 0.244E-02
CGA:  14    -0.997455241292E+03   -0.10326E-03   -0.12236E-03  2880   0.384E-03 0.325E-03
CGA:  15    -0.997455264045E+03   -0.22753E-04   -0.10361E-03  2880   0.247E-02-0.796E-03
CGA:  16    -0.997455307324E+03   -0.43279E-04   -0.10011E-03  2880   0.335E-03 0.715E-03
CGA:  17    -0.997455316163E+03   -0.88395E-05   -0.18499E-04  2880   0.831E-04 0.122E-03
CGA:  18    -0.997455347128E+03   -0.30965E-04    0.51300E-04  2880   0.111E-03-0.961E-04
CGA:  19    -0.997455345513E+03    0.16154E-05   -0.37797E-05  2880   0.424E-04 0.623E-04
  33 F= -.99745535E+03 E0= -.99743570E+03  d E =0.514698E-02  mag=     2.0000
       N       E                     dE             d eps       ncg     rms          ort
SDA:   1    -0.997256246578E+03    0.19910E+00    0.00000E+00  2880   0.930E+00 0.000E+00
CGA:   2    -0.997306913809E+03   -0.50667E-01   -0.50360E-01  2880   0.581E+00-0.156E-01
CGA:   3    -0.997432056994E+03   -0.12514E+00   -0.12470E+00  2880   0.212E+00 0.389E-02
CGA:   4    -0.997446093604E+03   -0.14037E-01   -0.14520E-01  2880   0.627E-01-0.139E-01
CGA:   5    -0.997455369185E+03   -0.92756E-02   -0.91572E-02  2880   0.356E-01 0.283E-02
CGA:   6    -0.997457229364E+03   -0.18602E-02   -0.18918E-02  2880   0.788E-02 0.894E-03
CGA:   7    -0.997458312192E+03   -0.10828E-02   -0.11749E-02  2880   0.141E-01-0.286E-02
CGA:   8    -0.997458901281E+03   -0.58909E-03   -0.63576E-03  2880   0.496E-02 0.109E-02
CGA:   9    -0.997459004483E+03   -0.10320E-03   -0.17810E-03  2880   0.110E-02 0.107E-02
CGA:  10    -0.997459043613E+03   -0.39130E-04   -0.60100E-04  2880   0.743E-03 0.335E-03
CGA:  11    -0.997459167550E+03   -0.12394E-03   -0.12803E-03  2880   0.203E-02-0.154E-03
CGA:  12    -0.997459239902E+03   -0.72351E-04   -0.63677E-04  2880   0.134E-02-0.132E-03
CGA:  13    -0.997459270324E+03   -0.30422E-04   -0.30106E-04  2880   0.433E-03-0.796E-05
CGA:  14    -0.997459282385E+03   -0.12061E-04   -0.12593E-04  2880   0.279E-03 0.702E-05
CGA:  15    -0.997459299322E+03   -0.16937E-04   -0.15016E-04  2880   0.388E-03-0.459E-04
CGA:  16    -0.997459322006E+03   -0.22684E-04   -0.18508E-04  2880   0.612E-03-0.116E-03
CGA:  17    -0.997459339561E+03   -0.17555E-04   -0.14533E-04  2880   0.580E-03-0.528E-04
CGA:  18    -0.997459351032E+03   -0.11471E-04   -0.13424E-04  2880   0.304E-03 0.332E-04
CGA:  19    -0.997459355119E+03   -0.40874E-05   -0.71531E-05  2880   0.156E-03 0.499E-04
  34 F= -.99745936E+03 E0= -.99743977E+03  d E =-.400961E-02  mag=     2.0000
       N       E                     dE             d eps       ncg     rms          ort
SDA:   1    -0.997027804774E+03    0.43155E+00    0.00000E+00  2880   0.508E+01 0.000E+00
CGA:   2    -0.997221115186E+03   -0.19331E+00   -0.18699E+00  2880   0.622E+00-0.193E+00
CGA:   3    -0.997383788476E+03   -0.16267E+00   -0.15948E+00  2880   0.787E+00 0.229E-01
CGA:   4    -0.997434542371E+03   -0.50754E-01   -0.49672E-01  2880   0.123E+00 0.582E-02
CGA:   5    -0.997444326352E+03   -0.97840E-02   -0.97887E-02  2880   0.768E-01 0.174E-02
CGA:   6    -0.997453582414E+03   -0.92561E-02   -0.95125E-02  2880   0.671E-01-0.736E-02
CGA:   7    -0.997457125042E+03   -0.35426E-02   -0.36037E-02  2880   0.726E-02 0.440E-02
CGA:   8    -0.997457945738E+03   -0.82070E-03   -0.78978E-03  2880   0.485E-02 0.190E-02
CGA:   9    -0.997458631707E+03   -0.68597E-03   -0.81031E-03  2880   0.115E-01-0.275E-02
CGA:  10    -0.997458955768E+03   -0.32406E-03   -0.40111E-03  2880   0.137E-02 0.146E-02
CGA:  11    -0.997459068448E+03   -0.11268E-03   -0.11545E-03  2880   0.831E-03 0.253E-03
CGA:  12    -0.997458701869E+03    0.36658E-03   -0.32669E-03  2880   0.192E-01-0.284E-02
CGA:  13    -0.997459260167E+03   -0.55830E-03   -0.69008E-03  2880   0.208E-02 0.199E-02
CGA:  14    -0.997459381408E+03   -0.12124E-03   -0.13672E-03  2880   0.422E-03 0.454E-03
CGA:  15    -0.997459420264E+03   -0.38856E-04   -0.66383E-04  2880   0.163E-02-0.765E-03
CGA:  16    -0.997459440170E+03   -0.19907E-04   -0.48761E-04  2880   0.227E-03 0.441E-03
CGA:  17    -0.997459442299E+03   -0.21293E-05   -0.92341E-05  2880   0.109E-03 0.119E-03
  35 F= -.99745944E+03 E0= -.99743987E+03  d E =-.871802E-04  mag=     2.0000
       N       E                     dE             d eps       ncg     rms          ort
SDA:   1    -0.997387994662E+03    0.71446E-01    0.00000E+00  2880   0.297E+00 0.000E+00
CGA:   2    -0.997405893349E+03   -0.17899E-01   -0.17994E-01  2880   0.208E+00 0.124E-01
CGA:   3    -0.997440980187E+03   -0.35087E-01   -0.35213E-01  2880   0.214E+00-0.172E-02
CGA:   4    -0.997454458619E+03   -0.13478E-01   -0.13593E-01  2880   0.264E-01-0.819E-02
CGA:   5    -0.997456791737E+03   -0.23331E-02   -0.23258E-02  2880   0.182E-01 0.355E-02
CGA:   6    -0.997458507305E+03   -0.17156E-02   -0.17106E-02  2880   0.108E-01-0.830E-03
CGA:   7    -0.997459481817E+03   -0.97451E-03   -0.97847E-03  2880   0.317E-02-0.734E-03
CGA:   8    -0.997459684786E+03   -0.20297E-03   -0.20398E-03  2880   0.124E-02 0.414E-04
CGA:   9    -0.997459847971E+03   -0.16319E-03   -0.15517E-03  2880   0.776E-03 0.226E-03
CGA:  10    -0.997459947781E+03   -0.99810E-04   -0.19562E-03  2880   0.200E-02-0.779E-03
CGA:  11    -0.997459977310E+03   -0.29529E-04   -0.63341E-04  2880   0.301E-03 0.535E-03
CGA:  12    -0.997459980633E+03   -0.33228E-05   -0.13100E-04  2880   0.151E-03 0.168E-03
CGA:  13    -0.997460015505E+03   -0.34873E-04    0.24870E-04  2880   0.148E-03 0.381E-04
CGA:  14    -0.997460027371E+03   -0.11866E-04   -0.13242E-04  2880   0.347E-04 0.728E-04
CGA:  15    -0.997460028795E+03   -0.14235E-05   -0.27853E-05  2880   0.241E-04 0.382E-04
  36 F= -.99746003E+03 E0= -.99744050E+03  d E =-.586495E-03  mag=     2.0000
       N       E                     dE             d eps       ncg     rms          ort
SDA:   1    -0.997415877144E+03    0.44150E-01    0.00000E+00  2880   0.117E+00 0.000E+00
CGA:   2    -0.997432989214E+03   -0.17112E-01   -0.17492E-01  2880   0.293E+00-0.672E-02
CGA:   3    -0.997455413714E+03   -0.22424E-01   -0.22478E-01  2880   0.201E-01 0.541E-02
CGA:   4    -0.997456903839E+03   -0.14901E-02   -0.15322E-02  2880   0.185E-01 0.281E-02
CGA:   5    -0.997459150174E+03   -0.22463E-02   -0.22644E-02  2880   0.707E-02-0.109E-02
CGA:   6    -0.997459642641E+03   -0.49247E-03   -0.47755E-03  2880   0.235E-02-0.852E-03
CGA:   7    -0.997459824780E+03   -0.18214E-03   -0.18252E-03  2880   0.112E-02 0.395E-03
CGA:   8    -0.997459962641E+03   -0.13786E-03   -0.13517E-03  2880   0.434E-03 0.188E-03
CGA:   9    -0.997459284550E+03    0.67809E-03   -0.37319E-03  2880   0.126E-01-0.197E-02
CGA:  10    -0.997459737081E+03   -0.45253E-03   -0.56831E-03  2880   0.176E-02 0.198E-02
CGA:  11    -0.997459890173E+03   -0.15309E-03   -0.15644E-03  2880   0.104E-02 0.599E-04
CGA:  12    -0.997460053695E+03   -0.16352E-03   -0.16119E-03  2880   0.109E-02-0.622E-03
CGA:  13    -0.997460069108E+03   -0.15414E-04   -0.50890E-04  2880   0.197E-03 0.331E-03
CGA:  14    -0.997460070829E+03   -0.17205E-05   -0.11494E-04  2880   0.513E-04 0.947E-04
  37 F= -.99746007E+03 E0= -.99744053E+03  d E =-.420341E-04  mag=     2.0000
