       N       E                     dE             d eps       ncg     rms          rms(c)
DAV:   1     0.853236585603E+04    0.85324E+04   -0.36088E+05 27176   0.170E+03
DAV:   2     0.408344914434E+03   -0.81240E+04   -0.74676E+04 26296   0.458E+02
DAV:   3    -0.778178862966E+03   -0.11865E+04   -0.11594E+04 27832   0.195E+02
DAV:   4    -0.839371969307E+03   -0.61193E+02   -0.57796E+02 31088   0.443E+01
DAV:   5    -0.841673599728E+03   -0.23016E+01   -0.22354E+01 31848   0.712E+00    0.113E+02
DAV:   6    -0.717216495829E+03    0.12446E+03   -0.77127E+02 33048   0.643E+01    0.103E+02
DAV:   7    -0.751927768216E+03   -0.34711E+02   -0.12808E+02 30504   0.308E+01    0.538E+01
DAV:   8    -0.753292629500E+03   -0.13649E+01   -0.25902E+01 33048   0.154E+01    0.284E+01
DAV:   9    -0.756062505007E+03   -0.27699E+01   -0.44656E+00 30576   0.679E+00    0.144E+01
DAV:  10    -0.756738726865E+03   -0.67622E+00   -0.13531E+00 30544   0.251E+00    0.698E+00
DAV:  11    -0.756937235351E+03   -0.19851E+00   -0.36765E-01 29832   0.151E+00    0.272E+00
DAV:  12    -0.756973685524E+03   -0.36450E-01   -0.76977E-02 29096   0.632E-01    0.147E+00
DAV:  13    -0.756999275938E+03   -0.25590E-01   -0.15811E-02 29944   0.519E-01    0.985E-01
DAV:  14    -0.757028044526E+03   -0.28769E-01   -0.16104E-02 31096   0.427E-01    0.616E-01
DAV:  15    -0.757045215393E+03   -0.17171E-01   -0.86370E-03 31088   0.308E-01    0.544E-01
DAV:  16    -0.757059705236E+03   -0.14490E-01   -0.43895E-03 34248   0.231E-01    0.533E-01
DAV:  17    -0.757073929660E+03   -0.14224E-01   -0.33534E-03 31592   0.206E-01    0.518E-01
DAV:  18    -0.757123578257E+03   -0.49649E-01   -0.38090E-02 32960   0.899E-01    0.517E-01
DAV:  19    -0.757161117217E+03   -0.37539E-01   -0.41882E-02 32408   0.618E-01    0.507E-01
DAV:  20    -0.757180909733E+03   -0.19793E-01   -0.14017E-02 29304   0.295E-01    0.486E-01
DAV:  21    -0.757226247546E+03   -0.45338E-01   -0.30504E-02 33928   0.840E-01    0.500E-01
DAV:  22    -0.757245115358E+03   -0.18868E-01   -0.20876E-02 29208   0.299E-01    0.481E-01
DAV:  23    -0.757270486363E+03   -0.25371E-01   -0.83235E-03 35024   0.436E-01    0.490E-01
DAV:  24    -0.757263304958E+03    0.71814E-02   -0.66034E-03 26232   0.323E-01    0.500E-01
DAV:  25    -0.757313267129E+03   -0.49962E-01   -0.41866E-02 31040   0.976E-01    0.528E-01
DAV:  26    -0.757337789254E+03   -0.24522E-01   -0.28535E-02 30568   0.406E-01    0.531E-01
DAV:  27    -0.757214609274E+03    0.12318E+00   -0.15404E-01 31176   0.185E+00    0.548E-01
DAV:  28    -0.756897816234E+03    0.31679E+00   -0.65224E-01 32384   0.337E+00    0.110E+00
DAV:  29    -0.757196463392E+03   -0.29865E+00   -0.71094E-01 30944   0.415E+00    0.666E-01
DAV:  30    -0.757286065907E+03   -0.89603E-01   -0.19780E-01 31544   0.112E+00    0.593E-01
DAV:  31    -0.757317485742E+03   -0.31420E-01   -0.30246E-02 30264   0.410E-01    0.652E-01
DAV:  32    -0.757350868277E+03   -0.33383E-01   -0.17303E-02 35144   0.635E-01    0.638E-01
DAV:  33    -0.757385255648E+03   -0.34387E-01   -0.37670E-02 31488   0.664E-01    0.632E-01
DAV:  34    -0.757417875072E+03   -0.32619E-01   -0.24109E-02 30056   0.483E-01    0.576E-01
DAV:  35    -0.757441847322E+03   -0.23972E-01   -0.12854E-02 30536   0.429E-01    0.576E-01
DAV:  36    -0.757445991990E+03   -0.41447E-02   -0.81713E-03 26064   0.185E-01    0.587E-01
DAV:  37    -0.757448197575E+03   -0.22056E-02   -0.12165E-04 28216   0.342E-02    0.568E-01
DAV:  38    -0.757453994257E+03   -0.57967E-02   -0.73150E-04 31200   0.126E-01    0.575E-01
DAV:  39    -0.757448311099E+03    0.56832E-02   -0.43353E-04 32304   0.949E-02    0.674E-01
DAV:  40    -0.757439411610E+03    0.88995E-02   -0.23468E-03 32104   0.198E-01    0.102E+00
DAV:  41    -0.757440968309E+03   -0.15567E-02   -0.83171E-04 29112   0.606E-02    0.101E+00
DAV:  42    -0.757440880693E+03    0.87617E-04   -0.31259E-05 21248   0.134E-02    0.102E+00
DAV:  43    -0.757441085168E+03   -0.20448E-03   -0.18931E-06 14672   0.751E-03    0.102E+00
DAV:  44    -0.757441037100E+03    0.48068E-04   -0.47452E-05 22768   0.337E-02    0.990E-01
DAV:  45    -0.757443858333E+03   -0.28212E-02   -0.62443E-04 34224   0.113E-01    0.960E-01
DAV:  46    -0.757444522898E+03   -0.66457E-03   -0.73374E-04 31144   0.102E-01    0.102E+00
DAV:  47    -0.757441594807E+03    0.29281E-02   -0.69593E-04 27560   0.127E-01    0.987E-01
DAV:  48    -0.757442628146E+03   -0.10333E-02   -0.96451E-05 23176   0.287E-02    0.983E-01
DAV:  49    -0.757438001712E+03    0.46264E-02   -0.50354E-04 30160   0.105E-01    0.969E-01
DAV:  50    -0.757438250570E+03   -0.24886E-03   -0.16535E-04 24392   0.251E-02    0.963E-01
DAV:  51    -0.757438941832E+03   -0.69126E-03   -0.83936E-05 27360   0.379E-02    0.963E-01
DAV:  52    -0.757459546220E+03   -0.20604E-01   -0.31381E-03 31672   0.270E-01    0.837E-01
DAV:  53    -0.757500453545E+03   -0.40907E-01   -0.16571E-01 31656   0.190E+00    0.858E-01
DAV:  54    -0.757550111808E+03   -0.49658E-01   -0.72671E-02 27896   0.497E-01    0.732E-01
DAV:  55    -0.757554640181E+03   -0.45284E-02   -0.46306E-03 28288   0.155E-01    0.750E-01
DAV:  56    -0.757552589661E+03    0.20505E-02   -0.94390E-04 31200   0.135E-01    0.704E-01
DAV:  57    -0.757557504822E+03   -0.49152E-02   -0.39341E-04 28672   0.665E-02    0.648E-01
DAV:  58    -0.757570897984E+03   -0.13393E-01   -0.14680E-02 31744   0.585E-01    0.721E-01
DAV:  59    -0.757584483802E+03   -0.13586E-01   -0.79781E-03 28704   0.194E-01    0.705E-01
DAV:  60    -0.757591278746E+03   -0.67949E-02   -0.17210E-03 31584   0.172E-01    0.746E-01
DAV:  61    -0.757587620756E+03    0.36580E-02   -0.14777E-03 25872   0.151E-01    0.720E-01
DAV:  62    -0.757590578913E+03   -0.29582E-02   -0.84812E-05 26040   0.403E-02    0.721E-01
DAV:  63    -0.757595081657E+03   -0.45027E-02   -0.30340E-04 31040   0.729E-02    0.743E-01
DAV:  64    -0.757604341007E+03   -0.92593E-02   -0.11546E-03 30704   0.137E-01    0.783E-01
DAV:  65    -0.757619856136E+03   -0.15515E-01   -0.48905E-03 32672   0.292E-01    0.887E-01
DAV:  66    -0.757626165383E+03   -0.63092E-02   -0.56823E-03 31264   0.232E-01    0.100E+00
DAV:  67    -0.757621329744E+03    0.48356E-02   -0.79842E-03 28992   0.388E-01    0.994E-01
DAV:  68    -0.757616296261E+03    0.50335E-02   -0.39172E-03 33496   0.186E-01    0.903E-01
DAV:  69    -0.757613160234E+03    0.31360E-02   -0.14597E-03 29672   0.112E-01    0.863E-01
DAV:  70    -0.757613314792E+03   -0.15456E-03   -0.49418E-04 25112   0.520E-02    0.812E-01
DAV:  71    -0.757648775881E+03   -0.35461E-01   -0.49056E-02 31736   0.104E+00    0.127E+00
DAV:  72    -0.757648443962E+03    0.33192E-03   -0.13859E-02 26016   0.325E-01    0.118E+00
DAV:  73    -0.757646652445E+03    0.17915E-02   -0.37820E-04 28032   0.471E-02    0.120E+00
DAV:  74    -0.757646399536E+03    0.25291E-03   -0.72724E-05 23408   0.131E-02    0.122E+00
DAV:  75    -0.757647432509E+03   -0.10330E-02   -0.21703E-05 18480   0.215E-02    0.121E+00
DAV:  76    -0.757654399336E+03   -0.69668E-02   -0.18319E-03 31520   0.191E-01    0.117E+00
DAV:  77    -0.757646518075E+03    0.78813E-02   -0.15054E-03 30088   0.196E-01    0.112E+00
DAV:  78    -0.757648063572E+03   -0.15455E-02   -0.21441E-04 26120   0.460E-02    0.105E+00
DAV:  79    -0.757644512363E+03    0.35512E-02   -0.62148E-04 36680   0.102E-01    0.953E-01
DAV:  80    -0.757646238809E+03   -0.17264E-02   -0.73028E-04 30368   0.923E-02    0.852E-01
DAV:  81    -0.757618262694E+03    0.27976E-01   -0.18635E-02 33592   0.617E-01    0.675E-01
DAV:  82    -0.757628679978E+03   -0.10417E-01   -0.82212E-03 26584   0.252E-01    0.691E-01
DAV:  83    -0.757629320805E+03   -0.64083E-03   -0.77397E-04 29400   0.552E-02    0.721E-01
DAV:  84    -0.757629997947E+03   -0.67714E-03   -0.42249E-05 22720   0.188E-02    0.726E-01
DAV:  85    -0.757630397730E+03   -0.39978E-03   -0.16404E-05 18152   0.120E-02    0.725E-01
DAV:  86    -0.757638555085E+03   -0.81574E-02   -0.21685E-03 33376   0.206E-01    0.817E-01
DAV:  87    -0.757639008140E+03   -0.45306E-03   -0.81818E-04 27088   0.524E-02    0.833E-01
DAV:  88    -0.757639909541E+03   -0.90140E-03   -0.25354E-05 21120   0.231E-02    0.825E-01
DAV:  89    -0.757637951630E+03    0.19579E-02   -0.10134E-04 24928   0.531E-02    0.840E-01
DAV:  90    -0.757636086214E+03    0.18654E-02   -0.21188E-04 30792   0.476E-02    0.857E-01
DAV:  91    -0.757577957388E+03    0.58129E-01   -0.59285E-02 34664   0.111E+00    0.877E-01
DAV:  92    -0.757588458796E+03   -0.10501E-01   -0.27750E-02 26400   0.321E-01    0.789E-01
DAV:  93    -0.757586306855E+03    0.21519E-02   -0.72647E-04 32696   0.834E-02    0.746E-01
DAV:  94    -0.757585041106E+03    0.12657E-02   -0.53649E-04 33832   0.641E-02    0.695E-01
DAV:  95    -0.757583810541E+03    0.12306E-02   -0.21052E-04 32144   0.435E-02    0.685E-01
DAV:  96    -0.757576945483E+03    0.68651E-02   -0.24099E-03 31736   0.221E-01    0.877E-01
DAV:  97    -0.757578799410E+03   -0.18539E-02   -0.12802E-03 27368   0.105E-01    0.885E-01
DAV:  98    -0.757582794661E+03   -0.39953E-02   -0.84902E-04 32152   0.118E-01    0.887E-01
DAV:  99    -0.757595943504E+03   -0.13149E-01   -0.72433E-03 31512   0.366E-01    0.857E-01
DAV: 100    -0.757613013410E+03   -0.17070E-01   -0.14403E-02 32680   0.417E-01    0.848E-01
DAV: 101    -0.757625293347E+03   -0.12280E-01   -0.72391E-03 30032   0.209E-01    0.875E-01
DAV: 102    -0.757631247251E+03   -0.59539E-02   -0.12741E-03 28584   0.877E-02    0.886E-01
DAV: 103    -0.757631019732E+03    0.22752E-03   -0.57187E-04 25296   0.687E-02    0.904E-01
DAV: 104    -0.757630980233E+03    0.39499E-04   -0.23221E-05 20152   0.953E-03    0.906E-01
DAV: 105    -0.757630811569E+03    0.16866E-03   -0.11354E-05 15784   0.155E-02    0.905E-01
DAV: 106    -0.757632856797E+03   -0.20452E-02   -0.15328E-04 28304   0.584E-02    0.898E-01
DAV: 107    -0.757630933433E+03    0.19234E-02   -0.23512E-04 27888   0.724E-02    0.899E-01
DAV: 108    -0.757630825107E+03    0.10833E-03   -0.14140E-04 28120   0.356E-02    0.891E-01
DAV: 109    -0.757631298618E+03   -0.47351E-03   -0.21015E-04 29776   0.578E-02    0.875E-01
DAV: 110    -0.757631886568E+03   -0.58795E-03   -0.20140E-04 28504   0.371E-02    0.868E-01
DAV: 111    -0.757638589943E+03   -0.67034E-02   -0.63744E-03 30968   0.369E-01    0.948E-01
DAV: 112    -0.757640572757E+03   -0.19828E-02   -0.19605E-03 26520   0.815E-02    0.967E-01
DAV: 113    -0.757640850774E+03   -0.27802E-03   -0.26519E-05 22744   0.140E-02    0.963E-01
DAV: 114    -0.757640846589E+03    0.41847E-05   -0.53466E-06 16184   0.601E-03
   1 F= -.75764085E+03 E0= -.75764085E+03  d E =-.757641E+03  mag=    65.0012
       N       E                     dE             d eps       ncg     rms          rms(c)
DAV:   1    -0.757642521507E+03   -0.16707E-02   -0.15142E-03 30480   0.131E-01    0.971E-01
DAV:   2    -0.757652140470E+03   -0.96190E-02   -0.10058E-02 30680   0.369E-01    0.611E-01
DAV:   3    -0.757657765423E+03   -0.56250E-02   -0.39358E-03 27256   0.171E-01    0.396E-01
DAV:   4    -0.757664906842E+03   -0.71414E-02   -0.15270E-03 36536   0.170E-01    0.341E-01
DAV:   5    -0.757670844247E+03   -0.59374E-02   -0.21214E-03 28304   0.132E-01    0.325E-01
DAV:   6    -0.757678578954E+03   -0.77347E-02   -0.16856E-03 32360   0.171E-01    0.312E-01
DAV:   7    -0.757696555312E+03   -0.17976E-01   -0.13746E-02 31552   0.485E-01    0.296E-01
DAV:   8    -0.757722385478E+03   -0.25830E-01   -0.69904E-02 31440   0.106E+00    0.306E-01
DAV:   9    -0.757738277586E+03   -0.15892E-01   -0.29357E-02 26288   0.318E-01    0.257E-01
DAV:  10    -0.757730679804E+03    0.75978E-02   -0.31927E-03 29248   0.248E-01    0.280E-01
DAV:  11    -0.757722566973E+03    0.81128E-02   -0.40609E-03 31464   0.209E-01    0.327E-01
DAV:  12    -0.757730956524E+03   -0.83896E-02   -0.32522E-03 28720   0.250E-01    0.287E-01
DAV:  13    -0.757749911229E+03   -0.18955E-01   -0.70758E-02 31592   0.116E+00    0.291E-01
DAV:  14    -0.757761563813E+03   -0.11653E-01   -0.14436E-01 32352   0.132E+00    0.457E-01
DAV:  15    -0.757795037522E+03   -0.33474E-01   -0.51264E-02 25864   0.429E-01    0.344E-01
DAV:  16    -0.757800663865E+03   -0.56263E-02   -0.13167E-03 35264   0.115E-01    0.328E-01
DAV:  17    -0.757807870230E+03   -0.72064E-02   -0.41809E-03 33672   0.253E-01    0.331E-01
DAV:  18    -0.757814005264E+03   -0.61350E-02   -0.59328E-03 31080   0.232E-01    0.320E-01
DAV:  19    -0.757816995169E+03   -0.29899E-02   -0.30359E-03 30896   0.172E-01    0.304E-01
DAV:  20    -0.757818782693E+03   -0.17875E-02   -0.41823E-03 31824   0.278E-01    0.270E-01
DAV:  21    -0.757821819527E+03   -0.30368E-02   -0.56303E-03 31480   0.221E-01    0.230E-01
DAV:  22    -0.757823197047E+03   -0.13775E-02   -0.22414E-03 29712   0.980E-02    0.250E-01
DAV:  23    -0.757823734700E+03   -0.53765E-03   -0.35305E-04 24664   0.334E-02    0.244E-01
DAV:  24    -0.757823676341E+03    0.58359E-04   -0.31997E-05 20088   0.150E-02    0.245E-01
DAV:  25    -0.757823166419E+03    0.50992E-03   -0.13171E-04 26912   0.491E-02    0.240E-01
DAV:  26    -0.757826522408E+03   -0.33560E-02   -0.10283E-03 31760   0.150E-01    0.212E-01
DAV:  27    -0.757827082044E+03   -0.55964E-03   -0.80569E-04 30584   0.891E-02    0.328E-01
DAV:  28    -0.757830210303E+03   -0.31283E-02   -0.34489E-03 31336   0.243E-01    0.460E-01
DAV:  29    -0.757832961139E+03   -0.27508E-02   -0.44437E-03 31920   0.188E-01    0.498E-01
DAV:  30    -0.757834154668E+03   -0.11935E-02   -0.14829E-03 28288   0.860E-02    0.453E-01
DAV:  31    -0.757835520936E+03   -0.13663E-02   -0.15408E-03 33944   0.167E-01    0.386E-01
DAV:  32    -0.757836143479E+03   -0.62254E-03   -0.36404E-03 32872   0.199E-01    0.313E-01
DAV:  33    -0.757836630549E+03   -0.48707E-03   -0.17147E-03 29120   0.920E-02    0.281E-01
DAV:  34    -0.757837226418E+03   -0.59587E-03   -0.42181E-04 25416   0.679E-02    0.291E-01
DAV:  35    -0.757837941510E+03   -0.71509E-03   -0.20492E-04 30368   0.555E-02    0.299E-01
DAV:  36    -0.757838733022E+03   -0.79151E-03   -0.33751E-04 29120   0.691E-02    0.231E-01
DAV:  37    -0.757839308035E+03   -0.57501E-03   -0.50592E-04 30328   0.777E-02    0.200E-01
DAV:  38    -0.757839699318E+03   -0.39128E-03   -0.65136E-04 30848   0.904E-02    0.201E-01
DAV:  39    -0.757839607826E+03    0.91492E-04   -0.65271E-04 29520   0.117E-01    0.157E-01
DAV:  40    -0.757840286678E+03   -0.67885E-03   -0.14608E-03 31104   0.151E-01    0.168E-01
DAV:  41    -0.757840774493E+03   -0.48781E-03   -0.13656E-03 30976   0.913E-02    0.173E-01
DAV:  42    -0.757841026946E+03   -0.25245E-03   -0.34184E-04 24640   0.335E-02    0.161E-01
DAV:  43    -0.757840937438E+03    0.89508E-04   -0.20322E-05 19912   0.127E-02    0.156E-01
DAV:  44    -0.757840903380E+03    0.34058E-04   -0.22178E-06 14960   0.350E-03    0.156E-01
DAV:  45    -0.757840955854E+03   -0.52474E-04   -0.18979E-05 18728   0.196E-02    0.161E-01
DAV:  46    -0.757841132683E+03   -0.17683E-03   -0.56841E-05 24752   0.247E-02    0.161E-01
DAV:  47    -0.757841690732E+03   -0.55805E-03   -0.14544E-03 32072   0.158E-01    0.149E-01
DAV:  48    -0.757842137179E+03   -0.44645E-03   -0.23349E-03 32992   0.147E-01    0.136E-01
DAV:  49    -0.757842503779E+03   -0.36660E-03   -0.17249E-03 31712   0.134E-01    0.901E-02
DAV:  50    -0.757842828616E+03   -0.32484E-03   -0.74793E-04 26536   0.565E-02    0.517E-02
DAV:  51    -0.757842817947E+03    0.10669E-04   -0.33507E-04 30632   0.778E-02    0.442E-02
DAV:  52    -0.757842914833E+03   -0.96885E-04   -0.13927E-04 25016   0.386E-02    0.319E-02
DAV:  53    -0.757842912812E+03    0.20207E-05   -0.44148E-05 23168   0.296E-02
   2 F= -.75784291E+03 E0= -.75784291E+03  d E =-.202066E+00  mag=    65.0000
       N       E                     dE             d eps       ncg     rms          rms(c)
DAV:   1    -0.757849751227E+03   -0.68364E-02   -0.12527E-01 29776   0.106E+00    0.258E-01
DAV:   2    -0.757851221016E+03   -0.14698E-02   -0.15453E-02 29240   0.224E-01    0.136E-01
DAV:   3    -0.757851227355E+03   -0.63388E-05   -0.63745E-04 30528   0.628E-02    0.833E-02
DAV:   4    -0.757851200807E+03    0.26548E-04   -0.13061E-04 30656   0.288E-02    0.427E-02
DAV:   5    -0.757851191702E+03    0.91043E-05   -0.24950E-05 23288   0.182E-02
   3 F= -.75785119E+03 E0= -.75785119E+03  d E =-.827889E-02  mag=    65.0000
       N       E                     dE             d eps       ncg     rms          rms(c)
DAV:   1    -0.757835066463E+03    0.16134E-01   -0.30931E+00 29568   0.550E+00    0.941E-01
DAV:   2    -0.757872362141E+03   -0.37296E-01   -0.37645E-01 28856   0.105E+00    0.483E-01
DAV:   3    -0.757873698306E+03   -0.13362E-02   -0.12478E-02 30168   0.244E-01    0.239E-01
DAV:   4    -0.757873392328E+03    0.30598E-03   -0.16169E-03 32616   0.914E-02    0.147E-01
DAV:   5    -0.757873291600E+03    0.10073E-03   -0.39873E-04 32616   0.675E-02    0.576E-02
DAV:   6    -0.757873291307E+03    0.29260E-06   -0.21065E-04 30464   0.361E-02    0.334E-02
DAV:   7    -0.757873297705E+03   -0.63978E-05   -0.59725E-05 27680   0.201E-02
   4 F= -.75787330E+03 E0= -.75787330E+03  d E =-.221060E-01  mag=    65.0000
       N       E                     dE             d eps       ncg     rms          rms(c)
DAV:   1    -0.757858810937E+03    0.14480E-01   -0.32641E+00 28608   0.498E+00    0.832E-01
DAV:   2    -0.757889008957E+03   -0.30198E-01   -0.30010E-01 28488   0.930E-01    0.423E-01
DAV:   3    -0.757889985519E+03   -0.97656E-03   -0.88829E-03 29664   0.205E-01    0.211E-01
DAV:   4    -0.757889750870E+03    0.23465E-03   -0.87624E-04 32392   0.649E-02    0.128E-01
DAV:   5    -0.757889622693E+03    0.12818E-03   -0.36626E-04 32576   0.610E-02    0.509E-02
DAV:   6    -0.757889636563E+03   -0.13870E-04   -0.16219E-04 30384   0.270E-02    0.271E-02
DAV:   7    -0.757889642875E+03   -0.63114E-05   -0.32259E-05 23184   0.130E-02
   5 F= -.75788964E+03 E0= -.75788964E+03  d E =-.163452E-01  mag=    65.0000
       N       E                     dE             d eps       ncg     rms          rms(c)
DAV:   1    -0.757778377185E+03    0.11126E+00   -0.11658E+01 28896   0.960E+00    0.162E+00
DAV:   2    -0.757895663869E+03   -0.11729E+00   -0.11607E+00 28400   0.182E+00    0.842E-01
DAV:   3    -0.757899368698E+03   -0.37048E-02   -0.34287E-02 29320   0.397E-01    0.429E-01
DAV:   4    -0.757898557025E+03    0.81167E-03   -0.34859E-03 32696   0.130E-01    0.251E-01
DAV:   5    -0.757898022110E+03    0.53491E-03   -0.11420E-03 32784   0.120E-01    0.978E-02
DAV:   6    -0.757898060660E+03   -0.38550E-04   -0.73255E-04 30760   0.600E-02    0.522E-02
DAV:   7    -0.757898077037E+03   -0.16377E-04   -0.11997E-04 29216   0.260E-02    0.314E-02
DAV:   8    -0.757898085806E+03   -0.87689E-05   -0.16298E-05 17832   0.113E-02
   6 F= -.75789809E+03 E0= -.75789809E+03  d E =-.844293E-02  mag=    65.0000
       N       E                     dE             d eps       ncg     rms          rms(c)
DAV:   1    -0.757857136221E+03    0.40941E-01   -0.48969E+00 29072   0.618E+00    0.114E+00
DAV:   2    -0.757906640807E+03   -0.49505E-01   -0.49184E-01 28544   0.119E+00    0.546E-01
DAV:   3    -0.757907925151E+03   -0.12843E-02   -0.14437E-02 29800   0.255E-01    0.268E-01
DAV:   4    -0.757907469142E+03    0.45601E-03   -0.17834E-03 32776   0.101E-01    0.157E-01
DAV:   5    -0.757907336378E+03    0.13276E-03   -0.48523E-04 31312   0.659E-02    0.603E-02
DAV:   6    -0.757907357610E+03   -0.21231E-04   -0.22954E-04 30272   0.337E-02    0.352E-02
DAV:   7    -0.757907368416E+03   -0.10806E-04   -0.29635E-05 22040   0.155E-02    0.232E-02
DAV:   8    -0.757907376939E+03   -0.85234E-05   -0.99967E-06 16192   0.844E-03
   7 F= -.75790738E+03 E0= -.75790738E+03  d E =-.929113E-02  mag=    65.0000
       N       E                     dE             d eps       ncg     rms          rms(c)
DAV:   1    -0.757899052048E+03    0.83164E-02   -0.91204E-01 29664   0.294E+00    0.498E-01
DAV:   2    -0.757910084661E+03   -0.11033E-01   -0.10992E-01 28720   0.565E-01    0.271E-01
DAV:   3    -0.757910486935E+03   -0.40227E-03   -0.35518E-03 29808   0.132E-01    0.144E-01
DAV:   4    -0.757910402721E+03    0.84214E-04   -0.37181E-04 33176   0.461E-02    0.826E-02
DAV:   5    -0.757910349752E+03    0.52969E-04   -0.11110E-04 29992   0.437E-02    0.322E-02
DAV:   6    -0.757910351708E+03   -0.19564E-05   -0.89695E-05 29040   0.251E-02
   8 F= -.75791035E+03 E0= -.75791035E+03  d E =-.297477E-02  mag=    65.0000
       N       E                     dE             d eps       ncg     rms          rms(c)
DAV:   1    -0.757904115704E+03    0.62340E-02   -0.52363E-01 30920   0.258E+00    0.452E-01
DAV:   2    -0.757912459110E+03   -0.83434E-02   -0.81748E-02 28688   0.493E-01    0.218E-01
DAV:   3    -0.757912806443E+03   -0.34733E-03   -0.25719E-03 29960   0.110E-01    0.103E-01
DAV:   4    -0.757912758293E+03    0.48150E-04   -0.22790E-04 32616   0.358E-02    0.632E-02
DAV:   5    -0.757912741710E+03    0.16583E-04   -0.80506E-05 30000   0.290E-02    0.257E-02
DAV:   6    -0.757912747422E+03   -0.57120E-05   -0.34375E-05 24880   0.147E-02
   9 F= -.75791275E+03 E0= -.75791275E+03  d E =-.239571E-02  mag=    65.0000
       N       E                     dE             d eps       ncg     rms          rms(c)
DAV:   1    -0.757884535176E+03    0.28207E-01   -0.19257E+00 30680   0.485E+00    0.745E-01
DAV:   2    -0.757914716670E+03   -0.30181E-01   -0.29301E-01 27952   0.933E-01    0.382E-01
DAV:   3    -0.757916006802E+03   -0.12901E-02   -0.82457E-03 29776   0.190E-01    0.164E-01
DAV:   4    -0.757915914901E+03    0.91901E-04   -0.65073E-04 33712   0.534E-02    0.109E-01
DAV:   5    -0.757915858508E+03    0.56393E-04   -0.16382E-04 33168   0.487E-02    0.510E-02
DAV:   6    -0.757915874572E+03   -0.16064E-04   -0.95141E-05 30832   0.240E-02    0.189E-02
DAV:   7    -0.757915882578E+03   -0.80058E-05   -0.15740E-05 17600   0.102E-02
  10 F= -.75791588E+03 E0= -.75791588E+03  d E =-.313516E-02  mag=    65.0000
       N       E                     dE             d eps       ncg     rms          rms(c)
DAV:   1    -0.757723751044E+03    0.19212E+00   -0.18015E+01 28768   0.118E+01    0.231E+00
DAV:   2    -0.757873420110E+03   -0.14967E+00   -0.15178E+00 29080   0.237E+00    0.109E+00
DAV:   3    -0.757874858994E+03   -0.14389E-02   -0.49777E-02 30384   0.539E-01    0.677E-01
DAV:   4    -0.757873042464E+03    0.18165E-02   -0.56318E-03 32920   0.197E-01    0.346E-01
DAV:   5    -0.757871877697E+03    0.11648E-02   -0.22241E-03 32048   0.184E-01    0.123E-01
DAV:   6    -0.757871925963E+03   -0.48266E-04   -0.18235E-03 30168   0.982E-02    0.784E-02
DAV:   7    -0.757871937539E+03   -0.11576E-04   -0.34365E-04 29400   0.406E-02    0.522E-02
DAV:   8    -0.757871935459E+03    0.20804E-05   -0.48564E-05 27496   0.186E-02
  11 F= -.75787194E+03 E0= -.75787194E+03  d E =0.439471E-01  mag=    65.0000
       N       E                     dE             d eps       ncg     rms          rms(c)
DAV:   1    -0.757912440838E+03   -0.40503E-01   -0.28890E+00 26712   0.331E+00    0.124E+00
DAV:   2    -0.757924077532E+03   -0.11637E-01   -0.14869E-01 30120   0.755E-01    0.567E-01
DAV:   3    -0.757922112151E+03    0.19654E-02   -0.77075E-03 30000   0.222E-01    0.488E-01
DAV:   4    -0.757921482735E+03    0.62942E-03   -0.14589E-03 33040   0.111E-01    0.188E-01
DAV:   5    -0.757921071551E+03    0.41118E-03   -0.49455E-04 31496   0.108E-01    0.656E-02
DAV:   6    -0.757921056876E+03    0.14675E-04   -0.65195E-04 29672   0.639E-02    0.450E-02
DAV:   7    -0.757921066379E+03   -0.95035E-05   -0.19824E-04 28784   0.272E-02    0.463E-02
DAV:   8    -0.757921062133E+03    0.42460E-05   -0.14246E-05 17400   0.110E-02
  12 F= -.75792106E+03 E0= -.75792106E+03  d E =-.491267E-01  mag=    65.0000
       N       E                     dE             d eps       ncg     rms          rms(c)
DAV:   1    -0.757922535568E+03   -0.14692E-02   -0.48306E-02 27688   0.505E-01    0.155E-01
DAV:   2    -0.757922788451E+03   -0.25288E-03   -0.28383E-03 30048   0.103E-01    0.584E-02
DAV:   3    -0.757922782777E+03    0.56736E-05   -0.14633E-04 30728   0.304E-02    0.505E-02
DAV:   4    -0.757922781282E+03    0.14950E-05   -0.16951E-05 20832   0.114E-02
  13 F= -.75792278E+03 E0= -.75792278E+03  d E =-.171915E-02  mag=    65.0000
       N       E                     dE             d eps       ncg     rms          rms(c)
DAV:   1    -0.757923559672E+03   -0.77689E-03   -0.26129E-01 27944   0.125E+00    0.350E-01
DAV:   2    -0.757925083899E+03   -0.15242E-02   -0.16713E-02 29840   0.244E-01    0.122E-01
DAV:   3    -0.757925061757E+03    0.22142E-04   -0.81531E-04 30848   0.699E-02    0.939E-02
DAV:   4    -0.757925049096E+03    0.12660E-04   -0.98077E-05 30464   0.221E-02    0.469E-02
DAV:   5    -0.757925044778E+03    0.43186E-05   -0.44261E-05 25904   0.186E-02
  14 F= -.75792504E+03 E0= -.75792504E+03  d E =-.226350E-02  mag=    65.0000
       N       E                     dE             d eps       ncg     rms          rms(c)
DAV:   1    -0.757925244625E+03   -0.19553E-03   -0.19225E-02 30288   0.417E-01    0.863E-02
DAV:   2    -0.757925431735E+03   -0.18711E-03   -0.18669E-03 29112   0.791E-02    0.367E-02
DAV:   3    -0.757925442000E+03   -0.10265E-04   -0.77249E-05 29616   0.203E-02    0.219E-02
DAV:   4    -0.757925444103E+03   -0.21026E-05   -0.70952E-06 17232   0.701E-03
  15 F= -.75792544E+03 E0= -.75792544E+03  d E =-.399325E-03  mag=    65.0000
       N       E                     dE             d eps       ncg     rms          rms(c)
DAV:   1    -0.757921542755E+03    0.38992E-02   -0.49367E-01 29728   0.212E+00    0.364E-01
DAV:   2    -0.757926263427E+03   -0.47207E-02   -0.47648E-02 28952   0.398E-01    0.168E-01
DAV:   3    -0.757926426932E+03   -0.16350E-03   -0.17797E-03 30976   0.934E-02    0.890E-02
DAV:   4    -0.757926391043E+03    0.35889E-04   -0.14567E-04 30832   0.274E-02    0.548E-02
DAV:   5    -0.757926375162E+03    0.15881E-04   -0.88243E-05 28968   0.285E-02    0.230E-02
DAV:   6    -0.757926381049E+03   -0.58864E-05   -0.33640E-05 25328   0.147E-02
  16 F= -.75792638E+03 E0= -.75792638E+03  d E =-.936946E-03  mag=    65.0000
       N       E                     dE             d eps       ncg     rms          rms(c)
DAV:   1    -0.757925525642E+03    0.84952E-03   -0.10913E-01 30048   0.104E+00    0.181E-01
DAV:   2    -0.757926754441E+03   -0.12288E-02   -0.12102E-02 28848   0.199E-01    0.823E-02
DAV:   3    -0.757926799362E+03   -0.44922E-04   -0.38721E-04 30392   0.445E-02    0.420E-02
DAV:   4    -0.757926795544E+03    0.38182E-05   -0.32741E-05 23424   0.128E-02
  17 F= -.75792680E+03 E0= -.75792680E+03  d E =-.414495E-03  mag=    65.0000
       N       E                     dE             d eps       ncg     rms          rms(c)
DAV:   1    -0.757925305843E+03    0.14935E-02   -0.16878E-01 30024   0.128E+00    0.197E-01
DAV:   2    -0.757927178717E+03   -0.18729E-02   -0.18276E-02 28704   0.246E-01    0.101E-01
DAV:   3    -0.757927245081E+03   -0.66364E-04   -0.54045E-04 30152   0.513E-02    0.522E-02
DAV:   4    -0.757927239006E+03    0.60749E-05   -0.40077E-05 24792   0.140E-02
  18 F= -.75792724E+03 E0= -.75792724E+03  d E =-.443462E-03  mag=    65.0000
       N       E                     dE             d eps       ncg     rms          rms(c)
DAV:   1    -0.757922302978E+03    0.49421E-02   -0.57136E-01 29456   0.225E+00    0.310E-01
DAV:   2    -0.757927975895E+03   -0.56729E-02   -0.55345E-02 27968   0.432E-01    0.162E-01
DAV:   3    -0.757928162650E+03   -0.18676E-03   -0.15122E-03 29968   0.831E-02    0.743E-02
DAV:   4    -0.757928134251E+03    0.28399E-04   -0.12140E-04 30632   0.253E-02    0.492E-02
DAV:   5    -0.757928123945E+03    0.10306E-04   -0.46892E-05 26640   0.255E-02    0.219E-02
DAV:   6    -0.757928131794E+03   -0.78493E-05   -0.24823E-05 20024   0.121E-02
  19 F= -.75792813E+03 E0= -.75792813E+03  d E =-.892788E-03  mag=    65.0000
       N       E                     dE             d eps       ncg     rms          rms(c)
DAV:   1    -0.757817273640E+03    0.11085E+00   -0.10865E+01 29368   0.978E+00    0.136E+00
DAV:   2    -0.757925128902E+03   -0.10786E+00   -0.10518E+00 27712   0.189E+00    0.704E-01
DAV:   3    -0.757928792280E+03   -0.36634E-02   -0.28783E-02 29768   0.364E-01    0.315E-01
DAV:   4    -0.757928262477E+03    0.52980E-03   -0.23053E-03 33768   0.103E-01    0.206E-01
DAV:   5    -0.757927929815E+03    0.33266E-03   -0.72240E-04 33432   0.988E-02    0.922E-02
DAV:   6    -0.757927968401E+03   -0.38586E-04   -0.40225E-04 31272   0.462E-02    0.369E-02
DAV:   7    -0.757927987467E+03   -0.19067E-04   -0.65973E-05 27832   0.195E-02    0.259E-02
DAV:   8    -0.757927999727E+03   -0.12259E-04   -0.66643E-06 15200   0.895E-03    0.190E-02
DAV:   9    -0.757928016059E+03   -0.16333E-04   -0.63810E-06 15616   0.106E-02    0.156E-02
DAV:  10    -0.757928029583E+03   -0.13524E-04   -0.79588E-06 16344   0.786E-03    0.140E-02
DAV:  11    -0.757928042432E+03   -0.12849E-04   -0.30375E-06 14640   0.722E-03    0.132E-02
DAV:  12    -0.757928073353E+03   -0.30920E-04   -0.23074E-05 19328   0.214E-02    0.122E-02
DAV:  13    -0.757928108179E+03   -0.34826E-04   -0.76022E-05 25952   0.316E-02    0.106E-02
DAV:  14    -0.757928138488E+03   -0.30309E-04   -0.77897E-05 26112   0.297E-02    0.879E-03
DAV:  15    -0.757928162798E+03   -0.24310E-04   -0.52966E-05 22688   0.242E-02    0.781E-03
DAV:  16    -0.757928179295E+03   -0.16498E-04   -0.30294E-05 19216   0.146E-02    0.672E-03
DAV:  17    -0.757928188717E+03   -0.94217E-05   -0.95465E-06 15224   0.103E-02
  20 F= -.75792819E+03 E0= -.75792819E+03  d E =-.569229E-04  mag=    65.0000
       N       E                     dE             d eps       ncg     rms          rms(c)
DAV:   1    -0.757895539646E+03    0.32640E-01   -0.31853E+00 29184   0.521E+00    0.872E-01
DAV:   2    -0.757925660439E+03   -0.30121E-01   -0.29681E-01 28736   0.101E+00    0.402E-01
DAV:   3    -0.757926476181E+03   -0.81574E-03   -0.87994E-03 30344   0.213E-01    0.208E-01
DAV:   4    -0.757926280022E+03    0.19616E-03   -0.83716E-04 32944   0.644E-02    0.124E-01
DAV:   5    -0.757926169340E+03    0.11068E-03   -0.25903E-04 33032   0.525E-02    0.491E-02
DAV:   6    -0.757926177414E+03   -0.80738E-05   -0.13804E-04 29920   0.277E-02    0.264E-02
DAV:   7    -0.757926181231E+03   -0.38171E-05   -0.27345E-05 20384   0.121E-02
  21 F= -.75792618E+03 E0= -.75792618E+03  d E =0.200749E-02  mag=    65.0000
       N       E                     dE             d eps       ncg     rms          rms(c)
DAV:   1    -0.757860200440E+03    0.65977E-01   -0.68259E+00 29384   0.777E+00    0.111E+00
DAV:   2    -0.757928131801E+03   -0.67931E-01   -0.66354E-01 28144   0.150E+00    0.562E-01
DAV:   3    -0.757930403467E+03   -0.22717E-02   -0.18421E-02 29968   0.292E-01    0.248E-01
DAV:   4    -0.757930012057E+03    0.39141E-03   -0.15497E-03 34112   0.874E-02    0.160E-01
DAV:   5    -0.757929803817E+03    0.20824E-03   -0.48323E-04 33312   0.778E-02    0.657E-02
DAV:   6    -0.757929818717E+03   -0.14900E-04   -0.24634E-04 30592   0.347E-02    0.288E-02
DAV:   7    -0.757929821569E+03   -0.28518E-05   -0.38017E-05 24888   0.143E-02
  22 F= -.75792982E+03 E0= -.75792982E+03  d E =-.364034E-02  mag=    65.0000
       N       E                     dE             d eps       ncg     rms          rms(c)
DAV:   1    -0.757927647642E+03    0.21711E-02   -0.25180E-01 27992   0.133E+00    0.261E-01
DAV:   2    -0.757929468926E+03   -0.18213E-02   -0.18527E-02 29096   0.261E-01    0.113E-01
DAV:   3    -0.757929476183E+03   -0.72566E-05   -0.60755E-04 30432   0.605E-02    0.725E-02
DAV:   4    -0.757929456945E+03    0.19238E-04   -0.77809E-05 30496   0.202E-02    0.394E-02
DAV:   5    -0.757929445983E+03    0.10962E-04   -0.21341E-05 20920   0.158E-02    0.148E-02
DAV:   6    -0.757929446988E+03   -0.10055E-05   -0.17421E-05 18008   0.931E-03
  23 F= -.75792945E+03 E0= -.75792945E+03  d E =0.374580E-03  mag=    65.0000
       N       E                     dE             d eps       ncg     rms          rms(c)
DAV:   1    -0.757929454743E+03   -0.87599E-05   -0.47750E-02 28280   0.577E-01    0.152E-01
DAV:   2    -0.757929826733E+03   -0.37199E-03   -0.39680E-03 29512   0.117E-01    0.609E-02
DAV:   3    -0.757929817535E+03    0.91986E-05   -0.15681E-04 30560   0.314E-02    0.439E-02
DAV:   4    -0.757929811994E+03    0.55409E-05   -0.21665E-05 21704   0.111E-02
  24 F= -.75792981E+03 E0= -.75792981E+03  d E =-.365005E-03  mag=    65.0000
