       N       E                     dE             d eps       ncg     rms          ort
DAV:   1     0.412817215772E+04    0.41282E+04   -0.16928E+05  1824   0.159E+03
DAV:   2     0.312144229697E+01   -0.41251E+04   -0.39812E+04  1824   0.455E+02
DAV:   3    -0.714237451334E+03   -0.71736E+03   -0.67789E+03  1824   0.163E+02
DAV:   4    -0.770365290929E+03   -0.56128E+02   -0.55675E+02  1824   0.477E+01
DAV:   5    -0.771645064643E+03   -0.12798E+01   -0.12769E+01  1824   0.849E+00
SDA:   6    -0.483512210827E+03    0.28813E+03   -0.12769E+01  1824   0.875E+03 0.000E+00
CGA:   7    -0.606102823589E+03   -0.12259E+03   -0.11688E+03  1824   0.104E+03-0.168E+01
CGA:   8    -0.626613778020E+03   -0.20511E+02   -0.20518E+02  1824   0.459E+02-0.258E+01
CGA:   9    -0.635655904856E+03   -0.90421E+01   -0.90422E+01  1824   0.168E+02 0.400E-01
CGA:  10    -0.638995163173E+03   -0.33393E+01   -0.33393E+01  1824   0.494E+01 0.227E-01
CGA:  11    -0.639930726455E+03   -0.93556E+00   -0.93539E+00  1824   0.159E+01-0.227E-01
CGA:  12    -0.640280707362E+03   -0.34998E+00   -0.35034E+00  1824   0.656E+00-0.174E-01
CGA:  13    -0.640434426628E+03   -0.15372E+00   -0.15406E+00  1824   0.245E+00-0.138E-01
CGA:  14    -0.640491171184E+03   -0.56745E-01   -0.57005E-01  1824   0.110E+00-0.757E-02
CGA:  15    -0.640515166271E+03   -0.23995E-01   -0.23865E-01  1824   0.468E-01 0.564E-02
CGA:  16    -0.640528435106E+03   -0.13269E-01   -0.13134E-01  1824   0.186E-01 0.209E-02
CGA:  17    -0.640534158427E+03   -0.57233E-02   -0.61234E-02  1824   0.118E-01-0.368E-02
CGA:  18    -0.640536409887E+03   -0.22515E-02   -0.22685E-02  1824   0.510E-02-0.631E-03
CGA:  19    -0.640537956289E+03   -0.15464E-02   -0.17510E-02  1824   0.330E-02-0.138E-02
CGA:  20    -0.640538569603E+03   -0.61331E-03   -0.90639E-03  1824   0.402E-02-0.186E-02
CGA:  21    -0.640538991675E+03   -0.42207E-03   -0.51652E-03  1824   0.932E-03 0.944E-03
CGA:  22    -0.640539180685E+03   -0.18901E-03   -0.20623E-03  1824   0.375E-03 0.392E-03
CGA:  23    -0.640539317528E+03   -0.13684E-03   -0.14206E-03  1824   0.291E-03-0.114E-03
CGA:  24    -0.640539321565E+03   -0.40367E-05   -0.18256E-04  1824   0.211E-03 0.107E-03
CGA:  25    -0.640539321273E+03    0.29219E-06   -0.21524E-04  1824   0.114E-03 0.154E-03
CGA:  26    -0.640539348702E+03   -0.27430E-04   -0.26608E-04  1824   0.549E-04 0.341E-04
CGA:  27    -0.640539379418E+03   -0.30716E-04    0.34983E-03  1824   0.246E-04 0.109E-04
CGA:  28    -0.640539391882E+03   -0.12464E-04    0.16593E-02  1824   0.138E-04 0.124E-04
CGA:  29    -0.640539390254E+03    0.16278E-05   -0.51995E-06  1824   0.117E-04 0.124E-04
   1 F= -.64053939E+03 E0= -.64053859E+03  d E =-.640539E+03  mag=    -0.0005
       N       E                     dE             d eps       ncg     rms          ort
SDA:   1    -0.640549125783E+03   -0.97339E-02    0.00000E+00  1824   0.106E-02 0.000E+00
CGA:   2    -0.640549324729E+03   -0.19895E-03   -0.19956E-03  1824   0.342E-03 0.928E-04
CGA:   3    -0.640549405106E+03   -0.80377E-04   -0.80068E-04  1824   0.130E-03 0.141E-04
CGA:   4    -0.640549442545E+03   -0.37439E-04   -0.43376E-04  1824   0.919E-04-0.473E-04
CGA:   5    -0.640549454491E+03   -0.11947E-04   -0.12248E-04  1824   0.532E-04-0.360E-04
CGA:   6    -0.640549460455E+03   -0.59642E-05   -0.59022E-05  1824   0.209E-04-0.328E-05
   2 F= -.64054946E+03 E0= -.64054867E+03  d E =-.100702E-01  mag=    -0.0000
       N       E                     dE             d eps       ncg     rms          ort
SDA:   1    -0.638949007409E+03    0.16004E+01    0.00000E+00  1824   0.687E+01 0.000E+00
CGA:   2    -0.640372096449E+03   -0.14231E+01   -0.14228E+01  1824   0.259E+01 0.932E-02
CGA:   3    -0.640906975903E+03   -0.53488E+00   -0.53484E+00  1824   0.884E+00 0.146E-03
CGA:   4    -0.641113863939E+03   -0.20689E+00   -0.20694E+00  1824   0.271E+00-0.212E-02
CGA:   5    -0.641165537686E+03   -0.51674E-01   -0.51648E-01  1824   0.107E+00-0.302E-02
CGA:   6    -0.641188003637E+03   -0.22466E-01   -0.22471E-01  1824   0.369E-01-0.512E-03
CGA:   7    -0.641197128267E+03   -0.91246E-02   -0.90908E-02  1824   0.123E-01 0.681E-03
CGA:   8    -0.641200220435E+03   -0.30922E-02   -0.30737E-02  1824   0.437E-02 0.403E-03
CGA:   9    -0.641201334073E+03   -0.11136E-02   -0.11115E-02  1824   0.214E-02 0.491E-04
CGA:  10    -0.641201799847E+03   -0.46577E-03   -0.46577E-03  1824   0.818E-03-0.156E-05
CGA:  11    -0.641202042287E+03   -0.24244E-03   -0.25678E-03  1824   0.493E-03-0.133E-03
CGA:  12    -0.641202128474E+03   -0.86188E-04   -0.86150E-04  1824   0.170E-03-0.129E-04
CGA:  13    -0.641202174450E+03   -0.45976E-04   -0.47745E-04  1824   0.659E-04-0.230E-04
CGA:  14    -0.641202191525E+03   -0.17075E-04   -0.17380E-04  1824   0.326E-04-0.346E-05
CGA:  15    -0.641202196937E+03   -0.54115E-05   -0.56713E-05  1824   0.124E-04 0.711E-05
   3 F= -.64120220E+03 E0= -.64120143E+03  d E =-.652736E+00  mag=     0.0000
       N       E                     dE             d eps       ncg     rms          ort
SDA:   1    -0.638400135127E+03    0.28021E+01    0.00000E+00  1824   0.105E+02 0.000E+00
CGA:   2    -0.640333362655E+03   -0.19332E+01   -0.19351E+01  1824   0.416E+01 0.374E-02
CGA:   3    -0.641229868158E+03   -0.89651E+00   -0.89655E+00  1824   0.123E+01-0.600E-03
CGA:   4    -0.641522087667E+03   -0.29222E+00   -0.29218E+00  1824   0.413E+00 0.130E-02
CGA:   5    -0.641597005379E+03   -0.74918E-01   -0.74748E-01  1824   0.151E+00-0.268E-02
CGA:   6    -0.641629866524E+03   -0.32861E-01   -0.32860E-01  1824   0.562E-01-0.857E-03
CGA:   7    -0.641643516543E+03   -0.13650E-01   -0.13647E-01  1824   0.192E-01 0.117E-03
CGA:   8    -0.641648221766E+03   -0.47052E-02   -0.46930E-02  1824   0.686E-02 0.524E-03
CGA:   9    -0.641649901708E+03   -0.16799E-02   -0.16798E-02  1824   0.342E-02 0.859E-05
CGA:  10    -0.641650635815E+03   -0.73411E-03   -0.73432E-03  1824   0.124E-02 0.190E-04
CGA:  11    -0.641650998693E+03   -0.36288E-03   -0.37258E-03  1824   0.651E-03-0.131E-03
CGA:  12    -0.641651137124E+03   -0.13843E-03   -0.13893E-03  1824   0.276E-03-0.439E-04
CGA:  13    -0.641651203371E+03   -0.66247E-04   -0.68274E-04  1824   0.131E-03-0.545E-04
CGA:  14    -0.641651224303E+03   -0.20932E-04   -0.21180E-04  1824   0.465E-04 0.897E-05
CGA:  15    -0.641651235287E+03   -0.10984E-04   -0.11053E-04  1824   0.155E-04 0.116E-04
CGA:  16    -0.641651241411E+03   -0.61243E-05   -0.59930E-05  1824   0.118E-04 0.162E-05
   4 F= -.64165124E+03 E0= -.64165047E+03  d E =-.449044E+00  mag=     0.0000
       N       E                     dE             d eps       ncg     rms          ort
SDA:   1    -0.639265939636E+03    0.23853E+01    0.00000E+00  1824   0.113E+02 0.000E+00
CGA:   2    -0.640753580780E+03   -0.14876E+01   -0.14929E+01  1824   0.281E+01-0.346E-02
CGA:   3    -0.641555927864E+03   -0.80235E+00   -0.80215E+00  1824   0.896E+00 0.754E-03
CGA:   4    -0.641729137843E+03   -0.17321E+00   -0.17337E+00  1824   0.291E+00 0.145E-02
CGA:   5    -0.641782608285E+03   -0.53470E-01   -0.53399E-01  1824   0.920E-01-0.586E-03
CGA:   6    -0.641801861526E+03   -0.19253E-01   -0.19257E-01  1824   0.333E-01 0.179E-04
CGA:   7    -0.641810393980E+03   -0.85325E-02   -0.85422E-02  1824   0.121E-01-0.379E-03
CGA:   8    -0.641813128022E+03   -0.27340E-02   -0.27351E-02  1824   0.466E-02 0.334E-03
CGA:   9    -0.641814144462E+03   -0.10164E-02   -0.10176E-02  1824   0.205E-02 0.585E-04
CGA:  10    -0.641814642541E+03   -0.49808E-03   -0.49746E-03  1824   0.728E-03 0.699E-04
CGA:  11    -0.641814844834E+03   -0.20229E-03   -0.20312E-03  1824   0.381E-03-0.217E-04
CGA:  12    -0.641814928860E+03   -0.84026E-04   -0.84032E-04  1824   0.158E-03 0.887E-06
CGA:  13    -0.641814974306E+03   -0.45446E-04   -0.48267E-04  1824   0.916E-04-0.391E-04
CGA:  14    -0.641814983442E+03   -0.91355E-05   -0.10301E-04  1824   0.314E-04 0.134E-04
   5 F= -.64181498E+03 E0= -.64181407E+03  d E =-.163742E+00  mag=     0.0000
       N       E                     dE             d eps       ncg     rms          ort
SDA:   1    -0.636689869077E+03    0.51251E+01    0.00000E+00  1824   0.269E+02 0.000E+00
CGA:   2    -0.639916630468E+03   -0.32268E+01   -0.32489E+01  1824   0.500E+01 0.233E-01
CGA:   3    -0.641468018236E+03   -0.15514E+01   -0.15515E+01  1824   0.190E+01-0.556E-02
CGA:   4    -0.641789327461E+03   -0.32131E+00   -0.32173E+00  1824   0.488E+00-0.104E-02
CGA:   5    -0.641879826902E+03   -0.90499E-01   -0.90417E-01  1824   0.160E+00-0.650E-03
CGA:   6    -0.641913224590E+03   -0.33398E-01   -0.33428E-01  1824   0.523E-01 0.200E-02
CGA:   7    -0.641926535934E+03   -0.13311E-01   -0.13310E-01  1824   0.197E-01 0.171E-04
CGA:   8    -0.641930979242E+03   -0.44433E-02   -0.44420E-02  1824   0.811E-02 0.447E-03
CGA:   9    -0.641932702767E+03   -0.17235E-02   -0.17255E-02  1824   0.337E-02 0.128E-03
CGA:  10    -0.641933565507E+03   -0.86274E-03   -0.85667E-03  1824   0.130E-02 0.216E-03
CGA:  11    -0.641933882016E+03   -0.31651E-03   -0.31601E-03  1824   0.556E-03 0.114E-03
CGA:  12    -0.641934020647E+03   -0.13863E-03   -0.13817E-03  1824   0.210E-03 0.108E-03
CGA:  13    -0.641934090435E+03   -0.69789E-04   -0.68345E-04  1824   0.870E-04 0.296E-04
CGA:  14    -0.641934105001E+03   -0.14565E-04   -0.16682E-04  1824   0.349E-04 0.360E-04
CGA:  15    -0.641934113172E+03   -0.81710E-05   -0.90685E-05  1824   0.134E-04 0.223E-04
   6 F= -.64193411E+03 E0= -.64193293E+03  d E =-.119130E+00  mag=    -0.0000
       N       E                     dE             d eps       ncg     rms          ort
SDA:   1    -0.636274946351E+03    0.56592E+01    0.00000E+00  1824   0.249E+02 0.000E+00
CGA:   2    -0.639593964193E+03   -0.33190E+01   -0.33317E+01  1824   0.650E+01 0.122E-01
CGA:   3    -0.641394118659E+03   -0.18002E+01   -0.17999E+01  1824   0.213E+01 0.193E-02
CGA:   4    -0.641785850338E+03   -0.39173E+00   -0.39214E+00  1824   0.709E+00 0.131E-02
CGA:   5    -0.641915539197E+03   -0.12969E+00   -0.12966E+00  1824   0.210E+00 0.409E-03
CGA:   6    -0.641959498559E+03   -0.43959E-01   -0.43994E-01  1824   0.709E-01 0.204E-02
CGA:   7    -0.641978073274E+03   -0.18575E-01   -0.18586E-01  1824   0.284E-01-0.345E-03
CGA:   8    -0.641984147410E+03   -0.60741E-02   -0.60781E-02  1824   0.114E-01 0.337E-03
CGA:   9    -0.641986557916E+03   -0.24105E-02   -0.24119E-02  1824   0.466E-02 0.953E-04
CGA:  10    -0.641987789649E+03   -0.12317E-02   -0.12280E-02  1824   0.199E-02 0.965E-04
CGA:  11    -0.641988245057E+03   -0.45541E-03   -0.45557E-03  1824   0.855E-03 0.100E-03
CGA:  12    -0.641988469356E+03   -0.22430E-03   -0.22247E-03  1824   0.344E-03 0.809E-04
CGA:  13    -0.641988571531E+03   -0.10218E-03   -0.10221E-03  1824   0.163E-03-0.972E-06
CGA:  14    -0.641988594562E+03   -0.23031E-04   -0.26015E-04  1824   0.553E-04 0.436E-04
CGA:  15    -0.641988607273E+03   -0.12711E-04   -0.13571E-04  1824   0.222E-04 0.269E-04
CGA:  16    -0.641988615810E+03   -0.85371E-05   -0.85521E-05  1824   0.242E-04-0.423E-06
   7 F= -.64198862E+03 E0= -.64198730E+03  d E =-.545026E-01  mag=    -0.0000
       N       E                     dE             d eps       ncg     rms          ort
SDA:   1    -0.634649575271E+03    0.73390E+01    0.00000E+00  1824   0.272E+02 0.000E+00
CGA:   2    -0.639051155473E+03   -0.44016E+01   -0.44011E+01  1824   0.918E+01-0.197E-01
CGA:   3    -0.641129739301E+03   -0.20786E+01   -0.20782E+01  1824   0.271E+01 0.243E-01
CGA:   4    -0.641736673200E+03   -0.60693E+00   -0.60687E+00  1824   0.894E+00 0.565E-02
CGA:   5    -0.641895691339E+03   -0.15902E+00   -0.15914E+00  1824   0.286E+00 0.261E-02
CGA:   6    -0.641957777432E+03   -0.62086E-01   -0.62086E-01  1824   0.103E+00 0.539E-03
CGA:   7    -0.641982804468E+03   -0.25027E-01   -0.25042E-01  1824   0.342E-01-0.602E-03
CGA:   8    -0.641991311515E+03   -0.85070E-02   -0.84968E-02  1824   0.128E-01 0.284E-03
CGA:   9    -0.641994362323E+03   -0.30508E-02   -0.30525E-02  1824   0.603E-02-0.101E-03
CGA:  10    -0.641995723279E+03   -0.13610E-02   -0.13613E-02  1824   0.234E-02-0.448E-04
CGA:  11    -0.641996326690E+03   -0.60341E-03   -0.59955E-03  1824   0.954E-03 0.102E-03
CGA:  12    -0.641996603154E+03   -0.27646E-03   -0.27768E-03  1824   0.435E-03-0.219E-04
CGA:  13    -0.641996697286E+03   -0.94132E-04   -0.94221E-04  1824   0.169E-03 0.263E-04
CGA:  14    -0.641996740206E+03   -0.42920E-04   -0.42623E-04  1824   0.555E-04 0.216E-04
CGA:  15    -0.641996760238E+03   -0.20032E-04   -0.36829E-04  1824   0.133E-03-0.464E-04
CGA:  16    -0.641996771800E+03   -0.11562E-04   -0.15083E-04  1824   0.247E-04 0.270E-04
CGA:  17    -0.641996774401E+03   -0.26017E-05   -0.39530E-05  1824   0.905E-05 0.130E-04
   8 F= -.64199677E+03 E0= -.64199562E+03  d E =-.815859E-02  mag=    -0.0000
       N       E                     dE             d eps       ncg     rms          ort
SDA:   1    -0.639356361514E+03    0.26404E+01    0.00000E+00  1824   0.956E+01 0.000E+00
CGA:   2    -0.641078300307E+03   -0.17219E+01   -0.17236E+01  1824   0.317E+01-0.355E-02
CGA:   3    -0.641750906594E+03   -0.67261E+00   -0.67312E+00  1824   0.104E+01 0.943E-02
CGA:   4    -0.641990446881E+03   -0.23954E+00   -0.23955E+00  1824   0.342E+00-0.445E-03
CGA:   5    -0.642055920028E+03   -0.65473E-01   -0.65301E-01  1824   0.128E+00-0.339E-02
CGA:   6    -0.642083015574E+03   -0.27096E-01   -0.27080E-01  1824   0.435E-01-0.880E-03
CGA:   7    -0.642093458359E+03   -0.10443E-01   -0.10438E-01  1824   0.149E-01 0.556E-03
CGA:   8    -0.642097180240E+03   -0.37219E-02   -0.37208E-02  1824   0.589E-02 0.809E-04
CGA:   9    -0.642098477310E+03   -0.12971E-02   -0.12978E-02  1824   0.274E-02 0.433E-04
CGA:  10    -0.642099112487E+03   -0.63518E-03   -0.63515E-03  1824   0.104E-02-0.844E-05
CGA:  11    -0.642099430923E+03   -0.31844E-03   -0.33916E-03  1824   0.765E-03-0.223E-03
CGA:  12    -0.642099558604E+03   -0.12768E-03   -0.12630E-03  1824   0.284E-03-0.485E-04
CGA:  13    -0.642099628359E+03   -0.69755E-04   -0.70545E-04  1824   0.102E-03-0.290E-04
CGA:  14    -0.642099658680E+03   -0.30321E-04   -0.40134E-04  1824   0.993E-04-0.491E-04
CGA:  15    -0.642099661063E+03   -0.23833E-05   -0.53063E-05  1824   0.571E-04 0.200E-04
   9 F= -.64209966E+03 E0= -.64209868E+03  d E =-.102887E+00  mag=     0.0000
       N       E                     dE             d eps       ncg     rms          ort
SDA:   1    -0.642040748061E+03    0.58911E-01    0.00000E+00  1824   0.342E+00 0.000E+00
CGA:   2    -0.642083802857E+03   -0.43055E-01   -0.43106E-01  1824   0.713E-01-0.537E-04
CGA:   3    -0.642104700723E+03   -0.20898E-01   -0.20890E-01  1824   0.216E-01-0.569E-05
CGA:   4    -0.642109113548E+03   -0.44128E-02   -0.44131E-02  1824   0.592E-02-0.101E-04
CGA:   5    -0.642110320061E+03   -0.12065E-02   -0.12104E-02  1824   0.175E-02 0.145E-03
CGA:   6    -0.642110674766E+03   -0.35471E-03   -0.35646E-03  1824   0.724E-03 0.561E-04
CGA:   7    -0.642110850106E+03   -0.17534E-03   -0.17558E-03  1824   0.278E-03-0.348E-04
CGA:   8    -0.642110910167E+03   -0.60060E-04   -0.60081E-04  1824   0.854E-04 0.129E-04
CGA:   9    -0.642110934400E+03   -0.24233E-04   -0.24523E-04  1824   0.473E-04-0.639E-05
CGA:  10    -0.642110943008E+03   -0.86086E-05   -0.87268E-05  1824   0.172E-04 0.378E-05
  10 F= -.64211094E+03 E0= -.64210996E+03  d E =-.112819E-01  mag=     0.0000
       N       E                     dE             d eps       ncg     rms          ort
SDA:   1    -0.637369232462E+03    0.47417E+01    0.00000E+00  1824   0.177E+02 0.000E+00
CGA:   2    -0.640188947444E+03   -0.28197E+01   -0.28195E+01  1824   0.569E+01-0.767E-02
CGA:   3    -0.641505855363E+03   -0.13169E+01   -0.13169E+01  1824   0.169E+01-0.241E-02
CGA:   4    -0.641898278760E+03   -0.39242E+00   -0.39238E+00  1824   0.480E+00 0.251E-02
CGA:   5    -0.641996106649E+03   -0.97828E-01   -0.97948E-01  1824   0.166E+00 0.494E-02
CGA:   6    -0.642030230283E+03   -0.34124E-01   -0.34124E-01  1824   0.685E-01 0.279E-05
CGA:   7    -0.642045106113E+03   -0.14876E-01   -0.14869E-01  1824   0.245E-01-0.114E-02
CGA:   8    -0.642050867525E+03   -0.57614E-02   -0.57524E-02  1824   0.775E-02 0.549E-03
CGA:   9    -0.642052960111E+03   -0.20926E-02   -0.20969E-02  1824   0.364E-02-0.113E-03
CGA:  10    -0.642053765763E+03   -0.80565E-03   -0.80575E-03  1824   0.158E-02 0.814E-04
CGA:  11    -0.642054129776E+03   -0.36401E-03   -0.36406E-03  1824   0.638E-03 0.833E-04
CGA:  12    -0.642054319489E+03   -0.18971E-03   -0.18832E-03  1824   0.249E-03 0.254E-04
CGA:  13    -0.642054374937E+03   -0.55448E-04   -0.55991E-04  1824   0.945E-04 0.434E-04
CGA:  14    -0.642054403464E+03   -0.28527E-04   -0.28144E-04  1824   0.349E-04 0.148E-04
CGA:  15    -0.642054382048E+03    0.21416E-04   -0.41944E-04  1824   0.306E-03-0.783E-04
CGA:  16    -0.642054409957E+03   -0.27910E-04   -0.36171E-04  1824   0.603E-04 0.542E-04
CGA:  17    -0.642054416380E+03   -0.64222E-05   -0.98943E-05  1824   0.172E-04 0.282E-04
  11 F= -.64205442E+03 E0= -.64205328E+03  d E =0.565266E-01  mag=    -0.0000
       N       E                     dE             d eps       ncg     rms          ort
SDA:   1    -0.635133362776E+03    0.69210E+01    0.00000E+00  1824   0.301E+02 0.000E+00
CGA:   2    -0.639419657904E+03   -0.42863E+01   -0.42989E+01  1824   0.789E+01-0.268E-01
CGA:   3    -0.641300515339E+03   -0.18809E+01   -0.18812E+01  1824   0.247E+01 0.220E-01
CGA:   4    -0.641847554744E+03   -0.54704E+00   -0.54704E+00  1824   0.837E+00-0.150E-02
CGA:   5    -0.642000837053E+03   -0.15328E+00   -0.15316E+00  1824   0.268E+00-0.346E-02
CGA:   6    -0.642058654651E+03   -0.57818E-01   -0.57767E-01  1824   0.977E-01-0.203E-02
CGA:   7    -0.642081614324E+03   -0.22960E-01   -0.22962E-01  1824   0.332E-01 0.505E-03
CGA:   8    -0.642089958084E+03   -0.83438E-02   -0.83411E-02  1824   0.128E-01 0.260E-03
CGA:   9    -0.642092828019E+03   -0.28699E-02   -0.28761E-02  1824   0.583E-02 0.331E-03
CGA:  10    -0.642094216110E+03   -0.13881E-02   -0.13882E-02  1824   0.229E-02 0.675E-05
CGA:  11    -0.642094864662E+03   -0.64855E-03   -0.65878E-03  1824   0.134E-02-0.215E-03
CGA:  12    -0.642095166691E+03   -0.30203E-03   -0.30287E-03  1824   0.625E-03-0.114E-03
CGA:  13    -0.642095295058E+03   -0.12837E-03   -0.12797E-03  1824   0.217E-03-0.220E-04
CGA:  14    -0.642095357575E+03   -0.62518E-04   -0.64012E-04  1824   0.111E-03-0.232E-04
CGA:  15    -0.642095373707E+03   -0.16131E-04   -0.17487E-04  1824   0.398E-04 0.200E-04
CGA:  16    -0.642095385958E+03   -0.12252E-04   -0.12101E-04  1824   0.160E-04 0.887E-05
CGA:  17    -0.642095398235E+03   -0.12277E-04    0.78759E-05  1824   0.118E-04 0.317E-05
CGA:  18    -0.642095406531E+03   -0.82958E-05    0.79564E-05  1824   0.503E-05-0.480E-06
  12 F= -.64209541E+03 E0= -.64209451E+03  d E =-.409902E-01  mag=     0.0000
       N       E                     dE             d eps       ncg     rms          ort
SDA:   1    -0.641011331502E+03    0.10841E+01    0.00000E+00  1824   0.505E+01 0.000E+00
CGA:   2    -0.641717720766E+03   -0.70639E+00   -0.70665E+00  1824   0.128E+01-0.665E-03
CGA:   3    -0.642030690136E+03   -0.31297E+00   -0.31296E+00  1824   0.396E+00-0.174E-02
CGA:   4    -0.642119810148E+03   -0.89120E-01   -0.89120E-01  1824   0.120E+00-0.518E-03
CGA:   5    -0.642142316007E+03   -0.22506E-01   -0.22588E-01  1824   0.389E-01 0.190E-02
CGA:   6    -0.642150515399E+03   -0.81994E-02   -0.82133E-02  1824   0.148E-01 0.647E-03
CGA:   7    -0.642154069608E+03   -0.35542E-02   -0.35575E-02  1824   0.543E-02-0.361E-03
CGA:   8    -0.642155372874E+03   -0.13033E-02   -0.13016E-02  1824   0.195E-02 0.915E-04
CGA:   9    -0.642155845538E+03   -0.47266E-03   -0.47264E-03  1824   0.928E-03 0.102E-05
CGA:  10    -0.642156055595E+03   -0.21006E-03   -0.21009E-03  1824   0.374E-03 0.102E-04
CGA:  11    -0.642156137398E+03   -0.81804E-04   -0.82415E-04  1824   0.137E-03 0.565E-04
CGA:  12    -0.642156176150E+03   -0.38752E-04   -0.38201E-04  1824   0.474E-04 0.375E-04
CGA:  13    -0.642156190331E+03   -0.14181E-04   -0.14106E-04  1824   0.205E-04 0.177E-04
CGA:  14    -0.642156195076E+03   -0.47450E-05   -0.52661E-05  1824   0.895E-05 0.124E-04
  13 F= -.64215620E+03 E0= -.64215525E+03  d E =-.607885E-01  mag=    -0.0000
       N       E                     dE             d eps       ncg     rms          ort
SDA:   1    -0.642098506696E+03    0.57684E-01    0.00000E+00  1824   0.267E+00 0.000E+00
CGA:   2    -0.642133417104E+03   -0.34910E-01   -0.34998E-01  1824   0.647E-01 0.348E-03
CGA:   3    -0.642151133852E+03   -0.17717E-01   -0.17729E-01  1824   0.199E-01-0.574E-03
CGA:   4    -0.642155250058E+03   -0.41162E-02   -0.41130E-02  1824   0.626E-02-0.998E-04
CGA:   5    -0.642156395144E+03   -0.11451E-02   -0.11613E-02  1824   0.183E-02 0.264E-03
CGA:   6    -0.642156767275E+03   -0.37213E-03   -0.37731E-03  1824   0.645E-03 0.112E-03
CGA:   7    -0.642156955746E+03   -0.18847E-03   -0.19092E-03  1824   0.298E-03-0.666E-04
CGA:   8    -0.642157010872E+03   -0.55126E-04   -0.55988E-04  1824   0.941E-04 0.248E-04
CGA:   9    -0.642157033836E+03   -0.22964E-04   -0.23052E-04  1824   0.368E-04 0.547E-05
CGA:  10    -0.642157046643E+03   -0.12807E-04   -0.13583E-04  1824   0.231E-04-0.722E-05
CGA:  11    -0.642157048182E+03   -0.15384E-05   -0.23911E-05  1824   0.105E-04 0.722E-05
  14 F= -.64215705E+03 E0= -.64215610E+03  d E =-.853105E-03  mag=    -0.0000
       N       E                     dE             d eps       ncg     rms          ort
SDA:   1    -0.640112166298E+03    0.20449E+01    0.00000E+00  1824   0.895E+01 0.000E+00
CGA:   2    -0.641291084287E+03   -0.11789E+01   -0.11813E+01  1824   0.228E+01-0.566E-02
CGA:   3    -0.641939871901E+03   -0.64879E+00   -0.64839E+00  1824   0.716E+00 0.421E-02
CGA:   4    -0.642072295585E+03   -0.13242E+00   -0.13242E+00  1824   0.230E+00-0.423E-03
CGA:   5    -0.642116178111E+03   -0.43883E-01   -0.43925E-01  1824   0.737E-01 0.650E-03
CGA:   6    -0.642130935908E+03   -0.14758E-01   -0.14764E-01  1824   0.238E-01 0.255E-03
CGA:   7    -0.642137152846E+03   -0.62169E-02   -0.62250E-02  1824   0.897E-02-0.244E-03
CGA:   8    -0.642139189004E+03   -0.20362E-02   -0.20361E-02  1824   0.335E-02 0.639E-04
CGA:   9    -0.642139905508E+03   -0.71650E-03   -0.71699E-03  1824   0.145E-02 0.290E-04
CGA:  10    -0.642140272104E+03   -0.36660E-03   -0.36627E-03  1824   0.576E-03 0.139E-04
CGA:  11    -0.642140412420E+03   -0.14032E-03   -0.14001E-03  1824   0.266E-03 0.246E-04
CGA:  12    -0.642140485956E+03   -0.73536E-04   -0.73633E-04  1824   0.125E-03-0.280E-05
CGA:  13    -0.642140517265E+03   -0.31310E-04   -0.31452E-04  1824   0.565E-04-0.625E-05
CGA:  14    -0.642140526399E+03   -0.91336E-05   -0.96568E-05  1824   0.176E-04 0.100E-04
  15 F= -.64214053E+03 E0= -.64213957E+03  d E =0.165218E-01  mag=    -0.0000
       N       E                     dE             d eps       ncg     rms          ort
SDA:   1    -0.624458894254E+03    0.17682E+02    0.00000E+00  1824   0.866E+02 0.000E+00
CGA:   2    -0.635394948659E+03   -0.10936E+02   -0.11011E+02  1824   0.172E+02 0.531E-01
CGA:   3    -0.640104515288E+03   -0.47096E+01   -0.47060E+01  1824   0.545E+01 0.345E-01
CGA:   4    -0.641234563335E+03   -0.11300E+01   -0.11302E+01  1824   0.169E+01-0.405E-02
CGA:   5    -0.641555069311E+03   -0.32051E+00   -0.32049E+00  1824   0.531E+00-0.348E-03
CGA:   6    -0.641663049339E+03   -0.10798E+00   -0.10798E+00  1824   0.197E+00-0.594E-03
CGA:   7    -0.641710591908E+03   -0.47543E-01   -0.47571E-01  1824   0.664E-01-0.162E-02
CGA:   8    -0.641727133478E+03   -0.16542E-01   -0.16514E-01  1824   0.251E-01 0.972E-03
CGA:   9    -0.641732884186E+03   -0.57507E-02   -0.57500E-02  1824   0.114E-01 0.113E-02
CGA:  10    -0.641735644791E+03   -0.27606E-02   -0.27575E-02  1824   0.423E-02 0.440E-03
CGA:  11    -0.641736882196E+03   -0.12374E-02   -0.12388E-02  1824   0.236E-02-0.255E-04
CGA:  12    -0.641737451519E+03   -0.56932E-03   -0.56941E-03  1824   0.106E-02-0.596E-05
CGA:  13    -0.641737704690E+03   -0.25317E-03   -0.25298E-03  1824   0.376E-03 0.177E-04
CGA:  14    -0.641737810197E+03   -0.10551E-03   -0.10480E-03  1824   0.165E-03 0.157E-04
CGA:  15    -0.641737847330E+03   -0.37134E-04   -0.37408E-04  1824   0.690E-04 0.191E-04
CGA:  16    -0.641737872011E+03   -0.24681E-04   -0.25386E-04  1824   0.390E-04-0.718E-05
CGA:  17    -0.641737877904E+03   -0.58935E-05   -0.19115E-04  1824   0.124E-03-0.425E-04
CGA:  18    -0.641737891524E+03   -0.13619E-04   -0.13711E-04  1824   0.144E-04 0.561E-06
CGA:  19    -0.641737894254E+03   -0.27299E-05   -0.29348E-05  1824   0.332E-05 0.496E-05
  16 F= -.64173789E+03 E0= -.64173660E+03  d E =0.402632E+00  mag=    -0.0000
       N       E                     dE             d eps       ncg     rms          ort
SDA:   1    -0.637017606095E+03    0.47203E+01    0.00000E+00  1824   0.254E+02 0.000E+00
CGA:   2    -0.640229915550E+03   -0.32123E+01   -0.32193E+01  1824   0.510E+01-0.128E-01
CGA:   3    -0.641607511471E+03   -0.13776E+01   -0.13767E+01  1824   0.163E+01 0.139E-01
CGA:   4    -0.641946100296E+03   -0.33859E+00   -0.33874E+00  1824   0.513E+00 0.152E-02
CGA:   5    -0.642041931090E+03   -0.95831E-01   -0.95886E-01  1824   0.162E+00 0.123E-02
CGA:   6    -0.642075102382E+03   -0.33171E-01   -0.33205E-01  1824   0.601E-01 0.106E-02
CGA:   7    -0.642089806077E+03   -0.14704E-01   -0.14703E-01  1824   0.206E-01 0.592E-04
CGA:   8    -0.642095106597E+03   -0.53005E-02   -0.52976E-02  1824   0.862E-02 0.110E-03
CGA:   9    -0.642097029398E+03   -0.19228E-02   -0.19235E-02  1824   0.423E-02 0.595E-04
CGA:  10    -0.642098001596E+03   -0.97220E-03   -0.97249E-03  1824   0.147E-02 0.562E-04
CGA:  11    -0.642098402495E+03   -0.40090E-03   -0.39827E-03  1824   0.671E-03 0.772E-04
CGA:  12    -0.642098574206E+03   -0.17171E-03   -0.17118E-03  1824   0.294E-03 0.680E-04
CGA:  13    -0.642098646915E+03   -0.72709E-04   -0.73057E-04  1824   0.111E-03 0.378E-04
CGA:  14    -0.642098676313E+03   -0.29398E-04   -0.29374E-04  1824   0.417E-04 0.286E-04
CGA:  15    -0.642098691046E+03   -0.14733E-04   -0.14426E-04  1824   0.196E-04 0.754E-05
CGA:  16    -0.642098696221E+03   -0.51753E-05   -0.52385E-05  1824   0.855E-05 0.601E-05
  17 F= -.64209870E+03 E0= -.64209769E+03  d E =-.360802E+00  mag=     0.0000
       N       E                     dE             d eps       ncg     rms          ort
SDA:   1    -0.640914148464E+03    0.11845E+01    0.00000E+00  1824   0.595E+01 0.000E+00
CGA:   2    -0.641684970283E+03   -0.77082E+00   -0.77136E+00  1824   0.128E+01-0.281E-02
CGA:   3    -0.642022656156E+03   -0.33769E+00   -0.33756E+00  1824   0.391E+00 0.726E-03
CGA:   4    -0.642107385378E+03   -0.84729E-01   -0.84726E-01  1824   0.121E+00-0.712E-03
CGA:   5    -0.642130576478E+03   -0.23191E-01   -0.23240E-01  1824   0.372E-01 0.131E-02
CGA:   6    -0.642138208799E+03   -0.76323E-02   -0.76405E-02  1824   0.146E-01 0.334E-03
CGA:   7    -0.642141685040E+03   -0.34762E-02   -0.34790E-02  1824   0.514E-02-0.248E-03
CGA:   8    -0.642142949020E+03   -0.12640E-02   -0.12634E-02  1824   0.193E-02 0.200E-04
CGA:   9    -0.642143398878E+03   -0.44986E-03   -0.44961E-03  1824   0.921E-03 0.453E-04
CGA:  10    -0.642143610875E+03   -0.21200E-03   -0.21204E-03  1824   0.352E-03 0.191E-04
CGA:  11    -0.642143699982E+03   -0.89107E-04   -0.88415E-04  1824   0.152E-03 0.354E-04
CGA:  12    -0.642143744031E+03   -0.44049E-04   -0.43486E-04  1824   0.647E-04 0.174E-04
CGA:  13    -0.642143759680E+03   -0.15649E-04   -0.15783E-04  1824   0.261E-04 0.125E-04
CGA:  14    -0.642143766036E+03   -0.63560E-05   -0.65351E-05  1824   0.884E-05 0.937E-05
  18 F= -.64214377E+03 E0= -.64214282E+03  d E =-.450698E-01  mag=     0.0000
       N       E                     dE             d eps       ncg     rms          ort
SDA:   1    -0.642118934798E+03    0.24825E-01    0.00000E+00  1824   0.958E-01 0.000E+00
CGA:   2    -0.642132248641E+03   -0.13314E-01   -0.13309E-01  1824   0.262E-01-0.174E-03
CGA:   3    -0.642139038831E+03   -0.67902E-02   -0.67889E-02  1824   0.716E-02-0.324E-05
CGA:   4    -0.642140647161E+03   -0.16083E-02   -0.16089E-02  1824   0.206E-02 0.815E-04
CGA:   5    -0.642141088136E+03   -0.44097E-03   -0.44284E-03  1824   0.535E-03 0.104E-03
CGA:   6    -0.642141233340E+03   -0.14520E-03   -0.14581E-03  1824   0.260E-03-0.206E-04
CGA:   7    -0.642141288679E+03   -0.55339E-04   -0.55167E-04  1824   0.120E-03-0.168E-04
CGA:   8    -0.642141313440E+03   -0.24761E-04   -0.24567E-04  1824   0.470E-04-0.163E-04
CGA:   9    -0.642141323874E+03   -0.10434E-04   -0.10505E-04  1824   0.194E-04-0.254E-05
CGA:  10    -0.642141327872E+03   -0.39979E-05   -0.40176E-05  1824   0.674E-05 0.156E-05
  19 F= -.64214133E+03 E0= -.64214039E+03  d E =0.243816E-02  mag=     0.0000
       N       E                     dE             d eps       ncg     rms          ort
SDA:   1    -0.642045522957E+03    0.95801E-01    0.00000E+00  1824   0.349E+00 0.000E+00
CGA:   2    -0.642094424888E+03   -0.48902E-01   -0.48860E-01  1824   0.103E+00-0.962E-03
CGA:   3    -0.642121637200E+03   -0.27212E-01   -0.27183E-01  1824   0.265E-01 0.612E-03
CGA:   4    -0.642127271653E+03   -0.56345E-02   -0.56389E-02  1824   0.924E-02 0.243E-03
CGA:   5    -0.642129159804E+03   -0.18882E-02   -0.18855E-02  1824   0.301E-02-0.110E-03
CGA:   6    -0.642129752241E+03   -0.59244E-03   -0.59040E-03  1824   0.118E-02-0.754E-04
CGA:   7    -0.642130028003E+03   -0.27576E-03   -0.27592E-03  1824   0.395E-03-0.106E-04
CGA:   8    -0.642130132660E+03   -0.10466E-03   -0.10669E-03  1824   0.169E-03-0.431E-04
CGA:   9    -0.642130168442E+03   -0.35782E-04   -0.35885E-04  1824   0.908E-04-0.956E-05
CGA:  10    -0.642130187257E+03   -0.18815E-04   -0.18780E-04  1824   0.318E-04-0.394E-05
CGA:  11    -0.642130196896E+03   -0.96393E-05   -0.10526E-04  1824   0.232E-04-0.753E-05
  20 F= -.64213020E+03 E0= -.64212927E+03  d E =0.111310E-01  mag=     0.0000
       N       E                     dE             d eps       ncg     rms          ort
SDA:   1    -0.642049362992E+03    0.80824E-01    0.00000E+00  1824   0.308E+00 0.000E+00
CGA:   2    -0.642090292034E+03   -0.40929E-01   -0.40900E-01  1824   0.813E-01-0.807E-03
CGA:   3    -0.642112906710E+03   -0.22615E-01   -0.22573E-01  1824   0.234E-01 0.753E-03
CGA:   4    -0.642117556767E+03   -0.46501E-02   -0.46532E-02  1824   0.765E-02 0.683E-04
CGA:   5    -0.642119115774E+03   -0.15590E-02   -0.15521E-02  1824   0.270E-02-0.254E-03
CGA:   6    -0.642119635797E+03   -0.52002E-03   -0.51700E-03  1824   0.944E-03-0.998E-04
CGA:   7    -0.642119838111E+03   -0.20231E-03   -0.20255E-03  1824   0.297E-03 0.556E-04
CGA:   8    -0.642119923119E+03   -0.85007E-04   -0.85686E-04  1824   0.116E-03-0.152E-04
CGA:   9    -0.642119952578E+03   -0.29460E-04   -0.30230E-04  1824   0.822E-04-0.165E-04
CGA:  10    -0.642119967958E+03   -0.15379E-04   -0.15215E-04  1824   0.314E-04-0.107E-04
CGA:  11    -0.642119975668E+03   -0.77101E-05   -0.82647E-05  1824   0.184E-04-0.767E-05
  21 F= -.64211998E+03 E0= -.64211907E+03  d E =0.102212E-01  mag=    -0.0000
       N       E                     dE             d eps       ncg     rms          ort
SDA:   1    -0.640320124551E+03    0.17998E+01    0.00000E+00  1824   0.775E+01 0.000E+00
CGA:   2    -0.641338267866E+03   -0.10181E+01   -0.10192E+01  1824   0.198E+01-0.743E-02
CGA:   3    -0.641921743896E+03   -0.58348E+00   -0.58308E+00  1824   0.530E+00 0.425E-02
CGA:   4    -0.642031506125E+03   -0.10976E+00   -0.10977E+00  1824   0.154E+00-0.538E-03
CGA:   5    -0.642065277511E+03   -0.33771E-01   -0.33772E-01  1824   0.480E-01 0.404E-04
CGA:   6    -0.642074814765E+03   -0.95373E-02   -0.95326E-02  1824   0.201E-01-0.153E-03
CGA:   7    -0.642079148251E+03   -0.43335E-02   -0.43346E-02  1824   0.720E-02 0.723E-04
CGA:   8    -0.642080845478E+03   -0.16972E-02   -0.16971E-02  1824   0.215E-02 0.191E-04
CGA:   9    -0.642081418960E+03   -0.57348E-03   -0.57462E-03  1824   0.119E-02-0.325E-04
CGA:  10    -0.642081679393E+03   -0.26043E-03   -0.26037E-03  1824   0.439E-03-0.653E-05
CGA:  11    -0.642081787889E+03   -0.10850E-03   -0.10818E-03  1824   0.198E-03 0.196E-04
CGA:  12    -0.642081843391E+03   -0.55503E-04   -0.56258E-04  1824   0.117E-03-0.189E-04
CGA:  13    -0.642081866862E+03   -0.23471E-04   -0.23343E-04  1824   0.424E-04-0.887E-05
CGA:  14    -0.642081877985E+03   -0.11123E-04   -0.11178E-04  1824   0.145E-04-0.108E-05
CGA:  15    -0.642081881871E+03   -0.38855E-05   -0.39388E-05  1824   0.995E-05-0.128E-05
  22 F= -.64208188E+03 E0= -.64208101E+03  d E =0.380938E-01  mag=    -0.0000
       N       E                     dE             d eps       ncg     rms          ort
SDA:   1    -0.640302590245E+03    0.17793E+01    0.00000E+00  1824   0.933E+01 0.000E+00
CGA:   2    -0.641411020109E+03   -0.11084E+01   -0.11100E+01  1824   0.161E+01-0.867E-02
CGA:   3    -0.641910143900E+03   -0.49912E+00   -0.49848E+00  1824   0.578E+00 0.526E-02
CGA:   4    -0.642012740293E+03   -0.10260E+00   -0.10257E+00  1824   0.141E+00-0.638E-03
CGA:   5    -0.642040059394E+03   -0.27319E-01   -0.27321E-01  1824   0.480E-01-0.651E-04
CGA:   6    -0.642049775899E+03   -0.97165E-02   -0.97147E-02  1824   0.159E-01-0.611E-04
CGA:   7    -0.642053607152E+03   -0.38313E-02   -0.38300E-02  1824   0.548E-02 0.786E-04
CGA:   8    -0.642054919297E+03   -0.13121E-02   -0.13109E-02  1824   0.208E-02 0.109E-03
CGA:   9    -0.642055390156E+03   -0.47086E-03   -0.47123E-03  1824   0.989E-03 0.586E-04
CGA:  10    -0.642055638056E+03   -0.24790E-03   -0.24743E-03  1824   0.363E-03 0.298E-04
CGA:  11    -0.642055726668E+03   -0.88612E-04   -0.88363E-04  1824   0.171E-03 0.324E-04
CGA:  12    -0.642055775759E+03   -0.49091E-04   -0.48859E-04  1824   0.784E-04 0.667E-05
CGA:  13    -0.642055796088E+03   -0.20328E-04   -0.20278E-04  1824   0.361E-04 0.267E-05
CGA:  14    -0.642055802971E+03   -0.68829E-05   -0.71888E-05  1824   0.118E-04 0.786E-05
  23 F= -.64205580E+03 E0= -.64205489E+03  d E =0.260789E-01  mag=    -0.0000
       N       E                     dE             d eps       ncg     rms          ort
SDA:   1    -0.640954832594E+03    0.11010E+01    0.00000E+00  1824   0.563E+01 0.000E+00
CGA:   2    -0.641645970242E+03   -0.69114E+00   -0.69216E+00  1824   0.113E+01-0.436E-02
CGA:   3    -0.641991225064E+03   -0.34525E+00   -0.34504E+00  1824   0.369E+00 0.108E-02
CGA:   4    -0.642059129869E+03   -0.67905E-01   -0.67889E-01  1824   0.971E-01-0.791E-03
CGA:   5    -0.642078640081E+03   -0.19510E-01   -0.19515E-01  1824   0.328E-01 0.213E-03
CGA:   6    -0.642085155110E+03   -0.65150E-02   -0.65168E-02  1824   0.112E-01 0.692E-04
CGA:   7    -0.642087882952E+03   -0.27278E-02   -0.27284E-02  1824   0.402E-02-0.332E-04
CGA:   8    -0.642088842063E+03   -0.95911E-03   -0.95820E-03  1824   0.140E-02 0.533E-04
CGA:   9    -0.642089161579E+03   -0.31952E-03   -0.31940E-03  1824   0.632E-03 0.615E-04
CGA:  10    -0.642089325811E+03   -0.16423E-03   -0.16377E-03  1824   0.247E-03 0.186E-04
CGA:  11    -0.642089391529E+03   -0.65718E-04   -0.65801E-04  1824   0.139E-03-0.253E-05
CGA:  12    -0.642089423656E+03   -0.32127E-04   -0.32128E-04  1824   0.556E-04-0.278E-06
CGA:  13    -0.642089435920E+03   -0.12264E-04   -0.12308E-04  1824   0.170E-04 0.888E-05
CGA:  14    -0.642089439951E+03   -0.40314E-05   -0.41338E-05  1824   0.638E-05 0.627E-05
  24 F= -.64208944E+03 E0= -.64208856E+03  d E =-.336370E-01  mag=     0.0000
       N       E                     dE             d eps       ncg     rms          ort
SDA:   1    -0.641849148248E+03    0.24029E+00    0.00000E+00  1824   0.138E+01 0.000E+00
CGA:   2    -0.642008657303E+03   -0.15951E+00   -0.15957E+00  1824   0.209E+00-0.143E-02
CGA:   3    -0.642074474935E+03   -0.65818E-01   -0.65715E-01  1824   0.741E-01 0.667E-03
CGA:   4    -0.642088023675E+03   -0.13549E-01   -0.13546E-01  1824   0.153E-01-0.121E-03
CGA:   5    -0.642091202956E+03   -0.31793E-02   -0.31848E-02  1824   0.511E-02 0.333E-03
CGA:   6    -0.642092236926E+03   -0.10340E-02   -0.10369E-02  1824   0.181E-02 0.118E-03
CGA:   7    -0.642092653147E+03   -0.41622E-03   -0.41628E-03  1824   0.655E-03-0.258E-04
CGA:   8    -0.642092822341E+03   -0.16919E-03   -0.16972E-03  1824   0.243E-03-0.132E-04
CGA:   9    -0.642092877703E+03   -0.55362E-04   -0.55243E-04  1824   0.117E-03 0.163E-04
CGA:  10    -0.642092904707E+03   -0.27004E-04   -0.27112E-04  1824   0.399E-04 0.145E-04
CGA:  11    -0.642092915445E+03   -0.10739E-04   -0.10587E-04  1824   0.164E-04 0.126E-04
CGA:  12    -0.642092921944E+03   -0.64984E-05   -0.62194E-05  1824   0.822E-05 0.434E-05
  25 F= -.64209292E+03 E0= -.64209199E+03  d E =-.348199E-02  mag=     0.0000
       N       E                     dE             d eps       ncg     rms          ort
SDA:   1    -0.642027805044E+03    0.65110E-01    0.00000E+00  1824   0.317E+00 0.000E+00
CGA:   2    -0.642066877403E+03   -0.39072E-01   -0.39093E-01  1824   0.641E-01-0.296E-03
CGA:   3    -0.642085449618E+03   -0.18572E-01   -0.18549E-01  1824   0.190E-01 0.218E-03
CGA:   4    -0.642089364935E+03   -0.39153E-02   -0.39154E-02  1824   0.530E-02-0.109E-04
CGA:   5    -0.642090567428E+03   -0.12025E-02   -0.12032E-02  1824   0.173E-02-0.190E-03
CGA:   6    -0.642090897802E+03   -0.33037E-03   -0.32991E-03  1824   0.682E-03-0.187E-04
CGA:   7    -0.642091032801E+03   -0.13500E-03   -0.13561E-03  1824   0.214E-03 0.292E-04
CGA:   8    -0.642091089437E+03   -0.56636E-04   -0.56313E-04  1824   0.623E-04 0.103E-04
CGA:   9    -0.642091110922E+03   -0.21485E-04   -0.21584E-04  1824   0.316E-04-0.994E-06
CGA:  10    -0.642091118718E+03   -0.77956E-05   -0.78482E-05  1824   0.168E-04-0.221E-05
  26 F= -.64209112E+03 E0= -.64209021E+03  d E =0.180323E-02  mag=    -0.0000
