       N       E                     dE             d eps       ncg     rms          ort
DAV:   1     0.103023126532E+05    0.10302E+05   -0.42514E+05 10640   0.156E+03
DAV:   2    -0.140444471877E+03   -0.10443E+05   -0.98435E+04 10640   0.475E+02
DAV:   3    -0.154729554533E+04   -0.14069E+04   -0.13150E+04 10640   0.183E+02
DAV:   4    -0.162816239231E+04   -0.80867E+02   -0.78656E+02 10640   0.460E+01
DAV:   5    -0.163054300521E+04   -0.23806E+01   -0.23728E+01 10640   0.839E+00
SDA:   6    -0.765542193356E+03    0.86500E+03   -0.23728E+01 10640   0.283E+04 0.000E+00
CGA:   7    -0.117445522699E+04   -0.40891E+03   -0.40448E+03 10640   0.751E+03-0.119E+02
CGA:   8    -0.120138399443E+04   -0.26929E+02   -0.41415E+02 10640   0.666E+03-0.235E+03
CGA:   9    -0.123743748247E+04   -0.36053E+02   -0.30042E+02 10640   0.433E+03-0.790E+02
CGA:  10    -0.125582091629E+04   -0.18383E+02   -0.21814E+02 10640   0.353E+03-0.955E+02
CGA:  11    -0.126949995906E+04   -0.13679E+02   -0.15631E+02 10640   0.285E+03-0.625E+02
CGA:  12    -0.127820306048E+04   -0.87031E+01   -0.12101E+02 10640   0.400E+03-0.102E+03
CGA:  13    -0.127661632344E+04    0.15867E+01   -0.88796E+01 10640   0.670E+03-0.250E+03
CGA:  14    -0.127075097054E+04    0.58654E+01   -0.30691E+02 10640   0.930E+03-0.491E+03
CGA:  15    -0.126595858960E+04    0.47924E+01   -0.35339E+02 10640   0.141E+04-0.107E+04
CGA:  16    -0.125847324415E+04    0.74853E+01   -0.55411E+02 10640   0.134E+04-0.110E+04
CGA:  17    -0.126951446833E+04   -0.11041E+02   -0.46395E+02 10640   0.134E+04-0.149E+04
CGA:  18    -0.126819775423E+04    0.13167E+01   -0.49471E+02 10640   0.121E+04-0.112E+04
CGA:  19    -0.127593621099E+04   -0.77385E+01   -0.41330E+02 10640   0.117E+04-0.128E+04
CGA:  20    -0.127908148418E+04   -0.31453E+01   -0.40851E+02 10640   0.952E+03-0.973E+03
CGA:  21    -0.128718235474E+04   -0.81009E+01   -0.31069E+02 10640   0.706E+03-0.849E+03
CGA:  22    -0.129286033376E+04   -0.56780E+01   -0.22538E+02 10640   0.435E+03-0.530E+03
CGA:  23    -0.129888243003E+04   -0.60221E+01   -0.12168E+02 10640   0.142E+03-0.235E+03
CGA:  24    -0.130136520810E+04   -0.24828E+01   -0.34607E+01 10640   0.220E+02-0.401E+02
CGA:  25    -0.130223893485E+04   -0.87373E+00   -0.93865E+00 10640   0.134E+02-0.512E+00
CGA:  26    -0.130328370897E+04   -0.10448E+01   -0.10815E+01 10640   0.152E+02 0.347E+00
CGA:  27    -0.130450141998E+04   -0.12177E+01   -0.12774E+01 10640   0.711E+01 0.607E+00
CGA:  28    -0.130489763786E+04   -0.39622E+00   -0.41998E+00 10640   0.294E+01-0.311E+00
CGA:  29    -0.130520344526E+04   -0.30581E+00   -0.30446E+00 10640   0.325E+01 0.147E-02
CGA:  30    -0.130555981190E+04   -0.35637E+00   -0.35610E+00 10640   0.245E+01-0.108E+00
CGA:  31    -0.130576579780E+04   -0.20599E+00   -0.20728E+00 10640   0.108E+01-0.944E-01
CGA:  32    -0.130586600605E+04   -0.10021E+00   -0.99917E-01 10640   0.939E+00-0.140E+00
CGA:  33    -0.130599382946E+04   -0.12782E+00   -0.14686E+00 10640   0.149E+01-0.249E+00
CGA:  34    -0.130610071123E+04   -0.10688E+00   -0.10487E+00 10640   0.451E+00-0.340E+00
CGA:  35    -0.130614314738E+04   -0.42436E-01   -0.50825E-01 10640   0.960E+00-0.200E+00
CGA:  36    -0.130597250547E+04    0.17064E+00   -0.20600E+00 10640   0.376E+01-0.139E+01
CGA:  37    -0.130614764166E+04   -0.17514E+00   -0.18411E+00 10640   0.790E+00-0.118E+00
CGA:  38    -0.130629267422E+04   -0.14503E+00   -0.14383E+00 10640   0.458E+00 0.193E-01
CGA:  39    -0.130633942471E+04   -0.46750E-01   -0.47500E-01 10640   0.272E+00 0.389E-01
CGA:  40    -0.130639732929E+04   -0.57905E-01   -0.52896E-01 10640   0.213E+00 0.845E-01
CGA:  41    -0.130641990613E+04   -0.22577E-01   -0.24163E-01 10640   0.665E-01 0.474E-01
CGA:  42    -0.130642794860E+04   -0.80425E-02   -0.85155E-02 10640   0.397E-01 0.328E-01
CGA:  43    -0.130643471943E+04   -0.67708E-02   -0.68661E-02 10640   0.185E-01 0.347E-01
CGA:  44    -0.130643637264E+04   -0.16532E-02   -0.18228E-02 10640   0.139E-01 0.846E-02
CGA:  45    -0.130643801524E+04   -0.16426E-02   -0.19631E-02 10640   0.996E-02 0.156E-01
CGA:  46    -0.130643842900E+04   -0.41376E-03   -0.71601E-03 10640   0.715E-02 0.679E-02
CGA:  47    -0.130643873722E+04   -0.30822E-03   -0.55125E-03 10640   0.632E-02 0.655E-02
CGA:  48    -0.130643895775E+04   -0.22053E-03   -0.45885E-03 10640   0.574E-02 0.598E-02
CGA:  49    -0.130643913440E+04   -0.17666E-03   -0.39974E-03 10640   0.526E-02 0.547E-02
CGA:  50    -0.130643926830E+04   -0.13389E-03   -0.34737E-03 10640   0.485E-02 0.504E-02
CGA:  51    -0.130643936961E+04   -0.10131E-03   -0.30458E-03 10640   0.450E-02 0.467E-02
CGA:  52    -0.130643944415E+04   -0.74542E-04   -0.26828E-03 10640   0.419E-02 0.435E-02
CGA:  53    -0.130643949763E+04   -0.53484E-04   -0.23770E-03 10640   0.393E-02 0.407E-02
CGA:  54    -0.130643953419E+04   -0.36555E-04   -0.21158E-03 10640   0.369E-02 0.382E-02
CGA:  55    -0.130643955738E+04   -0.23194E-04   -0.18923E-03 10640   0.348E-02 0.359E-02
CGA:  56    -0.130643956990E+04   -0.12514E-04   -0.16993E-03 10640   0.330E-02 0.340E-02
CGA:  57    -0.130643957396E+04   -0.40665E-05   -0.15320E-03 10640   0.313E-02 0.322E-02
CGA:  58    -0.130643957136E+04    0.26010E-05   -0.13862E-03 10640   0.298E-02 0.306E-02
CGA:  59    -0.130643956354E+04    0.78210E-05   -0.12587E-03 10640   0.284E-02 0.291E-02
CGA:  60    -0.130643955165E+04    0.11889E-04   -0.11465E-03 10640   0.271E-02 0.278E-02
CGA:  61    -0.130643953660E+04    0.15048E-04   -0.10475E-03 10640   0.260E-02 0.266E-02
CGA:  62    -0.130643951916E+04    0.17443E-04   -0.95992E-04 10640   0.250E-02 0.255E-02
CGA:  63    -0.130643949993E+04    0.19229E-04   -0.88198E-04 10640   0.240E-02 0.245E-02
CGA:  64    -0.130643947941E+04    0.20522E-04   -0.81241E-04 10640   0.231E-02 0.236E-02
CGA:  65    -0.130643945800E+04    0.21411E-04   -0.75012E-04 10640   0.223E-02 0.228E-02
CGA:  66    -0.130643943601E+04    0.21987E-04   -0.69414E-04 10640   0.216E-02 0.220E-02
CGA:  67    -0.130643941370E+04    0.22311E-04   -0.64365E-04 10640   0.209E-02 0.213E-02
CGA:  68    -0.130643939127E+04    0.22433E-04   -0.59799E-04 10640   0.203E-02 0.206E-02
CGA:  69    -0.130643936888E+04    0.22391E-04   -0.55660E-04 10640   0.197E-02 0.200E-02
CGA:  70    -0.130643934666E+04    0.22220E-04   -0.51897E-04 10640   0.191E-02 0.194E-02
CGA:  71    -0.130643932471E+04    0.21950E-04   -0.48466E-04 10640   0.186E-02 0.189E-02
CGA:  72    -0.130643930311E+04    0.21600E-04   -0.45332E-04 10640   0.181E-02 0.184E-02
CGA:  73    -0.130643928192E+04    0.21189E-04   -0.42461E-04 10640   0.177E-02 0.179E-02
CGA:  74    -0.130643926119E+04    0.20730E-04   -0.39827E-04 10640   0.172E-02 0.175E-02
CGA:  75    -0.130643924094E+04    0.20244E-04   -0.37401E-04 10640   0.169E-02 0.171E-02
CGA:  76    -0.130643922122E+04    0.19724E-04   -0.35169E-04 10640   0.165E-02 0.167E-02
CGA:  77    -0.130643920203E+04    0.19187E-04   -0.33111E-04 10640   0.161E-02 0.163E-02
CGA:  78    -0.130643918340E+04    0.18638E-04   -0.31207E-04 10640   0.158E-02 0.160E-02
CGA:  79    -0.130643916531E+04    0.18086E-04   -0.29444E-04 10640   0.155E-02 0.157E-02
CGA:  80    -0.130643914778E+04    0.17534E-04   -0.27807E-04 10640   0.152E-02 0.154E-02
CGA:  81    -0.130643913079E+04    0.16987E-04   -0.26286E-04 10640   0.149E-02 0.151E-02
CGA:  82    -0.130643911434E+04    0.16445E-04   -0.24871E-04 10640   0.147E-02 0.148E-02
CGA:  83    -0.130643909843E+04    0.15913E-04   -0.23551E-04 10640   0.144E-02 0.146E-02
CGA:  84    -0.130643908304E+04    0.15386E-04   -0.22320E-04 10640   0.142E-02 0.143E-02
CGA:  85    -0.130643906817E+04    0.14872E-04   -0.21170E-04 10640   0.140E-02 0.141E-02
CGA:  86    -0.130643905380E+04    0.14369E-04   -0.20094E-04 10640   0.138E-02 0.139E-02
CGA:  87    -0.130643903992E+04    0.13879E-04   -0.19086E-04 10640   0.136E-02 0.137E-02
CGA:  88    -0.130643902652E+04    0.13401E-04   -0.18141E-04 10640   0.134E-02 0.135E-02
CGA:  89    -0.130643901359E+04    0.12935E-04   -0.17254E-04 10640   0.132E-02 0.133E-02
CGA:  90    -0.130643900110E+04    0.12484E-04   -0.16420E-04 10640   0.130E-02 0.131E-02
CGA:  91    -0.130643898906E+04    0.12045E-04   -0.15637E-04 10640   0.129E-02 0.130E-02
CGA:  92    -0.130643897744E+04    0.11621E-04   -0.14898E-04 10640   0.127E-02 0.128E-02
CGA:  93    -0.130643896623E+04    0.11211E-04   -0.14203E-04 10640   0.126E-02 0.126E-02
CGA:  94    -0.130643895541E+04    0.10814E-04   -0.13547E-04 10640   0.124E-02 0.125E-02
CGA:  95    -0.130643894498E+04    0.10429E-04   -0.12927E-04 10640   0.123E-02 0.124E-02
CGA:  96    -0.130643893492E+04    0.10058E-04   -0.12342E-04 10640   0.122E-02 0.122E-02
CGA:  97    -0.130643892523E+04    0.96993E-05   -0.11788E-04 10640   0.121E-02 0.121E-02
CGA:  98    -0.130643891587E+04    0.93544E-05   -0.11264E-04 10640   0.119E-02 0.120E-02
CGA:  99    -0.130643890685E+04    0.90195E-05   -0.10768E-04 10640   0.118E-02 0.119E-02
CGA: 100    -0.130643889815E+04    0.86974E-05   -0.10298E-04 10640   0.117E-02 0.118E-02
   1 F= -.13064389E+04 E0= -.13064192E+04  d E =-.130644E+04  mag=    47.0000
       N       E                     dE             d eps       ncg     rms          ort
SDA:   1    -0.130644609636E+04   -0.71895E-02    0.00000E+00 10640   0.110E-01 0.000E+00
CGA:   2    -0.130644708140E+04   -0.98504E-03   -0.73388E-03 10640   0.638E-02 0.580E-02
CGA:   3    -0.130644781536E+04   -0.73396E-03   -0.51712E-03 10640   0.443E-02 0.390E-02
CGA:   4    -0.130644825824E+04   -0.44288E-03   -0.32701E-03 10640   0.320E-02 0.254E-02
CGA:   5    -0.130644858625E+04   -0.32801E-03   -0.24794E-03 10640   0.243E-02 0.170E-02
CGA:   6    -0.130644879486E+04   -0.20862E-03   -0.16573E-03 10640   0.175E-02 0.122E-02
CGA:   7    -0.130644906754E+04   -0.27268E-03   -0.19656E-03 10640   0.100E-02 0.189E-02
CGA:   8    -0.130644914559E+04   -0.78056E-04   -0.63769E-04 10640   0.708E-03 0.531E-03
CGA:   9    -0.130644920044E+04   -0.54849E-04   -0.43492E-04 10640   0.527E-03 0.483E-03
CGA:  10    -0.130644924418E+04   -0.43736E-04   -0.33589E-04 10640   0.410E-03 0.411E-03
CGA:  11    -0.130644927633E+04   -0.32148E-04   -0.25051E-04 10640   0.328E-03 0.343E-03
CGA:  12    -0.130644930215E+04   -0.25824E-04   -0.20115E-04 10640   0.268E-03 0.286E-03
CGA:  13    -0.130644932286E+04   -0.20713E-04   -0.16289E-04 10640   0.222E-03 0.240E-03
CGA:  14    -0.130644934072E+04   -0.17856E-04   -0.13944E-04 10640   0.186E-03 0.201E-03
CGA:  15    -0.130644935680E+04   -0.16079E-04   -0.12347E-04 10640   0.157E-03 0.170E-03
CGA:  16    -0.130644937263E+04   -0.15834E-04   -0.11684E-04 10640   0.132E-03 0.143E-03
CGA:  17    -0.130644939022E+04   -0.17591E-04   -0.12187E-04 10640   0.109E-03 0.118E-03
CGA:  18    -0.130644941715E+04   -0.26921E-04   -0.17134E-04 10640   0.901E-04 0.903E-04
CGA:  19    -0.130644942716E+04   -0.10014E-04    0.12049E-03 10640   0.773E-04 0.741E-04
CGA:  20    -0.130644943713E+04   -0.99720E-05    0.11420E-04 10640   0.706E-04 0.717E-04
   2 F= -.13064494E+04 E0= -.13064293E+04  d E =-.105390E-01  mag=    47.0000
       N       E                     dE             d eps       ncg     rms          ort
SDA:   1    -0.130568537366E+04    0.76405E+00    0.00000E+00 10640   0.250E+01 0.000E+00
CGA:   2    -0.130616273141E+04   -0.47736E+00   -0.47614E+00 10640   0.370E+01 0.869E-02
CGA:   3    -0.130645585328E+04   -0.29312E+00   -0.29285E+00 10640   0.802E+00 0.142E-01
CGA:   4    -0.130654611597E+04   -0.90263E-01   -0.90608E-01 10640   0.508E+00-0.633E-02
CGA:   5    -0.130659526904E+04   -0.49153E-01   -0.49490E-01 10640   0.918E-01-0.984E-02
CGA:   6    -0.130660360670E+04   -0.83377E-02   -0.84019E-02 10640   0.550E-01-0.228E-02
CGA:   7    -0.130660995681E+04   -0.63501E-02   -0.64238E-02 10640   0.203E-01-0.137E-02
CGA:   8    -0.130661175997E+04   -0.18032E-02   -0.18103E-02 10640   0.743E-02-0.318E-03
CGA:   9    -0.130661292890E+04   -0.11689E-02   -0.10958E-02 10640   0.356E-02 0.935E-03
CGA:  10    -0.130661325032E+04   -0.32143E-03   -0.31985E-03 10640   0.163E-02 0.359E-03
CGA:  11    -0.130661352474E+04   -0.27441E-03   -0.25653E-03 10640   0.107E-02 0.264E-03
CGA:  12    -0.130661366072E+04   -0.13598E-03   -0.13453E-03 10640   0.543E-03 0.498E-04
CGA:  13    -0.130661332115E+04    0.33957E-03   -0.19482E-03 10640   0.108E-01-0.143E-02
CGA:  14    -0.130661380702E+04   -0.48587E-03   -0.47883E-03 10640   0.636E-03-0.563E-04
CGA:  15    -0.130661390265E+04   -0.95631E-04   -0.97751E-04 10640   0.969E-03-0.163E-03
CGA:  16    -0.130661399648E+04   -0.93834E-04   -0.87625E-04 10640   0.332E-03-0.301E-03
CGA:  17    -0.130661401845E+04   -0.21966E-04   -0.47145E-04 10640   0.107E-02-0.388E-03
CGA:  18    -0.130661408660E+04   -0.68149E-04   -0.67167E-04 10640   0.130E-03-0.107E-04
CGA:  19    -0.130661410571E+04   -0.19109E-04   -0.20661E-04 10640   0.297E-03-0.774E-04
CGA:  20    -0.130661412454E+04   -0.18831E-04   -0.15800E-04 10640   0.353E-04-0.340E-04
CGA:  21    -0.130661413797E+04   -0.13432E-04    0.37544E-05 10640   0.474E-04-0.128E-04
CGA:  22    -0.130661416718E+04   -0.29211E-04    0.81862E-06 10640   0.208E-04 0.796E-05
CGA:  23    -0.130661418842E+04   -0.21239E-04    0.76229E-06 10640   0.402E-04-0.157E-04
CGA:  24    -0.130661419241E+04   -0.39899E-05   -0.68867E-05 10640   0.246E-03-0.845E-04
CGA:  25    -0.130661420672E+04   -0.14312E-04   -0.12076E-04 10640   0.120E-04-0.247E-04
CGA:  26    -0.130661421575E+04   -0.90271E-05    0.34010E-06 10640   0.187E-04-0.653E-05
   3 F= -.13066142E+04 E0= -.13065943E+04  d E =-.164779E+00  mag=    47.0000
       N       E                     dE             d eps       ncg     rms          ort
SDA:   1    -0.130097133248E+04    0.56429E+01    0.00000E+00 10640   0.177E+02 0.000E+00
CGA:   2    -0.130367612073E+04   -0.27048E+01   -0.27082E+01 10640   0.213E+02-0.105E+00
CGA:   3    -0.130556636194E+04   -0.18902E+01   -0.18920E+01 10640   0.615E+01 0.525E-01
CGA:   4    -0.130630129238E+04   -0.73493E+00   -0.73524E+00 10640   0.386E+01 0.101E-01
CGA:   5    -0.130665639578E+04   -0.35510E+00   -0.35469E+00 10640   0.658E+00-0.347E-02
CGA:   6    -0.130671865483E+04   -0.62259E-01   -0.62169E-01 10640   0.405E+00-0.115E-02
CGA:   7    -0.130676468469E+04   -0.46030E-01   -0.46009E-01 10640   0.147E+00-0.886E-03
CGA:   8    -0.130677827860E+04   -0.13594E-01   -0.13601E-01 10640   0.601E-01 0.136E-03
CGA:   9    -0.130678878032E+04   -0.10502E-01   -0.10436E-01 10640   0.256E-01 0.138E-02
CGA:  10    -0.130679112993E+04   -0.23496E-02   -0.23791E-02 10640   0.160E-01 0.807E-03
CGA:  11    -0.130679356475E+04   -0.24348E-02   -0.24140E-02 10640   0.827E-02 0.107E-02
CGA:  12    -0.130679434570E+04   -0.78094E-03   -0.79798E-03 10640   0.366E-02 0.464E-03
CGA:  13    -0.130679502391E+04   -0.67822E-03   -0.67125E-03 10640   0.404E-02 0.145E-03
CGA:  14    -0.130679545087E+04   -0.42696E-03   -0.42397E-03 10640   0.140E-02-0.113E-03
CGA:  15    -0.130679561982E+04   -0.16895E-03   -0.16903E-03 10640   0.121E-02 0.347E-04
CGA:  16    -0.130679578663E+04   -0.16682E-03   -0.16634E-03 10640   0.517E-03 0.603E-04
CGA:  17    -0.130679586038E+04   -0.73742E-04   -0.73873E-04 10640   0.466E-03-0.163E-04
CGA:  18    -0.130679590890E+04   -0.48529E-04   -0.50895E-04 10640   0.210E-03 0.161E-03
CGA:  19    -0.130679593189E+04   -0.22988E-04   -0.26809E-04 10640   0.153E-03 0.119E-03
CGA:  20    -0.130679595146E+04   -0.19571E-04   -0.19561E-04 10640   0.208E-03 0.358E-05
CGA:  21    -0.130679597774E+04   -0.26271E-04   -0.26418E-04 10640   0.119E-03 0.122E-03
CGA:  22    -0.130679598220E+04   -0.44677E-05   -0.71527E-05 10640   0.487E-04 0.412E-04
   4 F= -.13067960E+04 E0= -.13067766E+04  d E =-.181766E+00  mag=    47.0000
       N       E                     dE             d eps       ncg     rms          ort
SDA:   1    -0.130562249523E+04    0.11735E+01    0.00000E+00 10640   0.356E+01 0.000E+00
CGA:   2    -0.130632638335E+04   -0.70389E+00   -0.70343E+00 10640   0.291E+01 0.675E-02
CGA:   3    -0.130657441107E+04   -0.24803E+00   -0.24809E+00 10640   0.143E+01 0.128E-02
CGA:   4    -0.130675391590E+04   -0.17950E+00   -0.17950E+00 10640   0.589E+00 0.760E-03
CGA:   5    -0.130680042885E+04   -0.46513E-01   -0.46500E-01 10640   0.107E+00-0.223E-03
CGA:   6    -0.130681407547E+04   -0.13647E-01   -0.13647E-01 10640   0.758E-01 0.113E-03
CGA:   7    -0.130681995787E+04   -0.58824E-02   -0.58876E-02 10640   0.181E-01 0.170E-03
CGA:   8    -0.130682245968E+04   -0.25018E-02   -0.25001E-02 10640   0.130E-01 0.103E-03
CGA:   9    -0.130682387135E+04   -0.14117E-02   -0.14096E-02 10640   0.365E-02-0.161E-03
CGA:  10    -0.130682435938E+04   -0.48803E-03   -0.48531E-03 10640   0.292E-02 0.186E-03
CGA:  11    -0.130682472014E+04   -0.36075E-03   -0.36091E-03 10640   0.136E-02 0.508E-04
CGA:  12    -0.130682485815E+04   -0.13801E-03   -0.13921E-03 10640   0.881E-03 0.601E-04
CGA:  13    -0.130682503338E+04   -0.17524E-03   -0.17041E-03 10640   0.750E-03 0.699E-04
CGA:  14    -0.130682512945E+04   -0.96065E-04   -0.95820E-04 10640   0.584E-03-0.597E-04
CGA:  15    -0.130682521545E+04   -0.86000E-04   -0.89383E-04 10640   0.652E-03-0.834E-04
CGA:  16    -0.130682527977E+04   -0.64327E-04   -0.63670E-04 10640   0.341E-03-0.684E-04
CGA:  17    -0.130682532510E+04   -0.45323E-04   -0.10128E-03 10640   0.175E-02-0.279E-03
CGA:  18    -0.130682540511E+04   -0.80009E-04   -0.85198E-04 10640   0.169E-03 0.632E-04
CGA:  19    -0.130682543842E+04   -0.33317E-04   -0.34091E-04 10640   0.395E-03-0.120E-04
CGA:  20    -0.130682549480E+04   -0.56380E-04   -0.58655E-04 10640   0.183E-03-0.880E-04
CGA:  21    -0.130682551108E+04   -0.16277E-04   -0.15344E-04 10640   0.141E-03-0.346E-04
CGA:  22    -0.130682554534E+04   -0.34262E-04    0.63789E-04 10640   0.104E-03 0.427E-04
CGA:  23    -0.130682543779E+04    0.10756E-03   -0.67165E-04 10640   0.290E-02-0.482E-03
CGA:  24    -0.130682559570E+04   -0.15791E-03   -0.16464E-03 10640   0.217E-03 0.740E-04
CGA:  25    -0.130682561712E+04   -0.21425E-04   -0.20713E-04 10640   0.151E-03-0.130E-04
CGA:  26    -0.130682564171E+04   -0.24590E-04   -0.25767E-04 10640   0.103E-03-0.312E-04
CGA:  27    -0.130682564482E+04   -0.31052E-05   -0.41948E-05 10640   0.236E-04 0.116E-04
   5 F= -.13068256E+04 E0= -.13068067E+04  d E =-.296626E-01  mag=    47.0000
       N       E                     dE             d eps       ncg     rms          ort
SDA:   1    -0.130329212866E+04    0.35335E+01    0.00000E+00 10640   0.956E+01 0.000E+00
CGA:   2    -0.130559535612E+04   -0.23032E+01   -0.23039E+01 10640   0.728E+01-0.381E-02
CGA:   3    -0.130625353217E+04   -0.65818E+00   -0.65933E+00 10640   0.390E+01 0.746E-02
CGA:   4    -0.130669997426E+04   -0.44644E+00   -0.44644E+00 10640   0.116E+01-0.183E-02
CGA:   5    -0.130679077838E+04   -0.90804E-01   -0.90265E-01 10640   0.280E+00-0.133E-03
CGA:   6    -0.130683050324E+04   -0.39725E-01   -0.39716E-01 10640   0.159E+00 0.193E-02
CGA:   7    -0.130684375619E+04   -0.13253E-01   -0.13274E-01 10640   0.523E-01 0.691E-03
CGA:   8    -0.130685022040E+04   -0.64642E-02   -0.64457E-02 10640   0.378E-01-0.152E-02
CGA:   9    -0.130685416335E+04   -0.39430E-02   -0.39050E-02 10640   0.113E-01-0.137E-02
CGA:  10    -0.130685562487E+04   -0.14615E-02   -0.14631E-02 10640   0.103E-01-0.759E-03
CGA:  11    -0.130685704886E+04   -0.14240E-02   -0.14739E-02 10640   0.610E-02-0.246E-02
CGA:  12    -0.130685754789E+04   -0.49903E-03   -0.46382E-03 10640   0.396E-02-0.104E-02
CGA:  13    -0.130685816233E+04   -0.61443E-03   -0.88958E-03 10640   0.825E-02-0.199E-02
CGA:  14    -0.130685866617E+04   -0.50384E-03   -0.45712E-03 10640   0.127E-02-0.559E-03
CGA:  15    -0.130685887160E+04   -0.20543E-03   -0.25704E-03 10640   0.389E-02-0.631E-03
CGA:  16    -0.130685909071E+04   -0.21911E-03   -0.18645E-03 10640   0.219E-02-0.751E-03
CGA:  17    -0.130685919648E+04   -0.10577E-03   -0.82564E-04 10640   0.916E-03-0.258E-03
CGA:  18    -0.130685929445E+04   -0.97975E-04   -0.16482E-03 10640   0.402E-02-0.936E-03
CGA:  19    -0.130685956144E+04   -0.26699E-03   -0.25341E-03 10640   0.440E-03-0.181E-03
CGA:  20    -0.130685961981E+04   -0.58372E-04   -0.65501E-04 10640   0.120E-02-0.302E-03
CGA:  21    -0.130685968236E+04   -0.62547E-04   -0.59790E-04 10640   0.150E-03-0.320E-04
CGA:  22    -0.130685973210E+04   -0.49736E-04    0.29411E-04 10640   0.140E-03 0.353E-04
CGA:  23    -0.130685982169E+04   -0.89589E-04    0.11088E-04 10640   0.741E-04 0.116E-03
CGA:  24    -0.130685985283E+04   -0.31140E-04    0.76234E-05 10640   0.111E-03 0.971E-05
CGA:  25    -0.130685993536E+04   -0.82536E-04    0.52172E-05 10640   0.892E-04 0.938E-04
CGA:  26    -0.130685996499E+04   -0.29628E-04    0.20143E-04 10640   0.883E-04-0.134E-04
CGA:  27    -0.130686001893E+04   -0.53941E-04    0.27238E-05 10640   0.840E-04 0.654E-04
CGA:  28    -0.130686004639E+04   -0.27463E-04    0.20490E-04 10640   0.807E-04-0.191E-04
CGA:  29    -0.130686009448E+04   -0.48087E-04    0.20295E-05 10640   0.771E-04 0.547E-04
CGA:  30    -0.130686011634E+04   -0.21860E-04    0.50775E-04 10640   0.763E-04-0.225E-04
CGA:  31    -0.130686015949E+04   -0.43150E-04    0.16649E-05 10640   0.776E-04 0.438E-04
CGA:  32    -0.130686018133E+04   -0.21834E-04    0.55954E-04 10640   0.803E-04-0.322E-04
CGA:  33    -0.130686022014E+04   -0.38814E-04    0.13796E-05 10640   0.890E-04 0.328E-04
CGA:  34    -0.130686028211E+04   -0.61973E-04    0.88883E-05 10640   0.570E-04 0.165E-04
CGA:  35    -0.130686033810E+04   -0.55988E-04    0.19716E-05 10640   0.430E-04 0.452E-04
CGA:  36    -0.130686034940E+04   -0.11302E-04    0.16648E-03 10640   0.999E-04-0.351E-04
CGA:  37    -0.130686035961E+04   -0.10208E-04   -0.75059E-05 10640   0.607E-04-0.499E-04
CGA:  38    -0.130686038083E+04   -0.21223E-04    0.10930E-05 10640   0.269E-04 0.170E-04
CGA:  39    -0.130686040080E+04   -0.19964E-04    0.16892E-05 10640   0.539E-04-0.381E-05
CGA:  40    -0.130686045070E+04   -0.49899E-04    0.89674E-06 10640   0.984E-04 0.146E-04
CGA:  41    -0.130686055186E+04   -0.10117E-03    0.36007E-05 10640   0.182E-03 0.988E-06
CGA:  42    -0.130686073283E+04   -0.18096E-03    0.40441E-05 10640   0.164E-03-0.455E-04
CGA:  43    -0.130686087650E+04   -0.14367E-03    0.21429E-05 10640   0.356E-03-0.179E-03
CGA:  44    -0.130686089223E+04   -0.15730E-04   -0.15594E-04 10640   0.439E-05-0.129E-05
CGA:  45    -0.130686089189E+04    0.33897E-06   -0.60599E-07 10640   0.314E-05 0.367E-05
   6 F= -.13068609E+04 E0= -.13068427E+04  d E =-.352471E-01  mag=    47.0000
       N       E                     dE             d eps       ncg     rms          ort
SDA:   1    -0.130378826693E+04    0.30726E+01    0.00000E+00 10640   0.825E+01 0.000E+00
CGA:   2    -0.130562835755E+04   -0.18401E+01   -0.18419E+01 10640   0.919E+01-0.137E-01
CGA:   3    -0.130630923398E+04   -0.68088E+00   -0.68007E+00 10640   0.313E+01 0.711E-02
CGA:   4    -0.130672580982E+04   -0.41658E+00   -0.41653E+00 10640   0.117E+01 0.232E-02
CGA:   5    -0.130682003046E+04   -0.94221E-01   -0.94167E-01 10640   0.236E+00 0.123E-02
CGA:   6    -0.130685137289E+04   -0.31342E-01   -0.31313E-01 10640   0.161E+00 0.164E-02
CGA:   7    -0.130686567616E+04   -0.14303E-01   -0.14305E-01 10640   0.416E-01 0.182E-03
CGA:   8    -0.130687102857E+04   -0.53524E-02   -0.53778E-02 10640   0.297E-01-0.161E-02
CGA:   9    -0.130687436563E+04   -0.33371E-02   -0.33427E-02 10640   0.954E-02-0.214E-02
CGA:  10    -0.130687545701E+04   -0.10914E-02   -0.11031E-02 10640   0.913E-02-0.117E-02
CGA:  11    -0.130687656896E+04   -0.11120E-02   -0.12075E-02 10640   0.641E-02-0.269E-02
CGA:  12    -0.130687704414E+04   -0.47518E-03   -0.44587E-03 10640   0.325E-02-0.160E-02
CGA:  13    -0.130687702420E+04    0.19942E-04   -0.11079E-02 10640   0.172E-01-0.334E-02
CGA:  14    -0.130687801932E+04   -0.99512E-03   -0.93084E-03 10640   0.206E-02-0.821E-03
CGA:  15    -0.130687829131E+04   -0.27199E-03   -0.27659E-03 10640   0.258E-02-0.370E-03
CGA:  16    -0.130687855109E+04   -0.25979E-03   -0.25824E-03 10640   0.674E-03-0.208E-03
CGA:  17    -0.130687863863E+04   -0.87537E-04   -0.11338E-03 10640   0.169E-02-0.478E-03
CGA:  18    -0.130687873999E+04   -0.10136E-03   -0.10013E-03 10640   0.223E-03-0.146E-04
CGA:  19    -0.130687879981E+04   -0.59820E-04    0.26935E-03 10640   0.211E-03 0.265E-04
CGA:  20    -0.130687887934E+04   -0.79533E-04    0.48088E-04 10640   0.859E-04 0.816E-04
CGA:  21    -0.130687892690E+04   -0.47553E-04    0.13717E-04 10640   0.111E-03 0.296E-04
CGA:  22    -0.130687902542E+04   -0.98522E-04    0.60901E-05 10640   0.871E-04 0.106E-03
CGA:  23    -0.130687905635E+04   -0.30934E-04    0.14529E-04 10640   0.108E-03-0.222E-04
CGA:  24    -0.130687910741E+04   -0.51062E-04    0.34905E-05 10640   0.944E-04 0.403E-04
CGA:  25    -0.130687916431E+04   -0.56897E-04    0.11707E-04 10640   0.107E-03-0.641E-05
CGA:  26    -0.130687924914E+04   -0.84828E-04    0.27586E-05 10640   0.133E-03 0.233E-04
CGA:  27    -0.130687937185E+04   -0.12271E-03    0.53520E-05 10640   0.125E-03 0.348E-04
CGA:  28    -0.130687947595E+04   -0.10410E-03    0.63610E-05 10640   0.155E-03-0.239E-04
CGA:  29    -0.130687961656E+04   -0.14060E-03    0.23793E-05 10640   0.123E-03 0.210E-04
CGA:  30    -0.130687972719E+04   -0.11063E-03    0.43082E-05 10640   0.227E-03-0.152E-03
CGA:  31    -0.130687973370E+04   -0.65088E-05   -0.10020E-04 10640   0.149E-04 0.420E-04
   7 F= -.13068797E+04 E0= -.13068623E+04  d E =-.188418E-01  mag=    47.0000
       N       E                     dE             d eps       ncg     rms          ort
SDA:   1    -0.130617305289E+04    0.70667E+00    0.00000E+00 10640   0.191E+01 0.000E+00
CGA:   2    -0.130663999583E+04   -0.46694E+00   -0.46660E+00 10640   0.138E+01 0.311E-02
CGA:   3    -0.130677702087E+04   -0.13703E+00   -0.13681E+00 10640   0.785E+00-0.551E-02
CGA:   4    -0.130686091671E+04   -0.83896E-01   -0.83855E-01 10640   0.221E+00-0.218E-02
CGA:   5    -0.130687786540E+04   -0.16949E-01   -0.16997E-01 10640   0.563E-01 0.132E-02
CGA:   6    -0.130688555149E+04   -0.76861E-02   -0.76931E-02 10640   0.337E-01-0.471E-03
CGA:   7    -0.130688825294E+04   -0.27015E-02   -0.27032E-02 10640   0.833E-02 0.812E-04
CGA:   8    -0.130688953029E+04   -0.12774E-02   -0.12920E-02 10640   0.699E-02-0.419E-03
CGA:   9    -0.130689016598E+04   -0.63569E-03   -0.61058E-03 10640   0.200E-02-0.832E-03
CGA:  10    -0.130689045122E+04   -0.28524E-03   -0.44469E-03 10640   0.480E-02-0.121E-02
CGA:  11    -0.130689072846E+04   -0.27724E-03   -0.26080E-03 10640   0.590E-03-0.217E-03
CGA:  12    -0.130689080381E+04   -0.75351E-04   -0.12785E-03 10640   0.246E-02-0.506E-03
CGA:  13    -0.130689092915E+04   -0.12535E-03   -0.11968E-03 10640   0.189E-03-0.672E-04
CGA:  14    -0.130689097531E+04   -0.46159E-04    0.16495E-02 10640   0.234E-03-0.554E-04
CGA:  15    -0.130689107269E+04   -0.97376E-04    0.75461E-05 10640   0.160E-03 0.997E-04
CGA:  16    -0.130689116318E+04   -0.90491E-04    0.23818E-04 10640   0.216E-03-0.646E-04
CGA:  17    -0.130689129016E+04   -0.12698E-03    0.27012E-05 10640   0.355E-03-0.520E-04
CGA:  18    -0.130689150800E+04   -0.21784E-03    0.74996E-05 10640   0.334E-03-0.187E-03
CGA:  19    -0.130689152698E+04   -0.18988E-04   -0.17768E-04 10640   0.629E-04-0.166E-04
CGA:  20    -0.130689154664E+04   -0.19653E-04    0.10034E-04 10640   0.436E-04 0.235E-04
CGA:  21    -0.130689157396E+04   -0.27319E-04    0.40898E-05 10640   0.175E-04 0.301E-04
CGA:  22    -0.130689158442E+04   -0.10467E-04    0.72090E-06 10640   0.256E-04 0.182E-05
CGA:  23    -0.130689160980E+04   -0.25373E-04    0.63325E-06 10640   0.123E-04 0.180E-04
CGA:  24    -0.130689161813E+04   -0.83314E-05    0.41516E-06 10640   0.149E-04-0.230E-05
   8 F= -.13068916E+04 E0= -.13068744E+04  d E =-.118844E-01  mag=    47.0000
       N       E                     dE             d eps       ncg     rms          ort
SDA:   1    -0.130659744602E+04    0.29416E+00    0.00000E+00 10640   0.844E+00 0.000E+00
CGA:   2    -0.130678842418E+04   -0.19098E+00   -0.19096E+00 10640   0.528E+00 0.377E-03
CGA:   3    -0.130684687499E+04   -0.58451E-01   -0.58421E-01 10640   0.354E+00-0.221E-02
CGA:   4    -0.130688374960E+04   -0.36875E-01   -0.36906E-01 10640   0.868E-01 0.180E-02
CGA:   5    -0.130689060633E+04   -0.68567E-02   -0.68957E-02 10640   0.277E-01 0.947E-03
CGA:   6    -0.130689406258E+04   -0.34562E-02   -0.34564E-02 10640   0.125E-01-0.794E-04
CGA:   7    -0.130689523606E+04   -0.11735E-02   -0.11770E-02 10640   0.379E-02 0.137E-03
CGA:   8    -0.130689573714E+04   -0.50108E-03   -0.50122E-03 10640   0.277E-02-0.118E-04
CGA:   9    -0.130689600704E+04   -0.26991E-03   -0.26637E-03 10640   0.947E-03-0.140E-03
CGA:  10    -0.130689612212E+04   -0.11508E-03   -0.11593E-03 10640   0.694E-03-0.950E-04
CGA:  11    -0.130689621949E+04   -0.97372E-04   -0.11275E-03 10640   0.546E-03-0.256E-03
CGA:  12    -0.130689624753E+04   -0.28038E-04   -0.26698E-04 10640   0.210E-03-0.289E-04
CGA:  13    -0.130689628321E+04   -0.35677E-04   -0.38690E-04 10640   0.326E-03-0.412E-04
CGA:  14    -0.130689631130E+04   -0.28097E-04   -0.26374E-04 10640   0.125E-03-0.718E-04
CGA:  15    -0.130689631886E+04   -0.75565E-05   -0.75652E-05 10640   0.731E-04 0.115E-06
CGA:  16    -0.130689633090E+04   -0.12035E-04   -0.13191E-04 10640   0.125E-03-0.198E-04
CGA:  17    -0.130689632924E+04    0.16536E-05   -0.21808E-04 10640   0.321E-03-0.204E-03
CGA:  18    -0.130689634481E+04   -0.15572E-04   -0.19228E-04 10640   0.102E-03 0.524E-04
CGA:  19    -0.130689636568E+04   -0.20872E-04   -0.21112E-04 10640   0.643E-04-0.475E-05
CGA:  20    -0.130689596991E+04    0.39577E-03   -0.21603E-03 10640   0.663E-02-0.632E-03
CGA:  21    -0.130689630065E+04   -0.33074E-03   -0.37708E-03 10640   0.399E-03 0.276E-03
CGA:  22    -0.130689635622E+04   -0.55571E-04   -0.55273E-04 10640   0.375E-03-0.282E-05
CGA:  23    -0.130689639747E+04   -0.41253E-04   -0.38350E-04 10640   0.715E-04-0.241E-04
CGA:  24    -0.130689639879E+04   -0.13207E-05   -0.35035E-05 10640   0.129E-04 0.134E-04
   9 F= -.13068964E+04 E0= -.13068792E+04  d E =-.478066E-02  mag=    47.0000
       N       E                     dE             d eps       ncg     rms          ort
SDA:   1    -0.130635349714E+04    0.54290E+00    0.00000E+00 10640   0.153E+01 0.000E+00
CGA:   2    -0.130669076176E+04   -0.33726E+00   -0.33726E+00 10640   0.114E+01 0.776E-03
CGA:   3    -0.130680259672E+04   -0.11183E+00   -0.11159E+00 10640   0.608E+00 0.422E-03
CGA:   4    -0.130687531030E+04   -0.72714E-01   -0.72796E-01 10640   0.190E+00 0.197E-02
CGA:   5    -0.130688898481E+04   -0.13675E-01   -0.13663E-01 10640   0.474E-01 0.352E-03
CGA:   6    -0.130689514853E+04   -0.61637E-02   -0.61627E-02 10640   0.251E-01 0.255E-04
CGA:   7    -0.130689743435E+04   -0.22858E-02   -0.23112E-02 10640   0.644E-02 0.288E-03
CGA:   8    -0.130689841312E+04   -0.97876E-03   -0.97163E-03 10640   0.560E-02-0.233E-03
CGA:   9    -0.130689887045E+04   -0.45734E-03   -0.44441E-03 10640   0.141E-02-0.131E-03
CGA:  10    -0.130689907674E+04   -0.20629E-03   -0.20580E-03 10640   0.109E-02-0.198E-04
CGA:  11    -0.130689926686E+04   -0.19012E-03   -0.19408E-03 10640   0.983E-03-0.478E-03
CGA:  12    -0.130689931424E+04   -0.47383E-04   -0.44014E-04 10640   0.400E-03-0.362E-04
CGA:  13    -0.130689936510E+04   -0.50860E-04   -0.50591E-04 10640   0.495E-03-0.764E-05
CGA:  14    -0.130689944737E+04   -0.82267E-04   -0.87318E-04 10640   0.611E-03-0.364E-03
CGA:  15    -0.130689947947E+04   -0.32107E-04   -0.37070E-04 10640   0.142E-03 0.476E-04
CGA:  16    -0.130689950892E+04   -0.29442E-04   -0.32897E-04 10640   0.268E-03-0.645E-04
CGA:  17    -0.130689952573E+04   -0.16816E-04   -0.11675E-04 10640   0.134E-03-0.612E-04
CGA:  18    -0.130689953669E+04   -0.10957E-04   -0.84051E-05 10640   0.120E-03-0.325E-04
CGA:  19    -0.130689952383E+04    0.12856E-04   -0.32526E-04 10640   0.115E-02-0.226E-03
CGA:  20    -0.130689960516E+04   -0.81325E-04   -0.74126E-04 10640   0.139E-03-0.689E-04
CGA:  21    -0.130689961520E+04   -0.10045E-04   -0.89360E-05 10640   0.406E-04-0.118E-04
CGA:  22    -0.130689961500E+04    0.20695E-06   -0.19661E-04 10640   0.308E-03-0.532E-04
CGA:  23    -0.130689964541E+04   -0.30409E-04   -0.21195E-04 10640   0.884E-04-0.865E-04
CGA:  24    -0.130689965346E+04   -0.80536E-05   -0.71435E-05 10640   0.434E-04-0.158E-04
  10 F= -.13068997E+04 E0= -.13068827E+04  d E =-.325467E-02  mag=    47.0000
       N       E                     dE             d eps       ncg     rms          ort
SDA:   1    -0.130618890663E+04    0.71074E+00    0.00000E+00 10640   0.196E+01 0.000E+00
CGA:   2    -0.130663488391E+04   -0.44598E+00   -0.44597E+00 10640   0.147E+01 0.391E-03
CGA:   3    -0.130678295045E+04   -0.14807E+00   -0.14784E+00 10640   0.747E+00-0.635E-03
CGA:   4    -0.130687460681E+04   -0.91656E-01   -0.91757E-01 10640   0.193E+00 0.373E-02
CGA:   5    -0.130688935951E+04   -0.14753E-01   -0.14724E-01 10640   0.587E-01-0.419E-06
CGA:   6    -0.130689698395E+04   -0.76244E-02   -0.76231E-02 10640   0.298E-01-0.306E-04
CGA:   7    -0.130689951588E+04   -0.25319E-02   -0.25623E-02 10640   0.766E-02 0.482E-03
CGA:   8    -0.130690084608E+04   -0.13302E-02   -0.13379E-02 10640   0.596E-02-0.385E-03
CGA:   9    -0.130690128321E+04   -0.43713E-03   -0.42734E-03 10640   0.174E-02-0.122E-03
CGA:  10    -0.130690153573E+04   -0.25252E-03   -0.25251E-03 10640   0.146E-02-0.503E-05
CGA:  11    -0.130690174113E+04   -0.20540E-03   -0.20155E-03 10640   0.775E-03-0.366E-03
CGA:  12    -0.130690181235E+04   -0.71223E-04   -0.69663E-04 10640   0.494E-03-0.544E-04
CGA:  13    -0.130690189676E+04   -0.84414E-04   -0.13005E-03 10640   0.143E-02-0.337E-03
CGA:  14    -0.130690197325E+04   -0.76487E-04   -0.73992E-04 10640   0.155E-03-0.228E-04
CGA:  15    -0.130690200184E+04   -0.28586E-04   -0.37539E-04 10640   0.500E-03-0.923E-04
CGA:  16    -0.130690202786E+04   -0.26020E-04   -0.26848E-04 10640   0.476E-04 0.883E-05
CGA:  17    -0.130690203131E+04   -0.34526E-05   -0.14384E-04 10640   0.453E-03-0.738E-04
CGA:  18    -0.130690205940E+04   -0.28088E-04   -0.25371E-04 10640   0.443E-04-0.266E-04
CGA:  19    -0.130690205149E+04    0.79017E-05   -0.13888E-04 10640   0.779E-03-0.120E-03
CGA:  20    -0.130690208690E+04   -0.35403E-04   -0.36548E-04 10640   0.411E-04 0.109E-04
CGA:  21    -0.130690209326E+04   -0.63608E-05   -0.60895E-05 10640   0.731E-04-0.328E-04
  11 F= -.13069021E+04 E0= -.13068854E+04  d E =-.243980E-02  mag=    47.0000
       N       E                     dE             d eps       ncg     rms          ort
SDA:   1    -0.130663211492E+04    0.26997E+00    0.00000E+00 10640   0.837E+00 0.000E+00
CGA:   2    -0.130677724322E+04   -0.14513E+00   -0.14515E+00 10640   0.807E+00-0.771E-03
CGA:   3    -0.130684175403E+04   -0.64511E-01   -0.64489E-01 10640   0.313E+00 0.833E-03
CGA:   4    -0.130688566261E+04   -0.43909E-01   -0.43932E-01 10640   0.144E+00 0.291E-02
CGA:   5    -0.130689787207E+04   -0.12209E-01   -0.12203E-01 10640   0.213E-01-0.792E-04
CGA:   6    -0.130690106150E+04   -0.31894E-02   -0.31871E-02 10640   0.116E-01 0.485E-03
CGA:   7    -0.130690202808E+04   -0.96657E-03   -0.98615E-03 10640   0.370E-02 0.323E-03
CGA:   8    -0.130690248010E+04   -0.45202E-03   -0.45418E-03 10640   0.248E-02 0.969E-04
CGA:   9    -0.130690274950E+04   -0.26939E-03   -0.26903E-03 10640   0.698E-03-0.828E-05
CGA:  10    -0.130690282227E+04   -0.72774E-04   -0.77194E-04 10640   0.348E-03 0.156E-03
CGA:  11    -0.130690288265E+04   -0.60382E-04   -0.60153E-04 10640   0.173E-03 0.693E-04
CGA:  12    -0.130690289274E+04   -0.10087E-04   -0.15545E-04 10640   0.739E-04 0.862E-04
CGA:  13    -0.130690289612E+04   -0.33807E-05   -0.82099E-05 10640   0.553E-04 0.795E-04
  12 F= -.13069029E+04 E0= -.13068862E+04  d E =-.802862E-03  mag=    47.0000
       N       E                     dE             d eps       ncg     rms          ort
SDA:   1    -0.130680633709E+04    0.96556E-01    0.00000E+00 10640   0.284E+00 0.000E+00
CGA:   2    -0.130685973484E+04   -0.53398E-01   -0.53449E-01 10640   0.317E+00-0.776E-03
CGA:   3    -0.130688373573E+04   -0.24001E-01   -0.24021E-01 10640   0.101E+00 0.868E-03
CGA:   4    -0.130689874077E+04   -0.15005E-01   -0.15015E-01 10640   0.436E-01-0.557E-03
CGA:   5    -0.130690226941E+04   -0.35286E-02   -0.34934E-02 10640   0.814E-02-0.646E-03
CGA:   6    -0.130690338835E+04   -0.11189E-02   -0.11150E-02 10640   0.420E-02 0.355E-03
CGA:   7    -0.130690379762E+04   -0.40927E-03   -0.40604E-03 10640   0.134E-02-0.851E-04
CGA:   8    -0.130690396718E+04   -0.16957E-03   -0.16968E-03 10640   0.971E-03-0.517E-04
CGA:   9    -0.130690404661E+04   -0.79429E-04   -0.79687E-04 10640   0.253E-03 0.698E-05
CGA:  10    -0.130690408688E+04   -0.40266E-04   -0.64671E-04 10640   0.758E-03-0.189E-03
CGA:  11    -0.130690411772E+04   -0.30846E-04   -0.36799E-04 10640   0.600E-04 0.729E-04
CGA:  12    -0.130690412454E+04   -0.68143E-05   -0.69481E-05 10640   0.540E-04 0.630E-05
CGA:  13    -0.130690413546E+04   -0.10917E-04   -0.11533E-04 10640   0.454E-04-0.917E-05
CGA:  14    -0.130690413658E+04   -0.11269E-05   -0.20971E-05 10640   0.207E-04 0.132E-04
  13 F= -.13069041E+04 E0= -.13068874E+04  d E =-.124046E-02  mag=    47.0000
       N       E                     dE             d eps       ncg     rms          ort
SDA:   1    -0.130683474358E+04    0.69392E-01    0.00000E+00 10640   0.213E+00 0.000E+00
CGA:   2    -0.130687228746E+04   -0.37544E-01   -0.37480E-01 10640   0.189E+00 0.133E-02
CGA:   3    -0.130689097069E+04   -0.18683E-01   -0.18627E-01 10640   0.751E-01-0.170E-02
CGA:   4    -0.130690105026E+04   -0.10080E-01   -0.10064E-01 10640   0.332E-01 0.160E-02
CGA:   5    -0.130690343284E+04   -0.23826E-02   -0.24102E-02 10640   0.717E-02 0.530E-03
CGA:   6    -0.130690421204E+04   -0.77921E-03   -0.77656E-03 10640   0.360E-02-0.157E-03
CGA:   7    -0.130690457629E+04   -0.36424E-03   -0.37056E-03 10640   0.774E-03 0.377E-03
CGA:   8    -0.130690472173E+04   -0.14544E-03   -0.15784E-03 10640   0.101E-02-0.196E-03
CGA:   9    -0.130690479535E+04   -0.73616E-04   -0.69522E-04 10640   0.345E-03-0.126E-03
CGA:  10    -0.130690482432E+04   -0.28969E-04   -0.27505E-04 10640   0.195E-03-0.457E-04
CGA:  11    -0.130690470409E+04    0.12022E-03   -0.95237E-04 10640   0.225E-02-0.486E-03
CGA:  12    -0.130690482748E+04   -0.12339E-03   -0.13065E-03 10640   0.481E-03 0.878E-04
CGA:  13    -0.130690488804E+04   -0.60564E-04   -0.61247E-04 10640   0.203E-03 0.415E-04
CGA:  14    -0.130690490631E+04   -0.18269E-04   -0.18904E-04 10640   0.410E-04 0.123E-04
CGA:  15    -0.130690491043E+04   -0.41181E-05   -0.44381E-05 10640   0.238E-04 0.953E-05
  14 F= -.13069049E+04 E0= -.13068883E+04  d E =-.773849E-03  mag=    47.0000
       N       E                     dE             d eps       ncg     rms          ort
SDA:   1    -0.130233491163E+04    0.45700E+01    0.00000E+00 10640   0.143E+02 0.000E+00
CGA:   2    -0.130488715857E+04   -0.25522E+01   -0.25501E+01 10640   0.103E+02 0.400E-01
CGA:   3    -0.130594162174E+04   -0.10545E+01   -0.10532E+01 10640   0.534E+01 0.144E-01
CGA:   4    -0.130661357522E+04   -0.67195E+00   -0.67192E+00 10640   0.257E+01 0.177E-02
CGA:   5    -0.130680304160E+04   -0.18947E+00   -0.18975E+00 10640   0.422E+00-0.993E-03
CGA:   6    -0.130685120145E+04   -0.48160E-01   -0.48183E-01 10640   0.234E+00 0.207E-02
CGA:   7    -0.130687552093E+04   -0.24319E-01   -0.24363E-01 10640   0.691E-01 0.173E-02
CGA:   8    -0.130688304236E+04   -0.75214E-02   -0.74968E-02 10640   0.483E-01-0.114E-02
CGA:   9    -0.130688884355E+04   -0.58012E-02   -0.57903E-02 10640   0.138E-01-0.171E-02
CGA:  10    -0.130689067325E+04   -0.18297E-02   -0.18434E-02 10640   0.104E-01-0.133E-02
CGA:  11    -0.130689203528E+04   -0.13620E-02   -0.14045E-02 10640   0.665E-02-0.205E-02
CGA:  12    -0.130689253273E+04   -0.49746E-03   -0.45102E-03 10640   0.286E-02-0.103E-02
CGA:  13    -0.130689289461E+04   -0.36187E-03   -0.88719E-03 10640   0.107E-01-0.219E-02
CGA:  14    -0.130689349183E+04   -0.59722E-03   -0.57622E-03 10640   0.113E-02-0.235E-03
CGA:  15    -0.130689364603E+04   -0.15420E-03   -0.15579E-03 10640   0.162E-02-0.239E-03
CGA:  16    -0.130689384426E+04   -0.19823E-03   -0.26440E-03 10640   0.131E-02-0.923E-03
CGA:  17    -0.130689395242E+04   -0.10816E-03   -0.10445E-03 10640   0.663E-03-0.612E-04
CGA:  18    -0.130689406072E+04   -0.10830E-03   -0.13271E-03 10640   0.946E-03-0.330E-03
CGA:  19    -0.130689411208E+04   -0.51361E-04   -0.33337E-04 10640   0.303E-03-0.260E-03
CGA:  20    -0.130689419014E+04   -0.78064E-04    0.49242E-04 10640   0.609E-03-0.683E-04
CGA:  21    -0.130689438417E+04   -0.19403E-03    0.62831E-04 10640   0.616E-03-0.767E-04
CGA:  22    -0.130689454813E+04   -0.16396E-03    0.30774E-03 10640   0.579E-03-0.393E-03
CGA:  23    -0.130689459151E+04   -0.43380E-04   -0.41512E-04 10640   0.239E-03-0.283E-04
CGA:  24    -0.130689462247E+04   -0.30960E-04   -0.30939E-04 10640   0.120E-03 0.581E-05
CGA:  25    -0.130689463727E+04   -0.14799E-04   -0.14197E-04 10640   0.556E-04-0.341E-04
CGA:  26    -0.130689466695E+04   -0.29685E-04    0.14424E-05 10640   0.508E-04-0.905E-05
CGA:  27    -0.130689470104E+04   -0.34091E-04    0.13807E-05 10640   0.244E-04 0.123E-04
CGA:  28    -0.130689472626E+04   -0.25218E-04    0.93234E-06 10640   0.219E-04 0.123E-04
CGA:  29    -0.130689473951E+04   -0.13251E-04    0.11222E-05 10640   0.388E-04-0.115E-04
CGA:  30    -0.130689474096E+04   -0.14473E-05   -0.19679E-05 10640   0.666E-05 0.642E-05
  15 F= -.13068947E+04 E0= -.13068785E+04  d E =0.101695E-01  mag=    47.0000
       N       E                     dE             d eps       ncg     rms          ort
SDA:   1    -0.130493072450E+04    0.19640E+01    0.00000E+00 10640   0.622E+01 0.000E+00
CGA:   2    -0.130609251179E+04   -0.11618E+01   -0.11611E+01 10640   0.370E+01 0.941E-02
CGA:   3    -0.130652415406E+04   -0.43164E+00   -0.43123E+00 10640   0.233E+01-0.497E-02
CGA:   4    -0.130681321525E+04   -0.28906E+00   -0.28903E+00 10640   0.803E+00-0.520E-02
CGA:   5    -0.130686931028E+04   -0.56095E-01   -0.56151E-01 10640   0.178E+00-0.201E-02
CGA:   6    -0.130689063020E+04   -0.21320E-01   -0.21322E-01 10640   0.903E-01 0.563E-03
CGA:   7    -0.130689955859E+04   -0.89284E-02   -0.88839E-02 10640   0.283E-01-0.153E-02
CGA:   8    -0.130690296380E+04   -0.34052E-02   -0.34074E-02 10640   0.178E-01 0.803E-03
CGA:   9    -0.130690483400E+04   -0.18702E-02   -0.18726E-02 10640   0.597E-02 0.117E-03
CGA:  10    -0.130690554984E+04   -0.71583E-03   -0.71553E-03 10640   0.373E-02-0.556E-04
CGA:  11    -0.130690596000E+04   -0.41017E-03   -0.41593E-03 10640   0.104E-02 0.516E-03
CGA:  12    -0.130690612400E+04   -0.16400E-03   -0.16340E-03 10640   0.109E-02 0.413E-04
CGA:  13    -0.130690627569E+04   -0.15169E-03   -0.15084E-03 10640   0.511E-03 0.881E-04
CGA:  14    -0.130690631470E+04   -0.39014E-04   -0.45772E-04 10640   0.232E-03 0.162E-03
CGA:  15    -0.130690637066E+04   -0.55962E-04   -0.51413E-04 10640   0.181E-03 0.978E-04
CGA:  16    -0.130690640493E+04   -0.34267E-04   -0.34425E-04 10640   0.191E-03-0.181E-04
CGA:  17    -0.130690641305E+04   -0.81214E-05   -0.12109E-04 10640   0.117E-03 0.717E-04
  16 F= -.13069064E+04 E0= -.13068899E+04  d E =-.116721E-01  mag=    47.0000
       N       E                     dE             d eps       ncg     rms          ort
SDA:   1    -0.130679308021E+04    0.11332E+00    0.00000E+00 10640   0.371E+00 0.000E+00
CGA:   2    -0.130685635212E+04   -0.63272E-01   -0.63247E-01 10640   0.287E+00 0.635E-03
CGA:   3    -0.130687980749E+04   -0.23455E-01   -0.23460E-01 10640   0.135E+00 0.276E-03
CGA:   4    -0.130689997659E+04   -0.20169E-01   -0.20178E-01 10640   0.562E-01-0.304E-03
CGA:   5    -0.130690455597E+04   -0.45794E-02   -0.45187E-02 10640   0.111E-01-0.145E-02
CGA:   6    -0.130690592652E+04   -0.13705E-02   -0.13718E-02 10640   0.599E-02-0.154E-03
CGA:   7    -0.130690642996E+04   -0.50344E-03   -0.50754E-03 10640   0.170E-02 0.127E-03
CGA:   8    -0.130690664742E+04   -0.21746E-03   -0.21757E-03 10640   0.119E-02-0.125E-04
CGA:   9    -0.130690677532E+04   -0.12789E-03   -0.12776E-03 10640   0.326E-03-0.119E-04
CGA:  10    -0.130690680255E+04   -0.27232E-04   -0.29780E-04 10640   0.142E-03 0.102E-03
CGA:  11    -0.130690684121E+04   -0.38664E-04   -0.45574E-04 10640   0.208E-03-0.540E-04
CGA:  12    -0.130690684758E+04   -0.63697E-05   -0.67064E-05 10640   0.951E-04 0.477E-05
  17 F= -.13069068E+04 E0= -.13068903E+04  d E =-.434531E-03  mag=    47.0000
       N       E                     dE             d eps       ncg     rms          ort
SDA:   1    -0.130686667163E+04    0.40170E-01    0.00000E+00 10640   0.145E+00 0.000E+00
CGA:   2    -0.130688679997E+04   -0.20128E-01   -0.20120E-01 10640   0.123E+00 0.415E-03
CGA:   3    -0.130689750237E+04   -0.10702E-01   -0.10687E-01 10640   0.454E-01-0.408E-03
CGA:   4    -0.130690451460E+04   -0.70122E-02   -0.69894E-02 10640   0.279E-01 0.592E-03
CGA:   5    -0.130690659913E+04   -0.20845E-02   -0.21175E-02 10640   0.397E-02 0.798E-03
CGA:   6    -0.130690708033E+04   -0.48120E-03   -0.48071E-03 10640   0.217E-02 0.228E-03
CGA:   7    -0.130690729955E+04   -0.21922E-03   -0.21775E-03 10640   0.733E-03-0.694E-04
CGA:   8    -0.130690737173E+04   -0.72180E-04   -0.73329E-04 10640   0.278E-03 0.104E-03
CGA:   9    -0.130690742585E+04   -0.54121E-04   -0.58473E-04 10640   0.234E-03-0.617E-04
CGA:  10    -0.130690744421E+04   -0.18354E-04   -0.17255E-04 10640   0.110E-03-0.479E-04
CGA:  11    -0.130690745280E+04   -0.85967E-05   -0.87299E-05 10640   0.495E-04 0.790E-05
  18 F= -.13069075E+04 E0= -.13068909E+04  d E =-.605220E-03  mag=    47.0000
       N       E                     dE             d eps       ncg     rms          ort
SDA:   1    -0.130687435631E+04    0.33088E-01    0.00000E+00 10640   0.105E+00 0.000E+00
CGA:   2    -0.130689372411E+04   -0.19368E-01   -0.19322E-01 10640   0.720E-01 0.679E-03
CGA:   3    -0.130690027053E+04   -0.65464E-02   -0.65313E-02 10640   0.427E-01-0.406E-03
CGA:   4    -0.130690597190E+04   -0.57014E-02   -0.56984E-02 10640   0.145E-01 0.168E-03
CGA:   5    -0.130690695618E+04   -0.98427E-03   -0.10211E-02 10640   0.279E-02 0.799E-03
CGA:   6    -0.130690739513E+04   -0.43895E-03   -0.43722E-03 10640   0.134E-02 0.521E-04
CGA:   7    -0.130690750499E+04   -0.10987E-03   -0.11128E-03 10640   0.481E-03 0.418E-04
CGA:   8    -0.130690757354E+04   -0.68549E-04   -0.67400E-04 10640   0.231E-03 0.542E-04
CGA:   9    -0.130690760337E+04   -0.29832E-04   -0.29845E-04 10640   0.130E-03-0.306E-04
CGA:  10    -0.130690761583E+04   -0.12456E-04   -0.12520E-04 10640   0.503E-04 0.127E-04
CGA:  11    -0.130690762277E+04   -0.69396E-05   -0.69512E-05 10640   0.332E-04-0.106E-05
  19 F= -.13069076E+04 E0= -.13068911E+04  d E =-.169967E-03  mag=    47.0000
       N       E                     dE             d eps       ncg     rms          ort
SDA:   1    -0.130652547518E+04    0.38214E+00    0.00000E+00 10640   0.110E+01 0.000E+00
CGA:   2    -0.130675826393E+04   -0.23279E+00   -0.23290E+00 10640   0.805E+00-0.952E-03
CGA:   3    -0.130683272464E+04   -0.74461E-01   -0.74511E-01 10640   0.460E+00 0.279E-02
CGA:   4    -0.130689125877E+04   -0.58534E-01   -0.58536E-01 10640   0.112E+00-0.128E-03
CGA:   5    -0.130690043381E+04   -0.91750E-02   -0.91538E-02 10640   0.329E-01-0.487E-03
CGA:   6    -0.130690470781E+04   -0.42740E-02   -0.42597E-02 10640   0.123E-01 0.112E-02
CGA:   7    -0.130690595871E+04   -0.12509E-02   -0.12461E-02 10640   0.571E-02-0.234E-03
CGA:   8    -0.130690667195E+04   -0.71324E-03   -0.71171E-03 10640   0.255E-02 0.155E-03
CGA:   9    -0.130690690424E+04   -0.23230E-03   -0.23334E-03 10640   0.103E-02 0.400E-04
CGA:  10    -0.130690708461E+04   -0.18036E-03   -0.21837E-03 10640   0.166E-02-0.409E-03
CGA:  11    -0.130690713965E+04   -0.55045E-04   -0.56955E-04 10640   0.523E-03 0.306E-04
CGA:  12    -0.130690715748E+04   -0.17831E-04   -0.23983E-04 10640   0.272E-03 0.855E-04
CGA:  13    -0.130690718562E+04   -0.28134E-04   -0.29471E-04 10640   0.354E-03 0.650E-04
CGA:  14    -0.130690723213E+04   -0.46517E-04   -0.45791E-04 10640   0.253E-03-0.882E-04
CGA:  15    -0.130690724423E+04   -0.12098E-04   -0.10456E-04 10640   0.107E-03-0.287E-04
CGA:  16    -0.130690724778E+04   -0.35491E-05   -0.49322E-05 10640   0.917E-04 0.240E-04
  20 F= -.13069072E+04 E0= -.13068908E+04  d E =0.374989E-03  mag=    47.0000
       N       E                     dE             d eps       ncg     rms          ort
SDA:   1    -0.130685810499E+04    0.49139E-01    0.00000E+00 10640   0.198E+00 0.000E+00
CGA:   2    -0.130687850244E+04   -0.20397E-01   -0.20400E-01 10640   0.160E+00 0.143E-02
CGA:   3    -0.130689529084E+04   -0.16788E-01   -0.16788E-01 10640   0.565E-01-0.660E-03
CGA:   4    -0.130690363010E+04   -0.83393E-02   -0.83624E-02 10640   0.360E-01-0.509E-03
CGA:   5    -0.130690677822E+04   -0.31481E-02   -0.31569E-02 10640   0.602E-02 0.502E-03
CGA:   6    -0.130690739691E+04   -0.61869E-03   -0.61758E-03 10640   0.270E-02-0.223E-03
CGA:   7    -0.130690770700E+04   -0.31009E-03   -0.31082E-03 10640   0.105E-02-0.507E-04
CGA:   8    -0.130690779852E+04   -0.91520E-04   -0.91393E-04 10640   0.479E-03-0.583E-05
CGA:   9    -0.130690787262E+04   -0.74097E-04   -0.83011E-04 10640   0.421E-03-0.130E-03
CGA:  10    -0.130690788769E+04   -0.15072E-04   -0.18018E-04 10640   0.110E-03 0.587E-04
CGA:  11    -0.130690789381E+04   -0.61195E-05   -0.76071E-05 10640   0.714E-04 0.327E-04
CGA:  12    -0.130690790728E+04   -0.13469E-04   -0.14736E-04 10640   0.878E-04-0.233E-04
CGA:  13    -0.130690791200E+04   -0.47208E-05   -0.38828E-05 10640   0.440E-04-0.203E-04
  21 F= -.13069079E+04 E0= -.13068915E+04  d E =-.664218E-03  mag=    47.0000
       N       E                     dE             d eps       ncg     rms          ort
SDA:   1    -0.130690096027E+04    0.69470E-02    0.00000E+00 10640   0.233E-01 0.000E+00
CGA:   2    -0.130690496121E+04   -0.40009E-02   -0.40466E-02 10640   0.183E-01-0.624E-03
CGA:   3    -0.130690660699E+04   -0.16458E-02   -0.16554E-02 10640   0.718E-02 0.777E-03
CGA:   4    -0.130690774297E+04   -0.11360E-02   -0.11727E-02 10640   0.472E-02-0.710E-03
CGA:   5    -0.130690806273E+04   -0.31976E-03   -0.30585E-03 10640   0.845E-03-0.384E-03
CGA:   6    -0.130690813228E+04   -0.69551E-04   -0.71195E-04 10640   0.369E-03 0.116E-03
CGA:   7    -0.130690818301E+04   -0.50729E-04   -0.51093E-04 10640   0.126E-03-0.218E-04
CGA:   8    -0.130690819830E+04   -0.15289E-04   -0.15976E-04 10640   0.121E-03-0.239E-04
CGA:   9    -0.130690820397E+04   -0.56716E-05   -0.65423E-05 10640   0.336E-04 0.215E-04
  22 F= -.13069082E+04 E0= -.13068918E+04  d E =-.291971E-03  mag=    47.0000
