       N       E                     dE             d eps       ncg     rms          rms(c)
DAV:   1     0.307071903241E+04    0.30707E+04   -0.25841E+05 73656   0.131E+03
DAV:   2    -0.610932582212E+03   -0.36817E+04   -0.35473E+04 89616   0.297E+02
DAV:   3    -0.872694985507E+03   -0.26176E+03   -0.26008E+03 89100   0.838E+01
DAV:   4    -0.875976793253E+03   -0.32818E+01   -0.32696E+01 89412   0.101E+01
DAV:   5    -0.876032618578E+03   -0.55825E-01   -0.55685E-01 91068   0.122E+00    0.990E+01
DAV:   6    -0.780206736610E+03    0.95826E+02   -0.40531E+02 83484   0.319E+01    0.502E+01
DAV:   7    -0.789371563210E+03   -0.91648E+01   -0.21939E+01 83064   0.767E+00    0.163E+01
DAV:   8    -0.793595985737E+03   -0.42244E+01   -0.17478E+00 86448   0.249E+00    0.778E+00
DAV:   9    -0.795814145626E+03   -0.22182E+01   -0.10754E+00 88632   0.171E+00    0.385E+00
DAV:  10    -0.796325041486E+03   -0.51090E+00   -0.29287E-01 84708   0.935E-01    0.110E+00
DAV:  11    -0.796395456815E+03   -0.70415E-01   -0.39184E-02 87288   0.349E-01    0.607E-01
DAV:  12    -0.796404977919E+03   -0.95211E-02   -0.49974E-03 86172   0.135E-01    0.271E-01
DAV:  13    -0.796407229013E+03   -0.22511E-02   -0.11418E-03 86664   0.630E-02    0.819E-02
DAV:  14    -0.796407657677E+03   -0.42866E-03   -0.30351E-04 84108   0.330E-02    0.429E-02
DAV:  15    -0.796407695674E+03   -0.37997E-04   -0.35954E-05 79476   0.159E-02    0.267E-02
DAV:  16    -0.796407710100E+03   -0.14425E-04   -0.16267E-05 60084   0.114E-02    0.951E-03
DAV:  17    -0.796407712157E+03   -0.20566E-05   -0.69802E-06 61404   0.766E-03
   1 F= -.79640771E+03 E0= -.79640771E+03  d E =-.796408E+03  mag=    -0.0016
