       N       E                     dE             d eps       ncg     rms          ort
DAV:   1     0.828206233555E+04    0.82821E+04   -0.24668E+05  8424   0.238E+03
DAV:   2     0.915804479395E+03   -0.73663E+04   -0.69170E+04  8424   0.658E+02
DAV:   3    -0.679582458933E+03   -0.15954E+04   -0.14017E+04  8424   0.282E+02
DAV:   4    -0.835729442951E+03   -0.15615E+03   -0.15340E+03  8424   0.858E+01
DAV:   5    -0.838273736959E+03   -0.25443E+01   -0.25316E+01  8424   0.123E+01
SDA:   6    -0.192949821393E+03    0.64532E+03   -0.25316E+01  8424   0.109E+05 0.000E+00
CGA:   7     0.376638641899E+02    0.23061E+03   -0.51535E+03  8424   0.289E+05-0.642E+04
CGA:   8     0.349230185607E+04    0.34546E+04   -0.17897E+04  8424   0.295E+06-0.968E+05
CGA:   9     0.699402135856E+04    0.35017E+04   -0.25111E+05  8424   0.853E+05-0.547E+05
CGA:  10     0.467391000942E+04   -0.23201E+04   -0.50680E+04  8424   0.272E+05-0.163E+05
CGA:  11     0.331042468984E+04   -0.13635E+04   -0.99544E+03  8424   0.188E+06-0.192E+06
CGA:  12     0.551426445380E+04    0.22038E+04   -0.13837E+05  8424   0.388E+05-0.281E+05
CGA:  13     0.109909064105E+04   -0.44152E+04   -0.17153E+04  8424   0.854E+05-0.162E+06
CGA:  14     0.471665433257E+04    0.36176E+04   -0.53108E+04  8424   0.180E+05-0.938E+04
CGA:  15     0.502664142771E+03   -0.42140E+04   -0.51118E+03  8424   0.496E+05-0.125E+06
CGA:  16     0.427941183958E+04    0.37767E+04   -0.26599E+04  8424   0.130E+06-0.482E+05
CGA:  17     0.494426011318E+04    0.66485E+03   -0.77686E+04  8424   0.190E+05-0.154E+05
CGA:  18     0.113926683873E+04   -0.38050E+04   -0.52286E+03  8424   0.928E+05 0.164E+06
CGA:  19     0.431823110714E+04    0.31790E+04   -0.50556E+04  8424   0.161E+05-0.943E+04
CGA:  20    -0.394719677254E+03   -0.47130E+04   -0.35734E+03  8424   0.134E+05-0.638E+05
CGA:  21    -0.602439712597E+03   -0.20772E+03   -0.33748E+03  8424   0.774E+03-0.102E+04
CGA:  22    -0.608087278943E+03   -0.56476E+01   -0.33766E+02  8424   0.531E+03-0.203E+03
CGA:  23    -0.629158769594E+03   -0.21071E+02   -0.12118E+02  8424   0.308E+03-0.225E+03
CGA:  24    -0.650195656638E+03   -0.21037E+02   -0.21527E+02  8424   0.151E+03-0.246E+02
CGA:  25    -0.657885352450E+03   -0.76897E+01   -0.10188E+02  8424   0.659E+02-0.792E+01
CGA:  26    -0.664626657441E+03   -0.67413E+01   -0.67720E+01  8424   0.682E+02 0.953E+01
CGA:  27    -0.668789266896E+03   -0.41626E+01   -0.52977E+01  8424   0.119E+02-0.133E+00
CGA:  28    -0.670092593895E+03   -0.13033E+01   -0.14033E+01  8424   0.197E+02-0.509E+01
CGA:  29    -0.670941270058E+03   -0.84868E+00   -0.17840E+01  8424   0.231E+02-0.843E+01
CGA:  30    -0.672115325255E+03   -0.11741E+01   -0.73605E+00  8424   0.677E+01 0.303E+01
CGA:  31    -0.672362249527E+03   -0.24692E+00   -0.43147E+00  8424   0.105E+02-0.992E+00
CGA:  32    -0.672545807613E+03   -0.18356E+00   -0.37423E+00  8424   0.101E+02-0.354E+01
CGA:  33    -0.672850835125E+03   -0.30503E+00   -0.18297E+00  8424   0.763E+01 0.475E+01
CGA:  34    -0.673110106687E+03   -0.25927E+00   -0.21712E+00  8424   0.282E+01 0.382E+00
CGA:  35    -0.673186570879E+03   -0.76464E-01   -0.76711E-01  8424   0.411E+01-0.658E-01
CGA:  36    -0.673290078266E+03   -0.10351E+00   -0.96380E-01  8424   0.617E+01 0.137E+00
CGA:  37    -0.673394182821E+03   -0.10410E+00   -0.10375E+00  8424   0.647E+01-0.298E+00
CGA:  38    -0.673449108586E+03   -0.54926E-01   -0.94665E-01  8424   0.684E+01-0.237E+01
CGA:  39    -0.673486336715E+03   -0.37228E-01   -0.59659E-01  8424   0.686E+01-0.126E+01
CGA:  40    -0.673572289821E+03   -0.85953E-01   -0.10281E+00  8424   0.500E+01-0.891E+00
CGA:  41    -0.673646759518E+03   -0.74470E-01   -0.11491E+00  8424   0.337E+01-0.106E+01
CGA:  42    -0.673730671669E+03   -0.83912E-01   -0.10342E+00  8424   0.224E+01-0.201E+00
CGA:  43    -0.673844495059E+03   -0.11382E+00   -0.12047E+00  8424   0.106E+01 0.168E+00
CGA:  44    -0.673927946877E+03   -0.83452E-01   -0.83390E-01  8424   0.512E+00 0.146E-01
CGA:  45    -0.673984453833E+03   -0.56507E-01   -0.56706E-01  8424   0.551E+00-0.536E-02
CGA:  46    -0.674052520966E+03   -0.68067E-01   -0.70468E-01  8424   0.533E+00-0.430E-01
CGA:  47    -0.674095077552E+03   -0.42557E-01   -0.42997E-01  8424   0.275E+00-0.400E-01
CGA:  48    -0.674121359348E+03   -0.26282E-01   -0.25373E-01  8424   0.222E+00 0.318E-01
CGA:  49    -0.674168426085E+03   -0.47067E-01    0.39861E-01  8424   0.500E+00-0.255E-01
CGA:  50    -0.674161862787E+03    0.65633E-02   -0.13773E-01  8424   0.112E+01-0.279E+00
CGA:  51    -0.674267345583E+03   -0.10548E+00   -0.10826E+00  8424   0.135E+00-0.818E-01
CGA:  52    -0.674309701004E+03   -0.42355E-01   -0.38056E-01  8424   0.455E-01 0.238E-01
CGA:  53    -0.674324699981E+03   -0.14999E-01   -0.14829E-01  8424   0.198E-01 0.203E-02
CGA:  54    -0.674331923224E+03   -0.72232E-02   -0.59366E-02  8424   0.821E-02 0.679E-02
CGA:  55    -0.674339660164E+03   -0.77369E-02   -0.44249E-03  8424   0.183E-01-0.151E-03
CGA:  56    -0.674345672712E+03   -0.60125E-02   -0.69811E-02  8424   0.230E-01-0.547E-02
CGA:  57    -0.674350512396E+03   -0.48397E-02   -0.55674E-02  8424   0.228E-01-0.629E-02
CGA:  58    -0.674354223729E+03   -0.37113E-02   -0.10578E-01  8424   0.568E-01-0.183E-01
CGA:  59    -0.674364119852E+03   -0.98961E-02   -0.98959E-02  8424   0.147E-01 0.107E-03
CGA:  60    -0.674370327000E+03   -0.62071E-02   -0.59076E-02  8424   0.112E-01 0.172E-02
CGA:  61    -0.674373894083E+03   -0.35671E-02   -0.34748E-02  8424   0.571E-02 0.225E-02
CGA:  62    -0.674376343237E+03   -0.24492E-02   -0.23245E-02  8424   0.216E-02 0.122E-02
CGA:  63    -0.674376986814E+03   -0.64358E-03   -0.64230E-03  8424   0.108E-02 0.120E-02
CGA:  64    -0.674377322320E+03   -0.33551E-03   -0.31265E-03  8424   0.733E-03 0.518E-03
CGA:  65    -0.674377705721E+03   -0.38340E-03   -0.33574E-03  8424   0.556E-03 0.741E-03
CGA:  66    -0.674377863163E+03   -0.15744E-03   -0.14983E-03  8424   0.411E-03 0.385E-03
CGA:  67    -0.674378097608E+03   -0.23444E-03   -0.17800E-03  8424   0.480E-03 0.306E-03
CGA:  68    -0.674378170761E+03   -0.73154E-04   -0.90549E-04  8424   0.381E-03 0.245E-03
CGA:  69    -0.674378379519E+03   -0.20876E-03   -0.18271E-03  8424   0.937E-03 0.113E-03
CGA:  70    -0.674379048916E+03   -0.66940E-03   -0.52695E-03  8424   0.246E-03 0.822E-03
CGA:  71    -0.674379185917E+03   -0.13700E-03    0.29997E-02  8424   0.257E-03 0.175E-03
CGA:  72    -0.674378862979E+03    0.32294E-03   -0.20452E-03  8424   0.109E-01-0.519E-03
CGA:  73    -0.674380163550E+03   -0.13006E-02   -0.12407E-02  8424   0.317E-03-0.228E-03
CGA:  74    -0.674380276516E+03   -0.11297E-03   -0.10949E-03  8424   0.566E-03-0.279E-04
CGA:  75    -0.674381025329E+03   -0.74881E-03    0.23568E-03  8424   0.534E-03 0.481E-03
CGA:  76    -0.674381248903E+03   -0.22357E-03   -0.17161E-03  8424   0.906E-03-0.336E-03
CGA:  77    -0.674381364176E+03   -0.11527E-03   -0.13252E-03  8424   0.202E-03 0.544E-04
CGA:  78    -0.674381647235E+03   -0.28306E-03    0.10597E-03  8424   0.395E-03 0.134E-03
CGA:  79    -0.674381816409E+03   -0.16917E-03   -0.14822E-03  8424   0.101E-02-0.271E-03
CGA:  80    -0.674381990838E+03   -0.17443E-03   -0.15753E-03  8424   0.249E-03-0.587E-04
CGA:  81    -0.674382244002E+03   -0.25316E-03    0.21218E-03  8424   0.425E-03 0.119E-03
CGA:  82    -0.674383089786E+03   -0.84578E-03    0.24705E-03  8424   0.313E-03 0.399E-03
CGA:  83    -0.674383198143E+03   -0.10836E-03   -0.10035E-03  8424   0.499E-03-0.711E-04
CGA:  84    -0.674383810132E+03   -0.61199E-03    0.97561E-04  8424   0.745E-03 0.342E-03
CGA:  85    -0.674384040857E+03   -0.23072E-03   -0.17627E-03  8424   0.487E-03-0.284E-03
CGA:  86    -0.674384469387E+03   -0.42853E-03    0.90765E-04  8424   0.280E-03 0.278E-03
CGA:  87    -0.674384594560E+03   -0.12517E-03   -0.13627E-03  8424   0.986E-03-0.164E-03
CGA:  88    -0.674384874604E+03   -0.28004E-03   -0.21029E-03  8424   0.460E-03-0.335E-03
CGA:  89    -0.674385220329E+03   -0.34572E-03    0.16427E-03  8424   0.315E-03 0.201E-03
CGA:  90    -0.674385636186E+03   -0.41586E-03    0.81791E-03  8424   0.902E-03-0.431E-05
CGA:  91    -0.674387132541E+03   -0.14964E-02    0.17627E-03  8424   0.233E-02 0.736E-03
CGA:  92    -0.674387506042E+03   -0.37350E-03   -0.33531E-03  8424   0.274E-03-0.140E-03
CGA:  93    -0.674387782454E+03   -0.27641E-03    0.14827E-03  8424   0.635E-03-0.732E-05
CGA:  94    -0.674388663807E+03   -0.88135E-03    0.15631E-03  8424   0.448E-03 0.539E-03
CGA:  95    -0.674388822439E+03   -0.15863E-03   -0.14324E-03  8424   0.800E-03-0.197E-03
CGA:  96    -0.674389368631E+03   -0.54619E-03    0.16188E-03  8424   0.148E-02-0.826E-04
CGA:  97    -0.674390890695E+03   -0.15221E-02    0.57363E-03  8424   0.351E-02 0.289E-03
CGA:  98    -0.674395144652E+03   -0.42540E-02    0.29098E-02  8424   0.258E-02 0.932E-03
CGA:  99    -0.674399319338E+03   -0.41747E-02    0.10464E-02  8424   0.168E-02 0.178E-02
CGA: 100    -0.674399694096E+03   -0.37476E-03   -0.31940E-03  8424   0.681E-03-0.273E-03
CGA: 101    -0.674399548868E+03    0.14523E-03   -0.55837E-03  8424   0.860E-02-0.120E-02
CGA: 102    -0.674400877316E+03   -0.13284E-02   -0.11821E-02  8424   0.129E-02-0.569E-03
CGA: 103    -0.674401300605E+03   -0.42329E-03   -0.39721E-03  8424   0.778E-03-0.367E-03
CGA: 104    -0.674401890778E+03   -0.59017E-03    0.33060E-03  8424   0.920E-03 0.157E-04
CGA: 105    -0.674403065112E+03   -0.11743E-02    0.32292E-03  8424   0.531E-03 0.559E-03
CGA: 106    -0.674395653399E+03    0.74117E-02   -0.40211E-02  8424   0.702E-01-0.410E-02
CGA: 107    -0.674404672526E+03   -0.90191E-02   -0.91438E-02  8424   0.525E-02 0.178E-02
CGA: 108    -0.674405845982E+03   -0.11735E-02   -0.10650E-02  8424   0.819E-03-0.230E-03
CGA: 109    -0.674406353996E+03   -0.50801E-03   -0.62016E-03  8424   0.303E-02-0.923E-03
CGA: 110    -0.674407096454E+03   -0.74246E-03   -0.68104E-03  8424   0.762E-03-0.139E-03
CGA: 111    -0.674407517944E+03   -0.42149E-03   -0.34535E-03  8424   0.180E-02-0.433E-03
CGA: 112    -0.674407936811E+03   -0.41887E-03   -0.28873E-03  8424   0.571E-03-0.278E-03
CGA: 113    -0.674408674884E+03   -0.73807E-03    0.63686E-03  8424   0.862E-03-0.385E-04
CGA: 114    -0.674410611420E+03   -0.19365E-02    0.26385E-03  8424   0.135E-02 0.333E-03
CGA: 115    -0.674414045340E+03   -0.34339E-02    0.12033E-02  8424   0.410E-02 0.995E-04
CGA: 116    -0.674425932015E+03   -0.11887E-01    0.11563E-02  8424   0.663E-02 0.515E-03
CGA: 117    -0.674449174846E+03   -0.23243E-01    0.15277E-02  8424   0.501E-02 0.487E-03
CGA: 118    -0.674463580485E+03   -0.14406E-01    0.14378E-02  8424   0.237E-01-0.773E-02
CGA: 119    -0.674466561494E+03   -0.29810E-02   -0.29114E-02  8424   0.144E-02-0.473E-03
CGA: 120    -0.674466786215E+03   -0.22472E-03   -0.33883E-03  8424   0.306E-03 0.323E-03
CGA: 121    -0.674466775457E+03    0.10758E-04   -0.75776E-04  8424   0.186E-03 0.231E-03
CGA: 122    -0.674466763973E+03    0.11485E-04   -0.40767E-04  8424   0.147E-03 0.154E-03
CGA: 123    -0.674466743576E+03    0.20396E-04   -0.26858E-04  8424   0.127E-03 0.132E-03
CGA: 124    -0.674466728130E+03    0.15447E-04   -0.23838E-04  8424   0.112E-03 0.117E-03
CGA: 125    -0.674466711141E+03    0.16988E-04   -0.18788E-04  8424   0.101E-03 0.105E-03
CGA: 126    -0.674466696900E+03    0.14241E-04   -0.16941E-04  8424   0.928E-04 0.965E-04
CGA: 127    -0.674466683300E+03    0.13601E-04   -0.14636E-04  8424   0.862E-04 0.892E-04
CGA: 128    -0.674466671238E+03    0.12062E-04   -0.13284E-04  8424   0.808E-04 0.833E-04
CGA: 129    -0.674466660200E+03    0.11038E-04   -0.12025E-04  8424   0.763E-04 0.783E-04
CGA: 130    -0.674466650267E+03    0.99332E-05   -0.11086E-04  8424   0.724E-04 0.742E-04
CGA: 131    -0.674466641278E+03    0.89883E-05   -0.10283E-04  8424   0.692E-04 0.707E-04
   1 F= -.67446664E+03 E0= -.67446664E+03  d E =-.674467E+03  mag=     5.0000
       N       E                     dE             d eps       ncg     rms          ort
SDA:   1    -0.674473544621E+03   -0.68944E-02    0.00000E+00  8424   0.657E-02 0.000E+00
CGA:   2    -0.674475234340E+03   -0.16897E-02   -0.17049E-02  8424   0.288E-02 0.118E-03
CGA:   3    -0.674475810232E+03   -0.57589E-03   -0.56626E-03  8424   0.887E-03-0.520E-04
CGA:   4    -0.674475937866E+03   -0.12763E-03   -0.14605E-03  8424   0.228E-03 0.897E-04
CGA:   5    -0.674475959327E+03   -0.21461E-04   -0.38300E-04  8424   0.847E-04 0.802E-04
CGA:   6    -0.674475962904E+03   -0.35770E-05   -0.17346E-04  8424   0.655E-04 0.687E-04
CGA:   7    -0.674475968023E+03   -0.51183E-05   -0.12081E-04  8424   0.513E-04 0.443E-04
   2 F= -.67447597E+03 E0= -.67447597E+03  d E =-.932674E-02  mag=     5.0000
       N       E                     dE             d eps       ncg     rms          ort
SDA:   1    -0.673402806231E+03    0.10732E+01    0.00000E+00  8424   0.337E+01 0.000E+00
CGA:   2    -0.674306318042E+03   -0.90351E+00   -0.90362E+00  8424   0.145E+01 0.612E-04
CGA:   3    -0.674577967460E+03   -0.27165E+00   -0.27104E+00  8424   0.389E+00-0.266E-02
CGA:   4    -0.674646750009E+03   -0.68783E-01   -0.68880E-01  8424   0.963E-01 0.629E-03
CGA:   5    -0.674662320155E+03   -0.15570E-01   -0.15709E-01  8424   0.194E-01 0.933E-03
CGA:   6    -0.674666189695E+03   -0.38695E-02   -0.39219E-02  8424   0.466E-02 0.512E-03
CGA:   7    -0.674667244056E+03   -0.10544E-02   -0.10817E-02  8424   0.168E-02 0.385E-03
CGA:   8    -0.674667642234E+03   -0.39818E-03   -0.41696E-03  8424   0.589E-03 0.294E-03
CGA:   9    -0.674667712379E+03   -0.70145E-04   -0.11373E-03  8424   0.259E-03 0.346E-03
CGA:  10    -0.674667712207E+03    0.17256E-06   -0.31322E-04  8424   0.162E-03 0.193E-03
CGA:  11    -0.674667701950E+03    0.10257E-04   -0.15777E-04  8424   0.134E-03 0.146E-03
CGA:  12    -0.674667690259E+03    0.11691E-04   -0.11212E-04  8424   0.118E-03 0.125E-03
CGA:  13    -0.674667678535E+03    0.11724E-04   -0.88372E-05  8424   0.108E-03 0.112E-03
CGA:  14    -0.674667667154E+03    0.11381E-04   -0.73229E-05  8424   0.100E-03 0.104E-03
CGA:  15    -0.674667656241E+03    0.10912E-04   -0.62568E-05  8424   0.942E-04 0.969E-04
CGA:  16    -0.674667645836E+03    0.10406E-04   -0.54585E-05  8424   0.896E-04 0.918E-04
CGA:  17    -0.674667635938E+03    0.98980E-05   -0.48348E-05  8424   0.858E-04 0.876E-04
   3 F= -.67466764E+03 E0= -.67466764E+03  d E =-.191668E+00  mag=     5.0000
       N       E                     dE             d eps       ncg     rms          ort
SDA:   1    -0.645833461085E+03    0.28834E+02    0.00000E+00  8424   0.757E+02 0.000E+00
CGA:   2    -0.667525996342E+03   -0.21693E+02   -0.21717E+02  8424   0.303E+02-0.168E+00
CGA:   3    -0.672948588324E+03   -0.54226E+01   -0.54358E+01  8424   0.872E+01 0.145E+00
CGA:   4    -0.674574003581E+03   -0.16254E+01   -0.16248E+01  8424   0.204E+01-0.940E-02
CGA:   5    -0.674920517133E+03   -0.34651E+00   -0.34678E+00  8424   0.485E+00 0.684E-02
CGA:   6    -0.675016078713E+03   -0.95562E-01   -0.95629E-01  8424   0.136E+00 0.740E-02
CGA:   7    -0.675052260925E+03   -0.36182E-01   -0.36110E-01  8424   0.585E-01 0.116E-02
CGA:   8    -0.675067473091E+03   -0.15212E-01   -0.15082E-01  8424   0.209E-01 0.272E-02
CGA:   9    -0.675073133990E+03   -0.56609E-02   -0.55077E-02  8424   0.739E-02 0.369E-02
CGA:  10    -0.675075167206E+03   -0.20332E-02   -0.19862E-02  8424   0.266E-02 0.284E-02
CGA:  11    -0.675075672125E+03   -0.50492E-03   -0.60040E-03  8424   0.114E-02 0.193E-02
CGA:  12    -0.675075756764E+03   -0.84639E-04   -0.15200E-03  8424   0.739E-03 0.876E-03
CGA:  13    -0.675075769638E+03   -0.12874E-04   -0.79660E-04  8424   0.621E-03 0.676E-03
CGA:  14    -0.675075764354E+03    0.52841E-05   -0.58112E-04  8424   0.554E-03 0.587E-03
CGA:  15    -0.675075751555E+03    0.12799E-04   -0.46708E-04  8424   0.509E-03 0.532E-03
CGA:  16    -0.675075735114E+03    0.16442E-04   -0.39387E-04  8424   0.476E-03 0.493E-03
CGA:  17    -0.675075716839E+03    0.18274E-04   -0.34191E-04  8424   0.451E-03 0.464E-03
CGA:  18    -0.675075697696E+03    0.19143E-04   -0.30264E-04  8424   0.430E-03 0.440E-03
CGA:  19    -0.675075678238E+03    0.19458E-04   -0.27163E-04  8424   0.413E-03 0.422E-03
CGA:  20    -0.675075658800E+03    0.19438E-04   -0.24636E-04  8424   0.399E-03 0.406E-03
CGA:  21    -0.675075639591E+03    0.19209E-04   -0.22525E-04  8424   0.386E-03 0.393E-03
CGA:  22    -0.675075620742E+03    0.18849E-04   -0.20728E-04  8424   0.376E-03 0.381E-03
CGA:  23    -0.675075602338E+03    0.18405E-04   -0.19175E-04  8424   0.366E-03 0.371E-03
CGA:  24    -0.675075584429E+03    0.17908E-04   -0.17817E-04  8424   0.358E-03 0.362E-03
CGA:  25    -0.675075567048E+03    0.17382E-04   -0.16617E-04  8424   0.351E-03 0.355E-03
CGA:  26    -0.675075550210E+03    0.16838E-04   -0.15548E-04  8424   0.344E-03 0.348E-03
CGA:  27    -0.675075533923E+03    0.16287E-04   -0.14592E-04  8424   0.339E-03 0.341E-03
CGA:  28    -0.675075518191E+03    0.15732E-04   -0.13740E-04  8424   0.334E-03 0.336E-03
CGA:  29    -0.675075503007E+03    0.15184E-04   -0.12969E-04  8424   0.329E-03 0.331E-03
CGA:  30    -0.675075488360E+03    0.14647E-04   -0.12264E-04  8424   0.325E-03 0.327E-03
CGA:  31    -0.675075474237E+03    0.14123E-04   -0.11617E-04  8424   0.321E-03 0.323E-03
CGA:  32    -0.675075460624E+03    0.13613E-04   -0.11019E-04  8424   0.317E-03 0.319E-03
CGA:  33    -0.675075447505E+03    0.13118E-04   -0.10467E-04  8424   0.314E-03 0.316E-03
CGA:  34    -0.675075434867E+03    0.12639E-04   -0.99532E-05  8424   0.311E-03 0.313E-03
CGA:  35    -0.675075422693E+03    0.12174E-04   -0.94745E-05  8424   0.309E-03 0.310E-03
CGA:  36    -0.675075410967E+03    0.11725E-04   -0.90264E-05  8424   0.306E-03 0.307E-03
CGA:  37    -0.675075399675E+03    0.11293E-04   -0.86057E-05  8424   0.304E-03 0.305E-03
CGA:  38    -0.675075388799E+03    0.10875E-04   -0.82097E-05  8424   0.301E-03 0.302E-03
CGA:  39    -0.675075378326E+03    0.10473E-04   -0.78366E-05  8424   0.299E-03 0.300E-03
CGA:  40    -0.675075368240E+03    0.10086E-04   -0.74844E-05  8424   0.297E-03 0.298E-03
CGA:  41    -0.675075358527E+03    0.97129E-05   -0.71512E-05  8424   0.295E-03 0.296E-03
   4 F= -.67507536E+03 E0= -.67507536E+03  d E =-.407723E+00  mag=     5.0000
       N       E                     dE             d eps       ncg     rms          ort
SDA:   1    -0.672458922747E+03    0.26164E+01    0.00000E+00  8424   0.902E+01 0.000E+00
CGA:   2    -0.674214907127E+03   -0.17560E+01   -0.17507E+01  8424   0.327E+01 0.457E-01
CGA:   3    -0.674915162581E+03   -0.70026E+00   -0.70165E+00  8424   0.112E+01-0.119E-01
CGA:   4    -0.675108605074E+03   -0.19344E+00   -0.19331E+00  8424   0.297E+00 0.130E-02
CGA:   5    -0.675158549037E+03   -0.49944E-01   -0.49736E-01  8424   0.589E-01 0.271E-02
CGA:   6    -0.675170403797E+03   -0.11855E-01   -0.11782E-01  8424   0.128E-01 0.700E-03
CGA:   7    -0.675173096365E+03   -0.26926E-02   -0.24774E-02  8424   0.360E-02 0.239E-02
CGA:   8    -0.675173888400E+03   -0.79204E-03   -0.69157E-03  8424   0.128E-02 0.178E-02
CGA:   9    -0.675174112109E+03   -0.22371E-03   -0.21737E-03  8424   0.696E-03 0.116E-02
CGA:  10    -0.675174160599E+03   -0.48489E-04   -0.61001E-04  8424   0.530E-03 0.595E-03
CGA:  11    -0.675174179959E+03   -0.19360E-04   -0.37554E-04  8424   0.466E-03 0.494E-03
CGA:  12    -0.675174189662E+03   -0.97025E-05   -0.28992E-04  8424   0.426E-03 0.443E-03
CGA:  13    -0.675174194359E+03   -0.46972E-05   -0.24042E-04  8424   0.398E-03 0.410E-03
CGA:  14    -0.675174196006E+03   -0.16470E-05   -0.20666E-04  8424   0.376E-03 0.385E-03
CGA:  15    -0.675174195629E+03    0.37714E-06   -0.18147E-04  8424   0.359E-03 0.366E-03
CGA:  16    -0.675174193839E+03    0.17894E-05   -0.16161E-04  8424   0.344E-03 0.350E-03
CGA:  17    -0.675174191035E+03    0.28040E-05   -0.14537E-04  8424   0.332E-03 0.337E-03
CGA:  18    -0.675174187492E+03    0.35436E-05   -0.13176E-04  8424   0.321E-03 0.325E-03
CGA:  19    -0.675174183409E+03    0.40829E-05   -0.12014E-04  8424   0.311E-03 0.315E-03
CGA:  20    -0.675174178935E+03    0.44737E-05   -0.11009E-04  8424   0.302E-03 0.306E-03
CGA:  21    -0.675174174179E+03    0.47559E-05   -0.10125E-04  8424   0.294E-03 0.298E-03
   5 F= -.67517417E+03 E0= -.67517417E+03  d E =-.988157E-01  mag=     5.0000
       N       E                     dE             d eps       ncg     rms          ort
SDA:   1    -0.674983594169E+03    0.19058E+00    0.00000E+00  8424   0.598E+00 0.000E+00
CGA:   2    -0.675133672004E+03   -0.15008E+00   -0.14906E+00  8424   0.252E+00 0.595E-02
CGA:   3    -0.675183280833E+03   -0.49609E-01   -0.49679E-01  8424   0.714E-01-0.666E-03
CGA:   4    -0.675195569153E+03   -0.12288E-01   -0.12208E-01  8424   0.177E-01 0.100E-02
CGA:   5    -0.675198470854E+03   -0.29017E-02   -0.28164E-02  8424   0.347E-02 0.140E-02
CGA:   6    -0.675199108169E+03   -0.63732E-03   -0.57405E-03  8424   0.933E-03 0.117E-02
CGA:   7    -0.675199217412E+03   -0.10924E-03   -0.11647E-03  8424   0.535E-03 0.809E-03
CGA:   8    -0.675199238723E+03   -0.21311E-04   -0.36750E-04  8424   0.420E-03 0.467E-03
CGA:   9    -0.675199246091E+03   -0.73682E-05   -0.24071E-04  8424   0.368E-03 0.391E-03
CGA:  10    -0.675199248036E+03   -0.19452E-05   -0.18547E-04  8424   0.335E-03 0.349E-03
CGA:  11    -0.675199247148E+03    0.88804E-06   -0.15247E-04  8424   0.312E-03 0.322E-03
CGA:  12    -0.675199244596E+03    0.25528E-05   -0.12996E-04  8424   0.295E-03 0.302E-03
CGA:  13    -0.675199241007E+03    0.35886E-05   -0.11338E-04  8424   0.281E-03 0.287E-03
CGA:  14    -0.675199236758E+03    0.42490E-05   -0.10056E-04  8424   0.270E-03 0.274E-03
   6 F= -.67519924E+03 E0= -.67519924E+03  d E =-.250626E-01  mag=     5.0000
       N       E                     dE             d eps       ncg     rms          ort
SDA:   1    -0.671407293721E+03    0.37919E+01    0.00000E+00  8424   0.950E+01 0.000E+00
CGA:   2    -0.674399517352E+03   -0.29922E+01   -0.29931E+01  8424   0.351E+01-0.177E-02
CGA:   3    -0.675050987512E+03   -0.65147E+00   -0.65132E+00  8424   0.944E+00 0.144E-02
CGA:   4    -0.675216547903E+03   -0.16556E+00   -0.16584E+00  8424   0.226E+00-0.381E-02
CGA:   5    -0.675254348490E+03   -0.37801E-01   -0.37757E-01  8424   0.498E-01 0.635E-03
CGA:   6    -0.675264371141E+03   -0.10023E-01   -0.98155E-02  8424   0.117E-01 0.228E-02
CGA:   7    -0.675267298650E+03   -0.29275E-02   -0.27259E-02  8424   0.412E-02 0.178E-02
CGA:   8    -0.675268275897E+03   -0.97725E-03   -0.85807E-03  8424   0.156E-02 0.184E-02
CGA:   9    -0.675268567099E+03   -0.29120E-03   -0.28269E-03  8424   0.919E-03 0.142E-02
CGA:  10    -0.675268653657E+03   -0.86558E-04   -0.97111E-04  8424   0.667E-03 0.756E-03
CGA:  11    -0.675268691296E+03   -0.37639E-04   -0.57677E-04  8424   0.578E-03 0.617E-03
CGA:  12    -0.675268712953E+03   -0.21656E-04   -0.44126E-04  8424   0.523E-03 0.548E-03
CGA:  13    -0.675268725940E+03   -0.12988E-04   -0.36150E-04  8424   0.483E-03 0.501E-03
CGA:  14    -0.675268733491E+03   -0.75512E-05   -0.30686E-04  8424   0.453E-03 0.467E-03
CGA:  15    -0.675268737379E+03   -0.38879E-05   -0.26643E-04  8424   0.429E-03 0.440E-03
CGA:  16    -0.675268738692E+03   -0.13134E-05   -0.23506E-04  8424   0.408E-03 0.418E-03
CGA:  17    -0.675268738149E+03    0.54310E-06   -0.20990E-04  8424   0.392E-03 0.399E-03
CGA:  18    -0.675268736246E+03    0.19031E-05   -0.18924E-04  8424   0.377E-03 0.384E-03
CGA:  19    -0.675268733339E+03    0.29077E-05   -0.17195E-04  8424   0.364E-03 0.370E-03
CGA:  20    -0.675268729687E+03    0.36512E-05   -0.15725E-04  8424   0.353E-03 0.359E-03
CGA:  21    -0.675268725488E+03    0.41996E-05   -0.14459E-04  8424   0.344E-03 0.348E-03
CGA:  22    -0.675268720889E+03    0.45989E-05   -0.13359E-04  8424   0.335E-03 0.339E-03
CGA:  23    -0.675268716006E+03    0.48832E-05   -0.12392E-04  8424   0.327E-03 0.331E-03
CGA:  24    -0.675268710927E+03    0.50784E-05   -0.11536E-04  8424   0.320E-03 0.324E-03
CGA:  25    -0.675268705724E+03    0.52034E-05   -0.10773E-04  8424   0.314E-03 0.317E-03
CGA:  26    -0.675268700450E+03    0.52736E-05   -0.10088E-04  8424   0.309E-03 0.311E-03
   7 F= -.67526870E+03 E0= -.67526870E+03  d E =-.694637E-01  mag=     5.0000
       N       E                     dE             d eps       ncg     rms          ort
SDA:   1    -0.674991640007E+03    0.27707E+00    0.00000E+00  8424   0.851E+00 0.000E+00
CGA:   2    -0.675179559213E+03   -0.18792E+00   -0.18735E+00  8424   0.383E+00 0.387E-02
CGA:   3    -0.675259022743E+03   -0.79464E-01   -0.78962E-01  8424   0.110E+00 0.401E-02
CGA:   4    -0.675277404233E+03   -0.18381E-01   -0.18236E-01  8424   0.261E-01 0.195E-02
CGA:   5    -0.675281863183E+03   -0.44589E-02   -0.43704E-02  8424   0.506E-02 0.124E-02
CGA:   6    -0.675282854187E+03   -0.99100E-03   -0.90398E-03  8424   0.121E-02 0.118E-02
CGA:   7    -0.675283029743E+03   -0.17556E-03   -0.16634E-03  8424   0.580E-03 0.865E-03
CGA:   8    -0.675283064809E+03   -0.35066E-04   -0.45795E-04  8424   0.417E-03 0.481E-03
CGA:   9    -0.675283077532E+03   -0.12723E-04   -0.26615E-04  8424   0.354E-03 0.381E-03
CGA:  10    -0.675283082932E+03   -0.53996E-05   -0.19665E-04  8424   0.317E-03 0.333E-03
CGA:  11    -0.675283084717E+03   -0.17852E-05   -0.15799E-04  8424   0.291E-03 0.302E-03
CGA:  12    -0.675283084429E+03    0.28819E-06   -0.13274E-04  8424   0.273E-03 0.280E-03
CGA:  13    -0.675283082853E+03    0.15756E-05   -0.11471E-04  8424   0.258E-03 0.264E-03
CGA:  14    -0.675283080442E+03    0.24109E-05   -0.10106E-04  8424   0.246E-03 0.251E-03
   8 F= -.67528308E+03 E0= -.67528308E+03  d E =-.143800E-01  mag=     5.0000
       N       E                     dE             d eps       ncg     rms          ort
SDA:   1    -0.675157726721E+03    0.12536E+00    0.00000E+00  8424   0.341E+00 0.000E+00
CGA:   2    -0.675252997687E+03   -0.95271E-01   -0.95566E-01  8424   0.141E+00-0.148E-02
CGA:   3    -0.675278526332E+03   -0.25529E-01   -0.25126E-01  8424   0.350E-01 0.474E-02
CGA:   4    -0.675285009818E+03   -0.64835E-02   -0.63506E-02  8424   0.851E-02 0.171E-02
CGA:   5    -0.675286490793E+03   -0.14810E-02   -0.14344E-02  8424   0.181E-02 0.791E-03
CGA:   6    -0.675286778848E+03   -0.28805E-03   -0.26477E-03  8424   0.537E-03 0.796E-03
CGA:   7    -0.675286832254E+03   -0.53406E-04   -0.64907E-04  8424   0.318E-03 0.510E-03
CGA:   8    -0.675286842564E+03   -0.10309E-04   -0.21206E-04  8424   0.256E-03 0.282E-03
CGA:   9    -0.675286845070E+03   -0.25064E-05   -0.14078E-04  8424   0.226E-03 0.240E-03
CGA:  10    -0.675286844740E+03    0.33009E-06   -0.10982E-04  8424   0.207E-03 0.216E-03
   9 F= -.67528684E+03 E0= -.67528684E+03  d E =-.376430E-02  mag=     5.0000
       N       E                     dE             d eps       ncg     rms          ort
SDA:   1    -0.675077260946E+03    0.20958E+00    0.00000E+00  8424   0.537E+00 0.000E+00
CGA:   2    -0.675235606225E+03   -0.15835E+00   -0.15871E+00  8424   0.245E+00-0.186E-02
CGA:   3    -0.675278995440E+03   -0.43389E-01   -0.43088E-01  8424   0.550E-01 0.424E-02
CGA:   4    -0.675288736187E+03   -0.97407E-02   -0.96522E-02  8424   0.135E-01 0.138E-02
CGA:   5    -0.675291046820E+03   -0.23106E-02   -0.22783E-02  8424   0.280E-02 0.620E-03
CGA:   6    -0.675291561177E+03   -0.51436E-03   -0.47898E-03  8424   0.674E-03 0.721E-03
CGA:   7    -0.675291657793E+03   -0.96616E-04   -0.97644E-04  8424   0.331E-03 0.480E-03
CGA:   8    -0.675291677075E+03   -0.19282E-04   -0.28058E-04  8424   0.237E-03 0.271E-03
CGA:   9    -0.675291682126E+03   -0.50509E-05   -0.15751E-04  8424   0.203E-03 0.217E-03
CGA:  10    -0.675291683199E+03   -0.10734E-05   -0.11693E-04  8424   0.182E-03 0.191E-03
  10 F= -.67529168E+03 E0= -.67529168E+03  d E =-.483846E-02  mag=     5.0000
       N       E                     dE             d eps       ncg     rms          ort
SDA:   1    -0.675073865032E+03    0.21782E+00    0.00000E+00  8424   0.567E+00 0.000E+00
CGA:   2    -0.675232839722E+03   -0.15897E+00   -0.15896E+00  8424   0.284E+00 0.109E-04
CGA:   3    -0.675285045051E+03   -0.52205E-01   -0.52091E-01  8424   0.620E-01 0.166E-02
CGA:   4    -0.675295285077E+03   -0.10240E-01   -0.10206E-01  8424   0.152E-01 0.752E-03
CGA:   5    -0.675297899869E+03   -0.26148E-02   -0.25895E-02  8424   0.307E-02 0.533E-03
CGA:   6    -0.675298513500E+03   -0.61363E-03   -0.58218E-03  8424   0.726E-03 0.533E-03
CGA:   7    -0.675298631503E+03   -0.11800E-03   -0.11477E-03  8424   0.294E-03 0.412E-03
CGA:   8    -0.675298650779E+03   -0.19276E-04   -0.27315E-04  8424   0.200E-03 0.233E-03
CGA:   9    -0.675298655664E+03   -0.48858E-05   -0.14522E-04  8424   0.169E-03 0.181E-03
CGA:  10    -0.675298656577E+03   -0.91285E-06   -0.10493E-04  8424   0.150E-03 0.158E-03
  11 F= -.67529866E+03 E0= -.67529866E+03  d E =-.697338E-02  mag=     5.0000
       N       E                     dE             d eps       ncg     rms          ort
SDA:   1    -0.674759370751E+03    0.53928E+00    0.00000E+00  8424   0.141E+01 0.000E+00
CGA:   2    -0.675132509938E+03   -0.37314E+00   -0.37285E+00  8424   0.713E+00 0.179E-02
CGA:   3    -0.675269096504E+03   -0.13659E+00   -0.13656E+00  8424   0.167E+00 0.278E-03
CGA:   4    -0.675295829883E+03   -0.26733E-01   -0.26712E-01  8424   0.397E-01 0.634E-03
CGA:   5    -0.675302697569E+03   -0.68677E-02   -0.68475E-02  8424   0.799E-02 0.464E-03
CGA:   6    -0.675304389665E+03   -0.16921E-02   -0.16699E-02  8424   0.198E-02 0.292E-03
CGA:   7    -0.675304779868E+03   -0.39020E-03   -0.36895E-03  8424   0.552E-03 0.473E-03
CGA:   8    -0.675304875175E+03   -0.95307E-04   -0.94765E-04  8424   0.265E-03 0.370E-03
CGA:   9    -0.675304901346E+03   -0.26171E-04   -0.30541E-04  8424   0.169E-03 0.197E-03
CGA:  10    -0.675304908415E+03   -0.70689E-05   -0.14674E-04  8424   0.143E-03 0.154E-03
CGA:  11    -0.675304911210E+03   -0.27955E-05   -0.10721E-04  8424   0.128E-03 0.134E-03
  12 F= -.67530491E+03 E0= -.67530491E+03  d E =-.625463E-02  mag=     5.0000
       N       E                     dE             d eps       ncg     rms          ort
SDA:   1    -0.675027614435E+03    0.27729E+00    0.00000E+00  8424   0.764E+00 0.000E+00
CGA:   2    -0.675211342601E+03   -0.18373E+00   -0.18363E+00  8424   0.369E+00 0.807E-03
CGA:   3    -0.675286005133E+03   -0.74663E-01   -0.74641E-01  8424   0.967E-01 0.254E-03
CGA:   4    -0.675301379047E+03   -0.15374E-01   -0.15361E-01  8424   0.225E-01 0.542E-03
CGA:   5    -0.675305247222E+03   -0.38682E-02   -0.38542E-02  8424   0.447E-02 0.422E-03
CGA:   6    -0.675306183948E+03   -0.93673E-03   -0.92174E-03  8424   0.109E-02 0.236E-03
CGA:   7    -0.675306391286E+03   -0.20734E-03   -0.19790E-03  8424   0.320E-03 0.321E-03
CGA:   8    -0.675306438702E+03   -0.47415E-04   -0.51911E-04  8424   0.169E-03 0.242E-03
CGA:   9    -0.675306451200E+03   -0.12498E-04   -0.17664E-04  8424   0.116E-03 0.133E-03
CGA:  10    -0.675306454031E+03   -0.28313E-05   -0.93049E-05  8424   0.100E-03 0.106E-03
  13 F= -.67530645E+03 E0= -.67530645E+03  d E =-.154282E-02  mag=     5.0000
       N       E                     dE             d eps       ncg     rms          ort
SDA:   1    -0.675232610891E+03    0.73840E-01    0.00000E+00  8424   0.183E+00 0.000E+00
CGA:   2    -0.675284778782E+03   -0.52168E-01   -0.52240E-01  8424   0.890E-01-0.499E-03
CGA:   3    -0.675300559849E+03   -0.15781E-01   -0.15766E-01  8424   0.194E-01 0.409E-03
CGA:   4    -0.675303826641E+03   -0.32668E-02   -0.32596E-02  8424   0.490E-02 0.306E-03
CGA:   5    -0.675304655659E+03   -0.82902E-03   -0.82326E-03  8424   0.974E-03 0.284E-03
CGA:   6    -0.675304834506E+03   -0.17885E-03   -0.17308E-03  8424   0.246E-03 0.263E-03
CGA:   7    -0.675304872429E+03   -0.37923E-04   -0.40676E-04  8424   0.120E-03 0.162E-03
CGA:   8    -0.675304882697E+03   -0.10268E-04   -0.13439E-04  8424   0.821E-04 0.932E-04
CGA:   9    -0.675304884960E+03   -0.22626E-05   -0.68830E-05  8424   0.716E-04 0.758E-04
  14 F= -.67530488E+03 E0= -.67530488E+03  d E =0.156907E-02  mag=     5.0000
       N       E                     dE             d eps       ncg     rms          ort
SDA:   1    -0.675209685805E+03    0.95197E-01    0.00000E+00  8424   0.266E+00 0.000E+00
CGA:   2    -0.675272440444E+03   -0.62755E-01   -0.62752E-01  8424   0.132E+00-0.119E-04
CGA:   3    -0.675299564727E+03   -0.27124E-01   -0.27097E-01  8424   0.354E-01 0.410E-03
CGA:   4    -0.675305094256E+03   -0.55295E-02   -0.55265E-02  8424   0.780E-02 0.311E-03
CGA:   5    -0.675306418603E+03   -0.13243E-02   -0.13194E-02  8424   0.152E-02 0.233E-03
CGA:   6    -0.675306733959E+03   -0.31536E-03   -0.30657E-03  8424   0.377E-03 0.183E-03
CGA:   7    -0.675306800314E+03   -0.66355E-04   -0.65529E-04  8424   0.131E-03 0.164E-03
CGA:   8    -0.675306814175E+03   -0.13861E-04   -0.19556E-04  8424   0.810E-04 0.123E-03
CGA:   9    -0.675306817087E+03   -0.29122E-05   -0.71090E-05  8424   0.628E-04 0.695E-04
  15 F= -.67530682E+03 E0= -.67530682E+03  d E =-.193213E-02  mag=     5.0000
       N       E                     dE             d eps       ncg     rms          ort
SDA:   1    -0.675251311449E+03    0.55503E-01    0.00000E+00  8424   0.148E+00 0.000E+00
CGA:   2    -0.675290309714E+03   -0.38998E-01   -0.38989E-01  8424   0.786E-01 0.545E-04
CGA:   3    -0.675305336520E+03   -0.15027E-01   -0.15012E-01  8424   0.181E-01 0.321E-03
CGA:   4    -0.675308182225E+03   -0.28457E-02   -0.28442E-02  8424   0.411E-02 0.209E-03
CGA:   5    -0.675308879233E+03   -0.69701E-03   -0.69379E-03  8424   0.828E-03 0.188E-03
CGA:   6    -0.675309042183E+03   -0.16295E-03   -0.15761E-03  8424   0.207E-03 0.171E-03
CGA:   7    -0.675309071462E+03   -0.29279E-04   -0.32242E-04  8424   0.905E-04 0.128E-03
CGA:   8    -0.675309076036E+03   -0.45740E-05   -0.86423E-05  8424   0.635E-04 0.728E-04
  16 F= -.67530908E+03 E0= -.67530908E+03  d E =-.225895E-02  mag=     5.0000
       N       E                     dE             d eps       ncg     rms          ort
SDA:   1    -0.674861872528E+03    0.44720E+00    0.00000E+00  8424   0.113E+01 0.000E+00
CGA:   2    -0.675174321125E+03   -0.31245E+00   -0.31246E+00  8424   0.604E+00-0.197E-03
CGA:   3    -0.675286213898E+03   -0.11189E+00   -0.11187E+00  8424   0.131E+00 0.682E-03
CGA:   4    -0.675306974917E+03   -0.20761E-01   -0.20759E-01  8424   0.303E-01 0.404E-03
CGA:   5    -0.675312217022E+03   -0.52421E-02   -0.52360E-02  8424   0.627E-02 0.324E-03
CGA:   6    -0.675313527718E+03   -0.13107E-02   -0.12964E-02  8424   0.145E-02 0.283E-03
CGA:   7    -0.675313823369E+03   -0.29565E-03   -0.28691E-03  8424   0.401E-03 0.270E-03
CGA:   8    -0.675313895273E+03   -0.71904E-04   -0.73047E-04  8424   0.168E-03 0.229E-03
CGA:   9    -0.675313910512E+03   -0.15239E-04   -0.20010E-04  8424   0.102E-03 0.121E-03
CGA:  10    -0.675313913221E+03   -0.27088E-05   -0.89657E-05  8424   0.845E-04 0.917E-04
  17 F= -.67531391E+03 E0= -.67531391E+03  d E =-.483718E-02  mag=     5.0000
       N       E                     dE             d eps       ncg     rms          ort
SDA:   1    -0.671324254184E+03    0.39897E+01    0.00000E+00  8424   0.985E+01 0.000E+00
CGA:   2    -0.674089805716E+03   -0.27656E+01   -0.27662E+01  8424   0.535E+01-0.562E-02
CGA:   3    -0.675067405533E+03   -0.97760E+00   -0.97745E+00  8424   0.113E+01 0.412E-02
CGA:   4    -0.675245154172E+03   -0.17775E+00   -0.17775E+00  8424   0.264E+00 0.897E-03
CGA:   5    -0.675291265473E+03   -0.46111E-01   -0.46104E-01  8424   0.557E-01 0.398E-03
CGA:   6    -0.675303015659E+03   -0.11750E-01   -0.11725E-01  8424   0.131E-01 0.469E-03
CGA:   7    -0.675305919374E+03   -0.29037E-02   -0.28859E-02  8424   0.396E-02 0.307E-03
CGA:   8    -0.675306933664E+03   -0.10143E-02   -0.98307E-03  8424   0.126E-02 0.394E-03
CGA:   9    -0.675307302201E+03   -0.36854E-03   -0.34461E-03  8424   0.471E-03 0.293E-03
CGA:  10    -0.675307435324E+03   -0.13312E-03   -0.12281E-03  8424   0.213E-03 0.256E-03
CGA:  11    -0.675307467462E+03   -0.32138E-04   -0.34017E-04  8424   0.115E-03 0.141E-03
CGA:  12    -0.675307476598E+03   -0.91360E-05   -0.14195E-04  8424   0.931E-04 0.103E-03
  18 F= -.67530748E+03 E0= -.67530748E+03  d E =0.643662E-02  mag=     5.0000
       N       E                     dE             d eps       ncg     rms          ort
SDA:   1    -0.674763023588E+03    0.54444E+00    0.00000E+00  8424   0.163E+01 0.000E+00
CGA:   2    -0.675122834881E+03   -0.35981E+00   -0.35965E+00  8424   0.721E+00 0.269E-02
CGA:   3    -0.675272418003E+03   -0.14958E+00   -0.14959E+00  8424   0.212E+00-0.300E-03
CGA:   4    -0.675306963062E+03   -0.34545E-01   -0.34547E-01  8424   0.510E-01 0.135E-03
CGA:   5    -0.675315696541E+03   -0.87335E-02   -0.87334E-02  8424   0.992E-02 0.227E-03
CGA:   6    -0.675317747730E+03   -0.20512E-02   -0.20457E-02  8424   0.234E-02 0.157E-03
CGA:   7    -0.675318239349E+03   -0.49162E-03   -0.48342E-03  8424   0.649E-03 0.263E-03
CGA:   8    -0.675318383759E+03   -0.14441E-03   -0.13994E-03  8424   0.211E-03 0.228E-03
CGA:   9    -0.675318416809E+03   -0.33050E-04   -0.39190E-04  8424   0.110E-03 0.162E-03
CGA:  10    -0.675318422279E+03   -0.54696E-05   -0.11592E-04  8424   0.791E-04 0.900E-04
  19 F= -.67531842E+03 E0= -.67531842E+03  d E =-.109457E-01  mag=     5.0000
       N       E                     dE             d eps       ncg     rms          ort
SDA:   1    -0.674984760241E+03    0.33366E+00    0.00000E+00  8424   0.821E+00 0.000E+00
CGA:   2    -0.675227445401E+03   -0.24269E+00   -0.24263E+00  8424   0.419E+00 0.327E-03
CGA:   3    -0.675302482942E+03   -0.75038E-01   -0.75037E-01  8424   0.861E-01-0.843E-05
CGA:   4    -0.675316418204E+03   -0.13935E-01   -0.13936E-01  8424   0.216E-01 0.123E-04
CGA:   5    -0.675320155560E+03   -0.37374E-02   -0.37372E-02  8424   0.438E-02 0.178E-03
CGA:   6    -0.675321040268E+03   -0.88471E-03   -0.87742E-03  8424   0.102E-02 0.271E-03
CGA:   7    -0.675321254428E+03   -0.21416E-03   -0.21018E-03  8424   0.300E-03 0.185E-03
CGA:   8    -0.675321309714E+03   -0.55286E-04   -0.57377E-04  8424   0.125E-03 0.165E-03
CGA:   9    -0.675321317897E+03   -0.81836E-05   -0.13912E-04  8424   0.776E-04 0.920E-04
  20 F= -.67532132E+03 E0= -.67532132E+03  d E =-.289562E-02  mag=     5.0000
       N       E                     dE             d eps       ncg     rms          ort
SDA:   1    -0.674951495920E+03    0.36981E+00    0.00000E+00  8424   0.977E+00 0.000E+00
CGA:   2    -0.675211616099E+03   -0.26012E+00   -0.26005E+00  8424   0.471E+00 0.556E-03
CGA:   3    -0.675298383741E+03   -0.86768E-01   -0.86766E-01  8424   0.109E+00 0.597E-04
CGA:   4    -0.675316376842E+03   -0.17993E-01   -0.17993E-01  8424   0.280E-01-0.400E-04
CGA:   5    -0.675321210593E+03   -0.48338E-02   -0.48336E-02  8424   0.548E-02 0.201E-03
CGA:   6    -0.675322305384E+03   -0.10948E-02   -0.10874E-02  8424   0.125E-02 0.295E-03
CGA:   7    -0.675322574352E+03   -0.26897E-03   -0.26319E-03  8424   0.380E-03 0.212E-03
CGA:   8    -0.675322649213E+03   -0.74861E-04   -0.75692E-04  8424   0.149E-03 0.191E-03
CGA:   9    -0.675322662191E+03   -0.12978E-04   -0.18334E-04  8424   0.876E-04 0.105E-03
CGA:  10    -0.675322664409E+03   -0.22179E-05   -0.82902E-05  8424   0.724E-04 0.787E-04
  21 F= -.67532266E+03 E0= -.67532266E+03  d E =-.134651E-02  mag=     5.0000
       N       E                     dE             d eps       ncg     rms          ort
SDA:   1    -0.675262349626E+03    0.60313E-01    0.00000E+00  8424   0.158E+00 0.000E+00
CGA:   2    -0.675308363011E+03   -0.46013E-01   -0.46002E-01  8424   0.784E-01 0.770E-04
CGA:   3    -0.675322038092E+03   -0.13675E-01   -0.13674E-01  8424   0.163E-01 0.294E-03
