       N       E                     dE             d eps       ncg     rms          ort
DAV:   1     0.828418430316E+04    0.82842E+04   -0.24675E+05  8424   0.238E+03
DAV:   2     0.918777846554E+03   -0.73654E+04   -0.69155E+04  8424   0.658E+02
DAV:   3    -0.678142789192E+03   -0.15969E+04   -0.14045E+04  8424   0.283E+02
DAV:   4    -0.834466237513E+03   -0.15632E+03   -0.15361E+03  8424   0.858E+01
DAV:   5    -0.836986990167E+03   -0.25208E+01   -0.25094E+01  8424   0.122E+01
SDA:   6    -0.245755779239E+03    0.59123E+03   -0.25094E+01  8424   0.714E+04 0.000E+00
CGA:   7    -0.185887526438E+03    0.59868E+02   -0.40931E+03  8424   0.283E+05-0.453E+04
CGA:   8     0.145671582010E+04    0.16426E+04   -0.17863E+04  8424   0.166E+06-0.606E+05
CGA:   9     0.514830501117E+04    0.36916E+04   -0.13241E+05  8424   0.214E+05-0.116E+05
CGA:  10     0.938528544883E+03   -0.42098E+04   -0.84632E+03  8424   0.421E+05-0.557E+05
CGA:  11     0.349115020568E+04    0.25526E+04   -0.23516E+04  8424   0.230E+05-0.110E+05
CGA:  12     0.152147570502E+04   -0.19697E+04   -0.61242E+03  8424   0.192E+06-0.243E+06
CGA:  13     0.486687319633E+04    0.33454E+04   -0.13509E+05  8424   0.192E+05-0.102E+05
CGA:  14     0.102333682453E+04   -0.38435E+04   -0.66935E+03  8424   0.974E+04-0.873E+04
CGA:  15    -0.569230551685E+03   -0.15926E+04   -0.12446E+03  8424   0.848E+03 0.542E+03
CGA:  16    -0.599958328842E+03   -0.30728E+02   -0.19573E+02  8424   0.505E+03 0.780E+03
CGA:  17    -0.618823384285E+03   -0.18865E+02   -0.92764E+01  8424   0.198E+03 0.342E+03
CGA:  18    -0.627658718008E+03   -0.88353E+01   -0.62664E+01  8424   0.898E+02 0.766E+02
CGA:  19    -0.642534273504E+03   -0.14876E+02   -0.15138E+02  8424   0.437E+03 0.215E+02
CGA:  20    -0.653407360278E+03   -0.10873E+02   -0.17682E+02  8424   0.147E+03-0.872E+02
CGA:  21    -0.657047650370E+03   -0.36403E+01   -0.36008E+01  8424   0.109E+03 0.527E+00
CGA:  22    -0.660454984386E+03   -0.34073E+01   -0.35227E+01  8424   0.128E+03-0.165E+02
CGA:  23    -0.668106651022E+03   -0.76517E+01   -0.57062E+01  8424   0.278E+02-0.710E+01
CGA:  24    -0.669954711181E+03   -0.18481E+01   -0.21360E+01  8424   0.135E+02 0.249E+01
CGA:  25    -0.672393704778E+03   -0.24390E+01   -0.24274E+01  8424   0.737E+01 0.755E-01
CGA:  26    -0.672223800427E+03    0.16990E+00   -0.25424E+01  8424   0.191E+02-0.886E+01
CGA:  27    -0.674273204764E+03   -0.20494E+01   -0.20794E+01  8424   0.345E+01 0.818E+00
CGA:  28    -0.674850945563E+03   -0.57774E+00   -0.58068E+00  8424   0.110E+01-0.447E-01
CGA:  29    -0.675128866098E+03   -0.27792E+00   -0.27284E+00  8424   0.382E+00 0.394E-01
CGA:  30    -0.675239471663E+03   -0.11061E+00   -0.11451E+00  8424   0.633E+00-0.403E-01
CGA:  31    -0.675289045009E+03   -0.49573E-01   -0.35975E-01  8424   0.615E+00 0.178E+00
CGA:  32    -0.675337090126E+03   -0.48045E-01   -0.38691E-01  8424   0.509E+00 0.171E+00
CGA:  33    -0.675365613570E+03   -0.28523E-01   -0.24176E-01  8424   0.381E+00 0.111E+00
CGA:  34    -0.675384750993E+03   -0.19137E-01   -0.18101E-01  8424   0.368E+00 0.255E-01
CGA:  35    -0.675399054259E+03   -0.14303E-01   -0.13990E-01  8424   0.470E+00 0.858E-02
CGA:  36    -0.675415150497E+03   -0.16096E-01   -0.17742E-01  8424   0.642E+00-0.361E-01
CGA:  37    -0.675429769186E+03   -0.14619E-01   -0.13572E-01  8424   0.553E+00 0.541E-01
CGA:  38    -0.675441488706E+03   -0.11720E-01   -0.96531E-02  8424   0.343E+00 0.132E+00
CGA:  39    -0.675449838166E+03   -0.83495E-02   -0.75079E-02  8424   0.225E+00 0.459E-01
CGA:  40    -0.675455499188E+03   -0.56610E-02   -0.54552E-02  8424   0.244E+00 0.438E-02
CGA:  41    -0.675461413641E+03   -0.59145E-02   -0.59519E-02  8424   0.349E+00-0.123E-01
CGA:  42    -0.675468739636E+03   -0.73260E-02   -0.77711E-02  8424   0.439E+00-0.377E-01
CGA:  43    -0.675476356692E+03   -0.76171E-02   -0.81749E-02  8424   0.382E+00-0.536E-01
CGA:  44    -0.675482530528E+03   -0.61738E-02   -0.66647E-02  8424   0.267E+00-0.521E-01
CGA:  45    -0.675487393633E+03   -0.48631E-02   -0.55224E-02  8424   0.237E+00-0.374E-01
CGA:  46    -0.675493371866E+03   -0.59782E-02   -0.67077E-02  8424   0.265E+00-0.162E-01
CGA:  47    -0.675501152928E+03   -0.77811E-02   -0.81482E-02  8424   0.207E+00 0.289E-02
CGA:  48    -0.675506903932E+03   -0.57510E-02   -0.60685E-02  8424   0.141E+00 0.785E-02
CGA:  49    -0.675511728572E+03   -0.48246E-02   -0.50631E-02  8424   0.146E+00 0.575E-02
CGA:  50    -0.675518305370E+03   -0.65768E-02   -0.66878E-02  8424   0.201E+00 0.201E-02
CGA:  51    -0.675527349892E+03   -0.90445E-02   -0.90737E-02  8424   0.214E+00-0.809E-02
CGA:  52    -0.675535941629E+03   -0.85917E-02   -0.84420E-02  8424   0.159E+00-0.217E-01
CGA:  53    -0.675543818775E+03   -0.78771E-02   -0.77153E-02  8424   0.158E+00-0.250E-01
CGA:  54    -0.675554287345E+03   -0.10469E-01   -0.11051E-01  8424   0.161E+00-0.371E-01
CGA:  55    -0.675561141750E+03   -0.68544E-02   -0.64288E-02  8424   0.132E+00-0.214E-01
CGA:  56    -0.675568067976E+03   -0.69262E-02   -0.67480E-02  8424   0.169E+00-0.182E-01
SDA:  57    -0.675576401679E+03   -0.83337E-02   -0.79212E-02  8424   0.234E+00-0.242E-01
CGA:  58    -0.675601625037E+03   -0.25223E-01   -0.25107E-01  8424   0.845E-01-0.134E-03
CGA:  59    -0.675625130723E+03   -0.23506E-01   -0.25610E-01  8424   0.113E+00-0.923E-02
CGA:  60    -0.675667176850E+03   -0.42046E-01   -0.15735E-03  8424   0.118E+00-0.306E-01
CGA:  61    -0.675670218343E+03   -0.30415E-02   -0.10927E-01  8424   0.633E+00-0.143E+00
CGA:  62    -0.675776075757E+03   -0.10586E+00   -0.10872E+00  8424   0.178E+00-0.132E-01
CGA:  63    -0.675825647013E+03   -0.49571E-01   -0.49748E-01  8424   0.102E+00-0.516E-02
CGA:  64    -0.675863672694E+03   -0.38026E-01   -0.39792E-01  8424   0.498E-01-0.122E-01
CGA:  65    -0.675878306661E+03   -0.14634E-01   -0.15781E-01  8424   0.473E-01-0.120E-01
CGA:  66    -0.675890867770E+03   -0.12561E-01   -0.25427E-01  8424   0.689E-01-0.291E-01
CGA:  67    -0.675904796360E+03   -0.13929E-01   -0.13722E-01  8424   0.161E-01-0.230E-02
CGA:  68    -0.675910010099E+03   -0.52137E-02   -0.52250E-02  8424   0.819E-02-0.225E-03
CGA:  69    -0.675913581866E+03   -0.35718E-02   -0.41165E-02  8424   0.761E-02-0.247E-02
CGA:  70    -0.675915379633E+03   -0.17978E-02   -0.18545E-02  8424   0.398E-02-0.121E-02
CGA:  71    -0.675916579683E+03   -0.12001E-02   -0.17880E-02  8424   0.777E-02-0.259E-02
CGA:  72    -0.675918125949E+03   -0.15463E-02   -0.15475E-02  8424   0.179E-02 0.165E-04
CGA:  73    -0.675918352061E+03   -0.22611E-03   -0.18079E-02  8424   0.137E-01-0.226E-02
CGA:  74    -0.675920302107E+03   -0.19500E-02   -0.20408E-02  8424   0.121E-02 0.507E-03
CGA:  75    -0.675920780649E+03   -0.47854E-03   -0.51805E-03  8424   0.135E-02-0.504E-03
CGA:  76    -0.675921344029E+03   -0.56338E-03    0.23856E-02  8424   0.130E-02 0.384E-03
CGA:  77    -0.675921566187E+03   -0.22216E-03   -0.16875E-02  8424   0.126E-01-0.223E-02
CGA:  78    -0.675924290763E+03   -0.27246E-02   -0.26156E-02  8424   0.159E-02-0.684E-03
CGA:  79    -0.675924537763E+03   -0.24700E-03   -0.27672E-03  8424   0.392E-03 0.165E-03
CGA:  80    -0.675924581404E+03   -0.43642E-04   -0.14657E-03  8424   0.670E-02-0.528E-03
CGA:  81    -0.675926089402E+03   -0.15080E-02   -0.13612E-02  8424   0.160E-02-0.367E-03
CGA:  82    -0.675926530663E+03   -0.44126E-03   -0.45919E-03  8424   0.672E-03 0.564E-04
CGA:  83    -0.675926996520E+03   -0.46586E-03   -0.50135E-03  8424   0.124E-02-0.324E-03
CGA:  84    -0.675918374734E+03    0.86218E-02   -0.45519E-02  8424   0.322E-01-0.353E-02
CGA:  85    -0.675929236873E+03   -0.10862E-01   -0.10766E-01  8424   0.168E-01-0.336E-03
CGA:  86    -0.675934438586E+03   -0.52017E-02   -0.53095E-02  8424   0.323E-02 0.213E-03
CGA:  87    -0.675935489855E+03   -0.10513E-02   -0.94515E-03  8424   0.108E-02-0.146E-03
CGA:  88    -0.675935881123E+03   -0.39127E-03   -0.37293E-03  8424   0.637E-03-0.329E-04
CGA:  89    -0.675936351752E+03   -0.47063E-03   -0.35762E-03  8424   0.107E-02-0.298E-03
CGA:  90    -0.675908403788E+03    0.27948E-01   -0.14868E-01  8424   0.132E+00-0.669E-02
CGA:  91    -0.675938851910E+03   -0.30448E-01   -0.30392E-01  8424   0.392E-01-0.169E-02
CGA:  92    -0.675950965162E+03   -0.12113E-01   -0.11901E-01  8424   0.120E-01 0.192E-03
CGA:  93    -0.675955767603E+03   -0.48024E-02   -0.41971E-02  8424   0.437E-02-0.592E-03
CGA:  94    -0.675957564924E+03   -0.17973E-02   -0.13879E-02  8424   0.209E-02-0.353E-03
CGA:  95    -0.675959577861E+03   -0.20129E-02   -0.11251E-02  8424   0.322E-02-0.102E-02
CGA:  96    -0.675962418170E+03   -0.28403E-02   -0.20273E-02  8424   0.161E-01-0.424E-02
CGA:  97    -0.675967795367E+03   -0.53772E-02   -0.50484E-02  8424   0.701E-02-0.433E-03
CGA:  98    -0.675970182961E+03   -0.23876E-02   -0.22429E-02  8424   0.231E-02-0.115E-03
CGA:  99    -0.675971697080E+03   -0.15141E-02   -0.10054E-02  8424   0.215E-02-0.597E-03
CGA: 100    -0.675973598507E+03   -0.19014E-02   -0.22175E-02  8424   0.146E-01-0.269E-02
CGA: 101    -0.675977037046E+03   -0.34385E-02   -0.30136E-02  8424   0.424E-02-0.755E-03
CGA: 102    -0.675979216884E+03   -0.21798E-02   -0.17332E-02  8424   0.292E-02-0.562E-03
CGA: 103    -0.675981763504E+03   -0.25466E-02   -0.17195E-02  8424   0.410E-02-0.168E-02
CGA: 104    -0.675982832808E+03   -0.10693E-02   -0.92674E-03  8424   0.124E-02-0.112E-03
CGA: 105    -0.675983576049E+03   -0.74324E-03   -0.18652E-02  8424   0.218E-01-0.264E-02
CGA: 106    -0.675986783627E+03   -0.32076E-02   -0.32129E-02  8424   0.204E-02 0.614E-03
CGA: 107    -0.675988327036E+03   -0.15434E-02   -0.11176E-02  8424   0.210E-02-0.781E-03
CGA: 108    -0.675989161785E+03   -0.83475E-03   -0.16867E-02  8424   0.139E-01-0.356E-02
CGA: 109    -0.675993313495E+03   -0.41517E-02   -0.39650E-02  8424   0.332E-02-0.248E-03
CGA: 110    -0.675995388151E+03   -0.20747E-02   -0.17052E-02  8424   0.137E-02-0.734E-03
CGA: 111    -0.675996540196E+03   -0.11520E-02   -0.79245E-03  8424   0.694E-02-0.140E-02
CGA: 112    -0.675997688312E+03   -0.11481E-02   -0.10425E-02  8424   0.599E-03-0.465E-04
CGA: 113    -0.675999388933E+03   -0.17006E-02    0.55603E-03  8424   0.153E-02-0.217E-03
CGA: 114    -0.676002021866E+03   -0.26329E-02    0.10966E-02  8424   0.101E-01-0.243E-02
CGA: 115    -0.676004664618E+03   -0.26428E-02   -0.22154E-02  8424   0.369E-02-0.651E-03
CGA: 116    -0.676006140526E+03   -0.14759E-02   -0.12888E-02  8424   0.747E-03-0.343E-03
CGA: 117    -0.676006771186E+03   -0.63066E-03   -0.36596E-03  8424   0.289E-02-0.771E-03
CGA: 118    -0.676007289986E+03   -0.51880E-03   -0.42609E-03  8424   0.277E-03-0.112E-03
CGA: 119    -0.676008360549E+03   -0.10706E-02    0.77932E-04  8424   0.110E-02-0.102E-03
CGA: 120    -0.676012330475E+03   -0.39699E-02    0.11770E-03  8424   0.320E-02-0.883E-03
CGA: 121    -0.676013911725E+03   -0.15812E-02   -0.13720E-02  8424   0.181E-02-0.520E-03
CGA: 122    -0.676014262509E+03   -0.35078E-03   -0.28472E-03  8424   0.278E-03-0.103E-03
CGA: 123    -0.676014814354E+03   -0.55185E-03    0.29248E-03  8424   0.144E-02-0.337E-03
CGA: 124    -0.676015263958E+03   -0.44960E-03   -0.31841E-03  8424   0.220E-03-0.235E-03
CGA: 125    -0.676015773052E+03   -0.50909E-03    0.82740E-04  8424   0.106E-02-0.199E-03
CGA: 126    -0.676016049978E+03   -0.27693E-03   -0.18667E-03  8424   0.153E-03-0.156E-03
CGA: 127    -0.676016614037E+03   -0.56406E-03    0.23817E-04  8424   0.539E-03-0.773E-04
CGA: 128    -0.676016752447E+03   -0.13841E-03   -0.95296E-04  8424   0.136E-03-0.776E-04
CGA: 129    -0.676017328243E+03   -0.57580E-03    0.16025E-04  8424   0.316E-03-0.391E-04
CGA: 130    -0.676019031179E+03   -0.17029E-02    0.17736E-04  8424   0.393E-03 0.979E-04
CGA: 131    -0.676021644618E+03   -0.26134E-02    0.67769E-04  8424   0.653E-03-0.904E-04
CGA: 132    -0.676025633042E+03   -0.39884E-02    0.37337E-04  8424   0.217E-02-0.420E-03
CGA: 133    -0.676026129650E+03   -0.49661E-03   -0.40067E-03  8424   0.443E-03-0.193E-03
CGA: 134    -0.676026205151E+03   -0.75501E-04   -0.86546E-04  8424   0.277E-04 0.241E-04
CGA: 135    -0.676026260254E+03   -0.55103E-04    0.20857E-04  8424   0.137E-03-0.183E-04
CGA: 136    -0.676026316536E+03   -0.56282E-04   -0.31347E-04  8424   0.740E-04-0.597E-04
CGA: 137    -0.676026430434E+03   -0.11390E-03    0.11083E-04  8424   0.399E-04 0.102E-04
CGA: 138    -0.676026576378E+03   -0.14594E-03    0.91028E-05  8424   0.544E-04 0.126E-04
CGA: 139    -0.676026842448E+03   -0.26607E-03    0.11399E-04  8424   0.146E-03 0.122E-04
CGA: 140    -0.676027663585E+03   -0.82114E-03    0.21214E-04  8424   0.182E-03 0.103E-03
CGA: 141    -0.676027770821E+03   -0.10724E-03   -0.77215E-04  8424   0.241E-03-0.148E-03
CGA: 142    -0.676027795914E+03   -0.25092E-04   -0.36684E-04  8424   0.239E-04 0.250E-04
CGA: 143    -0.676027882892E+03   -0.86978E-04    0.44193E-05  8424   0.782E-04-0.156E-04
CGA: 144    -0.676027925557E+03   -0.42665E-04   -0.32383E-04  8424   0.103E-03-0.574E-04
CGA: 145    -0.676027991216E+03   -0.65659E-04   -0.50025E-04  8424   0.383E-03-0.157E-03
CGA: 146    -0.676028031876E+03   -0.40660E-04   -0.52676E-04  8424   0.241E-04 0.278E-04
CGA: 147    -0.676028110456E+03   -0.78580E-04    0.41923E-05  8424   0.597E-04-0.117E-04
CGA: 148    -0.676028368284E+03   -0.25783E-03    0.13284E-05  8424   0.202E-03 0.368E-05
CGA: 149    -0.676029434081E+03   -0.10658E-02    0.17276E-04  8424   0.132E-03 0.140E-03
CGA: 150    -0.676029494548E+03   -0.60467E-04   -0.51224E-04  8424   0.886E-04-0.551E-04
CGA: 151    -0.676029628348E+03   -0.13380E-03    0.10352E-04  8424   0.220E-03-0.639E-04
CGA: 152    -0.676029662268E+03   -0.33920E-04   -0.37792E-04  8424   0.351E-04 0.105E-04
CGA: 153    -0.676029756219E+03   -0.93951E-04    0.69275E-05  8424   0.432E-04-0.154E-04
CGA: 154    -0.676029917381E+03   -0.16116E-03    0.12272E-05  8424   0.615E-04 0.146E-04
CGA: 155    -0.676030251716E+03   -0.33434E-03    0.77137E-05  8424   0.440E-04 0.351E-04
CGA: 156    -0.676030345120E+03   -0.93404E-04    0.11651E-04  8424   0.118E-03-0.375E-04
CGA: 157    -0.676030359571E+03   -0.14451E-04   -0.17703E-04  8424   0.150E-04 0.864E-05
CGA: 158    -0.676030438091E+03   -0.78521E-04    0.10896E-05  8424   0.207E-04 0.593E-05
CGA: 159    -0.676030627342E+03   -0.18925E-03    0.13669E-05  8424   0.373E-04 0.200E-04
CGA: 160    -0.676030616658E+03    0.10685E-04   -0.36097E-04  8424   0.590E-03-0.103E-03
CGA: 161    -0.676030790929E+03   -0.17427E-03   -0.11405E-03  8424   0.111E-03-0.178E-03
CGA: 162    -0.676030824001E+03   -0.33072E-04   -0.27811E-04  8424   0.544E-04-0.334E-04
CGA: 163    -0.676030962052E+03   -0.13805E-03    0.37858E-05  8424   0.419E-04 0.128E-05
CGA: 164    -0.676031083817E+03   -0.12177E-03    0.61216E-05  8424   0.860E-04-0.883E-05
CGA: 165    -0.676031492757E+03   -0.40894E-03    0.35176E-05  8424   0.314E-04 0.586E-04
CGA: 166    -0.676031578315E+03   -0.85557E-04    0.47776E-05  8424   0.110E-03-0.312E-04
CGA: 167    -0.676031590041E+03   -0.11726E-04   -0.15041E-04  8424   0.131E-04 0.894E-05
CGA: 168    -0.676031660822E+03   -0.70782E-04    0.84774E-06  8424   0.203E-04 0.509E-05
CGA: 169    -0.676031852610E+03   -0.19179E-03    0.11694E-05  8424   0.368E-04 0.191E-04
CGA: 170    -0.676031806669E+03    0.45940E-04   -0.41844E-04  8424   0.932E-03-0.136E-03
CGA: 171    -0.676032031477E+03   -0.22481E-03   -0.16068E-03  8424   0.112E-03-0.185E-03
CGA: 172    -0.676032059175E+03   -0.27698E-04   -0.23238E-04  8424   0.228E-04-0.182E-04
CGA: 173    -0.676032155330E+03   -0.96155E-04    0.11526E-05  8424   0.260E-04 0.437E-05
CGA: 174    -0.676032298961E+03   -0.14363E-03    0.20654E-05  8424   0.296E-04 0.129E-04
CGA: 175    -0.676032564944E+03   -0.26598E-03    0.21404E-05  8424   0.182E-04 0.295E-04
CGA: 176    -0.676032601358E+03   -0.36414E-04    0.43684E-05  8424   0.796E-04-0.148E-04
CGA: 177    -0.676032357746E+03    0.24361E-03   -0.87204E-04  8424   0.458E-02-0.549E-03
CGA: 178    -0.676032793927E+03   -0.43618E-03   -0.51735E-03  8424   0.279E-04 0.221E-03
CGA: 179    -0.676032761727E+03    0.32200E-04   -0.30283E-04  8424   0.813E-03-0.118E-03
CGA: 180    -0.676032954668E+03   -0.19294E-03   -0.13356E-03  8424   0.881E-04-0.164E-03
CGA: 181    -0.676032976642E+03   -0.21973E-04   -0.16666E-04  8424   0.273E-04-0.194E-04
CGA: 182    -0.676033076830E+03   -0.10019E-03    0.14215E-05  8424   0.238E-04 0.366E-05
CGA: 183    -0.676033209466E+03   -0.13264E-03    0.17102E-05  8424   0.260E-04 0.115E-04
CGA: 184    -0.676033446948E+03   -0.23748E-03    0.18502E-05  8424   0.388E-04 0.173E-04
CGA: 185    -0.676033461737E+03   -0.14789E-04   -0.96526E-05  8424   0.401E-04-0.207E-04
CGA: 186    -0.676033532122E+03   -0.70385E-04    0.12014E-04  8424   0.325E-03-0.899E-04
CGA: 187    -0.676033555004E+03   -0.22882E-04   -0.34524E-04  8424   0.105E-04 0.311E-04
CGA: 188    -0.676033601689E+03   -0.46685E-04    0.80552E-06  8424   0.481E-04-0.305E-05
CGA: 189    -0.676033912092E+03   -0.31040E-03    0.90877E-06  8424   0.260E-03 0.656E-05
CGA: 190    -0.676035952696E+03   -0.20406E-02    0.10702E-04  8424   0.281E-03 0.182E-03
CGA: 191    -0.676036025421E+03   -0.72724E-04   -0.58381E-04  8424   0.272E-04-0.556E-04
CGA: 192    -0.676036097416E+03   -0.71995E-04    0.18664E-05  8424   0.178E-04-0.537E-06
CGA: 193    -0.676036182224E+03   -0.84808E-04    0.91006E-06  8424   0.202E-04 0.589E-05
CGA: 194    -0.676036355919E+03   -0.17370E-03    0.99344E-06  8424   0.255E-04 0.113E-04
CGA: 195    -0.676036350985E+03    0.49344E-05   -0.20535E-04  8424   0.383E-03-0.727E-04
CGA: 196    -0.676036472108E+03   -0.12112E-03   -0.75586E-04  8424   0.110E-03-0.167E-03
CGA: 197    -0.676036499774E+03   -0.27667E-04   -0.25671E-04  8424   0.114E-03-0.489E-04
CGA: 198    -0.676036653463E+03   -0.15369E-03    0.86495E-05  8424   0.382E-04-0.110E-04
CGA: 199    -0.676036736208E+03   -0.82745E-04    0.48136E-05  8424   0.578E-04-0.153E-04
CGA: 200    -0.676036941589E+03   -0.20538E-03    0.14337E-05  8424   0.436E-04 0.148E-04
   1 F= -.67603694E+03 E0= -.67603694E+03  d E =-.676037E+03  mag=     1.0000
       N       E                     dE             d eps       ncg     rms          ort
SDA:   1    -0.676039460200E+03   -0.27240E-02    0.00000E+00  8424   0.267E-02 0.000E+00
CGA:   2    -0.676040278979E+03   -0.81878E-03   -0.81226E-03  8424   0.950E-03-0.436E-04
CGA:   3    -0.676040519598E+03   -0.24062E-03   -0.21473E-03  8424   0.363E-03-0.119E-03
CGA:   4    -0.676040604445E+03   -0.84847E-04   -0.64353E-04  8424   0.127E-03-0.878E-04
CGA:   5    -0.676040636689E+03   -0.32244E-04   -0.23597E-04  8424   0.809E-04-0.484E-04
CGA:   6    -0.676040704010E+03   -0.67321E-04    0.16868E-04  8424   0.151E-03-0.534E-04
CGA:   7    -0.676040748271E+03   -0.44261E-04   -0.30562E-04  8424   0.790E-04-0.643E-04
CGA:   8    -0.676040811766E+03   -0.63495E-04    0.12617E-04  8424   0.647E-04-0.280E-04
CGA:   9    -0.676040892105E+03   -0.80339E-04    0.61590E-05  8424   0.442E-04-0.869E-05
CGA:  10    -0.676040992439E+03   -0.10033E-03    0.34631E-05  8424   0.364E-04-0.827E-07
CGA:  11    -0.676041114886E+03   -0.12245E-03    0.23305E-05  8424   0.418E-04-0.937E-07
CGA:  12    -0.676041312486E+03   -0.19760E-03    0.17398E-05  8424   0.242E-04 0.186E-04
CGA:  13    -0.676041462516E+03   -0.15003E-03    0.16558E-05  8424   0.269E-04 0.973E-05
CGA:  14    -0.676041669503E+03   -0.20699E-03    0.13277E-05  8424   0.295E-04 0.176E-04
CGA:  15    -0.676041708410E+03   -0.38907E-04    0.95700E-05  8424   0.401E-04-0.156E-04
CGA:  16    -0.676040466561E+03    0.12418E-02   -0.68464E-03  8424   0.114E-01-0.604E-03
CGA:  17    -0.676041964441E+03   -0.14979E-02   -0.14861E-02  8424   0.189E-03-0.269E-04
CGA:  18    -0.676042018734E+03   -0.54293E-04   -0.44748E-04  8424   0.194E-04-0.204E-04
CGA:  19    -0.676042095001E+03   -0.76267E-04    0.26590E-05  8424   0.875E-04-0.208E-04
CGA:  20    -0.676042114868E+03   -0.19867E-04   -0.15689E-04  8424   0.136E-04-0.824E-05
CGA:  21    -0.676042201203E+03   -0.86335E-04    0.93813E-06  8424   0.573E-04-0.916E-05
CGA:  22    -0.676042211774E+03   -0.10572E-04   -0.90019E-05  8424   0.101E-04-0.312E-05
CGA:  23    -0.676042290478E+03   -0.78704E-04    0.54622E-06  8424   0.208E-04 0.921E-07
CGA:  24    -0.676042501325E+03   -0.21085E-03    0.96559E-06  8424   0.280E-04 0.102E-04
CGA:  25    -0.676042888142E+03   -0.38682E-03    0.20978E-05  8424   0.262E-04 0.221E-04
CGA:  26    -0.676042904319E+03   -0.16177E-04   -0.97112E-05  8424   0.592E-04-0.245E-04
CGA:  27    -0.676042952063E+03   -0.47744E-04   -0.22799E-04  8424   0.241E-03-0.105E-03
CGA:  28    -0.676042972311E+03   -0.20248E-04   -0.27887E-04  8424   0.623E-05 0.156E-04
CGA:  29    -0.676043024315E+03   -0.52004E-04    0.34046E-06  8424   0.290E-04-0.124E-05
CGA:  30    -0.676043345384E+03   -0.32107E-03    0.62759E-06  8424   0.119E-03 0.105E-04
CGA:  31    -0.676044828356E+03   -0.14830E-02    0.69073E-05  8424   0.285E-03 0.353E-04
CGA:  32    -0.676048756850E+03   -0.39285E-02    0.13359E-04  8424   0.302E-03 0.721E-04
CGA:  33    -0.676053420344E+03   -0.46635E-02    0.11645E-04  8424   0.641E-03-0.176E-03
CGA:  34    -0.676053495224E+03   -0.74880E-04   -0.87976E-04  8424   0.198E-04 0.298E-04
CGA:  35    -0.676053497679E+03   -0.24549E-05   -0.38445E-05  8424   0.436E-05 0.368E-05
   2 F= -.67605350E+03 E0= -.67605350E+03  d E =-.165561E-01  mag=     1.0000
       N       E                     dE             d eps       ncg     rms          ort
SDA:   1    -0.676054227010E+03   -0.73179E-03    0.00000E+00  8424   0.214E-01 0.000E+00
CGA:   2    -0.676060908780E+03   -0.66818E-02   -0.66903E-02  8424   0.635E-02 0.383E-04
CGA:   3    -0.676062319556E+03   -0.14108E-02   -0.13794E-02  8424   0.204E-02-0.107E-03
CGA:   4    -0.676062655743E+03   -0.33619E-03   -0.33205E-03  8424   0.450E-03-0.129E-04
CGA:   5    -0.676062710358E+03   -0.54615E-04   -0.68764E-04  8424   0.854E-04 0.434E-04
CGA:   6    -0.676062715656E+03   -0.52981E-05   -0.14191E-04  8424   0.234E-04 0.286E-04
   3 F= -.67606272E+03 E0= -.67606272E+03  d E =-.921798E-02  mag=     1.0000
       N       E                     dE             d eps       ncg     rms          ort
SDA:   1    -0.663618392174E+03    0.12444E+02    0.00000E+00  8424   0.329E+02 0.000E+00
CGA:   2    -0.673068751077E+03   -0.94504E+01   -0.94718E+01  8424   0.122E+02 0.356E-01
CGA:   3    -0.675326279983E+03   -0.22575E+01   -0.22949E+01  8424   0.384E+01-0.675E-01
CGA:   4    -0.676041411017E+03   -0.71513E+00   -0.71480E+00  8424   0.792E+00-0.316E-02
CGA:   5    -0.676182013588E+03   -0.14060E+00   -0.14051E+00  8424   0.212E+00-0.148E-04
CGA:   6    -0.676221324011E+03   -0.39310E-01   -0.39880E-01  8424   0.538E-01 0.207E-02
CGA:   7    -0.676237102963E+03   -0.15779E-01   -0.15826E-01  8424   0.221E-01 0.449E-03
CGA:   8    -0.676242624672E+03   -0.55217E-02   -0.55815E-02  8424   0.858E-02 0.487E-03
CGA:   9    -0.676244550698E+03   -0.19260E-02   -0.21326E-02  8424   0.303E-02 0.164E-02
CGA:  10    -0.676245162394E+03   -0.61170E-03   -0.80629E-03  8424   0.134E-02 0.140E-02
CGA:  11    -0.676245294308E+03   -0.13191E-03   -0.33464E-03  8424   0.688E-03 0.109E-02
CGA:  12    -0.676245274858E+03    0.19450E-04   -0.95299E-04  8424   0.490E-03 0.551E-03
CGA:  13    -0.676245231178E+03    0.43680E-04   -0.57684E-04  8424   0.439E-03 0.463E-03
CGA:  14    -0.676245184162E+03    0.47016E-04   -0.46396E-04  8424   0.410E-03 0.425E-03
CGA:  15    -0.676245137107E+03    0.47055E-04   -0.39944E-04  8424   0.391E-03 0.401E-03
CGA:  16    -0.676245091028E+03    0.46079E-04   -0.35488E-04  8424   0.376E-03 0.383E-03
CGA:  17    -0.676245046325E+03    0.44703E-04   -0.32109E-04  8424   0.364E-03 0.370E-03
CGA:  18    -0.676245003157E+03    0.43168E-04   -0.29396E-04  8424   0.355E-03 0.359E-03
CGA:  19    -0.676244961578E+03    0.41579E-04   -0.27131E-04  8424   0.347E-03 0.351E-03
CGA:  20    -0.676244921588E+03    0.39990E-04   -0.25190E-04  8424   0.340E-03 0.343E-03
CGA:  21    -0.676244883160E+03    0.38428E-04   -0.23494E-04  8424   0.333E-03 0.337E-03
CGA:  22    -0.676244846254E+03    0.36907E-04   -0.21989E-04  8424   0.328E-03 0.331E-03
CGA:  23    -0.676244810820E+03    0.35434E-04   -0.20640E-04  8424   0.323E-03 0.326E-03
CGA:  24    -0.676244776806E+03    0.34014E-04   -0.19419E-04  8424   0.319E-03 0.321E-03
CGA:  25    -0.676244744159E+03    0.32647E-04   -0.18308E-04  8424   0.315E-03 0.317E-03
CGA:  26    -0.676244712823E+03    0.31336E-04   -0.17298E-04  8424   0.312E-03 0.313E-03
CGA:  27    -0.676244682742E+03    0.30081E-04   -0.16374E-04  8424   0.309E-03 0.310E-03
CGA:  28    -0.676244653864E+03    0.28878E-04   -0.15519E-04  8424   0.306E-03 0.307E-03
CGA:  29    -0.676244626138E+03    0.27725E-04   -0.14724E-04  8424   0.303E-03 0.304E-03
CGA:  30    -0.676244599518E+03    0.26620E-04   -0.13983E-04  8424   0.301E-03 0.302E-03
CGA:  31    -0.676244573957E+03    0.25561E-04   -0.13290E-04  8424   0.299E-03 0.300E-03
CGA:  32    -0.676244549413E+03    0.24545E-04   -0.12642E-04  8424   0.296E-03 0.297E-03
CGA:  33    -0.676244525843E+03    0.23570E-04   -0.12032E-04  8424   0.295E-03 0.295E-03
CGA:  34    -0.676244503207E+03    0.22635E-04   -0.11460E-04  8424   0.293E-03 0.293E-03
CGA:  35    -0.676244481469E+03    0.21739E-04   -0.10920E-04  8424   0.291E-03 0.292E-03
CGA:  36    -0.676244460590E+03    0.20878E-04   -0.10412E-04  8424   0.289E-03 0.290E-03
CGA:  37    -0.676244440536E+03    0.20054E-04   -0.99312E-05  8424   0.288E-03 0.288E-03
CGA:  38    -0.676244421273E+03    0.19263E-04   -0.94769E-05  8424   0.286E-03 0.287E-03
CGA:  39    -0.676244402769E+03    0.18504E-04   -0.90468E-05  8424   0.285E-03 0.285E-03
CGA:  40    -0.676244384993E+03    0.17777E-04   -0.86392E-05  8424   0.284E-03 0.284E-03
CGA:  41    -0.676244367914E+03    0.17079E-04   -0.82524E-05  8424   0.283E-03 0.283E-03
CGA:  42    -0.676244351504E+03    0.16410E-04   -0.78852E-05  8424   0.281E-03 0.282E-03
CGA:  43    -0.676244335737E+03    0.15768E-04   -0.75362E-05  8424   0.280E-03 0.281E-03
CGA:  44    -0.676244320585E+03    0.15152E-04   -0.72042E-05  8424   0.279E-03 0.280E-03
CGA:  45    -0.676244306024E+03    0.14561E-04   -0.68883E-05  8424   0.278E-03 0.279E-03
CGA:  46    -0.676244292030E+03    0.13994E-04   -0.65873E-05  8424   0.277E-03 0.278E-03
CGA:  47    -0.676244278579E+03    0.13451E-04   -0.63005E-05  8424   0.276E-03 0.277E-03
CGA:  48    -0.676244265650E+03    0.12929E-04   -0.60269E-05  8424   0.276E-03 0.276E-03
CGA:  49    -0.676244253223E+03    0.12428E-04   -0.57659E-05  8424   0.275E-03 0.275E-03
CGA:  50    -0.676244241276E+03    0.11947E-04   -0.55166E-05  8424   0.274E-03 0.274E-03
CGA:  51    -0.676244229791E+03    0.11485E-04   -0.52784E-05  8424   0.273E-03 0.273E-03
CGA:  52    -0.676244218750E+03    0.11041E-04   -0.50508E-05  8424   0.272E-03 0.273E-03
CGA:  53    -0.676244208135E+03    0.10615E-04   -0.48333E-05  8424   0.272E-03 0.272E-03
CGA:  54    -0.676244197931E+03    0.10205E-04   -0.46254E-05  8424   0.271E-03 0.271E-03
CGA:  55    -0.676244188120E+03    0.98110E-05   -0.44266E-05  8424   0.270E-03 0.270E-03
   4 F= -.67624419E+03 E0= -.67624419E+03  d E =-.181472E+00  mag=     1.0000
       N       E                     dE             d eps       ncg     rms          ort
SDA:   1    -0.675518230502E+03    0.72597E+00    0.00000E+00  8424   0.206E+01 0.000E+00
CGA:   2    -0.676022817075E+03   -0.50459E+00   -0.50324E+00  8424   0.910E+00 0.738E-02
CGA:   3    -0.676199987648E+03   -0.17717E+00   -0.17557E+00  8424   0.247E+00 0.132E-01
CGA:   4    -0.676242595513E+03   -0.42608E-01   -0.42267E-01  8424   0.624E-01 0.375E-02
CGA:   5    -0.676253437815E+03   -0.10842E-01   -0.10761E-01  8424   0.125E-01 0.921E-03
CGA:   6    -0.676255877873E+03   -0.24401E-02   -0.22679E-02  8424   0.272E-02 0.189E-02
CGA:   7    -0.676256313476E+03   -0.43560E-03   -0.38392E-03  8424   0.116E-02 0.169E-02
CGA:   8    -0.676256399894E+03   -0.86418E-04   -0.96433E-04  8424   0.787E-03 0.930E-03
CGA:   9    -0.676256431237E+03   -0.31343E-04   -0.51225E-04  8424   0.649E-03 0.708E-03
CGA:  10    -0.676256445783E+03   -0.14546E-04   -0.36206E-04  8424   0.567E-03 0.602E-03
CGA:  11    -0.676256452158E+03   -0.63750E-05   -0.28078E-04  8424   0.512E-03 0.536E-03
CGA:  12    -0.676256453876E+03   -0.17184E-05   -0.22877E-04  8424   0.472E-03 0.489E-03
CGA:  13    -0.676256452717E+03    0.11594E-05   -0.19231E-04  8424   0.440E-03 0.453E-03
CGA:  14    -0.676256449697E+03    0.30197E-05   -0.16522E-04  8424   0.415E-03 0.425E-03
CGA:  15    -0.676256445445E+03    0.42520E-05   -0.14425E-04  8424   0.394E-03 0.402E-03
CGA:  16    -0.676256440370E+03    0.50746E-05   -0.12751E-04  8424   0.376E-03 0.383E-03
CGA:  17    -0.676256434751E+03    0.56192E-05   -0.11382E-04  8424   0.361E-03 0.367E-03
CGA:  18    -0.676256428782E+03    0.59689E-05   -0.10242E-04  8424   0.348E-03 0.353E-03
   5 F= -.67625643E+03 E0= -.67625643E+03  d E =-.122407E-01  mag=     1.0000
       N       E                     dE             d eps       ncg     rms          ort
SDA:   1    -0.676167387931E+03    0.89047E-01    0.00000E+00  8424   0.237E+00 0.000E+00
CGA:   2    -0.676232433977E+03   -0.65046E-01   -0.64776E-01  8424   0.944E-01 0.133E-02
CGA:   3    -0.676249949463E+03   -0.17515E-01   -0.16841E-01  8424   0.236E-01 0.691E-02
CGA:   4    -0.676254509282E+03   -0.45598E-02   -0.43759E-02  8424   0.567E-02 0.208E-02
CGA:   5    -0.676255526722E+03   -0.10174E-02   -0.94540E-03  8424   0.122E-02 0.112E-02
CGA:   6    -0.676255659893E+03   -0.13317E-03   -0.13400E-03  8424   0.595E-03 0.937E-03
CGA:   7    -0.676255677756E+03   -0.17863E-04   -0.34842E-04  8424   0.434E-03 0.502E-03
CGA:   8    -0.676255680642E+03   -0.28859E-05   -0.20372E-04  8424   0.369E-03 0.400E-03
CGA:   9    -0.676255678740E+03    0.19013E-05   -0.14898E-04  8424   0.331E-03 0.349E-03
CGA:  10    -0.676255674667E+03    0.40730E-05   -0.11858E-04  8424   0.305E-03 0.317E-03
   6 F= -.67625567E+03 E0= -.67625567E+03  d E =0.754115E-03  mag=     1.0000
       N       E                     dE             d eps       ncg     rms          ort
SDA:   1    -0.675344953736E+03    0.91073E+00    0.00000E+00  8424   0.219E+01 0.000E+00
CGA:   2    -0.676030774019E+03   -0.68582E+00   -0.68751E+00  8424   0.829E+00-0.686E-02
CGA:   3    -0.676182487952E+03   -0.15171E+00   -0.15032E+00  8424   0.214E+00 0.154E-01
CGA:   4    -0.676221214354E+03   -0.38726E-01   -0.38746E-01  8424   0.489E-01-0.290E-03
CGA:   5    -0.676229516385E+03   -0.83020E-02   -0.83057E-02  8424   0.114E-01-0.623E-04
CGA:   6    -0.676231514164E+03   -0.19978E-02   -0.18786E-02  8424   0.246E-02 0.197E-02
CGA:   7    -0.676231977747E+03   -0.46358E-03   -0.41500E-03  8424   0.104E-02 0.133E-02
CGA:   8    -0.676232089450E+03   -0.11170E-03   -0.11246E-03  8424   0.625E-03 0.743E-03
CGA:   9    -0.676232120002E+03   -0.30552E-04   -0.48449E-04  8424   0.518E-03 0.562E-03
CGA:  10    -0.676232134636E+03   -0.14634E-04   -0.34436E-04  8424   0.452E-03 0.479E-03
CGA:  11    -0.676232141155E+03   -0.65190E-05   -0.26537E-04  8424   0.406E-03 0.425E-03
CGA:  12    -0.676232142930E+03   -0.17753E-05   -0.21382E-04  8424   0.372E-03 0.386E-03
CGA:  13    -0.676232141748E+03    0.11827E-05   -0.17747E-04  8424   0.345E-03 0.356E-03
CGA:  14    -0.676232138657E+03    0.30906E-05   -0.15052E-04  8424   0.323E-03 0.332E-03
CGA:  15    -0.676232134319E+03    0.43378E-05   -0.12982E-04  8424   0.306E-03 0.313E-03
CGA:  16    -0.676232129167E+03    0.51526E-05   -0.11349E-04  8424   0.291E-03 0.297E-03
CGA:  17    -0.676232123493E+03    0.56741E-05   -0.10032E-04  8424   0.278E-03 0.283E-03
   7 F= -.67623212E+03 E0= -.67623212E+03  d E =0.235512E-01  mag=     1.0000
       N       E                     dE             d eps       ncg     rms          ort
SDA:   1    -0.675536252236E+03    0.69588E+00    0.00000E+00  8424   0.172E+01 0.000E+00
CGA:   2    -0.676001449194E+03   -0.46520E+00   -0.46580E+00  8424   0.828E+00-0.321E-02
CGA:   3    -0.676155711037E+03   -0.15426E+00   -0.15366E+00  8424   0.205E+00 0.637E-02
CGA:   4    -0.676190064100E+03   -0.34353E-01   -0.34222E-01  8424   0.483E-01 0.191E-02
CGA:   5    -0.676198255355E+03   -0.81913E-02   -0.80856E-02  8424   0.943E-02 0.164E-02
CGA:   6    -0.676200091268E+03   -0.18359E-02   -0.16998E-02  8424   0.212E-02 0.195E-02
CGA:   7    -0.676200493383E+03   -0.40212E-03   -0.36349E-03  8424   0.837E-03 0.116E-02
CGA:   8    -0.676200574434E+03   -0.81050E-04   -0.85759E-04  8424   0.525E-03 0.627E-03
CGA:   9    -0.676200596496E+03   -0.22062E-04   -0.38861E-04  8424   0.434E-03 0.472E-03
CGA:  10    -0.676200605169E+03   -0.86726E-05   -0.27030E-04  8424   0.380E-03 0.403E-03
CGA:  11    -0.676200607532E+03   -0.23635E-05   -0.20714E-04  8424   0.344E-03 0.359E-03
CGA:  12    -0.676200606409E+03    0.11231E-05   -0.16705E-04  8424   0.316E-03 0.328E-03
CGA:  13    -0.676200603209E+03    0.32000E-05   -0.13914E-04  8424   0.295E-03 0.304E-03
CGA:  14    -0.676200598727E+03    0.44819E-05   -0.11855E-04  8424   0.278E-03 0.285E-03
CGA:  15    -0.676200593447E+03    0.52799E-05   -0.10272E-04  8424   0.264E-03 0.270E-03
   8 F= -.67620059E+03 E0= -.67620059E+03  d E =0.315300E-01  mag=     1.0000
       N       E                     dE             d eps       ncg     rms          ort
SDA:   1    -0.675698577173E+03    0.50202E+00    0.00000E+00  8424   0.121E+01 0.000E+00
CGA:   2    -0.676031758891E+03   -0.33318E+00   -0.33293E+00  8424   0.637E+00 0.121E-02
CGA:   3    -0.676148774398E+03   -0.11702E+00   -0.11709E+00  8424   0.142E+00-0.972E-03
CGA:   4    -0.676171433271E+03   -0.22659E-01   -0.22550E-01  8424   0.330E-01 0.189E-02
CGA:   5    -0.676177015632E+03   -0.55824E-02   -0.54463E-02  8424   0.621E-02 0.237E-02
CGA:   6    -0.676178235583E+03   -0.12200E-02   -0.11213E-02  8424   0.149E-02 0.163E-02
CGA:   7    -0.676178482311E+03   -0.24673E-03   -0.23430E-03  8424   0.618E-03 0.934E-03
CGA:   8    -0.676178532842E+03   -0.50531E-04   -0.58678E-04  8424   0.407E-03 0.481E-03
CGA:   9    -0.676178545810E+03   -0.12967E-04   -0.28215E-04  8424   0.337E-03 0.366E-03
CGA:  10    -0.676178549068E+03   -0.32583E-05   -0.19384E-04  8424   0.296E-03 0.313E-03
CGA:  11    -0.676178547989E+03    0.10789E-05   -0.14764E-04  8424   0.269E-03 0.280E-03
CGA:  12    -0.676178544644E+03    0.33452E-05   -0.11871E-04  8424   0.248E-03 0.256E-03
   9 F= -.67617854E+03 E0= -.67617854E+03  d E =0.220488E-01  mag=     1.0000
       N       E                     dE             d eps       ncg     rms          ort
SDA:   1    -0.675263795357E+03    0.91475E+00    0.00000E+00  8424   0.228E+01 0.000E+00
CGA:   2    -0.675897823389E+03   -0.63403E+00   -0.63331E+00  8424   0.111E+01 0.381E-02
CGA:   3    -0.676102255427E+03   -0.20443E+00   -0.20475E+00  8424   0.274E+00-0.418E-02
CGA:   4    -0.676147622372E+03   -0.45367E-01   -0.45325E-01  8424   0.643E-01 0.693E-03
CGA:   5    -0.676158348420E+03   -0.10726E-01   -0.10633E-01  8424   0.123E-01 0.179E-02
CGA:   6    -0.676160901023E+03   -0.25526E-02   -0.24548E-02  8424   0.279E-02 0.125E-02
CGA:   7    -0.676161479057E+03   -0.57803E-03   -0.52921E-03  8424   0.862E-03 0.934E-03
CGA:   8    -0.676161625097E+03   -0.14604E-03   -0.14410E-03  8424   0.425E-03 0.650E-03
CGA:   9    -0.676161653736E+03   -0.28638E-04   -0.39052E-04  8424   0.293E-03 0.340E-03
CGA:  10    -0.676161659673E+03   -0.59371E-05   -0.19991E-04  8424   0.248E-03 0.267E-03
CGA:  11    -0.676161659882E+03   -0.20913E-06   -0.14292E-04  8424   0.221E-03 0.232E-03
CGA:  12    -0.676161657475E+03    0.24071E-05   -0.11160E-04  8424   0.202E-03 0.210E-03
  10 F= -.67616166E+03 E0= -.67616166E+03  d E =0.168872E-01  mag=     1.0000
       N       E                     dE             d eps       ncg     rms          ort
SDA:   1    -0.675689280114E+03    0.47238E+00    0.00000E+00  8424   0.126E+01 0.000E+00
CGA:   2    -0.676015461468E+03   -0.32618E+00   -0.32570E+00  8424   0.574E+00 0.310E-02
CGA:   3    -0.676125709020E+03   -0.11025E+00   -0.11036E+00  8424   0.155E+00-0.150E-02
CGA:   4    -0.676151552401E+03   -0.25843E-01   -0.25842E-01  8424   0.375E-01-0.522E-05
CGA:   5    -0.676157865757E+03   -0.63134E-02   -0.62889E-02  8424   0.725E-02 0.534E-03
CGA:   6    -0.676159351273E+03   -0.14855E-02   -0.14478E-02  8424   0.162E-02 0.520E-03
CGA:   7    -0.676159657189E+03   -0.30592E-03   -0.28449E-03  8424   0.505E-03 0.594E-03
CGA:   8    -0.676159724937E+03   -0.67748E-04   -0.76108E-04  8424   0.266E-03 0.421E-03
CGA:   9    -0.676159736965E+03   -0.12028E-04   -0.22117E-04  8424   0.192E-03 0.220E-03
CGA:  10    -0.676159738140E+03   -0.11747E-05   -0.12214E-04  8424   0.163E-03 0.175E-03
  11 F= -.67615974E+03 E0= -.67615974E+03  d E =0.191933E-02  mag=     1.0000
       N       E                     dE             d eps       ncg     rms          ort
SDA:   1    -0.675999014259E+03    0.16072E+00    0.00000E+00  8424   0.450E+00 0.000E+00
CGA:   2    -0.676117706796E+03   -0.11869E+00   -0.11850E+00  8424   0.225E+00 0.127E-02
CGA:   3    -0.676159991066E+03   -0.42284E-01   -0.42213E-01  8424   0.542E-01 0.115E-02
CGA:   4    -0.676168851332E+03   -0.88603E-02   -0.88464E-02  8424   0.128E-01 0.425E-03
CGA:   5    -0.676171069027E+03   -0.22177E-02   -0.22088E-02  8424   0.256E-02 0.221E-03
CGA:   6    -0.676171577480E+03   -0.50845E-03   -0.49057E-03  8424   0.571E-03 0.326E-03
CGA:   7    -0.676171654686E+03   -0.77205E-04   -0.80829E-04  8424   0.225E-03 0.328E-03
CGA:   8    -0.676171663181E+03   -0.84957E-05   -0.18358E-04  8424   0.153E-03 0.180E-03
  12 F= -.67617166E+03 E0= -.67617166E+03  d E =-.119250E-01  mag=     1.0000
       N       E                     dE             d eps       ncg     rms          ort
SDA:   1    -0.675817466861E+03    0.35419E+00    0.00000E+00  8424   0.915E+00 0.000E+00
CGA:   2    -0.676093755153E+03   -0.27629E+00   -0.27685E+00  8424   0.372E+00-0.323E-02
CGA:   3    -0.676161167293E+03   -0.67412E-01   -0.67223E-01  8424   0.935E-01 0.449E-02
CGA:   4    -0.676177864525E+03   -0.16697E-01   -0.16678E-01  8424   0.218E-01 0.535E-03
CGA:   5    -0.676181547018E+03   -0.36825E-02   -0.36750E-02  8424   0.461E-02 0.290E-03
CGA:   6    -0.676182395521E+03   -0.84850E-03   -0.82697E-03  8424   0.100E-02 0.643E-03
CGA:   7    -0.676182600170E+03   -0.20465E-03   -0.19466E-03  8424   0.355E-03 0.398E-03
CGA:   8    -0.676182641401E+03   -0.41232E-04   -0.53391E-04  8424   0.196E-03 0.313E-03
CGA:   9    -0.676182644807E+03   -0.34059E-05   -0.14821E-04  8424   0.147E-03 0.165E-03
  13 F= -.67618264E+03 E0= -.67618264E+03  d E =-.109816E-01  mag=     1.0000
       N       E                     dE             d eps       ncg     rms          ort
SDA:   1    -0.676063882894E+03    0.11876E+00    0.00000E+00  8424   0.280E+00 0.000E+00
CGA:   2    -0.676144510292E+03   -0.80627E-01   -0.80731E-01  8424   0.131E+00-0.703E-03
CGA:   3    -0.676167951606E+03   -0.23441E-01   -0.23393E-01  8424   0.304E-01 0.140E-02
CGA:   4    -0.676173112368E+03   -0.51608E-02   -0.51458E-02  8424   0.727E-02 0.709E-03
CGA:   5    -0.676174317570E+03   -0.12052E-02   -0.11977E-02  8424   0.141E-02 0.556E-03
CGA:   6    -0.676174553385E+03   -0.23581E-03   -0.23317E-03  8424   0.353E-03 0.467E-03
CGA:   7    -0.676174590660E+03   -0.37275E-04   -0.49240E-04  8424   0.174E-03 0.272E-03
CGA:   8    -0.676174594156E+03   -0.34958E-05   -0.13477E-04  8424   0.126E-03 0.145E-03
  14 F= -.67617459E+03 E0= -.67617459E+03  d E =0.805065E-02  mag=     1.0000
       N       E                     dE             d eps       ncg     rms          ort
SDA:   1    -0.675763097358E+03    0.41149E+00    0.00000E+00  8424   0.909E+00 0.000E+00
CGA:   2    -0.676066774323E+03   -0.30368E+00   -0.30392E+00  8424   0.409E+00-0.129E-02
CGA:   3    -0.676133994679E+03   -0.67220E-01   -0.67202E-01  8424   0.823E-01 0.108E-02
CGA:   4    -0.676148320763E+03   -0.14326E-01   -0.14310E-01  8424   0.213E-01 0.642E-03
CGA:   5    -0.676151914854E+03   -0.35941E-02   -0.35847E-02  8424   0.419E-02 0.557E-03
CGA:   6    -0.676152734374E+03   -0.81952E-03   -0.80067E-03  8424   0.919E-03 0.538E-03
CGA:   7    -0.676152914166E+03   -0.17979E-03   -0.17440E-03  8424   0.314E-03 0.360E-03
CGA:   8    -0.676152951555E+03   -0.37389E-04   -0.48741E-04  8424   0.171E-03 0.268E-03
CGA:   9    -0.676152955039E+03   -0.34834E-05   -0.13714E-04  8424   0.126E-03 0.143E-03
  15 F= -.67615296E+03 E0= -.67615296E+03  d E =0.216391E-01  mag=     1.0000
       N       E                     dE             d eps       ncg     rms          ort
SDA:   1    -0.676044170990E+03    0.10878E+00    0.00000E+00  8424   0.278E+00 0.000E+00
CGA:   2    -0.676113707166E+03   -0.69536E-01   -0.69405E-01  8424   0.135E+00 0.121E-02
CGA:   3    -0.676139889992E+03   -0.26183E-01   -0.26185E-01  8424   0.344E-01-0.660E-04
CGA:   4    -0.676145557092E+03   -0.56671E-02   -0.56655E-02  8424   0.818E-02 0.110E-03
CGA:   5    -0.676146937656E+03   -0.13806E-02   -0.13770E-02  8424   0.161E-02 0.224E-03
CGA:   6    -0.676147241249E+03   -0.30359E-03   -0.29647E-03  8424   0.350E-03 0.269E-03
