       N       E                     dE             d eps       ncg     rms          ort
DAV:   1     0.829086926387E+04    0.82909E+04   -0.24705E+05  8424   0.239E+03
DAV:   2     0.920154762320E+03   -0.73707E+04   -0.69206E+04  8424   0.659E+02
DAV:   3    -0.677179167297E+03   -0.15973E+04   -0.14062E+04  8424   0.283E+02
DAV:   4    -0.833762596251E+03   -0.15658E+03   -0.15384E+03  8424   0.858E+01
DAV:   5    -0.836291993174E+03   -0.25294E+01   -0.25180E+01  8424   0.122E+01
SDA:   6    -0.247833843522E+03    0.58846E+03   -0.25180E+01  8424   0.562E+04 0.000E+00
CGA:   7    -0.350809387905E+03   -0.10298E+03   -0.40282E+03  8424   0.157E+05-0.165E+04
CGA:   8    -0.455224748681E+03   -0.10442E+03   -0.55506E+03  8424   0.231E+04-0.309E+04
CGA:   9    -0.505558611301E+03   -0.50334E+02   -0.74982E+02  8424   0.394E+04-0.388E+04
CGA:  10    -0.510637208424E+03   -0.50786E+01   -0.30077E+03  8424   0.205E+04-0.624E+03
CGA:  11    -0.586826173228E+03   -0.76189E+02   -0.57545E+02  8424   0.309E+04 0.373E+04
CGA:  12    -0.502396995163E+03    0.84429E+02   -0.16220E+03  8424   0.315E+04-0.115E+04
CGA:  13    -0.594947495916E+03   -0.92551E+02   -0.71653E+02  8424   0.635E+03-0.382E+03
CGA:  14    -0.634138791610E+03   -0.39191E+02   -0.10458E+02  8424   0.539E+03 0.970E+03
CGA:  15    -0.636692239385E+03   -0.25534E+01   -0.18506E+02  8424   0.784E+03-0.561E+03
CGA:  16    -0.630913354247E+03    0.57789E+01   -0.37546E+02  8424   0.996E+03-0.548E+03
CGA:  17    -0.632637138000E+03   -0.17238E+01   -0.37934E+02  8424   0.817E+03-0.594E+03
CGA:  18    -0.631623838214E+03    0.10133E+01   -0.32043E+02  8424   0.872E+03-0.690E+03
CGA:  19    -0.634878665676E+03   -0.32548E+01   -0.33098E+02  8424   0.830E+03-0.756E+03
CGA:  20    -0.640847734326E+03   -0.59691E+01   -0.30037E+02  8424   0.560E+03-0.561E+03
CGA:  21    -0.650779678448E+03   -0.99319E+01   -0.17145E+02  8424   0.360E+03-0.475E+03
CGA:  22    -0.650759012536E+03    0.20666E-01   -0.12320E+02  8424   0.305E+03-0.237E+03
CGA:  23    -0.655505511476E+03   -0.47465E+01   -0.83149E+01  8424   0.308E+03-0.350E+03
CGA:  24    -0.654341539794E+03    0.11640E+01   -0.10260E+02  8424   0.280E+03-0.200E+03
CGA:  25    -0.658144043258E+03   -0.38025E+01   -0.74105E+01  8424   0.271E+03-0.316E+03
CGA:  26    -0.656624863435E+03    0.15192E+01   -0.91159E+01  8424   0.275E+03-0.193E+03
CGA:  27    -0.659355151806E+03   -0.27303E+01   -0.76888E+01  8424   0.252E+03-0.266E+03
CGA:  28    -0.659219480687E+03    0.13567E+00   -0.78935E+01  8424   0.232E+03-0.191E+03
CGA:  29    -0.661354205763E+03   -0.21347E+01   -0.65945E+01  8424   0.193E+03-0.198E+03
CGA:  30    -0.662581629261E+03   -0.12274E+01   -0.53818E+01  8424   0.182E+03-0.183E+03
CGA:  31    -0.663486542148E+03   -0.90491E+00   -0.51678E+01  8424   0.130E+03-0.118E+03
CGA:  32    -0.665600362415E+03   -0.21138E+01   -0.30750E+01  8424   0.740E+02-0.108E+03
CGA:  33    -0.665817336381E+03   -0.21697E+00   -0.22001E+01  8424   0.622E+02-0.430E+02
CGA:  34    -0.666933303257E+03   -0.11160E+01   -0.13262E+01  8424   0.192E+02-0.255E+02
CGA:  35    -0.668328022707E+03   -0.13947E+01   -0.12153E+01  8424   0.499E+01 0.389E+01
CGA:  36    -0.668692277885E+03   -0.36426E+00   -0.37716E+00  8424   0.110E+02 0.204E+00
CGA:  37    -0.669254638224E+03   -0.56236E+00   -0.58711E+00  8424   0.202E+02-0.701E+01
CGA:  38    -0.669888576936E+03   -0.63394E+00   -0.71846E+00  8424   0.367E+01-0.307E+01
CGA:  39    -0.670198512175E+03   -0.30994E+00   -0.28649E+00  8424   0.423E+01 0.761E+00
CGA:  40    -0.670858176855E+03   -0.65966E+00   -0.56158E+00  8424   0.178E+01 0.180E+01
CGA:  41    -0.671151550054E+03   -0.29337E+00   -0.28545E+00  8424   0.875E+00 0.241E+00
CGA:  42    -0.671342458758E+03   -0.19091E+00   -0.17376E+00  8424   0.522E+00 0.164E+00
CGA:  43    -0.671440779994E+03   -0.98321E-01   -0.98337E-01  8424   0.272E+00-0.181E-02
CGA:  44    -0.671496622652E+03   -0.55843E-01   -0.62870E-01  8424   0.176E+00-0.498E-01
CGA:  45    -0.671525557381E+03   -0.28935E-01   -0.34577E-01  8424   0.708E-01-0.366E-01
CGA:  46    -0.671535453494E+03   -0.98961E-02   -0.11763E-01  8424   0.346E-01-0.168E-01
CGA:  47    -0.671542343715E+03   -0.68902E-02   -0.83644E-02  8424   0.298E-01-0.671E-02
CGA:  48    -0.671547893351E+03   -0.55496E-02   -0.77522E-02  8424   0.352E-01-0.104E-01
CGA:  49    -0.671552436020E+03   -0.45427E-02   -0.53197E-02  8424   0.166E-01-0.734E-02
CGA:  50    -0.671555214511E+03   -0.27785E-02   -0.27291E-02  8424   0.751E-02 0.603E-03
CGA:  51    -0.671557429558E+03   -0.22150E-02   -0.18953E-02  8424   0.567E-02 0.293E-02
CGA:  52    -0.671559335002E+03   -0.19054E-02   -0.16683E-02  8424   0.367E-02 0.332E-02
CGA:  53    -0.671560029380E+03   -0.69438E-03   -0.66584E-03  8424   0.271E-02 0.759E-03
CGA:  54    -0.671561065194E+03   -0.10358E-02   -0.79743E-03  8424   0.207E-02 0.243E-02
CGA:  55    -0.671561505108E+03   -0.43991E-03   -0.40321E-03  8424   0.163E-02 0.840E-03
CGA:  56    -0.671562611020E+03   -0.11059E-02   -0.76944E-03  8424   0.173E-02 0.182E-02
CGA:  57    -0.671563166211E+03   -0.55519E-03   -0.50879E-03  8424   0.196E-02 0.347E-03
CGA:  58    -0.671565107271E+03   -0.19411E-02   -0.13287E-02  8424   0.280E-02 0.153E-02
CGA:  59    -0.671565830955E+03   -0.72368E-03   -0.73652E-03  8424   0.211E-02-0.178E-03
CGA:  60    -0.671567000472E+03   -0.11695E-02   -0.14784E-02  8424   0.101E-01-0.574E-03
CGA:  61    -0.671573855819E+03   -0.68553E-02   -0.44869E-04  8424   0.642E-01-0.394E-02
CGA:  62    -0.671584436122E+03   -0.10580E-01   -0.93875E-02  8424   0.590E-01-0.675E-02
CGA:  63    -0.671594901836E+03   -0.10466E-01   -0.92591E-02  8424   0.205E-01-0.846E-02
CGA:  64    -0.671597914825E+03   -0.30130E-02   -0.26763E-02  8424   0.912E-02-0.193E-02
CGA:  65    -0.671599315137E+03   -0.14003E-02   -0.14326E-02  8424   0.540E-02 0.157E-04
CGA:  66    -0.671600055114E+03   -0.73998E-03   -0.93470E-03  8424   0.447E-02 0.942E-03
CGA:  67    -0.671600751871E+03   -0.69676E-03   -0.96913E-03  8424   0.353E-02 0.158E-02
CGA:  68    -0.671601341678E+03   -0.58981E-03   -0.83133E-03  8424   0.250E-02 0.141E-02
CGA:  69    -0.671601877227E+03   -0.53555E-03   -0.68430E-03  8424   0.177E-02 0.104E-02
CGA:  70    -0.671602277809E+03   -0.40058E-03   -0.48349E-03  8424   0.127E-02 0.593E-03
CGA:  71    -0.671602661126E+03   -0.38332E-03   -0.41162E-03  8424   0.117E-02 0.346E-03
CGA:  72    -0.671603100777E+03   -0.43965E-03   -0.43828E-03  8424   0.163E-02-0.816E-04
CGA:  73    -0.671603633266E+03   -0.53249E-03   -0.68936E-03  8424   0.362E-02-0.121E-02
CGA:  74    -0.671604859627E+03   -0.12264E-02   -0.12288E-02  8424   0.275E-02-0.156E-03
CGA:  75    -0.671605778705E+03   -0.91908E-03   -0.95242E-03  8424   0.249E-02-0.893E-03
CGA:  76    -0.671606925368E+03   -0.11467E-02    0.57155E-02  8424   0.135E-02 0.307E-03
CGA:  77    -0.671608014934E+03   -0.10896E-02    0.23807E-02  8424   0.101E-02 0.332E-03
CGA:  78    -0.671608918240E+03   -0.90331E-03    0.18946E-02  8424   0.952E-03 0.517E-04
CGA:  79    -0.671609803376E+03   -0.88514E-03    0.45524E-03  8424   0.716E-03 0.303E-03
CGA:  80    -0.671610515159E+03   -0.71178E-03    0.96740E-03  8424   0.809E-03 0.396E-03
CGA:  81    -0.671610624336E+03   -0.10918E-03   -0.14300E-03  8424   0.384E-03 0.226E-03
CGA:  82    -0.671610702479E+03   -0.78143E-04   -0.10889E-03  8424   0.264E-03 0.316E-03
CGA:  83    -0.671610804567E+03   -0.10209E-03   -0.10028E-03  8424   0.494E-03 0.263E-04
CGA:  84    -0.671611409527E+03   -0.60496E-03   -0.48918E-03  8424   0.622E-03 0.186E-03
CGA:  85    -0.671611866703E+03   -0.45718E-03   -0.96741E-03  8424   0.586E-02-0.684E-03
CGA:  86    -0.671613169905E+03   -0.13032E-02   -0.10983E-02  8424   0.981E-03-0.106E-02
CGA:  87    -0.671613475399E+03   -0.30549E-03   -0.33782E-03  8424   0.210E-02-0.721E-03
CGA:  88    -0.671613809164E+03   -0.33377E-03   -0.29710E-03  8424   0.247E-03-0.156E-03
CGA:  89    -0.671614069993E+03   -0.26083E-03    0.74983E-04  8424   0.184E-03 0.483E-04
CGA:  90    -0.671614493736E+03   -0.42374E-03    0.24671E-04  8424   0.116E-03 0.160E-03
CGA:  91    -0.671614637226E+03   -0.14349E-03    0.31074E-04  8424   0.110E-03 0.511E-04
CGA:  92    -0.671614926010E+03   -0.28878E-03    0.19261E-04  8424   0.120E-03 0.112E-03
CGA:  93    -0.671615059625E+03   -0.13362E-03    0.41470E-04  8424   0.157E-03 0.177E-04
CGA:  94    -0.671615351775E+03   -0.29215E-03    0.27026E-04  8424   0.180E-03 0.743E-04
CGA:  95    -0.671615803997E+03   -0.45222E-03    0.36649E-04  8424   0.118E-03 0.230E-03
CGA:  96    -0.671615897744E+03   -0.93747E-04    0.26075E-03  8424   0.187E-03-0.108E-04
CGA:  97    -0.671616144378E+03   -0.24663E-03    0.31472E-04  8424   0.188E-03 0.602E-04
CGA:  98    -0.671616507857E+03   -0.36348E-03    0.45659E-04  8424   0.249E-03 0.142E-03
CGA:  99    -0.671616591574E+03   -0.83717E-04   -0.71518E-04  8424   0.346E-03-0.157E-03
CGA: 100    -0.671616675648E+03   -0.84074E-04   -0.62959E-04  8424   0.149E-03-0.118E-03
CGA: 101    -0.671616812671E+03   -0.13702E-03    0.17693E-04  8424   0.793E-04 0.594E-04
CGA: 102    -0.671616985917E+03   -0.17325E-03    0.16121E-04  8424   0.143E-03 0.316E-04
CGA: 103    -0.671617397021E+03   -0.41110E-03    0.18258E-04  8424   0.123E-03 0.181E-03
CGA: 104    -0.671617436724E+03   -0.39702E-04   -0.34452E-04  8424   0.206E-03-0.719E-04
CGA: 105    -0.671617510322E+03   -0.73598E-04   -0.63752E-04  8424   0.578E-03-0.252E-03
CGA: 106    -0.671617578048E+03   -0.67726E-04   -0.66952E-04  8424   0.483E-04-0.105E-05
CGA: 107    -0.671617667337E+03   -0.89288E-04    0.45919E-05  8424   0.643E-04 0.323E-04
CGA: 108    -0.671617751638E+03   -0.84302E-04    0.11287E-04  8424   0.140E-03-0.108E-04
CGA: 109    -0.671618027360E+03   -0.27572E-03    0.77418E-05  8424   0.194E-03 0.107E-03
CGA: 110    -0.671618070055E+03   -0.42695E-04   -0.34425E-04  8424   0.886E-04-0.524E-04
CGA: 111    -0.671618188489E+03   -0.11843E-03    0.58979E-05  8424   0.499E-04 0.527E-04
CGA: 112    -0.671618289621E+03   -0.10113E-03    0.38991E-05  8424   0.893E-04 0.729E-05
CGA: 113    -0.671618522159E+03   -0.23254E-03    0.67850E-05  8424   0.709E-04 0.936E-04
CGA: 114    -0.671618546713E+03   -0.24554E-04   -0.29793E-04  8424   0.252E-03-0.569E-04
CGA: 115    -0.671618413075E+03    0.13364E-03   -0.16369E-03  8424   0.438E-02-0.936E-03
CGA: 116    -0.671618816289E+03   -0.40321E-03   -0.47901E-03  8424   0.756E-04 0.321E-03
CGA: 117    -0.671618828866E+03   -0.12577E-04   -0.14161E-04  8424   0.424E-04 0.963E-05
CGA: 118    -0.671618939218E+03   -0.11035E-03    0.31077E-05  8424   0.651E-04 0.379E-04
CGA: 119    -0.671619064439E+03   -0.12522E-03    0.55248E-05  8424   0.901E-04-0.151E-04
CGA: 120    -0.671619247743E+03   -0.18330E-03    0.37333E-05  8424   0.102E-03 0.620E-04
CGA: 121    -0.671619266419E+03   -0.18676E-04   -0.19946E-04  8424   0.364E-04 0.939E-05
CGA: 122    -0.671619370701E+03   -0.10428E-03    0.20714E-05  8424   0.399E-04 0.337E-04
CGA: 123    -0.671619463391E+03   -0.92690E-04    0.24557E-05  8424   0.367E-04 0.178E-04
CGA: 124    -0.671619603398E+03   -0.14001E-03    0.27429E-05  8424   0.370E-04 0.496E-04
CGA: 125    -0.671619670590E+03   -0.67191E-04    0.32686E-05  8424   0.300E-04 0.210E-04
CGA: 126    -0.671619754590E+03   -0.84001E-04    0.14393E-05  8424   0.294E-04 0.229E-04
CGA: 127    -0.671619816935E+03   -0.62345E-04    0.20544E-05  8424   0.330E-04 0.211E-04
CGA: 128    -0.671619904199E+03   -0.87263E-04    0.17015E-05  8424   0.522E-04 0.118E-04
CGA: 129    -0.671620097704E+03   -0.19350E-03    0.35176E-05  8424   0.357E-04 0.620E-04
CGA: 130    -0.671620146826E+03   -0.49122E-04    0.50488E-05  8424   0.375E-04 0.120E-04
CGA: 131    -0.671620300565E+03   -0.15374E-03    0.21350E-05  8424   0.354E-04 0.483E-04
CGA: 132    -0.671620393273E+03   -0.92708E-04    0.18479E-05  8424   0.362E-04 0.110E-04
CGA: 133    -0.671620537788E+03   -0.14452E-03    0.20400E-05  8424   0.356E-04 0.450E-04
CGA: 134    -0.671620588609E+03   -0.50821E-04    0.46830E-05  8424   0.356E-04 0.971E-05
CGA: 135    -0.671620735320E+03   -0.14671E-03    0.18074E-05  8424   0.370E-04 0.413E-04
CGA: 136    -0.671620822702E+03   -0.87381E-04    0.22247E-05  8424   0.368E-04 0.736E-05
CGA: 137    -0.671620965077E+03   -0.14238E-03    0.17688E-05  8424   0.406E-04 0.370E-04
CGA: 138    -0.671621015223E+03   -0.50147E-04    0.71104E-05  8424   0.400E-04 0.342E-05
CGA: 139    -0.671621156324E+03   -0.14110E-03    0.17182E-05  8424   0.460E-04 0.318E-04
CGA: 140    -0.671621242270E+03   -0.85946E-04    0.38829E-05  8424   0.438E-04-0.132E-05
CGA: 141    -0.671621380792E+03   -0.13852E-03    0.16803E-05  8424   0.520E-04 0.259E-04
CGA: 142    -0.671621429200E+03   -0.48409E-04    0.18695E-04  8424   0.480E-04-0.604E-05
CGA: 143    -0.671621562571E+03   -0.13337E-03    0.17508E-05  8424   0.577E-04 0.200E-04
CGA: 144    -0.671621815063E+03   -0.25249E-03    0.34541E-05  8424   0.333E-04 0.600E-04
CGA: 145    -0.671621862579E+03   -0.47516E-04    0.43927E-05  8424   0.611E-04-0.496E-05
CGA: 146    -0.671622042600E+03   -0.18002E-03    0.19051E-05  8424   0.677E-04 0.395E-04
CGA: 147    -0.671622146540E+03   -0.10394E-03    0.78426E-05  8424   0.129E-03-0.472E-04
CGA: 148    -0.671622167311E+03   -0.20771E-04   -0.18257E-04  8424   0.279E-04-0.128E-04
CGA: 149    -0.671622240614E+03   -0.73304E-04    0.10696E-05  8424   0.203E-04 0.189E-04
CGA: 150    -0.671622320998E+03   -0.80384E-04    0.59229E-06  8424   0.197E-04 0.142E-04
CGA: 151    -0.671622373513E+03   -0.52515E-04    0.94098E-06  8424   0.199E-04 0.142E-04
CGA: 152    -0.671622452752E+03   -0.79238E-04    0.57590E-06  8424   0.217E-04 0.131E-04
CGA: 153    -0.671622502577E+03   -0.49826E-04    0.12643E-05  8424   0.300E-04 0.889E-05
CGA: 154    -0.671622657497E+03   -0.15492E-03    0.13583E-05  8424   0.237E-04 0.376E-04
CGA: 155    -0.671622743789E+03   -0.86292E-04    0.76912E-06  8424   0.254E-04 0.787E-05
CGA: 156    -0.671622879408E+03   -0.13562E-03    0.97877E-06  8424   0.235E-04 0.334E-04
CGA: 157    -0.671622921165E+03   -0.41756E-04    0.19916E-05  8424   0.260E-04 0.693E-05
CGA: 158    -0.671623060016E+03   -0.13885E-03    0.94242E-06  8424   0.237E-04 0.331E-04
CGA: 159    -0.671623147530E+03   -0.87514E-04    0.75226E-06  8424   0.272E-04 0.562E-05
CGA: 160    -0.671623286140E+03   -0.13861E-03    0.94011E-06  8424   0.245E-04 0.328E-04
CGA: 161    -0.671623324686E+03   -0.38547E-04    0.25237E-05  8424   0.290E-04 0.375E-05
CGA: 162    -0.671623467380E+03   -0.14269E-03    0.89543E-06  8424   0.265E-04 0.320E-04
CGA: 163    -0.671623557441E+03   -0.90061E-04    0.93555E-06  8424   0.324E-04 0.705E-06
CGA: 164    -0.671623699864E+03   -0.14242E-03    0.89058E-06  8424   0.307E-04 0.308E-04
CGA: 165    -0.671623731348E+03   -0.31484E-04    0.75011E-05  8424   0.380E-04-0.423E-05
CGA: 166    -0.671623874865E+03   -0.14352E-03    0.85339E-06  8424   0.385E-04 0.281E-04
CGA: 167    -0.671623972801E+03   -0.97937E-04    0.19618E-05  8424   0.473E-04-0.122E-04
CGA: 168    -0.671624113504E+03   -0.14070E-03    0.85098E-06  8424   0.505E-04 0.234E-04
CGA: 169    -0.671624285365E+03   -0.17186E-03    0.44555E-05  8424   0.642E-04 0.126E-04
CGA: 170    -0.671624621991E+03   -0.33663E-03    0.21887E-05  8424   0.626E-04 0.620E-04
CGA: 171    -0.671624734053E+03   -0.11206E-03    0.52411E-05  8424   0.852E-04-0.436E-04
CGA: 172    -0.671624742165E+03   -0.81121E-05   -0.10744E-04  8424   0.156E-04 0.142E-04
   1 F= -.67162474E+03 E0= -.67162026E+03  d E =-.671625E+03  mag=    15.0001
       N       E                     dE             d eps       ncg     rms          ort
SDA:   1    -0.671632293603E+03   -0.75595E-02    0.00000E+00  8424   0.324E-02 0.000E+00
CGA:   2    -0.671633219284E+03   -0.92568E-03   -0.92401E-03  8424   0.141E-02-0.931E-04
CGA:   3    -0.671633453636E+03   -0.23435E-03   -0.23779E-03  8424   0.421E-03 0.271E-04
CGA:   4    -0.671633554525E+03   -0.10089E-03   -0.94923E-04  8424   0.169E-03-0.804E-04
CGA:   5    -0.671633643356E+03   -0.88830E-04    0.17731E-03  8424   0.182E-03-0.101E-03
CGA:   6    -0.671633696869E+03   -0.53513E-04   -0.49976E-04  8424   0.391E-03-0.210E-03
CGA:   7    -0.671633754296E+03   -0.57427E-04   -0.48263E-04  8424   0.302E-04-0.548E-04
CGA:   8    -0.671633814173E+03   -0.59876E-04    0.11947E-05  8424   0.207E-04 0.579E-05
CGA:   9    -0.671633912013E+03   -0.97840E-04    0.58069E-06  8424   0.140E-04 0.199E-04
CGA:  10    -0.671633968479E+03   -0.56466E-04    0.32071E-06  8424   0.141E-04 0.962E-05
CGA:  11    -0.671634022766E+03   -0.54286E-04    0.34582E-06  8424   0.161E-04 0.849E-05
CGA:  12    -0.671634078933E+03   -0.56167E-04    0.43791E-06  8424   0.240E-04 0.442E-05
CGA:  13    -0.671634215679E+03   -0.13675E-03    0.63033E-06  8424   0.184E-04 0.272E-04
CGA:  14    -0.671634270976E+03   -0.55298E-04    0.60533E-06  8424   0.175E-04 0.557E-05
CGA:  15    -0.671634378165E+03   -0.10719E-03    0.43824E-06  8424   0.195E-04 0.183E-04
CGA:  16    -0.671634431983E+03   -0.53818E-04    0.71300E-06  8424   0.157E-04 0.646E-05
CGA:  17    -0.671634531902E+03   -0.99919E-04    0.39614E-06  8424   0.193E-04 0.153E-04
CGA:  18    -0.671634585242E+03   -0.53340E-04    0.69907E-06  8424   0.181E-04 0.601E-05
CGA:  19    -0.671634692010E+03   -0.10677E-03    0.48490E-06  8424   0.197E-04 0.142E-04
CGA:  20    -0.671634745594E+03   -0.53584E-04    0.72919E-06  8424   0.174E-04 0.677E-05
CGA:  21    -0.671634849150E+03   -0.10356E-03    0.48413E-06  8424   0.189E-04 0.128E-04
CGA:  22    -0.671634901805E+03   -0.52655E-04    0.67867E-06  8424   0.190E-04 0.629E-05
CGA:  23    -0.671635011785E+03   -0.10998E-03    0.53856E-06  8424   0.174E-04 0.138E-04
CGA:  24    -0.671635065368E+03   -0.53582E-04    0.55336E-06  8424   0.152E-04 0.832E-05
CGA:  25    -0.671635167838E+03   -0.10247E-03    0.45288E-06  8424   0.157E-04 0.139E-04
CGA:  26    -0.671635219840E+03   -0.52003E-04    0.45598E-06  8424   0.166E-04 0.734E-05
CGA:  27    -0.671635331947E+03   -0.11211E-03    0.48580E-06  8424   0.143E-04 0.165E-04
CGA:  28    -0.671635385403E+03   -0.53456E-04    0.35966E-06  8424   0.125E-04 0.912E-05
CGA:  29    -0.671635440597E+03   -0.55194E-04    0.26077E-06  8424   0.184E-04 0.588E-05
CGA:  30    -0.671635571997E+03   -0.13140E-03    0.50280E-06  8424   0.111E-04 0.253E-04
CGA:  31    -0.671635624148E+03   -0.52150E-04    0.21522E-06  8424   0.127E-04 0.847E-05
CGA:  32    -0.671635679219E+03   -0.55072E-04    0.27185E-06  8424   0.199E-04 0.475E-05
CGA:  33    -0.671635815152E+03   -0.13593E-03    0.49637E-06  8424   0.122E-04 0.259E-04
CGA:  34    -0.671635865785E+03   -0.50633E-04    0.27388E-06  8424   0.169E-04 0.586E-05
CGA:  35    -0.671635994119E+03   -0.12833E-03    0.43766E-06  8424   0.117E-04 0.228E-04
CGA:  36    -0.671636047110E+03   -0.52991E-04    0.23708E-06  8424   0.111E-04 0.808E-05
CGA:  37    -0.671636098395E+03   -0.51285E-04    0.21792E-06  8424   0.121E-04 0.790E-05
CGA:  38    -0.671636153428E+03   -0.55033E-04    0.24313E-06  8424   0.174E-04 0.528E-05
CGA:  39    -0.671636281191E+03   -0.12776E-03    0.43978E-06  8424   0.116E-04 0.231E-04
CGA:  40    -0.671636331682E+03   -0.50491E-04    0.24720E-06  8424   0.122E-04 0.719E-05
CGA:  41    -0.671636387108E+03   -0.55427E-04    0.24346E-06  8424   0.163E-04 0.528E-05
CGA:  42    -0.671636508862E+03   -0.12175E-03    0.40371E-06  8424   0.126E-04 0.210E-04
CGA:  43    -0.671636559019E+03   -0.50157E-04    0.29623E-06  8424   0.116E-04 0.645E-05
CGA:  44    -0.671636614072E+03   -0.55053E-04    0.22219E-06  8424   0.112E-04 0.708E-05
CGA:  45    -0.671636662206E+03   -0.48134E-04    0.23913E-06  8424   0.116E-04 0.708E-05
CGA:  46    -0.671636719153E+03   -0.56947E-04    0.21452E-06  8424   0.145E-04 0.568E-05
CGA:  47    -0.671636835035E+03   -0.11588E-03    0.35827E-06  8424   0.119E-04 0.198E-04
CGA:  48    -0.671636882627E+03   -0.47592E-04    0.27694E-06  8424   0.117E-04 0.624E-05
CGA:  49    -0.671636938880E+03   -0.56253E-04    0.21936E-06  8424   0.119E-04 0.618E-05
CGA:  50    -0.671636985411E+03   -0.46531E-04    0.28644E-06  8424   0.133E-04 0.542E-05
CGA:  51    -0.671637093886E+03   -0.10847E-03    0.30540E-06  8424   0.121E-04 0.184E-04
CGA:  52    -0.671637151536E+03   -0.57650E-04    0.23267E-06  8424   0.119E-04 0.566E-05
CGA:  53    -0.671637252461E+03   -0.10092E-03    0.26829E-06  8424   0.120E-04 0.169E-04
CGA:  54    -0.671637299132E+03   -0.46671E-04    0.28673E-06  8424   0.108E-04 0.607E-05
CGA:  55    -0.671637354849E+03   -0.55716E-04    0.18735E-06  8424   0.102E-04 0.685E-05
CGA:  56    -0.671637401497E+03   -0.46648E-04    0.20389E-06  8424   0.102E-04 0.709E-05
CGA:  57    -0.671637456471E+03   -0.54975E-04    0.16760E-06  8424   0.108E-04 0.676E-05
CGA:  58    -0.671637503431E+03   -0.46960E-04    0.22861E-06  8424   0.129E-04 0.547E-05
CGA:  59    -0.671637556725E+03   -0.53294E-04    0.29026E-06  8424   0.190E-04 0.181E-05
CGA:  60    -0.671637685382E+03   -0.12866E-03    0.32431E-06  8424   0.168E-04 0.206E-04
CGA:  61    -0.671637727027E+03   -0.41645E-04    0.70149E-06  8424   0.246E-04-0.303E-05
CGA:  62    -0.671637847380E+03   -0.12035E-03    0.29834E-06  8424   0.287E-04 0.185E-04
CGA:  63    -0.671637912968E+03   -0.65588E-04    0.13392E-05  8424   0.428E-04-0.178E-04
CGA:  64    -0.671637941049E+03   -0.28082E-04    0.38187E-04  8424   0.753E-04-0.392E-04
CGA:  65    -0.671638003405E+03   -0.62355E-04    0.22998E-04  8424   0.154E-03-0.894E-04
CGA:  66    -0.671638032332E+03   -0.28928E-04   -0.23226E-04  8424   0.285E-04-0.431E-04
CGA:  67    -0.671638089043E+03   -0.56711E-04    0.71104E-06  8424   0.181E-04 0.290E-05
CGA:  68    -0.671638182612E+03   -0.93569E-04    0.36625E-06  8424   0.149E-04 0.932E-05
CGA:  69    -0.671638221307E+03   -0.38696E-04    0.55768E-06  8424   0.243E-04-0.240E-05
CGA:  70    -0.671638347183E+03   -0.12588E-03    0.27763E-06  8424   0.297E-04 0.191E-04
CGA:  71    -0.671638410003E+03   -0.62820E-04    0.14451E-05  8424   0.535E-04-0.231E-04
CGA:  72    -0.671638419202E+03   -0.91990E-05   -0.20522E-04  8424   0.294E-03-0.105E-03
CGA:  73    -0.671638500415E+03   -0.81213E-04   -0.62550E-04  8424   0.293E-03-0.272E-03
CGA:  74    -0.671638529186E+03   -0.28770E-04   -0.30149E-04  8424   0.105E-04 0.932E-05
CGA:  75    -0.671638573056E+03   -0.43870E-04    0.22228E-06  8424   0.152E-04 0.334E-05
CGA:  76    -0.671638692293E+03   -0.11924E-03    0.27113E-06  8424   0.136E-04 0.197E-04
CGA:  77    -0.671638744020E+03   -0.51727E-04    0.30460E-06  8424   0.210E-04-0.102E-05
CGA:  78    -0.671638865358E+03   -0.12134E-03    0.24715E-06  8424   0.228E-04 0.185E-04
CGA:  79    -0.671638898396E+03   -0.33038E-04    0.18225E-05  8424   0.383E-04-0.138E-04
CGA:  80    -0.671638956128E+03   -0.57732E-04    0.28727E-05  8424   0.742E-04-0.372E-04
CGA:  81    -0.671638976223E+03   -0.20095E-04   -0.19502E-04  8424   0.152E-03-0.894E-04
CGA:  82    -0.671639015677E+03   -0.39454E-04   -0.43329E-04  8424   0.456E-03-0.244E-03
CGA:  83    -0.671639070303E+03   -0.54625E-04   -0.49963E-04  8424   0.151E-04-0.302E-04
CGA:  84    -0.671639109729E+03   -0.39426E-04    0.42452E-06  8424   0.218E-04-0.125E-05
CGA:  85    -0.671639224119E+03   -0.11439E-03    0.26522E-06  8424   0.157E-04 0.194E-04
CGA:  86    -0.671639275436E+03   -0.51318E-04    0.39413E-06  8424   0.317E-04-0.682E-05
CGA:  87    -0.671639412258E+03   -0.13682E-03    0.17347E-06  8424   0.601E-04 0.151E-04
CGA:  88    -0.671639700428E+03   -0.28817E-03    0.22373E-05  8424   0.709E-04 0.531E-05
CGA:  89    -0.671640102877E+03   -0.40245E-03    0.11298E-05  8424   0.289E-04 0.649E-04
CGA:  90    -0.671640163056E+03   -0.60178E-04    0.12722E-05  8424   0.549E-04-0.249E-04
CGA:  91    -0.671640177548E+03   -0.14492E-04   -0.13726E-04  8424   0.110E-03-0.630E-04
CGA:  92    -0.671638088042E+03    0.20895E-02   -0.11889E-02  8424   0.247E-01-0.156E-02
CGA:  93    -0.671640490036E+03   -0.24020E-02   -0.22306E-02  8424   0.356E-03 0.281E-02
CGA:  94    -0.671640516341E+03   -0.26304E-04   -0.35233E-04  8424   0.158E-04 0.306E-04
CGA:  95    -0.671640557115E+03   -0.40775E-04    0.22179E-05  8424   0.776E-04-0.220E-04
CGA:  96    -0.671640656156E+03   -0.99041E-04    0.37433E-04  8424   0.397E-03-0.158E-03
CGA:  97    -0.671640683263E+03   -0.27106E-04   -0.44641E-04  8424   0.170E-04 0.548E-04
CGA:  98    -0.671640717931E+03   -0.34668E-04    0.36220E-05  8424   0.838E-04-0.274E-04
CGA:  99    -0.671640813888E+03   -0.95957E-04    0.49774E-04  8424   0.349E-03-0.155E-03
CGA: 100    -0.671640843531E+03   -0.29643E-04   -0.42062E-04  8424   0.121E-04 0.412E-04
CGA: 101    -0.671640884932E+03   -0.41400E-04    0.10020E-05  8424   0.436E-04-0.111E-04
CGA: 102    -0.671640983974E+03   -0.99043E-04    0.49730E-05  8424   0.149E-03-0.657E-04
CGA: 103    -0.671640995651E+03   -0.11677E-04   -0.17828E-04  8424   0.102E-04 0.216E-04
CGA: 104    -0.671641043168E+03   -0.47517E-04    0.54708E-06  8424   0.328E-04-0.635E-05
CGA: 105    -0.671641132295E+03   -0.89127E-04    0.26178E-05  8424   0.893E-04-0.402E-04
CGA: 106    -0.671641146755E+03   -0.14460E-04   -0.13824E-04  8424   0.809E-05-0.268E-05
CGA: 107    -0.671641210455E+03   -0.63700E-04    0.15510E-06  8424   0.114E-04 0.486E-05
CGA: 108    -0.671641279596E+03   -0.69142E-04    0.31207E-06  8424   0.378E-04-0.632E-05
CGA: 109    -0.671641269778E+03    0.98186E-05   -0.22978E-04  8424   0.722E-03-0.144E-03
CGA: 110    -0.671641391774E+03   -0.12200E-03   -0.90635E-04  8424   0.374E-04-0.134E-03
CGA: 111    -0.671641444195E+03   -0.52420E-04    0.45534E-05  8424   0.108E-03-0.368E-04
CGA: 112    -0.671641483684E+03   -0.39490E-04   -0.22932E-04  8424   0.121E-03-0.101E-03
CGA: 113    -0.671641508608E+03   -0.24924E-04   -0.16676E-04  8424   0.202E-04-0.340E-04
CGA: 114    -0.671641580874E+03   -0.72266E-04    0.44127E-06  8424   0.166E-04 0.671E-06
CGA: 115    -0.671641687843E+03   -0.10697E-03    0.40135E-06  8424   0.123E-04 0.776E-05
CGA: 116    -0.671641830410E+03   -0.14257E-03    0.32210E-06  8424   0.107E-04 0.118E-04
CGA: 117    -0.671641879789E+03   -0.49379E-04    0.35282E-06  8424   0.379E-04-0.641E-05
CGA: 118    -0.671641929181E+03   -0.49393E-04    0.83965E-05  8424   0.222E-03-0.770E-04
CGA: 119    -0.671641958294E+03   -0.29113E-04   -0.24362E-04  8424   0.818E-05-0.164E-04
CGA: 120    -0.671642016587E+03   -0.58292E-04    0.12991E-06  8424   0.948E-05 0.421E-05
CGA: 121    -0.671642064421E+03   -0.47835E-04    0.26164E-06  8424   0.288E-04-0.332E-05
CGA: 122    -0.671642276032E+03   -0.21161E-03    0.21235E-06  8424   0.750E-04 0.149E-04
CGA: 123    -0.671642241199E+03    0.34832E-04   -0.43889E-04  8424   0.165E-02-0.330E-03
CGA: 124    -0.671642394810E+03   -0.15361E-03   -0.15816E-03  8424   0.789E-05 0.632E-04
CGA: 125    -0.671642441113E+03   -0.46302E-04    0.19716E-06  8424   0.235E-04-0.137E-05
CGA: 126    -0.671642645996E+03   -0.20488E-03    0.23516E-06  8424   0.516E-04 0.163E-04
CGA: 127    -0.671642702357E+03   -0.56361E-04    0.15306E-04  8424   0.248E-03-0.985E-04
CGA: 128    -0.671642728392E+03   -0.26035E-04   -0.25805E-04  8424   0.697E-05 0.188E-05
CGA: 129    -0.671642775723E+03   -0.47330E-04    0.12846E-06  8424   0.822E-05 0.365E-05
CGA: 130    -0.671642832401E+03   -0.56679E-04    0.14688E-06  8424   0.981E-05 0.196E-05
CGA: 131    -0.671642942345E+03   -0.10994E-03    0.16099E-06  8424   0.907E-05 0.119E-04
CGA: 132    -0.671642985378E+03   -0.43033E-04    0.24704E-06  8424   0.101E-04 0.120E-05
CGA: 133    -0.671643090210E+03   -0.10483E-03    0.14933E-06  8424   0.985E-05 0.112E-04
CGA: 134    -0.671643148262E+03   -0.58052E-04    0.20933E-06  8424   0.102E-04 0.616E-06
CGA: 135    -0.671643249165E+03   -0.10090E-03    0.13853E-06  8424   0.102E-04 0.104E-04
CGA: 136    -0.671643290058E+03   -0.40893E-04    0.33700E-06  8424   0.965E-05 0.657E-06
CGA: 137    -0.671643384794E+03   -0.94736E-04    0.13341E-06  8424   0.960E-05 0.978E-05
CGA: 138    -0.671643443144E+03   -0.58351E-04    0.19716E-06  8424   0.851E-05 0.146E-05
CGA: 139    -0.671643535371E+03   -0.92227E-04    0.12478E-06  8424   0.871E-05 0.917E-05
CGA: 140    -0.671643576747E+03   -0.41375E-04    0.23696E-06  8424   0.750E-05 0.241E-05
CGA: 141    -0.671643665719E+03   -0.88973E-04    0.12355E-06  8424   0.789E-05 0.879E-05
CGA: 142    -0.671643722346E+03   -0.56627E-04    0.13491E-06  8424   0.690E-05 0.304E-05
CGA: 143    -0.671643812686E+03   -0.90339E-04    0.12080E-06  8424   0.763E-05 0.849E-05
CGA: 144    -0.671643855337E+03   -0.42651E-04    0.17245E-06  8424   0.694E-05 0.316E-05
CGA: 145    -0.671643944924E+03   -0.89587E-04    0.12902E-06  8424   0.766E-05 0.834E-05
CGA: 146    -0.671644000782E+03   -0.55857E-04    0.12855E-06  8424   0.741E-05 0.284E-05
CGA: 147    -0.671644094439E+03   -0.93658E-04    0.13199E-06  8424   0.825E-05 0.806E-05
CGA: 148    -0.671644136595E+03   -0.42156E-04    0.20630E-06  8424   0.785E-05 0.243E-05
CGA: 149    -0.671644226340E+03   -0.89745E-04    0.13820E-06  8424   0.883E-05 0.756E-05
CGA: 150    -0.671644283018E+03   -0.56677E-04    0.17079E-06  8424   0.897E-05 0.155E-05
CGA: 151    -0.671644377565E+03   -0.94547E-04    0.14122E-06  8424   0.102E-04 0.697E-05
CGA: 152    -0.671644417969E+03   -0.40404E-04    0.34482E-06  8424   0.918E-05 0.956E-06
CGA: 153    -0.671644503652E+03   -0.85684E-04    0.14192E-06  8424   0.108E-04 0.617E-05
CGA: 154    -0.671644561478E+03   -0.57826E-04    0.25597E-06  8424   0.117E-04-0.547E-06
CGA: 155    -0.671644658230E+03   -0.96751E-04    0.15463E-06  8424   0.137E-04 0.525E-05
CGA: 156    -0.671644810126E+03   -0.15190E-03    0.31356E-06  8424   0.108E-04 0.149E-04
CGA: 157    -0.671644862187E+03   -0.52061E-04    0.28740E-06  8424   0.220E-04-0.427E-05
CGA: 158    -0.671645002748E+03   -0.14056E-03    0.14934E-06  8424   0.334E-04 0.568E-05
CGA: 159    -0.671645241939E+03   -0.23919E-03    0.92624E-06  8424   0.923E-04-0.146E-04
CGA: 160    -0.671645964825E+03   -0.72289E-03    0.43506E-06  8424   0.359E-03 0.926E-05
CGA: 161    -0.671649086573E+03   -0.31217E-02    0.60703E-05  8424   0.153E-03 0.149E-03
CGA: 162    -0.671650560926E+03   -0.14744E-02    0.38952E-05  8424   0.123E-03 0.269E-04
CGA: 163    -0.671651727043E+03   -0.11661E-02    0.21846E-05  8424   0.170E-03-0.196E-04
CGA: 164    -0.671653373142E+03   -0.16461E-02    0.14698E-05  8424   0.144E-03 0.224E-04
CGA: 165    -0.671654849703E+03   -0.14766E-02    0.21523E-05  8424   0.252E-03-0.334E-04
CGA: 166    -0.671657502784E+03   -0.26531E-02    0.16525E-05  8424   0.270E-03-0.106E-03
CGA: 167    -0.671660392888E+03   -0.28901E-02    0.97572E-06  8424   0.586E-03-0.204E-03
CGA: 168    -0.671660461840E+03   -0.68953E-04   -0.75424E-04  8424   0.636E-04 0.248E-04
CGA: 169    -0.671660460191E+03    0.16491E-05   -0.71353E-05  8424   0.252E-04 0.407E-04
   2 F= -.67166046E+03 E0= -.67165609E+03  d E =-.357180E-01  mag=    15.0001
       N       E                     dE             d eps       ncg     rms          ort
SDA:   1    -0.666765523063E+03    0.48949E+01    0.00000E+00  8424   0.146E+02 0.000E+00
CGA:   2    -0.670693817834E+03   -0.39283E+01   -0.39299E+01  8424   0.540E+01 0.108E-01
CGA:   3    -0.671715738202E+03   -0.10219E+01   -0.10213E+01  8424   0.171E+01 0.119E-01
CGA:   4    -0.672012483345E+03   -0.29675E+00   -0.29265E+00  8424   0.385E+00 0.313E-01
CGA:   5    -0.672079839510E+03   -0.67356E-01   -0.67116E-01  8424   0.826E-01-0.771E-04
CGA:   6    -0.672096895446E+03   -0.17056E-01   -0.16958E-01  8424   0.224E-01-0.131E-02
CGA:   7    -0.672102045052E+03   -0.51496E-02   -0.51340E-02  8424   0.838E-02-0.348E-03
CGA:   8    -0.672103939935E+03   -0.18949E-02   -0.19210E-02  8424   0.282E-02 0.606E-03
CGA:   9    -0.672104624544E+03   -0.68461E-03   -0.69890E-03  8424   0.105E-02 0.337E-03
CGA:  10    -0.672104892695E+03   -0.26815E-03   -0.27775E-03  8424   0.395E-03 0.272E-03
CGA:  11    -0.672105040690E+03   -0.14800E-03   -0.14656E-03  8424   0.167E-03 0.558E-04
CGA:  12    -0.672105095070E+03   -0.54380E-04   -0.53841E-04  8424   0.817E-04 0.455E-04
CGA:  13    -0.672105099225E+03   -0.41553E-05   -0.14217E-04  8424   0.547E-04 0.746E-04
   3 F= -.67210510E+03 E0= -.67209989E+03  d E =-.444639E+00  mag=    15.0123
       N       E                     dE             d eps       ncg     rms          ort
SDA:   1    -0.657850257573E+03    0.14255E+02    0.00000E+00  8424   0.400E+02 0.000E+00
CGA:   2    -0.668713161811E+03   -0.10863E+02   -0.10859E+02  8424   0.141E+02 0.116E+00
CGA:   3    -0.671448726044E+03   -0.27356E+01   -0.27318E+01  8424   0.455E+01 0.439E-02
CGA:   4    -0.672239370229E+03   -0.79064E+00   -0.73415E+00  8424   0.985E+00 0.206E+00
CGA:   5    -0.672418291800E+03   -0.17892E+00   -0.17901E+00  8424   0.220E+00 0.483E-03
CGA:   6    -0.672464689105E+03   -0.46397E-01   -0.46323E-01  8424   0.640E-01-0.213E-02
CGA:   7    -0.672478677994E+03   -0.13989E-01   -0.13928E-01  8424   0.345E-01-0.222E-02
CGA:   8    -0.672484232412E+03   -0.55544E-02   -0.56886E-02  8424   0.153E-01 0.102E-02
CGA:   9    -0.672487444594E+03   -0.32122E-02   -0.32129E-02  8424   0.548E-02 0.723E-04
CGA:  10    -0.672488769787E+03   -0.13252E-02   -0.13230E-02  8424   0.204E-02 0.716E-03
CGA:  11    -0.672489472671E+03   -0.70288E-03   -0.70925E-03  8424   0.106E-02-0.928E-04
CGA:  12    -0.672489735700E+03   -0.26303E-03   -0.26383E-03  8424   0.657E-03-0.459E-04
CGA:  13    -0.672489902745E+03   -0.16704E-03   -0.16834E-03  8424   0.622E-03-0.520E-04
CGA:  14    -0.672489948561E+03   -0.45816E-04   -0.74545E-04  8424   0.316E-03 0.251E-03
CGA:  15    -0.672489984212E+03   -0.35651E-04   -0.60080E-04  8424   0.275E-03 0.238E-03
CGA:  16    -0.672490057851E+03   -0.73639E-04   -0.80993E-04  8424   0.759E-03-0.120E-03
CGA:  17    -0.672490091022E+03   -0.33171E-04   -0.51838E-04  8424   0.797E-03 0.162E-03
CGA:  18    -0.672490113480E+03   -0.22458E-04   -0.68604E-04  8424   0.217E-03 0.272E-03
CGA:  19    -0.672490117897E+03   -0.44170E-05   -0.26147E-04  8424   0.210E-03 0.163E-03
CGA:  20    -0.672490168974E+03   -0.51077E-04   -0.53637E-04  8424   0.419E-03-0.648E-04
CGA:  21    -0.672490185069E+03   -0.16095E-04   -0.32761E-04  8424   0.324E-03 0.159E-03
CGA:  22    -0.672490188088E+03   -0.30187E-05   -0.29704E-04  8424   0.108E-03 0.178E-03
CGA:  23    -0.672490206569E+03   -0.18481E-04   -0.19971E-04  8424   0.698E-04 0.768E-04
CGA:  24    -0.672490213252E+03   -0.66830E-05   -0.10323E-04  8424   0.642E-04 0.650E-04
   4 F= -.67249021E+03 E0= -.67248320E+03  d E =-.385114E+00  mag=    15.0652
       N       E                     dE             d eps       ncg     rms          ort
SDA:   1    -0.669897719480E+03    0.25925E+01    0.00000E+00  8424   0.713E+01 0.000E+00
CGA:   2    -0.671864581649E+03   -0.19669E+01   -0.19610E+01  8424   0.271E+01 0.485E-01
CGA:   3    -0.672405956245E+03   -0.54137E+00   -0.54074E+00  8424   0.843E+00-0.123E+00
CGA:   4    -0.672542059773E+03   -0.13610E+00   -0.13640E+00  8424   0.181E+00 0.905E-02
CGA:   5    -0.672571811318E+03   -0.29752E-01   -0.29779E-01  8424   0.397E-01 0.492E-03
CGA:   6    -0.672579482400E+03   -0.76711E-02   -0.76603E-02  8424   0.171E-01-0.217E-02
CGA:   7    -0.672581749129E+03   -0.22667E-02   -0.23148E-02  8424   0.565E-02 0.566E-03
CGA:   8    -0.672583080421E+03   -0.13313E-02   -0.13359E-02  8424   0.223E-02-0.135E-03
CGA:   9    -0.672583572957E+03   -0.49254E-03   -0.48372E-03  8424   0.760E-03 0.333E-03
CGA:  10    -0.672583736737E+03   -0.16378E-03   -0.16613E-03  8424   0.394E-03 0.333E-03
CGA:  11    -0.672583876829E+03   -0.14009E-03   -0.13491E-03  8424   0.279E-03 0.124E-03
CGA:  12    -0.672583938935E+03   -0.62107E-04   -0.65652E-04  8424   0.169E-03 0.178E-03
CGA:  13    -0.672584011035E+03   -0.72099E-04   -0.66585E-04  8424   0.164E-03 0.279E-04
CGA:  14    -0.672584026100E+03   -0.15065E-04   -0.25308E-04  8424   0.117E-03 0.135E-03
CGA:  15    -0.672584051620E+03   -0.25520E-04   -0.24889E-04  8424   0.811E-04 0.687E-04
CGA:  16    -0.672584055772E+03   -0.41516E-05   -0.98292E-05  8424   0.725E-04 0.681E-04
CGA:  17    -0.672584075941E+03   -0.20170E-04   -0.17490E-04  8424   0.757E-04 0.651E-04
CGA:  18    -0.672584077646E+03   -0.17049E-05   -0.79802E-05  8424   0.678E-04 0.647E-04
CGA:  19    -0.672584091679E+03   -0.14033E-04   -0.13712E-04  8424   0.675E-04 0.646E-04
CGA:  20    -0.672584095363E+03   -0.36832E-05   -0.83641E-05  8424   0.651E-04 0.635E-04
CGA:  21    -0.672584107414E+03   -0.12051E-04   -0.12334E-04  8424   0.647E-04 0.625E-04
CGA:  22    -0.672584110869E+03   -0.34550E-05   -0.78831E-05  8424   0.628E-04 0.616E-04
CGA:  23    -0.672584120920E+03   -0.10051E-04   -0.10980E-04  8424   0.621E-04 0.608E-04
CGA:  24    -0.672584124434E+03   -0.35137E-05   -0.75693E-05  8424   0.607E-04 0.600E-04
   5 F= -.67258412E+03 E0= -.67257707E+03  d E =-.939112E-01  mag=    15.0740
       N       E                     dE             d eps       ncg     rms          ort
SDA:   1    -0.666301687282E+03    0.62824E+01    0.00000E+00  8424   0.165E+02 0.000E+00
CGA:   2    -0.670844911516E+03   -0.45432E+01   -0.45439E+01  8424   0.748E+01-0.117E-01
CGA:   3    -0.672245276339E+03   -0.14004E+01   -0.14004E+01  8424   0.184E+01 0.808E-02
CGA:   4    -0.672555853278E+03   -0.31058E+00   -0.30955E+00  8424   0.474E+00-0.130E-01
CGA:   5    -0.672631889037E+03   -0.76036E-01   -0.76217E-01  8424   0.942E-01 0.450E-02
CGA:   6    -0.672652122414E+03   -0.20233E-01   -0.20309E-01  8424   0.294E-01-0.281E-02
CGA:   7    -0.672657951064E+03   -0.58286E-02   -0.58278E-02  8424   0.101E-01-0.237E-04
CGA:   8    -0.672660522220E+03   -0.25712E-02   -0.26325E-02  8424   0.499E-02-0.864E-03
CGA:   9    -0.672661483505E+03   -0.96129E-03   -0.95389E-03  8424   0.199E-02 0.429E-03
CGA:  10    -0.672662137316E+03   -0.65381E-03   -0.67993E-03  8424   0.144E-02-0.217E-03
CGA:  11    -0.672662515564E+03   -0.37825E-03   -0.38556E-03  8424   0.904E-03-0.760E-04
CGA:  12    -0.672662757982E+03   -0.24242E-03   -0.42885E-03  8424   0.218E-02-0.634E-03
CGA:  13    -0.672663037311E+03   -0.27933E-03   -0.29924E-03  8424   0.554E-03 0.214E-03
CGA:  14    -0.672663212578E+03   -0.17527E-03   -0.17579E-03  8424   0.393E-03-0.806E-05
CGA:  15    -0.672663357699E+03   -0.14512E-03   -0.13057E-03  8424   0.310E-03 0.122E-03
CGA:  16    -0.672663548311E+03   -0.19061E-03   -0.21841E-03  8424   0.750E-03-0.925E-04
CGA:  17    -0.672663659502E+03   -0.11119E-03   -0.11248E-03  8424   0.809E-03 0.383E-04
CGA:  18    -0.672663854975E+03   -0.19547E-03   -0.19665E-03  8424   0.102E-02 0.130E-03
CGA:  19    -0.672664211012E+03   -0.35604E-03   -0.35575E-03  8424   0.975E-03-0.394E-04
CGA:  20    -0.672664587494E+03   -0.37648E-03   -0.45086E-03  8424   0.275E-02-0.386E-03
CGA:  21    -0.672664895422E+03   -0.30793E-03   -0.28886E-03  8424   0.241E-02-0.441E-03
CGA:  22    -0.672665220467E+03   -0.32504E-03   -0.30947E-03  8424   0.196E-02-0.331E-03
CGA:  23    -0.672665616185E+03   -0.39572E-03   -0.38580E-03  8424   0.133E-02-0.765E-03
CGA:  24    -0.672665799543E+03   -0.18336E-03   -0.13189E-03  8424   0.934E-03-0.699E-03
CGA:  25    -0.672666004549E+03   -0.20501E-03   -0.20781E-03  8424   0.439E-03 0.161E-03
CGA:  26    -0.672666177724E+03   -0.17318E-03   -0.17337E-03  8424   0.372E-03-0.233E-05
CGA:  27    -0.672666237627E+03   -0.59903E-04   -0.69959E-04  8424   0.185E-03 0.183E-03
CGA:  28    -0.672666283264E+03   -0.45637E-04   -0.52356E-04  8424   0.142E-03 0.130E-03
CGA:  29    -0.672666153279E+03    0.12999E-03   -0.14165E-03  8424   0.289E-02-0.359E-03
CGA:  30    -0.672666393738E+03   -0.24046E-03   -0.29314E-03  8424   0.119E-03 0.272E-03
CGA:  31    -0.672666412351E+03   -0.18613E-04   -0.22221E-04  8424   0.630E-04 0.367E-04
CGA:  32    -0.672666402676E+03    0.96750E-05   -0.71093E-04  8424   0.579E-03-0.135E-03
CGA:  33    -0.672666488801E+03   -0.86125E-04   -0.93188E-04  8424   0.121E-03 0.521E-04
CGA:  34    -0.672666419893E+03    0.68909E-04   -0.10584E-03  8424   0.133E-02-0.339E-03
CGA:  35    -0.672666543143E+03   -0.12325E-03   -0.16242E-03  8424   0.177E-03 0.165E-03
CGA:  36    -0.672666588436E+03   -0.45293E-04   -0.44855E-04  8424   0.407E-04-0.575E-05
CGA:  37    -0.672666626114E+03   -0.37677E-04    0.97621E-05  8424   0.356E-04 0.469E-05
CGA:  38    -0.672666652987E+03   -0.26873E-04    0.44767E-04  8424   0.292E-04 0.129E-05
CGA:  39    -0.672666695147E+03   -0.42160E-04    0.33997E-05  8424   0.326E-04 0.227E-04
CGA:  40    -0.672666716595E+03   -0.21448E-04    0.47632E-04  8424   0.272E-04-0.382E-06
CGA:  41    -0.672666739297E+03   -0.22702E-04    0.97045E-05  8424   0.191E-04 0.629E-05
CGA:  42    -0.672666773926E+03   -0.34629E-04    0.23893E-05  8424   0.159E-04 0.164E-04
CGA:  43    -0.672666795050E+03   -0.21124E-04    0.19567E-05  8424   0.180E-04 0.356E-05
CGA:  44    -0.672666825027E+03   -0.29977E-04    0.25955E-05  8424   0.963E-05 0.134E-04
CGA:  45    -0.672666838734E+03   -0.13707E-04    0.10411E-05  8424   0.855E-05 0.727E-05
CGA:  46    -0.672666855367E+03   -0.16633E-04    0.56635E-06  8424   0.101E-04 0.574E-05
CGA:  47    -0.672666865439E+03   -0.10072E-04    0.22215E-05  8424   0.156E-04 0.235E-05
CGA:  48    -0.672666903514E+03   -0.38075E-04    0.12485E-05  8424   0.107E-04 0.184E-04
CGA:  49    -0.672666921649E+03   -0.18135E-04    0.86910E-06  8424   0.192E-04-0.257E-06
CGA:  50    -0.672666961459E+03   -0.39810E-04    0.10945E-05  8424   0.186E-04 0.179E-04
CGA:  51    -0.672666965673E+03   -0.42140E-05   -0.37714E-05  8424   0.163E-04-0.463E-05
   6 F= -.67266697E+03 E0= -.67266142E+03  d E =-.828412E-01  mag=    15.0448
       N       E                     dE             d eps       ncg     rms          ort
SDA:   1    -0.669686119784E+03    0.29808E+01    0.00000E+00  8424   0.815E+01 0.000E+00
CGA:   2    -0.671758025160E+03   -0.20719E+01   -0.20721E+01  8424   0.402E+01 0.469E-02
CGA:   3    -0.672496409318E+03   -0.73838E+00   -0.73400E+00  8424   0.981E+00 0.142E-02
CGA:   4    -0.672664604708E+03   -0.16820E+00   -0.16809E+00  8424   0.225E+00-0.121E-02
CGA:   5    -0.672704908081E+03   -0.40303E-01   -0.40248E-01  8424   0.479E-01-0.607E-03
CGA:   6    -0.672714546064E+03   -0.96380E-02   -0.96433E-02  8424   0.131E-01 0.604E-04
CGA:   7    -0.672717379496E+03   -0.28334E-02   -0.28274E-02  8424   0.474E-02-0.114E-03
CGA:   8    -0.672718705960E+03   -0.13265E-02   -0.13416E-02  8424   0.293E-02-0.931E-03
CGA:   9    -0.672719281210E+03   -0.57525E-03   -0.56243E-03  8424   0.146E-02-0.408E-03
CGA:  10    -0.672719657077E+03   -0.37587E-03   -0.59965E-03  8424   0.241E-02-0.107E-02
CGA:  11    -0.672720024794E+03   -0.36772E-03   -0.37254E-03  8424   0.506E-03 0.368E-04
CGA:  12    -0.672720136092E+03   -0.11130E-03   -0.25864E-03  8424   0.204E-02-0.641E-03
CGA:  13    -0.672720355424E+03   -0.21933E-03   -0.23509E-03  8424   0.240E-03 0.877E-04
CGA:  14    -0.672720494070E+03   -0.13865E-03    0.78870E-02  8424   0.968E-04-0.118E-04
CGA:  15    -0.672720621534E+03   -0.12746E-03    0.83969E-05  8424   0.750E-04 0.638E-04
CGA:  16    -0.672720699556E+03   -0.78022E-04    0.11683E-04  8424   0.561E-04 0.380E-04
CGA:  17    -0.672720785721E+03   -0.86165E-04    0.43382E-05  8424   0.784E-04 0.215E-04
CGA:  18    -0.672720966228E+03   -0.18051E-03    0.74102E-05  8424   0.447E-04 0.958E-04
CGA:  19    -0.672721030797E+03   -0.64569E-04    0.37983E-05  8424   0.541E-04 0.252E-04
CGA:  20    -0.672721112585E+03   -0.81788E-04    0.42967E-05  8424   0.935E-04 0.193E-05
CGA:  21    -0.672721305611E+03   -0.19303E-03    0.51130E-05  8424   0.799E-04 0.909E-04
CGA:  22    -0.672721175818E+03    0.12979E-03   -0.69566E-04  8424   0.286E-02-0.336E-03
CGA:  23    -0.672721547652E+03   -0.37183E-03   -0.31402E-03  8424   0.803E-04-0.286E-03
CGA:  24    -0.672721595401E+03   -0.47749E-04    0.90831E-04  8424   0.123E-03-0.274E-04
CGA:  25    -0.672721781907E+03   -0.18651E-03    0.41049E-05  8424   0.864E-04 0.697E-04
CGA:  26    -0.672721864508E+03   -0.82601E-04    0.20769E-04  8424   0.172E-03-0.600E-04
CGA:  27    -0.672721889755E+03   -0.25247E-04   -0.22963E-04  8424   0.419E-04-0.145E-04
CGA:  28    -0.672721976048E+03   -0.86293E-04    0.18915E-05  8424   0.337E-04 0.270E-04
CGA:  29    -0.672722042297E+03   -0.66249E-04    0.20034E-05  8424   0.324E-04 0.171E-04
CGA:  30    -0.672722105161E+03   -0.62864E-04    0.19614E-05  8424   0.309E-04 0.176E-04
CGA:  31    -0.672722171143E+03   -0.65982E-04    0.16350E-05  8424   0.293E-04 0.182E-04
CGA:  32    -0.672722231808E+03   -0.60664E-04    0.16192E-05  8424   0.279E-04 0.189E-04
CGA:  33    -0.672722298449E+03   -0.66641E-04    0.12739E-05  8424   0.274E-04 0.191E-04
CGA:  34    -0.672722354981E+03   -0.56532E-04    0.15241E-05  8424   0.291E-04 0.180E-04
CGA:  35    -0.672722424959E+03   -0.69978E-04    0.13182E-05  8424   0.372E-04 0.132E-04
CGA:  36    -0.672722563142E+03   -0.13818E-03    0.22697E-05  8424   0.277E-04 0.498E-04
CGA:  37    -0.672722619094E+03   -0.55952E-04    0.15902E-05  8424   0.275E-04 0.154E-04
CGA:  38    -0.672722685909E+03   -0.66815E-04    0.12258E-05  8424   0.304E-04 0.138E-04
CGA:  39    -0.672722733768E+03   -0.47860E-04    0.25107E-05  8424   0.427E-04 0.689E-05
CGA:  40    -0.672722880639E+03   -0.14687E-03    0.19456E-05  8424   0.342E-04 0.475E-04
CGA:  41    -0.672722948210E+03   -0.67571E-04    0.20228E-05  8424   0.387E-04 0.393E-05
CGA:  42    -0.672723068421E+03   -0.12021E-03    0.16157E-05  8424   0.385E-04 0.376E-04
CGA:  43    -0.672723123515E+03   -0.55094E-04    0.37256E-05  8424   0.328E-04 0.195E-05
CGA:  44    -0.672723229180E+03   -0.10566E-03    0.11474E-05  8424   0.326E-04 0.339E-04
CGA:  45    -0.672723289161E+03   -0.59982E-04    0.21287E-05  8424   0.269E-04 0.645E-05
CGA:  46    -0.672723391430E+03   -0.10227E-03    0.10238E-05  8424   0.279E-04 0.316E-04
CGA:  47    -0.672723445151E+03   -0.53721E-04    0.17133E-05  8424   0.229E-04 0.937E-05
CGA:  48    -0.672723544573E+03   -0.99422E-04    0.94328E-06  8424   0.248E-04 0.299E-04
CGA:  49    -0.672723601665E+03   -0.57092E-04    0.11898E-05  8424   0.206E-04 0.107E-04
CGA:  50    -0.672723700581E+03   -0.98916E-04    0.87467E-06  8424   0.228E-04 0.288E-04
CGA:  51    -0.672723752696E+03   -0.52115E-04    0.11003E-05  8424   0.191E-04 0.112E-04
CGA:  52    -0.672723849719E+03   -0.97023E-04    0.83175E-06  8424   0.213E-04 0.278E-04
CGA:  53    -0.672723904733E+03   -0.55014E-04    0.88202E-06  8424   0.181E-04 0.113E-04
CGA:  54    -0.672723956227E+03   -0.51495E-04    0.65985E-06  8424   0.165E-04 0.132E-04
CGA:  55    -0.672724009324E+03   -0.53097E-04    0.51882E-06  8424   0.157E-04 0.140E-04
CGA:  56    -0.672724060930E+03   -0.51606E-04    0.48155E-06  8424   0.153E-04 0.142E-04
CGA:  57    -0.672724113256E+03   -0.52326E-04    0.44371E-06  8424   0.150E-04 0.143E-04
CGA:  58    -0.672724164696E+03   -0.51440E-04    0.43327E-06  8424   0.147E-04 0.143E-04
CGA:  59    -0.672724216534E+03   -0.51838E-04    0.41509E-06  8424   0.146E-04 0.141E-04
CGA:  60    -0.672724267593E+03   -0.51059E-04    0.41110E-06  8424   0.144E-04 0.140E-04
CGA:  61    -0.672724319058E+03   -0.51465E-04    0.39813E-06  8424   0.143E-04 0.138E-04
CGA:  62    -0.672724369458E+03   -0.50400E-04    0.40153E-06  8424   0.143E-04 0.135E-04
CGA:  63    -0.672724420802E+03   -0.51344E-04    0.39086E-06  8424   0.144E-04 0.132E-04
CGA:  64    -0.672724469834E+03   -0.49031E-04    0.42115E-06  8424   0.149E-04 0.126E-04
CGA:  65    -0.672724522054E+03   -0.52220E-04    0.42285E-06  8424   0.166E-04 0.113E-04
CGA:  66    -0.672724566928E+03   -0.44874E-04    0.64848E-06  8424   0.222E-04 0.789E-05
CGA:  67    -0.672724686327E+03   -0.11940E-03    0.88404E-06  8424   0.159E-04 0.305E-04
CGA:  68    -0.672724735172E+03   -0.48844E-04    0.52816E-06  8424   0.187E-04 0.839E-05
CGA:  69    -0.672724782587E+03   -0.47415E-04    0.78728E-06  8424   0.248E-04 0.398E-05
CGA:  70    -0.672724895757E+03   -0.11317E-03    0.77905E-06  8424   0.204E-04 0.293E-04
CGA:  71    -0.672724943100E+03   -0.47343E-04    0.97250E-06  8424   0.285E-04 0.417E-06
CGA:  72    -0.672725057017E+03   -0.11392E-03    0.72032E-06  8424   0.269E-04 0.284E-04
CGA:  73    -0.672725101288E+03   -0.44271E-04    0.20816E-05  8424   0.406E-04-0.935E-05
CGA:  74    -0.672725216257E+03   -0.11497E-03    0.58262E-06  8424   0.536E-04 0.247E-04
CGA:  75    -0.672725259537E+03   -0.43280E-04    0.19083E-04  8424   0.868E-04-0.451E-04
CGA:  76    -0.672725250976E+03    0.85618E-05   -0.44751E-04  8424   0.806E-03-0.234E-03
CGA:  77    -0.672725369225E+03   -0.11825E-03   -0.10709E-03  8424   0.207E-04-0.672E-04
CGA:  78    -0.672725415934E+03   -0.46709E-04    0.85735E-06  8424   0.215E-04 0.265E-05
CGA:  79    -0.672725510841E+03   -0.94907E-04    0.61782E-06  8424   0.132E-04 0.225E-04
CGA:  80    -0.672725554784E+03   -0.43943E-04    0.40926E-06  8424   0.170E-04 0.598E-05
CGA:  81    -0.672725656896E+03   -0.10211E-03    0.58364E-06  8424   0.122E-04 0.236E-04
CGA:  82    -0.672725701304E+03   -0.44409E-04    0.33442E-06  8424   0.147E-04 0.677E-05
CGA:  83    -0.672725743097E+03   -0.41792E-04    0.55266E-06  8424   0.221E-04 0.209E-05
CGA:  84    -0.672725852542E+03   -0.10945E-03    0.56849E-06  8424   0.182E-04 0.246E-04
CGA:  85    -0.672725895525E+03   -0.42983E-04    0.86176E-06  8424   0.310E-04-0.416E-05
CGA:  86    -0.672726010211E+03   -0.11469E-03    0.47814E-06  8424   0.397E-04 0.227E-04
CGA:  87    -0.672726044002E+03   -0.33791E-04    0.12436E-04  8424   0.838E-04-0.383E-04
CGA:  88    -0.672726039705E+03    0.42972E-05   -0.40117E-04  8424   0.818E-03-0.236E-03
CGA:  89    -0.672726139172E+03   -0.99467E-04   -0.94744E-04  8424   0.112E-04-0.257E-04
CGA:  90    -0.672726180748E+03   -0.41576E-04    0.28175E-06  8424   0.115E-04 0.672E-05
CGA:  91    -0.672726222289E+03   -0.41541E-04    0.32275E-06  8424   0.158E-04 0.414E-05
CGA:  92    -0.672726318955E+03   -0.96666E-04    0.46161E-06  8424   0.113E-04 0.205E-04
CGA:  93    -0.672726358552E+03   -0.39597E-04    0.32914E-06  8424   0.143E-04 0.414E-05
CGA:  94    -0.672726450404E+03   -0.91852E-04    0.40234E-06  8424   0.113E-04 0.185E-04
CGA:  95    -0.672726488907E+03   -0.38504E-04    0.33898E-06  8424   0.124E-04 0.429E-05
CGA:  96    -0.672726571256E+03   -0.82348E-04    0.34404E-06  8424   0.111E-04 0.162E-04
CGA:  97    -0.672726611591E+03   -0.40335E-04    0.30896E-06  8424   0.104E-04 0.485E-05
CGA:  98    -0.672726686191E+03   -0.74600E-04    0.28824E-06  8424   0.104E-04 0.142E-04
CGA:  99    -0.672726723080E+03   -0.36889E-04    0.29601E-06  8424   0.879E-05 0.569E-05
CGA: 100    -0.672726762546E+03   -0.39467E-04    0.19021E-06  8424   0.840E-05 0.620E-05
CGA: 101    -0.672726798584E+03   -0.36037E-04    0.19181E-06  8424   0.825E-05 0.627E-05
CGA: 102    -0.672726837705E+03   -0.39121E-04    0.16781E-06  8424   0.824E-05 0.620E-05
CGA: 103    -0.672726872827E+03   -0.35122E-04    0.18971E-06  8424   0.850E-05 0.594E-05
CGA: 104    -0.672726912601E+03   -0.39774E-04    0.17550E-06  8424   0.949E-05 0.527E-05
CGA: 105    -0.672726944331E+03   -0.31730E-04    0.29075E-06  8424   0.133E-04 0.319E-05
CGA: 106    -0.672727034457E+03   -0.90126E-04    0.33346E-06  8424   0.107E-04 0.159E-04
CGA: 107    -0.672727072554E+03   -0.38097E-04    0.30230E-06  8424   0.116E-04 0.236E-05
CGA: 108    -0.672727147641E+03   -0.75087E-04    0.25405E-06  8424   0.108E-04 0.139E-04
CGA: 109    -0.672727180970E+03   -0.33329E-04    0.36841E-06  8424   0.118E-04 0.173E-05
CGA: 110    -0.672727254214E+03   -0.73244E-04    0.24172E-06  8424   0.111E-04 0.134E-04
CGA: 111    -0.672727292058E+03   -0.37844E-04    0.33434E-06  8424   0.119E-04 0.111E-05
CGA: 112    -0.672727363887E+03   -0.71829E-04    0.22525E-06  8424   0.114E-04 0.128E-04
CGA: 113    -0.672727394876E+03   -0.30989E-04    0.45051E-06  8424   0.119E-04 0.538E-06
CGA: 114    -0.672727464357E+03   -0.69481E-04    0.21309E-06  8424   0.115E-04 0.122E-04
CGA: 115    -0.672727502039E+03   -0.37682E-04    0.36415E-06  8424   0.115E-04 0.284E-06
CGA: 116    -0.672727568965E+03   -0.66927E-04    0.19730E-06  8424   0.112E-04 0.114E-04
CGA: 117    -0.672727598305E+03   -0.29340E-04    0.46364E-06  8424   0.105E-04 0.606E-06
CGA: 118    -0.672727661977E+03   -0.63672E-04    0.18252E-06  8424   0.103E-04 0.107E-04
CGA: 119    -0.672727698736E+03   -0.36759E-04    0.28891E-06  8424   0.887E-05 0.160E-05
CGA: 120    -0.672727758600E+03   -0.59865E-04    0.16520E-06  8424   0.891E-05 0.984E-05
CGA: 121    -0.672727787827E+03   -0.29226E-04    0.27966E-06  8424   0.726E-05 0.278E-05
CGA: 122    -0.672727845074E+03   -0.57247E-04    0.14873E-06  8424   0.779E-05 0.915E-05
CGA: 123    -0.672727879726E+03   -0.34652E-04    0.17056E-06  8424   0.618E-05 0.361E-05
CGA: 124    -0.672727935271E+03   -0.55545E-04    0.13761E-06  8424   0.703E-05 0.866E-05
CGA: 125    -0.672727964609E+03   -0.29338E-04    0.16592E-06  8424   0.560E-05 0.398E-05
CGA: 126    -0.672727996017E+03   -0.31408E-04    0.94370E-07  8424   0.530E-05 0.455E-05
CGA: 127    -0.672728026912E+03   -0.30895E-04    0.85444E-07  8424   0.547E-05 0.452E-05
CGA: 128    -0.672728055480E+03   -0.28568E-04    0.99579E-07  8424   0.648E-05 0.395E-05
CGA: 129    -0.672728089419E+03   -0.33939E-04    0.11785E-06  8424   0.104E-04 0.184E-05
CGA: 130    -0.672728166940E+03   -0.77521E-04    0.21811E-06  8424   0.678E-05 0.127E-04
CGA: 131    -0.672728192726E+03   -0.25786E-04    0.17800E-06  8424   0.112E-04 0.104E-05
CGA: 132    -0.672728273872E+03   -0.81146E-04    0.19367E-06  8424   0.893E-05 0.120E-04
CGA: 133    -0.672728304336E+03   -0.30464E-04    0.26683E-06  8424   0.144E-04-0.179E-05
CGA: 134    -0.672728375634E+03   -0.71298E-04    0.17414E-06  8424   0.182E-04 0.881E-05
CGA: 135    -0.672728406309E+03   -0.30675E-04    0.13992E-05  8424   0.232E-04-0.113E-04
CGA: 136    -0.672728434589E+03   -0.28280E-04    0.30798E-05  8424   0.410E-04-0.208E-04
CGA: 137    -0.672728446653E+03   -0.12064E-04   -0.11012E-04  8424   0.849E-04-0.478E-04
CGA: 138    -0.672728443599E+03    0.30540E-05   -0.37520E-04  8424   0.942E-03-0.267E-03
CGA: 139    -0.672728512433E+03   -0.68834E-04   -0.85217E-04  8424   0.143E-04 0.751E-04
CGA: 140    -0.672728534556E+03   -0.22123E-04    0.14771E-05  8424   0.361E-04-0.147E-04
CGA: 141    -0.672728568027E+03   -0.33472E-04    0.84256E-05  8424   0.104E-03-0.507E-04
CGA: 142    -0.672728576862E+03   -0.88344E-05   -0.10055E-04  8424   0.508E-05 0.617E-05
   7 F= -.67272858E+03 E0= -.67272505E+03  d E =-.616112E-01  mag=    15.0028
       N       E                     dE             d eps       ncg     rms          ort
SDA:   1    -0.671204950400E+03    0.15236E+01    0.00000E+00  8424   0.437E+01 0.000E+00
CGA:   2    -0.672268022545E+03   -0.10631E+01   -0.10636E+01  8424   0.201E+01 0.112E-01
CGA:   3    -0.672632926180E+03   -0.36490E+00   -0.36210E+00  8424   0.588E+00-0.773E-02
CGA:   4    -0.672736674438E+03   -0.10375E+00   -0.10356E+00  8424   0.129E+00-0.222E-02
CGA:   5    -0.672760132860E+03   -0.23458E-01   -0.23325E-01  8424   0.253E-01-0.163E-02
CGA:   6    -0.672765126374E+03   -0.49935E-02   -0.50057E-02  8424   0.681E-02 0.185E-03
CGA:   7    -0.672766745130E+03   -0.16188E-02   -0.16154E-02  8424   0.254E-02-0.146E-03
CGA:   8    -0.672767520084E+03   -0.77495E-03   -0.83274E-03  8424   0.173E-02-0.757E-03
CGA:   9    -0.672767873562E+03   -0.35348E-03   -0.38709E-03  8424   0.133E-02-0.587E-03
CGA:  10    -0.672767758354E+03    0.11521E-03   -0.52691E-03  8424   0.677E-02-0.194E-02
CGA:  11    -0.672768404564E+03   -0.64621E-03   -0.71714E-03  8424   0.828E-03 0.381E-03
CGA:  12    -0.672768695232E+03   -0.29067E-03   -0.30717E-03  8424   0.543E-03-0.210E-03
CGA:  13    -0.672766751566E+03    0.19437E-02   -0.10482E-02  8424   0.107E-01-0.177E-02
CGA:  14    -0.672768646874E+03   -0.18953E-02   -0.19175E-02  8424   0.234E-02 0.648E-04
CGA:  15    -0.672769324882E+03   -0.67801E-03   -0.57987E-03  8424   0.179E-02-0.405E-03
CGA:  16    -0.672769701005E+03   -0.37612E-03   -0.35249E-03  8424   0.394E-03-0.101E-03
CGA:  17    -0.672769859029E+03   -0.15802E-03   -0.14841E-03  8424   0.354E-03-0.149E-03
CGA:  18    -0.672770086813E+03   -0.22778E-03    0.41420E-03  8424   0.540E-03-0.191E-03
CGA:  19    -0.672770140405E+03   -0.53592E-04   -0.69197E-04  8424   0.139E-03 0.459E-04
CGA:  20    -0.672770285249E+03   -0.14484E-03    0.41286E-03  8424   0.112E-03-0.505E-04
CGA:  21    -0.672770463414E+03   -0.17816E-03    0.87862E-05  8424   0.126E-03-0.580E-05
CGA:  22    -0.672770715356E+03   -0.25194E-03    0.19115E-04  8424   0.110E-03 0.461E-06
CGA:  23    -0.672771043280E+03   -0.32792E-03    0.10353E-04  8424   0.224E-03-0.342E-05
CGA:  24    -0.672771697896E+03   -0.65462E-03    0.20198E-04  8424   0.356E-03-0.366E-04
CGA:  25    -0.672772899423E+03   -0.12015E-02    0.18736E-04  8424   0.290E-03 0.421E-04
CGA:  26    -0.672773962378E+03   -0.10630E-02    0.26792E-04  8424   0.288E-03 0.315E-04
CGA:  27    -0.672774948196E+03   -0.98582E-03    0.28723E-04  8424   0.562E-03-0.181E-03
CGA:  28    -0.672775080054E+03   -0.13186E-03   -0.89154E-04  8424   0.228E-03-0.151E-03
CGA:  29    -0.672775129377E+03   -0.49323E-04   -0.47318E-04  8424   0.254E-04-0.138E-04
CGA:  30    -0.672775178757E+03   -0.49381E-04    0.34851E-05  8424   0.415E-04-0.142E-04
CGA:  31    -0.672775183229E+03   -0.44718E-05   -0.53334E-05  8424   0.502E-05 0.291E-05
   8 F= -.67277518E+03 E0= -.67277216E+03  d E =-.466064E-01  mag=    15.0000
       N       E                     dE             d eps       ncg     rms          ort
SDA:   1    -0.672040172677E+03    0.73501E+00    0.00000E+00  8424   0.206E+01 0.000E+00
CGA:   2    -0.672539564473E+03   -0.49939E+00   -0.50038E+00  8424   0.119E+01 0.990E-03
CGA:   3    -0.672734672538E+03   -0.19511E+00   -0.19870E+00  8424   0.305E+00-0.336E-01
CGA:   4    -0.672787583956E+03   -0.52911E-01   -0.52751E-01  8424   0.586E-01-0.344E-03
CGA:   5    -0.672799053616E+03   -0.11470E-01   -0.11304E-01  8424   0.125E-01-0.906E-03
CGA:   6    -0.672801430928E+03   -0.23773E-02   -0.23792E-02  8424   0.371E-02 0.434E-05
CGA:   7    -0.672802328605E+03   -0.89768E-03   -0.87342E-03  8424   0.140E-02-0.198E-03
CGA:   8    -0.672802803682E+03   -0.47508E-03   -0.47745E-03  8424   0.101E-02-0.350E-03
CGA:   9    -0.672802907288E+03   -0.10361E-03   -0.52614E-03  8424   0.425E-02-0.125E-02
CGA:  10    -0.672803419583E+03   -0.51229E-03   -0.55803E-03  8424   0.754E-03 0.200E-03
CGA:  11    -0.672803684164E+03   -0.26458E-03   -0.25325E-03  8424   0.814E-03-0.303E-03
CGA:  12    -0.672803795199E+03   -0.11104E-03   -0.95682E-04  8424   0.370E-03-0.962E-04
CGA:  13    -0.672803895941E+03   -0.10074E-03   -0.16490E-03  8424   0.128E-02-0.409E-03
CGA:  14    -0.672804166842E+03   -0.27090E-03   -0.21243E-03  8424   0.456E-03-0.316E-03
CGA:  15    -0.672804228929E+03   -0.62086E-04   -0.60909E-04  8424   0.102E-03-0.639E-05
CGA:  16    -0.672804322712E+03   -0.93783E-04    0.44362E-04  8424   0.764E-04 0.121E-04
CGA:  17    -0.672804477997E+03   -0.15529E-03    0.86014E-05  8424   0.197E-03-0.317E-04
CGA:  18    -0.672804834326E+03   -0.35633E-03    0.54757E-05  8424   0.369E-03-0.221E-04
CGA:  19    -0.672805303400E+03   -0.46907E-03    0.49907E-04  8424   0.151E-02-0.578E-03
CGA:  20    -0.672805567539E+03   -0.26414E-03   -0.20619E-03  8424   0.440E-03-0.302E-03
CGA:  21    -0.672805676894E+03   -0.10935E-03   -0.10971E-03  8424   0.854E-04 0.212E-04
CGA:  22    -0.672805771418E+03   -0.94523E-04    0.23985E-04  8424   0.925E-04-0.148E-04
CGA:  23    -0.672805833422E+03   -0.62004E-04    0.52854E-04  8424   0.888E-04-0.350E-04
CGA:  24    -0.672805958982E+03   -0.12556E-03    0.36672E-05  8424   0.570E-04-0.681E-05
CGA:  25    -0.672806084099E+03   -0.12512E-03    0.32769E-05  8424   0.362E-04 0.324E-04
CGA:  26    -0.672806128374E+03   -0.44275E-04    0.68423E-05  8424   0.287E-04 0.128E-04
CGA:  27    -0.672806213281E+03   -0.84907E-04    0.27117E-05  8424   0.324E-04 0.388E-05
CGA:  28    -0.672806306546E+03   -0.93265E-04    0.20957E-05  8424   0.295E-04-0.286E-05
CGA:  29    -0.672806449529E+03   -0.14298E-03    0.61991E-06  8424   0.278E-04 0.151E-04
CGA:  30    -0.672806492913E+03   -0.43384E-04    0.32924E-05  8424   0.146E-04 0.157E-04
CGA:  31    -0.672806537632E+03   -0.44719E-04    0.65541E-06  8424   0.152E-04 0.683E-05
CGA:  32    -0.672806602200E+03   -0.64568E-04    0.10652E-05  8424   0.131E-04 0.939E-05
CGA:  33    -0.672806650107E+03   -0.47907E-04    0.46680E-06  8424   0.418E-04-0.760E-05
CGA:  34    -0.672806652378E+03   -0.22713E-05   -0.38546E-05  8424   0.660E-05 0.684E-05
   9 F= -.67280665E+03 E0= -.67280439E+03  d E =-.314691E-01  mag=    15.0000
       N       E                     dE             d eps       ncg     rms          ort
SDA:   1    -0.671498387497E+03    0.13083E+01    0.00000E+00  8424   0.360E+01 0.000E+00
CGA:   2    -0.672379005371E+03   -0.88062E+00   -0.86058E+00  8424   0.213E+01-0.445E-01
CGA:   3    -0.672744634059E+03   -0.36563E+00   -0.37840E+00  8424   0.450E+00-0.269E-01
CGA:   4    -0.672825367118E+03   -0.80733E-01   -0.80803E-01  8424   0.914E-01 0.257E-03
CGA:   5    -0.672842617798E+03   -0.17251E-01   -0.17207E-01  8424   0.231E-01-0.414E-03
CGA:   6    -0.672846967640E+03   -0.43498E-02   -0.43128E-02  8424   0.674E-02-0.357E-03
CGA:   7    -0.672848638604E+03   -0.16710E-02   -0.16626E-02  8424   0.273E-02-0.222E-03
CGA:   8    -0.672849569674E+03   -0.93107E-03   -0.98660E-03  8424   0.243E-02-0.635E-03
CGA:   9    -0.672850164714E+03   -0.59504E-03   -0.61831E-03  8424   0.178E-02-0.561E-03
CGA:  10    -0.672850372116E+03   -0.20740E-03   -0.10160E-02  8424   0.494E-02-0.178E-02
CGA:  11    -0.672851296249E+03   -0.92413E-03   -0.92641E-03  8424   0.109E-02 0.203E-04
CGA:  12    -0.672851672255E+03   -0.37601E-03   -0.39187E-03  8424   0.990E-03-0.331E-03
CGA:  13    -0.672851899674E+03   -0.22742E-03   -0.23445E-03  8424   0.614E-03-0.251E-03
CGA:  14    -0.672848421045E+03    0.34786E-02   -0.18778E-02  8424   0.170E-01-0.259E-02
CGA:  15    -0.672851728398E+03   -0.33074E-02   -0.33927E-02  8424   0.329E-02 0.320E-03
CGA:  16    -0.672852563266E+03   -0.83487E-03   -0.79292E-03  8424   0.112E-02-0.138E-03
CGA:  17    -0.672852981151E+03   -0.41788E-03   -0.40869E-03  8424   0.706E-03-0.558E-04
CGA:  18    -0.672853263980E+03   -0.28283E-03   -0.26009E-03  8424   0.417E-03-0.163E-03
CGA:  19    -0.672853364560E+03   -0.10058E-03   -0.78916E-04  8424   0.114E-03-0.783E-04
CGA:  20    -0.672853500457E+03   -0.13590E-03    0.51943E-04  8424   0.109E-03-0.165E-04
CGA:  21    -0.672853630771E+03   -0.13031E-03    0.62607E-04  8424   0.195E-03-0.221E-04
CGA:  22    -0.672854013078E+03   -0.38231E-03    0.27885E-04  8424   0.169E-03-0.259E-04
CGA:  23    -0.672854408776E+03   -0.39570E-03    0.22422E-04  8424   0.185E-03-0.344E-05
CGA:  24    -0.672854839894E+03   -0.43112E-03    0.34203E-04  8424   0.183E-03-0.128E-04
CGA:  25    -0.672855358859E+03   -0.51897E-03    0.21740E-04  8424   0.176E-03-0.203E-04
CGA:  26    -0.672855876507E+03   -0.51765E-03    0.17610E-04  8424   0.282E-03-0.615E-04
CGA:  27    -0.672856656024E+03   -0.77952E-03    0.14638E-04  8424   0.270E-03-0.130E-03
CGA:  28    -0.672857487155E+03   -0.83113E-03    0.79458E-05  8424   0.410E-03-0.220E-03
CGA:  29    -0.672857525048E+03   -0.37892E-04   -0.63016E-04  8424   0.925E-04 0.712E-04
CGA:  30    -0.672857576406E+03   -0.51358E-04   -0.51183E-04  8424   0.920E-04-0.946E-05
CGA:  31    -0.672857615258E+03   -0.38853E-04   -0.43657E-04  8424   0.200E-03-0.122E-03
CGA:  32    -0.672857626615E+03   -0.11357E-04   -0.28449E-04  8424   0.353E-04 0.491E-04
CGA:  33    -0.672857636846E+03   -0.10232E-04   -0.11933E-04  8424   0.248E-04 0.841E-05
CGA:  34    -0.672857668597E+03   -0.31751E-04    0.61980E-04  8424   0.333E-04-0.248E-04
CGA:  35    -0.672857668694E+03   -0.96872E-07   -0.45218E-05  8424   0.973E-05 0.135E-04
