       N       E                     dE             d eps       ncg     rms          ort
DAV:   1     0.828433346656E+04    0.82843E+04   -0.24672E+05  8424   0.238E+03
DAV:   2     0.917839650788E+03   -0.73665E+04   -0.69171E+04  8424   0.658E+02
DAV:   3    -0.678087923916E+03   -0.15959E+04   -0.14043E+04  8424   0.283E+02
DAV:   4    -0.834125719354E+03   -0.15604E+03   -0.15332E+03  8424   0.857E+01
DAV:   5    -0.836655074814E+03   -0.25294E+01   -0.25175E+01  8424   0.122E+01
SDA:   6    -0.260344201006E+03    0.57631E+03   -0.25175E+01  8424   0.619E+04 0.000E+00
CGA:   7    -0.256747572582E+03    0.35966E+01   -0.42844E+03  8424   0.259E+05-0.317E+04
CGA:   8     0.868325120599E+03    0.11251E+04   -0.15943E+04  8424   0.977E+05-0.399E+05
CGA:   9     0.484730554413E+04    0.39790E+04   -0.71833E+04  8424   0.185E+05-0.906E+04
CGA:  10     0.757348408496E+03   -0.40900E+04   -0.63046E+03  8424   0.135E+05-0.145E+05
CGA:  11    -0.522680363225E+03   -0.12800E+04   -0.41537E+03  8424   0.995E+04-0.281E+05
CGA:  12    -0.642515282005E+03   -0.11983E+03   -0.42399E+03  8424   0.148E+03-0.455E+02
CGA:  13    -0.656249275686E+03   -0.13734E+02   -0.17430E+02  8424   0.512E+02 0.272E+02
CGA:  14    -0.664522512287E+03   -0.82732E+01   -0.78649E+01  8424   0.743E+02-0.143E+02
CGA:  15    -0.671209290216E+03   -0.66868E+01   -0.64258E+01  8424   0.160E+02-0.279E+01
CGA:  16    -0.672533670527E+03   -0.13244E+01   -0.14078E+01  8424   0.132E+02-0.117E+01
CGA:  17    -0.673815314386E+03   -0.12816E+01   -0.13753E+01  8424   0.146E+02 0.525E+00
CGA:  18    -0.673814969067E+03    0.34532E-03   -0.81174E+00  8424   0.281E+02-0.130E+02
CGA:  19    -0.674278197605E+03   -0.46323E+00   -0.18093E+01  8424   0.152E+02-0.986E+01
CGA:  20    -0.675219298074E+03   -0.94110E+00   -0.67067E+00  8424   0.174E+01 0.290E+01
CGA:  21    -0.675333153808E+03   -0.11386E+00   -0.10349E+00  8424   0.159E+01 0.126E+00
CGA:  22    -0.675485182488E+03   -0.15203E+00   -0.15820E+00  8424   0.257E+01 0.150E-01
CGA:  23    -0.675628448335E+03   -0.14327E+00   -0.16023E+00  8424   0.941E+00-0.775E-01
CGA:  24    -0.675683456403E+03   -0.55008E-01   -0.65219E-01  8424   0.624E+00-0.427E-01
CGA:  25    -0.675733897330E+03   -0.50441E-01   -0.51961E-01  8424   0.300E+00 0.120E-01
CGA:  26    -0.675780694546E+03   -0.46797E-01   -0.45150E-01  8424   0.280E+00 0.440E-01
CGA:  27    -0.675816810730E+03   -0.36116E-01   -0.36356E-01  8424   0.750E-01 0.820E-02
CGA:  28    -0.675828097296E+03   -0.11287E-01   -0.11199E-01  8424   0.351E-01 0.312E-02
CGA:  29    -0.675836146660E+03   -0.80494E-02   -0.80238E-02  8424   0.234E-01-0.130E-03
CGA:  30    -0.675839532197E+03   -0.33855E-02   -0.33858E-02  8424   0.141E-01 0.141E-03
CGA:  31    -0.675843520899E+03   -0.39887E-02   -0.43191E-02  8424   0.181E-01-0.182E-02
CGA:  32    -0.675846936524E+03   -0.34156E-02   -0.40958E-02  8424   0.211E-01-0.554E-02
CGA:  33    -0.675849576306E+03   -0.26398E-02   -0.50219E-02  8424   0.352E-01-0.111E-01
CGA:  34    -0.675855261514E+03   -0.56852E-02   -0.56909E-02  8424   0.192E-01-0.545E-03
CGA:  35    -0.675859764269E+03   -0.45028E-02   -0.54928E-02  8424   0.455E-01-0.728E-02
CGA:  36    -0.675864750342E+03   -0.49861E-02   -0.51082E-02  8424   0.192E-01-0.591E-02
CGA:  37    -0.675868564626E+03   -0.38143E-02   -0.40297E-02  8424   0.452E-01-0.264E-02
CGA:  38    -0.675877096055E+03   -0.85314E-02   -0.97445E-02  8424   0.623E-01-0.156E-01
CGA:  39    -0.675507476378E+03    0.36962E+00   -0.23731E+00  8424   0.410E+01-0.540E+00
CGA:  40    -0.675897361520E+03   -0.38989E+00   -0.52913E+00  8424   0.754E+00-0.671E+00
CGA:  41    -0.676015192348E+03   -0.11783E+00   -0.11673E+00  8424   0.109E+00-0.830E-04
CGA:  42    -0.676046834810E+03   -0.31642E-01   -0.31584E-01  8424   0.785E-01-0.999E-02
CGA:  43    -0.676076309665E+03   -0.29475E-01   -0.33771E-01  8424   0.967E-01-0.232E-01
CGA:  44    -0.676104533378E+03   -0.28224E-01   -0.29945E-01  8424   0.429E-01-0.135E-01
CGA:  45    -0.676120254163E+03   -0.15721E-01   -0.18835E-01  8424   0.472E-01-0.153E-01
CGA:  46    -0.676129102787E+03   -0.88486E-02   -0.83312E-02  8424   0.304E-01-0.113E-01
CGA:  47    -0.676139509264E+03   -0.10406E-01   -0.16632E-01  8424   0.360E-01-0.152E-01
CGA:  48    -0.676147622524E+03   -0.81133E-02   -0.81585E-02  8424   0.105E-01 0.382E-03
CGA:  49    -0.676151191345E+03   -0.35688E-02   -0.35687E-02  8424   0.506E-02 0.110E-03
CGA:  50    -0.676152798762E+03   -0.16074E-02   -0.16307E-02  8424   0.176E-02 0.152E-02
CGA:  51    -0.676153324080E+03   -0.52532E-03   -0.60675E-03  8424   0.112E-02 0.119E-02
CGA:  52    -0.676153784857E+03   -0.46078E-03   -0.43712E-03  8424   0.101E-02 0.383E-03
CGA:  53    -0.676154147168E+03   -0.36231E-03   -0.39575E-03  8424   0.557E-03 0.833E-03
CGA:  54    -0.676154611796E+03   -0.46463E-03   -0.37964E-03  8424   0.668E-03 0.238E-03
CGA:  55    -0.676155361589E+03   -0.74979E-03   -0.59246E-03  8424   0.920E-03 0.569E-03
CGA:  56    -0.676155689330E+03   -0.32774E-03   -0.32009E-03  8424   0.185E-02-0.542E-03
CGA:  57    -0.676155867860E+03   -0.17853E-03   -0.23569E-03  8424   0.312E-03 0.248E-03
CGA:  58    -0.676156419840E+03   -0.55198E-03   -0.54739E-03  8424   0.462E-02-0.403E-05
CGA:  59    -0.676137497415E+03    0.18922E-01   -0.10091E-01  8424   0.102E+00-0.173E-01
CGA:  60    -0.676159405713E+03   -0.21908E-01   -0.21391E-01  8424   0.275E-01-0.800E-03
CGA:  61    -0.676166877860E+03   -0.74721E-02   -0.78038E-02  8424   0.923E-02 0.811E-03
CGA:  62    -0.676169815625E+03   -0.29378E-02   -0.32177E-02  8424   0.469E-02 0.736E-03
CGA:  63    -0.676171240604E+03   -0.14250E-02   -0.17757E-02  8424   0.347E-02 0.102E-02
CGA:  64    -0.676172722280E+03   -0.14817E-02   -0.18627E-02  8424   0.167E-02 0.161E-02
CGA:  65    -0.676173328301E+03   -0.60602E-03   -0.87789E-03  8424   0.120E-02 0.881E-03
CGA:  66    -0.676173571011E+03   -0.24271E-03   -0.31166E-03  8424   0.899E-03 0.187E-03
CGA:  67    -0.676174043568E+03   -0.47256E-03   -0.52459E-03  8424   0.705E-03 0.440E-03
CGA:  68    -0.676174295527E+03   -0.25196E-03   -0.37784E-03  8424   0.502E-03 0.477E-03
CGA:  69    -0.676174469713E+03   -0.17419E-03   -0.17037E-03  8424   0.509E-03-0.169E-04
CGA:  70    -0.676174720163E+03   -0.25045E-03   -0.26219E-03  8424   0.331E-03 0.201E-03
CGA:  71    -0.676174792120E+03   -0.71956E-04   -0.13659E-03  8424   0.269E-03 0.215E-03
CGA:  72    -0.676174932617E+03   -0.14050E-03   -0.13046E-03  8424   0.549E-03-0.119E-03
CGA:  73    -0.676175001815E+03   -0.69198E-04   -0.93386E-04  8424   0.545E-03 0.838E-04
CGA:  74    -0.676175046689E+03   -0.44874E-04   -0.10330E-03  8424   0.211E-03 0.143E-03
CGA:  75    -0.676175134503E+03   -0.87814E-04   -0.99799E-04  8424   0.326E-03 0.701E-04
CGA:  76    -0.676175348885E+03   -0.21438E-03   -0.20774E-03  8424   0.315E-03-0.164E-03
CGA:  77    -0.676175436793E+03   -0.87908E-04   -0.94681E-04  8424   0.112E-03 0.301E-04
CGA:  78    -0.676172088116E+03    0.33487E-02   -0.18300E-02  8424   0.199E-01-0.134E-02
CGA:  79    -0.676174972993E+03   -0.28849E-02   -0.31015E-02  8424   0.268E-02 0.616E-03
CGA:  80    -0.676176013505E+03   -0.10405E-02   -0.99270E-03  8424   0.403E-03-0.908E-04
CGA:  81    -0.676176131544E+03   -0.11804E-03   -0.81614E-04  8424   0.600E-04-0.555E-04
CGA:  82    -0.676173812349E+03    0.23192E-02   -0.12667E-02  8424   0.127E-01-0.573E-03
CGA:  83    -0.676176581933E+03   -0.27696E-02   -0.25850E-02  8424   0.166E-02-0.201E-03
CGA:  84    -0.676177040366E+03   -0.45843E-03   -0.44629E-03  8424   0.151E-03-0.105E-04
CGA:  85    -0.676177150254E+03   -0.10989E-03   -0.55251E-04  8424   0.153E-03-0.537E-04
CGA:  86    -0.676177241499E+03   -0.91245E-04   -0.36637E-04  8424   0.922E-04-0.568E-04
CGA:  87    -0.676177596862E+03   -0.35536E-03    0.27775E-04  8424   0.615E-03-0.909E-04
CGA:  88    -0.676177733117E+03   -0.13626E-03   -0.12778E-03  8424   0.728E-04-0.887E-05
CGA:  89    -0.676177803580E+03   -0.70463E-04   -0.39418E-04  8424   0.172E-03-0.448E-04
CGA:  90    -0.676177870946E+03   -0.67366E-04   -0.31406E-04  8424   0.392E-04-0.355E-04
CGA:  91    -0.676177970283E+03   -0.99337E-04    0.47448E-04  8424   0.441E-03-0.537E-04
CGA:  92    -0.676178102641E+03   -0.13236E-03   -0.71490E-04  8424   0.565E-04-0.629E-04
CGA:  93    -0.676178148492E+03   -0.45851E-04   -0.23334E-04  8424   0.105E-03-0.362E-04
CGA:  94    -0.676178219864E+03   -0.71372E-04   -0.25428E-04  8424   0.784E-04-0.553E-04
CGA:  95    -0.676178231037E+03   -0.11173E-04   -0.11112E-04  8424   0.144E-04-0.108E-07
CGA:  96    -0.676178404854E+03   -0.17382E-03    0.13978E-05  8424   0.192E-04 0.123E-04
CGA:  97    -0.676178531865E+03   -0.12701E-03    0.40739E-05  8424   0.164E-03-0.221E-04
CGA:  98    -0.676178578338E+03   -0.46473E-04   -0.33527E-04  8424   0.246E-04-0.164E-04
CGA:  99    -0.676178735518E+03   -0.15718E-03    0.38375E-05  8424   0.297E-03-0.322E-04
CGA: 100    -0.676178761404E+03   -0.25886E-04   -0.36412E-04  8424   0.162E-04 0.136E-04
CGA: 101    -0.676178893363E+03   -0.13196E-03    0.23622E-05  8424   0.693E-04-0.522E-05
CGA: 102    -0.676179564766E+03   -0.67140E-03    0.31169E-05  8424   0.447E-03-0.392E-04
CGA: 103    -0.676179662066E+03   -0.97300E-04   -0.10306E-03  8424   0.102E-03 0.863E-05
CGA: 104    -0.676179760990E+03   -0.98924E-04   -0.45333E-04  8424   0.232E-03-0.122E-03
CGA: 105    -0.676179784418E+03   -0.23428E-04   -0.32436E-04  8424   0.284E-04 0.131E-04
CGA: 106    -0.676179911612E+03   -0.12719E-03    0.76791E-05  8424   0.796E-04-0.259E-04
CGA: 107    -0.676179969638E+03   -0.58026E-04   -0.74643E-04  8424   0.351E-03-0.139E-03
CGA: 108    -0.676180110294E+03   -0.14066E-03   -0.11295E-03  8424   0.453E-04-0.555E-04
CGA: 109    -0.676180222891E+03   -0.11260E-03    0.17990E-04  8424   0.112E-03-0.372E-04
CGA: 110    -0.676180306614E+03   -0.83722E-04   -0.55512E-04  8424   0.128E-03-0.936E-04
CGA: 111    -0.676180359836E+03   -0.53222E-04   -0.39488E-04  8424   0.260E-04-0.290E-04
CGA: 112    -0.676180521698E+03   -0.16186E-03    0.17718E-05  8424   0.532E-04 0.336E-06
CGA: 113    -0.676180849113E+03   -0.32741E-03    0.68405E-05  8424   0.166E-03-0.836E-05
CGA: 114    -0.676182218057E+03   -0.13689E-02    0.97368E-05  8424   0.158E-03 0.884E-04
CGA: 115    -0.676182339968E+03   -0.12191E-03   -0.63926E-04  8424   0.241E-03-0.164E-03
CGA: 116    -0.676182361603E+03   -0.21635E-04   -0.37368E-04  8424   0.125E-04 0.269E-04
CGA: 117    -0.676182450123E+03   -0.88520E-04    0.14169E-05  8424   0.552E-04-0.533E-05
CGA: 118    -0.676182973902E+03   -0.52378E-03    0.10575E-05  8424   0.352E-03-0.275E-04
CGA: 119    -0.676186630887E+03   -0.36570E-02    0.46628E-05  8424   0.227E-02-0.442E-03
CGA: 120    -0.676187253465E+03   -0.62258E-03   -0.60982E-03  8424   0.177E-03-0.296E-04
CGA: 121    -0.676187376454E+03   -0.12299E-03   -0.12606E-03  8424   0.336E-03-0.104E-03
CGA: 122    -0.676187461849E+03   -0.85394E-04   -0.65756E-04  8424   0.415E-04-0.395E-04
CGA: 123    -0.676187525231E+03   -0.63382E-04    0.41354E-04  8424   0.152E-03-0.450E-04
CGA: 124    -0.676187603780E+03   -0.78550E-04   -0.38423E-04  8424   0.109E-03-0.970E-04
CGA: 125    -0.676187616296E+03   -0.12516E-04   -0.14392E-04  8424   0.738E-05 0.378E-05
CGA: 126    -0.676187702926E+03   -0.86630E-04    0.29119E-06  8424   0.124E-04 0.505E-05
CGA: 127    -0.676187783488E+03   -0.80562E-04    0.90638E-06  8424   0.810E-04-0.140E-04
CGA: 128    -0.676187807336E+03   -0.23848E-04   -0.14379E-04  8424   0.181E-04-0.214E-04
CGA: 129    -0.676187910760E+03   -0.10342E-03    0.72375E-06  8424   0.336E-04-0.120E-05
CGA: 130    -0.676188154606E+03   -0.24385E-03    0.17070E-05  8424   0.410E-04 0.780E-05
CGA: 131    -0.676188575496E+03   -0.42089E-03    0.25345E-05  8424   0.145E-03-0.893E-05
CGA: 132    -0.676190092053E+03   -0.15166E-02    0.33244E-05  8424   0.192E-03 0.851E-04
CGA: 133    -0.676190109148E+03   -0.17095E-04   -0.23974E-04  8424   0.132E-04 0.146E-04
CGA: 134    -0.676190175984E+03   -0.66836E-04    0.13102E-05  8424   0.455E-04-0.132E-04
CGA: 135    -0.676189762001E+03    0.41398E-03   -0.85893E-04  8424   0.366E-02-0.381E-03
CGA: 136    -0.676190426384E+03   -0.66438E-03   -0.65050E-03  8424   0.744E-04-0.342E-04
CGA: 137    -0.676190464423E+03   -0.38039E-04   -0.28159E-04  8424   0.699E-04-0.420E-04
CGA: 138    -0.676190516623E+03   -0.52199E-04   -0.25807E-04  8424   0.238E-03-0.112E-03
CGA: 139    -0.676190540770E+03   -0.24148E-04   -0.28126E-04  8424   0.564E-05 0.871E-05
CGA: 140    -0.676190610327E+03   -0.69557E-04    0.17643E-06  8424   0.150E-04 0.172E-05
CGA: 141    -0.676190862569E+03   -0.25224E-03    0.53921E-06  8424   0.155E-04 0.143E-04
CGA: 142    -0.676190912123E+03   -0.49554E-04    0.24633E-05  8424   0.647E-04-0.184E-04
CGA: 143    -0.676190876795E+03    0.35328E-04   -0.56440E-04  8424   0.172E-02-0.304E-03
CGA: 144    -0.676191040315E+03   -0.16352E-03   -0.20801E-03  8424   0.359E-04 0.103E-03
CGA: 145    -0.676189281722E+03    0.17586E-02   -0.96949E-03  8424   0.107E-01-0.619E-03
CGA: 146    -0.676191459469E+03   -0.21777E-02   -0.21066E-02  8424   0.447E-03-0.135E-03
CGA: 147    -0.676191514605E+03   -0.55136E-04   -0.74083E-04  8424   0.438E-04 0.240E-04
CGA: 148    -0.676191564732E+03   -0.50128E-04   -0.38975E-04  8424   0.328E-03-0.113E-03
CGA: 149    -0.676191632271E+03   -0.67539E-04   -0.67275E-04  8424   0.430E-04 0.100E-06
CGA: 150    -0.676191727982E+03   -0.95711E-04    0.82575E-04  8424   0.557E-03-0.132E-03
CGA: 151    -0.676191774924E+03   -0.46942E-04   -0.78718E-04  8424   0.463E-04 0.438E-04
CGA: 152    -0.676191818871E+03   -0.43947E-04   -0.41996E-04  8424   0.182E-03-0.902E-04
CGA: 153    -0.676191927962E+03   -0.10909E-03   -0.75912E-04  8424   0.655E-04-0.745E-04
CGA: 154    -0.675559935339E+03    0.63199E+00   -0.15348E-03  8424   0.317E+00-0.485E-01
CGA: 155    -0.672970175594E+03    0.25898E+01   -0.19104E+01  8424   0.190E+02-0.504E+00
CGA: 156    -0.674310645998E+03   -0.13405E+01   -0.83274E+00  8424   0.107E+02 0.140E+02
CGA: 157    -0.675048495762E+03   -0.73785E+00   -0.52372E+00  8424   0.579E+01 0.772E+01
CGA: 158    -0.675357113985E+03   -0.30862E+00   -0.37996E+00  8424   0.282E+01 0.375E+01
CGA: 159    -0.675778060255E+03   -0.42095E+00   -0.56610E+00  8424   0.738E+00 0.150E+00
CGA: 160    -0.675750822583E+03    0.27238E-01   -0.34641E+00  8424   0.913E+00 0.160E+00
CGA: 161    -0.675998771749E+03   -0.24795E+00   -0.48854E+00  8424   0.554E+00-0.336E+00
CGA: 162    -0.676016451662E+03   -0.17680E-01   -0.88001E-01  8424   0.390E+00 0.686E-01
CGA: 163    -0.675982396122E+03    0.34056E-01   -0.11003E+00  8424   0.400E+00-0.143E-01
CGA: 164    -0.675807315226E+03    0.17508E+00   -0.75423E-01  8424   0.947E+00 0.550E+00
CGA: 165    -0.676042744557E+03   -0.23543E+00   -0.46231E+00  8424   0.235E+00 0.190E-01
CGA: 166    -0.676111849730E+03   -0.69105E-01   -0.74954E-01  8424   0.168E+00 0.397E-02
CGA: 167    -0.676135662678E+03   -0.23813E-01   -0.61465E-01  8424   0.846E-01 0.506E-01
CGA: 168    -0.676178966607E+03   -0.43304E-01   -0.33386E-01  8424   0.339E-01-0.456E-02
CGA: 169    -0.676189011666E+03   -0.10045E-01   -0.10148E-01  8424   0.113E-01-0.536E-02
CGA: 170    -0.676191434434E+03   -0.24228E-02   -0.25137E-02  8424   0.341E-02-0.268E-03
CGA: 171    -0.676192701600E+03   -0.12672E-02   -0.12111E-02  8424   0.215E-02-0.523E-04
CGA: 172    -0.676193597503E+03   -0.89590E-03   -0.76500E-03  8424   0.952E-03-0.185E-03
CGA: 173    -0.676193991162E+03   -0.39366E-03   -0.34384E-03  8424   0.368E-03-0.608E-04
CGA: 174    -0.676194146553E+03   -0.15539E-03   -0.10837E-03  8424   0.238E-03-0.615E-04
CGA: 175    -0.676194256125E+03   -0.10957E-03   -0.76700E-04  8424   0.139E-03-0.636E-04
CGA: 176    -0.676194022914E+03    0.23321E-03   -0.16339E-03  8424   0.263E-02-0.512E-03
CGA: 177    -0.676194390777E+03   -0.36786E-03   -0.43907E-03  8424   0.354E-03 0.996E-04
CGA: 178    -0.676194620267E+03   -0.22949E-03   -0.19926E-03  8424   0.346E-03-0.995E-04
CGA: 179    -0.676194720195E+03   -0.99929E-04   -0.69480E-04  8424   0.154E-03-0.454E-04
CGA: 180    -0.676194823913E+03   -0.10372E-03   -0.71172E-04  8424   0.202E-03-0.110E-03
CGA: 181    -0.676194893091E+03   -0.69178E-04   -0.56848E-04  8424   0.445E-04-0.240E-04
CGA: 182    -0.676194967566E+03   -0.74475E-04    0.63847E-04  8424   0.192E-03-0.566E-04
CGA: 183    -0.676195007220E+03   -0.39654E-04   -0.32776E-04  8424   0.142E-04-0.115E-04
CGA: 184    -0.676195067718E+03   -0.60498E-04    0.23845E-05  8424   0.523E-04-0.159E-04
CGA: 185    -0.676195106926E+03   -0.39208E-04   -0.19291E-04  8424   0.870E-04-0.538E-04
CGA: 186    -0.676195127399E+03   -0.20474E-04   -0.14172E-04  8424   0.609E-05-0.113E-04
CGA: 187    -0.676195193970E+03   -0.66571E-04    0.22754E-06  8424   0.264E-04-0.395E-05
CGA: 188    -0.676195211672E+03   -0.17702E-04   -0.76945E-05  8424   0.370E-04-0.249E-04
CGA: 189    -0.676195245211E+03   -0.33539E-04   -0.13908E-04  8424   0.143E-03-0.662E-04
CGA: 190    -0.676195263954E+03   -0.18743E-04   -0.17939E-04  8424   0.275E-05-0.149E-05
CGA: 191    -0.676195322673E+03   -0.58719E-04    0.53537E-07  8424   0.486E-05 0.183E-05
CGA: 192    -0.676195362762E+03   -0.40089E-04    0.27739E-06  8424   0.414E-04-0.711E-05
CGA: 193    -0.676195395511E+03   -0.32749E-04   -0.23348E-04  8424   0.541E-03-0.140E-03
CGA: 194    -0.676195435741E+03   -0.40229E-04   -0.58905E-04  8424   0.699E-05 0.372E-04
CGA: 195    -0.676195471359E+03   -0.35618E-04    0.75822E-06  8424   0.611E-04-0.153E-04
CGA: 196    -0.676195514180E+03   -0.42822E-04   -0.20790E-04  8424   0.141E-03-0.842E-04
CGA: 197    -0.676195526229E+03   -0.12048E-04   -0.16773E-04  8424   0.454E-05 0.102E-04
CGA: 198    -0.676195573019E+03   -0.46790E-04    0.18333E-06  8424   0.192E-04-0.455E-05
CGA: 199    -0.676195614050E+03   -0.41031E-04    0.61146E-05  8424   0.953E-04-0.370E-04
CGA: 200    -0.676195637246E+03   -0.23197E-04   -0.18178E-04  8424   0.863E-05-0.133E-04
   1 F= -.67619564E+03 E0= -.67619564E+03  d E =-.676196E+03  mag=     1.0000
       N       E                     dE             d eps       ncg     rms          ort
SDA:   1    -0.676195579795E+03    0.34255E-04    0.00000E+00  8424   0.100E-02 0.000E+00
CGA:   2    -0.676195750259E+03   -0.17046E-03   -0.11852E-03  8424   0.112E-03-0.124E-03
CGA:   3    -0.676195803873E+03   -0.53614E-04   -0.41880E-04  8424   0.326E-03-0.119E-03
CGA:   4    -0.676195858790E+03   -0.54917E-04   -0.39194E-04  8424   0.324E-04-0.392E-04
CGA:   5    -0.676195871574E+03   -0.12784E-04   -0.71664E-05  8424   0.333E-04-0.226E-04
CGA:   6    -0.676195865830E+03    0.57441E-05   -0.21823E-04  8424   0.897E-03-0.164E-03
CGA:   7    -0.676195943643E+03   -0.77813E-04   -0.88281E-04  8424   0.106E-04 0.258E-04
CGA:   8    -0.676195976698E+03   -0.33055E-04    0.11837E-05  8424   0.342E-04-0.142E-04
CGA:   9    -0.676195814216E+03    0.16248E-03   -0.45341E-04  8424   0.192E-02-0.245E-03
CGA:  10    -0.676196089509E+03   -0.27529E-03   -0.27693E-03  8424   0.713E-04 0.380E-05
CGA:  11    -0.676196126448E+03   -0.36939E-04   -0.27631E-04  8424   0.131E-03-0.821E-04
CGA:  12    -0.676196142350E+03   -0.15902E-04   -0.17187E-04  8424   0.110E-04 0.354E-05
CGA:  13    -0.676196189782E+03   -0.47432E-04    0.79183E-06  8424   0.247E-04-0.117E-04
CGA:  14    -0.676196201930E+03   -0.12148E-04   -0.91776E-05  8424   0.588E-04-0.283E-04
CGA:  15    -0.676196227357E+03   -0.25427E-04   -0.28810E-04  8424   0.606E-03-0.178E-03
CGA:  16    -0.676196267898E+03   -0.40540E-04   -0.60768E-04  8424   0.102E-04 0.554E-04
CGA:  17    -0.676196285679E+03   -0.17782E-04    0.33425E-05  8424   0.630E-04-0.210E-04
CGA:  18    -0.676196310209E+03   -0.24530E-04   -0.30671E-04  8424   0.597E-03-0.183E-03
CGA:  19    -0.676196351078E+03   -0.40869E-04   -0.61013E-04  8424   0.115E-04 0.580E-04
CGA:  20    -0.676196368683E+03   -0.17604E-04    0.46726E-05  8424   0.600E-04-0.227E-04
CGA:  21    -0.676196340016E+03    0.28666E-04   -0.42598E-04  8424   0.125E-02-0.261E-03
CGA:  22    -0.676196446704E+03   -0.10669E-03   -0.13895E-03  8424   0.250E-04 0.977E-04
CGA:  23    -0.676196288920E+03    0.15778E-03   -0.37991E-04  8424   0.148E-02-0.201E-03
CGA:  24    -0.676196583093E+03   -0.29417E-03   -0.26498E-03  8424   0.600E-04-0.981E-04
CGA:  25    -0.676196587922E+03   -0.48292E-05   -0.70328E-05  8424   0.456E-05 0.648E-05
   2 F= -.67619659E+03 E0= -.67619659E+03  d E =-.950675E-03  mag=     1.0000
       N       E                     dE             d eps       ncg     rms          ort
SDA:   1    -0.676194070901E+03    0.25122E-02    0.00000E+00  8424   0.816E-02 0.000E+00
CGA:   2    -0.676195767085E+03   -0.16962E-02   -0.17136E-02  8424   0.329E-02 0.732E-04
CGA:   3    -0.676196489421E+03   -0.72234E-03   -0.70616E-03  8424   0.110E-02-0.723E-04
CGA:   4    -0.676196679451E+03   -0.19003E-03   -0.18314E-03  8424   0.264E-03-0.270E-04
CGA:   5    -0.676196740463E+03   -0.61011E-04   -0.50881E-04  8424   0.823E-04-0.468E-04
CGA:   6    -0.676196641876E+03    0.98587E-04   -0.64496E-04  8424   0.159E-02-0.297E-03
CGA:   7    -0.676196828140E+03   -0.18626E-03   -0.19447E-03  8424   0.143E-03 0.262E-04
CGA:   8    -0.676196882292E+03   -0.54151E-04   -0.49037E-04  8424   0.864E-04-0.660E-04
CGA:   9    -0.676196925414E+03   -0.43122E-04    0.74745E-04  8424   0.847E-04-0.515E-04
CGA:  10    -0.676196959510E+03   -0.34096E-04   -0.31488E-04  8424   0.104E-03-0.659E-04
CGA:  11    -0.676196988669E+03   -0.29159E-04   -0.20985E-04  8424   0.202E-04-0.392E-04
CGA:  12    -0.676197021525E+03   -0.32856E-04    0.11196E-05  8424   0.107E-04-0.533E-05
CGA:  13    -0.676197074574E+03   -0.53049E-04    0.21171E-06  8424   0.845E-05-0.140E-05
CGA:  14    -0.676197133362E+03   -0.58788E-04    0.16237E-06  8424   0.114E-04-0.126E-05
CGA:  15    -0.676197256643E+03   -0.12328E-03    0.12867E-06  8424   0.410E-05 0.509E-05
CGA:  16    -0.676197326919E+03   -0.70276E-04    0.85807E-07  8424   0.602E-05 0.126E-05
CGA:  17    -0.676197456330E+03   -0.12941E-03    0.80100E-07  8424   0.650E-05 0.491E-05
CGA:  18    -0.676197489240E+03   -0.32910E-04    0.24279E-06  8424   0.894E-05-0.386E-05
CGA:  19    -0.676197503024E+03   -0.13784E-04    0.19133E-05  8424   0.246E-04-0.110E-04
CGA:  20    -0.676197546786E+03   -0.43762E-04    0.39790E-05  8424   0.102E-03-0.452E-04
CGA:  21    -0.676197550795E+03   -0.40093E-05   -0.10152E-04  8424   0.561E-05 0.206E-04
   3 F= -.67619755E+03 E0= -.67619755E+03  d E =-.962873E-03  mag=     1.0000
       N       E                     dE             d eps       ncg     rms          ort
SDA:   1    -0.676107443326E+03    0.90103E-01    0.00000E+00  8424   0.235E+00 0.000E+00
CGA:   2    -0.676175331144E+03   -0.67888E-01   -0.67929E-01  8424   0.800E-01 0.444E-03
CGA:   3    -0.676190707390E+03   -0.15376E-01   -0.15506E-01  8424   0.242E-01 0.673E-03
CGA:   4    -0.676195169024E+03   -0.44616E-02   -0.44187E-02  8424   0.604E-02-0.236E-03
CGA:   5    -0.676196275857E+03   -0.11068E-02   -0.10364E-02  8424   0.134E-02-0.377E-03
CGA:   6    -0.676196577185E+03   -0.30133E-03   -0.28057E-03  8424   0.384E-03-0.163E-03
CGA:   7    -0.676196678005E+03   -0.10082E-03   -0.96166E-04  8424   0.191E-03-0.783E-04
CGA:   8    -0.676196731726E+03   -0.53722E-04   -0.61169E-04  8424   0.202E-03-0.122E-03
CGA:   9    -0.676196789893E+03   -0.58167E-04   -0.47651E-04  8424   0.107E-03-0.968E-04
CGA:  10    -0.676196870696E+03   -0.80802E-04    0.82176E-05  8424   0.373E-04-0.211E-04
CGA:  11    -0.676196923018E+03   -0.52322E-04    0.32211E-05  8424   0.192E-04-0.825E-05
CGA:  12    -0.676196980910E+03   -0.57892E-04    0.54091E-06  8424   0.111E-04-0.185E-05
CGA:  13    -0.676197052416E+03   -0.71507E-04    0.17981E-06  8424   0.692E-05 0.240E-05
CGA:  14    -0.676197133809E+03   -0.81393E-04    0.10790E-06  8424   0.494E-05 0.349E-05
CGA:  15    -0.676197168264E+03   -0.34455E-04    0.90445E-07  8424   0.324E-05 0.972E-06
CGA:  16    -0.676197223815E+03   -0.55551E-04    0.32828E-07  8424   0.314E-05 0.322E-05
CGA:  17    -0.676197256803E+03   -0.32987E-04    0.36769E-07  8424   0.228E-05 0.185E-05
CGA:  18    -0.676197289518E+03   -0.32716E-04    0.19286E-07  8424   0.216E-05 0.204E-05
CGA:  19    -0.676197322220E+03   -0.32701E-04    0.17247E-07  8424   0.214E-05 0.206E-05
CGA:  20    -0.676197354540E+03   -0.32320E-04    0.17130E-07  8424   0.220E-05 0.201E-05
CGA:  21    -0.676197387111E+03   -0.32572E-04    0.17902E-07  8424   0.244E-05 0.185E-05
CGA:  22    -0.676197418612E+03   -0.31501E-04    0.22932E-07  8424   0.331E-05 0.136E-05
CGA:  23    -0.676197451576E+03   -0.32964E-04    0.41222E-07  8424   0.658E-05-0.355E-06
CGA:  24    -0.676197546505E+03   -0.94929E-04    0.43725E-07  8424   0.775E-05 0.569E-05
CGA:  25    -0.676197574649E+03   -0.28144E-04    0.30271E-06  8424   0.225E-04-0.882E-05
CGA:  26    -0.676197604508E+03   -0.29860E-04    0.40104E-05  8424   0.801E-04-0.378E-04
CGA:  27    -0.676197619904E+03   -0.15396E-04   -0.11585E-04  8424   0.831E-05-0.195E-04
CGA:  28    -0.676197659120E+03   -0.39216E-04    0.12265E-06  8424   0.847E-05-0.204E-05
CGA:  29    -0.676197718895E+03   -0.59775E-04    0.80166E-07  8424   0.236E-05 0.372E-05
CGA:  30    -0.676197769419E+03   -0.50524E-04    0.25868E-07  8424   0.280E-05 0.246E-05
CGA:  31    -0.676197795619E+03   -0.26201E-04    0.35092E-07  8424   0.455E-05 0.272E-06
CGA:  32    -0.676197872839E+03   -0.77220E-04    0.36743E-07  8424   0.398E-05 0.487E-05
CGA:  33    -0.676197907730E+03   -0.34891E-04    0.53510E-07  8424   0.702E-05-0.156E-05
CGA:  34    -0.676197989912E+03   -0.82182E-04    0.24918E-07  8424   0.112E-04 0.384E-05
CGA:  35    -0.676198004418E+03   -0.14506E-04    0.19381E-05  8424   0.212E-04-0.119E-04
CGA:  36    -0.676198047529E+03   -0.43110E-04    0.16783E-05  8424   0.403E-04-0.257E-04
CGA:  37    -0.676198055741E+03   -0.82123E-05   -0.69425E-05  8424   0.439E-05-0.806E-05
   4 F= -.67619806E+03 E0= -.67619806E+03  d E =-.504946E-03  mag=     1.0000
       N       E                     dE             d eps       ncg     rms          ort
SDA:   1    -0.676037841761E+03    0.16021E+00    0.00000E+00  8424   0.391E+00 0.000E+00
CGA:   2    -0.676156396364E+03   -0.11855E+00   -0.11855E+00  8424   0.120E+00-0.178E-03
CGA:   3    -0.676180514298E+03   -0.24118E-01   -0.24312E-01  8424   0.372E-01 0.172E-02
CGA:   4    -0.676187389324E+03   -0.68750E-02   -0.67801E-02  8424   0.805E-02-0.708E-03
CGA:   5    -0.676188862427E+03   -0.14731E-02   -0.14114E-02  8424   0.203E-02-0.478E-03
CGA:   6    -0.676189248165E+03   -0.38574E-03   -0.37554E-03  8424   0.511E-03-0.971E-04
CGA:   7    -0.676189406112E+03   -0.15795E-03   -0.16545E-03  8424   0.375E-03-0.172E-03
CGA:   8    -0.676189475415E+03   -0.69304E-04   -0.66402E-04  8424   0.164E-03-0.900E-04
CGA:   9    -0.676189580158E+03   -0.10474E-03    0.45305E-04  8424   0.764E-04-0.268E-04
CGA:  10    -0.676189678936E+03   -0.98778E-04    0.59563E-05  8424   0.331E-04-0.148E-05
CGA:  11    -0.676189750897E+03   -0.71961E-04    0.17670E-05  8424   0.181E-04 0.186E-06
CGA:  12    -0.676189826945E+03   -0.76048E-04    0.45004E-06  8424   0.124E-04 0.501E-05
CGA:  13    -0.676189909688E+03   -0.82743E-04    0.30232E-06  8424   0.964E-05 0.687E-05
CGA:  14    -0.676189945293E+03   -0.35605E-04    0.27478E-06  8424   0.531E-05 0.366E-05
CGA:  15    -0.676189999741E+03   -0.54448E-04    0.94510E-07  8424   0.482E-05 0.546E-05
CGA:  16    -0.676190032798E+03   -0.33057E-04    0.67824E-07  8424   0.391E-05 0.362E-05
CGA:  17    -0.676190067581E+03   -0.34783E-04    0.41532E-07  8424   0.381E-05 0.366E-05
CGA:  18    -0.676190100112E+03   -0.32531E-04    0.42344E-07  8424   0.382E-05 0.361E-05
CGA:  19    -0.676190135453E+03   -0.35341E-04    0.38888E-07  8424   0.394E-05 0.348E-05
CGA:  20    -0.676190166119E+03   -0.30666E-04    0.48429E-07  8424   0.436E-05 0.318E-05
CGA:  21    -0.676190203529E+03   -0.37410E-04    0.48318E-07  8424   0.565E-05 0.238E-05
CGA:  22    -0.676190229340E+03   -0.25811E-04    0.12573E-06  8424   0.959E-05 0.747E-07
CGA:  23    -0.676190318390E+03   -0.89050E-04    0.10015E-06  8424   0.909E-05 0.958E-05
CGA:  24    -0.676190361776E+03   -0.43385E-04    0.19215E-06  8424   0.205E-04-0.623E-05
CGA:  25    -0.676190362116E+03   -0.34041E-06   -0.96203E-05  8424   0.200E-03-0.542E-04
CGA:  26    -0.676190426849E+03   -0.64733E-04   -0.51359E-04  8424   0.405E-03-0.276E-03
CGA:  27    -0.676190449811E+03   -0.22962E-04   -0.36312E-04  8424   0.123E-04 0.627E-04
CGA:  28    -0.676190460485E+03   -0.10674E-04    0.73592E-05  8424   0.533E-04-0.218E-04
CGA:  29    -0.676190513945E+03   -0.53460E-04    0.10959E-04  8424   0.169E-03-0.873E-04
CGA:  30    -0.676190522202E+03   -0.82569E-05   -0.14565E-04  8424   0.791E-05 0.306E-04
   5 F= -.67619052E+03 E0= -.67619052E+03  d E =0.753354E-02  mag=     1.0000
       N       E                     dE             d eps       ncg     rms          ort
SDA:   1    -0.675878986261E+03    0.31153E+00    0.00000E+00  8424   0.761E+00 0.000E+00
CGA:   2    -0.676102122027E+03   -0.22314E+00   -0.22314E+00  8424   0.246E+00-0.835E-04
CGA:   3    -0.676151843126E+03   -0.49721E-01   -0.49881E-01  8424   0.753E-01 0.212E-02
CGA:   4    -0.676165392635E+03   -0.13550E-01   -0.13480E-01  8424   0.171E-01-0.706E-03
CGA:   5    -0.676168384319E+03   -0.29917E-02   -0.29280E-02  8424   0.393E-02-0.637E-03
CGA:   6    -0.676169168269E+03   -0.78395E-03   -0.77304E-03  8424   0.997E-03-0.171E-03
CGA:   7    -0.676169454438E+03   -0.28617E-03   -0.29585E-03  8424   0.553E-03-0.217E-03
CGA:   8    -0.676169570851E+03   -0.11641E-03   -0.11655E-03  8424   0.223E-03-0.934E-04
CGA:   9    -0.676169690124E+03   -0.11927E-03    0.12238E-03  8424   0.854E-04-0.356E-05
CGA:  10    -0.676169788972E+03   -0.98848E-04    0.94211E-05  8424   0.341E-04 0.173E-04
CGA:  11    -0.676169868411E+03   -0.79439E-04    0.21027E-05  8424   0.196E-04 0.122E-04
CGA:  12    -0.676169952927E+03   -0.84516E-04    0.72041E-06  8424   0.167E-04 0.150E-04
CGA:  13    -0.676169991937E+03   -0.39010E-04    0.66826E-06  8424   0.110E-04 0.917E-05
CGA:  14    -0.676170032456E+03   -0.40519E-04    0.25061E-06  8424   0.102E-04 0.879E-05
CGA:  15    -0.676170070810E+03   -0.38354E-04    0.22733E-06  8424   0.103E-04 0.831E-05
CGA:  16    -0.676170111952E+03   -0.41142E-04    0.21359E-06  8424   0.111E-04 0.748E-05
CGA:  17    -0.676170148588E+03   -0.36636E-04    0.28653E-06  8424   0.130E-04 0.593E-05
CGA:  18    -0.676170190816E+03   -0.42228E-04    0.34498E-06  8424   0.176E-04 0.270E-05
CGA:  19    -0.676170282332E+03   -0.91516E-04    0.40366E-06  8424   0.143E-04 0.207E-04
CGA:  20    -0.676170316321E+03   -0.33989E-04    0.55901E-06  8424   0.213E-04-0.174E-06
CGA:  21    -0.676170412118E+03   -0.95797E-04    0.37615E-06  8424   0.208E-04 0.207E-04
CGA:  22    -0.676170452504E+03   -0.40386E-04    0.10598E-05  8424   0.371E-04-0.108E-04
CGA:  23    -0.676170478844E+03   -0.26340E-04    0.15308E-04  8424   0.777E-04-0.366E-04
CGA:  24    -0.676169027865E+03    0.14510E-02   -0.79856E-03  8424   0.173E-01-0.108E-02
CGA:  25    -0.676170742896E+03   -0.17150E-02   -0.17615E-02  8424   0.249E-04 0.223E-03
CGA:  26    -0.676170812132E+03   -0.69237E-04    0.30609E-05  8424   0.172E-03-0.468E-04
CGA:  27    -0.676170829133E+03   -0.17001E-04   -0.20069E-04  8424   0.780E-05 0.868E-05
CGA:  28    -0.676170890669E+03   -0.61535E-04    0.25293E-06  8424   0.142E-04 0.570E-05
CGA:  29    -0.676170955545E+03   -0.64877E-04    0.78929E-06  8424   0.506E-04-0.987E-05
CGA:  30    -0.676170975859E+03   -0.20314E-04   -0.13288E-04  8424   0.526E-04-0.373E-04
CGA:  31    -0.676171037821E+03   -0.61962E-04    0.35135E-04  8424   0.257E-03-0.100E-03
CGA:  32    -0.676171065471E+03   -0.27650E-04   -0.32925E-04  8424   0.791E-05 0.168E-04
CGA:  33    -0.676171122987E+03   -0.57517E-04    0.25635E-06  8424   0.154E-04 0.380E-05
CGA:  34    -0.676171298206E+03   -0.17522E-03    0.61043E-06  8424   0.101E-04 0.214E-04
CGA:  35    -0.676171346582E+03   -0.48376E-04    0.46360E-06  8424   0.160E-04 0.151E-05
CGA:  36    -0.676171493498E+03   -0.14692E-03    0.47082E-06  8424   0.132E-04 0.171E-04
CGA:  37    -0.676171554618E+03   -0.61120E-04    0.63269E-06  8424   0.185E-04-0.184E-05
CGA:  38    -0.676171683392E+03   -0.12877E-03    0.39798E-06  8424   0.200E-04 0.130E-04
CGA:  39    -0.676171731443E+03   -0.48050E-04    0.23542E-05  8424   0.198E-04-0.635E-05
CGA:  40    -0.676171842422E+03   -0.11098E-03    0.33574E-06  8424   0.198E-04 0.952E-05
CGA:  41    -0.676172009742E+03   -0.16732E-03    0.10909E-05  8424   0.169E-04 0.103E-04
CGA:  42    -0.676172050707E+03   -0.40964E-04    0.19686E-05  8424   0.210E-04-0.574E-05
CGA:  43    -0.676172167931E+03   -0.11722E-03    0.33383E-06  8424   0.223E-04 0.996E-05
CGA:  44    -0.676172358074E+03   -0.19014E-03    0.12067E-05  8424   0.288E-04 0.413E-05
CGA:  45    -0.676172639383E+03   -0.28131E-03    0.84022E-06  8424   0.307E-04 0.224E-04
CGA:  46    -0.676172674474E+03   -0.35091E-04    0.19247E-04  8424   0.264E-04-0.158E-04
CGA:  47    -0.676172743437E+03   -0.68963E-04    0.27272E-05  8424   0.318E-04-0.175E-04
CGA:  48    -0.676172616508E+03    0.12693E-03   -0.46038E-04  8424   0.116E-02-0.170E-03
CGA:  49    -0.676172932223E+03   -0.31572E-03   -0.26126E-03  8424   0.557E-04-0.217E-03
CGA:  50    -0.676171884696E+03    0.10475E-02   -0.57088E-03  8424   0.694E-02-0.468E-03
CGA:  51    -0.676173300623E+03   -0.14159E-02   -0.13386E-02  8424   0.338E-04-0.144E-03
CGA:  52    -0.676173384850E+03   -0.84227E-04    0.24025E-04  8424   0.179E-03-0.631E-04
CGA:  53    -0.676173423967E+03   -0.39118E-04   -0.39337E-04  8424   0.108E-04 0.531E-06
CGA:  54    -0.676173515017E+03   -0.91049E-04    0.96959E-06  8424   0.355E-04-0.943E-05
CGA:  55    -0.676173540836E+03   -0.25820E-04   -0.29809E-04  8424   0.223E-03-0.749E-04
CGA:  56    -0.676173644025E+03   -0.10319E-03   -0.64320E-04  8424   0.518E-04-0.780E-04
CGA:  57    -0.676173654989E+03   -0.10964E-04   -0.35477E-04  8424   0.397E-03-0.847E-04
CGA:  58    -0.676173812392E+03   -0.15740E-03   -0.93707E-04  8424   0.607E-04-0.119E-03
CGA:  59    -0.676173831066E+03   -0.18674E-04   -0.14165E-04  8424   0.151E-04-0.108E-04
CGA:  60    -0.676173944316E+03   -0.11325E-03    0.86460E-06  8424   0.432E-04-0.834E-05
CGA:  61    -0.676173955441E+03   -0.11125E-04   -0.87877E-05  8424   0.639E-05-0.438E-05
CGA:  62    -0.676174047846E+03   -0.92406E-04    0.19324E-06  8424   0.946E-05 0.257E-05
CGA:  63    -0.676174232457E+03   -0.18461E-03    0.52532E-06  8424   0.112E-04 0.740E-05
CGA:  64    -0.676174318755E+03   -0.86298E-04    0.87938E-06  8424   0.830E-04-0.203E-04
CGA:  65    -0.676174326291E+03   -0.75358E-05   -0.12500E-04  8424   0.458E-05 0.910E-05
   6 F= -.67617433E+03 E0= -.67617433E+03  d E =0.161959E-01  mag=     1.0000
       N       E                     dE             d eps       ncg     rms          ort
SDA:   1    -0.676022739638E+03    0.15158E+00    0.00000E+00  8424   0.338E+00 0.000E+00
CGA:   2    -0.676121701554E+03   -0.98962E-01   -0.98911E-01  8424   0.129E+00-0.190E-03
CGA:   3    -0.676146506537E+03   -0.24805E-01   -0.24953E-01  8424   0.339E-01 0.401E-03
CGA:   4    -0.676152523190E+03   -0.60167E-02   -0.59849E-02  8424   0.832E-02-0.748E-04
CGA:   5    -0.676153964919E+03   -0.14417E-02   -0.13947E-02  8424   0.174E-02-0.108E-03
CGA:   6    -0.676154365541E+03   -0.40062E-03   -0.37504E-03  8424   0.480E-03-0.696E-04
CGA:   7    -0.676154516274E+03   -0.15073E-03   -0.12775E-03  8424   0.233E-03-0.786E-04
CGA:   8    -0.676154602566E+03   -0.86292E-04   -0.68854E-04  8424   0.163E-03-0.868E-04
CGA:   9    -0.676154752941E+03   -0.15038E-03    0.79468E-04  8424   0.266E-03-0.112E-03
CGA:  10    -0.676154816154E+03   -0.63212E-04   -0.54343E-04  8424   0.741E-04-0.262E-04
CGA:  11    -0.676154939438E+03   -0.12328E-03    0.23609E-04  8424   0.132E-03-0.454E-04
CGA:  12    -0.676154955961E+03   -0.16523E-04   -0.19301E-04  8424   0.222E-04 0.731E-05
CGA:  13    -0.676155032184E+03   -0.76223E-04    0.27213E-05  8424   0.362E-04-0.899E-05
CGA:  14    -0.676155204899E+03   -0.17272E-03    0.80052E-06  8424   0.624E-04 0.647E-06
CGA:  15    -0.676155599697E+03   -0.39480E-03    0.31620E-05  8424   0.754E-04 0.218E-04
CGA:  16    -0.676156177024E+03   -0.57733E-03    0.56757E-05  8424   0.124E-03 0.130E-05
CGA:  17    -0.676157106523E+03   -0.92950E-03    0.51362E-05  8424   0.227E-03-0.264E-04
CGA:  18    -0.676158988546E+03   -0.18820E-02    0.48760E-05  8424   0.309E-03 0.312E-05
CGA:  19    -0.676161797710E+03   -0.28092E-02    0.10177E-04  8424   0.504E-03-0.484E-04
CGA:  20    -0.676166492309E+03   -0.46946E-02    0.10959E-04  8424   0.108E-02-0.628E-03
CGA:  21    -0.676166751789E+03   -0.25948E-03   -0.21880E-03  8424   0.394E-03-0.134E-03
CGA:  22    -0.676166802507E+03   -0.50718E-04   -0.68387E-04  8424   0.553E-04 0.600E-04
CGA:  23    -0.676166800346E+03    0.21612E-05   -0.93310E-05  8424   0.339E-04 0.345E-04
   7 F= -.67616680E+03 E0= -.67616680E+03  d E =0.752594E-02  mag=     1.0000
       N       E                     dE             d eps       ncg     rms          ort
SDA:   1    -0.675749870269E+03    0.41693E+00    0.00000E+00  8424   0.946E+00 0.000E+00
CGA:   2    -0.676035134883E+03   -0.28526E+00   -0.28512E+00  8424   0.414E+00-0.934E-03
CGA:   3    -0.676109202697E+03   -0.74068E-01   -0.74129E-01  8424   0.983E-01 0.213E-05
CGA:   4    -0.676126119310E+03   -0.16917E-01   -0.16927E-01  8424   0.235E-01 0.133E-04
CGA:   5    -0.676130059800E+03   -0.39405E-02   -0.39648E-02  8424   0.501E-02 0.937E-04
CGA:   6    -0.676131072302E+03   -0.10125E-02   -0.10296E-02  8424   0.117E-02 0.843E-04
CGA:   7    -0.676131388385E+03   -0.31608E-03   -0.30663E-03  8424   0.447E-03-0.686E-04
CGA:   8    -0.676131523398E+03   -0.13501E-03   -0.12821E-03  8424   0.229E-03-0.817E-04
CGA:   9    -0.676131594899E+03   -0.71502E-04   -0.10169E-03  8424   0.416E-03-0.190E-03
CGA:  10    -0.676131674979E+03   -0.80080E-04   -0.77605E-04  8424   0.705E-04-0.122E-04
CGA:  11    -0.676131732730E+03   -0.57750E-04    0.12450E-03  8424   0.470E-04-0.132E-04
CGA:  12    -0.676131787483E+03   -0.54754E-04    0.82906E-05  8424   0.419E-04-0.326E-05
CGA:  13    -0.676131889920E+03   -0.10244E-03    0.30549E-05  8424   0.428E-04 0.201E-05
CGA:  14    -0.676132014290E+03   -0.12437E-03    0.32535E-05  8424   0.279E-04 0.217E-04
CGA:  15    -0.676132054793E+03   -0.40503E-04    0.58893E-05  8424   0.182E-04 0.291E-05
CGA:  16    -0.676132104266E+03   -0.49473E-04    0.17308E-05  8424   0.166E-04 0.715E-05
CGA:  17    -0.676132196520E+03   -0.92254E-04    0.10468E-05  8424   0.156E-04 0.153E-04
CGA:  18    -0.676132230449E+03   -0.33929E-04    0.16095E-05  8424   0.148E-04 0.401E-05
CGA:  19    -0.676132307788E+03   -0.77339E-04    0.79562E-06  8424   0.132E-04 0.116E-04
CGA:  20    -0.676132334200E+03   -0.26412E-04    0.15479E-05  8424   0.170E-04 0.280E-05
CGA:  21    -0.676132420140E+03   -0.85940E-04    0.88663E-06  8424   0.163E-04 0.118E-04
CGA:  22    -0.676132452597E+03   -0.32456E-04    0.19338E-05  8424   0.160E-04 0.199E-05
CGA:  23    -0.676132531113E+03   -0.78516E-04    0.72260E-06  8424   0.202E-04 0.752E-05
CGA:  24    -0.676132656621E+03   -0.12551E-03    0.12570E-05  8424   0.153E-04 0.252E-04
CGA:  25    -0.676132686639E+03   -0.30017E-04    0.18549E-05  8424   0.157E-04 0.266E-05
CGA:  26    -0.676132763064E+03   -0.76426E-04    0.79585E-06  8424   0.156E-04 0.962E-05
CGA:  27    -0.676132791858E+03   -0.28793E-04    0.20985E-05  8424   0.211E-04 0.215E-06
CGA:  28    -0.676132884520E+03   -0.92663E-04    0.87722E-06  8424   0.201E-04 0.835E-05
CGA:  29    -0.676133003804E+03   -0.11928E-03    0.11677E-05  8424   0.207E-04 0.204E-04
CGA:  30    -0.676133026012E+03   -0.22209E-04    0.96491E-05  8424   0.322E-04-0.533E-05
CGA:  31    -0.676133119850E+03   -0.93838E-04    0.11018E-05  8424   0.320E-04 0.312E-05
CGA:  32    -0.676133255142E+03   -0.13529E-03    0.16559E-05  8424   0.507E-04 0.958E-05
CGA:  33    -0.676133483604E+03   -0.22846E-03    0.35484E-05  8424   0.550E-04 0.281E-04
CGA:  34    -0.676133533909E+03   -0.50304E-04    0.52826E-04  8424   0.635E-04-0.404E-04
CGA:  35    -0.676133547742E+03   -0.13833E-04   -0.13035E-04  8424   0.139E-04-0.454E-05
CGA:  36    -0.676133600248E+03   -0.52506E-04    0.54265E-06  8424   0.186E-04 0.211E-05
CGA:  37    -0.676133693477E+03   -0.93229E-04    0.82385E-06  8424   0.111E-04 0.189E-04
CGA:  38    -0.676133715631E+03   -0.22154E-04    0.12234E-05  8424   0.213E-04-0.260E-07
CGA:  39    -0.676133818858E+03   -0.10323E-03    0.72161E-06  8424   0.199E-04 0.193E-04
CGA:  40    -0.676133869928E+03   -0.51070E-04    0.15113E-05  8424   0.470E-04-0.141E-04
CGA:  41    -0.676133873956E+03   -0.40281E-05   -0.58055E-05  8424   0.750E-05 0.712E-05
   8 F= -.67613387E+03 E0= -.67613387E+03  d E =0.329264E-01  mag=     1.0000
       N       E                     dE             d eps       ncg     rms          ort
SDA:   1    -0.675612250474E+03    0.52162E+00    0.00000E+00  8424   0.132E+01 0.000E+00
CGA:   2    -0.675940384012E+03   -0.32813E+00   -0.32819E+00  8424   0.651E+00-0.663E-04
CGA:   3    -0.676066966976E+03   -0.12658E+00   -0.12637E+00  8424   0.167E+00-0.129E-02
CGA:   4    -0.676094508006E+03   -0.27541E-01   -0.27539E-01  8424   0.389E-01-0.286E-04
CGA:   5    -0.676100966499E+03   -0.64585E-02   -0.65157E-02  8424   0.776E-02 0.329E-03
CGA:   6    -0.676102573836E+03   -0.16073E-02   -0.16221E-02  8424   0.183E-02 0.120E-03
CGA:   7    -0.676103018431E+03   -0.44460E-03   -0.44040E-03  8424   0.622E-03-0.494E-04
CGA:   8    -0.676103219568E+03   -0.20114E-03   -0.20491E-03  8424   0.388E-03-0.190E-03
CGA:   9    -0.676103311171E+03   -0.91603E-04   -0.96869E-04  8424   0.255E-03-0.133E-03
CGA:  10    -0.676103373182E+03   -0.62011E-04   -0.82424E-04  8424   0.252E-03-0.122E-03
CGA:  11    -0.676101815228E+03    0.15580E-02   -0.84408E-03  8424   0.889E-02-0.102E-02
CGA:  12    -0.676103487533E+03   -0.16723E-02   -0.15907E-02  8424   0.151E-02-0.201E-03
CGA:  13    -0.676103855124E+03   -0.36759E-03   -0.35975E-03  8424   0.521E-03-0.224E-04
CGA:  14    -0.676104082245E+03   -0.22712E-03   -0.18736E-03  8424   0.370E-03-0.200E-03
CGA:  15    -0.676104152619E+03   -0.70374E-04   -0.61346E-04  8424   0.158E-03-0.319E-04
CGA:  16    -0.676104059914E+03    0.92705E-04   -0.17322E-03  8424   0.163E-02-0.404E-03
CGA:  17    -0.676104397989E+03   -0.33807E-03   -0.34430E-03  8424   0.179E-03 0.167E-04
CGA:  18    -0.676104499384E+03   -0.10140E-03   -0.98193E-04  8424   0.818E-03-0.262E-03
CGA:  19    -0.676104555285E+03   -0.55901E-04   -0.93330E-04  8424   0.492E-04 0.861E-04
CGA:  20    -0.676104576658E+03   -0.21373E-04   -0.18528E-04  8424   0.472E-04-0.150E-04
CGA:  21    -0.676104670460E+03   -0.93802E-04    0.49426E-05  8424   0.168E-03-0.546E-04
CGA:  22    -0.676104693868E+03   -0.23408E-04   -0.27708E-04  8424   0.379E-04 0.120E-04
CGA:  23    -0.676104771503E+03   -0.77635E-04    0.11533E-04  8424   0.606E-04-0.335E-04
CGA:  24    -0.676104784499E+03   -0.12996E-04   -0.12732E-04  8424   0.263E-04-0.925E-06
CGA:  25    -0.676104849062E+03   -0.64563E-04    0.41216E-05  8424   0.585E-04-0.219E-04
CGA:  26    -0.676104865568E+03   -0.16506E-04   -0.12831E-04  8424   0.364E-04-0.136E-04
CGA:  27    -0.676104951707E+03   -0.86140E-04    0.29910E-05  8424   0.537E-04-0.217E-04
CGA:  28    -0.676104963796E+03   -0.12089E-04   -0.11917E-04  8424   0.244E-04-0.719E-06
CGA:  29    -0.676105025404E+03   -0.61608E-04    0.31819E-05  8424   0.662E-04-0.228E-04
CGA:  30    -0.676105041005E+03   -0.15601E-04   -0.12387E-04  8424   0.294E-04-0.116E-04
CGA:  31    -0.676105116451E+03   -0.75446E-04    0.22129E-05  8424   0.399E-04-0.143E-04
CGA:  32    -0.676105232739E+03   -0.11629E-03    0.86520E-06  8424   0.366E-04 0.145E-04
CGA:  33    -0.676105381513E+03   -0.14877E-03    0.48469E-05  8424   0.197E-04 0.111E-04
CGA:  34    -0.676105521892E+03   -0.14038E-03    0.11423E-05  8424   0.472E-04 0.559E-05
CGA:  35    -0.676105868794E+03   -0.34690E-03    0.25433E-05  8424   0.512E-04 0.275E-04
CGA:  36    -0.676105888852E+03   -0.20058E-04   -0.18881E-04  8424   0.180E-04-0.146E-04
CGA:  37    -0.676105954275E+03   -0.65423E-04    0.60961E-06  8424   0.118E-04 0.574E-05
CGA:  38    -0.676106022764E+03   -0.68489E-04    0.88534E-06  8424   0.162E-04 0.568E-05
CGA:  39    -0.676106181277E+03   -0.15851E-03    0.83761E-06  8424   0.201E-04 0.135E-04
CGA:  40    -0.676106186935E+03   -0.56579E-05   -0.56586E-05  8424   0.139E-04-0.629E-07
   9 F= -.67610619E+03 E0= -.67610619E+03  d E =0.276870E-01  mag=     1.0000
       N       E                     dE             d eps       ncg     rms          ort
SDA:   1    -0.675773960207E+03    0.33222E+00    0.00000E+00  8424   0.885E+00 0.000E+00
CGA:   2    -0.676005394761E+03   -0.23143E+00   -0.23146E+00  8424   0.407E+00 0.184E-04
CGA:   3    -0.676083404672E+03   -0.78010E-01   -0.77875E-01  8424   0.106E+00-0.650E-03
CGA:   4    -0.676101226101E+03   -0.17821E-01   -0.17777E-01  8424   0.255E-01-0.202E-03
CGA:   5    -0.676105509357E+03   -0.42833E-02   -0.42938E-02  8424   0.500E-02 0.402E-04
CGA:   6    -0.676106534263E+03   -0.10249E-02   -0.10348E-02  8424   0.119E-02 0.523E-04
CGA:   7    -0.676106819452E+03   -0.28519E-03   -0.28518E-03  8424   0.392E-03-0.287E-06
CGA:   8    -0.676106928908E+03   -0.10946E-03   -0.10724E-03  8424   0.149E-03-0.217E-04
CGA:   9    -0.676106967826E+03   -0.38918E-04   -0.39504E-04  8424   0.560E-04 0.642E-05
CGA:  10    -0.676106982474E+03   -0.14647E-04   -0.15955E-04  8424   0.228E-04 0.139E-04
CGA:  11    -0.676106986012E+03   -0.35389E-05   -0.58132E-05  8424   0.114E-04 0.143E-04
  10 F= -.67610699E+03 E0= -.67610699E+03  d E =-.799077E-03  mag=     1.0000
       N       E                     dE             d eps       ncg     rms          ort
SDA:   1    -0.675861989812E+03    0.24499E+00    0.00000E+00  8424   0.641E+00 0.000E+00
CGA:   2    -0.676048472266E+03   -0.18648E+00   -0.18651E+00  8424   0.287E+00 0.382E-03
CGA:   3    -0.676100654157E+03   -0.52182E-01   -0.52140E-01  8424   0.682E-01-0.297E-03
CGA:   4    -0.676112197246E+03   -0.11543E-01   -0.11543E-01  8424   0.168E-01-0.161E-04
CGA:   5    -0.676115067759E+03   -0.28705E-02   -0.28786E-02  8424   0.343E-02 0.479E-04
CGA:   6    -0.676115760499E+03   -0.69274E-03   -0.69884E-03  8424   0.810E-03 0.506E-04
CGA:   7    -0.676115928954E+03   -0.16845E-03   -0.17789E-03  8424   0.243E-03 0.940E-04
CGA:   8    -0.676115971539E+03   -0.42585E-04   -0.52956E-04  8424   0.866E-04 0.888E-04
CGA:   9    -0.676115975645E+03   -0.41056E-05   -0.16093E-04  8424   0.475E-04 0.706E-04
  11 F= -.67611598E+03 E0= -.67611598E+03  d E =-.898963E-02  mag=     1.0000
       N       E                     dE             d eps       ncg     rms          ort
SDA:   1    -0.675965071899E+03    0.15090E+00    0.00000E+00  8424   0.418E+00 0.000E+00
CGA:   2    -0.676066928256E+03   -0.10186E+00   -0.10188E+00  8424   0.204E+00 0.387E-03
CGA:   3    -0.676107064696E+03   -0.40136E-01   -0.40150E-01  8424   0.524E-01 0.154E-03
CGA:   4    -0.676115590888E+03   -0.85262E-02   -0.85312E-02  8424   0.122E-01 0.325E-04
CGA:   5    -0.676117688821E+03   -0.20979E-02   -0.21055E-02  8424   0.245E-02 0.709E-04
CGA:   6    -0.676118172746E+03   -0.48392E-03   -0.49292E-03  8424   0.564E-03 0.128E-03
CGA:   7    -0.676118274380E+03   -0.10163E-03   -0.11148E-03  8424   0.158E-03 0.125E-03
CGA:   8    -0.676118287591E+03   -0.13211E-04   -0.26338E-04  8424   0.716E-04 0.104E-03
CGA:   9    -0.676118285452E+03    0.21394E-05   -0.68564E-05  8424   0.477E-04 0.561E-04
  12 F= -.67611829E+03 E0= -.67611829E+03  d E =-.230981E-02  mag=     1.0000
       N       E                     dE             d eps       ncg     rms          ort
SDA:   1    -0.673913349214E+03    0.22049E+01    0.00000E+00  8424   0.594E+01 0.000E+00
CGA:   2    -0.675318886311E+03   -0.14055E+01   -0.14056E+01  8424   0.298E+01 0.132E-01
CGA:   3    -0.675923703141E+03   -0.60482E+00   -0.60458E+00  8424   0.809E+00-0.223E-02
CGA:   4    -0.676052662558E+03   -0.12896E+00   -0.12897E+00  8424   0.174E+00 0.224E-04
CGA:   5    -0.676081946722E+03   -0.29284E-01   -0.29305E-01  8424   0.349E-01 0.233E-03
CGA:   6    -0.676089318948E+03   -0.73722E-02   -0.73755E-02  8424   0.853E-02 0.167E-03
CGA:   7    -0.676091198548E+03   -0.18796E-02   -0.18821E-02  8424   0.239E-02 0.252E-03
CGA:   8    -0.676091769195E+03   -0.57065E-03   -0.56994E-03  8424   0.717E-03 0.300E-03
CGA:   9    -0.676091945981E+03   -0.17679E-03   -0.17858E-03  8424   0.260E-03 0.240E-03
CGA:  10    -0.676091988318E+03   -0.42338E-04   -0.55777E-04  8424   0.137E-03 0.198E-03
CGA:  11    -0.676091994851E+03   -0.65328E-05   -0.17278E-04  8424   0.914E-04 0.108E-03
  13 F= -.67609199E+03 E0= -.67609199E+03  d E =0.262906E-01  mag=     1.0000
       N       E                     dE             d eps       ncg     rms          ort
SDA:   1    -0.435839664638E+03    0.24025E+03    0.00000E+00  8424   0.134E+05 0.000E+00
CGA:   2    -0.599265827092E+03   -0.16343E+03   -0.13255E+04  8424   0.496E+03-0.618E+03
CGA:   3    -0.635490113839E+03   -0.36224E+02   -0.23917E+02  8424   0.187E+03 0.279E+03
CGA:   4    -0.656715301996E+03   -0.21225E+02   -0.14805E+02  8424   0.472E+02 0.822E+02
CGA:   5    -0.665400837686E+03   -0.86855E+01   -0.83300E+01  8424   0.283E+02 0.138E+01
CGA:   6    -0.671005396988E+03   -0.56046E+01   -0.56046E+01  8424   0.235E+02-0.113E+00
CGA:   7    -0.673304341328E+03   -0.22989E+01   -0.23418E+01  8424   0.597E+01-0.168E+00
CGA:   8    -0.673975983526E+03   -0.67164E+00   -0.67215E+00  8424   0.248E+01-0.271E-02
CGA:   9    -0.674322240120E+03   -0.34626E+00   -0.34667E+00  8424   0.131E+01 0.628E-02
CGA:  10    -0.674507253035E+03   -0.18501E+00   -0.18471E+00  8424   0.704E+00-0.285E-02
CGA:  11    -0.674617855627E+03   -0.11060E+00   -0.11048E+00  8424   0.400E+00-0.564E-02
CGA:  12    -0.674673895150E+03   -0.56040E-01   -0.55994E-01  8424   0.180E+00-0.812E-03
CGA:  13    -0.674700787331E+03   -0.26892E-01   -0.26959E-01  8424   0.990E-01 0.256E-02
CGA:  14    -0.674715996626E+03   -0.15209E-01   -0.15228E-01  8424   0.477E-01 0.812E-03
CGA:  15    -0.674723630577E+03   -0.76340E-02   -0.76064E-02  8424   0.248E-01-0.187E-02
CGA:  16    -0.674728145116E+03   -0.45145E-02   -0.45458E-02  8424   0.143E-01-0.171E-02
CGA:  17    -0.674730069504E+03   -0.19244E-02   -0.19336E-02  8424   0.664E-02 0.328E-03
CGA:  18    -0.674731150590E+03   -0.10811E-02   -0.10882E-02  8424   0.425E-02 0.600E-03
CGA:  19    -0.674731976740E+03   -0.82615E-03   -0.82829E-03  8424   0.181E-02-0.293E-03
CGA:  20    -0.674732320592E+03   -0.34385E-03   -0.49250E-03  8424   0.247E-02-0.123E-02
CGA:  21    -0.674732648439E+03   -0.32785E-03   -0.34678E-03  8424   0.468E-03 0.510E-03
CGA:  22    -0.674732856552E+03   -0.20811E-03   -0.23707E-03  8424   0.459E-03-0.120E-03
CGA:  23    -0.674732994520E+03   -0.13797E-03    0.42831E-03  8424   0.324E-03 0.302E-04
CGA:  24    -0.674733130851E+03   -0.13633E-03    0.64716E-03  8424   0.277E-03 0.125E-03
CGA:  25    -0.674733261409E+03   -0.13056E-03   -0.19358E-03  8424   0.742E-03-0.210E-03
CGA:  26    -0.674733431628E+03   -0.17022E-03   -0.32589E-03  8424   0.132E-02-0.663E-03
CGA:  27    -0.674733558359E+03   -0.12673E-03   -0.15424E-03  8424   0.141E-03 0.281E-03
CGA:  28    -0.674733588071E+03   -0.29712E-04   -0.30964E-04  8424   0.901E-04 0.418E-04
CGA:  29    -0.674733651955E+03   -0.63884E-04    0.39817E-04  8424   0.977E-04 0.639E-04
CGA:  30    -0.674733707695E+03   -0.55740E-04    0.28206E-04  8424   0.584E-04 0.579E-04
CGA:  31    -0.674733741700E+03   -0.34005E-04    0.15572E-04  8424   0.563E-04 0.558E-04
CGA:  32    -0.674733781252E+03   -0.39552E-04    0.86606E-05  8424   0.555E-04 0.554E-04
CGA:  33    -0.674733817716E+03   -0.36464E-04    0.10195E-04  8424   0.550E-04 0.551E-04
CGA:  34    -0.674733856230E+03   -0.38514E-04    0.85439E-05  8424   0.546E-04 0.547E-04
CGA:  35    -0.674733893851E+03   -0.37621E-04    0.88331E-05  8424   0.542E-04 0.543E-04
CGA:  36    -0.674733932433E+03   -0.38581E-04    0.81135E-05  8424   0.539E-04 0.540E-04
CGA:  37    -0.674733970765E+03   -0.38332E-04    0.80868E-05  8424   0.537E-04 0.537E-04
CGA:  38    -0.674734009683E+03   -0.38918E-04    0.76657E-05  8424   0.534E-04 0.535E-04
CGA:  39    -0.674734048605E+03   -0.38922E-04    0.75481E-05  8424   0.532E-04 0.532E-04
CGA:  40    -0.674734087877E+03   -0.39272E-04    0.72940E-05  8424   0.530E-04 0.530E-04
CGA:  41    -0.674734127441E+03   -0.39564E-04    0.71005E-05  8424   0.530E-04 0.527E-04
CGA:  42    -0.674734166740E+03   -0.39299E-04    0.72025E-05  8424   0.535E-04 0.521E-04
CGA:  43    -0.674734207422E+03   -0.40682E-04    0.68487E-05  8424   0.553E-04 0.507E-04
CGA:  44    -0.674734245164E+03   -0.37743E-04    0.91714E-05  8424   0.606E-04 0.471E-04
CGA:  45    -0.674734288163E+03   -0.42999E-04    0.91287E-05  8424   0.740E-04 0.381E-04
CGA:  46    -0.674734319530E+03   -0.31367E-04    0.62901E-03  8424   0.104E-03 0.173E-04
CGA:  47    -0.674734421044E+03   -0.10151E-03    0.15256E-04  8424   0.852E-04 0.127E-03
CGA:  48    -0.674734466169E+03   -0.45125E-04    0.33589E-04  8424   0.119E-03 0.300E-05
CGA:  49    -0.674734564946E+03   -0.98777E-04    0.13984E-04  8424   0.115E-03 0.122E-03
CGA:  50    -0.674734591300E+03   -0.26354E-04   -0.31570E-04  8424   0.316E-03-0.805E-04
CGA:  51    -0.674734647798E+03   -0.56498E-04   -0.48740E-04  8424   0.176E-03-0.133E-03
CGA:  52    -0.674734718597E+03   -0.70799E-04    0.16129E-04  8424   0.920E-04 0.913E-04
CGA:  53    -0.674734261692E+03    0.45690E-03   -0.24597E-03  8424   0.744E-02-0.509E-03
CGA:  54    -0.674735021682E+03   -0.75999E-03   -0.72794E-03  8424   0.602E-04-0.118E-03
CGA:  55    -0.674735094344E+03   -0.72661E-04    0.16342E-04  8424   0.723E-04 0.358E-04
CGA:  56    -0.674735175777E+03   -0.81433E-04    0.25167E-04  8424   0.164E-03-0.138E-05
CGA:  57    -0.674735418604E+03   -0.24283E-03    0.28052E-04  8424   0.181E-03 0.128E-03
CGA:  58    -0.674735478171E+03   -0.59567E-04   -0.54906E-04  8424   0.176E-03-0.723E-04
CGA:  59    -0.674735634272E+03   -0.15610E-03    0.18973E-04  8424   0.238E-03 0.311E-04
CGA:  60    -0.674735957965E+03   -0.32369E-03    0.86905E-04  8424   0.123E-03 0.131E-03
CGA:  61    -0.674736001936E+03   -0.43970E-04   -0.42814E-04  8424   0.250E-03-0.704E-04
CGA:  62    -0.674736086753E+03   -0.84817E-04   -0.65348E-04  8424   0.336E-03-0.191E-03
CGA:  63    -0.674736128668E+03   -0.41915E-04   -0.43898E-04  8424   0.516E-04 0.832E-05
CGA:  64    -0.674736219097E+03   -0.90429E-04    0.63035E-05  8424   0.571E-04 0.497E-04
CGA:  65    -0.674736307790E+03   -0.88693E-04    0.80421E-05  8424   0.849E-04 0.239E-04
CGA:  66    -0.674736506175E+03   -0.19839E-03    0.15263E-04  8424   0.567E-04 0.111E-03
CGA:  67    -0.674736582587E+03   -0.76412E-04    0.10479E-04  8424   0.600E-04 0.307E-04
CGA:  68    -0.674736673274E+03   -0.90686E-04    0.88707E-05  8424   0.672E-04 0.256E-04
CGA:  69    -0.674736842197E+03   -0.16892E-03    0.10868E-04  8424   0.621E-04 0.906E-04
CGA:  70    -0.674736926045E+03   -0.83848E-04    0.11464E-04  8424   0.553E-04 0.285E-04
CGA:  71    -0.674737083983E+03   -0.15794E-03    0.77114E-05  8424   0.602E-04 0.789E-04
CGA:  72    -0.674737168998E+03   -0.85015E-04    0.10117E-04  8424   0.489E-04 0.327E-04
CGA:  73    -0.674737254699E+03   -0.85701E-04    0.55759E-05  8424   0.448E-04 0.390E-04
CGA:  74    -0.674737339209E+03   -0.84510E-04    0.45362E-05  8424   0.433E-04 0.410E-04
CGA:  75    -0.674737424171E+03   -0.84962E-04    0.41210E-05  8424   0.426E-04 0.415E-04
CGA:  76    -0.674737509366E+03   -0.85195E-04    0.39548E-05  8424   0.423E-04 0.416E-04
CGA:  77    -0.674737594847E+03   -0.85481E-04    0.38642E-05  8424   0.422E-04 0.415E-04
CGA:  78    -0.674737680723E+03   -0.85876E-04    0.38042E-05  8424   0.423E-04 0.412E-04
CGA:  79    -0.674737766644E+03   -0.85920E-04    0.38160E-05  8424   0.429E-04 0.405E-04
CGA:  80    -0.674737852865E+03   -0.86222E-04    0.39380E-05  8424   0.454E-04 0.389E-04
CGA:  81    -0.674737938320E+03   -0.85455E-04    0.46291E-05  8424   0.552E-04 0.335E-04
CGA:  82    -0.674738020341E+03   -0.82021E-04    0.84505E-05  8424   0.941E-04 0.138E-04
CGA:  83    -0.674738262022E+03   -0.24168E-03    0.10443E-04  8424   0.620E-04 0.113E-03
CGA:  84    -0.674738340708E+03   -0.78686E-04    0.13016E-04  8424   0.110E-03 0.217E-05
CGA:  85    -0.674738584464E+03   -0.24376E-03    0.95822E-05  8424   0.102E-03 0.107E-03
CGA:  86    -0.674738672466E+03   -0.88002E-04    0.75484E-04  8424   0.191E-03-0.550E-04
CGA:  87    -0.674738728880E+03   -0.56413E-04   -0.46776E-04  8424   0.168E-03-0.948E-04
CGA:  88    -0.674738889883E+03   -0.16100E-03    0.80504E-05  8424   0.142E-03 0.637E-04
CGA:  89    -0.674739122677E+03   -0.23279E-03    0.45939E-04  8424   0.270E-03-0.343E-04
CGA:  90    -0.674739612768E+03   -0.49009E-03    0.14016E-04  8424   0.565E-03 0.971E-04
CGA:  91    -0.674740809704E+03   -0.11969E-02    0.10302E-03  8424   0.744E-03 0.193E-03
CGA:  92    -0.674742589859E+03   -0.17802E-02    0.10670E-03  8424   0.617E-03 0.331E-03
CGA:  93    -0.674744327531E+03   -0.17377E-02    0.82730E-04  8424   0.695E-03 0.213E-03
CGA:  94    -0.674746369309E+03   -0.20418E-02    0.72978E-04  8424   0.682E-03 0.213E-03
CGA:  95    -0.674748494931E+03   -0.21256E-02    0.61480E-04  8424   0.628E-03 0.271E-03
CGA:  96    -0.674750693143E+03   -0.21982E-02    0.56535E-04  8424   0.633E-03-0.161E-04
CGA:  97    -0.674753098200E+03   -0.24051E-02    0.22493E-04  8424   0.570E-03 0.207E-03
CGA:  98    -0.674755163859E+03   -0.20657E-02    0.43363E-04  8424   0.657E-03-0.297E-03
CGA:  99    -0.674755316499E+03   -0.15264E-03   -0.13195E-03  8424   0.724E-04-0.147E-03
CGA: 100    -0.674755336341E+03   -0.19842E-04   -0.22602E-04  8424   0.989E-04-0.415E-04
CGA: 101    -0.674755369997E+03   -0.33655E-04   -0.32245E-04  8424   0.188E-03-0.113E-03
CGA: 102    -0.674755398049E+03   -0.28053E-04   -0.26776E-04  8424   0.118E-04-0.648E-05
CGA: 103    -0.674755427113E+03   -0.29064E-04    0.65074E-06  8424   0.104E-04 0.968E-05
CGA: 104    -0.674755462930E+03   -0.35817E-04    0.40523E-06  8424   0.112E-04 0.825E-05
CGA: 105    -0.674755482718E+03   -0.19788E-04    0.10851E-05  8424   0.139E-04 0.650E-05
CGA: 106    -0.674755527817E+03   -0.45099E-04    0.57450E-06  8424   0.226E-04 0.141E-05
CGA: 107    -0.674755606421E+03   -0.78603E-04    0.10770E-05  8424   0.187E-04 0.239E-04
CGA: 108    -0.674755610958E+03   -0.45377E-05   -0.45093E-05  8424   0.178E-04-0.395E-06
  14 F= -.67475561E+03 E0= -.67475561E+03  d E =0.133638E+01  mag=     1.0000
       N       E                     dE             d eps       ncg     rms          ort
SDA:   1    -0.632703377887E+03    0.42052E+02    0.00000E+00  8424   0.173E+03 0.000E+00
CGA:   2    -0.659594760435E+03   -0.26891E+02   -0.29097E+02  8424   0.569E+02-0.222E+01
CGA:   3    -0.672225208096E+03   -0.12630E+02   -0.12614E+02  8424   0.152E+02 0.234E+00
CGA:   4    -0.674976034582E+03   -0.27508E+01   -0.27647E+01  8424   0.434E+01 0.380E-01
CGA:   5    -0.675710576618E+03   -0.73454E+00   -0.73955E+00  8424   0.966E+00 0.261E-02
CGA:   6    -0.675915724718E+03   -0.20515E+00   -0.20531E+00  8424   0.241E+00 0.206E-02
CGA:   7    -0.675974772690E+03   -0.59048E-01   -0.59112E-01  8424   0.832E-01 0.905E-03
CGA:   8    -0.675995108704E+03   -0.20336E-01   -0.20420E-01  8424   0.275E-01 0.174E-02
CGA:   9    -0.676002918606E+03   -0.78099E-02   -0.78128E-02  8424   0.101E-01 0.259E-03
CGA:  10    -0.676005692660E+03   -0.27741E-02   -0.27924E-02  8424   0.364E-02 0.114E-02
CGA:  11    -0.676006725241E+03   -0.10326E-02   -0.10544E-02  8424   0.115E-02 0.782E-03
CGA:  12    -0.676006980209E+03   -0.25497E-03   -0.29918E-03  8424   0.485E-03 0.612E-03
CGA:  13    -0.676007022313E+03   -0.42104E-04   -0.81791E-04  8424   0.292E-03 0.346E-03
CGA:  14    -0.676007026127E+03   -0.38136E-05   -0.40660E-04  8424   0.247E-03 0.266E-03
CGA:  15    -0.676007018511E+03    0.76155E-05   -0.28644E-04  8424   0.224E-03 0.235E-03
CGA:  16    -0.676007007558E+03    0.10953E-04   -0.23301E-04  8424   0.208E-03 0.216E-03
CGA:  17    -0.676006995012E+03    0.12547E-04   -0.19846E-04  8424   0.198E-03 0.203E-03
CGA:  18    -0.676006981755E+03    0.13257E-04   -0.17434E-04  8424   0.189E-03 0.193E-03
CGA:  19    -0.676006968209E+03    0.13546E-04   -0.15566E-04  8424   0.182E-03 0.186E-03
CGA:  20    -0.676006954599E+03    0.13610E-04   -0.14016E-04  8424   0.176E-03 0.179E-03
CGA:  21    -0.676006941110E+03    0.13489E-04   -0.12770E-04  8424   0.172E-03 0.174E-03
CGA:  22    -0.676006927851E+03    0.13259E-04   -0.11734E-04  8424   0.167E-03 0.169E-03
CGA:  23    -0.676006914882E+03    0.12969E-04   -0.10838E-04  8424   0.164E-03 0.166E-03
CGA:  24    -0.676006902244E+03    0.12638E-04   -0.10060E-04  8424   0.161E-03 0.162E-03
CGA:  25    -0.676006889956E+03    0.12288E-04   -0.93571E-05  8424   0.158E-03 0.159E-03
CGA:  26    -0.676006878031E+03    0.11924E-04   -0.87277E-05  8424   0.155E-03 0.156E-03
CGA:  27    -0.676006866477E+03    0.11554E-04   -0.81683E-05  8424   0.153E-03 0.154E-03
CGA:  28    -0.676006855295E+03    0.11182E-04   -0.76660E-05  8424   0.151E-03 0.152E-03
CGA:  29    -0.676006844483E+03    0.10812E-04   -0.72091E-05  8424   0.149E-03 0.150E-03
CGA:  30    -0.676006834038E+03    0.10445E-04   -0.67924E-05  8424   0.147E-03 0.148E-03
CGA:  31    -0.676006823953E+03    0.10085E-04   -0.64098E-05  8424   0.145E-03 0.146E-03
CGA:  32    -0.676006814221E+03    0.97323E-05   -0.60554E-05  8424   0.144E-03 0.145E-03
  15 F= -.67600681E+03 E0= -.67600681E+03  d E =-.125120E+01  mag=     1.0000
       N       E                     dE             d eps       ncg     rms          ort
SDA:   1    -0.675120977101E+03    0.88585E+00    0.00000E+00  8424   0.296E+01 0.000E+00
CGA:   2    -0.675757554848E+03   -0.63658E+00   -0.63592E+00  8424   0.134E+01 0.781E-02
CGA:   3    -0.676039423373E+03   -0.28187E+00   -0.28194E+00  8424   0.398E+00-0.116E-02
CGA:   4    -0.676103718542E+03   -0.64295E-01   -0.64278E-01  8424   0.904E-01 0.107E-02
CGA:   5    -0.676119140711E+03   -0.15422E-01   -0.15393E-01  8424   0.181E-01 0.130E-02
CGA:   6    -0.676122911377E+03   -0.37707E-02   -0.37282E-02  8424   0.415E-02 0.778E-03
CGA:   7    -0.676123745726E+03   -0.83435E-03   -0.80435E-03  8424   0.114E-02 0.876E-03
CGA:   8    -0.676123942282E+03   -0.19656E-03   -0.20158E-03  8424   0.485E-03 0.689E-03
CGA:   9    -0.676123979567E+03   -0.37285E-04   -0.53095E-04  8424   0.306E-03 0.364E-03
CGA:  10    -0.676123984143E+03   -0.45760E-05   -0.24338E-04  8424   0.257E-03 0.278E-03
CGA:  11    -0.676123982293E+03    0.18499E-05   -0.17379E-04  8424   0.230E-03 0.241E-03
CGA:  12    -0.676123977707E+03    0.45859E-05   -0.13717E-04  8424   0.212E-03 0.219E-03
CGA:  13    -0.676123971756E+03    0.59507E-05   -0.11385E-04  8424   0.198E-03 0.203E-03
  16 F= -.67612397E+03 E0= -.67612397E+03  d E =-.117158E+00  mag=     1.0000
       N       E                     dE             d eps       ncg     rms          ort
SDA:   1    -0.671359781563E+03    0.47642E+01    0.00000E+00  8424   0.132E+02 0.000E+00
CGA:   2    -0.674669258107E+03   -0.33095E+01   -0.33070E+01  8424   0.635E+01 0.199E-01
CGA:   3    -0.675896884144E+03   -0.12276E+01   -0.12278E+01  8424   0.163E+01-0.342E-02
CGA:   4    -0.676165898826E+03   -0.26901E+00   -0.26899E+00  8424   0.387E+00 0.787E-03
CGA:   5    -0.676232807191E+03   -0.66908E-01   -0.66888E-01  8424   0.810E-01 0.566E-03
CGA:   6    -0.676250063944E+03   -0.17257E-01   -0.17209E-01  8424   0.200E-01 0.668E-03
CGA:   7    -0.676254661569E+03   -0.45976E-02   -0.45124E-02  8424   0.643E-02 0.109E-02
CGA:   8    -0.676256309267E+03   -0.16477E-02   -0.15517E-02  8424   0.204E-02 0.121E-02
CGA:   9    -0.676256868098E+03   -0.55883E-03   -0.50917E-03  8424   0.814E-03 0.875E-03
CGA:  10    -0.676257057325E+03   -0.18923E-03   -0.18654E-03  8424   0.440E-03 0.661E-03
CGA:  11    -0.676257107412E+03   -0.50087E-04   -0.58330E-04  8424   0.292E-03 0.344E-03
CGA:  12    -0.676257123473E+03   -0.16062E-04   -0.30127E-04  8424   0.248E-03 0.269E-03
CGA:  13    -0.676257130046E+03   -0.65724E-05   -0.21795E-04  8424   0.222E-03 0.235E-03
CGA:  14    -0.676257132144E+03   -0.20980E-05   -0.17344E-04  8424   0.204E-03 0.213E-03
CGA:  15    -0.676257131703E+03    0.44100E-06   -0.14459E-04  8424   0.191E-03 0.198E-03
CGA:  16    -0.676257129694E+03    0.20086E-05   -0.12401E-04  8424   0.181E-03 0.186E-03
CGA:  17    -0.676257126674E+03    0.30205E-05   -0.10845E-04  8424   0.173E-03 0.177E-03
  17 F= -.67625713E+03 E0= -.67625713E+03  d E =-.133155E+00  mag=     1.0000
       N       E                     dE             d eps       ncg     rms          ort
SDA:   1    -0.674981475490E+03    0.12757E+01    0.00000E+00  8424   0.331E+01 0.000E+00
CGA:   2    -0.676009548341E+03   -0.10281E+01   -0.10294E+01  8424   0.115E+01-0.641E-02
CGA:   3    -0.676224592906E+03   -0.21504E+00   -0.21452E+00  8424   0.314E+00 0.106E-01
CGA:   4    -0.676281906380E+03   -0.57313E-01   -0.57389E-01  8424   0.739E-01-0.197E-02
CGA:   5    -0.676294447574E+03   -0.12541E-01   -0.12576E-01  8424   0.171E-01-0.128E-02
CGA:   6    -0.676297735113E+03   -0.32875E-02   -0.32488E-02  8424   0.402E-02 0.807E-03
CGA:   7    -0.676298766246E+03   -0.10311E-02   -0.98129E-03  8424   0.146E-02 0.582E-03
