       N       E                     dE             d eps       ncg     rms          rms(c)
DAV:   1     0.114452972186E+05    0.11445E+05   -0.42215E+05105230   0.155E+03
DAV:   2     0.718403908521E+03   -0.10727E+05   -0.97450E+04102550   0.466E+02
DAV:   3    -0.847626518002E+03   -0.15660E+04   -0.14823E+04109700   0.188E+02
DAV:   4    -0.929241975374E+03   -0.81615E+02   -0.80537E+02117770   0.437E+01
DAV:   5    -0.930287001315E+03   -0.10450E+01   -0.10422E+01112670   0.545E+00    0.139E+02
DAV:   6    -0.756678990450E+03    0.17361E+03   -0.87668E+02126800   0.727E+01    0.111E+02
DAV:   7    -0.787582273435E+03   -0.30903E+02   -0.30030E+02114350   0.495E+01    0.825E+01
DAV:   8    -0.793205899982E+03   -0.56236E+01   -0.44586E+01123590   0.204E+01    0.902E+01
DAV:   9    -0.769849772132E+03    0.23356E+02   -0.40878E+01113350   0.284E+01    0.464E+01
DAV:  10    -0.781186669429E+03   -0.11337E+02   -0.30597E+01122830   0.855E+00    0.269E+01
DAV:  11    -0.784296646867E+03   -0.31100E+01   -0.47840E+00114670   0.593E+00    0.183E+01
DAV:  12    -0.785503423799E+03   -0.12068E+01   -0.27108E+00112530   0.310E+00    0.147E+01
DAV:  13    -0.785612245650E+03   -0.10882E+00   -0.11859E+00124240   0.256E+00    0.116E+01
DAV:  14    -0.785612196681E+03    0.48968E-04   -0.56761E-01117540   0.182E+00    0.820E+00
DAV:  15    -0.785298132836E+03    0.31406E+00   -0.16831E-01119590   0.172E+00    0.547E+00
DAV:  16    -0.785152247598E+03    0.14589E+00   -0.11023E-01132930   0.102E+00    0.430E+00
DAV:  17    -0.785035218903E+03    0.11703E+00   -0.28620E-02156080   0.124E+00    0.314E+00
DAV:  18    -0.784960939209E+03    0.74280E-01   -0.48108E-02132150   0.115E+00    0.176E+00
DAV:  19    -0.784944336265E+03    0.16603E-01   -0.76171E-02123070   0.698E-01    0.849E-01
DAV:  20    -0.784944605173E+03   -0.26891E-03   -0.27119E-02112170   0.244E-01    0.821E-01
DAV:  21    -0.784943727622E+03    0.87755E-03   -0.88969E-04113530   0.591E-02    0.736E-01
DAV:  22    -0.784940510775E+03    0.32168E-02   -0.47443E-04139320   0.186E-01    0.475E-01
DAV:  23    -0.784938592285E+03    0.19185E-02   -0.15599E-03123350   0.218E-01    0.152E-01
DAV:  24    -0.784938405652E+03    0.18663E-03   -0.20707E-03116180   0.896E-02    0.102E-01
DAV:  25    -0.784938425212E+03   -0.19560E-04   -0.54427E-04113600   0.445E-02    0.438E-02
DAV:  26    -0.784938431812E+03   -0.66001E-05   -0.44620E-05110810   0.306E-02
   1 F= -.78493843E+03 E0= -.78493800E+03  d E =-.784938E+03  mag=   114.0034
       N       E                     dE             d eps       ncg     rms          rms(c)
DAV:   1    -0.784942153616E+03   -0.37284E-02   -0.91960E-03134490   0.340E-01    0.740E-02
DAV:   2    -0.784942318898E+03   -0.16528E-03   -0.15587E-03113780   0.796E-02    0.907E-02
DAV:   3    -0.784942307907E+03    0.10991E-04   -0.12966E-04106610   0.325E-02    0.306E-02
DAV:   4    -0.784942308366E+03   -0.45855E-06   -0.90451E-06 66510   0.614E-03
   2 F= -.78494231E+03 E0= -.78494194E+03  d E =-.387655E-02  mag=   113.9951
       N       E                     dE             d eps       ncg     rms          rms(c)
DAV:   1    -0.784959827488E+03   -0.17520E-01   -0.41273E-01132990   0.228E+00    0.407E-01
DAV:   2    -0.784966815400E+03   -0.69879E-02   -0.65309E-02113090   0.416E-01    0.270E-01
DAV:   3    -0.784967106624E+03   -0.29122E-03   -0.26691E-03112150   0.113E-01    0.160E-01
DAV:   4    -0.784967078197E+03    0.28427E-04   -0.17593E-04123270   0.315E-02    0.822E-02
DAV:   5    -0.784967042239E+03    0.35958E-04   -0.69056E-05103740   0.231E-02    0.516E-02
DAV:   6    -0.784967037764E+03    0.44750E-05   -0.44855E-05113050   0.185E-02
   3 F= -.78496704E+03 E0= -.78496693E+03  d E =-.247294E-01  mag=   113.9977
       N       E                     dE             d eps       ncg     rms          rms(c)
DAV:   1    -0.783535822092E+03    0.14312E+01   -0.92645E+01130580   0.332E+01    0.613E+00
DAV:   2    -0.785022120639E+03   -0.14863E+01   -0.13959E+01113440   0.616E+00    0.436E+00
DAV:   3    -0.785082837356E+03   -0.60717E-01   -0.58582E-01112450   0.172E+00    0.240E+00
DAV:   4    -0.785076676229E+03    0.61611E-02   -0.38605E-02124950   0.479E-01    0.125E+00
DAV:   5    -0.785068946492E+03    0.77297E-02   -0.14320E-02124970   0.329E-01    0.776E-01
DAV:   6    -0.785067710616E+03    0.12359E-02   -0.96359E-03118130   0.282E-01    0.364E-01
DAV:   7    -0.785068125975E+03   -0.41536E-03   -0.45913E-03112940   0.134E-01    0.119E-01
DAV:   8    -0.785068083824E+03    0.42151E-04   -0.25619E-04120290   0.437E-02    0.802E-02
DAV:   9    -0.785068085312E+03   -0.14873E-05   -0.13618E-04112710   0.267E-02    0.695E-02
DAV:  10    -0.785068083346E+03    0.19659E-05   -0.23257E-05 89430   0.177E-02
   4 F= -.78506808E+03 E0= -.78506808E+03  d E =-.101046E+00  mag=   114.0000
       N       E                     dE             d eps       ncg     rms          rms(c)
DAV:   1    -0.784784273061E+03    0.28381E+00   -0.12394E+01148570   0.160E+01    0.293E+00
DAV:   2    -0.785114330292E+03   -0.33006E+00   -0.30162E+00113680   0.275E+00    0.171E+00
DAV:   3    -0.785130960447E+03   -0.16630E-01   -0.12528E-01113720   0.764E-01    0.101E+00
DAV:   4    -0.785130142553E+03    0.81789E-03   -0.73866E-03118990   0.197E-01    0.503E-01
DAV:   5    -0.785128928776E+03    0.12138E-02   -0.16752E-03124180   0.116E-01    0.331E-01
DAV:   6    -0.785128523361E+03    0.40541E-03   -0.13032E-03123960   0.126E-01    0.159E-01
DAV:   7    -0.785128597407E+03   -0.74046E-04   -0.79659E-04116770   0.539E-02    0.527E-02
DAV:   8    -0.785128595530E+03    0.18772E-05   -0.52854E-05112150   0.194E-02
   5 F= -.78512860E+03 E0= -.78512860E+03  d E =-.605122E-01  mag=   114.0000
       N       E                     dE             d eps       ncg     rms          rms(c)
DAV:   1    -0.785088111633E+03    0.40486E-01   -0.26862E+00131540   0.578E+00    0.104E+00
DAV:   2    -0.785133875323E+03   -0.45764E-01   -0.42165E-01112230   0.105E+00    0.561E-01
DAV:   3    -0.785135658879E+03   -0.17836E-02   -0.14087E-02111660   0.246E-01    0.321E-01
DAV:   4    -0.785135560367E+03    0.98512E-04   -0.92272E-04120210   0.587E-02    0.188E-01
DAV:   5    -0.785135370104E+03    0.19026E-03   -0.22090E-04122590   0.480E-02    0.113E-01
DAV:   6    -0.785135342632E+03    0.27472E-04   -0.22931E-04126050   0.445E-02    0.554E-02
DAV:   7    -0.785135351948E+03   -0.93165E-05   -0.90445E-05110710   0.197E-02
   6 F= -.78513535E+03 E0= -.78513535E+03  d E =-.675642E-02  mag=   114.0000
       N       E                     dE             d eps       ncg     rms          rms(c)
DAV:   1    -0.785066435405E+03    0.68907E-01   -0.90531E+00116300   0.785E+00    0.125E+00
DAV:   2    -0.785148996354E+03   -0.82561E-01   -0.79011E-01111100   0.147E+00    0.743E-01
DAV:   3    -0.785151040999E+03   -0.20446E-02   -0.20796E-02109440   0.299E-01    0.408E-01
DAV:   4    -0.785150599416E+03    0.44158E-03   -0.16094E-03124660   0.861E-02    0.255E-01
DAV:   5    -0.785150118540E+03    0.48088E-03   -0.78978E-04122140   0.891E-02    0.131E-01
DAV:   6    -0.785150154506E+03   -0.35966E-04   -0.59344E-04119230   0.498E-02    0.611E-02
DAV:   7    -0.785150163224E+03   -0.87181E-05   -0.10286E-04111200   0.213E-02    0.262E-02
DAV:   8    -0.785150161594E+03    0.16296E-05   -0.49473E-06 61740   0.736E-03
   7 F= -.78515016E+03 E0= -.78515016E+03  d E =-.148096E-01  mag=   114.0000
       N       E                     dE             d eps       ncg     rms          rms(c)
DAV:   1    -0.785057958148E+03    0.92205E-01   -0.74800E+00119770   0.800E+00    0.138E+00
DAV:   2    -0.785151978580E+03   -0.94020E-01   -0.90072E-01111680   0.153E+00    0.837E-01
DAV:   3    -0.785155177545E+03   -0.31990E-02   -0.27907E-02108680   0.354E-01    0.488E-01
DAV:   4    -0.785154763059E+03    0.41449E-03   -0.20216E-03123940   0.100E-01    0.289E-01
DAV:   5    -0.785154225252E+03    0.53781E-03   -0.73350E-04123170   0.848E-02    0.167E-01
DAV:   6    -0.785154177065E+03    0.48187E-04   -0.64906E-04123320   0.700E-02    0.695E-02
DAV:   7    -0.785154200596E+03   -0.23531E-04   -0.25053E-04111880   0.311E-02    0.263E-02
DAV:   8    -0.785154198984E+03    0.16112E-05   -0.93526E-06 65960   0.907E-03
   8 F= -.78515420E+03 E0= -.78515420E+03  d E =-.403739E-02  mag=   114.0000
       N       E                     dE             d eps       ncg     rms          rms(c)
DAV:   1    -0.784881986530E+03    0.27221E+00   -0.15833E+01130420   0.138E+01    0.232E+00
DAV:   2    -0.785129730409E+03   -0.24774E+00   -0.23147E+00110730   0.248E+00    0.120E+00
DAV:   3    -0.785139225409E+03   -0.94950E-02   -0.64873E-02108780   0.526E-01    0.588E-01
DAV:   4    -0.785138493548E+03    0.73186E-03   -0.42024E-03124170   0.123E-01    0.392E-01
DAV:   5    -0.785137473682E+03    0.10199E-02   -0.10762E-03126150   0.118E-01    0.220E-01
DAV:   6    -0.785137373734E+03    0.99948E-04   -0.11236E-03125160   0.945E-02    0.957E-02
DAV:   7    -0.785137417601E+03   -0.43866E-04   -0.39392E-04111960   0.422E-02    0.454E-02
DAV:   8    -0.785137417602E+03   -0.12078E-08   -0.18954E-05 82670   0.135E-02
   9 F= -.78513742E+03 E0= -.78513742E+03  d E =0.167814E-01  mag=   114.0000
       N       E                     dE             d eps       ncg     rms          rms(c)
DAV:   1    -0.785014056798E+03    0.12336E+00   -0.54380E+00137660   0.964E+00    0.165E+00
DAV:   2    -0.785127021482E+03   -0.11296E+00   -0.10528E+00112220   0.169E+00    0.881E-01
DAV:   3    -0.785131945452E+03   -0.49240E-02   -0.40207E-02113620   0.416E-01    0.514E-01
DAV:   4    -0.785131581939E+03    0.36351E-03   -0.23421E-03122610   0.103E-01    0.288E-01
DAV:   5    -0.785130991335E+03    0.59060E-03   -0.75608E-04123310   0.861E-02    0.172E-01
DAV:   6    -0.785130866591E+03    0.12474E-03   -0.69445E-04122420   0.881E-02    0.900E-02
DAV:   7    -0.785130906731E+03   -0.40140E-04   -0.40458E-04112740   0.386E-02    0.417E-02
DAV:   8    -0.785130903117E+03    0.36148E-05   -0.15578E-05 75160   0.147E-02
  10 F= -.78513090E+03 E0= -.78513090E+03  d E =0.651449E-02  mag=   114.0000
       N       E                     dE             d eps       ncg     rms          rms(c)
DAV:   1    -0.785063740225E+03    0.67167E-01   -0.45436E+00128350   0.760E+00    0.131E+00
DAV:   2    -0.785136473323E+03   -0.72733E-01   -0.68703E-01113550   0.141E+00    0.773E-01
DAV:   3    -0.785139309844E+03   -0.28365E-02   -0.25773E-02112670   0.353E-01    0.469E-01
DAV:   4    -0.785138981036E+03    0.32881E-03   -0.16527E-03122430   0.975E-02    0.253E-01
DAV:   5    -0.785138519378E+03    0.46166E-03   -0.62885E-04123920   0.776E-02    0.152E-01
DAV:   6    -0.785138420494E+03    0.98884E-04   -0.53794E-04122330   0.739E-02    0.835E-02
DAV:   7    -0.785138449907E+03   -0.29413E-04   -0.30343E-04114200   0.325E-02    0.308E-02
DAV:   8    -0.785138446525E+03    0.33822E-05   -0.15550E-05 70850   0.122E-02
  11 F= -.78513845E+03 E0= -.78513845E+03  d E =-.754341E-02  mag=   114.0000
       N       E                     dE             d eps       ncg     rms          rms(c)
DAV:   1    -0.785109664096E+03    0.28786E-01   -0.11323E+00126150   0.389E+00    0.649E-01
DAV:   2    -0.785128751496E+03   -0.19087E-01   -0.17896E-01112600   0.709E-01    0.332E-01
DAV:   3    -0.785129412229E+03   -0.66073E-03   -0.56754E-03113840   0.153E-01    0.172E-01
DAV:   4    -0.785129343886E+03    0.68343E-04   -0.37497E-04124360   0.396E-02    0.113E-01
DAV:   5    -0.785129244112E+03    0.99774E-04   -0.12790E-04121360   0.368E-02    0.603E-02
DAV:   6    -0.785129232483E+03    0.11629E-04   -0.10503E-04121380   0.308E-02    0.241E-02
DAV:   7    -0.785129237723E+03   -0.52393E-05   -0.47967E-05107040   0.143E-02
  12 F= -.78512924E+03 E0= -.78512924E+03  d E =0.920880E-02  mag=   114.0000
       N       E                     dE             d eps       ncg     rms          rms(c)
DAV:   1    -0.784978071790E+03    0.15116E+00   -0.49593E+00136900   0.981E+00    0.170E+00
DAV:   2    -0.785095368025E+03   -0.11730E+00   -0.10866E+00112120   0.171E+00    0.872E-01
DAV:   3    -0.785100829640E+03   -0.54616E-02   -0.38648E-02111420   0.405E-01    0.459E-01
DAV:   4    -0.785100573354E+03    0.25629E-03   -0.23515E-03124050   0.102E-01    0.277E-01
DAV:   5    -0.785100125439E+03    0.44791E-03   -0.65188E-04124380   0.837E-02    0.155E-01
DAV:   6    -0.785100072650E+03    0.52789E-04   -0.60017E-04125360   0.831E-02    0.666E-02
DAV:   7    -0.785100107512E+03   -0.34862E-04   -0.32328E-04112430   0.368E-02    0.371E-02
DAV:   8    -0.785100106514E+03    0.99797E-06   -0.16353E-05 77750   0.120E-02
  13 F= -.78510011E+03 E0= -.78510011E+03  d E =0.291312E-01  mag=   114.0000
       N       E                     dE             d eps       ncg     rms          rms(c)
DAV:   1    -0.784815647553E+03    0.28446E+00   -0.11357E+01138290   0.143E+01    0.239E+00
DAV:   2    -0.785053726004E+03   -0.23808E+00   -0.22078E+00111410   0.249E+00    0.123E+00
DAV:   3    -0.785064919272E+03   -0.11193E-01   -0.80468E-02112080   0.589E-01    0.645E-01
DAV:   4    -0.785064295729E+03    0.62354E-03   -0.48749E-03125790   0.144E-01    0.382E-01
DAV:   5    -0.785063280926E+03    0.10148E-02   -0.14319E-03123590   0.125E-01    0.212E-01
DAV:   6    -0.785063148279E+03    0.13265E-03   -0.12776E-03123120   0.115E-01    0.106E-01
DAV:   7    -0.785063213538E+03   -0.65258E-04   -0.65002E-04112320   0.541E-02    0.516E-02
DAV:   8    -0.785063211684E+03    0.18538E-05   -0.42254E-05103660   0.183E-02
  14 F= -.78506321E+03 E0= -.78506321E+03  d E =0.368948E-01  mag=   114.0000
       N       E                     dE             d eps       ncg     rms          rms(c)
DAV:   1    -0.784880994172E+03    0.18222E+00   -0.89782E+00135600   0.112E+01    0.190E+00
DAV:   2    -0.785034580643E+03   -0.15359E+00   -0.14418E+00113210   0.199E+00    0.114E+00
DAV:   3    -0.785042070422E+03   -0.74898E-02   -0.58460E-02112180   0.545E-01    0.724E-01
DAV:   4    -0.785041447135E+03    0.62329E-03   -0.37867E-03120230   0.143E-01    0.361E-01
DAV:   5    -0.785040625416E+03    0.82172E-03   -0.16314E-03121650   0.113E-01    0.216E-01
DAV:   6    -0.785040543740E+03    0.81676E-04   -0.91335E-04123000   0.878E-02    0.108E-01
DAV:   7    -0.785040588158E+03   -0.44417E-04   -0.41974E-04112930   0.421E-02    0.408E-02
DAV:   8    -0.785040585252E+03    0.29059E-05   -0.32879E-05101620   0.158E-02
  15 F= -.78504059E+03 E0= -.78504059E+03  d E =0.226264E-01  mag=   114.0000
       N       E                     dE             d eps       ncg     rms          rms(c)
DAV:   1    -0.784951455295E+03    0.89133E-01   -0.49001E+00139090   0.854E+00    0.146E+00
DAV:   2    -0.785046558055E+03   -0.95103E-01   -0.88800E-01112780   0.151E+00    0.843E-01
DAV:   3    -0.785050379404E+03   -0.38213E-02   -0.31777E-02113320   0.379E-01    0.485E-01
DAV:   4    -0.785050008535E+03    0.37087E-03   -0.21720E-03120490   0.102E-01    0.268E-01
DAV:   5    -0.785049486507E+03    0.52203E-03   -0.67377E-04124870   0.783E-02    0.160E-01
DAV:   6    -0.785049374746E+03    0.11176E-03   -0.48332E-04123270   0.686E-02    0.732E-02
DAV:   7    -0.785049394815E+03   -0.20069E-04   -0.23312E-04113510   0.301E-02    0.252E-02
DAV:   8    -0.785049393272E+03    0.15428E-05   -0.17316E-05 80500   0.995E-03
  16 F= -.78504939E+03 E0= -.78504939E+03  d E =-.880802E-02  mag=   114.0000
       N       E                     dE             d eps       ncg     rms          rms(c)
DAV:   1    -0.784875593124E+03    0.17380E+00   -0.10732E+01132350   0.119E+01    0.203E+00
DAV:   2    -0.785061656440E+03   -0.18606E+00   -0.17273E+00111750   0.213E+00    0.109E+00
DAV:   3    -0.785068562197E+03   -0.69058E-02   -0.52620E-02112350   0.469E-01    0.566E-01
DAV:   4    -0.785068035984E+03    0.52621E-03   -0.35456E-03121870   0.123E-01    0.348E-01
DAV:   5    -0.785067192687E+03    0.84330E-03   -0.97768E-04125780   0.106E-01    0.201E-01
DAV:   6    -0.785067072466E+03    0.12022E-03   -0.88004E-04121250   0.881E-02    0.106E-01
DAV:   7    -0.785067116334E+03   -0.43867E-04   -0.38913E-04113650   0.398E-02    0.425E-02
DAV:   8    -0.785067114730E+03    0.16037E-05   -0.22630E-05 89020   0.147E-02
  17 F= -.78506711E+03 E0= -.78506711E+03  d E =-.177215E-01  mag=   114.0000
       N       E                     dE             d eps       ncg     rms          rms(c)
DAV:   1    -0.784795438870E+03    0.27168E+00   -0.10385E+01148900   0.140E+01    0.247E+00
DAV:   2    -0.785036458929E+03   -0.24102E+00   -0.22328E+00112520   0.237E+00    0.149E+00
DAV:   3    -0.785050232109E+03   -0.13773E-01   -0.99416E-02113000   0.683E-01    0.874E-01
DAV:   4    -0.785049358755E+03    0.87335E-03   -0.63613E-03126320   0.185E-01    0.396E-01
DAV:   5    -0.785048232089E+03    0.11267E-02   -0.20282E-03125230   0.121E-01    0.243E-01
DAV:   6    -0.785047990370E+03    0.24172E-03   -0.11486E-03121630   0.105E-01    0.139E-01
DAV:   7    -0.785048045432E+03   -0.55062E-04   -0.62446E-04115320   0.504E-02    0.500E-02
DAV:   8    -0.785048039709E+03    0.57229E-05   -0.59875E-05110830   0.196E-02
  18 F= -.78504804E+03 E0= -.78504804E+03  d E =0.190750E-01  mag=   114.0000
       N       E                     dE             d eps       ncg     rms          rms(c)
DAV:   1    -0.784960402367E+03    0.87643E-01   -0.47647E+00146100   0.909E+00    0.151E+00
DAV:   2    -0.785056945811E+03   -0.96543E-01   -0.90058E-01112170   0.155E+00    0.830E-01
DAV:   3    -0.785061726241E+03   -0.47804E-02   -0.36457E-02112670   0.408E-01    0.504E-01
DAV:   4    -0.785061372383E+03    0.35386E-03   -0.23661E-03122640   0.107E-01    0.258E-01
DAV:   5    -0.785060867390E+03    0.50499E-03   -0.78022E-04123690   0.805E-02    0.161E-01
DAV:   6    -0.785060756369E+03    0.11102E-03   -0.51409E-04122640   0.711E-02    0.851E-02
DAV:   7    -0.785060781851E+03   -0.25482E-04   -0.27294E-04113700   0.323E-02    0.327E-02
DAV:   8    -0.785060779729E+03    0.21218E-05   -0.18623E-05 78660   0.126E-02
  19 F= -.78506078E+03 E0= -.78506078E+03  d E =-.127400E-01  mag=   114.0000
       N       E                     dE             d eps       ncg     rms          rms(c)
DAV:   1    -0.785038924769E+03    0.21857E-01   -0.13069E+00123990   0.362E+00    0.618E-01
DAV:   2    -0.785055843412E+03   -0.16919E-01   -0.15965E-01113600   0.677E-01    0.407E-01
DAV:   3    -0.785056383556E+03   -0.54014E-03   -0.57560E-03113810   0.176E-01    0.242E-01
DAV:   4    -0.785056301702E+03    0.81854E-04   -0.38428E-04123670   0.440E-02    0.133E-01
DAV:   5    -0.785056185154E+03    0.11655E-03   -0.17061E-04118170   0.404E-02    0.750E-02
DAV:   6    -0.785056179008E+03    0.61461E-05   -0.13845E-04120320   0.293E-02    0.392E-02
DAV:   7    -0.785056183224E+03   -0.42158E-05   -0.44812E-05106160   0.141E-02
  20 F= -.78505618E+03 E0= -.78505618E+03  d E =0.459651E-02  mag=   114.0000
       N       E                     dE             d eps       ncg     rms          rms(c)
DAV:   1    -0.785044064140E+03    0.12115E-01   -0.74907E-01135150   0.368E+00    0.648E-01
DAV:   2    -0.785060703905E+03   -0.16640E-01   -0.15348E-01112820   0.635E-01    0.330E-01
DAV:   3    -0.785061463319E+03   -0.75941E-03   -0.55059E-03113880   0.149E-01    0.175E-01
DAV:   4    -0.785061418642E+03    0.44677E-04   -0.33333E-04120280   0.347E-02    0.105E-01
DAV:   5    -0.785061341206E+03    0.77436E-04   -0.10425E-04118030   0.319E-02    0.566E-02
DAV:   6    -0.785061330417E+03    0.10789E-04   -0.82515E-05118490   0.285E-02    0.222E-02
DAV:   7    -0.785061334573E+03   -0.41557E-05   -0.41232E-05107610   0.131E-02
  21 F= -.78506133E+03 E0= -.78506133E+03  d E =-.515135E-02  mag=   114.0000
       N       E                     dE             d eps       ncg     rms          rms(c)
DAV:   1    -0.785054179961E+03    0.71505E-02   -0.49329E-01143240   0.288E+00    0.487E-01
DAV:   2    -0.785063520981E+03   -0.93410E-02   -0.87278E-02113780   0.502E-01    0.321E-01
DAV:   3    -0.785063996310E+03   -0.47533E-03   -0.40415E-03112800   0.144E-01    0.197E-01
DAV:   4    -0.785063949910E+03    0.46400E-04   -0.25304E-04124800   0.397E-02    0.917E-02
DAV:   5    -0.785063895243E+03    0.54667E-04   -0.11129E-04104710   0.283E-02    0.542E-02
DAV:   6    -0.785063887843E+03    0.74000E-05   -0.61859E-05114290   0.234E-02
  22 F= -.78506389E+03 E0= -.78506389E+03  d E =-.255327E-02  mag=   114.0000
       N       E                     dE             d eps       ncg     rms          rms(c)
DAV:   1    -0.785059779631E+03    0.41156E-02   -0.12343E-01133110   0.137E+00    0.229E-01
DAV:   2    -0.785061988509E+03   -0.22089E-02   -0.20534E-02113230   0.243E-01    0.137E-01
DAV:   3    -0.785062077449E+03   -0.88940E-04   -0.77468E-04113210   0.620E-02    0.789E-02
DAV:   4    -0.785062067919E+03    0.95292E-05   -0.50265E-05105050   0.175E-02
  23 F= -.78506207E+03 E0= -.78506207E+03  d E =0.181992E-02  mag=   114.0000
       N       E                     dE             d eps       ncg     rms          rms(c)
DAV:   1    -0.785049716292E+03    0.12361E-01   -0.56094E-01123380   0.244E+00    0.403E-01
DAV:   2    -0.785057281015E+03   -0.75647E-02   -0.70852E-02111830   0.448E-01    0.252E-01
DAV:   3    -0.785057521837E+03   -0.24082E-03   -0.23070E-03111540   0.111E-01    0.150E-01
DAV:   4    -0.785057488675E+03    0.33161E-04   -0.15998E-04123000   0.298E-02    0.860E-02
DAV:   5    -0.785057443482E+03    0.45193E-04   -0.66622E-05103590   0.261E-02    0.452E-02
DAV:   6    -0.785057442697E+03    0.78529E-06   -0.51149E-05114480   0.189E-02
  24 F= -.78505744E+03 E0= -.78505744E+03  d E =0.462522E-02  mag=   114.0000
       N       E                     dE             d eps       ncg     rms          rms(c)
DAV:   1    -0.785054321251E+03    0.31222E-02   -0.17793E-01141340   0.187E+00    0.326E-01
DAV:   2    -0.785058685291E+03   -0.43640E-02   -0.40215E-02112440   0.320E-01    0.177E-01
DAV:   3    -0.785058879955E+03   -0.19466E-03   -0.13870E-03112440   0.784E-02    0.936E-02
DAV:   4    -0.785058869454E+03    0.10502E-04   -0.89871E-05111930   0.205E-02    0.556E-02
DAV:   5    -0.785058851892E+03    0.17561E-04   -0.23080E-05 84090   0.157E-02    0.338E-02
DAV:   6    -0.785058848570E+03    0.33218E-05   -0.20556E-05 89730   0.137E-02
  25 F= -.78505885E+03 E0= -.78505885E+03  d E =-.140587E-02  mag=   114.0000
       N       E                     dE             d eps       ncg     rms          rms(c)
DAV:   1    -0.785057032751E+03    0.18191E-02   -0.10232E-01147820   0.132E+00    0.226E-01
DAV:   2    -0.785059019244E+03   -0.19865E-02   -0.18388E-02113410   0.223E-01    0.135E-01
DAV:   3    -0.785059127424E+03   -0.10818E-03   -0.78260E-04113580   0.626E-02    0.829E-02
DAV:   4    -0.785059118694E+03    0.87303E-05   -0.48586E-05101110   0.166E-02
  26 F= -.78505912E+03 E0= -.78505912E+03  d E =-.270123E-03  mag=   114.0000
