       N       E                     dE             d eps       ncg     rms          rms(c)
DAV:   1     0.441973992924E+04    0.44197E+04   -0.15522E+05  7744   0.148E+03
DAV:   2     0.463178370520E+03   -0.39566E+04   -0.38163E+04  7272   0.437E+02
DAV:   3    -0.292500493377E+03   -0.75568E+03   -0.71904E+03  9997   0.158E+02
DAV:   4    -0.351497596269E+03   -0.58997E+02   -0.58641E+02  9360   0.471E+01
DAV:   5    -0.352902979499E+03   -0.14054E+01   -0.14030E+01  9744   0.871E+00    0.674E+01
DAV:   6    -0.275395074521E+03    0.77508E+02   -0.45565E+02  9609   0.544E+01    0.371E+01
DAV:   7    -0.276154651754E+03   -0.75958E+00   -0.94822E+01  9831   0.271E+01    0.196E+01
DAV:   8    -0.276357586762E+03   -0.20294E+00   -0.32222E+01  9941   0.147E+01    0.143E+01
DAV:   9    -0.276329365778E+03    0.28221E-01   -0.22171E+01 10112   0.106E+01    0.906E+00
DAV:  10    -0.275633605163E+03    0.69576E+00   -0.30168E+00  9943   0.493E+00    0.416E+00
DAV:  11    -0.275599910048E+03    0.33695E-01   -0.45688E-01 10176   0.240E+00    0.319E+00
DAV:  12    -0.275617601731E+03   -0.17692E-01   -0.35216E-01 10333   0.174E+00    0.237E+00
DAV:  13    -0.275608991018E+03    0.86107E-02   -0.14018E-01 10136   0.119E+00    0.122E+00
DAV:  14    -0.275606425903E+03    0.25651E-02   -0.65230E-02 10196   0.700E-01    0.772E-01
DAV:  15    -0.275622016888E+03   -0.15591E-01   -0.40879E-02 10237   0.507E-01    0.128E+00
DAV:  16    -0.275609860988E+03    0.12156E-01   -0.18852E-02 10231   0.239E-01    0.750E-01
DAV:  17    -0.275605444076E+03    0.44169E-02   -0.14032E-02 10234   0.287E-01    0.357E-01
DAV:  18    -0.275604640845E+03    0.80323E-03   -0.64602E-03 10018   0.196E-01    0.242E-01
DAV:  19    -0.275604242695E+03    0.39815E-03   -0.29955E-03 10144   0.119E-01    0.200E-01
DAV:  20    -0.275604011533E+03    0.23116E-03   -0.50194E-04  9864   0.555E-02    0.165E-01
DAV:  21    -0.275603918926E+03    0.92608E-04   -0.16120E-04  8712   0.191E-02    0.142E-01
DAV:  22    -0.275603703573E+03    0.21535E-03   -0.17418E-03  9808   0.594E-02    0.649E-02
DAV:  23    -0.275603651006E+03    0.52566E-04   -0.52765E-04  9816   0.435E-02    0.501E-02
DAV:  24    -0.275603632896E+03    0.18111E-04   -0.12133E-04  8648   0.218E-02    0.449E-02
DAV:  25    -0.275603606923E+03    0.25973E-04   -0.13853E-04  8576   0.166E-02    0.355E-02
DAV:  26    -0.275603589153E+03    0.17770E-04   -0.21549E-04  8864   0.192E-02    0.296E-02
DAV:  27    -0.275603585013E+03    0.41404E-05   -0.10587E-04  8224   0.145E-02    0.269E-02
DAV:  28    -0.275603585509E+03   -0.49684E-06   -0.14546E-05  6208   0.814E-03
   1 F= -.27560359E+03 E0= -.27559735E+03  d E =-.275604E+03  mag=    -0.0075
       N       E                     dE             d eps       ncg     rms          rms(c)
DAV:   1    -0.275604701091E+03   -0.11161E-02   -0.39961E-04  9048   0.681E-02    0.235E-02
DAV:   2    -0.275604723514E+03   -0.22422E-04   -0.16068E-04  9792   0.369E-02    0.340E-02
DAV:   3    -0.275604711583E+03    0.11931E-04   -0.59704E-05  8256   0.230E-02    0.102E-02
DAV:   4    -0.275604714409E+03   -0.28265E-05   -0.52602E-06  5205   0.669E-03
   2 F= -.27560471E+03 E0= -.27559853E+03  d E =-.112890E-02  mag=    -0.0029
       N       E                     dE             d eps       ncg     rms          rms(c)
DAV:   1    -0.275651042182E+03   -0.46331E-01   -0.12195E+00  7634   0.403E+00    0.599E-01
DAV:   2    -0.275668751248E+03   -0.17709E-01   -0.19120E-01  7958   0.115E+00    0.387E-01
DAV:   3    -0.275668526777E+03    0.22447E-03   -0.11803E-02  9846   0.352E-01    0.222E-01
DAV:   4    -0.275668142209E+03    0.38457E-03   -0.25701E-03 10240   0.153E-01    0.191E-01
DAV:   5    -0.275668017887E+03    0.12432E-03   -0.68505E-04  9614   0.856E-02    0.116E-01
DAV:   6    -0.275668009176E+03    0.87111E-05   -0.50509E-04 10101   0.816E-02    0.544E-02
DAV:   7    -0.275668007605E+03    0.15703E-05   -0.82027E-05  9039   0.336E-02
   3 F= -.27566801E+03 E0= -.27566251E+03  d E =-.632932E-01  mag=    -0.0011
       N       E                     dE             d eps       ncg     rms          rms(c)
DAV:   1    -0.275702772464E+03   -0.34763E-01   -0.58932E+00  7646   0.863E+00    0.134E+00
DAV:   2    -0.275782716250E+03   -0.79944E-01   -0.87106E-01  8072   0.244E+00    0.821E-01
DAV:   3    -0.275781304865E+03    0.14114E-02   -0.48074E-02  9627   0.765E-01    0.454E-01
DAV:   4    -0.275779995314E+03    0.13096E-02   -0.10842E-02 10144   0.325E-01    0.414E-01
DAV:   5    -0.275779357010E+03    0.63830E-03   -0.32112E-03  9563   0.173E-01    0.224E-01
DAV:   6    -0.275779406083E+03   -0.49073E-04   -0.19466E-03 10248   0.158E-01    0.116E-01
DAV:   7    -0.275779383469E+03    0.22614E-04   -0.39200E-04  9594   0.793E-02    0.742E-02
DAV:   8    -0.275779389276E+03   -0.58073E-05   -0.80068E-05  9408   0.290E-02
   4 F= -.27577939E+03 E0= -.27577515E+03  d E =-.111382E+00  mag=    -0.0001
       N       E                     dE             d eps       ncg     rms          rms(c)
DAV:   1    -0.275784982359E+03   -0.55989E-02   -0.48092E+00  7678   0.778E+00    0.117E+00
DAV:   2    -0.275849605749E+03   -0.64623E-01   -0.70642E-01  7904   0.215E+00    0.699E-01
DAV:   3    -0.275848674547E+03    0.93120E-03   -0.35037E-02  9674   0.665E-01    0.382E-01
DAV:   4    -0.275847785428E+03    0.88912E-03   -0.72659E-03 10072   0.271E-01    0.350E-01
DAV:   5    -0.275847318996E+03    0.46643E-03   -0.24840E-03  9484   0.142E-01    0.173E-01
DAV:   6    -0.275847386864E+03   -0.67868E-04   -0.10850E-03 10296   0.115E-01    0.952E-02
DAV:   7    -0.275847374017E+03    0.12847E-04   -0.23441E-04  9713   0.666E-02    0.651E-02
DAV:   8    -0.275847378719E+03   -0.47020E-05   -0.50114E-05  8264   0.262E-02
   5 F= -.27584738E+03 E0= -.27584393E+03  d E =-.679894E-01  mag=    -0.0000
       N       E                     dE             d eps       ncg     rms          rms(c)
DAV:   1    -0.275746892476E+03    0.10048E+00   -0.11294E+01  7778   0.121E+01    0.165E+00
DAV:   2    -0.275902325680E+03   -0.15543E+00   -0.17067E+00  7524   0.313E+00    0.964E-01
DAV:   3    -0.275901561260E+03    0.76442E-03   -0.69869E-02  9610   0.963E-01    0.530E-01
DAV:   4    -0.275900160536E+03    0.14007E-02   -0.11628E-02 10192   0.363E-01    0.491E-01
DAV:   5    -0.275899394246E+03    0.76629E-03   -0.50783E-03  9628   0.201E-01    0.229E-01
DAV:   6    -0.275899558430E+03   -0.16418E-03   -0.17130E-03 10224   0.140E-01    0.138E-01
DAV:   7    -0.275899549051E+03    0.93798E-05   -0.42834E-04 10133   0.926E-02    0.986E-02
DAV:   8    -0.275899555432E+03   -0.63810E-05   -0.93684E-05  9304   0.380E-02
   6 F= -.27589956E+03 E0= -.27589671E+03  d E =-.521767E-01  mag=    -0.0000
       N       E                     dE             d eps       ncg     rms          rms(c)
DAV:   1    -0.275649125855E+03    0.25042E+00   -0.16652E+01  7658   0.146E+01    0.196E+00
DAV:   2    -0.275923610842E+03   -0.27448E+00   -0.29676E+00  7356   0.403E+00    0.111E+00
DAV:   3    -0.275925613431E+03   -0.20026E-02   -0.11384E-01  9642   0.108E+00    0.656E-01
DAV:   4    -0.275924244023E+03    0.13694E-02   -0.17387E-02 10192   0.487E-01    0.607E-01
DAV:   5    -0.275923445051E+03    0.79897E-03   -0.81296E-03  9468   0.247E-01    0.267E-01
DAV:   6    -0.275923691144E+03   -0.24609E-03   -0.25269E-03 10176   0.171E-01    0.152E-01
DAV:   7    -0.275923670117E+03    0.21027E-04   -0.55856E-04 10178   0.104E-01    0.106E-01
DAV:   8    -0.275923678903E+03   -0.87858E-05   -0.12081E-04  9528   0.420E-02    0.659E-02
DAV:   9    -0.275923650060E+03    0.28843E-04   -0.14811E-04  9514   0.365E-02    0.263E-02
DAV:  10    -0.275923646889E+03    0.31711E-05   -0.85746E-05  9120   0.273E-02
   7 F= -.27592365E+03 E0= -.27592083E+03  d E =-.240915E-01  mag=    -0.0000
       N       E                     dE             d eps       ncg     rms          rms(c)
DAV:   1    -0.275703661288E+03    0.21999E+00   -0.14683E+01  7616   0.161E+01    0.192E+00
DAV:   2    -0.275944627724E+03   -0.24097E+00   -0.26095E+00  7325   0.420E+00    0.107E+00
DAV:   3    -0.275946705317E+03   -0.20776E-02   -0.10955E-01  9979   0.104E+00    0.687E-01
DAV:   4    -0.275944883831E+03    0.18215E-02   -0.18557E-02 10256   0.503E-01    0.620E-01
DAV:   5    -0.275943758817E+03    0.11250E-02   -0.68069E-03  9806   0.232E-01    0.321E-01
DAV:   6    -0.275944010928E+03   -0.25211E-03   -0.26852E-03 10232   0.157E-01    0.173E-01
DAV:   7    -0.275944010864E+03    0.63690E-07   -0.93834E-04 10200   0.122E-01    0.124E-01
DAV:   8    -0.275944018495E+03   -0.76313E-05   -0.21032E-04  9792   0.555E-02    0.917E-02
DAV:   9    -0.275943983067E+03    0.35429E-04   -0.14698E-04  9600   0.316E-02    0.465E-02
DAV:  10    -0.275943975969E+03    0.70980E-05   -0.81144E-05  8976   0.225E-02
   8 F= -.27594398E+03 E0= -.27594047E+03  d E =-.203291E-01  mag=     0.0000
       N       E                     dE             d eps       ncg     rms          rms(c)
DAV:   1    -0.275919095878E+03    0.24887E-01   -0.23689E+00  7652   0.667E+00    0.844E-01
DAV:   2    -0.275958654214E+03   -0.39558E-01   -0.42781E-01  7510   0.172E+00    0.476E-01
DAV:   3    -0.275958824471E+03   -0.17026E-03   -0.20647E-02  9834   0.511E-01    0.277E-01
DAV:   4    -0.275958494637E+03    0.32983E-03   -0.42534E-03 10208   0.224E-01    0.256E-01
DAV:   5    -0.275958275629E+03    0.21901E-03   -0.10816E-03  9762   0.107E-01    0.139E-01
DAV:   6    -0.275958295153E+03   -0.19524E-04   -0.51454E-04 10112   0.673E-02    0.804E-02
DAV:   7    -0.275958297708E+03   -0.25541E-05   -0.17304E-04 10254   0.507E-02    0.720E-02
DAV:   8    -0.275958296279E+03    0.14286E-05   -0.38705E-05  7176   0.255E-02
   9 F= -.27595830E+03 E0= -.27595516E+03  d E =-.143203E-01  mag=     0.0000
       N       E                     dE             d eps       ncg     rms          rms(c)
DAV:   1    -0.275958959487E+03   -0.66178E-03   -0.26509E-01  7622   0.210E+00    0.269E-01
DAV:   2    -0.275963091043E+03   -0.41316E-02   -0.44512E-02  7333   0.547E-01    0.124E-01
DAV:   3    -0.275963122021E+03   -0.30978E-04   -0.15604E-03  9757   0.134E-01    0.835E-02
DAV:   4    -0.275963100632E+03    0.21389E-04   -0.30084E-04 10010   0.621E-02    0.752E-02
DAV:   5    -0.275963084854E+03    0.15778E-04   -0.14075E-04  9230   0.343E-02    0.320E-02
DAV:   6    -0.275963088773E+03   -0.39184E-05   -0.32329E-05  6810   0.196E-02
  10 F= -.27596309E+03 E0= -.27596004E+03  d E =-.479249E-02  mag=     0.0000
       N       E                     dE             d eps       ncg     rms          rms(c)
DAV:   1    -0.275846999678E+03    0.11609E+00   -0.68435E+00  7574   0.119E+01    0.114E+00
DAV:   2    -0.275973218350E+03   -0.12622E+00   -0.13483E+00  7280   0.288E+00    0.509E-01
DAV:   3    -0.275975824473E+03   -0.26061E-02   -0.38688E-02 10464   0.545E-01    0.368E-01
DAV:   4    -0.275975609771E+03    0.21470E-03   -0.33797E-03 10426   0.215E-01    0.280E-01
DAV:   5    -0.275975504401E+03    0.10537E-03   -0.25882E-03 10208   0.170E-01    0.161E-01
DAV:   6    -0.275975559871E+03   -0.55470E-04   -0.83834E-04 10576   0.933E-02    0.749E-02
DAV:   7    -0.275975568772E+03   -0.89009E-05   -0.16486E-04  9968   0.467E-02    0.737E-02
DAV:   8    -0.275975562513E+03    0.62589E-05   -0.64919E-05  8856   0.318E-02
  11 F= -.27597556E+03 E0= -.27597249E+03  d E =-.124737E-01  mag=    -0.0000
       N       E                     dE             d eps       ncg     rms          rms(c)
DAV:   1    -0.275922453585E+03    0.53115E-01   -0.28975E+00  7472   0.774E+00    0.926E-01
DAV:   2    -0.275978215509E+03   -0.55762E-01   -0.59483E-01  7292   0.202E+00    0.435E-01
DAV:   3    -0.275979321986E+03   -0.11065E-02   -0.24638E-02 10416   0.469E-01    0.306E-01
DAV:   4    -0.275979021428E+03    0.30056E-03   -0.36918E-03 10168   0.227E-01    0.252E-01
DAV:   5    -0.275978780384E+03    0.24104E-03   -0.11953E-03  9814   0.117E-01    0.150E-01
DAV:   6    -0.275978760448E+03    0.19936E-04   -0.72087E-04  9032   0.672E-02    0.765E-02
DAV:   7    -0.275978775987E+03   -0.15539E-04   -0.16088E-04 10018   0.398E-02    0.895E-02
DAV:   8    -0.275978773215E+03    0.27728E-05   -0.40527E-05  7040   0.253E-02
  12 F= -.27597877E+03 E0= -.27597569E+03  d E =-.321070E-02  mag=     0.0000
       N       E                     dE             d eps       ncg     rms          rms(c)
DAV:   1    -0.275973756367E+03    0.50196E-02   -0.38059E-01  7766   0.286E+00    0.299E-01
DAV:   2    -0.275980986591E+03   -0.72302E-02   -0.77328E-02  7292   0.695E-01    0.139E-01
DAV:   3    -0.275981104709E+03   -0.11812E-03   -0.28406E-03 10320   0.153E-01    0.104E-01
DAV:   4    -0.275981067445E+03    0.37264E-04   -0.35251E-04 10160   0.682E-02    0.855E-02
DAV:   5    -0.275981042541E+03    0.24904E-04   -0.13280E-04  9662   0.379E-02    0.501E-02
DAV:   6    -0.275981037837E+03    0.47038E-05   -0.95324E-05  8320   0.242E-02
  13 F= -.27598104E+03 E0= -.27597798E+03  d E =-.226462E-02  mag=    -0.0000
       N       E                     dE             d eps       ncg     rms          rms(c)
DAV:   1    -0.275979470337E+03    0.15722E-02   -0.10248E-01  7474   0.145E+00    0.155E-01
DAV:   2    -0.275981501476E+03   -0.20311E-02   -0.21746E-02  7292   0.372E-01    0.812E-02
DAV:   3    -0.275981554285E+03   -0.52809E-04   -0.73999E-04 10496   0.737E-02    0.485E-02
DAV:   4    -0.275981551398E+03    0.28870E-05   -0.81168E-05  9146   0.306E-02
  14 F= -.27598155E+03 E0= -.27597853E+03  d E =-.513561E-03  mag=    -0.0000
       N       E                     dE             d eps       ncg     rms          rms(c)
DAV:   1    -0.275926931973E+03    0.54622E-01   -0.30432E+00  7462   0.763E+00    0.762E-01
DAV:   2    -0.275981215919E+03   -0.54284E-01   -0.58056E-01  7264   0.194E+00    0.340E-01
DAV:   3    -0.275982410045E+03   -0.11941E-02   -0.16249E-02 10000   0.361E-01    0.260E-01
DAV:   4    -0.275982328364E+03    0.81682E-04   -0.11478E-03 10144   0.126E-01    0.185E-01
DAV:   5    -0.275982329938E+03   -0.15740E-05   -0.11906E-03 10224   0.131E-01    0.936E-02
DAV:   6    -0.275982345170E+03   -0.15233E-04   -0.30953E-04  9744   0.610E-02    0.424E-02
DAV:   7    -0.275982345891E+03   -0.72083E-06   -0.52862E-05  8520   0.263E-02
  15 F= -.27598235E+03 E0= -.27597931E+03  d E =-.794494E-03  mag=    -0.0000
       N       E                     dE             d eps       ncg     rms          rms(c)
DAV:   1    -0.275821675053E+03    0.16067E+00   -0.90109E+00  7420   0.128E+01    0.136E+00
DAV:   2    -0.275971010551E+03   -0.14934E+00   -0.16013E+00  7264   0.328E+00    0.558E-01
DAV:   3    -0.275974086427E+03   -0.30759E-02   -0.44231E-02 10032   0.632E-01    0.445E-01
DAV:   4    -0.275973898523E+03    0.18790E-03   -0.37806E-03 10112   0.247E-01    0.339E-01
DAV:   5    -0.275973791427E+03    0.10710E-03   -0.37193E-03  9902   0.217E-01    0.141E-01
DAV:   6    -0.275973854281E+03   -0.62853E-04   -0.71579E-04  9920   0.866E-02    0.635E-02
DAV:   7    -0.275973857581E+03   -0.33002E-05   -0.15729E-04  9930   0.497E-02    0.502E-02
DAV:   8    -0.275973851008E+03    0.65727E-05   -0.60831E-05  8696   0.338E-02
  16 F= -.27597385E+03 E0= -.27597091E+03  d E =0.849488E-02  mag=    -0.0000
       N       E                     dE             d eps       ncg     rms          rms(c)
DAV:   1    -0.275697228939E+03    0.27663E+00   -0.12691E+01  7328   0.160E+01    0.186E+00
DAV:   2    -0.275933272744E+03   -0.23604E+00   -0.25456E+00  7339   0.436E+00    0.100E+00
DAV:   3    -0.275937027331E+03   -0.37546E-02   -0.11501E-01 10192   0.113E+00    0.610E-01
DAV:   4    -0.275935750260E+03    0.12771E-02   -0.19449E-02 10360   0.533E-01    0.567E-01
DAV:   5    -0.275934819296E+03    0.93096E-03   -0.60654E-03  9932   0.227E-01    0.315E-01
DAV:   6    -0.275934980441E+03   -0.16114E-03   -0.27184E-03 10216   0.183E-01    0.181E-01
DAV:   7    -0.275934970255E+03    0.10186E-04   -0.10175E-03 10206   0.126E-01    0.149E-01
DAV:   8    -0.275934975864E+03   -0.56086E-05   -0.18696E-04  9768   0.503E-02    0.112E-01
DAV:   9    -0.275934938572E+03    0.37292E-04   -0.11092E-04  9390   0.271E-02    0.513E-02
DAV:  10    -0.275934936495E+03    0.20772E-05   -0.79790E-05  9040   0.257E-02
  17 F= -.27593494E+03 E0= -.27593174E+03  d E =0.389145E-01  mag=    -0.0000
       N       E                     dE             d eps       ncg     rms          rms(c)
DAV:   1    -0.275909205585E+03    0.25733E-01   -0.21221E+00  7744   0.707E+00    0.781E-01
DAV:   2    -0.275954056383E+03   -0.44851E-01   -0.48181E-01  7298   0.184E+00    0.418E-01
DAV:   3    -0.275954958235E+03   -0.90185E-03   -0.21363E-02 10494   0.475E-01    0.241E-01
DAV:   4    -0.275954746168E+03    0.21207E-03   -0.39832E-03 10216   0.222E-01    0.225E-01
DAV:   5    -0.275954555267E+03    0.19090E-03   -0.11494E-03  9948   0.105E-01    0.119E-01
DAV:   6    -0.275954567711E+03   -0.12444E-04   -0.44833E-04 10120   0.638E-02    0.742E-02
DAV:   7    -0.275954572968E+03   -0.52576E-05   -0.15903E-04  9918   0.480E-02    0.738E-02
DAV:   8    -0.275954570177E+03    0.27911E-05   -0.34698E-05  6896   0.244E-02
  18 F= -.27595457E+03 E0= -.27595149E+03  d E =-.196337E-01  mag=     0.0000
       N       E                     dE             d eps       ncg     rms          rms(c)
DAV:   1    -0.275944483709E+03    0.10089E-01   -0.73159E-01  7664   0.408E+00    0.480E-01
DAV:   2    -0.275959443306E+03   -0.14960E-01   -0.16196E-01  7350   0.109E+00    0.267E-01
DAV:   3    -0.275959695601E+03   -0.25230E-03   -0.78452E-03 10236   0.298E-01    0.148E-01
DAV:   4    -0.275959605336E+03    0.90264E-04   -0.15233E-03 10224   0.139E-01    0.143E-01
DAV:   5    -0.275959538438E+03    0.66899E-04   -0.40940E-04  9896   0.619E-02    0.777E-02
DAV:   6    -0.275959545653E+03   -0.72151E-05   -0.16489E-04 10136   0.394E-02    0.474E-02
DAV:   7    -0.275959547071E+03   -0.14178E-05   -0.67973E-05  9422   0.309E-02
  19 F= -.27595955E+03 E0= -.27595653E+03  d E =-.497689E-02  mag=    -0.0000
       N       E                     dE             d eps       ncg     rms          rms(c)
DAV:   1    -0.275960032267E+03   -0.48661E-03   -0.25479E-02  7372   0.668E-01    0.101E-01
DAV:   2    -0.275960486612E+03   -0.45435E-03   -0.50417E-03  7536   0.190E-01    0.637E-02
DAV:   3    -0.275960490847E+03   -0.42349E-05   -0.28266E-04  9914   0.561E-02    0.309E-02
DAV:   4    -0.275960488335E+03    0.25123E-05   -0.70288E-05  8762   0.308E-02
  20 F= -.27596049E+03 E0= -.27595753E+03  d E =-.941265E-03  mag=    -0.0000
       N       E                     dE             d eps       ncg     rms          rms(c)
DAV:   1    -0.275960006395E+03    0.48445E-03   -0.10370E-01  7534   0.131E+00    0.166E-01
DAV:   2    -0.275961699739E+03   -0.16933E-02   -0.18371E-02  7330   0.352E-01    0.968E-02
DAV:   3    -0.275961711560E+03   -0.11822E-04   -0.74677E-04 10122   0.908E-02    0.623E-02
DAV:   4    -0.275961702824E+03    0.87362E-05   -0.13604E-04  9744   0.429E-02    0.592E-02
DAV:   5    -0.275961692474E+03    0.10350E-04   -0.54530E-05  8128   0.229E-02    0.291E-02
DAV:   6    -0.275961693695E+03   -0.12202E-05   -0.15120E-05  5504   0.139E-02
  21 F= -.27596169E+03 E0= -.27595875E+03  d E =-.120536E-02  mag=    -0.0000
       N       E                     dE             d eps       ncg     rms          rms(c)
DAV:   1    -0.275961301717E+03    0.39076E-03   -0.29051E-02  7452   0.760E-01    0.803E-02
DAV:   2    -0.275961830495E+03   -0.52878E-03   -0.56757E-03  7292   0.201E-01    0.376E-02
DAV:   3    -0.275961841769E+03   -0.11273E-04   -0.18508E-04  9808   0.422E-02    0.261E-02
DAV:   4    -0.275961840686E+03    0.10826E-05   -0.20778E-05  6656   0.193E-02
  22 F= -.27596184E+03 E0= -.27595891E+03  d E =-.146991E-03  mag=    -0.0000
       N       E                     dE             d eps       ncg     rms          rms(c)
DAV:   1    -0.275951141043E+03    0.10701E-01   -0.69609E-01  7576   0.369E+00    0.364E-01
DAV:   2    -0.275962982792E+03   -0.11842E-01   -0.12682E-01  7264   0.922E-01    0.158E-01
DAV:   3    -0.275963229290E+03   -0.24650E-03   -0.35251E-03 10200   0.174E-01    0.125E-01
DAV:   4    -0.275963209343E+03    0.19947E-04   -0.24476E-04 10128   0.610E-02    0.895E-02
DAV:   5    -0.275963206141E+03    0.32020E-05   -0.26833E-04 10256   0.614E-02    0.390E-02
DAV:   6    -0.275963209987E+03   -0.38465E-05   -0.61108E-05  8724   0.262E-02
  23 F= -.27596321E+03 E0= -.27596029E+03  d E =-.136930E-02  mag=     0.0000
       N       E                     dE             d eps       ncg     rms          rms(c)
DAV:   1    -0.275931638460E+03    0.31568E-01   -0.18922E+00  7504   0.613E+00    0.612E-01
DAV:   2    -0.275967097114E+03   -0.35459E-01   -0.37662E-01  7264   0.158E+00    0.263E-01
DAV:   3    -0.275967927912E+03   -0.83080E-03   -0.11333E-02 10432   0.297E-01    0.202E-01
DAV:   4    -0.275967855461E+03    0.72451E-04   -0.56213E-04 10224   0.797E-02    0.139E-01
DAV:   5    -0.275967863078E+03   -0.76175E-05   -0.63913E-04 10288   0.858E-02    0.741E-02
DAV:   6    -0.275967864464E+03   -0.13855E-05   -0.20870E-04 10126   0.488E-02    0.305E-02
DAV:   7    -0.275967864269E+03    0.19472E-06   -0.19094E-05  5904   0.168E-02
  24 F= -.27596786E+03 E0= -.27596492E+03  d E =-.465428E-02  mag=    -0.0000
       N       E                     dE             d eps       ncg     rms          rms(c)
DAV:   1    -0.275956948237E+03    0.10916E-01   -0.60488E-01  7296   0.355E+00    0.359E-01
DAV:   2    -0.275968556952E+03   -0.11609E-01   -0.12348E-01  7264   0.942E-01    0.152E-01
DAV:   3    -0.275968844444E+03   -0.28749E-03   -0.38916E-03 10416   0.180E-01    0.114E-01
DAV:   4    -0.275968821915E+03    0.22529E-04   -0.18939E-04 10112   0.495E-02    0.824E-02
DAV:   5    -0.275968822056E+03   -0.14098E-06   -0.19071E-04 10416   0.516E-02    0.463E-02
DAV:   6    -0.275968824965E+03   -0.29094E-05   -0.77131E-05  9488   0.307E-02
  25 F= -.27596882E+03 E0= -.27596587E+03  d E =-.960696E-03  mag=     0.0000
       N       E                     dE             d eps       ncg     rms          rms(c)
DAV:   1    -0.275963414347E+03    0.54077E-02   -0.13157E-01  7538   0.169E+00    0.168E-01
DAV:   2    -0.275966015583E+03   -0.26012E-02   -0.27825E-02  7280   0.427E-01    0.820E-02
DAV:   3    -0.275966075206E+03   -0.59623E-04   -0.89348E-04 10856   0.843E-02    0.629E-02
DAV:   4    -0.275966068473E+03    0.67333E-05   -0.59381E-05  8880   0.295E-02
  26 F= -.27596607E+03 E0= -.27596312E+03  d E =0.275649E-02  mag=     0.0000
