       N       E                     dE             d eps       ncg     rms          rms(c)
DAV:   1     0.344333321631E+04    0.34433E+04   -0.18840E+05 10368   0.128E+03
DAV:   2    -0.463676272683E+02   -0.34897E+04   -0.33510E+04 13200   0.229E+02
DAV:   3    -0.518592323606E+03   -0.47222E+03   -0.46722E+03 12816   0.924E+01
DAV:   4    -0.541427225916E+03   -0.22835E+02   -0.22657E+02 13188   0.226E+01
DAV:   5    -0.542598054502E+03   -0.11708E+01   -0.11689E+01 15144   0.500E+00    0.625E+01
DAV:   6    -0.525804766055E+03    0.16793E+02   -0.34083E+01 11712   0.679E+00    0.422E+01
DAV:   7    -0.524663405390E+03    0.11414E+01   -0.24374E+01 12504   0.563E+00    0.803E+00
DAV:   8    -0.524155556491E+03    0.50785E+00   -0.31953E+00 11868   0.237E+00    0.566E+00
DAV:   9    -0.524198272588E+03   -0.42716E-01   -0.33445E-01 13776   0.855E-01    0.165E+00
DAV:  10    -0.524198898363E+03   -0.62577E-03   -0.34577E-02 12528   0.282E-01    0.111E+00
DAV:  11    -0.524202403557E+03   -0.35052E-02   -0.50042E-03 12360   0.117E-01    0.736E-01
DAV:  12    -0.524205856465E+03   -0.34529E-02   -0.44209E-03 11160   0.109E-01    0.126E-01
DAV:  13    -0.524206221459E+03   -0.36499E-03   -0.63322E-04 15252   0.357E-02    0.152E-01
DAV:  14    -0.524206280298E+03   -0.58839E-04   -0.71151E-05 12444   0.119E-02    0.104E-01
DAV:  15    -0.524206361124E+03   -0.80826E-04   -0.53679E-05 10020   0.112E-02    0.565E-02
DAV:  16    -0.524206378756E+03   -0.17632E-04   -0.22504E-05  8964   0.714E-03    0.160E-02
DAV:  17    -0.524206384314E+03   -0.55583E-05   -0.87964E-06  6216   0.444E-03
   1 F= -.52420638E+03 E0= -.52419733E+03  d E =-.524206E+03  mag=     0.0052
       N       E                     dE             d eps       ncg     rms          rms(c)
DAV:   1    -0.524207416857E+03   -0.10381E-02   -0.21332E-03 10848   0.616E-02    0.506E-02
DAV:   2    -0.524207432524E+03   -0.15667E-04   -0.19428E-04 14280   0.202E-02    0.162E-02
DAV:   3    -0.524207431093E+03    0.14310E-05   -0.54767E-06  6144   0.413E-03    0.989E-03
DAV:   4    -0.524207430641E+03    0.45172E-06   -0.40033E-06  5904   0.311E-03
   2 F= -.52420743E+03 E0= -.52419837E+03  d E =-.104633E-02  mag=     0.0009
       N       E                     dE             d eps       ncg     rms          rms(c)
DAV:   1    -0.524214366507E+03   -0.69354E-02   -0.28103E-01 10584   0.702E-01    0.556E-01
DAV:   2    -0.524216405993E+03   -0.20395E-02   -0.24687E-02 13764   0.225E-01    0.169E-01
DAV:   3    -0.524216272520E+03    0.13347E-03   -0.91873E-04 13332   0.481E-02    0.104E-01
DAV:   4    -0.524216218136E+03    0.54385E-04   -0.18716E-04 12744   0.189E-02    0.479E-02
DAV:   5    -0.524216210089E+03    0.80467E-05   -0.44656E-05 11904   0.100E-02
   3 F= -.52421621E+03 E0= -.52420716E+03  d E =-.877945E-02  mag=     0.0001
       N       E                     dE             d eps       ncg     rms          rms(c)
DAV:   1    -0.524219638135E+03   -0.34200E-02   -0.10115E+00 10440   0.122E+00    0.594E-01
DAV:   2    -0.524226098960E+03   -0.64608E-02   -0.73902E-02 13692   0.378E-01    0.262E-01
DAV:   3    -0.524225854894E+03    0.24407E-03   -0.18337E-03 12972   0.684E-02    0.197E-01
DAV:   4    -0.524225689698E+03    0.16520E-03   -0.42164E-04 12444   0.279E-02    0.119E-01
DAV:   5    -0.524225664466E+03    0.25232E-04   -0.18789E-04 13272   0.175E-02    0.478E-02
DAV:   6    -0.524225668180E+03   -0.37140E-05   -0.31123E-05 11352   0.758E-03
   4 F= -.52422567E+03 E0= -.52421662E+03  d E =-.945809E-02  mag=     0.0000
       N       E                     dE             d eps       ncg     rms          rms(c)
DAV:   1    -0.524225793256E+03   -0.12879E-03   -0.57043E-01 10440   0.960E-01    0.537E-01
DAV:   2    -0.524230121739E+03   -0.43285E-02   -0.47851E-02 13992   0.315E-01    0.201E-01
DAV:   3    -0.524229889703E+03    0.23204E-03   -0.10333E-03 12528   0.536E-02    0.158E-01
DAV:   4    -0.524229792884E+03    0.96819E-04   -0.34852E-04 12480   0.251E-02    0.886E-02
DAV:   5    -0.524229782653E+03    0.10231E-04   -0.88806E-05 13116   0.130E-02    0.357E-02
DAV:   6    -0.524229785673E+03   -0.30203E-05   -0.21947E-05  9528   0.667E-03
   5 F= -.52422979E+03 E0= -.52422073E+03  d E =-.411749E-02  mag=     0.0000
       N       E                     dE             d eps       ncg     rms          rms(c)
DAV:   1    -0.524221446829E+03    0.83358E-02   -0.11970E+00 10392   0.146E+00    0.870E-01
DAV:   2    -0.524231089958E+03   -0.96431E-02   -0.10894E-01 14640   0.487E-01    0.317E-01
DAV:   3    -0.524230532741E+03    0.55722E-03   -0.22776E-03 12648   0.798E-02    0.255E-01
DAV:   4    -0.524230371271E+03    0.16147E-03   -0.68503E-04 13248   0.352E-02    0.140E-01
DAV:   5    -0.524230327536E+03    0.43735E-04   -0.15277E-04 11916   0.184E-02    0.519E-02
DAV:   6    -0.524230333320E+03   -0.57847E-05   -0.73629E-05 12828   0.116E-02
   6 F= -.52423033E+03 E0= -.52422126E+03  d E =-.547647E-03  mag=     0.0000
       N       E                     dE             d eps       ncg     rms          rms(c)
DAV:   1    -0.524204622576E+03    0.25705E-01   -0.26980E+00 10368   0.225E+00    0.158E+00
DAV:   2    -0.524227237780E+03   -0.22615E-01   -0.26005E-01 15024   0.763E-01    0.497E-01
DAV:   3    -0.524225731085E+03    0.15067E-02   -0.63152E-03 12840   0.132E-01    0.378E-01
DAV:   4    -0.524225311683E+03    0.41940E-03   -0.19680E-03 13320   0.613E-02    0.175E-01
DAV:   5    -0.524225245073E+03    0.66610E-04   -0.30710E-04 12996   0.283E-02    0.840E-02
DAV:   6    -0.524225262050E+03   -0.16978E-04   -0.13549E-04 13476   0.165E-02    0.741E-02
DAV:   7    -0.524225249824E+03    0.12226E-04   -0.46717E-05 10368   0.102E-02    0.495E-02
DAV:   8    -0.524225248116E+03    0.17084E-05   -0.10373E-05  6096   0.495E-03
   7 F= -.52422525E+03 E0= -.52421616E+03  d E =0.508520E-02  mag=     0.0000
       N       E                     dE             d eps       ncg     rms          rms(c)
DAV:   1    -0.524225830584E+03   -0.58076E-03   -0.10524E+00 10368   0.140E+00    0.916E-01
DAV:   2    -0.524234410953E+03   -0.85804E-02   -0.97928E-02 14424   0.469E-01    0.319E-01
DAV:   3    -0.524233889327E+03    0.52163E-03   -0.26014E-03 12864   0.853E-02    0.236E-01
DAV:   4    -0.524233712576E+03    0.17675E-03   -0.73527E-04 13056   0.378E-02    0.116E-01
DAV:   5    -0.524233685029E+03    0.27547E-04   -0.15138E-04 12576   0.189E-02    0.557E-02
DAV:   6    -0.524233692751E+03   -0.77223E-05   -0.56379E-05 12180   0.106E-02
   8 F= -.52423369E+03 E0= -.52422462E+03  d E =-.844463E-02  mag=    -0.0000
       N       E                     dE             d eps       ncg     rms          rms(c)
DAV:   1    -0.524233861019E+03   -0.17599E-03   -0.72890E-02 10512   0.362E-01    0.277E-01
DAV:   2    -0.524234484507E+03   -0.62349E-03   -0.70457E-03 14496   0.124E-01    0.826E-02
DAV:   3    -0.524234441755E+03    0.42753E-04   -0.20712E-04 12624   0.237E-02    0.554E-02
DAV:   4    -0.524234431358E+03    0.10397E-04   -0.62479E-05 12432   0.110E-02    0.294E-02
DAV:   5    -0.524234430522E+03    0.83556E-06   -0.60228E-06  6048   0.425E-03
   9 F= -.52423443E+03 E0= -.52422537E+03  d E =-.737771E-03  mag=    -0.0000
