       N       E                     dE             d eps       ncg     rms          rms(c)
DAV:   1     0.344416774515E+04    0.34442E+04   -0.18841E+05 10368   0.128E+03
DAV:   2    -0.440710868140E+02   -0.34882E+04   -0.33465E+04 13116   0.229E+02
DAV:   3    -0.518595783035E+03   -0.47452E+03   -0.46957E+03 12804   0.928E+01
DAV:   4    -0.541381361669E+03   -0.22786E+02   -0.22602E+02 13080   0.227E+01
DAV:   5    -0.542616568889E+03   -0.12352E+01   -0.12332E+01 15096   0.513E+00    0.625E+01
DAV:   6    -0.525831531566E+03    0.16785E+02   -0.34094E+01 11676   0.679E+00    0.422E+01
DAV:   7    -0.524692074795E+03    0.11395E+01   -0.24367E+01 12528   0.562E+00    0.805E+00
DAV:   8    -0.524183396967E+03    0.50868E+00   -0.31816E+00 11880   0.236E+00    0.566E+00
DAV:   9    -0.524225337740E+03   -0.41941E-01   -0.33040E-01 13608   0.847E-01    0.167E+00
DAV:  10    -0.524226512682E+03   -0.11749E-02   -0.33036E-02 12588   0.276E-01    0.109E+00
DAV:  11    -0.524230107610E+03   -0.35949E-02   -0.48554E-03 12276   0.115E-01    0.718E-01
DAV:  12    -0.524233445033E+03   -0.33374E-02   -0.41558E-03 11184   0.106E-01    0.126E-01
DAV:  13    -0.524233815263E+03   -0.37023E-03   -0.61520E-04 15228   0.352E-02    0.151E-01
DAV:  14    -0.524233874718E+03   -0.59455E-04   -0.71236E-05 12372   0.118E-02    0.102E-01
DAV:  15    -0.524233953759E+03   -0.79041E-04   -0.53460E-05  9936   0.112E-02    0.534E-02
DAV:  16    -0.524233970162E+03   -0.16402E-04   -0.20237E-05  8508   0.690E-03    0.156E-02
DAV:  17    -0.524233975711E+03   -0.55487E-05   -0.89996E-06  6192   0.451E-03
   1 F= -.52423398E+03 E0= -.52422493E+03  d E =-.524234E+03  mag=     0.0052
       N       E                     dE             d eps       ncg     rms          rms(c)
DAV:   1    -0.524234270978E+03   -0.30082E-03   -0.61161E-04 10740   0.335E-02    0.299E-02
DAV:   2    -0.524234275368E+03   -0.43901E-05   -0.58695E-05 12576   0.113E-02    0.108E-02
DAV:   3    -0.524234274960E+03    0.40851E-06   -0.21311E-06  5916   0.265E-03    0.625E-03
DAV:   4    -0.524234274805E+03    0.15486E-06   -0.12293E-06  5868   0.182E-03
   2 F= -.52423427E+03 E0= -.52422523E+03  d E =-.299094E-03  mag=     0.0009
       N       E                     dE             d eps       ncg     rms          rms(c)
DAV:   1    -0.524236179611E+03   -0.19047E-02   -0.79677E-02 10584   0.379E-01    0.320E-01
DAV:   2    -0.524236771916E+03   -0.59231E-03   -0.72218E-03 13908   0.122E-01    0.919E-02
DAV:   3    -0.524236729766E+03    0.42150E-04   -0.28196E-04 13356   0.264E-02    0.541E-02
DAV:   4    -0.524236714268E+03    0.15498E-04   -0.54187E-05 12348   0.102E-02    0.249E-02
DAV:   5    -0.524236711291E+03    0.29772E-05   -0.11889E-05  6852   0.561E-03
   3 F= -.52423671E+03 E0= -.52422767E+03  d E =-.243649E-02  mag=     0.0001
       N       E                     dE             d eps       ncg     rms          rms(c)
DAV:   1    -0.524237776371E+03   -0.10621E-02   -0.27482E-01 10560   0.635E-01    0.318E-01
DAV:   2    -0.524239532874E+03   -0.17565E-02   -0.20183E-02 13728   0.198E-01    0.137E-01
DAV:   3    -0.524239463535E+03    0.69339E-04   -0.49928E-04 12792   0.358E-02    0.102E-01
DAV:   4    -0.524239418375E+03    0.45160E-04   -0.11933E-04 12480   0.149E-02    0.604E-02
DAV:   5    -0.524239412235E+03    0.61404E-05   -0.49549E-05 11688   0.908E-03
   4 F= -.52423941E+03 E0= -.52423036E+03  d E =-.270094E-02  mag=     0.0000
       N       E                     dE             d eps       ncg     rms          rms(c)
DAV:   1    -0.524239590763E+03   -0.17239E-03   -0.15991E-01 10560   0.513E-01    0.299E-01
DAV:   2    -0.524240827645E+03   -0.12369E-02   -0.13682E-02 14148   0.171E-01    0.105E-01
DAV:   3    -0.524240754522E+03    0.73123E-04   -0.30269E-04 12528   0.291E-02    0.810E-02
DAV:   4    -0.524240726650E+03    0.27872E-04   -0.11280E-04 12456   0.143E-02    0.425E-02
DAV:   5    -0.524240724722E+03    0.19279E-05   -0.21559E-05  8448   0.694E-03
   5 F= -.52424072E+03 E0= -.52423167E+03  d E =-.131249E-02  mag=     0.0000
       N       E                     dE             d eps       ncg     rms          rms(c)
DAV:   1    -0.524237566023E+03    0.31606E-02   -0.35775E-01 10512   0.814E-01    0.543E-01
DAV:   2    -0.524240620731E+03   -0.30547E-02   -0.34561E-02 14688   0.277E-01    0.170E-01
DAV:   3    -0.524240428973E+03    0.19176E-03   -0.79501E-04 12648   0.471E-02    0.132E-01
DAV:   4    -0.524240380618E+03    0.48355E-04   -0.25789E-04 13176   0.216E-02    0.653E-02
DAV:   5    -0.524240371404E+03    0.92137E-05   -0.43000E-05 11124   0.103E-02
   6 F= -.52424037E+03 E0= -.52423131E+03  d E =0.353318E-03  mag=     0.0000
       N       E                     dE             d eps       ncg     rms          rms(c)
DAV:   1    -0.524231639853E+03    0.87408E-02   -0.90758E-01 10368   0.133E+00    0.101E+00
DAV:   2    -0.524239460288E+03   -0.78204E-02   -0.90320E-02 14868   0.454E-01    0.292E-01
DAV:   3    -0.524238872137E+03    0.58815E-03   -0.26151E-03 13200   0.846E-02    0.208E-01
DAV:   4    -0.524238720123E+03    0.15201E-03   -0.76397E-04 13452   0.384E-02    0.908E-02
DAV:   5    -0.524238696754E+03    0.23369E-04   -0.10645E-04 12396   0.168E-02    0.547E-02
DAV:   6    -0.524238701945E+03   -0.51914E-05   -0.42380E-05 11568   0.959E-03
   7 F= -.52423870E+03 E0= -.52422962E+03  d E =0.166946E-02  mag=     0.0000
       N       E                     dE             d eps       ncg     rms          rms(c)
DAV:   1    -0.524239486206E+03   -0.78945E-03   -0.31848E-01 10512   0.773E-01    0.516E-01
DAV:   2    -0.524242137924E+03   -0.26517E-02   -0.30064E-02 14496   0.261E-01    0.184E-01
DAV:   3    -0.524241953537E+03    0.18439E-03   -0.82606E-04 12984   0.477E-02    0.135E-01
DAV:   4    -0.524241892865E+03    0.60672E-04   -0.25606E-04 12816   0.222E-02    0.627E-02
DAV:   5    -0.524241884932E+03    0.79324E-05   -0.44742E-05 11364   0.105E-02
   8 F= -.52424188E+03 E0= -.52423282E+03  d E =-.318299E-02  mag=    -0.0000
       N       E                     dE             d eps       ncg     rms          rms(c)
DAV:   1    -0.524241862717E+03    0.30148E-04   -0.32990E-02 10680   0.254E-01    0.238E-01
DAV:   2    -0.524242155651E+03   -0.29293E-03   -0.34065E-03 14568   0.875E-02    0.670E-02
DAV:   3    -0.524242134000E+03    0.21652E-04   -0.12233E-04 12672   0.181E-02    0.336E-02
DAV:   4    -0.524242129032E+03    0.49681E-05   -0.24629E-05  8424   0.761E-03
   9 F= -.52424213E+03 E0= -.52423307E+03  d E =-.244099E-03  mag=    -0.0000
