       N       E                     dE             d eps       ncg     rms          ort
DAV:   1     0.290096479828E+04    0.29010E+04   -0.21055E+05  2592   0.138E+03
DAV:   2    -0.717623291425E+03   -0.36186E+04   -0.34687E+04  2592   0.241E+02
DAV:   3    -0.120082793813E+04   -0.48320E+03   -0.47842E+03  2592   0.952E+01
DAV:   4    -0.122394624453E+04   -0.23118E+02   -0.22944E+02  2592   0.231E+01
DAV:   5    -0.122519160777E+04   -0.12454E+01   -0.12434E+01  2592   0.527E+00
SDA:   6    -0.109315900167E+04    0.13203E+03   -0.12434E+01  2592   0.717E+02 0.000E+00
CGA:   7    -0.110905971422E+04   -0.15901E+02   -0.15903E+02  2592   0.653E+01 0.938E-01
CGA:   8    -0.111097873421E+04   -0.19190E+01   -0.19094E+01  2592   0.152E+01 0.899E-01
CGA:   9    -0.111148178948E+04   -0.50306E+00   -0.50282E+00  2592   0.408E+00 0.208E-02
CGA:  10    -0.111163594643E+04   -0.15416E+00   -0.15557E+00  2592   0.107E+00-0.915E-02
CGA:  11    -0.111167583756E+04   -0.39891E-01   -0.40060E-01  2592   0.263E-01-0.107E-02
CGA:  12    -0.111168480196E+04   -0.89644E-02   -0.89753E-02  2592   0.554E-02-0.101E-03
CGA:  13    -0.111168716551E+04   -0.23635E-02   -0.25138E-02  2592   0.176E-02-0.683E-03
CGA:  14    -0.111168769532E+04   -0.52982E-03   -0.52390E-03  2592   0.420E-03 0.618E-04
CGA:  15    -0.111168780176E+04   -0.10644E-03   -0.10699E-03  2592   0.117E-03 0.144E-03
CGA:  16    -0.111168782465E+04   -0.22885E-04   -0.28399E-04  2592   0.467E-04 0.796E-04
CGA:  17    -0.111168783317E+04   -0.85235E-05   -0.96207E-05  2592   0.218E-04 0.272E-04
   1 F= -.11116878E+04 E0= -.11116878E+04  d E =-.111169E+04  mag=     0.0000
       N       E                     dE             d eps       ncg     rms          ort
SDA:   1    -0.111168599585E+04    0.18288E-02    0.00000E+00  2592   0.548E-02 0.000E+00
CGA:   2    -0.111168740764E+04   -0.14118E-02   -0.14099E-02  2592   0.122E-02 0.120E-03
CGA:   3    -0.111168781603E+04   -0.40839E-03   -0.40815E-03  2592   0.327E-03 0.217E-05
CGA:   4    -0.111168792795E+04   -0.11192E-03   -0.11598E-03  2592   0.102E-03-0.377E-04
CGA:   5    -0.111168795557E+04   -0.27615E-04   -0.27713E-04  2592   0.250E-04-0.180E-05
CGA:   6    -0.111168796458E+04   -0.90064E-05   -0.90955E-05  2592   0.640E-05-0.784E-06
   2 F= -.11116880E+04 E0= -.11116880E+04  d E =-.131403E-03  mag=     0.0000
       N       E                     dE             d eps       ncg     rms          ort
SDA:   1    -0.111168794702E+04    0.85529E-05    0.00000E+00  2592   0.626E-04 0.000E+00
CGA:   2    -0.111168796538E+04   -0.18364E-04   -0.18633E-04  2592   0.225E-04-0.115E-04
CGA:   3    -0.111168796998E+04   -0.46010E-05   -0.46365E-05  2592   0.449E-05 0.159E-05
CGA:   4    -0.111168797029E+04   -0.30686E-06   -0.66696E-06  2592   0.174E-05 0.266E-05
   3 F= -.11116880E+04 E0= -.11116880E+04  d E =-.137116E-03  mag=     0.0000
