       N       E                     dE             d eps       ncg     rms          ort
DAV:   1     0.286728621313E+04    0.28673E+04   -0.29288E+05  2880   0.140E+03
DAV:   2    -0.958883614382E+03   -0.38262E+04   -0.36867E+04  2880   0.312E+02
DAV:   3    -0.122378631982E+04   -0.26490E+03   -0.26322E+03  2880   0.860E+01
DAV:   4    -0.122695262078E+04   -0.31663E+01   -0.31552E+01  2880   0.997E+00
DAV:   5    -0.122700613381E+04   -0.53513E-01   -0.53398E-01  2880   0.119E+00
SDA:   6    -0.863166403786E+03    0.36384E+03   -0.53398E-01  2880   0.627E+03 0.000E+00
CGA:   7    -0.976871122680E+03   -0.11370E+03   -0.11349E+03  2880   0.440E+02-0.267E+01
CGA:   8    -0.990026029789E+03   -0.13155E+02   -0.13126E+02  2880   0.106E+02 0.235E+00
CGA:   9    -0.993915096593E+03   -0.38891E+01   -0.38904E+01  2880   0.406E+01-0.131E-01
CGA:  10    -0.995208206895E+03   -0.12931E+01   -0.12970E+01  2880   0.894E+00-0.331E-01
CGA:  11    -0.995548657454E+03   -0.34045E+00   -0.34072E+00  2880   0.197E+00-0.148E-02
CGA:  12    -0.995616111090E+03   -0.67454E-01   -0.67418E-01  2880   0.448E-01 0.272E-03
CGA:  13    -0.995632968451E+03   -0.16857E-01   -0.16980E-01  2880   0.103E-01-0.852E-03
CGA:  14    -0.995636849101E+03   -0.38806E-02   -0.38075E-02  2880   0.227E-02 0.531E-03
CGA:  15    -0.995637833387E+03   -0.98429E-03   -0.95209E-03  2880   0.563E-03 0.209E-03
CGA:  16    -0.995638126480E+03   -0.29309E-03   -0.39104E-03  2880   0.409E-03-0.257E-03
CGA:  17    -0.995638193826E+03   -0.67346E-04   -0.67226E-04  2880   0.161E-03 0.357E-05
CGA:  18    -0.995638223495E+03   -0.29670E-04   -0.32927E-04  2880   0.647E-04 0.452E-04
CGA:  19    -0.995638237595E+03   -0.14100E-04   -0.16367E-04  2880   0.331E-04 0.310E-04
CGA:  20    -0.995638247900E+03   -0.10304E-04   -0.10894E-04  2880   0.144E-04 0.132E-04
CGA:  21    -0.995638254723E+03   -0.68232E-05   -0.72069E-05  2880   0.826E-05-0.406E-05
   1 F= -.99563825E+03 E0= -.99563825E+03  d E =-.995638E+03  mag=    -0.0000
       N       E                     dE             d eps       ncg     rms          ort
SDA:   1    -0.995638146208E+03    0.10169E-03    0.00000E+00  2880   0.761E-03 0.000E+00
CGA:   2    -0.995638432304E+03   -0.28610E-03   -0.29106E-03  2880   0.193E-03-0.423E-04
CGA:   3    -0.995638472161E+03   -0.39857E-04   -0.40439E-04  2880   0.254E-04 0.119E-04
CGA:   4    -0.995638475269E+03   -0.31081E-05   -0.43473E-05  2880   0.636E-05 0.115E-04
   2 F= -.99563848E+03 E0= -.99563848E+03  d E =-.220546E-03  mag=    -0.0000
       N       E                     dE             d eps       ncg     rms          ort
SDA:   1    -0.995635409395E+03    0.30628E-02    0.00000E+00  2880   0.711E-02 0.000E+00
CGA:   2    -0.995638032926E+03   -0.26235E-02   -0.26076E-02  2880   0.147E-02 0.145E-03
CGA:   3    -0.995638418280E+03   -0.38535E-03   -0.38515E-03  2880   0.237E-03-0.429E-04
CGA:   4    -0.995638493872E+03   -0.75592E-04   -0.89249E-04  2880   0.119E-03-0.108E-03
CGA:   5    -0.995638506597E+03   -0.12725E-04   -0.13406E-04  2880   0.347E-04 0.109E-04
CGA:   6    -0.995638508532E+03   -0.19350E-05   -0.43918E-05  2880   0.135E-04 0.165E-04
   3 F= -.99563851E+03 E0= -.99563851E+03  d E =-.332634E-04  mag=    -0.0000
       N       E                     dE             d eps       ncg     rms          ort
SDA:   1    -0.983246278870E+03    0.12392E+02    0.00000E+00  2880   0.260E+02 0.000E+00
CGA:   2    -0.992761197834E+03   -0.95149E+01   -0.95169E+01  2880   0.607E+01-0.136E-01
CGA:   3    -0.994241839877E+03   -0.14806E+01   -0.14807E+01  2880   0.888E+00 0.232E-02
CGA:   4    -0.994500033445E+03   -0.25819E+00   -0.25810E+00  2880   0.150E+00 0.246E-02
CGA:   5    -0.994548468091E+03   -0.48435E-01   -0.48448E-01  2880   0.370E-01-0.214E-03
CGA:   6    -0.994562196325E+03   -0.13728E-01   -0.13774E-01  2880   0.118E-01-0.405E-03
CGA:   7    -0.994566607134E+03   -0.44108E-02   -0.43755E-02  2880   0.291E-02 0.328E-03
CGA:   8    -0.994567757143E+03   -0.11500E-02   -0.11518E-02  2880   0.616E-03-0.156E-04
CGA:   9    -0.994567983317E+03   -0.22617E-03   -0.22995E-03  2880   0.131E-03-0.383E-04
CGA:  10    -0.994568027087E+03   -0.43770E-04   -0.43344E-04  2880   0.217E-04 0.592E-05
CGA:  11    -0.994568036040E+03   -0.89532E-05   -0.88389E-05  2880   0.476E-05 0.109E-05
   4 F= -.99456804E+03 E0= -.99456804E+03  d E =0.107047E+01  mag=     0.0000
       N       E                     dE             d eps       ncg     rms          ort
SDA:   1    -0.986417831734E+03    0.81502E+01    0.00000E+00  2880   0.211E+02 0.000E+00
CGA:   2    -0.993923513723E+03   -0.75057E+01   -0.75093E+01  2880   0.517E+01-0.466E-01
CGA:   3    -0.995229000511E+03   -0.13055E+01   -0.13061E+01  2880   0.773E+00 0.483E-02
CGA:   4    -0.995469533538E+03   -0.24053E+00   -0.24054E+00  2880   0.137E+00-0.385E-03
CGA:   5    -0.995515783182E+03   -0.46250E-01   -0.46237E-01  2880   0.372E-01 0.272E-03
CGA:   6    -0.995530001373E+03   -0.14218E-01   -0.14213E-01  2880   0.111E-01 0.541E-04
CGA:   7    -0.995534273873E+03   -0.42725E-02   -0.42791E-02  2880   0.272E-02-0.804E-04
CGA:   8    -0.995535291641E+03   -0.10178E-02   -0.10205E-02  2880   0.537E-03-0.373E-04
CGA:   9    -0.995535478529E+03   -0.18689E-03   -0.18628E-03  2880   0.105E-03 0.144E-04
CGA:  10    -0.995535524208E+03   -0.45679E-04   -0.47354E-04  2880   0.281E-04-0.130E-04
CGA:  11    -0.995535532782E+03   -0.85743E-05   -0.85250E-05  2880   0.555E-05 0.171E-05
   5 F= -.99553553E+03 E0= -.99553553E+03  d E =-.967497E+00  mag=     0.0000
       N       E                     dE             d eps       ncg     rms          ort
SDA:   1    -0.995308571125E+03    0.22695E+00    0.00000E+00  2880   0.621E+00 0.000E+00
CGA:   2    -0.995527799321E+03   -0.21923E+00   -0.21920E+00  2880   0.156E+00 0.724E-03
CGA:   3    -0.995567563814E+03   -0.39764E-01   -0.39760E-01  2880   0.236E-01-0.152E-04
CGA:   4    -0.995574857932E+03   -0.72941E-02   -0.72906E-02  2880   0.417E-02-0.262E-03
CGA:   5    -0.995576224838E+03   -0.13669E-02   -0.13667E-02  2880   0.107E-02 0.260E-04
CGA:   6    -0.995576630163E+03   -0.40532E-03   -0.40354E-03  2880   0.308E-03 0.352E-04
CGA:   7    -0.995576764572E+03   -0.13441E-03   -0.13757E-03  2880   0.951E-04-0.293E-04
CGA:   8    -0.995576794666E+03   -0.30093E-04   -0.30097E-04  2880   0.162E-04-0.213E-06
CGA:   9    -0.995576800380E+03   -0.57146E-05   -0.57025E-05  2880   0.321E-05 0.581E-06
   6 F= -.99557680E+03 E0= -.99557680E+03  d E =-.412676E-01  mag=    -0.0000
       N       E                     dE             d eps       ncg     rms          ort
SDA:   1    -0.995362968139E+03    0.21383E+00    0.00000E+00  2880   0.508E+00 0.000E+00
CGA:   2    -0.995537393995E+03   -0.17443E+00   -0.17442E+00  2880   0.120E+00 0.139E-02
CGA:   3    -0.995569538101E+03   -0.32144E-01   -0.32131E-01  2880   0.191E-01-0.119E-03
CGA:   4    -0.995575219100E+03   -0.56810E-02   -0.56519E-02  2880   0.326E-02-0.713E-03
CGA:   5    -0.995576241069E+03   -0.10220E-02   -0.10224E-02  2880   0.788E-03 0.474E-04
CGA:   6    -0.995576519892E+03   -0.27882E-03   -0.27758E-03  2880   0.207E-03 0.100E-03
CGA:   7    -0.995576633846E+03   -0.11395E-03   -0.15901E-03  2880   0.222E-03-0.131E-03
CGA:   8    -0.995576670580E+03   -0.36734E-04   -0.43807E-04  2880   0.199E-04 0.456E-04
CGA:   9    -0.995576675574E+03   -0.49945E-05   -0.56272E-05  2880   0.447E-05 0.576E-05
   7 F= -.99557668E+03 E0= -.99557668E+03  d E =0.124806E-03  mag=     0.0000
       N       E                     dE             d eps       ncg     rms          ort
SDA:   1    -0.995542638462E+03    0.34032E-01    0.00000E+00  2880   0.994E-01 0.000E+00
CGA:   2    -0.995577797802E+03   -0.35159E-01   -0.35160E-01  2880   0.251E-01 0.179E-05
CGA:   3    -0.995584178250E+03   -0.63804E-02   -0.63765E-02  2880   0.376E-02-0.574E-04
CGA:   4    -0.995585318694E+03   -0.11404E-02   -0.11414E-02  2880   0.640E-03 0.300E-04
CGA:   5    -0.995585535953E+03   -0.21726E-03   -0.21725E-03  2880   0.169E-03 0.315E-05
CGA:   6    -0.995585602114E+03   -0.66161E-04   -0.66319E-04  2880   0.528E-04-0.285E-05
CGA:   7    -0.995585621864E+03   -0.19750E-04   -0.19752E-04  2880   0.125E-04-0.375E-07
CGA:   8    -0.995585626754E+03   -0.48896E-05   -0.49269E-05  2880   0.263E-05-0.655E-06
   8 F= -.99558563E+03 E0= -.99558563E+03  d E =-.895118E-02  mag=    -0.0000
       N       E                     dE             d eps       ncg     rms          ort
SDA:   1    -0.995578942766E+03    0.66791E-02    0.00000E+00  2880   0.149E-01 0.000E+00
CGA:   2    -0.995584026523E+03   -0.50838E-02   -0.50829E-02  2880   0.327E-02 0.251E-03
CGA:   3    -0.995584961045E+03   -0.93452E-03   -0.93116E-03  2880   0.551E-03-0.580E-04
CGA:   4    -0.995585151477E+03   -0.19043E-03   -0.19499E-03  2880   0.201E-03-0.178E-03
CGA:   5    -0.995585180742E+03   -0.29265E-04   -0.31443E-04  2880   0.443E-04 0.207E-04
CGA:   6    -0.995585182806E+03   -0.20635E-05   -0.66560E-05  2880   0.185E-04 0.236E-04
   9 F= -.99558518E+03 E0= -.99558518E+03  d E =0.443948E-03  mag=     0.0000
       N       E                     dE             d eps       ncg     rms          ort
SDA:   1    -0.995533172703E+03    0.52008E-01    0.00000E+00  2880   0.114E+00 0.000E+00
CGA:   2    -0.995573100822E+03   -0.39928E-01   -0.39901E-01  2880   0.236E-01 0.736E-03
CGA:   3    -0.995579540157E+03   -0.64393E-02   -0.64295E-02  2880   0.370E-02-0.209E-03
CGA:   4    -0.995580600660E+03   -0.10605E-02   -0.10496E-02  2880   0.705E-03-0.385E-03
CGA:   5    -0.995580775152E+03   -0.17449E-03   -0.17596E-03  2880   0.127E-03 0.425E-04
CGA:   6    -0.995580806823E+03   -0.31671E-04   -0.34263E-04  2880   0.384E-04 0.461E-04
CGA:   7    -0.995580830343E+03   -0.23519E-04   -0.32765E-04  2880   0.582E-04-0.291E-04
CGA:   8    -0.995580846108E+03   -0.15766E-04   -0.15438E-04  2880   0.623E-05-0.555E-05
CGA:   9    -0.995580850031E+03   -0.39228E-05    0.11158E-04  2880   0.725E-06-0.826E-07
  10 F= -.99558085E+03 E0= -.99558085E+03  d E =0.433277E-02  mag=     0.0000
       N       E                     dE             d eps       ncg     rms          ort
SDA:   1    -0.995535132535E+03    0.45714E-01    0.00000E+00  2880   0.943E-01 0.000E+00
CGA:   2    -0.995569688284E+03   -0.34556E-01   -0.34546E-01  2880   0.190E-01 0.215E-03
CGA:   3    -0.995574516594E+03   -0.48283E-02   -0.48213E-02  2880   0.275E-02-0.982E-04
CGA:   4    -0.995575242292E+03   -0.72570E-03   -0.72040E-03  2880   0.435E-03-0.924E-04
CGA:   5    -0.995575364380E+03   -0.12209E-03   -0.12242E-03  2880   0.714E-04 0.127E-04
CGA:   6    -0.995575389136E+03   -0.24757E-04   -0.24573E-04  2880   0.204E-04 0.100E-04
CGA:   7    -0.995575383834E+03    0.53029E-05   -0.27143E-04  2880   0.104E-03-0.381E-04
CGA:   8    -0.995575402186E+03   -0.18352E-04   -0.21216E-04  2880   0.103E-04 0.183E-04
CGA:   9    -0.995575405660E+03   -0.34742E-05   -0.35982E-05  2880   0.321E-05 0.232E-05
  11 F= -.99557541E+03 E0= -.99557541E+03  d E =0.544437E-02  mag=     0.0000
       N       E                     dE             d eps       ncg     rms          ort
SDA:   1    -0.994967350156E+03    0.60805E+00    0.00000E+00  2880   0.135E+01 0.000E+00
CGA:   2    -0.995477208210E+03   -0.50986E+00   -0.50986E+00  2880   0.266E+00-0.933E-04
CGA:   3    -0.995542211975E+03   -0.65004E-01   -0.64983E-01  2880   0.381E-01-0.173E-03
CGA:   4    -0.995551969000E+03   -0.97570E-02   -0.97549E-02  2880   0.561E-02-0.182E-04
CGA:   5    -0.995553655039E+03   -0.16860E-02   -0.16880E-02  2880   0.943E-03 0.246E-04
CGA:   6    -0.995554013767E+03   -0.35873E-03   -0.35874E-03  2880   0.312E-03-0.708E-05
CGA:   7    -0.995554142705E+03   -0.12894E-03   -0.12918E-03  2880   0.984E-04-0.607E-05
CGA:   8    -0.995554178131E+03   -0.35426E-04   -0.35461E-04  2880   0.175E-04 0.292E-05
CGA:   9    -0.995554185566E+03   -0.74342E-05   -0.75452E-05  2880   0.400E-05-0.271E-05
  12 F= -.99555419E+03 E0= -.99555419E+03  d E =0.212201E-01  mag=    -0.0000
       N       E                     dE             d eps       ncg     rms          ort
SDA:   1    -0.995117453987E+03    0.43672E+00    0.00000E+00  2880   0.970E+00 0.000E+00
CGA:   2    -0.995473091007E+03   -0.35564E+00   -0.35563E+00  2880   0.209E+00-0.468E-03
CGA:   3    -0.995524438105E+03   -0.51347E-01   -0.51341E-01  2880   0.308E-01-0.121E-03
CGA:   4    -0.995532721632E+03   -0.82835E-02   -0.83039E-02  2880   0.473E-02 0.201E-03
CGA:   5    -0.995534229688E+03   -0.15081E-02   -0.15092E-02  2880   0.103E-02 0.224E-04
CGA:   6    -0.995534639606E+03   -0.40992E-03   -0.41167E-03  2880   0.372E-03-0.538E-04
CGA:   7    -0.995534759328E+03   -0.11972E-03   -0.12049E-03  2880   0.873E-04 0.314E-04
CGA:   8    -0.995534793280E+03   -0.33951E-04   -0.34002E-04  2880   0.176E-04 0.852E-05
CGA:   9    -0.995534802153E+03   -0.88740E-05   -0.10637E-04  2880   0.119E-04-0.943E-05
  13 F= -.99553480E+03 E0= -.99553480E+03  d E =0.193834E-01  mag=     0.0000
       N       E                     dE             d eps       ncg     rms          ort
SDA:   1    -0.995430114856E+03    0.10468E+00    0.00000E+00  2880   0.288E+00 0.000E+00
CGA:   2    -0.995533366329E+03   -0.10325E+00   -0.10325E+00  2880   0.650E-01-0.176E-03
CGA:   3    -0.995549472075E+03   -0.16106E-01   -0.16119E-01  2880   0.975E-02 0.117E-03
CGA:   4    -0.995552206588E+03   -0.27345E-02   -0.27348E-02  2880   0.156E-02 0.370E-05
CGA:   5    -0.995552718054E+03   -0.51147E-03   -0.51097E-03  2880   0.375E-03-0.186E-04
CGA:   6    -0.995552852958E+03   -0.13490E-03   -0.13481E-03  2880   0.113E-03 0.874E-05
CGA:   7    -0.995552897752E+03   -0.44794E-04   -0.44711E-04  2880   0.309E-04 0.243E-05
CGA:   8    -0.995552910294E+03   -0.12542E-04   -0.12613E-04  2880   0.666E-05-0.161E-05
CGA:   9    -0.995552912485E+03   -0.21907E-05   -0.21906E-05  2880   0.115E-05-0.126E-07
  14 F= -.99555291E+03 E0= -.99555291E+03  d E =-.181103E-01  mag=    -0.0000
       N       E                     dE             d eps       ncg     rms          ort
SDA:   1    -0.995550828720E+03    0.20816E-02    0.00000E+00  2880   0.101E-01 0.000E+00
CGA:   2    -0.995554384489E+03   -0.35558E-02   -0.35559E-02  2880   0.224E-02-0.406E-04
CGA:   3    -0.995554954342E+03   -0.56985E-03   -0.57149E-03  2880   0.337E-03 0.172E-04
CGA:   4    -0.995555043061E+03   -0.88719E-04   -0.90152E-04  2880   0.488E-04 0.180E-04
CGA:   5    -0.995555061376E+03   -0.18315E-04   -0.18345E-04  2880   0.139E-04-0.191E-05
CGA:   6    -0.995555066655E+03   -0.52791E-05   -0.53329E-05  2880   0.492E-05-0.915E-06
  15 F= -.99555507E+03 E0= -.99555507E+03  d E =-.215417E-02  mag=    -0.0000
       N       E                     dE             d eps       ncg     rms          ort
SDA:   1    -0.995534967551E+03    0.20094E-01    0.00000E+00  2880   0.565E-01 0.000E+00
CGA:   2    -0.995555323886E+03   -0.20356E-01   -0.20358E-01  2880   0.114E-01-0.674E-04
CGA:   3    -0.995558247516E+03   -0.29236E-02   -0.29267E-02  2880   0.162E-02 0.361E-04
CGA:   4    -0.995558657076E+03   -0.40956E-03   -0.41147E-03  2880   0.230E-03 0.230E-04
CGA:   5    -0.995558731132E+03   -0.74056E-04   -0.74020E-04  2880   0.442E-04-0.235E-05
CGA:   6    -0.995558748704E+03   -0.17572E-04   -0.17739E-04  2880   0.156E-04-0.223E-05
CGA:   7    -0.995558752574E+03   -0.38698E-05   -0.41188E-05  2880   0.389E-05 0.432E-05
  16 F= -.99555875E+03 E0= -.99555875E+03  d E =-.368592E-02  mag=     0.0000
       N       E                     dE             d eps       ncg     rms          ort
SDA:   1    -0.995403351702E+03    0.15540E+00    0.00000E+00  2880   0.374E+00 0.000E+00
CGA:   2    -0.995541745229E+03   -0.13839E+00   -0.13840E+00  2880   0.743E-01-0.970E-04
CGA:   3    -0.995560304685E+03   -0.18559E-01   -0.18562E-01  2880   0.106E-01 0.194E-04
CGA:   4    -0.995563008470E+03   -0.27038E-02   -0.27047E-02  2880   0.155E-02 0.127E-04
CGA:   5    -0.995563483585E+03   -0.47512E-03   -0.47510E-03  2880   0.269E-03-0.766E-06
CGA:   6    -0.995563586779E+03   -0.10319E-03   -0.10323E-03  2880   0.877E-04-0.634E-06
CGA:   7    -0.995563620569E+03   -0.33790E-04   -0.33513E-04  2880   0.249E-04 0.488E-05
CGA:   8    -0.995563631432E+03   -0.10863E-04   -0.10992E-04  2880   0.580E-05-0.144E-05
CGA:   9    -0.995563633379E+03   -0.19466E-05   -0.19498E-05  2880   0.894E-06-0.135E-06
  17 F= -.99556363E+03 E0= -.99556363E+03  d E =-.488080E-02  mag=    -0.0000
       N       E                     dE             d eps       ncg     rms          ort
SDA:   1    -0.995136995992E+03    0.42664E+00    0.00000E+00  2880   0.101E+01 0.000E+00
CGA:   2    -0.995510186427E+03   -0.37319E+00   -0.37319E+00  2880   0.205E+00-0.982E-04
CGA:   3    -0.995561879021E+03   -0.51693E-01   -0.51690E-01  2880   0.291E-01-0.108E-04
CGA:   4    -0.995569405205E+03   -0.75262E-02   -0.75274E-02  2880   0.446E-02 0.146E-04
CGA:   5    -0.995570797141E+03   -0.13919E-02   -0.13920E-02  2880   0.854E-03 0.682E-05
CGA:   6    -0.995571133859E+03   -0.33672E-03   -0.33758E-03  2880   0.288E-03-0.128E-04
CGA:   7    -0.995571242853E+03   -0.10899E-03   -0.10837E-03  2880   0.780E-04 0.123E-04
CGA:   8    -0.995571274732E+03   -0.31880E-04   -0.32032E-04  2880   0.162E-04-0.252E-05
CGA:   9    -0.995571281075E+03   -0.63426E-05   -0.65735E-05  2880   0.390E-05-0.283E-05
  18 F= -.99557128E+03 E0= -.99557128E+03  d E =-.764770E-02  mag=     0.0000
       N       E                     dE             d eps       ncg     rms          ort
SDA:   1    -0.995349210053E+03    0.22206E+00    0.00000E+00  2880   0.503E+00 0.000E+00
CGA:   2    -0.995534236064E+03   -0.18503E+00   -0.18502E+00  2880   0.107E+00 0.213E-03
CGA:   3    -0.995561074397E+03   -0.26838E-01   -0.26825E-01  2880   0.156E-01-0.166E-03
CGA:   4    -0.995565306527E+03   -0.42321E-02   -0.42240E-02  2880   0.248E-02-0.135E-03
CGA:   5    -0.995566087784E+03   -0.78126E-03   -0.78133E-03  2880   0.527E-03 0.749E-05
CGA:   6    -0.995566282294E+03   -0.19451E-03   -0.19349E-03  2880   0.158E-03 0.271E-04
CGA:   7    -0.995566359119E+03   -0.76825E-04   -0.83855E-04  2880   0.826E-04-0.401E-04
CGA:   8    -0.995566377466E+03   -0.18347E-04   -0.18390E-04  2880   0.160E-04 0.108E-05
CGA:   9    -0.995566380498E+03   -0.30314E-05   -0.35656E-05  2880   0.474E-05 0.460E-05
  19 F= -.99556638E+03 E0= -.99556638E+03  d E =0.490058E-02  mag=     0.0000
       N       E                     dE             d eps       ncg     rms          ort
SDA:   1    -0.995521248562E+03    0.45129E-01    0.00000E+00  2880   0.102E+00 0.000E+00
CGA:   2    -0.995558268282E+03   -0.37020E-01   -0.37023E-01  2880   0.230E-01-0.104E-03
CGA:   3    -0.995564012700E+03   -0.57444E-02   -0.57459E-02  2880   0.339E-02 0.172E-04
CGA:   4    -0.995564952244E+03   -0.93954E-03   -0.94009E-03  2880   0.538E-03 0.113E-04
CGA:   5    -0.995565126801E+03   -0.17456E-03   -0.17456E-03  2880   0.123E-03 0.162E-05
CGA:   6    -0.995565173857E+03   -0.47056E-04   -0.47117E-04  2880   0.411E-04-0.102E-05
CGA:   7    -0.995565189670E+03   -0.15813E-04   -0.15835E-04  2880   0.111E-04-0.349E-06
CGA:   8    -0.995565193033E+03   -0.33631E-05   -0.34012E-05  2880   0.185E-05 0.195E-05
  20 F= -.99556519E+03 E0= -.99556519E+03  d E =0.118746E-02  mag=    -0.0000
       N       E                     dE             d eps       ncg     rms          ort
SDA:   1    -0.995563021173E+03    0.21685E-02    0.00000E+00  2880   0.558E-02 0.000E+00
CGA:   2    -0.995565050997E+03   -0.20298E-02   -0.20310E-02  2880   0.125E-02-0.339E-04
CGA:   3    -0.995565365941E+03   -0.31494E-03   -0.31460E-03  2880   0.185E-03-0.452E-05
CGA:   4    -0.995565404992E+03   -0.39051E-04   -0.42041E-04  2880   0.256E-04 0.301E-04
CGA:   5    -0.995565412835E+03   -0.78430E-05   -0.81368E-05  2880   0.695E-05 0.595E-05
CGA:   6    -0.995565404512E+03    0.83228E-05   -0.10629E-04  2880   0.653E-04-0.206E-04
CGA:   7    -0.995565413285E+03   -0.87724E-05   -0.11742E-04  2880   0.907E-05 0.159E-04
  21 F= -.99556541E+03 E0= -.99556541E+03  d E =-.220252E-03  mag=    -0.0000
       N       E                     dE             d eps       ncg     rms          ort
SDA:   1    -0.995562271799E+03    0.31327E-02    0.00000E+00  2880   0.554E-02 0.000E+00
CGA:   2    -0.995564322724E+03   -0.20509E-02   -0.20517E-02  2880   0.118E-02-0.379E-04
CGA:   3    -0.995564604162E+03   -0.28144E-03   -0.28348E-03  2880   0.173E-03 0.187E-04
CGA:   4    -0.995564648716E+03   -0.44554E-04   -0.45413E-04  2880   0.242E-04 0.994E-05
CGA:   5    -0.995564657669E+03   -0.89532E-05   -0.89680E-05  2880   0.659E-05-0.156E-05
  22 F= -.99556466E+03 E0= -.99556466E+03  d E =0.755616E-03  mag=     0.0000
       N       E                     dE             d eps       ncg     rms          ort
SDA:   1    -0.995513179677E+03    0.51469E-01    0.00000E+00  2880   0.109E+00 0.000E+00
CGA:   2    -0.995552874481E+03   -0.39695E-01   -0.39693E-01  2880   0.217E-01 0.102E-03
CGA:   3    -0.995558377830E+03   -0.55033E-02   -0.54988E-02  2880   0.329E-02-0.494E-04
CGA:   4    -0.995559236915E+03   -0.85909E-03   -0.85481E-03  2880   0.475E-03-0.536E-04
CGA:   5    -0.995559378124E+03   -0.14121E-03   -0.14128E-03  2880   0.852E-04 0.208E-05
CGA:   6    -0.995559407797E+03   -0.29673E-04   -0.29568E-04  2880   0.232E-04 0.949E-05
CGA:   7    -0.995559418661E+03   -0.10864E-04   -0.20324E-04  2880   0.422E-04-0.209E-04
CGA:   8    -0.995559425592E+03   -0.69307E-05   -0.82251E-05  2880   0.350E-05 0.794E-05
  23 F= -.99555943E+03 E0= -.99555943E+03  d E =0.523208E-02  mag=    -0.0000
       N       E                     dE             d eps       ncg     rms          ort
SDA:   1    -0.995503351902E+03    0.56067E-01    0.00000E+00  2880   0.116E+00 0.000E+00
CGA:   2    -0.995545113100E+03   -0.41761E-01   -0.41761E-01  2880   0.259E-01 0.987E-05
CGA:   3    -0.995551602590E+03   -0.64895E-02   -0.64901E-02  2880   0.385E-02 0.451E-05
CGA:   4    -0.995552669611E+03   -0.10670E-02   -0.10658E-02  2880   0.613E-03-0.192E-04
CGA:   5    -0.995552867935E+03   -0.19832E-03   -0.19826E-03  2880   0.141E-03-0.588E-05
CGA:   6    -0.995552919434E+03   -0.51498E-04   -0.51348E-04  2880   0.418E-04 0.461E-05
CGA:   7    -0.995552937484E+03   -0.18051E-04   -0.18279E-04  2880   0.140E-04-0.263E-05
CGA:   8    -0.995552942330E+03   -0.48457E-05   -0.48714E-05  2880   0.266E-05-0.828E-06
  24 F= -.99555294E+03 E0= -.99555294E+03  d E =0.648326E-02  mag=     0.0000
       N       E                     dE             d eps       ncg     rms          ort
SDA:   1    -0.995512590249E+03    0.40347E-01    0.00000E+00  2880   0.111E+00 0.000E+00
CGA:   2    -0.995552597972E+03   -0.40008E-01   -0.40012E-01  2880   0.239E-01-0.180E-03
CGA:   3    -0.995558554330E+03   -0.59564E-02   -0.59593E-02  2880   0.357E-02 0.280E-04
CGA:   4    -0.995559488192E+03   -0.93386E-03   -0.93996E-03  2880   0.523E-03 0.821E-04
CGA:   5    -0.995559659960E+03   -0.17177E-03   -0.17182E-03  2880   0.116E-03 0.388E-05
CGA:   6    -0.995559709521E+03   -0.49562E-04   -0.51384E-04  2880   0.511E-04-0.169E-04
CGA:   7    -0.995559719893E+03   -0.10371E-04   -0.11262E-04  2880   0.125E-04 0.111E-04
CGA:   8    -0.995559722500E+03   -0.26074E-05   -0.32483E-05  2880   0.395E-05 0.526E-05
  25 F= -.99555972E+03 E0= -.99555972E+03  d E =-.678017E-02  mag=    -0.0000
       N       E                     dE             d eps       ncg     rms          ort
SDA:   1    -0.995557709483E+03    0.20104E-02    0.00000E+00  2880   0.601E-02 0.000E+00
CGA:   2    -0.995559889361E+03   -0.21799E-02   -0.21789E-02  2880   0.134E-02 0.288E-04
CGA:   3    -0.995560224798E+03   -0.33544E-03   -0.33539E-03  2880   0.200E-03-0.725E-06
CGA:   4    -0.995560287037E+03   -0.62239E-04   -0.61885E-04  2880   0.407E-04-0.231E-04
CGA:   5    -0.995560296735E+03   -0.96977E-05   -0.98463E-05  2880   0.713E-05 0.293E-05
  26 F= -.99556030E+03 E0= -.99556030E+03  d E =-.574235E-03  mag=     0.0000
       N       E                     dE             d eps       ncg     rms          ort
SDA:   1    -0.995559960181E+03    0.32686E-03    0.00000E+00  2880   0.993E-03 0.000E+00
CGA:   2    -0.995560303314E+03   -0.34313E-03   -0.34267E-03  2880   0.232E-03 0.172E-04
CGA:   3    -0.995560364819E+03   -0.61505E-04   -0.61152E-04  2880   0.377E-04-0.583E-05
CGA:   4    -0.995560376273E+03   -0.11454E-04   -0.11430E-04  2880   0.730E-05-0.424E-05
CGA:   5    -0.995560378070E+03   -0.17977E-05   -0.18110E-05  2880   0.128E-05 0.358E-06
  27 F= -.99556038E+03 E0= -.99556038E+03  d E =-.813359E-04  mag=    -0.0000
