       N       E                     dE             d eps       ncg     rms          ort
DAV:   1     0.828327518117E+04    0.82833E+04   -0.24676E+05  8424   0.238E+03
DAV:   2     0.917609333454E+03   -0.73657E+04   -0.69167E+04  8424   0.658E+02
DAV:   3    -0.678318435079E+03   -0.15959E+04   -0.14038E+04  8424   0.283E+02
DAV:   4    -0.834573059218E+03   -0.15625E+03   -0.15352E+03  8424   0.858E+01
DAV:   5    -0.837099069369E+03   -0.25260E+01   -0.25144E+01  8424   0.122E+01
SDA:   6    -0.219638324974E+03    0.61746E+03   -0.25144E+01  8424   0.908E+04 0.000E+00
CGA:   7    -0.589095603147E+02    0.16073E+03   -0.47194E+03  8424   0.304E+05-0.599E+04
CGA:   8     0.288695099684E+04    0.29459E+04   -0.19276E+04  8424   0.238E+06-0.767E+05
CGA:   9     0.628543461028E+04    0.33985E+04   -0.19859E+05  8424   0.587E+05-0.362E+05
CGA:  10     0.450947605911E+04   -0.17760E+04   -0.32894E+04  8424   0.207E+05-0.189E+05
CGA:  11     0.948133380727E+03   -0.35613E+04   -0.48857E+03  8424   0.872E+05-0.145E+06
CGA:  12     0.454262042244E+04    0.35945E+04   -0.58009E+04  8424   0.189E+05-0.866E+04
CGA:  13     0.142376635156E+04   -0.31189E+04   -0.57275E+03  8424   0.148E+06-0.197E+06
CGA:  14     0.461323083168E+04    0.31895E+04   -0.10023E+05  8424   0.185E+05-0.919E+04
CGA:  15     0.856823163493E+03   -0.37564E+04   -0.56689E+03  8424   0.557E+05-0.807E+05
CGA:  16     0.224176850828E+04    0.13849E+04   -0.31372E+04  8424   0.256E+05-0.979E+04
CGA:  17     0.656714371661E+03   -0.15851E+04   -0.73651E+03  8424   0.619E+05-0.782E+05
CGA:  18     0.286952103391E+04    0.22128E+04   -0.32526E+04  8424   0.133E+06-0.653E+05
CGA:  19     0.446153944092E+04    0.15920E+04   -0.74535E+04  8424   0.156E+05-0.122E+05
CGA:  20     0.352300551830E+02   -0.44263E+04   -0.34051E+03  8424   0.153E+05 0.536E+05
CGA:  21    -0.571840065699E+03   -0.60707E+03   -0.39427E+03  8424   0.203E+04 0.182E+04
CGA:  22    -0.629484655422E+03   -0.57645E+02   -0.80654E+02  8424   0.446E+03-0.248E+03
CGA:  23    -0.630701651022E+03   -0.12170E+01   -0.16603E+02  8424   0.858E+03-0.449E+03
CGA:  24    -0.634949549935E+03   -0.42479E+01   -0.32120E+02  8424   0.477E+03-0.325E+03
CGA:  25    -0.646159257358E+03   -0.11210E+02   -0.10955E+02  8424   0.550E+03-0.465E+03
CGA:  26    -0.642207966117E+03    0.39513E+01   -0.17251E+02  8424   0.658E+03-0.385E+03
CGA:  27    -0.638289555585E+03    0.39184E+01   -0.19847E+02  8424   0.134E+04-0.987E+03
CGA:  28    -0.627590843953E+03    0.10699E+02   -0.47575E+02  8424   0.179E+04-0.125E+04
CGA:  29    -0.620081763134E+03    0.75091E+01   -0.65731E+02  8424   0.181E+04-0.142E+04
CGA:  30    -0.621587915155E+03   -0.15062E+01   -0.63558E+02  8424   0.241E+04-0.235E+04
CGA:  31    -0.625574798128E+03   -0.39869E+01   -0.88268E+02  8424   0.150E+04-0.142E+04
CGA:  32    -0.645043805501E+03   -0.19469E+02   -0.47985E+02  8424   0.744E+03-0.981E+03
CGA:  33    -0.656030053093E+03   -0.10986E+02   -0.19122E+02  8424   0.487E+03-0.719E+03
CGA:  34    -0.660453557364E+03   -0.44235E+01   -0.11430E+02  8424   0.191E+03-0.230E+03
CGA:  35    -0.664572116698E+03   -0.41186E+01   -0.34030E+01  8424   0.186E+02 0.150E+02
CGA:  36    -0.665907779594E+03   -0.13357E+01   -0.14004E+01  8424   0.245E+02 0.599E+01
CGA:  37    -0.668509647797E+03   -0.26019E+01   -0.29353E+01  8424   0.544E+02-0.177E+02
CGA:  38    -0.669421610261E+03   -0.91196E+00   -0.22835E+01  8424   0.158E+02-0.149E+01
CGA:  39    -0.669879882244E+03   -0.45827E+00   -0.40140E+00  8424   0.858E+01 0.106E+01
CGA:  40    -0.670419207257E+03   -0.53933E+00   -0.45114E+00  8424   0.127E+02 0.142E+00
CGA:  41    -0.670790498796E+03   -0.37129E+00   -0.42414E+00  8424   0.175E+02-0.108E+01
CGA:  42    -0.671327716365E+03   -0.53722E+00   -0.69985E+00  8424   0.201E+02-0.284E+00
CGA:  43    -0.671741230144E+03   -0.41351E+00   -0.29053E+00  8424   0.127E+02 0.510E+01
CGA:  44    -0.671955768290E+03   -0.21454E+00   -0.15568E+00  8424   0.124E+02 0.485E+01
CGA:  45    -0.672140288095E+03   -0.18452E+00   -0.18765E+00  8424   0.161E+02-0.488E+00
CGA:  46    -0.672255497201E+03   -0.11521E+00   -0.24204E+00  8424   0.282E+02-0.532E+01
CGA:  47    -0.672411754947E+03   -0.15626E+00   -0.30077E+00  8424   0.195E+02-0.606E+01
CGA:  48    -0.672554011329E+03   -0.14226E+00   -0.32744E+00  8424   0.746E+01-0.393E+01
CGA:  49    -0.672772646189E+03   -0.21863E+00   -0.20345E+00  8424   0.292E+01 0.440E-01
CGA:  50    -0.672896517074E+03   -0.12387E+00   -0.12183E+00  8424   0.299E+01-0.682E-01
CGA:  51    -0.673009096862E+03   -0.11258E+00   -0.11406E+00  8424   0.265E+01 0.213E-01
CGA:  52    -0.673119255035E+03   -0.11016E+00   -0.11528E+00  8424   0.211E+01 0.219E+00
CGA:  53    -0.673309156918E+03   -0.18990E+00   -0.18303E+00  8424   0.150E+01 0.111E+00
CGA:  54    -0.673431497606E+03   -0.12234E+00   -0.12750E+00  8424   0.144E+01-0.126E+00
CGA:  55    -0.673551087648E+03   -0.11959E+00   -0.10851E+00  8424   0.989E+00 0.274E+00
CGA:  56    -0.673667240208E+03   -0.11615E+00   -0.11158E+00  8424   0.499E+00 0.988E-01
CGA:  57    -0.673788819059E+03   -0.12158E+00   -0.12879E+00  8424   0.494E+00-0.311E-01
CGA:  58    -0.673892929759E+03   -0.10411E+00   -0.99970E-01  8424   0.305E+00 0.387E-01
CGA:  59    -0.673953964446E+03   -0.61035E-01   -0.67114E-01  8424   0.140E+00-0.460E-01
CGA:  60    -0.673986507439E+03   -0.32543E-01   -0.45107E-01  8424   0.112E+00-0.404E-01
CGA:  61    -0.674003054860E+03   -0.16547E-01   -0.17888E-01  8424   0.568E-01-0.995E-02
CGA:  62    -0.674015215061E+03   -0.12160E-01   -0.11796E-01  8424   0.332E-01 0.286E-02
CGA:  63    -0.674024935909E+03   -0.97208E-02   -0.86237E-02  8424   0.224E-01 0.779E-02
CGA:  64    -0.674031844379E+03   -0.69085E-02   -0.61008E-02  8424   0.125E-01 0.758E-02
CGA:  65    -0.674036266745E+03   -0.44224E-02   -0.37497E-02  8424   0.794E-02 0.643E-02
CGA:  66    -0.674038344509E+03   -0.20778E-02   -0.18959E-02  8424   0.398E-02 0.159E-02
CGA:  67    -0.674040041145E+03   -0.16966E-02   -0.13348E-02  8424   0.245E-02 0.241E-02
CGA:  68    -0.674040752853E+03   -0.71171E-03   -0.56801E-03  8424   0.161E-02 0.153E-02
CGA:  69    -0.674041402864E+03   -0.65001E-03   -0.45607E-03  8424   0.148E-02 0.137E-02
CGA:  70    -0.674041879100E+03   -0.47624E-03   -0.36212E-03  8424   0.141E-02 0.121E-02
CGA:  71    -0.674042509555E+03   -0.63046E-03   -0.45873E-03  8424   0.162E-02 0.999E-03
CGA:  72    -0.674042846631E+03   -0.33708E-03   -0.31178E-03  8424   0.136E-02 0.854E-03
CGA:  73    -0.674043408194E+03   -0.56156E-03   -0.44864E-03  8424   0.192E-02 0.680E-03
CGA:  74    -0.674044929835E+03   -0.15216E-02   -0.10479E-02  8424   0.947E-03 0.244E-02
CGA:  75    -0.674045699915E+03   -0.77008E-03   -0.47831E-03  8424   0.943E-03 0.896E-03
CGA:  76    -0.674046560766E+03   -0.86085E-03   -0.58297E-03  8424   0.167E-02 0.653E-03
CGA:  77    -0.674046861667E+03   -0.30090E-03   -0.31341E-03  8424   0.107E-02 0.386E-03
CGA:  78    -0.674048297598E+03   -0.14359E-02   -0.89213E-03  8424   0.188E-02 0.116E-02
CGA:  79    -0.674048683387E+03   -0.38579E-03   -0.38505E-03  8424   0.127E-02-0.235E-04
CGA:  80    -0.674051011396E+03   -0.23280E-02   -0.13508E-02  8424   0.111E-02 0.113E-02
CGA:  81    -0.674051263935E+03   -0.25254E-03   -0.26455E-03  8424   0.973E-03 0.272E-03
CGA:  82    -0.674053849234E+03   -0.25853E-02   -0.16539E-02  8424   0.224E-02 0.812E-03
CGA:  83    -0.674054403840E+03   -0.55461E-03   -0.56280E-03  8424   0.102E-02 0.962E-04
CGA:  84    -0.674054960359E+03   -0.55652E-03   -0.55363E-03  8424   0.229E-02 0.461E-05
CGA:  85    -0.674056392270E+03   -0.14319E-02   -0.13248E-02  8424   0.536E-02 0.352E-03
CGA:  86    -0.674064380488E+03   -0.79882E-02   -0.74682E-02  8424   0.275E-01-0.598E-03
CGA:  87    -0.673894305258E+03    0.17008E+00   -0.38990E-01  8424   0.402E+00-0.204E+00
CGA:  88    -0.673987459227E+03   -0.93154E-01   -0.94684E-01  8424   0.134E+00 0.102E-01
CGA:  89    -0.674036420977E+03   -0.48962E-01   -0.50226E-01  8424   0.799E-01 0.179E-01
CGA:  90    -0.674067949095E+03   -0.31528E-01   -0.32719E-01  8424   0.414E-01 0.159E-01
CGA:  91    -0.674084955218E+03   -0.17006E-01   -0.17949E-01  8424   0.193E-01 0.138E-01
CGA:  92    -0.674091310520E+03   -0.63553E-02   -0.73572E-02  8424   0.103E-01 0.686E-02
CGA:  93    -0.674095869214E+03   -0.45587E-02   -0.49935E-02  8424   0.736E-02 0.649E-02
CGA:  94    -0.674098380885E+03   -0.25117E-02   -0.26285E-02  8424   0.643E-02 0.184E-02
CGA:  95    -0.674101663460E+03   -0.32826E-02   -0.33060E-02  8424   0.584E-02 0.369E-02
CGA:  96    -0.674103031776E+03   -0.13683E-02   -0.14603E-02  8424   0.502E-02 0.529E-03
CGA:  97    -0.674104894325E+03   -0.18625E-02   -0.19799E-02  8424   0.412E-02 0.244E-02
CGA:  98    -0.674107666982E+03   -0.27727E-02   -0.26662E-02  8424   0.435E-02 0.361E-02
CGA:  99    -0.674108522846E+03   -0.85586E-03   -0.91199E-03  8424   0.310E-02 0.272E-03
CGA: 100    -0.674109619429E+03   -0.10966E-02   -0.11717E-02  8424   0.216E-02 0.177E-02
CGA: 101    -0.674110177908E+03   -0.55848E-03   -0.63612E-03  8424   0.188E-02 0.764E-03
CGA: 102    -0.674111547859E+03   -0.13700E-02   -0.12189E-02  8424   0.221E-02 0.167E-02
CGA: 103    -0.674112005482E+03   -0.45762E-03   -0.54540E-03  8424   0.164E-02 0.593E-03
CGA: 104    -0.674112799078E+03   -0.79360E-03   -0.79922E-03  8424   0.190E-02 0.114E-02
CGA: 105    -0.674113247231E+03   -0.44815E-03   -0.51159E-03  8424   0.129E-02 0.536E-03
CGA: 106    -0.674114040582E+03   -0.79335E-03   -0.73381E-03  8424   0.193E-02 0.949E-03
CGA: 107    -0.674114403871E+03   -0.36329E-03   -0.43643E-03  8424   0.120E-02 0.461E-03
CGA: 108    -0.674114952067E+03   -0.54820E-03   -0.55283E-03  8424   0.149E-02 0.749E-03
CGA: 109    -0.674115348058E+03   -0.39599E-03   -0.43252E-03  8424   0.966E-03 0.420E-03
CGA: 110    -0.674116024629E+03   -0.67657E-03   -0.59435E-03  8424   0.164E-02 0.752E-03
CGA: 111    -0.674116309669E+03   -0.28504E-03   -0.35064E-03  8424   0.953E-03 0.399E-03
CGA: 112    -0.674116756776E+03   -0.44711E-03   -0.44406E-03  8424   0.117E-02 0.568E-03
CGA: 113    -0.674117158046E+03   -0.40127E-03   -0.40813E-03  8424   0.779E-03 0.310E-03
CGA: 114    -0.674117922419E+03   -0.76437E-03   -0.59270E-03  8424   0.136E-02 0.722E-03
CGA: 115    -0.674118153659E+03   -0.23124E-03   -0.28920E-03  8424   0.791E-03 0.347E-03
CGA: 116    -0.674118565897E+03   -0.41224E-03   -0.39884E-03  8424   0.979E-03 0.445E-03
CGA: 117    -0.674118988397E+03   -0.42250E-03   -0.41347E-03  8424   0.710E-03 0.181E-03
CGA: 118    -0.674119893945E+03   -0.90555E-03   -0.64055E-03  8424   0.113E-02 0.671E-03
CGA: 119    -0.674120095915E+03   -0.20197E-03   -0.24907E-03  8424   0.681E-03 0.269E-03
CGA: 120    -0.674120498916E+03   -0.40300E-03   -0.38239E-03  8424   0.882E-03 0.296E-03
CGA: 121    -0.674122216725E+03   -0.17178E-02   -0.11774E-02  8424   0.157E-02 0.947E-03
CGA: 122    -0.674122479482E+03   -0.26276E-03   -0.30244E-03  8424   0.705E-03 0.179E-03
CGA: 123    -0.674122866514E+03   -0.38703E-03   -0.38698E-03  8424   0.711E-03-0.293E-05
CGA: 124    -0.674124239082E+03   -0.13726E-02   -0.95458E-03  8424   0.165E-02 0.410E-03
CGA: 125    -0.674124727136E+03   -0.48805E-03   -0.50282E-03  8424   0.897E-03 0.964E-04
CGA: 126    -0.674125025286E+03   -0.29815E-03   -0.27059E-03  8424   0.575E-03-0.170E-03
CGA: 127    -0.674125467311E+03   -0.44203E-03   -0.42354E-03  8424   0.167E-02 0.263E-04
CGA: 128    -0.674123302928E+03    0.21644E-02   -0.17009E-02  8424   0.652E-01-0.328E-02
CGA: 129    -0.674131371351E+03   -0.80684E-02   -0.79932E-02  8424   0.360E-02 0.318E-02
CGA: 130    -0.674132356420E+03   -0.98507E-03   -0.97683E-03  8424   0.105E-02-0.131E-04
CGA: 131    -0.674132649204E+03   -0.29278E-03   -0.26285E-03  8424   0.334E-03-0.574E-04
CGA: 132    -0.674132774630E+03   -0.12543E-03   -0.10341E-03  8424   0.309E-03-0.514E-04
CGA: 133    -0.674132977531E+03   -0.20290E-03   -0.17183E-03  8424   0.113E-02-0.405E-03
CGA: 134    -0.674133169684E+03   -0.19215E-03   -0.18852E-03  8424   0.247E-03 0.782E-06
CGA: 135    -0.674132529939E+03    0.63975E-03   -0.42086E-03  8424   0.782E-02-0.106E-02
CGA: 136    -0.674133642563E+03   -0.11126E-02   -0.11831E-02  8424   0.140E-02 0.161E-03
CGA: 137    -0.674134099431E+03   -0.45687E-03   -0.39683E-03  8424   0.199E-03-0.139E-03
CGA: 138    -0.674133996310E+03    0.10312E-03   -0.26004E-03  8424   0.291E-02-0.486E-03
CGA: 139    -0.674134610269E+03   -0.61396E-03   -0.52500E-03  8424   0.506E-03-0.174E-03
CGA: 140    -0.674134748642E+03   -0.13837E-03   -0.11274E-03  8424   0.173E-03-0.536E-04
CGA: 141    -0.674135048809E+03   -0.30017E-03    0.12800E-03  8424   0.622E-03-0.166E-03
CGA: 142    -0.674135153999E+03   -0.10519E-03   -0.92725E-04  8424   0.868E-04-0.218E-04
CGA: 143    -0.674135376309E+03   -0.22231E-03    0.27329E-04  8424   0.331E-03-0.621E-04
CGA: 144    -0.674135434011E+03   -0.57702E-04   -0.48285E-04  8424   0.576E-04-0.176E-04
CGA: 145    -0.674135675347E+03   -0.24134E-03    0.69490E-05  8424   0.173E-03-0.187E-04
CGA: 146    -0.674136499612E+03   -0.82427E-03    0.81783E-05  8424   0.345E-03-0.168E-04
CGA: 147    -0.674138461723E+03   -0.19621E-02    0.24902E-04  8424   0.664E-03 0.109E-03
CGA: 148    -0.674142623067E+03   -0.41613E-02    0.10069E-03  8424   0.230E-02-0.340E-03
CGA: 149    -0.674142893477E+03   -0.27041E-03   -0.29613E-03  8424   0.219E-03 0.611E-04
CGA: 150    -0.674143028978E+03   -0.13550E-03   -0.11568E-03  8424   0.297E-03-0.208E-03
CGA: 151    -0.674143106476E+03   -0.77498E-04   -0.66496E-04  8424   0.842E-04-0.289E-04
CGA: 152    -0.674143250194E+03   -0.14372E-03    0.36137E-04  8424   0.457E-03-0.136E-03
CGA: 153    -0.674143302084E+03   -0.51890E-04   -0.59000E-04  8424   0.505E-04 0.166E-04
CGA: 154    -0.674143434572E+03   -0.13249E-03    0.11765E-04  8424   0.676E-04-0.305E-04
CGA: 155    -0.674143549831E+03   -0.11526E-03    0.36884E-04  8424   0.119E-03-0.499E-04
CGA: 156    -0.674143618059E+03   -0.68228E-04   -0.47417E-04  8424   0.275E-03-0.127E-03
CGA: 157    -0.674143676391E+03   -0.58332E-04   -0.42467E-04  8424   0.339E-04-0.394E-04
CGA: 158    -0.674143815672E+03   -0.13928E-03    0.22294E-05  8424   0.124E-03-0.182E-04
CGA: 159    -0.674143833729E+03   -0.18057E-04   -0.16336E-04  8424   0.188E-04-0.417E-05
CGA: 160    -0.674143954812E+03   -0.12108E-03    0.84714E-06  8424   0.233E-04 0.106E-04
CGA: 161    -0.674144064530E+03   -0.10972E-03    0.16707E-05  8424   0.664E-04-0.863E-05
CGA: 162    -0.674144459199E+03   -0.39467E-03    0.13117E-05  8424   0.166E-03 0.146E-04
CGA: 163    -0.674145544277E+03   -0.10851E-02    0.12317E-04  8424   0.336E-03 0.233E-04
CGA: 164    -0.674147980228E+03   -0.24360E-02    0.19020E-04  8424   0.498E-03 0.443E-04
CGA: 165    -0.674151959597E+03   -0.39794E-02    0.24720E-04  8424   0.123E-02-0.221E-03
CGA: 166    -0.674162509555E+03   -0.10550E-01    0.12630E-04  8424   0.207E-02-0.982E-03
CGA: 167    -0.674162743350E+03   -0.23380E-03   -0.32253E-03  8424   0.113E-03 0.250E-03
CGA: 168    -0.674162739230E+03    0.41198E-05   -0.15105E-04  8424   0.316E-04 0.510E-04
   1 F= -.67416274E+03 E0= -.67416274E+03  d E =-.674163E+03  mag=     5.0000
       N       E                     dE             d eps       ncg     rms          ort
SDA:   1    -0.674171886750E+03   -0.91434E-02    0.00000E+00  8424   0.120E-01 0.000E+00
CGA:   2    -0.674175317017E+03   -0.34303E-02   -0.34607E-02  8424   0.499E-02 0.181E-03
CGA:   3    -0.674176224108E+03   -0.90709E-03   -0.90965E-03  8424   0.137E-02 0.718E-05
CGA:   4    -0.674176413708E+03   -0.18960E-03   -0.22497E-03  8424   0.275E-03 0.130E-03
CGA:   5    -0.674176432927E+03   -0.19219E-04   -0.42640E-04  8424   0.641E-04 0.837E-04
CGA:   6    -0.674176423481E+03    0.94467E-05   -0.75837E-05  8424   0.344E-04 0.537E-04
   2 F= -.67417642E+03 E0= -.67417642E+03  d E =-.136843E-01  mag=     5.0000
       N       E                     dE             d eps       ncg     rms          ort
SDA:   1    -0.674183442011E+03   -0.70091E-02    0.00000E+00  8424   0.595E-02 0.000E+00
CGA:   2    -0.674185018965E+03   -0.15770E-02   -0.16003E-02  8424   0.257E-02 0.221E-03
CGA:   3    -0.674185497635E+03   -0.47867E-03   -0.47854E-03  8424   0.784E-03-0.190E-05
CGA:   4    -0.674185584595E+03   -0.86960E-04   -0.11621E-03  8424   0.136E-03 0.138E-03
CGA:   5    -0.674185583293E+03    0.13017E-05   -0.17304E-04  8424   0.470E-04 0.771E-04
   3 F= -.67418558E+03 E0= -.67418558E+03  d E =-.915981E-02  mag=     5.0000
       N       E                     dE             d eps       ncg     rms          ort
SDA:   1    -0.414104173452E+03    0.26008E+03    0.00000E+00  8424   0.237E+04 0.000E+00
CGA:   2    -0.557031659989E+03   -0.14293E+03   -0.31854E+03  8424   0.406E+03 0.933E+02
CGA:   3    -0.619860673338E+03   -0.62829E+02   -0.56521E+02  8424   0.166E+03 0.448E+01
CGA:   4    -0.660672612597E+03   -0.40812E+02   -0.40829E+02  8424   0.437E+02-0.161E+01
CGA:   5    -0.668675188277E+03   -0.80026E+01   -0.80988E+01  8424   0.126E+02-0.745E-02
CGA:   6    -0.671354970963E+03   -0.26798E+01   -0.26904E+01  8424   0.401E+01 0.488E-01
CGA:   7    -0.672514389788E+03   -0.11594E+01   -0.11598E+01  8424   0.196E+01 0.496E-01
CGA:   8    -0.673043390016E+03   -0.52900E+00   -0.52910E+00  8424   0.958E+00-0.476E-02
CGA:   9    -0.673295536290E+03   -0.25215E+00   -0.25182E+00  8424   0.272E+00-0.196E-02
CGA:  10    -0.673385075815E+03   -0.89540E-01   -0.89707E-01  8424   0.986E-01-0.388E-02
CGA:  11    -0.673410306144E+03   -0.25230E-01   -0.25110E-01  8424   0.324E-01-0.361E-02
CGA:  12    -0.673419148465E+03   -0.88423E-02   -0.88337E-02  8424   0.115E-01-0.120E-02
CGA:  13    -0.673423313523E+03   -0.41651E-02   -0.44551E-02  8424   0.823E-02-0.259E-02
CGA:  14    -0.673425690814E+03   -0.23773E-02   -0.26651E-02  8424   0.626E-02-0.237E-02
CGA:  15    -0.673427417756E+03   -0.17269E-02   -0.21020E-02  8424   0.573E-02-0.223E-02
CGA:  16    -0.673428739028E+03   -0.13213E-02   -0.14527E-02  8424   0.420E-02-0.161E-02
CGA:  17    -0.673429930233E+03   -0.11912E-02   -0.12292E-02  8424   0.325E-02-0.451E-03
CGA:  18    -0.673431382123E+03   -0.14519E-02   -0.15446E-02  8424   0.354E-02-0.497E-03
CGA:  19    -0.673432833349E+03   -0.14512E-02   -0.14137E-02  8424   0.320E-02 0.158E-03
CGA:  20    -0.673434977259E+03   -0.21439E-02   -0.28890E-02  8424   0.813E-02-0.166E-02
CGA:  21    -0.673436926051E+03   -0.19488E-02   -0.19834E-02  8424   0.279E-02 0.285E-03
CGA:  22    -0.673438050024E+03   -0.11240E-02   -0.18493E-02  8424   0.842E-02-0.258E-02
CGA:  23    -0.673439344004E+03   -0.12940E-02   -0.13873E-02  8424   0.142E-02 0.456E-03
CGA:  24    -0.673438725054E+03    0.61895E-03   -0.17314E-02  8424   0.123E-01-0.298E-02
CGA:  25    -0.673441703389E+03   -0.29783E-02   -0.30020E-02  8424   0.267E-02 0.143E-03
CGA:  26    -0.673442639122E+03   -0.93573E-03   -0.84285E-03  8424   0.211E-02-0.115E-02
CGA:  27    -0.673443738539E+03   -0.10994E-02    0.13027E-02  8424   0.157E-02 0.398E-03
CGA:  28    -0.673445418059E+03   -0.16795E-02    0.22529E-02  8424   0.169E-02 0.835E-03
CGA:  29    -0.673446079125E+03   -0.66107E-03   -0.67640E-03  8424   0.478E-02-0.150E-02
CGA:  30    -0.673446681153E+03   -0.60203E-03   -0.64822E-03  8424   0.533E-03 0.185E-03
CGA:  31    -0.673447420861E+03   -0.73971E-03    0.13484E-03  8424   0.648E-03 0.518E-03
CGA:  32    -0.673448173699E+03   -0.75284E-03    0.22510E-03  8424   0.107E-02 0.221E-03
CGA:  33    -0.673450085987E+03   -0.19123E-02    0.34753E-03  8424   0.668E-03 0.137E-02
CGA:  34    -0.673450707950E+03   -0.62196E-03    0.53229E-03  8424   0.963E-03 0.267E-03
CGA:  35    -0.673452621212E+03   -0.19133E-02    0.28679E-03  8424   0.703E-03 0.123E-02
CGA:  36    -0.673453425267E+03   -0.80406E-03    0.25525E-03  8424   0.671E-03 0.365E-03
CGA:  37    -0.673454145921E+03   -0.72065E-03    0.29640E-03  8424   0.759E-03 0.348E-03
CGA:  38    -0.673454975396E+03   -0.82947E-03    0.31728E-03  8424   0.116E-02 0.147E-03
CGA:  39    -0.673456962497E+03   -0.19871E-02    0.28614E-03  8424   0.918E-03 0.129E-02
CGA:  40    -0.673449590892E+03    0.73716E-02   -0.39704E-02  8424   0.760E-01-0.485E-02
CGA:  41    -0.673462238032E+03   -0.12647E-01   -0.12064E-01  8424   0.316E-02-0.118E-02
CGA:  42    -0.673463118536E+03   -0.88050E-03   -0.78206E-03  8424   0.814E-03-0.248E-03
CGA:  43    -0.673464919026E+03   -0.18005E-02    0.27432E-03  8424   0.127E-02 0.374E-03
CGA:  44    -0.673469040268E+03   -0.41212E-02    0.80817E-03  8424   0.131E-02 0.103E-02
CGA:  45    -0.673469856143E+03   -0.81588E-03   -0.64190E-03  8424   0.395E-02-0.116E-02
CGA:  46    -0.673470607659E+03   -0.75152E-03   -0.68099E-03  8424   0.660E-03-0.143E-03
CGA:  47    -0.673472071964E+03   -0.14643E-02    0.21846E-03  8424   0.106E-02 0.276E-03
CGA:  48    -0.673475920860E+03   -0.38489E-02    0.41723E-03  8424   0.844E-03 0.108E-02
CGA:  49    -0.673476276246E+03   -0.35539E-03   -0.71211E-03  8424   0.928E-02-0.153E-02
CGA:  50    -0.673478022350E+03   -0.17461E-02   -0.15240E-02  8424   0.557E-03-0.550E-03
CGA:  51    -0.673479232736E+03   -0.12104E-02    0.16887E-03  8424   0.111E-02 0.164E-03
CGA:  52    -0.673482912929E+03   -0.36802E-02    0.38043E-03  8424   0.125E-02 0.816E-03
CGA:  53    -0.673483489305E+03   -0.57638E-03   -0.36008E-03  8424   0.166E-02-0.702E-03
CGA:  54    -0.673483899697E+03   -0.41039E-03   -0.29893E-03  8424   0.620E-03-0.276E-03
CGA:  55    -0.673485351530E+03   -0.14518E-02    0.97418E-04  8424   0.411E-03 0.405E-03
CGA:  56    -0.673486280711E+03   -0.92918E-03    0.11492E-03  8424   0.121E-02 0.532E-05
CGA:  57    -0.673490239937E+03   -0.39592E-02    0.18582E-03  8424   0.110E-02 0.102E-02
CGA:  58    -0.673490681724E+03   -0.44179E-03   -0.32781E-03  8424   0.882E-03-0.430E-03
CGA:  59    -0.673492215386E+03   -0.15337E-02    0.92986E-04  8424   0.908E-03 0.232E-03
CGA:  60    -0.673494605793E+03   -0.23904E-02    0.35212E-03  8424   0.122E-02 0.752E-04
CGA:  61    -0.673498349839E+03   -0.37440E-02    0.23213E-03  8424   0.202E-02 0.301E-03
CGA:  62    -0.673505586575E+03   -0.72367E-02    0.42673E-03  8424   0.114E-02 0.548E-03
CGA:  63    -0.673509845545E+03   -0.42590E-02    0.23761E-03  8424   0.157E-02-0.234E-03
CGA:  64    -0.673515413334E+03   -0.55678E-02    0.11185E-03  8424   0.236E-02-0.586E-03
CGA:  65    -0.673523765945E+03   -0.83526E-02    0.97991E-04  8424   0.171E-02-0.141E-02
CGA:  66    -0.673524059648E+03   -0.29370E-03   -0.35454E-03  8424   0.245E-03 0.175E-03
CGA:  67    -0.673524016932E+03    0.42716E-04   -0.36949E-04  8424   0.169E-03 0.200E-03
CGA:  68    -0.673523976435E+03    0.40498E-04   -0.19497E-04  8424   0.143E-03 0.151E-03
CGA:  69    -0.673523938653E+03    0.37782E-04   -0.15460E-04  8424   0.135E-03 0.138E-03
CGA:  70    -0.673523903379E+03    0.35273E-04   -0.13892E-04  8424   0.130E-03 0.132E-03
CGA:  71    -0.673523870249E+03    0.33130E-04   -0.12784E-04  8424   0.127E-03 0.128E-03
CGA:  72    -0.673523839036E+03    0.31213E-04   -0.11894E-04  8424   0.124E-03 0.125E-03
CGA:  73    -0.673523809575E+03    0.29462E-04   -0.11140E-04  8424   0.122E-03 0.123E-03
CGA:  74    -0.673523781730E+03    0.27845E-04   -0.10480E-04  8424   0.120E-03 0.120E-03
CGA:  75    -0.673523755384E+03    0.26345E-04   -0.98891E-05  8424   0.118E-03 0.119E-03
CGA:  76    -0.673523730435E+03    0.24949E-04   -0.93519E-05  8424   0.116E-03 0.117E-03
CGA:  77    -0.673523706789E+03    0.23646E-04   -0.88584E-05  8424   0.115E-03 0.115E-03
CGA:  78    -0.673523684363E+03    0.22427E-04   -0.84018E-05  8424   0.113E-03 0.114E-03
CGA:  79    -0.673523663076E+03    0.21286E-04   -0.79770E-05  8424   0.112E-03 0.112E-03
CGA:  80    -0.673523642858E+03    0.20218E-04   -0.75805E-05  8424   0.111E-03 0.111E-03
CGA:  81    -0.673523623643E+03    0.19216E-04   -0.72093E-05  8424   0.110E-03 0.110E-03
CGA:  82    -0.673523605369E+03    0.18273E-04   -0.68609E-05  8424   0.109E-03 0.109E-03
CGA:  83    -0.673523587983E+03    0.17386E-04   -0.65332E-05  8424   0.108E-03 0.108E-03
CGA:  84    -0.673523571434E+03    0.16550E-04   -0.62246E-05  8424   0.107E-03 0.107E-03
CGA:  85    -0.673523555674E+03    0.15760E-04   -0.59336E-05  8424   0.106E-03 0.106E-03
CGA:  86    -0.673523540660E+03    0.15014E-04   -0.56588E-05  8424   0.105E-03 0.105E-03
CGA:  87    -0.673523526352E+03    0.14308E-04   -0.53989E-05  8424   0.104E-03 0.105E-03
CGA:  88    -0.673523512711E+03    0.13641E-04   -0.51530E-05  8424   0.103E-03 0.104E-03
CGA:  89    -0.673523499702E+03    0.13009E-04   -0.49201E-05  8424   0.103E-03 0.103E-03
CGA:  90    -0.673523487292E+03    0.12410E-04   -0.46992E-05  8424   0.102E-03 0.102E-03
CGA:  91    -0.673523475449E+03    0.11842E-04   -0.44897E-05  8424   0.102E-03 0.102E-03
CGA:  92    -0.673523464146E+03    0.11304E-04   -0.42906E-05  8424   0.101E-03 0.101E-03
CGA:  93    -0.673523453352E+03    0.10793E-04   -0.41015E-05  8424   0.100E-03 0.101E-03
CGA:  94    -0.673523443043E+03    0.10309E-04   -0.39214E-05  8424   0.999E-04 0.100E-03
CGA:  95    -0.673523433192E+03    0.98508E-05   -0.37498E-05  8424   0.994E-04 0.996E-04
   4 F= -.67352343E+03 E0= -.67352343E+03  d E =0.662150E+00  mag=     5.0000
       N       E                     dE             d eps       ncg     rms          ort
SDA:   1    -0.643093876785E+03    0.30430E+02    0.00000E+00  8424   0.106E+03 0.000E+00
CGA:   2    -0.663093119718E+03   -0.19999E+02   -0.19921E+02  8424   0.400E+02 0.187E+01
CGA:   3    -0.672008503180E+03   -0.89154E+01   -0.89348E+01  8424   0.121E+02-0.294E+00
CGA:   4    -0.674087219890E+03   -0.20787E+01   -0.20782E+01  8424   0.328E+01 0.295E-01
CGA:   5    -0.674634896628E+03   -0.54768E+00   -0.54766E+00  8424   0.687E+00 0.110E-01
CGA:   6    -0.674777691207E+03   -0.14279E+00   -0.14286E+00  8424   0.161E+00-0.149E-02
CGA:   7    -0.674815378061E+03   -0.37687E-01   -0.37360E-01  8424   0.526E-01 0.499E-02
CGA:   8    -0.674828693018E+03   -0.13315E-01   -0.13029E-01  8424   0.168E-01 0.408E-02
CGA:   9    -0.674833431258E+03   -0.47382E-02   -0.45420E-02  8424   0.586E-02 0.256E-02
CGA:  10    -0.674834953205E+03   -0.15219E-02   -0.14338E-02  8424   0.235E-02 0.255E-02
CGA:  11    -0.674835475258E+03   -0.52205E-03   -0.55202E-03  8424   0.114E-02 0.185E-02
CGA:  12    -0.674835586870E+03   -0.11161E-03   -0.15142E-03  8424   0.736E-03 0.864E-03
CGA:  13    -0.674835602296E+03   -0.15425E-04   -0.70246E-04  8424   0.624E-03 0.675E-03
CGA:  14    -0.674835601280E+03    0.10156E-05   -0.51830E-04  8424   0.558E-03 0.590E-03
CGA:  15    -0.674835592265E+03    0.90151E-05   -0.41266E-04  8424   0.512E-03 0.534E-03
CGA:  16    -0.674835579006E+03    0.13259E-04   -0.34358E-04  8424   0.478E-03 0.494E-03
CGA:  17    -0.674835563391E+03    0.15615E-04   -0.29426E-04  8424   0.451E-03 0.464E-03
CGA:  18    -0.674835546489E+03    0.16902E-04   -0.25715E-04  8424   0.430E-03 0.440E-03
CGA:  19    -0.674835528929E+03    0.17560E-04   -0.22790E-04  8424   0.412E-03 0.421E-03
CGA:  20    -0.674835511107E+03    0.17823E-04   -0.20410E-04  8424   0.397E-03 0.404E-03
CGA:  21    -0.674835493284E+03    0.17822E-04   -0.18438E-04  8424   0.384E-03 0.390E-03
CGA:  22    -0.674835475639E+03    0.17646E-04   -0.16775E-04  8424   0.373E-03 0.378E-03
CGA:  23    -0.674835458292E+03    0.17347E-04   -0.15359E-04  8424   0.363E-03 0.367E-03
CGA:  24    -0.674835441320E+03    0.16972E-04   -0.14128E-04  8424   0.354E-03 0.358E-03
CGA:  25    -0.674835424777E+03    0.16543E-04   -0.13051E-04  8424   0.346E-03 0.350E-03
CGA:  26    -0.674835408695E+03    0.16082E-04   -0.12100E-04  8424   0.339E-03 0.343E-03
CGA:  27    -0.674835393094E+03    0.15601E-04   -0.11252E-04  8424   0.333E-03 0.336E-03
CGA:  28    -0.674835377983E+03    0.15111E-04   -0.10494E-04  8424   0.327E-03 0.330E-03
CGA:  29    -0.674835363367E+03    0.14616E-04   -0.98114E-05  8424   0.322E-03 0.325E-03
CGA:  30    -0.674835349244E+03    0.14123E-04   -0.91929E-05  8424   0.318E-03 0.320E-03
CGA:  31    -0.674835335609E+03    0.13635E-04   -0.86300E-05  8424   0.313E-03 0.315E-03
CGA:  32    -0.674835322455E+03    0.13154E-04   -0.81155E-05  8424   0.309E-03 0.311E-03
CGA:  33    -0.674835309771E+03    0.12683E-04   -0.76435E-05  8424   0.306E-03 0.307E-03
CGA:  34    -0.674835297548E+03    0.12224E-04   -0.72091E-05  8424   0.302E-03 0.304E-03
CGA:  35    -0.674835285772E+03    0.11776E-04   -0.68079E-05  8424   0.299E-03 0.301E-03
CGA:  36    -0.674835274431E+03    0.11341E-04   -0.64366E-05  8424   0.296E-03 0.298E-03
CGA:  37    -0.674835263513E+03    0.10918E-04   -0.60926E-05  8424   0.294E-03 0.295E-03
CGA:  38    -0.674835253003E+03    0.10509E-04   -0.57733E-05  8424   0.291E-03 0.292E-03
CGA:  39    -0.674835242890E+03    0.10114E-04   -0.54741E-05  8424   0.289E-03 0.290E-03
CGA:  40    -0.674835233159E+03    0.97314E-05   -0.51949E-05  8424   0.287E-03 0.288E-03
   5 F= -.67483523E+03 E0= -.67483523E+03  d E =-.131180E+01  mag=     5.0000
       N       E                     dE             d eps       ncg     rms          ort
SDA:   1    -0.673608620497E+03    0.12266E+01    0.00000E+00  8424   0.355E+01 0.000E+00
CGA:   2    -0.674506362232E+03   -0.89774E+00   -0.89779E+00  8424   0.166E+01 0.198E-03
CGA:   3    -0.674817701959E+03   -0.31134E+00   -0.31034E+00  8424   0.413E+00 0.841E-02
CGA:   4    -0.674890095946E+03   -0.72394E-01   -0.72037E-01  8424   0.106E+00 0.374E-02
CGA:   5    -0.674908046527E+03   -0.17951E-01   -0.17725E-01  8424   0.206E-01 0.279E-02
CGA:   6    -0.674912108452E+03   -0.40619E-02   -0.37646E-02  8424   0.438E-02 0.333E-02
CGA:   7    -0.674912931412E+03   -0.82296E-03   -0.71117E-03  8424   0.175E-02 0.239E-02
CGA:   8    -0.674913117097E+03   -0.18569E-03   -0.17738E-03  8424   0.110E-02 0.132E-02
CGA:   9    -0.674913180887E+03   -0.63789E-04   -0.83530E-04  8424   0.903E-03 0.989E-03
CGA:  10    -0.674913212535E+03   -0.31649E-04   -0.57563E-04  8424   0.787E-03 0.837E-03
CGA:  11    -0.674913228712E+03   -0.16177E-04   -0.43899E-04  8424   0.708E-03 0.742E-03
CGA:  12    -0.674913236092E+03   -0.73798E-05   -0.35319E-04  8424   0.650E-03 0.675E-03
CGA:  13    -0.674913238019E+03   -0.19272E-05   -0.29389E-04  8424   0.605E-03 0.624E-03
CGA:  14    -0.674913236392E+03    0.16273E-05   -0.25033E-04  8424   0.569E-03 0.584E-03
CGA:  15    -0.674913232377E+03    0.40145E-05   -0.21694E-04  8424   0.539E-03 0.552E-03
CGA:  16    -0.674913226735E+03    0.56418E-05   -0.19051E-04  8424   0.514E-03 0.525E-03
CGA:  17    -0.674913219981E+03    0.67542E-05   -0.16909E-04  8424   0.493E-03 0.502E-03
CGA:  18    -0.674913212475E+03    0.75063E-05   -0.15138E-04  8424   0.474E-03 0.482E-03
CGA:  19    -0.674913204474E+03    0.80007E-05   -0.13652E-04  8424   0.458E-03 0.465E-03
CGA:  20    -0.674913196167E+03    0.83069E-05   -0.12387E-04  8424   0.444E-03 0.450E-03
CGA:  21    -0.674913187692E+03    0.84752E-05   -0.11300E-04  8424   0.431E-03 0.437E-03
CGA:  22    -0.674913179152E+03    0.85398E-05   -0.10356E-04  8424   0.420E-03 0.425E-03
   6 F= -.67491318E+03 E0= -.67491318E+03  d E =-.779460E-01  mag=     5.0000
       N       E                     dE             d eps       ncg     rms          ort
SDA:   1    -0.670969468038E+03    0.39437E+01    0.00000E+00  8424   0.107E+02 0.000E+00
CGA:   2    -0.673842989908E+03   -0.28735E+01   -0.28721E+01  8424   0.454E+01 0.209E-01
CGA:   3    -0.674683987447E+03   -0.84100E+00   -0.83970E+00  8424   0.117E+01 0.794E-02
CGA:   4    -0.674899582323E+03   -0.21559E+00   -0.21570E+00  8424   0.291E+00-0.115E-02
CGA:   5    -0.674947872785E+03   -0.48290E-01   -0.48122E-01  8424   0.628E-01 0.209E-02
CGA:   6    -0.674959909357E+03   -0.12037E-01   -0.11577E-01  8424   0.133E-01 0.489E-02
CGA:   7    -0.674963231702E+03   -0.33223E-02   -0.29440E-02  8424   0.464E-02 0.341E-02
CGA:   8    -0.674964279847E+03   -0.10481E-02   -0.89181E-03  8424   0.207E-02 0.290E-02
CGA:   9    -0.674964531032E+03   -0.25118E-03   -0.23406E-03  8424   0.131E-02 0.154E-02
CGA:  10    -0.674964638799E+03   -0.10777E-03   -0.12021E-03  8424   0.108E-02 0.118E-02
CGA:  11    -0.674964699749E+03   -0.60950E-04   -0.84703E-04  8424   0.950E-03 0.101E-02
CGA:  12    -0.674964737463E+03   -0.37714E-04   -0.65976E-04  8424   0.861E-03 0.900E-03
CGA:  13    -0.674964761233E+03   -0.23770E-04   -0.53921E-04  8424   0.794E-03 0.823E-03
CGA:  14    -0.674964775865E+03   -0.14632E-04   -0.45395E-04  8424   0.741E-03 0.764E-03
CGA:  15    -0.674964784200E+03   -0.83349E-05   -0.39016E-04  8424   0.698E-03 0.717E-03
CGA:  16    -0.674964788055E+03   -0.38545E-05   -0.34057E-04  8424   0.663E-03 0.679E-03
CGA:  17    -0.674964788656E+03   -0.60113E-06   -0.30094E-04  8424   0.633E-03 0.646E-03
CGA:  18    -0.674964786865E+03    0.17909E-05   -0.26858E-04  8424   0.607E-03 0.618E-03
CGA:  19    -0.674964783304E+03    0.35612E-05   -0.24170E-04  8424   0.585E-03 0.595E-03
CGA:  20    -0.674964778430E+03    0.48734E-05   -0.21905E-04  8424   0.565E-03 0.574E-03
CGA:  21    -0.674964772587E+03    0.58428E-05   -0.19972E-04  8424   0.548E-03 0.556E-03
CGA:  22    -0.674964766036E+03    0.65512E-05   -0.18306E-04  8424   0.533E-03 0.540E-03
CGA:  23    -0.674964758976E+03    0.70598E-05   -0.16856E-04  8424   0.519E-03 0.525E-03
CGA:  24    -0.674964751562E+03    0.74140E-05   -0.15583E-04  8424   0.507E-03 0.512E-03
CGA:  25    -0.674964743915E+03    0.76476E-05   -0.14457E-04  8424   0.496E-03 0.501E-03
CGA:  26    -0.674964736128E+03    0.77871E-05   -0.13455E-04  8424   0.486E-03 0.491E-03
CGA:  27    -0.674964728275E+03    0.78530E-05   -0.12558E-04  8424   0.477E-03 0.481E-03
CGA:  28    -0.674964720414E+03    0.78610E-05   -0.11750E-04  8424   0.468E-03 0.472E-03
CGA:  29    -0.674964712590E+03    0.78234E-05   -0.11018E-04  8424   0.461E-03 0.464E-03
CGA:  30    -0.674964704840E+03    0.77508E-05   -0.10353E-04  8424   0.454E-03 0.457E-03
   7 F= -.67496470E+03 E0= -.67496470E+03  d E =-.515257E-01  mag=     5.0000
       N       E                     dE             d eps       ncg     rms          ort
SDA:   1    -0.674582890827E+03    0.38182E+00    0.00000E+00  8424   0.111E+01 0.000E+00
CGA:   2    -0.674852640668E+03   -0.26975E+00   -0.26882E+00  8424   0.445E+00 0.514E-02
CGA:   3    -0.674940229926E+03   -0.87589E-01   -0.86855E-01  8424   0.127E+00 0.570E-02
CGA:   4    -0.674962918697E+03   -0.22689E-01   -0.22432E-01  8424   0.321E-01 0.253E-02
CGA:   5    -0.674968297557E+03   -0.53789E-02   -0.51328E-02  8424   0.606E-02 0.315E-02
CGA:   6    -0.674969323819E+03   -0.10263E-02   -0.88964E-03  8424   0.178E-02 0.268E-02
CGA:   7    -0.674969541140E+03   -0.21732E-03   -0.21771E-03  8424   0.100E-02 0.164E-02
CGA:   8    -0.674969592785E+03   -0.51645E-04   -0.67370E-04  8424   0.792E-03 0.881E-03
CGA:   9    -0.674969615123E+03   -0.22337E-04   -0.43759E-04  8424   0.692E-03 0.737E-03
CGA:  10    -0.674969625792E+03   -0.10669E-04   -0.33364E-04  8424   0.627E-03 0.656E-03
CGA:  11    -0.674969630213E+03   -0.44211E-05   -0.27147E-04  8424   0.580E-03 0.601E-03
CGA:  12    -0.674969630853E+03   -0.63999E-06   -0.22916E-04  8424   0.545E-03 0.561E-03
CGA:  13    -0.674969629052E+03    0.18015E-05   -0.19816E-04  8424   0.517E-03 0.529E-03
CGA:  14    -0.674969625614E+03    0.34381E-05   -0.17431E-04  8424   0.493E-03 0.503E-03
CGA:  15    -0.674969621056E+03    0.45571E-05   -0.15530E-04  8424   0.474E-03 0.482E-03
CGA:  16    -0.674969615730E+03    0.53268E-05   -0.13975E-04  8424   0.458E-03 0.464E-03
CGA:  17    -0.674969609880E+03    0.58494E-05   -0.12680E-04  8424   0.443E-03 0.449E-03
CGA:  18    -0.674969603686E+03    0.61942E-05   -0.11587E-04  8424   0.431E-03 0.436E-03
CGA:  19    -0.674969597274E+03    0.64125E-05   -0.10645E-04  8424   0.420E-03 0.425E-03
   8 F= -.67496960E+03 E0= -.67496960E+03  d E =-.489243E-02  mag=     5.0000
       N       E                     dE             d eps       ncg     rms          ort
SDA:   1    -0.674500548343E+03    0.46906E+00    0.00000E+00  8424   0.131E+01 0.000E+00
CGA:   2    -0.674818552647E+03   -0.31800E+00   -0.31650E+00  8424   0.567E+00 0.840E-02
CGA:   3    -0.674929364190E+03   -0.11081E+00   -0.11067E+00  8424   0.157E+00 0.104E-02
CGA:   4    -0.674956208143E+03   -0.26844E-01   -0.26647E-01  8424   0.387E-01 0.206E-02
CGA:   5    -0.674962631564E+03   -0.64234E-02   -0.61600E-02  8424   0.729E-02 0.345E-02
CGA:   6    -0.674963957055E+03   -0.13255E-02   -0.11561E-02  8424   0.198E-02 0.278E-02
CGA:   7    -0.674964232076E+03   -0.27502E-03   -0.26183E-03  8424   0.106E-02 0.167E-02
CGA:   8    -0.674964300381E+03   -0.68306E-04   -0.79793E-04  8424   0.805E-03 0.907E-03
CGA:   9    -0.674964329687E+03   -0.29306E-04   -0.49008E-04  8424   0.694E-03 0.742E-03
CGA:  10    -0.674964344561E+03   -0.14874E-04   -0.36655E-04  8424   0.625E-03 0.655E-03
CGA:  11    -0.674964351851E+03   -0.72899E-05   -0.29497E-04  8424   0.576E-03 0.597E-03
CGA:  12    -0.674964354585E+03   -0.27340E-05   -0.24717E-04  8424   0.539E-03 0.554E-03
CGA:  13    -0.674964354380E+03    0.20498E-06   -0.21261E-04  8424   0.510E-03 0.522E-03
CGA:  14    -0.674964352197E+03    0.21829E-05   -0.18628E-04  8424   0.486E-03 0.496E-03
CGA:  15    -0.674964348650E+03    0.35472E-05   -0.16547E-04  8424   0.466E-03 0.474E-03
CGA:  16    -0.674964344150E+03    0.44996E-05   -0.14855E-04  8424   0.449E-03 0.456E-03
CGA:  17    -0.674964338985E+03    0.51654E-05   -0.13449E-04  8424   0.435E-03 0.440E-03
CGA:  18    -0.674964333359E+03    0.56253E-05   -0.12261E-04  8424   0.422E-03 0.427E-03
CGA:  19    -0.674964327424E+03    0.59351E-05   -0.11243E-04  8424   0.411E-03 0.415E-03
CGA:  20    -0.674964321292E+03    0.61324E-05   -0.10359E-04  8424   0.401E-03 0.405E-03
   9 F= -.67496432E+03 E0= -.67496432E+03  d E =0.527598E-02  mag=     5.0000
       N       E                     dE             d eps       ncg     rms          ort
SDA:   1    -0.674822998216E+03    0.14133E+00    0.00000E+00  8424   0.351E+00 0.000E+00
CGA:   2    -0.674924328785E+03   -0.10133E+00   -0.99674E-01  8424   0.150E+00 0.743E-02
CGA:   3    -0.674952647889E+03   -0.28319E-01   -0.28419E-01  8424   0.384E-01-0.898E-03
CGA:   4    -0.674959083671E+03   -0.64358E-02   -0.62039E-02  8424   0.855E-02 0.275E-02
CGA:   5    -0.674960444649E+03   -0.13610E-02   -0.12340E-02  8424   0.185E-02 0.245E-02
CGA:   6    -0.674960691953E+03   -0.24730E-03   -0.23082E-03  8424   0.899E-03 0.141E-02
CGA:   7    -0.674960744906E+03   -0.52953E-04   -0.63932E-04  8424   0.633E-03 0.737E-03
CGA:   8    -0.674960762100E+03   -0.17194E-04   -0.34789E-04  8424   0.536E-03 0.580E-03
CGA:   9    -0.674960768800E+03   -0.66998E-05   -0.25237E-04  8424   0.479E-03 0.505E-03
CGA:  10    -0.674960770439E+03   -0.16396E-05   -0.19995E-04  8424   0.439E-03 0.457E-03
CGA:  11    -0.674960769227E+03    0.12127E-05   -0.16598E-04  8424   0.409E-03 0.423E-03
CGA:  12    -0.674960766279E+03    0.29474E-05   -0.14192E-04  8424   0.387E-03 0.397E-03
CGA:  13    -0.674960762236E+03    0.40436E-05   -0.12386E-04  8424   0.368E-03 0.377E-03
CGA:  14    -0.674960757489E+03    0.47471E-05   -0.10976E-04  8424   0.353E-03 0.360E-03
  10 F= -.67496076E+03 E0= -.67496076E+03  d E =0.356380E-02  mag=     5.0000
       N       E                     dE             d eps       ncg     rms          ort
SDA:   1    -0.674793720622E+03    0.16704E+00    0.00000E+00  8424   0.436E+00 0.000E+00
CGA:   2    -0.674917152670E+03   -0.12343E+00   -0.12252E+00  8424   0.175E+00 0.426E-02
CGA:   3    -0.674950133805E+03   -0.32981E-01   -0.32907E-01  8424   0.461E-01 0.688E-03
CGA:   4    -0.674958141434E+03   -0.80076E-02   -0.77667E-02  8424   0.104E-01 0.289E-02
CGA:   5    -0.674959945335E+03   -0.18039E-02   -0.16926E-02  8424   0.214E-02 0.174E-02
CGA:   6    -0.674960322005E+03   -0.37667E-03   -0.33319E-03  8424   0.697E-03 0.105E-02
CGA:   7    -0.674960388606E+03   -0.66601E-04   -0.79614E-04  8424   0.433E-03 0.724E-03
CGA:   8    -0.674960396236E+03   -0.76295E-05   -0.23303E-04  8424   0.363E-03 0.394E-03
CGA:   9    -0.674960397668E+03   -0.14324E-05   -0.16871E-04  8424   0.324E-03 0.342E-03
CGA:  10    -0.674960396241E+03    0.14272E-05   -0.13435E-04  8424   0.298E-03 0.310E-03
CGA:  11    -0.674960393245E+03    0.29957E-05   -0.11208E-04  8424   0.279E-03 0.288E-03
  11 F= -.67496039E+03 E0= -.67496039E+03  d E =0.364243E-03  mag=     5.0000
       N       E                     dE             d eps       ncg     rms          ort
SDA:   1    -0.674663416448E+03    0.29698E+00    0.00000E+00  8424   0.743E+00 0.000E+00
CGA:   2    -0.674887793758E+03   -0.22438E+00   -0.22431E+00  8424   0.294E+00 0.246E-03
CGA:   3    -0.674941081856E+03   -0.53288E-01   -0.53014E-01  8424   0.736E-01 0.310E-02
CGA:   4    -0.674954141826E+03   -0.13060E-01   -0.12888E-01  8424   0.175E-01 0.224E-02
CGA:   5    -0.674957182376E+03   -0.30406E-02   -0.29835E-02  8424   0.358E-02 0.878E-03
CGA:   6    -0.674957873580E+03   -0.69120E-03   -0.63915E-03  8424   0.845E-03 0.793E-03
CGA:   7    -0.674957981824E+03   -0.10824E-03   -0.10932E-03  8424   0.443E-03 0.644E-03
CGA:   8    -0.674958002051E+03   -0.20227E-04   -0.32673E-04  8424   0.322E-03 0.369E-03
CGA:   9    -0.674958007532E+03   -0.54805E-05   -0.19122E-04  8424   0.273E-03 0.294E-03
CGA:  10    -0.674958008167E+03   -0.63479E-06   -0.13999E-04  8424   0.243E-03 0.256E-03
CGA:  11    -0.674958006466E+03    0.17001E-05   -0.11092E-04  8424   0.222E-03 0.231E-03
  12 F= -.67495801E+03 E0= -.67495801E+03  d E =0.238678E-02  mag=     5.0000
       N       E                     dE             d eps       ncg     rms          ort
SDA:   1    -0.674866398026E+03    0.91610E-01    0.00000E+00  8424   0.228E+00 0.000E+00
CGA:   2    -0.674932378674E+03   -0.65981E-01   -0.65921E-01  8424   0.111E+00 0.283E-03
CGA:   3    -0.674951811337E+03   -0.19433E-01   -0.19268E-01  8424   0.238E-01 0.237E-02
CGA:   4    -0.674955878637E+03   -0.40673E-02   -0.40017E-02  8424   0.571E-02 0.116E-02
CGA:   5    -0.674956874071E+03   -0.99543E-03   -0.96509E-03  8424   0.116E-02 0.607E-03
CGA:   6    -0.674957061003E+03   -0.18693E-03   -0.17502E-03  8424   0.353E-03 0.529E-03
CGA:   7    -0.674957086337E+03   -0.25333E-04   -0.38956E-04  8424   0.207E-03 0.349E-03
CGA:   8    -0.674957086059E+03    0.27804E-06   -0.10926E-04  8424   0.171E-03 0.186E-03
  13 F= -.67495709E+03 E0= -.67495709E+03  d E =0.920408E-03  mag=     5.0000
       N       E                     dE             d eps       ncg     rms          ort
SDA:   1    -0.674854007350E+03    0.10308E+00    0.00000E+00  8424   0.268E+00 0.000E+00
CGA:   2    -0.674935192370E+03   -0.81185E-01   -0.81284E-01  8424   0.101E+00-0.489E-03
CGA:   3    -0.674953438074E+03   -0.18246E-01   -0.18122E-01  8424   0.259E-01 0.196E-02
CGA:   4    -0.674958302969E+03   -0.48649E-02   -0.48516E-02  8424   0.626E-02 0.202E-03
CGA:   5    -0.674959304758E+03   -0.10018E-02   -0.98318E-03  8424   0.128E-02 0.566E-03
CGA:   6    -0.674959479023E+03   -0.17426E-03   -0.17410E-03  8424   0.378E-03 0.588E-03
CGA:   7    -0.674959508439E+03   -0.29416E-04   -0.44731E-04  8424   0.214E-03 0.352E-03
CGA:   8    -0.674959512818E+03   -0.43785E-05   -0.14535E-04  8424   0.167E-03 0.187E-03
  14 F= -.67495951E+03 E0= -.67495951E+03  d E =-.242676E-02  mag=     5.0000
       N       E                     dE             d eps       ncg     rms          ort
SDA:   1    -0.674794683295E+03    0.16483E+00    0.00000E+00  8424   0.410E+00 0.000E+00
CGA:   2    -0.674922919876E+03   -0.12824E+00   -0.12823E+00  8424   0.139E+00 0.288E-04
CGA:   3    -0.674949297570E+03   -0.26378E-01   -0.26305E-01  8424   0.378E-01 0.117E-02
CGA:   4    -0.674956159557E+03   -0.68620E-02   -0.68656E-02  8424   0.885E-02-0.779E-04
CGA:   5    -0.674957561692E+03   -0.14021E-02   -0.13832E-02  8424   0.176E-02 0.760E-03
CGA:   6    -0.674957822562E+03   -0.26087E-03   -0.25927E-03  8424   0.485E-03 0.689E-03
CGA:   7    -0.674957875193E+03   -0.52630E-04   -0.66503E-04  8424   0.266E-03 0.401E-03
CGA:   8    -0.674957887983E+03   -0.12791E-04   -0.22776E-04  8424   0.191E-03 0.218E-03
CGA:   9    -0.674957888389E+03   -0.40595E-06   -0.12008E-04  8424   0.164E-03 0.175E-03
  15 F= -.67495789E+03 E0= -.67495789E+03  d E =0.162443E-02  mag=     5.0000
       N       E                     dE             d eps       ncg     rms          ort
SDA:   1    -0.674936733711E+03    0.21154E-01    0.00000E+00  8424   0.514E-01 0.000E+00
CGA:   2    -0.674951820507E+03   -0.15087E-01   -0.14839E-01  8424   0.213E-01 0.148E-02
CGA:   3    -0.674955794942E+03   -0.39744E-02   -0.39663E-02  8424   0.523E-02 0.158E-03
CGA:   4    -0.674956649630E+03   -0.85469E-03   -0.83837E-03  8424   0.119E-02 0.627E-03
CGA:   5    -0.674956807322E+03   -0.15769E-03   -0.16360E-03  8424   0.302E-03 0.496E-03
CGA:   6    -0.674956825292E+03   -0.17971E-04   -0.33442E-04  8424   0.167E-03 0.279E-03
CGA:   7    -0.674956824150E+03    0.11426E-05   -0.95736E-05  8424   0.129E-03 0.146E-03
  16 F= -.67495682E+03 E0= -.67495682E+03  d E =0.106424E-02  mag=     5.0000
       N       E                     dE             d eps       ncg     rms          ort
SDA:   1    -0.674848803326E+03    0.10802E+00    0.00000E+00  8424   0.263E+00 0.000E+00
CGA:   2    -0.674932488253E+03   -0.83685E-01   -0.83530E-01  8424   0.904E-01 0.782E-03
CGA:   3    -0.674949291544E+03   -0.16803E-01   -0.16799E-01  8424   0.242E-01 0.757E-04
CGA:   4    -0.674953539006E+03   -0.42475E-02   -0.42060E-02  8424   0.528E-02 0.108E-02
CGA:   5    -0.674954449177E+03   -0.91017E-03   -0.89876E-03  8424   0.114E-02 0.447E-03
CGA:   6    -0.674954659587E+03   -0.21041E-03   -0.20320E-03  8424   0.283E-03 0.280E-03
CGA:   7    -0.674954681379E+03   -0.21791E-04   -0.32970E-04  8424   0.164E-03 0.239E-03
CGA:   8    -0.674954681912E+03   -0.53306E-06   -0.10719E-04  8424   0.124E-03 0.140E-03
  17 F= -.67495468E+03 E0= -.67495468E+03  d E =0.214224E-02  mag=     5.0000
       N       E                     dE             d eps       ncg     rms          ort
SDA:   1    -0.674912495204E+03    0.42186E-01    0.00000E+00  8424   0.120E+00 0.000E+00
CGA:   2    -0.674939139178E+03   -0.26644E-01   -0.26605E-01  8424   0.523E-01 0.406E-03
CGA:   3    -0.674949802498E+03   -0.10663E-01   -0.10616E-01  8424   0.152E-01 0.683E-03
CGA:   4    -0.674952333532E+03   -0.25310E-02   -0.25151E-02  8424   0.351E-02 0.629E-03
CGA:   5    -0.674952917511E+03   -0.58398E-03   -0.57665E-03  8424   0.658E-03 0.401E-03
CGA:   6    -0.674953023799E+03   -0.10629E-03   -0.10533E-03  8424   0.188E-03 0.272E-03
CGA:   7    -0.674953034892E+03   -0.11093E-04   -0.21564E-04  8424   0.106E-03 0.177E-03
CGA:   8    -0.674953032844E+03    0.20477E-05   -0.57639E-05  8424   0.853E-04 0.942E-04
  18 F= -.67495303E+03 E0= -.67495303E+03  d E =0.164907E-02  mag=     5.0000
       N       E                     dE             d eps       ncg     rms          ort
SDA:   1    -0.674899960082E+03    0.53075E-01    0.00000E+00  8424   0.144E+00 0.000E+00
CGA:   2    -0.674936026867E+03   -0.36067E-01   -0.36067E-01  8424   0.696E-01-0.191E-04
CGA:   3    -0.674949232468E+03   -0.13206E-01   -0.13139E-01  8424   0.169E-01 0.121E-02
CGA:   4    -0.674952071122E+03   -0.28387E-02   -0.28228E-02  8424   0.406E-02 0.592E-03
CGA:   5    -0.674952761207E+03   -0.69008E-03   -0.68188E-03  8424   0.787E-03 0.349E-03
CGA:   6    -0.674952889417E+03   -0.12821E-03   -0.12606E-03  8424   0.210E-03 0.295E-03
CGA:   7    -0.674952904192E+03   -0.14775E-04   -0.24875E-04  8424   0.114E-03 0.186E-03
CGA:   8    -0.674952903117E+03    0.10754E-05   -0.67659E-05  8424   0.896E-04 0.100E-03
  19 F= -.67495290E+03 E0= -.67495290E+03  d E =0.129728E-03  mag=     5.0000
       N       E                     dE             d eps       ncg     rms          ort
SDA:   1    -0.674785340253E+03    0.16756E+00    0.00000E+00  8424   0.441E+00 0.000E+00
CGA:   2    -0.674905393106E+03   -0.12005E+00   -0.12011E+00  8424   0.197E+00-0.410E-03
CGA:   3    -0.674941409037E+03   -0.36016E-01   -0.35962E-01  8424   0.480E-01 0.115E-02
CGA:   4    -0.674949975932E+03   -0.85669E-02   -0.85644E-02  8424   0.123E-01 0.592E-04
CGA:   5    -0.674952032531E+03   -0.20566E-02   -0.20492E-02  8424   0.249E-02 0.293E-03
CGA:   6    -0.674952471574E+03   -0.43904E-03   -0.42731E-03  8424   0.522E-03 0.458E-03
CGA:   7    -0.674952558371E+03   -0.86797E-04   -0.87374E-04  8424   0.210E-03 0.281E-03
CGA:   8    -0.674952575299E+03   -0.16929E-04   -0.22471E-04  8424   0.126E-03 0.152E-03
CGA:   9    -0.674952577330E+03   -0.20308E-05   -0.95158E-05  8424   0.103E-03 0.113E-03
  20 F= -.67495258E+03 E0= -.67495258E+03  d E =0.325787E-03  mag=     5.0000
       N       E                     dE             d eps       ncg     rms          ort
SDA:   1    -0.674916933414E+03    0.35642E-01    0.00000E+00  8424   0.960E-01 0.000E+00
CGA:   2    -0.674942573004E+03   -0.25640E-01   -0.25511E-01  8424   0.438E-01 0.973E-03
CGA:   3    -0.674950843651E+03   -0.82706E-02   -0.82843E-02  8424   0.107E-01-0.302E-03
CGA:   4    -0.674952630402E+03   -0.17868E-02   -0.17819E-02  8424   0.269E-02 0.193E-03
CGA:   5    -0.674953055563E+03   -0.42516E-03   -0.42206E-03  8424   0.497E-03 0.322E-03
CGA:   6    -0.674953126725E+03   -0.71163E-04   -0.73943E-04  8424   0.151E-03 0.227E-03
CGA:   7    -0.674953134629E+03   -0.79034E-05   -0.17358E-04  8424   0.843E-04 0.144E-03
  21 F= -.67495313E+03 E0= -.67495313E+03  d E =-.557299E-03  mag=     5.0000
       N       E                     dE             d eps       ncg     rms          ort
SDA:   1    -0.674842171502E+03    0.11096E+00    0.00000E+00  8424   0.287E+00 0.000E+00
CGA:   2    -0.674919670608E+03   -0.77499E-01   -0.77407E-01  8424   0.134E+00 0.666E-03
CGA:   3    -0.674943856854E+03   -0.24186E-01   -0.24191E-01  8424   0.311E-01-0.158E-03
CGA:   4    -0.674949256781E+03   -0.53999E-02   -0.53886E-02  8424   0.807E-02 0.397E-03
CGA:   5    -0.674950617784E+03   -0.13610E-02   -0.13548E-02  8424   0.158E-02 0.325E-03
CGA:   6    -0.674950926896E+03   -0.30911E-03   -0.30205E-03  8424   0.343E-03 0.197E-03
CGA:   7    -0.674950975845E+03   -0.48949E-04   -0.51780E-04  8424   0.135E-03 0.186E-03
CGA:   8    -0.674950982259E+03   -0.64146E-05   -0.12386E-04  8424   0.872E-04 0.105E-03
  22 F= -.67495098E+03 E0= -.67495098E+03  d E =0.215237E-02  mag=     5.0000
       N       E                     dE             d eps       ncg     rms          ort
SDA:   1    -0.674931476678E+03    0.19499E-01    0.00000E+00  8424   0.584E-01 0.000E+00
CGA:   2    -0.674945239208E+03   -0.13763E-01   -0.13746E-01  8424   0.272E-01 0.171E-03
CGA:   3    -0.674950511604E+03   -0.52724E-02   -0.52516E-02  8424   0.675E-02 0.445E-03
CGA:   4    -0.674951638944E+03   -0.11273E-02   -0.11237E-02  8424   0.164E-02 0.248E-03
CGA:   5    -0.674951912229E+03   -0.27329E-03   -0.27134E-03  8424   0.318E-03 0.194E-03
CGA:   6    -0.674951953677E+03   -0.41448E-04   -0.45141E-04  8424   0.100E-03 0.158E-03
CGA:   7    -0.674951956733E+03   -0.30560E-05   -0.10847E-04  8424   0.567E-04 0.101E-03
  23 F= -.67495196E+03 E0= -.67495196E+03  d E =-.974474E-03  mag=     5.0000
       N       E                     dE             d eps       ncg     rms          ort
SDA:   1    -0.674907538248E+03    0.44415E-01    0.00000E+00  8424   0.113E+00 0.000E+00
CGA:   2    -0.674939738747E+03   -0.32200E-01   -0.32226E-01  8424   0.530E-01-0.188E-03
CGA:   3    -0.674948805187E+03   -0.90664E-02   -0.90506E-02  8424   0.112E-01 0.666E-03
CGA:   4    -0.674950840093E+03   -0.20349E-02   -0.20285E-02  8424   0.304E-02 0.206E-03
CGA:   5    -0.674951345430E+03   -0.50534E-03   -0.50317E-03  8424   0.600E-03 0.176E-03
CGA:   6    -0.674951436285E+03   -0.90855E-04   -0.92036E-04  8424   0.146E-03 0.197E-03
CGA:   7    -0.674951447537E+03   -0.11252E-04   -0.18068E-04  8424   0.767E-04 0.119E-03
CGA:   8    -0.674951447857E+03   -0.32046E-06   -0.53774E-05  8424   0.573E-04 0.651E-04
  24 F= -.67495145E+03 E0= -.67495145E+03  d E =0.508876E-03  mag=     5.0000
       N       E                     dE             d eps       ncg     rms          ort
SDA:   1    -0.674941856099E+03    0.95914E-02    0.00000E+00  8424   0.271E-01 0.000E+00
CGA:   2    -0.674947918154E+03   -0.60621E-02   -0.60280E-02  8424   0.117E-01 0.408E-03
CGA:   3    -0.674950343942E+03   -0.24258E-02   -0.24183E-02  8424   0.334E-02 0.121E-03
CGA:   4    -0.674950888149E+03   -0.54421E-03   -0.54140E-03  8424   0.775E-03 0.203E-03
CGA:   5    -0.674951004151E+03   -0.11600E-03   -0.11693E-03  8424   0.148E-03 0.182E-03
CGA:   6    -0.674951017990E+03   -0.13839E-04   -0.18538E-04  8424   0.644E-04 0.103E-03
CGA:   7    -0.674951017999E+03   -0.94769E-08   -0.42099E-05  8424   0.447E-04 0.528E-04
  25 F= -.67495102E+03 E0= -.67495102E+03  d E =0.429858E-03  mag=     5.0000
       N       E                     dE             d eps       ncg     rms          ort
SDA:   1    -0.674917374315E+03    0.33644E-01    0.00000E+00  8424   0.848E-01 0.000E+00
CGA:   2    -0.674941589928E+03   -0.24216E-01   -0.24138E-01  8424   0.382E-01 0.516E-03
CGA:   3    -0.674948344683E+03   -0.67548E-02   -0.67609E-02  8424   0.868E-02-0.196E-03
CGA:   4    -0.674949859977E+03   -0.15153E-02   -0.15068E-02  8424   0.221E-02 0.288E-03
CGA:   5    -0.674950223494E+03   -0.36352E-03   -0.36125E-03  8424   0.426E-03 0.201E-03
CGA:   6    -0.674950303159E+03   -0.79665E-04   -0.77577E-04  8424   0.101E-03 0.105E-03
CGA:   7    -0.674950310720E+03   -0.75606E-05   -0.11935E-04  8424   0.542E-04 0.813E-04
  26 F= -.67495031E+03 E0= -.67495031E+03  d E =0.707280E-03  mag=     5.0000
