       N       E                     dE             d eps       ncg     rms          ort
DAV:   1     0.845247934821E+04    0.84525E+04   -0.38160E+05  6370   0.178E+03
DAV:   2     0.353846161989E+03   -0.80986E+04   -0.74427E+04  6370   0.459E+02
DAV:   3    -0.839545388247E+03   -0.11934E+04   -0.11669E+04  6370   0.196E+02
DAV:   4    -0.899699216731E+03   -0.60154E+02   -0.56889E+02  6370   0.439E+01
DAV:   5    -0.901949051057E+03   -0.22498E+01   -0.21922E+01  6370   0.717E+00
SDA:   6    -0.381335519054E+03    0.52061E+03   -0.21922E+01  6370   0.346E+04 0.000E+00
CGA:   7    -0.695846630126E+03   -0.31451E+03   -0.36897E+03  6370   0.193E+04-0.254E+03
CGA:   8    -0.668164525216E+03    0.27682E+02   -0.88867E+02  6370   0.210E+04-0.462E+03
CGA:   9    -0.702978254647E+03   -0.34814E+02   -0.42976E+02  6370   0.131E+04-0.144E+03
CGA:  10    -0.697003383673E+03    0.59749E+01   -0.51168E+02  6370   0.239E+04-0.109E+04
CGA:  11    -0.716137473001E+03   -0.19134E+02   -0.90100E+02  6370   0.122E+04-0.939E+03
CGA:  12    -0.724971575282E+03   -0.88341E+01   -0.24084E+02  6370   0.285E+04-0.152E+04
CGA:  13    -0.634464761171E+03    0.90507E+02   -0.14043E+03  6370   0.327E+04-0.136E+04
CGA:  14    -0.700043152640E+03   -0.65578E+02   -0.20539E+02  6370   0.364E+04 0.439E+04
CGA:  15    -0.668082074993E+03    0.31961E+02   -0.12495E+03  6370   0.224E+04-0.162E+04
CGA:  16    -0.751067383942E+03   -0.82985E+02   -0.23887E+02  6370   0.137E+04-0.533E+03
CGA:  17    -0.683070805502E+03    0.67997E+02   -0.44599E+02  6370   0.168E+04-0.453E+03
CGA:  18    -0.707025325580E+03   -0.23955E+02   -0.13873E+02  6370   0.176E+04 0.105E+04
CGA:  19    -0.766210258878E+03   -0.59185E+02   -0.32989E+02  6370   0.403E+03 0.109E+03
CGA:  20    -0.744827424771E+03    0.21383E+02   -0.10436E+02  6370   0.196E+04-0.803E+03
CGA:  21    -0.693369022222E+03    0.51458E+02   -0.77008E+02  6370   0.267E+04-0.118E+04
CGA:  22    -0.707669505631E+03   -0.14300E+02   -0.64420E+02  6370   0.558E+04-0.444E+04
CGA:  23    -0.619346226002E+03    0.88323E+02   -0.25208E+03  6370   0.222E+04-0.126E+04
CGA:  24    -0.698536722382E+03   -0.79190E+02   -0.22221E+02  6370   0.311E+04 0.458E+04
CGA:  25    -0.677829744223E+03    0.20707E+02   -0.88203E+02  6370   0.540E+04-0.433E+04
CGA:  26    -0.613433105704E+03    0.64397E+02   -0.21519E+03  6370   0.152E+04-0.107E+04
CGA:  27    -0.674128384273E+03   -0.60695E+02   -0.13797E+02  6370   0.447E+04 0.573E+04
CGA:  28    -0.626916571739E+03    0.47212E+02   -0.12035E+03  6370   0.489E+04-0.372E+04
CGA:  29    -0.617006045242E+03    0.99105E+01   -0.16269E+03  6370   0.126E+04-0.104E+04
CGA:  30    -0.698161730891E+03   -0.81156E+02   -0.12289E+02  6370   0.411E+04 0.589E+04
CGA:  31    -0.616518695070E+03    0.81643E+02   -0.12500E+03  6370   0.361E+04-0.167E+04
CGA:  32    -0.659790754555E+03   -0.43272E+02   -0.78804E+02  6370   0.128E+04-0.637E+03
CGA:  33    -0.725936510119E+03   -0.66146E+02   -0.19139E+02  6370   0.309E+04 0.341E+04
CGA:  34    -0.634417079669E+03    0.91519E+02   -0.77652E+02  6370   0.966E+04-0.378E+04
CGA:  35    -0.641663079799E+03   -0.72460E+01   -0.32191E+03  6370   0.204E+04-0.128E+04
CGA:  36    -0.689370438875E+03   -0.47707E+02   -0.40720E+02  6370   0.371E+04 0.817E+03
CGA:  37    -0.569829432647E+03    0.11954E+03   -0.12253E+03  6370   0.328E+04-0.235E+04
CGA:  38    -0.728831222704E+03   -0.15900E+03   -0.10578E+03  6370   0.388E+04 0.635E+03
CGA:  39    -0.593240016326E+03    0.13559E+03   -0.97365E+02  6370   0.512E+04-0.270E+04
CGA:  40    -0.634567058884E+03   -0.41327E+02   -0.15067E+03  6370   0.376E+04-0.234E+04
CGA:  41    -0.708332635054E+03   -0.73766E+02   -0.65746E+02  6370   0.211E+04-0.576E+03
CGA:  42    -0.729340793219E+03   -0.21008E+02   -0.49721E+02  6370   0.939E+03-0.572E+03
CGA:  43    -0.747298402958E+03   -0.17958E+02   -0.75810E+01  6370   0.120E+04 0.101E+04
CGA:  44    -0.768643667823E+03   -0.21345E+02   -0.14570E+02  6370   0.314E+03 0.243E+03
CGA:  45    -0.772939961944E+03   -0.42963E+01   -0.31257E+01  6370   0.158E+03 0.269E+02
CGA:  46    -0.773248691059E+03   -0.30873E+00   -0.10563E+01  6370   0.152E+03-0.139E+03
CGA:  47    -0.773707500045E+03   -0.45881E+00   -0.20635E+01  6370   0.105E+03-0.884E+02
CGA:  48    -0.774426043653E+03   -0.71854E+00   -0.55343E+00  6370   0.109E+02 0.274E+02
CGA:  49    -0.774525483445E+03   -0.99440E-01   -0.78728E-01  6370   0.477E+01 0.332E+01
CGA:  50    -0.774628418301E+03   -0.10293E+00   -0.93958E-01  6370   0.135E+02 0.422E+00
CGA:  51    -0.774863747825E+03   -0.23533E+00   -0.21986E+00  6370   0.471E+02 0.798E+00
CGA:  52    -0.775209724777E+03   -0.34598E+00   -0.22831E+00  6370   0.561E+02 0.249E+02
CGA:  53    -0.775685448125E+03   -0.47572E+00   -0.55587E+00  6370   0.107E+02-0.685E+01
CGA:  54    -0.775810007223E+03   -0.12456E+00   -0.13203E+00  6370   0.507E+01-0.367E+00
CGA:  55    -0.775947758177E+03   -0.13775E+00   -0.13754E+00  6370   0.982E+01-0.108E-01
CGA:  56    -0.776320288663E+03   -0.37253E+00   -0.36842E+00  6370   0.279E+02 0.752E+00
CGA:  57    -0.777158813977E+03   -0.83853E+00   -0.63771E+00  6370   0.139E+02-0.521E+00
CGA:  58    -0.777418402561E+03   -0.25959E+00   -0.28689E+00  6370   0.116E+02-0.153E+00
CGA:  59    -0.777632024514E+03   -0.21362E+00   -0.23497E+00  6370   0.906E+01-0.187E+00
CGA:  60    -0.777772628603E+03   -0.14060E+00   -0.14558E+00  6370   0.346E+01-0.180E+00
CGA:  61    -0.777902208080E+03   -0.12958E+00   -0.12609E+00  6370   0.296E+01 0.412E+00
CGA:  62    -0.778044257506E+03   -0.14205E+00   -0.13752E+00  6370   0.369E+01 0.346E+00
CGA:  63    -0.778299815748E+03   -0.25556E+00   -0.23169E+00  6370   0.381E+01 0.873E+00
CGA:  64    -0.778463912323E+03   -0.16410E+00   -0.16328E+00  6370   0.192E+01 0.449E+00
CGA:  65    -0.778617564674E+03   -0.15365E+00   -0.13942E+00  6370   0.137E+01 0.419E+00
CGA:  66    -0.778724808556E+03   -0.10724E+00   -0.10120E+00  6370   0.180E+01 0.210E+00
CGA:  67    -0.778887321300E+03   -0.16251E+00   -0.16523E+00  6370   0.217E+01-0.101E+00
CGA:  68    -0.779020468631E+03   -0.13315E+00   -0.12472E+00  6370   0.700E+00 0.309E+00
CGA:  69    -0.779100962007E+03   -0.80493E-01   -0.77291E-01  6370   0.788E+00 0.502E-01
CGA:  70    -0.779184510790E+03   -0.83549E-01   -0.80228E-01  6370   0.124E+01 0.484E-01
CGA:  71    -0.779258130743E+03   -0.73620E-01   -0.76651E-01  6370   0.836E+00-0.154E+00
CGA:  72    -0.779297633553E+03   -0.39503E-01   -0.39445E-01  6370   0.321E+00 0.236E-02
CGA:  73    -0.779328406953E+03   -0.30773E-01   -0.30554E-01  6370   0.326E+00 0.175E-02
CGA:  74    -0.779352105894E+03   -0.23699E-01   -0.23717E-01  6370   0.518E+00 0.921E-03
CGA:  75    -0.779370143881E+03   -0.18038E-01   -0.16754E-01  6370   0.312E+00 0.474E-02
CGA:  76    -0.779386898839E+03   -0.16755E-01   -0.16759E-01  6370   0.306E+00-0.744E-03
CGA:  77    -0.779398576302E+03   -0.11677E-01   -0.11892E-01  6370   0.365E+00 0.444E-02
CGA:  78    -0.779419091367E+03   -0.20515E-01   -0.21070E-01  6370   0.244E+00-0.446E-01
CGA:  79    -0.779431736648E+03   -0.12645E-01   -0.12534E-01  6370   0.129E+00 0.780E-02
CGA:  80    -0.779438697800E+03   -0.69612E-02   -0.69943E-02  6370   0.142E+00-0.646E-02
CGA:  81    -0.779445284410E+03   -0.65866E-02   -0.65969E-02  6370   0.181E+00 0.481E-02
CGA:  82    -0.779458113714E+03   -0.12829E-01   -0.13235E-01  6370   0.228E+00-0.157E-01
SDA:  83    -0.779466969716E+03   -0.88560E-02   -0.89573E-02  6370   0.971E-01 0.423E-02
CGA:  84    -0.779470552396E+03   -0.35827E-02   -0.34905E-02  6370   0.898E-01-0.602E-03
CGA:  85    -0.779473911406E+03   -0.33590E-02   -0.33657E-02  6370   0.815E-01 0.729E-04
CGA:  86    -0.779488965385E+03   -0.15054E-01   -0.15085E-01  6370   0.232E+00-0.162E-02
CGA:  87    -0.779494857634E+03   -0.58922E-02   -0.55910E-02  6370   0.162E+00 0.865E-02
CGA:  88    -0.779501503720E+03   -0.66461E-02   -0.65424E-02  6370   0.101E+00-0.103E-02
CGA:  89    -0.779504511468E+03   -0.30077E-02   -0.28435E-02  6370   0.979E-01 0.352E-02
CGA:  90    -0.779507284654E+03   -0.27732E-02   -0.22741E-02  6370   0.734E-01 0.150E-01
CGA:  91    -0.779509383441E+03   -0.20988E-02   -0.20220E-02  6370   0.919E-01 0.178E-02
CGA:  92    -0.779511523817E+03   -0.21404E-02   -0.22902E-02  6370   0.799E-01-0.235E-02
CGA:  93    -0.779512835757E+03   -0.13119E-02   -0.13976E-02  6370   0.489E-01-0.292E-02
CGA:  94    -0.779514129848E+03   -0.12941E-02   -0.13108E-02  6370   0.395E-01-0.729E-04
CGA:  95    -0.779514845836E+03   -0.71599E-03   -0.70637E-03  6370   0.228E-01 0.376E-03
CGA:  96    -0.779515622359E+03   -0.77652E-03   -0.77507E-03  6370   0.323E-01-0.227E-04
CGA:  97    -0.779516373547E+03   -0.75119E-03   -0.76232E-03  6370   0.257E-01-0.200E-03
CGA:  98    -0.779517267895E+03   -0.89435E-03   -0.88893E-03  6370   0.392E-01-0.208E-03
CGA:  99    -0.779518113913E+03   -0.84602E-03   -0.81605E-03  6370   0.244E-01 0.873E-03
CGA: 100    -0.779518711770E+03   -0.59786E-03   -0.58365E-03  6370   0.273E-01 0.265E-03
CGA: 101    -0.779519398483E+03   -0.68671E-03   -0.70050E-03  6370   0.245E-01-0.294E-04
CGA: 102    -0.779520100546E+03   -0.70206E-03   -0.71819E-03  6370   0.376E-01 0.288E-03
CGA: 103    -0.779521344757E+03   -0.12442E-02   -0.11559E-02  6370   0.360E-01-0.257E-02
CGA: 104    -0.779521992989E+03   -0.64823E-03   -0.70085E-03  6370   0.351E-01-0.131E-02
CGA: 105    -0.779522672993E+03   -0.68000E-03   -0.68567E-03  6370   0.177E-01 0.173E-03
CGA: 106    -0.779523073466E+03   -0.40047E-03   -0.39752E-03  6370   0.177E-01 0.191E-04
CGA: 107    -0.779523559377E+03   -0.48591E-03   -0.48690E-03  6370   0.170E-01 0.841E-05
CGA: 108    -0.779524002342E+03   -0.44297E-03   -0.44604E-03  6370   0.206E-01 0.245E-04
CGA: 109    -0.779524576915E+03   -0.57457E-03   -0.57444E-03  6370   0.159E-01-0.230E-04
CGA: 110    -0.779524931852E+03   -0.35494E-03   -0.35434E-03  6370   0.140E-01-0.194E-04
CGA: 111    -0.779525292595E+03   -0.36074E-03   -0.35852E-03  6370   0.104E-01-0.624E-04
CGA: 112    -0.779525523587E+03   -0.23099E-03   -0.23000E-03  6370   0.103E-01-0.184E-04
CGA: 113    -0.779525812574E+03   -0.28899E-03   -0.28866E-03  6370   0.983E-02-0.338E-04
SDA: 114    -0.779526023611E+03   -0.21104E-03   -0.21179E-03  6370   0.917E-02-0.128E-04
CGA: 115    -0.779526294991E+03   -0.27138E-03   -0.27118E-03  6370   0.457E-02-0.271E-04
CGA: 116    -0.779526417618E+03   -0.12263E-03   -0.12279E-03  6370   0.300E-02 0.173E-04
CGA: 117    -0.779526809477E+03   -0.39186E-03   -0.38661E-03  6370   0.393E-02 0.524E-04
CGA: 118    -0.779527099301E+03   -0.28982E-03   -0.28634E-03  6370   0.172E-02 0.100E-03
CGA: 119    -0.779527242835E+03   -0.14353E-03   -0.14378E-03  6370   0.342E-02-0.991E-05
CGA: 120    -0.779527368597E+03   -0.12576E-03   -0.12602E-03  6370   0.423E-02 0.468E-04
CGA: 121    -0.779527593627E+03   -0.22503E-03   -0.23048E-03  6370   0.150E-02-0.303E-03
CGA: 122    -0.779527659077E+03   -0.65451E-04   -0.65537E-04  6370   0.579E-03-0.430E-05
CGA: 123    -0.779527675362E+03   -0.16285E-04   -0.16295E-04  6370   0.480E-03 0.177E-05
CGA: 124    -0.779527701550E+03   -0.26187E-04   -0.26290E-04  6370   0.441E-03-0.655E-05
CGA: 125    -0.779527740930E+03   -0.39381E-04   -0.39899E-04  6370   0.551E-03-0.109E-04
CGA: 126    -0.779527760152E+03   -0.19221E-04   -0.19163E-04  6370   0.354E-03-0.720E-05
CGA: 127    -0.779527768728E+03   -0.85760E-05   -0.85396E-05  6370   0.119E-03-0.295E-05
CGA: 128    -0.779527779623E+03   -0.10896E-04   -0.11151E-04  6370   0.215E-03-0.498E-05
CGA: 129    -0.779527797062E+03   -0.17439E-04   -0.17793E-04  6370   0.566E-03-0.911E-05
CGA: 130    -0.779527814314E+03   -0.17252E-04   -0.17126E-04  6370   0.309E-03-0.954E-05
CGA: 131    -0.779527829257E+03   -0.14943E-04   -0.14966E-04  6370   0.155E-03-0.839E-05
CGA: 132    -0.779527841252E+03   -0.11995E-04   -0.12268E-04  6370   0.277E-03-0.785E-05
CGA: 133    -0.779527852263E+03   -0.11011E-04   -0.10974E-04  6370   0.385E-03-0.563E-05
CGA: 134    -0.779527869689E+03   -0.17426E-04   -0.17416E-04  6370   0.147E-03-0.671E-05
CGA: 135    -0.779527877739E+03   -0.80506E-05   -0.80463E-05  6370   0.101E-03 0.470E-06
   1 F= -.77952788E+03 E0= -.77950319E+03  d E =-.779528E+03  mag=    65.0000
