       N       E                     dE             d eps       ncg     rms          rms(c)
DAV:   1     0.582475431912E+04    0.58248E+04   -0.21042E+05 16248   0.165E+03
DAV:   2     0.410563623331E+03   -0.54142E+04   -0.49296E+04 16016   0.499E+02
DAV:   3    -0.427972648505E+03   -0.83854E+03   -0.78287E+03 16944   0.202E+02
DAV:   4    -0.476034129978E+03   -0.48061E+02   -0.47504E+02 18072   0.487E+01
DAV:   5    -0.476707789299E+03   -0.67366E+00   -0.67215E+00 17280   0.638E+00    0.111E+02
DAV:   6    -0.394846088770E+03    0.81862E+02   -0.56615E+02 19808   0.939E+01    0.981E+01
DAV:   7    -0.386085031644E+03    0.87611E+01   -0.22688E+02 17788   0.769E+01    0.519E+01
DAV:   8    -0.378797608663E+03    0.72874E+01   -0.35599E+01 18664   0.249E+01    0.266E+01
DAV:   9    -0.379275966659E+03   -0.47836E+00   -0.79739E+00 17872   0.135E+01    0.197E+01
DAV:  10    -0.379515936551E+03   -0.23997E+00   -0.30617E+00 17240   0.520E+00    0.876E+00
DAV:  11    -0.379231755570E+03    0.28418E+00   -0.13271E+00 18736   0.549E+00    0.311E+00
DAV:  12    -0.379301026753E+03   -0.69271E-01   -0.20499E-01 17192   0.188E+00    0.217E+00
DAV:  13    -0.379310185294E+03   -0.91585E-02   -0.45507E-02 16872   0.839E-01    0.100E+00
DAV:  14    -0.379312890600E+03   -0.27053E-02   -0.92249E-03 18392   0.389E-01    0.566E-01
DAV:  15    -0.379313686661E+03   -0.79606E-03   -0.44650E-03 16896   0.199E-01    0.297E-01
DAV:  16    -0.379313504626E+03    0.18204E-03   -0.12645E-03 17456   0.116E-01    0.154E-01
DAV:  17    -0.379313554885E+03   -0.50259E-04   -0.39428E-04 17600   0.686E-02    0.711E-02
DAV:  18    -0.379313597741E+03   -0.42856E-04   -0.78078E-05 16640   0.386E-02    0.317E-02
DAV:  19    -0.379313610655E+03   -0.12913E-04   -0.28006E-05 17176   0.202E-02    0.180E-02
DAV:  20    -0.379313617602E+03   -0.69467E-05   -0.10283E-05 15192   0.103E-02    0.108E-02
DAV:  21    -0.379313620374E+03   -0.27725E-05   -0.28724E-06 13952   0.498E-03    0.613E-03
DAV:  22    -0.379313621040E+03   -0.66547E-06   -0.10250E-06  9936   0.400E-03
   1 F= -.37931362E+03 E0= -.37931362E+03  d E =-.379314E+03  mag=    55.0001
       N       E                     dE             d eps       ncg     rms          rms(c)
DAV:   1    -0.379309105687E+03    0.45147E-02   -0.10261E-01 23368   0.278E+00    0.308E-01
DAV:   2    -0.379313164648E+03   -0.40590E-02   -0.38465E-02 16596   0.449E-01    0.150E-01
DAV:   3    -0.379313421208E+03   -0.25656E-03   -0.12939E-03 16252   0.112E-01    0.694E-02
DAV:   4    -0.379313414790E+03    0.64177E-05   -0.83945E-05 18984   0.264E-02    0.505E-02
DAV:   5    -0.379313404993E+03    0.97973E-05   -0.83337E-06 17960   0.203E-02    0.326E-02
DAV:   6    -0.379313402316E+03    0.26771E-05   -0.10912E-05 19928   0.190E-02    0.100E-02
DAV:   7    -0.379313402731E+03   -0.41520E-06   -0.48362E-06 15760   0.727E-03
   2 F= -.37931340E+03 E0= -.37931340E+03  d E =0.218308E-03  mag=    55.0000
       N       E                     dE             d eps       ncg     rms          rms(c)
DAV:   1    -0.379311754764E+03    0.16476E-02   -0.45815E-02 23356   0.186E+00    0.205E-01
DAV:   2    -0.379313568159E+03   -0.18134E-02   -0.17185E-02 16620   0.300E-01    0.998E-02
DAV:   3    -0.379313681785E+03   -0.11363E-03   -0.57431E-04 16244   0.747E-02    0.459E-02
DAV:   4    -0.379313678727E+03    0.30578E-05   -0.37153E-05 18840   0.174E-02    0.334E-02
DAV:   5    -0.379313674283E+03    0.44446E-05   -0.33343E-06 14020   0.136E-02    0.218E-02
DAV:   6    -0.379313673062E+03    0.12208E-05   -0.56068E-06 16536   0.129E-02    0.678E-03
DAV:   7    -0.379313673273E+03   -0.21118E-06   -0.22255E-06 11408   0.506E-03
   3 F= -.37931367E+03 E0= -.37931367E+03  d E =-.270542E-03  mag=    55.0000
       N       E                     dE             d eps       ncg     rms          rms(c)
DAV:   1    -0.379311575664E+03    0.20974E-02   -0.10549E-01 21648   0.195E+00    0.204E-01
DAV:   2    -0.379313587258E+03   -0.20116E-02   -0.18668E-02 16416   0.333E-01    0.989E-02
DAV:   3    -0.379313673627E+03   -0.86369E-04   -0.52028E-04 16124   0.678E-02    0.443E-02
DAV:   4    -0.379313668845E+03    0.47825E-05   -0.34974E-05 18688   0.166E-02    0.326E-02
DAV:   5    -0.379313662286E+03    0.65587E-05   -0.60381E-06 16612   0.171E-02    0.183E-02
DAV:   6    -0.379313662060E+03    0.22577E-06   -0.66328E-06 18112   0.113E-02
   4 F= -.37931366E+03 E0= -.37931366E+03  d E =0.112128E-04  mag=    55.0000
       N       E                     dE             d eps       ncg     rms          rms(c)
DAV:   1    -0.379313569329E+03    0.92957E-04   -0.42138E-03 21940   0.386E-01    0.399E-02
DAV:   2    -0.379313647151E+03   -0.77823E-04   -0.72260E-04 16248   0.665E-02    0.199E-02
DAV:   3    -0.379313650782E+03   -0.36308E-05   -0.21446E-05 15352   0.137E-02    0.923E-03
DAV:   4    -0.379313650628E+03    0.15370E-06   -0.13985E-06 10976   0.355E-03
   5 F= -.37931365E+03 E0= -.37931365E+03  d E =0.114318E-04  mag=    55.0000
       N       E                     dE             d eps       ncg     rms          rms(c)
DAV:   1    -0.379312164300E+03    0.14865E-02   -0.10889E-01 20464   0.172E+00    0.173E-01
DAV:   2    -0.379313747425E+03   -0.15831E-02   -0.14828E-02 16528   0.308E-01    0.855E-02
DAV:   3    -0.379313803079E+03   -0.55654E-04   -0.37783E-04 16112   0.594E-02    0.401E-02
DAV:   4    -0.379313797545E+03    0.55335E-05   -0.27083E-05 18688   0.155E-02    0.297E-02
DAV:   5    -0.379313791225E+03    0.63207E-05   -0.63850E-06 16652   0.168E-02    0.164E-02
DAV:   6    -0.379313791080E+03    0.14405E-06   -0.65492E-06 17656   0.106E-02
   6 F= -.37931379E+03 E0= -.37931379E+03  d E =-.140452E-03  mag=    55.0000
       N       E                     dE             d eps       ncg     rms          rms(c)
DAV:   1    -0.379308848160E+03    0.49431E-02   -0.34653E-01 20512   0.307E+00    0.309E-01
DAV:   2    -0.379313832055E+03   -0.49839E-02   -0.46663E-02 16476   0.549E-01    0.152E-01
DAV:   3    -0.379314012162E+03   -0.18011E-03   -0.11910E-03 16096   0.105E-01    0.699E-02
DAV:   4    -0.379313995449E+03    0.16714E-04   -0.84560E-05 18816   0.272E-02    0.511E-02
DAV:   5    -0.379313976470E+03    0.18978E-04   -0.19344E-05 20288   0.289E-02    0.285E-02
DAV:   6    -0.379313975882E+03    0.58845E-06   -0.19502E-05 18136   0.186E-02    0.106E-02
DAV:   7    -0.379313976394E+03   -0.51241E-06   -0.50466E-06 15600   0.847E-03
   7 F= -.37931398E+03 E0= -.37931398E+03  d E =-.185314E-03  mag=    55.0000
       N       E                     dE             d eps       ncg     rms          rms(c)
DAV:   1    -0.379312402840E+03    0.15730E-02   -0.10617E-01 20656   0.180E+00    0.185E-01
DAV:   2    -0.379314169781E+03   -0.17669E-02   -0.16610E-02 16072   0.321E-01    0.901E-02
DAV:   3    -0.379314245037E+03   -0.75256E-04   -0.47600E-04 16044   0.667E-02    0.416E-02
DAV:   4    -0.379314240129E+03    0.49080E-05   -0.34085E-05 18832   0.168E-02    0.321E-02
DAV:   5    -0.379314234018E+03    0.61108E-05   -0.53291E-06 16280   0.157E-02    0.193E-02
DAV:   6    -0.379314233341E+03    0.67671E-06   -0.67951E-06 17672   0.126E-02
   8 F= -.37931423E+03 E0= -.37931423E+03  d E =-.256947E-03  mag=    55.0000
       N       E                     dE             d eps       ncg     rms          rms(c)
DAV:   1    -0.379308928430E+03    0.53056E-02   -0.33047E-01 20632   0.317E+00    0.327E-01
DAV:   2    -0.379314438658E+03   -0.55102E-02   -0.51804E-02 16104   0.566E-01    0.159E-01
DAV:   3    -0.379314667147E+03   -0.22849E-03   -0.14365E-03 16024   0.116E-01    0.738E-02
DAV:   4    -0.379314651543E+03    0.15605E-04   -0.10317E-04 18848   0.296E-02    0.565E-02
DAV:   5    -0.379314632041E+03    0.19501E-04   -0.17077E-05 19944   0.278E-02    0.339E-02
DAV:   6    -0.379314629854E+03    0.21874E-05   -0.21006E-05 19560   0.221E-02    0.966E-03
DAV:   7    -0.379314630594E+03   -0.74007E-06   -0.69765E-06 16696   0.918E-03
   9 F= -.37931463E+03 E0= -.37931463E+03  d E =-.397253E-03  mag=    55.0000
       N       E                     dE             d eps       ncg     rms          rms(c)
DAV:   1    -0.379313337469E+03    0.12924E-02   -0.10271E-01 21124   0.181E+00    0.184E-01
DAV:   2    -0.379315048227E+03   -0.17108E-02   -0.15992E-02 16492   0.318E-01    0.916E-02
DAV:   3    -0.379315117365E+03   -0.69138E-04   -0.44425E-04 16140   0.647E-02    0.431E-02
DAV:   4    -0.379315112765E+03    0.45997E-05   -0.30896E-05 18840   0.165E-02    0.309E-02
DAV:   5    -0.379315106563E+03    0.62019E-05   -0.61568E-06 16756   0.160E-02    0.177E-02
DAV:   6    -0.379315106185E+03    0.37855E-06   -0.63712E-06 17848   0.116E-02
  10 F= -.37931511E+03 E0= -.37931511E+03  d E =-.475591E-03  mag=    55.0000
       N       E                     dE             d eps       ncg     rms          rms(c)
DAV:   1    -0.379315132359E+03   -0.25795E-04   -0.13800E-03 21316   0.207E-01    0.214E-02
DAV:   2    -0.379315155272E+03   -0.22913E-04   -0.21439E-04 16424   0.374E-02    0.109E-02
DAV:   3    -0.379315156276E+03   -0.10045E-05   -0.59798E-06 12596   0.768E-03    0.557E-03
DAV:   4    -0.379315156235E+03    0.41036E-07   -0.42436E-07  8624   0.227E-03
  11 F= -.37931516E+03 E0= -.37931516E+03  d E =-.500505E-04  mag=    55.0000
       N       E                     dE             d eps       ncg     rms          rms(c)
DAV:   1    -0.379313821813E+03    0.13345E-02   -0.10036E-01 21060   0.183E+00    0.187E-01
DAV:   2    -0.379315606069E+03   -0.17843E-02   -0.16718E-02 16536   0.321E-01    0.966E-02
DAV:   3    -0.379315680262E+03   -0.74193E-04   -0.47643E-04 16124   0.697E-02    0.489E-02
DAV:   4    -0.379315675892E+03    0.43705E-05   -0.35359E-05 18472   0.190E-02    0.336E-02
DAV:   5    -0.379315668997E+03    0.68944E-05   -0.67999E-06 16852   0.161E-02    0.196E-02
DAV:   6    -0.379315668353E+03    0.64405E-06   -0.70987E-06 17840   0.122E-02
  12 F= -.37931567E+03 E0= -.37931567E+03  d E =-.512118E-03  mag=    55.0000
