       N       E                     dE             d eps       ncg     rms          ort
DAV:   1     0.282159699195E+04    0.28216E+04   -0.29346E+05  2880   0.141E+03
DAV:   2    -0.972579469868E+03   -0.37942E+04   -0.36619E+04  2880   0.313E+02
DAV:   3    -0.122951833313E+04   -0.25694E+03   -0.25485E+03  2880   0.848E+01
DAV:   4    -0.123252695735E+04   -0.30086E+01   -0.29981E+01  2880   0.976E+00
DAV:   5    -0.123257596141E+04   -0.49004E-01   -0.48897E-01  2880   0.115E+00
SDA:   6    -0.877076921687E+03    0.35550E+03   -0.48897E-01  2880   0.605E+03 0.000E+00
CGA:   7    -0.984765392259E+03   -0.10769E+03   -0.10800E+03  2880   0.730E+02 0.811E+01
CGA:   8    -0.996125837639E+03   -0.11360E+02   -0.12280E+02  2880   0.237E+02 0.107E+02
CGA:   9    -0.100085828014E+04   -0.47324E+01   -0.48968E+01  2880   0.235E+02 0.414E+01
CGA:  10    -0.100256463845E+04   -0.17064E+01   -0.26956E+01  2880   0.136E+02-0.383E+01
CGA:  11    -0.100381298909E+04   -0.12484E+01   -0.14848E+01  2880   0.690E+01 0.490E+00
CGA:  12    -0.100485450772E+04   -0.10415E+01   -0.70665E+00  2880   0.330E+01-0.197E+00
CGA:  13    -0.100537815465E+04   -0.52365E+00   -0.52484E+00  2880   0.263E+01 0.194E-01
CGA:  14    -0.100549678363E+04   -0.11863E+00   -0.16732E+00  2880   0.111E+01-0.680E+00
CGA:  15    -0.100562083033E+04   -0.12405E+00   -0.12269E+00  2880   0.102E+01-0.211E-01
CGA:  16    -0.100570641056E+04   -0.85580E-01   -0.90584E-01  2880   0.495E+00-0.512E-01
CGA:  17    -0.100576039466E+04   -0.53984E-01   -0.53547E-01  2880   0.105E+00-0.686E-02
CGA:  18    -0.100579036091E+04   -0.29966E-01   -0.29594E-01  2880   0.850E-01 0.314E-02
CGA:  19    -0.100580211125E+04   -0.11750E-01   -0.11842E-01  2880   0.358E-01 0.450E-02
CGA:  20    -0.100580624885E+04   -0.41376E-02   -0.42841E-02  2880   0.306E-01 0.278E-02
CGA:  21    -0.100581313023E+04   -0.68814E-02   -0.67816E-02  2880   0.169E-01 0.269E-02
CGA:  22    -0.100581529276E+04   -0.21625E-02   -0.21592E-02  2880   0.126E-01-0.559E-03
CGA:  23    -0.100581745781E+04   -0.21651E-02   -0.21726E-02  2880   0.106E-01-0.655E-03
CGA:  24    -0.100581882277E+04   -0.13650E-02   -0.12526E-02  2880   0.650E-02-0.116E-03
CGA:  25    -0.100581964750E+04   -0.82473E-03   -0.80952E-03  2880   0.522E-02-0.191E-03
CGA:  26    -0.100582019758E+04   -0.55008E-03   -0.55728E-03  2880   0.321E-02-0.209E-03
CGA:  27    -0.100582086085E+04   -0.66326E-03   -0.68928E-03  2880   0.299E-02-0.244E-03
CGA:  28    -0.100582101689E+04   -0.15604E-03   -0.16016E-03  2880   0.122E-02 0.357E-03
CGA:  29    -0.100582115835E+04   -0.14146E-03   -0.15126E-03  2880   0.214E-02 0.200E-03
CGA:  30    -0.100582145859E+04   -0.30024E-03   -0.29918E-03  2880   0.158E-02 0.595E-03
CGA:  31    -0.100582160752E+04   -0.14893E-03   -0.10952E-03  2880   0.134E-02 0.729E-03
CGA:  32    -0.100582180365E+04   -0.19612E-03   -0.13645E-03  2880   0.156E-02 0.222E-03
CGA:  33    -0.100582188347E+04   -0.79820E-04   -0.42971E-04  2880   0.115E-02 0.603E-03
CGA:  34    -0.100582195419E+04   -0.70722E-04   -0.42583E-04  2880   0.628E-03 0.108E-03
CGA:  35    -0.100582199642E+04   -0.42229E-04   -0.24790E-04  2880   0.726E-03-0.105E-03
CGA:  36    -0.100582202866E+04   -0.32242E-04   -0.16532E-04  2880   0.838E-03-0.349E-04
SDA:  37    -0.100582205786E+04   -0.29199E-04   -0.16132E-04  2880   0.629E-03 0.623E-04
CGA:  38    -0.100582211538E+04   -0.57524E-04   -0.58008E-04  2880   0.579E-03 0.135E-04
CGA:  39    -0.100582219735E+04   -0.81966E-04   -0.39320E-04  2880   0.211E-02-0.590E-03
CGA:  40    -0.100582236559E+04   -0.16824E-03   -0.16830E-03  2880   0.750E-03 0.696E-04
CGA:  41    -0.100582247182E+04   -0.10624E-03   -0.91519E-04  2880   0.402E-03-0.167E-03
CGA:  42    -0.100582249648E+04   -0.24654E-04   -0.32083E-04  2880   0.168E-03 0.742E-04
CGA:  43    -0.100582249845E+04   -0.19757E-05   -0.13613E-04  2880   0.489E-04 0.938E-04
   1 F= -.10058225E+04 E0= -.10058072E+04  d E =-.100582E+04  mag=     0.9998
       N       E                     dE             d eps       ncg     rms          ort
SDA:   1    -0.100582156384E+04    0.93264E-03    0.00000E+00  2880   0.577E-02 0.000E+00
CGA:   2    -0.100582186130E+04   -0.29746E-03   -0.25830E-03  2880   0.452E-03-0.932E-04
CGA:   3    -0.100582195583E+04   -0.94531E-04   -0.11071E-03  2880   0.623E-03-0.232E-03
CGA:   4    -0.100582199812E+04   -0.42292E-04   -0.45329E-04  2880   0.177E-03 0.243E-04
CGA:   5    -0.100582199838E+04   -0.26146E-06   -0.86701E-05  2880   0.355E-04 0.663E-04
   2 F= -.10058220E+04 E0= -.10058066E+04  d E =0.500076E-03  mag=     0.9968
       N       E                     dE             d eps       ncg     rms          ort
SDA:   1    -0.100581924305E+04    0.27551E-02    0.00000E+00  2880   0.688E-02 0.000E+00
CGA:   2    -0.100581965520E+04   -0.41215E-03   -0.45001E-03  2880   0.379E-02 0.183E-03
CGA:   3    -0.100582054827E+04   -0.89307E-03   -0.89492E-03  2880   0.500E-03-0.269E-04
CGA:   4    -0.100582067920E+04   -0.13093E-03   -0.18011E-03  2880   0.647E-03-0.246E-03
CGA:   5    -0.100582068668E+04   -0.74761E-05   -0.12885E-04  2880   0.263E-03 0.392E-04
CGA:   6    -0.100582069127E+04   -0.45877E-05   -0.11418E-04  2880   0.141E-03 0.530E-04
CGA:   7    -0.100582069888E+04   -0.76080E-05   -0.11284E-04  2880   0.125E-03 0.393E-04
CGA:   8    -0.100582071228E+04   -0.13404E-04   -0.11809E-04  2880   0.500E-04-0.201E-04
CGA:   9    -0.100582066814E+04    0.44143E-04   -0.18668E-04  2880   0.862E-03-0.215E-03
CGA:  10    -0.100582070187E+04   -0.33738E-04   -0.49977E-04  2880   0.133E-03 0.147E-03
CGA:  11    -0.100582071269E+04   -0.10811E-04   -0.14012E-04  2880   0.485E-04 0.454E-04
CGA:  12    -0.100582072355E+04   -0.10864E-04   -0.11467E-04  2880   0.822E-04-0.314E-04
CGA:  13    -0.100582072505E+04   -0.15001E-05   -0.36374E-05  2880   0.713E-05 0.187E-04
   3 F= -.10058207E+04 E0= -.10058053E+04  d E =0.127333E-02  mag=     0.9968
       N       E                     dE             d eps       ncg     rms          ort
SDA:   1    -0.100581310498E+04    0.76186E-02    0.00000E+00  2880   0.740E-02 0.000E+00
CGA:   2    -0.100581383949E+04   -0.73451E-03   -0.73982E-03  2880   0.497E-02 0.192E-03
CGA:   3    -0.100581476714E+04   -0.92765E-03   -0.94757E-03  2880   0.196E-02-0.503E-03
CGA:   4    -0.100581494999E+04   -0.18285E-03   -0.19098E-03  2880   0.468E-03 0.213E-03
CGA:   5    -0.100581499478E+04   -0.44793E-04   -0.48822E-04  2880   0.256E-03 0.782E-04
CGA:   6    -0.100581504508E+04   -0.50292E-04   -0.58209E-04  2880   0.383E-03-0.153E-03
CGA:   7    -0.100581505677E+04   -0.11694E-04   -0.16566E-04  2880   0.443E-04 0.457E-04
CGA:   8    -0.100581504163E+04    0.15135E-04   -0.22682E-04  2880   0.511E-03-0.119E-03
CGA:   9    -0.100581507864E+04   -0.37003E-04   -0.35738E-04  2880   0.114E-03-0.243E-04
CGA:  10    -0.100581507698E+04    0.16625E-05   -0.43023E-05  2880   0.310E-04 0.538E-04
   4 F= -.10058151E+04 E0= -.10057996E+04  d E =0.564807E-02  mag=     0.9969
       N       E                     dE             d eps       ncg     rms          ort
SDA:   1    -0.100578043241E+04    0.34646E-01    0.00000E+00  2880   0.588E-01 0.000E+00
CGA:   2    -0.100578906563E+04   -0.86332E-02   -0.86167E-02  2880   0.369E-01 0.115E-02
CGA:   3    -0.100579419029E+04   -0.51247E-02   -0.51243E-02  2880   0.271E-01-0.747E-03
CGA:   4    -0.100579630960E+04   -0.21193E-02   -0.21653E-02  2880   0.424E-02 0.130E-02
CGA:   5    -0.100579671220E+04   -0.40260E-03   -0.41161E-03  2880   0.272E-02 0.163E-03
CGA:   6    -0.100579721730E+04   -0.50510E-03   -0.51829E-03  2880   0.482E-03-0.275E-03
CGA:   7    -0.100579726305E+04   -0.45754E-04   -0.46889E-04  2880   0.251E-03 0.376E-04
CGA:   8    -0.100579731728E+04   -0.54232E-04   -0.64487E-04  2880   0.247E-03-0.101E-03
CGA:   9    -0.100579732109E+04   -0.38051E-05   -0.73952E-05  2880   0.100E-03 0.389E-04
   5 F= -.10057973E+04 E0= -.10057818E+04  d E =0.177559E-01  mag=     0.9972
       N       E                     dE             d eps       ncg     rms          ort
SDA:   1    -0.100576286054E+04    0.34457E-01    0.00000E+00  2880   0.811E-01 0.000E+00
CGA:   2    -0.100577387954E+04   -0.11019E-01   -0.11025E-01  2880   0.112E+00-0.242E-02
CGA:   3    -0.100578488972E+04   -0.11010E-01   -0.11044E-01  2880   0.239E-01 0.245E-03
CGA:   4    -0.100578790942E+04   -0.30197E-02   -0.30177E-02  2880   0.522E-02 0.491E-03
CGA:   5    -0.100578888599E+04   -0.97658E-03   -0.98785E-03  2880   0.530E-02-0.217E-03
CGA:   6    -0.100578926240E+04   -0.37641E-03   -0.37303E-03  2880   0.667E-03-0.789E-04
CGA:   7    -0.100578931062E+04   -0.48216E-04   -0.56493E-04  2880   0.402E-03 0.187E-03
CGA:   8    -0.100578940100E+04   -0.90388E-04   -0.88935E-04  2880   0.980E-04 0.318E-04
CGA:   9    -0.100578941684E+04   -0.15836E-04   -0.16351E-04  2880   0.193E-03-0.219E-04
CGA:  10    -0.100578943087E+04   -0.14026E-04   -0.14422E-04  2880   0.939E-04 0.110E-04
CGA:  11    -0.100578943805E+04   -0.71886E-05   -0.64936E-05  2880   0.468E-04-0.117E-04
   6 F= -.10057894E+04 E0= -.10057740E+04  d E =0.788303E-02  mag=     0.9973
       N       E                     dE             d eps       ncg     rms          ort
SDA:   1    -0.100578962243E+04   -0.19157E-03    0.00000E+00  2880   0.456E-01 0.000E+00
CGA:   2    -0.100579252216E+04   -0.28997E-02   -0.30922E-02  2880   0.153E-01-0.254E-02
CGA:   3    -0.100579472410E+04   -0.22019E-02   -0.21688E-02  2880   0.101E-01 0.135E-02
CGA:   4    -0.100579580343E+04   -0.10793E-02   -0.10705E-02  2880   0.486E-02-0.276E-03
CGA:   5    -0.100579631935E+04   -0.51592E-03   -0.50871E-03  2880   0.112E-02-0.406E-03
CGA:   6    -0.100579645934E+04   -0.13999E-03   -0.13875E-03  2880   0.529E-03 0.119E-03
CGA:   7    -0.100579648960E+04   -0.30259E-04   -0.38049E-04  2880   0.114E-03 0.124E-03
CGA:   8    -0.100579652469E+04   -0.35085E-04    0.41917E-03  2880   0.527E-04 0.748E-04
CGA:   9    -0.100579653146E+04   -0.67753E-05   -0.67259E-05  2880   0.572E-04 0.888E-05
CGA:  10    -0.100579647823E+04    0.53233E-04   -0.31509E-04  2880   0.102E-02-0.165E-03
CGA:  11    -0.100579652323E+04   -0.45003E-04   -0.50953E-04  2880   0.136E-03 0.216E-04
CGA:  12    -0.100579652753E+04   -0.43034E-05   -0.12520E-04  2880   0.746E-04 0.662E-04
CGA:  13    -0.100579654221E+04   -0.14679E-04   -0.15835E-04  2880   0.653E-04 0.173E-04
CGA:  14    -0.100579655401E+04   -0.11795E-04   -0.98421E-05  2880   0.470E-04-0.238E-04
CGA:  15    -0.100579655423E+04   -0.21683E-06   -0.11584E-05  2880   0.159E-04 0.574E-05
   7 F= -.10057966E+04 E0= -.10057811E+04  d E =-.711617E-02  mag=     0.9972
       N       E                     dE             d eps       ncg     rms          ort
SDA:   1    -0.100578756784E+04    0.89862E-02    0.00000E+00  2880   0.485E-01 0.000E+00
CGA:   2    -0.100579237013E+04   -0.48023E-02   -0.49405E-02  2880   0.497E-01 0.128E-02
CGA:   3    -0.100579946386E+04   -0.70937E-02   -0.71021E-02  2880   0.127E-01 0.757E-04
CGA:   4    -0.100580078399E+04   -0.13201E-02   -0.12660E-02  2880   0.590E-02-0.565E-03
CGA:   5    -0.100580143262E+04   -0.64863E-03   -0.64373E-03  2880   0.199E-02-0.977E-04
CGA:   6    -0.100580165799E+04   -0.22537E-03   -0.23829E-03  2880   0.521E-03 0.264E-03
CGA:   7    -0.100580171762E+04   -0.59636E-04   -0.54731E-04  2880   0.393E-03-0.698E-04
CGA:   8    -0.100580176460E+04   -0.46981E-04   -0.47842E-04  2880   0.943E-04 0.343E-04
CGA:   9    -0.100580170232E+04    0.62284E-04   -0.57857E-04  2880   0.138E-02-0.296E-03
CGA:  10    -0.100580179703E+04   -0.94713E-04   -0.10658E-03  2880   0.179E-03 0.122E-03
CGA:  11    -0.100580179686E+04    0.16694E-06   -0.94581E-05  2880   0.349E-04 0.752E-04
   8 F= -.10058018E+04 E0= -.10057864E+04  d E =-.524264E-02  mag=     0.9971
       N       E                     dE             d eps       ncg     rms          ort
SDA:   1    -0.100579302181E+04    0.87752E-02    0.00000E+00  2880   0.127E-01 0.000E+00
CGA:   2    -0.100579461461E+04   -0.15928E-02   -0.15537E-02  2880   0.154E-01-0.106E-02
CGA:   3    -0.100579609830E+04   -0.14837E-02   -0.14797E-02  2880   0.466E-02-0.940E-04
CGA:   4    -0.100579660646E+04   -0.50816E-03   -0.52700E-03  2880   0.937E-03 0.530E-03
CGA:   5    -0.100579673106E+04   -0.12460E-03   -0.12024E-03  2880   0.983E-03-0.117E-03
CGA:   6    -0.100579681420E+04   -0.83136E-04   -0.87533E-04  2880   0.335E-03 0.794E-04
CGA:   7    -0.100579683366E+04   -0.19462E-04   -0.22388E-04  2880   0.809E-04 0.337E-04
CGA:   8    -0.100579677347E+04    0.60190E-04   -0.44772E-04  2880   0.203E-02-0.295E-03
CGA:   9    -0.100579684555E+04   -0.72080E-04   -0.94585E-04  2880   0.230E-03 0.171E-03
CGA:  10    -0.100579685537E+04   -0.98224E-05   -0.16337E-04  2880   0.377E-04 0.736E-04
   9 F= -.10057969E+04 E0= -.10057814E+04  d E =0.494149E-02  mag=     0.9971
       N       E                     dE             d eps       ncg     rms          ort
SDA:   1    -0.100578422899E+04    0.12617E-01    0.00000E+00  2880   0.270E-01 0.000E+00
CGA:   2    -0.100578829995E+04   -0.40710E-02   -0.40711E-02  2880   0.472E-01-0.151E-02
CGA:   3    -0.100579261962E+04   -0.43197E-02   -0.43490E-02  2880   0.453E-02 0.270E-03
CGA:   4    -0.100579318958E+04   -0.56996E-03   -0.58030E-03  2880   0.404E-02 0.514E-03
CGA:   5    -0.100579362447E+04   -0.43489E-03   -0.42324E-03  2880   0.117E-02-0.242E-03
CGA:   6    -0.100579371710E+04   -0.92636E-04   -0.92293E-04  2880   0.404E-03-0.144E-04
CGA:   7    -0.100579376607E+04   -0.48961E-04   -0.49057E-04  2880   0.174E-03 0.423E-05
CGA:   8    -0.100579379750E+04   -0.31432E-04   -0.32000E-04  2880   0.659E-04-0.137E-04
CGA:   9    -0.100579379812E+04   -0.62428E-06   -0.32005E-05  2880   0.230E-04 0.286E-04
  10 F= -.10057938E+04 E0= -.10057783E+04  d E =0.305725E-02  mag=     0.9971
       N       E                     dE             d eps       ncg     rms          ort
SDA:   1    -0.100575219095E+04    0.41607E-01    0.00000E+00  2880   0.140E+00 0.000E+00
CGA:   2    -0.100576828291E+04   -0.16092E-01   -0.16069E-01  2880   0.163E+00 0.139E-02
CGA:   3    -0.100578993261E+04   -0.21650E-01   -0.21647E-01  2880   0.369E-01-0.146E-02
CGA:   4    -0.100579334944E+04   -0.34168E-02   -0.33717E-02  2880   0.176E-01-0.104E-02
CGA:   5    -0.100579552001E+04   -0.21706E-02   -0.21714E-02  2880   0.497E-02 0.818E-04
CGA:   6    -0.100579609012E+04   -0.57011E-03   -0.57754E-03  2880   0.156E-02 0.551E-03
CGA:   7    -0.100579624425E+04   -0.15414E-03   -0.15088E-03  2880   0.931E-03-0.848E-04
CGA:   8    -0.100579637989E+04   -0.13563E-03   -0.13312E-03  2880   0.233E-03 0.106E-03
CGA:   9    -0.100579618835E+04    0.19153E-03   -0.14535E-03  2880   0.490E-02-0.765E-03
CGA:  10    -0.100579639105E+04   -0.20270E-03   -0.24670E-03  2880   0.752E-03 0.500E-03
CGA:  11    -0.100579643479E+04   -0.43740E-04   -0.56481E-04  2880   0.107E-03 0.189E-03
CGA:  12    -0.100579644701E+04   -0.12222E-04   -0.11720E-04  2880   0.956E-04-0.100E-04
CGA:  13    -0.100579645345E+04   -0.64335E-05   -0.77793E-05  2880   0.677E-04 0.274E-04
  11 F= -.10057965E+04 E0= -.10057810E+04  d E =-.265532E-02  mag=     0.9969
       N       E                     dE             d eps       ncg     rms          ort
SDA:   1    -0.100579387963E+04    0.25674E-02    0.00000E+00  2880   0.177E-01 0.000E+00
CGA:   2    -0.100579652288E+04   -0.26433E-02   -0.26408E-02  2880   0.190E-01-0.163E-03
CGA:   3    -0.100579863398E+04   -0.21111E-02   -0.21290E-02  2880   0.454E-02 0.986E-03
CGA:   4    -0.100579924320E+04   -0.60922E-03   -0.60673E-03  2880   0.283E-02-0.450E-03
CGA:   5    -0.100579943371E+04   -0.19052E-03   -0.18944E-03  2880   0.961E-03-0.426E-04
CGA:   6    -0.100579955639E+04   -0.12268E-03   -0.12270E-03  2880   0.201E-03 0.139E-03
CGA:   7    -0.100579956936E+04   -0.12969E-04   -0.15745E-04  2880   0.100E-03 0.437E-04
CGA:   8    -0.100579958505E+04   -0.15691E-04   -0.15637E-04  2880   0.563E-04 0.468E-04
CGA:   9    -0.100579956945E+04    0.15603E-04   -0.28682E-04  2880   0.941E-03-0.202E-03
CGA:  10    -0.100579960107E+04   -0.31618E-04   -0.43520E-04  2880   0.407E-04 0.123E-03
CGA:  11    -0.100579960030E+04    0.76790E-06   -0.17348E-05  2880   0.208E-04 0.262E-04
  12 F= -.10057996E+04 E0= -.10057841E+04  d E =-.314685E-02  mag=     0.9968
       N       E                     dE             d eps       ncg     rms          ort
SDA:   1    -0.100580058068E+04   -0.97961E-03    0.00000E+00  2880   0.372E-02 0.000E+00
CGA:   2    -0.100580128300E+04   -0.70232E-03   -0.68135E-03  2880   0.445E-02 0.371E-03
CGA:   3    -0.100580172025E+04   -0.43725E-03   -0.43657E-03  2880   0.129E-02-0.267E-04
CGA:   4    -0.100580185304E+04   -0.13279E-03   -0.13245E-03  2880   0.487E-03-0.155E-04
CGA:   5    -0.100580191810E+04   -0.65058E-04   -0.89398E-04  2880   0.127E-02-0.417E-03
CGA:   6    -0.100580194796E+04   -0.29863E-04   -0.49684E-04  2880   0.943E-04 0.218E-03
CGA:   7    -0.100580194647E+04    0.14912E-05   -0.37788E-05  2880   0.426E-04 0.581E-04
  13 F= -.10058019E+04 E0= -.10057865E+04  d E =-.234617E-02  mag=     0.9969
       N       E                     dE             d eps       ncg     rms          ort
SDA:   1    -0.100580047568E+04    0.14723E-02    0.00000E+00  2880   0.158E-01 0.000E+00
CGA:   2    -0.100580277951E+04   -0.23038E-02   -0.23247E-02  2880   0.274E-01-0.770E-03
CGA:   3    -0.100580535238E+04   -0.25729E-02   -0.25907E-02  2880   0.288E-02 0.778E-03
CGA:   4    -0.100580572690E+04   -0.37452E-03   -0.37449E-03  2880   0.236E-02 0.815E-05
CGA:   5    -0.100580595896E+04   -0.23207E-03   -0.22120E-03  2880   0.103E-02-0.439E-03
CGA:   6    -0.100580602225E+04   -0.63284E-04   -0.68295E-04  2880   0.270E-03 0.140E-03
CGA:   7    -0.100580603112E+04   -0.88679E-05   -0.16564E-04  2880   0.926E-04 0.127E-03
  14 F= -.10058060E+04 E0= -.10057906E+04  d E =-.408465E-02  mag=     0.9968
       N       E                     dE             d eps       ncg     rms          ort
SDA:   1    -0.100572393745E+04    0.82085E-01    0.00000E+00  2880   0.223E+00 0.000E+00
CGA:   2    -0.100579226318E+04   -0.68326E-01   -0.70159E-01  2880   0.184E+00-0.119E-01
CGA:   3    -0.100580861509E+04   -0.16352E-01   -0.16322E-01  2880   0.600E-01-0.236E-02
CGA:   4    -0.100581395055E+04   -0.53355E-02   -0.53616E-02  2880   0.169E-01-0.890E-03
CGA:   5    -0.100581583968E+04   -0.18891E-02   -0.18924E-02  2880   0.113E-01 0.701E-03
CGA:   6    -0.100581702863E+04   -0.11889E-02   -0.11875E-02  2880   0.201E-02-0.223E-03
CGA:   7    -0.100581722524E+04   -0.19661E-03   -0.20269E-03  2880   0.942E-03 0.439E-03
CGA:   8    -0.100581744829E+04   -0.22305E-03   -0.24475E-03  2880   0.987E-03-0.226E-03
CGA:   9    -0.100581748131E+04   -0.33020E-04   -0.37874E-04  2880   0.230E-03 0.638E-04
CGA:  10    -0.100581749459E+04   -0.13279E-04   -0.15992E-04  2880   0.208E-03 0.514E-04
CGA:  11    -0.100581753077E+04   -0.36184E-04   -0.37501E-04  2880   0.202E-03-0.411E-04
CGA:  12    -0.100581754802E+04   -0.17255E-04   -0.15636E-04  2880   0.156E-03-0.820E-04
CGA:  13    -0.100581754970E+04   -0.16760E-05   -0.35061E-05  2880   0.908E-04 0.233E-04
  15 F= -.10058175E+04 E0= -.10058022E+04  d E =-.115186E-01  mag=     0.9968
       N       E                     dE             d eps       ncg     rms          ort
SDA:   1    -0.100578580683E+04    0.31741E-01    0.00000E+00  2880   0.968E-01 0.000E+00
CGA:   2    -0.100580135483E+04   -0.15548E-01   -0.15630E-01  2880   0.174E+00-0.189E-02
CGA:   3    -0.100581720187E+04   -0.15847E-01   -0.15933E-01  2880   0.174E-01 0.303E-02
CGA:   4    -0.100581970140E+04   -0.24995E-02   -0.25239E-02  2880   0.139E-01-0.653E-03
CGA:   5    -0.100582094101E+04   -0.12396E-02   -0.12207E-02  2880   0.411E-02-0.113E-02
CGA:   6    -0.100582127582E+04   -0.33482E-03   -0.34439E-03  2880   0.175E-02 0.527E-03
CGA:   7    -0.100582140945E+04   -0.13363E-03   -0.14592E-03  2880   0.402E-03 0.351E-03
CGA:   8    -0.100582151834E+04   -0.10889E-03   -0.12465E-03  2880   0.804E-03-0.105E-03
CGA:   9    -0.100582154008E+04   -0.21747E-04   -0.25288E-04  2880   0.262E-03 0.463E-04
CGA:  10    -0.100582154942E+04   -0.93316E-05   -0.11588E-04  2880   0.156E-03 0.321E-04
CGA:  11    -0.100582157105E+04   -0.21632E-04   -0.23675E-04  2880   0.343E-03-0.747E-04
CGA:  12    -0.100582158705E+04   -0.15997E-04   -0.79099E-05  2880   0.258E-03-0.125E-03
CGA:  13    -0.100582159918E+04   -0.12131E-04   -0.62245E-05  2880   0.173E-03-0.895E-04
CGA:  14    -0.100582160258E+04   -0.34036E-05   -0.36419E-05  2880   0.146E-03 0.338E-05
  16 F= -.10058216E+04 E0= -.10058062E+04  d E =-.405288E-02  mag=     0.9970
       N       E                     dE             d eps       ncg     rms          ort
SDA:   1    -0.100578450821E+04    0.37091E-01    0.00000E+00  2880   0.107E+00 0.000E+00
CGA:   2    -0.100579850348E+04   -0.13995E-01   -0.13954E-01  2880   0.109E+00-0.428E-03
CGA:   3    -0.100581371289E+04   -0.15209E-01   -0.15348E-01  2880   0.264E-01-0.240E-02
CGA:   4    -0.100581622258E+04   -0.25097E-02   -0.25102E-02  2880   0.145E-01 0.187E-03
CGA:   5    -0.100581727962E+04   -0.10570E-02   -0.10776E-02  2880   0.296E-02 0.101E-02
CGA:   6    -0.100581795270E+04   -0.67308E-03   -0.69051E-03  2880   0.181E-02-0.146E-03
CGA:   7    -0.100581810638E+04   -0.15368E-03   -0.14432E-03  2880   0.724E-03-0.495E-03
CGA:   8    -0.100581815445E+04   -0.48072E-04   -0.49396E-04  2880   0.320E-03 0.145E-03
CGA:   9    -0.100581817792E+04   -0.23463E-04   -0.27013E-04  2880   0.109E-03 0.109E-03
CGA:  10    -0.100581820164E+04   -0.23722E-04   -0.39823E-04  2880   0.436E-03-0.946E-04
CGA:  11    -0.100581821387E+04   -0.12228E-04   -0.16859E-04  2880   0.351E-04 0.611E-04
CGA:  12    -0.100581821934E+04   -0.54753E-05   -0.56885E-05  2880   0.701E-04-0.595E-05
CGA:  13    -0.100581813307E+04    0.86267E-04   -0.25521E-04  2880   0.108E-02-0.337E-03
CGA:  14    -0.100581817743E+04   -0.44354E-04   -0.59590E-04  2880   0.306E-03 0.220E-03
CGA:  15    -0.100581820112E+04   -0.23694E-04   -0.28936E-04  2880   0.881E-04 0.128E-03
CGA:  16    -0.100581821442E+04   -0.13296E-04   -0.13124E-04  2880   0.109E-03-0.131E-04
CGA:  17    -0.100581822128E+04   -0.68668E-05   -0.69278E-05  2880   0.494E-04 0.135E-05
  17 F= -.10058182E+04 E0= -.10058028E+04  d E =0.338130E-02  mag=     0.9968
       N       E                     dE             d eps       ncg     rms          ort
SDA:   1    -0.100579502507E+04    0.23189E-01    0.00000E+00  2880   0.531E-01 0.000E+00
CGA:   2    -0.100580704486E+04   -0.12020E-01   -0.12357E-01  2880   0.103E+00-0.294E-02
CGA:   3    -0.100581314929E+04   -0.61044E-02   -0.62687E-02  2880   0.107E-01 0.521E-03
CGA:   4    -0.100581464546E+04   -0.14962E-02   -0.14773E-02  2880   0.736E-02 0.111E-02
CGA:   5    -0.100581528739E+04   -0.64193E-03   -0.63567E-03  2880   0.280E-02-0.267E-03
CGA:   6    -0.100581563019E+04   -0.34280E-03   -0.34587E-03  2880   0.116E-02-0.242E-03
CGA:   7    -0.100581570800E+04   -0.77805E-04   -0.79443E-04  2880   0.318E-03 0.351E-04
CGA:   8    -0.100581577458E+04   -0.66579E-04   -0.60949E-04  2880   0.112E-03 0.776E-04
CGA:   9    -0.100581578432E+04   -0.97475E-05   -0.10419E-04  2880   0.627E-04 0.149E-04
CGA:  10    -0.100581573842E+04    0.45905E-04   -0.27869E-04  2880   0.698E-03-0.159E-03
CGA:  11    -0.100581576121E+04   -0.22793E-04   -0.36639E-04  2880   0.184E-03 0.761E-04
CGA:  12    -0.100581579003E+04   -0.28813E-04   -0.30815E-04  2880   0.794E-04 0.396E-04
CGA:  13    -0.100581580799E+04   -0.17962E-04   -0.15447E-04  2880   0.180E-03-0.648E-04
CGA:  14    -0.100581580828E+04   -0.29396E-06   -0.63938E-05  2880   0.124E-04 0.368E-04
  18 F= -.10058158E+04 E0= -.10058004E+04  d E =0.241300E-02  mag=     0.9964
       N       E                     dE             d eps       ncg     rms          ort
SDA:   1    -0.100580460835E+04    0.11200E-01    0.00000E+00  2880   0.447E-01 0.000E+00
CGA:   2    -0.100581075710E+04   -0.61488E-02   -0.62467E-02  2880   0.645E-01 0.136E-02
CGA:   3    -0.100581790067E+04   -0.71436E-02   -0.71067E-02  2880   0.979E-02-0.193E-03
CGA:   4    -0.100581942925E+04   -0.15286E-02   -0.15223E-02  2880   0.477E-02-0.488E-03
CGA:   5    -0.100581983583E+04   -0.40658E-03   -0.39330E-03  2880   0.243E-02-0.136E-03
CGA:   6    -0.100582008001E+04   -0.24418E-03   -0.26041E-03  2880   0.317E-03 0.292E-03
CGA:   7    -0.100582014632E+04   -0.66311E-04   -0.70438E-04  2880   0.808E-03-0.135E-03
CGA:   8    -0.100582017362E+04   -0.27298E-04   -0.30048E-04  2880   0.506E-03 0.263E-04
CGA:   9    -0.100582018415E+04   -0.10539E-04   -0.17989E-04  2880   0.112E-03 0.645E-04
CGA:  10    -0.100582018870E+04   -0.45420E-05   -0.62321E-05  2880   0.826E-04 0.159E-04
CGA:  11    -0.100582020326E+04   -0.14568E-04   -0.15689E-04  2880   0.241E-03-0.769E-04
CGA:  12    -0.100582021937E+04   -0.16109E-04   -0.15668E-04  2880   0.375E-04-0.647E-05
CGA:  13    -0.100582021907E+04    0.30432E-06   -0.17359E-05  2880   0.137E-04 0.204E-04
  19 F= -.10058202E+04 E0= -.10058048E+04  d E =-.441079E-02  mag=     0.9969
       N       E                     dE             d eps       ncg     rms          ort
SDA:   1    -0.100580828361E+04    0.11936E-01    0.00000E+00  2880   0.546E-01 0.000E+00
CGA:   2    -0.100581431077E+04   -0.60272E-02   -0.60179E-02  2880   0.655E-01-0.104E-02
CGA:   3    -0.100582261044E+04   -0.82997E-02   -0.83095E-02  2880   0.128E-01 0.126E-02
CGA:   4    -0.100582400840E+04   -0.13980E-02   -0.13959E-02  2880   0.644E-02-0.962E-04
CGA:   5    -0.100582477733E+04   -0.76893E-03   -0.75734E-03  2880   0.248E-02-0.786E-03
CGA:   6    -0.100582503953E+04   -0.26220E-03   -0.26525E-03  2880   0.619E-03 0.265E-03
CGA:   7    -0.100582509772E+04   -0.58191E-04   -0.59003E-04  2880   0.333E-03 0.155E-04
CGA:   8    -0.100582512432E+04   -0.26601E-04   -0.30463E-04  2880   0.110E-03 0.927E-04
CGA:   9    -0.100582515197E+04   -0.27655E-04   -0.28458E-04  2880   0.144E-03-0.110E-04
CGA:  10    -0.100582516862E+04   -0.16645E-04   -0.18313E-04  2880   0.310E-03-0.186E-03
CGA:  11    -0.100582517386E+04   -0.52415E-05   -0.12198E-04  2880   0.483E-04 0.722E-04
  20 F= -.10058252E+04 E0= -.10058097E+04  d E =-.495479E-02  mag=     0.9969
       N       E                     dE             d eps       ncg     rms          ort
SDA:   1    -0.100581755328E+04    0.76153E-02    0.00000E+00  2880   0.294E-01 0.000E+00
CGA:   2    -0.100581995864E+04   -0.24054E-02   -0.24477E-02  2880   0.240E-01 0.492E-03
CGA:   3    -0.100582411433E+04   -0.41557E-02   -0.41998E-02  2880   0.622E-02-0.905E-03
CGA:   4    -0.100582489224E+04   -0.77791E-03   -0.77642E-03  2880   0.242E-02 0.365E-03
CGA:   5    -0.100582509027E+04   -0.19803E-03   -0.20842E-03  2880   0.889E-03 0.226E-03
CGA:   6    -0.100582522870E+04   -0.13844E-03   -0.13651E-03  2880   0.316E-03 0.105E-03
CGA:   7    -0.100582527317E+04   -0.44470E-04   -0.57976E-04  2880   0.936E-03-0.334E-03
CGA:   8    -0.100582529528E+04   -0.22109E-04   -0.36062E-04  2880   0.717E-04 0.161E-03
CGA:   9    -0.100582529481E+04    0.47112E-06   -0.32324E-05  2880   0.410E-04 0.448E-04
  21 F= -.10058253E+04 E0= -.10058098E+04  d E =-.120952E-03  mag=     0.9967
       N       E                     dE             d eps       ncg     rms          ort
SDA:   1    -0.100582392867E+04    0.13666E-02    0.00000E+00  2880   0.127E-01 0.000E+00
CGA:   2    -0.100582457850E+04   -0.64983E-03   -0.61307E-03  2880   0.237E-02-0.236E-03
CGA:   3    -0.100582530993E+04   -0.73143E-03   -0.69766E-03  2880   0.411E-03 0.182E-03
CGA:   4    -0.100582539399E+04   -0.84053E-04   -0.12527E-03  2880   0.141E-02-0.261E-03
CGA:   5    -0.100582543610E+04   -0.42115E-04   -0.57654E-04  2880   0.786E-04 0.186E-03
CGA:   6    -0.100582543813E+04   -0.20307E-05   -0.44619E-05  2880   0.319E-04 0.311E-04
  22 F= -.10058254E+04 E0= -.10058100E+04  d E =-.143320E-03  mag=     0.9968
