       N       E                     dE             d eps       ncg     rms          rms(c)
DAV:   1     0.306026031586E+04    0.30603E+04   -0.25782E+05 11532   0.130E+03
DAV:   2    -0.601728236171E+03   -0.36620E+04   -0.35394E+04 14040   0.298E+02
DAV:   3    -0.860665152982E+03   -0.25894E+03   -0.25622E+03 13944   0.836E+01
DAV:   4    -0.863956315327E+03   -0.32912E+01   -0.32786E+01 14028   0.101E+01
DAV:   5    -0.864013477837E+03   -0.57163E-01   -0.57019E-01 14304   0.123E+00    0.986E+01
DAV:   6    -0.772099374726E+03    0.91914E+02   -0.39055E+02 13176   0.317E+01    0.518E+01
DAV:   7    -0.780133420801E+03   -0.80340E+01   -0.38291E+01 13956   0.113E+01    0.207E+01
DAV:   8    -0.784028652609E+03   -0.38952E+01   -0.27841E+01 14892   0.684E+00    0.123E+01
DAV:   9    -0.786514020684E+03   -0.24854E+01   -0.18065E+01 15168   0.518E+00    0.106E+01
DAV:  10    -0.786527665558E+03   -0.13645E-01   -0.74464E+00 14808   0.351E+00    0.862E+00
DAV:  11    -0.786967115200E+03   -0.43945E+00   -0.10569E+01 15504   0.251E+00    0.750E+00
DAV:  12    -0.787251579673E+03   -0.28446E+00   -0.66578E+00 15528   0.219E+00    0.580E+00
DAV:  13    -0.787232622997E+03    0.18957E-01   -0.10587E+00 14556   0.156E+00    0.440E+00
DAV:  14    -0.787377689055E+03   -0.14507E+00   -0.19714E+00 16776   0.159E+00    0.415E+00
DAV:  15    -0.787430629195E+03   -0.52940E-01   -0.56915E-01 15060   0.101E+00    0.428E+00
DAV:  16    -0.787535356294E+03   -0.10473E+00   -0.13278E-01 13356   0.670E-01    0.406E+00
DAV:  17    -0.787548440472E+03   -0.13084E-01   -0.10305E-01 14328   0.542E-01    0.353E+00
DAV:  18    -0.787499887126E+03    0.48553E-01   -0.89457E-02 14868   0.598E-01    0.278E+00
DAV:  19    -0.787456584200E+03    0.43303E-01   -0.10982E-01 15636   0.754E-01    0.221E+00
DAV:  20    -0.787445430959E+03    0.11153E-01   -0.55435E-02 13452   0.378E-01    0.193E+00
DAV:  21    -0.787448767742E+03   -0.33368E-02   -0.16373E-02 14088   0.192E-01    0.166E+00
DAV:  22    -0.787450239178E+03   -0.14714E-02   -0.10709E-03 12564   0.697E-02    0.166E+00
DAV:  23    -0.787450073965E+03    0.16521E-03   -0.35383E-05 12432   0.138E-02    0.166E+00
DAV:  24    -0.787454829857E+03   -0.47559E-02   -0.35852E-02 15720   0.315E-01    0.134E+00
DAV:  25    -0.787460275922E+03   -0.54461E-02   -0.17456E-02 13992   0.222E-01    0.924E-01
DAV:  26    -0.787465553587E+03   -0.52777E-02   -0.23267E-02 15924   0.279E-01    0.105E+00
DAV:  27    -0.787465927520E+03   -0.37393E-03   -0.23683E-02 15480   0.311E-01    0.974E-01
DAV:  28    -0.787467951259E+03   -0.20237E-02   -0.38368E-03 12204   0.130E-01    0.883E-01
DAV:  29    -0.787467430136E+03    0.52112E-03   -0.32555E-03 15360   0.122E-01    0.447E-01
DAV:  30    -0.787469206383E+03   -0.17762E-02   -0.20977E-03 13284   0.862E-02    0.637E-01
DAV:  31    -0.787468012735E+03    0.11936E-02   -0.15875E-03 17004   0.110E-01    0.227E-01
DAV:  32    -0.787468367375E+03   -0.35464E-03   -0.61588E-04 13260   0.534E-02    0.207E-01
DAV:  33    -0.787468405818E+03   -0.38443E-04   -0.22033E-04 13680   0.342E-02    0.195E-01
DAV:  34    -0.787468456753E+03   -0.50935E-04   -0.42272E-04 13560   0.323E-02    0.166E-01
DAV:  35    -0.787468600090E+03   -0.14334E-03   -0.73983E-04 13908   0.452E-02    0.170E-01
DAV:  36    -0.787468565872E+03    0.34218E-04   -0.25700E-04 14016   0.347E-02    0.126E-01
DAV:  37    -0.787468562007E+03    0.38644E-05   -0.93086E-05 14052   0.193E-02
   1 F= -.78746856E+03 E0= -.78744798E+03  d E =-.787469E+03  mag=    -0.4035
       N       E                     dE             d eps       ncg     rms          rms(c)
DAV:   1    -0.787470997247E+03   -0.24314E-02   -0.11704E-04 12480   0.201E-02    0.728E-02
DAV:   2    -0.787471199015E+03   -0.20177E-03   -0.77627E-04 16680   0.543E-02    0.319E-01
DAV:   3    -0.787470968041E+03    0.23097E-03   -0.32275E-04 15240   0.411E-02    0.894E-02
DAV:   4    -0.787471002616E+03   -0.34575E-04   -0.18389E-04 13512   0.228E-02    0.625E-02
DAV:   5    -0.787471016134E+03   -0.13518E-04   -0.66548E-05 10980   0.142E-02    0.401E-02
DAV:   6    -0.787471014316E+03    0.18182E-05   -0.26321E-05  7728   0.869E-03
   2 F= -.78747101E+03 E0= -.78745005E+03  d E =-.245231E-02  mag=    -0.4163
       N       E                     dE             d eps       ncg     rms          rms(c)
DAV:   1    -0.787521378128E+03   -0.50362E-01   -0.27384E-02 11784   0.262E-01    0.873E-02
DAV:   2    -0.787521473873E+03   -0.95745E-04   -0.12012E-03 13896   0.525E-02    0.140E-01
DAV:   3    -0.787521432861E+03    0.41012E-04   -0.32748E-04 14820   0.278E-02    0.578E-02
DAV:   4    -0.787521437373E+03   -0.45121E-05   -0.10906E-04 12300   0.186E-02    0.644E-02
DAV:   5    -0.787521428014E+03    0.93587E-05   -0.68520E-05 10044   0.134E-02
   3 F= -.78752143E+03 E0= -.78750051E+03  d E =-.504137E-01  mag=    -0.4192
       N       E                     dE             d eps       ncg     rms          rms(c)
DAV:   1    -0.787703702602E+03   -0.18227E+00   -0.40540E-01 11568   0.101E+00    0.326E-01
DAV:   2    -0.787704924321E+03   -0.12217E-02   -0.16200E-02 13932   0.203E-01    0.443E-01
DAV:   3    -0.787704564947E+03    0.35937E-03   -0.40952E-03 15984   0.102E-01    0.233E-01
DAV:   4    -0.787704519187E+03    0.45760E-04   -0.12719E-03 13200   0.672E-02    0.208E-01
DAV:   5    -0.787704447906E+03    0.71281E-04   -0.11151E-03 15828   0.488E-02    0.117E-01
DAV:   6    -0.787704437878E+03    0.10028E-04   -0.28402E-04 13776   0.300E-02    0.894E-02
DAV:   7    -0.787704421395E+03    0.16483E-04   -0.16710E-04 12768   0.210E-02    0.396E-02
DAV:   8    -0.787704428950E+03   -0.75546E-05   -0.47336E-05 10740   0.118E-02
   4 F= -.78770443E+03 E0= -.78768365E+03  d E =-.183001E+00  mag=    -0.4195
       N       E                     dE             d eps       ncg     rms          rms(c)
DAV:   1    -0.788056475879E+03   -0.35205E+00   -0.19659E+00 11520   0.227E+00    0.736E-01
DAV:   2    -0.788064031659E+03   -0.75558E-02   -0.10455E-01 14040   0.495E-01    0.164E+00
DAV:   3    -0.788058912558E+03    0.51191E-02   -0.38449E-02 14664   0.283E-01    0.437E-01
DAV:   4    -0.788060260753E+03   -0.13482E-02   -0.11500E-02 12864   0.172E-01    0.619E-01
DAV:   5    -0.788059381385E+03    0.87937E-03   -0.59180E-03 14616   0.118E-01    0.193E-01
DAV:   6    -0.788059494163E+03   -0.11278E-03   -0.21157E-03 13692   0.766E-02    0.225E-01
DAV:   7    -0.788059419582E+03    0.74581E-04   -0.41227E-04 14316   0.512E-02    0.146E-01
DAV:   8    -0.788059383318E+03    0.36265E-04   -0.55617E-04 13476   0.332E-02    0.816E-02
DAV:   9    -0.788059410444E+03   -0.27126E-04   -0.11146E-04 12600   0.200E-02    0.865E-02
DAV:  10    -0.788059387976E+03    0.22467E-04   -0.16518E-04 10632   0.156E-02    0.253E-02
DAV:  11    -0.788059394479E+03   -0.65030E-05   -0.20639E-05  8412   0.845E-03
   5 F= -.78805939E+03 E0= -.78803877E+03  d E =-.354966E+00  mag=    -0.4197
       N       E                     dE             d eps       ncg     rms          rms(c)
DAV:   1    -0.788432763828E+03   -0.37338E+00   -0.29970E+00 11520   0.274E+00    0.101E+00
DAV:   2    -0.788445296400E+03   -0.12533E-01   -0.23822E-01 14532   0.729E-01    0.257E+00
DAV:   3    -0.788433820421E+03    0.11476E-01   -0.11487E-01 14724   0.442E-01    0.848E-01
DAV:   4    -0.788435391420E+03   -0.15710E-02   -0.20087E-02 12648   0.242E-01    0.537E-01
DAV:   5    -0.788435022847E+03    0.36857E-03   -0.68704E-03 14076   0.145E-01    0.295E-01
DAV:   6    -0.788434912321E+03    0.11053E-03   -0.21513E-03 14568   0.951E-02    0.235E-01
DAV:   7    -0.788434751456E+03    0.16087E-03   -0.71465E-04 14568   0.620E-02    0.137E-01
DAV:   8    -0.788434738324E+03    0.13132E-04   -0.55636E-04 14976   0.421E-02    0.894E-02
DAV:   9    -0.788434739080E+03   -0.75587E-06   -0.14408E-04 13524   0.259E-02    0.707E-02
DAV:  10    -0.788434723836E+03    0.15244E-04   -0.13741E-04 12924   0.172E-02    0.280E-02
DAV:  11    -0.788434727833E+03   -0.39978E-05   -0.27855E-05  7980   0.859E-03
   6 F= -.78843473E+03 E0= -.78841427E+03  d E =-.375333E+00  mag=    -0.4195
       N       E                     dE             d eps       ncg     rms          rms(c)
DAV:   1    -0.788942018627E+03   -0.50729E+00   -0.90691E+00 11520   0.475E+00    0.234E+00
DAV:   2    -0.789003121051E+03   -0.61102E-01   -0.17367E+00 15672   0.180E+00    0.472E+00
DAV:   3    -0.788989275774E+03    0.13845E-01   -0.18487E+00 16356   0.107E+00    0.354E+00
DAV:   4    -0.788953050140E+03    0.36226E-01   -0.15265E-01 14112   0.644E-01    0.186E+00
DAV:   5    -0.788945038452E+03    0.80117E-02   -0.57127E-02 14136   0.402E-01    0.138E+00
DAV:   6    -0.788939986419E+03    0.50520E-02   -0.29100E-02 14148   0.267E-01    0.888E-01
DAV:   7    -0.788941013583E+03   -0.10272E-02   -0.13358E-02 13272   0.195E-01    0.112E+00
DAV:   8    -0.788938202142E+03    0.28114E-02   -0.10063E-02 14616   0.194E-01    0.521E-01
DAV:   9    -0.788938081051E+03    0.12109E-03   -0.15300E-02 14016   0.177E-01    0.607E-01
DAV:  10    -0.788938009689E+03    0.71362E-04   -0.20703E-03 13032   0.105E-01    0.435E-01
DAV:  11    -0.788937740150E+03    0.26954E-03   -0.26865E-03 14292   0.914E-02    0.154E-01
DAV:  12    -0.788937856786E+03   -0.11664E-03   -0.73577E-04 12684   0.472E-02    0.978E-02
DAV:  13    -0.788937869254E+03   -0.12468E-04   -0.30588E-04 13560   0.309E-02    0.414E-02
DAV:  14    -0.788937879577E+03   -0.10322E-04   -0.11248E-04 12780   0.154E-02    0.476E-02
DAV:  15    -0.788937876437E+03    0.31401E-05   -0.50641E-05  8448   0.102E-02
   7 F= -.78893788E+03 E0= -.78891770E+03  d E =-.503149E+00  mag=    -0.4122
       N       E                     dE             d eps       ncg     rms          rms(c)
DAV:   1    -0.789432814181E+03   -0.49493E+00   -0.24736E+01 11520   0.800E+00    0.330E+00
DAV:   2    -0.789553236237E+03   -0.12042E+00   -0.29635E+00 15024   0.243E+00    0.616E+00
DAV:   3    -0.789563824677E+03   -0.10588E-01   -0.50104E+00 16536   0.148E+00    0.456E+00
DAV:   4    -0.789489500585E+03    0.74324E-01   -0.32069E-01 14736   0.956E-01    0.273E+00
DAV:   5    -0.789464601748E+03    0.24899E-01   -0.13218E-01 14208   0.607E-01    0.220E+00
DAV:   6    -0.789439670195E+03    0.24932E-01   -0.45836E-02 14376   0.502E-01    0.140E+00
DAV:   7    -0.789438914877E+03    0.75532E-03   -0.89450E-02 14196   0.431E-01    0.149E+00
DAV:   8    -0.789440771993E+03   -0.18571E-02   -0.11069E-02 12384   0.196E-01    0.118E+00
DAV:   9    -0.789442711202E+03   -0.19392E-02   -0.38510E-03 13848   0.838E-02    0.129E+00
DAV:  10    -0.789442942031E+03   -0.23083E-03   -0.76965E-04 13656   0.600E-02    0.125E+00
DAV:  11    -0.789443338399E+03   -0.39637E-03   -0.15974E-02 14256   0.267E-01    0.128E+00
DAV:  12    -0.789432030315E+03    0.11308E-01   -0.46618E-02 15420   0.395E-01    0.107E+00
DAV:  13    -0.789438061701E+03   -0.60314E-02   -0.15946E-02 13320   0.207E-01    0.742E-01
DAV:  14    -0.789439913506E+03   -0.18518E-02   -0.57003E-03 14976   0.162E-01    0.288E-01
DAV:  15    -0.789440934505E+03   -0.10210E-02   -0.37802E-03 13188   0.144E-01    0.103E-01
DAV:  16    -0.789440969229E+03   -0.34725E-04   -0.88423E-04 14016   0.527E-02    0.711E-02
DAV:  17    -0.789440978345E+03   -0.91156E-05   -0.94961E-05 12312   0.186E-02
   8 F= -.78944098E+03 E0= -.78942076E+03  d E =-.503102E+00  mag=    -0.3730
       N       E                     dE             d eps       ncg     rms          rms(c)
DAV:   1    -0.789745927725E+03   -0.30496E+00   -0.28446E+01 11520   0.898E+00    0.470E+00
DAV:   2    -0.789933983734E+03   -0.18806E+00   -0.75320E+00 16608   0.350E+00    0.605E+00
DAV:   3    -0.789888025740E+03    0.45958E-01   -0.21880E+00 16092   0.177E+00    0.443E+00
DAV:   4    -0.789792933091E+03    0.95093E-01   -0.27286E-01 14580   0.101E+00    0.306E+00
DAV:   5    -0.789768874585E+03    0.24059E-01   -0.15532E-01 14652   0.639E-01    0.266E+00
DAV:   6    -0.789737524259E+03    0.31350E-01   -0.84188E-02 15528   0.610E-01    0.196E+00
DAV:   7    -0.789718550871E+03    0.18973E-01   -0.83974E-02 13944   0.479E-01    0.109E+00
DAV:   8    -0.789717663935E+03    0.88694E-03   -0.40954E-02 13968   0.295E-01    0.745E-01
DAV:   9    -0.789718908650E+03   -0.12447E-02   -0.22965E-02 15096   0.223E-01    0.649E-01
DAV:  10    -0.789718616895E+03    0.29175E-03   -0.55224E-03 14064   0.147E-01    0.529E-01
DAV:  11    -0.789719793558E+03   -0.11767E-02   -0.28783E-03 12864   0.724E-02    0.543E-01
DAV:  12    -0.789719032766E+03    0.76079E-03   -0.57938E-04 12204   0.493E-02    0.576E-01
DAV:  13    -0.789716117953E+03    0.29148E-02   -0.10494E-02 12792   0.959E-02    0.347E-01
DAV:  14    -0.789716877883E+03   -0.75993E-03   -0.12570E-02 12384   0.991E-02    0.421E-01
DAV:  15    -0.789716889420E+03   -0.11538E-04   -0.49445E-03 12456   0.100E-01    0.225E-01
DAV:  16    -0.789716924803E+03   -0.35383E-04   -0.12132E-03 14064   0.522E-02    0.131E-01
DAV:  17    -0.789716925037E+03   -0.23378E-06   -0.68423E-04 13248   0.373E-02    0.884E-02
DAV:  18    -0.789716909763E+03    0.15273E-04   -0.17717E-04 11352   0.165E-02    0.339E-02
DAV:  19    -0.789716913127E+03   -0.33637E-05   -0.35837E-05  8316   0.835E-03
   9 F= -.78971691E+03 E0= -.78969538E+03  d E =-.275935E+00  mag=    -0.0908
       N       E                     dE             d eps       ncg     rms          rms(c)
DAV:   1    -0.789036318349E+03    0.68059E+00   -0.11548E+02 11976   0.179E+01    0.663E+00
DAV:   2    -0.789383825427E+03   -0.34751E+00   -0.42707E+00 13968   0.288E+00    0.451E+00
DAV:   3    -0.789396837756E+03   -0.13012E-01   -0.15569E+00 17904   0.185E+00    0.443E+00
DAV:   4    -0.789340534794E+03    0.56303E-01   -0.72070E-01 16176   0.110E+00    0.321E+00
DAV:   5    -0.789302630107E+03    0.37905E-01   -0.13102E-01 15420   0.735E-01    0.147E+00
DAV:   6    -0.789302007956E+03    0.62215E-03   -0.10460E-01 14436   0.701E-01    0.196E+00
DAV:   7    -0.789307929662E+03   -0.59217E-02   -0.83892E-02 14436   0.488E-01    0.250E+00
DAV:   8    -0.789292568827E+03    0.15361E-01   -0.24927E-02 13644   0.280E-01    0.134E+00
DAV:   9    -0.789292508587E+03    0.60240E-04   -0.21225E-02 14028   0.243E-01    0.134E+00
DAV:  10    -0.789288752773E+03    0.37558E-02   -0.15645E-02 14340   0.243E-01    0.449E-01
DAV:  11    -0.789290861637E+03   -0.21089E-02   -0.11433E-02 13860   0.165E-01    0.585E-01
DAV:  12    -0.789290951941E+03   -0.90304E-04   -0.15204E-03 12372   0.878E-02    0.366E-01
DAV:  13    -0.789291040609E+03   -0.88667E-04   -0.20513E-03 14100   0.829E-02    0.149E-01
DAV:  14    -0.789291246189E+03   -0.20558E-03   -0.10758E-03 13428   0.610E-02    0.161E-01
DAV:  15    -0.789291183399E+03    0.62790E-04   -0.28372E-04 13428   0.301E-02    0.891E-02
DAV:  16    -0.789291179051E+03    0.43482E-05   -0.98857E-05 13188   0.160E-02
  10 F= -.78929118E+03 E0= -.78926890E+03  d E =0.425734E+00  mag=    -0.2801
       N       E                     dE             d eps       ncg     rms          rms(c)
DAV:   1    -0.789643866784E+03   -0.35268E+00   -0.81810E+01 11532   0.145E+01    0.874E+00
DAV:   2    -0.790333127365E+03   -0.68926E+00   -0.14367E+01 15516   0.475E+00    0.752E+00
DAV:   3    -0.790326797823E+03    0.63295E-02   -0.11681E+01 17376   0.292E+00    0.671E+00
DAV:   4    -0.789921697280E+03    0.40510E+00   -0.85261E-01 14904   0.178E+00    0.502E+00
DAV:   5    -0.789831462752E+03    0.90235E-01   -0.11320E+00 15228   0.126E+00    0.477E+00
DAV:   6    -0.789766820670E+03    0.64642E-01   -0.22139E-01 15792   0.115E+00    0.425E+00
DAV:   7    -0.789764957204E+03    0.18635E-02   -0.35708E-01 14196   0.733E-01    0.350E+00
DAV:   8    -0.789767714247E+03   -0.27570E-02   -0.82158E-02 15372   0.639E-01    0.233E+00
DAV:   9    -0.789773393794E+03   -0.56795E-02   -0.17578E-01 14796   0.884E-01    0.240E+00
DAV:  10    -0.789746794569E+03    0.26599E-01   -0.18532E-01 14916   0.709E-01    0.264E+00
DAV:  11    -0.789773500676E+03   -0.26706E-01   -0.82876E-02 13464   0.359E-01    0.326E+00
DAV:  12    -0.789771126464E+03    0.23742E-02   -0.46148E-02 15360   0.344E-01    0.264E+00
DAV:  13    -0.789746914135E+03    0.24212E-01   -0.13426E-01 17256   0.657E-01    0.110E+00
DAV:  14    -0.789756180618E+03   -0.92665E-02   -0.25846E-02 12636   0.249E-01    0.876E-01
DAV:  15    -0.789756502348E+03   -0.32173E-03   -0.27214E-03 14736   0.128E-01    0.663E-01
DAV:  16    -0.789758177603E+03   -0.16753E-02   -0.42546E-03 14148   0.133E-01    0.595E-01
DAV:  17    -0.789759897353E+03   -0.17197E-02   -0.58327E-03 14784   0.165E-01    0.613E-01
DAV:  18    -0.789759329552E+03    0.56780E-03   -0.74740E-03 15108   0.126E-01    0.459E-01
DAV:  19    -0.789758981142E+03    0.34841E-03   -0.28726E-03 13668   0.782E-02    0.164E-01
DAV:  20    -0.789759132282E+03   -0.15114E-03   -0.38940E-04 14424   0.457E-02    0.908E-02
DAV:  21    -0.789759137339E+03   -0.50572E-05   -0.24823E-04 14280   0.315E-02    0.101E-01
DAV:  22    -0.789759115278E+03    0.22061E-04   -0.26402E-04 14124   0.282E-02    0.843E-02
DAV:  23    -0.789759109228E+03    0.60500E-05   -0.10996E-04 12096   0.149E-02    0.512E-02
DAV:  24    -0.789759109021E+03    0.20675E-06   -0.28475E-05  8784   0.913E-03
  11 F= -.78975911E+03 E0= -.78973810E+03  d E =-.467930E+00  mag=    -0.3681
       N       E                     dE             d eps       ncg     rms          rms(c)
DAV:   1    -0.789854531452E+03   -0.95422E-01   -0.75050E+00 11904   0.462E+00    0.247E+00
DAV:   2    -0.789894893158E+03   -0.40362E-01   -0.51338E-01 14664   0.132E+00    0.411E+00
DAV:   3    -0.789875883964E+03    0.19009E-01   -0.10160E+00 17220   0.919E-01    0.183E+00
DAV:   4    -0.789869949924E+03    0.59340E-02   -0.10636E-01 14760   0.548E-01    0.187E+00
DAV:   5    -0.789858487394E+03    0.11463E-01   -0.43160E-02 14772   0.387E-01    0.881E-01
DAV:   6    -0.789857245638E+03    0.12418E-02   -0.13967E-02 13512   0.213E-01    0.392E-01
DAV:   7    -0.789861151080E+03   -0.39054E-02   -0.25886E-02 15000   0.188E-01    0.123E+00
DAV:   8    -0.789861088927E+03    0.62152E-04   -0.19569E-03 13236   0.110E-01    0.120E+00
DAV:   9    -0.789856873208E+03    0.42157E-02   -0.13434E-02 15408   0.216E-01    0.366E-01
DAV:  10    -0.789857342062E+03   -0.46885E-03   -0.74681E-03 13776   0.130E-01    0.382E-01
DAV:  11    -0.789857816908E+03   -0.47485E-03   -0.87570E-04 14436   0.768E-02    0.208E-01
DAV:  12    -0.789857980144E+03   -0.16324E-03   -0.16005E-03 13932   0.669E-02    0.125E-01
DAV:  13    -0.789857990903E+03   -0.10759E-04   -0.95266E-04 13800   0.361E-02    0.113E-01
DAV:  14    -0.789857992115E+03   -0.12121E-05   -0.15676E-04 13740   0.256E-02    0.646E-02
DAV:  15    -0.789857986351E+03    0.57644E-05   -0.87222E-05 12408   0.147E-02
  12 F= -.78985799E+03 E0= -.78983695E+03  d E =-.988773E-01  mag=    -0.3240
       N       E                     dE             d eps       ncg     rms          rms(c)
DAV:   1    -0.789873161529E+03   -0.15169E-01   -0.55189E-01 11520   0.131E+00    0.546E-01
DAV:   2    -0.789874901987E+03   -0.17405E-02   -0.20729E-02 14232   0.256E-01    0.602E-01
DAV:   3    -0.789874393382E+03    0.50861E-03   -0.68136E-03 17484   0.170E-01    0.378E-01
DAV:   4    -0.789874188807E+03    0.20458E-03   -0.96468E-04 14376   0.711E-02    0.145E-01
DAV:   5    -0.789874145778E+03    0.43028E-04   -0.79253E-04 14208   0.492E-02    0.124E-01
DAV:   6    -0.789874136647E+03    0.91318E-05   -0.27752E-04 14184   0.319E-02    0.872E-02
DAV:   7    -0.789874120998E+03    0.15649E-04   -0.10943E-04 13500   0.202E-02    0.338E-02
DAV:   8    -0.789874122114E+03   -0.11161E-05   -0.38183E-05  9708   0.107E-02
  13 F= -.78987412E+03 E0= -.78985315E+03  d E =-.161358E-01  mag=    -0.3313
       N       E                     dE             d eps       ncg     rms          rms(c)
DAV:   1    -0.789894699358E+03   -0.20578E-01   -0.31834E+00 11520   0.312E+00    0.122E+00
DAV:   2    -0.789902993871E+03   -0.82945E-02   -0.11641E-01 14112   0.557E-01    0.127E+00
DAV:   3    -0.789901753085E+03    0.12408E-02   -0.53057E-02 16824   0.388E-01    0.963E-01
DAV:   4    -0.789900101935E+03    0.16512E-02   -0.96238E-03 15252   0.188E-01    0.314E-01
DAV:   5    -0.789900106846E+03   -0.49115E-05   -0.36994E-03 14148   0.999E-02    0.200E-01
DAV:   6    -0.789900081626E+03    0.25221E-04   -0.10950E-03 13992   0.637E-02    0.166E-01
DAV:   7    -0.789900030680E+03    0.50946E-04   -0.40352E-04 14508   0.407E-02    0.473E-02
DAV:   8    -0.789900045736E+03   -0.15056E-04   -0.12719E-04 13908   0.207E-02    0.536E-02
DAV:   9    -0.789900038002E+03    0.77338E-05   -0.36335E-05  9252   0.132E-02
  14 F= -.78990004E+03 E0= -.78987907E+03  d E =-.259159E-01  mag=    -0.3467
       N       E                     dE             d eps       ncg     rms          rms(c)
DAV:   1    -0.789921445844E+03   -0.21400E-01   -0.46348E+00 11520   0.384E+00    0.824E-01
DAV:   2    -0.789931517551E+03   -0.10072E-01   -0.11577E-01 13944   0.588E-01    0.110E+00
DAV:   3    -0.789929639808E+03    0.18777E-02   -0.22579E-02 16800   0.273E-01    0.609E-01
DAV:   4    -0.789929293650E+03    0.34616E-03   -0.44527E-03 14196   0.135E-01    0.324E-01
DAV:   5    -0.789929083723E+03    0.20993E-03   -0.22550E-03 14532   0.953E-02    0.243E-01
DAV:   6    -0.789929073277E+03    0.10446E-04   -0.15714E-03 14028   0.665E-02    0.194E-01
DAV:   7    -0.789929001536E+03    0.71741E-04   -0.65098E-04 14700   0.457E-02    0.728E-02
DAV:   8    -0.789929024144E+03   -0.22608E-04   -0.28867E-04 13668   0.234E-02    0.746E-02
DAV:   9    -0.789929021530E+03    0.26137E-05   -0.39307E-05  9984   0.128E-02
  15 F= -.78992902E+03 E0= -.78990796E+03  d E =-.289835E-01  mag=    -0.3534
       N       E                     dE             d eps       ncg     rms          rms(c)
DAV:   1    -0.789260332620E+03    0.66869E+00   -0.11839E+02 11520   0.189E+01    0.650E+00
DAV:   2    -0.789689081337E+03   -0.42875E+00   -0.57084E+00 14568   0.366E+00    0.593E+00
DAV:   3    -0.789573805631E+03    0.11528E+00   -0.13279E+00 16104   0.200E+00    0.424E+00
DAV:   4    -0.789523086818E+03    0.50719E-01   -0.74585E-01 14748   0.135E+00    0.245E+00
DAV:   5    -0.789511993857E+03    0.11093E-01   -0.23009E-01 14808   0.906E-01    0.214E+00
DAV:   6    -0.789502274979E+03    0.97189E-02   -0.12202E-01 15660   0.591E-01    0.128E+00
DAV:   7    -0.789500858633E+03    0.14163E-02   -0.68287E-02 14520   0.409E-01    0.993E-01
DAV:   8    -0.789499586934E+03    0.12717E-02   -0.17230E-02 14976   0.269E-01    0.617E-01
DAV:   9    -0.789499265069E+03    0.32186E-03   -0.86324E-03 14556   0.163E-01    0.386E-01
DAV:  10    -0.789499719649E+03   -0.45458E-03   -0.38559E-03 13908   0.958E-02    0.416E-01
DAV:  11    -0.789499159151E+03    0.56050E-03   -0.53817E-03 16152   0.121E-01    0.208E-01
DAV:  12    -0.789499234934E+03   -0.75783E-04   -0.10026E-03 12852   0.545E-02    0.185E-01
DAV:  13    -0.789499123802E+03    0.11113E-03   -0.61823E-04 14304   0.387E-02    0.880E-02
DAV:  14    -0.789499139456E+03   -0.15654E-04   -0.25247E-04 13332   0.245E-02    0.784E-02
DAV:  15    -0.789499128308E+03    0.11148E-04   -0.84531E-05 10140   0.158E-02    0.252E-02
DAV:  16    -0.789499131473E+03   -0.31652E-05   -0.19603E-05  7728   0.757E-03
  16 F= -.78949913E+03 E0= -.78947624E+03  d E =0.429890E+00  mag=    -0.3145
       N       E                     dE             d eps       ncg     rms          rms(c)
DAV:   1    -0.789899473663E+03   -0.40035E+00   -0.28526E+01 11808   0.946E+00    0.414E+00
DAV:   2    -0.789987607886E+03   -0.88134E-01   -0.11208E+00 14208   0.194E+00    0.375E+00
DAV:   3    -0.789977584932E+03    0.10023E-01   -0.64753E-01 17652   0.121E+00    0.233E+00
DAV:   4    -0.789964339497E+03    0.13245E-01   -0.58783E-02 13980   0.532E-01    0.167E+00
DAV:   5    -0.789951329415E+03    0.13010E-01   -0.41396E-02 14916   0.397E-01    0.112E+00
DAV:   6    -0.789945575745E+03    0.57537E-02   -0.33789E-02 15564   0.447E-01    0.109E+00
DAV:   7    -0.789946468188E+03   -0.89244E-03   -0.22464E-02 13200   0.234E-01    0.107E+00
DAV:   8    -0.789944983307E+03    0.14849E-02   -0.63698E-03 13332   0.114E-01    0.654E-01
DAV:   9    -0.789943794603E+03    0.11887E-02   -0.13898E-02 14016   0.142E-01    0.302E-01
DAV:  10    -0.789944016295E+03   -0.22169E-03   -0.19719E-03 13116   0.822E-02    0.189E-01
DAV:  11    -0.789944055846E+03   -0.39551E-04   -0.11800E-03 14988   0.613E-02    0.221E-01
DAV:  12    -0.789943888838E+03    0.16701E-03   -0.74390E-04 16452   0.499E-02    0.131E-01
DAV:  13    -0.789943914557E+03   -0.25719E-04   -0.14780E-04 12720   0.261E-02    0.590E-02
DAV:  14    -0.789943915276E+03   -0.71834E-06   -0.85158E-05 13380   0.173E-02
  17 F= -.78994392E+03 E0= -.78992218E+03  d E =-.444784E+00  mag=    -0.3079
       N       E                     dE             d eps       ncg     rms          rms(c)
DAV:   1    -0.789983680364E+03   -0.39766E-01   -0.15739E+00 11520   0.207E+00    0.884E-01
DAV:   2    -0.789989592006E+03   -0.59116E-02   -0.62087E-02 14160   0.369E-01    0.127E+00
DAV:   3    -0.789986094554E+03    0.34975E-02   -0.29379E-02 16692   0.268E-01    0.512E-01
DAV:   4    -0.789986721368E+03   -0.62681E-03   -0.36555E-03 13980   0.126E-01    0.470E-01
DAV:   5    -0.789986133764E+03    0.58760E-03   -0.17713E-03 15180   0.903E-02    0.223E-01
DAV:   6    -0.789986133738E+03    0.25477E-07   -0.14545E-03 13896   0.597E-02    0.123E-01
DAV:   7    -0.789986165921E+03   -0.32183E-04   -0.37109E-04 14184   0.364E-02    0.108E-01
DAV:   8    -0.789986138073E+03    0.27849E-04   -0.20870E-04 13560   0.212E-02    0.408E-02
DAV:   9    -0.789986146091E+03   -0.80185E-05   -0.51634E-05 11856   0.119E-02
  18 F= -.78998615E+03 E0= -.78996462E+03  d E =-.422308E-01  mag=    -0.3169
       N       E                     dE             d eps       ncg     rms          rms(c)
DAV:   1    -0.790020815939E+03   -0.34678E-01   -0.11109E+01 11520   0.552E+00    0.270E+00
DAV:   2    -0.790077128684E+03   -0.56313E-01   -0.51043E-01 14340   0.104E+00    0.419E+00
DAV:   3    -0.790033462637E+03    0.43666E-01   -0.34729E-01 16488   0.789E-01    0.120E+00
DAV:   4    -0.790039166725E+03   -0.57041E-02   -0.24348E-02 13524   0.277E-01    0.122E+00
DAV:   5    -0.790035089535E+03    0.40772E-02   -0.30958E-02 14976   0.214E-01    0.555E-01
DAV:   6    -0.790036083718E+03   -0.99418E-03   -0.11516E-02 14052   0.156E-01    0.726E-01
DAV:   7    -0.790035162630E+03    0.92109E-03   -0.34571E-03 13872   0.113E-01    0.371E-01
DAV:   8    -0.790034952665E+03    0.20996E-03   -0.30370E-03 15384   0.664E-02    0.150E-01
DAV:   9    -0.790035086578E+03   -0.13391E-03   -0.42949E-04 13080   0.452E-02    0.697E-02
DAV:  10    -0.790035097116E+03   -0.10538E-04   -0.13925E-04 13536   0.204E-02    0.676E-02
DAV:  11    -0.790035080121E+03    0.16995E-04   -0.63711E-05 10416   0.140E-02    0.287E-02
DAV:  12    -0.790035081787E+03   -0.16655E-05   -0.16314E-05  7812   0.832E-03
  19 F= -.79003508E+03 E0= -.79001379E+03  d E =-.489357E-01  mag=    -0.3345
       N       E                     dE             d eps       ncg     rms          rms(c)
DAV:   1    -0.790042639914E+03   -0.75598E-02   -0.16432E-01 11616   0.715E-01    0.287E-01
DAV:   2    -0.790043543329E+03   -0.90342E-03   -0.11095E-02 14244   0.166E-01    0.562E-01
DAV:   3    -0.790042904251E+03    0.63908E-03   -0.46159E-03 15612   0.105E-01    0.132E-01
DAV:   4    -0.790043056721E+03   -0.15247E-03   -0.12600E-03 14016   0.578E-02    0.209E-01
DAV:   5    -0.790042951194E+03    0.10553E-03   -0.63021E-04 14976   0.395E-02    0.694E-02
DAV:   6    -0.790042955727E+03   -0.45326E-05   -0.22710E-04 13320   0.235E-02    0.572E-02
DAV:   7    -0.790042954737E+03    0.99003E-06   -0.48480E-05 12600   0.154E-02
  20 F= -.79004295E+03 E0= -.79002153E+03  d E =-.787295E-02  mag=    -0.3365
       N       E                     dE             d eps       ncg     rms          rms(c)
DAV:   1    -0.790054714168E+03   -0.11758E-01   -0.51240E-01 11520   0.126E+00    0.277E-01
DAV:   2    -0.790055826884E+03   -0.11127E-02   -0.12906E-02 13860   0.186E-01    0.191E-01
DAV:   3    -0.790055794351E+03    0.32533E-04   -0.24441E-03 16080   0.822E-02    0.260E-01
DAV:   4    -0.790055637891E+03    0.15646E-03   -0.93076E-04 15456   0.503E-02    0.623E-02
DAV:   5    -0.790055658742E+03   -0.20851E-04   -0.27765E-04 13992   0.325E-02    0.106E-01
DAV:   6    -0.790055636456E+03    0.22286E-04   -0.12965E-04 14004   0.231E-02    0.402E-02
DAV:   7    -0.790055638556E+03   -0.21006E-05   -0.61483E-05 11580   0.134E-02
  21 F= -.79005564E+03 E0= -.79003398E+03  d E =-.126838E-01  mag=    -0.3384
       N       E                     dE             d eps       ncg     rms          rms(c)
DAV:   1    -0.790073996381E+03   -0.18360E-01   -0.12444E+00 11520   0.194E+00    0.321E-01
DAV:   2    -0.790077541822E+03   -0.35454E-02   -0.42743E-02 13920   0.322E-01    0.939E-01
DAV:   3    -0.790075761129E+03    0.17807E-02   -0.10079E-02 14892   0.146E-01    0.164E-01
DAV:   4    -0.790076065748E+03   -0.30462E-03   -0.15401E-03 13704   0.712E-02    0.213E-01
DAV:   5    -0.790075967965E+03    0.97783E-04   -0.58106E-04 14196   0.470E-02    0.892E-02
DAV:   6    -0.790075974263E+03   -0.62983E-05   -0.53530E-04 13944   0.320E-02    0.133E-01
DAV:   7    -0.790075927814E+03    0.46449E-04   -0.25147E-04 14508   0.273E-02    0.601E-02
DAV:   8    -0.790075931716E+03   -0.39014E-05   -0.80915E-05 13044   0.143E-02
  22 F= -.79007593E+03 E0= -.79005427E+03  d E =-.202932E-01  mag=    -0.3374
       N       E                     dE             d eps       ncg     rms          rms(c)
DAV:   1    -0.789934451823E+03    0.14148E+00   -0.53532E+01 11664   0.128E+01    0.579E+00
DAV:   2    -0.790168329152E+03   -0.23388E+00   -0.63842E+00 15744   0.375E+00    0.808E+00
DAV:   3    -0.790128561552E+03    0.39768E-01   -0.33888E+00 16344   0.213E+00    0.495E+00
DAV:   4    -0.789997470562E+03    0.13109E+00   -0.38199E-01 14832   0.127E+00    0.275E+00
DAV:   5    -0.789983993112E+03    0.13477E-01   -0.22930E-01 14208   0.848E-01    0.173E+00
DAV:   6    -0.789984549980E+03   -0.55687E-03   -0.57877E-02 14820   0.567E-01    0.209E+00
DAV:   7    -0.789982646344E+03    0.19036E-02   -0.45541E-02 15372   0.460E-01    0.146E+00
DAV:   8    -0.789979109575E+03    0.35368E-02   -0.63947E-02 15336   0.391E-01    0.116E+00
DAV:   9    -0.789983004392E+03   -0.38948E-02   -0.36611E-02 13920   0.288E-01    0.167E+00
DAV:  10    -0.789973824930E+03    0.91795E-02   -0.21772E-02 14688   0.275E-01    0.583E-01
DAV:  11    -0.789974877344E+03   -0.10524E-02   -0.79328E-03 13500   0.141E-01    0.290E-01
DAV:  12    -0.789975311949E+03   -0.43461E-03   -0.35660E-03 13548   0.863E-02    0.265E-01
DAV:  13    -0.789975300561E+03    0.11387E-04   -0.14067E-03 14100   0.623E-02    0.111E-01
DAV:  14    -0.789975332730E+03   -0.32169E-04   -0.31922E-04 13284   0.267E-02    0.114E-01
DAV:  15    -0.789975315917E+03    0.16813E-04   -0.31001E-04 13440   0.241E-02    0.729E-02
DAV:  16    -0.789975325450E+03   -0.95325E-05   -0.64120E-05 12936   0.143E-02
  23 F= -.78997533E+03 E0= -.78995485E+03  d E =0.100606E+00  mag=    -0.3149
       N       E                     dE             d eps       ncg     rms          rms(c)
DAV:   1    -0.790159391703E+03   -0.18408E+00   -0.15877E+01 11520   0.682E+00    0.418E+00
DAV:   2    -0.790355720612E+03   -0.19633E+00   -0.22994E+00 15528   0.260E+00    0.684E+00
DAV:   3    -0.790294777841E+03    0.60943E-01   -0.61446E+00 16800   0.159E+00    0.396E+00
DAV:   4    -0.790217561625E+03    0.77216E-01   -0.23262E-01 15456   0.108E+00    0.250E+00
DAV:   5    -0.790183475244E+03    0.34086E-01   -0.14593E-01 14316   0.740E-01    0.244E+00
DAV:   6    -0.790156658954E+03    0.26816E-01   -0.10075E-01 14880   0.554E-01    0.139E+00
DAV:   7    -0.790158597022E+03   -0.19381E-02   -0.32957E-02 14340   0.337E-01    0.123E+00
DAV:   8    -0.790165855855E+03   -0.72588E-02   -0.71294E-03 12660   0.146E-01    0.148E+00
DAV:   9    -0.790161780809E+03    0.40750E-02   -0.12441E-03 13080   0.835E-02    0.155E+00
DAV:  10    -0.790174909282E+03   -0.13128E-01   -0.39185E-02 15972   0.460E-01    0.149E+00
DAV:  11    -0.790167308747E+03    0.76005E-02   -0.94580E-02 14904   0.650E-01    0.201E+00
DAV:  12    -0.790165641843E+03    0.16669E-02   -0.20512E-02 13020   0.263E-01    0.138E+00
DAV:  13    -0.790167538851E+03   -0.18970E-02   -0.14094E-02 15384   0.237E-01    0.431E-01
DAV:  14    -0.790170484781E+03   -0.29459E-02   -0.58804E-03 13116   0.156E-01    0.315E-01
DAV:  15    -0.790170980679E+03   -0.49590E-03   -0.16536E-03 14304   0.968E-02    0.137E-01
DAV:  16    -0.790171017737E+03   -0.37058E-04   -0.11809E-03 14184   0.580E-02    0.121E-01
DAV:  17    -0.790170996993E+03    0.20744E-04   -0.10802E-04 13020   0.202E-02    0.862E-02
DAV:  18    -0.790170998580E+03   -0.15867E-05   -0.75298E-05 12516   0.153E-02
  24 F= -.79017100E+03 E0= -.79014914E+03  d E =-.195673E+00  mag=    -0.3262
       N       E                     dE             d eps       ncg     rms          rms(c)
DAV:   1    -0.790176948260E+03   -0.59513E-02   -0.12594E-01 11520   0.631E-01    0.306E-01
DAV:   2    -0.790178533080E+03   -0.15848E-02   -0.12571E-02 15408   0.190E-01    0.948E-01
DAV:   3    -0.790176686077E+03    0.18470E-02   -0.52261E-03 15720   0.129E-01    0.153E-01
DAV:   4    -0.790177152778E+03   -0.46670E-03   -0.14936E-03 13764   0.714E-02    0.220E-01
DAV:   5    -0.790177126486E+03    0.26292E-04   -0.60612E-04 14256   0.474E-02    0.142E-01
DAV:   6    -0.790177085610E+03    0.40876E-04   -0.34459E-04 13440   0.272E-02    0.469E-02
DAV:   7    -0.790177096901E+03   -0.11291E-04   -0.79063E-05 13332   0.171E-02    0.556E-02
DAV:   8    -0.790177089965E+03    0.69361E-05   -0.37304E-05  8652   0.107E-02
  25 F= -.79017709E+03 E0= -.79015535E+03  d E =-.609139E-02  mag=    -0.3319
       N       E                     dE             d eps       ncg     rms          rms(c)
DAV:   1    -0.790189113900E+03   -0.12017E-01   -0.15142E+00 11520   0.211E+00    0.105E+00
DAV:   2    -0.790207579872E+03   -0.18466E-01   -0.13740E-01 15588   0.641E-01    0.319E+00
DAV:   3    -0.790186439934E+03    0.21140E-01   -0.48559E-02 16056   0.441E-01    0.421E-01
DAV:   4    -0.790191619129E+03   -0.51792E-02   -0.27229E-02 13776   0.222E-01    0.884E-01
DAV:   5    -0.790190525366E+03    0.10938E-02   -0.99364E-03 14172   0.147E-01    0.412E-01
DAV:   6    -0.790190376676E+03    0.14869E-03   -0.44939E-03 13692   0.827E-02    0.226E-01
DAV:   7    -0.790190500451E+03   -0.12377E-03   -0.37839E-04 12828   0.506E-02    0.195E-01
DAV:   8    -0.790190392220E+03    0.10823E-03   -0.51254E-04 14712   0.325E-02    0.666E-02
DAV:   9    -0.790190431832E+03   -0.39612E-04   -0.10943E-04 12852   0.195E-02    0.845E-02
DAV:  10    -0.790190420492E+03    0.11339E-04   -0.49709E-05 10692   0.134E-02    0.438E-02
DAV:  11    -0.790190418975E+03    0.15178E-05   -0.50089E-05  9372   0.977E-03
  26 F= -.79019042E+03 E0= -.79016865E+03  d E =-.133290E-01  mag=    -0.3280
       N       E                     dE             d eps       ncg     rms          rms(c)
DAV:   1    -0.790191649008E+03   -0.12285E-02   -0.50542E-02 11544   0.387E-01    0.267E-01
DAV:   2    -0.790192915382E+03   -0.12664E-02   -0.12288E-02 16608   0.180E-01    0.888E-01
DAV:   3    -0.790191262467E+03    0.16529E-02   -0.57951E-03 16824   0.130E-01    0.156E-01
DAV:   4    -0.790191622642E+03   -0.36018E-03   -0.89301E-04 13692   0.582E-02    0.155E-01
DAV:   5    -0.790191657378E+03   -0.34736E-04   -0.34411E-04 13488   0.351E-02    0.116E-01
DAV:   6    -0.790191625821E+03    0.31558E-04   -0.16242E-04 13200   0.219E-02    0.403E-02
DAV:   7    -0.790191633501E+03   -0.76807E-05   -0.41178E-05 11700   0.120E-02
  27 F= -.79019163E+03 E0= -.79016980E+03  d E =-.121453E-02  mag=    -0.3307
       N       E                     dE             d eps       ncg     rms          rms(c)
DAV:   1    -0.790194433687E+03   -0.28079E-02   -0.39440E-02 11568   0.344E-01    0.555E-02
DAV:   2    -0.790194514236E+03   -0.80549E-04   -0.92832E-04 13848   0.529E-02    0.867E-02
DAV:   3    -0.790194500132E+03    0.14104E-04   -0.89103E-05 13740   0.210E-02    0.336E-02
DAV:   4    -0.790194500005E+03    0.12681E-06   -0.23371E-05  9300   0.101E-02
  28 F= -.79019450E+03 E0= -.79017264E+03  d E =-.286650E-02  mag=    -0.3315
       N       E                     dE             d eps       ncg     rms          rms(c)
DAV:   1    -0.790209658535E+03   -0.15158E-01   -0.15146E+00 11520   0.213E+00    0.518E-01
DAV:   2    -0.790216574470E+03   -0.69159E-02   -0.91300E-02 14424   0.451E-01    0.171E+00
DAV:   3    -0.790210655699E+03    0.59188E-02   -0.29225E-02 15360   0.260E-01    0.312E-01
DAV:   4    -0.790211717825E+03   -0.10621E-02   -0.33848E-03 13548   0.107E-01    0.206E-01
DAV:   5    -0.790211737897E+03   -0.20071E-04   -0.75385E-04 13668   0.581E-02    0.104E-01
DAV:   6    -0.790211703769E+03    0.34127E-04   -0.43250E-04 13884   0.338E-02    0.126E-01
DAV:   7    -0.790211668557E+03    0.35212E-04   -0.23891E-04 14472   0.320E-02    0.999E-02
DAV:   8    -0.790211662777E+03    0.57803E-05   -0.11379E-04 13500   0.200E-02    0.752E-02
DAV:   9    -0.790211654867E+03    0.79100E-05   -0.60401E-05 10992   0.130E-02
  29 F= -.79021165E+03 E0= -.79018993E+03  d E =-.171549E-01  mag=    -0.3349
       N       E                     dE             d eps       ncg     rms          rms(c)
DAV:   1    -0.790234134818E+03   -0.22472E-01   -0.79660E+00 11520   0.488E+00    0.792E-01
DAV:   2    -0.790258339859E+03   -0.24205E-01   -0.30301E-01 13968   0.838E-01    0.267E+00
DAV:   3    -0.790244396882E+03    0.13943E-01   -0.10638E-01 15108   0.388E-01    0.418E-01
DAV:   4    -0.790247300711E+03   -0.29038E-02   -0.62579E-03 13164   0.171E-01    0.336E-01
DAV:   5    -0.790246993998E+03    0.30671E-03   -0.24697E-03 14232   0.998E-02    0.230E-01
DAV:   6    -0.790246902586E+03    0.91411E-04   -0.15792E-03 15144   0.704E-02    0.243E-01
DAV:   7    -0.790246709928E+03    0.19266E-03   -0.11380E-03 14664   0.575E-02    0.106E-01
DAV:   8    -0.790246748727E+03   -0.38799E-04   -0.36510E-04 14136   0.341E-02    0.104E-01
DAV:   9    -0.790246742220E+03    0.65074E-05   -0.10870E-04 13212   0.201E-02    0.574E-02
DAV:  10    -0.790246740338E+03    0.18817E-05   -0.60634E-05 10716   0.117E-02
  30 F= -.79024674E+03 E0= -.79022496E+03  d E =-.350855E-01  mag=    -0.3273
       N       E                     dE             d eps       ncg     rms          rms(c)
DAV:   1    -0.790213169649E+03    0.33573E-01   -0.18431E+01 11520   0.769E+00    0.528E+00
DAV:   2    -0.790554701475E+03   -0.34153E+00   -0.41445E+00 17124   0.374E+00    0.917E+00
DAV:   3    -0.790447471355E+03    0.10723E+00   -0.90183E+00 17184   0.217E+00    0.722E+00
DAV:   4    -0.790237690790E+03    0.20978E+00   -0.22719E+00 15024   0.120E+00    0.448E+00
DAV:   5    -0.790171497768E+03    0.66193E-01   -0.55155E-01 15228   0.871E-01    0.262E+00
DAV:   6    -0.790168166079E+03    0.33317E-02   -0.16743E-01 14652   0.714E-01    0.312E+00
DAV:   7    -0.790183002115E+03   -0.14836E-01   -0.10261E-01 13944   0.426E-01    0.377E+00
DAV:   8    -0.790180246682E+03    0.27554E-02   -0.13793E-02 12600   0.237E-01    0.350E+00
DAV:   9    -0.790176692172E+03    0.35545E-02   -0.55796E-02 14520   0.380E-01    0.215E+00
DAV:  10    -0.790175999118E+03    0.69305E-03   -0.78610E-02 14112   0.414E-01    0.167E+00
DAV:  11    -0.790179253468E+03   -0.32544E-02   -0.31144E-02 13224   0.262E-01    0.161E+00
DAV:  12    -0.790226695081E+03   -0.47442E-01   -0.19250E-01 15240   0.435E-01    0.463E+00
DAV:  13    -0.790202843061E+03    0.23852E-01   -0.39604E-02 12420   0.386E-01    0.441E+00
DAV:  14    -0.790173413831E+03    0.29429E-01   -0.17452E-01 14328   0.407E-01    0.181E+00
DAV:  15    -0.790190919152E+03   -0.17505E-01   -0.17452E-02 11844   0.288E-01    0.153E+00
DAV:  16    -0.790186286715E+03    0.46324E-02   -0.31762E-02 15468   0.407E-01    0.801E-01
DAV:  17    -0.790187019936E+03   -0.73322E-03   -0.11765E-02 14184   0.253E-01    0.719E-01
DAV:  18    -0.790187936872E+03   -0.91694E-03   -0.42112E-03 13932   0.130E-01    0.608E-01
DAV:  19    -0.790190048652E+03   -0.21118E-02   -0.56028E-03 14328   0.160E-01    0.365E-01
DAV:  20    -0.790190745823E+03   -0.69717E-03   -0.36218E-03 14232   0.148E-01    0.199E-01
DAV:  21    -0.790190481167E+03    0.26466E-03   -0.92798E-04 13044   0.614E-02    0.153E-01
DAV:  22    -0.790190302372E+03    0.17880E-03   -0.37887E-04 13956   0.317E-02    0.184E-01
DAV:  23    -0.790190174307E+03    0.12806E-03   -0.95762E-05 13332   0.209E-02    0.174E-01
DAV:  24    -0.790190007096E+03    0.16721E-03   -0.60884E-05 13572   0.181E-02    0.176E-01
DAV:  25    -0.790189616755E+03    0.39034E-03   -0.15797E-04 14532   0.243E-02    0.194E-01
DAV:  26    -0.790189334135E+03    0.28262E-03   -0.13045E-04 13572   0.177E-02    0.204E-01
DAV:  27    -0.790189177867E+03    0.15627E-03   -0.39161E-05 10368   0.912E-03    0.208E-01
DAV:  28    -0.790189065069E+03    0.11280E-03   -0.20584E-05  9252   0.674E-03    0.209E-01
DAV:  29    -0.790188869543E+03    0.19553E-03   -0.48058E-05 11220   0.961E-03    0.210E-01
DAV:  30    -0.790188632906E+03    0.23664E-03   -0.85151E-05 12876   0.122E-02    0.204E-01
DAV:  31    -0.790188574573E+03    0.58334E-04   -0.18671E-05  9000   0.655E-03    0.200E-01
DAV:  32    -0.790188469297E+03    0.10528E-03   -0.20876E-05  8136   0.583E-03    0.195E-01
DAV:  33    -0.790188456595E+03    0.12703E-04   -0.49796E-06  7452   0.365E-03    0.192E-01
DAV:  34    -0.790187843963E+03    0.61263E-03   -0.79827E-04 14364   0.347E-02    0.114E-01
DAV:  35    -0.790187979650E+03   -0.13569E-03   -0.81596E-05 11592   0.178E-02    0.113E-01
DAV:  36    -0.790187890439E+03    0.89212E-04   -0.18379E-03 14676   0.440E-02    0.170E-01
DAV:  37    -0.790187939586E+03   -0.49148E-04   -0.20444E-03 12420   0.571E-02    0.110E-01
DAV:  38    -0.790187878710E+03    0.60876E-04   -0.57708E-04 11868   0.325E-02    0.292E-02
DAV:  39    -0.790187906949E+03   -0.28239E-04   -0.16999E-05  9612   0.887E-03    0.230E-02
DAV:  40    -0.790187915087E+03   -0.81378E-05   -0.10678E-05  6840   0.367E-03
  31 F= -.79018792E+03 E0= -.79016532E+03  d E =0.588253E-01  mag=    -0.1625
       N       E                     dE             d eps       ncg     rms          rms(c)
DAV:   1    -0.790285386340E+03   -0.97479E-01   -0.80691E+00 11520   0.509E+00    0.380E+00
DAV:   2    -0.790535156607E+03   -0.24977E+00   -0.22235E+00 17124   0.271E+00    0.836E+00
DAV:   3    -0.790435373812E+03    0.99783E-01   -0.77578E+00 17496   0.166E+00    0.537E+00
DAV:   4    -0.790297909187E+03    0.13746E+00   -0.81142E-01 15624   0.102E+00    0.262E+00
DAV:   5    -0.790283794144E+03    0.14115E-01   -0.40237E-01 14736   0.770E-01    0.237E+00
DAV:   6    -0.790277539516E+03    0.62546E-02   -0.78073E-02 14364   0.510E-01    0.325E+00
DAV:   7    -0.790266977840E+03    0.10562E-01   -0.13874E-02 13116   0.256E-01    0.310E+00
DAV:   8    -0.790247751066E+03    0.19227E-01   -0.20575E-02 16908   0.300E-01    0.193E+00
DAV:   9    -0.790249055392E+03   -0.13043E-02   -0.10131E-01 14160   0.231E-01    0.168E+00
DAV:  10    -0.790254088087E+03   -0.50327E-02   -0.33442E-03 12060   0.154E-01    0.160E+00
DAV:  11    -0.790245238881E+03    0.88492E-02   -0.74861E-03 15480   0.187E-01    0.183E+00
DAV:  12    -0.790245001709E+03    0.23717E-03   -0.34775E-02 13416   0.190E-01    0.203E+00
DAV:  13    -0.790244020772E+03    0.98094E-03   -0.15410E-01 13404   0.336E-01    0.108E+00
DAV:  14    -0.790247648017E+03   -0.36272E-02   -0.26638E-02 13680   0.269E-01    0.668E-01
DAV:  15    -0.790246078991E+03    0.15690E-02   -0.64841E-03 13680   0.142E-01    0.503E-01
DAV:  16    -0.790245872816E+03    0.20618E-03   -0.30262E-03 13740   0.714E-02    0.409E-01
DAV:  17    -0.790245548563E+03    0.32425E-03   -0.95145E-03 12756   0.903E-02    0.551E-01
DAV:  18    -0.790246557299E+03   -0.10087E-02   -0.11621E-02 15372   0.125E-01    0.640E-01
DAV:  19    -0.790244760012E+03    0.17973E-02   -0.40761E-03 12420   0.820E-02    0.507E-01
DAV:  20    -0.790244550300E+03    0.20971E-03   -0.86013E-04 13284   0.552E-02    0.306E-01
DAV:  21    -0.790245007118E+03   -0.45682E-03   -0.62675E-04 12204   0.478E-02    0.284E-01
DAV:  22    -0.790244885513E+03    0.12160E-03   -0.41239E-04 14196   0.411E-02    0.128E-01
DAV:  23    -0.790244974109E+03   -0.88595E-04   -0.25359E-04 13476   0.312E-02    0.468E-02
DAV:  24    -0.790245022061E+03   -0.47952E-04   -0.97959E-05 12720   0.175E-02    0.345E-02
DAV:  25    -0.790245035305E+03   -0.13245E-04   -0.78375E-05 10764   0.107E-02    0.443E-02
DAV:  26    -0.790245030511E+03    0.47947E-05   -0.28836E-05  8352   0.833E-03
  32 F= -.79024503E+03 E0= -.79021811E+03  d E =-.571154E-01  mag=     0.4693
       N       E                     dE             d eps       ncg     rms          rms(c)
DAV:   1    -0.790245089354E+03   -0.54049E-04   -0.11450E-01 11520   0.589E-01    0.546E-01
DAV:   2    -0.790287138759E+03   -0.42049E-01   -0.21182E-01 17904   0.454E-01    0.418E+00
DAV:   3    -0.790234683971E+03    0.52455E-01   -0.42023E-01 15744   0.384E-01    0.107E+00
DAV:   4    -0.790243910628E+03   -0.92267E-02   -0.12712E-02 12480   0.201E-01    0.264E-01
DAV:   5    -0.790245038869E+03   -0.11282E-02   -0.30933E-03 13572   0.916E-02    0.386E-01
DAV:   6    -0.790245149834E+03   -0.11096E-03   -0.38888E-04 12408   0.350E-02    0.432E-01
DAV:   7    -0.790244319014E+03    0.83082E-03   -0.18760E-03 14016   0.493E-02    0.207E-01
DAV:   8    -0.790244435582E+03   -0.11657E-03   -0.99252E-04 13692   0.471E-02    0.717E-02
DAV:   9    -0.790244570749E+03   -0.13517E-03   -0.22865E-04 12180   0.234E-02    0.984E-02
DAV:  10    -0.790244533377E+03    0.37371E-04   -0.67336E-05 10452   0.125E-02    0.921E-02
DAV:  11    -0.790244482958E+03    0.50419E-04   -0.17494E-04 11988   0.143E-02    0.704E-02
DAV:  12    -0.790244485422E+03   -0.24637E-05   -0.11571E-04 12396   0.179E-02    0.509E-02
DAV:  13    -0.790244498146E+03   -0.12724E-04   -0.80470E-05 10248   0.145E-02    0.664E-02
DAV:  14    -0.790244488378E+03    0.97678E-05   -0.40248E-05  8208   0.965E-03
  33 F= -.79024449E+03 E0= -.79021774E+03  d E =0.542133E-03  mag=     0.4790
       N       E                     dE             d eps       ncg     rms          rms(c)
DAV:   1    -0.790250802445E+03   -0.63043E-02   -0.10078E+00 11520   0.177E+00    0.572E-01
DAV:   2    -0.790262996029E+03   -0.12194E-01   -0.12363E-01 13956   0.394E-01    0.172E+00
DAV:   3    -0.790252749168E+03    0.10247E-01   -0.15724E-01 16668   0.279E-01    0.740E-01
DAV:   4    -0.790253121924E+03   -0.37276E-03   -0.20837E-02 13524   0.164E-01    0.622E-01
DAV:   5    -0.790252675796E+03    0.44613E-03   -0.10200E-02 14460   0.127E-01    0.477E-01
DAV:   6    -0.790252284930E+03    0.39087E-03   -0.17842E-03 14436   0.786E-02    0.156E-01
DAV:   7    -0.790252629495E+03   -0.34457E-03   -0.87783E-04 12984   0.326E-02    0.262E-01
DAV:   8    -0.790252293666E+03    0.33583E-03   -0.11449E-03 12048   0.311E-02    0.147E-01
DAV:   9    -0.790252479055E+03   -0.18539E-03   -0.28043E-04 12420   0.258E-02    0.160E-01
DAV:  10    -0.790252243236E+03    0.23582E-03   -0.82812E-04 12696   0.344E-02    0.135E-01
DAV:  11    -0.790252219438E+03    0.23798E-04   -0.40800E-04 13884   0.282E-02    0.122E-01
DAV:  12    -0.790252231911E+03   -0.12472E-04   -0.18457E-04 11904   0.214E-02    0.583E-02
DAV:  13    -0.790252244514E+03   -0.12604E-04   -0.60029E-05 11820   0.145E-02    0.258E-02
DAV:  14    -0.790252249835E+03   -0.53205E-05   -0.11113E-05  7740   0.778E-03
  34 F= -.79025225E+03 E0= -.79022550E+03  d E =-.776146E-02  mag=     0.4712
       N       E                     dE             d eps       ncg     rms          rms(c)
DAV:   1    -0.790250194868E+03    0.20496E-02   -0.17551E-01 11520   0.741E-01    0.286E-01
DAV:   2    -0.790254495664E+03   -0.43008E-02   -0.27768E-02 15588   0.224E-01    0.109E+00
DAV:   3    -0.790250270002E+03    0.42257E-02   -0.30280E-02 16248   0.171E-01    0.522E-01
DAV:   4    -0.790250211234E+03    0.58768E-04   -0.47141E-03 13392   0.837E-02    0.119E-01
DAV:   5    -0.790250620135E+03   -0.40890E-03   -0.11265E-03 13476   0.422E-02    0.285E-01
DAV:   6    -0.790250366893E+03    0.25324E-03   -0.37652E-04 12012   0.304E-02    0.203E-01
DAV:   7    -0.790250216850E+03    0.15004E-03   -0.55394E-04 13848   0.270E-02    0.494E-02
DAV:   8    -0.790250329895E+03   -0.11305E-03   -0.14447E-04 11940   0.248E-02    0.813E-02
DAV:   9    -0.790250326466E+03    0.34297E-05   -0.57529E-05  9900   0.126E-02
  35 F= -.79025033E+03 E0= -.79022369E+03  d E =0.192337E-02  mag=     0.4687
       N       E                     dE             d eps       ncg     rms          rms(c)
DAV:   1    -0.790251340275E+03   -0.10104E-02   -0.30615E-02 11520   0.305E-01    0.814E-02
DAV:   2    -0.790251573800E+03   -0.23353E-03   -0.22688E-03 14412   0.644E-02    0.288E-01
DAV:   3    -0.790251377060E+03    0.19674E-03   -0.13579E-03 15276   0.408E-02    0.953E-02
DAV:   4    -0.790251435769E+03   -0.58709E-04   -0.30662E-04 12432   0.198E-02    0.765E-02
DAV:   5    -0.790251450906E+03   -0.15138E-04   -0.14926E-04  9216   0.100E-02    0.803E-02
DAV:   6    -0.790251410248E+03    0.40658E-04   -0.90947E-05 10224   0.111E-02    0.747E-02
DAV:   7    -0.790251389534E+03    0.20714E-04   -0.28300E-04 11160   0.123E-02    0.700E-02
DAV:   8    -0.790251391056E+03   -0.15218E-05   -0.19872E-05  8796   0.952E-03
  36 F= -.79025139E+03 E0= -.79022455E+03  d E =-.106459E-02  mag=     0.4690
       N       E                     dE             d eps       ncg     rms          rms(c)
DAV:   1    -0.790253419737E+03   -0.20302E-02   -0.77640E-02 11520   0.481E-01    0.169E-01
DAV:   2    -0.790259236503E+03   -0.58168E-02   -0.35284E-02 16164   0.162E-01    0.146E+00
DAV:   3    -0.790251841308E+03    0.73952E-02   -0.34105E-02 15180   0.142E-01    0.975E-02
DAV:   4    -0.790253468632E+03   -0.16273E-02   -0.70455E-04 12132   0.455E-02    0.118E-01
DAV:   5    -0.790253552536E+03   -0.83904E-04   -0.11754E-04 13116   0.154E-02    0.144E-01
DAV:   6    -0.790253452272E+03    0.10026E-03   -0.21693E-04 11832   0.159E-02    0.780E-02
DAV:   7    -0.790253469323E+03   -0.17050E-04   -0.10030E-04 10980   0.155E-02    0.436E-02
DAV:   8    -0.790253494508E+03   -0.25185E-04   -0.61350E-05  9576   0.925E-03    0.576E-02
DAV:   9    -0.790253472727E+03    0.21780E-04   -0.38861E-05  8316   0.833E-03    0.479E-02
DAV:  10    -0.790253460696E+03    0.12031E-04   -0.86014E-05  9612   0.944E-03    0.473E-02
DAV:  11    -0.790253463394E+03   -0.26986E-05   -0.75304E-05  9300   0.113E-02
  37 F= -.79025346E+03 E0= -.79022666E+03  d E =-.207234E-02  mag=     0.4712
       N       E                     dE             d eps       ncg     rms          rms(c)
DAV:   1    -0.790255110236E+03   -0.16495E-02   -0.48402E-02 11520   0.380E-01    0.115E-01
DAV:   2    -0.790256893566E+03   -0.17833E-02   -0.10713E-02 14868   0.109E-01    0.817E-01
DAV:   3    -0.790254699219E+03    0.21943E-02   -0.11396E-02 14916   0.886E-02    0.132E-01
DAV:   4    -0.790255171434E+03   -0.47222E-03   -0.55059E-04 12240   0.323E-02    0.866E-02
DAV:   5    -0.790255206229E+03   -0.34794E-04   -0.38202E-05 11796   0.108E-02    0.107E-01
DAV:   6    -0.790255148625E+03    0.57603E-04   -0.12158E-04 10572   0.126E-02    0.554E-02
DAV:   7    -0.790255153814E+03   -0.51885E-05   -0.33980E-05  9480   0.109E-02
  38 F= -.79025515E+03 E0= -.79022843E+03  d E =-.169042E-02  mag=     0.4715
       N       E                     dE             d eps       ncg     rms          rms(c)
DAV:   1    -0.790260392450E+03   -0.52438E-02   -0.80582E+00 11520   0.490E+00    0.642E-01
DAV:   2    -0.790280729100E+03   -0.20337E-01   -0.19085E-01 13380   0.692E-01    0.149E+00
DAV:   3    -0.790276964575E+03    0.37645E-02   -0.10685E-01 16200   0.251E-01    0.936E-01
DAV:   4    -0.790276350446E+03    0.61413E-03   -0.16509E-02 13944   0.185E-01    0.796E-01
DAV:   5    -0.790277556457E+03   -0.12060E-02   -0.22481E-03 12348   0.786E-02    0.953E-01
DAV:   6    -0.790273008592E+03    0.45479E-02   -0.71236E-03 12708   0.101E-01    0.470E-01
DAV:   7    -0.790273925728E+03   -0.91714E-03   -0.56160E-03 14232   0.997E-02    0.344E-01
DAV:   8    -0.790273702000E+03    0.22373E-03   -0.24044E-03 14004   0.858E-02    0.192E-01
DAV:   9    -0.790273767815E+03   -0.65815E-04   -0.85953E-04 13428   0.672E-02    0.108E-01
DAV:  10    -0.790273771182E+03   -0.33669E-05   -0.47028E-04 13788   0.359E-02    0.798E-02
DAV:  11    -0.790273820956E+03   -0.49774E-04   -0.13246E-04 12588   0.152E-02    0.958E-02
DAV:  12    -0.790273747390E+03    0.73566E-04   -0.18309E-04 11580   0.164E-02    0.780E-02
DAV:  13    -0.790273729129E+03    0.18261E-04   -0.26962E-04 12516   0.166E-02    0.462E-02
DAV:  14    -0.790273742634E+03   -0.13506E-04   -0.74819E-05  9252   0.115E-02    0.222E-02
DAV:  15    -0.790273746615E+03   -0.39804E-05   -0.13438E-05  7836   0.746E-03
  39 F= -.79027375E+03 E0= -.79024740E+03  d E =-.185928E-01  mag=     0.4823
       N       E                     dE             d eps       ncg     rms          rms(c)
DAV:   1    -0.790281933040E+03   -0.81904E-02   -0.63631E+00 11520   0.437E+00    0.136E+00
DAV:   2    -0.790397289398E+03   -0.11536E+00   -0.12199E+00 15240   0.122E+00    0.626E+00
DAV:   3    -0.790303916572E+03    0.93373E-01   -0.17259E+00 15432   0.777E-01    0.314E+00
DAV:   4    -0.790289935005E+03    0.13982E-01   -0.35424E-01 14532   0.502E-01    0.119E+00
DAV:   5    -0.790290583239E+03   -0.64823E-03   -0.25222E-02 13524   0.285E-01    0.555E-01
DAV:   6    -0.790293912478E+03   -0.33292E-02   -0.73613E-03 13812   0.159E-01    0.987E-01
DAV:   7    -0.790291434135E+03    0.24783E-02   -0.27162E-03 11904   0.949E-02    0.834E-01
DAV:   8    -0.790289039668E+03    0.23945E-02   -0.61923E-03 15636   0.133E-01    0.451E-01
DAV:   9    -0.790290270310E+03   -0.12306E-02   -0.65822E-03 12744   0.121E-01    0.526E-01
DAV:  10    -0.790290033986E+03    0.23632E-03   -0.25903E-03 14160   0.104E-01    0.196E-01
DAV:  11    -0.790290177535E+03   -0.14355E-03   -0.10994E-03 13692   0.555E-02    0.177E-01
DAV:  12    -0.790290298398E+03   -0.12086E-03   -0.67151E-04 13644   0.343E-02    0.175E-01
DAV:  13    -0.790289964691E+03    0.33371E-03   -0.12286E-03 12228   0.378E-02    0.120E-01
DAV:  14    -0.790289945439E+03    0.19252E-04   -0.74616E-04 13548   0.309E-02    0.640E-02
DAV:  15    -0.790290004227E+03   -0.58787E-04   -0.10145E-04 11460   0.192E-02    0.403E-02
DAV:  16    -0.790290007890E+03   -0.36632E-05   -0.31543E-05  8664   0.116E-02
  40 F= -.79029001E+03 E0= -.79026406E+03  d E =-.162613E-01  mag=     0.4948
       N       E                     dE             d eps       ncg     rms          rms(c)
DAV:   1    -0.790283955052E+03    0.60492E-02   -0.15042E+00 11520   0.216E+00    0.849E-01
DAV:   2    -0.790331942591E+03   -0.47988E-01   -0.35426E-01 15972   0.747E-01    0.354E+00
DAV:   3    -0.790281086614E+03    0.50856E-01   -0.89910E-02 16644   0.533E-01    0.845E-01
DAV:   4    -0.790284596199E+03   -0.35096E-02   -0.19280E-02 13272   0.189E-01    0.325E-01
DAV:   5    -0.790285906130E+03   -0.13099E-02   -0.91234E-03 14472   0.122E-01    0.432E-01
DAV:   6    -0.790286052547E+03   -0.14642E-03   -0.60525E-03 14004   0.697E-02    0.492E-01
DAV:   7    -0.790285181094E+03    0.87145E-03   -0.17309E-03 11988   0.533E-02    0.342E-01
DAV:   8    -0.790284818184E+03    0.36291E-03   -0.85002E-04 15648   0.544E-02    0.149E-01
DAV:   9    -0.790285112357E+03   -0.29417E-03   -0.51938E-04 12228   0.495E-02    0.146E-01
DAV:  10    -0.790285131278E+03   -0.18921E-04   -0.62035E-04 12996   0.307E-02    0.933E-02
DAV:  11    -0.790285147384E+03   -0.16106E-04   -0.29940E-05 10836   0.125E-02    0.916E-02
DAV:  12    -0.790285088014E+03    0.59370E-04   -0.17136E-04 11856   0.154E-02    0.652E-02
DAV:  13    -0.790285062035E+03    0.25978E-04   -0.21374E-04 12684   0.134E-02    0.404E-02
DAV:  14    -0.790285076192E+03   -0.14157E-04   -0.24500E-05  8532   0.947E-03    0.246E-02
DAV:  15    -0.790285079562E+03   -0.33696E-05   -0.87915E-06  7656   0.637E-03
  41 F= -.79028508E+03 E0= -.79025882E+03  d E =0.492833E-02  mag=     0.4934
       N       E                     dE             d eps       ncg     rms          rms(c)
DAV:   1    -0.790286825677E+03   -0.17495E-02   -0.17642E-01 11520   0.733E-01    0.442E-01
DAV:   2    -0.790308509169E+03   -0.21683E-01   -0.22009E-01 17388   0.384E-01    0.186E+00
DAV:   3    -0.790285309391E+03    0.23200E-01   -0.82855E-02 18204   0.318E-01    0.497E-01
DAV:   4    -0.790286521765E+03   -0.12124E-02   -0.54180E-03 13512   0.115E-01    0.226E-01
DAV:   5    -0.790286713875E+03   -0.19211E-03   -0.15089E-03 14304   0.625E-02    0.180E-01
DAV:   6    -0.790287037692E+03   -0.32382E-03   -0.11108E-03 13128   0.292E-02    0.309E-01
DAV:   7    -0.790286630756E+03    0.40694E-03   -0.51333E-04 12444   0.369E-02    0.204E-01
DAV:   8    -0.790286557427E+03    0.73330E-04   -0.63225E-04 13572   0.280E-02    0.695E-02
DAV:   9    -0.790286671754E+03   -0.11433E-03   -0.13154E-04 11664   0.226E-02    0.673E-02
DAV:  10    -0.790286669265E+03    0.24887E-05   -0.20249E-05  8700   0.899E-03
  42 F= -.79028667E+03 E0= -.79026037E+03  d E =-.158970E-02  mag=     0.4895
       N       E                     dE             d eps       ncg     rms          rms(c)
DAV:   1    -0.790290587008E+03   -0.39153E-02   -0.81802E-01 11520   0.155E+00    0.218E-01
DAV:   2    -0.790297087043E+03   -0.65000E-02   -0.61625E-02 13728   0.260E-01    0.110E+00
DAV:   3    -0.790291228823E+03    0.58582E-02   -0.35130E-02 14760   0.147E-01    0.151E-01
DAV:   4    -0.790292099285E+03   -0.87046E-03   -0.10408E-03 12564   0.551E-02    0.204E-01
DAV:   5    -0.790292147275E+03   -0.47990E-04   -0.44106E-04 13572   0.279E-02    0.194E-01
DAV:   6    -0.790292012350E+03    0.13493E-03   -0.90557E-05 11736   0.170E-02    0.144E-01
DAV:   7    -0.790292019296E+03   -0.69465E-05   -0.50463E-04 13848   0.210E-02    0.141E-01
DAV:   8    -0.790292066189E+03   -0.46893E-04   -0.37156E-05 11268   0.144E-02    0.144E-01
DAV:   9    -0.790291945651E+03    0.12054E-03   -0.25683E-04 12144   0.190E-02    0.112E-01
DAV:  10    -0.790291876200E+03    0.69451E-04   -0.66412E-04 14004   0.307E-02    0.999E-02
DAV:  11    -0.790291902821E+03   -0.26621E-04   -0.88749E-05 12336   0.241E-02    0.686E-02
DAV:  12    -0.790291897999E+03    0.48226E-05   -0.11120E-04 11520   0.142E-02    0.296E-02
DAV:  13    -0.790291904397E+03   -0.63982E-05   -0.17193E-05  7932   0.864E-03
  43 F= -.79029190E+03 E0= -.79026569E+03  d E =-.523513E-02  mag=     0.4883
       N       E                     dE             d eps       ncg     rms          rms(c)
DAV:   1    -0.790184566680E+03    0.10733E+00   -0.68274E+01 11520   0.142E+01    0.216E+00
DAV:   2    -0.790391895116E+03   -0.20733E+00   -0.22144E+00 13548   0.226E+00    0.574E+00
DAV:   3    -0.790339927142E+03    0.51968E-01   -0.20515E+00 15528   0.909E-01    0.257E+00
DAV:   4    -0.790329382925E+03    0.10544E-01   -0.49707E-01 15048   0.688E-01    0.154E+00
DAV:   5    -0.790316883517E+03    0.12499E-01   -0.37651E-02 14820   0.441E-01    0.102E+00
DAV:   6    -0.790319288368E+03   -0.24049E-02   -0.15078E-02 14196   0.225E-01    0.973E-01
DAV:   7    -0.790323949604E+03   -0.46612E-02   -0.35484E-03 12528   0.914E-02    0.135E+00
DAV:   8    -0.790314323645E+03    0.96260E-02   -0.24836E-02 14256   0.262E-01    0.143E+00
DAV:   9    -0.790322941098E+03   -0.86175E-02   -0.41665E-02 14232   0.291E-01    0.229E+00
DAV:  10    -0.790309114876E+03    0.13826E-01   -0.45420E-02 12108   0.241E-01    0.703E-01
DAV:  11    -0.790312534442E+03   -0.34196E-02   -0.33918E-03 12972   0.139E-01    0.586E-01
DAV:  12    -0.790312809030E+03   -0.27459E-03   -0.26508E-03 15036   0.955E-02    0.546E-01
DAV:  13    -0.790312311412E+03    0.49762E-03   -0.47230E-03 13176   0.578E-02    0.253E-01
DAV:  14    -0.790312714138E+03   -0.40273E-03   -0.14476E-03 12564   0.449E-02    0.318E-01
DAV:  15    -0.790312390162E+03    0.32398E-03   -0.20021E-03 12672   0.499E-02    0.118E-01
DAV:  16    -0.790312541075E+03   -0.15091E-03   -0.63922E-04 12780   0.391E-02    0.117E-01
DAV:  17    -0.790312520649E+03    0.20427E-04   -0.28072E-04 12396   0.263E-02    0.356E-02
DAV:  18    -0.790312534951E+03   -0.14302E-04   -0.40129E-05 12216   0.114E-02    0.224E-02
DAV:  19    -0.790312539893E+03   -0.49422E-05   -0.13510E-05  7536   0.659E-03
  44 F= -.79031254E+03 E0= -.79028699E+03  d E =-.206355E-01  mag=     0.5201
       N       E                     dE             d eps       ncg     rms          rms(c)
DAV:   1    -0.790327957063E+03   -0.15422E-01   -0.36059E+00 11520   0.339E+00    0.305E+00
DAV:   2    -0.790675876246E+03   -0.34792E+00   -0.61563E+00 18180   0.251E+00    0.473E+00
DAV:   3    -0.790445452662E+03    0.23042E+00   -0.63122E-01 17688   0.147E+00    0.410E+00
DAV:   4    -0.790381157195E+03    0.64295E-01   -0.95684E-02 14160   0.643E-01    0.235E+00
DAV:   5    -0.790336152990E+03    0.45004E-01   -0.44503E-02 15564   0.549E-01    0.195E+00
DAV:   6    -0.790315921408E+03    0.20232E-01   -0.11150E-01 13944   0.441E-01    0.818E-01
DAV:   7    -0.790327251135E+03   -0.11330E-01   -0.30409E-02 14328   0.318E-01    0.199E+00
DAV:   8    -0.790319767381E+03    0.74838E-02   -0.10227E-01 15120   0.288E-01    0.771E-01
DAV:   9    -0.790322196288E+03   -0.24289E-02   -0.25594E-03 12276   0.103E-01    0.780E-01
DAV:  10    -0.790322397542E+03   -0.20125E-03   -0.46928E-04 14340   0.313E-02    0.818E-01
DAV:  11    -0.790329800767E+03   -0.74032E-02   -0.20635E-02 14328   0.149E-01    0.154E+00
DAV:  12    -0.790329185058E+03    0.61571E-03   -0.27106E-03 12240   0.111E-01    0.154E+00
DAV:  13    -0.790326551352E+03    0.26337E-02   -0.61247E-03 14460   0.117E-01    0.142E+00
DAV:  14    -0.790317934945E+03    0.86164E-02   -0.18451E-02 15216   0.174E-01    0.726E-01
DAV:  15    -0.790319712476E+03   -0.17775E-02   -0.19035E-03 13032   0.926E-02    0.710E-01
DAV:  16    -0.790320285512E+03   -0.57304E-03   -0.24165E-03 13884   0.874E-02    0.754E-01
DAV:  17    -0.790320737755E+03   -0.45224E-03   -0.32258E-03 13752   0.801E-02    0.771E-01
DAV:  18    -0.790322207078E+03   -0.14693E-02   -0.11031E-03 13476   0.563E-02    0.833E-01
DAV:  19    -0.790322780871E+03   -0.57379E-03   -0.10834E-03 13944   0.404E-02    0.825E-01
DAV:  20    -0.790323127907E+03   -0.34704E-03   -0.36371E-04 12636   0.275E-02    0.851E-01
DAV:  21    -0.790323652988E+03   -0.52508E-03   -0.15637E-04 13860   0.164E-02    0.885E-01
DAV:  22    -0.790323971188E+03   -0.31820E-03   -0.26989E-05 10284   0.103E-02    0.896E-01
DAV:  23    -0.790324021958E+03   -0.50770E-04   -0.74992E-06  7572   0.487E-03    0.902E-01
DAV:  24    -0.790324149874E+03   -0.12792E-03   -0.76087E-06  6756   0.429E-03    0.910E-01
DAV:  25    -0.790324186569E+03   -0.36696E-04   -0.17277E-06  6408   0.221E-03    0.910E-01
DAV:  26    -0.790324186146E+03    0.42283E-06   -0.25830E-07  6336   0.936E-04
  45 F= -.79032419E+03 E0= -.79029951E+03  d E =-.116463E-01  mag=     0.5222
       N       E                     dE             d eps       ncg     rms          rms(c)
DAV:   1    -0.790314198608E+03    0.99880E-02   -0.82503E+00 11520   0.494E+00    0.166E+00
DAV:   2    -0.790674954115E+03   -0.36076E+00   -0.21602E+00 14484   0.152E+00    0.850E+00
DAV:   3    -0.790294368252E+03    0.38059E+00   -0.14997E+00 15588   0.904E-01    0.167E+00
DAV:   4    -0.790313336518E+03   -0.18968E-01   -0.88206E-02 13464   0.495E-01    0.108E+00
DAV:   5    -0.790326333315E+03   -0.12997E-01   -0.31767E-02 13608   0.255E-01    0.144E+00
DAV:   6    -0.790320379996E+03    0.59533E-02   -0.68634E-03 12300   0.133E-01    0.122E+00
DAV:   7    -0.790314131294E+03    0.62487E-02   -0.61182E-02 15396   0.246E-01    0.847E-01
DAV:   8    -0.790314369904E+03   -0.23861E-03   -0.21391E-02 12612   0.191E-01    0.498E-01
DAV:   9    -0.790315952917E+03   -0.15830E-02   -0.77619E-03 13128   0.133E-01    0.606E-01
DAV:  10    -0.790318060335E+03   -0.21074E-02   -0.95148E-03 13524   0.857E-02    0.937E-01
DAV:  11    -0.790315765480E+03    0.22949E-02   -0.32277E-03 13836   0.119E-01    0.100E+00
DAV:  12    -0.790315266722E+03    0.49876E-03   -0.16559E-02 14712   0.130E-01    0.115E+00
DAV:  13    -0.790315006496E+03    0.26023E-03   -0.22689E-02 13404   0.108E-01    0.112E+00
DAV:  14    -0.790311771720E+03    0.32348E-02   -0.32134E-02 12768   0.156E-01    0.280E-01
DAV:  15    -0.790313089674E+03   -0.13180E-02   -0.14956E-03 12636   0.700E-02    0.188E-01
DAV:  16    -0.790313115530E+03   -0.25856E-04   -0.39503E-04 14532   0.346E-02    0.887E-02
DAV:  17    -0.790313100188E+03    0.15342E-04   -0.49831E-04 13632   0.253E-02    0.584E-02
DAV:  18    -0.790313126271E+03   -0.26083E-04   -0.67137E-05 11484   0.161E-02    0.471E-02
DAV:  19    -0.790313122252E+03    0.40188E-05   -0.45425E-05  8352   0.933E-03
  46 F= -.79031312E+03 E0= -.79028732E+03  d E =0.110639E-01  mag=     0.4919
       N       E                     dE             d eps       ncg     rms          rms(c)
DAV:   1    -0.790309125689E+03    0.40006E-02   -0.11688E+00 11520   0.195E+00    0.178E+00
DAV:   2    -0.790462836084E+03   -0.15371E+00   -0.21672E+00 18828   0.148E+00    0.372E+00
DAV:   3    -0.790332425233E+03    0.13041E+00   -0.96960E-02 18108   0.991E-01    0.209E+00
DAV:   4    -0.790309324823E+03    0.23100E-01   -0.76122E-02 14064   0.467E-01    0.139E+00
DAV:   5    -0.790303643622E+03    0.56812E-02   -0.20954E-02 14316   0.272E-01    0.620E-01
DAV:   6    -0.790304395662E+03   -0.75204E-03   -0.72627E-03 14448   0.178E-01    0.395E-01
DAV:   7    -0.790307870918E+03   -0.34753E-02   -0.94884E-03 14124   0.122E-01    0.109E+00
DAV:   8    -0.790306467223E+03    0.14037E-02   -0.20537E-03 12228   0.735E-02    0.998E-01
DAV:   9    -0.790303257047E+03    0.32102E-02   -0.63293E-03 14880   0.896E-02    0.218E-01
DAV:  10    -0.790304713199E+03   -0.14562E-02   -0.20562E-03 12756   0.797E-02    0.263E-01
DAV:  11    -0.790304738563E+03   -0.25364E-04   -0.34574E-04 12516   0.385E-02    0.217E-01
DAV:  12    -0.790304706708E+03    0.31855E-04   -0.96563E-05 12852   0.144E-02    0.190E-01
DAV:  13    -0.790304563451E+03    0.14326E-03   -0.41864E-04 12288   0.197E-02    0.101E-01
DAV:  14    -0.790304573970E+03   -0.10519E-04   -0.23713E-04 13080   0.189E-02    0.687E-02
DAV:  15    -0.790304612258E+03   -0.38288E-04   -0.19661E-04 10248   0.165E-02    0.785E-02
DAV:  16    -0.790304589193E+03    0.23065E-04   -0.10797E-04  9732   0.115E-02    0.427E-02
DAV:  17    -0.790304589921E+03   -0.72836E-06   -0.15863E-05  8640   0.830E-03
  47 F= -.79030459E+03 E0= -.79027810E+03  d E =0.853233E-02  mag=     0.4646
       N       E                     dE             d eps       ncg     rms          rms(c)
DAV:   1    -0.790313338924E+03   -0.87497E-02   -0.50360E-01 11616   0.128E+00    0.898E-01
DAV:   2    -0.790414898565E+03   -0.10156E+00   -0.68485E-01 17460   0.713E-01    0.643E+00
DAV:   3    -0.790288756791E+03    0.12614E+00   -0.10526E+00 15828   0.591E-01    0.611E-01
DAV:   4    -0.790312445709E+03   -0.23689E-01   -0.19479E-02 12132   0.259E-01    0.484E-01
DAV:   5    -0.790313445025E+03   -0.99932E-03   -0.13619E-02 14928   0.139E-01    0.575E-01
DAV:   6    -0.790312947376E+03    0.49765E-03   -0.47232E-03 14160   0.791E-02    0.445E-01
DAV:   7    -0.790311881776E+03    0.10656E-02   -0.25252E-03 12036   0.546E-02    0.193E-01
DAV:   8    -0.790312147005E+03   -0.26523E-03   -0.13360E-03 12984   0.449E-02    0.177E-01
DAV:   9    -0.790312319406E+03   -0.17240E-03   -0.13632E-04 11952   0.261E-02    0.186E-01
DAV:  10    -0.790312202979E+03    0.11643E-03   -0.16049E-04 12348   0.175E-02    0.168E-01
DAV:  11    -0.790312019820E+03    0.18316E-03   -0.70886E-04 13560   0.290E-02    0.902E-02
DAV:  12    -0.790312046744E+03   -0.26923E-04   -0.31427E-04 13500   0.267E-02    0.673E-02
DAV:  13    -0.790312065381E+03   -0.18638E-04   -0.64442E-05 11940   0.201E-02    0.526E-02
DAV:  14    -0.790312064248E+03    0.11339E-05   -0.35233E-05 10476   0.129E-02
  48 F= -.79031206E+03 E0= -.79028606E+03  d E =-.747433E-02  mag=     0.4870
       N       E                     dE             d eps       ncg     rms          rms(c)
DAV:   1    -0.790313161832E+03   -0.10965E-02   -0.52843E-02 11544   0.406E-01    0.894E-02
DAV:   2    -0.790313637619E+03   -0.47579E-03   -0.33683E-03 14088   0.739E-02    0.360E-01
DAV:   3    -0.790313175991E+03    0.46163E-03   -0.28248E-03 15000   0.459E-02    0.894E-02
DAV:   4    -0.790313266401E+03   -0.90410E-04   -0.30671E-04 12312   0.252E-02    0.678E-02
DAV:   5    -0.790313283187E+03   -0.16787E-04   -0.10363E-04 11652   0.139E-02    0.867E-02
DAV:   6    -0.790313266749E+03    0.16438E-04   -0.19488E-05  8556   0.826E-03    0.767E-02
DAV:   7    -0.790313242839E+03    0.23910E-04   -0.94650E-05  7236   0.906E-03    0.307E-02
DAV:   8    -0.790313251620E+03   -0.87805E-05   -0.28666E-05  8520   0.912E-03
  49 F= -.79031325E+03 E0= -.79028725E+03  d E =-.118737E-02  mag=     0.4874
       N       E                     dE             d eps       ncg     rms          rms(c)
DAV:   1    -0.790314685688E+03   -0.14428E-02   -0.27951E+00 11520   0.299E+00    0.542E-01
DAV:   2    -0.790324048217E+03   -0.93625E-02   -0.98644E-02 13800   0.493E-01    0.117E+00
DAV:   3    -0.790322013970E+03    0.20342E-02   -0.85189E-02 16200   0.243E-01    0.847E-01
DAV:   4    -0.790320588825E+03    0.14251E-02   -0.30054E-02 14508   0.165E-01    0.746E-01
DAV:   5    -0.790319696723E+03    0.89210E-03   -0.61184E-03 14808   0.119E-01    0.362E-01
DAV:   6    -0.790321104216E+03   -0.14075E-02   -0.28922E-03 12612   0.618E-02    0.612E-01
DAV:   7    -0.790318912870E+03    0.21913E-02   -0.45195E-03 11952   0.755E-02    0.267E-01
DAV:   8    -0.790319634757E+03   -0.72189E-03   -0.74398E-04 12096   0.583E-02    0.247E-01
DAV:   9    -0.790319822325E+03   -0.18757E-03   -0.14571E-04 11880   0.303E-02    0.254E-01
DAV:  10    -0.790319615537E+03    0.20679E-03   -0.59374E-04 13116   0.251E-02    0.232E-01
DAV:  11    -0.790319246328E+03    0.36921E-03   -0.21030E-03 14952   0.677E-02    0.272E-01
DAV:  12    -0.790319299123E+03   -0.52794E-04   -0.56519E-04 12744   0.512E-02    0.142E-01
DAV:  13    -0.790319330561E+03   -0.31438E-04   -0.29213E-04 13488   0.316E-02    0.977E-02
DAV:  14    -0.790319336729E+03   -0.61678E-05   -0.13041E-04 12996   0.215E-02    0.787E-02
DAV:  15    -0.790319328103E+03    0.86256E-05   -0.88530E-05  9840   0.117E-02
  50 F= -.79031933E+03 E0= -.79029333E+03  d E =-.607648E-02  mag=     0.4987
       N       E                     dE             d eps       ncg     rms          rms(c)
DAV:   1    -0.790321098326E+03   -0.17616E-02   -0.49055E+00 11520   0.403E+00    0.115E+00
DAV:   2    -0.790393305436E+03   -0.72207E-01   -0.77289E-01 14832   0.100E+00    0.320E+00
DAV:   3    -0.790331026630E+03    0.62279E-01   -0.79035E-02 15960   0.633E-01    0.134E+00
DAV:   4    -0.790329552944E+03    0.14737E-02   -0.74026E-02 14028   0.351E-01    0.746E-01
DAV:   5    -0.790329593746E+03   -0.40802E-04   -0.38783E-02 15228   0.238E-01    0.681E-01
DAV:   6    -0.790329210942E+03    0.38280E-03   -0.14807E-02 14088   0.126E-01    0.535E-01
DAV:   7    -0.790329856832E+03   -0.64589E-03   -0.13797E-03 12192   0.517E-02    0.634E-01
DAV:   8    -0.790327744867E+03    0.21120E-02   -0.50278E-03 13500   0.816E-02    0.358E-01
DAV:   9    -0.790328940917E+03   -0.11961E-02   -0.22928E-03 12204   0.633E-02    0.418E-01
DAV:  10    -0.790327875075E+03    0.10658E-02   -0.30480E-03 12636   0.695E-02    0.352E-01
DAV:  11    -0.790327668444E+03    0.20663E-03   -0.43366E-03 15444   0.805E-02    0.364E-01
DAV:  12    -0.790327513704E+03    0.15474E-03   -0.13214E-03 13440   0.684E-02    0.198E-01
DAV:  13    -0.790327608328E+03   -0.94624E-04   -0.59898E-04 13248   0.454E-02    0.138E-01
DAV:  14    -0.790327629647E+03   -0.21319E-04   -0.65901E-04 12888   0.316E-02    0.101E-01
DAV:  15    -0.790327617727E+03    0.11920E-04   -0.37104E-04 12768   0.197E-02    0.562E-02
DAV:  16    -0.790327614479E+03    0.32478E-05   -0.10922E-04  9192   0.115E-02    0.290E-02
DAV:  17    -0.790327614837E+03   -0.35772E-06   -0.15499E-05  6912   0.624E-03
  51 F= -.79032761E+03 E0= -.79030163E+03  d E =-.828673E-02  mag=     0.4771
       N       E                     dE             d eps       ncg     rms          rms(c)
DAV:   1    -0.790320297496E+03    0.73170E-02   -0.28008E+00 11520   0.303E+00    0.688E-01
DAV:   2    -0.790330763202E+03   -0.10466E-01   -0.10426E-01 13908   0.559E-01    0.142E+00
DAV:   3    -0.790329191083E+03    0.15721E-02   -0.11402E-01 16056   0.300E-01    0.124E+00
DAV:   4    -0.790325103675E+03    0.40874E-02   -0.38816E-02 14664   0.218E-01    0.405E-01
DAV:   5    -0.790326238741E+03   -0.11351E-02   -0.15496E-02 14640   0.142E-01    0.555E-01
DAV:   6    -0.790325081934E+03    0.11568E-02   -0.74411E-03 14472   0.945E-02    0.171E-01
DAV:   7    -0.790325345822E+03   -0.26389E-03   -0.13100E-03 14076   0.589E-02    0.197E-01
DAV:   8    -0.790325538034E+03   -0.19221E-03   -0.26522E-04 12468   0.238E-02    0.260E-01
DAV:   9    -0.790325262758E+03    0.27528E-03   -0.11364E-03 12396   0.379E-02    0.235E-01
DAV:  10    -0.790325367806E+03   -0.10505E-03   -0.91991E-05 11856   0.262E-02    0.235E-01
DAV:  11    -0.790325148274E+03    0.21953E-03   -0.29377E-04 11556   0.240E-02    0.182E-01
DAV:  12    -0.790324943731E+03    0.20454E-03   -0.91733E-04 13572   0.348E-02    0.896E-02
DAV:  13    -0.790325015557E+03   -0.71826E-04   -0.38685E-04 12552   0.251E-02    0.788E-02
DAV:  14    -0.790325049590E+03   -0.34033E-04   -0.47219E-05 11232   0.154E-02    0.599E-02
DAV:  15    -0.790325055237E+03   -0.56468E-05   -0.37089E-05 10296   0.112E-02
  52 F= -.79032506E+03 E0= -.79029919E+03  d E =0.255960E-02  mag=     0.4801
       N       E                     dE             d eps       ncg     rms          rms(c)
DAV:   1    -0.790318967660E+03    0.60819E-02   -0.51483E-01 11520   0.131E+00    0.312E-01
DAV:   2    -0.790321657323E+03   -0.26897E-02   -0.22491E-02 13944   0.220E-01    0.730E-01
DAV:   3    -0.790320294321E+03    0.13630E-02   -0.20259E-02 15876   0.112E-01    0.427E-01
DAV:   4    -0.790320857068E+03   -0.56275E-03   -0.68225E-03 12984   0.799E-02    0.443E-01
DAV:   5    -0.790320456388E+03    0.40068E-03   -0.52829E-04 11988   0.428E-02    0.387E-01
DAV:   6    -0.790319749190E+03    0.70720E-03   -0.26624E-03 15888   0.550E-02    0.238E-01
DAV:   7    -0.790319848113E+03   -0.98923E-04   -0.15379E-03 13848   0.532E-02    0.813E-02
DAV:   8    -0.790319973963E+03   -0.12585E-03   -0.47424E-04 12240   0.388E-02    0.909E-02
DAV:   9    -0.790319998619E+03   -0.24656E-04   -0.13061E-04 13392   0.198E-02    0.842E-02
DAV:  10    -0.790319995123E+03    0.34961E-05   -0.12523E-05  8856   0.781E-03
  53 F= -.79032000E+03 E0= -.79029385E+03  d E =0.506011E-02  mag=     0.4761
       N       E                     dE             d eps       ncg     rms          rms(c)
DAV:   1    -0.790322117275E+03   -0.21187E-02   -0.14564E-01 11520   0.709E-01    0.244E-01
DAV:   2    -0.790323841183E+03   -0.17239E-02   -0.10265E-02 14208   0.161E-01    0.599E-01
DAV:   3    -0.790322957415E+03    0.88377E-03   -0.14476E-02 16164   0.103E-01    0.460E-01
DAV:   4    -0.790322933345E+03    0.24071E-04   -0.25304E-03 13920   0.629E-02    0.306E-01
DAV:   5    -0.790323164131E+03   -0.23079E-03   -0.34599E-04 12864   0.299E-02    0.318E-01
DAV:   6    -0.790322553053E+03    0.61108E-03   -0.15124E-03 12204   0.342E-02    0.232E-01
DAV:   7    -0.790322493602E+03    0.59451E-04   -0.25910E-03 15948   0.603E-02    0.283E-01
DAV:   8    -0.790322645390E+03   -0.15179E-03   -0.11417E-03 12456   0.375E-02    0.286E-01
DAV:   9    -0.790322270499E+03    0.37489E-03   -0.87057E-04 11604   0.378E-02    0.152E-01
DAV:  10    -0.790322330706E+03   -0.60207E-04   -0.96083E-04 13524   0.360E-02    0.112E-01
DAV:  11    -0.790322358657E+03   -0.27951E-04   -0.29183E-04 12576   0.267E-02    0.452E-02
DAV:  12    -0.790322366707E+03   -0.80501E-05   -0.47190E-05 10716   0.139E-02
  54 F= -.79032237E+03 E0= -.79029641E+03  d E =-.237158E-02  mag=     0.4894
       N       E                     dE             d eps       ncg     rms          rms(c)
DAV:   1    -0.790323136634E+03   -0.77798E-03   -0.40487E-02 11520   0.366E-01    0.859E-02
DAV:   2    -0.790324056481E+03   -0.91985E-03   -0.65042E-03 14160   0.843E-02    0.518E-01
DAV:   3    -0.790323005357E+03    0.10511E-02   -0.44942E-03 14892   0.621E-02    0.548E-02
DAV:   4    -0.790323213473E+03   -0.20812E-03   -0.27282E-04 12384   0.244E-02    0.734E-02
DAV:   5    -0.790323205322E+03    0.81510E-05   -0.13518E-04 10872   0.141E-02    0.418E-02
DAV:   6    -0.790323215621E+03   -0.10299E-04   -0.34845E-05  7260   0.786E-03    0.567E-02
DAV:   7    -0.790323200289E+03    0.15332E-04   -0.26891E-05  8100   0.624E-03    0.334E-02
DAV:   8    -0.790323202156E+03   -0.18666E-05   -0.17362E-05  6432   0.545E-03
  55 F= -.79032320E+03 E0= -.79029729E+03  d E =-.835448E-03  mag=     0.4919
       N       E                     dE             d eps       ncg     rms          rms(c)
DAV:   1    -0.790324040448E+03   -0.84016E-03   -0.39100E-01 11520   0.114E+00    0.265E-01
DAV:   2    -0.790326516689E+03   -0.24762E-02   -0.25707E-02 14928   0.237E-01    0.909E-01
DAV:   3    -0.790324337808E+03    0.21789E-02   -0.13681E-02 15936   0.140E-01    0.189E-01
DAV:   4    -0.790324852572E+03   -0.51476E-03   -0.15206E-03 13152   0.607E-02    0.200E-01
DAV:   5    -0.790324964911E+03   -0.11234E-03   -0.49504E-04 13368   0.284E-02    0.220E-01
DAV:   6    -0.790324907256E+03    0.57655E-04   -0.60775E-05 11784   0.135E-02    0.223E-01
DAV:   7    -0.790324712747E+03    0.19451E-03   -0.33309E-04 13260   0.241E-02    0.159E-01
DAV:   8    -0.790324878395E+03   -0.16565E-03   -0.13108E-04 11448   0.180E-02    0.186E-01
DAV:   9    -0.790324537947E+03    0.34045E-03   -0.14529E-03 12312   0.311E-02    0.860E-02
DAV:  10    -0.790324617052E+03   -0.79105E-04   -0.31769E-04 13020   0.318E-02    0.840E-02
DAV:  11    -0.790324624307E+03   -0.72546E-05   -0.77783E-05 11712   0.214E-02
  56 F= -.79032462E+03 E0= -.79029869E+03  d E =-.142215E-02  mag=     0.4848
       N       E                     dE             d eps       ncg     rms          rms(c)
DAV:   1    -0.790318115487E+03    0.65016E-02   -0.45670E+00 11520   0.392E+00    0.112E+00
DAV:   2    -0.790377712161E+03   -0.59597E-01   -0.41242E-01 15600   0.971E-01    0.414E+00
DAV:   3    -0.790319389018E+03    0.58323E-01   -0.56932E-01 16716   0.631E-01    0.980E-01
DAV:   4    -0.790327756840E+03   -0.83678E-02   -0.32987E-02 12888   0.259E-01    0.106E+00
DAV:   5    -0.790324915897E+03    0.28409E-02   -0.47230E-02 14952   0.174E-01    0.694E-01
DAV:   6    -0.790324066777E+03    0.84912E-03   -0.84807E-03 13680   0.115E-01    0.406E-01
DAV:   7    -0.790324646910E+03   -0.58013E-03   -0.83284E-04 12516   0.480E-02    0.491E-01
DAV:   8    -0.790324112101E+03    0.53481E-03   -0.62942E-04 13464   0.451E-02    0.506E-01
DAV:   9    -0.790324742637E+03   -0.63054E-03   -0.13755E-03 14184   0.466E-02    0.682E-01
DAV:  10    -0.790324704998E+03    0.37639E-04   -0.42136E-04 13224   0.483E-02    0.636E-01
DAV:  11    -0.790324159340E+03    0.54566E-03   -0.60137E-03 15708   0.115E-01    0.311E-01
DAV:  12    -0.790324557802E+03   -0.39846E-03   -0.65826E-04 12288   0.509E-02    0.271E-01
DAV:  13    -0.790324324662E+03    0.23314E-03   -0.40445E-04 13404   0.277E-02    0.205E-01
DAV:  14    -0.790324050583E+03    0.27408E-03   -0.24080E-03 14484   0.582E-02    0.143E-01
DAV:  15    -0.790324155723E+03   -0.10514E-03   -0.38666E-04 12288   0.348E-02    0.892E-02
DAV:  16    -0.790324171029E+03   -0.15306E-04   -0.13898E-04 11928   0.200E-02    0.744E-02
DAV:  17    -0.790324161467E+03    0.95620E-05   -0.40872E-05 13248   0.130E-02
  57 F= -.79032416E+03 E0= -.79029827E+03  d E =0.462840E-03  mag=     0.5049
       N       E                     dE             d eps       ncg     rms          rms(c)
DAV:   1    -0.790323046808E+03    0.11242E-02   -0.20019E+00 11520   0.258E+00    0.107E+00
DAV:   2    -0.790372942861E+03   -0.49896E-01   -0.54017E-01 16008   0.835E-01    0.384E+00
DAV:   3    -0.790336754432E+03    0.36188E-01   -0.64539E-01 16008   0.580E-01    0.249E+00
DAV:   4    -0.790324637228E+03    0.12117E-01   -0.22571E-01 14820   0.390E-01    0.920E-01
DAV:   5    -0.790325026543E+03   -0.38931E-03   -0.15469E-02 13632   0.222E-01    0.335E-01
DAV:   6    -0.790326474231E+03   -0.14477E-02   -0.77085E-03 13956   0.129E-01    0.629E-01
DAV:   7    -0.790326224551E+03    0.24968E-03   -0.68963E-04 12132   0.621E-02    0.626E-01
DAV:   8    -0.790325763384E+03    0.46117E-03   -0.11000E-04 12324   0.218E-02    0.599E-01
DAV:   9    -0.790325991053E+03   -0.22767E-03   -0.16388E-04 13092   0.220E-02    0.643E-01
DAV:  10    -0.790324600326E+03    0.13907E-02   -0.46957E-03 13524   0.869E-02    0.367E-01
DAV:  11    -0.790324775188E+03   -0.17486E-03   -0.29736E-03 14820   0.766E-02    0.277E-01
DAV:  12    -0.790325491382E+03   -0.71619E-03   -0.96044E-04 11928   0.518E-02    0.293E-01
DAV:  13    -0.790325368714E+03    0.12267E-03   -0.75342E-04 13476   0.362E-02    0.376E-01
DAV:  14    -0.790325139323E+03    0.22939E-03   -0.13970E-03 13428   0.416E-02    0.319E-01
DAV:  15    -0.790325038384E+03    0.10094E-03   -0.12371E-03 13368   0.488E-02    0.160E-01
DAV:  16    -0.790325060970E+03   -0.22586E-04   -0.18653E-04 13128   0.288E-02    0.123E-01
DAV:  17    -0.790325048177E+03    0.12793E-04   -0.36374E-05 13008   0.122E-02    0.993E-02
DAV:  18    -0.790325025748E+03    0.22429E-04   -0.69366E-05 11832   0.112E-02    0.570E-02
DAV:  19    -0.790325020934E+03    0.48140E-05   -0.21492E-05  9900   0.932E-03
  58 F= -.79032502E+03 E0= -.79029923E+03  d E =-.859467E-03  mag=     0.4937
       N       E                     dE             d eps       ncg     rms          rms(c)
DAV:   1    -0.790315813488E+03    0.92123E-02   -0.43580E+00 11520   0.384E+00    0.109E+00
DAV:   2    -0.790360363723E+03   -0.44550E-01   -0.38522E-01 14892   0.911E-01    0.311E+00
DAV:   3    -0.790327245706E+03    0.33118E-01   -0.34499E-01 16236   0.571E-01    0.140E+00
DAV:   4    -0.790322225751E+03    0.50200E-02   -0.31133E-02 14160   0.321E-01    0.478E-01
DAV:   5    -0.790322575958E+03   -0.35021E-03   -0.96492E-03 14040   0.194E-01    0.339E-01
DAV:   6    -0.790322732160E+03   -0.15620E-03   -0.38326E-03 14040   0.106E-01    0.327E-01
DAV:   7    -0.790322981994E+03   -0.24983E-03   -0.13241E-03 12924   0.457E-02    0.402E-01
DAV:   8    -0.790322378513E+03    0.60348E-03   -0.71472E-04 12132   0.388E-02    0.302E-01
DAV:   9    -0.790322263101E+03    0.11541E-03   -0.25172E-03 16176   0.576E-02    0.212E-01
DAV:  10    -0.790322694373E+03   -0.43127E-03   -0.10742E-03 12132   0.376E-02    0.268E-01
DAV:  11    -0.790322156074E+03    0.53830E-03   -0.29951E-03 12192   0.468E-02    0.259E-01
DAV:  12    -0.790322108314E+03    0.47761E-04   -0.27092E-03 14352   0.518E-02    0.173E-01
DAV:  13    -0.790322192458E+03   -0.84145E-04   -0.24233E-04 12264   0.334E-02    0.123E-01
DAV:  14    -0.790322168006E+03    0.24452E-04   -0.17000E-04 12828   0.253E-02    0.283E-02
DAV:  15    -0.790322182099E+03   -0.14093E-04   -0.25739E-05 11292   0.111E-02    0.244E-02
DAV:  16    -0.790322180784E+03    0.13153E-05   -0.97581E-06  6336   0.487E-03
  59 F= -.79032218E+03 E0= -.79029611E+03  d E =0.284015E-02  mag=     0.4803
       N       E                     dE             d eps       ncg     rms          rms(c)
DAV:   1    -0.790322229677E+03   -0.47577E-04   -0.24242E+00 11520   0.285E+00    0.973E-01
DAV:   2    -0.790399152048E+03   -0.76922E-01   -0.90776E-01 16044   0.876E-01    0.285E+00
DAV:   3    -0.790327992695E+03    0.71159E-01   -0.10265E-01 17220   0.608E-01    0.146E+00
DAV:   4    -0.790324438753E+03    0.35539E-02   -0.20705E-02 13896   0.234E-01    0.601E-01
DAV:   5    -0.790325023806E+03   -0.58505E-03   -0.13015E-02 14400   0.167E-01    0.411E-01
DAV:   6    -0.790325186556E+03   -0.16275E-03   -0.22595E-03 13392   0.100E-01    0.268E-01
DAV:   7    -0.790325226220E+03   -0.39663E-04   -0.21471E-03 13836   0.634E-02    0.261E-01
DAV:   8    -0.790325206802E+03    0.19418E-04   -0.16493E-04 12060   0.290E-02    0.255E-01
DAV:   9    -0.790325072357E+03    0.13444E-03   -0.17815E-04 12144   0.223E-02    0.228E-01
DAV:  10    -0.790325077475E+03   -0.51181E-05   -0.66719E-04 14640   0.310E-02    0.195E-01
DAV:  11    -0.790325214605E+03   -0.13713E-03   -0.40603E-04 12120   0.245E-02    0.191E-01
DAV:  12    -0.790325147618E+03    0.66987E-04   -0.22008E-03 13104   0.475E-02    0.338E-01
DAV:  13    -0.790324890690E+03    0.25693E-03   -0.89598E-04 13476   0.386E-02    0.171E-01
DAV:  14    -0.790325003350E+03   -0.11266E-03   -0.44969E-04 12348   0.298E-02    0.126E-01
DAV:  15    -0.790324974135E+03    0.29215E-04   -0.17548E-04 12504   0.204E-02    0.814E-02
DAV:  16    -0.790324959674E+03    0.14461E-04   -0.74579E-05 12384   0.121E-02    0.582E-02
DAV:  17    -0.790324945916E+03    0.13758E-04   -0.31399E-05 11436   0.986E-03    0.338E-02
DAV:  18    -0.790324943356E+03    0.25595E-05   -0.74152E-06  6624   0.551E-03
  60 F= -.79032494E+03 E0= -.79029887E+03  d E =-.276257E-02  mag=     0.4822
       N       E                     dE             d eps       ncg     rms          rms(c)
DAV:   1    -0.790317211518E+03    0.77344E-02   -0.29399E+00 11520   0.320E+00    0.129E+00
DAV:   2    -0.790410483886E+03   -0.93272E-01   -0.69206E-01 15972   0.988E-01    0.596E+00
DAV:   3    -0.790317199358E+03    0.93285E-01   -0.14798E+00 15660   0.671E-01    0.260E+00
DAV:   4    -0.790319310070E+03   -0.21107E-02   -0.52862E-02 14172   0.427E-01    0.725E-01
DAV:   5    -0.790320242846E+03   -0.93278E-03   -0.17925E-02 13776   0.261E-01    0.554E-01
DAV:   6    -0.790321962399E+03   -0.17196E-02   -0.83023E-03 13704   0.131E-01    0.729E-01
DAV:   7    -0.790319666006E+03    0.22964E-02   -0.34252E-03 12072   0.856E-02    0.556E-01
DAV:   8    -0.790318695473E+03    0.97053E-03   -0.14484E-02 15912   0.103E-01    0.285E-01
DAV:   9    -0.790318993050E+03   -0.29758E-03   -0.17905E-03 13164   0.775E-02    0.187E-01
DAV:  10    -0.790319378020E+03   -0.38497E-03   -0.11856E-03 12972   0.410E-02    0.253E-01
DAV:  11    -0.790318938756E+03    0.43926E-03   -0.11897E-03 13320   0.436E-02    0.233E-01
DAV:  12    -0.790318731704E+03    0.20705E-03   -0.11581E-03 14268   0.471E-02    0.197E-01
DAV:  13    -0.790318795729E+03   -0.64025E-04   -0.37195E-04 12672   0.448E-02    0.128E-01
DAV:  14    -0.790318772961E+03    0.22768E-04   -0.16845E-04 13704   0.199E-02    0.489E-02
DAV:  15    -0.790318786174E+03   -0.13213E-04   -0.51299E-05 10848   0.119E-02    0.184E-02
DAV:  16    -0.790318791633E+03   -0.54592E-05   -0.12622E-05  8172   0.782E-03
  61 F= -.79031879E+03 E0= -.79029317E+03  d E =0.615172E-02  mag=     0.5055
       N       E                     dE             d eps       ncg     rms          rms(c)
DAV:   1    -0.790326578743E+03   -0.77926E-02   -0.11236E+00 11544   0.198E+00    0.117E+00
DAV:   2    -0.790384068399E+03   -0.57490E-01   -0.63130E-01 16944   0.907E-01    0.276E+00
DAV:   3    -0.790331590755E+03    0.52478E-01   -0.20684E-01 17700   0.672E-01    0.120E+00
DAV:   4    -0.790326800731E+03    0.47900E-02   -0.28844E-02 14880   0.311E-01    0.638E-01
DAV:   5    -0.790325877375E+03    0.92336E-03   -0.89925E-03 14556   0.183E-01    0.212E-01
DAV:   6    -0.790326489231E+03   -0.61186E-03   -0.21450E-03 14016   0.101E-01    0.313E-01
DAV:   7    -0.790326728929E+03   -0.23970E-03   -0.13842E-03 13488   0.564E-02    0.428E-01
DAV:   8    -0.790326123707E+03    0.60522E-03   -0.11236E-03 12180   0.457E-02    0.317E-01
DAV:   9    -0.790325964555E+03    0.15915E-03   -0.14799E-03 16488   0.517E-02    0.203E-01
DAV:  10    -0.790326148349E+03   -0.18379E-03   -0.10567E-03 12996   0.465E-02    0.149E-01
DAV:  11    -0.790326196419E+03   -0.48070E-04   -0.99615E-05 12228   0.197E-02    0.144E-01
DAV:  12    -0.790326101594E+03    0.94825E-04   -0.23010E-04 12564   0.163E-02    0.135E-01
DAV:  13    -0.790326013184E+03    0.88410E-04   -0.44652E-04 14940   0.315E-02    0.101E-01
DAV:  14    -0.790326052046E+03   -0.38862E-04   -0.16357E-04 12168   0.225E-02    0.743E-02
DAV:  15    -0.790326042949E+03    0.90974E-05   -0.11104E-04  9744   0.119E-02    0.212E-02
DAV:  16    -0.790326046410E+03   -0.34613E-05   -0.10679E-05  7344   0.643E-03
  62 F= -.79032605E+03 E0= -.79030013E+03  d E =-.725478E-02  mag=     0.4912
       N       E                     dE             d eps       ncg     rms          rms(c)
DAV:   1    -0.790326288550E+03   -0.24560E-03   -0.76632E-02 11520   0.499E-01    0.366E-01
DAV:   2    -0.790332848690E+03   -0.65601E-02   -0.71435E-02 17208   0.277E-01    0.158E+00
DAV:   3    -0.790324815558E+03    0.80331E-02   -0.39282E-02 16428   0.227E-01    0.327E-01
DAV:   4    -0.790326300462E+03   -0.14849E-02   -0.47199E-03 12972   0.860E-02    0.246E-01
DAV:   5    -0.790326274306E+03    0.26156E-04   -0.20699E-03 14808   0.543E-02    0.178E-01
DAV:   6    -0.790326538172E+03   -0.26387E-03   -0.10862E-03 13128   0.317E-02    0.291E-01
DAV:   7    -0.790326083985E+03    0.45419E-03   -0.79862E-04 11784   0.348E-02    0.132E-01
DAV:   8    -0.790326118978E+03   -0.34993E-04   -0.37167E-04 13680   0.259E-02    0.593E-02
DAV:   9    -0.790326186245E+03   -0.67268E-04   -0.11754E-04 11544   0.225E-02    0.385E-02
DAV:  10    -0.790326194458E+03   -0.82122E-05   -0.27169E-05  9024   0.923E-03
  63 F= -.79032619E+03 E0= -.79030034E+03  d E =-.148048E-03  mag=     0.4934
       N       E                     dE             d eps       ncg     rms          rms(c)
DAV:   1    -0.790326300105E+03   -0.11386E-03   -0.29776E-02 11520   0.314E-01    0.209E-01
DAV:   2    -0.790328393702E+03   -0.20936E-02   -0.14717E-02 17184   0.160E-01    0.100E+00
DAV:   3    -0.790325763793E+03    0.26299E-02   -0.94356E-03 16464   0.128E-01    0.187E-01
DAV:   4    -0.790326363459E+03   -0.59967E-03   -0.16970E-03 12648   0.481E-02    0.155E-01
DAV:   5    -0.790326440104E+03   -0.76645E-04   -0.32051E-04 13764   0.224E-02    0.144E-01
DAV:   6    -0.790326350615E+03    0.89489E-04   -0.93209E-05 11376   0.152E-02    0.115E-01
DAV:   7    -0.790326359470E+03   -0.88549E-05   -0.33446E-04 13680   0.184E-02    0.137E-01
DAV:   8    -0.790326326059E+03    0.33411E-04   -0.94070E-05 11148   0.170E-02    0.114E-01
DAV:   9    -0.790326207016E+03    0.11904E-03   -0.77657E-04 13068   0.232E-02    0.407E-02
DAV:  10    -0.790326266548E+03   -0.59532E-04   -0.93859E-05 11112   0.186E-02    0.414E-02
DAV:  11    -0.790326267410E+03   -0.86229E-06   -0.17215E-05  7776   0.888E-03
  64 F= -.79032627E+03 E0= -.79030035E+03  d E =-.729521E-04  mag=     0.4907
