       N       E                     dE             d eps       ncg     rms          rms(c)
DAV:   1     0.109031262209E+05    0.10903E+05   -0.43248E+05 35650   0.162E+03
DAV:   2     0.817959546277E+03   -0.10085E+05   -0.93020E+04 33210   0.474E+02
DAV:   3    -0.693262187850E+03   -0.15112E+04   -0.13642E+04 35740   0.188E+02
DAV:   4    -0.784570451785E+03   -0.91308E+02   -0.89900E+02 36480   0.446E+01
DAV:   5    -0.785772365583E+03   -0.12019E+01   -0.11992E+01 35970   0.557E+00    0.381E-01
DAV:   6    -0.785799662623E+03   -0.27297E-01   -0.27645E-01 37130   0.810E-01    0.406E-01
DAV:   7    -0.785800297344E+03   -0.63472E-03   -0.10934E-02 36190   0.198E-01    0.193E-01
DAV:   8    -0.785800339546E+03   -0.42202E-04   -0.90593E-04 36490   0.511E-02    0.124E-01
DAV:   9    -0.785800336283E+03    0.32629E-05   -0.42288E-05 30570   0.111E-02
   1 F= -.78580034E+03 E0= -.78580034E+03  d E =-.785800E+03  mag=   126.0000
