       N       E                     dE             d eps       ncg     rms          ort
DAV:   1     0.570617058540E+04    0.57062E+04   -0.23085E+05  4256   0.174E+03
DAV:   2     0.119526306880E+02   -0.56942E+04   -0.51463E+04  4256   0.499E+02
DAV:   3    -0.789424318372E+03   -0.80138E+03   -0.76296E+03  4256   0.200E+02
DAV:   4    -0.823111422233E+03   -0.33687E+02   -0.33351E+02  4256   0.424E+01
DAV:   5    -0.823458862718E+03   -0.34744E+00   -0.34693E+00  4256   0.463E+00
SDA:   6    -0.295140564114E+03    0.52832E+03   -0.34693E+00  4256   0.178E+04 0.000E+00
CGA:   7    -0.559661919007E+03   -0.26452E+03   -0.26343E+03  4256   0.236E+03 0.559E+01
CGA:   8    -0.593233597063E+03   -0.33572E+02   -0.35464E+02  4256   0.173E+03 0.742E+01
CGA:   9    -0.606888937316E+03   -0.13655E+02   -0.17937E+02  4256   0.692E+02-0.834E+01
CGA:  10    -0.614823818278E+03   -0.79349E+01   -0.77173E+01  4256   0.538E+02 0.418E+00
CGA:  11    -0.622213336549E+03   -0.73895E+01   -0.70842E+01  4256   0.157E+02 0.348E+00
CGA:  12    -0.623877164550E+03   -0.16638E+01   -0.16992E+01  4256   0.112E+02-0.309E+00
CGA:  13    -0.624963328531E+03   -0.10862E+01   -0.10476E+01  4256   0.419E+01 0.390E-01
CGA:  14    -0.625291558900E+03   -0.32823E+00   -0.33685E+00  4256   0.276E+01-0.204E+00
CGA:  15    -0.625598048331E+03   -0.30649E+00   -0.31330E+00  4256   0.224E+01 0.858E-01
CGA:  16    -0.625770854651E+03   -0.17281E+00   -0.17822E+00  4256   0.125E+01-0.288E+00
CGA:  17    -0.625921511235E+03   -0.15066E+00   -0.95337E-01  4256   0.200E+01 0.378E+00
CGA:  18    -0.626048099040E+03   -0.12659E+00   -0.28346E+00  4256   0.585E+01 0.222E+00
CGA:  19    -0.626274179352E+03   -0.22608E+00   -0.18928E+00  4256   0.330E+01-0.875E+01
CGA:  20    -0.626595808169E+03   -0.32163E+00   -0.33377E+00  4256   0.470E+01 0.569E-01
CGA:  21    -0.627086313428E+03   -0.49051E+00   -0.48439E+00  4256   0.555E+01-0.290E+00
CGA:  22    -0.627350541901E+03   -0.26423E+00   -0.36517E+00  4256   0.819E+00-0.492E+00
CGA:  23    -0.627402453616E+03   -0.51912E-01   -0.52296E-01  4256   0.447E+00-0.359E-01
CGA:  24    -0.627616820480E+03   -0.21437E+00    0.36858E-01  4256   0.114E+01 0.151E+01
CGA:  25    -0.624250163069E+03    0.33667E+01   -0.13587E+01  4256   0.191E+03-0.561E+01
CGA:  26    -0.626387348107E+03   -0.21372E+01   -0.22270E+02  4256   0.356E+02-0.281E+02
CGA:  27    -0.627285802676E+03   -0.89845E+00   -0.47266E+00  4256   0.262E+02 0.259E+02
CGA:  28    -0.628026756766E+03   -0.74095E+00   -0.39032E+00  4256   0.193E+02 0.228E+02
CGA:  29    -0.628638542574E+03   -0.61179E+00   -0.32530E+00  4256   0.138E+02 0.166E+02
CGA:  30    -0.629266782563E+03   -0.62824E+00   -0.34815E+00  4256   0.818E+01 0.109E+02
CGA:  31    -0.629858112954E+03   -0.59133E+00   -0.36700E+00  4256   0.272E+01 0.473E+01
CGA:  32    -0.630143597278E+03   -0.28548E+00   -0.22185E+00  4256   0.888E+00 0.555E+00
CGA:  33    -0.630375291679E+03   -0.23169E+00   -0.22881E+00  4256   0.163E+01 0.591E-01
CGA:  34    -0.630731104057E+03   -0.35581E+00   -0.36083E+00  4256   0.663E+00-0.217E+00
CGA:  35    -0.630834543130E+03   -0.10344E+00   -0.18224E+00  4256   0.160E+01-0.479E+00
CGA:  36    -0.630956834620E+03   -0.12229E+00   -0.12913E+00  4256   0.955E-01-0.772E-01
CGA:  37    -0.630982314769E+03   -0.25480E-01   -0.40507E-01  4256   0.313E+00-0.602E-01
CGA:  38    -0.631008283486E+03   -0.25969E-01   -0.25611E-01  4256   0.344E-01-0.361E-02
CGA:  39    -0.631014942046E+03   -0.66586E-02   -0.15821E-01  4256   0.123E+00-0.347E-01
CGA:  40    -0.631033943924E+03   -0.19002E-01   -0.17751E-01  4256   0.405E-01-0.190E-01
CGA:  41    -0.631040092320E+03   -0.61484E-02   -0.52539E-02  4256   0.264E-01-0.158E-01
CGA:  42    -0.631049775407E+03   -0.96831E-02    0.36459E-02  4256   0.916E-02 0.107E-01
CGA:  43    -0.630976037668E+03    0.73738E-01   -0.39299E-01  4256   0.111E+01-0.824E-01
CGA:  44    -0.631065709593E+03   -0.89672E-01   -0.81528E-01  4256   0.839E-01 0.812E-01
CGA:  45    -0.631080286414E+03   -0.14577E-01   -0.13347E-01  4256   0.636E-02-0.609E-02
CGA:  46    -0.631080684089E+03   -0.39768E-03   -0.46466E-03  4256   0.117E-02 0.217E-03
CGA:  47    -0.631080643634E+03    0.40455E-04   -0.11278E-03  4256   0.615E-03 0.633E-03
CGA:  48    -0.631080617217E+03    0.26417E-04   -0.50296E-04  4256   0.314E-03 0.319E-03
CGA:  49    -0.631080584476E+03    0.32741E-04   -0.27594E-04  4256   0.252E-03 0.271E-03
CGA:  50    -0.631080556614E+03    0.27862E-04   -0.21382E-04  4256   0.216E-03 0.230E-03
CGA:  51    -0.631080531620E+03    0.24994E-04   -0.17050E-04  4256   0.190E-03 0.200E-03
CGA:  52    -0.631080508530E+03    0.23091E-04   -0.13703E-04  4256   0.170E-03 0.178E-03
CGA:  53    -0.631080487040E+03    0.21490E-04   -0.11169E-04  4256   0.155E-03 0.161E-03
CGA:  54    -0.631080467035E+03    0.20005E-04   -0.92529E-05  4256   0.142E-03 0.147E-03
CGA:  55    -0.631080448426E+03    0.18608E-04   -0.77853E-05  4256   0.132E-03 0.136E-03
CGA:  56    -0.631080431127E+03    0.17299E-04   -0.66421E-05  4256   0.123E-03 0.127E-03
CGA:  57    -0.631080415044E+03    0.16083E-04   -0.57356E-05  4256   0.116E-03 0.119E-03
CGA:  58    -0.631080400087E+03    0.14956E-04   -0.50049E-05  4256   0.110E-03 0.113E-03
CGA:  59    -0.631080386167E+03    0.13921E-04   -0.44070E-05  4256   0.105E-03 0.107E-03
CGA:  60    -0.631080373200E+03    0.12967E-04   -0.39111E-05  4256   0.999E-04 0.102E-03
CGA:  61    -0.631080361110E+03    0.12090E-04   -0.34948E-05  4256   0.958E-04 0.976E-04
CGA:  62    -0.631080349824E+03    0.11286E-04   -0.31415E-05  4256   0.921E-04 0.937E-04
CGA:  63    -0.631080339279E+03    0.10545E-04   -0.28389E-05  4256   0.888E-04 0.903E-04
CGA:  64    -0.631080329414E+03    0.98644E-05   -0.25775E-05  4256   0.859E-04 0.872E-04
   1 F= -.63108033E+03 E0= -.63107388E+03  d E =-.631080E+03  mag=    41.0000
       N       E                     dE             d eps       ncg     rms          ort
SDA:   1    -0.631080379779E+03   -0.40500E-04    0.00000E+00  4256   0.512E-02 0.000E+00
CGA:   2    -0.631081417461E+03   -0.10377E-02   -0.10226E-02  4256   0.200E-02 0.359E-03
CGA:   3    -0.631081848122E+03   -0.43066E-03   -0.42290E-03  4256   0.990E-03 0.203E-03
CGA:   4    -0.631081996474E+03   -0.14835E-03   -0.15059E-03  4256   0.241E-03 0.922E-04
CGA:   5    -0.631082024380E+03   -0.27906E-04   -0.31880E-04  4256   0.624E-04 0.993E-04
CGA:   6    -0.631082025846E+03   -0.14666E-05   -0.65813E-05  4256   0.380E-04 0.606E-04
   2 F= -.63108203E+03 E0= -.63107569E+03  d E =-.169643E-02  mag=    41.0000
       N       E                     dE             d eps       ncg     rms          ort
SDA:   1    -0.631055112735E+03    0.26912E-01    0.00000E+00  4256   0.102E+00 0.000E+00
CGA:   2    -0.631077399462E+03   -0.22287E-01   -0.22248E-01  4256   0.443E-01 0.557E-03
CGA:   3    -0.631086843340E+03   -0.94439E-02   -0.94838E-02  4256   0.225E-01-0.709E-03
CGA:   4    -0.631089852498E+03   -0.30092E-02   -0.29977E-02  4256   0.509E-02-0.562E-03
CGA:   5    -0.631090697877E+03   -0.84538E-03   -0.84732E-03  4256   0.114E-02-0.126E-03
CGA:   6    -0.631090886111E+03   -0.18823E-03   -0.18801E-03  4256   0.496E-03 0.171E-04
CGA:   7    -0.631090954463E+03   -0.68351E-04   -0.68409E-04  4256   0.150E-03 0.206E-05
CGA:   8    -0.631090984893E+03   -0.30431E-04   -0.59886E-04  4256   0.327E-03-0.122E-03
CGA:   9    -0.631091019865E+03   -0.34972E-04   -0.32293E-04  4256   0.811E-04-0.392E-04
CGA:  10    -0.631090764089E+03    0.25578E-03   -0.13771E-03  4256   0.306E-02-0.370E-03
CGA:  11    -0.631091018278E+03   -0.25419E-03   -0.25526E-03  4256   0.464E-03-0.717E-05
CGA:  12    -0.631091094385E+03   -0.76108E-04   -0.78443E-04  4256   0.352E-04 0.196E-04
CGA:  13    -0.631091102984E+03   -0.85986E-05   -0.83587E-05  4256   0.275E-04-0.443E-05
   3 F= -.63109110E+03 E0= -.63108494E+03  d E =-.907714E-02  mag=    41.0000
       N       E                     dE             d eps       ncg     rms          ort
SDA:   1    -0.628588104448E+03    0.25030E+01    0.00000E+00  4256   0.729E+01 0.000E+00
CGA:   2    -0.630132293535E+03   -0.15442E+01   -0.15457E+01  4256   0.325E+01 0.117E-01
CGA:   3    -0.630786235691E+03   -0.65394E+00   -0.65269E+00  4256   0.162E+01-0.809E-02
CGA:   4    -0.631014228071E+03   -0.22799E+00   -0.22807E+00  4256   0.331E+00-0.529E-02
CGA:   5    -0.631072112317E+03   -0.57884E-01   -0.57769E-01  4256   0.764E-01-0.870E-03
CGA:   6    -0.631084552748E+03   -0.12440E-01   -0.12482E-01  4256   0.358E-01 0.411E-03
CGA:   7    -0.631089480809E+03   -0.49281E-02   -0.49463E-02  4256   0.946E-02 0.112E-03
CGA:   8    -0.631091569706E+03   -0.20889E-02   -0.20863E-02  4256   0.438E-02-0.984E-04
CGA:   9    -0.631092248464E+03   -0.67876E-03   -0.67340E-03  4256   0.197E-02-0.621E-04
CGA:  10    -0.631092679121E+03   -0.43066E-03   -0.42733E-03  4256   0.923E-03-0.163E-03
CGA:  11    -0.631092855454E+03   -0.17633E-03   -0.16944E-03  4256   0.841E-03-0.176E-03
CGA:  12    -0.631092985380E+03   -0.12993E-03   -0.12534E-03  4256   0.277E-03-0.889E-04
CGA:  13    -0.631093031053E+03   -0.45673E-04   -0.47987E-04  4256   0.136E-03 0.542E-04
CGA:  14    -0.631093055131E+03   -0.24078E-04   -0.26211E-04  4256   0.530E-04 0.288E-04
CGA:  15    -0.631093075166E+03   -0.20035E-04   -0.22167E-04  4256   0.939E-04-0.197E-04
CGA:  16    -0.631093082449E+03   -0.72828E-05   -0.68297E-05  4256   0.536E-04-0.575E-05
   4 F= -.63109308E+03 E0= -.63108702E+03  d E =-.197946E-02  mag=    41.0000
       N       E                     dE             d eps       ncg     rms          ort
SDA:   1    -0.630564519409E+03    0.52856E+00    0.00000E+00  4256   0.163E+01 0.000E+00
CGA:   2    -0.630904777158E+03   -0.34026E+00   -0.34026E+00  4256   0.700E+00-0.904E-03
CGA:   3    -0.631040488952E+03   -0.13571E+00   -0.13567E+00  4256   0.417E+00 0.653E-03
CGA:   4    -0.631093517669E+03   -0.53029E-01   -0.53575E-01  4256   0.895E-01 0.285E-03
CGA:   5    -0.631108308159E+03   -0.14790E-01   -0.14816E-01  4256   0.221E-01 0.726E-03
CGA:   6    -0.631111602990E+03   -0.32948E-02   -0.33054E-02  4256   0.876E-02 0.147E-03
CGA:   7    -0.631113007614E+03   -0.14046E-02   -0.14035E-02  4256   0.219E-02-0.271E-04
CGA:   8    -0.631113444460E+03   -0.43685E-03   -0.43771E-03  4256   0.104E-02 0.118E-03
CGA:   9    -0.631113571505E+03   -0.12705E-03   -0.13907E-03  4256   0.336E-03 0.150E-03
CGA:  10    -0.631113629543E+03   -0.58038E-04   -0.63355E-04  4256   0.924E-04 0.137E-03
CGA:  11    -0.631113643067E+03   -0.13524E-04   -0.18213E-04  4256   0.532E-04 0.758E-04
CGA:  12    -0.631113648042E+03   -0.49747E-05   -0.70782E-05  4256   0.376E-04 0.321E-04
   5 F= -.63111365E+03 E0= -.63110763E+03  d E =-.205656E-01  mag=    41.0000
       N       E                     dE             d eps       ncg     rms          ort
SDA:   1    -0.631092118835E+03    0.21524E-01    0.00000E+00  4256   0.592E-01 0.000E+00
CGA:   2    -0.631108225512E+03   -0.16107E-01   -0.16074E-01  4256   0.304E-01 0.388E-03
CGA:   3    -0.631113542241E+03   -0.53167E-02   -0.53115E-02  4256   0.121E-01-0.251E-03
CGA:   4    -0.631115019497E+03   -0.14773E-02   -0.14701E-02  4256   0.254E-02-0.116E-03
CGA:   5    -0.631115452753E+03   -0.43326E-03   -0.43343E-03  4256   0.638E-03 0.990E-05
CGA:   6    -0.631115553305E+03   -0.10055E-03   -0.10043E-03  4256   0.282E-03-0.378E-05
CGA:   7    -0.631115591669E+03   -0.38365E-04   -0.39429E-04  4256   0.607E-04 0.223E-04
CGA:   8    -0.631115609820E+03   -0.18151E-04   -0.18830E-04  4256   0.396E-04-0.668E-05
CGA:   9    -0.631115613775E+03   -0.39553E-05   -0.41193E-05  4256   0.167E-04 0.220E-05
   6 F= -.63111561E+03 E0= -.63110961E+03  d E =-.196573E-02  mag=    41.0000
       N       E                     dE             d eps       ncg     rms          ort
SDA:   1    -0.630193063329E+03    0.92255E+00    0.00000E+00  4256   0.231E+01 0.000E+00
CGA:   2    -0.630839273027E+03   -0.64621E+00   -0.64568E+00  4256   0.119E+01 0.462E-02
CGA:   3    -0.631041457179E+03   -0.20218E+00   -0.20210E+00  4256   0.460E+00-0.300E-02
CGA:   4    -0.631096744939E+03   -0.55288E-01   -0.55111E-01  4256   0.968E-01 0.308E-04
CGA:   5    -0.631113364721E+03   -0.16620E-01   -0.16622E-01  4256   0.275E-01-0.110E-04
CGA:   6    -0.631117356903E+03   -0.39922E-02   -0.39881E-02  4256   0.110E-01-0.102E-03
CGA:   7    -0.631119202081E+03   -0.18452E-02   -0.18429E-02  4256   0.279E-02-0.161E-03
CGA:   8    -0.631119877647E+03   -0.67557E-03   -0.69129E-03  4256   0.179E-02-0.227E-03
CGA:   9    -0.631120105090E+03   -0.22744E-03   -0.22180E-03  4256   0.738E-03-0.114E-03
CGA:  10    -0.631120274249E+03   -0.16916E-03   -0.17602E-03  4256   0.326E-03-0.967E-04
CGA:  11    -0.631120335843E+03   -0.61594E-04   -0.71642E-04  4256   0.486E-03-0.153E-03
CGA:  12    -0.631120378313E+03   -0.42469E-04   -0.38893E-04  4256   0.147E-03-0.924E-04
CGA:  13    -0.631120390384E+03   -0.12071E-04   -0.12722E-04  4256   0.995E-04 0.765E-05
CGA:  14    -0.631120408022E+03   -0.17638E-04   -0.17749E-04  4256   0.474E-04 0.734E-05
CGA:  15    -0.631120417217E+03   -0.91958E-05   -0.90058E-05  4256   0.624E-04-0.305E-04
   7 F= -.63112042E+03 E0= -.63111453E+03  d E =-.480344E-02  mag=    41.0000
       N       E                     dE             d eps       ncg     rms          ort
SDA:   1    -0.630930262388E+03    0.19015E+00    0.00000E+00  4256   0.480E+00 0.000E+00
CGA:   2    -0.631067528990E+03   -0.13727E+00   -0.13725E+00  4256   0.215E+00 0.769E-04
CGA:   3    -0.631110794429E+03   -0.43265E-01   -0.43255E-01  4256   0.507E-01 0.508E-03
CGA:   4    -0.631118229937E+03   -0.74355E-02   -0.74447E-02  4256   0.186E-01 0.322E-03
CGA:   5    -0.631120700011E+03   -0.24701E-02   -0.24689E-02  4256   0.452E-02-0.573E-04
CGA:   6    -0.631121581160E+03   -0.88115E-03   -0.88193E-03  4256   0.127E-02-0.518E-04
CGA:   7    -0.631121798341E+03   -0.21718E-03   -0.21672E-03  4256   0.776E-03-0.546E-04
CGA:   8    -0.631121914620E+03   -0.11628E-03   -0.11583E-03  4256   0.220E-03-0.180E-04
CGA:   9    -0.631121965509E+03   -0.50888E-04   -0.50619E-04  4256   0.104E-03 0.473E-05
CGA:  10    -0.631121979458E+03   -0.13950E-04   -0.14348E-04  4256   0.462E-04 0.831E-05
CGA:  11    -0.631121993793E+03   -0.14334E-04   -0.16261E-04  4256   0.305E-04-0.132E-04
CGA:  12    -0.631121997011E+03   -0.32185E-05   -0.31720E-05  4256   0.157E-04-0.117E-05
CGA:  13    -0.631121988249E+03    0.87617E-05   -0.11169E-04  4256   0.942E-04-0.361E-04
CGA:  14    -0.631122002208E+03   -0.13958E-04   -0.13689E-04  4256   0.478E-04-0.403E-05
CGA:  15    -0.631122009125E+03   -0.69179E-05   -0.64823E-05  4256   0.653E-05-0.648E-05
   8 F= -.63112201E+03 E0= -.63111605E+03  d E =-.159191E-02  mag=    41.0000
       N       E                     dE             d eps       ncg     rms          ort
SDA:   1    -0.631083849249E+03    0.38153E-01    0.00000E+00  4256   0.947E-01 0.000E+00
CGA:   2    -0.631113284537E+03   -0.29435E-01   -0.29506E-01  4256   0.440E-01-0.654E-03
CGA:   3    -0.631120314922E+03   -0.70304E-02   -0.70348E-02  4256   0.162E-01 0.114E-03
CGA:   4    -0.631122214868E+03   -0.18999E-02   -0.18987E-02  4256   0.362E-02-0.496E-04
CGA:   5    -0.631122876275E+03   -0.66141E-03   -0.66115E-03  4256   0.858E-03-0.145E-04
CGA:   6    -0.631123021066E+03   -0.14479E-03   -0.14489E-03  4256   0.358E-03 0.247E-05
CGA:   7    -0.631123069766E+03   -0.48700E-04   -0.48943E-04  4256   0.114E-03 0.410E-05
CGA:   8    -0.631123096597E+03   -0.26832E-04   -0.26862E-04  4256   0.445E-04-0.778E-06
CGA:   9    -0.631123104812E+03   -0.82154E-05   -0.81797E-05  4256   0.339E-04-0.322E-05
CGA:  10    -0.631123110947E+03   -0.61340E-05   -0.10273E-04  4256   0.636E-04-0.317E-04
   9 F= -.63112311E+03 E0= -.63111716E+03  d E =-.110182E-02  mag=    41.0000
       N       E                     dE             d eps       ncg     rms          ort
SDA:   1    -0.631113156145E+03    0.99487E-02    0.00000E+00  4256   0.268E-01 0.000E+00
CGA:   2    -0.631119860381E+03   -0.67042E-02   -0.66924E-02  4256   0.140E-01 0.218E-03
CGA:   3    -0.631122196776E+03   -0.23364E-02   -0.23343E-02  4256   0.695E-02-0.809E-04
CGA:   4    -0.631123038657E+03   -0.84188E-03   -0.84026E-03  4256   0.123E-02-0.125E-04
CGA:   5    -0.631123277911E+03   -0.23925E-03   -0.23935E-03  4256   0.274E-03-0.443E-04
CGA:   6    -0.631123332073E+03   -0.54162E-04   -0.54539E-04  4256   0.149E-03-0.293E-04
CGA:   7    -0.631123351241E+03   -0.19168E-04   -0.17703E-04  4256   0.552E-04-0.243E-04
CGA:   8    -0.631123362055E+03   -0.10815E-04   -0.15633E-04  4256   0.631E-04-0.327E-04
CGA:   9    -0.631123369118E+03   -0.70632E-05   -0.65207E-05  4256   0.192E-04-0.575E-05
  10 F= -.63112337E+03 E0= -.63111743E+03  d E =-.258172E-03  mag=    41.0000
