       N       E                     dE             d eps       ncg     rms          rms(c)
DAV:   1     0.825878078248E+04    0.82588E+04   -0.23545E+05 34380   0.218E+03
DAV:   2     0.116731400696E+04   -0.70915E+04   -0.66452E+04 33696   0.633E+02
DAV:   3    -0.383983219032E+03   -0.15513E+04   -0.13634E+04 35964   0.273E+02
DAV:   4    -0.541199640069E+03   -0.15722E+03   -0.15442E+03 36840   0.839E+01
DAV:   5    -0.543942413322E+03   -0.27428E+01   -0.27292E+01 36816   0.125E+01    0.108E+02
DAV:   6    -0.616005664848E+03   -0.72063E+02   -0.11612E+03 45372   0.130E+02    0.158E+02
DAV:   7    -0.454230071825E+03    0.16178E+03   -0.31992E+02 39528   0.109E+02    0.678E+01
DAV:   8    -0.456283904078E+03   -0.20538E+01   -0.18251E+02 42084   0.547E+01    0.893E+01
DAV:   9    -0.474908622333E+03   -0.18625E+02   -0.11499E+02 38664   0.661E+01    0.107E+02
DAV:  10    -0.456249248217E+03    0.18659E+02   -0.54550E+01 38388   0.457E+01    0.588E+01
DAV:  11    -0.456365529946E+03   -0.11628E+00   -0.60516E+01 38016   0.312E+01    0.617E+01
DAV:  12    -0.442846820458E+03    0.13519E+02   -0.22047E+01 37380   0.281E+01    0.327E+01
DAV:  13    -0.438982453489E+03    0.38644E+01   -0.13841E+01 37728   0.272E+01    0.278E+01
DAV:  14    -0.437533428054E+03    0.14490E+01   -0.12353E+01 41760   0.126E+01    0.228E+01
DAV:  15    -0.437253538619E+03    0.27989E+00   -0.12917E+01 41100   0.666E+00    0.166E+01
DAV:  16    -0.437056598548E+03    0.19694E+00   -0.96261E-01 39624   0.399E+00    0.148E+01
DAV:  17    -0.437205944253E+03   -0.14935E+00   -0.10570E+00 39024   0.505E+00    0.145E+01
DAV:  18    -0.437272241981E+03   -0.66298E-01   -0.17342E+00 40788   0.593E+00    0.143E+01
DAV:  19    -0.436883200275E+03    0.38904E+00   -0.50900E+00 41880   0.738E+00    0.105E+01
DAV:  20    -0.436913036715E+03   -0.29836E-01   -0.31190E+00 42336   0.787E+00    0.120E+01
DAV:  21    -0.436903955091E+03    0.90816E-02   -0.83379E-01 37632   0.417E+00    0.107E+01
DAV:  22    -0.436881439866E+03    0.22515E-01   -0.46325E-01 36816   0.241E+00    0.975E+00
DAV:  23    -0.436824751199E+03    0.56689E-01   -0.40887E-01 39588   0.268E+00    0.811E+00
DAV:  24    -0.436825101881E+03   -0.35068E-03   -0.64007E-01 42216   0.389E+00    0.696E+00
DAV:  25    -0.436778286604E+03    0.46815E-01   -0.36290E-01 43116   0.254E+00    0.555E+00
DAV:  26    -0.436781727024E+03   -0.34404E-02   -0.40468E-02 36552   0.955E-01    0.547E+00
DAV:  27    -0.436772147487E+03    0.95795E-02   -0.20610E-02 39312   0.112E+00    0.509E+00
DAV:  28    -0.436713340367E+03    0.58807E-01   -0.15595E-01 43716   0.202E+00    0.335E+00
DAV:  29    -0.436704406458E+03    0.89339E-02   -0.72010E-02 43140   0.141E+00    0.268E+00
DAV:  30    -0.436703175093E+03    0.12314E-02   -0.20607E-02 37200   0.818E-01    0.248E+00
DAV:  31    -0.436703500074E+03   -0.32498E-03   -0.10914E-02 38232   0.681E-01    0.203E+00
DAV:  32    -0.436702987957E+03    0.51212E-03   -0.14879E-02 42156   0.834E-01    0.179E+00
DAV:  33    -0.436699062394E+03    0.39256E-02   -0.99324E-03 43164   0.727E-01    0.116E+00
DAV:  34    -0.436699581725E+03   -0.51933E-03   -0.92440E-03 44424   0.548E-01    0.941E-01
DAV:  35    -0.436698770411E+03    0.81131E-03   -0.33021E-03 38556   0.407E-01    0.736E-01
DAV:  36    -0.436698557175E+03    0.21324E-03   -0.26948E-03 41244   0.219E-01    0.581E-01
DAV:  37    -0.436698392461E+03    0.16471E-03   -0.15864E-03 43632   0.195E-01    0.425E-01
DAV:  38    -0.436698377306E+03    0.15155E-04   -0.99711E-04 40356   0.214E-01    0.331E-01
DAV:  39    -0.436698200320E+03    0.17699E-03   -0.91840E-04 40524   0.189E-01    0.198E-01
DAV:  40    -0.436698182192E+03    0.18128E-04   -0.41078E-04 38160   0.127E-01    0.165E-01
DAV:  41    -0.436698142543E+03    0.39649E-04   -0.34257E-04 37596   0.116E-01    0.110E-01
DAV:  42    -0.436698126832E+03    0.15711E-04   -0.16196E-04 35676   0.762E-02    0.708E-02
DAV:  43    -0.436698133652E+03   -0.68205E-05   -0.80886E-05 30108   0.668E-02
   1 F= -.43669813E+03 E0= -.43668434E+03  d E =-.436698E+03  mag=     1.9760
       N       E                     dE             d eps       ncg     rms          rms(c)
DAV:   1    -0.436709065667E+03   -0.10939E-01   -0.83152E-03 51036   0.988E-01    0.644E-02
DAV:   2    -0.436709533628E+03   -0.46796E-03   -0.46154E-03 37260   0.141E-01    0.105E-01
DAV:   3    -0.436709526276E+03    0.73520E-05   -0.68403E-04 36240   0.131E-01    0.867E-02
DAV:   4    -0.436709523129E+03    0.31471E-05   -0.25530E-04 29892   0.597E-02    0.635E-02
DAV:   5    -0.436709510370E+03    0.12759E-04   -0.73122E-05 24612   0.525E-02    0.217E-02
DAV:   6    -0.436709516348E+03   -0.59782E-05   -0.19105E-05 20976   0.341E-02
   2 F= -.43670952E+03 E0= -.43669572E+03  d E =-.113827E-01  mag=     1.9702
       N       E                     dE             d eps       ncg     rms          rms(c)
DAV:   1    -0.436463403884E+03    0.24611E+00   -0.10067E+01 50484   0.345E+01    0.253E+00
DAV:   2    -0.437086810017E+03   -0.62341E+00   -0.60708E+00 36948   0.576E+00    0.387E+00
DAV:   3    -0.437046387390E+03    0.40423E-01   -0.10311E+00 37320   0.421E+00    0.309E+00
DAV:   4    -0.437041493139E+03    0.48943E-02   -0.43222E-01 37824   0.229E+00    0.210E+00
DAV:   5    -0.437028085956E+03    0.13407E-01   -0.68090E-02 36828   0.159E+00    0.932E-01
DAV:   6    -0.437030093221E+03   -0.20073E-02   -0.23578E-02 37980   0.964E-01    0.971E-01
DAV:   7    -0.437029638780E+03    0.45444E-03   -0.39700E-02 40992   0.825E-01    0.913E-01
DAV:   8    -0.437031598841E+03   -0.19601E-02   -0.13290E-02 39828   0.682E-01    0.119E+00
DAV:   9    -0.437029350594E+03    0.22482E-02   -0.45286E-03 38028   0.468E-01    0.953E-01
DAV:  10    -0.437027349567E+03    0.20010E-02   -0.12276E-02 48792   0.280E-01    0.337E-01
DAV:  11    -0.437027857338E+03   -0.50777E-03   -0.47717E-03 42756   0.314E-01    0.202E-01
DAV:  12    -0.437028023125E+03   -0.16579E-03   -0.86899E-04 37932   0.179E-01    0.184E-01
DAV:  13    -0.437027995126E+03    0.27999E-04   -0.20556E-04 36072   0.951E-02    0.137E-01
DAV:  14    -0.437027960067E+03    0.35059E-04   -0.22316E-04 29388   0.703E-02    0.582E-02
DAV:  15    -0.437027966359E+03   -0.62920E-05   -0.18928E-04 29328   0.610E-02    0.598E-02
DAV:  16    -0.437027968280E+03   -0.19214E-05   -0.63002E-05 27192   0.554E-02
   3 F= -.43702797E+03 E0= -.43701388E+03  d E =-.318452E+00  mag=     1.9693
       N       E                     dE             d eps       ncg     rms          rms(c)
DAV:   1    -0.436316406967E+03    0.71156E+00   -0.19173E+01 49788   0.463E+01    0.411E+00
DAV:   2    -0.437784819664E+03   -0.14684E+01   -0.13618E+01 38568   0.109E+01    0.869E+00
DAV:   3    -0.437305272481E+03    0.47955E+00   -0.26439E+00 37332   0.775E+00    0.281E+00
DAV:   4    -0.437341323151E+03   -0.36051E-01   -0.71459E-01 38232   0.338E+00    0.348E+00
DAV:   5    -0.437299332427E+03    0.41991E-01   -0.17191E-01 37332   0.234E+00    0.135E+00
DAV:   6    -0.437302542713E+03   -0.32103E-02   -0.43113E-02 40764   0.137E+00    0.141E+00
DAV:   7    -0.437301612525E+03    0.93019E-03   -0.10740E-01 40464   0.110E+00    0.135E+00
DAV:   8    -0.437302776316E+03   -0.11638E-02   -0.13965E-02 37440   0.853E-01    0.124E+00
DAV:   9    -0.437299120305E+03    0.36560E-02   -0.13005E-02 39492   0.679E-01    0.763E-01
DAV:  10    -0.437300728090E+03   -0.16078E-02   -0.44185E-02 42888   0.757E-01    0.859E-01
DAV:  11    -0.437300464585E+03    0.26350E-03   -0.84596E-03 39444   0.626E-01    0.833E-01
DAV:  12    -0.437298858231E+03    0.16064E-02   -0.45299E-03 41040   0.319E-01    0.404E-01
DAV:  13    -0.437298792474E+03    0.65757E-04   -0.18101E-03 43992   0.184E-01    0.197E-01
DAV:  14    -0.437298848527E+03   -0.56053E-04   -0.14269E-03 42276   0.147E-01    0.846E-02
DAV:  15    -0.437298908213E+03   -0.59685E-04   -0.24940E-04 34968   0.109E-01    0.110E-01
DAV:  16    -0.437298882338E+03    0.25875E-04   -0.13460E-04 33684   0.894E-02    0.836E-02
DAV:  17    -0.437298866416E+03    0.15922E-04   -0.72143E-05 24312   0.438E-02    0.383E-02
DAV:  18    -0.437298866227E+03    0.18936E-06   -0.34306E-05 19860   0.379E-02
   4 F= -.43729887E+03 E0= -.43728430E+03  d E =-.270898E+00  mag=     1.9684
       N       E                     dE             d eps       ncg     rms          rms(c)
DAV:   1    -0.437332973889E+03   -0.34107E-01   -0.65749E+00 38460   0.114E+01    0.103E+00
DAV:   2    -0.437427810921E+03   -0.94837E-01   -0.93169E-01 43236   0.362E+00    0.352E+00
DAV:   3    -0.437383356944E+03    0.44454E-01   -0.38363E-01 37224   0.243E+00    0.119E+00
DAV:   4    -0.437384729517E+03   -0.13726E-02   -0.55387E-02 37500   0.121E+00    0.693E-01
DAV:   5    -0.437383176630E+03    0.15529E-02   -0.14365E-02 37200   0.715E-01    0.412E-01
DAV:   6    -0.437382702414E+03    0.47422E-03   -0.37008E-03 39060   0.438E-01    0.250E-01
DAV:   7    -0.437382476874E+03    0.22554E-03   -0.19594E-03 36816   0.253E-01    0.191E-01
DAV:   8    -0.437382711101E+03   -0.23423E-03   -0.31312E-03 41976   0.364E-01    0.268E-01
DAV:   9    -0.437382374753E+03    0.33635E-03   -0.12977E-03 40392   0.250E-01    0.614E-02
DAV:  10    -0.437382399145E+03   -0.24392E-04   -0.24935E-04 38940   0.108E-01    0.740E-02
DAV:  11    -0.437382376516E+03    0.22628E-04   -0.11354E-04 33108   0.746E-02    0.255E-02
DAV:  12    -0.437382376083E+03    0.43314E-06   -0.33160E-05 19572   0.319E-02
   5 F= -.43738238E+03 E0= -.43736757E+03  d E =-.835099E-01  mag=     1.9689
       N       E                     dE             d eps       ncg     rms          rms(c)
DAV:   1    -0.437264739474E+03    0.11764E+00   -0.14226E+01 40392   0.214E+01    0.121E+00
DAV:   2    -0.437452518249E+03   -0.18778E+00   -0.19102E+00 37776   0.363E+00    0.262E+00
DAV:   3    -0.437438924342E+03    0.13594E-01   -0.37343E-01 37512   0.223E+00    0.162E+00
DAV:   4    -0.437438980080E+03   -0.55737E-04   -0.84795E-02 37860   0.134E+00    0.104E+00
DAV:   5    -0.437433987780E+03    0.49923E-02   -0.20949E-02 37248   0.900E-01    0.427E-01
DAV:   6    -0.437435153786E+03   -0.11660E-02   -0.76544E-03 39936   0.628E-01    0.590E-01
DAV:   7    -0.437433276355E+03    0.18774E-02   -0.71980E-03 41172   0.594E-01    0.226E-01
DAV:   8    -0.437433546082E+03   -0.26973E-03   -0.27623E-03 40332   0.336E-01    0.232E-01
DAV:   9    -0.437433358681E+03    0.18740E-03   -0.14552E-03 37968   0.278E-01    0.129E-01
DAV:  10    -0.437433339996E+03    0.18685E-04   -0.50257E-04 42684   0.118E-01    0.855E-02
DAV:  11    -0.437433323074E+03    0.16922E-04   -0.28319E-04 36984   0.109E-01    0.699E-02
DAV:  12    -0.437433315228E+03    0.78458E-05   -0.55655E-05 28620   0.488E-02
   6 F= -.43743332E+03 E0= -.43741834E+03  d E =-.509391E-01  mag=     1.9694
       N       E                     dE             d eps       ncg     rms          rms(c)
DAV:   1    -0.437311094480E+03    0.12223E+00   -0.70897E+00 42792   0.194E+01    0.997E-01
DAV:   2    -0.437451068179E+03   -0.13997E+00   -0.14206E+00 36708   0.263E+00    0.978E-01
DAV:   3    -0.437457657242E+03   -0.65891E-02   -0.10383E-01 37212   0.177E+00    0.130E+00
DAV:   4    -0.437449533938E+03    0.81233E-02   -0.23260E-02 38400   0.111E+00    0.424E-01
DAV:   5    -0.437450220660E+03   -0.68672E-03   -0.11457E-02 42228   0.486E-01    0.591E-01
DAV:   6    -0.437450636534E+03   -0.41587E-03   -0.16436E-02 41316   0.472E-01    0.609E-01
DAV:   7    -0.437449401348E+03    0.12352E-02   -0.77706E-03 42372   0.508E-01    0.288E-01
DAV:   8    -0.437449435442E+03   -0.34094E-04   -0.12799E-03 40104   0.238E-01    0.221E-01
DAV:   9    -0.437449310578E+03    0.12486E-03   -0.63800E-04 38256   0.180E-01    0.134E-01
DAV:  10    -0.437449262730E+03    0.47848E-04   -0.29743E-04 38700   0.951E-02    0.535E-02
DAV:  11    -0.437449269316E+03   -0.65862E-05   -0.14102E-04 33456   0.909E-02    0.502E-02
DAV:  12    -0.437449260449E+03    0.88668E-05   -0.68611E-05 27096   0.622E-02
   7 F= -.43744926E+03 E0= -.43743420E+03  d E =-.159452E-01  mag=     1.9691
       N       E                     dE             d eps       ncg     rms          rms(c)
DAV:   1    -0.437310771650E+03    0.13850E+00   -0.68623E+00 45048   0.204E+01    0.993E-01
DAV:   2    -0.437457236686E+03   -0.14647E+00   -0.14909E+00 36612   0.269E+00    0.941E-01
DAV:   3    -0.437464501099E+03   -0.72644E-02   -0.11255E-01 37260   0.180E+00    0.126E+00
DAV:   4    -0.437456763126E+03    0.77380E-02   -0.28364E-02 39732   0.111E+00    0.473E-01
DAV:   5    -0.437457210100E+03   -0.44697E-03   -0.12221E-02 43248   0.463E-01    0.563E-01
DAV:   6    -0.437457588288E+03   -0.37819E-03   -0.11295E-02 40476   0.476E-01    0.510E-01
DAV:   7    -0.437456527715E+03    0.10606E-02   -0.59168E-03 42024   0.515E-01    0.249E-01
DAV:   8    -0.437456582799E+03   -0.55084E-04   -0.14376E-03 40512   0.256E-01    0.200E-01
DAV:   9    -0.437456442054E+03    0.14074E-03   -0.69128E-04 38592   0.186E-01    0.870E-02
DAV:  10    -0.437456431811E+03    0.10244E-04   -0.21915E-04 37752   0.778E-02    0.495E-02
DAV:  11    -0.437456432885E+03   -0.10743E-05   -0.84376E-05 30012   0.745E-02
   8 F= -.43745643E+03 E0= -.43744122E+03  d E =-.717244E-02  mag=     1.9684
       N       E                     dE             d eps       ncg     rms          rms(c)
DAV:   1    -0.437212858549E+03    0.24357E+00   -0.10372E+01 45084   0.267E+01    0.131E+00
DAV:   2    -0.437459968966E+03   -0.24711E+00   -0.25231E+00 36792   0.353E+00    0.119E+00
DAV:   3    -0.437472672393E+03   -0.12703E-01   -0.18092E-01 37248   0.238E+00    0.174E+00
DAV:   4    -0.437458786090E+03    0.13886E-01   -0.60286E-02 39768   0.139E+00    0.709E-01
DAV:   5    -0.437458807278E+03   -0.21189E-04   -0.19584E-02 42396   0.545E-01    0.583E-01
DAV:   6    -0.437459900150E+03   -0.10929E-02   -0.12703E-02 42240   0.654E-01    0.612E-01
DAV:   7    -0.437458157498E+03    0.17427E-02   -0.95427E-03 42048   0.659E-01    0.298E-01
DAV:   8    -0.437458161463E+03   -0.39649E-05   -0.25864E-03 39828   0.342E-01    0.229E-01
DAV:   9    -0.437457957887E+03    0.20358E-03   -0.12689E-03 39432   0.270E-01    0.102E-01
DAV:  10    -0.437457935242E+03    0.22645E-04   -0.28475E-04 38388   0.113E-01    0.576E-02
DAV:  11    -0.437457937829E+03   -0.25877E-05   -0.17227E-04 35184   0.103E-01    0.573E-02
DAV:  12    -0.437457919835E+03    0.17994E-04   -0.75872E-05 28368   0.678E-02    0.245E-02
DAV:  13    -0.437457923184E+03   -0.33490E-05   -0.37309E-05 25284   0.519E-02
   9 F= -.43745792E+03 E0= -.43744283E+03  d E =-.149030E-02  mag=     1.9693
       N       E                     dE             d eps       ncg     rms          rms(c)
DAV:   1    -0.437390684578E+03    0.67235E-01   -0.15764E+00 50352   0.154E+01    0.735E-01
DAV:   2    -0.437464172737E+03   -0.73488E-01   -0.76245E-01 36768   0.178E+00    0.777E-01
DAV:   3    -0.437470507093E+03   -0.63344E-02   -0.11109E-01 38208   0.116E+00    0.159E+00
DAV:   4    -0.437463613077E+03    0.68940E-02   -0.32440E-02 40176   0.729E-01    0.441E-01
DAV:   5    -0.437463981378E+03   -0.36830E-03   -0.37278E-03 42360   0.379E-01    0.289E-01
DAV:   6    -0.437464649239E+03   -0.66786E-03   -0.88757E-03 41292   0.319E-01    0.521E-01
DAV:   7    -0.437464530955E+03    0.11828E-03   -0.14410E-03 38664   0.295E-01    0.499E-01
DAV:   8    -0.437464133649E+03    0.39731E-03   -0.89518E-04 38208   0.149E-01    0.345E-01
DAV:   9    -0.437463976781E+03    0.15687E-03   -0.95813E-04 40344   0.130E-01    0.181E-01
DAV:  10    -0.437463964118E+03    0.12663E-04   -0.13291E-03 35976   0.118E-01    0.700E-02
DAV:  11    -0.437464008834E+03   -0.44716E-04   -0.12451E-04 33684   0.755E-02    0.647E-02
DAV:  12    -0.437463992413E+03    0.16421E-04   -0.82023E-05 28248   0.580E-02    0.143E-02
DAV:  13    -0.437463994382E+03   -0.19687E-05   -0.14884E-05 18720   0.218E-02
  10 F= -.43746399E+03 E0= -.43744887E+03  d E =-.607120E-02  mag=     1.9684
       N       E                     dE             d eps       ncg     rms          rms(c)
DAV:   1    -0.437459310544E+03    0.46819E-02   -0.20869E-01 46428   0.414E+00    0.200E-01
DAV:   2    -0.437464955198E+03   -0.56447E-02   -0.57511E-02 36516   0.535E-01    0.195E-01
DAV:   3    -0.437465345570E+03   -0.39037E-03   -0.53764E-03 36972   0.387E-01    0.338E-01
DAV:   4    -0.437464960011E+03    0.38556E-03   -0.20720E-03 38520   0.211E-01    0.141E-01
DAV:   5    -0.437464934823E+03    0.25187E-04   -0.44881E-04 38388   0.956E-02    0.767E-02
DAV:   6    -0.437464957456E+03   -0.22633E-04   -0.24452E-04 35208   0.861E-02    0.861E-02
DAV:   7    -0.437464940937E+03    0.16518E-04   -0.21035E-04 36816   0.957E-02    0.649E-02
DAV:   8    -0.437464932935E+03    0.80026E-05   -0.38762E-05 21996   0.370E-02
  11 F= -.43746493E+03 E0= -.43744982E+03  d E =-.938553E-03  mag=     1.9679
       N       E                     dE             d eps       ncg     rms          rms(c)
DAV:   1    -0.437458310770E+03    0.66302E-02   -0.38830E-01 44568   0.462E+00    0.233E-01
DAV:   2    -0.437466109565E+03   -0.77988E-02   -0.78494E-02 36936   0.679E-01    0.476E-01
DAV:   3    -0.437465883642E+03    0.22592E-03   -0.12941E-02 37020   0.460E-01    0.327E-01
DAV:   4    -0.437465809515E+03    0.74127E-04   -0.21169E-03 38628   0.220E-01    0.174E-01
DAV:   5    -0.437465702446E+03    0.10707E-03   -0.55739E-04 36552   0.177E-01    0.864E-02
DAV:   6    -0.437465721868E+03   -0.19422E-04   -0.43721E-04 40380   0.987E-02    0.111E-01
DAV:   7    -0.437465716353E+03    0.55151E-05   -0.27796E-04 36780   0.112E-01    0.115E-01
DAV:   8    -0.437465701517E+03    0.14835E-04   -0.67879E-05 27696   0.519E-02    0.829E-02
DAV:   9    -0.437465692818E+03    0.86994E-05   -0.32566E-05 18936   0.308E-02
  12 F= -.43746569E+03 E0= -.43745055E+03  d E =-.759883E-03  mag=     1.9676
       N       E                     dE             d eps       ncg     rms          rms(c)
DAV:   1    -0.437441952601E+03    0.23749E-01   -0.10296E+00 46176   0.847E+00    0.408E-01
DAV:   2    -0.437466008173E+03   -0.24056E-01   -0.24465E-01 36540   0.112E+00    0.357E-01
DAV:   3    -0.437467467067E+03   -0.14589E-02   -0.20090E-02 37164   0.754E-01    0.632E-01
DAV:   4    -0.437466102775E+03    0.13643E-02   -0.88775E-03 39564   0.408E-01    0.254E-01
DAV:   5    -0.437466066530E+03    0.36246E-04   -0.15472E-03 44496   0.210E-01    0.151E-01
DAV:   6    -0.437466192575E+03   -0.12605E-03   -0.87896E-04 41976   0.191E-01    0.191E-01
DAV:   7    -0.437466043434E+03    0.14914E-03   -0.82159E-04 41592   0.205E-01    0.986E-02
DAV:   8    -0.437466043522E+03   -0.88330E-07   -0.25487E-04 36804   0.960E-02    0.661E-02
DAV:   9    -0.437466027302E+03    0.16220E-04   -0.11000E-04 31620   0.829E-02    0.383E-02
DAV:  10    -0.437466024645E+03    0.26565E-05   -0.31338E-05 19248   0.314E-02
  13 F= -.43746602E+03 E0= -.43745088E+03  d E =-.331828E-03  mag=     1.9675
       N       E                     dE             d eps       ncg     rms          rms(c)
DAV:   1    -0.437442427844E+03    0.23599E-01   -0.98062E-01 46284   0.852E+00    0.408E-01
DAV:   2    -0.437467046030E+03   -0.24618E-01   -0.25055E-01 36708   0.111E+00    0.453E-01
DAV:   3    -0.437468446586E+03   -0.14006E-02   -0.26692E-02 36936   0.749E-01    0.740E-01
DAV:   4    -0.437466982938E+03    0.14636E-02   -0.11150E-02 39768   0.424E-01    0.291E-01
DAV:   5    -0.437466854883E+03    0.12805E-03   -0.16158E-03 42096   0.253E-01    0.144E-01
DAV:   6    -0.437467082434E+03   -0.22755E-03   -0.12201E-03 43152   0.217E-01    0.232E-01
DAV:   7    -0.437466847704E+03    0.23473E-03   -0.10437E-03 41856   0.220E-01    0.107E-01
DAV:   8    -0.437466854194E+03   -0.64907E-05   -0.24687E-04 37248   0.963E-02    0.708E-02
DAV:   9    -0.437466838075E+03    0.16119E-04   -0.12682E-04 33300   0.806E-02    0.344E-02
DAV:  10    -0.437466838751E+03   -0.67556E-06   -0.28140E-05 20904   0.338E-02
  14 F= -.43746684E+03 E0= -.43745171E+03  d E =-.814106E-03  mag=     1.9681
       N       E                     dE             d eps       ncg     rms          rms(c)
DAV:   1    -0.437459452454E+03    0.73856E-02   -0.16419E-01 50508   0.502E+00    0.232E-01
DAV:   2    -0.437467027210E+03   -0.75748E-02   -0.78147E-02 36900   0.583E-01    0.167E-01
DAV:   3    -0.437467437300E+03   -0.41009E-03   -0.46654E-03 37860   0.374E-01    0.327E-01
DAV:   4    -0.437467050240E+03    0.38706E-03   -0.20988E-03 39276   0.233E-01    0.118E-01
DAV:   5    -0.437467071212E+03   -0.20972E-04   -0.48443E-04 39576   0.113E-01    0.104E-01
DAV:   6    -0.437467094163E+03   -0.22951E-04   -0.46314E-04 38892   0.106E-01    0.104E-01
DAV:   7    -0.437467061746E+03    0.32417E-04   -0.22731E-04 36696   0.110E-01    0.740E-02
DAV:   8    -0.437467052475E+03    0.92717E-05   -0.67126E-05 27204   0.473E-02
  15 F= -.43746705E+03 E0= -.43745191E+03  d E =-.213724E-03  mag=     1.9680
       N       E                     dE             d eps       ncg     rms          rms(c)
DAV:   1    -0.437465877814E+03    0.11839E-02   -0.25124E-02 51360   0.213E+00    0.102E-01
DAV:   2    -0.437467284293E+03   -0.14065E-02   -0.14307E-02 36516   0.255E-01    0.143E-01
DAV:   3    -0.437467333473E+03   -0.49180E-04   -0.19144E-03 37104   0.198E-01    0.175E-01
DAV:   4    -0.437467275476E+03    0.57997E-04   -0.68849E-04 37368   0.997E-02    0.866E-02
DAV:   5    -0.437467255597E+03    0.19880E-04   -0.11434E-04 28632   0.649E-02    0.335E-02
DAV:   6    -0.437467266287E+03   -0.10690E-04   -0.44755E-05 27828   0.471E-02    0.445E-02
DAV:   7    -0.437467257574E+03    0.87129E-05   -0.50198E-05 27468   0.523E-02
  16 F= -.43746726E+03 E0= -.43745214E+03  d E =-.205099E-03  mag=     1.9681
