       N       E                     dE             d eps       ncg     rms          rms(c)
DAV:   1     0.344141022223E+04    0.34414E+04   -0.18836E+05 10464   0.128E+03
DAV:   2    -0.368762582778E+02   -0.34783E+04   -0.33376E+04 13128   0.228E+02
DAV:   3    -0.517279271887E+03   -0.48040E+03   -0.47565E+03 12864   0.926E+01
DAV:   4    -0.540486852491E+03   -0.23208E+02   -0.23032E+02 13212   0.227E+01
DAV:   5    -0.541650877169E+03   -0.11640E+01   -0.11620E+01 14976   0.497E+00    0.623E+01
DAV:   6    -0.523727603366E+03    0.17923E+02   -0.36881E+01 11700   0.697E+00    0.420E+01
DAV:   7    -0.522509330093E+03    0.12183E+01   -0.24991E+01 12792   0.566E+00    0.822E+00
DAV:   8    -0.522016272390E+03    0.49306E+00   -0.31868E+00 11892   0.235E+00    0.565E+00
DAV:   9    -0.522057977098E+03   -0.41705E-01   -0.32147E-01 13728   0.836E-01    0.174E+00
DAV:  10    -0.522060925777E+03   -0.29487E-02   -0.29724E-02 13044   0.260E-01    0.106E+00
DAV:  11    -0.522064923811E+03   -0.39980E-02   -0.44000E-03 12252   0.107E-01    0.675E-01
DAV:  12    -0.522068254041E+03   -0.33302E-02   -0.36534E-03 11244   0.100E-01    0.145E-01
DAV:  13    -0.522068765235E+03   -0.51119E-03   -0.78735E-04 14424   0.403E-02    0.159E-01
DAV:  14    -0.522068820991E+03   -0.55756E-04   -0.95022E-05 13440   0.137E-02    0.105E-01
DAV:  15    -0.522068897355E+03   -0.76364E-04   -0.58095E-05 10464   0.120E-02    0.496E-02
DAV:  16    -0.522068915288E+03   -0.17932E-04   -0.23644E-05  9276   0.718E-03    0.120E-02
DAV:  17    -0.522068919808E+03   -0.45207E-05   -0.64656E-06  6384   0.396E-03
   1 F= -.52206892E+03 E0= -.52206892E+03  d E =-.522069E+03  mag=     0.0057
       N       E                     dE             d eps       ncg     rms          rms(c)
DAV:   1    -0.522068977675E+03   -0.62387E-04   -0.82742E-03 10800   0.122E-01    0.957E-02
DAV:   2    -0.522069036179E+03   -0.58504E-04   -0.69674E-04 12924   0.411E-02    0.291E-02
DAV:   3    -0.522069031182E+03    0.49972E-05   -0.30926E-05 10512   0.102E-02    0.205E-02
DAV:   4    -0.522069029515E+03    0.16671E-05   -0.10181E-05  6600   0.567E-03
   2 F= -.52206903E+03 E0= -.52206903E+03  d E =-.109707E-03  mag=     0.0009
