       N       E                     dE             d eps       ncg     rms          rms(c)
DAV:   1     0.828516024674E+04    0.82852E+04   -0.23638E+05 34332   0.219E+03
DAV:   2     0.121693062589E+04   -0.70682E+04   -0.66425E+04 33696   0.633E+02
DAV:   3    -0.314729549086E+03   -0.15317E+04   -0.13394E+04 35940   0.272E+02
DAV:   4    -0.467887770387E+03   -0.15316E+03   -0.15055E+03 36816   0.834E+01
DAV:   5    -0.470386656883E+03   -0.24989E+01   -0.24891E+01 36912   0.120E+01    0.110E+02
DAV:   6    -0.556084685157E+03   -0.85698E+02   -0.10473E+03 46056   0.128E+02    0.155E+02
DAV:   7    -0.403666844404E+03    0.15242E+03   -0.30473E+02 39792   0.103E+02    0.684E+01
DAV:   8    -0.408024607916E+03   -0.43578E+01   -0.14889E+02 41652   0.566E+01    0.717E+01
DAV:   9    -0.423706581163E+03   -0.15682E+02   -0.72253E+01 37248   0.580E+01    0.663E+01
DAV:  10    -0.413924289722E+03    0.97823E+01   -0.22264E+01 38280   0.268E+01    0.601E+01
DAV:  11    -0.404987458667E+03    0.89368E+01   -0.54445E+01 37044   0.288E+01    0.374E+01
DAV:  12    -0.396248696695E+03    0.87388E+01   -0.21647E+01 37080   0.312E+01    0.257E+01
DAV:  13    -0.397036683804E+03   -0.78799E+00   -0.60606E+00 37524   0.143E+01    0.219E+01
DAV:  14    -0.397433645245E+03   -0.39696E+00   -0.34922E+00 36432   0.816E+00    0.195E+01
DAV:  15    -0.398181887822E+03   -0.74824E+00   -0.41929E+00 41340   0.775E+00    0.144E+01
DAV:  16    -0.399416106821E+03   -0.12342E+01   -0.41422E+00 40500   0.105E+01    0.147E+01
DAV:  17    -0.399085031460E+03    0.33108E+00   -0.16203E+00 37056   0.720E+00    0.110E+01
DAV:  18    -0.398866257637E+03    0.21877E+00   -0.50102E-01 37800   0.482E+00    0.885E+00
DAV:  19    -0.398620289601E+03    0.24597E+00   -0.34994E-01 38628   0.413E+00    0.689E+00
DAV:  20    -0.398432325057E+03    0.18796E+00   -0.20484E-01 42432   0.392E+00    0.496E+00
DAV:  21    -0.398303130700E+03    0.12919E+00   -0.16227E-01 45396   0.391E+00    0.342E+00
DAV:  22    -0.398235757620E+03    0.67373E-01   -0.17665E-01 45528   0.335E+00    0.243E+00
DAV:  23    -0.398197376005E+03    0.38382E-01   -0.12332E-01 42432   0.235E+00    0.178E+00
DAV:  24    -0.398184717015E+03    0.12659E-01   -0.79929E-02 38976   0.130E+00    0.148E+00
DAV:  25    -0.398181333520E+03    0.33835E-02   -0.41195E-02 37104   0.102E+00    0.127E+00
DAV:  26    -0.398168066984E+03    0.13267E-01   -0.13977E-02 37644   0.110E+00    0.954E-01
DAV:  27    -0.398154127339E+03    0.13940E-01   -0.14894E-02 48240   0.108E+00    0.590E-01
DAV:  28    -0.398153428664E+03    0.69868E-03   -0.21657E-02 37884   0.459E-01    0.509E-01
DAV:  29    -0.398153168550E+03    0.26011E-03   -0.44520E-03 39816   0.335E-01    0.462E-01
DAV:  30    -0.398154436388E+03   -0.12678E-02   -0.23943E-03 37476   0.327E-01    0.433E-01
DAV:  31    -0.398155462850E+03   -0.10265E-02   -0.14727E-03 37884   0.142E-01    0.457E-01
DAV:  32    -0.398155594597E+03   -0.13175E-03   -0.33110E-04 35328   0.419E-02    0.448E-01
DAV:  33    -0.398155733557E+03   -0.13896E-03   -0.11623E-05 20604   0.150E-02    0.459E-01
DAV:  34    -0.398154780888E+03    0.95267E-03   -0.11302E-04 36300   0.159E-01    0.467E-01
DAV:  35    -0.398153609979E+03    0.11709E-02   -0.31066E-04 43884   0.205E-01    0.508E-01
DAV:  36    -0.398153738806E+03   -0.12883E-03   -0.31688E-04 34536   0.397E-02    0.511E-01
DAV:  37    -0.398153661508E+03    0.77297E-04   -0.67501E-06 23340   0.226E-02    0.520E-01
DAV:  38    -0.398153967978E+03   -0.30647E-03   -0.39792E-05 26796   0.465E-02    0.533E-01
DAV:  39    -0.398154399369E+03   -0.43139E-03   -0.44673E-04 37188   0.107E-01    0.510E-01
DAV:  40    -0.398155679698E+03   -0.12803E-02   -0.52771E-04 42804   0.147E-01    0.529E-01
DAV:  41    -0.398152154779E+03    0.35249E-02   -0.28672E-03 41676   0.407E-01    0.462E-01
DAV:  42    -0.398149547429E+03    0.26074E-02   -0.46462E-03 44256   0.513E-01    0.543E-01
DAV:  43    -0.398150269084E+03   -0.72165E-03   -0.26008E-03 36636   0.207E-01    0.451E-01
DAV:  44    -0.398149612748E+03    0.65634E-03   -0.14322E-03 39156   0.164E-01    0.417E-01
DAV:  45    -0.398150048045E+03   -0.43530E-03   -0.29597E-03 44520   0.300E-01    0.786E-01
DAV:  46    -0.398149890089E+03    0.15796E-03   -0.73190E-04 34560   0.902E-02    0.668E-01
DAV:  47    -0.398149395820E+03    0.49427E-03   -0.78804E-04 40560   0.133E-01    0.619E-01
DAV:  48    -0.398148747333E+03    0.64849E-03   -0.28268E-03 45852   0.218E-01    0.669E-01
DAV:  49    -0.398147832892E+03    0.91444E-03   -0.18350E-03 45936   0.176E-01    0.678E-01
DAV:  50    -0.398146961413E+03    0.87148E-03   -0.80720E-04 43548   0.102E-01    0.650E-01
DAV:  51    -0.398146567611E+03    0.39380E-03   -0.85960E-04 39072   0.226E-01    0.323E-01
DAV:  52    -0.398146711136E+03   -0.14353E-03   -0.51197E-04 36360   0.108E-01    0.337E-01
DAV:  53    -0.398146641321E+03    0.69814E-04   -0.42630E-05 31236   0.188E-02    0.337E-01
DAV:  54    -0.398146687319E+03   -0.45998E-04   -0.53821E-06 19380   0.120E-02    0.331E-01
DAV:  55    -0.398146997822E+03   -0.31050E-03   -0.43288E-05 35748   0.862E-02    0.418E-01
DAV:  56    -0.398148248698E+03   -0.12509E-02   -0.31822E-04 46296   0.182E-01    0.894E-01
DAV:  57    -0.398149202213E+03   -0.95352E-03   -0.73512E-04 43104   0.125E-01    0.132E+00
DAV:  58    -0.398149309388E+03   -0.10717E-03   -0.31740E-04 37836   0.614E-02    0.146E+00
DAV:  59    -0.398149179545E+03    0.12984E-03   -0.73350E-05 31860   0.212E-02    0.145E+00
DAV:  60    -0.398148574388E+03    0.60516E-03   -0.11867E-05 21900   0.305E-02    0.136E+00
DAV:  61    -0.398148124330E+03    0.45006E-03   -0.10016E-03 42264   0.157E-01    0.172E+00
DAV:  62    -0.398147928794E+03    0.19554E-03   -0.22014E-04 38052   0.774E-02    0.149E+00
DAV:  63    -0.398149372222E+03   -0.14434E-02   -0.24976E-04 40764   0.111E-01    0.159E+00
DAV:  64    -0.398149333877E+03    0.38345E-04   -0.18487E-04 40200   0.431E-02    0.149E+00
DAV:  65    -0.398149111996E+03    0.22188E-03   -0.56026E-05 26244   0.367E-02    0.137E+00
DAV:  66    -0.398148323084E+03    0.78891E-03   -0.71708E-05 33900   0.525E-02    0.116E+00
DAV:  67    -0.398149447589E+03   -0.11245E-02   -0.12560E-04 36372   0.111E-01    0.147E+00
DAV:  68    -0.398149356459E+03    0.91131E-04   -0.77075E-05 32460   0.508E-02    0.141E+00
DAV:  69    -0.398149378520E+03   -0.22062E-04   -0.85003E-06 19332   0.836E-03    0.142E+00
DAV:  70    -0.398149182334E+03    0.19619E-03   -0.19447E-06 18912   0.113E-02    0.138E+00
DAV:  71    -0.398150443273E+03   -0.12609E-02   -0.91875E-04 43236   0.146E-01    0.126E+00
DAV:  72    -0.398150255949E+03    0.18732E-03   -0.26783E-04 37824   0.833E-02    0.137E+00
DAV:  73    -0.398149211997E+03    0.10440E-02   -0.32008E-04 44964   0.108E-01    0.129E+00
DAV:  74    -0.398149224165E+03   -0.12167E-04   -0.24599E-04 39084   0.467E-02    0.135E+00
DAV:  75    -0.398149118790E+03    0.10537E-03   -0.44620E-05 30024   0.314E-02    0.129E+00
DAV:  76    -0.398147972180E+03    0.11466E-02   -0.23273E-03 42072   0.329E-01    0.457E-01
DAV:  77    -0.398147976768E+03   -0.45880E-05   -0.57359E-04 36336   0.756E-02    0.426E-01
DAV:  78    -0.398147967647E+03    0.91210E-05   -0.78093E-05 32136   0.209E-02
   1 F= -.39814797E+03 E0= -.39814421E+03  d E =-.398148E+03  mag=     1.9996
       N       E                     dE             d eps       ncg     rms          rms(c)
DAV:   1    -0.398180679762E+03   -0.32703E-01   -0.22597E-02 49116   0.159E+00    0.441E-01
DAV:   2    -0.398187637759E+03   -0.69580E-02   -0.21334E-02 38832   0.106E+00    0.137E+00
DAV:   3    -0.398182427129E+03    0.52106E-02   -0.10042E-02 37596   0.758E-01    0.528E-01
DAV:   4    -0.398183090015E+03   -0.66289E-03   -0.90960E-04 38892   0.181E-01    0.571E-01
DAV:   5    -0.398183243654E+03   -0.15364E-03   -0.11581E-03 37944   0.196E-01    0.439E-01
DAV:   6    -0.398183779341E+03   -0.53569E-03   -0.16148E-03 44268   0.258E-01    0.304E-01
DAV:   7    -0.398184881698E+03   -0.11024E-02   -0.24727E-03 46584   0.211E-01    0.229E-01
DAV:   8    -0.398185863085E+03   -0.98139E-03   -0.22692E-03 45216   0.167E-01    0.224E-01
DAV:   9    -0.398185364102E+03    0.49898E-03   -0.82717E-04 34044   0.103E-01    0.219E-01
DAV:  10    -0.398184380953E+03    0.98315E-03   -0.18156E-03 38616   0.179E-01    0.190E-01
DAV:  11    -0.398183639905E+03    0.74105E-03   -0.10576E-03 43020   0.142E-01    0.186E-01
DAV:  12    -0.398182704940E+03    0.93496E-03   -0.12195E-03 41472   0.135E-01    0.235E-01
DAV:  13    -0.398182602864E+03    0.10208E-03   -0.26076E-04 34500   0.330E-02    0.243E-01
DAV:  14    -0.398182197606E+03    0.40526E-03   -0.14351E-04 26460   0.468E-02    0.261E-01
DAV:  15    -0.398182940920E+03   -0.74331E-03   -0.43586E-04 33360   0.966E-02    0.256E-01
DAV:  16    -0.398186529851E+03   -0.35889E-02   -0.19385E-02 43956   0.499E-01    0.433E-01
DAV:  17    -0.398185803597E+03    0.72625E-03   -0.19772E-03 34848   0.125E-01    0.320E-01
DAV:  18    -0.398187349743E+03   -0.15461E-02   -0.25674E-03 40776   0.158E-01    0.514E-01
DAV:  19    -0.398187326736E+03    0.23006E-04   -0.15737E-04 33912   0.287E-02    0.519E-01
DAV:  20    -0.398187517797E+03   -0.19106E-03   -0.26339E-05 21504   0.238E-02    0.544E-01
DAV:  21    -0.398185859185E+03    0.16586E-02   -0.37640E-03 47352   0.174E-01    0.280E-01
DAV:  22    -0.398185068671E+03    0.79051E-03   -0.26312E-03 45900   0.155E-01    0.213E-01
DAV:  23    -0.398184800769E+03    0.26790E-03   -0.59779E-04 41040   0.620E-02    0.214E-01
DAV:  24    -0.398184753176E+03    0.47593E-04   -0.75411E-05 31272   0.188E-02    0.215E-01
DAV:  25    -0.398184636184E+03    0.11699E-03   -0.31164E-05 20268   0.239E-02    0.215E-01
DAV:  26    -0.398184424560E+03    0.21162E-03   -0.10791E-04 26928   0.386E-02    0.216E-01
DAV:  27    -0.398183896844E+03    0.52772E-03   -0.64290E-04 41844   0.113E-01    0.227E-01
DAV:  28    -0.398182931567E+03    0.96528E-03   -0.13753E-03 42432   0.148E-01    0.251E-01
DAV:  29    -0.398181754280E+03    0.11773E-02   -0.12699E-03 45096   0.137E-01    0.292E-01
DAV:  30    -0.398181641130E+03    0.11315E-03   -0.34427E-04 35208   0.387E-02    0.300E-01
DAV:  31    -0.398181647068E+03   -0.59386E-05   -0.12056E-05 21936   0.891E-03
   2 F= -.39818165E+03 E0= -.39817892E+03  d E =-.336794E-01  mag=     2.0470
       N       E                     dE             d eps       ncg     rms          rms(c)
DAV:   1    -0.398136903336E+03    0.44738E-01   -0.12921E+01 49224   0.376E+01    0.266E+00
DAV:   2    -0.398863121299E+03   -0.72622E+00   -0.73138E+00 37440   0.588E+00    0.296E+00
DAV:   3    -0.398855707783E+03    0.74135E-02   -0.59953E-01 37380   0.384E+00    0.144E+00
DAV:   4    -0.398855402843E+03    0.30494E-03   -0.55484E-02 37368   0.145E+00    0.123E+00
DAV:   5    -0.398853679220E+03    0.17236E-02   -0.11214E-02 37644   0.833E-01    0.857E-01
DAV:   6    -0.398855493178E+03   -0.18140E-02   -0.15364E-02 37308   0.624E-01    0.358E-01
DAV:   7    -0.398856859024E+03   -0.13658E-02   -0.57921E-03 39552   0.359E-01    0.315E-01
DAV:   8    -0.398857326325E+03   -0.46730E-03   -0.14393E-03 37080   0.186E-01    0.313E-01
DAV:   9    -0.398857253500E+03    0.72824E-04   -0.26744E-04 36264   0.472E-02    0.300E-01
DAV:  10    -0.398856702496E+03    0.55100E-03   -0.36941E-04 36564   0.132E-01    0.328E-01
DAV:  11    -0.398856253330E+03    0.44917E-03   -0.39053E-04 40164   0.113E-01    0.338E-01
DAV:  12    -0.398855365143E+03    0.88819E-03   -0.10177E-03 40560   0.165E-01    0.349E-01
DAV:  13    -0.398853771360E+03    0.15938E-02   -0.30568E-03 40764   0.223E-01    0.395E-01
DAV:  14    -0.398854407143E+03   -0.63578E-03   -0.49474E-04 36384   0.889E-02    0.431E-01
DAV:  15    -0.398855825537E+03   -0.14184E-02   -0.24456E-03 42192   0.161E-01    0.411E-01
DAV:  16    -0.398859587166E+03   -0.37616E-02   -0.10010E-02 44280   0.269E-01    0.734E-01
DAV:  17    -0.398854601584E+03    0.49856E-02   -0.18655E-02 42900   0.364E-01    0.350E-01
DAV:  18    -0.398854870983E+03   -0.26940E-03   -0.88936E-04 44796   0.178E-01    0.251E-01
DAV:  19    -0.398852620237E+03    0.22507E-02   -0.46983E-03 41244   0.266E-01    0.338E-01
DAV:  20    -0.398851400365E+03    0.12199E-02   -0.13370E-03 45636   0.147E-01    0.342E-01
DAV:  21    -0.398849344512E+03    0.20559E-02   -0.16367E-03 45936   0.159E-01    0.414E-01
DAV:  22    -0.398848447392E+03    0.89712E-03   -0.67855E-04 42888   0.757E-02    0.432E-01
DAV:  23    -0.398849466500E+03   -0.10191E-02   -0.36871E-04 35508   0.885E-02    0.401E-01
DAV:  24    -0.398849216219E+03    0.25028E-03   -0.29256E-05 25944   0.258E-02    0.405E-01
DAV:  25    -0.398847499687E+03    0.17165E-02   -0.57862E-04 39504   0.118E-01    0.481E-01
DAV:  26    -0.398847532611E+03   -0.32924E-04   -0.70111E-05 32976   0.176E-02    0.481E-01
DAV:  27    -0.398847962807E+03   -0.43020E-03   -0.29125E-05 23292   0.321E-02    0.479E-01
DAV:  28    -0.398847251848E+03    0.71096E-03   -0.76253E-05 25116   0.520E-02    0.489E-01
DAV:  29    -0.398847513279E+03   -0.26143E-03   -0.10919E-05 20916   0.182E-02    0.480E-01
DAV:  30    -0.398847586988E+03   -0.73709E-04   -0.18087E-06 20100   0.875E-03    0.484E-01
DAV:  31    -0.398848753730E+03   -0.11667E-02   -0.25393E-04 35460   0.907E-02    0.470E-01
DAV:  32    -0.398849452467E+03   -0.69874E-03   -0.17730E-04 41628   0.604E-02    0.474E-01
DAV:  33    -0.398849448041E+03    0.44268E-05   -0.57047E-05 31488   0.179E-02
   3 F= -.39884945E+03 E0= -.39884612E+03  d E =-.667801E+00  mag=     2.0565
       N       E                     dE             d eps       ncg     rms          rms(c)
DAV:   1    -0.394674452145E+03    0.41750E+01   -0.12708E+02 48828   0.102E+02    0.175E+01
DAV:   2    -0.417126773869E+03   -0.22452E+02   -0.12384E+02 39540   0.473E+01    0.678E+01
DAV:   3    -0.401065025641E+03    0.16062E+02   -0.71451E+01 36924   0.268E+01    0.169E+01
DAV:   4    -0.399970322694E+03    0.10947E+01   -0.62328E+00 38676   0.169E+01    0.950E+00
DAV:   5    -0.399891502023E+03    0.78821E-01   -0.17071E+00 36720   0.785E+00    0.576E+00
DAV:   6    -0.399825699320E+03    0.65803E-01   -0.27248E-01 37920   0.250E+00    0.451E+00
DAV:   7    -0.399795519823E+03    0.30179E-01   -0.10569E-01 44748   0.202E+00    0.317E+00
DAV:   8    -0.399777545093E+03    0.17975E-01   -0.58945E-02 42684   0.203E+00    0.186E+00
DAV:   9    -0.399774063110E+03    0.34820E-02   -0.45611E-02 41952   0.149E+00    0.924E-01
DAV:  10    -0.399776742573E+03   -0.26795E-02   -0.34266E-02 37644   0.989E-01    0.645E-01
DAV:  11    -0.399778357379E+03   -0.16148E-02   -0.12369E-02 37536   0.606E-01    0.480E-01
DAV:  12    -0.399779805219E+03   -0.14478E-02   -0.58231E-03 36972   0.489E-01    0.398E-01
DAV:  13    -0.399781467989E+03   -0.16628E-02   -0.32929E-03 37344   0.275E-01    0.458E-01
DAV:  14    -0.399780400457E+03    0.10675E-02   -0.11911E-03 37344   0.199E-01    0.421E-01
DAV:  15    -0.399777973667E+03    0.24268E-02   -0.24289E-03 44820   0.500E-01    0.464E-01
DAV:  16    -0.399777080074E+03    0.89359E-03   -0.19401E-03 44436   0.202E-01    0.499E-01
DAV:  17    -0.399777682281E+03   -0.60221E-03   -0.79356E-04 34380   0.905E-02    0.504E-01
DAV:  18    -0.399777005962E+03    0.67632E-03   -0.18544E-04 31164   0.647E-02    0.493E-01
DAV:  19    -0.399776441961E+03    0.56400E-03   -0.13045E-04 38088   0.756E-02    0.503E-01
DAV:  20    -0.399803046430E+03   -0.26604E-01   -0.18043E-01 45804   0.206E+00    0.303E+00
DAV:  21    -0.399793328134E+03    0.97183E-02   -0.22064E-02 40440   0.631E-01    0.218E+00
DAV:  22    -0.399788482583E+03    0.48456E-02   -0.48020E-03 51072   0.412E-01    0.174E+00
DAV:  23    -0.399792879012E+03   -0.43964E-02   -0.19881E-03 34200   0.129E-01    0.207E+00
DAV:  24    -0.399792646160E+03    0.23285E-03   -0.76681E-04 42276   0.170E-01    0.213E+00
DAV:  25    -0.399788012265E+03    0.46339E-02   -0.33369E-03 46836   0.527E-01    0.189E+00
DAV:  26    -0.399788973786E+03   -0.96152E-03   -0.24823E-03 45528   0.281E-01    0.199E+00
DAV:  27    -0.399788905128E+03    0.68659E-04   -0.14467E-03 37740   0.110E-01    0.197E+00
DAV:  28    -0.399789830288E+03   -0.92516E-03   -0.24532E-04 41496   0.980E-02    0.208E+00
DAV:  29    -0.399787743758E+03    0.20865E-02   -0.26954E-03 49584   0.568E-01    0.208E+00
DAV:  30    -0.399790037600E+03   -0.22938E-02   -0.31887E-03 43296   0.219E-01    0.226E+00
DAV:  31    -0.399782635827E+03    0.74018E-02   -0.95363E-03 46116   0.513E-01    0.170E+00
DAV:  32    -0.399782874679E+03   -0.23885E-03   -0.13832E-03 35568   0.236E-01    0.151E+00
DAV:  33    -0.399780122494E+03    0.27522E-02   -0.19771E-03 37236   0.219E-01    0.139E+00
DAV:  34    -0.399780833457E+03   -0.71096E-03   -0.41440E-04 34740   0.449E-02    0.140E+00
DAV:  35    -0.399780058758E+03    0.77470E-03   -0.27604E-04 33288   0.117E-01    0.144E+00
DAV:  36    -0.399780379327E+03   -0.32057E-03   -0.63618E-05 32340   0.203E-02    0.144E+00
DAV:  37    -0.399780262968E+03    0.11636E-03   -0.52192E-05 24828   0.605E-02    0.142E+00
DAV:  38    -0.399778687094E+03    0.15759E-02   -0.20281E-04 41868   0.755E-02    0.145E+00
DAV:  39    -0.399778056602E+03    0.63049E-03   -0.13393E-04 38532   0.769E-02    0.153E+00
DAV:  40    -0.399778349294E+03   -0.29269E-03   -0.36593E-05 29928   0.243E-02    0.153E+00
DAV:  41    -0.399778715959E+03   -0.36666E-03   -0.60489E-05 27540   0.575E-02    0.150E+00
DAV:  42    -0.399779788177E+03   -0.10722E-02   -0.49577E-04 43428   0.125E-01    0.139E+00
DAV:  43    -0.399781867943E+03   -0.20798E-02   -0.28869E-03 43596   0.349E-01    0.147E+00
DAV:  44    -0.399782593650E+03   -0.72571E-03   -0.11608E-03 41832   0.118E-01    0.146E+00
DAV:  45    -0.399782888929E+03   -0.29528E-03   -0.24446E-04 34416   0.529E-02    0.149E+00
DAV:  46    -0.399783366921E+03   -0.47799E-03   -0.23807E-04 32136   0.855E-02    0.161E+00
DAV:  47    -0.399782074605E+03    0.12923E-02   -0.38244E-04 41952   0.213E-01    0.136E+00
DAV:  48    -0.399782000920E+03    0.73685E-04   -0.68126E-04 41940   0.129E-01    0.148E+00
DAV:  49    -0.399781669298E+03    0.33162E-03   -0.13012E-04 33036   0.327E-02    0.147E+00
DAV:  50    -0.399781806736E+03   -0.13744E-03   -0.29587E-04 36528   0.120E-01    0.160E+00
DAV:  51    -0.399788205297E+03   -0.63986E-02   -0.11314E-03 45264   0.354E-01    0.268E+00
DAV:  52    -0.399792143136E+03   -0.39378E-02   -0.14977E-03 42468   0.144E-01    0.338E+00
DAV:  53    -0.399792036010E+03    0.10713E-03   -0.42437E-04 33516   0.466E-02    0.336E+00
DAV:  54    -0.399792459297E+03   -0.42329E-03   -0.41348E-06 21816   0.136E-02    0.343E+00
DAV:  55    -0.399793066026E+03   -0.60673E-03   -0.12254E-04 27120   0.530E-02    0.353E+00
DAV:  56    -0.399792805559E+03    0.26047E-03   -0.69505E-05 38160   0.385E-02    0.353E+00
DAV:  57    -0.399788426970E+03    0.43786E-02   -0.41842E-04 44304   0.151E-01    0.291E+00
DAV:  58    -0.399791326650E+03   -0.28997E-02   -0.68579E-04 41652   0.125E-01    0.334E+00
DAV:  59    -0.399795275832E+03   -0.39492E-02   -0.25756E-04 37896   0.102E-01    0.388E+00
DAV:  60    -0.399794768790E+03    0.50704E-03   -0.83369E-05 32148   0.256E-02    0.383E+00
DAV:  61    -0.399792738933E+03    0.20299E-02   -0.23369E-04 31260   0.809E-02    0.365E+00
DAV:  62    -0.399781897074E+03    0.10842E-01   -0.80977E-04 46308   0.305E-01    0.221E+00
DAV:  63    -0.399782885967E+03   -0.98889E-03   -0.15342E-03 40752   0.138E-01    0.258E+00
DAV:  64    -0.399782853028E+03    0.32938E-04   -0.16110E-04 34176   0.293E-02    0.258E+00
DAV:  65    -0.399782853812E+03   -0.78393E-06   -0.10328E-06 18996   0.282E-03
   4 F= -.39978285E+03 E0= -.39977631E+03  d E =-.933406E+00  mag=     2.0329
       N       E                     dE             d eps       ncg     rms          rms(c)
DAV:   1    -0.399813423063E+03   -0.30570E-01   -0.18748E+01 37860   0.189E+01    0.253E+00
DAV:   2    -0.400052808140E+03   -0.23939E+00   -0.19957E+00 38724   0.683E+00    0.438E+00
DAV:   3    -0.399966156896E+03    0.86651E-01   -0.53733E-01 36504   0.479E+00    0.121E+00
DAV:   4    -0.399970530520E+03   -0.43736E-02   -0.59510E-02 37848   0.120E+00    0.945E-01
DAV:   5    -0.399971201428E+03   -0.67091E-03   -0.24692E-02 36756   0.966E-01    0.718E-01
DAV:   6    -0.399972182043E+03   -0.98061E-03   -0.12017E-02 37152   0.720E-01    0.436E-01
DAV:   7    -0.399974492947E+03   -0.23109E-02   -0.80940E-03 37056   0.590E-01    0.388E-01
DAV:   8    -0.399974628052E+03   -0.13511E-03   -0.37434E-03 38184   0.417E-01    0.226E-01
DAV:   9    -0.399975273073E+03   -0.64502E-03   -0.13588E-03 39492   0.286E-01    0.183E-01
DAV:  10    -0.399975941733E+03   -0.66866E-03   -0.15729E-03 44556   0.252E-01    0.143E-01
DAV:  11    -0.399976510383E+03   -0.56865E-03   -0.10724E-03 45792   0.223E-01    0.107E-01
DAV:  12    -0.399976905348E+03   -0.39497E-03   -0.10305E-03 42576   0.155E-01    0.120E-01
DAV:  13    -0.399976948283E+03   -0.42935E-04   -0.61949E-04 33972   0.625E-02    0.121E-01
DAV:  14    -0.399976948749E+03   -0.46587E-06   -0.56481E-06 19836   0.132E-02
   5 F= -.39997695E+03 E0= -.39997524E+03  d E =-.194095E+00  mag=     1.9884
       N       E                     dE             d eps       ncg     rms          rms(c)
DAV:   1    -0.398916706653E+03    0.10602E+01   -0.76792E+01 42840   0.528E+01    0.318E+00
DAV:   2    -0.400144392403E+03   -0.12277E+01   -0.12770E+01 37740   0.821E+00    0.244E+00
DAV:   3    -0.400162675381E+03   -0.18283E-01   -0.57753E-01 37368   0.396E+00    0.223E+00
DAV:   4    -0.400141997746E+03    0.20678E-01   -0.88980E-02 38568   0.203E+00    0.130E+00
DAV:   5    -0.400140975353E+03    0.10224E-02   -0.27151E-02 38412   0.145E+00    0.107E+00
DAV:   6    -0.400135892115E+03    0.50832E-02   -0.33472E-02 37956   0.110E+00    0.346E-01
DAV:   7    -0.400136847037E+03   -0.95492E-03   -0.86695E-03 37704   0.485E-01    0.218E-01
DAV:   8    -0.400136841942E+03    0.50946E-05   -0.29171E-03 36624   0.354E-01    0.168E-01
DAV:   9    -0.400136711079E+03    0.13086E-03   -0.78843E-04 38016   0.201E-01    0.869E-02
DAV:  10    -0.400136733164E+03   -0.22085E-04   -0.28123E-04 36756   0.117E-01    0.638E-02
DAV:  11    -0.400136772277E+03   -0.39113E-04   -0.17903E-04 37680   0.867E-02    0.393E-02
DAV:  12    -0.400136796364E+03   -0.24087E-04   -0.59093E-05 35748   0.468E-02    0.289E-02
DAV:  13    -0.400136809469E+03   -0.13104E-04   -0.20547E-05 24384   0.309E-02    0.250E-02
DAV:  14    -0.400136827913E+03   -0.18445E-04   -0.10125E-05 21948   0.261E-02    0.176E-02
DAV:  15    -0.400136844974E+03   -0.17061E-04   -0.11409E-05 24624   0.279E-02    0.124E-02
DAV:  16    -0.400136851905E+03   -0.69309E-05   -0.18692E-05 24432   0.163E-02
   6 F= -.40013685E+03 E0= -.40013684E+03  d E =-.159903E+00  mag=     1.9999
       N       E                     dE             d eps       ncg     rms          rms(c)
DAV:   1    -0.399872306184E+03    0.26454E+00   -0.12496E+01 45456   0.275E+01    0.143E+00
DAV:   2    -0.400173485184E+03   -0.30118E+00   -0.31200E+00 37920   0.372E+00    0.899E-01
DAV:   3    -0.400175545393E+03   -0.20602E-02   -0.62585E-02 36936   0.120E+00    0.692E-01
DAV:   4    -0.400174420803E+03    0.11246E-02   -0.12060E-02 38676   0.792E-01    0.526E-01
DAV:   5    -0.400173933268E+03    0.48754E-03   -0.60389E-03 37848   0.548E-01    0.372E-01
DAV:   6    -0.400173465426E+03    0.46784E-03   -0.49926E-03 37260   0.560E-01    0.161E-01
DAV:   7    -0.400173478357E+03   -0.12931E-04   -0.14871E-03 37788   0.247E-01    0.750E-02
DAV:   8    -0.400173481458E+03   -0.31006E-05   -0.32206E-04 36732   0.106E-01    0.495E-02
DAV:   9    -0.400173484265E+03   -0.28069E-05   -0.88484E-05 35304   0.528E-02
   7 F= -.40017348E+03 E0= -.40017348E+03  d E =-.366324E-01  mag=     2.0000
       N       E                     dE             d eps       ncg     rms          rms(c)
DAV:   1    -0.400052039910E+03    0.12144E+00   -0.90492E+00 44796   0.189E+01    0.110E+00
DAV:   2    -0.400204886365E+03   -0.15285E+00   -0.15746E+00 37752   0.282E+00    0.851E-01
DAV:   3    -0.400206761066E+03   -0.18747E-02   -0.53629E-02 37236   0.130E+00    0.734E-01
DAV:   4    -0.400204633961E+03    0.21271E-02   -0.75687E-03 39060   0.635E-01    0.453E-01
DAV:   5    -0.400204653252E+03   -0.19292E-04   -0.40011E-03 37620   0.506E-01    0.338E-01
DAV:   6    -0.400204202297E+03    0.45096E-03   -0.39973E-03 37344   0.519E-01    0.108E-01
DAV:   7    -0.400204242176E+03   -0.39879E-04   -0.88559E-04 37728   0.173E-01    0.582E-02
DAV:   8    -0.400204247779E+03   -0.56032E-05   -0.19779E-04 36624   0.824E-02    0.437E-02
DAV:   9    -0.400204253801E+03   -0.60218E-05   -0.65713E-05 35688   0.611E-02
   8 F= -.40020425E+03 E0= -.40020425E+03  d E =-.307695E-01  mag=     2.0000
       N       E                     dE             d eps       ncg     rms          rms(c)
DAV:   1    -0.400143692827E+03    0.60555E-01   -0.48674E+00 44016   0.128E+01    0.720E-01
DAV:   2    -0.400215090415E+03   -0.71398E-01   -0.73518E-01 37296   0.187E+00    0.469E-01
DAV:   3    -0.400215345098E+03   -0.25468E-03   -0.14147E-02 37932   0.533E-01    0.351E-01
DAV:   4    -0.400215179665E+03    0.16543E-03   -0.32040E-03 38184   0.475E-01    0.293E-01
DAV:   5    -0.400214965580E+03    0.21408E-03   -0.19798E-03 39876   0.319E-01    0.177E-01
DAV:   6    -0.400214884060E+03    0.81520E-04   -0.12986E-03 36744   0.286E-01    0.782E-02
DAV:   7    -0.400214888275E+03   -0.42144E-05   -0.32874E-04 37284   0.119E-01    0.388E-02
DAV:   8    -0.400214893819E+03   -0.55441E-05   -0.80464E-05 35592   0.461E-02
   9 F= -.40021489E+03 E0= -.40021489E+03  d E =-.106400E-01  mag=     2.0000
       N       E                     dE             d eps       ncg     rms          rms(c)
DAV:   1    -0.400143134850E+03    0.71753E-01   -0.51438E+00 44568   0.132E+01    0.713E-01
DAV:   2    -0.400219292833E+03   -0.76158E-01   -0.78132E-01 36948   0.200E+00    0.477E-01
DAV:   3    -0.400219713409E+03   -0.42058E-03   -0.18386E-02 37008   0.686E-01    0.388E-01
DAV:   4    -0.400219206388E+03    0.50702E-03   -0.35056E-03 39480   0.440E-01    0.278E-01
DAV:   5    -0.400218967460E+03    0.23893E-03   -0.17524E-03 40296   0.293E-01    0.189E-01
DAV:   6    -0.400218867659E+03    0.99801E-04   -0.15286E-03 37524   0.303E-01    0.778E-02
DAV:   7    -0.400218881251E+03   -0.13592E-04   -0.38458E-04 36480   0.115E-01    0.374E-02
DAV:   8    -0.400218890985E+03   -0.97332E-05   -0.83417E-05 35580   0.445E-02
  10 F= -.40021889E+03 E0= -.40021889E+03  d E =-.399717E-02  mag=     2.0000
       N       E                     dE             d eps       ncg     rms          rms(c)
DAV:   1    -0.400140350073E+03    0.78531E-01   -0.21110E+00 46416   0.151E+01    0.747E-01
DAV:   2    -0.400220720004E+03   -0.80370E-01   -0.84163E-01 38124   0.194E+00    0.496E-01
DAV:   3    -0.400221777065E+03   -0.10571E-02   -0.23711E-02 37020   0.789E-01    0.395E-01
DAV:   4    -0.400221216618E+03    0.56045E-03   -0.34392E-03 38424   0.455E-01    0.271E-01
DAV:   5    -0.400221215200E+03    0.14184E-05   -0.15148E-03 39540   0.279E-01    0.209E-01
DAV:   6    -0.400221047963E+03    0.16724E-03   -0.14540E-03 37092   0.299E-01    0.807E-02
DAV:   7    -0.400221054132E+03   -0.61685E-05   -0.38145E-04 37212   0.112E-01    0.352E-02
DAV:   8    -0.400221055518E+03   -0.13865E-05   -0.80774E-05 35568   0.455E-02
  11 F= -.40022106E+03 E0= -.40022106E+03  d E =-.216453E-02  mag=     2.0000
       N       E                     dE             d eps       ncg     rms          rms(c)
DAV:   1    -0.400199072101E+03    0.21982E-01   -0.58535E-01 46920   0.842E+00    0.417E-01
DAV:   2    -0.400224253876E+03   -0.25182E-01   -0.26404E-01 37332   0.104E+00    0.260E-01
DAV:   3    -0.400224584947E+03   -0.33107E-03   -0.63941E-03 38052   0.395E-01    0.206E-01
DAV:   4    -0.400224438283E+03    0.14666E-03   -0.95270E-04 38268   0.242E-01    0.142E-01
DAV:   5    -0.400224407907E+03    0.30376E-04   -0.40397E-04 39048   0.133E-01    0.103E-01
DAV:   6    -0.400224374709E+03    0.33199E-04   -0.36735E-04 36672   0.154E-01    0.467E-02
DAV:   7    -0.400224373927E+03    0.78158E-06   -0.10324E-04 35928   0.650E-02    0.165E-02
DAV:   8    -0.400224375235E+03   -0.13082E-05   -0.19484E-05 24576   0.218E-02
  12 F= -.40022438E+03 E0= -.40022438E+03  d E =-.331972E-02  mag=     2.0000
       N       E                     dE             d eps       ncg     rms          rms(c)
DAV:   1    -0.400221617872E+03    0.27561E-02   -0.14414E-01 45564   0.314E+00    0.159E-01
DAV:   2    -0.400225320986E+03   -0.37031E-02   -0.38304E-02 37524   0.424E-01    0.998E-02
DAV:   3    -0.400225374204E+03   -0.53218E-04   -0.10526E-03 37164   0.157E-01    0.793E-02
DAV:   4    -0.400225360845E+03    0.13359E-04   -0.16891E-04 37488   0.102E-01    0.574E-02
DAV:   5    -0.400225364494E+03   -0.36483E-05   -0.70672E-05 36420   0.691E-02
  13 F= -.40022536E+03 E0= -.40022536E+03  d E =-.989258E-03  mag=     2.0000
       N       E                     dE             d eps       ncg     rms          rms(c)
DAV:   1    -0.400208796478E+03    0.16564E-01   -0.82364E-01 45372   0.616E+00    0.327E-01
DAV:   2    -0.400224769683E+03   -0.15973E-01   -0.16503E-01 37596   0.910E-01    0.225E-01
DAV:   3    -0.400224922385E+03   -0.15270E-03   -0.46805E-03 38004   0.363E-01    0.189E-01
DAV:   4    -0.400224765040E+03    0.15735E-03   -0.69704E-04 37404   0.199E-01    0.119E-01
DAV:   5    -0.400224729929E+03    0.35111E-04   -0.31322E-04 40728   0.136E-01    0.922E-02
DAV:   6    -0.400224693502E+03    0.36427E-04   -0.34645E-04 37152   0.137E-01    0.371E-02
DAV:   7    -0.400224698401E+03   -0.48993E-05   -0.10901E-04 35676   0.592E-02    0.198E-02
DAV:   8    -0.400224698480E+03   -0.78944E-07   -0.20424E-05 24288   0.280E-02
  14 F= -.40022470E+03 E0= -.40022470E+03  d E =0.666013E-03  mag=     2.0000
       N       E                     dE             d eps       ncg     rms          rms(c)
DAV:   1    -0.400126983266E+03    0.97715E-01   -0.16100E+00 49356   0.163E+01    0.843E-01
DAV:   2    -0.400221602645E+03   -0.94619E-01   -0.98894E-01 37992   0.190E+00    0.487E-01
DAV:   3    -0.400222404898E+03   -0.80225E-03   -0.16335E-02 37188   0.607E-01    0.342E-01
DAV:   4    -0.400222212277E+03    0.19262E-03   -0.27712E-03 37848   0.431E-01    0.262E-01
DAV:   5    -0.400222097337E+03    0.11494E-03   -0.13082E-03 39168   0.281E-01    0.169E-01
DAV:   6    -0.400222091519E+03    0.58176E-05   -0.10492E-03 37176   0.241E-01    0.104E-01
DAV:   7    -0.400222049409E+03    0.42110E-04   -0.36602E-04 36576   0.142E-01    0.332E-02
DAV:   8    -0.400222049852E+03   -0.44315E-06   -0.72905E-05 34176   0.457E-02
  15 F= -.40022205E+03 E0= -.40022205E+03  d E =0.264863E-02  mag=     2.0000
       N       E                     dE             d eps       ncg     rms          rms(c)
DAV:   1    -0.400190935685E+03    0.31114E-01   -0.59245E-01 49080   0.955E+00    0.513E-01
DAV:   2    -0.400225922661E+03   -0.34987E-01   -0.36565E-01 37764   0.113E+00    0.315E-01
DAV:   3    -0.400226323631E+03   -0.40097E-03   -0.76969E-03 37416   0.455E-01    0.243E-01
DAV:   4    -0.400226128260E+03    0.19537E-03   -0.12412E-03 37368   0.286E-01    0.167E-01
DAV:   5    -0.400226108644E+03    0.19616E-04   -0.47390E-04 40104   0.154E-01    0.123E-01
DAV:   6    -0.400226064046E+03    0.44597E-04   -0.48591E-04 36888   0.175E-01    0.573E-02
DAV:   7    -0.400226058385E+03    0.56618E-05   -0.13816E-04 35520   0.756E-02    0.182E-02
DAV:   8    -0.400226058475E+03   -0.89989E-07   -0.26028E-05 29316   0.259E-02
  16 F= -.40022606E+03 E0= -.40022606E+03  d E =-.400862E-02  mag=     2.0000
       N       E                     dE             d eps       ncg     rms          rms(c)
DAV:   1    -0.400224247416E+03    0.18110E-02   -0.40684E-02 48216   0.253E+00    0.122E-01
DAV:   2    -0.400226354484E+03   -0.21071E-02   -0.21978E-02 36960   0.301E-01    0.687E-02
DAV:   3    -0.400226385162E+03   -0.30679E-04   -0.48966E-04 37416   0.875E-02    0.531E-02
DAV:   4    -0.400226383439E+03    0.17238E-05   -0.76869E-05 36828   0.681E-02
  17 F= -.40022638E+03 E0= -.40022638E+03  d E =-.324964E-03  mag=     2.0000
