       N       E                     dE             d eps       ncg     rms          ort
DAV:   1     0.112947180912E+05    0.11295E+05   -0.46657E+05  8540   0.170E+03
DAV:   2     0.780805291832E+02   -0.11217E+05   -0.10208E+05  8540   0.487E+02
DAV:   3    -0.154413058848E+04   -0.16222E+04   -0.15375E+04  8540   0.197E+02
DAV:   4    -0.162689342880E+04   -0.82763E+02   -0.81647E+02  8540   0.454E+01
DAV:   5    -0.162792976079E+04   -0.10363E+01   -0.10335E+01  8540   0.553E+00
SDA:   6    -0.793822502380E+03    0.83411E+03   -0.10335E+01  8540   0.284E+04 0.000E+00
CGA:   7    -0.119893175751E+04   -0.40511E+03   -0.40621E+03  8540   0.289E+03 0.230E+02
CGA:   8    -0.125264978237E+04   -0.53718E+02   -0.53734E+02  8540   0.661E+02 0.186E+01
CGA:   9    -0.127405672706E+04   -0.21407E+02   -0.21346E+02  8540   0.349E+02 0.412E+00
CGA:  10    -0.128221690847E+04   -0.81602E+01   -0.81845E+01  8540   0.981E+01-0.744E+00
CGA:  11    -0.128457637692E+04   -0.23595E+01   -0.23818E+01  8540   0.248E+01-0.521E+00
CGA:  12    -0.128514656395E+04   -0.57019E+00   -0.57522E+00  8540   0.694E+00-0.131E+00
CGA:  13    -0.128532567539E+04   -0.17911E+00   -0.17887E+00  8540   0.220E+00 0.312E-02
CGA:  14    -0.128539663813E+04   -0.70963E-01   -0.73900E-01  8540   0.954E-01-0.245E-01
CGA:  15    -0.128541362687E+04   -0.16989E-01   -0.56405E-01  8540   0.160E+00-0.891E-01
CGA:  16    -0.128545165455E+04   -0.38028E-01   -0.38030E-01  8540   0.252E-01 0.945E-03
CGA:  17    -0.128546074127E+04   -0.90867E-02   -0.11255E-01  8540   0.175E-01-0.106E-01
CGA:  18    -0.128545630561E+04    0.44357E-02   -0.80156E-02  8540   0.612E-01-0.231E-01
CGA:  19    -0.128546670147E+04   -0.10396E-01   -0.10749E-01  8540   0.919E-02 0.372E-02
CGA:  20    -0.128547011234E+04   -0.34109E-02   -0.33095E-02  8540   0.160E-02 0.150E-02
CGA:  21    -0.128547063785E+04   -0.52551E-03   -0.52440E-03  8540   0.524E-03 0.170E-03
CGA:  22    -0.128547082985E+04   -0.19200E-03   -0.20148E-03  8540   0.309E-03-0.134E-03
CGA:  23    -0.128547120804E+04   -0.37819E-03    0.16504E-04  8540   0.118E-03 0.565E-04
CGA:  24    -0.128547155782E+04   -0.34978E-03    0.56013E-05  8540   0.858E-04 0.413E-04
CGA:  25    -0.128547193227E+04   -0.37444E-03    0.33715E-05  8540   0.406E-04 0.429E-04
CGA:  26    -0.128547219269E+04   -0.26043E-03    0.12767E-05  8540   0.246E-04 0.245E-04
CGA:  27    -0.128547222298E+04   -0.30289E-04    0.28360E-05  8540   0.138E-04 0.375E-05
CGA:  28    -0.128547224864E+04   -0.25655E-04    0.11823E-05  8540   0.625E-05 0.839E-05
CGA:  29    -0.128547228805E+04   -0.39413E-04    0.84782E-07  8540   0.439E-05 0.396E-05
CGA:  30    -0.128547232555E+04   -0.37502E-04    0.42836E-07  8540   0.355E-05 0.314E-05
CGA:  31    -0.128547235062E+04   -0.25073E-04    0.42577E-07  8540   0.292E-05 0.258E-05
CGA:  32    -0.128547238090E+04   -0.30274E-04    0.23179E-07  8540   0.240E-05 0.214E-05
CGA:  33    -0.128547240071E+04   -0.19811E-04    0.24263E-07  8540   0.198E-05 0.176E-05
CGA:  34    -0.128547242555E+04   -0.24841E-04    0.12915E-07  8540   0.164E-05 0.146E-05
CGA:  35    -0.128547244161E+04   -0.16057E-04    0.13799E-07  8540   0.136E-05 0.120E-05
CGA:  36    -0.128547246201E+04   -0.20401E-04    0.73244E-08  8540   0.112E-05 0.994E-06
CGA:  37    -0.128547247505E+04   -0.13042E-04    0.79495E-08  8540   0.935E-06 0.819E-06
CGA:  38    -0.128547249179E+04   -0.16742E-04    0.42076E-08  8540   0.776E-06 0.677E-06
CGA:  39    -0.128547250240E+04   -0.10603E-04    0.46218E-08  8540   0.646E-06 0.558E-06
CGA:  40    -0.128547251613E+04   -0.13738E-04    0.24346E-08  8540   0.537E-06 0.462E-06
CGA:  41    -0.128547252478E+04   -0.86414E-05    0.26939E-08  8540   0.447E-06 0.382E-06
   1 F= -.12854725E+04 E0= -.12854725E+04  d E =-.128547E+04  mag=   126.0000
       N       E                     dE             d eps       ncg     rms          ort
SDA:   1    -0.128547309779E+04   -0.58165E-03    0.00000E+00  8540   0.124E-02 0.000E+00
CGA:   2    -0.128547334899E+04   -0.25120E-03   -0.25151E-03  8540   0.487E-03 0.331E-05
CGA:   3    -0.128547348362E+04   -0.13463E-03   -0.13465E-03  8540   0.160E-03-0.573E-04
CGA:   4    -0.128547351986E+04   -0.36237E-04   -0.35024E-04  8540   0.521E-04-0.454E-04
CGA:   5    -0.128547353037E+04   -0.10517E-04   -0.11045E-04  8540   0.318E-04-0.241E-04
CGA:   6    -0.128547335810E+04    0.17228E-03   -0.93304E-04  8540   0.128E-02-0.136E-03
CGA:   7    -0.128547354877E+04   -0.19068E-03   -0.18604E-03  8540   0.112E-03-0.133E-04
CGA:   8    -0.128547358115E+04   -0.32377E-04   -0.30934E-04  8540   0.226E-04-0.704E-05
CGA:   9    -0.128547358426E+04   -0.31086E-05   -0.43316E-05  8540   0.435E-05 0.453E-05
   2 F= -.12854736E+04 E0= -.12854736E+04  d E =-.105948E-02  mag=   126.0000
       N       E                     dE             d eps       ncg     rms          ort
SDA:   1    -0.128400354201E+04    0.14700E+01    0.00000E+00  8540   0.450E+01 0.000E+00
CGA:   2    -0.128491918918E+04   -0.91565E+00   -0.91765E+00  8540   0.177E+01 0.258E-02
CGA:   3    -0.128535624366E+04   -0.43705E+00   -0.43699E+00  8540   0.456E+00-0.167E-02
CGA:   4    -0.128545116915E+04   -0.94925E-01   -0.94572E-01  8540   0.864E-01-0.170E-02
CGA:   5    -0.128546941060E+04   -0.18241E-01   -0.18219E-01  8540   0.197E-01-0.141E-03
CGA:   6    -0.128547402463E+04   -0.46140E-02   -0.46199E-02  8540   0.530E-02 0.285E-04
CGA:   7    -0.128547546672E+04   -0.14421E-02   -0.14219E-02  8540   0.165E-02-0.162E-03
CGA:   8    -0.128547599425E+04   -0.52753E-03   -0.51017E-03  8540   0.677E-03-0.253E-03
CGA:   9    -0.128547622813E+04   -0.23388E-03   -0.24609E-03  8540   0.459E-03-0.269E-03
CGA:  10    -0.128547633913E+04   -0.11100E-03   -0.12508E-03  8540   0.318E-03-0.214E-03
CGA:  11    -0.128547632046E+04    0.18671E-04   -0.14006E-03  8540   0.827E-03-0.365E-03
CGA:  12    -0.128547653279E+04   -0.21233E-03   -0.20542E-03  8540   0.150E-03-0.425E-04
CGA:  13    -0.128547659150E+04   -0.58717E-04   -0.58853E-04  8540   0.577E-04-0.133E-04
CGA:  14    -0.128547661075E+04   -0.19252E-04   -0.19600E-04  8540   0.130E-04 0.111E-04
CGA:  15    -0.128547661438E+04   -0.36227E-05   -0.43000E-05  8540   0.345E-05 0.539E-05
   3 F= -.12854766E+04 E0= -.12854766E+04  d E =-.303012E-02  mag=   126.0000
       N       E                     dE             d eps       ncg     rms          ort
SDA:   1    -0.128237488294E+04    0.31017E+01    0.00000E+00  8540   0.916E+01 0.000E+00
CGA:   2    -0.128426055289E+04   -0.18857E+01   -0.18890E+01  8540   0.373E+01 0.303E-02
CGA:   3    -0.128517476216E+04   -0.91421E+00   -0.91468E+00  8540   0.916E+00 0.160E-02
CGA:   4    -0.128536373541E+04   -0.18897E+00   -0.18893E+00  8540   0.168E+00-0.535E-03
CGA:   5    -0.128539956836E+04   -0.35833E-01   -0.35848E-01  8540   0.390E-01 0.359E-04
CGA:   6    -0.128540876897E+04   -0.92006E-02   -0.92140E-02  8540   0.105E-01 0.103E-03
CGA:   7    -0.128541141109E+04   -0.26421E-02   -0.26624E-02  8540   0.297E-02 0.216E-03
CGA:   8    -0.128541220766E+04   -0.79658E-03   -0.81142E-03  8540   0.885E-03 0.200E-03
CGA:   9    -0.128541247768E+04   -0.27002E-03   -0.27645E-03  8540   0.285E-03 0.141E-03
CGA:  10    -0.128541254660E+04   -0.68922E-04   -0.79912E-04  8540   0.101E-03 0.117E-03
CGA:  11    -0.128541255726E+04   -0.10660E-04   -0.23874E-04  8540   0.485E-04 0.806E-04
CGA:  12    -0.128541255720E+04    0.60783E-07   -0.67146E-05  8540   0.307E-04 0.367E-04
   4 F= -.12854126E+04 E0= -.12854126E+04  d E =0.640572E-01  mag=   126.0000
       N       E                     dE             d eps       ncg     rms          ort
SDA:   1    -0.127627423084E+04    0.91383E+01    0.00000E+00  8540   0.278E+02 0.000E+00
CGA:   2    -0.128195338458E+04   -0.56792E+01   -0.56924E+01  8540   0.110E+02 0.407E-01
CGA:   3    -0.128465237079E+04   -0.26990E+01   -0.26995E+01  8540   0.275E+01 0.204E-02
CGA:   4    -0.128522531885E+04   -0.57295E+00   -0.57229E+00  8540   0.521E+00-0.786E-02
CGA:   5    -0.128533557669E+04   -0.11026E+00   -0.11021E+00  8540   0.119E+00-0.807E-03
CGA:   6    -0.128536385603E+04   -0.28279E-01   -0.28283E-01  8540   0.324E-01 0.333E-04
CGA:   7    -0.128537244104E+04   -0.85850E-02   -0.85773E-02  8540   0.972E-02-0.394E-03
CGA:   8    -0.128537529362E+04   -0.28526E-02   -0.28606E-02  8540   0.338E-02-0.574E-03
CGA:   9    -0.128537641949E+04   -0.11259E-02   -0.11761E-02  8540   0.148E-02-0.590E-03
CGA:  10    -0.128537683655E+04   -0.41706E-03   -0.42973E-03  8540   0.539E-03-0.199E-03
CGA:  11    -0.128537701361E+04   -0.17706E-03   -0.22414E-03  8540   0.349E-03-0.250E-03
CGA:  12    -0.128537714533E+04   -0.13172E-03    0.16814E-03  8540   0.141E-03-0.997E-05
CGA:  13    -0.128537724278E+04   -0.97450E-04    0.11653E-03  8540   0.611E-04 0.699E-05
CGA:  14    -0.128537729383E+04   -0.51058E-04    0.30304E-04  8540   0.258E-04 0.703E-05
CGA:  15    -0.128537732380E+04   -0.29969E-04    0.59745E-05  8540   0.116E-04 0.624E-05
CGA:  16    -0.128537734564E+04   -0.21837E-04    0.14313E-05  8540   0.428E-05 0.189E-05
CGA:  17    -0.128537735922E+04   -0.13582E-04    0.21227E-06  8540   0.177E-05 0.106E-05
CGA:  18    -0.128537737042E+04   -0.11194E-04    0.45119E-07  8540   0.810E-06 0.593E-06
CGA:  19    -0.128537737957E+04   -0.91582E-05    0.12494E-07  8540   0.411E-06 0.382E-06
   5 F= -.12853774E+04 E0= -.12853774E+04  d E =0.351776E-01  mag=   126.0000
       N       E                     dE             d eps       ncg     rms          ort
SDA:   1    -0.128200269563E+04    0.33747E+01    0.00000E+00  8540   0.109E+02 0.000E+00
CGA:   2    -0.128416981959E+04   -0.21671E+01   -0.21696E+01  8540   0.413E+01 0.790E-02
CGA:   3    -0.128519982837E+04   -0.10300E+01   -0.10304E+01  8540   0.109E+01 0.501E-02
CGA:   4    -0.128542918033E+04   -0.22935E+00   -0.22948E+00  8540   0.207E+00 0.107E-02
CGA:   5    -0.128547312771E+04   -0.43947E-01   -0.43937E-01  8540   0.468E-01-0.222E-03
CGA:   6    -0.128548429046E+04   -0.11163E-01   -0.11139E-01  8540   0.130E-01-0.509E-03
CGA:   7    -0.128548757292E+04   -0.32825E-02   -0.32891E-02  8540   0.366E-02 0.232E-03
CGA:   8    -0.128548854043E+04   -0.96751E-03   -0.97401E-03  8540   0.104E-02 0.310E-03
CGA:   9    -0.128548887126E+04   -0.33083E-03   -0.32897E-03  8540   0.339E-03 0.173E-03
CGA:  10    -0.128548897667E+04   -0.10540E-03   -0.10672E-03  8540   0.121E-03 0.112E-03
CGA:  11    -0.128548900807E+04   -0.31400E-04   -0.35684E-04  8540   0.486E-04 0.713E-04
CGA:  12    -0.128548901229E+04   -0.42197E-05   -0.79499E-05  8540   0.261E-04 0.325E-04
   6 F= -.12854890E+04 E0= -.12854890E+04  d E =-.111633E+00  mag=   126.0000
       N       E                     dE             d eps       ncg     rms          ort
SDA:   1    -0.128520721742E+04    0.28179E+00    0.00000E+00  8540   0.802E+00 0.000E+00
CGA:   2    -0.128537430104E+04   -0.16708E+00   -0.16714E+00  8540   0.333E+00 0.401E-03
CGA:   3    -0.128545470461E+04   -0.80404E-01   -0.80416E-01  8540   0.793E-01 0.412E-03
CGA:   4    -0.128547107303E+04   -0.16368E-01   -0.16376E-01  8540   0.146E-01 0.123E-03
CGA:   5    -0.128547423492E+04   -0.31619E-02   -0.31607E-02  8540   0.343E-02-0.328E-04
CGA:   6    -0.128547505628E+04   -0.82136E-03   -0.82089E-03  8540   0.932E-03-0.312E-04
CGA:   7    -0.128547527399E+04   -0.21771E-03   -0.21913E-03  8540   0.246E-03 0.800E-04
CGA:   8    -0.128547532765E+04   -0.53655E-04   -0.56802E-04  8540   0.693E-04 0.761E-04
CGA:   9    -0.128547534016E+04   -0.12513E-04   -0.15958E-04  8540   0.304E-04 0.453E-04
CGA:  10    -0.128547534322E+04   -0.30540E-05   -0.48752E-05  8540   0.169E-04 0.208E-04
   7 F= -.12854753E+04 E0= -.12854753E+04  d E =0.136691E-01  mag=   126.0000
       N       E                     dE             d eps       ncg     rms          ort
SDA:   1    -0.127857050576E+04    0.69048E+01    0.00000E+00  8540   0.210E+02 0.000E+00
CGA:   2    -0.128275969795E+04   -0.41892E+01   -0.41924E+01  8540   0.799E+01 0.499E-01
CGA:   3    -0.128476499083E+04   -0.20053E+01   -0.20052E+01  8540   0.213E+01-0.132E-02
CGA:   4    -0.128520996666E+04   -0.44498E+00   -0.44472E+00  8540   0.400E+00-0.971E-02
CGA:   5    -0.128529421524E+04   -0.84249E-01   -0.84229E-01  8540   0.915E-01-0.986E-03
CGA:   6    -0.128531555926E+04   -0.21344E-01   -0.21344E-01  8540   0.244E-01 0.241E-03
CGA:   7    -0.128532195324E+04   -0.63940E-02   -0.63979E-02  8540   0.715E-02-0.146E-03
CGA:   8    -0.128532405171E+04   -0.20985E-02   -0.21277E-02  8540   0.248E-02-0.457E-03
CGA:   9    -0.128532485839E+04   -0.80669E-03   -0.87729E-03  8540   0.117E-02-0.508E-03
CGA:  10    -0.128532515612E+04   -0.29773E-03   -0.30685E-03  8540   0.396E-03-0.108E-03
CGA:  11    -0.128532528322E+04   -0.12710E-03   -0.13752E-03  8540   0.145E-03-0.784E-04
CGA:  12    -0.128532534955E+04   -0.66334E-04    0.12694E-03  8540   0.454E-04 0.239E-04
CGA:  13    -0.128532539037E+04   -0.40815E-04    0.13418E-04  8540   0.185E-04 0.141E-04
CGA:  14    -0.128532541496E+04   -0.24589E-04    0.31619E-05  8540   0.815E-05 0.840E-05
CGA:  15    -0.128532543134E+04   -0.16384E-04    0.89309E-06  8540   0.413E-05 0.471E-05
CGA:  16    -0.128532543836E+04   -0.70169E-05    0.22784E-06  8540   0.174E-05 0.202E-05
   8 F= -.12853254E+04 E0= -.12853254E+04  d E =0.149905E+00  mag=   126.0000
       N       E                     dE             d eps       ncg     rms          ort
SDA:   1    -0.127736026523E+04    0.79652E+01    0.00000E+00  8540   0.253E+02 0.000E+00
CGA:   2    -0.128238789831E+04   -0.50276E+01   -0.50329E+01  8540   0.955E+01 0.427E-01
CGA:   3    -0.128478700713E+04   -0.23991E+01   -0.23992E+01  8540   0.253E+01 0.116E-01
CGA:   4    -0.128531922904E+04   -0.53222E+00   -0.53226E+00  8540   0.477E+00-0.259E-03
CGA:   5    -0.128542052623E+04   -0.10130E+00   -0.10129E+00  8540   0.109E+00-0.456E-03
CGA:   6    -0.128544623265E+04   -0.25706E-01   -0.25697E-01  8540   0.300E-01-0.796E-03
CGA:   7    -0.128545387117E+04   -0.76385E-02   -0.76348E-02  8540   0.848E-02 0.464E-03
CGA:   8    -0.128545619273E+04   -0.23216E-02   -0.23115E-02  8540   0.250E-02 0.510E-03
CGA:   9    -0.128545702000E+04   -0.82727E-03   -0.81282E-03  8540   0.837E-03 0.250E-03
CGA:  10    -0.128545727805E+04   -0.25806E-03   -0.25293E-03  8540   0.281E-03 0.233E-03
CGA:  11    -0.128545735524E+04   -0.77187E-04   -0.81330E-04  8540   0.107E-03 0.150E-03
CGA:  12    -0.128545736983E+04   -0.14588E-04   -0.19357E-04  8540   0.537E-04 0.667E-04
CGA:  13    -0.128545737011E+04   -0.28221E-06   -0.64036E-05  8540   0.432E-04 0.473E-04
   9 F= -.12854574E+04 E0= -.12854574E+04  d E =-.131932E+00  mag=   126.0000
       N       E                     dE             d eps       ncg     rms          ort
SDA:   1    -0.128499760143E+04    0.45977E+00    0.00000E+00  8540   0.153E+01 0.000E+00
CGA:   2    -0.128530632022E+04   -0.30872E+00   -0.30884E+00  8540   0.586E+00 0.251E-02
CGA:   3    -0.128545289146E+04   -0.14657E+00   -0.14659E+00  8540   0.156E+00-0.157E-02
CGA:   4    -0.128548568404E+04   -0.32793E-01   -0.32766E-01  8540   0.297E-01-0.116E-02
CGA:   5    -0.128549192127E+04   -0.62372E-02   -0.62347E-02  8540   0.669E-02-0.130E-03
CGA:   6    -0.128549347227E+04   -0.15510E-02   -0.15510E-02  8540   0.180E-02 0.121E-04
CGA:   7    -0.128549396350E+04   -0.49123E-03   -0.49536E-03  8540   0.573E-03-0.961E-04
CGA:   8    -0.128549413406E+04   -0.17056E-03   -0.18736E-03  8540   0.289E-03-0.152E-03
CGA:   9    -0.128549419371E+04   -0.59652E-04   -0.10273E-03  8540   0.283E-03-0.178E-03
CGA:  10    -0.128549424915E+04   -0.55433E-04   -0.55722E-04  8540   0.463E-04 0.518E-05
CGA:  11    -0.128549426678E+04   -0.17639E-04   -0.23854E-04  8540   0.345E-04-0.243E-04
CGA:  12    -0.128549416994E+04    0.96842E-04   -0.42164E-04  8540   0.696E-03-0.145E-03
CGA:  13    -0.128549429952E+04   -0.12958E-03   -0.13236E-03  8540   0.286E-04 0.230E-04
CGA:  14    -0.128549430726E+04   -0.77312E-05   -0.78411E-05  8540   0.144E-05 0.281E-05
  10 F= -.12854943E+04 E0= -.12854943E+04  d E =-.369371E-01  mag=   126.0000
       N       E                     dE             d eps       ncg     rms          ort
SDA:   1    -0.128524810867E+04    0.24619E+00    0.00000E+00  8540   0.745E+00 0.000E+00
CGA:   2    -0.128540441422E+04   -0.15631E+00   -0.15644E+00  8540   0.303E+00 0.101E-02
CGA:   3    -0.128547791490E+04   -0.73501E-01   -0.73465E-01  8540   0.744E-01-0.853E-03
CGA:   4    -0.128549352361E+04   -0.15609E-01   -0.15550E-01  8540   0.140E-01-0.707E-03
CGA:   5    -0.128549651909E+04   -0.29955E-02   -0.29861E-02  8540   0.325E-02-0.129E-03
CGA:   6    -0.128549727247E+04   -0.75338E-03   -0.75313E-03  8540   0.886E-03-0.556E-05
CGA:   7    -0.128549752306E+04   -0.25059E-03   -0.25053E-03  8540   0.301E-03-0.779E-04
CGA:   8    -0.128549761482E+04   -0.91753E-04   -0.99256E-04  8540   0.170E-03-0.974E-04
CGA:   9    -0.128549764037E+04   -0.25552E-04   -0.65213E-04  8540   0.251E-03-0.142E-03
CGA:  10    -0.128549768880E+04   -0.48430E-04   -0.48788E-04  8540   0.379E-04 0.326E-05
CGA:  11    -0.128549770421E+04   -0.15407E-04   -0.18615E-04  8540   0.249E-04-0.171E-04
CGA:  12    -0.128549771668E+04   -0.12479E-04    0.42862E-05  8540   0.944E-05-0.878E-06
CGA:  13    -0.128549772709E+04   -0.10406E-04    0.16071E-05  8540   0.323E-05-0.323E-06
CGA:  14    -0.128549773282E+04   -0.57331E-05    0.23881E-06  8540   0.120E-05-0.334E-06
  11 F= -.12854977E+04 E0= -.12854977E+04  d E =-.342557E-02  mag=   126.0000
       N       E                     dE             d eps       ncg     rms          ort
SDA:   1    -0.128461409021E+04    0.88364E+00    0.00000E+00  8540   0.231E+01 0.000E+00
CGA:   2    -0.128521270051E+04   -0.59861E+00   -0.59874E+00  8540   0.113E+01 0.193E-02
CGA:   3    -0.128544655635E+04   -0.23386E+00   -0.23375E+00  8540   0.200E+00-0.143E-02
CGA:   4    -0.128548811788E+04   -0.41562E-01   -0.41485E-01  8540   0.373E-01-0.852E-03
CGA:   5    -0.128549617239E+04   -0.80545E-02   -0.80434E-02  8540   0.874E-02-0.153E-03
CGA:   6    -0.128549824721E+04   -0.20748E-02   -0.20729E-02  8540   0.239E-02-0.391E-04
CGA:   7    -0.128549889282E+04   -0.64561E-03   -0.64378E-03  8540   0.777E-03-0.107E-03
CGA:   8    -0.128549912878E+04   -0.23597E-03   -0.23882E-03  8540   0.309E-03-0.815E-04
CGA:   9    -0.128549922865E+04   -0.99873E-04   -0.10839E-03  8540   0.145E-03-0.826E-04
CGA:  10    -0.128549926341E+04   -0.34754E-04   -0.55234E-04  8540   0.140E-03-0.912E-04
CGA:  11    -0.128549929608E+04   -0.32672E-04   -0.32189E-04  8540   0.253E-04-0.652E-05
CGA:  12    -0.128549917440E+04    0.12168E-03   -0.65743E-04  8540   0.672E-03-0.106E-03
CGA:  13    -0.128549931347E+04   -0.13907E-03   -0.14426E-03  8540   0.676E-04 0.154E-04
CGA:  14    -0.128549933675E+04   -0.23287E-04   -0.23544E-04  8540   0.731E-05 0.134E-05
CGA:  15    -0.128549934061E+04   -0.38524E-05   -0.62759E-05  8540   0.179E-04-0.762E-05
  12 F= -.12854993E+04 E0= -.12854993E+04  d E =-.160778E-02  mag=   126.0000
       N       E                     dE             d eps       ncg     rms          ort
SDA:   1    -0.126943756484E+04    0.16062E+02    0.00000E+00  8540   0.489E+02 0.000E+00
CGA:   2    -0.127918838327E+04   -0.97508E+01   -0.98070E+01  8540   0.186E+02 0.139E-01
CGA:   3    -0.128383559847E+04   -0.46472E+01   -0.46520E+01  8540   0.482E+01 0.236E-01
CGA:   4    -0.128484909157E+04   -0.10135E+01   -0.10131E+01  8540   0.901E+00-0.269E-02
CGA:   5    -0.128504026198E+04   -0.19117E+00   -0.19110E+00  8540   0.208E+00-0.837E-03
CGA:   6    -0.128508940123E+04   -0.49139E-01   -0.49058E-01  8540   0.578E-01-0.403E-03
CGA:   7    -0.128510428210E+04   -0.14881E-01   -0.14962E-01  8540   0.168E-01 0.402E-03
CGA:   8    -0.128510887968E+04   -0.45976E-02   -0.46776E-02  8540   0.515E-02 0.470E-03
CGA:   9    -0.128511052983E+04   -0.16501E-02   -0.16820E-02  8540   0.171E-02 0.265E-03
CGA:  10    -0.128511103298E+04   -0.50314E-03   -0.54099E-03  8540   0.564E-03 0.290E-03
CGA:  11    -0.128511116881E+04   -0.13584E-03   -0.17063E-03  8540   0.184E-03 0.210E-03
CGA:  12    -0.128511118759E+04   -0.18780E-04   -0.48023E-04  8540   0.813E-04 0.129E-03
CGA:  13    -0.128511118437E+04    0.32263E-05   -0.12478E-04  8540   0.527E-04 0.625E-04
  13 F= -.12851112E+04 E0= -.12851112E+04  d E =0.388156E+00  mag=   126.0000
       N       E                     dE             d eps       ncg     rms          ort
SDA:   1    -0.128063730666E+04    0.44739E+01    0.00000E+00  8540   0.149E+02 0.000E+00
CGA:   2    -0.128367399299E+04   -0.30367E+01   -0.30417E+01  8540   0.585E+01 0.509E-02
CGA:   3    -0.128511054103E+04   -0.14365E+01   -0.14369E+01  8540   0.148E+01-0.930E-03
CGA:   4    -0.128542000746E+04   -0.30947E+00   -0.30926E+00  8540   0.278E+00-0.164E-02
CGA:   5    -0.128547889004E+04   -0.58883E-01   -0.58851E-01  8540   0.638E-01-0.328E-03
CGA:   6    -0.128549399516E+04   -0.15105E-01   -0.15077E-01  8540   0.178E-01-0.276E-03
CGA:   7    -0.128549867897E+04   -0.46838E-02   -0.46701E-02  8540   0.528E-02-0.176E-03
CGA:   8    -0.128550019191E+04   -0.15129E-02   -0.15056E-02  8540   0.172E-02-0.145E-03
CGA:   9    -0.128550076980E+04   -0.57789E-03   -0.57964E-03  8540   0.650E-03-0.164E-03
CGA:  10    -0.128550097944E+04   -0.20964E-03   -0.21126E-03  8540   0.249E-03-0.733E-04
CGA:  11    -0.128550106907E+04   -0.89628E-04   -0.10668E-03  8540   0.165E-03-0.117E-03
CGA:  12    -0.128550003839E+04    0.10307E-02   -0.55827E-03  8540   0.464E-02-0.645E-03
CGA:  13    -0.128550104762E+04   -0.10092E-02   -0.10142E-02  8540   0.488E-03 0.117E-04
CGA:  14    -0.128550120849E+04   -0.16087E-03   -0.17360E-03  8540   0.132E-03 0.498E-04
CGA:  15    -0.128550127840E+04   -0.69911E-04   -0.68265E-04  8540   0.945E-04-0.130E-04
CGA:  16    -0.128550127716E+04    0.12449E-05   -0.14201E-04  8540   0.333E-04 0.365E-04
  14 F= -.12855013E+04 E0= -.12855013E+04  d E =-.390093E+00  mag=   126.0000
       N       E                     dE             d eps       ncg     rms          ort
SDA:   1    -0.128398802155E+04    0.15133E+01    0.00000E+00  8540   0.487E+01 0.000E+00
CGA:   2    -0.128496298526E+04   -0.97496E+00   -0.97689E+00  8540   0.187E+01 0.121E-02
CGA:   3    -0.128543001799E+04   -0.46703E+00   -0.46695E+00  8540   0.492E+00-0.151E-02
CGA:   4    -0.128553333595E+04   -0.10332E+00   -0.10299E+00  8540   0.923E-01-0.115E-02
CGA:   5    -0.128555289300E+04   -0.19557E-01   -0.19504E-01  8540   0.213E-01-0.215E-03
CGA:   6    -0.128555786030E+04   -0.49673E-02   -0.49579E-02  8540   0.582E-02-0.441E-04
CGA:   7    -0.128555941570E+04   -0.15554E-02   -0.15356E-02  8540   0.175E-02-0.957E-04
CGA:   8    -0.128555994546E+04   -0.52977E-03   -0.51018E-03  8540   0.605E-03-0.118E-03
CGA:   9    -0.128556016856E+04   -0.22310E-03   -0.21366E-03  8540   0.284E-03-0.124E-03
CGA:  10    -0.128556026494E+04   -0.96381E-04   -0.93090E-04  8540   0.154E-03-0.870E-04
CGA:  11    -0.128556030866E+04   -0.43721E-04   -0.67329E-04  8540   0.221E-03-0.131E-03
CGA:  12    -0.128556037315E+04   -0.64488E-04   -0.58055E-04  8540   0.507E-04-0.330E-04
CGA:  13    -0.128556039400E+04   -0.20851E-04   -0.27128E-04  8540   0.665E-04-0.347E-04
CGA:  14    -0.128556041270E+04   -0.18700E-04   -0.16832E-04  8540   0.882E-05-0.916E-05
CGA:  15    -0.128556041586E+04   -0.31614E-05   -0.30840E-05  8540   0.261E-05-0.185E-05
  15 F= -.12855604E+04 E0= -.12855604E+04  d E =-.591387E-01  mag=   126.0000
       N       E                     dE             d eps       ncg     rms          ort
SDA:   1    -0.128554354656E+04    0.16866E-01    0.00000E+00  8540   0.645E-01 0.000E+00
CGA:   2    -0.128555762470E+04   -0.14078E-01   -0.14128E-01  8540   0.285E-01 0.187E-03
CGA:   3    -0.128556438245E+04   -0.67577E-02   -0.67456E-02  8540   0.642E-02-0.780E-04
CGA:   4    -0.128556571338E+04   -0.13309E-02   -0.13079E-02  8540   0.118E-02-0.106E-03
CGA:   5    -0.128556597453E+04   -0.26115E-03   -0.25532E-03  8540   0.292E-03-0.306E-04
CGA:   6    -0.128556604112E+04   -0.66591E-04   -0.66194E-04  8540   0.750E-04-0.240E-05
CGA:   7    -0.128556606061E+04   -0.19491E-04   -0.19324E-04  8540   0.223E-04-0.126E-05
CGA:   8    -0.128556606883E+04   -0.82122E-05   -0.12671E-04  8540   0.483E-04-0.234E-04
  16 F= -.12855661E+04 E0= -.12855661E+04  d E =-.565297E-02  mag=   126.0000
       N       E                     dE             d eps       ncg     rms          ort
SDA:   1    -0.128301342452E+04    0.25526E+01    0.00000E+00  8540   0.678E+01 0.000E+00
CGA:   2    -0.128474784129E+04   -0.17344E+01   -0.17352E+01  8540   0.341E+01 0.270E-02
CGA:   3    -0.128546231463E+04   -0.71447E+00   -0.71431E+00  8540   0.590E+00-0.157E-02
CGA:   4    -0.128558269659E+04   -0.12038E+00   -0.12018E+00  8540   0.108E+00-0.123E-02
CGA:   5    -0.128560648699E+04   -0.23790E-01   -0.23755E-01  8540   0.265E-01-0.278E-03
CGA:   6    -0.128561266946E+04   -0.61825E-02   -0.61800E-02  8540   0.689E-02-0.254E-04
CGA:   7    -0.128561445142E+04   -0.17820E-02   -0.17837E-02  8540   0.212E-02 0.176E-04
CGA:   8    -0.128561509826E+04   -0.64684E-03   -0.64491E-03  8540   0.751E-03-0.466E-04
CGA:   9    -0.128561537806E+04   -0.27980E-03   -0.28592E-03  8540   0.348E-03-0.135E-03
CGA:  10    -0.128561548392E+04   -0.10586E-03   -0.10820E-03  8540   0.144E-03-0.704E-04
CGA:  11    -0.128561553122E+04   -0.47298E-04   -0.59178E-04  8540   0.116E-03-0.712E-04
CGA:  12    -0.128561545491E+04    0.76310E-04   -0.71942E-04  8540   0.602E-03-0.171E-03
CGA:  13    -0.128561560273E+04   -0.14782E-03   -0.14844E-03  8540   0.872E-04 0.395E-05
CGA:  14    -0.128561562531E+04   -0.22585E-04   -0.24970E-04  8540   0.173E-04 0.222E-04
CGA:  15    -0.128561563436E+04   -0.90454E-05   -0.90202E-05  8540   0.884E-05 0.891E-06
  17 F= -.12856156E+04 E0= -.12856156E+04  d E =-.495655E-01  mag=   126.0000
       N       E                     dE             d eps       ncg     rms          ort
SDA:   1    -0.127534039596E+04    0.10275E+02    0.00000E+00  8540   0.323E+02 0.000E+00
CGA:   2    -0.128155392554E+04   -0.62135E+01   -0.62429E+01  8540   0.121E+02 0.251E-02
CGA:   3    -0.128464012004E+04   -0.30862E+01   -0.30882E+01  8540   0.331E+01 0.108E-01
CGA:   4    -0.128532720191E+04   -0.68708E+00   -0.68694E+00  8540   0.614E+00-0.309E-02
CGA:   5    -0.128545572615E+04   -0.12852E+00   -0.12835E+00  8540   0.144E+00-0.161E-02
CGA:   6    -0.128548969836E+04   -0.33972E-01   -0.33857E-01  8540   0.385E-01-0.110E-02
CGA:   7    -0.128549948283E+04   -0.97845E-02   -0.97797E-02  8540   0.113E-01-0.677E-04
CGA:   8    -0.128550251752E+04   -0.30347E-02   -0.30659E-02  8540   0.326E-02 0.478E-03
CGA:   9    -0.128550354625E+04   -0.10287E-02   -0.10384E-02  8540   0.107E-02 0.350E-03
CGA:  10    -0.128550391062E+04   -0.36436E-03   -0.36834E-03  8540   0.383E-03 0.200E-03
CGA:  11    -0.128550402510E+04   -0.11448E-03   -0.12285E-03  8540   0.127E-03 0.138E-03
CGA:  12    -0.128550404869E+04   -0.23596E-04   -0.34456E-04  8540   0.534E-04 0.849E-04
CGA:  13    -0.128550405008E+04   -0.13903E-05   -0.81859E-05  8540   0.338E-04 0.404E-04
  18 F= -.12855041E+04 E0= -.12855041E+04  d E =0.111584E+00  mag=   126.0000
       N       E                     dE             d eps       ncg     rms          ort
SDA:   1    -0.128305614041E+04    0.24479E+01    0.00000E+00  8540   0.814E+01 0.000E+00
CGA:   2    -0.128467399155E+04   -0.16179E+01   -0.16198E+01  8540   0.313E+01 0.781E-02
CGA:   3    -0.128545170053E+04   -0.77771E+00   -0.77796E+00  8540   0.806E+00 0.246E-02
CGA:   4    -0.128562169273E+04   -0.16999E+00   -0.16987E+00  8540   0.157E+00-0.162E-02
CGA:   5    -0.128565438600E+04   -0.32693E-01   -0.32672E-01  8540   0.360E-01-0.319E-03
CGA:   6    -0.128566279050E+04   -0.84045E-02   -0.83995E-02  8540   0.967E-02-0.106E-03
CGA:   7    -0.128566531321E+04   -0.25227E-02   -0.25215E-02  8540   0.289E-02-0.546E-04
CGA:   8    -0.128566615881E+04   -0.84560E-03   -0.84739E-03  8540   0.964E-03-0.156E-03
CGA:   9    -0.128566649609E+04   -0.33728E-03   -0.36444E-03  8540   0.506E-03-0.235E-03
CGA:  10    -0.128566662158E+04   -0.12549E-03   -0.12859E-03  8540   0.184E-03-0.669E-04
CGA:  11    -0.128566668101E+04   -0.59424E-04   -0.67903E-04  8540   0.900E-04-0.641E-04
CGA:  12    -0.128566630305E+04    0.37796E-03   -0.20353E-03  8540   0.187E-02-0.309E-03
CGA:  13    -0.128566672165E+04   -0.41860E-03   -0.42855E-03  8540   0.174E-03 0.311E-04
CGA:  14    -0.128566679068E+04   -0.69033E-04   -0.68172E-04  8540   0.443E-04-0.609E-05
CGA:  15    -0.128566680112E+04   -0.10434E-04   -0.12687E-04  8540   0.113E-04 0.100E-04
CGA:  16    -0.128566680324E+04   -0.21249E-05   -0.35546E-05  8540   0.437E-05 0.562E-05
  19 F= -.12856668E+04 E0= -.12856668E+04  d E =-.162753E+00  mag=   126.0000
       N       E                     dE             d eps       ncg     rms          ort
SDA:   1    -0.128514694020E+04    0.51986E+00    0.00000E+00  8540   0.167E+01 0.000E+00
CGA:   2    -0.128548656861E+04   -0.33963E+00   -0.34035E+00  8540   0.671E+00 0.111E-02
CGA:   3    -0.128565127560E+04   -0.16471E+00   -0.16474E+00  8540   0.165E+00-0.355E-03
CGA:   4    -0.128568586800E+04   -0.34592E-01   -0.34420E-01  8540   0.315E-01-0.694E-03
CGA:   5    -0.128569250203E+04   -0.66340E-02   -0.66196E-02  8540   0.737E-02-0.706E-04
CGA:   6    -0.128569419905E+04   -0.16970E-02   -0.17098E-02  8540   0.192E-02 0.608E-04
CGA:   7    -0.128569470778E+04   -0.50872E-03   -0.50792E-03  8540   0.582E-03-0.538E-05
CGA:   8    -0.128569490421E+04   -0.19644E-03   -0.18836E-03  8540   0.240E-03-0.875E-04
CGA:   9    -0.128569499245E+04   -0.88236E-04   -0.93008E-04  8540   0.187E-03-0.111E-03
CGA:  10    -0.128569503025E+04   -0.37804E-04   -0.34385E-04  8540   0.825E-04-0.467E-04
CGA:  11    -0.128569505510E+04   -0.24844E-04   -0.24451E-04  8540   0.446E-04-0.248E-04
CGA:  12    -0.128569460839E+04    0.44670E-03   -0.24203E-03  8540   0.203E-02-0.235E-03
CGA:  13    -0.128569506283E+04   -0.45444E-03   -0.46613E-03  8540   0.200E-03 0.221E-04
CGA:  14    -0.128569513697E+04   -0.74131E-04   -0.74698E-04  8540   0.355E-04 0.154E-05
CGA:  15    -0.128569514244E+04   -0.54761E-05   -0.99558E-05  8540   0.884E-05 0.105E-04
  20 F= -.12856951E+04 E0= -.12856951E+04  d E =-.283392E-01  mag=   126.0000
       N       E                     dE             d eps       ncg     rms          ort
SDA:   1    -0.128545836438E+04    0.23677E+00    0.00000E+00  8540   0.722E+00 0.000E+00
CGA:   2    -0.128561739683E+04   -0.15903E+00   -0.15939E+00  8540   0.325E+00 0.433E-03
CGA:   3    -0.128569294106E+04   -0.75544E-01   -0.75423E-01  8540   0.693E-01-0.429E-03
CGA:   4    -0.128570723111E+04   -0.14290E-01   -0.14139E-01  8540   0.128E-01-0.362E-03
CGA:   5    -0.128570998353E+04   -0.27524E-02   -0.27465E-02  8540   0.310E-02-0.194E-04
CGA:   6    -0.128571068166E+04   -0.69813E-03   -0.71676E-03  8540   0.788E-03 0.527E-04
CGA:   7    -0.128571088576E+04   -0.20411E-03   -0.20711E-03  8540   0.236E-03 0.976E-05
CGA:   8    -0.128571097176E+04   -0.85995E-04   -0.78951E-04  8540   0.994E-04-0.326E-04
CGA:   9    -0.128571101191E+04   -0.40155E-04   -0.36197E-04  8540   0.612E-04-0.350E-04
CGA:  10    -0.128571102610E+04   -0.14185E-04   -0.12516E-04  8540   0.220E-04-0.780E-05
CGA:  11    -0.128571103333E+04   -0.72317E-05   -0.67282E-05  8540   0.945E-05-0.301E-05
CGA:  12    -0.128571104211E+04   -0.87819E-05    0.38765E-04  8540   0.899E-05-0.374E-05
  21 F= -.12857110E+04 E0= -.12857110E+04  d E =-.158997E-01  mag=   126.0000
       N       E                     dE             d eps       ncg     rms          ort
SDA:   1    -0.128516182880E+04    0.54920E+00    0.00000E+00  8540   0.154E+01 0.000E+00
CGA:   2    -0.128554249164E+04   -0.38066E+00   -0.38103E+00  8540   0.762E+00 0.646E-03
CGA:   3    -0.128570429346E+04   -0.16180E+00   -0.16158E+00  8540   0.138E+00-0.845E-03
CGA:   4    -0.128573262771E+04   -0.28334E-01   -0.28186E-01  8540   0.256E-01-0.526E-03
CGA:   5    -0.128573820444E+04   -0.55767E-02   -0.55646E-02  8540   0.622E-02-0.564E-04
CGA:   6    -0.128573963751E+04   -0.14331E-02   -0.14406E-02  8540   0.160E-02 0.321E-04
CGA:   7    -0.128574004780E+04   -0.41029E-03   -0.41275E-03  8540   0.487E-03 0.128E-04
CGA:   8    -0.128574020521E+04   -0.15741E-03   -0.15398E-03  8540   0.184E-03-0.282E-04
CGA:   9    -0.128574027678E+04   -0.71570E-04   -0.70490E-04  8540   0.974E-04-0.458E-04
CGA:  10    -0.128574030446E+04   -0.27679E-04   -0.26523E-04  8540   0.400E-04-0.175E-04
CGA:  11    -0.128574031888E+04   -0.14418E-04   -0.14663E-04  8540   0.245E-04-0.120E-04
CGA:  12    -0.128574033384E+04   -0.14957E-04    0.16157E-03  8540   0.141E-04-0.187E-05
CGA:  13    -0.128574034516E+04   -0.11321E-04    0.14978E-03  8540   0.691E-05 0.452E-06
CGA:  14    -0.128574034904E+04   -0.38859E-05   -0.46765E-05  8540   0.766E-05-0.349E-05
CGA:  15    -0.128574033243E+04    0.16613E-04   -0.10588E-04  8540   0.128E-03-0.288E-04
CGA:  16    -0.128574035091E+04   -0.18475E-04   -0.25176E-04  8540   0.812E-05 0.231E-04
CGA:  17    -0.128574035372E+04   -0.28180E-05   -0.27118E-05  8540   0.130E-05-0.567E-06
  22 F= -.12857404E+04 E0= -.12857404E+04  d E =-.293116E-01  mag=   126.0000
       N       E                     dE             d eps       ncg     rms          ort
SDA:   1    -0.127595884287E+04    0.97815E+01    0.00000E+00  8540   0.299E+02 0.000E+00
CGA:   2    -0.128200091429E+04   -0.60421E+01   -0.60784E+01  8540   0.119E+02-0.102E-01
CGA:   3    -0.128491320192E+04   -0.29123E+01   -0.29151E+01  8540   0.293E+01 0.153E-01
CGA:   4    -0.128552274604E+04   -0.60954E+00   -0.60966E+00  8540   0.562E+00-0.124E-02
CGA:   5    -0.128564154658E+04   -0.11880E+00   -0.11865E+00  8540   0.134E+00-0.115E-02
CGA:   6    -0.128567309599E+04   -0.31549E-01   -0.31403E-01  8540   0.364E-01-0.912E-03
CGA:   7    -0.128568239955E+04   -0.93036E-02   -0.93042E-02  8540   0.108E-01-0.706E-05
CGA:   8    -0.128568532145E+04   -0.29219E-02   -0.29662E-02  8540   0.320E-02 0.383E-03
CGA:   9    -0.128568635723E+04   -0.10358E-02   -0.10505E-02  8540   0.108E-02 0.222E-03
CGA:  10    -0.128568672452E+04   -0.36728E-03   -0.37403E-03  8540   0.378E-03 0.121E-03
CGA:  11    -0.128568683943E+04   -0.11492E-03   -0.12263E-03  8540   0.117E-03 0.907E-04
CGA:  12    -0.128568686239E+04   -0.22958E-04   -0.32553E-04  8540   0.469E-04 0.643E-04
CGA:  13    -0.128568686366E+04   -0.12663E-05   -0.79206E-05  8540   0.278E-04 0.339E-04
  23 F= -.12856869E+04 E0= -.12856869E+04  d E =0.534901E-01  mag=   126.0000
       N       E                     dE             d eps       ncg     rms          ort
SDA:   1    -0.128201827463E+04    0.36686E+01    0.00000E+00  8540   0.118E+02 0.000E+00
CGA:   2    -0.128440427326E+04   -0.23860E+01   -0.23917E+01  8540   0.466E+01 0.766E-02
CGA:   3    -0.128554269191E+04   -0.11384E+01   -0.11389E+01  8540   0.115E+01 0.213E-02
CGA:   4    -0.128578412784E+04   -0.24144E+00   -0.24116E+00  8540   0.229E+00-0.227E-02
CGA:   5    -0.128583163330E+04   -0.47505E-01   -0.47480E-01  8540   0.532E-01-0.309E-03
CGA:   6    -0.128584395783E+04   -0.12325E-01   -0.12328E-01  8540   0.143E-01 0.262E-04
CGA:   7    -0.128584770276E+04   -0.37449E-02   -0.37426E-02  8540   0.432E-02-0.473E-04
CGA:   8    -0.128584896969E+04   -0.12669E-02   -0.12634E-02  8540   0.141E-02-0.179E-03
CGA:   9    -0.128584945924E+04   -0.48955E-03   -0.50174E-03  8540   0.619E-03-0.210E-03
CGA:  10    -0.128584963069E+04   -0.17145E-03   -0.17184E-03  8540   0.205E-03-0.367E-04
CGA:  11    -0.128584970292E+04   -0.72224E-04   -0.75649E-04  8540   0.811E-04-0.446E-04
CGA:  12    -0.128584974527E+04   -0.42355E-04    0.23436E-03  8540   0.273E-04 0.258E-05
CGA:  13    -0.128584976980E+04   -0.24526E-04    0.12503E-04  8540   0.106E-04 0.549E-05
CGA:  14    -0.128584978485E+04   -0.15055E-04    0.23838E-05  8540   0.486E-05 0.325E-05
CGA:  15    -0.128584979596E+04   -0.11105E-04    0.58639E-06  8540   0.237E-05 0.223E-05
CGA:  16    -0.128584980441E+04   -0.84519E-05    0.19534E-06  8540   0.119E-05 0.115E-05
  24 F= -.12858498E+04 E0= -.12858498E+04  d E =-.162941E+00  mag=   126.0000
       N       E                     dE             d eps       ncg     rms          ort
SDA:   1    -0.128563230729E+04    0.21749E+00    0.00000E+00  8540   0.701E+00 0.000E+00
CGA:   2    -0.128578179984E+04   -0.14949E+00   -0.14966E+00  8540   0.299E+00 0.113E-02
CGA:   3    -0.128585274141E+04   -0.70942E-01   -0.70911E-01  8540   0.684E-01-0.586E-03
CGA:   4    -0.128586699857E+04   -0.14257E-01   -0.14199E-01  8540   0.130E-01-0.575E-03
CGA:   5    -0.128586971781E+04   -0.27192E-02   -0.27210E-02  8540   0.305E-02 0.152E-04
CGA:   6    -0.128587040293E+04   -0.68512E-03   -0.69376E-03  8540   0.775E-03 0.116E-03
CGA:   7    -0.128587060762E+04   -0.20469E-03   -0.20599E-03  8540   0.230E-03 0.316E-04
CGA:   8    -0.128587068888E+04   -0.81262E-04   -0.83587E-04  8540   0.112E-03-0.436E-04
CGA:   9    -0.128587072214E+04   -0.33260E-04   -0.39509E-04  8540   0.764E-04-0.461E-04
CGA:  10    -0.128587073393E+04   -0.11788E-04   -0.11676E-04  8540   0.275E-04-0.249E-05
CGA:  11    -0.128587073993E+04   -0.59966E-05   -0.62331E-05  8540   0.114E-04 0.345E-05
  25 F= -.12858707E+04 E0= -.12858707E+04  d E =-.209355E-01  mag=   126.0000
       N       E                     dE             d eps       ncg     rms          ort
SDA:   1    -0.128530609643E+04    0.56464E+00    0.00000E+00  8540   0.167E+01 0.000E+00
CGA:   2    -0.128568880405E+04   -0.38271E+00   -0.38295E+00  8540   0.759E+00 0.207E-02
CGA:   3    -0.128585821980E+04   -0.16942E+00   -0.16935E+00  8540   0.161E+00-0.104E-02
CGA:   4    -0.128589150185E+04   -0.33282E-01   -0.33198E-01  8540   0.295E-01-0.894E-03
CGA:   5    -0.128589775021E+04   -0.62484E-02   -0.62475E-02  8540   0.705E-02-0.197E-04
CGA:   6    -0.128589937722E+04   -0.16270E-02   -0.16346E-02  8540   0.188E-02 0.123E-03
CGA:   7    -0.128589985900E+04   -0.48178E-03   -0.48375E-03  8540   0.556E-03 0.527E-04
CGA:   8    -0.128590003833E+04   -0.17933E-03   -0.18031E-03  8540   0.214E-03-0.353E-04
CGA:   9    -0.128590011324E+04   -0.74906E-04   -0.81539E-04  8540   0.116E-03-0.567E-04
CGA:  10    -0.128590013739E+04   -0.24152E-04   -0.24169E-04  8540   0.369E-04 0.152E-05
CGA:  11    -0.128590014732E+04   -0.99302E-05   -0.10057E-04  8540   0.132E-04 0.501E-05
CGA:  12    -0.128590014920E+04   -0.18794E-05   -0.12181E-04  8540   0.484E-04-0.199E-04
CGA:  13    -0.128590015944E+04   -0.10242E-04   -0.10788E-04  8540   0.583E-05 0.568E-05
CGA:  14    -0.128590012111E+04    0.38330E-04   -0.20649E-04  8540   0.149E-03-0.299E-04
CGA:  15    -0.128590015843E+04   -0.37314E-04   -0.41265E-04  8540   0.185E-04 0.133E-04
CGA:  16    -0.128590016738E+04   -0.89521E-05   -0.78804E-05  8540   0.565E-05-0.640E-05
  26 F= -.12859002E+04 E0= -.12859002E+04  d E =-.294275E-01  mag=   126.0000
       N       E                     dE             d eps       ncg     rms          ort
SDA:   1    -0.128529101634E+04    0.60914E+00    0.00000E+00  8540   0.170E+01 0.000E+00
CGA:   2    -0.128571721456E+04   -0.42620E+00   -0.42655E+00  8540   0.793E+00 0.606E-03
CGA:   3    -0.128588394039E+04   -0.16673E+00   -0.16659E+00  8540   0.158E+00-0.431E-03
CGA:   4    -0.128591676001E+04   -0.32820E-01   -0.32737E-01  8540   0.280E-01-0.271E-03
CGA:   5    -0.128592272052E+04   -0.59605E-02   -0.59461E-02  8540   0.674E-02-0.628E-04
CGA:   6    -0.128592432899E+04   -0.16085E-02   -0.16063E-02  8540   0.186E-02-0.112E-04
CGA:   7    -0.128592478952E+04   -0.46053E-03   -0.46696E-03  8540   0.549E-03 0.306E-04
CGA:   8    -0.128592495086E+04   -0.16134E-03   -0.16407E-03  8540   0.187E-03 0.175E-04
CGA:   9    -0.128592501811E+04   -0.67250E-04   -0.66709E-04  8540   0.741E-04-0.578E-05
CGA:  10    -0.128592504208E+04   -0.23979E-04   -0.24197E-04  8540   0.270E-04 0.213E-05
CGA:  11    -0.128592505125E+04   -0.91700E-05   -0.94487E-05  8540   0.108E-04 0.301E-05
  27 F= -.12859251E+04 E0= -.12859251E+04  d E =-.248839E-01  mag=   126.0000
       N       E                     dE             d eps       ncg     rms          ort
SDA:   1    -0.127447111064E+04    0.11454E+02    0.00000E+00  8540   0.335E+02 0.000E+00
CGA:   2    -0.128157210801E+04   -0.71010E+01   -0.71325E+01  8540   0.142E+02-0.699E-02
CGA:   3    -0.128493968208E+04   -0.33676E+01   -0.33704E+01  8540   0.321E+01 0.162E-01
CGA:   4    -0.128560236578E+04   -0.66268E+00   -0.66273E+00  8540   0.602E+00-0.466E-03
CGA:   5    -0.128573041150E+04   -0.12805E+00   -0.12796E+00  8540   0.146E+00-0.829E-03
CGA:   6    -0.128576496332E+04   -0.34552E-01   -0.34458E-01  8540   0.398E-01-0.664E-03
CGA:   7    -0.128577510389E+04   -0.10141E-01   -0.10162E-01  8540   0.120E-01 0.159E-03
CGA:   8    -0.128577836647E+04   -0.32626E-02   -0.33073E-02  8540   0.358E-02 0.441E-03
CGA:   9    -0.128577954108E+04   -0.11746E-02   -0.11847E-02  8540   0.121E-02 0.198E-03
CGA:  10    -0.128577994627E+04   -0.40519E-03   -0.41089E-03  8540   0.411E-03 0.123E-03
CGA:  11    -0.128578007106E+04   -0.12479E-03   -0.13186E-03  8540   0.127E-03 0.945E-04
CGA:  12    -0.128578010668E+04   -0.35628E-04   -0.41034E-04  8540   0.505E-04 0.544E-04
CGA:  13    -0.128578011278E+04   -0.60999E-05   -0.13574E-04  8540   0.293E-04 0.442E-04
  28 F= -.12857801E+04 E0= -.12857801E+04  d E =0.144938E+00  mag=   126.0000
       N       E                     dE             d eps       ncg     rms          ort
SDA:   1    -0.128218984968E+04    0.35903E+01    0.00000E+00  8540   0.112E+02 0.000E+00
CGA:   2    -0.128451167377E+04   -0.23218E+01   -0.23262E+01  8540   0.460E+01 0.814E-02
CGA:   3    -0.128562294279E+04   -0.11113E+01   -0.11117E+01  8540   0.110E+01 0.116E-02
CGA:   4    -0.128585061918E+04   -0.22768E+00   -0.22745E+00  8540   0.212E+00-0.191E-02
CGA:   5    -0.128589523932E+04   -0.44620E-01   -0.44628E-01  8540   0.503E-01-0.543E-06
CGA:   6    -0.128590686044E+04   -0.11621E-01   -0.11647E-01  8540   0.133E-01 0.282E-03
CGA:   7    -0.128591033140E+04   -0.34710E-02   -0.34784E-02  8540   0.402E-02 0.136E-03
CGA:   8    -0.128591151966E+04   -0.11883E-02   -0.11863E-02  8540   0.131E-02-0.106E-03
CGA:   9    -0.128591197309E+04   -0.45344E-03   -0.46147E-03  8540   0.551E-03-0.151E-03
CGA:  10    -0.128591211654E+04   -0.14344E-03   -0.14381E-03  8540   0.162E-03 0.218E-04
CGA:  11    -0.128591216668E+04   -0.50140E-04   -0.50303E-04  8540   0.447E-04 0.137E-04
CGA:  12    -0.128591218343E+04   -0.16749E-04   -0.32982E-04  8540   0.873E-04-0.441E-04
CGA:  13    -0.128591220273E+04   -0.19300E-04   -0.20018E-04  8540   0.967E-05 0.717E-05
CGA:  14    -0.128591221121E+04   -0.84896E-05    0.67446E-05  8540   0.266E-05 0.202E-05
  29 F= -.12859122E+04 E0= -.12859122E+04  d E =-.132098E+00  mag=   126.0000
       N       E                     dE             d eps       ncg     rms          ort
SDA:   1    -0.128539863543E+04    0.51357E+00    0.00000E+00  8540   0.152E+01 0.000E+00
CGA:   2    -0.128572840034E+04   -0.32976E+00   -0.33006E+00  8540   0.668E+00 0.175E-02
CGA:   3    -0.128588643122E+04   -0.15803E+00   -0.15799E+00  8540   0.149E+00-0.888E-03
CGA:   4    -0.128591700345E+04   -0.30572E-01   -0.30477E-01  8540   0.276E-01-0.881E-03
CGA:   5    -0.128592282724E+04   -0.58238E-02   -0.58351E-02  8540   0.663E-02 0.109E-03
CGA:   6    -0.128592431411E+04   -0.14869E-02   -0.15069E-02  8540   0.167E-02 0.256E-03
CGA:   7    -0.128592475201E+04   -0.43790E-03   -0.44100E-03  8540   0.498E-03 0.678E-04
CGA:   8    -0.128592492525E+04   -0.17324E-03   -0.17658E-03  8540   0.228E-03-0.788E-04
CGA:   9    -0.128592499570E+04   -0.70448E-04   -0.78583E-04  8540   0.133E-03-0.740E-04
CGA:  10    -0.128592501748E+04   -0.21787E-04   -0.22116E-04  8540   0.428E-04 0.559E-05
CGA:  11    -0.128592502583E+04   -0.83505E-05   -0.93397E-05  8540   0.162E-04 0.105E-04
  30 F= -.12859250E+04 E0= -.12859250E+04  d E =-.128146E-01  mag=   126.0000
       N       E                     dE             d eps       ncg     rms          ort
SDA:   1    -0.128535558783E+04    0.56943E+00    0.00000E+00  8540   0.154E+01 0.000E+00
CGA:   2    -0.128572731500E+04   -0.37173E+00   -0.37185E+00  8540   0.761E+00 0.130E-02
CGA:   3    -0.128589318621E+04   -0.16587E+00   -0.16581E+00  8540   0.144E+00-0.969E-03
CGA:   4    -0.128592201239E+04   -0.28826E-01   -0.28771E-01  8540   0.258E-01-0.603E-03
CGA:   5    -0.128592759115E+04   -0.55788E-02   -0.55874E-02  8540   0.637E-02 0.113E-03
CGA:   6    -0.128592903515E+04   -0.14440E-02   -0.14543E-02  8540   0.159E-02 0.177E-03
CGA:   7    -0.128592944671E+04   -0.41156E-03   -0.41323E-03  8540   0.478E-03 0.582E-04
CGA:   8    -0.128592961107E+04   -0.16436E-03   -0.16791E-03  8540   0.215E-03-0.614E-04
CGA:   9    -0.128592967960E+04   -0.68532E-04   -0.76258E-04  8540   0.119E-03-0.629E-04
CGA:  10    -0.128592969993E+04   -0.20326E-04   -0.20723E-04  8540   0.382E-04 0.888E-05
CGA:  11    -0.128592970872E+04   -0.87926E-05   -0.92958E-05  8540   0.148E-04 0.825E-05
  31 F= -.12859297E+04 E0= -.12859297E+04  d E =-.468289E-02  mag=   126.0000
       N       E                     dE             d eps       ncg     rms          ort
SDA:   1    -0.128450447790E+04    0.14252E+01    0.00000E+00  8540   0.361E+01 0.000E+00
CGA:   2    -0.128548093026E+04   -0.97645E+00   -0.97652E+00  8540   0.186E+01 0.102E-02
CGA:   3    -0.128585213900E+04   -0.37121E+00   -0.37113E+00  8540   0.302E+00-0.101E-02
CGA:   4    -0.128591335401E+04   -0.61215E-01   -0.61212E-01  8540   0.563E-01-0.220E-04
CGA:   5    -0.128592564576E+04   -0.12292E-01   -0.12305E-01  8540   0.139E-01 0.179E-03
CGA:   6    -0.128592882860E+04   -0.31828E-02   -0.31867E-02  8540   0.357E-02 0.716E-04
CGA:   7    -0.128592974831E+04   -0.91972E-03   -0.92167E-03  8540   0.111E-02 0.867E-04
CGA:   8    -0.128593009010E+04   -0.34179E-03   -0.34126E-03  8540   0.395E-03 0.241E-04
CGA:   9    -0.128593023153E+04   -0.14143E-03   -0.14204E-03  8540   0.154E-03-0.843E-05
CGA:  10    -0.128593027588E+04   -0.44344E-04   -0.44119E-04  8540   0.484E-04 0.207E-04
CGA:  11    -0.128593029418E+04   -0.18303E-04   -0.17936E-04  8540   0.207E-04 0.839E-05
CGA:  12    -0.128593030614E+04   -0.11956E-04   -0.11982E-04  8540   0.187E-04-0.222E-06
CGA:  13    -0.128593031425E+04   -0.81094E-05   -0.76014E-05  8540   0.132E-04 0.427E-05
  32 F= -.12859303E+04 E0= -.12859303E+04  d E =-.605524E-03  mag=   126.0000
       N       E                     dE             d eps       ncg     rms          ort
SDA:   1    -0.127049074402E+04    0.15440E+02    0.00000E+00  8540   0.401E+02 0.000E+00
CGA:   2    -0.128083451668E+04   -0.10344E+02   -0.10348E+02  8540   0.198E+02 0.196E-01
CGA:   3    -0.128492464922E+04   -0.40901E+01   -0.40915E+01  8540   0.334E+01 0.780E-02
CGA:   4    -0.128561460122E+04   -0.68995E+00   -0.69043E+00  8540   0.635E+00 0.357E-02
CGA:   5    -0.128575299813E+04   -0.13840E+00   -0.13837E+00  8540   0.156E+00-0.623E-03
CGA:   6    -0.128579023521E+04   -0.37237E-01   -0.37142E-01  8540   0.433E-01-0.164E-02
CGA:   7    -0.128580145531E+04   -0.11220E-01   -0.11224E-01  8540   0.138E-01 0.947E-04
CGA:   8    -0.128580533326E+04   -0.38779E-02   -0.38864E-02  8540   0.441E-02 0.744E-03
CGA:   9    -0.128580687174E+04   -0.15385E-02   -0.15309E-02  8540   0.149E-02 0.207E-03
CGA:  10    -0.128580741030E+04   -0.53857E-03   -0.53780E-03  8540   0.543E-03 0.145E-04
CGA:  11    -0.128580759913E+04   -0.18882E-03   -0.18734E-03  8540   0.202E-03 0.325E-04
CGA:  12    -0.128580767552E+04   -0.76397E-04   -0.74158E-04  8540   0.933E-04 0.476E-04
CGA:  13    -0.128580771382E+04   -0.38297E-04   -0.37235E-04  8540   0.540E-04 0.496E-04
CGA:  14    -0.128580774698E+04   -0.33161E-04   -0.32574E-04  8540   0.506E-04 0.174E-05
CGA:  15    -0.128580777538E+04   -0.28404E-04   -0.25058E-04  8540   0.268E-04 0.204E-04
CGA:  16    -0.128580779977E+04   -0.24383E-04   -0.22528E-04  8540   0.184E-04 0.648E-05
CGA:  17    -0.128580781405E+04   -0.14281E-04   -0.13703E-04  8540   0.128E-04 0.193E-05
CGA:  18    -0.128580775187E+04    0.62184E-04   -0.33860E-04  8540   0.248E-03-0.490E-04
CGA:  19    -0.128580779262E+04   -0.40759E-04   -0.54011E-04  8540   0.320E-04 0.312E-04
CGA:  20    -0.128580780333E+04   -0.10709E-04   -0.11605E-04  8540   0.815E-05 0.300E-05
CGA:  21    -0.128580768105E+04    0.12228E-03   -0.65858E-04  8540   0.551E-03-0.482E-04
CGA:  22    -0.128580777233E+04   -0.91273E-04   -0.12383E-03  8540   0.823E-04 0.374E-04
CGA:  23    -0.128580784150E+04   -0.69175E-04   -0.46072E-04  8540   0.553E-04-0.429E-04
CGA:  24    -0.128580783445E+04    0.70559E-05   -0.85319E-05  8540   0.964E-05 0.177E-04
  33 F= -.12858078E+04 E0= -.12858078E+04  d E =0.122480E+00  mag=   126.0000
       N       E                     dE             d eps       ncg     rms          ort
SDA:   1    -0.128243875282E+04    0.33691E+01    0.00000E+00  8540   0.105E+02 0.000E+00
CGA:   2    -0.128461452468E+04   -0.21758E+01   -0.21813E+01  8540   0.427E+01 0.427E-01
CGA:   3    -0.128566134319E+04   -0.10468E+01   -0.10479E+01  8540   0.102E+01 0.792E-02
CGA:   4    -0.128587106115E+04   -0.20972E+00   -0.20931E+00  8540   0.195E+00 0.154E-03
CGA:   5    -0.128591220425E+04   -0.41143E-01   -0.41224E-01  8540   0.470E-01 0.919E-04
CGA:   6    -0.128592303918E+04   -0.10835E-01   -0.10958E-01  8540   0.125E-01 0.202E-03
CGA:   7    -0.128592623301E+04   -0.31938E-02   -0.32347E-02  8540   0.376E-02 0.753E-04
CGA:   8    -0.128592735783E+04   -0.11248E-02   -0.10966E-02  8540   0.120E-02-0.617E-04
CGA:   9    -0.128592779542E+04   -0.43758E-03   -0.40908E-03  8540   0.459E-03-0.741E-04
CGA:  10    -0.128592792218E+04   -0.12676E-03   -0.13463E-03  8540   0.139E-03 0.193E-04
CGA:  11    -0.128592796069E+04   -0.38507E-04   -0.44148E-04  8540   0.372E-04 0.143E-04
CGA:  12    -0.128592798018E+04   -0.19496E-04   -0.17841E-04  8540   0.211E-04-0.696E-05
CGA:  13    -0.128592798848E+04   -0.82978E-05   -0.76676E-05  8540   0.113E-04-0.297E-05
CGA:  14    -0.128592800148E+04   -0.12997E-04    0.13281E-03  8540   0.120E-04-0.661E-05
CGA:  15    -0.128592800204E+04   -0.55705E-06   -0.24395E-05  8540   0.247E-05 0.418E-05
  34 F= -.12859280E+04 E0= -.12859280E+04  d E =-.120168E+00  mag=   126.0000
       N       E                     dE             d eps       ncg     rms          ort
SDA:   1    -0.128568029834E+04    0.24770E+00    0.00000E+00  8540   0.770E+00 0.000E+00
CGA:   2    -0.128584065602E+04   -0.16036E+00   -0.16078E+00  8540   0.322E+00 0.437E-03
CGA:   3    -0.128591855023E+04   -0.77894E-01   -0.77902E-01  8540   0.768E-01-0.184E-03
CGA:   4    -0.128593450161E+04   -0.15951E-01   -0.15819E-01  8540   0.145E-01-0.363E-03
CGA:   5    -0.128593751096E+04   -0.30093E-02   -0.30232E-02  8540   0.340E-02 0.357E-04
CGA:   6    -0.128593823916E+04   -0.72820E-03   -0.77271E-03  8540   0.861E-03 0.139E-03
CGA:   7    -0.128593845870E+04   -0.21954E-03   -0.22875E-03  8540   0.255E-03 0.335E-04
CGA:   8    -0.128593856478E+04   -0.10608E-03   -0.96651E-04  8540   0.139E-03-0.630E-04
CGA:   9    -0.128593861201E+04   -0.47226E-04   -0.42070E-04  8540   0.810E-04-0.495E-04
CGA:  10    -0.128593862414E+04   -0.12130E-04   -0.12858E-04  8540   0.282E-04 0.281E-05
CGA:  11    -0.128593862878E+04   -0.46476E-05   -0.63187E-05  8540   0.114E-04 0.610E-05
  35 F= -.12859386E+04 E0= -.12859386E+04  d E =-.106267E-01  mag=   126.0000
       N       E                     dE             d eps       ncg     rms          ort
SDA:   1    -0.128567536753E+04    0.26326E+00    0.00000E+00  8540   0.778E+00 0.000E+00
CGA:   2    -0.128584340744E+04   -0.16804E+00   -0.16832E+00  8540   0.344E+00 0.597E-03
CGA:   3    -0.128592508831E+04   -0.81681E-01   -0.81699E-01  8540   0.787E-01-0.863E-04
CGA:   4    -0.128594100925E+04   -0.15921E-01   -0.15843E-01  8540   0.143E-01-0.325E-03
CGA:   5    -0.128594399117E+04   -0.29819E-02   -0.29940E-02  8540   0.342E-02 0.495E-04
CGA:   6    -0.128594473152E+04   -0.74035E-03   -0.77128E-03  8540   0.860E-03 0.155E-03
CGA:   7    -0.128594495059E+04   -0.21906E-03   -0.22550E-03  8540   0.250E-03 0.394E-04
CGA:   8    -0.128594505080E+04   -0.10021E-03   -0.98414E-04  8540   0.145E-03-0.645E-04
CGA:   9    -0.128594509290E+04   -0.42101E-04   -0.41237E-04  8540   0.777E-04-0.418E-04
CGA:  10    -0.128594510659E+04   -0.13688E-04   -0.14443E-04  8540   0.285E-04 0.529E-05
CGA:  11    -0.128594511431E+04   -0.77260E-05   -0.82125E-05  8540   0.130E-04 0.383E-05
CGA:  12    -0.128594510889E+04    0.54192E-05   -0.16192E-04  8540   0.929E-04-0.305E-04
CGA:  13    -0.128594513762E+04   -0.28725E-04   -0.27126E-04  8540   0.213E-04-0.121E-04
CGA:  14    -0.128594514589E+04   -0.82776E-05   -0.95025E-05  8540   0.168E-04-0.131E-04
  36 F= -.12859451E+04 E0= -.12859451E+04  d E =-.651711E-02  mag=   126.0000
       N       E                     dE             d eps       ncg     rms          ort
SDA:   1    -0.128588088021E+04    0.64257E-01    0.00000E+00  8540   0.185E+00 0.000E+00
CGA:   2    -0.128592483228E+04   -0.43952E-01   -0.43951E-01  8540   0.894E-01-0.779E-04
CGA:   3    -0.128594459308E+04   -0.19761E-01   -0.19777E-01  8540   0.172E-01 0.682E-04
CGA:   4    -0.128594803993E+04   -0.34468E-02   -0.34622E-02  8540   0.306E-02 0.779E-04
CGA:   5    -0.128594870495E+04   -0.66503E-03   -0.66537E-03  8540   0.761E-03 0.103E-05
CGA:   6    -0.128594888987E+04   -0.18492E-03   -0.18274E-03  8540   0.207E-03-0.165E-04
CGA:   7    -0.128594894363E+04   -0.53757E-04   -0.52890E-04  8540   0.665E-04-0.826E-05
CGA:   8    -0.128594896144E+04   -0.17813E-04   -0.17942E-04  8540   0.207E-04 0.157E-05
CGA:   9    -0.128594896740E+04   -0.59580E-05   -0.61742E-05  8540   0.694E-05 0.321E-05
  37 F= -.12859490E+04 E0= -.12859490E+04  d E =-.382150E-02  mag=   126.0000
       N       E                     dE             d eps       ncg     rms          ort
SDA:   1    -0.128481480675E+04    0.11342E+01    0.00000E+00  8540   0.300E+01 0.000E+00
CGA:   2    -0.128557052279E+04   -0.75572E+00   -0.75572E+00  8540   0.150E+01-0.841E-03
CGA:   3    -0.128588873520E+04   -0.31821E+00   -0.31837E+00  8540   0.271E+00 0.955E-03
CGA:   4    -0.128594297865E+04   -0.54243E-01   -0.54385E-01  8540   0.481E-01 0.857E-03
CGA:   5    -0.128595343259E+04   -0.10454E-01   -0.10468E-01  8540   0.119E-01 0.952E-04
CGA:   6    -0.128595623439E+04   -0.28018E-02   -0.27939E-02  8540   0.308E-02-0.783E-04
CGA:   7    -0.128595700918E+04   -0.77479E-03   -0.77630E-03  8540   0.940E-03 0.183E-04
CGA:   8    -0.128595726569E+04   -0.25651E-03   -0.26076E-03  8540   0.291E-03 0.783E-04
CGA:   9    -0.128595735648E+04   -0.90797E-04   -0.92645E-04  8540   0.102E-03 0.545E-04
CGA:  10    -0.128595739634E+04   -0.39856E-04   -0.39822E-04  8540   0.457E-04 0.216E-04
CGA:  11    -0.128595741518E+04   -0.18844E-04   -0.18684E-04  8540   0.236E-04 0.131E-04
CGA:  12    -0.128595742582E+04   -0.10638E-04   -0.10449E-04  8540   0.146E-04 0.107E-04
CGA:  13    -0.128595743744E+04   -0.11620E-04   -0.10820E-04  8540   0.148E-04 0.424E-05
CGA:  14    -0.128595744986E+04   -0.12418E-04   -0.15022E-04  8540   0.204E-04-0.620E-05
CGA:  15    -0.128595745255E+04   -0.26910E-05   -0.26913E-05  8540   0.126E-04-0.205E-06
  38 F= -.12859575E+04 E0= -.12859575E+04  d E =-.848515E-02  mag=   126.0000
       N       E                     dE             d eps       ncg     rms          ort
SDA:   1    -0.128388403959E+04    0.20734E+01    0.00000E+00  8540   0.543E+01 0.000E+00
CGA:   2    -0.128526253152E+04   -0.13785E+01   -0.13788E+01  8540   0.270E+01 0.111E-03
CGA:   3    -0.128583060166E+04   -0.56807E+00   -0.56825E+00  8540   0.482E+00 0.924E-03
CGA:   4    -0.128592787559E+04   -0.97274E-01   -0.97420E-01  8540   0.878E-01 0.998E-03
CGA:   5    -0.128594679424E+04   -0.18919E-01   -0.18936E-01  8540   0.214E-01 0.128E-03
CGA:   6    -0.128595181951E+04   -0.50253E-02   -0.50178E-02  8540   0.561E-02-0.876E-04
CGA:   7    -0.128595324204E+04   -0.14225E-02   -0.14237E-02  8540   0.171E-02 0.168E-04
CGA:   8    -0.128595372371E+04   -0.48167E-03   -0.48494E-03  8540   0.537E-03 0.972E-04
CGA:   9    -0.128595389495E+04   -0.17124E-03   -0.17203E-03  8540   0.180E-03 0.707E-04
CGA:  10    -0.128595395997E+04   -0.65013E-04   -0.64891E-04  8540   0.682E-04 0.301E-04
CGA:  11    -0.128595398433E+04   -0.24367E-04   -0.24494E-04  8540   0.288E-04 0.199E-04
CGA:  12    -0.128595399472E+04   -0.10382E-04   -0.10763E-04  8540   0.156E-04 0.152E-04
CGA:  13    -0.128595400378E+04   -0.90613E-05   -0.85997E-05  8540   0.143E-04 0.188E-05
  39 F= -.12859540E+04 E0= -.12859540E+04  d E =0.344877E-02  mag=   126.0000
       N       E                     dE             d eps       ncg     rms          ort
SDA:   1    -0.128510156726E+04    0.85243E+00    0.00000E+00  8540   0.242E+01 0.000E+00
CGA:   2    -0.128564476598E+04   -0.54320E+00   -0.54342E+00  8540   0.111E+01 0.472E-03
CGA:   3    -0.128589845219E+04   -0.25369E+00   -0.25372E+00  8540   0.233E+00-0.802E-04
CGA:   4    -0.128594541528E+04   -0.46963E-01   -0.46966E-01  8540   0.428E-01-0.162E-04
CGA:   5    -0.128595456313E+04   -0.91479E-02   -0.91569E-02  8540   0.103E-01 0.784E-04
CGA:   6    -0.128595695870E+04   -0.23956E-02   -0.24003E-02  8540   0.270E-02 0.611E-04
CGA:   7    -0.128595765658E+04   -0.69788E-03   -0.69848E-03  8540   0.807E-03 0.125E-04
CGA:   8    -0.128595788369E+04   -0.22712E-03   -0.22766E-03  8540   0.255E-03 0.268E-04
CGA:   9    -0.128595796706E+04   -0.83370E-04   -0.83079E-04  8540   0.874E-04 0.181E-04
CGA:  10    -0.128595799614E+04   -0.29072E-04   -0.28955E-04  8540   0.308E-04 0.134E-04
CGA:  11    -0.128595800487E+04   -0.87322E-05   -0.92366E-05  8540   0.116E-04 0.123E-04
  40 F= -.12859580E+04 E0= -.12859580E+04  d E =-.400109E-02  mag=   126.0000
       N       E                     dE             d eps       ncg     rms          ort
SDA:   1    -0.128568806905E+04    0.26993E+00    0.00000E+00  8540   0.804E+00 0.000E+00
CGA:   2    -0.128586320538E+04   -0.17514E+00   -0.17522E+00  8540   0.353E+00 0.726E-03
CGA:   3    -0.128594430194E+04   -0.81097E-01   -0.81071E-01  8540   0.787E-01-0.466E-03
CGA:   4    -0.128596069803E+04   -0.16396E-01   -0.16370E-01  8540   0.147E-01-0.329E-03
CGA:   5    -0.128596379154E+04   -0.30935E-02   -0.31034E-02  8540   0.341E-02 0.130E-03
CGA:   6    -0.128596455531E+04   -0.76377E-03   -0.77237E-03  8540   0.866E-03 0.149E-03
CGA:   7    -0.128596478302E+04   -0.22771E-03   -0.22897E-03  8540   0.258E-03 0.493E-04
CGA:   8    -0.128596486634E+04   -0.83310E-04   -0.83586E-04  8540   0.948E-04-0.954E-05
CGA:   9    -0.128596489942E+04   -0.33085E-04   -0.34546E-04  8540   0.429E-04-0.148E-04
CGA:  10    -0.128596490418E+04   -0.47598E-05   -0.64398E-05  8540   0.163E-04 0.158E-04
  41 F= -.12859649E+04 E0= -.12859649E+04  d E =-.689931E-02  mag=   126.0000
       N       E                     dE             d eps       ncg     rms          ort
SDA:   1    -0.128590079708E+04    0.64102E-01    0.00000E+00  8540   0.188E+00 0.000E+00
CGA:   2    -0.128594282636E+04   -0.42029E-01   -0.42044E-01  8540   0.850E-01 0.228E-03
CGA:   3    -0.128596229298E+04   -0.19467E-01   -0.19455E-01  8540   0.188E-01-0.305E-03
CGA:   4    -0.128596610913E+04   -0.38162E-02   -0.38076E-02  8540   0.340E-02-0.137E-03
CGA:   5    -0.128596680165E+04   -0.69252E-03   -0.69639E-03  8540   0.801E-03 0.667E-04
CGA:   6    -0.128596698111E+04   -0.17946E-03   -0.18138E-03  8540   0.203E-03 0.500E-04
CGA:   7    -0.128596703844E+04   -0.57329E-04   -0.57317E-04  8540   0.670E-04 0.152E-05
CGA:   8    -0.128596706081E+04   -0.22372E-04   -0.22972E-04  8540   0.305E-04-0.737E-05
CGA:   9    -0.128596707034E+04   -0.95288E-05   -0.98397E-05  8540   0.144E-04-0.315E-05
  42 F= -.12859671E+04 E0= -.12859671E+04  d E =-.216616E-02  mag=   126.0000
       N       E                     dE             d eps       ncg     rms          ort
SDA:   1    -0.128547846277E+04    0.48860E+00    0.00000E+00  8540   0.139E+01 0.000E+00
CGA:   2    -0.128578936565E+04   -0.31090E+00   -0.31099E+00  8540   0.632E+00 0.147E-02
CGA:   3    -0.128593370382E+04   -0.14434E+00   -0.14434E+00  8540   0.139E+00 0.700E-04
CGA:   4    -0.128596164705E+04   -0.27943E-01   -0.27938E-01  8540   0.248E-01-0.101E-03
CGA:   5    -0.128596685215E+04   -0.52051E-02   -0.52118E-02  8540   0.608E-02 0.132E-03
CGA:   6    -0.128596825243E+04   -0.14003E-02   -0.14024E-02  8540   0.160E-02 0.798E-04
CGA:   7    -0.128596867007E+04   -0.41764E-03   -0.41768E-03  8540   0.492E-03-0.969E-05
CGA:   8    -0.128596881771E+04   -0.14764E-03   -0.14794E-03  8540   0.175E-03-0.627E-05
CGA:   9    -0.128596887588E+04   -0.58168E-04   -0.58019E-04  8540   0.704E-04 0.171E-05
CGA:  10    -0.128596889740E+04   -0.21527E-04   -0.20941E-04  8540   0.280E-04 0.171E-04
CGA:  11    -0.128596890618E+04   -0.87751E-05   -0.88780E-05  8540   0.137E-04 0.147E-04
CGA:  12    -0.128596891048E+04   -0.43030E-05   -0.15748E-04  8540   0.710E-04-0.130E-04
CGA:  13    -0.128596892173E+04   -0.11249E-04   -0.13042E-04  8540   0.770E-05 0.147E-04
CGA:  14    -0.128596892357E+04   -0.18402E-05   -0.21006E-05  8540   0.381E-05 0.352E-05
  43 F= -.12859689E+04 E0= -.12859689E+04  d E =-.185323E-02  mag=   126.0000
       N       E                     dE             d eps       ncg     rms          ort
SDA:   1    -0.128469724309E+04    0.12717E+01    0.00000E+00  8540   0.332E+01 0.000E+00
CGA:   2    -0.128555342663E+04   -0.85618E+00   -0.85629E+00  8540   0.164E+01 0.900E-03
CGA:   3    -0.128588762189E+04   -0.33420E+00   -0.33428E+00  8540   0.298E+00 0.727E-03
CGA:   4    -0.128594812821E+04   -0.60506E-01   -0.60543E-01  8540   0.552E-01 0.420E-03
CGA:   5    -0.128595982215E+04   -0.11694E-01   -0.11710E-01  8540   0.134E-01 0.186E-03
CGA:   6    -0.128596295613E+04   -0.31340E-02   -0.31357E-02  8540   0.363E-02 0.299E-04
CGA:   7    -0.128596390165E+04   -0.94551E-03   -0.94618E-03  8540   0.117E-02 0.272E-04
CGA:   8    -0.128596426008E+04   -0.35843E-03   -0.35779E-03  8540   0.434E-03 0.303E-04
CGA:   9    -0.128596441916E+04   -0.15908E-03   -0.15878E-03  8540   0.190E-03 0.377E-05
CGA:  10    -0.128596448552E+04   -0.66365E-04   -0.65073E-04  8540   0.829E-04 0.246E-04
CGA:  11    -0.128596452049E+04   -0.34965E-04   -0.33452E-04  8540   0.459E-04 0.221E-04
CGA:  12    -0.128596455352E+04   -0.33036E-04   -0.31758E-04  8540   0.471E-04 0.460E-05
CGA:  13    -0.128596457470E+04   -0.21172E-04   -0.19910E-04  8540   0.279E-04 0.156E-04
CGA:  14    -0.128596458760E+04   -0.12907E-04   -0.12613E-04  8540   0.120E-04 0.967E-05
CGA:  15    -0.128596459553E+04   -0.79264E-05   -0.11252E-04  8540   0.173E-04-0.889E-05
  44 F= -.12859646E+04 E0= -.12859646E+04  d E =0.432804E-02  mag=   126.0000
       N       E                     dE             d eps       ncg     rms          ort
SDA:   1    -0.128558175670E+04    0.38283E+00    0.00000E+00  8540   0.112E+01 0.000E+00
CGA:   2    -0.128582421984E+04   -0.24246E+00   -0.24261E+00  8540   0.498E+00 0.766E-03
CGA:   3    -0.128594211866E+04   -0.11790E+00   -0.11788E+00  8540   0.108E+00-0.436E-03
CGA:   4    -0.128596407495E+04   -0.21956E-01   -0.21924E-01  8540   0.197E-01-0.307E-03
CGA:   5    -0.128596832054E+04   -0.42456E-02   -0.42398E-02  8540   0.489E-02-0.712E-04
CGA:   6    -0.128596945936E+04   -0.11388E-02   -0.11356E-02  8540   0.128E-02-0.479E-04
CGA:   7    -0.128596977924E+04   -0.31988E-03   -0.31972E-03  8540   0.382E-03-0.364E-05
CGA:   8    -0.128596988707E+04   -0.10783E-03   -0.10782E-03  8540   0.119E-03-0.445E-06
CGA:   9    -0.128596992990E+04   -0.42824E-04   -0.43856E-04  8540   0.522E-04-0.143E-04
CGA:  10    -0.128596994725E+04   -0.17353E-04   -0.18553E-04  8540   0.259E-04-0.116E-04
CGA:  11    -0.128596995498E+04   -0.77269E-05   -0.86683E-05  8540   0.133E-04-0.755E-05
  45 F= -.12859700E+04 E0= -.12859700E+04  d E =-.535945E-02  mag=   126.0000
       N       E                     dE             d eps       ncg     rms          ort
SDA:   1    -0.128574120329E+04    0.22874E+00    0.00000E+00  8540   0.675E+00 0.000E+00
CGA:   2    -0.128588674846E+04   -0.14555E+00   -0.14559E+00  8540   0.293E+00 0.202E-03
CGA:   3    -0.128595485744E+04   -0.68109E-01   -0.68093E-01  8540   0.697E-01-0.261E-03
CGA:   4    -0.128596905523E+04   -0.14198E-01   -0.14196E-01  8540   0.127E-01-0.269E-04
CGA:   5    -0.128597172110E+04   -0.26659E-02   -0.26625E-02  8540   0.306E-02-0.425E-04
CGA:   6    -0.128597243023E+04   -0.70913E-03   -0.70778E-03  8540   0.837E-03-0.220E-04
CGA:   7    -0.128597263408E+04   -0.20385E-03   -0.20474E-03  8540   0.232E-03 0.189E-04
CGA:   8    -0.128597269556E+04   -0.61481E-04   -0.62172E-04  8540   0.658E-04 0.243E-04
CGA:   9    -0.128597271698E+04   -0.21423E-04   -0.21373E-04  8540   0.230E-04 0.113E-04
CGA:  10    -0.128597272582E+04   -0.88428E-05   -0.87005E-05  8540   0.102E-04 0.426E-05
  46 F= -.12859727E+04 E0= -.12859727E+04  d E =-.277085E-02  mag=   126.0000
       N       E                     dE             d eps       ncg     rms          ort
SDA:   1    -0.128590264234E+04    0.70075E-01    0.00000E+00  8540   0.182E+00 0.000E+00
CGA:   2    -0.128595000438E+04   -0.47362E-01   -0.47367E-01  8540   0.929E-01 0.750E-04
CGA:   3    -0.128596916013E+04   -0.19156E-01   -0.19135E-01  8540   0.158E-01-0.257E-03
CGA:   4    -0.128597234546E+04   -0.31853E-02   -0.31795E-02  8540   0.297E-02-0.687E-04
CGA:   5    -0.128597298329E+04   -0.63783E-03   -0.63850E-03  8540   0.719E-03 0.919E-05
CGA:   6    -0.128597315101E+04   -0.16772E-03   -0.16738E-03  8540   0.190E-03-0.713E-05
CGA:   7    -0.128597320186E+04   -0.50854E-04   -0.50786E-04  8540   0.632E-04-0.980E-05
CGA:   8    -0.128597321876E+04   -0.16901E-04   -0.16898E-04  8540   0.198E-04 0.720E-06
CGA:   9    -0.128597322656E+04   -0.78010E-05   -0.98432E-05  8540   0.168E-04-0.958E-05
  47 F= -.12859732E+04 E0= -.12859732E+04  d E =-.500740E-03  mag=   126.0000
       N       E                     dE             d eps       ncg     rms          ort
SDA:   1    -0.128582742167E+04    0.14580E+00    0.00000E+00  8540   0.376E+00 0.000E+00
CGA:   2    -0.128592586498E+04   -0.98443E-01   -0.98450E-01  8540   0.193E+00 0.951E-04
CGA:   3    -0.128596534463E+04   -0.39480E-01   -0.39462E-01  8540   0.326E-01-0.230E-03
CGA:   4    -0.128597190236E+04   -0.65577E-02   -0.65578E-02  8540   0.609E-02-0.132E-05
CGA:   5    -0.128597320305E+04   -0.13007E-02   -0.13031E-02  8540   0.149E-02 0.340E-04
CGA:   6    -0.128597354753E+04   -0.34447E-03   -0.34408E-03  8540   0.390E-03-0.850E-05
CGA:   7    -0.128597365129E+04   -0.10376E-03   -0.10365E-03  8540   0.126E-03-0.139E-04
CGA:   8    -0.128597368365E+04   -0.32361E-04   -0.32427E-04  8540   0.369E-04 0.971E-05
CGA:   9    -0.128597369621E+04   -0.12559E-04   -0.12417E-04  8540   0.122E-04 0.373E-05
CGA:  10    -0.128597370141E+04   -0.52032E-05   -0.55222E-05  8540   0.688E-05-0.235E-05
  48 F= -.12859737E+04 E0= -.12859737E+04  d E =-.474848E-03  mag=   126.0000
       N       E                     dE             d eps       ncg     rms          ort
SDA:   1    -0.128570525337E+04    0.26844E+00    0.00000E+00  8540   0.672E+00 0.000E+00
CGA:   2    -0.128589443730E+04   -0.18918E+00   -0.18918E+00  8540   0.333E+00-0.359E-04
CGA:   3    -0.128595910128E+04   -0.64664E-01   -0.64632E-01  8540   0.547E-01-0.412E-03
CGA:   4    -0.128597035976E+04   -0.11258E-01   -0.11261E-01  8540   0.104E-01 0.385E-04
CGA:   5    -0.128597254809E+04   -0.21883E-02   -0.21937E-02  8540   0.244E-02 0.868E-04
CGA:   6    -0.128597311964E+04   -0.57155E-03   -0.57131E-03  8540   0.663E-03-0.697E-05
CGA:   7    -0.128597330100E+04   -0.18136E-03   -0.18166E-03  8540   0.231E-03-0.401E-04
CGA:   8    -0.128597336268E+04   -0.61683E-04   -0.61578E-04  8540   0.728E-04 0.622E-05
CGA:   9    -0.128597338629E+04   -0.23609E-04   -0.23394E-04  8540   0.227E-04 0.482E-05
CGA:  10    -0.128597339550E+04   -0.92101E-05   -0.13175E-04  8540   0.254E-04-0.145E-04
  49 F= -.12859734E+04 E0= -.12859734E+04  d E =0.305914E-03  mag=   126.0000
       N       E                     dE             d eps       ncg     rms          ort
SDA:   1    -0.128589555167E+04    0.77835E-01    0.00000E+00  8540   0.213E+00 0.000E+00
CGA:   2    -0.128594652035E+04   -0.50969E-01   -0.50983E-01  8540   0.104E+00 0.257E-03
CGA:   3    -0.128596925379E+04   -0.22733E-01   -0.22735E-01  8540   0.194E-01-0.344E-05
CGA:   4    -0.128597320304E+04   -0.39493E-02   -0.39442E-02  8540   0.359E-02-0.712E-04
CGA:   5    -0.128597397579E+04   -0.77275E-03   -0.77321E-03  8540   0.881E-03 0.699E-05
CGA:   6    -0.128597417246E+04   -0.19667E-03   -0.19778E-03  8540   0.220E-03 0.244E-04
CGA:   7    -0.128597423230E+04   -0.59838E-04   -0.59837E-04  8540   0.712E-04-0.778E-06
CGA:   8    -0.128597425635E+04   -0.24052E-04   -0.25496E-04  8540   0.375E-04-0.156E-04
CGA:   9    -0.128597426567E+04   -0.93176E-05   -0.94612E-05  8540   0.140E-04-0.280E-05
  50 F= -.12859743E+04 E0= -.12859743E+04  d E =-.870173E-03  mag=   126.0000
       N       E                     dE             d eps       ncg     rms          ort
SDA:   1    -0.128593152925E+04    0.42727E-01    0.00000E+00  8540   0.111E+00 0.000E+00
CGA:   2    -0.128596141234E+04   -0.29883E-01   -0.29883E-01  8540   0.553E-01-0.714E-04
CGA:   3    -0.128597239877E+04   -0.10986E-01   -0.11007E-01  8540   0.921E-02 0.256E-03
CGA:   4    -0.128597427363E+04   -0.18749E-02   -0.18799E-02  8540   0.174E-02 0.730E-04
CGA:   5    -0.128597465581E+04   -0.38218E-03   -0.38145E-03  8540   0.429E-03-0.148E-04
CGA:   6    -0.128597474929E+04   -0.93480E-04   -0.94206E-04  8540   0.108E-03 0.164E-04
CGA:   7    -0.128597477319E+04   -0.23904E-04   -0.24684E-04  8540   0.287E-04 0.185E-04
CGA:   8    -0.128597478239E+04   -0.92015E-05   -0.91428E-05  8540   0.107E-04 0.531E-05
  51 F= -.12859748E+04 E0= -.12859748E+04  d E =-.516722E-03  mag=   126.0000
       N       E                     dE             d eps       ncg     rms          ort
SDA:   1    -0.128595292623E+04    0.21847E-01    0.00000E+00  8540   0.611E-01 0.000E+00
CGA:   2    -0.128596710294E+04   -0.14177E-01   -0.14177E-01  8540   0.288E-01-0.244E-04
CGA:   3    -0.128597347851E+04   -0.63756E-02   -0.63816E-02  8540   0.570E-02 0.157E-03
CGA:   4    -0.128597462723E+04   -0.11487E-02   -0.11514E-02  8540   0.101E-02 0.463E-04
CGA:   5    -0.128597484979E+04   -0.22255E-03   -0.22279E-03  8540   0.250E-03 0.613E-05
CGA:   6    -0.128597490421E+04   -0.54424E-04   -0.54994E-04  8540   0.603E-04 0.167E-04
CGA:   7    -0.128597491796E+04   -0.13751E-04   -0.14109E-04  8540   0.164E-04 0.113E-04
CGA:   8    -0.128597492246E+04   -0.44964E-05   -0.45742E-05  8540   0.570E-05 0.529E-05
  52 F= -.12859749E+04 E0= -.12859749E+04  d E =-.140066E-03  mag=   126.0000
       N       E                     dE             d eps       ncg     rms          ort
SDA:   1    -0.128592939213E+04    0.45526E-01    0.00000E+00  8540   0.122E+00 0.000E+00
CGA:   2    -0.128595935063E+04   -0.29958E-01   -0.29958E-01  8540   0.599E-01-0.129E-04
CGA:   3    -0.128597209207E+04   -0.12741E-01   -0.12750E-01  8540   0.109E-01 0.277E-03
CGA:   4    -0.128597430058E+04   -0.22085E-02   -0.22122E-02  8540   0.193E-02 0.855E-04
CGA:   5    -0.128597472872E+04   -0.42814E-03   -0.42829E-03  8540   0.473E-03 0.645E-05
CGA:   6    -0.128597483771E+04   -0.10899E-03   -0.10913E-03  8540   0.118E-03 0.134E-04
CGA:   7    -0.128597486813E+04   -0.30418E-04   -0.30361E-04  8540   0.359E-04 0.585E-05
CGA:   8    -0.128597487873E+04   -0.10605E-04   -0.10447E-04  8540   0.122E-04 0.430E-05
CGA:   9    -0.128597488168E+04   -0.29463E-05   -0.30462E-05  8540   0.446E-05 0.534E-05
  53 F= -.12859749E+04 E0= -.12859749E+04  d E =0.407805E-04  mag=   126.0000
       N       E                     dE             d eps       ncg     rms          ort
SDA:   1    -0.128582959667E+04    0.14528E+00    0.00000E+00  8540   0.385E+00 0.000E+00
CGA:   2    -0.128592470459E+04   -0.95108E-01   -0.95103E-01  8540   0.191E+00 0.371E-03
CGA:   3    -0.128596571368E+04   -0.41009E-01   -0.41010E-01  8540   0.347E-01 0.461E-04
CGA:   4    -0.128597268732E+04   -0.69736E-02   -0.69722E-02  8540   0.621E-02-0.419E-04
CGA:   5    -0.128597404215E+04   -0.13548E-02   -0.13549E-02  8540   0.155E-02 0.754E-06
CGA:   6    -0.128597439683E+04   -0.35468E-03   -0.35478E-03  8540   0.391E-03 0.209E-04
CGA:   7    -0.128597449597E+04   -0.99136E-04   -0.98988E-04  8540   0.119E-03 0.912E-05
CGA:   8    -0.128597453310E+04   -0.37138E-04   -0.37082E-04  8540   0.441E-04 0.761E-06
CGA:   9    -0.128597454816E+04   -0.15059E-04   -0.14985E-04  8540   0.181E-04 0.713E-06
CGA:  10    -0.128597455256E+04   -0.43959E-05   -0.44113E-05  8540   0.672E-05 0.648E-05
  54 F= -.12859746E+04 E0= -.12859746E+04  d E =0.329119E-03  mag=   126.0000
       N       E                     dE             d eps       ncg     rms          ort
SDA:   1    -0.128589306718E+04    0.81481E-01    0.00000E+00  8540   0.217E+00 0.000E+00
CGA:   2    -0.128594634712E+04   -0.53280E-01   -0.53277E-01  8540   0.107E+00 0.410E-03
CGA:   3    -0.128596912133E+04   -0.22774E-01   -0.22770E-01  8540   0.198E-01-0.165E-03
CGA:   4    -0.128597318289E+04   -0.40616E-02   -0.40569E-02  8540   0.366E-02-0.139E-03
CGA:   5    -0.128597396217E+04   -0.77928E-03   -0.77987E-03  8540   0.880E-03 0.255E-04
CGA:   6    -0.128597416365E+04   -0.20148E-03   -0.20171E-03  8540   0.226E-03 0.277E-04
CGA:   7    -0.128597422774E+04   -0.64099E-04   -0.64388E-04  8540   0.799E-04-0.721E-05
CGA:   8    -0.128597425396E+04   -0.26218E-04   -0.28998E-04  8540   0.473E-04-0.203E-04
CGA:   9    -0.128597426574E+04   -0.11773E-04   -0.16102E-04  8540   0.358E-04-0.205E-04
CGA:  10    -0.128597427191E+04   -0.61763E-05   -0.64129E-05  8540   0.159E-04-0.392E-05
  55 F= -.12859743E+04 E0= -.12859743E+04  d E =0.280648E-03  mag=   126.0000
       N       E                     dE             d eps       ncg     rms          ort
SDA:   1    -0.128587944675E+04    0.94819E-01    0.00000E+00  8540   0.264E+00 0.000E+00
CGA:   2    -0.128594083082E+04   -0.61384E-01   -0.61388E-01  8540   0.125E+00 0.285E-04
CGA:   3    -0.128596877030E+04   -0.27939E-01   -0.27943E-01  8540   0.247E-01 0.922E-04
CGA:   4    -0.128597374523E+04   -0.49749E-02   -0.49825E-02  8540   0.428E-02 0.131E-03
CGA:   5    -0.128597468621E+04   -0.94098E-03   -0.94141E-03  8540   0.107E-02 0.987E-05
CGA:   6    -0.128597494287E+04   -0.25666E-03   -0.25629E-03  8540   0.288E-03-0.263E-04
CGA:   7    -0.128597501140E+04   -0.68528E-04   -0.68547E-04  8540   0.824E-04 0.203E-05
CGA:   8    -0.128597503156E+04   -0.20167E-04   -0.20274E-04  8540   0.224E-04 0.131E-04
CGA:   9    -0.128597503857E+04   -0.70062E-05   -0.69226E-05  8540   0.778E-05 0.579E-05
  56 F= -.12859750E+04 E0= -.12859750E+04  d E =-.766657E-03  mag=   126.0000
       N       E                     dE             d eps       ncg     rms          ort
SDA:   1    -0.128595932287E+04    0.15709E-01    0.00000E+00  8540   0.461E-01 0.000E+00
CGA:   2    -0.128596915195E+04   -0.98291E-02   -0.98302E-02  8540   0.206E-01 0.152E-05
CGA:   3    -0.128597406067E+04   -0.49087E-02   -0.49089E-02  8540   0.469E-02 0.106E-05
CGA:   4    -0.128597498969E+04   -0.92902E-03   -0.92971E-03  8540   0.822E-03 0.107E-04
CGA:   5    -0.128597516697E+04   -0.17728E-03   -0.17744E-03  8540   0.206E-03 0.328E-05
CGA:   6    -0.128597521468E+04   -0.47706E-04   -0.47716E-04  8540   0.529E-04 0.357E-06
CGA:   7    -0.128597522881E+04   -0.14127E-04   -0.14154E-04  8540   0.174E-04-0.208E-05
CGA:   8    -0.128597523314E+04   -0.43323E-05   -0.43270E-05  8540   0.508E-05 0.148E-05
  57 F= -.12859752E+04 E0= -.12859752E+04  d E =-.194571E-03  mag=   126.0000
       N       E                     dE             d eps       ncg     rms          ort
SDA:   1    -0.128596758210E+04    0.76467E-02    0.00000E+00  8540   0.211E-01 0.000E+00
CGA:   2    -0.128597257934E+04   -0.49972E-02   -0.49990E-02  8540   0.104E-01 0.899E-04
CGA:   3    -0.128597488560E+04   -0.23063E-02   -0.23020E-02  8540   0.203E-02-0.125E-03
CGA:   4    -0.128597529574E+04   -0.41014E-03   -0.40668E-03  8540   0.389E-03-0.697E-04
CGA:   5    -0.128597537463E+04   -0.78888E-04   -0.78887E-04  8540   0.954E-04-0.132E-06
CGA:   6    -0.128597539507E+04   -0.20445E-04   -0.20608E-04  8540   0.230E-04 0.505E-05
CGA:   7    -0.128597540262E+04   -0.75490E-05   -0.79700E-05  8540   0.124E-04-0.514E-05
  58 F= -.12859754E+04 E0= -.12859754E+04  d E =-.169482E-03  mag=   126.0000
       N       E                     dE             d eps       ncg     rms          ort
SDA:   1    -0.128569674267E+04    0.27865E+00    0.00000E+00  8540   0.865E+00 0.000E+00
CGA:   2    -0.128586117184E+04   -0.16443E+00   -0.16461E+00  8540   0.339E+00 0.151E-02
CGA:   3    -0.128594882169E+04   -0.87650E-01   -0.87647E-01  8540   0.983E-01-0.531E-03
CGA:   4    -0.128596830786E+04   -0.19486E-01   -0.19445E-01  8540   0.167E-01-0.623E-03
CGA:   5    -0.128597176421E+04   -0.34564E-02   -0.34517E-02  8540   0.413E-02-0.965E-04
CGA:   6    -0.128597269986E+04   -0.93565E-03   -0.93590E-03  8540   0.101E-02 0.606E-05
CGA:   7    -0.128597295371E+04   -0.25385E-03   -0.25382E-03  8540   0.288E-03-0.506E-05
CGA:   8    -0.128597303233E+04   -0.78619E-04   -0.78417E-04  8540   0.847E-04 0.115E-04
CGA:   9    -0.128597306301E+04   -0.30675E-04   -0.30988E-04  8540   0.378E-04-0.342E-05
CGA:  10    -0.128597307798E+04   -0.14970E-04   -0.17908E-04  8540   0.331E-04-0.128E-04
CGA:  11    -0.128597308455E+04   -0.65681E-05   -0.65741E-05  8540   0.145E-04-0.291E-06
  59 F= -.12859731E+04 E0= -.12859731E+04  d E =0.231808E-02  mag=   126.0000
       N       E                     dE             d eps       ncg     rms          ort
SDA:   1    -0.128587414002E+04    0.98938E-01    0.00000E+00  8540   0.322E+00 0.000E+00
CGA:   2    -0.128593452487E+04   -0.60385E-01   -0.60402E-01  8540   0.122E+00-0.967E-04
CGA:   3    -0.128596631935E+04   -0.31794E-01   -0.31802E-01  8540   0.356E-01 0.466E-03
CGA:   4    -0.128597342183E+04   -0.71025E-02   -0.71198E-02  8540   0.607E-02 0.224E-03
CGA:   5    -0.128597469116E+04   -0.12693E-02   -0.12708E-02  8540   0.148E-02 0.201E-04
CGA:   6    -0.128597503768E+04   -0.34653E-03   -0.34610E-03  8540   0.371E-03-0.131E-04
CGA:   7    -0.128597512417E+04   -0.86483E-04   -0.87114E-04  8540   0.966E-04 0.214E-04
CGA:   8    -0.128597514922E+04   -0.25057E-04   -0.25329E-04  8540   0.255E-04 0.159E-04
CGA:   9    -0.128597515663E+04   -0.74035E-05   -0.75008E-05  8540   0.888E-05 0.832E-05
  60 F= -.12859752E+04 E0= -.12859752E+04  d E =-.207208E-02  mag=   126.0000
       N       E                     dE             d eps       ncg     rms          ort
SDA:   1    -0.128595683799E+04    0.18311E-01    0.00000E+00  8540   0.606E-01 0.000E+00
CGA:   2    -0.128596819574E+04   -0.11358E-01   -0.11373E-01  8540   0.222E-01 0.176E-03
CGA:   3    -0.128597399423E+04   -0.57985E-02   -0.57983E-02  8540   0.658E-02 0.391E-04
CGA:   4    -0.128597532215E+04   -0.13279E-02   -0.13277E-02  8540   0.121E-02-0.397E-05
CGA:   5    -0.128597557045E+04   -0.24829E-03   -0.24829E-03  8540   0.283E-03-0.653E-06
CGA:   6    -0.128597563492E+04   -0.64472E-04   -0.64495E-04  8540   0.697E-04 0.847E-06
CGA:   7    -0.128597565233E+04   -0.17415E-04   -0.17415E-04  8540   0.196E-04 0.252E-06
CGA:   8    -0.128597565862E+04   -0.62866E-05   -0.65846E-05  8540   0.834E-05-0.355E-05
  61 F= -.12859757E+04 E0= -.12859757E+04  d E =-.501994E-03  mag=   126.0000
       N       E                     dE             d eps       ncg     rms          ort
SDA:   1    -0.128597304125E+04    0.26111E-02    0.00000E+00  8540   0.686E-02 0.000E+00
CGA:   2    -0.128597472594E+04   -0.16847E-02   -0.16852E-02  8540   0.343E-02 0.546E-04
CGA:   3    -0.128597548847E+04   -0.76253E-03   -0.76041E-03  8540   0.644E-03-0.650E-04
CGA:   4    -0.128597561703E+04   -0.12855E-03   -0.12747E-03  8540   0.125E-03-0.216E-04
CGA:   5    -0.128597564322E+04   -0.26194E-04   -0.26074E-04  8540   0.319E-04-0.361E-05
CGA:   6    -0.128597565074E+04   -0.75195E-05   -0.75026E-05  8540   0.902E-05-0.281E-05
  62 F= -.12859757E+04 E0= -.12859757E+04  d E =0.787770E-05  mag=   126.0000
