       N       E                     dE             d eps       ncg     rms          rms(c)
DAV:   1     0.828301771844E+04    0.82830E+04   -0.23613E+05 34332   0.219E+03
DAV:   2     0.121511178935E+04   -0.70679E+04   -0.66401E+04 33696   0.633E+02
DAV:   3    -0.316012653454E+03   -0.15311E+04   -0.13395E+04 35952   0.271E+02
DAV:   4    -0.468622573064E+03   -0.15261E+03   -0.15005E+03 36816   0.831E+01
DAV:   5    -0.471116914095E+03   -0.24943E+01   -0.24846E+01 36768   0.120E+01    0.108E+02
DAV:   6    -0.490743358261E+03   -0.19626E+02   -0.83241E+02 45804   0.115E+02    0.118E+02
DAV:   7    -0.393528988958E+03    0.97214E+02   -0.31711E+02 37164   0.114E+02    0.392E+01
DAV:   8    -0.400812013746E+03   -0.72830E+01   -0.82638E+01 43224   0.348E+01    0.264E+01
DAV:   9    -0.402886708113E+03   -0.20747E+01   -0.55488E+01 37368   0.378E+01    0.232E+01
DAV:  10    -0.400288318204E+03    0.25984E+01   -0.11664E+01 36540   0.209E+01    0.140E+01
DAV:  11    -0.400006983760E+03    0.28133E+00   -0.10461E+01 36792   0.102E+01    0.842E+00
DAV:  12    -0.400080805921E+03   -0.73822E-01   -0.20135E+00 37392   0.633E+00    0.545E+00
DAV:  13    -0.400158818019E+03   -0.78012E-01   -0.57763E-01 37296   0.495E+00    0.469E+00
DAV:  14    -0.400196469835E+03   -0.37652E-01   -0.74391E-01 37944   0.456E+00    0.286E+00
DAV:  15    -0.400290605882E+03   -0.94136E-01   -0.47477E-01 42744   0.415E+00    0.362E+00
DAV:  16    -0.400256867288E+03    0.33739E-01   -0.14003E-01 37200   0.308E+00    0.182E+00
DAV:  17    -0.400267510212E+03   -0.10643E-01   -0.73821E-02 36924   0.172E+00    0.183E+00
DAV:  18    -0.400271973209E+03   -0.44630E-02   -0.30343E-02 37128   0.139E+00    0.131E+00
DAV:  19    -0.400292903880E+03   -0.20931E-01   -0.36002E-02 43728   0.118E+00    0.148E+00
DAV:  20    -0.400304277964E+03   -0.11374E-01   -0.19500E-02 40620   0.628E-01    0.152E+00
DAV:  21    -0.400310968902E+03   -0.66909E-02   -0.79480E-03 40392   0.433E-01    0.150E+00
DAV:  22    -0.400322894621E+03   -0.11926E-01   -0.12424E-02 39744   0.742E-01    0.138E+00
DAV:  23    -0.400347606003E+03   -0.24711E-01   -0.61650E-02 39720   0.193E+00    0.914E-01
DAV:  24    -0.400368191931E+03   -0.20586E-01   -0.72998E-02 41052   0.178E+00    0.568E-01
DAV:  25    -0.400376744353E+03   -0.85524E-02   -0.45478E-02 38256   0.774E-01    0.460E-01
DAV:  26    -0.400378607039E+03   -0.18627E-02   -0.81855E-03 37200   0.343E-01    0.468E-01
DAV:  27    -0.400382398361E+03   -0.37913E-02   -0.76874E-03 41472   0.555E-01    0.351E-01
DAV:  28    -0.400384578532E+03   -0.21802E-02   -0.75641E-03 39612   0.547E-01    0.231E-01
DAV:  29    -0.400385228425E+03   -0.64989E-03   -0.31165E-03 39432   0.290E-01    0.192E-01
DAV:  30    -0.400385587176E+03   -0.35875E-03   -0.14274E-03 39804   0.246E-01    0.125E-01
DAV:  31    -0.400385711176E+03   -0.12400E-03   -0.10345E-03 40968   0.182E-01    0.741E-02
DAV:  32    -0.400385772573E+03   -0.61397E-04   -0.58023E-04 37716   0.112E-01    0.542E-02
DAV:  33    -0.400385796962E+03   -0.24389E-04   -0.24153E-04 36168   0.678E-02    0.430E-02
DAV:  34    -0.400385802251E+03   -0.52885E-05   -0.49055E-05 32436   0.428E-02
   1 F= -.40038580E+03 E0= -.40038580E+03  d E =-.400386E+03  mag=    -0.0005
       N       E                     dE             d eps       ncg     rms          rms(c)
DAV:   1    -0.400386362015E+03   -0.56505E-03   -0.54860E-04 46632   0.255E-01    0.279E-02
DAV:   2    -0.400386394138E+03   -0.32123E-04   -0.27998E-04 40536   0.667E-02    0.303E-02
DAV:   3    -0.400386395690E+03   -0.15526E-05   -0.64706E-05 32664   0.496E-02    0.205E-02
DAV:   4    -0.400386399114E+03   -0.34234E-05   -0.95552E-06 21516   0.188E-02
   2 F= -.40038640E+03 E0= -.40038640E+03  d E =-.596863E-03  mag=    -0.0001
       N       E                     dE             d eps       ncg     rms          rms(c)
DAV:   1    -0.400383961246E+03    0.24344E-02   -0.31140E-01 48336   0.604E+00    0.333E-01
DAV:   2    -0.400398825549E+03   -0.14864E-01   -0.15409E-01 37680   0.737E-01    0.204E-01
DAV:   3    -0.400399070785E+03   -0.24524E-03   -0.34145E-03 36804   0.265E-01    0.155E-01
DAV:   4    -0.400399023997E+03    0.46788E-04   -0.60225E-04 37416   0.180E-01    0.119E-01
DAV:   5    -0.400399011479E+03    0.12518E-04   -0.25745E-04 38796   0.116E-01    0.874E-02
DAV:   6    -0.400398992200E+03    0.19279E-04   -0.23330E-04 36816   0.128E-01    0.344E-02
DAV:   7    -0.400398994854E+03   -0.26534E-05   -0.64940E-05 34428   0.538E-02
   3 F= -.40039899E+03 E0= -.40039899E+03  d E =-.125957E-01  mag=     0.0000
       N       E                     dE             d eps       ncg     rms          rms(c)
DAV:   1    -0.400223519513E+03    0.17547E+00   -0.47301E+00 47136   0.214E+01    0.125E+00
DAV:   2    -0.400426394644E+03   -0.20288E+00   -0.20932E+00 37416   0.272E+00    0.848E-01
DAV:   3    -0.400429579086E+03   -0.31844E-02   -0.49297E-02 36912   0.124E+00    0.708E-01
DAV:   4    -0.400427514615E+03    0.20645E-02   -0.93349E-03 36948   0.714E-01    0.435E-01
DAV:   5    -0.400427283792E+03    0.23082E-03   -0.28878E-03 39264   0.425E-01    0.305E-01
DAV:   6    -0.400427085964E+03    0.19783E-03   -0.32911E-03 37260   0.473E-01    0.121E-01
DAV:   7    -0.400427098055E+03   -0.12090E-04   -0.92079E-04 36984   0.206E-01    0.508E-02
DAV:   8    -0.400427094621E+03    0.34335E-05   -0.19083E-04 37236   0.867E-02    0.350E-02
DAV:   9    -0.400427089258E+03    0.53633E-05   -0.55426E-05 33720   0.409E-02
   4 F= -.40042709E+03 E0= -.40042709E+03  d E =-.280944E-01  mag=     0.0000
       N       E                     dE             d eps       ncg     rms          rms(c)
DAV:   1    -0.400421356650E+03    0.57380E-02   -0.61698E-01 45636   0.570E+00    0.317E-01
DAV:   2    -0.400435739502E+03   -0.14383E-01   -0.14869E-01 38616   0.821E-01    0.220E-01
DAV:   3    -0.400435956019E+03   -0.21652E-03   -0.47271E-03 37020   0.365E-01    0.177E-01
DAV:   4    -0.400435829891E+03    0.12613E-03   -0.71272E-04 37320   0.207E-01    0.119E-01
DAV:   5    -0.400435811169E+03    0.18722E-04   -0.30966E-04 41196   0.124E-01    0.978E-02
DAV:   6    -0.400435765871E+03    0.45298E-04   -0.30296E-04 36756   0.131E-01    0.325E-02
DAV:   7    -0.400435772921E+03   -0.70501E-05   -0.92469E-05 35352   0.554E-02
   5 F= -.40043577E+03 E0= -.40043577E+03  d E =-.868366E-02  mag=    -0.0000
       N       E                     dE             d eps       ncg     rms          rms(c)
DAV:   1    -0.400394346559E+03    0.41419E-01   -0.34550E+00 44124   0.111E+01    0.616E-01
DAV:   2    -0.400448183199E+03   -0.53837E-01   -0.55705E-01 37752   0.168E+00    0.432E-01
DAV:   3    -0.400448921699E+03   -0.73850E-03   -0.18449E-02 36804   0.722E-01    0.371E-01
DAV:   4    -0.400448267417E+03    0.65428E-03   -0.31524E-03 38220   0.407E-01    0.222E-01
DAV:   5    -0.400448104470E+03    0.16295E-03   -0.10904E-03 42888   0.235E-01    0.159E-01
DAV:   6    -0.400448019161E+03    0.85309E-04   -0.11110E-03 36960   0.259E-01    0.694E-02
DAV:   7    -0.400448028231E+03   -0.90701E-05   -0.30063E-04 37320   0.113E-01    0.311E-02
DAV:   8    -0.400448031111E+03   -0.28799E-05   -0.69195E-05 36204   0.507E-02
   6 F= -.40044803E+03 E0= -.40044803E+03  d E =-.122582E-01  mag=    -0.0000
       N       E                     dE             d eps       ncg     rms          rms(c)
DAV:   1    -0.400430512427E+03    0.17516E-01   -0.12983E+00 44544   0.712E+00    0.379E-01
DAV:   2    -0.400451559274E+03   -0.21047E-01   -0.21707E-01 37908   0.103E+00    0.247E-01
DAV:   3    -0.400451759756E+03   -0.20048E-03   -0.53311E-03 36972   0.370E-01    0.199E-01
DAV:   4    -0.400451608733E+03    0.15102E-03   -0.10173E-03 38220   0.238E-01    0.139E-01
DAV:   5    -0.400451556990E+03    0.51744E-04   -0.39978E-04 41472   0.147E-01    0.928E-02
DAV:   6    -0.400451535361E+03    0.21629E-04   -0.37298E-04 37644   0.152E-01    0.416E-02
DAV:   7    -0.400451540540E+03   -0.51790E-05   -0.10433E-04 35424   0.633E-02    0.203E-02
DAV:   8    -0.400451542004E+03   -0.14649E-05   -0.23168E-05 24336   0.282E-02
   7 F= -.40045154E+03 E0= -.40045154E+03  d E =-.351089E-02  mag=    -0.0000
       N       E                     dE             d eps       ncg     rms          rms(c)
DAV:   1    -0.400437740602E+03    0.13800E-01   -0.94607E-01 44736   0.610E+00    0.322E-01
DAV:   2    -0.400453369440E+03   -0.15629E-01   -0.16029E-01 37332   0.865E-01    0.198E-01
DAV:   3    -0.400453477915E+03   -0.10848E-03   -0.31513E-03 37248   0.259E-01    0.150E-01
DAV:   4    -0.400453423467E+03    0.54447E-04   -0.63242E-04 38352   0.194E-01    0.121E-01
DAV:   5    -0.400453383935E+03    0.39533E-04   -0.30905E-04 41148   0.127E-01    0.770E-02
DAV:   6    -0.400453372565E+03    0.11369E-04   -0.25587E-04 36960   0.128E-01    0.356E-02
DAV:   7    -0.400453376692E+03   -0.41263E-05   -0.71529E-05 34908   0.531E-02
   8 F= -.40045338E+03 E0= -.40045338E+03  d E =-.183469E-02  mag=    -0.0000
       N       E                     dE             d eps       ncg     rms          rms(c)
DAV:   1    -0.400440500263E+03    0.12872E-01   -0.73191E-01 45396   0.593E+00    0.305E-01
DAV:   2    -0.400454959866E+03   -0.14460E-01   -0.14780E-01 36888   0.811E-01    0.172E-01
DAV:   3    -0.400455036420E+03   -0.76554E-04   -0.23202E-03 38340   0.197E-01    0.124E-01
DAV:   4    -0.400455029454E+03    0.69659E-05   -0.51704E-04 38304   0.179E-01    0.112E-01
DAV:   5    -0.400454985752E+03    0.43702E-04   -0.28422E-04 39648   0.115E-01    0.623E-02
DAV:   6    -0.400454984466E+03    0.12866E-05   -0.16920E-04 36480   0.105E-01    0.318E-02
DAV:   7    -0.400454987930E+03   -0.34646E-05   -0.51166E-05 32004   0.461E-02
   9 F= -.40045499E+03 E0= -.40045499E+03  d E =-.161124E-02  mag=    -0.0000
       N       E                     dE             d eps       ncg     rms          rms(c)
DAV:   1    -0.400424839914E+03    0.30145E-01   -0.12962E+00 45672   0.907E+00    0.452E-01
DAV:   2    -0.400456382597E+03   -0.31543E-01   -0.32260E-01 36816   0.120E+00    0.255E-01
DAV:   3    -0.400456597366E+03   -0.21477E-03   -0.54088E-03 38412   0.304E-01    0.193E-01
DAV:   4    -0.400456562373E+03    0.34993E-04   -0.11941E-03 38808   0.244E-01    0.165E-01
DAV:   5    -0.400456452641E+03    0.10973E-03   -0.51062E-04 41100   0.160E-01    0.806E-02
DAV:   6    -0.400456457552E+03   -0.49114E-05   -0.33104E-04 37512   0.138E-01    0.408E-02
DAV:   7    -0.400456460314E+03   -0.27615E-05   -0.91252E-05 35676   0.633E-02
  10 F= -.40045646E+03 E0= -.40045646E+03  d E =-.147238E-02  mag=    -0.0000
       N       E                     dE             d eps       ncg     rms          rms(c)
DAV:   1    -0.400442346623E+03    0.14111E-01   -0.61128E-01 45624   0.619E+00    0.309E-01
DAV:   2    -0.400457022639E+03   -0.14676E-01   -0.15009E-01 37644   0.824E-01    0.172E-01
DAV:   3    -0.400457109198E+03   -0.86558E-04   -0.24209E-03 39120   0.206E-01    0.133E-01
DAV:   4    -0.400457091662E+03    0.17536E-04   -0.54278E-04 38976   0.168E-01    0.112E-01
DAV:   5    -0.400457043860E+03    0.47803E-04   -0.24153E-04 39924   0.112E-01    0.534E-02
DAV:   6    -0.400457043257E+03    0.60271E-06   -0.15890E-04 37008   0.961E-02    0.262E-02
DAV:   7    -0.400457044141E+03   -0.88410E-06   -0.38632E-05 30864   0.411E-02
  11 F= -.40045704E+03 E0= -.40045704E+03  d E =-.583827E-03  mag=    -0.0000
       N       E                     dE             d eps       ncg     rms          rms(c)
DAV:   1    -0.400456176182E+03    0.86708E-03   -0.54478E-02 45888   0.163E+00    0.856E-02
DAV:   2    -0.400457271354E+03   -0.10952E-02   -0.11172E-02 36924   0.231E-01    0.523E-02
DAV:   3    -0.400457284465E+03   -0.13111E-04   -0.28565E-04 37104   0.864E-02    0.416E-02
DAV:   4    -0.400457279732E+03    0.47325E-05   -0.52404E-05 32676   0.573E-02
  12 F= -.40045728E+03 E0= -.40045728E+03  d E =-.235591E-03  mag=    -0.0000
       N       E                     dE             d eps       ncg     rms          rms(c)
DAV:   1    -0.400455333700E+03    0.19508E-02   -0.10661E-01 45528   0.230E+00    0.118E-01
DAV:   2    -0.400457457735E+03   -0.21240E-02   -0.21485E-02 37488   0.326E-01    0.938E-02
DAV:   3    -0.400457488560E+03   -0.30825E-04   -0.77352E-04 37632   0.153E-01    0.796E-02
DAV:   4    -0.400457458317E+03    0.30244E-04   -0.12009E-04 37308   0.781E-02    0.431E-02
DAV:   5    -0.400457453616E+03    0.47004E-05   -0.34131E-05 29964   0.425E-02
  13 F= -.40045745E+03 E0= -.40045745E+03  d E =-.173884E-03  mag=    -0.0000
       N       E                     dE             d eps       ncg     rms          rms(c)
DAV:   1    -0.400432947417E+03    0.24511E-01   -0.79692E-01 45852   0.808E+00    0.405E-01
DAV:   2    -0.400457652243E+03   -0.24705E-01   -0.25113E-01 37440   0.102E+00    0.221E-01
DAV:   3    -0.400457872649E+03   -0.22041E-03   -0.42329E-03 38652   0.248E-01    0.166E-01
DAV:   4    -0.400457890355E+03   -0.17706E-04   -0.93771E-04 38844   0.219E-01    0.148E-01
DAV:   5    -0.400457815909E+03    0.74445E-04   -0.37855E-04 39948   0.146E-01    0.601E-02
DAV:   6    -0.400457812982E+03    0.29269E-05   -0.20630E-04 36984   0.113E-01    0.311E-02
DAV:   7    -0.400457812490E+03    0.49254E-06   -0.57087E-05 33360   0.511E-02
  14 F= -.40045781E+03 E0= -.40045781E+03  d E =-.358874E-03  mag=    -0.0000
       N       E                     dE             d eps       ncg     rms          rms(c)
DAV:   1    -0.400407764640E+03    0.50048E-01   -0.20337E+00 45624   0.114E+01    0.569E-01
DAV:   2    -0.400458392387E+03   -0.50628E-01   -0.51547E-01 37308   0.151E+00    0.316E-01
DAV:   3    -0.400458822162E+03   -0.42978E-03   -0.92438E-03 37596   0.405E-01    0.242E-01
DAV:   4    -0.400458762165E+03    0.59996E-04   -0.20098E-03 39192   0.320E-01    0.199E-01
DAV:   5    -0.400458617646E+03    0.14452E-03   -0.78118E-04 42456   0.206E-01    0.105E-01
DAV:   6    -0.400458594088E+03    0.23558E-04   -0.52242E-04 37128   0.187E-01    0.478E-02
DAV:   7    -0.400458595339E+03   -0.12508E-05   -0.13407E-04 36840   0.749E-02    0.223E-02
DAV:   8    -0.400458595228E+03    0.11126E-06   -0.28199E-05 27612   0.292E-02
  15 F= -.40045860E+03 E0= -.40045860E+03  d E =-.782738E-03  mag=     0.0000
       N       E                     dE             d eps       ncg     rms          rms(c)
DAV:   1    -0.400453448746E+03    0.51466E-02   -0.13991E-01 47100   0.418E+00    0.207E-01
DAV:   2    -0.400459574659E+03   -0.61259E-02   -0.63226E-02 37200   0.512E-01    0.121E-01
DAV:   3    -0.400459644134E+03   -0.69475E-04   -0.12849E-03 37116   0.169E-01    0.965E-02
DAV:   4    -0.400459623116E+03    0.21017E-04   -0.25169E-04 38016   0.113E-01    0.708E-02
DAV:   5    -0.400459610261E+03    0.12855E-04   -0.89186E-05 35064   0.678E-02    0.394E-02
DAV:   6    -0.400459608140E+03    0.21212E-05   -0.73593E-05 35244   0.748E-02
  16 F= -.40045961E+03 E0= -.40045961E+03  d E =-.101291E-02  mag=    -0.0000
       N       E                     dE             d eps       ncg     rms          rms(c)
DAV:   1    -0.400458422733E+03    0.11875E-02   -0.30501E-02 49188   0.223E+00    0.113E-01
DAV:   2    -0.400460172850E+03   -0.17501E-02   -0.17918E-02 36912   0.256E-01    0.617E-02
DAV:   3    -0.400460199325E+03   -0.26476E-04   -0.35464E-04 38028   0.717E-02    0.478E-02
DAV:   4    -0.400460199626E+03   -0.30056E-06   -0.69068E-05 34476   0.596E-02
  17 F= -.40046020E+03 E0= -.40046020E+03  d E =-.591486E-03  mag=     0.0000
