       N       E                     dE             d eps       ncg     rms          ort
DAV:   1     0.283816826590E+04    0.28382E+04   -0.29435E+05  2880   0.141E+03
DAV:   2    -0.971609152546E+03   -0.38098E+04   -0.36724E+04  2880   0.313E+02
DAV:   3    -0.123095322115E+04   -0.25934E+03   -0.25771E+03  2880   0.851E+01
DAV:   4    -0.123399005169E+04   -0.30368E+01   -0.30264E+01  2880   0.980E+00
DAV:   5    -0.123403985007E+04   -0.49798E-01   -0.49689E-01  2880   0.115E+00
SDA:   6    -0.873128700355E+03    0.36091E+03   -0.49689E-01  2880   0.619E+03 0.000E+00
CGA:   7    -0.986042035412E+03   -0.11291E+03   -0.11272E+03  2880   0.441E+02-0.264E+01
CGA:   8    -0.999206159272E+03   -0.13164E+02   -0.13137E+02  2880   0.105E+02 0.224E+00
CGA:   9    -0.100304900932E+04   -0.38429E+01   -0.38442E+01  2880   0.402E+01-0.132E-01
CGA:  10    -0.100432354012E+04   -0.12745E+01   -0.12784E+01  2880   0.869E+00-0.328E-01
CGA:  11    -0.100465822868E+04   -0.33469E+00   -0.33485E+00  2880   0.189E+00-0.771E-03
CGA:  12    -0.100472370986E+04   -0.65481E-01   -0.65467E-01  2880   0.434E-01 0.840E-04
CGA:  13    -0.100474011236E+04   -0.16403E-01   -0.16531E-01  2880   0.997E-02-0.876E-03
CGA:  14    -0.100474383181E+04   -0.37195E-02   -0.36413E-02  2880   0.218E-02 0.582E-03
CGA:  15    -0.100474478780E+04   -0.95599E-03   -0.92564E-03  2880   0.540E-03 0.194E-03
CGA:  16    -0.100474506604E+04   -0.27824E-03   -0.37886E-03  2880   0.409E-03-0.258E-03
CGA:  17    -0.100474512957E+04   -0.63529E-04   -0.63500E-04  2880   0.168E-03 0.708E-06
CGA:  18    -0.100474515923E+04   -0.29660E-04   -0.33259E-04  2880   0.679E-04 0.465E-04
CGA:  19    -0.100474517296E+04   -0.13733E-04   -0.16455E-04  2880   0.360E-04 0.337E-04
CGA:  20    -0.100474518331E+04   -0.10346E-04   -0.11279E-04  2880   0.163E-04 0.163E-04
CGA:  21    -0.100474519102E+04   -0.77113E-05   -0.80307E-05  2880   0.905E-05-0.418E-05
   1 F= -.10047452E+04 E0= -.10047452E+04  d E =-.100475E+04  mag=    -0.0000
       N       E                     dE             d eps       ncg     rms          ort
SDA:   1    -0.100474419846E+04    0.98485E-03    0.00000E+00  2880   0.580E-02 0.000E+00
CGA:   2    -0.100474626368E+04   -0.20652E-02   -0.20628E-02  2880   0.143E-02 0.276E-04
CGA:   3    -0.100474663466E+04   -0.37098E-03   -0.37079E-03  2880   0.216E-03-0.130E-04
CGA:   4    -0.100474670006E+04   -0.65397E-04   -0.65313E-04  2880   0.361E-04 0.240E-05
CGA:   5    -0.100474671210E+04   -0.12040E-04   -0.11974E-04  2880   0.976E-05 0.119E-05
CGA:   6    -0.100474671576E+04   -0.36663E-05   -0.36092E-05  2880   0.277E-05 0.690E-06
   2 F= -.10047467E+04 E0= -.10047467E+04  d E =-.152474E-02  mag=    -0.0000
       N       E                     dE             d eps       ncg     rms          ort
SDA:   1    -0.100474570273E+04    0.10094E-02    0.00000E+00  2880   0.398E-02 0.000E+00
CGA:   2    -0.100474711324E+04   -0.14105E-02   -0.14088E-02  2880   0.985E-03 0.361E-04
CGA:   3    -0.100474737323E+04   -0.25999E-03   -0.25949E-03  2880   0.148E-03-0.108E-04
CGA:   4    -0.100474741988E+04   -0.46645E-04   -0.46785E-04  2880   0.313E-04-0.968E-05
CGA:   5    -0.100474742804E+04   -0.81684E-05   -0.82298E-05  2880   0.673E-05 0.248E-05
   3 F= -.10047474E+04 E0= -.10047474E+04  d E =-.712281E-03  mag=    -0.0000
       N       E                     dE             d eps       ncg     rms          ort
SDA:   1    -0.100474443181E+04    0.29881E-02    0.00000E+00  2880   0.739E-02 0.000E+00
CGA:   2    -0.100474706736E+04   -0.26356E-02   -0.26323E-02  2880   0.175E-02 0.632E-04
CGA:   3    -0.100474752001E+04   -0.45265E-03   -0.45174E-03  2880   0.273E-03-0.181E-04
CGA:   4    -0.100474760843E+04   -0.88424E-04   -0.89040E-04  2880   0.558E-04-0.249E-04
CGA:   5    -0.100474762257E+04   -0.14139E-04   -0.14246E-04  2880   0.117E-04 0.428E-05
CGA:   6    -0.100474762570E+04   -0.31324E-05   -0.33043E-05  2880   0.339E-05 0.407E-05
   4 F= -.10047476E+04 E0= -.10047476E+04  d E =-.197658E-03  mag=     0.0000
       N       E                     dE             d eps       ncg     rms          ort
SDA:   1    -0.100474731775E+04    0.30482E-03    0.00000E+00  2880   0.748E-03 0.000E+00
CGA:   2    -0.100474758184E+04   -0.26409E-03   -0.26320E-03  2880   0.140E-03 0.231E-04
CGA:   3    -0.100474762319E+04   -0.41356E-04   -0.41163E-04  2880   0.236E-04-0.632E-05
CGA:   4    -0.100474763082E+04   -0.76210E-05   -0.10389E-04  2880   0.247E-04-0.188E-04
   5 F= -.10047476E+04 E0= -.10047476E+04  d E =-.511394E-05  mag=     0.0000
       N       E                     dE             d eps       ncg     rms          ort
SDA:   1    -0.100468024232E+04    0.67381E-01    0.00000E+00  2880   0.155E+00 0.000E+00
CGA:   2    -0.100473797207E+04   -0.57730E-01   -0.57729E-01  2880   0.304E-01 0.241E-04
CGA:   3    -0.100474539696E+04   -0.74249E-02   -0.74240E-02  2880   0.478E-02-0.145E-04
CGA:   4    -0.100474664354E+04   -0.12466E-02   -0.12452E-02  2880   0.616E-03-0.274E-04
CGA:   5    -0.100474683431E+04   -0.19077E-03   -0.19078E-03  2880   0.120E-03-0.680E-05
CGA:   6    -0.100474687839E+04   -0.44089E-04   -0.43788E-04  2880   0.361E-04 0.514E-05
CGA:   7    -0.100474689524E+04   -0.16841E-04   -0.17384E-04  2880   0.146E-04-0.363E-05
CGA:   8    -0.100474690042E+04   -0.51896E-05   -0.53694E-05  2880   0.302E-05-0.201E-05
   6 F= -.10047469E+04 E0= -.10047469E+04  d E =0.730391E-03  mag=     0.0000
       N       E                     dE             d eps       ncg     rms          ort
SDA:   1    -0.100473184516E+04    0.15050E-01    0.00000E+00  2880   0.352E-01 0.000E+00
CGA:   2    -0.100474490669E+04   -0.13062E-01   -0.13066E-01  2880   0.805E-02-0.120E-03
CGA:   3    -0.100474690615E+04   -0.19995E-02   -0.20015E-02  2880   0.118E-02 0.235E-04
CGA:   4    -0.100474723800E+04   -0.33185E-03   -0.33387E-03  2880   0.180E-03 0.435E-04
CGA:   5    -0.100474730196E+04   -0.63958E-04   -0.63984E-04  2880   0.517E-04-0.177E-05
CGA:   6    -0.100474732347E+04   -0.21508E-04   -0.22510E-04  2880   0.231E-04-0.897E-05
CGA:   7    -0.100474732777E+04   -0.43060E-05   -0.47359E-05  2880   0.549E-05 0.505E-05
   7 F= -.10047473E+04 E0= -.10047473E+04  d E =-.427348E-03  mag=    -0.0000
       N       E                     dE             d eps       ncg     rms          ort
SDA:   1    -0.100474431304E+04    0.30104E-02    0.00000E+00  2880   0.770E-02 0.000E+00
CGA:   2    -0.100474713848E+04   -0.28254E-02   -0.28249E-02  2880   0.168E-02 0.128E-04
CGA:   3    -0.100474755323E+04   -0.41476E-03   -0.41439E-03  2880   0.255E-03-0.476E-05
CGA:   4    -0.100474762315E+04   -0.69916E-04   -0.69778E-04  2880   0.374E-04-0.302E-05
CGA:   5    -0.100474763439E+04   -0.11242E-04   -0.11264E-04  2880   0.783E-05 0.173E-05
CGA:   6    -0.100474763744E+04   -0.30538E-05   -0.30339E-05  2880   0.247E-05 0.373E-06
   8 F= -.10047476E+04 E0= -.10047476E+04  d E =-.309672E-03  mag=     0.0000
