       N       E                     dE             d eps       ncg     rms          ort
DAV:   1     0.828909770288E+04    0.82891E+04   -0.24662E+05  8424   0.238E+03
DAV:   2     0.923820860198E+03   -0.73653E+04   -0.69134E+04  8424   0.658E+02
DAV:   3    -0.673146060922E+03   -0.15970E+04   -0.14052E+04  8424   0.283E+02
DAV:   4    -0.829738738862E+03   -0.15659E+03   -0.15386E+03  8424   0.860E+01
DAV:   5    -0.832237351171E+03   -0.24986E+01   -0.24878E+01  8424   0.122E+01
SDA:   6    -0.257604809464E+03    0.57463E+03   -0.24878E+01  8424   0.433E+04 0.000E+00
CGA:   7    -0.503630293541E+03   -0.24603E+03   -0.40915E+03  8424   0.158E+04 0.200E+03
CGA:   8    -0.617189973982E+03   -0.11356E+03   -0.42348E+02  8424   0.291E+03 0.499E+03
CGA:   9    -0.636105238301E+03   -0.18915E+02   -0.22234E+02  8424   0.154E+03 0.402E+02
CGA:  10    -0.651473847387E+03   -0.15369E+02   -0.13100E+02  8424   0.603E+02 0.239E+02
CGA:  11    -0.656378046970E+03   -0.49042E+01   -0.38713E+01  8424   0.781E+02 0.337E+02
CGA:  12    -0.654564287229E+03    0.18138E+01   -0.61081E+01  8424   0.114E+03-0.580E+00
CGA:  13    -0.657374945982E+03   -0.28107E+01   -0.74050E+01  8424   0.813E+02-0.397E+02
CGA:  14    -0.663871316085E+03   -0.64964E+01   -0.22182E+01  8424   0.167E+02 0.375E+02
CGA:  15    -0.663817551436E+03    0.53765E-01   -0.14743E+01  8424   0.578E+02-0.865E+01
CGA:  16    -0.663357826245E+03    0.45973E+00   -0.27592E+01  8424   0.163E+03-0.956E+02
CGA:  17    -0.661994957773E+03    0.13629E+01   -0.95271E+01  8424   0.111E+03-0.679E+02
CGA:  18    -0.666131370627E+03   -0.41364E+01   -0.25457E+01  8424   0.773E+01 0.649E+01
CGA:  19    -0.666452896961E+03   -0.32153E+00   -0.23396E+00  8424   0.505E+01 0.176E+01
CGA:  20    -0.666681754319E+03   -0.22886E+00   -0.25989E+00  8424   0.865E+01-0.594E+00
CGA:  21    -0.666861543467E+03   -0.17979E+00   -0.13073E+00  8424   0.908E+01 0.304E+01
CGA:  22    -0.667175332379E+03   -0.31379E+00   -0.41153E+00  8424   0.112E+02-0.535E+01
CGA:  23    -0.667484395177E+03   -0.30906E+00   -0.61142E+00  8424   0.393E+01-0.217E+01
CGA:  24    -0.667696083570E+03   -0.21169E+00   -0.22691E+00  8424   0.114E+01 0.554E-01
CGA:  25    -0.667856460953E+03   -0.16038E+00   -0.15336E+00  8424   0.982E+00 0.190E+00
CGA:  26    -0.668067783936E+03   -0.21132E+00   -0.19858E+00  8424   0.558E+00 0.148E+00
CGA:  27    -0.668164023374E+03   -0.96239E-01   -0.94177E-01  8424   0.251E+00 0.352E-01
CGA:  28    -0.668223384111E+03   -0.59361E-01   -0.61556E-01  8424   0.319E+00-0.193E-01
CGA:  29    -0.668318425019E+03   -0.95041E-01   -0.96534E-01  8424   0.185E+00-0.805E-02
CGA:  30    -0.668316648604E+03    0.17764E-02   -0.23481E-01  8424   0.156E+01-0.217E+00
CGA:  31    -0.668491568547E+03   -0.17492E+00   -0.17384E+00  8424   0.116E+00-0.232E-01
CGA:  32    -0.668554139862E+03   -0.62571E-01   -0.88533E-01  8424   0.305E+00-0.481E-01
CGA:  33    -0.668584139392E+03   -0.30000E-01   -0.28136E-01  8424   0.119E+00-0.243E-01
CGA:  34    -0.668604376346E+03   -0.20237E-01   -0.19510E-01  8424   0.826E-01-0.991E-02
CGA:  35    -0.668621066971E+03   -0.16691E-01   -0.16388E-01  8424   0.585E-01-0.807E-02
CGA:  36    -0.668635713300E+03   -0.14646E-01   -0.15108E-01  8424   0.651E-01-0.127E-01
CGA:  37    -0.668646447609E+03   -0.10734E-01   -0.99397E-02  8424   0.380E-01-0.143E-01
CGA:  38    -0.668654919306E+03   -0.84717E-02   -0.10026E-01  8424   0.634E-01-0.176E-01
CGA:  39    -0.668662377931E+03   -0.74586E-02   -0.65031E-02  8424   0.522E-01-0.153E-01
CGA:  40    -0.668670698045E+03   -0.83201E-02   -0.76342E-02  8424   0.469E-01-0.118E-01
CGA:  41    -0.668678920170E+03   -0.82221E-02   -0.78471E-02  8424   0.362E-01-0.120E-01
CGA:  42    -0.668684611287E+03   -0.56911E-02   -0.53252E-02  8424   0.316E-01-0.762E-02
CGA:  43    -0.668690179159E+03   -0.55679E-02   -0.54535E-02  8424   0.270E-01-0.477E-02
CGA:  44    -0.668694488986E+03   -0.43098E-02   -0.42589E-02  8424   0.226E-01-0.104E-02
CGA:  45    -0.668699258322E+03   -0.47693E-02   -0.47966E-02  8424   0.212E-01 0.131E-02
CGA:  46    -0.668703030630E+03   -0.37723E-02   -0.39584E-02  8424   0.139E-01 0.287E-02
CGA:  47    -0.668705487805E+03   -0.24572E-02   -0.27076E-02  8424   0.998E-02 0.388E-02
CGA:  48    -0.668707267223E+03   -0.17794E-02   -0.20449E-02  8424   0.619E-02 0.360E-02
CGA:  49    -0.668708752832E+03   -0.14856E-02   -0.15852E-02  8424   0.551E-02 0.238E-02
CGA:  50    -0.668710492972E+03   -0.17401E-02   -0.17382E-02  8424   0.509E-02 0.166E-02
CGA:  51    -0.668711798530E+03   -0.13056E-02   -0.13417E-02  8424   0.462E-02 0.139E-02
CGA:  52    -0.668712919223E+03   -0.11207E-02   -0.11734E-02  8424   0.486E-02 0.189E-02
CGA:  53    -0.668714344269E+03   -0.14250E-02   -0.14538E-02  8424   0.487E-02 0.221E-02
CGA:  54    -0.668716110153E+03   -0.17659E-02   -0.17311E-02  8424   0.480E-02 0.141E-02
CGA:  55    -0.668717916592E+03   -0.18064E-02   -0.17825E-02  8424   0.638E-02 0.400E-04
CGA:  56    -0.668719582898E+03   -0.16663E-02   -0.16892E-02  8424   0.769E-02-0.118E-02
CGA:  57    -0.668721167303E+03   -0.15844E-02   -0.17369E-02  8424   0.110E-01-0.412E-02
CGA:  58    -0.668724370526E+03   -0.32032E-02   -0.34779E-02  8424   0.988E-02-0.331E-02
CGA:  59    -0.668726740244E+03   -0.23697E-02   -0.28178E-02  8424   0.496E-02-0.263E-02
CGA:  60    -0.668727998030E+03   -0.12578E-02   -0.16747E-02  8424   0.594E-02-0.195E-02
CGA:  61    -0.668728938926E+03   -0.94090E-03   -0.17669E-02  8424   0.771E-02-0.356E-02
CGA:  62    -0.668730717045E+03   -0.17781E-02   -0.17653E-02  8424   0.208E-02-0.336E-03
CGA:  63    -0.668731320607E+03   -0.60356E-03   -0.10391E-02  8424   0.375E-02-0.169E-02
CGA:  64    -0.668732021591E+03   -0.70098E-03   -0.69698E-03  8424   0.673E-03-0.440E-04
CGA:  65    -0.668732193143E+03   -0.17155E-03   -0.45127E-03  8424   0.209E-02-0.698E-03
CGA:  66    -0.668732810819E+03   -0.61768E-03   -0.61979E-03  8424   0.144E-02-0.855E-03
CGA:  67    -0.668732658960E+03    0.15186E-03   -0.62713E-03  8424   0.642E-02-0.178E-02
CGA:  68    -0.668733969521E+03   -0.13106E-02   -0.12490E-02  8424   0.133E-02-0.511E-03
CGA:  69    -0.668734243360E+03   -0.27384E-03   -0.27601E-03  8424   0.237E-03 0.235E-04
CGA:  70    -0.668734535177E+03   -0.29182E-03    0.37652E-04  8424   0.230E-03 0.187E-03
CGA:  71    -0.668734794204E+03   -0.25903E-03    0.41954E-04  8424   0.231E-03 0.127E-03
CGA:  72    -0.668735030604E+03   -0.23640E-03    0.52167E-04  8424   0.276E-03 0.973E-04
CGA:  73    -0.668735581228E+03   -0.55062E-03    0.46413E-04  8424   0.227E-03 0.388E-03
CGA:  74    -0.668735821051E+03   -0.23982E-03    0.47524E-04  8424   0.291E-03 0.962E-04
CGA:  75    -0.668736405410E+03   -0.58436E-03    0.48542E-04  8424   0.223E-03 0.407E-03
CGA:  76    -0.668736663692E+03   -0.25828E-03    0.37979E-04  8424   0.286E-03 0.105E-03
CGA:  77    -0.668737269394E+03   -0.60570E-03    0.47207E-04  8424   0.213E-03 0.409E-03
CGA:  78    -0.668737520130E+03   -0.25074E-03    0.35185E-04  8424   0.256E-03 0.126E-03
CGA:  79    -0.668737786959E+03   -0.26683E-03    0.55616E-04  8424   0.384E-03 0.512E-04
CGA:  80    -0.668738476602E+03   -0.68964E-03    0.48712E-04  8424   0.309E-03 0.455E-03
CGA:  81    -0.668738709822E+03   -0.23322E-03    0.20049E-03  8424   0.511E-03-0.238E-04
CGA:  82    -0.668739440159E+03   -0.73034E-03    0.46967E-04  8424   0.553E-03 0.458E-03
CGA:  83    -0.668739072978E+03    0.36718E-03   -0.41703E-03  8424   0.106E-01-0.175E-02
CGA:  84    -0.668740322446E+03   -0.12495E-02   -0.12547E-02  8424   0.252E-03 0.270E-04
CGA:  85    -0.668740620083E+03   -0.29764E-03    0.47061E-04  8424   0.236E-03 0.132E-03
CGA:  86    -0.668740953091E+03   -0.33301E-03    0.30632E-04  8424   0.232E-03 0.137E-03
CGA:  87    -0.668741231291E+03   -0.27820E-03    0.41525E-04  8424   0.246E-03 0.133E-03
CGA:  88    -0.668741577786E+03   -0.34650E-03    0.32135E-04  8424   0.278E-03 0.111E-03
CGA:  89    -0.668742248499E+03   -0.67071E-03    0.39708E-04  8424   0.250E-03 0.397E-03
CGA:  90    -0.668742533708E+03   -0.28521E-03    0.50055E-04  8424   0.256E-03 0.123E-03
CGA:  91    -0.668743191105E+03   -0.65740E-03    0.35665E-04  8424   0.251E-03 0.374E-03
CGA:  92    -0.668743554359E+03   -0.36325E-03    0.31110E-04  8424   0.232E-03 0.141E-03
CGA:  93    -0.668743855614E+03   -0.30126E-03    0.35416E-04  8424   0.232E-03 0.148E-03
CGA:  94    -0.668744218013E+03   -0.36240E-03    0.25167E-04  8424   0.235E-03 0.147E-03
CGA:  95    -0.668744525245E+03   -0.30723E-03    0.35252E-04  8424   0.238E-03 0.145E-03
CGA:  96    -0.668744889580E+03   -0.36433E-03    0.26836E-04  8424   0.241E-03 0.143E-03
CGA:  97    -0.668745206095E+03   -0.31652E-03    0.35679E-04  8424   0.242E-03 0.142E-03
CGA:  98    -0.668745570964E+03   -0.36487E-03    0.28101E-04  8424   0.244E-03 0.142E-03
CGA:  99    -0.668745897377E+03   -0.32641E-03    0.35047E-04  8424   0.246E-03 0.141E-03
CGA: 100    -0.668746262471E+03   -0.36509E-03    0.29272E-04  8424   0.250E-03 0.140E-03
CGA: 101    -0.668746597648E+03   -0.33518E-03    0.35638E-04  8424   0.256E-03 0.136E-03
CGA: 102    -0.668746963712E+03   -0.36606E-03    0.32537E-04  8424   0.267E-03 0.129E-03
CGA: 103    -0.668747304785E+03   -0.34107E-03    0.42173E-04  8424   0.288E-03 0.115E-03
CGA: 104    -0.668748053213E+03   -0.74843E-03    0.35061E-04  8424   0.270E-03 0.410E-03
CGA: 105    -0.668748428611E+03   -0.37540E-03    0.36070E-04  8424   0.290E-03 0.116E-03
CGA: 106    -0.668749195929E+03   -0.76732E-03    0.34376E-04  8424   0.273E-03 0.413E-03
CGA: 107    -0.668749550279E+03   -0.35435E-03    0.41715E-04  8424   0.288E-03 0.118E-03
CGA: 108    -0.668750319072E+03   -0.76879E-03    0.33677E-04  8424   0.277E-03 0.411E-03
CGA: 109    -0.668750715715E+03   -0.39664E-03    0.35139E-04  8424   0.284E-03 0.120E-03
CGA: 110    -0.668751492946E+03   -0.77723E-03    0.32115E-04  8424   0.281E-03 0.406E-03
CGA: 111    -0.668751857479E+03   -0.36453E-03    0.42648E-04  8424   0.279E-03 0.123E-03
CGA: 112    -0.668752627970E+03   -0.77049E-03    0.31372E-04  8424   0.283E-03 0.400E-03
CGA: 113    -0.668753046618E+03   -0.41865E-03    0.33747E-04  8424   0.273E-03 0.126E-03
CGA: 114    -0.668753827324E+03   -0.78071E-03    0.29819E-04  8424   0.283E-03 0.395E-03
CGA: 115    -0.668754200786E+03   -0.37346E-03    0.41967E-04  8424   0.269E-03 0.130E-03
CGA: 116    -0.668754974712E+03   -0.77393E-03    0.29487E-04  8424   0.283E-03 0.391E-03
CGA: 117    -0.668755412732E+03   -0.43802E-03    0.31348E-04  8424   0.264E-03 0.134E-03
CGA: 118    -0.668756203575E+03   -0.79084E-03    0.28142E-04  8424   0.282E-03 0.388E-03
CGA: 119    -0.668756585070E+03   -0.38150E-03    0.39738E-04  8424   0.261E-03 0.137E-03
CGA: 120    -0.668757371482E+03   -0.78641E-03    0.28189E-04  8424   0.281E-03 0.387E-03
CGA: 121    -0.668757826738E+03   -0.45526E-03    0.28764E-04  8424   0.259E-03 0.140E-03
CGA: 122    -0.668758635584E+03   -0.80885E-03    0.27031E-04  8424   0.280E-03 0.387E-03
CGA: 123    -0.668759023888E+03   -0.38830E-03    0.37461E-04  8424   0.258E-03 0.142E-03
CGA: 124    -0.668759478264E+03   -0.45438E-03    0.23061E-04  8424   0.243E-03 0.160E-03
CGA: 125    -0.668759885310E+03   -0.40705E-03    0.23664E-04  8424   0.234E-03 0.172E-03
CGA: 126    -0.668760329901E+03   -0.44459E-03    0.18749E-04  8424   0.229E-03 0.179E-03
CGA: 127    -0.668760749793E+03   -0.41989E-03    0.19269E-04  8424   0.226E-03 0.184E-03
CGA: 128    -0.668761190818E+03   -0.44102E-03    0.17303E-04  8424   0.224E-03 0.186E-03
CGA: 129    -0.668761620402E+03   -0.42958E-03    0.17711E-04  8424   0.224E-03 0.187E-03
CGA: 130    -0.668762059677E+03   -0.43927E-03    0.17090E-04  8424   0.225E-03 0.187E-03
CGA: 131    -0.668762497820E+03   -0.43814E-03    0.17297E-04  8424   0.227E-03 0.185E-03
CGA: 132    -0.668762934486E+03   -0.43667E-03    0.17703E-04  8424   0.229E-03 0.183E-03
CGA: 133    -0.668763381734E+03   -0.44725E-03    0.17563E-04  8424   0.233E-03 0.180E-03
CGA: 134    -0.668763813670E+03   -0.43194E-03    0.19226E-04  8424   0.237E-03 0.175E-03
CGA: 135    -0.668764271721E+03   -0.45805E-03    0.18495E-04  8424   0.243E-03 0.169E-03
CGA: 136    -0.668764696227E+03   -0.42451E-03    0.22148E-04  8424   0.251E-03 0.162E-03
CGA: 137    -0.668765167404E+03   -0.47118E-03    0.20456E-04  8424   0.262E-03 0.153E-03
CGA: 138    -0.668765581028E+03   -0.41362E-03    0.27961E-04  8424   0.276E-03 0.140E-03
CGA: 139    -0.668766068244E+03   -0.48722E-03    0.24651E-04  8424   0.296E-03 0.123E-03
CGA: 140    -0.668767001697E+03   -0.93345E-03    0.27850E-04  8424   0.276E-03 0.425E-03
CGA: 141    -0.668767416039E+03   -0.41434E-03    0.32050E-04  8424   0.294E-03 0.122E-03
CGA: 142    -0.668768367847E+03   -0.95181E-03    0.26602E-04  8424   0.275E-03 0.422E-03
CGA: 143    -0.668768854420E+03   -0.48657E-03    0.24586E-04  8424   0.289E-03 0.122E-03
CGA: 144    -0.668769791610E+03   -0.93719E-03    0.26135E-04  8424   0.276E-03 0.415E-03
CGA: 145    -0.668770223477E+03   -0.43187E-03    0.29842E-04  8424   0.284E-03 0.122E-03
CGA: 146    -0.668771169521E+03   -0.94604E-03    0.24740E-04  8424   0.275E-03 0.408E-03
CGA: 147    -0.668771652831E+03   -0.48331E-03    0.24829E-04  8424   0.278E-03 0.122E-03
CGA: 148    -0.668772582069E+03   -0.92924E-03    0.24118E-04  8424   0.275E-03 0.400E-03
CGA: 149    -0.668773031515E+03   -0.44945E-03    0.27729E-04  8424   0.272E-03 0.123E-03
CGA: 150    -0.668773965500E+03   -0.93398E-03    0.22895E-04  8424   0.273E-03 0.392E-03
CGA: 151    -0.668774444737E+03   -0.47924E-03    0.24706E-04  8424   0.266E-03 0.124E-03
CGA: 152    -0.668775364928E+03   -0.92019E-03    0.22336E-04  8424   0.271E-03 0.385E-03
CGA: 153    -0.668775829797E+03   -0.46487E-03    0.25442E-04  8424   0.260E-03 0.125E-03
CGA: 154    -0.668776755412E+03   -0.92562E-03    0.21375E-04  8424   0.269E-03 0.379E-03
CGA: 155    -0.668777231398E+03   -0.47599E-03    0.23918E-04  8424   0.255E-03 0.127E-03
CGA: 156    -0.668778147655E+03   -0.91626E-03    0.20974E-04  8424   0.266E-03 0.373E-03
CGA: 157    -0.668778625028E+03   -0.47737E-03    0.23170E-04  8424   0.250E-03 0.129E-03
CGA: 158    -0.668779549170E+03   -0.92414E-03    0.20231E-04  8424   0.263E-03 0.369E-03
CGA: 159    -0.668780023257E+03   -0.47409E-03    0.22735E-04  8424   0.246E-03 0.130E-03
CGA: 160    -0.668780941041E+03   -0.91778E-03    0.19969E-04  8424   0.260E-03 0.366E-03
CGA: 161    -0.668781428555E+03   -0.48751E-03    0.21156E-04  8424   0.242E-03 0.131E-03
CGA: 162    -0.668781905942E+03   -0.47739E-03    0.18361E-04  8424   0.231E-03 0.145E-03
CGA: 163    -0.668782385947E+03   -0.48001E-03    0.16112E-04  8424   0.223E-03 0.154E-03
CGA: 164    -0.668782870075E+03   -0.48413E-03    0.14632E-04  8424   0.218E-03 0.160E-03
CGA: 165    -0.668783346911E+03   -0.47684E-03    0.14133E-04  8424   0.215E-03 0.164E-03
CGA: 166    -0.668783836947E+03   -0.49004E-03    0.13153E-04  8424   0.213E-03 0.166E-03
CGA: 167    -0.668784311345E+03   -0.47440E-03    0.13541E-04  8424   0.213E-03 0.166E-03
CGA: 168    -0.668784807423E+03   -0.49608E-03    0.12701E-04  8424   0.214E-03 0.165E-03
CGA: 169    -0.668785278157E+03   -0.47073E-03    0.13813E-04  8424   0.216E-03 0.163E-03
CGA: 170    -0.668785781037E+03   -0.50288E-03    0.12890E-04  8424   0.219E-03 0.160E-03
CGA: 171    -0.668786246059E+03   -0.46502E-03    0.14901E-04  8424   0.224E-03 0.156E-03
CGA: 172    -0.668786757134E+03   -0.51107E-03    0.13690E-04  8424   0.230E-03 0.150E-03
CGA: 173    -0.668787214142E+03   -0.45701E-03    0.17088E-04  8424   0.237E-03 0.142E-03
CGA: 174    -0.668787735323E+03   -0.52118E-03    0.15299E-04  8424   0.246E-03 0.133E-03
CGA: 175    -0.668788181701E+03   -0.44638E-03    0.21157E-04  8424   0.258E-03 0.122E-03
CGA: 176    -0.668789192996E+03   -0.10113E-02    0.19681E-04  8424   0.245E-03 0.385E-03
CGA: 177    -0.668789718798E+03   -0.52580E-03    0.16317E-04  8424   0.256E-03 0.122E-03
CGA: 178    -0.668790722638E+03   -0.10038E-02    0.19546E-04  8424   0.243E-03 0.382E-03
CGA: 179    -0.668791177703E+03   -0.45507E-03    0.19871E-04  8424   0.253E-03 0.122E-03
CGA: 180    -0.668791707894E+03   -0.53019E-03    0.17510E-04  8424   0.264E-03 0.111E-03
CGA: 181    -0.668792714198E+03   -0.10063E-02    0.19083E-04  8424   0.253E-03 0.379E-03
CGA: 182    -0.668793167770E+03   -0.45357E-03    0.22087E-04  8424   0.264E-03 0.109E-03
CGA: 183    -0.668794183766E+03   -0.10160E-02    0.18546E-04  8424   0.253E-03 0.377E-03
CGA: 184    -0.668794711502E+03   -0.52774E-03    0.17678E-04  8424   0.261E-03 0.109E-03
CGA: 185    -0.668795714690E+03   -0.10032E-02    0.18253E-04  8424   0.254E-03 0.371E-03
CGA: 186    -0.668796176794E+03   -0.46210E-03    0.21572E-04  8424   0.259E-03 0.107E-03
CGA: 187    -0.668797184120E+03   -0.10073E-02    0.17707E-04  8424   0.254E-03 0.367E-03
CGA: 188    -0.668797708551E+03   -0.52443E-03    0.17883E-04  8424   0.255E-03 0.107E-03
CGA: 189    -0.668798703852E+03   -0.99530E-03    0.17395E-04  8424   0.253E-03 0.362E-03
CGA: 190    -0.668799174761E+03   -0.47091E-03    0.20902E-04  8424   0.252E-03 0.107E-03
CGA: 191    -0.668800171526E+03   -0.99676E-03    0.16900E-04  8424   0.253E-03 0.358E-03
CGA: 192    -0.668800692118E+03   -0.52059E-03    0.17877E-04  8424   0.248E-03 0.108E-03
CGA: 193    -0.668801678464E+03   -0.98635E-03    0.16604E-04  8424   0.251E-03 0.353E-03
CGA: 194    -0.668802157839E+03   -0.47938E-03    0.19926E-04  8424   0.245E-03 0.108E-03
CGA: 195    -0.668803145133E+03   -0.98729E-03    0.16182E-04  8424   0.249E-03 0.349E-03
CGA: 196    -0.668803661796E+03   -0.51666E-03    0.17534E-04  8424   0.240E-03 0.110E-03
CGA: 197    -0.668804640741E+03   -0.97895E-03    0.15930E-04  8424   0.247E-03 0.345E-03
CGA: 198    -0.668805127732E+03   -0.48699E-03    0.18712E-04  8424   0.237E-03 0.111E-03
CGA: 199    -0.668806108350E+03   -0.98062E-03    0.15577E-04  8424   0.245E-03 0.342E-03
CGA: 200    -0.668806621315E+03   -0.51296E-03    0.16928E-04  8424   0.233E-03 0.113E-03
   1 F= -.66880662E+03 E0= -.66880662E+03  d E =-.668807E+03  mag=     2.0000
       N       E                     dE             d eps       ncg     rms          ort
SDA:   1    -0.668809812568E+03   -0.37042E-02    0.00000E+00  8424   0.597E-02 0.000E+00
CGA:   2    -0.668811297956E+03   -0.14854E-02   -0.13985E-02  8424   0.348E-02-0.104E-02
CGA:   3    -0.668812100318E+03   -0.80236E-03   -0.15401E-02  8424   0.766E-02-0.332E-02
CGA:   4    -0.668813209799E+03   -0.11095E-02   -0.99754E-03  8424   0.173E-02-0.577E-03
CGA:   5    -0.668812201591E+03    0.10082E-02   -0.14231E-02  8424   0.215E-01-0.426E-02
CGA:   6    -0.668814839566E+03   -0.26380E-02   -0.25579E-02  8424   0.266E-02-0.361E-03
CGA:   7    -0.668815782350E+03   -0.94278E-03   -0.11597E-02  8424   0.301E-02-0.195E-02
CGA:   8    -0.668816529434E+03   -0.74708E-03   -0.64473E-03  8424   0.119E-02-0.830E-03
CGA:   9    -0.668817261029E+03   -0.73159E-03    0.51120E-03  8424   0.828E-03-0.372E-03
CGA:  10    -0.668818367342E+03   -0.11063E-02    0.48968E-04  8424   0.433E-03 0.301E-03
CGA:  11    -0.668819473243E+03   -0.11059E-02    0.53817E-04  8424   0.417E-03 0.186E-03
CGA:  12    -0.668821040393E+03   -0.15672E-02    0.33251E-04  8424   0.363E-03 0.378E-03
CGA:  13    -0.668821633583E+03   -0.59319E-03    0.41092E-04  8424   0.215E-03 0.123E-03
CGA:  14    -0.668822455594E+03   -0.82201E-03    0.14381E-04  8424   0.228E-03 0.221E-03
CGA:  15    -0.668823003216E+03   -0.54762E-03    0.14398E-04  8424   0.176E-03 0.161E-03
CGA:  16    -0.668823527045E+03   -0.52383E-03    0.83833E-05  8424   0.177E-03 0.161E-03
CGA:  17    -0.668824063053E+03   -0.53601E-03    0.82643E-05  8424   0.184E-03 0.156E-03
CGA:  18    -0.668824577637E+03   -0.51458E-03    0.95170E-05  8424   0.198E-03 0.145E-03
CGA:  19    -0.668825116538E+03   -0.53890E-03    0.10594E-04  8424   0.224E-03 0.125E-03
CGA:  20    -0.668825617323E+03   -0.50079E-03    0.15694E-04  8424   0.273E-03 0.890E-04
CGA:  21    -0.668826801142E+03   -0.11838E-02    0.17254E-04  8424   0.227E-03 0.376E-03
CGA:  22    -0.668827340074E+03   -0.53893E-03    0.14553E-04  8424   0.263E-03 0.881E-04
CGA:  23    -0.668828484099E+03   -0.11440E-02    0.16265E-04  8424   0.231E-03 0.361E-03
CGA:  24    -0.668828987661E+03   -0.50356E-03    0.16848E-04  8424   0.253E-03 0.865E-04
CGA:  25    -0.668830091662E+03   -0.11040E-02    0.15258E-04  8424   0.236E-03 0.345E-03
CGA:  26    -0.668830634555E+03   -0.54289E-03    0.15840E-04  8424   0.245E-03 0.851E-04
CGA:  27    -0.668831709221E+03   -0.10747E-02    0.14365E-04  8424   0.238E-03 0.331E-03
CGA:  28    -0.668832207563E+03   -0.49834E-03    0.18285E-04  8424   0.236E-03 0.861E-04
CGA:  29    -0.668833244747E+03   -0.10372E-02    0.13779E-04  8424   0.236E-03 0.319E-03
CGA:  30    -0.668833794499E+03   -0.54975E-03    0.15613E-04  8424   0.225E-03 0.898E-04
CGA:  31    -0.668834817459E+03   -0.10230E-02    0.13045E-04  8424   0.231E-03 0.308E-03
CGA:  32    -0.668835308770E+03   -0.49131E-03    0.17458E-04  8424   0.215E-03 0.949E-04
CGA:  33    -0.668836303341E+03   -0.99457E-03    0.12777E-04  8424   0.225E-03 0.300E-03
CGA:  34    -0.668836856921E+03   -0.55358E-03    0.13822E-04  8424   0.206E-03 0.100E-03
CGA:  35    -0.668837852990E+03   -0.99607E-03    0.12253E-04  8424   0.219E-03 0.294E-03
CGA:  36    -0.668838337254E+03   -0.48426E-03    0.15594E-04  8424   0.200E-03 0.104E-03
CGA:  37    -0.668839315727E+03   -0.97847E-03    0.12216E-04  8424   0.213E-03 0.291E-03
CGA:  38    -0.668839871792E+03   -0.55606E-03    0.12103E-04  8424   0.194E-03 0.108E-03
CGA:  39    -0.668840359740E+03   -0.48795E-03    0.11563E-04  8424   0.185E-03 0.120E-03
CGA:  40    -0.668840896658E+03   -0.53692E-03    0.90682E-05  8424   0.179E-03 0.127E-03
CGA:  41    -0.668841395943E+03   -0.49929E-03    0.93160E-05  8424   0.176E-03 0.130E-03
CGA:  42    -0.668841922645E+03   -0.52670E-03    0.83390E-05  8424   0.174E-03 0.132E-03
CGA:  43    -0.668842429459E+03   -0.50681E-03    0.85699E-05  8424   0.174E-03 0.133E-03
CGA:  44    -0.668842948264E+03   -0.51881E-03    0.82370E-05  8424   0.174E-03 0.132E-03
CGA:  45    -0.668843461158E+03   -0.51289E-03    0.83654E-05  8424   0.174E-03 0.131E-03
CGA:  46    -0.668843971427E+03   -0.51027E-03    0.84920E-05  8424   0.176E-03 0.129E-03
CGA:  47    -0.668844490721E+03   -0.51929E-03    0.84247E-05  8424   0.177E-03 0.127E-03
CGA:  48    -0.668844990632E+03   -0.49991E-03    0.90278E-05  8424   0.179E-03 0.124E-03
CGA:  49    -0.668845517668E+03   -0.52704E-03    0.86396E-05  8424   0.181E-03 0.121E-03
CGA:  50    -0.668846005195E+03   -0.48753E-03    0.98585E-05  8424   0.184E-03 0.117E-03
CGA:  51    -0.668846541675E+03   -0.53648E-03    0.90329E-05  8424   0.188E-03 0.112E-03
CGA:  52    -0.668847014650E+03   -0.47298E-03    0.11225E-04  8424   0.194E-03 0.106E-03
CGA:  53    -0.668847562844E+03   -0.54819E-03    0.98985E-05  8424   0.203E-03 0.982E-04
CGA:  54    -0.668848017351E+03   -0.45451E-03    0.14183E-04  8424   0.217E-03 0.861E-04
CGA:  55    -0.668849078030E+03   -0.10607E-02    0.12296E-04  8424   0.202E-03 0.306E-03
CGA:  56    -0.668849626566E+03   -0.54854E-03    0.10840E-04  8424   0.213E-03 0.848E-04
CGA:  57    -0.668850660477E+03   -0.10339E-02    0.12101E-04  8424   0.202E-03 0.300E-03
CGA:  58    -0.668851122218E+03   -0.46174E-03    0.13632E-04  8424   0.207E-03 0.839E-04
CGA:  59    -0.668852147970E+03   -0.10258E-02    0.11394E-04  8424   0.201E-03 0.291E-03
CGA:  60    -0.668852679251E+03   -0.53128E-03    0.11125E-04  8424   0.201E-03 0.834E-04
CGA:  61    -0.668853672941E+03   -0.99369E-03    0.11056E-04  8424   0.199E-03 0.282E-03
CGA:  62    -0.668854141437E+03   -0.46850E-03    0.12951E-04  8424   0.195E-03 0.830E-04
CGA:  63    -0.668855127080E+03   -0.98564E-03    0.10510E-04  8424   0.196E-03 0.275E-03
CGA:  64    -0.668855641614E+03   -0.51453E-03    0.11051E-04  8424   0.190E-03 0.831E-04
CGA:  65    -0.668856604822E+03   -0.96321E-03    0.10238E-04  8424   0.193E-03 0.268E-03
CGA:  66    -0.668857076842E+03   -0.47202E-03    0.11968E-04  8424   0.185E-03 0.829E-04
CGA:  67    -0.668858036348E+03   -0.95951E-03    0.98601E-05  8424   0.190E-03 0.263E-03
CGA:  68    -0.668858536354E+03   -0.50001E-03    0.10606E-04  8424   0.181E-03 0.830E-04
CGA:  69    -0.668859481031E+03   -0.94468E-03    0.96624E-05  8424   0.186E-03 0.259E-03
CGA:  70    -0.668859953613E+03   -0.47258E-03    0.10949E-04  8424   0.178E-03 0.826E-04
CGA:  71    -0.668860897383E+03   -0.94377E-03    0.93700E-05  8424   0.183E-03 0.255E-03
CGA:  72    -0.668861384792E+03   -0.48741E-03    0.10028E-04  8424   0.174E-03 0.823E-04
CGA:  73    -0.668862316346E+03   -0.93155E-03    0.91945E-05  8424   0.179E-03 0.251E-03
CGA:  74    -0.668862787035E+03   -0.47069E-03    0.10032E-04  8424   0.171E-03 0.815E-04
CGA:  75    -0.668863717577E+03   -0.93054E-03    0.89167E-05  8424   0.175E-03 0.247E-03
CGA:  76    -0.668864192940E+03   -0.47536E-03    0.94343E-05  8424   0.167E-03 0.809E-04
CGA:  77    -0.668865110490E+03   -0.91755E-03    0.87333E-05  8424   0.172E-03 0.243E-03
CGA:  78    -0.668865577667E+03   -0.46718E-03    0.91990E-05  8424   0.164E-03 0.800E-04
CGA:  79    -0.668866493324E+03   -0.91566E-03    0.84460E-05  8424   0.168E-03 0.239E-03
CGA:  80    -0.668866956175E+03   -0.46285E-03    0.88564E-05  8424   0.161E-03 0.794E-04
CGA:  81    -0.668867857269E+03   -0.90109E-03    0.82626E-05  8424   0.164E-03 0.234E-03
CGA:  82    -0.668868320350E+03   -0.46308E-03    0.84113E-05  8424   0.157E-03 0.785E-04
CGA:  83    -0.668869219336E+03   -0.89899E-03    0.79678E-05  8424   0.161E-03 0.230E-03
CGA:  84    -0.668869668771E+03   -0.44943E-03    0.82963E-05  8424   0.153E-03 0.779E-04
CGA:  85    -0.668870551860E+03   -0.88309E-03    0.77963E-05  8424   0.157E-03 0.225E-03
CGA:  86    -0.668871010898E+03   -0.45904E-03    0.76444E-05  8424   0.150E-03 0.771E-04
CGA:  87    -0.668871892142E+03   -0.88124E-03    0.75005E-05  8424   0.153E-03 0.221E-03
CGA:  88    -0.668872327206E+03   -0.43506E-03    0.77459E-05  8424   0.146E-03 0.765E-04
CGA:  89    -0.668873191609E+03   -0.86440E-03    0.73444E-05  8424   0.149E-03 0.216E-03
CGA:  90    -0.668873646798E+03   -0.45519E-03    0.68898E-05  8424   0.142E-03 0.759E-04
CGA:  91    -0.668874076498E+03   -0.42970E-03    0.66589E-05  8424   0.138E-03 0.794E-04
CGA:  92    -0.668874519671E+03   -0.44317E-03    0.59925E-05  8424   0.135E-03 0.814E-04
CGA:  93    -0.668874953027E+03   -0.43336E-03    0.58805E-05  8424   0.133E-03 0.824E-04
CGA:  94    -0.668875386986E+03   -0.43396E-03    0.56681E-05  8424   0.132E-03 0.827E-04
CGA:  95    -0.668875822547E+03   -0.43556E-03    0.55128E-05  8424   0.131E-03 0.824E-04
CGA:  96    -0.668876248274E+03   -0.42573E-03    0.55933E-05  8424   0.131E-03 0.815E-04
CGA:  97    -0.668876685302E+03   -0.43703E-03    0.53845E-05  8424   0.131E-03 0.801E-04
CGA:  98    -0.668877103009E+03   -0.41771E-03    0.57114E-05  8424   0.132E-03 0.783E-04
CGA:  99    -0.668877541177E+03   -0.43817E-03    0.54315E-05  8424   0.133E-03 0.761E-04
CGA: 100    -0.668877950809E+03   -0.40963E-03    0.60119E-05  8424   0.134E-03 0.734E-04
CGA: 101    -0.668878389950E+03   -0.43914E-03    0.56406E-05  8424   0.136E-03 0.703E-04
CGA: 102    -0.668878791503E+03   -0.40155E-03    0.65215E-05  8424   0.138E-03 0.666E-04
CGA: 103    -0.668879643359E+03   -0.85186E-03    0.65365E-05  8424   0.133E-03 0.204E-03
CGA: 104    -0.668880076635E+03   -0.43328E-03    0.56364E-05  8424   0.135E-03 0.650E-04
CGA: 105    -0.668880914012E+03   -0.83738E-03    0.63560E-05  8424   0.130E-03 0.200E-03
CGA: 106    -0.668881307168E+03   -0.39316E-03    0.60867E-05  8424   0.132E-03 0.635E-04
CGA: 107    -0.668882135803E+03   -0.82863E-03    0.60894E-05  8424   0.128E-03 0.195E-03
CGA: 108    -0.668882555197E+03   -0.41939E-03    0.53531E-05  8424   0.129E-03 0.621E-04
CGA: 109    -0.668883365706E+03   -0.81051E-03    0.58944E-05  8424   0.125E-03 0.190E-03
CGA: 110    -0.668883751528E+03   -0.38582E-03    0.56851E-05  8424   0.126E-03 0.606E-04
CGA: 111    -0.668884553417E+03   -0.80189E-03    0.56420E-05  8424   0.123E-03 0.185E-03
CGA: 112    -0.668884957949E+03   -0.40453E-03    0.51151E-05  8424   0.122E-03 0.593E-04
CGA: 113    -0.668885741314E+03   -0.78337E-03    0.54623E-05  8424   0.120E-03 0.180E-03
CGA: 114    -0.668886120619E+03   -0.37930E-03    0.52996E-05  8424   0.119E-03 0.579E-04
CGA: 115    -0.668886896124E+03   -0.77551E-03    0.52289E-05  8424   0.118E-03 0.175E-03
CGA: 116    -0.668887285265E+03   -0.38914E-03    0.48969E-05  8424   0.116E-03 0.566E-04
CGA: 117    -0.668888042528E+03   -0.75726E-03    0.50703E-05  8424   0.115E-03 0.171E-03
CGA: 118    -0.668888415870E+03   -0.37334E-03    0.49187E-05  8424   0.113E-03 0.553E-04
CGA: 119    -0.668889166147E+03   -0.75028E-03    0.48522E-05  8424   0.113E-03 0.166E-03
CGA: 120    -0.668889539554E+03   -0.37341E-03    0.46811E-05  8424   0.110E-03 0.541E-04
CGA: 121    -0.668890271755E+03   -0.73220E-03    0.47121E-05  8424   0.110E-03 0.162E-03
CGA: 122    -0.668890639510E+03   -0.36775E-03    0.45342E-05  8424   0.108E-03 0.529E-04
CGA: 123    -0.668891365485E+03   -0.72597E-03    0.45047E-05  8424   0.108E-03 0.158E-03
CGA: 124    -0.668891722883E+03   -0.35740E-03    0.44557E-05  8424   0.105E-03 0.518E-04
CGA: 125    -0.668892430809E+03   -0.70793E-03    0.43793E-05  8424   0.105E-03 0.154E-03
CGA: 126    -0.668892793201E+03   -0.36239E-03    0.41424E-05  8424   0.102E-03 0.508E-04
CGA: 127    -0.668893495464E+03   -0.70226E-03    0.41804E-05  8424   0.102E-03 0.150E-03
CGA: 128    -0.668893836709E+03   -0.34124E-03    0.42113E-05  8424   0.990E-04 0.499E-04
CGA: 129    -0.668894521062E+03   -0.68435E-03    0.40662E-05  8424   0.995E-04 0.145E-03
CGA: 130    -0.668894878106E+03   -0.35704E-03    0.37440E-05  8424   0.961E-04 0.490E-04
CGA: 131    -0.668895557109E+03   -0.67900E-03    0.38762E-05  8424   0.967E-04 0.142E-03
CGA: 132    -0.668895882303E+03   -0.32519E-03    0.39396E-05  8424   0.931E-04 0.482E-04
CGA: 133    -0.668896543880E+03   -0.66158E-03    0.37697E-05  8424   0.937E-04 0.138E-03
CGA: 134    -0.668896895273E+03   -0.35139E-03    0.33432E-05  8424   0.901E-04 0.476E-04
CGA: 135    -0.668897213858E+03   -0.31859E-03    0.34552E-05  8424   0.879E-04 0.489E-04
CGA: 136    -0.668897554464E+03   -0.34061E-03    0.30167E-05  8424   0.863E-04 0.495E-04
CGA: 137    -0.668897875670E+03   -0.32121E-03    0.31092E-05  8424   0.851E-04 0.498E-04
CGA: 138    -0.668898206819E+03   -0.33115E-03    0.29005E-05  8424   0.842E-04 0.496E-04
CGA: 139    -0.668898529789E+03   -0.32297E-03    0.29202E-05  8424   0.836E-04 0.492E-04
CGA: 140    -0.668898852103E+03   -0.32231E-03    0.28796E-05  8424   0.832E-04 0.484E-04
CGA: 141    -0.668899176365E+03   -0.32426E-03    0.28331E-05  8424   0.831E-04 0.474E-04
CGA: 142    -0.668899490046E+03   -0.31368E-03    0.29410E-05  8424   0.833E-04 0.462E-04
CGA: 143    -0.668899815432E+03   -0.32539E-03    0.28249E-05  8424   0.836E-04 0.447E-04
CGA: 144    -0.668900120455E+03   -0.30502E-03    0.30865E-05  8424   0.843E-04 0.429E-04
CGA: 145    -0.668900446972E+03   -0.32652E-03    0.28903E-05  8424   0.852E-04 0.409E-04
CGA: 146    -0.668901074951E+03   -0.62798E-03    0.32412E-05  8424   0.819E-04 0.125E-03
CGA: 147    -0.668901372098E+03   -0.29715E-03    0.30439E-05  8424   0.830E-04 0.395E-04
CGA: 148    -0.668901994401E+03   -0.62230E-03    0.30813E-05  8424   0.796E-04 0.122E-03
CGA: 149    -0.668902305331E+03   -0.31093E-03    0.27043E-05  8424   0.802E-04 0.383E-04
CGA: 150    -0.668902908900E+03   -0.60357E-03    0.29593E-05  8424   0.774E-04 0.117E-03
CGA: 151    -0.668903199053E+03   -0.29015E-03    0.27599E-05  8424   0.777E-04 0.371E-04
CGA: 152    -0.668903795191E+03   -0.59614E-03    0.27963E-05  8424   0.752E-04 0.114E-03
CGA: 153    -0.668904090153E+03   -0.29496E-03    0.25380E-05  8424   0.750E-04 0.359E-04
CGA: 154    -0.668904667908E+03   -0.57775E-03    0.26832E-05  8424   0.730E-04 0.110E-03
CGA: 155    -0.668904951483E+03   -0.28358E-03    0.24949E-05  8424   0.725E-04 0.348E-04
CGA: 156    -0.668905521584E+03   -0.57010E-03    0.25300E-05  8424   0.709E-04 0.106E-03
CGA: 157    -0.668905800655E+03   -0.27907E-03    0.23822E-05  8424   0.700E-04 0.337E-04
CGA: 158    -0.668906353021E+03   -0.55237E-03    0.24286E-05  8424   0.687E-04 0.102E-03
CGA: 159    -0.668906630258E+03   -0.27724E-03    0.22462E-05  8424   0.676E-04 0.326E-04
CGA: 160    -0.668907175277E+03   -0.54502E-03    0.22885E-05  8424   0.667E-04 0.986E-04
CGA: 161    -0.668907438823E+03   -0.26355E-03    0.22300E-05  8424   0.653E-04 0.317E-04
CGA: 162    -0.668907966807E+03   -0.52798E-03    0.21990E-05  8424   0.646E-04 0.951E-04
CGA: 163    -0.668908237800E+03   -0.27099E-03    0.20117E-05  8424   0.630E-04 0.308E-04
CGA: 164    -0.668908758887E+03   -0.52109E-03    0.20723E-05  8424   0.625E-04 0.918E-04
CGA: 165    -0.668909007435E+03   -0.24855E-03    0.20771E-05  8424   0.607E-04 0.299E-04
CGA: 166    -0.668909512250E+03   -0.50481E-03    0.19945E-05  8424   0.604E-04 0.886E-04
CGA: 167    -0.668909777010E+03   -0.26476E-03    0.17904E-05  8424   0.585E-04 0.292E-04
CGA: 168    -0.668910275429E+03   -0.49842E-03    0.18812E-05  8424   0.584E-04 0.856E-04
CGA: 169    -0.668910509619E+03   -0.23419E-03    0.19220E-05  8424   0.564E-04 0.285E-04
CGA: 170    -0.668910992677E+03   -0.48306E-03    0.18143E-05  8424   0.564E-04 0.827E-04
CGA: 171    -0.668911251145E+03   -0.25847E-03    0.15830E-05  8424   0.543E-04 0.279E-04
CGA: 172    -0.668911728207E+03   -0.47706E-03    0.17145E-05  8424   0.544E-04 0.799E-04
CGA: 173    -0.668911948817E+03   -0.22061E-03    0.17643E-05  8424   0.523E-04 0.273E-04
CGA: 174    -0.668912199544E+03   -0.25073E-03    0.13965E-05  8424   0.510E-04 0.279E-04
CGA: 175    -0.668912421939E+03   -0.22240E-03    0.15215E-05  8424   0.500E-04 0.282E-04
CGA: 176    -0.668912664415E+03   -0.24248E-03    0.13166E-05  8424   0.492E-04 0.283E-04
CGA: 177    -0.668912888102E+03   -0.22369E-03    0.13936E-05  8424   0.485E-04 0.283E-04
CGA: 178    -0.668913123040E+03   -0.23494E-03    0.12776E-05  8424   0.480E-04 0.281E-04
CGA: 179    -0.668913347536E+03   -0.22450E-03    0.13147E-05  8424   0.476E-04 0.278E-04
CGA: 180    -0.668913575353E+03   -0.22782E-03    0.12691E-05  8424   0.473E-04 0.273E-04
CGA: 181    -0.668913800398E+03   -0.22504E-03    0.12704E-05  8424   0.471E-04 0.268E-04
CGA: 182    -0.668914021320E+03   -0.22092E-03    0.12877E-05  8424   0.470E-04 0.261E-04
CGA: 183    -0.668914246800E+03   -0.22548E-03    0.12536E-05  8424   0.471E-04 0.254E-04
CGA: 184    -0.668914460963E+03   -0.21416E-03    0.13340E-05  8424   0.472E-04 0.245E-04
CGA: 185    -0.668914686829E+03   -0.22587E-03    0.12632E-05  8424   0.475E-04 0.236E-04
CGA: 186    -0.668915122458E+03   -0.43563E-03    0.14385E-05  8424   0.458E-04 0.704E-04
CGA: 187    -0.668915330225E+03   -0.20777E-03    0.13047E-05  8424   0.462E-04 0.227E-04
CGA: 188    -0.668915760559E+03   -0.43033E-03    0.13694E-05  8424   0.445E-04 0.684E-04
CGA: 189    -0.668915974044E+03   -0.21348E-03    0.11863E-05  8424   0.446E-04 0.221E-04
CGA: 190    -0.668916390165E+03   -0.41612E-03    0.13209E-05  8424   0.433E-04 0.661E-04
CGA: 191    -0.668916592127E+03   -0.20196E-03    0.11903E-05  8424   0.433E-04 0.214E-04
CGA: 192    -0.668917002371E+03   -0.41024E-03    0.12547E-05  8424   0.421E-04 0.640E-04
CGA: 193    -0.668917203525E+03   -0.20115E-03    0.11266E-05  8424   0.419E-04 0.208E-04
CGA: 194    -0.668917600207E+03   -0.39668E-03    0.12146E-05  8424   0.410E-04 0.619E-04
CGA: 195    -0.668917797057E+03   -0.19685E-03    0.10902E-05  8424   0.407E-04 0.202E-04
CGA: 196    -0.668918188229E+03   -0.39117E-03    0.11556E-05  8424   0.399E-04 0.601E-04
CGA: 197    -0.668918377437E+03   -0.18921E-03    0.10785E-05  8424   0.394E-04 0.197E-04
CGA: 198    -0.668918755815E+03   -0.37838E-03    0.11234E-05  8424   0.389E-04 0.582E-04
CGA: 199    -0.668918948069E+03   -0.19225E-03    0.10013E-05  8424   0.383E-04 0.192E-04
CGA: 200    -0.668919321522E+03   -0.37345E-03    0.10717E-05  8424   0.379E-04 0.566E-04
   2 F= -.66891932E+03 E0= -.66891932E+03  d E =-.112700E+00  mag=     2.0000
       N       E                     dE             d eps       ncg     rms          ort
SDA:   1    -0.668732185351E+03    0.18676E+00    0.00000E+00  8424   0.533E+00 0.000E+00
CGA:   2    -0.668877553879E+03   -0.14537E+00   -0.14534E+00  8424   0.286E+00-0.566E-03
CGA:   3    -0.668930464850E+03   -0.52911E-01   -0.52917E-01  8424   0.639E-01-0.111E-04
CGA:   4    -0.668940769430E+03   -0.10305E-01   -0.10245E-01  8424   0.147E-01-0.377E-03
CGA:   5    -0.668943471215E+03   -0.27018E-02   -0.26431E-02  8424   0.328E-02-0.446E-03
CGA:   6    -0.668944236787E+03   -0.76557E-03   -0.73356E-03  8424   0.103E-02-0.422E-03
CGA:   7    -0.668944505866E+03   -0.26908E-03   -0.38002E-03  8424   0.182E-02-0.925E-03
CGA:   8    -0.668944824887E+03   -0.31902E-03   -0.28744E-03  8424   0.293E-03-0.209E-03
CGA:   9    -0.668945053871E+03   -0.22898E-03    0.84053E-04  8424   0.121E-03-0.442E-04
CGA:  10    -0.668945296053E+03   -0.24218E-03    0.53735E-05  8424   0.616E-04 0.188E-04
CGA:  11    -0.668945568980E+03   -0.27293E-03    0.19977E-05  8424   0.433E-04 0.447E-04
CGA:  12    -0.668945725294E+03   -0.15631E-03    0.13097E-05  8424   0.348E-04 0.226E-04
CGA:  13    -0.668945874746E+03   -0.14945E-03    0.85985E-06  8424   0.344E-04 0.219E-04
CGA:  14    -0.668946023869E+03   -0.14912E-03    0.83779E-06  8424   0.364E-04 0.203E-04
CGA:  15    -0.668946174354E+03   -0.15048E-03    0.93712E-06  8424   0.421E-04 0.162E-04
CGA:  16    -0.668946490832E+03   -0.31648E-03    0.12063E-05  8424   0.358E-04 0.583E-04
CGA:  17    -0.668946639266E+03   -0.14843E-03    0.91916E-06  8424   0.357E-04 0.184E-04
CGA:  18    -0.668946783369E+03   -0.14410E-03    0.94412E-06  8424   0.380E-04 0.165E-04
CGA:  19    -0.668947078793E+03   -0.29542E-03    0.10753E-05  8424   0.351E-04 0.544E-04
CGA:  20    -0.668947225259E+03   -0.14647E-03    0.89308E-06  8424   0.348E-04 0.174E-04
CGA:  21    -0.668947510206E+03   -0.28495E-03    0.96903E-06  8424   0.341E-04 0.508E-04
CGA:  22    -0.668947643289E+03   -0.13308E-03    0.93996E-06  8424   0.319E-04 0.185E-04
CGA:  23    -0.668947786057E+03   -0.14277E-03    0.75039E-06  8424   0.307E-04 0.194E-04
CGA:  24    -0.668947922664E+03   -0.13661E-03    0.72606E-06  8424   0.296E-04 0.202E-04
CGA:  25    -0.668948058586E+03   -0.13592E-03    0.67447E-06  8424   0.287E-04 0.209E-04
CGA:  26    -0.668948198074E+03   -0.13949E-03    0.61232E-06  8424   0.281E-04 0.214E-04
CGA:  27    -0.668948328618E+03   -0.13054E-03    0.63105E-06  8424   0.278E-04 0.216E-04
CGA:  28    -0.668948470037E+03   -0.14142E-03    0.56389E-06  8424   0.279E-04 0.214E-04
CGA:  29    -0.668948595962E+03   -0.12593E-03    0.64912E-06  8424   0.285E-04 0.208E-04
CGA:  30    -0.668948739670E+03   -0.14371E-03    0.58364E-06  8424   0.298E-04 0.196E-04
CGA:  31    -0.668948859616E+03   -0.11995E-03    0.79470E-06  8424   0.326E-04 0.175E-04
CGA:  32    -0.668949007679E+03   -0.14806E-03    0.75095E-06  8424   0.380E-04 0.134E-04
CGA:  33    -0.668949292920E+03   -0.28524E-03    0.10350E-05  8424   0.319E-04 0.528E-04
CGA:  34    -0.668949406842E+03   -0.11392E-03    0.98052E-06  8424   0.377E-04 0.131E-04
CGA:  35    -0.668949693970E+03   -0.28713E-03    0.10087E-05  8424   0.314E-04 0.521E-04
CGA:  36    -0.668949835208E+03   -0.14124E-03    0.73541E-06  8424   0.364E-04 0.131E-04
CGA:  37    -0.668950108190E+03   -0.27298E-03    0.99595E-06  8424   0.312E-04 0.504E-04
CGA:  38    -0.668950222296E+03   -0.11411E-03    0.92906E-06  8424   0.340E-04 0.133E-04
CGA:  39    -0.668950488008E+03   -0.26571E-03    0.90401E-06  8424   0.311E-04 0.476E-04
CGA:  40    -0.668950619339E+03   -0.13133E-03    0.77979E-06  8424   0.316E-04 0.137E-04
CGA:  41    -0.668950864967E+03   -0.24563E-03    0.86091E-06  8424   0.308E-04 0.449E-04
CGA:  42    -0.668950981586E+03   -0.11662E-03    0.88082E-06  8424   0.295E-04 0.141E-04
CGA:  43    -0.668951220846E+03   -0.23926E-03    0.78864E-06  8424   0.303E-04 0.426E-04
CGA:  44    -0.668951343007E+03   -0.12216E-03    0.80326E-06  8424   0.279E-04 0.145E-04
CGA:  45    -0.668951569416E+03   -0.22641E-03    0.76790E-06  8424   0.296E-04 0.408E-04
CGA:  46    -0.668951686564E+03   -0.11715E-03    0.80274E-06  8424   0.266E-04 0.149E-04
CGA:  47    -0.668951805904E+03   -0.11934E-03    0.62267E-06  8424   0.246E-04 0.171E-04
CGA:  48    -0.668951918520E+03   -0.11262E-03    0.56454E-06  8424   0.235E-04 0.184E-04
CGA:  49    -0.668952038612E+03   -0.12009E-03    0.47305E-06  8424   0.228E-04 0.191E-04
CGA:  50    -0.668952148704E+03   -0.11009E-03    0.49145E-06  8424   0.225E-04 0.195E-04
CGA:  51    -0.668952269209E+03   -0.12051E-03    0.42998E-06  8424   0.224E-04 0.195E-04
CGA:  52    -0.668952376872E+03   -0.10766E-03    0.48369E-06  8424   0.225E-04 0.194E-04
CGA:  53    -0.668952498416E+03   -0.12154E-03    0.42519E-06  8424   0.228E-04 0.190E-04
CGA:  54    -0.668952602439E+03   -0.10402E-03    0.52344E-06  8424   0.235E-04 0.184E-04
CGA:  55    -0.668952726477E+03   -0.12404E-03    0.45613E-06  8424   0.248E-04 0.173E-04
CGA:  56    -0.668952824414E+03   -0.97938E-04    0.67240E-06  8424   0.272E-04 0.154E-04
CGA:  57    -0.668952953701E+03   -0.12929E-03    0.59711E-06  8424   0.320E-04 0.118E-04
CGA:  58    -0.668953195129E+03   -0.24143E-03    0.89360E-06  8424   0.266E-04 0.451E-04
CGA:  59    -0.668953286753E+03   -0.91624E-04    0.85208E-06  8424   0.313E-04 0.118E-04
CGA:  60    -0.668953529579E+03   -0.24283E-03    0.86613E-06  8424   0.260E-04 0.445E-04
CGA:  61    -0.668953653843E+03   -0.12426E-03    0.56494E-06  8424   0.299E-04 0.122E-04
CGA:  62    -0.668953883817E+03   -0.22997E-03    0.86502E-06  8424   0.254E-04 0.433E-04
CGA:  63    -0.668953975447E+03   -0.91630E-04    0.76890E-06  8424   0.279E-04 0.128E-04
CGA:  64    -0.668954099652E+03   -0.12421E-03    0.65744E-06  8424   0.317E-04 0.958E-05
CGA:  65    -0.668954322987E+03   -0.22334E-03    0.83538E-06  8424   0.284E-04 0.420E-04
CGA:  66    -0.668954409049E+03   -0.86061E-04    0.10673E-05  8424   0.309E-04 0.904E-05
CGA:  67    -0.668954629013E+03   -0.21996E-03    0.77127E-06  8424   0.290E-04 0.402E-04
CGA:  68    -0.668954746967E+03   -0.11795E-03    0.76327E-06  8424   0.296E-04 0.880E-05
CGA:  69    -0.668954950836E+03   -0.20387E-03    0.74880E-06  8424   0.291E-04 0.381E-04
CGA:  70    -0.668955038553E+03   -0.87717E-04    0.10978E-05  8424   0.279E-04 0.913E-05
CGA:  71    -0.668955237444E+03   -0.19889E-03    0.69338E-06  8424   0.285E-04 0.364E-04
CGA:  72    -0.668955347379E+03   -0.10994E-03    0.79451E-06  8424   0.261E-04 0.998E-05
CGA:  73    -0.668955535311E+03   -0.18793E-03    0.67853E-06  8424   0.274E-04 0.350E-04
CGA:  74    -0.668955625247E+03   -0.89935E-04    0.93098E-06  8424   0.245E-04 0.110E-04
CGA:  75    -0.668955810211E+03   -0.18496E-03    0.64996E-06  8424   0.263E-04 0.340E-04
CGA:  76    -0.668955912978E+03   -0.10277E-03    0.72558E-06  8424   0.232E-04 0.118E-04
CGA:  77    -0.668956092229E+03   -0.17925E-03    0.64743E-06  8424   0.254E-04 0.333E-04
CGA:  78    -0.668956182747E+03   -0.90518E-04    0.78186E-06  8424   0.224E-04 0.124E-04
CGA:  79    -0.668956360878E+03   -0.17813E-03    0.63662E-06  8424   0.247E-04 0.329E-04
CGA:  80    -0.668956458357E+03   -0.97480E-04    0.67370E-06  8424   0.218E-04 0.127E-04
CGA:  81    -0.668956547715E+03   -0.89358E-04    0.56899E-06  8424   0.203E-04 0.148E-04
CGA:  82    -0.668956644699E+03   -0.96984E-04    0.44012E-06  8424   0.194E-04 0.159E-04
CGA:  83    -0.668956733026E+03   -0.88327E-04    0.44773E-06  8424   0.190E-04 0.165E-04
CGA:  84    -0.668956829753E+03   -0.96727E-04    0.38428E-06  8424   0.188E-04 0.168E-04
CGA:  85    -0.668956916891E+03   -0.87138E-04    0.42263E-06  8424   0.187E-04 0.169E-04
CGA:  86    -0.668957014054E+03   -0.97163E-04    0.37031E-06  8424   0.187E-04 0.168E-04
CGA:  87    -0.668957099059E+03   -0.85005E-04    0.43348E-06  8424   0.189E-04 0.167E-04
CGA:  88    -0.668957197655E+03   -0.98595E-04    0.37271E-06  8424   0.192E-04 0.164E-04
CGA:  89    -0.668957279091E+03   -0.81436E-04    0.48098E-06  8424   0.198E-04 0.159E-04
CGA:  90    -0.668957380574E+03   -0.10148E-03    0.39690E-06  8424   0.207E-04 0.152E-04
CGA:  91    -0.668957456347E+03   -0.75773E-04    0.61562E-06  8424   0.223E-04 0.139E-04
CGA:  92    -0.668957562991E+03   -0.10664E-03    0.48313E-06  8424   0.249E-04 0.118E-04
CGA:  93    -0.668957629624E+03   -0.66634E-04    0.10935E-05  8424   0.295E-04 0.826E-05
CGA:  94    -0.668957826952E+03   -0.19733E-03    0.81089E-06  8424   0.257E-04 0.390E-04
CGA:  95    -0.668957937596E+03   -0.11064E-03    0.62919E-06  8424   0.308E-04 0.707E-05
CGA:  96    -0.668958129449E+03   -0.19185E-03    0.83626E-06  8424   0.272E-04 0.390E-04
CGA:  97    -0.668958190134E+03   -0.60686E-04    0.15239E-05  8424   0.327E-04 0.514E-05
CGA:  98    -0.668958383109E+03   -0.19297E-03    0.81227E-06  8424   0.301E-04 0.386E-04
CGA:  99    -0.668958495357E+03   -0.11225E-03    0.87724E-06  8424   0.358E-04 0.193E-05
CGA: 100    -0.668958680878E+03   -0.18552E-03    0.81423E-06  8424   0.349E-04 0.378E-04
CGA: 101    -0.668958733863E+03   -0.52986E-04    0.34806E-05  8424   0.404E-04-0.295E-05
CGA: 102    -0.668958916539E+03   -0.18268E-03    0.77391E-06  8424   0.414E-04 0.366E-04
CGA: 103    -0.668959032247E+03   -0.11571E-03    0.17212E-05  8424   0.454E-04-0.896E-05
CGA: 104    -0.668959204458E+03   -0.17221E-03    0.76494E-06  8424   0.474E-04 0.351E-04
CGA: 105    -0.668959252384E+03   -0.47926E-04    0.10600E-04  8424   0.483E-04-0.136E-04
CGA: 106    -0.668959419887E+03   -0.16750E-03    0.73873E-06  8424   0.490E-04 0.340E-04
CGA: 107    -0.668959532840E+03   -0.11295E-03    0.26159E-05  8424   0.461E-04-0.132E-04
CGA: 108    -0.668959687368E+03   -0.15453E-03    0.76759E-06  8424   0.447E-04 0.331E-04
CGA: 109    -0.668959742142E+03   -0.54773E-04    0.65352E-05  8424   0.393E-04-0.757E-05
CGA: 110    -0.668959894970E+03   -0.15283E-03    0.72901E-06  8424   0.377E-04 0.322E-04
CGA: 111    -0.668959994998E+03   -0.10003E-03    0.16758E-05  8424   0.320E-04-0.333E-06
CGA: 112    -0.668960139537E+03   -0.14454E-03    0.72973E-06  8424   0.318E-04 0.313E-04
CGA: 113    -0.668960203615E+03   -0.64078E-04    0.20538E-05  8424   0.269E-04 0.521E-05
CGA: 114    -0.668960348214E+03   -0.14460E-03    0.70760E-06  8424   0.281E-04 0.310E-04
CGA: 115    -0.668960438075E+03   -0.89861E-04    0.98564E-06  8424   0.240E-04 0.852E-05
CGA: 116    -0.668960581171E+03   -0.14310E-03    0.71808E-06  8424   0.260E-04 0.310E-04
CGA: 117    -0.668960648829E+03   -0.67658E-04    0.11823E-05  8424   0.226E-04 0.103E-04
CGA: 118    -0.668960791876E+03   -0.14305E-03    0.73290E-06  8424   0.248E-04 0.313E-04
CGA: 119    -0.668960876928E+03   -0.85052E-04    0.79837E-06  8424   0.219E-04 0.114E-04
CGA: 120    -0.668961020118E+03   -0.14319E-03    0.74999E-06  8424   0.241E-04 0.317E-04
CGA: 121    -0.668961088544E+03   -0.68426E-04    0.98272E-06  8424   0.216E-04 0.120E-04
CGA: 122    -0.668961231216E+03   -0.14267E-03    0.77133E-06  8424   0.237E-04 0.321E-04
CGA: 123    -0.668961313593E+03   -0.82377E-04    0.75185E-06  8424   0.214E-04 0.124E-04
CGA: 124    -0.668961382473E+03   -0.68880E-04    0.74529E-06  8424   0.202E-04 0.141E-04
CGA: 125    -0.668961462871E+03   -0.80398E-04    0.54330E-06  8424   0.195E-04 0.151E-04
CGA: 126    -0.668961532364E+03   -0.69493E-04    0.59912E-06  8424   0.191E-04 0.157E-04
CGA: 127    -0.668961612089E+03   -0.79725E-04    0.48820E-06  8424   0.190E-04 0.161E-04
CGA: 128    -0.668961681264E+03   -0.69174E-04    0.56697E-06  8424   0.189E-04 0.163E-04
CGA: 129    -0.668961761348E+03   -0.80085E-04    0.47573E-06  8424   0.190E-04 0.163E-04
CGA: 130    -0.668961829148E+03   -0.67799E-04    0.58607E-06  8424   0.193E-04 0.162E-04
CGA: 131    -0.668961910539E+03   -0.81391E-04    0.48359E-06  8424   0.196E-04 0.160E-04
CGA: 132    -0.668961975795E+03   -0.65256E-04    0.65492E-06  8424   0.201E-04 0.157E-04
CGA: 133    -0.668962059593E+03   -0.83798E-04    0.51535E-06  8424   0.209E-04 0.151E-04
CGA: 134    -0.668962120904E+03   -0.61311E-04    0.81978E-06  8424   0.221E-04 0.142E-04
CGA: 135    -0.668962208600E+03   -0.87696E-04    0.59927E-06  8424   0.239E-04 0.128E-04
CGA: 136    -0.668962263950E+03   -0.55350E-04    0.12722E-05  8424   0.267E-04 0.106E-04
CGA: 137    -0.668962421251E+03   -0.15730E-03    0.10086E-05  8424   0.241E-04 0.385E-04
CGA: 138    -0.668962511069E+03   -0.89817E-04    0.69890E-06  8424   0.268E-04 0.107E-04
CGA: 139    -0.668962663333E+03   -0.15226E-03    0.10585E-05  8424   0.242E-04 0.386E-04
CGA: 140    -0.668962718186E+03   -0.54852E-04    0.13271E-05  8424   0.268E-04 0.109E-04
CGA: 141    -0.668962872911E+03   -0.15473E-03    0.10415E-05  8424   0.244E-04 0.387E-04
CGA: 142    -0.668962960836E+03   -0.87924E-04    0.74304E-06  8424   0.266E-04 0.110E-04
CGA: 143    -0.668963109310E+03   -0.14847E-03    0.10824E-05  8424   0.247E-04 0.386E-04
CGA: 144    -0.668963164990E+03   -0.55680E-04    0.13620E-05  8424   0.264E-04 0.112E-04
CGA: 145    -0.668963314851E+03   -0.14986E-03    0.10574E-05  8424   0.250E-04 0.384E-04
CGA: 146    -0.668963400141E+03   -0.85290E-04    0.80904E-06  8424   0.261E-04 0.115E-04
CGA: 147    -0.668963544131E+03   -0.14399E-03    0.10867E-05  8424   0.253E-04 0.380E-04
CGA: 148    -0.668963601514E+03   -0.57383E-04    0.13785E-05  8424   0.258E-04 0.117E-04
CGA: 149    -0.668963745750E+03   -0.14424E-03    0.10655E-05  8424   0.255E-04 0.377E-04
CGA: 150    -0.668963828116E+03   -0.82365E-04    0.88468E-06  8424   0.254E-04 0.120E-04
CGA: 151    -0.668963967762E+03   -0.13965E-03    0.10850E-05  8424   0.257E-04 0.374E-04
CGA: 152    -0.668964027157E+03   -0.59395E-04    0.13715E-05  8424   0.251E-04 0.124E-04
CGA: 153    -0.668964166321E+03   -0.13916E-03    0.10746E-05  8424   0.259E-04 0.371E-04
CGA: 154    -0.668964245927E+03   -0.79606E-04    0.95071E-06  8424   0.247E-04 0.128E-04
CGA: 155    -0.668964382050E+03   -0.13612E-03    0.10897E-05  8424   0.260E-04 0.369E-04
CGA: 156    -0.668964443291E+03   -0.61241E-04    0.13445E-05  8424   0.245E-04 0.131E-04
CGA: 157    -0.668964521388E+03   -0.78097E-04    0.86086E-06  8424   0.234E-04 0.145E-04
CGA: 158    -0.668964582762E+03   -0.61375E-04    0.10523E-05  8424   0.226E-04 0.155E-04
CGA: 159    -0.668964660343E+03   -0.77581E-04    0.72841E-06  8424   0.221E-04 0.163E-04
CGA: 160    -0.668964721975E+03   -0.61632E-04    0.92236E-06  8424   0.219E-04 0.168E-04
CGA: 161    -0.668964799479E+03   -0.77504E-04    0.67518E-06  8424   0.218E-04 0.171E-04
CGA: 162    -0.668964860794E+03   -0.61315E-04    0.89287E-06  8424   0.218E-04 0.172E-04
CGA: 163    -0.668964939050E+03   -0.78256E-04    0.66416E-06  8424   0.220E-04 0.172E-04
CGA: 164    -0.668964999111E+03   -0.60061E-04    0.94175E-06  8424   0.224E-04 0.171E-04
CGA: 165    -0.668965079133E+03   -0.80022E-04    0.68509E-06  8424   0.230E-04 0.167E-04
CGA: 166    -0.668965136691E+03   -0.57558E-04    0.10992E-05  8424   0.239E-04 0.161E-04
CGA: 167    -0.668965219802E+03   -0.83111E-04    0.75525E-06  8424   0.253E-04 0.151E-04
CGA: 168    -0.668965273054E+03   -0.53252E-04    0.15257E-05  8424   0.274E-04 0.135E-04
CGA: 169    -0.668965361233E+03   -0.88179E-04    0.94947E-06  8424   0.306E-04 0.110E-04
CGA: 170    -0.668965507921E+03   -0.14669E-03    0.13905E-05  8424   0.278E-04 0.429E-04
CGA: 171    -0.668965557407E+03   -0.49487E-04    0.21503E-05  8424   0.315E-04 0.107E-04
CGA: 172    -0.668965708364E+03   -0.15096E-03    0.13860E-05  8424   0.284E-04 0.435E-04
CGA: 173    -0.668965797128E+03   -0.88764E-04    0.10263E-05  8424   0.322E-04 0.103E-04
CGA: 174    -0.668965943903E+03   -0.14677E-03    0.14520E-05  8424   0.293E-04 0.437E-04
CGA: 175    -0.668965992685E+03   -0.48782E-04    0.25096E-05  8424   0.330E-04 0.966E-05
CGA: 176    -0.668966143029E+03   -0.15034E-03    0.14178E-05  8424   0.305E-04 0.439E-04
CGA: 177    -0.668966232053E+03   -0.89024E-04    0.11950E-05  8424   0.338E-04 0.892E-05
CGA: 178    -0.668966376991E+03   -0.14494E-03    0.14613E-05  8424   0.319E-04 0.436E-04
CGA: 179    -0.668966425802E+03   -0.48811E-04    0.31174E-05  8424   0.346E-04 0.795E-05
CGA: 180    -0.668966572602E+03   -0.14680E-03    0.14114E-05  8424   0.334E-04 0.432E-04
CGA: 181    -0.668966661209E+03   -0.88607E-04    0.14777E-05  8424   0.351E-04 0.712E-05
CGA: 182    -0.668966802158E+03   -0.14095E-03    0.14299E-05  8424   0.345E-04 0.425E-04
CGA: 183    -0.668966852480E+03   -0.50322E-04    0.36742E-05  8424   0.351E-04 0.664E-05
CGA: 184    -0.668966993523E+03   -0.14104E-03    0.13761E-05  8424   0.351E-04 0.418E-04
CGA: 185    -0.668967080058E+03   -0.86535E-04    0.17112E-05  8424   0.342E-04 0.695E-05
CGA: 186    -0.668967215734E+03   -0.13568E-03    0.13779E-05  8424   0.347E-04 0.409E-04
CGA: 187    -0.668967269558E+03   -0.53824E-04    0.33273E-05  8424   0.328E-04 0.796E-05
CGA: 188    -0.668967404612E+03   -0.13505E-03    0.13341E-05  8424   0.337E-04 0.402E-04
CGA: 189    -0.668967487496E+03   -0.82884E-04    0.16506E-05  8424   0.309E-04 0.950E-05
CGA: 190    -0.668967619288E+03   -0.13179E-03    0.13263E-05  8424   0.324E-04 0.395E-04
CGA: 191    -0.668967676905E+03   -0.57617E-04    0.25045E-05  8424   0.293E-04 0.110E-04
CGA: 192    -0.668967808160E+03   -0.13126E-03    0.13056E-05  8424   0.312E-04 0.391E-04
CGA: 193    -0.668967887649E+03   -0.79489E-04    0.14552E-05  8424   0.279E-04 0.123E-04
CGA: 194    -0.668968017952E+03   -0.13030E-03    0.12964E-05  8424   0.301E-04 0.388E-04
CGA: 195    -0.668968078104E+03   -0.60152E-04    0.19669E-05  8424   0.270E-04 0.133E-04
CGA: 196    -0.668968208031E+03   -0.12993E-03    0.12946E-05  8424   0.293E-04 0.387E-04
CGA: 197    -0.668968285253E+03   -0.77222E-04    0.13141E-05  8424   0.263E-04 0.140E-04
CGA: 198    -0.668968415320E+03   -0.13007E-03    0.12853E-05  8424   0.287E-04 0.385E-04
CGA: 199    -0.668968476903E+03   -0.61583E-04    0.16932E-05  8424   0.258E-04 0.144E-04
CGA: 200    -0.668968552147E+03   -0.75244E-04    0.10150E-05  8424   0.241E-04 0.166E-04
   3 F= -.66896855E+03 E0= -.66896855E+03  d E =-.492306E-01  mag=     2.0000
       N       E                     dE             d eps       ncg     rms          ort
SDA:   1    -0.649272049603E+03    0.19696E+02    0.00000E+00  8424   0.500E+02 0.000E+00
CGA:   2    -0.662923277644E+03   -0.13651E+02   -0.13651E+02  8424   0.267E+02-0.385E-02
CGA:   3    -0.667851448118E+03   -0.49282E+01   -0.49318E+01  8424   0.594E+01 0.168E-01
CGA:   4    -0.668804149434E+03   -0.95270E+00   -0.95331E+00  8424   0.135E+01 0.605E-03
CGA:   5    -0.669041223480E+03   -0.23707E+00   -0.23704E+00  8424   0.291E+00-0.810E-03
CGA:   6    -0.669101755365E+03   -0.60532E-01   -0.60528E-01  8424   0.719E-01-0.103E-03
CGA:   7    -0.669117928621E+03   -0.16173E-01   -0.16166E-01  8424   0.216E-01-0.154E-03
CGA:   8    -0.669123642639E+03   -0.57140E-02   -0.57101E-02  8424   0.774E-02-0.384E-03
CGA:   9    -0.669125931820E+03   -0.22892E-02   -0.23044E-02  8424   0.320E-02-0.545E-03
CGA:  10    -0.669127031179E+03   -0.10994E-02   -0.13996E-02  8424   0.290E-02-0.156E-02
CGA:  11    -0.669127450600E+03   -0.41942E-03   -0.41274E-03  8424   0.128E-02-0.697E-03
CGA:  12    -0.669126307450E+03    0.11431E-02   -0.99130E-03  8424   0.103E-01-0.291E-02
CGA:  13    -0.669128509950E+03   -0.22025E-02   -0.22176E-02  8424   0.137E-02 0.140E-03
CGA:  14    -0.669128995897E+03   -0.48595E-03   -0.58451E-03  8424   0.237E-02-0.964E-03
CGA:  15    -0.669129226012E+03   -0.23012E-03   -0.28082E-03  8424   0.247E-03 0.251E-03
CGA:  16    -0.669129396720E+03   -0.17071E-03    0.46010E-01  8424   0.169E-03 0.409E-04
CGA:  17    -0.669129659808E+03   -0.26309E-03    0.26775E-04  8424   0.226E-03-0.255E-05
CGA:  18    -0.669130058562E+03   -0.39875E-03    0.18610E-04  8424   0.177E-03 0.799E-04
CGA:  19    -0.669130413166E+03   -0.35460E-03    0.27246E-04  8424   0.283E-03-0.174E-04
CGA:  20    -0.669131149025E+03   -0.73586E-03    0.11041E-04  8424   0.351E-03-0.119E-04
CGA:  21    -0.669132219464E+03   -0.10704E-02    0.12787E-04  8424   0.802E-03-0.109E-03
CGA:  22    -0.669134718439E+03   -0.24990E-02    0.13862E-04  8424   0.173E-02-0.518E-04
CGA:  23    -0.669140308647E+03   -0.55902E-02    0.55875E-04  8424   0.241E-02-0.128E-02
CGA:  24    -0.669140878183E+03   -0.56954E-03   -0.52212E-03  8424   0.136E-02-0.496E-03
CGA:  25    -0.669141167363E+03   -0.28918E-03   -0.28996E-03  8424   0.299E-03 0.202E-04
CGA:  26    -0.669141279371E+03   -0.11201E-03   -0.11605E-03  8424   0.303E-03-0.525E-04
CGA:  27    -0.669140619093E+03    0.66028E-03   -0.30638E-03  8424   0.613E-02-0.105E-02
CGA:  28    -0.669141354145E+03   -0.73505E-03   -0.80295E-03  8424   0.616E-03 0.319E-03
CGA:  29    -0.669141612052E+03   -0.25791E-03   -0.28404E-03  8424   0.393E-03-0.277E-03
CGA:  30    -0.669141688005E+03   -0.75953E-04   -0.75999E-04  8424   0.270E-03-0.165E-04
CGA:  31    -0.669141766475E+03   -0.78470E-04   -0.77487E-04  8424   0.664E-04-0.202E-04
CGA:  32    -0.669141830083E+03   -0.63608E-04    0.21568E-04  8424   0.612E-04-0.224E-04
CGA:  33    -0.669141879204E+03   -0.49120E-04    0.94293E-05  8424   0.419E-04-0.453E-05
CGA:  34    -0.669141950646E+03   -0.71442E-04    0.40602E-05  8424   0.387E-04 0.367E-05
CGA:  35    -0.669142051186E+03   -0.10054E-03    0.29779E-05  8424   0.287E-04 0.120E-04
CGA:  36    -0.669142126006E+03   -0.74820E-04    0.34721E-05  8424   0.300E-04 0.586E-05
CGA:  37    -0.669142242208E+03   -0.11620E-03    0.17152E-05  8424   0.260E-04 0.233E-04
CGA:  38    -0.669142285183E+03   -0.42975E-04    0.32652E-05  8424   0.203E-04-0.404E-05
CGA:  39    -0.669142318037E+03   -0.32854E-04    0.16763E-05  8424   0.146E-04 0.376E-05
CGA:  40    -0.669142374539E+03   -0.56502E-04    0.81325E-06  8424   0.132E-04 0.831E-05
CGA:  41    -0.669142406753E+03   -0.32213E-04    0.89952E-06  8424   0.101E-04 0.204E-05
CGA:  42    -0.669142441318E+03   -0.34565E-04    0.61207E-06  8424   0.849E-05 0.720E-05
CGA:  43    -0.669142471067E+03   -0.29749E-04    0.36203E-06  8424   0.707E-05 0.359E-05
CGA:  44    -0.669142512475E+03   -0.41408E-04    0.35195E-06  8424   0.710E-05 0.864E-05
CGA:  45    -0.669142537175E+03   -0.24700E-04    0.30548E-06  8424   0.590E-05 0.416E-05
CGA:  46    -0.669142558689E+03   -0.21514E-04    0.24009E-06  8424   0.558E-05 0.454E-05
CGA:  47    -0.669142585659E+03   -0.26970E-04    0.16161E-06  8424   0.563E-05 0.459E-05
CGA:  48    -0.669142604095E+03   -0.18436E-04    0.26197E-06  8424   0.616E-05 0.428E-05
CGA:  49    -0.669142635458E+03   -0.31363E-04    0.16827E-06  8424   0.786E-05 0.326E-05
CGA:  50    -0.669142645604E+03   -0.10146E-04    0.15774E-05  8424   0.131E-04 0.241E-06
CGA:  51    -0.669142708851E+03   -0.63247E-04    0.40756E-06  8424   0.121E-04 0.133E-04
CGA:  52    -0.669142750848E+03   -0.41997E-04    0.52429E-06  8424   0.277E-04-0.772E-05
CGA:  53    -0.669142750324E+03    0.52365E-06   -0.24180E-05  8424   0.678E-05 0.114E-04
CGA:  54    -0.669142578121E+03    0.17220E-03   -0.94040E-04  8424   0.203E-02-0.107E-03
CGA:  55    -0.669142945446E+03   -0.36733E-03   -0.26397E-03  8424   0.342E-04-0.222E-03
CGA:  56    -0.669142946709E+03   -0.12636E-05   -0.39003E-05  8424   0.479E-05 0.578E-05
   4 F= -.66914295E+03 E0= -.66914295E+03  d E =-.174395E+00  mag=     2.0000
       N       E                     dE             d eps       ncg     rms          ort
SDA:   1    -0.662836231354E+03    0.63067E+01    0.00000E+00  8424   0.161E+02 0.000E+00
CGA:   2    -0.667213589102E+03   -0.43774E+01   -0.43779E+01  8424   0.869E+01 0.171E-02
CGA:   3    -0.668825037090E+03   -0.16114E+01   -0.16130E+01  8424   0.189E+01 0.114E-01
CGA:   4    -0.669126166944E+03   -0.30113E+00   -0.30110E+00  8424   0.431E+00 0.576E-03
CGA:   5    -0.669202518355E+03   -0.76351E-01   -0.76322E-01  8424   0.914E-01-0.165E-03
CGA:   6    -0.669221382142E+03   -0.18864E-01   -0.18934E-01  8424   0.221E-01 0.233E-03
CGA:   7    -0.669226300321E+03   -0.49182E-02   -0.49066E-02  8424   0.641E-02-0.488E-04
CGA:   8    -0.669227890640E+03   -0.15903E-02   -0.16187E-02  8424   0.206E-02 0.133E-03
CGA:   9    -0.669228486753E+03   -0.59611E-03   -0.60312E-03  8424   0.779E-03 0.408E-04
CGA:  10    -0.669228727272E+03   -0.24052E-03   -0.24695E-03  8424   0.308E-03 0.464E-04
CGA:  11    -0.669228801290E+03   -0.74018E-04   -0.85020E-04  8424   0.994E-04 0.603E-04
CGA:  12    -0.669228815413E+03   -0.14124E-04   -0.25593E-04  8424   0.474E-04 0.525E-04
CGA:  13    -0.669228822147E+03   -0.67340E-05   -0.11854E-04  8424   0.299E-04 0.297E-04
   5 F= -.66922882E+03 E0= -.66922882E+03  d E =-.858754E-01  mag=     2.0000
       N       E                     dE             d eps       ncg     rms          ort
SDA:   1    -0.636933169490E+03    0.32296E+02    0.00000E+00  8424   0.805E+02 0.000E+00
CGA:   2    -0.659411823260E+03   -0.22479E+02   -0.22465E+02  8424   0.439E+02-0.821E-03
CGA:   3    -0.667371635553E+03   -0.79598E+01   -0.79900E+01  8424   0.924E+01 0.336E-01
CGA:   4    -0.668855850671E+03   -0.14842E+01   -0.14844E+01  8424   0.213E+01 0.690E-02
CGA:   5    -0.669232689656E+03   -0.37684E+00   -0.37675E+00  8424   0.466E+00-0.554E-03
CGA:   6    -0.669329996851E+03   -0.97307E-01   -0.97463E-01  8424   0.116E+00 0.836E-03
CGA:   7    -0.669356355920E+03   -0.26359E-01   -0.26257E-01  8424   0.364E-01-0.824E-03
CGA:   8    -0.669365925305E+03   -0.95694E-02   -0.95660E-02  8424   0.129E-01-0.412E-04
CGA:   9    -0.669369859172E+03   -0.39339E-02   -0.39071E-02  8424   0.535E-02-0.670E-03
CGA:  10    -0.669371637101E+03   -0.17779E-02   -0.17874E-02  8424   0.252E-02-0.863E-03
CGA:  11    -0.669372307945E+03   -0.67084E-03   -0.65051E-03  8424   0.105E-02-0.603E-03
CGA:  12    -0.669372574652E+03   -0.26671E-03   -0.36408E-03  8424   0.178E-02-0.830E-03
CGA:  13    -0.669372912927E+03   -0.33827E-03   -0.29645E-03  8424   0.477E-03-0.234E-03
CGA:  14    -0.669372973125E+03   -0.60198E-04   -0.29611E-03  8424   0.219E-02-0.626E-03
CGA:  15    -0.669373406416E+03   -0.43329E-03   -0.35677E-03  8424   0.524E-03-0.399E-03
CGA:  16    -0.669373549036E+03   -0.14262E-03   -0.13730E-03  8424   0.271E-03-0.205E-03
CGA:  17    -0.669373808492E+03   -0.25946E-03    0.22226E-04  8424   0.181E-03-0.252E-04
CGA:  18    -0.669374065286E+03   -0.25679E-03    0.22194E-04  8424   0.111E-03 0.193E-04
CGA:  19    -0.669374381015E+03   -0.31573E-03    0.77209E-05  8424   0.762E-04 0.411E-04
CGA:  20    -0.669374678591E+03   -0.29758E-03    0.57711E-05  8424   0.578E-04 0.559E-04
CGA:  21    -0.669374815639E+03   -0.13705E-03    0.40921E-05  8424   0.965E-04-0.361E-05
CGA:  22    -0.669375105011E+03   -0.28937E-03    0.42918E-05  8424   0.770E-04 0.320E-04
CGA:  23    -0.669375443212E+03   -0.33820E-03    0.46860E-05  8424   0.112E-03 0.582E-04
CGA:  24    -0.669375578393E+03   -0.13518E-03    0.25960E-04  8424   0.346E-03-0.116E-03
CGA:  25    -0.669375613522E+03   -0.35130E-04   -0.38150E-04  8424   0.253E-04 0.131E-04
CGA:  26    -0.669375719370E+03   -0.10585E-03    0.86644E-06  8424   0.308E-04 0.237E-04
CGA:  27    -0.669375834078E+03   -0.11471E-03    0.11204E-05  8424   0.583E-04 0.724E-05
CGA:  28    -0.669376125489E+03   -0.29141E-03    0.23699E-05  8424   0.332E-04 0.670E-04
CGA:  29    -0.669376201878E+03   -0.76388E-04    0.22584E-05  8424   0.668E-04-0.423E-06
CGA:  30    -0.669376500522E+03   -0.29864E-03    0.19001E-05  8424   0.650E-04 0.597E-04
CGA:  31    -0.669376615417E+03   -0.11490E-03    0.65723E-05  8424   0.151E-03-0.534E-04
CGA:  32    -0.669376642108E+03   -0.26691E-04   -0.22948E-04  8424   0.368E-04-0.207E-04
CGA:  33    -0.669376766889E+03   -0.12478E-03    0.10173E-05  8424   0.295E-04 0.186E-04
CGA:  34    -0.669376850664E+03   -0.83775E-04    0.14140E-05  8424   0.357E-04 0.678E-05
CGA:  35    -0.669377051480E+03   -0.20082E-03    0.11781E-05  8424   0.333E-04 0.398E-04
CGA:  36    -0.669377139511E+03   -0.88030E-04    0.17577E-05  8424   0.296E-04 0.548E-05
CGA:  37    -0.669377305876E+03   -0.16637E-03    0.87019E-06  8424   0.299E-04 0.327E-04
CGA:  38    -0.669377389587E+03   -0.83711E-04    0.14612E-05  8424   0.228E-04 0.993E-05
CGA:  39    -0.669377536971E+03   -0.14738E-03    0.75741E-06  8424   0.248E-04 0.285E-04
CGA:  40    -0.669377623092E+03   -0.86122E-04    0.92746E-06  8424   0.187E-04 0.134E-04
CGA:  41    -0.669377705875E+03   -0.82782E-04    0.52152E-06  8424   0.173E-04 0.154E-04
CGA:  42    -0.669377786575E+03   -0.80700E-04    0.45162E-06  8424   0.166E-04 0.159E-04
CGA:  43    -0.669377868662E+03   -0.82088E-04    0.40879E-06  8424   0.163E-04 0.159E-04
CGA:  44    -0.669377947309E+03   -0.78647E-04    0.41093E-06  8424   0.161E-04 0.157E-04
CGA:  45    -0.669378029315E+03   -0.82006E-04    0.38267E-06  8424   0.162E-04 0.154E-04
CGA:  46    -0.669378104664E+03   -0.75350E-04    0.42454E-06  8424   0.168E-04 0.147E-04
CGA:  47    -0.669378188607E+03   -0.83942E-04    0.40741E-06  8424   0.194E-04 0.130E-04
CGA:  48    -0.669378255431E+03   -0.66824E-04    0.72968E-06  8424   0.288E-04 0.766E-05
CGA:  49    -0.669378452075E+03   -0.19664E-03    0.99359E-06  8424   0.176E-04 0.379E-04
CGA:  50    -0.669378535756E+03   -0.83682E-04    0.44923E-06  8424   0.241E-04 0.913E-05
CGA:  51    -0.669378591617E+03   -0.55861E-04    0.15170E-05  8424   0.489E-04-0.393E-05
CGA:  52    -0.669378813835E+03   -0.22222E-03    0.90031E-06  8424   0.634E-04 0.389E-04
CGA:  53    -0.669378908655E+03   -0.94820E-04    0.78595E-05  8424   0.191E-03-0.792E-04
CGA:  54    -0.669378928654E+03   -0.20000E-04   -0.21671E-04  8424   0.141E-04 0.801E-05
CGA:  55    -0.669378999662E+03   -0.71008E-04    0.34601E-06  8424   0.176E-04 0.125E-04
CGA:  56    -0.669379077078E+03   -0.77416E-04    0.45929E-06  8424   0.239E-04 0.648E-05
CGA:  57    -0.669379234500E+03   -0.15742E-03    0.76838E-06  8424   0.175E-04 0.306E-04
CGA:  58    -0.669379294225E+03   -0.59725E-04    0.61965E-06  8424   0.195E-04 0.704E-05
CGA:  59    -0.669379437842E+03   -0.14362E-03    0.58037E-06  8424   0.177E-04 0.258E-04
CGA:  60    -0.669379504014E+03   -0.66172E-04    0.56232E-06  8424   0.161E-04 0.755E-05
CGA:  61    -0.669379625953E+03   -0.12194E-03    0.48088E-06  8424   0.169E-04 0.224E-04
CGA:  62    -0.669379689244E+03   -0.63291E-04    0.53594E-06  8424   0.141E-04 0.842E-05
CGA:  63    -0.669379803946E+03   -0.11470E-03    0.43252E-06  8424   0.158E-04 0.205E-04
CGA:  64    -0.669379866436E+03   -0.62490E-04    0.46926E-06  8424   0.128E-04 0.912E-05
CGA:  65    -0.669379927498E+03   -0.61062E-04    0.30291E-06  8424   0.117E-04 0.106E-04
CGA:  66    -0.669379988217E+03   -0.60719E-04    0.25421E-06  8424   0.114E-04 0.110E-04
CGA:  67    -0.669380048521E+03   -0.60304E-04    0.23912E-06  8424   0.112E-04 0.110E-04
CGA:  68    -0.669380108328E+03   -0.59807E-04    0.23333E-06  8424   0.111E-04 0.110E-04
CGA:  69    -0.669380167907E+03   -0.59579E-04    0.22911E-06  8424   0.110E-04 0.109E-04
CGA:  70    -0.669380226927E+03   -0.59020E-04    0.22760E-06  8424   0.109E-04 0.108E-04
CGA:  71    -0.669380285630E+03   -0.58703E-04    0.22645E-06  8424   0.109E-04 0.106E-04
CGA:  72    -0.669380343935E+03   -0.58305E-04    0.22897E-06  8424   0.112E-04 0.104E-04
CGA:  73    -0.669380401210E+03   -0.57275E-04    0.24470E-06  8424   0.121E-04 0.968E-05
CGA:  74    -0.669380459168E+03   -0.57958E-04    0.28500E-06  8424   0.150E-04 0.787E-05
CGA:  75    -0.669380512985E+03   -0.53817E-04    0.49817E-06  8424   0.242E-04 0.250E-05
CGA:  76    -0.669380662865E+03   -0.14988E-03    0.59536E-06  8424   0.188E-04 0.275E-04
CGA:  77    -0.669380718705E+03   -0.55840E-04    0.78892E-06  8424   0.342E-04-0.429E-05
CGA:  78    -0.669380872243E+03   -0.15354E-03    0.49990E-06  8424   0.461E-04 0.250E-04
CGA:  79    -0.669380915460E+03   -0.43217E-04    0.14605E-04  8424   0.102E-03-0.479E-04
CGA:  80    -0.669380916029E+03   -0.56921E-06   -0.50409E-04  8424   0.907E-03-0.278E-03
CGA:  81    -0.669381032053E+03   -0.11602E-03   -0.11186E-03  8424   0.130E-04-0.210E-04
CGA:  82    -0.669381087884E+03   -0.55831E-04    0.32990E-06  8424   0.155E-04 0.569E-05
CGA:  83    -0.669381204193E+03   -0.11631E-03    0.47567E-06  8424   0.111E-04 0.213E-04
CGA:  84    -0.669381250540E+03   -0.46347E-04    0.30841E-06  8424   0.129E-04 0.691E-05
CGA:  85    -0.669381307447E+03   -0.56906E-04    0.33202E-06  8424   0.180E-04 0.374E-05
CGA:  86    -0.669381429185E+03   -0.12174E-03    0.49300E-06  8424   0.136E-04 0.223E-04
CGA:  87    -0.669381469299E+03   -0.40114E-04    0.57509E-06  8424   0.178E-04 0.287E-05
CGA:  88    -0.669381584850E+03   -0.11555E-03    0.44662E-06  8424   0.152E-04 0.205E-04
CGA:  89    -0.669381642829E+03   -0.57979E-04    0.46829E-06  8424   0.169E-04 0.186E-05
CGA:  90    -0.669381741982E+03   -0.99153E-04    0.40386E-06  8424   0.162E-04 0.177E-04
CGA:  91    -0.669381782101E+03   -0.40119E-04    0.85779E-06  8424   0.141E-04 0.243E-05
CGA:  92    -0.669381872685E+03   -0.90584E-04    0.31825E-06  8424   0.143E-04 0.153E-04
CGA:  93    -0.669381922913E+03   -0.50228E-04    0.48571E-06  8424   0.109E-04 0.495E-05
CGA:  94    -0.669382002422E+03   -0.79509E-04    0.29699E-06  8424   0.121E-04 0.140E-04
CGA:  95    -0.669382047110E+03   -0.44688E-04    0.38813E-06  8424   0.933E-05 0.658E-05
CGA:  96    -0.669382093535E+03   -0.46425E-04    0.20976E-06  8424   0.861E-05 0.774E-05
CGA:  97    -0.669382136972E+03   -0.43437E-04    0.19064E-06  8424   0.837E-05 0.806E-05
CGA:  98    -0.669382182890E+03   -0.45918E-04    0.16859E-06  8424   0.828E-05 0.813E-05
CGA:  99    -0.669382225683E+03   -0.42793E-04    0.17816E-06  8424   0.823E-05 0.812E-05
CGA: 100    -0.669382271545E+03   -0.45861E-04    0.16257E-06  8424   0.820E-05 0.809E-05
CGA: 101    -0.669382313094E+03   -0.41549E-04    0.18051E-06  8424   0.820E-05 0.804E-05
CGA: 102    -0.669382359894E+03   -0.46800E-04    0.15766E-06  8424   0.825E-05 0.794E-05
CGA: 103    -0.669382398370E+03   -0.38476E-04    0.19984E-06  8424   0.844E-05 0.776E-05
CGA: 104    -0.669382448710E+03   -0.50340E-04    0.15455E-06  8424   0.894E-05 0.737E-05
CGA: 105    -0.669382479972E+03   -0.31262E-04    0.30474E-06  8424   0.102E-04 0.648E-05
CGA: 106    -0.669382539348E+03   -0.59375E-04    0.19195E-06  8424   0.133E-04 0.445E-05
CGA: 107    -0.669382633589E+03   -0.94241E-04    0.43035E-06  8424   0.985E-05 0.185E-04
CGA: 108    -0.669382658411E+03   -0.24822E-04    0.50797E-06  8424   0.120E-04 0.487E-05
CGA: 109    -0.669382754573E+03   -0.96162E-04    0.36779E-06  8424   0.941E-05 0.175E-04
CGA: 110    -0.669382809157E+03   -0.54584E-04    0.17771E-06  8424   0.106E-04 0.541E-05
CGA: 111    -0.669382830162E+03   -0.21005E-04    0.77163E-06  8424   0.127E-04 0.372E-05
CGA: 112    -0.669382921786E+03   -0.91624E-04    0.35639E-06  8424   0.109E-04 0.169E-04
CGA: 113    -0.669382980266E+03   -0.58480E-04    0.22534E-06  8424   0.125E-04 0.340E-05
CGA: 114    -0.669383063392E+03   -0.83126E-04    0.36179E-06  8424   0.113E-04 0.162E-04
CGA: 115    -0.669383083152E+03   -0.19760E-04    0.98189E-06  8424   0.122E-04 0.309E-05
CGA: 116    -0.669383165670E+03   -0.82519E-04    0.32700E-06  8424   0.116E-04 0.154E-04
CGA: 117    -0.669383222289E+03   -0.56619E-04    0.26511E-06  8424   0.117E-04 0.303E-05
CGA: 118    -0.669383297644E+03   -0.75354E-04    0.32163E-06  8424   0.115E-04 0.145E-04
CGA: 119    -0.669383318228E+03   -0.20584E-04    0.95716E-06  8424   0.107E-04 0.343E-05
CGA: 120    -0.669383391395E+03   -0.73167E-04    0.29425E-06  8424   0.109E-04 0.136E-04
CGA: 121    -0.669383443109E+03   -0.51714E-04    0.25843E-06  8424   0.955E-05 0.420E-05
CGA: 122    -0.669383511324E+03   -0.68215E-04    0.28563E-06  8424   0.101E-04 0.128E-04
CGA: 123    -0.669383535724E+03   -0.24400E-04    0.55815E-06  8424   0.860E-05 0.492E-05
CGA: 124    -0.669383602279E+03   -0.66556E-04    0.27252E-06  8424   0.953E-05 0.124E-04
CGA: 125    -0.669383648119E+03   -0.45839E-04    0.22271E-06  8424   0.799E-05 0.540E-05
CGA: 126    -0.669383675479E+03   -0.27360E-04    0.27892E-06  8424   0.751E-05 0.615E-05
CGA: 127    -0.669383717512E+03   -0.42033E-04    0.14768E-06  8424   0.732E-05 0.640E-05
CGA: 128    -0.669383746733E+03   -0.29221E-04    0.21274E-06  8424   0.724E-05 0.649E-05
CGA: 129    -0.669383787189E+03   -0.40456E-04    0.14262E-06  8424   0.721E-05 0.651E-05
CGA: 130    -0.669383816634E+03   -0.29445E-04    0.20379E-06  8424   0.721E-05 0.648E-05
CGA: 131    -0.669383856846E+03   -0.40212E-04    0.14254E-06  8424   0.725E-05 0.641E-05
CGA: 132    -0.669383885435E+03   -0.28589E-04    0.21368E-06  8424   0.732E-05 0.632E-05
CGA: 133    -0.669383926151E+03   -0.40716E-04    0.14490E-06  8424   0.742E-05 0.618E-05
CGA: 134    -0.669383953292E+03   -0.27141E-04    0.23931E-06  8424   0.756E-05 0.601E-05
CGA: 135    -0.669383994806E+03   -0.41514E-04    0.15199E-06  8424   0.774E-05 0.579E-05
CGA: 136    -0.669384020416E+03   -0.25610E-04    0.28241E-06  8424   0.798E-05 0.553E-05
CGA: 137    -0.669384062522E+03   -0.42106E-04    0.16769E-06  8424   0.828E-05 0.521E-05
CGA: 138    -0.669384087062E+03   -0.24540E-04    0.34589E-06  8424   0.867E-05 0.482E-05
CGA: 139    -0.669384129069E+03   -0.42007E-04    0.20112E-06  8424   0.923E-05 0.430E-05
CGA: 140    -0.669384198517E+03   -0.69448E-04    0.30670E-06  8424   0.855E-05 0.137E-04
CGA: 141    -0.669384220724E+03   -0.22207E-04    0.42437E-06  8424   0.893E-05 0.433E-05
CGA: 142    -0.669384263628E+03   -0.42904E-04    0.20907E-06  8424   0.941E-05 0.386E-05
CGA: 143    -0.669384331384E+03   -0.67756E-04    0.29960E-06  8424   0.889E-05 0.134E-04
CGA: 144    -0.669384351285E+03   -0.19901E-04    0.53833E-06  8424   0.921E-05 0.381E-05
CGA: 145    -0.669384415896E+03   -0.64612E-04    0.30030E-06  8424   0.885E-05 0.131E-04
CGA: 146    -0.669384460718E+03   -0.44821E-04    0.19483E-06  8424   0.896E-05 0.379E-05
CGA: 147    -0.669384524767E+03   -0.64049E-04    0.28597E-06  8424   0.878E-05 0.127E-04
CGA: 148    -0.669384541785E+03   -0.17018E-04    0.65430E-06  8424   0.877E-05 0.376E-05
CGA: 149    -0.669384603327E+03   -0.61542E-04    0.28571E-06  8424   0.870E-05 0.125E-04
CGA: 150    -0.669384648548E+03   -0.45221E-04    0.18620E-06  8424   0.856E-05 0.375E-05
CGA: 151    -0.669384709825E+03   -0.61277E-04    0.27385E-06  8424   0.860E-05 0.122E-04
CGA: 152    -0.669384725172E+03   -0.15347E-04    0.72482E-06  8424   0.838E-05 0.374E-05
CGA: 153    -0.669384784119E+03   -0.58946E-04    0.27532E-06  8424   0.848E-05 0.120E-04
CGA: 154    -0.669384828966E+03   -0.44847E-04    0.17773E-06  8424   0.819E-05 0.375E-05
CGA: 155    -0.669384888066E+03   -0.59101E-04    0.26398E-06  8424   0.834E-05 0.117E-04
CGA: 156    -0.669384902347E+03   -0.14281E-04    0.75085E-06  8424   0.802E-05 0.375E-05
CGA: 157    -0.669384959169E+03   -0.56822E-04    0.26698E-06  8424   0.820E-05 0.116E-04
CGA: 158    -0.669385003310E+03   -0.44140E-04    0.16855E-06  8424   0.785E-05 0.376E-05
CGA: 159    -0.669385060560E+03   -0.57250E-04    0.25578E-06  8424   0.805E-05 0.114E-04
CGA: 160    -0.669385074055E+03   -0.13495E-04    0.74885E-06  8424   0.769E-05 0.376E-05
CGA: 161    -0.669385129119E+03   -0.55064E-04    0.25939E-06  8424   0.789E-05 0.112E-04
CGA: 162    -0.669385172415E+03   -0.43296E-04    0.15893E-06  8424   0.752E-05 0.377E-05
CGA: 163    -0.669385227982E+03   -0.55567E-04    0.24867E-06  8424   0.774E-05 0.110E-04
CGA: 164    -0.669385240858E+03   -0.12876E-04    0.72836E-06  8424   0.737E-05 0.378E-05
CGA: 165    -0.669385294434E+03   -0.53576E-04    0.25184E-06  8424   0.757E-05 0.109E-04
CGA: 166    -0.669385336775E+03   -0.42341E-04    0.14924E-06  8424   0.721E-05 0.379E-05
CGA: 167    -0.669385350529E+03   -0.13754E-04    0.54917E-06  8424   0.697E-05 0.402E-05
CGA: 168    -0.669385390213E+03   -0.39684E-04    0.13437E-06  8424   0.678E-05 0.417E-05
CGA: 169    -0.669385405769E+03   -0.15556E-04    0.39753E-06  8424   0.663E-05 0.429E-05
CGA: 170    -0.669385443473E+03   -0.37704E-04    0.12820E-06  8424   0.651E-05 0.437E-05
CGA: 171    -0.669385460246E+03   -0.16773E-04    0.32670E-06  8424   0.642E-05 0.442E-05
CGA: 172    -0.669385496486E+03   -0.36240E-04    0.12497E-06  8424   0.634E-05 0.446E-05
CGA: 173    -0.669385514035E+03   -0.17549E-04    0.28944E-06  8424   0.628E-05 0.447E-05
CGA: 174    -0.669385549190E+03   -0.35155E-04    0.12351E-06  8424   0.623E-05 0.447E-05
CGA: 175    -0.669385567193E+03   -0.18002E-04    0.26939E-06  8424   0.620E-05 0.445E-05
CGA: 176    -0.669385601545E+03   -0.34353E-04    0.12332E-06  8424   0.618E-05 0.443E-05
CGA: 177    -0.669385619750E+03   -0.18204E-04    0.26024E-06  8424   0.617E-05 0.439E-05
CGA: 178    -0.669385653537E+03   -0.33788E-04    0.12438E-06  8424   0.618E-05 0.433E-05
CGA: 179    -0.669385671708E+03   -0.18171E-04    0.26082E-06  8424   0.621E-05 0.426E-05
CGA: 180    -0.669385705194E+03   -0.33486E-04    0.12723E-06  8424   0.626E-05 0.416E-05
CGA: 181    -0.669385723016E+03   -0.17822E-04    0.27589E-06  8424   0.636E-05 0.403E-05
CGA: 182    -0.669385756608E+03   -0.33592E-04    0.13380E-06  8424   0.654E-05 0.384E-05
CGA: 183    -0.669385773518E+03   -0.16910E-04    0.32585E-06  8424   0.683E-05 0.357E-05
CGA: 184    -0.669385807987E+03   -0.34469E-04    0.15099E-06  8424   0.733E-05 0.313E-05
CGA: 185    -0.669385860175E+03   -0.52189E-04    0.24590E-06  8424   0.669E-05 0.106E-04
CGA: 186    -0.669385875975E+03   -0.15800E-04    0.37644E-06  8424   0.716E-05 0.310E-05
CGA: 187    -0.669385928117E+03   -0.52142E-04    0.23536E-06  8424   0.656E-05 0.104E-04
CGA: 188    -0.669385961760E+03   -0.33642E-04    0.14268E-06  8424   0.692E-05 0.309E-05
CGA: 189    -0.669386012086E+03   -0.50326E-04    0.23008E-06  8424   0.646E-05 0.101E-04
CGA: 190    -0.669386027173E+03   -0.15087E-04    0.36899E-06  8424   0.669E-05 0.307E-05
CGA: 191    -0.669386076623E+03   -0.49450E-04    0.21975E-06  8424   0.636E-05 0.979E-05
CGA: 192    -0.669386109798E+03   -0.33175E-04    0.13549E-06  8424   0.645E-05 0.305E-05
CGA: 193    -0.669386158058E+03   -0.48260E-04    0.21035E-06  8424   0.626E-05 0.947E-05
CGA: 194    -0.669386172132E+03   -0.14074E-04    0.37761E-06  8424   0.624E-05 0.302E-05
CGA: 195    -0.669386218767E+03   -0.46635E-04    0.20460E-06  8424   0.616E-05 0.918E-05
CGA: 196    -0.669386251713E+03   -0.32946E-04    0.12772E-06  8424   0.603E-05 0.299E-05
CGA: 197    -0.669386298110E+03   -0.46397E-04    0.19247E-06  8424   0.606E-05 0.889E-05
CGA: 198    -0.669386311089E+03   -0.12979E-04    0.39026E-06  8424   0.585E-05 0.296E-05
CGA: 199    -0.669386355344E+03   -0.44255E-04    0.19125E-06  8424   0.594E-05 0.864E-05
CGA: 200    -0.669386388108E+03   -0.32763E-04    0.11892E-06  8424   0.567E-05 0.294E-05
   6 F= -.66938639E+03 E0= -.66938639E+03  d E =-.157566E+00  mag=     2.0000
       N       E                     dE             d eps       ncg     rms          ort
SDA:   1    -0.633953824945E+03    0.35433E+02    0.00000E+00  8424   0.923E+02 0.000E+00
CGA:   2    -0.657593215092E+03   -0.23639E+02   -0.23664E+02  8424   0.491E+02 0.136E+00
CGA:   3    -0.667079424000E+03   -0.94862E+01   -0.94804E+01  8424   0.114E+02 0.658E-01
CGA:   4    -0.668884442636E+03   -0.18050E+01   -0.18073E+01  8424   0.255E+01 0.528E-02
CGA:   5    -0.669329677679E+03   -0.44524E+00   -0.44560E+00  8424   0.550E+00 0.472E-03
CGA:   6    -0.669445199173E+03   -0.11552E+00   -0.11550E+00  8424   0.137E+00-0.197E-03
CGA:   7    -0.669475704437E+03   -0.30505E-01   -0.30519E-01  8424   0.405E-01 0.181E-03
CGA:   8    -0.669486381847E+03   -0.10677E-01   -0.10668E-01  8424   0.144E-01-0.440E-03
[...]
CGA:  14    -0.669981481004E+03    0.13754E-04   -0.12119E-04  8424   0.165E-03 0.174E-03
CGA:  15    -0.669981467024E+03    0.13980E-04   -0.96336E-05  8424   0.152E-03 0.159E-03
CGA:  16    -0.669981453290E+03    0.13734E-04   -0.79426E-05  8424   0.142E-03 0.147E-03
CGA:  17    -0.669981440011E+03    0.13279E-04   -0.67156E-05  8424   0.134E-03 0.138E-03
CGA:  18    -0.669981427275E+03    0.12736E-04   -0.57846E-05  8424   0.127E-03 0.131E-03
CGA:  19    -0.669981415115E+03    0.12160E-04   -0.50543E-05  8424   0.122E-03 0.125E-03
CGA:  20    -0.669981403535E+03    0.11581E-04   -0.44667E-05  8424   0.117E-03 0.119E-03
CGA:  21    -0.669981392520E+03    0.11014E-04   -0.39835E-05  8424   0.113E-03 0.115E-03
CGA:  22    -0.669981382053E+03    0.10468E-04   -0.35805E-05  8424   0.110E-03 0.111E-03
CGA:  23    -0.669981372107E+03    0.99458E-05   -0.32392E-05  8424   0.107E-03 0.108E-03
  34 F= -.66998137E+03 E0= -.66998137E+03  d E =0.415998E-01  mag=     2.0000
       N       E                     dE             d eps       ncg     rms          ort
SDA:   1    -0.637362618682E+03    0.32619E+02    0.00000E+00  8424   0.102E+03 0.000E+00
CGA:   2    -0.657650893768E+03   -0.20288E+02   -0.20224E+02  8424   0.408E+02 0.907E+00
CGA:   3    -0.666534436035E+03   -0.88835E+01   -0.88957E+01  8424   0.133E+02-0.160E+00
CGA:   4    -0.668720021662E+03   -0.21856E+01   -0.21852E+01  8424   0.326E+01 0.119E-01
CGA:   5    -0.669274450811E+03   -0.55443E+00   -0.55411E+00  8424   0.677E+00 0.121E-01
CGA:   6    -0.669411047460E+03   -0.13660E+00   -0.13679E+00  8424   0.156E+00-0.371E-02
CGA:   7    -0.669445810405E+03   -0.34763E-01   -0.34580E-01  8424   0.465E-01 0.253E-02
CGA:   8    -0.669457333881E+03   -0.11523E-01   -0.11481E-01  8424   0.142E-01 0.472E-03
CGA:   9    -0.669461447024E+03   -0.41131E-02   -0.43906E-02  8424   0.604E-02-0.188E-02
CGA:  10    -0.669462989123E+03   -0.15421E-02   -0.15836E-02  8424   0.246E-02-0.306E-03
CGA:  11    -0.669462209058E+03    0.78006E-03   -0.18810E-02  8424   0.107E-01-0.421E-02
CGA:  12    -0.669464008218E+03   -0.17992E-02   -0.18323E-02  8424   0.147E-02 0.980E-03
CGA:  13    -0.669462328564E+03    0.16797E-02   -0.15369E-02  8424   0.155E-01-0.425E-02
CGA:  14    -0.669464519180E+03   -0.21906E-02   -0.23442E-02  8424   0.232E-02 0.171E-02
CGA:  15    -0.669465280645E+03   -0.76147E-03   -0.87055E-03  8424   0.747E-03-0.108E-02
CGA:  16    -0.669465490636E+03   -0.20999E-03    0.53708E-03  8424   0.336E-03 0.624E-04
CGA:  17    -0.669465711960E+03   -0.22132E-03    0.17010E-03  8424   0.952E-04 0.371E-04
CGA:  18    -0.669465887436E+03   -0.17548E-03    0.52351E-05  8424   0.651E-04 0.452E-04
CGA:  19    -0.669466092290E+03   -0.20485E-03    0.33947E-05  8424   0.537E-04 0.550E-04
CGA:  20    -0.669466189109E+03   -0.96819E-04    0.23746E-05  8424   0.361E-04 0.351E-04
CGA:  21    -0.669466296032E+03   -0.10692E-03    0.84930E-06  8424   0.339E-04 0.315E-04
CGA:  22    -0.669466386695E+03   -0.90663E-04    0.90109E-06  8424   0.331E-04 0.303E-04
CGA:  23    -0.669466491074E+03   -0.10438E-03    0.72170E-06  8424   0.326E-04 0.294E-04
CGA:  24    -0.669466579700E+03   -0.88626E-04    0.85101E-06  8424   0.325E-04 0.284E-04
CGA:  25    -0.669466683232E+03   -0.10353E-03    0.69971E-06  8424   0.326E-04 0.271E-04
CGA:  26    -0.669466768717E+03   -0.85485E-04    0.88995E-06  8424   0.333E-04 0.255E-04
CGA:  27    -0.669466872361E+03   -0.10364E-03    0.73861E-06  8424   0.347E-04 0.234E-04
CGA:  28    -0.669466953684E+03   -0.81324E-04    0.10863E-05  8424   0.373E-04 0.203E-04
CGA:  29    -0.669467058152E+03   -0.10447E-03    0.93744E-06  8424   0.417E-04 0.159E-04
CGA:  30    -0.669467253206E+03   -0.19505E-03    0.12416E-05  8424   0.351E-04 0.580E-04
CGA:  31    -0.669467328071E+03   -0.74865E-04    0.12388E-05  8424   0.395E-04 0.149E-04
CGA:  32    -0.669467518776E+03   -0.19071E-03    0.11274E-05  8424   0.331E-04 0.548E-04
CGA:  33    -0.669467621192E+03   -0.10242E-03    0.73781E-06  8424   0.372E-04 0.141E-04
CGA:  34    -0.669467805833E+03   -0.18464E-03    0.10335E-05  8424   0.312E-04 0.517E-04
CGA:  35    -0.669467873282E+03   -0.67449E-04    0.10865E-05  8424   0.351E-04 0.134E-04
CGA:  36    -0.669468054106E+03   -0.18082E-03    0.93711E-06  8424   0.295E-04 0.489E-04
CGA:  37    -0.669468154133E+03   -0.10003E-03    0.59323E-06  8424   0.330E-04 0.128E-04
CGA:  38    -0.669468327669E+03   -0.17354E-03    0.86555E-06  8424   0.279E-04 0.461E-04
CGA:  39    -0.669468388768E+03   -0.61099E-04    0.95560E-06  8424   0.311E-04 0.122E-04
CGA:  40    -0.669468559038E+03   -0.17027E-03    0.78190E-06  8424   0.264E-04 0.435E-04
CGA:  41    -0.669468655842E+03   -0.96804E-04    0.48361E-06  8424   0.290E-04 0.119E-04
CGA:  42    -0.669468817703E+03   -0.16186E-03    0.72603E-06  8424   0.249E-04 0.409E-04
CGA:  43    -0.669468874139E+03   -0.56435E-04    0.81307E-06  8424   0.269E-04 0.117E-04
CGA:  44    -0.669469032920E+03   -0.15878E-03    0.65001E-06  8424   0.234E-04 0.383E-04
CGA:  45    -0.669469124932E+03   -0.92012E-04    0.39392E-06  8424   0.245E-04 0.118E-04
CGA:  46    -0.669469176591E+03   -0.51660E-04    0.87862E-06  8424   0.269E-04 0.931E-05
CGA:  47    -0.669469330632E+03   -0.15404E-03    0.59101E-06  8424   0.236E-04 0.363E-04
CGA:  48    -0.669469423035E+03   -0.92403E-04    0.40237E-06  8424   0.256E-04 0.870E-05
CGA:  49    -0.669469569213E+03   -0.14618E-03    0.55121E-06  8424   0.227E-04 0.341E-04
CGA:  50    -0.669469615990E+03   -0.46777E-04    0.84297E-06  8424   0.244E-04 0.811E-05
CGA:  51    -0.669469759732E+03   -0.14374E-03    0.49877E-06  8424   0.219E-04 0.322E-04
CGA:  52    -0.669469848637E+03   -0.88905E-04    0.35710E-06  8424   0.228E-04 0.786E-05
CGA:  53    -0.669469983546E+03   -0.13491E-03    0.46530E-06  8424   0.208E-04 0.299E-04
CGA:  54    -0.669470027793E+03   -0.44248E-04    0.73897E-06  8424   0.209E-04 0.800E-05
CGA:  55    -0.669470159434E+03   -0.13164E-03    0.41282E-06  8424   0.194E-04 0.277E-04
CGA:  56    -0.669470241861E+03   -0.82427E-04    0.30185E-06  8424   0.184E-04 0.874E-05
CGA:  57    -0.669470362758E+03   -0.12090E-03    0.38336E-06  8424   0.178E-04 0.253E-04
CGA:  58    -0.669470409345E+03   -0.46587E-04    0.48461E-06  8424   0.159E-04 0.970E-05
CGA:  59    -0.669470485967E+03   -0.76622E-04    0.21451E-06  8424   0.157E-04 0.984E-05
CGA:  60    -0.669470530794E+03   -0.44827E-04    0.38839E-06  8424   0.158E-04 0.946E-05
CGA:  61    -0.669470607125E+03   -0.76331E-04    0.21253E-06  8424   0.161E-04 0.893E-05
CGA:  62    -0.669470649570E+03   -0.42445E-04    0.43311E-06  8424   0.164E-04 0.825E-05
CGA:  63    -0.669470726401E+03   -0.76831E-04    0.22848E-06  8424   0.170E-04 0.742E-05
CGA:  64    -0.669470845534E+03   -0.11913E-03    0.33036E-06  8424   0.157E-04 0.242E-04
CGA:  65    -0.669470884847E+03   -0.39313E-04    0.45189E-06  8424   0.162E-04 0.707E-05
CGA:  66    -0.669471001766E+03   -0.11692E-03    0.30672E-06  8424   0.150E-04 0.232E-04
CGA:  67    -0.669471075447E+03   -0.73680E-04    0.19637E-06  8424   0.155E-04 0.675E-05
CGA:  68    -0.669471188263E+03   -0.11282E-03    0.29085E-06  8424   0.143E-04 0.222E-04
CGA:  69    -0.669471224559E+03   -0.36296E-04    0.40508E-06  8424   0.148E-04 0.645E-05
CGA:  70    -0.669471335443E+03   -0.11088E-03    0.26912E-06  8424   0.137E-04 0.212E-04
CGA:  71    -0.669471405910E+03   -0.70467E-04    0.17010E-06  8424   0.141E-04 0.620E-05
CGA:  72    -0.669471512326E+03   -0.10642E-03    0.25510E-06  8424   0.130E-04 0.202E-04
CGA:  73    -0.669471546067E+03   -0.33740E-04    0.36153E-06  8424   0.134E-04 0.597E-05
CGA:  74    -0.669471650615E+03   -0.10455E-03    0.23521E-06  8424   0.125E-04 0.192E-04
CGA:  75    -0.669471717691E+03   -0.67076E-04    0.14832E-06  8424   0.127E-04 0.579E-05
CGA:  76    -0.669471817527E+03   -0.99835E-04    0.22249E-06  8424   0.119E-04 0.183E-04
CGA:  77    -0.669471849406E+03   -0.31880E-04    0.31590E-06  8424   0.120E-04 0.565E-05
CGA:  78    -0.669471947183E+03   -0.97776E-04    0.20404E-06  8424   0.113E-04 0.173E-04
CGA:  79    -0.669472010380E+03   -0.63197E-04    0.13015E-06  8424   0.112E-04 0.559E-05
CGA:  80    -0.669472103207E+03   -0.92828E-04    0.19186E-06  8424   0.108E-04 0.164E-04
CGA:  81    -0.669472134313E+03   -0.31106E-04    0.26311E-06  8424   0.104E-04 0.557E-05
CGA:  82    -0.669472194804E+03   -0.60491E-04    0.11344E-06  8424   0.102E-04 0.563E-05
CGA:  83    -0.669472225131E+03   -0.30327E-04    0.23869E-06  8424   0.101E-04 0.554E-05
CGA:  84    -0.669472284783E+03   -0.59652E-04    0.10888E-06  8424   0.101E-04 0.537E-05
CGA:  85    -0.669472314118E+03   -0.29335E-04    0.24343E-06  8424   0.102E-04 0.513E-05
CGA:  86    -0.669472373395E+03   -0.59277E-04    0.11059E-06  8424   0.103E-04 0.484E-05
CGA:  87    -0.669472461341E+03   -0.87945E-04    0.16639E-06  8424   0.973E-05 0.149E-04
CGA:  88    -0.669472488929E+03   -0.27589E-04    0.24095E-06  8424   0.985E-05 0.466E-05
CGA:  89    -0.669472575094E+03   -0.86165E-04    0.15647E-06  8424   0.931E-05 0.144E-04
CGA:  90    -0.669472631784E+03   -0.56690E-04    0.96770E-07  8424   0.946E-05 0.448E-05
CGA:  91    -0.669472715213E+03   -0.83428E-04    0.14947E-06  8424   0.892E-05 0.138E-04
CGA:  92    -0.669472740900E+03   -0.25687E-04    0.21686E-06  8424   0.907E-05 0.432E-05
CGA:  93    -0.669472822795E+03   -0.81896E-04    0.14006E-06  8424   0.854E-05 0.133E-04
CGA:  94    -0.669472876876E+03   -0.54081E-04    0.85176E-07  8424   0.867E-05 0.418E-05
CGA:  95    -0.669472955779E+03   -0.78903E-04    0.13377E-06  8424   0.819E-05 0.127E-04
CGA:  96    -0.669472979861E+03   -0.24081E-04    0.19422E-06  8424   0.828E-05 0.405E-05
CGA:  97    -0.669473057313E+03   -0.77453E-04    0.12503E-06  8424   0.785E-05 0.122E-04
CGA:  98    -0.669473108732E+03   -0.51418E-04    0.75416E-07  8424   0.789E-05 0.394E-05
CGA:  99    -0.669473131376E+03   -0.22644E-04    0.19251E-06  8424   0.797E-05 0.372E-05
CGA: 100    -0.669473206040E+03   -0.74665E-04    0.11644E-06  8424   0.758E-05 0.116E-04
CGA: 101    -0.669473256337E+03   -0.50296E-04    0.71841E-07  8424   0.759E-05 0.363E-05
CGA: 102    -0.669473328102E+03   -0.71765E-04    0.11084E-06  8424   0.727E-05 0.111E-04
CGA: 103    -0.669473349419E+03   -0.21317E-04    0.17329E-06  8424   0.726E-05 0.352E-05
CGA: 104    -0.669473419762E+03   -0.70343E-04    0.10402E-06  8424   0.699E-05 0.106E-04
CGA: 105    -0.669473467495E+03   -0.47733E-04    0.64196E-07  8424   0.689E-05 0.345E-05
CGA: 106    -0.669473535030E+03   -0.67535E-04    0.98776E-07  8424   0.671E-05 0.101E-04
CGA: 107    -0.669473555467E+03   -0.20437E-04    0.15251E-06  8424   0.653E-05 0.339E-05
CGA: 108    -0.669473601401E+03   -0.45934E-04    0.58134E-07  8424   0.642E-05 0.341E-05
CGA: 109    -0.669473621552E+03   -0.20151E-04    0.14086E-06  8424   0.634E-05 0.338E-05
CGA: 110    -0.669473666657E+03   -0.45105E-04    0.55817E-07  8424   0.630E-05 0.332E-05
CGA: 111    -0.669473686383E+03   -0.19726E-04    0.13875E-06  8424   0.628E-05 0.324E-05
CGA: 112    -0.669473730949E+03   -0.44566E-04    0.55431E-07  8424   0.629E-05 0.313E-05
CGA: 113    -0.669473794636E+03   -0.63687E-04    0.87568E-07  8424   0.605E-05 0.931E-05
CGA: 114    -0.669473813354E+03   -0.18719E-04    0.13495E-06  8424   0.606E-05 0.302E-05
CGA: 115    -0.669473875704E+03   -0.62349E-04    0.83239E-07  8424   0.582E-05 0.898E-05
CGA: 116    -0.669473918346E+03   -0.42642E-04    0.49504E-07  8424   0.585E-05 0.293E-05
CGA: 117    -0.669473935945E+03   -0.17599E-04    0.13491E-06  8424   0.590E-05 0.278E-05
CGA: 118    -0.669473996467E+03   -0.60522E-04    0.78463E-07  8424   0.564E-05 0.860E-05
CGA: 119    -0.669474038186E+03   -0.41719E-04    0.47521E-07  8424   0.567E-05 0.270E-05
CGA: 120    -0.669474096678E+03   -0.58491E-04    0.75304E-07  8424   0.543E-05 0.828E-05
CGA: 121    -0.669474113065E+03   -0.16387E-04    0.12493E-06  8424   0.548E-05 0.261E-05
CGA: 122    -0.669474170547E+03   -0.57482E-04    0.71504E-07  8424   0.524E-05 0.801E-05
CGA: 123    -0.669474210477E+03   -0.39930E-04    0.42783E-07  8424   0.526E-05 0.254E-05
CGA: 124    -0.669474265992E+03   -0.55515E-04    0.68668E-07  8424   0.505E-05 0.771E-05
CGA: 125    -0.669474281322E+03   -0.15331E-04    0.11543E-06  8424   0.507E-05 0.246E-05
CGA: 126    -0.669474335780E+03   -0.54457E-04    0.65105E-07  8424   0.488E-05 0.744E-05
CGA: 127    -0.669474373946E+03   -0.38166E-04    0.38702E-07  8424   0.486E-05 0.240E-05
CGA: 128    -0.669474426550E+03   -0.52604E-04    0.62442E-07  8424   0.471E-05 0.716E-05
CGA: 129    -0.669474440987E+03   -0.14437E-04    0.10611E-06  8424   0.467E-05 0.234E-05
CGA: 130    -0.669474492429E+03   -0.51442E-04    0.59222E-07  8424   0.454E-05 0.690E-05
CGA: 131    -0.669474528819E+03   -0.36390E-04    0.35190E-07  8424   0.446E-05 0.229E-05
CGA: 132    -0.669474542801E+03   -0.13981E-04    0.98297E-07  8424   0.440E-05 0.229E-05
CGA: 133    -0.669474578519E+03   -0.35718E-04    0.33673E-07  8424   0.435E-05 0.227E-05
CGA: 134    -0.669474592352E+03   -0.13834E-04    0.94133E-07  8424   0.431E-05 0.224E-05
CGA: 135    -0.669474627463E+03   -0.35110E-04    0.32853E-07  8424   0.428E-05 0.221E-05
CGA: 136    -0.669474641025E+03   -0.13563E-04    0.93141E-07  8424   0.427E-05 0.216E-05
CGA: 137    -0.669474675706E+03   -0.34681E-04    0.32600E-07  8424   0.427E-05 0.210E-05
CGA: 138    -0.669474723499E+03   -0.47793E-04    0.52790E-07  8424   0.413E-05 0.629E-05
CGA: 139    -0.669474736380E+03   -0.12881E-04    0.91201E-07  8424   0.413E-05 0.203E-05
CGA: 140    -0.669474783196E+03   -0.46816E-04    0.50553E-07  8424   0.399E-05 0.610E-05
CGA: 141    -0.669474816488E+03   -0.33292E-04    0.29551E-07  8424   0.399E-05 0.198E-05
CGA: 142    -0.669474862015E+03   -0.45527E-04    0.48800E-07  8424   0.386E-05 0.591E-05
CGA: 143    -0.669474874041E+03   -0.12027E-04    0.85263E-07  8424   0.386E-05 0.192E-05
CGA: 144    -0.669474918668E+03   -0.44627E-04    0.46628E-07  8424   0.373E-05 0.572E-05
CGA: 145    -0.669474950602E+03   -0.31934E-04    0.26901E-07  8424   0.373E-05 0.187E-05
CGA: 146    -0.669474961974E+03   -0.11372E-04    0.84559E-07  8424   0.373E-05 0.181E-05
CGA: 147    -0.669475005181E+03   -0.43207E-04    0.44228E-07  8424   0.361E-05 0.548E-05
CGA: 148    -0.669475036390E+03   -0.31209E-04    0.25772E-07  8424   0.359E-05 0.177E-05
CGA: 149    -0.669475078283E+03   -0.41893E-04    0.42557E-07  8424   0.349E-05 0.530E-05
CGA: 150    -0.669475088905E+03   -0.10621E-04    0.79570E-07  8424   0.348E-05 0.172E-05
CGA: 151    -0.669475129960E+03   -0.41055E-04    0.40796E-07  8424   0.338E-05 0.514E-05
CGA: 152    -0.669475159913E+03   -0.29953E-04    0.23564E-07  8424   0.335E-05 0.168E-05
CGA: 153    -0.669475199788E+03   -0.39875E-04    0.39217E-07  8424   0.328E-05 0.497E-05
CGA: 154    -0.669475209743E+03   -0.99549E-05    0.74782E-07  8424   0.324E-05 0.164E-05
  35 F= -.66947521E+03 E0= -.66947521E+03  d E =0.506162E+00  mag=     2.0000
       N       E                     dE             d eps       ncg     rms          ort
SDA:   1    -0.660995998172E+03    0.84792E+01    0.00000E+00  8424   0.295E+02 0.000E+00
CGA:   2    -0.666722101554E+03   -0.57261E+01   -0.57320E+01  8424   0.114E+02 0.502E-01
CGA:   3    -0.669154895595E+03   -0.24328E+01   -0.24320E+01  8424   0.377E+01-0.181E-01
CGA:   4    -0.669784799812E+03   -0.62990E+00   -0.63013E+00  8424   0.954E+00 0.142E-02
CGA:   5    -0.669949728671E+03   -0.16493E+00   -0.16511E+00  8424   0.204E+00 0.231E-02
CGA:   6    -0.669990091132E+03   -0.40362E-01   -0.40323E-01  8424   0.444E-01-0.118E-02
CGA:   7    -0.669999780747E+03   -0.96896E-02   -0.97007E-02  8424   0.129E-01 0.112E-02
CGA:   8    -0.670002848079E+03   -0.30673E-02   -0.30650E-02  8424   0.360E-02 0.699E-03
CGA:   9    -0.670003812442E+03   -0.96436E-03   -0.95780E-03  8424   0.108E-02 0.279E-03
CGA:  10    -0.670004035236E+03   -0.22279E-03   -0.23526E-03  8424   0.401E-03 0.436E-03
CGA:  11    -0.670004105320E+03   -0.70083E-04   -0.90511E-04  8424   0.195E-03 0.300E-03
CGA:  12    -0.670004120437E+03   -0.15117E-04   -0.27300E-04  8424   0.120E-03 0.142E-03
CGA:  13    -0.670004115625E+03    0.48120E-05   -0.10217E-04  8424   0.103E-03 0.110E-03
  36 F= -.67000412E+03 E0= -.67000412E+03  d E =-.528906E+00  mag=     2.0000
       N       E                     dE             d eps       ncg     rms          ort
SDA:   1    -0.668369778921E+03    0.16343E+01    0.00000E+00  8424   0.529E+01 0.000E+00
CGA:   2    -0.669427961974E+03   -0.10582E+01   -0.10583E+01  8424   0.211E+01 0.679E-02
CGA:   3    -0.669876354106E+03   -0.44839E+00   -0.44841E+00  8424   0.696E+00-0.360E-02
CGA:   4    -0.669991230153E+03   -0.11488E+00   -0.11489E+00  8424   0.172E+00 0.253E-03
CGA:   5    -0.670021143731E+03   -0.29914E-01   -0.29937E-01  8424   0.358E-01 0.709E-03
CGA:   6    -0.670028293882E+03   -0.71502E-02   -0.71494E-02  8424   0.794E-02-0.159E-03
CGA:   7    -0.670030017474E+03   -0.17236E-02   -0.17190E-02  8424   0.229E-02 0.323E-03
CGA:   8    -0.670030579095E+03   -0.56162E-03   -0.55594E-03  8424   0.666E-03 0.196E-03
CGA:   9    -0.670030765876E+03   -0.18678E-03   -0.18177E-03  8424   0.237E-03 0.108E-03
CGA:  10    -0.670030815923E+03   -0.50048E-04   -0.52467E-04  8424   0.122E-03 0.140E-03
CGA:  11    -0.670030836128E+03   -0.20204E-04   -0.22191E-04  8424   0.708E-04 0.808E-04
CGA:  12    -0.670030842985E+03   -0.68573E-05   -0.10543E-04  8424   0.603E-04 0.644E-04
  37 F= -.67003084E+03 E0= -.67003084E+03  d E =-.267274E-01  mag=     2.0000
       N       E                     dE             d eps       ncg     rms          ort
SDA:   1    -0.669863073748E+03    0.16776E+00    0.00000E+00  8424   0.430E+00 0.000E+00
CGA:   2    -0.669975202108E+03   -0.11213E+00   -0.11212E+00  8424   0.230E+00 0.799E-04
CGA:   3    -0.670018729187E+03   -0.43527E-01   -0.43519E-01  8424   0.540E-01-0.578E-03
CGA:   4    -0.670027160720E+03   -0.84315E-02   -0.84384E-02  8424   0.123E-01 0.144E-03
CGA:   5    -0.670029251562E+03   -0.20908E-02   -0.20971E-02  8424   0.253E-02 0.214E-03
CGA:   6    -0.670029773699E+03   -0.52214E-03   -0.52174E-03  8424   0.614E-03 0.857E-04
CGA:   7    -0.670029903462E+03   -0.12976E-03   -0.12932E-03  8424   0.185E-03 0.828E-04
CGA:   8    -0.670029946339E+03   -0.42877E-04   -0.42600E-04  8424   0.767E-04 0.701E-04
CGA:   9    -0.670029960644E+03   -0.14305E-04   -0.16806E-04  8424   0.485E-04 0.623E-04
CGA:  10    -0.670029964678E+03   -0.40341E-05   -0.64968E-05  8424   0.352E-04 0.389E-04
  38 F= -.67002996E+03 E0= -.67002996E+03  d E =0.878307E-03  mag=     2.0000
       N       E                     dE             d eps       ncg     rms          ort
SDA:   1    -0.649594573192E+03    0.20435E+02    0.00000E+00  8424   0.582E+02 0.000E+00
CGA:   2    -0.662507240669E+03   -0.12913E+02   -0.12902E+02  8424   0.270E+02 0.234E+00
CGA:   3    -0.668088748182E+03   -0.55815E+01   -0.55826E+01  8424   0.774E+01-0.530E-01
CGA:   4    -0.669326689022E+03   -0.12379E+01   -0.12383E+01  8424   0.178E+01 0.578E-02
CGA:   5    -0.669630534866E+03   -0.30385E+00   -0.30398E+00  8424   0.380E+00 0.586E-02
CGA:   6    -0.669706601043E+03   -0.76066E-01   -0.76068E-01  8424   0.893E-01-0.143E-03
CGA:   7    -0.669726299066E+03   -0.19698E-01   -0.19639E-01  8424   0.258E-01 0.197E-02
CGA:   8    -0.669732600300E+03   -0.63012E-02   -0.62621E-02  8424   0.780E-02 0.857E-03
CGA:   9    -0.669734783747E+03   -0.21834E-02   -0.21550E-02  8424   0.264E-02 0.387E-03
CGA:  10    -0.669735476484E+03   -0.69274E-03   -0.66258E-03  8424   0.927E-03 0.723E-03
CGA:  11    -0.669735724156E+03   -0.24767E-03   -0.24434E-03  8424   0.333E-03 0.456E-03
CGA:  12    -0.669735772708E+03   -0.48552E-04   -0.67876E-04  8424   0.169E-03 0.304E-03
CGA:  13    -0.669735772262E+03    0.44571E-06   -0.15125E-04  8424   0.127E-03 0.145E-03
