       N       E                     dE             d eps       ncg     rms          ort
DAV:   1     0.827833924728E+04    0.82783E+04   -0.24675E+05  8424   0.238E+03
DAV:   2     0.923314969896E+03   -0.73550E+04   -0.69028E+04  8424   0.657E+02
DAV:   3    -0.672445994020E+03   -0.15958E+04   -0.14038E+04  8424   0.283E+02
DAV:   4    -0.828856630038E+03   -0.15641E+03   -0.15363E+03  8424   0.860E+01
DAV:   5    -0.831346750381E+03   -0.24901E+01   -0.24795E+01  8424   0.121E+01
SDA:   6    -0.218287807379E+03    0.61306E+03   -0.24795E+01  8424   0.584E+04 0.000E+00
CGA:   7    -0.381556075910E+03   -0.16327E+03   -0.47247E+03  8424   0.153E+05-0.533E+04
CGA:   8    -0.818392687943E+02    0.29972E+03   -0.12043E+04  8424   0.813E+04-0.314E+04
CGA:   9    -0.532791486422E+03   -0.45095E+03   -0.25494E+03  8424   0.261E+04 0.202E+04
CGA:  10    -0.540883642216E+03   -0.80922E+01   -0.18154E+03  8424   0.116E+04-0.977E+03
CGA:  11    -0.567087125214E+03   -0.26203E+02   -0.20992E+02  8424   0.319E+04-0.242E+04
CGA:  12    -0.499734187695E+03    0.67353E+02   -0.17342E+03  8424   0.110E+04-0.714E+03
CGA:  13    -0.630530254225E+03   -0.13080E+03   -0.22153E+02  8424   0.285E+03 0.505E+03
CGA:  14    -0.585488418305E+03    0.45042E+02   -0.83960E+01  8424   0.142E+04-0.893E+03
CGA:  15    -0.566654235711E+03    0.18834E+02   -0.45000E+02  8424   0.777E+03-0.625E+03
CGA:  16    -0.653541380984E+03   -0.86887E+02   -0.71801E+01  8424   0.153E+03 0.544E+03
CGA:  17    -0.656474969657E+03   -0.29336E+01   -0.39475E+01  8424   0.102E+03-0.745E+02
CGA:  18    -0.660862698640E+03   -0.43877E+01   -0.41492E+01  8424   0.776E+02-0.603E+00
CGA:  19    -0.663058182064E+03   -0.21955E+01   -0.56128E+01  8424   0.256E+02 0.354E+01
CGA:  20    -0.664581260176E+03   -0.15231E+01   -0.17714E+01  8424   0.603E+01-0.422E+00
CGA:  21    -0.665320447261E+03   -0.73919E+00   -0.74963E+00  8424   0.818E+01-0.139E+01
CGA:  22    -0.665924979015E+03   -0.60453E+00   -0.43836E+00  8424   0.309E+01 0.110E+01
CGA:  23    -0.666128915215E+03   -0.20394E+00   -0.22616E+00  8424   0.278E+01-0.252E+00
CGA:  24    -0.666344430242E+03   -0.21552E+00   -0.20469E+00  8424   0.103E+01 0.801E-01
CGA:  25    -0.666452745210E+03   -0.10831E+00   -0.10814E+00  8424   0.106E+01-0.748E-02
CGA:  26    -0.666547922130E+03   -0.95177E-01   -0.99439E-01  8424   0.563E+00 0.667E-01
CGA:  27    -0.666613215921E+03   -0.65294E-01   -0.65696E-01  8424   0.493E+00 0.371E-01
CGA:  28    -0.666677958968E+03   -0.64743E-01   -0.65112E-01  8424   0.310E+00-0.299E-01
CGA:  29    -0.666749087648E+03   -0.71129E-01   -0.64778E-01  8424   0.195E+00 0.426E-01
CGA:  30    -0.666782159019E+03   -0.33071E-01   -0.33457E-01  8424   0.184E+00-0.176E-01
CGA:  31    -0.666813779793E+03   -0.31621E-01   -0.46772E-01  8424   0.302E+00-0.940E-01
CGA:  32    -0.666846132642E+03   -0.32353E-01   -0.32210E-01  8424   0.646E-01-0.130E-01
CGA:  33    -0.666860528573E+03   -0.14396E-01   -0.16396E-01  8424   0.121E+00-0.145E-01
CGA:  34    -0.666886936144E+03   -0.26408E-01   -0.36974E-01  8424   0.791E-01-0.401E-01
CGA:  35    -0.666899207112E+03   -0.12271E-01   -0.17708E-01  8424   0.137E+00-0.289E-01
CGA:  36    -0.666915147790E+03   -0.15941E-01   -0.23533E-01  8424   0.201E+00-0.656E-01
CGA:  37    -0.666920973741E+03   -0.58260E-02   -0.45127E-01  8424   0.379E+00-0.154E+00
CGA:  38    -0.666979809934E+03   -0.58836E-01   -0.58943E-01  8424   0.129E+00-0.626E-03
CGA:  39    -0.667015467647E+03   -0.35658E-01   -0.35641E-01  8424   0.705E-01 0.672E-03
CGA:  40    -0.667032356348E+03   -0.16889E-01   -0.16953E-01  8424   0.407E-01-0.141E-02
CGA:  41    -0.667048601619E+03   -0.16245E-01   -0.16054E-01  8424   0.228E-01 0.106E-02
CGA:  42    -0.667056201982E+03   -0.76004E-02   -0.77631E-02  8424   0.134E-01-0.115E-02
CGA:  43    -0.667051723020E+03    0.44790E-02   -0.42038E-02  8424   0.132E+00-0.190E-01
CGA:  44    -0.667071496926E+03   -0.19774E-01   -0.19788E-01  8424   0.208E-01 0.814E-03
CGA:  45    -0.667079666814E+03   -0.81699E-02   -0.83076E-02  8424   0.140E-01-0.331E-02
CGA:  46    -0.667084049568E+03   -0.43828E-02   -0.44644E-02  8424   0.142E-01-0.395E-02
CGA:  47    -0.667088170813E+03   -0.41212E-02   -0.47040E-02  8424   0.186E-01-0.569E-02
CGA:  48    -0.667092061843E+03   -0.38910E-02   -0.59598E-02  8424   0.342E-01-0.125E-01
CGA:  49    -0.667097971261E+03   -0.59094E-02   -0.61784E-02  8424   0.983E-02 0.157E-02
CGA:  50    -0.667101691337E+03   -0.37201E-02   -0.37193E-02  8424   0.750E-02-0.651E-03
CGA:  51    -0.667104134610E+03   -0.24433E-02   -0.24436E-02  8424   0.397E-02 0.360E-04
CGA:  52    -0.667106195539E+03   -0.20609E-02   -0.23902E-02  8424   0.416E-02-0.142E-02
CGA:  53    -0.667106727467E+03   -0.53193E-03   -0.18752E-02  8424   0.206E-01-0.422E-02
CGA:  54    -0.667109894213E+03   -0.31667E-02   -0.31711E-02  8424   0.373E-02 0.125E-03
CGA:  55    -0.667111844741E+03   -0.19505E-02   -0.27091E-02  8424   0.769E-02-0.222E-02
CGA:  56    -0.667113660495E+03   -0.18158E-02   -0.17218E-02  8424   0.246E-02-0.563E-03
CGA:  57    -0.667114535794E+03   -0.87530E-03   -0.86904E-03  8424   0.292E-02-0.104E-02
CGA:  58    -0.667116115570E+03   -0.15798E-02    0.15328E-02  8424   0.280E-02 0.412E-04
CGA:  59    -0.667118763308E+03   -0.26477E-02    0.26446E-02  8424   0.247E-02 0.129E-02
CGA:  60    -0.667117049321E+03    0.17140E-02   -0.37734E-02  8424   0.574E-01-0.855E-02
CGA:  61    -0.667125093989E+03   -0.80447E-02   -0.79188E-02  8424   0.538E-02-0.652E-03
CGA:  62    -0.667126778619E+03   -0.16846E-02   -0.16376E-02  8424   0.126E-02-0.488E-03
CGA:  63    -0.667120879305E+03    0.58993E-02   -0.22016E-02  8424   0.601E-01-0.532E-02
CGA:  64    -0.667129458683E+03   -0.85794E-02   -0.87328E-02  8424   0.456E-02 0.210E-02
CGA:  65    -0.667130847724E+03   -0.13890E-02   -0.12398E-02  8424   0.172E-02-0.765E-03
CGA:  66    -0.667131070924E+03   -0.22320E-03   -0.14683E-02  8424   0.768E-02-0.218E-02
CGA:  67    -0.667133209334E+03   -0.21384E-02   -0.19511E-02  8424   0.310E-02-0.860E-03
CGA:  68    -0.667134069766E+03   -0.86043E-03   -0.77380E-03  8424   0.128E-02-0.465E-03
CGA:  69    -0.667115215252E+03    0.18855E-01   -0.10362E-01  8424   0.147E+00-0.882E-02
CGA:  70    -0.667138659982E+03   -0.23445E-01   -0.22208E-01  8424   0.100E-01 0.104E-01
CGA:  71    -0.667141219564E+03   -0.25596E-02   -0.23158E-02  8424   0.237E-02-0.465E-03
CGA:  72    -0.667142552906E+03   -0.13333E-02   -0.11827E-02  8424   0.941E-03-0.609E-03
CGA:  73    -0.667144024973E+03   -0.14721E-02    0.69091E-03  8424   0.264E-02-0.799E-04
CGA:  74    -0.667149738938E+03   -0.57140E-02    0.16542E-02  8424   0.215E-02 0.452E-03
CGA:  75    -0.667156022855E+03   -0.62839E-02    0.15051E-02  8424   0.265E-02 0.801E-03
CGA:  76    -0.667163148221E+03   -0.71254E-02    0.48052E-02  8424   0.139E-01-0.176E-02
CGA:  77    -0.667165326235E+03   -0.21780E-02   -0.20660E-02  8424   0.144E-02-0.202E-03
CGA:  78    -0.667166298824E+03   -0.97259E-03   -0.85869E-03  8424   0.260E-02-0.919E-03
CGA:  79    -0.667166872990E+03   -0.57417E-03   -0.50417E-03  8424   0.729E-03-0.123E-03
CGA:  80    -0.667167893057E+03   -0.10201E-02    0.45988E-02  8424   0.272E-02-0.446E-03
CGA:  81    -0.667168424064E+03   -0.53101E-03   -0.47810E-03  8424   0.679E-03-0.933E-04
CGA:  82    -0.667169495614E+03   -0.10716E-02    0.10120E-02  8424   0.212E-02-0.331E-03
CGA:  83    -0.667172917374E+03   -0.34218E-02    0.27138E-03  8424   0.561E-02-0.509E-03
CGA:  84    -0.667184550186E+03   -0.11633E-01    0.13885E-02  8424   0.218E-01-0.103E-02
CGA:  85    -0.667244112986E+03   -0.59563E-01    0.39916E-02  8424   0.417E-01-0.108E-01
CGA:  86    -0.667307442388E+03   -0.63329E-01    0.56452E-02  8424   0.125E+00-0.165E+00
CGA:  87    -0.667331496174E+03   -0.24054E-01   -0.25976E-01  8424   0.322E-01 0.798E-02
CGA:  88    -0.667339520550E+03   -0.80244E-02   -0.10844E-01  8424   0.177E-01 0.854E-02
CGA:  89    -0.667343087586E+03   -0.35670E-02   -0.68753E-02  8424   0.956E-02 0.102E-01
CGA:  90    -0.667343932503E+03   -0.84492E-03   -0.25821E-02  8424   0.659E-02 0.510E-02
CGA:  91    -0.667344134036E+03   -0.20153E-03   -0.16203E-02  8424   0.556E-02 0.401E-02
CGA:  92    -0.667343946928E+03    0.18711E-03   -0.12064E-02  8424   0.472E-02 0.386E-02
CGA:  93    -0.667343725204E+03    0.22172E-03   -0.10564E-02  8424   0.424E-02 0.376E-02
CGA:  94    -0.667343395016E+03    0.33019E-03   -0.88613E-03  8424   0.385E-02 0.362E-02
CGA:  95    -0.667343052798E+03    0.34222E-03   -0.78794E-03  8424   0.357E-02 0.348E-02
CGA:  96    -0.667342676416E+03    0.37638E-03   -0.68889E-03  8424   0.334E-02 0.333E-02
CGA:  97    -0.667342300707E+03    0.37571E-03   -0.61984E-03  8424   0.316E-02 0.319E-02
CGA:  98    -0.667341921228E+03    0.37948E-03   -0.55628E-03  8424   0.301E-02 0.306E-02
CGA:  99    -0.667341549770E+03    0.37146E-03   -0.50638E-03  8424   0.289E-02 0.294E-02
CGA: 100    -0.667341185900E+03    0.36387E-03   -0.46196E-03  8424   0.278E-02 0.283E-02
CGA: 101    -0.667340833184E+03    0.35272E-03   -0.42450E-03  8424   0.269E-02 0.273E-02
CGA: 102    -0.667340491518E+03    0.34167E-03   -0.39116E-03  8424   0.260E-02 0.264E-02
CGA: 103    -0.667340161966E+03    0.32955E-03   -0.36201E-03  8424   0.253E-02 0.256E-02
CGA: 104    -0.667339844222E+03    0.31774E-03   -0.33582E-03  8424   0.246E-02 0.249E-02
CGA: 105    -0.667339538576E+03    0.30565E-03   -0.31253E-03  8424   0.239E-02 0.242E-02
CGA: 106    -0.667339244558E+03    0.29402E-03   -0.29141E-03  8424   0.233E-02 0.236E-02
CGA: 107    -0.667338962160E+03    0.28240E-03   -0.27243E-03  8424   0.228E-02 0.231E-02
CGA: 108    -0.667338690819E+03    0.27134E-03   -0.25508E-03  8424   0.223E-02 0.226E-02
CGA: 109    -0.667338430416E+03    0.26040E-03   -0.23936E-03  8424   0.219E-02 0.221E-02
CGA: 110    -0.667338180321E+03    0.25010E-03   -0.22485E-03  8424   0.214E-02 0.217E-02
CGA: 111    -0.667337940414E+03    0.23991E-03   -0.21167E-03  8424   0.211E-02 0.213E-02
CGA: 112    -0.667337709966E+03    0.23045E-03   -0.19936E-03  8424   0.207E-02 0.209E-02
CGA: 113    -0.667337489012E+03    0.22095E-03   -0.18820E-03  8424   0.204E-02 0.205E-02
CGA: 114    -0.667337276595E+03    0.21242E-03   -0.17758E-03  8424   0.200E-02 0.202E-02
CGA: 115    -0.667337073248E+03    0.20335E-03   -0.16815E-03  8424   0.198E-02 0.199E-02
CGA: 116    -0.667336877258E+03    0.19599E-03   -0.15869E-03  8424   0.195E-02 0.196E-02
CGA: 117    -0.667336690827E+03    0.18643E-03   -0.15106E-03  8424   0.193E-02 0.193E-02
CGA: 118    -0.667336509794E+03    0.18103E-03   -0.14197E-03  8424   0.190E-02 0.190E-02
CGA: 119    -0.667336340220E+03    0.16957E-03   -0.13656E-03  8424   0.189E-02 0.188E-02
CGA: 120    -0.667336172912E+03    0.16731E-03   -0.12733E-03  8424   0.186E-02 0.185E-02
CGA: 121    -0.667336017769E+03    0.15514E-03   -0.12381E-03  8424   0.184E-02 0.183E-02
CGA: 122    -0.667335863409E+03    0.15436E-03   -0.11523E-03  8424   0.182E-02 0.181E-02
CGA: 123    -0.667335718825E+03    0.14458E-03   -0.11153E-03  8424   0.179E-02 0.180E-02
CGA: 124    -0.667335576768E+03    0.14206E-03   -0.10463E-03  8424   0.178E-02 0.178E-02
CGA: 125    -0.667335441994E+03    0.13477E-03   -0.10050E-03  8424   0.176E-02 0.177E-02
CGA: 126    -0.667335311003E+03    0.13099E-03   -0.95040E-04  8424   0.174E-02 0.175E-02
CGA: 127    -0.667335186198E+03    0.12480E-03   -0.91150E-04  8424   0.173E-02 0.174E-02
CGA: 128    -0.667335065205E+03    0.12099E-03   -0.86433E-04  8424   0.172E-02 0.172E-02
CGA: 129    -0.667334949879E+03    0.11533E-03   -0.82966E-04  8424   0.170E-02 0.171E-02
CGA: 130    -0.667334837908E+03    0.11197E-03   -0.78656E-04  8424   0.169E-02 0.170E-02
CGA: 131    -0.667334731576E+03    0.10633E-03   -0.75766E-04  8424   0.168E-02 0.168E-02
CGA: 132    -0.667334627899E+03    0.10368E-03   -0.71653E-04  8424   0.167E-02 0.167E-02
CGA: 133    -0.667334530002E+03    0.97896E-04   -0.69346E-04  8424   0.166E-02 0.166E-02
CGA: 134    -0.667334434161E+03    0.95841E-04   -0.65435E-04  8424   0.165E-02 0.165E-02
CGA: 135    -0.667334343708E+03    0.90454E-04   -0.63417E-04  8424   0.164E-02 0.164E-02
CGA: 136    -0.667334255288E+03    0.88419E-04   -0.59956E-04  8424   0.163E-02 0.163E-02
CGA: 137    -0.667334171364E+03    0.83924E-04   -0.57925E-04  8424   0.162E-02 0.162E-02
CGA: 138    -0.667334089697E+03    0.81667E-04   -0.54980E-04  8424   0.161E-02 0.161E-02
CGA: 139    -0.667334011835E+03    0.77862E-04   -0.52990E-04  8424   0.160E-02 0.160E-02
CGA: 140    -0.667333936267E+03    0.75568E-04   -0.50425E-04  8424   0.159E-02 0.160E-02
CGA: 141    -0.667333864157E+03    0.72110E-04   -0.48601E-04  8424   0.159E-02 0.159E-02
CGA: 142    -0.667333794202E+03    0.69955E-04   -0.46284E-04  8424   0.158E-02 0.158E-02
CGA: 143    -0.667333727478E+03    0.66724E-04   -0.44647E-04  8424   0.157E-02 0.157E-02
CGA: 144    -0.667333662736E+03    0.64743E-04   -0.42529E-04  8424   0.157E-02 0.157E-02
CGA: 145    -0.667333600971E+03    0.61765E-04   -0.41039E-04  8424   0.156E-02 0.156E-02
CGA: 146    -0.667333541067E+03    0.59904E-04   -0.39124E-04  8424   0.155E-02 0.156E-02
CGA: 147    -0.667333483834E+03    0.57233E-04   -0.37732E-04  8424   0.155E-02 0.155E-02
CGA: 148    -0.667333428383E+03    0.55451E-04   -0.36016E-04  8424   0.154E-02 0.154E-02
CGA: 149    -0.667333375322E+03    0.53061E-04   -0.34711E-04  8424   0.154E-02 0.154E-02
CGA: 150    -0.667333323960E+03    0.51362E-04   -0.33169E-04  8424   0.153E-02 0.153E-02
CGA: 151    -0.667333274775E+03    0.49185E-04   -0.31963E-04  8424   0.153E-02 0.153E-02
CGA: 152    -0.667333227188E+03    0.47587E-04   -0.30565E-04  8424   0.152E-02 0.152E-02
CGA: 153    -0.667333181607E+03    0.45581E-04   -0.29458E-04  8424   0.152E-02 0.152E-02
CGA: 154    -0.667333137518E+03    0.44089E-04   -0.28184E-04  8424   0.151E-02 0.152E-02
CGA: 155    -0.667333095275E+03    0.42243E-04   -0.27167E-04  8424   0.151E-02 0.151E-02
CGA: 156    -0.667333054426E+03    0.40849E-04   -0.26004E-04  8424   0.151E-02 0.151E-02
CGA: 157    -0.667333015265E+03    0.39160E-04   -0.25064E-04  8424   0.150E-02 0.150E-02
CGA: 158    -0.667332977408E+03    0.37857E-04   -0.24004E-04  8424   0.150E-02 0.150E-02
CGA: 159    -0.667332941095E+03    0.36314E-04   -0.23132E-04  8424   0.150E-02 0.150E-02
CGA: 160    -0.667332906001E+03    0.35094E-04   -0.22166E-04  8424   0.149E-02 0.149E-02
CGA: 161    -0.667332872324E+03    0.33677E-04   -0.21360E-04  8424   0.149E-02 0.149E-02
CGA: 162    -0.667332839786E+03    0.32537E-04   -0.20477E-04  8424   0.149E-02 0.149E-02
CGA: 163    -0.667332808554E+03    0.31232E-04   -0.19733E-04  8424   0.148E-02 0.148E-02
CGA: 164    -0.667332778385E+03    0.30169E-04   -0.18924E-04  8424   0.148E-02 0.148E-02
CGA: 165    -0.667332749420E+03    0.28965E-04   -0.18238E-04  8424   0.148E-02 0.148E-02
CGA: 166    -0.667332721445E+03    0.27975E-04   -0.17496E-04  8424   0.148E-02 0.148E-02
CGA: 167    -0.667332694580E+03    0.26866E-04   -0.16862E-04  8424   0.147E-02 0.147E-02
CGA: 168    -0.667332668636E+03    0.25943E-04   -0.16181E-04  8424   0.147E-02 0.147E-02
CGA: 169    -0.667332643714E+03    0.24922E-04   -0.15594E-04  8424   0.147E-02 0.147E-02
CGA: 170    -0.667332619651E+03    0.24063E-04   -0.14969E-04  8424   0.147E-02 0.147E-02
CGA: 171    -0.667332596530E+03    0.23121E-04   -0.14425E-04  8424   0.146E-02 0.146E-02
CGA: 172    -0.667332574209E+03    0.22321E-04   -0.13851E-04  8424   0.146E-02 0.146E-02
CGA: 173    -0.667332552757E+03    0.21452E-04   -0.13349E-04  8424   0.146E-02 0.146E-02
CGA: 174    -0.667332532050E+03    0.20707E-04   -0.12820E-04  8424   0.146E-02 0.146E-02
CGA: 175    -0.667332512147E+03    0.19903E-04   -0.12356E-04  8424   0.146E-02 0.146E-02
CGA: 176    -0.667332492937E+03    0.19210E-04   -0.11869E-04  8424   0.145E-02 0.146E-02
CGA: 177    -0.667332474469E+03    0.18467E-04   -0.11439E-04  8424   0.145E-02 0.145E-02
CGA: 178    -0.667332456645E+03    0.17824E-04   -0.10991E-04  8424   0.145E-02 0.145E-02
CGA: 179    -0.667332439509E+03    0.17137E-04   -0.10593E-04  8424   0.145E-02 0.145E-02
CGA: 180    -0.667332422970E+03    0.16538E-04   -0.10180E-04  8424   0.145E-02 0.145E-02
CGA: 181    -0.667332407067E+03    0.15903E-04   -0.98112E-05  8424   0.145E-02 0.145E-02
CGA: 182    -0.667332391721E+03    0.15346E-04   -0.94300E-05  8424   0.145E-02 0.145E-02
CGA: 183    -0.667332376962E+03    0.14759E-04   -0.90889E-05  8424   0.144E-02 0.144E-02
CGA: 184    -0.667332362721E+03    0.14241E-04   -0.87372E-05  8424   0.144E-02 0.144E-02
CGA: 185    -0.667332349024E+03    0.13697E-04   -0.84214E-05  8424   0.144E-02 0.144E-02
CGA: 186    -0.667332335807E+03    0.13216E-04   -0.80965E-05  8424   0.144E-02 0.144E-02
CGA: 187    -0.667332323094E+03    0.12713E-04   -0.78041E-05  8424   0.144E-02 0.144E-02
CGA: 188    -0.667332310829E+03    0.12266E-04   -0.75040E-05  8424   0.144E-02 0.144E-02
CGA: 189    -0.667332299029E+03    0.11799E-04   -0.72331E-05  8424   0.144E-02 0.144E-02
CGA: 190    -0.667332287645E+03    0.11384E-04   -0.69558E-05  8424   0.144E-02 0.144E-02
CGA: 191    -0.667332276693E+03    0.10952E-04   -0.67048E-05  8424   0.144E-02 0.144E-02
CGA: 192    -0.667332266126E+03    0.10567E-04   -0.64484E-05  8424   0.143E-02 0.143E-02
CGA: 193    -0.667332255960E+03    0.10166E-04   -0.62159E-05  8424   0.143E-02 0.143E-02
CGA: 194    -0.667332246152E+03    0.98079E-05   -0.59787E-05  8424   0.143E-02 0.143E-02
   1 F= -.66733225E+03 E0= -.66733225E+03  d E =-.667332E+03  mag=     2.0000
       N       E                     dE             d eps       ncg     rms          ort
SDA:   1    -0.667329763615E+03    0.24923E-02    0.00000E+00  8424   0.171E-02 0.000E+00
CGA:   2    -0.667329757397E+03    0.62181E-05   -0.88845E-05  8424   0.168E-02 0.170E-02
CGA:   3    -0.667329751196E+03    0.62015E-05   -0.83534E-05  8424   0.166E-02 0.167E-02
CGA:   4    -0.667329745050E+03    0.61457E-05   -0.78849E-05  8424   0.164E-02 0.165E-02
   2 F= -.66732975E+03 E0= -.66732975E+03  d E =0.250110E-02  mag=     2.0000
       N       E                     dE             d eps       ncg     rms          ort
SDA:   1    -0.667328808306E+03    0.94289E-03    0.00000E+00  8424   0.217E-02 0.000E+00
CGA:   2    -0.667328805531E+03    0.27741E-05   -0.11948E-04  8424   0.210E-02 0.214E-02
CGA:   3    -0.667328802319E+03    0.32127E-05   -0.10952E-04  8424   0.204E-02 0.208E-02
CGA:   4    -0.667328798803E+03    0.35159E-05   -0.10110E-04  8424   0.199E-02 0.202E-02
   3 F= -.66732880E+03 E0= -.66732880E+03  d E =0.946247E-03  mag=     2.0000
       N       E                     dE             d eps       ncg     rms          ort
SDA:   1    -0.666221057172E+03    0.11077E+01    0.00000E+00  8424   0.332E+01 0.000E+00
CGA:   2    -0.666626190406E+03   -0.40513E+00   -0.47241E+00  8424   0.177E+01 0.233E+01
CGA:   3    -0.666995493354E+03   -0.36930E+00   -0.27412E+00  8424   0.730E+00 0.106E+01
CGA:   4    -0.667245377755E+03   -0.24988E+00   -0.10049E+00  8424   0.182E+00 0.322E+00
CGA:   5    -0.667332114290E+03   -0.86737E-01   -0.81831E-01  8424   0.255E-01 0.199E-01
CGA:   6    -0.667337496850E+03   -0.53826E-02   -0.46582E-02  8424   0.808E-02 0.848E-02
CGA:   7    -0.667339029399E+03   -0.15325E-02   -0.13190E-02  8424   0.293E-02 0.546E-02
CGA:   8    -0.667339235933E+03   -0.20653E-03   -0.22654E-03  8424   0.215E-02 0.245E-02
CGA:   9    -0.667339313060E+03   -0.77127E-04   -0.12789E-03  8424   0.185E-02 0.198E-02
CGA:  10    -0.667339351160E+03   -0.38100E-04   -0.94735E-04  8424   0.166E-02 0.174E-02
CGA:  11    -0.667339369122E+03   -0.17963E-04   -0.75578E-04  8424   0.152E-02 0.158E-02
CGA:  12    -0.667339375052E+03   -0.59299E-05   -0.62730E-04  8424   0.141E-02 0.146E-02
CGA:  13    -0.667339373258E+03    0.17943E-05   -0.53413E-04  8424   0.133E-02 0.136E-02
CGA:  14    -0.667339366306E+03    0.69515E-05   -0.46317E-04  8424   0.126E-02 0.129E-02
CGA:  15    -0.667339355840E+03    0.10466E-04   -0.40722E-04  8424   0.120E-02 0.122E-02
CGA:  16    -0.667339342976E+03    0.12865E-04   -0.36213E-04  8424   0.115E-02 0.117E-02
CGA:  17    -0.667339328517E+03    0.14458E-04   -0.32554E-04  8424   0.111E-02 0.113E-02
CGA:  18    -0.667339312990E+03    0.15527E-04   -0.29474E-04  8424   0.107E-02 0.109E-02
CGA:  19    -0.667339296778E+03    0.16212E-04   -0.26847E-04  8424   0.104E-02 0.105E-02
CGA:  20    -0.667339280165E+03    0.16613E-04   -0.24581E-04  8424   0.101E-02 0.102E-02
CGA:  21    -0.667339263364E+03    0.16801E-04   -0.22610E-04  8424   0.986E-03 0.997E-03
CGA:  22    -0.667339246536E+03    0.16828E-04   -0.20880E-04  8424   0.964E-03 0.974E-03
CGA:  23    -0.667339229803E+03    0.16733E-04   -0.19351E-04  8424   0.944E-03 0.952E-03
CGA:  24    -0.667339213257E+03    0.16547E-04   -0.17991E-04  8424   0.925E-03 0.933E-03
CGA:  25    -0.667339196965E+03    0.16291E-04   -0.16774E-04  8424   0.909E-03 0.916E-03
CGA:  26    -0.667339180981E+03    0.15984E-04   -0.15679E-04  8424   0.894E-03 0.900E-03
CGA:  27    -0.667339165341E+03    0.15640E-04   -0.14689E-04  8424   0.880E-03 0.886E-03
CGA:  28    -0.667339150074E+03    0.15268E-04   -0.13790E-04  8424   0.868E-03 0.873E-03
CGA:  29    -0.667339135197E+03    0.14876E-04   -0.12970E-04  8424   0.856E-03 0.861E-03
CGA:  30    -0.667339120725E+03    0.14473E-04   -0.12219E-04  8424   0.846E-03 0.850E-03
CGA:  31    -0.667339106663E+03    0.14061E-04   -0.11530E-04  8424   0.836E-03 0.840E-03
CGA:  32    -0.667339093017E+03    0.13647E-04   -0.10894E-04  8424   0.827E-03 0.831E-03
CGA:  33    -0.667339079785E+03    0.13232E-04   -0.10307E-04  8424   0.819E-03 0.822E-03
CGA:  34    -0.667339066965E+03    0.12820E-04   -0.97632E-05  8424   0.811E-03 0.814E-03
CGA:  35    -0.667339054553E+03    0.12412E-04   -0.92578E-05  8424   0.804E-03 0.807E-03
CGA:  36    -0.667339042544E+03    0.12009E-04   -0.87873E-05  8424   0.797E-03 0.800E-03
CGA:  37    -0.667339030930E+03    0.11614E-04   -0.83482E-05  8424   0.791E-03 0.794E-03
CGA:  38    -0.667339019703E+03    0.11227E-04   -0.79377E-05  8424   0.785E-03 0.788E-03
CGA:  39    -0.667339008854E+03    0.10849E-04   -0.75532E-05  8424   0.779E-03 0.782E-03
CGA:  40    -0.667338998375E+03    0.10479E-04   -0.71925E-05  8424   0.774E-03 0.777E-03
CGA:  41    -0.667338988255E+03    0.10120E-04   -0.68535E-05  8424   0.770E-03 0.772E-03
CGA:  42    -0.667338978486E+03    0.97694E-05   -0.65345E-05  8424   0.765E-03 0.767E-03
   4 F= -.66733898E+03 E0= -.66733898E+03  d E =-.101797E-01  mag=     2.0000
       N       E                     dE             d eps       ncg     rms          ort
SDA:   1    -0.667185529004E+03    0.15346E+00    0.00000E+00  8424   0.519E+00 0.000E+00
CGA:   2    -0.667290703008E+03   -0.10517E+00   -0.11841E-01  8424   0.162E+00 0.700E-01
CGA:   3    -0.667332240928E+03   -0.41538E-01   -0.39929E-01  8424   0.594E-01 0.961E-02
CGA:   4    -0.667343082147E+03   -0.10841E-01   -0.99284E-02  8424   0.148E-01 0.921E-02
CGA:   5    -0.667345607245E+03   -0.25251E-02   -0.21141E-02  8424   0.390E-02 0.682E-02
CGA:   6    -0.667346051219E+03   -0.44397E-03   -0.41915E-03  8424   0.204E-02 0.369E-02
CGA:   7    -0.667346125578E+03   -0.74359E-04   -0.10353E-03  8424   0.161E-02 0.180E-02
CGA:   8    -0.667346155857E+03   -0.30279E-04   -0.66880E-04  8424   0.138E-02 0.149E-02
CGA:   9    -0.667346168068E+03   -0.12211E-04   -0.50064E-04  8424   0.125E-02 0.131E-02
CGA:  10    -0.667346170916E+03   -0.28481E-05   -0.40187E-04  8424   0.115E-02 0.119E-02
CGA:  11    -0.667346168342E+03    0.25741E-05   -0.33631E-04  8424   0.107E-02 0.111E-02
CGA:  12    -0.667346162423E+03    0.59183E-05   -0.28929E-04  8424   0.102E-02 0.104E-02
CGA:  13    -0.667346154371E+03    0.80524E-05   -0.25374E-04  8424   0.970E-03 0.990E-03
CGA:  14    -0.667346144936E+03    0.94353E-05   -0.22578E-04  8424   0.932E-03 0.948E-03
CGA:  15    -0.667346134608E+03    0.10328E-04   -0.20310E-04  8424   0.900E-03 0.913E-03
CGA:  16    -0.667346123722E+03    0.10885E-04   -0.18430E-04  8424   0.872E-03 0.883E-03
CGA:  17    -0.667346112517E+03    0.11205E-04   -0.16847E-04  8424   0.849E-03 0.858E-03
CGA:  18    -0.667346101158E+03    0.11359E-04   -0.15489E-04  8424   0.828E-03 0.836E-03
CGA:  19    -0.667346089765E+03    0.11393E-04   -0.14306E-04  8424   0.809E-03 0.816E-03
CGA:  20    -0.667346078425E+03    0.11340E-04   -0.13265E-04  8424   0.792E-03 0.799E-03
CGA:  21    -0.667346067201E+03    0.11224E-04   -0.12339E-04  8424   0.777E-03 0.783E-03
CGA:  22    -0.667346056142E+03    0.11059E-04   -0.11510E-04  8424   0.764E-03 0.769E-03
CGA:  23    -0.667346045281E+03    0.10861E-04   -0.10761E-04  8424   0.751E-03 0.756E-03
CGA:  24    -0.667346034646E+03    0.10635E-04   -0.10084E-04  8424   0.740E-03 0.744E-03
CGA:  25    -0.667346024256E+03    0.10390E-04   -0.94667E-05  8424   0.730E-03 0.734E-03
CGA:  26    -0.667346014123E+03    0.10133E-04   -0.89022E-05  8424   0.720E-03 0.724E-03
CGA:  27    -0.667346004257E+03    0.98660E-05   -0.83841E-05  8424   0.711E-03 0.714E-03
   5 F= -.66734600E+03 E0= -.66734600E+03  d E =-.702577E-02  mag=     2.0000
       N       E                     dE             d eps       ncg     rms          ort
SDA:   1    -0.667285975885E+03    0.60038E-01    0.00000E+00  8424   0.189E+00 0.000E+00
CGA:   2    -0.667331973462E+03   -0.45998E-01   -0.40905E-02  8424   0.664E-01 0.177E-01
CGA:   3    -0.667346803299E+03   -0.14830E-01   -0.14162E-01  8424   0.209E-01 0.506E-02
CGA:   4    -0.667350421518E+03   -0.36182E-02   -0.31835E-02  8424   0.488E-02 0.605E-02
CGA:   5    -0.667351042407E+03   -0.62089E-03   -0.56132E-03  8424   0.210E-02 0.377E-02
CGA:   6    -0.667351139532E+03   -0.97125E-04   -0.12357E-03  8424   0.147E-02 0.173E-02
CGA:   7    -0.667351170284E+03   -0.30752E-04   -0.67618E-04  8424   0.122E-02 0.134E-02
CGA:   8    -0.667351180205E+03   -0.99210E-05   -0.47833E-04  8424   0.108E-02 0.115E-02
CGA:   9    -0.667351180407E+03   -0.20156E-06   -0.37196E-04  8424   0.981E-03 0.103E-02
CGA:  10    -0.667351175373E+03    0.50337E-05   -0.30484E-04  8424   0.911E-03 0.945E-03
CGA:  11    -0.667351167312E+03    0.80614E-05   -0.25841E-04  8424   0.857E-03 0.883E-03
CGA:  12    -0.667351157441E+03    0.98704E-05   -0.22425E-04  8424   0.815E-03 0.835E-03
CGA:  13    -0.667351146487E+03    0.10954E-04   -0.19797E-04  8424   0.780E-03 0.796E-03
CGA:  14    -0.667351134904E+03    0.11583E-04   -0.17703E-04  8424   0.752E-03 0.765E-03
CGA:  15    -0.667351122990E+03    0.11914E-04   -0.15990E-04  8424   0.728E-03 0.738E-03
CGA:  16    -0.667351110950E+03    0.12040E-04   -0.14566E-04  8424   0.708E-03 0.716E-03
CGA:  17    -0.667351098936E+03    0.12014E-04   -0.13378E-04  8424   0.690E-03 0.697E-03
CGA:  18    -0.667351087039E+03    0.11897E-04   -0.12349E-04  8424   0.675E-03 0.681E-03
CGA:  19    -0.667351075319E+03    0.11720E-04   -0.11443E-04  8424   0.661E-03 0.667E-03
CGA:  20    -0.667351063820E+03    0.11499E-04   -0.10639E-04  8424   0.648E-03 0.653E-03
CGA:  21    -0.667351052573E+03    0.11247E-04   -0.99201E-05  8424   0.637E-03 0.642E-03
CGA:  22    -0.667351041601E+03    0.10972E-04   -0.92731E-05  8424   0.627E-03 0.631E-03
CGA:  23    -0.667351030917E+03    0.10684E-04   -0.86873E-05  8424   0.618E-03 0.621E-03
CGA:  24    -0.667351020532E+03    0.10385E-04   -0.81543E-05  8424   0.609E-03 0.613E-03
CGA:  25    -0.667351010450E+03    0.10082E-04   -0.76675E-05  8424   0.601E-03 0.604E-03
CGA:  26    -0.667351000674E+03    0.97761E-05   -0.72210E-05  8424   0.594E-03 0.597E-03
   6 F= -.66735100E+03 E0= -.66735100E+03  d E =-.499642E-02  mag=     2.0000
       N       E                     dE             d eps       ncg     rms          ort
SDA:   1    -0.667174395120E+03    0.17662E+00    0.00000E+00  8424   0.522E+00 0.000E+00
CGA:   2    -0.667309382110E+03   -0.13499E+00   -0.10346E-01  8424   0.198E+00 0.324E-01
CGA:   3    -0.667351315514E+03   -0.41933E-01   -0.41831E-01  8424   0.632E-01 0.766E-03
CGA:   4    -0.667361973212E+03   -0.10658E-01   -0.10133E-01  8424   0.137E-01 0.621E-02
CGA:   5    -0.667364093213E+03   -0.21200E-02   -0.18884E-02  8424   0.305E-02 0.499E-02
CGA:   6    -0.667364428260E+03   -0.33505E-03   -0.33733E-03  8424   0.159E-02 0.263E-02
CGA:   7    -0.667364492374E+03   -0.64114E-04   -0.94673E-04  8424   0.120E-02 0.137E-02
CGA:   8    -0.667364512004E+03   -0.19631E-04   -0.56789E-04  8424   0.103E-02 0.111E-02
CGA:   9    -0.667364516306E+03   -0.43016E-05   -0.41685E-04  8424   0.921E-03 0.973E-03
CGA:  10    -0.667364513204E+03    0.31023E-05   -0.33124E-04  8424   0.846E-03 0.882E-03
CGA:  11    -0.667364506038E+03    0.71655E-05   -0.27519E-04  8424   0.790E-03 0.817E-03
CGA:  12    -0.667364496508E+03    0.95302E-05   -0.23532E-04  8424   0.747E-03 0.767E-03
CGA:  13    -0.667364485576E+03    0.10932E-04   -0.20535E-04  8424   0.712E-03 0.728E-03
CGA:  14    -0.667364473827E+03    0.11750E-04   -0.18191E-04  8424   0.683E-03 0.696E-03
CGA:  15    -0.667364461633E+03    0.12193E-04   -0.16302E-04  8424   0.659E-03 0.670E-03
CGA:  16    -0.667364449247E+03    0.12386E-04   -0.14747E-04  8424   0.639E-03 0.647E-03
CGA:  17    -0.667364436856E+03    0.12392E-04   -0.13474E-04  8424   0.622E-03 0.629E-03
CGA:  18    -0.667364424565E+03    0.12291E-04   -0.12380E-04  8424   0.607E-03 0.613E-03
CGA:  19    -0.667364412448E+03    0.12117E-04   -0.11425E-04  8424   0.594E-03 0.599E-03
CGA:  20    -0.667364400556E+03    0.11892E-04   -0.10585E-04  8424   0.582E-03 0.586E-03
CGA:  21    -0.667364388926E+03    0.11630E-04   -0.98388E-05  8424   0.571E-03 0.575E-03
CGA:  22    -0.667364377584E+03    0.11343E-04   -0.91716E-05  8424   0.561E-03 0.565E-03
CGA:  23    -0.667364366545E+03    0.11039E-04   -0.85710E-05  8424   0.552E-03 0.556E-03
CGA:  24    -0.667364355820E+03    0.10724E-04   -0.80277E-05  8424   0.544E-03 0.547E-03
CGA:  25    -0.667364345417E+03    0.10404E-04   -0.75335E-05  8424   0.537E-03 0.540E-03
CGA:  26    -0.667364335335E+03    0.10082E-04   -0.70821E-05  8424   0.530E-03 0.533E-03
CGA:  27    -0.667364325575E+03    0.97598E-05   -0.66682E-05  8424   0.524E-03 0.526E-03
   7 F= -.66736433E+03 E0= -.66736433E+03  d E =-.133249E-01  mag=     2.0000
       N       E                     dE             d eps       ncg     rms          ort
SDA:   1    -0.663164054953E+03    0.42003E+01    0.00000E+00  8424   0.108E+02 0.000E+00
CGA:   2    -0.666301003015E+03   -0.31369E+01   -0.30011E+00  8424   0.359E+01 0.108E+01
CGA:   3    -0.667108615820E+03   -0.80761E+00   -0.80917E+00  8424   0.123E+01-0.122E-01
CGA:   4    -0.667319488418E+03   -0.21087E+00   -0.21020E+00  8424   0.274E+00 0.726E-02
CGA:   5    -0.667365225415E+03   -0.45737E-01   -0.44982E-01  8424   0.515E-01 0.963E-02
CGA:   6    -0.667375996702E+03   -0.10771E-01   -0.10078E-01  8424   0.129E-01 0.696E-02
CGA:   7    -0.667378903970E+03   -0.29073E-02   -0.25040E-02  8424   0.448E-02 0.521E-02
CGA:   8    -0.667379776925E+03   -0.87295E-03   -0.77838E-03  8424   0.236E-02 0.369E-02
CGA:   9    -0.667379992934E+03   -0.21601E-03   -0.22426E-03  8424   0.167E-02 0.191E-02
CGA:  10    -0.667380075700E+03   -0.82766E-04   -0.12232E-03  8424   0.143E-02 0.153E-02
CGA:  11    -0.667380118789E+03   -0.43089E-04   -0.90035E-04  8424   0.128E-02 0.134E-02
CGA:  12    -0.667380141302E+03   -0.22513E-04   -0.71669E-04  8424   0.118E-02 0.122E-02
CGA:  13    -0.667380151409E+03   -0.10107E-04   -0.59418E-04  8424   0.110E-02 0.113E-02
CGA:  14    -0.667380153470E+03   -0.20609E-05   -0.50557E-04  8424   0.103E-02 0.106E-02
CGA:  15    -0.667380150097E+03    0.33730E-05   -0.43820E-04  8424   0.978E-03 0.100E-02
CGA:  16    -0.667380142970E+03    0.71271E-05   -0.38517E-04  8424   0.934E-03 0.952E-03
CGA:  17    -0.667380133223E+03    0.97476E-05   -0.34233E-04  8424   0.896E-03 0.912E-03
CGA:  18    -0.667380121647E+03    0.11576E-04   -0.30704E-04  8424   0.863E-03 0.877E-03
CGA:  19    -0.667380108809E+03    0.12838E-04   -0.27747E-04  8424   0.834E-03 0.847E-03
CGA:  20    -0.667380095124E+03    0.13685E-04   -0.25237E-04  8424   0.809E-03 0.820E-03
CGA:  21    -0.667380080899E+03    0.14226E-04   -0.23079E-04  8424   0.787E-03 0.797E-03
CGA:  22    -0.667380066362E+03    0.14536E-04   -0.21208E-04  8424   0.768E-03 0.776E-03
CGA:  23    -0.667380051688E+03    0.14674E-04   -0.19569E-04  8424   0.750E-03 0.758E-03
CGA:  24    -0.667380037009E+03    0.14679E-04   -0.18124E-04  8424   0.734E-03 0.741E-03
CGA:  25    -0.667380022424E+03    0.14585E-04   -0.16839E-04  8424   0.720E-03 0.726E-03
CGA:  26    -0.667380008009E+03    0.14415E-04   -0.15691E-04  8424   0.707E-03 0.713E-03
CGA:  27    -0.667379993822E+03    0.14187E-04   -0.14660E-04  8424   0.695E-03 0.700E-03
CGA:  28    -0.667379979906E+03    0.13916E-04   -0.13728E-04  8424   0.684E-03 0.689E-03
CGA:  29    -0.667379966292E+03    0.13614E-04   -0.12882E-04  8424   0.674E-03 0.679E-03
CGA:  30    -0.667379953003E+03    0.13289E-04   -0.12111E-04  8424   0.665E-03 0.669E-03
CGA:  31    -0.667379940055E+03    0.12948E-04   -0.11406E-04  8424   0.657E-03 0.661E-03
CGA:  32    -0.667379927457E+03    0.12598E-04   -0.10758E-04  8424   0.649E-03 0.653E-03
CGA:  33    -0.667379915216E+03    0.12241E-04   -0.10161E-04  8424   0.642E-03 0.645E-03
CGA:  34    -0.667379903335E+03    0.11881E-04   -0.96095E-05  8424   0.635E-03 0.638E-03
CGA:  35    -0.667379891813E+03    0.11522E-04   -0.90984E-05  8424   0.629E-03 0.632E-03
CGA:  36    -0.667379880648E+03    0.11165E-04   -0.86236E-05  8424   0.623E-03 0.626E-03
CGA:  37    -0.667379869837E+03    0.10811E-04   -0.81816E-05  8424   0.618E-03 0.620E-03
CGA:  38    -0.667379859375E+03    0.10462E-04   -0.77691E-05  8424   0.613E-03 0.615E-03
CGA:  39    -0.667379849255E+03    0.10120E-04   -0.73835E-05  8424   0.608E-03 0.610E-03
CGA:  40    -0.667379839471E+03    0.97840E-05   -0.70224E-05  8424   0.604E-03 0.606E-03
   8 F= -.66737984E+03 E0= -.66737984E+03  d E =-.155139E-01  mag=     2.0000
       N       E                     dE             d eps       ncg     rms          ort
SDA:   1    -0.661037862391E+03    0.63420E+01    0.00000E+00  8424   0.160E+02 0.000E+00
CGA:   2    -0.665423173735E+03   -0.43853E+01   -0.53736E+00  8424   0.628E+01 0.240E+01
CGA:   3    -0.666979778603E+03   -0.15566E+01   -0.15576E+01  8424   0.201E+01-0.750E-02
CGA:   4    -0.667299786087E+03   -0.32001E+00   -0.31935E+00  8424   0.422E+00 0.742E-02
CGA:   5    -0.667374122355E+03   -0.74336E-01   -0.73569E-01  8424   0.903E-01 0.798E-02
CGA:   6    -0.667393039445E+03   -0.18917E-01   -0.18205E-01  8424   0.218E-01 0.619E-02
CGA:   7    -0.667397983789E+03   -0.49443E-02   -0.44050E-02  8424   0.635E-02 0.537E-02
CGA:   8    -0.667399370204E+03   -0.13864E-02   -0.11689E-02  8424   0.290E-02 0.405E-02
CGA:   9    -0.667399734558E+03   -0.36435E-03   -0.32818E-03  8424   0.184E-02 0.216E-02
CGA:  10    -0.667399873917E+03   -0.13936E-03   -0.15819E-03  8424   0.153E-02 0.166E-02
CGA:  11    -0.667399953717E+03   -0.79800E-04   -0.11283E-03  8424   0.135E-02 0.142E-02
CGA:  12    -0.667400003039E+03   -0.49322E-04   -0.88101E-04  8424   0.122E-02 0.127E-02
CGA:  13    -0.667400034071E+03   -0.31032E-04   -0.72152E-04  8424   0.113E-02 0.117E-02
CGA:  14    -0.667400053163E+03   -0.19092E-04   -0.60900E-04  8424   0.106E-02 0.109E-02
CGA:  15    -0.667400064045E+03   -0.10882E-04   -0.52495E-04  8424   0.995E-03 0.102E-02
CGA:  16    -0.667400069088E+03   -0.50429E-05   -0.45962E-04  8424   0.946E-03 0.967E-03
CGA:  17    -0.667400069883E+03   -0.79559E-06   -0.40732E-04  8424   0.904E-03 0.922E-03
CGA:  18    -0.667400067546E+03    0.23376E-05   -0.36451E-04  8424   0.868E-03 0.883E-03
CGA:  19    -0.667400062879E+03    0.46664E-05   -0.32885E-04  8424   0.837E-03 0.851E-03
CGA:  20    -0.667400056478E+03    0.64011E-05   -0.29870E-04  8424   0.810E-03 0.822E-03
CGA:  21    -0.667400048790E+03    0.76885E-05   -0.27292E-04  8424   0.786E-03 0.797E-03
CGA:  22    -0.667400040156E+03    0.86335E-05   -0.25065E-04  8424   0.765E-03 0.774E-03
CGA:  23    -0.667400030840E+03    0.93156E-05   -0.23123E-04  8424   0.746E-03 0.754E-03
CGA:  24    -0.667400021047E+03    0.97933E-05   -0.21417E-04  8424   0.729E-03 0.737E-03
CGA:  25    -0.667400010936E+03    0.10111E-04   -0.19907E-04  8424   0.714E-03 0.721E-03
CGA:  26    -0.667400000632E+03    0.10304E-04   -0.18562E-04  8424   0.700E-03 0.706E-03
CGA:  27    -0.667399990233E+03    0.10399E-04   -0.17356E-04  8424   0.687E-03 0.693E-03
CGA:  28    -0.667399979817E+03    0.10416E-04   -0.16269E-04  8424   0.676E-03 0.681E-03
CGA:  29    -0.667399969445E+03    0.10373E-04   -0.15284E-04  8424   0.665E-03 0.670E-03
CGA:  30    -0.667399959163E+03    0.10281E-04   -0.14387E-04  8424   0.656E-03 0.660E-03
CGA:  31    -0.667399949010E+03    0.10153E-04   -0.13567E-04  8424   0.647E-03 0.651E-03
CGA:  32    -0.667399939015E+03    0.99955E-05   -0.12815E-04  8424   0.639E-03 0.643E-03
CGA:  33    -0.667399929200E+03    0.98144E-05   -0.12124E-04  8424   0.632E-03 0.635E-03
CGA:  34    -0.667399919589E+03    0.96110E-05   -0.11497E-04  8424   0.625E-03 0.628E-03
CGA:  35    -0.667399910195E+03    0.93947E-05   -0.10916E-04  8424   0.619E-03 0.622E-03
CGA:  36    -0.667399901023E+03    0.91711E-05   -0.10376E-04  8424   0.614E-03 0.616E-03
   9 F= -.66739990E+03 E0= -.66739990E+03  d E =-.200616E-01  mag=     2.0000
       N       E                     dE             d eps       ncg     rms          ort
SDA:   1    -0.662599146649E+03    0.48008E+01    0.00000E+00  8424   0.134E+02 0.000E+00
CGA:   2    -0.666230438246E+03   -0.36313E+01   -0.10592E+00  8424   0.559E+01-0.106E+01
CGA:   3    -0.667129690802E+03   -0.89925E+00   -0.89492E+00  8424   0.149E+01 0.465E-01
CGA:   4    -0.667403865425E+03   -0.27417E+00   -0.27391E+00  8424   0.355E+00 0.263E-02
CGA:   5    -0.667464634092E+03   -0.60769E-01   -0.61379E-01  8424   0.738E-01-0.763E-02
CGA:   6    -0.667478624795E+03   -0.13991E-01   -0.13905E-01  8424   0.180E-01 0.874E-03
CGA:   7    -0.667482984751E+03   -0.43600E-02   -0.41281E-02  8424   0.575E-02 0.185E-02
CGA:   8    -0.667484394791E+03   -0.14100E-02   -0.12355E-02  8424   0.194E-02 0.198E-02
CGA:   9    -0.667484822864E+03   -0.42807E-03   -0.38047E-03  8424   0.930E-03 0.137E-02
CGA:  10    -0.667485006280E+03   -0.18342E-03   -0.15201E-03  8424   0.535E-03 0.625E-03
CGA:  11    -0.667485080489E+03   -0.74209E-04   -0.68435E-04  8424   0.433E-03 0.475E-03
CGA:  12    -0.667485122168E+03   -0.41679E-04   -0.45850E-04  8424   0.376E-03 0.401E-03
CGA:  13    -0.667485148542E+03   -0.26374E-04   -0.34722E-04  8424   0.338E-03 0.355E-03
CGA:  14    -0.667485166166E+03   -0.17624E-04   -0.27927E-04  8424   0.309E-03 0.322E-03
CGA:  15    -0.667485178161E+03   -0.11995E-04   -0.23268E-04  8424   0.288E-03 0.298E-03
CGA:  16    -0.667485186332E+03   -0.81714E-05   -0.19878E-04  8424   0.270E-03 0.278E-03
CGA:  17    -0.667485191807E+03   -0.54750E-05   -0.17306E-04  8424   0.256E-03 0.263E-03
CGA:  18    -0.667485195327E+03   -0.35198E-05   -0.15290E-04  8424   0.244E-03 0.250E-03
CGA:  19    -0.667485197401E+03   -0.20741E-05   -0.13670E-04  8424   0.234E-03 0.239E-03
CGA:  20    -0.667485198390E+03   -0.98866E-06   -0.12340E-04  8424   0.226E-03 0.230E-03
CGA:  21    -0.667485198555E+03   -0.16510E-06   -0.11230E-04  8424   0.218E-03 0.222E-03
CGA:  22    -0.667485198090E+03    0.46441E-06   -0.10289E-04  8424   0.212E-03 0.215E-03
  10 F= -.66748520E+03 E0= -.66748520E+03  d E =-.852971E-01  mag=     2.0000
       N       E                     dE             d eps       ncg     rms          ort
SDA:   1    -0.666028281616E+03    0.14569E+01    0.00000E+00  8424   0.374E+01 0.000E+00
CGA:   2    -0.667116061279E+03   -0.10878E+01   -0.10905E+01  8424   0.141E+01-0.133E-01
CGA:   3    -0.667377745781E+03   -0.26168E+00   -0.26030E+00  8424   0.392E+00 0.164E-01
CGA:   4    -0.667449589144E+03   -0.71843E-01   -0.71971E-01  8424   0.924E-01-0.178E-02
CGA:   5    -0.667465229529E+03   -0.15640E-01   -0.15797E-01  8424   0.194E-01-0.255E-02
CGA:   6    -0.667468933758E+03   -0.37042E-02   -0.36688E-02  8424   0.476E-02 0.431E-03
CGA:   7    -0.667470166338E+03   -0.12326E-02   -0.12457E-02  8424   0.184E-02-0.954E-04
CGA:   8    -0.667470587383E+03   -0.42105E-03   -0.38625E-03  8424   0.583E-03 0.384E-03
CGA:   9    -0.667470776261E+03   -0.18888E-03   -0.16764E-03  8424   0.287E-03 0.193E-03
CGA:  10    -0.667470818339E+03   -0.42078E-04   -0.39918E-04  8424   0.160E-02-0.424E-03
CGA:  11    -0.667471100849E+03   -0.28251E-03   -0.29091E-03  8424   0.287E-03 0.134E-03
CGA:  12    -0.667471182506E+03   -0.81656E-04   -0.21881E-03  8424   0.960E-03-0.299E-03
CGA:  13    -0.667471311626E+03   -0.12912E-03   -0.14831E-03  8424   0.207E-03 0.175E-03
CGA:  14    -0.667471400341E+03   -0.88715E-04   -0.12217E-03  8424   0.323E-03-0.141E-03
CGA:  15    -0.667471481559E+03   -0.81218E-04   -0.82022E-04  8424   0.987E-04 0.476E-04
CGA:  16    -0.667471551777E+03   -0.70217E-04    0.10337E-03  8424   0.888E-04 0.520E-04
CGA:  17    -0.667471587617E+03   -0.35840E-04   -0.32446E-04  8424   0.106E-03 0.349E-04
CGA:  18    -0.667471696270E+03   -0.10865E-03    0.60456E-04  8424   0.828E-04 0.116E-03
CGA:  19    -0.667471742873E+03   -0.46603E-04    0.47627E-03  8424   0.596E-04 0.584E-04
CGA:  20    -0.667471785213E+03   -0.42340E-04    0.28090E-04  8424   0.585E-04 0.579E-04
CGA:  21    -0.667471827711E+03   -0.42498E-04    0.24926E-04  8424   0.580E-04 0.572E-04
CGA:  22    -0.667471869934E+03   -0.42222E-04    0.24494E-04  8424   0.577E-04 0.564E-04
CGA:  23    -0.667471912791E+03   -0.42857E-04    0.22628E-04  8424   0.580E-04 0.553E-04
CGA:  24    -0.667471954303E+03   -0.41512E-04    0.26304E-04  8424   0.592E-04 0.536E-04
CGA:  25    -0.667471998039E+03   -0.43736E-04    0.23752E-04  8424   0.631E-04 0.502E-04
CGA:  26    -0.667472036892E+03   -0.38853E-04    0.72278E-04  8424   0.733E-04 0.429E-04
CGA:  27    -0.667472081182E+03   -0.44290E-04    0.10093E-03  8424   0.999E-04 0.254E-04
CGA:  28    -0.667472184405E+03   -0.10322E-03    0.46640E-04  8424   0.729E-04 0.130E-03
CGA:  29    -0.667472160543E+03    0.23862E-04   -0.79650E-04  8424   0.169E-02-0.128E-03
CGA:  30    -0.667472373379E+03   -0.21284E-03   -0.19674E-03  8424   0.659E-04-0.792E-04
CGA:  31    -0.667472424623E+03   -0.51244E-04    0.28675E-04  8424   0.672E-04 0.420E-04
CGA:  32    -0.667472156787E+03    0.26784E-03   -0.14560E-03  8424   0.503E-02-0.241E-03
CGA:  33    -0.667472758991E+03   -0.60220E-03   -0.56404E-03  8424   0.703E-04-0.962E-04
CGA:  34    -0.667472799001E+03   -0.40009E-04   -0.47185E-04  8424   0.511E-03-0.489E-04
CGA:  35    -0.667472889725E+03   -0.90724E-04   -0.70970E-04  8424   0.719E-04-0.492E-04
CGA:  36    -0.667472979437E+03   -0.89711E-04    0.52985E-04  8424   0.124E-03 0.275E-04
CGA:  37    -0.667473219872E+03   -0.24044E-03    0.13395E-03  8424   0.177E-03 0.825E-04
CGA:  38    -0.667473260950E+03   -0.41078E-04   -0.31630E-04  8424   0.838E-04-0.275E-04
CGA:  39    -0.667473391203E+03   -0.13025E-03    0.21860E-04  8424   0.758E-04 0.549E-04
CGA:  40    -0.667473420288E+03   -0.29085E-04   -0.27285E-04  8424   0.133E-03-0.128E-04
CGA:  41    -0.667473630648E+03   -0.21036E-03    0.30275E-04  8424   0.186E-03 0.922E-04
CGA:  42    -0.667473716528E+03   -0.85880E-04   -0.65760E-04  8424   0.287E-03-0.140E-03
CGA:  43    -0.667473755657E+03   -0.39129E-04   -0.45912E-04  8424   0.424E-04 0.204E-04
CGA:  44    -0.667473833324E+03   -0.77667E-04    0.13436E-04  8424   0.605E-04 0.385E-04
CGA:  45    -0.667473931970E+03   -0.98646E-04    0.19941E-04  8424   0.125E-03-0.458E-05
CGA:  46    -0.667474171666E+03   -0.23970E-03    0.23187E-04  8424   0.144E-03 0.106E-03
CGA:  47    -0.667474194277E+03   -0.22611E-04   -0.28745E-04  8424   0.431E-04 0.221E-04
CGA:  48    -0.667474285374E+03   -0.91096E-04    0.11585E-04  8424   0.607E-04 0.363E-04
CGA:  49    -0.667474388804E+03   -0.10343E-03    0.16511E-04  8424   0.798E-04 0.441E-05
CGA:  50    -0.667474554334E+03   -0.16553E-03    0.17940E-04  8424   0.758E-04 0.731E-04
CGA:  51    -0.667474409819E+03    0.14451E-03   -0.13211E-03  8424   0.159E-02-0.218E-03
CGA:  52    -0.667474912813E+03   -0.50299E-03   -0.44018E-03  8424   0.152E-03-0.254E-03
CGA:  53    -0.667474939368E+03   -0.26555E-04   -0.33830E-04  8424   0.449E-04 0.292E-04
CGA:  54    -0.667475043014E+03   -0.10365E-03    0.14349E-04  8424   0.627E-04 0.234E-04
CGA:  55    -0.667475159857E+03   -0.11684E-03    0.18178E-04  8424   0.741E-04-0.303E-05
CGA:  56    -0.667475331413E+03   -0.17156E-03    0.12333E-04  8424   0.747E-04 0.630E-04
CGA:  57    -0.667474266037E+03    0.10654E-02   -0.57515E-03  8424   0.607E-02-0.485E-03
CGA:  58    -0.667475950959E+03   -0.16849E-02   -0.15730E-02  8424   0.116E-03-0.156E-03
CGA:  59    -0.667475981790E+03   -0.30831E-04   -0.34902E-04  8424   0.571E-04 0.692E-05
CGA:  60    -0.667476190297E+03   -0.20851E-03    0.25196E-04  8424   0.187E-03-0.124E-04
CGA:  61    -0.667477011450E+03   -0.82115E-03    0.27057E-04  8424   0.486E-03-0.174E-05
CGA:  62    -0.667479431575E+03   -0.24201E-02    0.10490E-03  8424   0.134E-02 0.102E-03
CGA:  63    -0.667487412770E+03   -0.79812E-02    0.36318E-03  8424   0.416E-02-0.101E-02
CGA:  64    -0.667488268599E+03   -0.85583E-03   -0.78368E-03  8424   0.670E-03-0.105E-03
CGA:  65    -0.667488610904E+03   -0.34231E-03   -0.29490E-03  8424   0.334E-03-0.129E-03
CGA:  66    -0.667488735702E+03   -0.12480E-03   -0.11624E-03  8424   0.207E-03-0.232E-04
CGA:  67    -0.667489133173E+03   -0.39747E-03    0.23295E-03  8424   0.385E-03-0.640E-04
CGA:  68    -0.667489807646E+03   -0.67447E-03    0.16670E-03  8424   0.119E-02-0.237E-03
CGA:  69    -0.667490110120E+03   -0.30247E-03   -0.28354E-03  8424   0.467E-03-0.312E-04
CGA:  70    -0.667490451531E+03   -0.34141E-03   -0.28854E-03  8424   0.920E-03-0.443E-03
CGA:  71    -0.667490644571E+03   -0.19304E-03   -0.18264E-03  8424   0.240E-03-0.157E-04
CGA:  72    -0.667490475829E+03    0.16874E-03   -0.32507E-03  8424   0.391E-02-0.752E-03
CGA:  73    -0.667491160549E+03   -0.68472E-03   -0.70529E-03  8424   0.780E-03 0.598E-04
CGA:  74    -0.667491530981E+03   -0.37043E-03   -0.29145E-03  8424   0.236E-03-0.223E-03
CGA:  75    -0.667491522042E+03    0.89396E-05   -0.19380E-03  8424   0.278E-02-0.460E-03
CGA:  76    -0.667492124214E+03   -0.60217E-03   -0.49631E-03  8424   0.345E-03-0.210E-03
CGA:  77    -0.667492247729E+03   -0.12351E-03   -0.94655E-04  8424   0.171E-03-0.715E-04
CGA:  78    -0.667492619388E+03   -0.37166E-03    0.45474E-04  8424   0.245E-03-0.506E-04
CGA:  79    -0.667493325070E+03   -0.70568E-03    0.29246E-04  8424   0.413E-03 0.547E-04
CGA:  80    -0.667495007888E+03   -0.16828E-02    0.11918E-03  8424   0.881E-03-0.973E-05
CGA:  81    -0.667498629463E+03   -0.36216E-02    0.14031E-03  8424   0.143E-02-0.206E-04
CGA:  82    -0.667506009673E+03   -0.73802E-02    0.16609E-03  8424   0.256E-02 0.199E-03
CGA:  83    -0.667521336783E+03   -0.15327E-01    0.34795E-03  8424   0.233E-02-0.789E-03
CGA:  84    -0.667535155202E+03   -0.13818E-01    0.10403E-03  8424   0.136E-01-0.471E-02
CGA:  85    -0.667536625942E+03   -0.14707E-02   -0.16838E-02  8424   0.591E-03 0.595E-03
CGA:  86    -0.667536704903E+03   -0.78961E-04   -0.16612E-03  8424   0.232E-03 0.227E-03
CGA:  87    -0.667536694298E+03    0.10604E-04   -0.56022E-04  8424   0.104E-03 0.145E-03
CGA:  88    -0.667536661950E+03    0.32349E-04   -0.12972E-04  8424   0.883E-04 0.930E-04
CGA:  89    -0.667536632633E+03    0.29317E-04   -0.10557E-04  8424   0.831E-04 0.852E-04
CGA:  90    -0.667536605185E+03    0.27448E-04   -0.92873E-05  8424   0.799E-04 0.812E-04
CGA:  91    -0.667536579412E+03    0.25773E-04   -0.84210E-05  8424   0.774E-04 0.784E-04
CGA:  92    -0.667536555154E+03    0.24258E-04   -0.77347E-05  8424   0.754E-04 0.762E-04
CGA:  93    -0.667536532276E+03    0.22877E-04   -0.71576E-05  8424   0.737E-04 0.743E-04
CGA:  94    -0.667536510666E+03    0.21610E-04   -0.66571E-05  8424   0.722E-04 0.728E-04
CGA:  95    -0.667536490226E+03    0.20441E-04   -0.62141E-05  8424   0.709E-04 0.714E-04
CGA:  96    -0.667536470869E+03    0.19356E-04   -0.58164E-05  8424   0.698E-04 0.702E-04
CGA:  97    -0.667536452521E+03    0.18348E-04   -0.54557E-05  8424   0.687E-04 0.691E-04
CGA:  98    -0.667536435113E+03    0.17408E-04   -0.51258E-05  8424   0.678E-04 0.681E-04
CGA:  99    -0.667536418584E+03    0.16529E-04   -0.48226E-05  8424   0.669E-04 0.672E-04
CGA: 100    -0.667536402880E+03    0.15704E-04   -0.45428E-05  8424   0.661E-04 0.663E-04
CGA: 101    -0.667536387950E+03    0.14930E-04   -0.42840E-05  8424   0.653E-04 0.656E-04
CGA: 102    -0.667536373749E+03    0.14201E-04   -0.40441E-05  8424   0.646E-04 0.649E-04
CGA: 103    -0.667536360235E+03    0.13514E-04   -0.38216E-05  8424   0.640E-04 0.642E-04
CGA: 104    -0.667536347369E+03    0.12866E-04   -0.36149E-05  8424   0.634E-04 0.636E-04
CGA: 105    -0.667536335116E+03    0.12253E-04   -0.34228E-05  8424   0.628E-04 0.630E-04
CGA: 106    -0.667536323442E+03    0.11674E-04   -0.32439E-05  8424   0.623E-04 0.625E-04
CGA: 107    -0.667536312316E+03    0.11126E-04   -0.30771E-05  8424   0.619E-04 0.620E-04
CGA: 108    -0.667536301709E+03    0.10607E-04   -0.29212E-05  8424   0.614E-04 0.616E-04
CGA: 109    -0.667536291594E+03    0.10115E-04   -0.27752E-05  8424   0.610E-04 0.612E-04
CGA: 110    -0.667536281945E+03    0.96485E-05   -0.26384E-05  8424   0.607E-04 0.608E-04
  11 F= -.66753628E+03 E0= -.66753628E+03  d E =-.510839E-01  mag=     2.0000
       N       E                     dE             d eps       ncg     rms          ort
SDA:   1    -0.667166750593E+03    0.36954E+00    0.00000E+00  8424   0.109E+01 0.000E+00
CGA:   2    -0.667435043185E+03   -0.26829E+00   -0.26826E+00  8424   0.477E+00 0.134E-02
CGA:   3    -0.667525644464E+03   -0.90601E-01   -0.90536E-01  8424   0.137E+00-0.176E-02
CGA:   4    -0.667549047262E+03   -0.23403E-01   -0.23425E-01  8424   0.336E-01 0.411E-03
CGA:   5    -0.667554689051E+03   -0.56418E-02   -0.56915E-02  8424   0.617E-02 0.927E-03
CGA:   6    -0.667555893676E+03   -0.12046E-02   -0.12161E-02  8424   0.150E-02 0.422E-03
CGA:   7    -0.667556180432E+03   -0.28676E-03   -0.29948E-03  8424   0.457E-03 0.409E-03
CGA:   8    -0.667556247478E+03   -0.67045E-04   -0.86809E-04  8424   0.209E-03 0.294E-03
CGA:   9    -0.667556257562E+03   -0.10085E-04   -0.24729E-04  8424   0.132E-03 0.154E-03
CGA:  10    -0.667556252599E+03    0.49632E-05   -0.10547E-04  8424   0.113E-03 0.121E-03
  12 F= -.66755625E+03 E0= -.66755625E+03  d E =-.199707E-01  mag=     2.0000
       N       E                     dE             d eps       ncg     rms          ort
SDA:   1    -0.660900231247E+03    0.66560E+01    0.00000E+00  8424   0.170E+02 0.000E+00
CGA:   2    -0.665848857968E+03   -0.49486E+01   -0.49483E+01  8424   0.711E+01-0.117E-02
CGA:   3    -0.667130350454E+03   -0.12815E+01   -0.12814E+01  8424   0.195E+01-0.484E-02
CGA:   4    -0.667466116613E+03   -0.33577E+00   -0.33579E+00  8424   0.462E+00 0.101E-02
CGA:   5    -0.667544408077E+03   -0.78291E-01   -0.78385E-01  8424   0.893E-01 0.328E-02
CGA:   6    -0.667562652141E+03   -0.18244E-01   -0.18230E-01  8424   0.231E-01 0.222E-02
CGA:   7    -0.667568188682E+03   -0.55365E-02   -0.54975E-02  8424   0.752E-02 0.108E-02
CGA:   8    -0.667570100879E+03   -0.19122E-02   -0.18710E-02  8424   0.243E-02 0.104E-02
CGA:   9    -0.667570628270E+03   -0.52739E-03   -0.53496E-03  8424   0.958E-03 0.111E-02
CGA:  10    -0.667570747908E+03   -0.11964E-03   -0.18172E-03  8424   0.550E-03 0.888E-03
CGA:  11    -0.667570761423E+03   -0.13515E-04   -0.56601E-04  8424   0.400E-03 0.460E-03
CGA:  12    -0.667570754381E+03    0.70421E-05   -0.33209E-04  8424   0.343E-03 0.370E-03
CGA:  13    -0.667570741997E+03    0.12384E-04   -0.24809E-04  8424   0.309E-03 0.326E-03
CGA:  14    -0.667570727544E+03    0.14453E-04   -0.20046E-04  8424   0.286E-03 0.297E-03
CGA:  15    -0.667570712274E+03    0.15270E-04   -0.16872E-04  8424   0.268E-03 0.277E-03
CGA:  16    -0.667570696783E+03    0.15491E-04   -0.14566E-04  8424   0.255E-03 0.262E-03
CGA:  17    -0.667570681387E+03    0.15396E-04   -0.12799E-04  8424   0.244E-03 0.249E-03
CGA:  18    -0.667570666264E+03    0.15123E-04   -0.11392E-04  8424   0.234E-03 0.239E-03
CGA:  19    -0.667570651516E+03    0.14748E-04   -0.10243E-04  8424   0.227E-03 0.230E-03
CGA:  20    -0.667570637202E+03    0.14314E-04   -0.92834E-05  8424   0.220E-03 0.223E-03
CGA:  21    -0.667570623354E+03    0.13848E-04   -0.84689E-05  8424   0.214E-03 0.217E-03
CGA:  22    -0.667570609987E+03    0.13367E-04   -0.77679E-05  8424   0.209E-03 0.211E-03
CGA:  23    -0.667570597106E+03    0.12881E-04   -0.71575E-05  8424   0.204E-03 0.206E-03
CGA:  24    -0.667570584707E+03    0.12399E-04   -0.66208E-05  8424   0.200E-03 0.202E-03
CGA:  25    -0.667570572782E+03    0.11925E-04   -0.61450E-05  8424   0.197E-03 0.198E-03
CGA:  26    -0.667570561321E+03    0.11461E-04   -0.57201E-05  8424   0.193E-03 0.195E-03
CGA:  27    -0.667570550311E+03    0.11010E-04   -0.53382E-05  8424   0.190E-03 0.192E-03
CGA:  28    -0.667570539739E+03    0.10572E-04   -0.49930E-05  8424   0.188E-03 0.189E-03
CGA:  29    -0.667570529590E+03    0.10149E-04   -0.46796E-05  8424   0.185E-03 0.186E-03
CGA:  30    -0.667570519849E+03    0.97406E-05   -0.43938E-05  8424   0.183E-03 0.184E-03
  13 F= -.66757052E+03 E0= -.66757052E+03  d E =-.142673E-01  mag=     2.0000
       N       E                     dE             d eps       ncg     rms          ort
SDA:   1    -0.665623919396E+03    0.19466E+01    0.00000E+00  8424   0.577E+01 0.000E+00
CGA:   2    -0.666972836727E+03   -0.13489E+01   -0.13483E+01  8424   0.250E+01 0.358E-02
CGA:   3    -0.667447025070E+03   -0.47419E+00   -0.47356E+00  8424   0.730E+00 0.667E-02
CGA:   4    -0.667573268617E+03   -0.12624E+00   -0.12609E+00  8424   0.183E+00 0.211E-02
CGA:   5    -0.667605332111E+03   -0.32063E-01   -0.32122E-01  8424   0.356E-01-0.900E-03
CGA:   6    -0.667612330846E+03   -0.69987E-02   -0.69822E-02  8424   0.872E-02 0.184E-03
CGA:   7    -0.667614216744E+03   -0.18859E-02   -0.17810E-02  8424   0.241E-02 0.119E-02
CGA:   8    -0.667614725461E+03   -0.50872E-03   -0.45591E-03  8424   0.835E-03 0.114E-02
CGA:   9    -0.667614859666E+03   -0.13420E-03   -0.14017E-03  8424   0.433E-03 0.735E-03
CGA:  10    -0.667614894458E+03   -0.34792E-04   -0.42863E-04  8424   0.310E-03 0.356E-03
CGA:  11    -0.667614907008E+03   -0.12550E-04   -0.24413E-04  8424   0.263E-03 0.283E-03
CGA:  12    -0.667614912169E+03   -0.51606E-05   -0.17733E-04  8424   0.234E-03 0.246E-03
CGA:  13    -0.667614913598E+03   -0.14292E-05   -0.13945E-04  8424   0.213E-03 0.222E-03
CGA:  14    -0.667614912859E+03    0.73883E-06   -0.11441E-04  8424   0.198E-03 0.204E-03
  14 F= -.66761491E+03 E0= -.66761491E+03  d E =-.443930E-01  mag=     2.0000
       N       E                     dE             d eps       ncg     rms          ort
SDA:   1    -0.666338847181E+03    0.12761E+01    0.00000E+00  8424   0.331E+01 0.000E+00
CGA:   2    -0.667301661142E+03   -0.96281E+00   -0.96482E+00  8424   0.119E+01-0.107E-01
CGA:   3    -0.667522512001E+03   -0.22085E+00   -0.21977E+00  8424   0.337E+00 0.155E-01
CGA:   4    -0.667585419704E+03   -0.62908E-01   -0.63061E-01  8424   0.809E-01-0.243E-02
CGA:   5    -0.667599034635E+03   -0.13615E-01   -0.13740E-01  8424   0.170E-01-0.262E-02
CGA:   6    -0.667602246138E+03   -0.32115E-02   -0.31759E-02  8424   0.409E-02 0.527E-03
CGA:   7    -0.667603286430E+03   -0.10403E-02   -0.10277E-02  8424   0.149E-02 0.109E-03
CGA:   8    -0.667603600134E+03   -0.31370E-03   -0.28803E-03  8424   0.457E-03 0.479E-03
CGA:   9    -0.667603688929E+03   -0.88795E-04   -0.86768E-04  8424   0.226E-03 0.317E-03
CGA:  10    -0.667603754966E+03   -0.66037E-04   -0.54405E-04  8424   0.125E-03 0.112E-03
CGA:  11    -0.667603781636E+03   -0.26670E-04   -0.26724E-04  8424   0.890E-04 0.147E-03
CGA:  12    -0.667603788251E+03   -0.66150E-05   -0.94708E-05  8424   0.730E-04 0.787E-04
  15 F= -.66760379E+03 E0= -.66760379E+03  d E =0.111246E-01  mag=     2.0000
       N       E                     dE             d eps       ncg     rms          ort
SDA:   1    -0.665419361081E+03    0.21844E+01    0.00000E+00  8424   0.606E+01 0.000E+00
CGA:   2    -0.666906438745E+03   -0.14871E+01   -0.14876E+01  8424   0.260E+01-0.462E-02
CGA:   3    -0.667403064222E+03   -0.49663E+00   -0.49624E+00  8424   0.718E+00 0.798E-02
CGA:   4    -0.667528883610E+03   -0.12582E+00   -0.12584E+00  8424   0.182E+00-0.105E-02
CGA:   5    -0.667560398787E+03   -0.31515E-01   -0.31569E-01  8424   0.357E-01-0.216E-02
CGA:   6    -0.667567465558E+03   -0.70668E-02   -0.70797E-02  8424   0.900E-02-0.257E-03
CGA:   7    -0.667569633819E+03   -0.21683E-02   -0.22391E-02  8424   0.334E-02-0.718E-03
CGA:   8    -0.667570448852E+03   -0.81503E-03   -0.83704E-03  8424   0.116E-02-0.192E-03
CGA:   9    -0.667570665359E+03   -0.21651E-03   -0.61119E-03  8424   0.229E-02-0.998E-03
CGA:  10    -0.667571151623E+03   -0.48626E-03   -0.50572E-03  8424   0.588E-03-0.502E-03
CGA:  11    -0.667571321850E+03   -0.17023E-03    0.64670E-02  8424   0.152E-03 0.142E-03
CGA:  12    -0.667571421701E+03   -0.99851E-04    0.40282E-04  8424   0.952E-04 0.737E-04
CGA:  13    -0.667571542634E+03   -0.12093E-03    0.98080E-05  8424   0.936E-04 0.984E-04
CGA:  14    -0.667571616335E+03   -0.73701E-04    0.75832E-05  8424   0.602E-04 0.614E-04
CGA:  15    -0.667571675115E+03   -0.58780E-04    0.33638E-05  8424   0.580E-04 0.585E-04
CGA:  16    -0.667571737819E+03   -0.62704E-04    0.27545E-05  8424   0.565E-04 0.571E-04
CGA:  17    -0.667571797472E+03   -0.59653E-04    0.27893E-05  8424   0.553E-04 0.558E-04
CGA:  18    -0.667571858124E+03   -0.60652E-04    0.25717E-05  8424   0.541E-04 0.546E-04
CGA:  19    -0.667571917087E+03   -0.58963E-04    0.25472E-05  8424   0.531E-04 0.536E-04
CGA:  20    -0.667571976313E+03   -0.59227E-04    0.24068E-05  8424   0.521E-04 0.525E-04
CGA:  21    -0.667572034219E+03   -0.57906E-04    0.23722E-05  8424   0.511E-04 0.515E-04
CGA:  22    -0.667572092251E+03   -0.58032E-04    0.22567E-05  8424   0.502E-04 0.506E-04
CGA:  23    -0.667572149006E+03   -0.56755E-04    0.22298E-05  8424   0.493E-04 0.497E-04
CGA:  24    -0.667572206027E+03   -0.57021E-04    0.21207E-05  8424   0.485E-04 0.488E-04
CGA:  25    -0.667572261551E+03   -0.55524E-04    0.21168E-05  8424   0.478E-04 0.479E-04
CGA:  26    -0.667572317711E+03   -0.56160E-04    0.20082E-05  8424   0.474E-04 0.469E-04
CGA:  27    -0.667572371793E+03   -0.54082E-04    0.20766E-05  8424   0.477E-04 0.454E-04
CGA:  28    -0.667572427106E+03   -0.55314E-04    0.20436E-05  8424   0.499E-04 0.429E-04
CGA:  29    -0.667572479430E+03   -0.52324E-04    0.24849E-05  8424   0.561E-04 0.375E-04
CGA:  30    -0.667572533153E+03   -0.53723E-04    0.32289E-05  8424   0.701E-04 0.266E-04
CGA:  31    -0.667572654550E+03   -0.12140E-03    0.43346E-05  8424   0.520E-04 0.997E-04
CGA:  32    -0.667572703787E+03   -0.49237E-04    0.30538E-05  8424   0.587E-04 0.291E-04
CGA:  33    -0.667572757144E+03   -0.53357E-04    0.36777E-05  8424   0.687E-04 0.194E-04
CGA:  34    -0.667572869867E+03   -0.11272E-03    0.35894E-05  8424   0.589E-04 0.895E-04
CGA:  35    -0.667572915873E+03   -0.46007E-04    0.48380E-05  8424   0.646E-04 0.172E-04
CGA:  36    -0.667573021150E+03   -0.10528E-03    0.31753E-05  8424   0.586E-04 0.819E-04
CGA:  37    -0.667573074700E+03   -0.53550E-04    0.36483E-05  8424   0.613E-04 0.154E-04
CGA:  38    -0.667573174703E+03   -0.10000E-03    0.28391E-05  8424   0.576E-04 0.758E-04
CGA:  39    -0.667573217053E+03   -0.42350E-04    0.53179E-05  8424   0.570E-04 0.149E-04
CGA:  40    -0.667573312148E+03   -0.95095E-04    0.25466E-05  8424   0.548E-04 0.702E-04
CGA:  41    -0.667573365050E+03   -0.52902E-04    0.31184E-05  8424   0.523E-04 0.158E-04
CGA:  42    -0.667573455658E+03   -0.90608E-04    0.23371E-05  8424   0.512E-04 0.657E-04
CGA:  43    -0.667573495922E+03   -0.40264E-04    0.41589E-05  8424   0.472E-04 0.175E-04
CGA:  44    -0.667573583400E+03   -0.87478E-04    0.21218E-05  8424   0.471E-04 0.616E-04
CGA:  45    -0.667573634008E+03   -0.50609E-04    0.22653E-05  8424   0.427E-04 0.193E-04
CGA:  46    -0.667573718299E+03   -0.84291E-04    0.19759E-05  8424   0.434E-04 0.584E-04
CGA:  47    -0.667573757512E+03   -0.39212E-04    0.27535E-05  8424   0.388E-04 0.207E-04
CGA:  48    -0.667573839702E+03   -0.82191E-04    0.18240E-05  8424   0.402E-04 0.555E-04
CGA:  49    -0.667573887325E+03   -0.47623E-04    0.16680E-05  8424   0.359E-04 0.214E-04
CGA:  50    -0.667573925872E+03   -0.38546E-04    0.17219E-05  8424   0.336E-04 0.233E-04
CGA:  51    -0.667573971669E+03   -0.45797E-04    0.11494E-05  8424   0.320E-04 0.244E-04
CGA:  52    -0.667574010270E+03   -0.38601E-04    0.12947E-05  8424   0.307E-04 0.251E-04
CGA:  53    -0.667574054669E+03   -0.44399E-04    0.96793E-06  8424   0.297E-04 0.254E-04
CGA:  54    -0.667574093231E+03   -0.38563E-04    0.10854E-05  8424   0.289E-04 0.256E-04
CGA:  55    -0.667574136418E+03   -0.43187E-04    0.87160E-06  8424   0.282E-04 0.256E-04
CGA:  56    -0.667574174842E+03   -0.38423E-04    0.96556E-06  8424   0.277E-04 0.255E-04
CGA:  57    -0.667574216965E+03   -0.42124E-04    0.81297E-06  8424   0.272E-04 0.253E-04
CGA:  58    -0.667574255159E+03   -0.38194E-04    0.88788E-06  8424   0.267E-04 0.251E-04
CGA:  59    -0.667574296332E+03   -0.41173E-04    0.77253E-06  8424   0.263E-04 0.249E-04
CGA:  60    -0.667574334226E+03   -0.37893E-04    0.83253E-06  8424   0.259E-04 0.246E-04
CGA:  61    -0.667574374532E+03   -0.40306E-04    0.74199E-06  8424   0.256E-04 0.243E-04
CGA:  62    -0.667574412072E+03   -0.37540E-04    0.79040E-06  8424   0.253E-04 0.239E-04
CGA:  63    -0.667574451573E+03   -0.39501E-04    0.71766E-06  8424   0.250E-04 0.236E-04
CGA:  64    -0.667574488726E+03   -0.37153E-04    0.75701E-06  8424   0.247E-04 0.233E-04
CGA:  65    -0.667574527469E+03   -0.38743E-04    0.69773E-06  8424   0.244E-04 0.229E-04
CGA:  66    -0.667574564210E+03   -0.36741E-04    0.72977E-06  8424   0.242E-04 0.226E-04
CGA:  67    -0.667574602238E+03   -0.38028E-04    0.68072E-06  8424   0.239E-04 0.222E-04
CGA:  68    -0.667574638544E+03   -0.36306E-04    0.70672E-06  8424   0.237E-04 0.218E-04
CGA:  69    -0.667574675903E+03   -0.37359E-04    0.66496E-06  8424   0.235E-04 0.215E-04
CGA:  70    -0.667574711748E+03   -0.35845E-04    0.68601E-06  8424   0.232E-04 0.211E-04
CGA:  71    -0.667574748487E+03   -0.36738E-04    0.64863E-06  8424   0.230E-04 0.208E-04
CGA:  72    -0.667574783842E+03   -0.35355E-04    0.66584E-06  8424   0.227E-04 0.205E-04
CGA:  73    -0.667574820008E+03   -0.36166E-04    0.63028E-06  8424   0.225E-04 0.202E-04
CGA:  74    -0.667574854847E+03   -0.34839E-04    0.64489E-06  8424   0.222E-04 0.199E-04
CGA:  75    -0.667574890481E+03   -0.35634E-04    0.60929E-06  8424   0.219E-04 0.196E-04
CGA:  76    -0.667574924785E+03   -0.34304E-04    0.62256E-06  8424   0.217E-04 0.194E-04
CGA:  77    -0.667574959918E+03   -0.35133E-04    0.58602E-06  8424   0.214E-04 0.191E-04
CGA:  78    -0.667574993678E+03   -0.33760E-04    0.59902E-06  8424   0.211E-04 0.189E-04
CGA:  79    -0.667575028328E+03   -0.34651E-04    0.56147E-06  8424   0.208E-04 0.187E-04
CGA:  80    -0.667575061546E+03   -0.33217E-04    0.57489E-06  8424   0.205E-04 0.184E-04
CGA:  81    -0.667575095722E+03   -0.34176E-04    0.53681E-06  8424   0.202E-04 0.182E-04
CGA:  82    -0.667575128407E+03   -0.32685E-04    0.55096E-06  8424   0.200E-04 0.180E-04
CGA:  83    -0.667575162111E+03   -0.33704E-04    0.51298E-06  8424   0.197E-04 0.178E-04
CGA:  84    -0.667575194278E+03   -0.32167E-04    0.52788E-06  8424   0.194E-04 0.176E-04
CGA:  85    -0.667575227509E+03   -0.33231E-04    0.49060E-06  8424   0.192E-04 0.174E-04
CGA:  86    -0.667575259174E+03   -0.31665E-04    0.50606E-06  8424   0.189E-04 0.172E-04
CGA:  87    -0.667575291931E+03   -0.32757E-04    0.46993E-06  8424   0.187E-04 0.170E-04
CGA:  88    -0.667575323110E+03   -0.31179E-04    0.48572E-06  8424   0.184E-04 0.168E-04
CGA:  89    -0.667575355393E+03   -0.32283E-04    0.45097E-06  8424   0.182E-04 0.166E-04
CGA:  90    -0.667575386098E+03   -0.30706E-04    0.46686E-06  8424   0.179E-04 0.164E-04
CGA:  91    -0.667575417910E+03   -0.31811E-04    0.43359E-06  8424   0.177E-04 0.162E-04
CGA:  92    -0.667575448154E+03   -0.30244E-04    0.44941E-06  8424   0.175E-04 0.160E-04
CGA:  93    -0.667575479498E+03   -0.31344E-04    0.41756E-06  8424   0.173E-04 0.158E-04
CGA:  94    -0.667575509290E+03   -0.29792E-04    0.43318E-06  8424   0.171E-04 0.156E-04
CGA:  95    -0.667575540172E+03   -0.30883E-04    0.40267E-06  8424   0.169E-04 0.154E-04
CGA:  96    -0.667575569520E+03   -0.29347E-04    0.41801E-06  8424   0.167E-04 0.153E-04
CGA:  97    -0.667575599949E+03   -0.30429E-04    0.38866E-06  8424   0.165E-04 0.151E-04
CGA:  98    -0.667575628858E+03   -0.28909E-04    0.40370E-06  8424   0.163E-04 0.149E-04
CGA:  99    -0.667575658842E+03   -0.29984E-04    0.37536E-06  8424   0.161E-04 0.147E-04
CGA: 100    -0.667575687318E+03   -0.28476E-04    0.39007E-06  8424   0.159E-04 0.145E-04
CGA: 101    -0.667575716865E+03   -0.29547E-04    0.36260E-06  8424   0.157E-04 0.143E-04
CGA: 102    -0.667575744914E+03   -0.28049E-04    0.37699E-06  8424   0.155E-04 0.141E-04
CGA: 103    -0.667575774032E+03   -0.29118E-04    0.35028E-06  8424   0.154E-04 0.140E-04
CGA: 104    -0.667575801660E+03   -0.27628E-04    0.36435E-06  8424   0.152E-04 0.138E-04
CGA: 105    -0.667575830356E+03   -0.28696E-04    0.33833E-06  8424   0.150E-04 0.136E-04
CGA: 106    -0.667575857569E+03   -0.27213E-04    0.35210E-06  8424   0.148E-04 0.135E-04
CGA: 107    -0.667575885850E+03   -0.28281E-04    0.32673E-06  8424   0.147E-04 0.133E-04
CGA: 108    -0.667575912655E+03   -0.26804E-04    0.34021E-06  8424   0.145E-04 0.131E-04
CGA: 109    -0.667575940528E+03   -0.27873E-04    0.31548E-06  8424   0.143E-04 0.130E-04
CGA: 110    -0.667575966931E+03   -0.26403E-04    0.32867E-06  8424   0.141E-04 0.128E-04
CGA: 111    -0.667575994401E+03   -0.27471E-04    0.30461E-06  8424   0.140E-04 0.127E-04
CGA: 112    -0.667576020409E+03   -0.26008E-04    0.31752E-06  8424   0.138E-04 0.125E-04
CGA: 113    -0.667576047483E+03   -0.27074E-04    0.29413E-06  8424   0.136E-04 0.124E-04
CGA: 114    -0.667576073102E+03   -0.25620E-04    0.30676E-06  8424   0.135E-04 0.122E-04
CGA: 115    -0.667576099784E+03   -0.26682E-04    0.28407E-06  8424   0.133E-04 0.121E-04
CGA: 116    -0.667576125023E+03   -0.25238E-04    0.29642E-06  8424   0.132E-04 0.120E-04
CGA: 117    -0.667576151319E+03   -0.26296E-04    0.27443E-06  8424   0.130E-04 0.118E-04
CGA: 118    -0.667576176183E+03   -0.24864E-04    0.28650E-06  8424   0.129E-04 0.117E-04
CGA: 119    -0.667576202097E+03   -0.25914E-04    0.26522E-06  8424   0.127E-04 0.115E-04
CGA: 120    -0.667576226594E+03   -0.24497E-04    0.27700E-06  8424   0.126E-04 0.114E-04
CGA: 121    -0.667576252133E+03   -0.25538E-04    0.25642E-06  8424   0.124E-04 0.113E-04
CGA: 122    -0.667576276269E+03   -0.24136E-04    0.26791E-06  8424   0.123E-04 0.112E-04
CGA: 123    -0.667576301436E+03   -0.25168E-04    0.24801E-06  8424   0.121E-04 0.110E-04
CGA: 124    -0.667576325217E+03   -0.23781E-04    0.25922E-06  8424   0.120E-04 0.109E-04
CGA: 125    -0.667576350020E+03   -0.24803E-04    0.23998E-06  8424   0.119E-04 0.108E-04
CGA: 126    -0.667576373451E+03   -0.23431E-04    0.25090E-06  8424   0.117E-04 0.107E-04
CGA: 127    -0.667576397895E+03   -0.24443E-04    0.23229E-06  8424   0.116E-04 0.105E-04
CGA: 128    -0.667576420982E+03   -0.23088E-04    0.24293E-06  8424   0.115E-04 0.104E-04
CGA: 129    -0.667576445072E+03   -0.24089E-04    0.22493E-06  8424   0.114E-04 0.103E-04
CGA: 130    -0.667576467822E+03   -0.22750E-04    0.23529E-06  8424   0.112E-04 0.102E-04
CGA: 131    -0.667576491562E+03   -0.23741E-04    0.21787E-06  8424   0.111E-04 0.101E-04
CGA: 132    -0.667576513979E+03   -0.22417E-04    0.22795E-06  8424   0.110E-04 0.995E-05
CGA: 133    -0.667576537377E+03   -0.23398E-04    0.21108E-06  8424   0.109E-04 0.983E-05
CGA: 134    -0.667576559467E+03   -0.22089E-04    0.22090E-06  8424   0.107E-04 0.972E-05
CGA: 135    -0.667576582527E+03   -0.23060E-04    0.20455E-06  8424   0.106E-04 0.961E-05
CGA: 136    -0.667576604294E+03   -0.21767E-04    0.21412E-06  8424   0.105E-04 0.951E-05
CGA: 137    -0.667576627022E+03   -0.22728E-04    0.19827E-06  8424   0.104E-04 0.940E-05
CGA: 138    -0.667576648472E+03   -0.21450E-04    0.20760E-06  8424   0.103E-04 0.930E-05
CGA: 139    -0.667576670873E+03   -0.22401E-04    0.19222E-06  8424   0.102E-04 0.919E-05
CGA: 140    -0.667576692010E+03   -0.21137E-04    0.20132E-06  8424   0.101E-04 0.909E-05
CGA: 141    -0.667576714089E+03   -0.22079E-04    0.18640E-06  8424   0.994E-05 0.899E-05
CGA: 142    -0.667576734919E+03   -0.20830E-04    0.19527E-06  8424   0.983E-05 0.889E-05
CGA: 143    -0.667576756681E+03   -0.21762E-04    0.18081E-06  8424   0.973E-05 0.880E-05
CGA: 144    -0.667576777209E+03   -0.20528E-04    0.18944E-06  8424   0.962E-05 0.870E-05
CGA: 145    -0.667576798659E+03   -0.21450E-04    0.17542E-06  8424   0.952E-05 0.861E-05
CGA: 146    -0.667576818889E+03   -0.20231E-04    0.18384E-06  8424   0.942E-05 0.851E-05
CGA: 147    -0.667576840032E+03   -0.21142E-04    0.17023E-06  8424   0.932E-05 0.842E-05
CGA: 148    -0.667576859970E+03   -0.19938E-04    0.17844E-06  8424   0.922E-05 0.833E-05
CGA: 149    -0.667576880809E+03   -0.20840E-04    0.16524E-06  8424   0.912E-05 0.824E-05
CGA: 150    -0.667576900459E+03   -0.19650E-04    0.17326E-06  8424   0.903E-05 0.815E-05
CGA: 151    -0.667576921001E+03   -0.20542E-04    0.16045E-06  8424   0.893E-05 0.807E-05
CGA: 152    -0.667576940368E+03   -0.19366E-04    0.16826E-06  8424   0.884E-05 0.798E-05
CGA: 153    -0.667576960617E+03   -0.20249E-04    0.15583E-06  8424   0.875E-05 0.789E-05
CGA: 154    -0.667576979704E+03   -0.19088E-04    0.16346E-06  8424   0.865E-05 0.781E-05
CGA: 155    -0.667576999665E+03   -0.19960E-04    0.15139E-06  8424   0.856E-05 0.773E-05
CGA: 156    -0.667577018478E+03   -0.18813E-04    0.15884E-06  8424   0.847E-05 0.765E-05
CGA: 157    -0.667577038154E+03   -0.19676E-04    0.14712E-06  8424   0.839E-05 0.757E-05
CGA: 158    -0.667577056697E+03   -0.18543E-04    0.15439E-06  8424   0.830E-05 0.749E-05
CGA: 159    -0.667577076094E+03   -0.19397E-04    0.14301E-06  8424   0.822E-05 0.741E-05
CGA: 160    -0.667577094372E+03   -0.18278E-04    0.15011E-06  8424   0.813E-05 0.733E-05
CGA: 161    -0.667577113493E+03   -0.19121E-04    0.13905E-06  8424   0.805E-05 0.726E-05
CGA: 162    -0.667577131509E+03   -0.18016E-04    0.14599E-06  8424   0.797E-05 0.718E-05
CGA: 163    -0.667577150359E+03   -0.18850E-04    0.13524E-06  8424   0.789E-05 0.711E-05
CGA: 164    -0.667577168118E+03   -0.17759E-04    0.14202E-06  8424   0.781E-05 0.703E-05
CGA: 165    -0.667577186702E+03   -0.18584E-04    0.13157E-06  8424   0.773E-05 0.696E-05
CGA: 166    -0.667577204207E+03   -0.17505E-04    0.13820E-06  8424   0.765E-05 0.689E-05
CGA: 167    -0.667577222529E+03   -0.18322E-04    0.12803E-06  8424   0.757E-05 0.682E-05
CGA: 168    -0.667577239785E+03   -0.17256E-04    0.13451E-06  8424   0.750E-05 0.675E-05
CGA: 169    -0.667577257849E+03   -0.18064E-04    0.12462E-06  8424   0.742E-05 0.668E-05
CGA: 170    -0.667577274859E+03   -0.17011E-04    0.13096E-06  8424   0.735E-05 0.662E-05
CGA: 171    -0.667577292669E+03   -0.17810E-04    0.12134E-06  8424   0.728E-05 0.655E-05
CGA: 172    -0.667577309439E+03   -0.16770E-04    0.12753E-06  8424   0.721E-05 0.648E-05
CGA: 173    -0.667577326998E+03   -0.17560E-04    0.11817E-06  8424   0.714E-05 0.642E-05
CGA: 174    -0.667577343530E+03   -0.16532E-04    0.12423E-06  8424   0.707E-05 0.636E-05
CGA: 175    -0.667577360844E+03   -0.17314E-04    0.11511E-06  8424   0.700E-05 0.629E-05
CGA: 176    -0.667577377142E+03   -0.16298E-04    0.12105E-06  8424   0.693E-05 0.623E-05
CGA: 177    -0.667577394214E+03   -0.17071E-04    0.11217E-06  8424   0.686E-05 0.617E-05
CGA: 178    -0.667577410282E+03   -0.16068E-04    0.11798E-06  8424   0.680E-05 0.611E-05
CGA: 179    -0.667577427115E+03   -0.16833E-04    0.10933E-06  8424   0.673E-05 0.605E-05
CGA: 180    -0.667577442957E+03   -0.15842E-04    0.11503E-06  8424   0.667E-05 0.599E-05
CGA: 181    -0.667577459556E+03   -0.16599E-04    0.10659E-06  8424   0.660E-05 0.593E-05
CGA: 182    -0.667577475176E+03   -0.15619E-04    0.11218E-06  8424   0.654E-05 0.587E-05
CGA: 183    -0.667577491544E+03   -0.16368E-04    0.10395E-06  8424   0.648E-05 0.582E-05
CGA: 184    -0.667577506944E+03   -0.15400E-04    0.10943E-06  8424   0.642E-05 0.576E-05
CGA: 185    -0.667577523086E+03   -0.16142E-04    0.10140E-06  8424   0.636E-05 0.571E-05
CGA: 186    -0.667577538270E+03   -0.15185E-04    0.10677E-06  8424   0.630E-05 0.565E-05
CGA: 187    -0.667577554189E+03   -0.15918E-04    0.98946E-07  8424   0.624E-05 0.560E-05
CGA: 188    -0.667577569161E+03   -0.14972E-04    0.10422E-06  8424   0.618E-05 0.555E-05
CGA: 189    -0.667577584860E+03   -0.15699E-04    0.96575E-07  8424   0.613E-05 0.549E-05
CGA: 190    -0.667577599623E+03   -0.14763E-04    0.10175E-06  8424   0.607E-05 0.544E-05
CGA: 191    -0.667577615106E+03   -0.15483E-04    0.94285E-07  8424   0.601E-05 0.539E-05
CGA: 192    -0.667577629664E+03   -0.14558E-04    0.99369E-07  8424   0.596E-05 0.534E-05
CGA: 193    -0.667577644934E+03   -0.15270E-04    0.92078E-07  8424   0.590E-05 0.529E-05
CGA: 194    -0.667577659290E+03   -0.14356E-04    0.97071E-07  8424   0.585E-05 0.524E-05
CGA: 195    -0.667577674352E+03   -0.15062E-04    0.89944E-07  8424   0.580E-05 0.519E-05
CGA: 196    -0.667577688508E+03   -0.14156E-04    0.94856E-07  8424   0.575E-05 0.515E-05
CGA: 197    -0.667577703365E+03   -0.14856E-04    0.87886E-07  8424   0.570E-05 0.510E-05
CGA: 198    -0.667577717325E+03   -0.13960E-04    0.92718E-07  8424   0.564E-05 0.505E-05
CGA: 199    -0.667577731980E+03   -0.14654E-04    0.85898E-07  8424   0.559E-05 0.501E-05
CGA: 200    -0.667577745747E+03   -0.13768E-04    0.90655E-07  8424   0.554E-05 0.496E-05
  16 F= -.66757775E+03 E0= -.66757775E+03  d E =0.260425E-01  mag=     2.0000
       N       E                     dE             d eps       ncg     rms          ort
SDA:   1    -0.667224573769E+03    0.35316E+00    0.00000E+00  8424   0.107E+01 0.000E+00
CGA:   2    -0.667475005041E+03   -0.25043E+00   -0.25044E+00  8424   0.517E+00-0.229E-03
CGA:   3    -0.667577410056E+03   -0.10241E+00   -0.10241E+00  8424   0.143E+00-0.251E-03
CGA:   4    -0.667600712923E+03   -0.23303E-01   -0.23298E-01  8424   0.316E-01-0.201E-03
CGA:   5    -0.667606287735E+03   -0.55748E-02   -0.55740E-02  8424   0.666E-02-0.915E-04
CGA:   6    -0.667607617326E+03   -0.13296E-02   -0.13296E-02  8424   0.163E-02-0.516E-05
CGA:   7    -0.667607995467E+03   -0.37814E-03   -0.37946E-03  8424   0.494E-03-0.283E-04
CGA:   8    -0.667608133856E+03   -0.13839E-03   -0.14945E-03  8424   0.239E-03-0.931E-04
CGA:   9    -0.667608182961E+03   -0.49105E-04   -0.90958E-04  8424   0.309E-03-0.154E-03
CGA:  10    -0.667608244793E+03   -0.61832E-04   -0.61665E-04  8424   0.705E-04-0.188E-04
CGA:  11    -0.667608113129E+03    0.13166E-03   -0.73404E-04  8424   0.105E-02-0.198E-03
CGA:  12    -0.667608310348E+03   -0.19722E-03   -0.19543E-03  8424   0.149E-03-0.954E-05
CGA:  13    -0.667608361688E+03   -0.51339E-04   -0.50453E-04  8424   0.695E-04-0.317E-04
CGA:  14    -0.667608373613E+03   -0.11925E-04   -0.11227E-04  8424   0.305E-04-0.441E-05
CGA:  15    -0.667608397531E+03   -0.23918E-04    0.31478E-04  8424   0.186E-04 0.892E-05
CGA:  16    -0.667608423123E+03   -0.25592E-04    0.89782E-05  8424   0.315E-04 0.598E-05
CGA:  17    -0.667608475061E+03   -0.51937E-04    0.10212E-04  8424   0.273E-04 0.229E-04
CGA:  18    -0.667608486679E+03   -0.11619E-04   -0.14416E-04  8424   0.605E-04-0.169E-04
CGA:  19    -0.667608497509E+03   -0.10830E-04   -0.10042E-04  8424   0.137E-04-0.395E-05
CGA:  20    -0.667608510988E+03   -0.13478E-04    0.49373E-05  8424   0.110E-04 0.413E-05
CGA:  21    -0.667608528917E+03   -0.17930E-04    0.33777E-05  8424   0.933E-05 0.127E-04
CGA:  22    -0.667608536567E+03   -0.76500E-05    0.11526E-04  8424   0.115E-04 0.339E-05
  17 F= -.66760854E+03 E0= -.66760854E+03  d E =-.307908E-01  mag=     2.0000
       N       E                     dE             d eps       ncg     rms          ort
SDA:   1    -0.667039881246E+03    0.56865E+00    0.00000E+00  8424   0.164E+01 0.000E+00
CGA:   2    -0.667458604513E+03   -0.41872E+00   -0.41871E+00  8424   0.838E+00-0.490E-03
CGA:   3    -0.667617812121E+03   -0.15921E+00   -0.15916E+00  8424   0.210E+00-0.285E-03
CGA:   4    -0.667652336159E+03   -0.34524E-01   -0.34508E-01  8424   0.472E-01-0.115E-03
CGA:   5    -0.667660444457E+03   -0.81083E-02   -0.81424E-02  8424   0.973E-02 0.200E-03
CGA:   6    -0.667662362448E+03   -0.19180E-02   -0.19492E-02  8424   0.237E-02 0.242E-03
CGA:   7    -0.667662895370E+03   -0.53292E-03   -0.54144E-03  8424   0.681E-03 0.864E-04
CGA:   8    -0.667663055542E+03   -0.16017E-03   -0.16720E-03  8424   0.214E-03 0.883E-04
CGA:   9    -0.667663090636E+03   -0.35095E-04   -0.46614E-04  8424   0.829E-04 0.960E-04
CGA:  10    -0.667663092047E+03   -0.14104E-05   -0.15319E-04  8424   0.488E-04 0.777E-04
  18 F= -.66766309E+03 E0= -.66766309E+03  d E =-.545555E-01  mag=     2.0000
       N       E                     dE             d eps       ncg     rms          ort
SDA:   1    -0.658845388934E+03    0.88177E+01    0.00000E+00  8424   0.237E+02 0.000E+00
CGA:   2    -0.665207298596E+03   -0.63619E+01   -0.63623E+01  8424   0.105E+02 0.333E-02
CGA:   3    -0.667167543038E+03   -0.19602E+01   -0.19594E+01  8424   0.282E+01-0.329E-02
CGA:   4    -0.667657646313E+03   -0.49010E+00   -0.49018E+00  8424   0.686E+00 0.296E-03
CGA:   5    -0.667773721754E+03   -0.11608E+00   -0.11634E+00  8424   0.135E+00 0.226E-02
CGA:   6    -0.667800824164E+03   -0.27102E-01   -0.27198E-01  8424   0.340E-01 0.137E-02
CGA:   7    -0.667808911168E+03   -0.80870E-02   -0.81064E-02  8424   0.110E-01 0.616E-03
CGA:   8    -0.667811706405E+03   -0.27952E-02   -0.28045E-02  8424   0.357E-02 0.628E-03
CGA:   9    -0.667812632429E+03   -0.92602E-03   -0.93755E-03  8424   0.127E-02 0.696E-03
CGA:  10    -0.667812863061E+03   -0.23063E-03   -0.28581E-03  8424   0.547E-03 0.729E-03
CGA:  11    -0.667812899681E+03   -0.36620E-04   -0.80092E-04  8424   0.307E-03 0.381E-03
CGA:  12    -0.667812894360E+03    0.53205E-05   -0.34260E-04  8424   0.249E-03 0.276E-03
CGA:  13    -0.667812881695E+03    0.12665E-04   -0.23363E-04  8424   0.219E-03 0.234E-03
CGA:  14    -0.667812866761E+03    0.14934E-04   -0.18013E-04  8424   0.199E-03 0.209E-03
CGA:  15    -0.667812851125E+03    0.15636E-04   -0.14720E-04  8424   0.185E-03 0.192E-03
CGA:  16    -0.667812835441E+03    0.15683E-04   -0.12455E-04  8424   0.174E-03 0.179E-03
CGA:  17    -0.667812820020E+03    0.15421E-04   -0.10788E-04  8424   0.166E-03 0.170E-03
CGA:  18    -0.667812805016E+03    0.15004E-04   -0.94993E-05  8424   0.159E-03 0.162E-03
CGA:  19    -0.667812790506E+03    0.14510E-04   -0.84696E-05  8424   0.153E-03 0.156E-03
CGA:  20    -0.667812776526E+03    0.13980E-04   -0.76252E-05  8424   0.148E-03 0.150E-03
CGA:  21    -0.667812763089E+03    0.13438E-04   -0.69185E-05  8424   0.144E-03 0.146E-03
CGA:  22    -0.667812750191E+03    0.12897E-04   -0.63173E-05  8424   0.140E-03 0.142E-03
CGA:  23    -0.667812737825E+03    0.12366E-04   -0.57990E-05  8424   0.137E-03 0.138E-03
CGA:  24    -0.667812725976E+03    0.11849E-04   -0.53469E-05  8424   0.134E-03 0.135E-03
CGA:  25    -0.667812714628E+03    0.11349E-04   -0.49488E-05  8424   0.131E-03 0.133E-03
[...]
CGA:  12    -0.669074646182E+03    0.35248E-05   -0.17631E-04  8424   0.161E-03 0.170E-03
CGA:  13    -0.669074640095E+03    0.60872E-05   -0.13845E-04  8424   0.148E-03 0.154E-03
CGA:  14    -0.669074632762E+03    0.73327E-05   -0.11407E-04  8424   0.138E-03 0.142E-03
  35 F= -.66907463E+03 E0= -.66907463E+03  d E =0.405984E-01  mag=     2.0000
       N       E                     dE             d eps       ncg     rms          ort
SDA:   1    -0.637795236435E+03    0.31279E+02    0.00000E+00  8424   0.110E+03 0.000E+00
CGA:   2    -0.656944601687E+03   -0.19149E+02   -0.19193E+02  8424   0.384E+02 0.946E+00
CGA:   3    -0.665455874800E+03   -0.85113E+01   -0.85172E+01  8424   0.130E+02-0.175E+00
CGA:   4    -0.667702655634E+03   -0.22468E+01   -0.22475E+01  8424   0.338E+01 0.929E-02
CGA:   5    -0.668263348101E+03   -0.56069E+00   -0.56121E+00  8424   0.718E+00 0.117E-01
CGA:   6    -0.668406830728E+03   -0.14348E+00   -0.14349E+00  8424   0.163E+00-0.155E-02
CGA:   7    -0.668443410474E+03   -0.36580E-01   -0.36528E-01  8424   0.491E-01 0.165E-02
CGA:   8    -0.668455501168E+03   -0.12091E-01   -0.12073E-01  8424   0.146E-01 0.356E-03
CGA:   9    -0.668459756231E+03   -0.42551E-02   -0.44511E-02  8424   0.630E-02-0.188E-02
CGA:  10    -0.668461415934E+03   -0.16597E-02   -0.17547E-02  8424   0.317E-02-0.815E-03
CGA:  11    -0.668461787685E+03   -0.37175E-03   -0.16320E-02  8424   0.751E-02-0.330E-02
CGA:  12    -0.668462880274E+03   -0.10926E-02   -0.11230E-02  8424   0.119E-02 0.394E-03
CGA:  13    -0.668462807515E+03    0.72759E-04   -0.89525E-03  8424   0.554E-02-0.197E-02
CGA:  14    -0.668463695930E+03   -0.88842E-03   -0.90564E-03  8424   0.954E-03 0.206E-03
CGA:  15    -0.668463929325E+03   -0.23339E-03   -0.43488E-03  8424   0.179E-02-0.103E-02
CGA:  16    -0.668464202490E+03   -0.27317E-03   -0.27455E-03  8424   0.327E-03 0.150E-04
CGA:  17    -0.668464408666E+03   -0.20618E-03    0.16041E-03  8424   0.103E-03 0.260E-04
CGA:  18    -0.668464577127E+03   -0.16846E-03    0.68532E-05  8424   0.962E-04 0.958E-04
CGA:  19    -0.668464692090E+03   -0.11496E-03    0.85503E-05  8424   0.779E-04 0.668E-04
CGA:  20    -0.668464816496E+03   -0.12441E-03    0.43944E-05  8424   0.796E-04 0.594E-04
CGA:  21    -0.668464918151E+03   -0.10166E-03    0.63180E-05  8424   0.861E-04 0.510E-04
CGA:  22    -0.668465042113E+03   -0.12396E-03    0.56601E-05  8424   0.997E-04 0.380E-04
CGA:  23    -0.668465281501E+03   -0.23939E-03    0.76115E-05  8424   0.771E-04 0.138E-03
CGA:  24    -0.668465372398E+03   -0.90897E-04    0.70165E-05  8424   0.918E-04 0.358E-04
CGA:  25    -0.668465606802E+03   -0.23440E-03    0.66831E-05  8424   0.690E-04 0.129E-03
CGA:  26    -0.668465720196E+03   -0.11339E-03    0.37284E-05  8424   0.810E-04 0.362E-04
CGA:  27    -0.668465799492E+03   -0.79296E-04    0.10421E-04  8424   0.108E-03 0.154E-04
CGA:  28    -0.668466033984E+03   -0.23449E-03    0.60434E-05  8424   0.879E-04 0.125E-03
CGA:  29    -0.668466148054E+03   -0.11407E-03    0.67985E-05  8424   0.127E-03-0.396E-05
CGA:  30    -0.668466381390E+03   -0.23334E-03    0.52826E-05  8424   0.125E-03 0.118E-03
CGA:  31    -0.668466368746E+03    0.12643E-04   -0.65721E-04  8424   0.143E-02-0.282E-03
CGA:  32    -0.668466617169E+03   -0.24842E-03   -0.19360E-03  8424   0.209E-03-0.431E-03
CGA:  33    -0.668466709049E+03   -0.91880E-04    0.83403E-04  8424   0.830E-04 0.356E-05
CGA:  34    -0.668466848691E+03   -0.13964E-03    0.48673E-05  8424   0.483E-04 0.537E-04
CGA:  35    -0.668466935864E+03   -0.87172E-04    0.24579E-05  8424   0.565E-04 0.315E-04
CGA:  36    -0.668467019099E+03   -0.83235E-04    0.38679E-05  8424   0.782E-04 0.164E-04
CGA:  37    -0.668467225073E+03   -0.20597E-03    0.43292E-05  8424   0.568E-04 0.969E-04
CGA:  38    -0.668467306627E+03   -0.81554E-04    0.40560E-05  8424   0.807E-04 0.965E-05
CGA:  39    -0.668467506877E+03   -0.20025E-03    0.38551E-05  8424   0.647E-04 0.909E-04
CGA:  40    -0.668467579092E+03   -0.72215E-04    0.70492E-05  8424   0.973E-04-0.688E-05
CGA:  41    -0.668467772452E+03   -0.19336E-03    0.33450E-05  8424   0.102E-03 0.825E-04
CGA:  42    -0.668467848055E+03   -0.75603E-04    0.29719E-04  8424   0.163E-03-0.605E-04
CGA:  43    -0.668467876606E+03   -0.28551E-04   -0.59344E-04  8424   0.813E-03-0.285E-03
CGA:  44    -0.668467994942E+03   -0.11834E-03   -0.10179E-03  8424   0.644E-04-0.121E-03
CGA:  45    -0.668468079728E+03   -0.84786E-04    0.34470E-05  8424   0.434E-04 0.207E-04
CGA:  46    -0.668468198703E+03   -0.11897E-03    0.23754E-05  8424   0.316E-04 0.531E-04
CGA:  47    -0.668468272498E+03   -0.73795E-04    0.11274E-05  8424   0.330E-04 0.269E-04
CGA:  48    -0.668468334998E+03   -0.62500E-04    0.15487E-05  8424   0.367E-04 0.234E-04
CGA:  49    -0.668468408832E+03   -0.73834E-04    0.15883E-05  8424   0.455E-04 0.166E-04
CGA:  50    -0.668468560865E+03   -0.15203E-03    0.23977E-05  8424   0.334E-04 0.635E-04
CGA:  51    -0.668468615745E+03   -0.54881E-04    0.19194E-05  8424   0.400E-04 0.174E-04
CGA:  52    -0.668468689870E+03   -0.74125E-04    0.19355E-05  8424   0.549E-04 0.643E-05
CGA:  53    -0.668468843516E+03   -0.15365E-03    0.21750E-05  8424   0.457E-04 0.618E-04
CGA:  54    -0.668468884356E+03   -0.40840E-04    0.77464E-05  8424   0.667E-04-0.506E-05
CGA:  55    -0.668469029399E+03   -0.14504E-03    0.19939E-05  8424   0.704E-04 0.574E-04
CGA:  56    -0.668469115190E+03   -0.85791E-04    0.64643E-05  8424   0.115E-03-0.428E-04
CGA:  57    -0.668469134346E+03   -0.19156E-04   -0.17420E-04  8424   0.399E-04-0.169E-04
CGA:  58    -0.668469209971E+03   -0.75625E-04    0.12321E-05  8424   0.275E-04 0.314E-04
CGA:  59    -0.668469280192E+03   -0.70221E-04    0.83479E-06  8424   0.304E-04 0.150E-04
CGA:  60    -0.668469315985E+03   -0.35793E-04    0.27871E-05  8424   0.354E-04 0.104E-04
CGA:  61    -0.668469434069E+03   -0.11808E-03    0.14891E-05  8424   0.298E-04 0.462E-04
CGA:  62    -0.668469506897E+03   -0.72828E-04    0.95468E-06  8424   0.338E-04 0.901E-05
CGA:  63    -0.668469618144E+03   -0.11125E-03    0.13548E-05  8424   0.294E-04 0.429E-04
CGA:  64    -0.668469644611E+03   -0.26468E-04    0.45889E-05  8424   0.329E-04 0.734E-05
CGA:  65    -0.668469751199E+03   -0.10659E-03    0.12264E-05  8424   0.295E-04 0.402E-04
CGA:  66    -0.668469824812E+03   -0.73612E-04    0.92350E-06  8424   0.321E-04 0.559E-05
CGA:  67    -0.668469924836E+03   -0.10002E-03    0.11248E-05  8424   0.296E-04 0.373E-04
CGA:  68    -0.668469943624E+03   -0.18788E-04    0.13771E-04  8424   0.313E-04 0.399E-05
CGA:  69    -0.668470038988E+03   -0.95364E-04    0.10133E-05  8424   0.295E-04 0.346E-04
CGA:  70    -0.668470111793E+03   -0.72805E-04    0.93494E-06  8424   0.298E-04 0.303E-05
CGA:  71    -0.668470200206E+03   -0.88413E-04    0.93772E-06  8424   0.285E-04 0.320E-04
CGA:  72    -0.668470215473E+03   -0.15267E-04    0.48043E-04  8424   0.274E-04 0.318E-05
CGA:  73    -0.668470299961E+03   -0.84488E-04    0.83391E-06  8424   0.263E-04 0.295E-04
CGA:  74    -0.668470367030E+03   -0.67070E-04    0.80159E-06  8424   0.240E-04 0.452E-05
CGA:  75    -0.668470444048E+03   -0.77018E-04    0.78108E-06  8424   0.234E-04 0.271E-04
CGA:  76    -0.668470462113E+03   -0.18065E-04    0.53844E-05  8424   0.203E-04 0.647E-05
CGA:  77    -0.668470536341E+03   -0.74228E-04    0.68602E-06  8424   0.206E-04 0.250E-04
CGA:  78    -0.668470593161E+03   -0.56820E-04    0.56748E-06  8424   0.173E-04 0.818E-05
CGA:  79    -0.668470662325E+03   -0.69164E-04    0.63838E-06  8424   0.183E-04 0.232E-04
CGA:  80    -0.668470684754E+03   -0.22429E-04    0.15653E-05  8424   0.151E-04 0.922E-05
CGA:  81    -0.668470733151E+03   -0.48397E-04    0.34958E-06  8424   0.139E-04 0.106E-04
CGA:  82    -0.668470759376E+03   -0.26224E-04    0.62336E-06  8424   0.132E-04 0.111E-04
CGA:  83    -0.668470802767E+03   -0.43392E-04    0.29492E-06  8424   0.127E-04 0.113E-04
CGA:  84    -0.668470830864E+03   -0.28096E-04    0.46549E-06  8424   0.124E-04 0.113E-04
CGA:  85    -0.668470871490E+03   -0.40626E-04    0.27873E-06  8424   0.121E-04 0.112E-04
CGA:  86    -0.668470899791E+03   -0.28301E-04    0.41412E-06  8424   0.119E-04 0.111E-04
CGA:  87    -0.668470939010E+03   -0.39220E-04    0.26772E-06  8424   0.118E-04 0.109E-04
CGA:  88    -0.668470966472E+03   -0.27461E-04    0.40178E-06  8424   0.117E-04 0.107E-04
CGA:  89    -0.668471005157E+03   -0.38685E-04    0.25860E-06  8424   0.116E-04 0.104E-04
CGA:  90    -0.668471031059E+03   -0.25902E-04    0.41761E-06  8424   0.116E-04 0.101E-04
CGA:  91    -0.668471069858E+03   -0.38799E-04    0.25400E-06  8424   0.117E-04 0.971E-05
CGA:  92    -0.668471093626E+03   -0.23767E-04    0.47330E-06  8424   0.119E-04 0.925E-05
CGA:  93    -0.668471133090E+03   -0.39465E-04    0.26144E-06  8424   0.122E-04 0.865E-05
CGA:  94    -0.668471154188E+03   -0.21098E-04    0.62124E-06  8424   0.128E-04 0.785E-05
CGA:  95    -0.668471194816E+03   -0.40628E-04    0.30110E-06  8424   0.139E-04 0.671E-05
CGA:  96    -0.668471212659E+03   -0.17842E-04    0.11073E-05  8424   0.157E-04 0.504E-05
CGA:  97    -0.668471275766E+03   -0.63107E-04    0.54192E-06  8424   0.135E-04 0.209E-04
CGA:  98    -0.668471317493E+03   -0.41727E-04    0.32639E-06  8424   0.152E-04 0.451E-05
CGA:  99    -0.668471377814E+03   -0.60321E-04    0.50906E-06  8424   0.132E-04 0.198E-04
CGA: 100    -0.668471390196E+03   -0.12382E-04    0.19005E-05  8424   0.149E-04 0.387E-05
CGA: 101    -0.668471448350E+03   -0.58155E-04    0.47719E-06  8424   0.132E-04 0.189E-04
CGA: 102    -0.668471490562E+03   -0.42212E-04    0.30388E-06  8424   0.148E-04 0.310E-05
CGA: 103    -0.668471545826E+03   -0.55264E-04    0.45308E-06  8424   0.133E-04 0.179E-04
CGA: 104    -0.668471552925E+03   -0.70993E-05    0.24811E-04  8424   0.150E-04 0.212E-05
  36 F= -.66847155E+03 E0= -.66847155E+03  d E =0.603080E+00  mag=     2.0000
       N       E                     dE             d eps       ncg     rms          ort
SDA:   1    -0.660323144061E+03    0.81484E+01    0.00000E+00  8424   0.283E+02 0.000E+00
CGA:   2    -0.665851856332E+03   -0.55287E+01   -0.55385E+01  8424   0.112E+02 0.611E-01
CGA:   3    -0.668217042712E+03   -0.23652E+01   -0.23637E+01  8424   0.365E+01-0.188E-01
CGA:   4    -0.668830429990E+03   -0.61339E+00   -0.61385E+00  8424   0.921E+00 0.250E-02
CGA:   5    -0.668988525133E+03   -0.15810E+00   -0.15832E+00  8424   0.197E+00 0.240E-02
CGA:   6    -0.669027152186E+03   -0.38627E-01   -0.38565E-01  8424   0.436E-01-0.142E-02
CGA:   7    -0.669036694444E+03   -0.95423E-02   -0.95581E-02  8424   0.128E-01 0.106E-02
CGA:   8    -0.669039734117E+03   -0.30397E-02   -0.30416E-02  8424   0.355E-02 0.746E-03
CGA:   9    -0.669040722276E+03   -0.98816E-03   -0.98064E-03  8424   0.120E-02 0.291E-03
CGA:  10    -0.669040988266E+03   -0.26599E-03   -0.27695E-03  8424   0.485E-03 0.473E-03
CGA:  11    -0.669041098776E+03   -0.11051E-03   -0.12664E-03  8424   0.247E-03 0.337E-03
CGA:  12    -0.669041135766E+03   -0.36990E-04   -0.45107E-04  8424   0.147E-03 0.162E-03
CGA:  13    -0.669041133617E+03    0.21486E-05   -0.15238E-04  8424   0.130E-03 0.137E-03
CGA:  14    -0.669041131561E+03    0.20561E-05   -0.13150E-04  8424   0.119E-03 0.124E-03
CGA:  15    -0.669041128096E+03    0.34649E-05   -0.10968E-04  8424   0.111E-03 0.115E-03
  37 F= -.66904113E+03 E0= -.66904113E+03  d E =-.569575E+00  mag=     2.0000
       N       E                     dE             d eps       ncg     rms          ort
SDA:   1    -0.667071623006E+03    0.19695E+01    0.00000E+00  8424   0.643E+01 0.000E+00
CGA:   2    -0.668365926669E+03   -0.12943E+01   -0.12944E+01  8424   0.259E+01 0.103E-01
CGA:   3    -0.668907277485E+03   -0.54135E+00   -0.54136E+00  8424   0.856E+00-0.337E-02
CGA:   4    -0.669049466841E+03   -0.14219E+00   -0.14225E+00  8424   0.213E+00 0.119E-02
CGA:   5    -0.669086116057E+03   -0.36649E-01   -0.36690E-01  8424   0.438E-01 0.126E-02
CGA:   6    -0.669094754959E+03   -0.86389E-02   -0.86391E-02  8424   0.985E-02 0.210E-04
CGA:   7    -0.669096825350E+03   -0.20704E-02   -0.20639E-02  8424   0.278E-02 0.802E-03
CGA:   8    -0.669097435390E+03   -0.61004E-03   -0.60934E-03  8424   0.788E-03 0.669E-03
CGA:   9    -0.669097584541E+03   -0.14915E-03   -0.16445E-03  8424   0.341E-03 0.454E-03
CGA:  10    -0.669097605658E+03   -0.21117E-04   -0.41384E-04  8424   0.221E-03 0.257E-03
CGA:  11    -0.669097607047E+03   -0.13890E-05   -0.21495E-04  8424   0.189E-03 0.203E-03
CGA:  12    -0.669097603589E+03    0.34571E-05   -0.15795E-04  8424   0.171E-03 0.179E-03
CGA:  13    -0.669097598133E+03    0.54560E-05   -0.12751E-04  8424   0.158E-03 0.164E-03
CGA:  14    -0.669097591696E+03    0.64379E-05   -0.10754E-04  8424   0.149E-03 0.153E-03
  38 F= -.66909759E+03 E0= -.66909759E+03  d E =-.564636E-01  mag=     2.0000
       N       E                     dE             d eps       ncg     rms          ort
SDA:   1    -0.668989363223E+03    0.10823E+00    0.00000E+00  8424   0.327E+00 0.000E+00
CGA:   2    -0.669061063711E+03   -0.71700E-01   -0.71647E-01  8424   0.146E+00 0.101E-02
CGA:   3    -0.669090319192E+03   -0.29255E-01   -0.29251E-01  8424   0.429E-01 0.150E-03
CGA:   4    -0.669097358774E+03   -0.70396E-02   -0.70446E-02  8424   0.104E-01 0.549E-03
CGA:   5    -0.669099080001E+03   -0.17212E-02   -0.17269E-02  8424   0.201E-02 0.724E-03
CGA:   6    -0.669099418350E+03   -0.33835E-03   -0.34503E-03  8424   0.501E-03 0.561E-03
CGA:   7    -0.669099465322E+03   -0.46972E-04   -0.70155E-04  8424   0.253E-03 0.374E-03
CGA:   8    -0.669099467988E+03   -0.26658E-05   -0.20811E-04  8424   0.184E-03 0.210E-03
CGA:   9    -0.669099463069E+03    0.49190E-05   -0.11915E-04  8424   0.158E-03 0.169E-03
  39 F= -.66909946E+03 E0= -.66909946E+03  d E =-.187137E-02  mag=     2.0000
       N       E                     dE             d eps       ncg     rms          ort
SDA:   1    -0.665656282272E+03    0.34432E+01    0.00000E+00  8424   0.874E+01 0.000E+00
CGA:   2    -0.668052269832E+03   -0.23960E+01   -0.23953E+01  8424   0.430E+01 0.535E-02
CGA:   3    -0.668821705004E+03   -0.76944E+00   -0.76955E+00  8424   0.101E+01-0.560E-02
CGA:   4    -0.668988550916E+03   -0.16685E+00   -0.16684E+00  8424   0.248E+00 0.915E-03
CGA:   5    -0.669031310027E+03   -0.42759E-01   -0.42729E-01  8424   0.510E-01 0.261E-02
CGA:   6    -0.669041510843E+03   -0.10201E-01   -0.10144E-01  8424   0.119E-01 0.163E-02
CGA:   7    -0.669044225780E+03   -0.27149E-02   -0.26522E-02  8424   0.364E-02 0.119E-02
CGA:   8    -0.669045083745E+03   -0.85796E-03   -0.81635E-03  8424   0.124E-02 0.111E-02
CGA:   9    -0.669045308436E+03   -0.22469E-03   -0.24118E-03  8424   0.626E-03 0.893E-03
CGA:  10    -0.669045352694E+03   -0.44258E-04   -0.70822E-04  8424   0.420E-03 0.491E-03
CGA:  11    -0.669045360756E+03   -0.80629E-05   -0.37266E-04  8424   0.357E-03 0.385E-03
CGA:  12    -0.669045359646E+03    0.11102E-05   -0.27245E-04  8424   0.319E-03 0.336E-03
CGA:  13    -0.669045354314E+03    0.53324E-05   -0.21676E-04  8424   0.293E-03 0.305E-03
CGA:  14    -0.669045346728E+03    0.75856E-05   -0.18002E-04  8424   0.273E-03 0.282E-03
CGA:  15    -0.669045337880E+03    0.88484E-05   -0.15359E-04  8424   0.258E-03 0.265E-03
CGA:  16    -0.669045328331E+03    0.95485E-05   -0.13349E-04  8424   0.245E-03 0.251E-03
CGA:  17    -0.669045318426E+03    0.99055E-05   -0.11764E-04  8424   0.235E-03 0.240E-03
CGA:  18    -0.669045308383E+03    0.10043E-04   -0.10477E-04  8424   0.226E-03 0.230E-03
CGA:  19    -0.669045298348E+03    0.10035E-04   -0.94105E-05  8424   0.218E-03 0.222E-03
CGA:  20    -0.669045288419E+03    0.99288E-05   -0.85115E-05  8424   0.211E-03 0.214E-03
  40 F= -.66904529E+03 E0= -.66904529E+03  d E =0.541746E-01  mag=     2.0000
       N       E                     dE             d eps       ncg     rms          ort
SDA:   1    -0.668122692711E+03    0.92261E+00    0.00000E+00  8424   0.300E+01 0.000E+00
CGA:   2    -0.668734080738E+03   -0.61139E+00   -0.61035E+00  8424   0.127E+01 0.114E-01
CGA:   3    -0.669000621756E+03   -0.26654E+00   -0.26665E+00  8424   0.421E+00-0.153E-02
CGA:   4    -0.669068905073E+03   -0.68283E-01   -0.68239E-01  8424   0.976E-01 0.110E-02
CGA:   5    -0.669085716376E+03   -0.16811E-01   -0.16756E-01  8424   0.202E-01 0.124E-02
CGA:   6    -0.669089761767E+03   -0.40454E-02   -0.40154E-02  8424   0.461E-02 0.444E-03
CGA:   7    -0.669090640756E+03   -0.87899E-03   -0.83400E-03  8424   0.119E-02 0.101E-02
CGA:   8    -0.669090838050E+03   -0.19729E-03   -0.19671E-03  8424   0.486E-03 0.727E-03
CGA:   9    -0.669090879723E+03   -0.41673E-04   -0.51799E-04  8424   0.295E-03 0.358E-03
CGA:  10    -0.669090886411E+03   -0.66879E-05   -0.22152E-04  8424   0.243E-03 0.265E-03
CGA:  11    -0.669090886537E+03   -0.12623E-06   -0.15349E-04  8424   0.213E-03 0.226E-03
CGA:  12    -0.669090883843E+03    0.26946E-05   -0.11808E-04  8424   0.194E-03 0.202E-03
  41 F= -.66909088E+03 E0= -.66909088E+03  d E =-.455954E-01  mag=     2.0000
       N       E                     dE             d eps       ncg     rms          ort
SDA:   1    -0.667593094132E+03    0.14978E+01    0.00000E+00  8424   0.456E+01 0.000E+00
CGA:   2    -0.668586614320E+03   -0.99352E+00   -0.99198E+00  8424   0.203E+01 0.150E-01
CGA:   3    -0.668994356743E+03   -0.40774E+00   -0.40792E+00  8424   0.618E+00-0.258E-02
CGA:   4    -0.669095948808E+03   -0.10159E+00   -0.10156E+00  8424   0.149E+00 0.881E-03
CGA:   5    -0.669121575616E+03   -0.25627E-01   -0.25606E-01  8424   0.307E-01 0.479E-03
CGA:   6    -0.669127705594E+03   -0.61300E-02   -0.61539E-02  8424   0.736E-02-0.362E-03
CGA:   7    -0.669129222764E+03   -0.15172E-02   -0.14742E-02  8424   0.199E-02 0.642E-03
CGA:   8    -0.669129692217E+03   -0.46945E-03   -0.43724E-03  8424   0.584E-03 0.510E-03
CGA:   9    -0.669129834321E+03   -0.14210E-03   -0.13091E-03  8424   0.249E-03 0.308E-03
CGA:  10    -0.669129869681E+03   -0.35359E-04   -0.35549E-04  8424   0.149E-03 0.173E-03
CGA:  11    -0.669129884416E+03   -0.14735E-04   -0.17900E-04  8424   0.123E-03 0.134E-03
CGA:  12    -0.669129891475E+03   -0.70599E-05   -0.12160E-04  8424   0.110E-03 0.116E-03
  42 F= -.66912989E+03 E0= -.66912989E+03  d E =-.390076E-01  mag=     2.0000
       N       E                     dE             d eps       ncg     rms          ort
SDA:   1    -0.651977214353E+03    0.17153E+02    0.00000E+00  8424   0.566E+02 0.000E+00
CGA:   2    -0.662492066753E+03   -0.10515E+02   -0.10464E+02  8424   0.222E+02 0.851E+00
CGA:   3    -0.667349180525E+03   -0.48571E+01   -0.48670E+01  8424   0.705E+01-0.135E+00
CGA:   4    -0.668527357103E+03   -0.11782E+01   -0.11776E+01  8424   0.171E+01 0.157E-01
CGA:   5    -0.668811786962E+03   -0.28443E+00   -0.28419E+00  8424   0.383E+00 0.972E-02
CGA:   6    -0.668887859599E+03   -0.76073E-01   -0.76126E-01  8424   0.878E-01-0.104E-02
CGA:   7    -0.668906948793E+03   -0.19089E-01   -0.18940E-01  8424   0.247E-01 0.222E-02
CGA:   8    -0.668912956226E+03   -0.60074E-02   -0.58882E-02  8424   0.714E-02 0.148E-02
CGA:   9    -0.668915024248E+03   -0.20680E-02   -0.20319E-02  8424   0.258E-02 0.320E-03
CGA:  10    -0.668915684329E+03   -0.66008E-03   -0.60868E-03  8424   0.102E-02 0.802E-03
CGA:  11    -0.668915984943E+03   -0.30061E-03   -0.27654E-03  8424   0.456E-03 0.568E-03
CGA:  12    -0.668916065330E+03   -0.80387E-04   -0.78833E-04  8424   0.243E-03 0.281E-03
CGA:  13    -0.668916077808E+03   -0.12479E-04   -0.25960E-04  8424   0.207E-03 0.223E-03
CGA:  14    -0.668916085163E+03   -0.73551E-05   -0.20312E-04  8424   0.185E-03 0.195E-03
CGA:  15    -0.668916088372E+03   -0.32087E-05   -0.16278E-04  8424   0.171E-03 0.178E-03
CGA:  16    -0.668916089072E+03   -0.69958E-06   -0.13616E-04  8424   0.160E-03 0.166E-03
CGA:  17    -0.668916088182E+03    0.88933E-06   -0.11723E-04  8424   0.152E-03 0.156E-03
CGA:  18    -0.668916086242E+03    0.19398E-05   -0.10296E-04  8424   0.146E-03 0.149E-03
