       N       E                     dE             d eps       ncg     rms          ort
DAV:   1     0.826477556885E+04    0.82648E+04   -0.24657E+05  8424   0.238E+03
DAV:   2     0.916419161269E+03   -0.73484E+04   -0.68966E+04  8424   0.656E+02
DAV:   3    -0.675631560101E+03   -0.15921E+04   -0.13984E+04  8424   0.282E+02
DAV:   4    -0.831472820349E+03   -0.15584E+03   -0.15313E+03  8424   0.857E+01
DAV:   5    -0.833981626120E+03   -0.25088E+01   -0.24975E+01  8424   0.122E+01
SDA:   6    -0.234408538214E+03    0.59957E+03   -0.24975E+01  8424   0.498E+04 0.000E+00
CGA:   7    -0.428900827812E+03   -0.19449E+03   -0.44266E+03  8424   0.384E+04-0.178E+03
CGA:   8    -0.520900642301E+03   -0.92000E+02   -0.16791E+03  8424   0.281E+04-0.230E+04
CGA:   9    -0.478393726973E+03    0.42507E+02   -0.15326E+03  8424   0.248E+04-0.174E+04
CGA:  10    -0.528447219914E+03   -0.50053E+02   -0.11340E+03  8424   0.112E+04-0.121E+04
CGA:  11    -0.641263010760E+03   -0.11282E+03   -0.11579E+02  8424   0.630E+03 0.201E+04
CGA:  12    -0.624714635215E+03    0.16548E+02   -0.34569E+02  8424   0.103E+04-0.237E+03
CGA:  13    -0.641500946178E+03   -0.16786E+02   -0.27523E+02  8424   0.231E+03-0.134E+03
CGA:  14    -0.654156100398E+03   -0.12655E+02   -0.47062E+01  8424   0.107E+03 0.259E+03
CGA:  15    -0.657007997889E+03   -0.28519E+01   -0.18181E+01  8424   0.605E+02 0.300E+02
CGA:  16    -0.659208265874E+03   -0.22003E+01   -0.21132E+01  8424   0.711E+02-0.526E+00
CGA:  17    -0.658319625428E+03    0.88864E+00   -0.32430E+01  8424   0.101E+03-0.383E+02
CGA:  18    -0.661686312946E+03   -0.33667E+01   -0.18925E+01  8424   0.301E+02 0.599E+02
CGA:  19    -0.662592213164E+03   -0.90590E+00   -0.60389E+00  8424   0.126E+02 0.141E+02
CGA:  20    -0.663302105998E+03   -0.70989E+00   -0.50315E+00  8424   0.963E+01 0.761E+01
CGA:  21    -0.663995023979E+03   -0.69292E+00   -0.86472E+00  8424   0.128E+02 0.215E+01
CGA:  22    -0.664760541822E+03   -0.76552E+00   -0.43369E+00  8424   0.539E+01 0.111E+02
CGA:  23    -0.665061368519E+03   -0.30083E+00   -0.25127E+00  8424   0.625E+01 0.528E+00
CGA:  24    -0.666039139233E+03   -0.97777E+00   -0.10001E+01  8424   0.125E+02-0.648E+00
CGA:  25    -0.666449414937E+03   -0.41028E+00   -0.30117E+00  8424   0.474E+01 0.436E+01
CGA:  26    -0.666713397315E+03   -0.26398E+00   -0.26063E+00  8424   0.223E+01 0.401E+00
CGA:  27    -0.666848983452E+03   -0.13559E+00   -0.12601E+00  8424   0.224E+01 0.817E-01
CGA:  28    -0.666969890491E+03   -0.12091E+00   -0.12322E+00  8424   0.215E+01 0.885E-02
CGA:  29    -0.667070376269E+03   -0.10049E+00   -0.11655E+00  8424   0.986E+00-0.214E-02
CGA:  30    -0.667139242127E+03   -0.68866E-01   -0.73486E-01  8424   0.506E+00 0.538E-01
CGA:  31    -0.667193138766E+03   -0.53897E-01   -0.53627E-01  8424   0.437E+00 0.114E-02
CGA:  32    -0.667254463211E+03   -0.61324E-01   -0.58095E-01  8424   0.377E+00 0.527E-01
CGA:  33    -0.667343557630E+03   -0.89094E-01   -0.83677E-01  8424   0.299E+00 0.440E-01
CGA:  34    -0.667397456537E+03   -0.53899E-01   -0.62518E-01  8424   0.630E+00-0.994E-01
CGA:  35    -0.667445904440E+03   -0.48448E-01   -0.50482E-01  8424   0.895E+00-0.129E+00
CGA:  36    -0.667506713887E+03   -0.60809E-01   -0.59138E-01  8424   0.572E+00-0.116E+00
CGA:  37    -0.667570848742E+03   -0.64135E-01   -0.66437E-01  8424   0.530E+00-0.106E+00
CGA:  38    -0.667580565694E+03   -0.97170E-02   -0.15808E+00  8424   0.123E+01-0.597E+00
CGA:  39    -0.667787596409E+03   -0.20703E+00   -0.20743E+00  8424   0.445E+00-0.781E-02
CGA:  40    -0.667982406775E+03   -0.19481E+00   -0.18697E+00  8424   0.279E+00 0.293E-01
CGA:  41    -0.668060733246E+03   -0.78326E-01   -0.78555E-01  8424   0.154E+00-0.240E-02
CGA:  42    -0.668090669127E+03   -0.29936E-01   -0.30857E-01  8424   0.181E+00-0.117E-01
CGA:  43    -0.668145467449E+03   -0.54798E-01   -0.65902E-01  8424   0.246E+00-0.445E-01
CGA:  44    -0.668182563904E+03   -0.37096E-01   -0.89810E-01  8424   0.442E+00-0.176E+00
CGA:  45    -0.668260739428E+03   -0.78176E-01   -0.78188E-01  8424   0.180E+00-0.116E-01
CGA:  46    -0.668326741836E+03   -0.66002E-01   -0.72418E-01  8424   0.155E+00-0.268E-01
CGA:  47    -0.668366109484E+03   -0.39368E-01   -0.43260E-01  8424   0.116E+00-0.272E-01
CGA:  48    -0.668397044199E+03   -0.30935E-01   -0.45712E-01  8424   0.131E+00-0.520E-01
CGA:  49    -0.668413611840E+03   -0.16568E-01   -0.17406E-01  8424   0.462E-01-0.259E-01
CGA:  50    -0.668426768184E+03   -0.13156E-01   -0.17193E-01  8424   0.920E-01-0.158E-01
CGA:  51    -0.668442627011E+03   -0.15859E-01   -0.16774E-01  8424   0.631E-01-0.166E-01
CGA:  52    -0.668456617273E+03   -0.13990E-01   -0.14665E-01  8424   0.610E-01-0.115E-01
CGA:  53    -0.668469417759E+03   -0.12800E-01   -0.13156E-01  8424   0.417E-01-0.102E-01
CGA:  54    -0.668479014561E+03   -0.95968E-02   -0.98962E-02  8424   0.357E-01-0.570E-02
CGA:  55    -0.668487838688E+03   -0.88241E-02   -0.90316E-02  8424   0.368E-01-0.368E-02
CGA:  56    -0.668499950810E+03   -0.12112E-01   -0.12651E-01  8424   0.453E-01-0.418E-02
CGA:  57    -0.668511578481E+03   -0.11628E-01   -0.11713E-01  8424   0.393E-01-0.237E-02
CGA:  58    -0.668522700706E+03   -0.11122E-01   -0.11200E-01  8424   0.333E-01-0.195E-02
CGA:  59    -0.668533680329E+03   -0.10980E-01   -0.11808E-01  8424   0.382E-01-0.720E-02
CGA:  60    -0.668543568567E+03   -0.98882E-02   -0.11429E-01  8424   0.518E-01-0.131E-01
CGA:  61    -0.668554345364E+03   -0.10777E-01   -0.13433E-01  8424   0.655E-01-0.220E-01
CGA:  62    -0.668564678104E+03   -0.10333E-01   -0.14277E-01  8424   0.931E-01-0.392E-01
CGA:  63    -0.668588021976E+03   -0.23344E-01   -0.23284E-01  8424   0.371E-01-0.275E-02
CGA:  64    -0.668600316454E+03   -0.12294E-01   -0.12288E-01  8424   0.183E-01 0.803E-04
CGA:  65    -0.668608110872E+03   -0.77944E-02   -0.89046E-02  8424   0.190E-01-0.539E-02
CGA:  66    -0.668612834326E+03   -0.47235E-02   -0.52117E-02  8424   0.116E-01-0.489E-02
CGA:  67    -0.668607721603E+03    0.51127E-02   -0.10617E-01  8424   0.801E-01-0.172E-01
CGA:  68    -0.668625635017E+03   -0.17913E-01   -0.17679E-01  8424   0.120E-01-0.209E-02
CGA:  69    -0.668629486175E+03   -0.38512E-02   -0.38470E-02  8424   0.963E-02-0.162E-02
CGA:  70    -0.668629531395E+03   -0.45220E-04   -0.94724E-02  8424   0.386E-01-0.118E-01
CGA:  71    -0.668638125919E+03   -0.85945E-02   -0.81378E-02  8424   0.125E-01-0.297E-02
CGA:  72    -0.668642347500E+03   -0.42216E-02   -0.42286E-02  8424   0.582E-02-0.260E-02
CGA:  73    -0.668625480568E+03    0.16867E-01   -0.79871E-02  8424   0.139E+00-0.182E-01
CGA:  74    -0.668649044505E+03   -0.23564E-01   -0.23567E-01  8424   0.161E-01 0.159E-02
CGA:  75    -0.668653933293E+03   -0.48888E-02   -0.46172E-02  8424   0.607E-02-0.202E-02
CGA:  76    -0.668656001651E+03   -0.20684E-02   -0.48084E-02  8424   0.147E-01-0.558E-02
CGA:  77    -0.668660164141E+03   -0.41625E-02   -0.36648E-02  8424   0.689E-02-0.269E-02
CGA:  78    -0.668662645793E+03   -0.24817E-02   -0.25941E-02  8424   0.649E-02-0.342E-02
CGA:  79    -0.668665624074E+03   -0.29783E-02    0.11476E-01  8424   0.656E-02-0.224E-02
CGA:  80    -0.668671853159E+03   -0.62291E-02    0.13394E-02  8424   0.351E-02 0.214E-02
CGA:  81    -0.668676310456E+03   -0.44573E-02    0.87509E-02  8424   0.348E-02-0.262E-03
CGA:  82    -0.668681317131E+03   -0.50067E-02    0.85107E-03  8424   0.533E-02-0.662E-03
CGA:  83    -0.668690810533E+03   -0.94934E-02    0.59366E-03  8424   0.564E-02 0.116E-02
CGA:  84    -0.668702846601E+03   -0.12036E-01    0.14204E-02  8424   0.998E-02 0.525E-03
CGA:  85    -0.668724924199E+03   -0.22078E-01    0.17288E-02  8424   0.850E-02-0.188E-02
CGA:  86    -0.668744161733E+03   -0.19238E-01    0.65969E-03  8424   0.128E-01-0.179E-02
CGA:  87    -0.668773515751E+03   -0.29354E-01    0.91429E-03  8424   0.127E-01-0.668E-02
CGA:  88    -0.668775910379E+03   -0.23946E-02   -0.24574E-02  8424   0.296E-02 0.247E-03
CGA:  89    -0.668776527164E+03   -0.61679E-03   -0.76871E-03  8424   0.120E-02 0.929E-03
CGA:  90    -0.668776791706E+03   -0.26454E-03   -0.39218E-03  8424   0.752E-03 0.786E-03
CGA:  91    -0.668776964916E+03   -0.17321E-03   -0.21848E-03  8424   0.733E-03 0.404E-03
CGA:  92    -0.668777051564E+03   -0.86647E-04   -0.15779E-03  8424   0.619E-03 0.390E-03
CGA:  93    -0.668777231136E+03   -0.17957E-03   -0.20073E-03  8424   0.784E-03 0.332E-03
CGA:  94    -0.668777314591E+03   -0.83455E-04   -0.14625E-03  8424   0.579E-03 0.316E-03
CGA:  95    -0.668777629121E+03   -0.31453E-03   -0.30931E-03  8424   0.771E-03 0.752E-03
CGA:  96    -0.668777813792E+03   -0.18467E-03   -0.19013E-03  8424   0.899E-03 0.397E-04
CGA:  97    -0.668778641701E+03   -0.82791E-03   -0.59340E-03  8424   0.705E-03 0.866E-03
CGA:  98    -0.668778772529E+03   -0.13083E-03   -0.14590E-03  8424   0.609E-03 0.845E-04
CGA:  99    -0.668781771139E+03   -0.29986E-02   -0.66139E-02  8424   0.139E-02 0.464E-03
CGA: 100    -0.668782106611E+03   -0.33547E-03   -0.28320E-03  8424   0.602E-03-0.113E-03
CGA: 101    -0.668783106195E+03   -0.99958E-03    0.47586E-03  8424   0.105E-02-0.338E-04
CGA: 102    -0.668785214434E+03   -0.21082E-02    0.51760E-03  8424   0.179E-02 0.322E-03
CGA: 103    -0.668790025197E+03   -0.48108E-02    0.13378E-02  8424   0.355E-02 0.473E-03
CGA: 104    -0.668799824325E+03   -0.97991E-02    0.22192E-02  8424   0.830E-02-0.516E-03
CGA: 105    -0.668823959063E+03   -0.24135E-01    0.14573E-02  8424   0.165E-01-0.564E-02
CGA: 106    -0.668827567788E+03   -0.36087E-02   -0.32850E-02  8424   0.550E-02-0.907E-03
CGA: 107    -0.668829039150E+03   -0.14714E-02   -0.14084E-02  8424   0.116E-02-0.189E-03
CGA: 108    -0.668829688022E+03   -0.64887E-03   -0.58002E-03  8424   0.218E-02-0.728E-03
CGA: 109    -0.668830222794E+03   -0.53477E-03   -0.44499E-03  8424   0.649E-03-0.220E-03
CGA: 110    -0.668830977101E+03   -0.75431E-03    0.17736E-02  8424   0.125E-02-0.827E-04
CGA: 111    -0.668832665549E+03   -0.16884E-02    0.10115E-02  8424   0.205E-02-0.134E-03
CGA: 112    -0.668836958715E+03   -0.42932E-02    0.54402E-03  8424   0.193E-02 0.670E-03
CGA: 113    -0.668841581902E+03   -0.46232E-02    0.14123E-02  8424   0.194E-02 0.410E-03
CGA: 114    -0.668846066714E+03   -0.44848E-02    0.11183E-02  8424   0.421E-02-0.117E-02
CGA: 115    -0.668846765095E+03   -0.69838E-03   -0.76667E-03  8424   0.750E-03 0.171E-03
CGA: 116    -0.668847241362E+03   -0.47627E-03   -0.48761E-03  8424   0.749E-03-0.206E-03
CGA: 117    -0.668846671886E+03    0.56948E-03   -0.70153E-03  8424   0.109E-01-0.178E-02
CGA: 118    -0.668848233315E+03   -0.15614E-02   -0.17887E-02  8424   0.146E-02 0.558E-03
CGA: 119    -0.668848975481E+03   -0.74217E-03   -0.70971E-03  8424   0.104E-02-0.264E-03
CGA: 120    -0.668849336701E+03   -0.36122E-03   -0.29097E-03  8424   0.390E-03-0.297E-03
CGA: 121    -0.667246549916E+03    0.16028E+01    0.17708E+01  8424   0.168E+01-0.356E+00
CGA: 122    -0.668728486027E+03   -0.14819E+01   -0.14784E+01  8424   0.631E+00-0.147E+00
CGA: 123    -0.668844456409E+03   -0.11597E+00   -0.11712E+00  8424   0.287E-01-0.295E-02
CGA: 124    -0.668851438622E+03   -0.69822E-02   -0.67437E-02  8424   0.271E-02-0.334E-03
CGA: 125    -0.668852303845E+03   -0.86522E-03   -0.84019E-03  8424   0.755E-03-0.404E-04
CGA: 126    -0.668852793683E+03   -0.48984E-03   -0.35750E-03  8424   0.802E-03-0.306E-03
CGA: 127    -0.668853233035E+03   -0.43935E-03   -0.35921E-03  8424   0.174E-02-0.577E-03
CGA: 128    -0.668853765546E+03   -0.53251E-03   -0.44337E-03  8424   0.795E-03-0.146E-03
CGA: 129    -0.668854078335E+03   -0.31279E-03   -0.28533E-03  8424   0.321E-03-0.606E-04
CGA: 130    -0.668842203797E+03    0.11875E-01   -0.64826E-02  8424   0.648E-01-0.301E-02
CGA: 131    -0.668854859572E+03   -0.12656E-01   -0.13002E-01  8424   0.659E-02 0.196E-02
CGA: 132    -0.668857201268E+03   -0.23417E-02   -0.19721E-02  8424   0.257E-02-0.334E-03
CGA: 133    -0.668858313159E+03   -0.11119E-02   -0.94102E-03  8424   0.823E-03-0.160E-03
CGA: 134    -0.668858696607E+03   -0.38345E-03   -0.25756E-03  8424   0.279E-03-0.127E-03
CGA: 135    -0.668858125138E+03    0.57147E-03   -0.57092E-03  8424   0.125E-01-0.102E-02
CGA: 136    -0.668860296090E+03   -0.21710E-02   -0.21598E-02  8424   0.100E-02-0.726E-04
CGA: 137    -0.668860602476E+03   -0.30639E-03   -0.29967E-03  8424   0.343E-03-0.723E-05
CGA: 138    -0.668861041247E+03   -0.43877E-03   -0.28361E-03  8424   0.156E-02-0.382E-03
CGA: 139    -0.668861225046E+03   -0.18380E-03   -0.25960E-03  8424   0.192E-03 0.779E-04
CGA: 140    -0.668861412294E+03   -0.18725E-03   -0.27663E-03  8424   0.242E-02-0.450E-03
CGA: 141    -0.668861983251E+03   -0.57096E-03   -0.52343E-03  8424   0.474E-03-0.431E-04
CGA: 142    -0.668862262963E+03   -0.27971E-03   -0.15741E-03  8424   0.289E-03-0.156E-03
CGA: 143    -0.668859005110E+03    0.32579E-02   -0.71416E-03  8424   0.308E-01-0.155E-02
CGA: 144    -0.668864394750E+03   -0.53896E-02   -0.50718E-02  8424   0.313E-02-0.136E-02
CGA: 145    -0.668865249961E+03   -0.85521E-03   -0.83574E-03  8424   0.678E-03-0.192E-04
CGA: 146    -0.668865569263E+03   -0.31930E-03   -0.22842E-03  8424   0.174E-03-0.118E-03
CGA: 147    -0.668866064186E+03   -0.49492E-03    0.13289E-03  8424   0.121E-02-0.175E-03
CGA: 148    -0.668866286611E+03   -0.22243E-03   -0.19679E-03  8424   0.145E-03-0.313E-04
CGA: 149    -0.668866598549E+03   -0.31194E-03    0.12243E-02  8424   0.803E-03-0.145E-03
CGA: 150    -0.668866907608E+03   -0.30906E-03   -0.16831E-03  8424   0.250E-03-0.173E-03
CGA: 151    -0.668867115727E+03   -0.20812E-03   -0.15960E-03  8424   0.116E-02-0.267E-03
CGA: 152    -0.668867416263E+03   -0.30054E-03   -0.19902E-03  8424   0.202E-03-0.130E-03
CGA: 153    -0.668867582850E+03   -0.16659E-03   -0.17307E-03  8424   0.158E-02-0.333E-03
CGA: 154    -0.668867962678E+03   -0.37983E-03   -0.27505E-03  8424   0.273E-03-0.143E-03
CGA: 155    -0.668868135648E+03   -0.17297E-03   -0.10879E-03  8424   0.281E-03-0.137E-03
CGA: 156    -0.668868316583E+03   -0.18093E-03   -0.84284E-04  8424   0.318E-03-0.166E-03
CGA: 157    -0.668868378407E+03   -0.61825E-04   -0.48618E-04  8424   0.587E-04-0.183E-04
CGA: 158    -0.668868786361E+03   -0.40795E-03    0.65104E-05  8424   0.831E-04 0.375E-04
CGA: 159    -0.668868976105E+03   -0.18974E-03    0.87205E-04  8424   0.784E-03-0.133E-03
CGA: 160    -0.668869200848E+03   -0.22474E-03   -0.14240E-03  8424   0.124E-03-0.131E-03
CGA: 161    -0.668869370850E+03   -0.17000E-03    0.88748E-03  8424   0.115E-02-0.182E-03
CGA: 162    -0.668869626386E+03   -0.25554E-03   -0.16852E-03  8424   0.950E-04-0.139E-03
CGA: 163    -0.668869830942E+03   -0.20456E-03    0.51041E-04  8424   0.631E-03-0.989E-04
CGA: 164    -0.668870018229E+03   -0.18729E-03   -0.10708E-03  8424   0.123E-03-0.138E-03
CGA: 165    -0.668870241239E+03   -0.22301E-03    0.58106E-04  8424   0.633E-03-0.107E-03
CGA: 166    -0.668870423938E+03   -0.18270E-03   -0.10635E-03  8424   0.126E-03-0.138E-03
CGA: 167    -0.668870632187E+03   -0.20825E-03    0.68112E-04  8424   0.600E-03-0.113E-03
CGA: 168    -0.668870813679E+03   -0.18149E-03   -0.10489E-03  8424   0.145E-03-0.147E-03
CGA: 169    -0.668871014840E+03   -0.20116E-03    0.10050E-03  8424   0.621E-03-0.133E-03
CGA: 170    -0.668871198314E+03   -0.18347E-03   -0.11019E-03  8424   0.156E-03-0.149E-03
CGA: 171    -0.668871375387E+03   -0.17707E-03    0.26095E-03  8424   0.658E-03-0.160E-03
CGA: 172    -0.668871568487E+03   -0.19310E-03   -0.11855E-03  8424   0.173E-03-0.160E-03
CGA: 173    -0.668865540010E+03    0.60285E-02   -0.33081E-02  8424   0.526E-01-0.194E-02
CGA: 174    -0.668872845890E+03   -0.73059E-02   -0.71599E-02  8424   0.357E-02-0.158E-02
CGA: 175    -0.668873584800E+03   -0.73891E-03   -0.73545E-03  8424   0.814E-04-0.360E-05
CGA: 176    -0.668873819211E+03   -0.23441E-03    0.11251E-03  8424   0.113E-02-0.196E-03
CGA: 177    -0.668873979136E+03   -0.15993E-03   -0.16909E-03  8424   0.134E-03 0.143E-04
CGA: 178    -0.668874133734E+03   -0.15460E-03   -0.12165E-03  8424   0.111E-02-0.314E-03
CGA: 179    -0.668874348846E+03   -0.21511E-03   -0.21111E-03  8424   0.200E-03-0.403E-05
CGA: 180    -0.668874533723E+03   -0.18488E-03   -0.81594E-04  8424   0.328E-03-0.190E-03
CGA: 181    -0.668874595198E+03   -0.61475E-04   -0.54500E-04  8424   0.620E-04-0.861E-05
CGA: 182    -0.668874886212E+03   -0.29101E-03    0.15778E-04  8424   0.391E-03-0.846E-04
CGA: 183    -0.668874981815E+03   -0.95602E-04   -0.79628E-04  8424   0.970E-04-0.230E-04
CGA: 184    -0.668875220670E+03   -0.23886E-03    0.74169E-04  8424   0.101E-02-0.224E-03
CGA: 185    -0.668875354224E+03   -0.13355E-03   -0.15200E-03  8424   0.116E-03 0.292E-04
CGA: 186    -0.668866635678E+03    0.87185E-02   -0.48217E-02  8424   0.428E-01-0.208E-02
CGA: 187    -0.668875670366E+03   -0.90347E-02   -0.91798E-02  8424   0.756E-02 0.547E-03
CGA: 188    -0.668877254129E+03   -0.15838E-02   -0.13997E-02  8424   0.247E-03-0.200E-03
CGA: 189    -0.668877379042E+03   -0.12491E-03   -0.82422E-04  8424   0.540E-04-0.416E-04
CGA: 190    -0.668877712764E+03   -0.33372E-03    0.16307E-04  8424   0.125E-02-0.137E-03
CGA: 191    -0.668877838682E+03   -0.12592E-03   -0.16623E-03  8424   0.530E-04 0.434E-04
CGA: 192    -0.668878040762E+03   -0.20208E-03    0.74534E-04  8424   0.481E-03-0.121E-03
CGA: 193    -0.668878252002E+03   -0.21124E-03   -0.15170E-03  8424   0.662E-04-0.634E-04
CGA: 194    -0.668877726767E+03    0.52524E-03   -0.15881E-03  8424   0.609E-02-0.442E-03
CGA: 195    -0.668878968298E+03   -0.12415E-02   -0.10731E-02  8424   0.574E-03-0.243E-03
CGA: 196    -0.668879091731E+03   -0.12343E-03   -0.12423E-03  8424   0.632E-04 0.128E-05
CGA: 197    -0.668879287764E+03   -0.19603E-03    0.12219E-03  8424   0.497E-03-0.137E-03
CGA: 198    -0.668879420931E+03   -0.13317E-03   -0.12091E-03  8424   0.100E-03-0.131E-04
CGA: 199    -0.668879558000E+03   -0.13707E-03   -0.95133E-04  8424   0.108E-02-0.257E-03
CGA: 200    -0.668879684988E+03   -0.12699E-03   -0.16484E-03  8424   0.138E-03 0.263E-04
   1 F= -.66887968E+03 E0= -.66887968E+03  d E =-.668880E+03  mag=     6.0000
       N       E                     dE             d eps       ncg     rms          ort
SDA:   1    -0.668886292905E+03   -0.67349E-02    0.00000E+00  8424   0.847E-02 0.000E+00
CGA:   2    -0.668888135301E+03   -0.18424E-02   -0.18192E-02  8424   0.349E-02-0.286E-04
CGA:   3    -0.668888904324E+03   -0.76902E-03   -0.71542E-03  8424   0.115E-02-0.646E-04
CGA:   4    -0.668889154664E+03   -0.25034E-03   -0.20384E-03  8424   0.342E-03-0.582E-04
CGA:   5    -0.668889252647E+03   -0.97983E-04   -0.62106E-04  8424   0.104E-03-0.493E-04
CGA:   6    -0.668889345812E+03   -0.93165E-04   -0.43098E-04  8424   0.307E-03-0.119E-03
CGA:   7    -0.668889412054E+03   -0.66242E-04   -0.45120E-04  8424   0.556E-04-0.293E-04
CGA:   8    -0.668889510723E+03   -0.98668E-04    0.14026E-03  8424   0.541E-03-0.116E-03
CGA:   9    -0.668889603100E+03   -0.92377E-04   -0.80885E-04  8424   0.641E-04-0.226E-04
CGA:  10    -0.668889505495E+03    0.97605E-04   -0.93075E-04  8424   0.172E-02-0.274E-03
CGA:  11    -0.668889863316E+03   -0.35782E-03   -0.32992E-03  8424   0.232E-03-0.432E-04
CGA:  12    -0.668889974877E+03   -0.11156E-03   -0.71534E-04  8424   0.589E-04-0.803E-04
CGA:  13    -0.668890093975E+03   -0.11910E-03    0.15955E-04  8424   0.200E-03-0.442E-04
CGA:  14    -0.668890173321E+03   -0.79345E-04   -0.41794E-04  8424   0.624E-04-0.645E-04
CGA:  15    -0.668890238745E+03   -0.65425E-04    0.10437E-02  8424   0.458E-03-0.912E-04
CGA:  16    -0.668890350540E+03   -0.11179E-03   -0.66963E-04  8424   0.463E-04-0.733E-04
CGA:  17    -0.668434466580E+03    0.45588E+00   -0.10496E-03  8424   0.181E-01-0.413E-03
CGA:  18    -0.668822847648E+03   -0.38838E+00    0.63353E-03  8424   0.478E+00-0.875E-01
CGA:  19    -0.668887485341E+03   -0.64638E-01   -0.63612E-01  8424   0.157E-01 0.789E-02
CGA:  20    -0.668890571526E+03   -0.30862E-02   -0.28690E-02  8424   0.121E-02-0.388E-03
CGA:  21    -0.668890830007E+03   -0.25848E-03   -0.28568E-03  8424   0.232E-03 0.516E-04
CGA:  22    -0.668891011811E+03   -0.18180E-03   -0.15569E-03  8424   0.610E-03-0.276E-03
CGA:  23    -0.668891091353E+03   -0.79542E-04   -0.10321E-03  8424   0.561E-04 0.423E-04
CGA:  24    -0.668891202252E+03   -0.11090E-03    0.68529E-04  8424   0.280E-03-0.953E-04
CGA:  25    -0.668891231754E+03   -0.29501E-04   -0.42402E-04  8424   0.322E-04 0.234E-04
CGA:  26    -0.668891315637E+03   -0.83883E-04    0.15329E-04  8424   0.134E-03-0.518E-04
CGA:  27    -0.668891362503E+03   -0.46866E-04   -0.33866E-04  8424   0.390E-04-0.306E-04
CGA:  28    -0.668891478721E+03   -0.11622E-03    0.50998E-05  8424   0.255E-03-0.601E-04
CGA:  29    -0.668891501714E+03   -0.22993E-04   -0.31645E-04  8424   0.143E-04 0.167E-04
CGA:  30    -0.668891575631E+03   -0.73917E-04    0.16738E-05  8424   0.335E-04-0.848E-05
CGA:  31    -0.668891658745E+03   -0.83114E-04    0.10901E-04  8424   0.187E-03-0.571E-04
CGA:  32    -0.668891682494E+03   -0.23749E-04   -0.26776E-04  8424   0.154E-04 0.640E-05
CGA:  33    -0.668891763054E+03   -0.80560E-04    0.15125E-05  8424   0.383E-04-0.127E-04
CGA:  34    -0.668890108123E+03    0.16549E-02   -0.90991E-03  8424   0.959E-02-0.545E-03
CGA:  35    -0.668892173990E+03   -0.20659E-02   -0.19171E-02  8424   0.103E-02-0.219E-03
CGA:  36    -0.668892299898E+03   -0.12591E-03   -0.16230E-03  8424   0.258E-04 0.431E-04
CGA:  37    -0.668892329639E+03   -0.29741E-04   -0.25091E-04  8424   0.232E-03-0.576E-04
CGA:  38    -0.668892445582E+03   -0.11594E-03   -0.55895E-04  8424   0.715E-04-0.782E-04
CGA:  39    -0.668892472800E+03   -0.27218E-04   -0.15918E-04  8424   0.289E-04-0.178E-04
CGA:  40    -0.668892621196E+03   -0.14840E-03    0.38712E-05  8424   0.235E-03-0.370E-04
CGA:  41    -0.668892655571E+03   -0.34375E-04   -0.33447E-04  8424   0.110E-04-0.701E-06
CGA:  42    -0.668892756117E+03   -0.10055E-03    0.12112E-05  8424   0.789E-04-0.151E-04
CGA:  43    -0.668892770500E+03   -0.14383E-04   -0.14766E-04  8424   0.113E-04 0.529E-06
CGA:  44    -0.668892884154E+03   -0.11365E-03    0.10341E-05  8424   0.945E-04-0.180E-04
CGA:  45    -0.668892894563E+03   -0.10410E-04   -0.15181E-04  8424   0.117E-04 0.685E-05
CGA:  46    -0.668892978726E+03   -0.84163E-04    0.17246E-05  8424   0.636E-04-0.174E-04
CGA:  47    -0.668893018217E+03   -0.39491E-04   -0.24113E-04  8424   0.443E-04-0.342E-04
CGA:  48    -0.668893066386E+03   -0.48169E-04   -0.27247E-04  8424   0.375E-03-0.109E-03
CGA:  49    -0.668893101701E+03   -0.35315E-04   -0.49195E-04  8424   0.107E-04 0.219E-04
CGA:  50    -0.668893173670E+03   -0.71970E-04    0.13653E-05  8424   0.535E-04-0.136E-04
CGA:  51    -0.668893213973E+03   -0.40303E-04   -0.23205E-04  8424   0.872E-04-0.518E-04
CGA:  52    -0.668893235035E+03   -0.21062E-04   -0.15936E-04  8424   0.121E-04-0.900E-05
CGA:  53    -0.668893328414E+03   -0.93379E-04    0.78511E-06  8424   0.587E-04-0.114E-04
CGA:  54    -0.668893333089E+03   -0.46747E-05   -0.86946E-05  8424   0.715E-05 0.707E-05
   2 F= -.66889333E+03 E0= -.66889333E+03  d E =-.136481E-01  mag=     6.0000
       N       E                     dE             d eps       ncg     rms          ort
SDA:   1    -0.668585943654E+03    0.30738E+00    0.00000E+00  8424   0.122E+01 0.000E+00
CGA:   2    -0.668849184853E+03   -0.26324E+00   -0.26359E+00  8424   0.520E+00 0.283E-05
CGA:   3    -0.668954943112E+03   -0.10576E+00   -0.10547E+00  8424   0.160E+00-0.259E-03
CGA:   4    -0.668981576686E+03   -0.26634E-01   -0.26579E-01  8424   0.402E-01-0.580E-04
CGA:   5    -0.668988406248E+03   -0.68296E-02   -0.68752E-02  8424   0.843E-02 0.937E-04
CGA:   6    -0.668990058471E+03   -0.16522E-02   -0.16658E-02  8424   0.189E-02 0.325E-04
CGA:   7    -0.668990458615E+03   -0.40014E-03   -0.42031E-03  8424   0.582E-03 0.565E-04
CGA:   8    -0.668990570064E+03   -0.11145E-03   -0.13426E-03  8424   0.172E-03 0.678E-04
CGA:   9    -0.668990581138E+03   -0.11073E-04   -0.36676E-04  8424   0.612E-04 0.726E-04
CGA:  10    -0.668990566839E+03    0.14299E-04   -0.98347E-05  8424   0.372E-04 0.584E-04
CGA:  11    -0.668990556148E+03    0.10691E-04   -0.31115E-05  8424   0.295E-04 0.327E-04
CGA:  12    -0.668990546791E+03    0.93573E-05   -0.20805E-05  8424   0.261E-04 0.276E-04
   3 F= -.66899055E+03 E0= -.66899055E+03  d E =-.972137E-01  mag=     6.0000
       N       E                     dE             d eps       ncg     rms          ort
SDA:   1    -0.655931809842E+03    0.13059E+02    0.00000E+00  8424   0.385E+02 0.000E+00
CGA:   2    -0.664765261861E+03   -0.88335E+01   -0.88631E+01  8424   0.168E+02-0.238E-02
CGA:   3    -0.668072645456E+03   -0.33074E+01   -0.33027E+01  8424   0.489E+01 0.469E-01
CGA:   4    -0.668902163242E+03   -0.82952E+00   -0.82803E+00  8424   0.121E+01 0.141E-01
CGA:   5    -0.669111443627E+03   -0.20928E+00   -0.20993E+00  8424   0.266E+00 0.227E-02
CGA:   6    -0.669164134752E+03   -0.52691E-01   -0.52888E-01  8424   0.615E-01 0.858E-03
CGA:   7    -0.669178248636E+03   -0.14114E-01   -0.14281E-01  8424   0.212E-01 0.107E-02
CGA:   8    -0.669183360858E+03   -0.51122E-02   -0.52579E-02  8424   0.705E-02 0.108E-02
CGA:   9    -0.669185065773E+03   -0.17049E-02   -0.18600E-02  8424   0.247E-02 0.128E-02
CGA:  10    -0.669185437725E+03   -0.37195E-03   -0.59034E-03  8424   0.115E-02 0.133E-02
CGA:  11    -0.669185490679E+03   -0.52954E-04   -0.19496E-03  8424   0.637E-03 0.752E-03
CGA:  12    -0.669185448624E+03    0.42055E-04   -0.83238E-04  8424   0.528E-03 0.575E-03
CGA:  13    -0.669185395552E+03    0.53072E-04   -0.59228E-04  8424   0.471E-03 0.498E-03
CGA:  14    -0.669185339989E+03    0.55563E-04   -0.46977E-04  8424   0.435E-03 0.452E-03
CGA:  15    -0.669185284755E+03    0.55234E-04   -0.39312E-04  8424   0.408E-03 0.421E-03
CGA:  16    -0.669185230895E+03    0.53860E-04   -0.33928E-04  8424   0.388E-03 0.398E-03
CGA:  17    -0.669185178849E+03    0.52046E-04   -0.29885E-04  8424   0.372E-03 0.380E-03
CGA:  18    -0.669185128792E+03    0.50057E-04   -0.26707E-04  8424   0.359E-03 0.365E-03
CGA:  19    -0.669185080774E+03    0.48018E-04   -0.24124E-04  8424   0.348E-03 0.353E-03
CGA:  20    -0.669185034782E+03    0.45992E-04   -0.21971E-04  8424   0.339E-03 0.343E-03
CGA:  21    -0.669184990768E+03    0.44014E-04   -0.20142E-04  8424   0.331E-03 0.334E-03
CGA:  22    -0.669184948669E+03    0.42099E-04   -0.18564E-04  8424   0.323E-03 0.327E-03
CGA:  23    -0.669184908414E+03    0.40256E-04   -0.17184E-04  8424   0.317E-03 0.320E-03
CGA:  24    -0.669184869926E+03    0.38488E-04   -0.15965E-04  8424   0.312E-03 0.314E-03
CGA:  25    -0.669184833129E+03    0.36796E-04   -0.14879E-04  8424   0.307E-03 0.309E-03
CGA:  26    -0.669184797950E+03    0.35179E-04   -0.13904E-04  8424   0.302E-03 0.305E-03
CGA:  27    -0.669184764316E+03    0.33634E-04   -0.13024E-04  8424   0.298E-03 0.300E-03
CGA:  28    -0.669184732156E+03    0.32160E-04   -0.12224E-04  8424   0.295E-03 0.297E-03
CGA:  29    -0.669184701404E+03    0.30752E-04   -0.11494E-04  8424   0.291E-03 0.293E-03
CGA:  30    -0.669184671996E+03    0.29408E-04   -0.10825E-04  8424   0.288E-03 0.290E-03
CGA:  31    -0.669184643870E+03    0.28126E-04   -0.10209E-04  8424   0.286E-03 0.287E-03
CGA:  32    -0.669184616969E+03    0.26902E-04   -0.96402E-05  8424   0.283E-03 0.284E-03
CGA:  33    -0.669184591235E+03    0.25734E-04   -0.91139E-05  8424   0.281E-03 0.282E-03
CGA:  34    -0.669184566615E+03    0.24619E-04   -0.86253E-05  8424   0.278E-03 0.279E-03
CGA:  35    -0.669184543060E+03    0.23556E-04   -0.81707E-05  8424   0.276E-03 0.277E-03
CGA:  36    -0.669184520520E+03    0.22540E-04   -0.77467E-05  8424   0.274E-03 0.275E-03
CGA:  37    -0.669184498950E+03    0.21570E-04   -0.73506E-05  8424   0.273E-03 0.273E-03
CGA:  38    -0.669184478306E+03    0.20644E-04   -0.69797E-05  8424   0.271E-03 0.272E-03
CGA:  39    -0.669184458545E+03    0.19761E-04   -0.66319E-05  8424   0.269E-03 0.270E-03
CGA:  40    -0.669184439628E+03    0.18917E-04   -0.63052E-05  8424   0.268E-03 0.269E-03
CGA:  41    -0.669184421517E+03    0.18111E-04   -0.59980E-05  8424   0.267E-03 0.267E-03
CGA:  42    -0.669184404176E+03    0.17341E-04   -0.57087E-05  8424   0.265E-03 0.266E-03
CGA:  43    -0.669184387570E+03    0.16606E-04   -0.54359E-05  8424   0.264E-03 0.265E-03
CGA:  44    -0.669184371665E+03    0.15904E-04   -0.51783E-05  8424   0.263E-03 0.264E-03
CGA:  45    -0.669184356432E+03    0.15234E-04   -0.49349E-05  8424   0.262E-03 0.263E-03
CGA:  46    -0.669184341839E+03    0.14593E-04   -0.47047E-05  8424   0.261E-03 0.262E-03
CGA:  47    -0.669184327859E+03    0.13980E-04   -0.44868E-05  8424   0.260E-03 0.261E-03
CGA:  48    -0.669184314463E+03    0.13395E-04   -0.42803E-05  8424   0.259E-03 0.260E-03
CGA:  49    -0.669184301627E+03    0.12836E-04   -0.40844E-05  8424   0.259E-03 0.259E-03
CGA:  50    -0.669184289326E+03    0.12301E-04   -0.38985E-05  8424   0.258E-03 0.258E-03
CGA:  51    -0.669184277537E+03    0.11790E-04   -0.37219E-05  8424   0.257E-03 0.257E-03
CGA:  52    -0.669184266236E+03    0.11301E-04   -0.35542E-05  8424   0.257E-03 0.257E-03
CGA:  53    -0.669184255403E+03    0.10833E-04   -0.33946E-05  8424   0.256E-03 0.256E-03
CGA:  54    -0.669184245018E+03    0.10385E-04   -0.32428E-05  8424   0.255E-03 0.256E-03
CGA:  55    -0.669184235061E+03    0.99568E-05   -0.30983E-05  8424   0.255E-03 0.255E-03
   4 F= -.66918424E+03 E0= -.66918424E+03  d E =-.193688E+00  mag=     6.0000
       N       E                     dE             d eps       ncg     rms          ort
SDA:   1    -0.668817593360E+03    0.36665E+00    0.00000E+00  8424   0.113E+01 0.000E+00
CGA:   2    -0.669071436113E+03   -0.25384E+00   -0.25245E+00  8424   0.512E+00 0.843E-02
CGA:   3    -0.669176530537E+03   -0.10509E+00   -0.10436E+00  8424   0.149E+00 0.535E-02
CGA:   4    -0.669201118431E+03   -0.24588E-01   -0.24352E-01  8424   0.352E-01 0.265E-02
CGA:   5    -0.669207132006E+03   -0.60136E-02   -0.57628E-02  8424   0.665E-02 0.301E-02
CGA:   6    -0.669208305096E+03   -0.11731E-02   -0.10209E-02  8424   0.178E-02 0.255E-02
CGA:   7    -0.669208527945E+03   -0.22285E-03   -0.21766E-03  8424   0.940E-03 0.155E-02
CGA:   8    -0.669208572621E+03   -0.44676E-04   -0.60988E-04  8424   0.716E-03 0.811E-03
CGA:   9    -0.669208588855E+03   -0.16234E-04   -0.37291E-04  8424   0.612E-03 0.659E-03
CGA:  10    -0.669208594498E+03   -0.56422E-05   -0.27371E-04  8424   0.547E-03 0.576E-03
CGA:  11    -0.669208594809E+03   -0.31090E-06   -0.21660E-04  8424   0.501E-03 0.521E-03
CGA:  12    -0.669208592089E+03    0.27191E-05   -0.17892E-04  8424   0.467E-03 0.482E-03
CGA:  13    -0.669208587541E+03    0.45483E-05   -0.15202E-04  8424   0.440E-03 0.451E-03
CGA:  14    -0.669208581858E+03    0.56835E-05   -0.13176E-04  8424   0.418E-03 0.427E-03
CGA:  15    -0.669208575469E+03    0.63891E-05   -0.11592E-04  8424   0.399E-03 0.407E-03
CGA:  16    -0.669208568653E+03    0.68160E-05   -0.10316E-04  8424   0.384E-03 0.390E-03
   5 F= -.66920857E+03 E0= -.66920857E+03  d E =-.243336E-01  mag=     6.0000
       N       E                     dE             d eps       ncg     rms          ort
SDA:   1    -0.666486281395E+03    0.27223E+01    0.00000E+00  8424   0.697E+01 0.000E+00
CGA:   2    -0.668403857916E+03   -0.19176E+01   -0.19180E+01  8424   0.345E+01-0.738E-03
CGA:   3    -0.669036301239E+03   -0.63244E+00   -0.63169E+00  8424   0.833E+00 0.648E-02
CGA:   4    -0.669173887224E+03   -0.13759E+00   -0.13757E+00  8424   0.200E+00 0.774E-04
CGA:   5    -0.669207752065E+03   -0.33865E-01   -0.33595E-01  8424   0.411E-01 0.325E-02
CGA:   6    -0.669215898579E+03   -0.81465E-02   -0.77125E-02  8424   0.937E-02 0.455E-02
CGA:   7    -0.669218038159E+03   -0.21396E-02   -0.18954E-02  8424   0.297E-02 0.278E-02
CGA:   8    -0.669218619061E+03   -0.58090E-03   -0.51005E-03  8424   0.142E-02 0.209E-02
CGA:   9    -0.669218745255E+03   -0.12619E-03   -0.13342E-03  8424   0.983E-03 0.114E-02
CGA:  10    -0.669218796857E+03   -0.51602E-04   -0.73870E-04  8424   0.832E-03 0.894E-03
CGA:  11    -0.669218824050E+03   -0.27193E-04   -0.53806E-04  8424   0.742E-03 0.780E-03
CGA:  12    -0.669218838817E+03   -0.14766E-04   -0.42720E-04  8424   0.681E-03 0.706E-03
CGA:  13    -0.669218846177E+03   -0.73605E-05   -0.35464E-04  8424   0.634E-03 0.653E-03
CGA:  14    -0.669218848753E+03   -0.25760E-05   -0.30272E-04  8424   0.597E-03 0.612E-03
CGA:  15    -0.669218848088E+03    0.66498E-06   -0.26345E-04  8424   0.567E-03 0.579E-03
CGA:  16    -0.669218845163E+03    0.29251E-05   -0.23256E-04  8424   0.542E-03 0.552E-03
CGA:  17    -0.669218840636E+03    0.45272E-05   -0.20755E-04  8424   0.521E-03 0.529E-03
CGA:  18    -0.669218834965E+03    0.56708E-05   -0.18685E-04  8424   0.502E-03 0.510E-03
CGA:  19    -0.669218828482E+03    0.64827E-05   -0.16944E-04  8424   0.486E-03 0.493E-03
CGA:  20    -0.669218821431E+03    0.70512E-05   -0.15458E-04  8424   0.472E-03 0.478E-03
CGA:  21    -0.669218813993E+03    0.74378E-05   -0.14175E-04  8424   0.459E-03 0.465E-03
CGA:  22    -0.669218806307E+03    0.76867E-05   -0.13055E-04  8424   0.448E-03 0.453E-03
CGA:  23    -0.669218798477E+03    0.78295E-05   -0.12072E-04  8424   0.438E-03 0.442E-03
CGA:  24    -0.669218790586E+03    0.78911E-05   -0.11201E-04  8424   0.429E-03 0.433E-03
CGA:  25    -0.669218782696E+03    0.78898E-05   -0.10425E-04  8424   0.421E-03 0.424E-03
   6 F= -.66921878E+03 E0= -.66921878E+03  d E =-.102140E-01  mag=     6.0000
       N       E                     dE             d eps       ncg     rms          ort
SDA:   1    -0.660607911827E+03    0.86109E+01    0.00000E+00  8424   0.219E+02 0.000E+00
CGA:   2    -0.666403634322E+03   -0.57957E+01   -0.57931E+01  8424   0.117E+02 0.190E-01
CGA:   3    -0.668600043411E+03   -0.21964E+01   -0.21953E+01  8424   0.274E+01 0.765E-02
CGA:   4    -0.669034917258E+03   -0.43487E+00   -0.43486E+00  8424   0.624E+00-0.188E-03
CGA:   5    -0.669141933697E+03   -0.10702E+00   -0.10668E+00  8424   0.134E+00 0.374E-02
CGA:   6    -0.669169309839E+03   -0.27376E-01   -0.26767E-01  8424   0.318E-01 0.546E-02
CGA:   7    -0.669176523973E+03   -0.72141E-02   -0.68404E-02  8424   0.924E-02 0.328E-02
CGA:   8    -0.669178703750E+03   -0.21798E-02   -0.18964E-02  8424   0.314E-02 0.324E-02
CGA:   9    -0.669179363136E+03   -0.65939E-03   -0.57784E-03  8424   0.167E-02 0.245E-02
CGA:  10    -0.669179563391E+03   -0.20026E-03   -0.18882E-03  8424   0.113E-02 0.131E-02
CGA:  11    -0.669179646913E+03   -0.83522E-04   -0.10017E-03  8424   0.960E-03 0.103E-02
CGA:  12    -0.669179697295E+03   -0.50382E-04   -0.74511E-04  8424   0.860E-03 0.906E-03
CGA:  13    -0.669179730064E+03   -0.32769E-04   -0.60017E-04  8424   0.790E-03 0.822E-03
CGA:  14    -0.669179751895E+03   -0.21831E-04   -0.50377E-04  8424   0.737E-03 0.761E-03
CGA:  15    -0.669179766358E+03   -0.14462E-04   -0.43394E-04  8424   0.695E-03 0.714E-03
CGA:  16    -0.669179775597E+03   -0.92391E-05   -0.38051E-04  8424   0.660E-03 0.676E-03
CGA:  17    -0.669179781007E+03   -0.54099E-05   -0.33805E-04  8424   0.631E-03 0.644E-03
CGA:  18    -0.669179783544E+03   -0.25372E-05   -0.30336E-04  8424   0.606E-03 0.618E-03
CGA:  19    -0.669179783892E+03   -0.34857E-06   -0.27443E-04  8424   0.585E-03 0.595E-03
CGA:  20    -0.669179782557E+03    0.13353E-05   -0.24990E-04  8424   0.566E-03 0.575E-03
CGA:  21    -0.669179779923E+03    0.26339E-05   -0.22888E-04  8424   0.550E-03 0.557E-03
CGA:  22    -0.669179776284E+03    0.36392E-05   -0.21064E-04  8424   0.535E-03 0.541E-03
CGA:  23    -0.669179771868E+03    0.44158E-05   -0.19465E-04  8424   0.521E-03 0.527E-03
CGA:  24    -0.669179766856E+03    0.50121E-05   -0.18053E-04  8424   0.509E-03 0.515E-03
CGA:  25    -0.669179761392E+03    0.54638E-05   -0.16798E-04  8424   0.499E-03 0.504E-03
CGA:  26    -0.669179755592E+03    0.57998E-05   -0.15676E-04  8424   0.489E-03 0.493E-03
CGA:  27    -0.669179749551E+03    0.60418E-05   -0.14667E-04  8424   0.480E-03 0.484E-03
CGA:  28    -0.669179743342E+03    0.62084E-05   -0.13756E-04  8424   0.472E-03 0.475E-03
CGA:  29    -0.669179737029E+03    0.63130E-05   -0.12930E-04  8424   0.464E-03 0.468E-03
CGA:  30    -0.669179730661E+03    0.63681E-05   -0.12177E-04  8424   0.457E-03 0.461E-03
CGA:  31    -0.669179724279E+03    0.63820E-05   -0.11489E-04  8424   0.451E-03 0.454E-03
CGA:  32    -0.669179717916E+03    0.63635E-05   -0.10857E-04  8424   0.445E-03 0.448E-03
CGA:  33    -0.669179711598E+03    0.63180E-05   -0.10276E-04  8424   0.440E-03 0.442E-03
   7 F= -.66917971E+03 E0= -.66917971E+03  d E =0.390711E-01  mag=     6.0000
       N       E                     dE             d eps       ncg     rms          ort
SDA:   1    -0.638119183778E+03    0.31061E+02    0.00000E+00  8424   0.917E+02 0.000E+00
CGA:   2    -0.658003933296E+03   -0.19885E+02   -0.19776E+02  8424   0.399E+02 0.835E+00
CGA:   3    -0.666202069617E+03   -0.81981E+01   -0.82240E+01  8424   0.116E+02-0.223E+00
CGA:   4    -0.668137524964E+03   -0.19355E+01   -0.19314E+01  8424   0.284E+01 0.427E-01
CGA:   5    -0.668620206188E+03   -0.48268E+00   -0.48109E+00  8424   0.606E+00 0.170E-01
CGA:   6    -0.668741484898E+03   -0.12128E+00   -0.12223E+00  8424   0.150E+00-0.812E-02
CGA:   7    -0.668774741221E+03   -0.33256E-01   -0.32395E-01  8424   0.444E-01 0.652E-02
CGA:   8    -0.668786171213E+03   -0.11430E-01   -0.11011E-01  8424   0.139E-01 0.291E-02
CGA:   9    -0.668790403501E+03   -0.42323E-02   -0.41584E-02  8424   0.525E-02 0.407E-03
CGA:  10    -0.668791880739E+03   -0.14772E-02   -0.13029E-02  8424   0.187E-02 0.133E-02
CGA:  11    -0.668792538972E+03   -0.65823E-03   -0.58533E-03  8424   0.671E-03 0.548E-03
CGA:  12    -0.668792681279E+03   -0.14231E-03   -0.12903E-03  8424   0.333E-03 0.516E-03
CGA:  13    -0.668792705504E+03   -0.24225E-04   -0.32072E-04  8424   0.240E-03 0.279E-03
CGA:  14    -0.668792716192E+03   -0.10688E-04   -0.19717E-04  8424   0.204E-03 0.221E-03
CGA:  15    -0.668792721370E+03   -0.51782E-05   -0.14666E-04  8424   0.184E-03 0.194E-03
CGA:  16    -0.668792723805E+03   -0.24350E-05   -0.11941E-04  8424   0.171E-03 0.177E-03
CGA:  17    -0.668792724650E+03   -0.84416E-06   -0.10194E-04  8424   0.161E-03 0.166E-03
   8 F= -.66879272E+03 E0= -.66879272E+03  d E =0.386987E+00  mag=     6.0000
       N       E                     dE             d eps       ncg     rms          ort
SDA:   1    -0.660628921513E+03    0.81638E+01    0.00000E+00  8424   0.277E+02 0.000E+00
CGA:   2    -0.666086276005E+03   -0.54574E+01   -0.54422E+01  8424   0.108E+02 0.168E+00
CGA:   3    -0.668395401453E+03   -0.23091E+01   -0.23120E+01  8424   0.359E+01-0.318E-01
CGA:   4    -0.668988648246E+03   -0.59325E+00   -0.59306E+00  8424   0.900E+00 0.286E-02
CGA:   5    -0.669144141255E+03   -0.15549E+00   -0.15524E+00  8424   0.187E+00 0.479E-02
CGA:   6    -0.669181465212E+03   -0.37324E-01   -0.37352E-01  8424   0.421E-01-0.425E-03
CGA:   7    -0.669190644170E+03   -0.91790E-02   -0.90502E-02  8424   0.123E-01 0.147E-02
CGA:   8    -0.669193705379E+03   -0.30612E-02   -0.29895E-02  8424   0.353E-02 0.701E-03
CGA:   9    -0.669194714999E+03   -0.10096E-02   -0.98604E-03  8424   0.118E-02 0.184E-03
CGA:  10    -0.669194981659E+03   -0.26666E-03   -0.24218E-03  8424   0.443E-03 0.479E-03
CGA:  11    -0.669195089324E+03   -0.10767E-03   -0.10206E-03  8424   0.216E-03 0.319E-03
CGA:  12    -0.669195127328E+03   -0.38004E-04   -0.35496E-04  8424   0.124E-03 0.143E-03
CGA:  13    -0.669195131395E+03   -0.40664E-05   -0.10982E-04  8424   0.108E-03 0.115E-03
   9 F= -.66919513E+03 E0= -.66919513E+03  d E =-.402407E+00  mag=     6.0000
       N       E                     dE             d eps       ncg     rms          ort
SDA:   1    -0.668357707563E+03    0.83742E+00    0.00000E+00  8424   0.256E+01 0.000E+00
CGA:   2    -0.668903188000E+03   -0.54548E+00   -0.54516E+00  8424   0.111E+01 0.401E-02
CGA:   3    -0.669132320880E+03   -0.22913E+00   -0.22918E+00  8424   0.346E+00-0.983E-03
CGA:   4    -0.669188989417E+03   -0.56669E-01   -0.56669E-01  8424   0.836E-01-0.896E-04
CGA:   5    -0.669203298097E+03   -0.14309E-01   -0.14292E-01  8424   0.169E-01 0.737E-03
CGA:   6    -0.669206622233E+03   -0.33241E-02   -0.33012E-02  8424   0.379E-02 0.521E-03
CGA:   7    -0.669207470782E+03   -0.84855E-03   -0.82991E-03  8424   0.113E-02 0.311E-03
CGA:   8    -0.669207740526E+03   -0.26974E-03   -0.25656E-03  8424   0.341E-03 0.245E-03
CGA:   9    -0.669207810615E+03   -0.70088E-04   -0.68621E-04  8424   0.149E-03 0.200E-03
CGA:  10    -0.669207822628E+03   -0.12013E-04   -0.17078E-04  8424   0.974E-04 0.114E-03
CGA:  11    -0.669207825312E+03   -0.26844E-05   -0.86934E-05  8424   0.830E-04 0.893E-04
  10 F= -.66920783E+03 E0= -.66920783E+03  d E =-.126939E-01  mag=     6.0000
       N       E                     dE             d eps       ncg     rms          ort
SDA:   1    -0.668012683146E+03    0.11951E+01    0.00000E+00  8424   0.318E+01 0.000E+00
CGA:   2    -0.668803271682E+03   -0.79059E+00   -0.79038E+00  8424   0.163E+01 0.166E-02
CGA:   3    -0.669117819258E+03   -0.31455E+00   -0.31459E+00  8424   0.420E+00-0.120E-02
CGA:   4    -0.669185091573E+03   -0.67272E-01   -0.67271E-01  8424   0.962E-01 0.235E-03
CGA:   5    -0.669201291565E+03   -0.16200E-01   -0.16188E-01  8424   0.195E-01 0.968E-03
CGA:   6    -0.669205246343E+03   -0.39548E-02   -0.39252E-02  8424   0.465E-02 0.693E-03
CGA:   7    -0.669206271527E+03   -0.10252E-02   -0.10055E-02  8424   0.134E-02 0.395E-03
CGA:   8    -0.669206563483E+03   -0.29196E-03   -0.27989E-03  8424   0.412E-03 0.384E-03
CGA:   9    -0.669206626623E+03   -0.63139E-04   -0.71690E-04  8424   0.208E-03 0.305E-03
CGA:  10    -0.669206635060E+03   -0.84378E-05   -0.19709E-04  8424   0.145E-03 0.168E-03
CGA:  11    -0.669206634288E+03    0.77219E-06   -0.10565E-04  8424   0.123E-03 0.133E-03
  11 F= -.66920663E+03 E0= -.66920663E+03  d E =0.119102E-02  mag=     6.0000
       N       E                     dE             d eps       ncg     rms          ort
SDA:   1    -0.643299200972E+03    0.25907E+02    0.00000E+00  8424   0.727E+02 0.000E+00
CGA:   2    -0.659766094370E+03   -0.16467E+02   -0.16426E+02  8424   0.348E+02 0.465E+00
CGA:   3    -0.666904239219E+03   -0.71381E+01   -0.71452E+01  8424   0.939E+01-0.119E+00
CGA:   4    -0.668410483056E+03   -0.15062E+01   -0.15061E+01  8424   0.217E+01 0.142E-01
CGA:   5    -0.668780244672E+03   -0.36976E+00   -0.36963E+00  8424   0.480E+00 0.776E-02
CGA:   6    -0.668876537018E+03   -0.96292E-01   -0.96386E-01  8424   0.115E+00-0.219E-02
CGA:   7    -0.668901700121E+03   -0.25163E-01   -0.25017E-01  8424   0.336E-01 0.242E-02
CGA:   8    -0.668910029429E+03   -0.83293E-02   -0.82637E-02  8424   0.106E-01 0.828E-03
CGA:   9    -0.668913063840E+03   -0.30344E-02   -0.30001E-02  8424   0.379E-02 0.313E-03
CGA:  10    -0.668914114904E+03   -0.10511E-02   -0.98029E-03  8424   0.134E-02 0.883E-03
CGA:  11    -0.668914511778E+03   -0.39687E-03   -0.37058E-03  8424   0.454E-03 0.543E-03
CGA:  12    -0.668914585835E+03   -0.74057E-04   -0.89069E-04  8424   0.235E-03 0.394E-03
CGA:  13    -0.668914591597E+03   -0.57623E-05   -0.22225E-04  8424   0.177E-03 0.202E-03
CGA:  14    -0.668914590264E+03    0.13333E-05   -0.13954E-04  8424   0.153E-03 0.164E-03
CGA:  15    -0.668914586357E+03    0.39067E-05   -0.10465E-04  8424   0.138E-03 0.145E-03
  12 F= -.66891459E+03 E0= -.66891459E+03  d E =0.292048E+00  mag=     6.0000
       N       E                     dE             d eps       ncg     rms          ort
SDA:   1    -0.655811874312E+03    0.13103E+02    0.00000E+00  8424   0.432E+02 0.000E+00
CGA:   2    -0.664296490070E+03   -0.84846E+01   -0.84709E+01  8424   0.169E+02 0.261E+00
CGA:   3    -0.667933074843E+03   -0.36366E+01   -0.36396E+01  8424   0.561E+01-0.507E-01
CGA:   4    -0.668857230345E+03   -0.92416E+00   -0.92413E+00  8424   0.139E+01 0.396E-02
CGA:   5    -0.669097957395E+03   -0.24073E+00   -0.24066E+00  8424   0.291E+00 0.536E-02
CGA:   6    -0.669156214176E+03   -0.58257E-01   -0.58289E-01  8424   0.658E-01-0.917E-03
CGA:   7    -0.669170667381E+03   -0.14453E-01   -0.14361E-01  8424   0.195E-01 0.168E-02
CGA:   8    -0.669175436165E+03   -0.47688E-02   -0.47032E-02  8424   0.559E-02 0.953E-03
CGA:   9    -0.669177046850E+03   -0.16107E-02   -0.15997E-02  8424   0.194E-02 0.106E-03
CGA:  10    -0.669177526556E+03   -0.47971E-03   -0.45172E-03  8424   0.707E-03 0.534E-03
CGA:  11    -0.669177746955E+03   -0.22040E-03   -0.20492E-03  8424   0.288E-03 0.315E-03
CGA:  12    -0.669177814246E+03   -0.67291E-04   -0.70150E-04  8424   0.156E-03 0.233E-03
CGA:  13    -0.669177822391E+03   -0.81447E-05   -0.17227E-04  8424   0.115E-03 0.130E-03
CGA:  14    -0.669177826587E+03   -0.41961E-05   -0.11970E-04  8424   0.100E-03 0.107E-03
  13 F= -.66917783E+03 E0= -.66917783E+03  d E =-.263240E+00  mag=     6.0000
       N       E                     dE             d eps       ncg     rms          ort
SDA:   1    -0.668840498648E+03    0.33732E+00    0.00000E+00  8424   0.110E+01 0.000E+00
CGA:   2    -0.669069175201E+03   -0.22868E+00   -0.22862E+00  8424   0.463E+00 0.121E-02
CGA:   3    -0.669166573517E+03   -0.97398E-01   -0.97422E-01  8424   0.147E+00-0.681E-03
CGA:   4    -0.669190387772E+03   -0.23814E-01   -0.23818E-01  8424   0.356E-01 0.331E-03
CGA:   5    -0.669196544232E+03   -0.61565E-02   -0.61565E-02  8424   0.736E-02 0.309E-03
CGA:   6    -0.669198028556E+03   -0.14843E-02   -0.14836E-02  8424   0.172E-02 0.227E-04
CGA:   7    -0.669198375805E+03   -0.34725E-03   -0.34124E-03  8424   0.487E-03 0.246E-03
CGA:   8    -0.669198471776E+03   -0.95971E-04   -0.96380E-04  8424   0.174E-03 0.213E-03
CGA:   9    -0.669198497670E+03   -0.25894E-04   -0.32593E-04  8424   0.101E-03 0.149E-03
CGA:  10    -0.669198503215E+03   -0.55450E-05   -0.10936E-04  8424   0.754E-04 0.839E-04
  14 F= -.66919850E+03 E0= -.66919850E+03  d E =-.206766E-01  mag=     6.0000
       N       E                     dE             d eps       ncg     rms          ort
SDA:   1    -0.667312626655E+03    0.18859E+01    0.00000E+00  8424   0.500E+01 0.000E+00
CGA:   2    -0.668547003364E+03   -0.12344E+01   -0.12340E+01  8424   0.259E+01 0.336E-02
CGA:   3    -0.669056651905E+03   -0.50965E+00   -0.50970E+00  8424   0.643E+00-0.207E-02
CGA:   4    -0.669158028440E+03   -0.10138E+00   -0.10139E+00  8424   0.146E+00 0.833E-03
CGA:   5    -0.669183133339E+03   -0.25105E-01   -0.25104E-01  8424   0.307E-01 0.542E-03
CGA:   6    -0.669189446989E+03   -0.63137E-02   -0.63145E-02  8424   0.733E-02-0.286E-04
CGA:   7    -0.669190997798E+03   -0.15508E-02   -0.15340E-02  8424   0.197E-02 0.449E-03
CGA:   8    -0.669191461493E+03   -0.46369E-03   -0.44948E-03  8424   0.582E-03 0.344E-03
CGA:   9    -0.669191597708E+03   -0.13622E-03   -0.13179E-03  8424   0.224E-03 0.263E-03
CGA:  10    -0.669191627615E+03   -0.29907E-04   -0.40753E-04  8424   0.133E-03 0.211E-03
CGA:  11    -0.669191631822E+03   -0.42072E-05   -0.12957E-04  8424   0.100E-03 0.114E-03
  15 F= -.66919163E+03 E0= -.66919163E+03  d E =0.687139E-02  mag=     6.0000
       N       E                     dE             d eps       ncg     rms          ort
SDA:   1    -0.640514450000E+03    0.28677E+02    0.00000E+00  8424   0.780E+02 0.000E+00
CGA:   2    -0.658911887211E+03   -0.18397E+02   -0.18367E+02  8424   0.390E+02 0.355E+00
CGA:   3    -0.666787568274E+03   -0.78757E+01   -0.78781E+01  8424   0.102E+02-0.600E-01
CGA:   4    -0.668401346898E+03   -0.16138E+01   -0.16139E+01  8424   0.230E+01 0.265E-02
CGA:   5    -0.668797919316E+03   -0.39657E+00   -0.39656E+00  8424   0.488E+00 0.428E-02
CGA:   6    -0.668898571156E+03   -0.10065E+00   -0.10065E+00  8424   0.118E+00-0.361E-04
CGA:   7    -0.668925085841E+03   -0.26515E-01   -0.26490E-01  8424   0.351E-01 0.460E-03
CGA:   8    -0.668933863944E+03   -0.87781E-02   -0.87798E-02  8424   0.115E-01-0.250E-04
CGA:   9    -0.668937275715E+03   -0.34118E-02   -0.35718E-02  8424   0.491E-02-0.120E-02
CGA:  10    -0.668938670918E+03   -0.13952E-02   -0.15051E-02  8424   0.224E-02-0.698E-03
CGA:  11    -0.668939163189E+03   -0.49227E-03   -0.86901E-03  8424   0.217E-02-0.145E-02
CGA:  12    -0.668939547243E+03   -0.38405E-03   -0.38649E-03  8424   0.377E-03 0.862E-04
CGA:  13    -0.668939740649E+03   -0.19341E-03    0.19432E-03  8424   0.121E-03 0.130E-03
CGA:  14    -0.668939869891E+03   -0.12924E-03    0.17715E-04  8424   0.731E-04 0.808E-04
CGA:  15    -0.668939936119E+03   -0.66229E-04    0.61498E-05  8424   0.524E-04 0.447E-04
CGA:  16    -0.668940017179E+03   -0.81060E-04    0.19282E-05  8424   0.443E-04 0.402E-04
CGA:  17    -0.668940080743E+03   -0.63565E-04    0.18093E-05  8424   0.394E-04 0.372E-04
CGA:  18    -0.668940153447E+03   -0.72703E-04    0.11462E-05  8424   0.358E-04 0.348E-04
CGA:  19    -0.668940216614E+03   -0.63168E-04    0.11079E-05  8424   0.333E-04 0.328E-04
CGA:  20    -0.668940284887E+03   -0.68272E-04    0.84980E-06  8424   0.314E-04 0.311E-04
CGA:  21    -0.668940347265E+03   -0.62379E-04    0.83329E-06  8424   0.300E-04 0.297E-04
CGA:  22    -0.668940413049E+03   -0.65783E-04    0.70219E-06  8424   0.288E-04 0.286E-04
CGA:  23    -0.668940474397E+03   -0.61349E-04    0.70315E-06  8424   0.280E-04 0.276E-04
CGA:  24    -0.668940538705E+03   -0.64308E-04    0.61993E-06  8424   0.273E-04 0.267E-04
CGA:  25    -0.668940598865E+03   -0.60160E-04    0.63593E-06  8424   0.267E-04 0.260E-04
CGA:  26    -0.668940662211E+03   -0.63346E-04    0.57105E-06  8424   0.263E-04 0.252E-04
CGA:  27    -0.668940721120E+03   -0.58909E-04    0.60110E-06  8424   0.260E-04 0.245E-04
CGA:  28    -0.668940783707E+03   -0.62588E-04    0.54323E-06  8424   0.257E-04 0.237E-04
CGA:  29    -0.668940841418E+03   -0.57711E-04    0.58702E-06  8424   0.256E-04 0.230E-04
CGA:  30    -0.668940903274E+03   -0.61855E-04    0.53340E-06  8424   0.255E-04 0.222E-04
CGA:  31    -0.668940959916E+03   -0.56643E-04    0.59048E-06  8424   0.256E-04 0.213E-04
CGA:  32    -0.668941020960E+03   -0.61044E-04    0.54086E-06  8424   0.257E-04 0.205E-04
CGA:  33    -0.668941076718E+03   -0.55758E-04    0.60903E-06  8424   0.258E-04 0.195E-04
CGA:  34    -0.668941136804E+03   -0.60086E-04    0.56443E-06  8424   0.261E-04 0.186E-04
CGA:  35    -0.668941191886E+03   -0.55082E-04    0.64011E-06  8424   0.264E-04 0.176E-04
CGA:  36    -0.668941250839E+03   -0.58953E-04    0.60359E-06  8424   0.267E-04 0.166E-04
CGA:  37    -0.668941305457E+03   -0.54618E-04    0.68194E-06  8424   0.271E-04 0.155E-04
CGA:  38    -0.668941363100E+03   -0.57643E-04    0.65843E-06  8424   0.275E-04 0.145E-04
CGA:  39    -0.668941417451E+03   -0.54351E-04    0.73294E-06  8424   0.279E-04 0.134E-04
CGA:  40    -0.668941529116E+03   -0.11166E-03    0.76381E-06  8424   0.262E-04 0.409E-04
CGA:  41    -0.668941585182E+03   -0.56066E-04    0.63395E-06  8424   0.264E-04 0.130E-04
CGA:  42    -0.668941694577E+03   -0.10939E-03    0.69879E-06  8424   0.250E-04 0.388E-04
CGA:  43    -0.668941745809E+03   -0.51233E-04    0.63734E-06  8424   0.251E-04 0.125E-04
CGA:  44    -0.668941851995E+03   -0.10619E-03    0.65614E-06  8424   0.239E-04 0.371E-04
CGA:  45    -0.668941906430E+03   -0.54435E-04    0.53419E-06  8424   0.239E-04 0.121E-04
CGA:  46    -0.668941956172E+03   -0.49742E-04    0.59794E-06  8424   0.240E-04 0.115E-04
CGA:  47    -0.668942059157E+03   -0.10298E-03    0.59809E-06  8424   0.229E-04 0.350E-04
CGA:  48    -0.668942112070E+03   -0.52913E-04    0.50452E-06  8424   0.228E-04 0.112E-04
CGA:  49    -0.668942213067E+03   -0.10100E-03    0.55212E-06  8424   0.219E-04 0.334E-04
CGA:  50    -0.668942259832E+03   -0.46765E-04    0.53177E-06  8424   0.219E-04 0.107E-04
CGA:  51    -0.668942358122E+03   -0.98290E-04    0.52424E-06  8424   0.210E-04 0.322E-04
CGA:  52    -0.668942409605E+03   -0.51483E-04    0.43121E-06  8424   0.209E-04 0.104E-04
CGA:  53    -0.668942506208E+03   -0.96603E-04    0.48664E-06  8424   0.201E-04 0.308E-04
CGA:  54    -0.668942550131E+03   -0.43923E-04    0.47575E-06  8424   0.201E-04 0.100E-04
CGA:  55    -0.668942644017E+03   -0.93886E-04    0.46276E-06  8424   0.193E-04 0.296E-04
CGA:  56    -0.668942694115E+03   -0.50098E-04    0.37053E-06  8424   0.192E-04 0.970E-05
CGA:  57    -0.668942736729E+03   -0.42614E-04    0.44291E-06  8424   0.191E-04 0.942E-05
CGA:  58    -0.668942827878E+03   -0.91150E-04    0.42745E-06  8424   0.184E-04 0.281E-04
CGA:  59    -0.668942876594E+03   -0.48715E-04    0.34591E-06  8424   0.182E-04 0.917E-05
CGA:  60    -0.668942966117E+03   -0.89523E-04    0.39759E-06  8424   0.177E-04 0.269E-04
CGA:  61    -0.668943006098E+03   -0.39982E-04    0.40038E-06  8424   0.176E-04 0.882E-05
CGA:  62    -0.668943093236E+03   -0.87138E-04    0.38037E-06  8424   0.170E-04 0.260E-04
CGA:  63    -0.668943140655E+03   -0.47419E-04    0.29973E-06  8424   0.168E-04 0.857E-05
CGA:  64    -0.668943179461E+03   -0.38806E-04    0.37108E-06  8424   0.167E-04 0.840E-05
CGA:  65    -0.668943264016E+03   -0.84555E-04    0.35275E-06  8424   0.162E-04 0.247E-04
CGA:  66    -0.668943310116E+03   -0.46100E-04    0.27849E-06  8424   0.159E-04 0.819E-05
CGA:  67    -0.668943347821E+03   -0.37706E-04    0.34104E-06  8424   0.158E-04 0.809E-05
CGA:  68    -0.668943392499E+03   -0.44678E-04    0.27205E-06  8424   0.156E-04 0.801E-05
CGA:  69    -0.668943430408E+03   -0.37908E-04    0.32155E-06  8424   0.154E-04 0.787E-05
CGA:  70    -0.668943473694E+03   -0.43286E-04    0.26976E-06  8424   0.153E-04 0.774E-05
CGA:  71    -0.668943511801E+03   -0.38107E-04    0.30765E-06  8424   0.152E-04 0.756E-05
CGA:  72    -0.668943591657E+03   -0.79856E-04    0.30665E-06  8424   0.148E-04 0.225E-04
CGA:  73    -0.668943633744E+03   -0.42088E-04    0.25261E-06  8424   0.146E-04 0.736E-05
CGA:  74    -0.668943712324E+03   -0.78579E-04    0.28674E-06  8424   0.142E-04 0.216E-04
CGA:  75    -0.668943748038E+03   -0.35714E-04    0.28175E-06  8424   0.141E-04 0.710E-05
CGA:  76    -0.668943788992E+03   -0.40954E-04    0.23640E-06  8424   0.140E-04 0.694E-05
CGA:  77    -0.668943865593E+03   -0.76601E-04    0.26933E-06  8424   0.136E-04 0.207E-04
CGA:  78    -0.668943900230E+03   -0.34637E-04    0.26597E-06  8424   0.135E-04 0.675E-05
CGA:  79    -0.668943974460E+03   -0.74230E-04    0.25817E-06  8424   0.131E-04 0.199E-04
CGA:  80    -0.668944014389E+03   -0.39929E-04    0.20774E-06  8424   0.130E-04 0.654E-05
CGA:  81    -0.668944087687E+03   -0.73298E-04    0.24378E-06  8424   0.126E-04 0.193E-04
CGA:  82    -0.668944120195E+03   -0.32508E-04    0.24452E-06  8424   0.125E-04 0.635E-05
CGA:  83    -0.668944159048E+03   -0.38853E-04    0.19495E-06  8424   0.125E-04 0.622E-05
CGA:  84    -0.668944230317E+03   -0.71269E-04    0.22874E-06  8424   0.121E-04 0.184E-04
CGA:  85    -0.668944261854E+03   -0.31537E-04    0.23107E-06  8424   0.120E-04 0.608E-05
CGA:  86    -0.668944299643E+03   -0.37789E-04    0.18223E-06  8424   0.119E-04 0.598E-05
CGA:  87    -0.668944368849E+03   -0.69206E-04    0.21446E-06  8424   0.116E-04 0.176E-04
CGA:  88    -0.668944399478E+03   -0.30628E-04    0.21685E-06  8424   0.114E-04 0.586E-05
CGA:  89    -0.668944436210E+03   -0.36732E-04    0.16934E-06  8424   0.113E-04 0.581E-05
CGA:  90    -0.668944467033E+03   -0.30824E-04    0.20282E-06  8424   0.111E-04 0.577E-05
CGA:  91    -0.668944502640E+03   -0.35607E-04    0.16716E-06  8424   0.111E-04 0.568E-05
CGA:  92    -0.668944533634E+03   -0.30994E-04    0.19317E-06  8424   0.110E-04 0.560E-05
CGA:  93    -0.668944568140E+03   -0.34506E-04    0.16762E-06  8424   0.109E-04 0.549E-05
CGA:  94    -0.668944599297E+03   -0.31157E-04    0.18688E-06  8424   0.109E-04 0.537E-05
CGA:  95    -0.668944663784E+03   -0.64487E-04    0.19032E-06  8424   0.106E-04 0.160E-04
CGA:  96    -0.668944697367E+03   -0.33583E-04    0.15937E-06  8424   0.105E-04 0.523E-05
CGA:  97    -0.668944761089E+03   -0.63722E-04    0.18053E-06  8424   0.102E-04 0.155E-04
CGA:  98    -0.668944790328E+03   -0.29239E-04    0.17416E-06  8424   0.102E-04 0.510E-05
CGA:  99    -0.668944852177E+03   -0.61849E-04    0.17480E-06  8424   0.988E-05 0.151E-04
CGA: 100    -0.668944884963E+03   -0.32786E-04    0.14213E-06  8424   0.983E-05 0.497E-05
CGA: 101    -0.668944913346E+03   -0.28383E-04    0.16609E-06  8424   0.982E-05 0.485E-05
CGA: 102    -0.668944973591E+03   -0.60245E-04    0.16587E-06  8424   0.954E-05 0.145E-04
CGA: 103    -0.668945005528E+03   -0.31937E-04    0.13578E-06  8424   0.947E-05 0.475E-05
CGA: 104    -0.668945064832E+03   -0.59304E-04    0.15740E-06  8424   0.923E-05 0.140E-04
CGA: 105    -0.668945091498E+03   -0.26666E-04    0.15594E-06  8424   0.921E-05 0.462E-05
CGA: 106    -0.668945149255E+03   -0.57757E-04    0.15329E-06  8424   0.896E-05 0.137E-04
CGA: 107    -0.668945180437E+03   -0.31182E-04    0.12214E-06  8424   0.891E-05 0.452E-05
CGA: 108    -0.668945206332E+03   -0.25895E-04    0.14918E-06  8424   0.888E-05 0.443E-05
CGA: 109    -0.668945262493E+03   -0.56161E-04    0.14582E-06  8424   0.866E-05 0.132E-04
CGA: 110    -0.668945292884E+03   -0.30391E-04    0.11682E-06  8424   0.857E-05 0.435E-05
CGA: 111    -0.668945318060E+03   -0.25176E-04    0.14169E-06  8424   0.852E-05 0.429E-05
CGA: 112    -0.668945347554E+03   -0.29495E-04    0.11672E-06  8424   0.846E-05 0.424E-05
CGA: 113    -0.668945402187E+03   -0.54633E-04    0.13583E-06  8424   0.827E-05 0.126E-04
CGA: 114    -0.668945426645E+03   -0.24458E-04    0.13573E-06  8424   0.824E-05 0.413E-05
CGA: 115    -0.668945455402E+03   -0.28758E-04    0.11185E-06  8424   0.822E-05 0.405E-05
CGA: 116    -0.668945508699E+03   -0.53296E-04    0.13026E-06  8424   0.801E-05 0.121E-04
CGA: 117    -0.668945532448E+03   -0.23749E-04    0.13132E-06  8424   0.796E-05 0.397E-05
CGA: 118    -0.668945584113E+03   -0.51665E-04    0.12696E-06  8424   0.779E-05 0.118E-04
CGA: 119    -0.668945612247E+03   -0.28134E-04    0.10179E-06  8424   0.776E-05 0.388E-05
CGA: 120    -0.668945663392E+03   -0.51145E-04    0.12206E-06  8424   0.758E-05 0.115E-04
CGA: 121    -0.668945685706E+03   -0.22314E-04    0.12530E-06  8424   0.754E-05 0.381E-05
CGA: 122    -0.668945713142E+03   -0.27436E-04    0.97802E-07  8424   0.752E-05 0.374E-05
CGA: 123    -0.668945762951E+03   -0.49809E-04    0.11719E-06  8424   0.736E-05 0.112E-04
CGA: 124    -0.668945784629E+03   -0.21677E-04    0.12137E-06  8424   0.729E-05 0.368E-05
CGA: 125    -0.668945811375E+03   -0.26746E-04    0.93558E-07  8424   0.725E-05 0.364E-05
CGA: 126    -0.668945859832E+03   -0.48457E-04    0.11247E-06  8424   0.712E-05 0.108E-04
CGA: 127    -0.668945880918E+03   -0.21086E-04    0.11670E-06  8424   0.702E-05 0.360E-05
CGA: 128    -0.668945906973E+03   -0.26056E-04    0.88998E-07  8424   0.697E-05 0.358E-05
CGA: 129    -0.668945928240E+03   -0.21267E-04    0.11029E-06  8424   0.690E-05 0.357E-05
CGA: 130    -0.668945953517E+03   -0.25277E-04    0.88814E-07  8424   0.687E-05 0.353E-05
CGA: 131    -0.668945974941E+03   -0.21424E-04    0.10617E-06  8424   0.684E-05 0.349E-05
CGA: 132    -0.668945999460E+03   -0.24519E-04    0.90054E-07  8424   0.683E-05 0.343E-05
CGA: 133    -0.668946021033E+03   -0.21573E-04    0.10385E-06  8424   0.681E-05 0.337E-05
CGA: 134    -0.668946066374E+03   -0.45341E-04    0.10529E-06  8424   0.666E-05 0.101E-04
CGA: 135    -0.668946090298E+03   -0.23924E-04    0.87682E-07  8424   0.665E-05 0.331E-05
CGA: 136    -0.668946135187E+03   -0.44889E-04    0.10169E-06  8424   0.651E-05 0.988E-05
CGA: 137    -0.668946155472E+03   -0.20286E-04    0.10061E-06  8424   0.649E-05 0.326E-05
CGA: 138    -0.668946178829E+03   -0.23357E-04    0.85216E-07  8424   0.650E-05 0.319E-05
CGA: 139    -0.668946222638E+03   -0.43809E-04    0.98803E-07  8424   0.635E-05 0.963E-05
CGA: 140    -0.668946242366E+03   -0.19728E-04    0.98651E-07  8424   0.633E-05 0.316E-05
CGA: 141    -0.668946284837E+03   -0.42470E-04    0.97255E-07  8424   0.621E-05 0.940E-05
CGA: 142    -0.668946307748E+03   -0.22912E-04    0.79140E-07  8424   0.621E-05 0.310E-05
CGA: 143    -0.668946349885E+03   -0.42137E-04    0.94634E-07  8424   0.607E-05 0.924E-05
CGA: 144    -0.668946368461E+03   -0.18575E-04    0.96006E-07  8424   0.606E-05 0.306E-05
CGA: 145    -0.668946390842E+03   -0.22381E-04    0.77201E-07  8424   0.607E-05 0.300E-05
CGA: 146    -0.668946431951E+03   -0.41109E-04    0.92169E-07  8424   0.594E-05 0.902E-05
CGA: 147    -0.668946450018E+03   -0.18067E-04    0.94596E-07  8424   0.591E-05 0.298E-05
CGA: 148    -0.668946471879E+03   -0.21861E-04    0.75178E-07  8424   0.590E-05 0.294E-05
CGA: 149    -0.668946511937E+03   -0.40058E-04    0.89743E-07  8424   0.581E-05 0.878E-05
CGA: 150    -0.668946529533E+03   -0.17595E-04    0.92682E-07  8424   0.575E-05 0.292E-05
CGA: 151    -0.668946550873E+03   -0.21341E-04    0.72807E-07  8424   0.572E-05 0.290E-05
CGA: 152    -0.668946568628E+03   -0.17755E-04    0.89000E-07  8424   0.569E-05 0.289E-05
CGA: 153    -0.668946589347E+03   -0.20719E-04    0.73772E-07  8424   0.569E-05 0.285E-05
CGA: 154    -0.668946607244E+03   -0.17897E-04    0.86988E-07  8424   0.568E-05 0.282E-05
CGA: 155    -0.668946645254E+03   -0.38010E-04    0.87403E-07  8424   0.558E-05 0.844E-05
CGA: 156    -0.668946665507E+03   -0.20252E-04    0.72550E-07  8424   0.559E-05 0.278E-05
CGA: 157    -0.668946703241E+03   -0.37735E-04    0.85417E-07  8424   0.548E-05 0.832E-05
CGA: 158    -0.668946720097E+03   -0.16856E-04    0.86108E-07  8424   0.548E-05 0.275E-05
CGA: 159    -0.668946739907E+03   -0.19810E-04    0.71678E-07  8424   0.550E-05 0.269E-05
CGA: 160    -0.668946776778E+03   -0.36871E-04    0.84023E-07  8424   0.540E-05 0.816E-05
CGA: 161    -0.668946793195E+03   -0.16416E-04    0.85883E-07  8424   0.538E-05 0.268E-05
CGA: 162    -0.668946828964E+03   -0.35770E-04    0.83552E-07  8424   0.530E-05 0.801E-05
CGA: 163    -0.668946848465E+03   -0.19501E-04    0.67949E-07  8424   0.532E-05 0.264E-05
CGA: 164    -0.668946884037E+03   -0.35572E-04    0.82097E-07  8424   0.522E-05 0.792E-05
CGA: 165    -0.668946899506E+03   -0.15470E-04    0.85663E-07  8424   0.522E-05 0.262E-05
CGA: 166    -0.668946918596E+03   -0.19090E-04    0.67280E-07  8424   0.523E-05 0.257E-05
CGA: 167    -0.668946953349E+03   -0.34753E-04    0.80990E-07  8424   0.515E-05 0.778E-05
CGA: 168    -0.668946968420E+03   -0.15070E-04    0.85643E-07  8424   0.513E-05 0.257E-05
CGA: 169    -0.668947002128E+03   -0.33708E-04    0.80780E-07  8424   0.507E-05 0.765E-05
CGA: 170    -0.668947020945E+03   -0.18818E-04    0.64210E-07  8424   0.508E-05 0.253E-05
CGA: 171    -0.668947054512E+03   -0.33567E-04    0.79667E-07  8424   0.500E-05 0.758E-05
CGA: 172    -0.668947068708E+03   -0.14196E-04    0.86168E-07  8424   0.499E-05 0.252E-05
CGA: 173    -0.668947087142E+03   -0.18434E-04    0.63638E-07  8424   0.500E-05 0.249E-05
CGA: 174    -0.668947119954E+03   -0.32811E-04    0.78919E-07  8424   0.493E-05 0.746E-05
CGA: 175    -0.668947133793E+03   -0.13839E-04    0.86211E-07  8424   0.490E-05 0.248E-05
CGA: 176    -0.668947151847E+03   -0.18053E-04    0.62757E-07  8424   0.490E-05 0.247E-05
CGA: 177    -0.668947165845E+03   -0.13998E-04    0.83802E-07  8424   0.489E-05 0.245E-05
CGA: 178    -0.668947183398E+03   -0.17552E-04    0.64306E-07  8424   0.489E-05 0.243E-05
CGA: 179    -0.668947215147E+03   -0.31750E-04    0.78101E-07  8424   0.484E-05 0.730E-05
CGA: 180    -0.668947228808E+03   -0.13661E-04    0.83829E-07  8424   0.481E-05 0.243E-05
CGA: 181    -0.668947246002E+03   -0.17194E-04    0.63533E-07  8424   0.480E-05 0.241E-05
CGA: 182    -0.668947259833E+03   -0.13831E-04    0.81415E-07  8424   0.479E-05 0.240E-05
CGA: 183    -0.668947276537E+03   -0.16704E-04    0.65251E-07  8424   0.480E-05 0.238E-05
CGA: 184    -0.668947307287E+03   -0.30750E-04    0.77664E-07  8424   0.475E-05 0.716E-05
CGA: 185    -0.668947320796E+03   -0.13510E-04    0.81602E-07  8424   0.472E-05 0.238E-05
CGA: 186    -0.668947337166E+03   -0.16370E-04    0.64698E-07  8424   0.473E-05 0.236E-05
CGA: 187    -0.668947367242E+03   -0.30076E-04    0.77392E-07  8424   0.468E-05 0.707E-05
CGA: 188    -0.668947380458E+03   -0.13215E-04    0.81286E-07  8424   0.465E-05 0.237E-05
CGA: 189    -0.668947396496E+03   -0.16038E-04    0.63889E-07  8424   0.464E-05 0.237E-05
CGA: 190    -0.668947409889E+03   -0.13393E-04    0.78308E-07  8424   0.462E-05 0.237E-05
CGA: 191    -0.668947425464E+03   -0.15574E-04    0.65392E-07  8424   0.463E-05 0.234E-05
CGA: 192    -0.668947439011E+03   -0.13548E-04    0.77077E-07  8424   0.464E-05 0.232E-05
CGA: 193    -0.668947454140E+03   -0.15129E-04    0.68047E-07  8424   0.466E-05 0.229E-05
CGA: 194    -0.668947483069E+03   -0.28929E-04    0.77775E-07  8424   0.460E-05 0.694E-05
CGA: 195    -0.668947496322E+03   -0.13253E-04    0.77984E-07  8424   0.460E-05 0.229E-05
CGA: 196    -0.668947524427E+03   -0.28105E-04    0.78542E-07  8424   0.456E-05 0.687E-05
CGA: 197    -0.668947539420E+03   -0.14993E-04    0.66168E-07  8424   0.458E-05 0.227E-05
CGA: 198    -0.668947567497E+03   -0.28077E-04    0.78228E-07  8424   0.452E-05 0.686E-05
CGA: 199    -0.668947580051E+03   -0.12554E-04    0.79942E-07  8424   0.453E-05 0.228E-05
CGA: 200    -0.668947594778E+03   -0.14727E-04    0.66876E-07  8424   0.457E-05 0.224E-05
  16 F= -.66894759E+03 E0= -.66894759E+03  d E =0.244037E+00  mag=     6.0000
       N       E                     dE             d eps       ncg     rms          ort
SDA:   1    -0.648891381421E+03    0.20056E+02    0.00000E+00  8424   0.677E+02 0.000E+00
CGA:   2    -0.661507928130E+03   -0.12617E+02   -0.12631E+02  8424   0.259E+02 0.377E+00
CGA:   3    -0.667192041314E+03   -0.56841E+01   -0.56861E+01  8424   0.843E+01-0.947E-01
CGA:   4    -0.668610897812E+03   -0.14189E+01   -0.14196E+01  8424   0.214E+01 0.859E-02
CGA:   5    -0.668968704293E+03   -0.35781E+00   -0.35812E+00  8424   0.458E+00 0.623E-02
CGA:   6    -0.669060395061E+03   -0.91691E-01   -0.91686E-01  8424   0.104E+00-0.333E-02
CGA:   7    -0.669083300481E+03   -0.22905E-01   -0.22872E-01  8424   0.309E-01 0.155E-02
CGA:   8    -0.669090670423E+03   -0.73699E-02   -0.73445E-02  8424   0.890E-02 0.779E-03
CGA:   9    -0.669093214743E+03   -0.25443E-02   -0.25621E-02  8424   0.318E-02-0.232E-03
CGA:  10    -0.669094020151E+03   -0.80541E-03   -0.78381E-03  8424   0.115E-02 0.470E-03
CGA:  11    -0.669094435128E+03   -0.41498E-03   -0.40805E-03  8424   0.501E-03 0.675E-04
CGA:  12    -0.669094537690E+03   -0.10256E-03   -0.10576E-03  8424   0.208E-03 0.207E-03
CGA:  13    -0.669094569749E+03   -0.32059E-04   -0.43763E-04  8424   0.126E-03 0.180E-03
CGA:  14    -0.669094581074E+03   -0.11325E-04   -0.18068E-04  8424   0.902E-04 0.999E-04
CGA:  15    -0.669094581747E+03   -0.67332E-06   -0.94627E-05  8424   0.818E-04 0.856E-04
  17 F= -.66909458E+03 E0= -.66909458E+03  d E =-.146987E+00  mag=     6.0000
       N       E                     dE             d eps       ncg     rms          ort
SDA:   1    -0.667277668468E+03    0.18169E+01    0.00000E+00  8424   0.615E+01 0.000E+00
CGA:   2    -0.668501600793E+03   -0.12239E+01   -0.12239E+01  8424   0.241E+01 0.951E-02
CGA:   3    -0.669017172179E+03   -0.51557E+00   -0.51558E+00  8424   0.802E+00-0.101E-02
CGA:   4    -0.669149451990E+03   -0.13228E+00   -0.13229E+00  8424   0.201E+00 0.156E-04
CGA:   5    -0.669184322722E+03   -0.34871E-01   -0.34889E-01  8424   0.416E-01 0.775E-03
CGA:   6    -0.669192503671E+03   -0.81809E-02   -0.81806E-02  8424   0.917E-02 0.459E-03
CGA:   7    -0.669194485664E+03   -0.19820E-02   -0.19722E-02  8424   0.261E-02 0.552E-03
CGA:   8    -0.669195107276E+03   -0.62161E-03   -0.61275E-03  8424   0.718E-03 0.343E-03
CGA:   9    -0.669195268822E+03   -0.16155E-03   -0.16121E-03  8424   0.233E-03 0.264E-03
CGA:  10    -0.669195297611E+03   -0.28789E-04   -0.41694E-04  8424   0.126E-03 0.194E-03
CGA:  11    -0.669195300715E+03   -0.31042E-05   -0.12790E-04  8424   0.914E-04 0.105E-03
  18 F= -.66919530E+03 E0= -.66919530E+03  d E =-.100719E+00  mag=     6.0000
       N       E                     dE             d eps       ncg     rms          ort
SDA:   1    -0.668711279535E+03    0.48402E+00    0.00000E+00  8424   0.134E+01 0.000E+00
CGA:   2    -0.669029348024E+03   -0.31807E+00   -0.31801E+00  8424   0.672E+00 0.904E-03
CGA:   3    -0.669162786124E+03   -0.13344E+00   -0.13343E+00  8424   0.176E+00 0.744E-03
CGA:   4    -0.669190754392E+03   -0.27968E-01   -0.27971E-01  8424   0.404E-01 0.914E-04
CGA:   5    -0.669197702175E+03   -0.69478E-02   -0.69522E-02  8424   0.835E-02 0.311E-03
CGA:   6    -0.669199339422E+03   -0.16372E-02   -0.16333E-02  8424   0.187E-02 0.435E-03
CGA:   7    -0.669199738429E+03   -0.39901E-03   -0.39474E-03  8424   0.514E-03 0.273E-03
CGA:   8    -0.669199835807E+03   -0.97378E-04   -0.10075E-03  8424   0.176E-03 0.220E-03
CGA:   9    -0.669199851267E+03   -0.15460E-04   -0.27604E-04  8424   0.998E-04 0.161E-03
CGA:  10    -0.669199851155E+03    0.11195E-06   -0.83103E-05  8424   0.756E-04 0.854E-04
  19 F= -.66919985E+03 E0= -.66919985E+03  d E =-.455044E-02  mag=     6.0000
       N       E                     dE             d eps       ncg     rms          ort
SDA:   1    -0.642865387557E+03    0.26334E+02    0.00000E+00  8424   0.653E+02 0.000E+00
CGA:   2    -0.661015886944E+03   -0.18150E+02   -0.18155E+02  8424   0.360E+02-0.365E-01
CGA:   3    -0.667518634368E+03   -0.65027E+01   -0.65026E+01  8424   0.764E+01 0.234E-01
CGA:   4    -0.668732376782E+03   -0.12137E+01   -0.12138E+01  8424   0.179E+01 0.257E-02
CGA:   5    -0.669042803135E+03   -0.31043E+00   -0.31043E+00  8424   0.398E+00 0.130E-02
CGA:   6    -0.669124792813E+03   -0.81990E-01   -0.81962E-01  8424   0.949E-01 0.877E-03
CGA:   7    -0.669146045564E+03   -0.21253E-01   -0.21255E-01  8424   0.298E-01-0.541E-04
CGA:   8    -0.669153494946E+03   -0.74494E-02   -0.74195E-02  8424   0.102E-01 0.428E-03
CGA:   9    -0.669156425423E+03   -0.29305E-02   -0.29074E-02  8424   0.371E-02 0.235E-03
CGA:  10    -0.669157611782E+03   -0.11864E-02   -0.11589E-02  8424   0.134E-02 0.234E-03
CGA:  11    -0.669157956503E+03   -0.34472E-03   -0.33243E-03  8424   0.337E-03 0.311E-03
CGA:  12    -0.669158027094E+03   -0.70591E-04   -0.74042E-04  8424   0.132E-03 0.194E-03
CGA:  13    -0.669158034838E+03   -0.77432E-05   -0.15596E-04  8424   0.849E-04 0.102E-03
  20 F= -.66915803E+03 E0= -.66915803E+03  d E =0.418163E-01  mag=     6.0000
       N       E                     dE             d eps       ncg     rms          ort
SDA:   1    -0.640702914741E+03    0.28455E+02    0.00000E+00  8424   0.807E+02 0.000E+00
CGA:   2    -0.658581181852E+03   -0.17878E+02   -0.17856E+02  8424   0.388E+02 0.441E+00
CGA:   3    -0.666700696309E+03   -0.81195E+01   -0.81220E+01  8424   0.109E+02-0.846E-01
CGA:   4    -0.668421183542E+03   -0.17205E+01   -0.17211E+01  8424   0.242E+01 0.916E-02
CGA:   5    -0.668832179930E+03   -0.41100E+00   -0.41114E+00  8424   0.515E+00 0.617E-02
CGA:   6    -0.668938068348E+03   -0.10589E+00   -0.10590E+00  8424   0.127E+00-0.601E-03
CGA:   7    -0.668965575679E+03   -0.27507E-01   -0.27452E-01  8424   0.363E-01 0.184E-02
CGA:   8    -0.668974444333E+03   -0.88687E-02   -0.88054E-02  8424   0.112E-01 0.126E-02
CGA:   9    -0.668977640307E+03   -0.31960E-02   -0.31693E-02  8424   0.396E-02 0.322E-03
CGA:  10    -0.668978770278E+03   -0.11300E-02   -0.10818E-02  8424   0.145E-02 0.686E-03
CGA:  11    -0.668979226248E+03   -0.45597E-03   -0.43445E-03  8424   0.460E-03 0.383E-03
CGA:  12    -0.668979314770E+03   -0.88522E-04   -0.98422E-04  8424   0.201E-03 0.306E-03
CGA:  13    -0.668979329559E+03   -0.14790E-04   -0.25893E-04  8424   0.131E-03 0.156E-03
CGA:  14    -0.668979333434E+03   -0.38748E-05   -0.14260E-04  8424   0.108E-03 0.118E-03
CGA:  15    -0.668979333436E+03   -0.16080E-08   -0.10084E-04  8424   0.961E-04 0.102E-03
  21 F= -.66897933E+03 E0= -.66897933E+03  d E =0.178701E+00  mag=     6.0000
       N       E                     dE             d eps       ncg     rms          ort
SDA:   1    -0.657746973114E+03    0.11232E+02    0.00000E+00  8424   0.349E+02 0.000E+00
CGA:   2    -0.664969869556E+03   -0.72229E+01   -0.72185E+01  8424   0.151E+02 0.122E+00
CGA:   3    -0.668153048487E+03   -0.31832E+01   -0.31845E+01  8424   0.452E+01-0.384E-01
CGA:   4    -0.668890266547E+03   -0.73722E+00   -0.73736E+00  8424   0.109E+01 0.364E-02
CGA:   5    -0.669077824506E+03   -0.18756E+00   -0.18760E+00  8424   0.236E+00 0.288E-02
CGA:   6    -0.669125043657E+03   -0.47219E-01   -0.47260E-01  8424   0.549E-01-0.244E-02
CGA:   7    -0.669136980307E+03   -0.11937E-01   -0.11911E-01  8424   0.162E-01 0.712E-03
CGA:   8    -0.669141047688E+03   -0.40674E-02   -0.40764E-02  8424   0.504E-02-0.145E-03
CGA:   9    -0.669142534075E+03   -0.14864E-02   -0.16250E-02  8424   0.252E-02-0.102E-02
CGA:  10    -0.669143123914E+03   -0.58984E-03   -0.61983E-03  8424   0.110E-02-0.268E-03
CGA:  11    -0.669140592075E+03    0.25318E-02   -0.13795E-02  8424   0.157E-01-0.349E-02
CGA:  12    -0.669143358485E+03   -0.27664E-02   -0.28872E-02  8424   0.230E-02 0.658E-03
CGA:  13    -0.669144146495E+03   -0.78801E-03   -0.76513E-03  8424   0.123E-02-0.602E-03
CGA:  14    -0.669144313755E+03   -0.16726E-03   -0.18403E-03  8424   0.453E-03 0.109E-03
CGA:  15    -0.669144493064E+03   -0.17931E-03   -0.18063E-03  8424   0.403E-03-0.742E-04
CGA:  16    -0.669144754873E+03   -0.26181E-03    0.51766E-03  8424   0.566E-03-0.236E-03
CGA:  17    -0.669144813899E+03   -0.59026E-04   -0.82989E-04  8424   0.131E-03 0.118E-03
CGA:  18    -0.669144926956E+03   -0.11306E-03    0.51496E-03  8424   0.846E-04-0.137E-05
CGA:  19    -0.669145086528E+03   -0.15957E-03    0.78338E-05  8424   0.129E-03 0.324E-04
CGA:  20    -0.669145368741E+03   -0.28221E-03    0.22634E-04  8424   0.978E-04 0.123E-03
CGA:  21    -0.669145352018E+03    0.16723E-04   -0.10658E-03  8424   0.112E-02-0.166E-03
CGA:  22    -0.669145677951E+03   -0.32593E-03   -0.24705E-03  8424   0.433E-03-0.507E-03
CGA:  23    -0.669145761009E+03   -0.83058E-04   -0.82897E-04  8424   0.999E-04-0.964E-05
CGA:  24    -0.669145865510E+03   -0.10450E-03    0.39584E-04  8424   0.733E-04 0.168E-04
CGA:  25    -0.669146050540E+03   -0.18503E-03    0.81420E-05  8424   0.668E-04 0.516E-04
CGA:  26    -0.669146104930E+03   -0.54391E-04    0.11455E-03  8424   0.607E-04 0.109E-04
CGA:  27    -0.669146266314E+03   -0.16138E-03    0.61495E-05  8424   0.586E-04 0.515E-04
CGA:  28    -0.669146362120E+03   -0.95805E-04    0.88049E-05  8424   0.370E-04 0.257E-04
CGA:  29    -0.669146482611E+03   -0.12049E-03    0.47243E-05  8424   0.448E-04 0.468E-04
CGA:  30    -0.669146569366E+03   -0.86756E-04    0.50459E-05  8424   0.347E-04 0.294E-04
CGA:  31    -0.669146637625E+03   -0.68258E-04    0.38168E-05  8424   0.378E-04 0.289E-04
CGA:  32    -0.669146732230E+03   -0.94605E-04    0.28919E-05  8424   0.515E-04 0.216E-04
CGA:  33    -0.669146771704E+03   -0.39475E-04    0.22423E-03  8424   0.108E-03-0.639E-05
CGA:  34    -0.669147006619E+03   -0.23492E-03    0.72449E-05  8424   0.132E-03 0.918E-04
CGA:  35    -0.669147121317E+03   -0.11470E-03    0.13373E-03  8424   0.468E-03-0.176E-03
CGA:  36    -0.669147150799E+03   -0.29481E-04   -0.49174E-04  8424   0.355E-04 0.754E-04
CGA:  37    -0.669147193096E+03   -0.42297E-04    0.16471E-04  8424   0.121E-03-0.292E-05
CGA:  38    -0.669147483434E+03   -0.29034E-03    0.73480E-05  8424   0.417E-03 0.728E-04
CGA:  39    -0.669147627098E+03   -0.14366E-03   -0.97896E-04  8424   0.484E-03-0.382E-03
CGA:  40    -0.669147653358E+03   -0.26260E-04   -0.47074E-04  8424   0.361E-04 0.831E-04
CGA:  41    -0.669147686354E+03   -0.32996E-04    0.44570E-04  8424   0.136E-03-0.117E-04
CGA:  42    -0.669147932586E+03   -0.24623E-03    0.51146E-05  8424   0.743E-03-0.249E-05
CGA:  43    -0.669149939054E+03   -0.20065E-02    0.39683E-04  8424   0.140E-02 0.534E-03
CGA:  44    -0.669150252094E+03   -0.31304E-03   -0.23107E-03  8424   0.278E-03-0.479E-03
CGA:  45    -0.669150277711E+03   -0.25618E-04   -0.30453E-04  8424   0.401E-04 0.300E-04
CGA:  46    -0.669150314978E+03   -0.37266E-04    0.22621E-04  8424   0.682E-04 0.792E-06
CGA:  47    -0.669150493483E+03   -0.17851E-03    0.36826E-05  8424   0.102E-03 0.461E-04
CGA:  48    -0.669150589854E+03   -0.96371E-04    0.33676E-04  8424   0.908E-04-0.496E-04
CGA:  49    -0.669150687251E+03   -0.97398E-04    0.32713E-05  8424   0.843E-04 0.379E-04
CGA:  50    -0.669150836204E+03   -0.14895E-03    0.20082E-04  8424   0.601E-04 0.223E-04
CGA:  51    -0.669151039711E+03   -0.20351E-03    0.38029E-05  8424   0.559E-04 0.563E-04
CGA:  52    -0.669151088492E+03   -0.48781E-04    0.24517E-04  8424   0.337E-04 0.296E-05
CGA:  53    -0.669151188395E+03   -0.99904E-04    0.16679E-05  8424   0.347E-04 0.326E-04
CGA:  54    -0.669151249740E+03   -0.61345E-04    0.31404E-05  8424   0.238E-04 0.167E-04
CGA:  55    -0.669151347307E+03   -0.97567E-04    0.16899E-05  8424   0.291E-04 0.332E-04
CGA:  56    -0.669151406098E+03   -0.58791E-04    0.21592E-05  8424   0.222E-04 0.190E-04
CGA:  57    -0.669151464911E+03   -0.58813E-04    0.11242E-05  8424   0.213E-04 0.210E-04
CGA:  58    -0.669151522100E+03   -0.57189E-04    0.10684E-05  8424   0.212E-04 0.211E-04
CGA:  59    -0.669151580637E+03   -0.58537E-04    0.10156E-05  8424   0.211E-04 0.211E-04
CGA:  60    -0.669151637691E+03   -0.57054E-04    0.10379E-05  8424   0.210E-04 0.210E-04
CGA:  61    -0.669151696352E+03   -0.58661E-04    0.99046E-06  8424   0.209E-04 0.209E-04
CGA:  62    -0.669151752820E+03   -0.56468E-04    0.10300E-05  8424   0.208E-04 0.208E-04
CGA:  63    -0.669151812166E+03   -0.59346E-04    0.95601E-06  8424   0.207E-04 0.206E-04
CGA:  64    -0.669151866875E+03   -0.54709E-04    0.10543E-05  8424   0.207E-04 0.205E-04
CGA:  65    -0.669151928961E+03   -0.62086E-04    0.89389E-06  8424   0.209E-04 0.202E-04
CGA:  66    -0.669151977462E+03   -0.48501E-04    0.12686E-05  8424   0.219E-04 0.195E-04
CGA:  67    -0.669152050109E+03   -0.72648E-04    0.83726E-06  8424   0.258E-04 0.172E-04
CGA:  68    -0.669152075786E+03   -0.25677E-04    0.74023E-05  8424   0.394E-04 0.963E-05
CGA:  69    -0.669152230980E+03   -0.15519E-03    0.24855E-05  8424   0.246E-04 0.520E-04
CGA:  70    -0.669152314146E+03   -0.83167E-04    0.91872E-06  8424   0.357E-04 0.108E-04
CGA:  71    -0.669152443691E+03   -0.12954E-03    0.27834E-05  8424   0.225E-04 0.487E-04
CGA:  72    -0.669152476840E+03   -0.33150E-04    0.27411E-05  8424   0.278E-04 0.142E-04
CGA:  73    -0.669152569427E+03   -0.92587E-04    0.10521E-05  8424   0.469E-04 0.365E-05
CGA:  74    -0.669152716513E+03   -0.14709E-03    0.25417E-05  8424   0.377E-04 0.514E-04
CGA:  75    -0.669152717382E+03   -0.86839E-06   -0.45628E-05  8424   0.190E-04 0.185E-04
  22 F= -.66915272E+03 E0= -.66915272E+03  d E =-.173384E+00  mag=     6.0000
       N       E                     dE             d eps       ncg     rms          ort
SDA:   1    -0.668676276008E+03    0.47644E+00    0.00000E+00  8424   0.133E+01 0.000E+00
CGA:   2    -0.669003206403E+03   -0.32693E+00   -0.32698E+00  8424   0.689E+00 0.598E-03
CGA:   3    -0.669137593050E+03   -0.13439E+00   -0.13437E+00  8424   0.170E+00-0.248E-03
CGA:   4    -0.669164388727E+03   -0.26796E-01   -0.26777E-01  8424   0.392E-01-0.151E-03
CGA:   5    -0.669171216826E+03   -0.68281E-02   -0.68264E-02  8424   0.832E-02-0.197E-04
CGA:   6    -0.669172928632E+03   -0.17118E-02   -0.17081E-02  8424   0.199E-02-0.466E-04
CGA:   7    -0.669173404870E+03   -0.47624E-03   -0.46962E-03  8424   0.671E-03-0.145E-03
CGA:   8    -0.669173602861E+03   -0.19799E-03   -0.21457E-03  8424   0.473E-03-0.262E-03
CGA:   9    -0.669173523042E+03    0.79820E-04   -0.21006E-03  8424   0.183E-02-0.657E-03
CGA:  10    -0.669173874958E+03   -0.35192E-03   -0.33848E-03  8424   0.342E-03-0.111E-03
CGA:  11    -0.669173997216E+03   -0.12226E-03   -0.15079E-03  8424   0.289E-03-0.170E-03
[...]
CGA:  95    -0.668986403914E+03   -0.62810E-04    0.21626E-06  8424   0.107E-04 0.143E-04
CGA:  96    -0.668986430528E+03   -0.26613E-04    0.30337E-06  8424   0.135E-04 0.353E-06
CGA:  97    -0.668986493281E+03   -0.62754E-04    0.19703E-06  8424   0.127E-04 0.136E-04
CGA:  98    -0.668986520364E+03   -0.27083E-04    0.43536E-06  8424   0.167E-04-0.277E-05
CGA:  99    -0.668986582043E+03   -0.61679E-04    0.17606E-06  8424   0.184E-04 0.127E-04
CGA: 100    -0.668986607336E+03   -0.25292E-04    0.11700E-05  8424   0.256E-04-0.104E-04
CGA: 101    -0.668986633165E+03   -0.25830E-04    0.27445E-05  8424   0.376E-04-0.200E-04
CGA: 102    -0.668986654816E+03   -0.21650E-04    0.21758E-04  8424   0.571E-04-0.354E-04
CGA: 103    -0.668985820182E+03    0.83463E-03   -0.45760E-03  8424   0.985E-02-0.708E-03
CGA: 104    -0.668986835349E+03   -0.10152E-02   -0.10270E-02  8424   0.100E-04 0.428E-04
CGA: 105    -0.668986886659E+03   -0.51310E-04    0.41556E-06  8424   0.473E-04-0.101E-04
CGA: 106    -0.668986892716E+03   -0.60568E-05   -0.57853E-05  8424   0.554E-05-0.930E-06
  33 F= -.66898689E+03 E0= -.66898689E+03  d E =0.443952E-01  mag=     6.0000
       N       E                     dE             d eps       ncg     rms          ort
SDA:   1    -0.664845239058E+03    0.41416E+01    0.00000E+00  8424   0.106E+02 0.000E+00
CGA:   2    -0.667699962887E+03   -0.28547E+01   -0.28550E+01  8424   0.584E+01-0.728E-03
CGA:   3    -0.668778262015E+03   -0.10783E+01   -0.10782E+01  8424   0.128E+01 0.157E-02
CGA:   4    -0.668979717523E+03   -0.20146E+00   -0.20158E+00  8424   0.297E+00 0.420E-03
CGA:   5    -0.669031275916E+03   -0.51558E-01   -0.51576E-01  8424   0.649E-01 0.181E-04
CGA:   6    -0.669044603223E+03   -0.13327E-01   -0.13287E-01  8424   0.153E-01-0.257E-03
CGA:   7    -0.669047939679E+03   -0.33365E-02   -0.33298E-02  8424   0.452E-02-0.486E-04
CGA:   8    -0.669049064847E+03   -0.11252E-02   -0.11201E-02  8424   0.149E-02-0.506E-04
CGA:   9    -0.669049505320E+03   -0.44047E-03   -0.43543E-03  8424   0.586E-03-0.103E-03
CGA:  10    -0.669049698363E+03   -0.19304E-03   -0.19434E-03  8424   0.283E-03-0.923E-04
CGA:  11    -0.669049786296E+03   -0.87933E-04   -0.94602E-04  8424   0.176E-03-0.126E-03
CGA:  12    -0.669049821582E+03   -0.35286E-04   -0.38696E-04  8424   0.113E-03-0.679E-04
CGA:  13    -0.669049873480E+03   -0.51899E-04    0.16890E-03  8424   0.671E-04-0.845E-05
CGA:  14    -0.669049411079E+03    0.46240E-03   -0.24899E-03  8424   0.255E-02-0.315E-03
CGA:  15    -0.669049964053E+03   -0.55297E-03   -0.52629E-03  8424   0.492E-03-0.629E-04
CGA:  16    -0.669050045981E+03   -0.81927E-04   -0.94733E-04  8424   0.910E-04 0.309E-04
CGA:  17    -0.669050083122E+03   -0.37141E-04   -0.32347E-04  8424   0.319E-04-0.186E-04
CGA:  18    -0.669050088472E+03   -0.53499E-05   -0.65028E-05  8424   0.139E-04 0.351E-05
CGA:  19    -0.669049719453E+03    0.36902E-03   -0.20070E-03  8424   0.192E-02-0.139E-03
CGA:  20    -0.669050060562E+03   -0.34111E-03   -0.37575E-03  8424   0.308E-03 0.420E-04
CGA:  21    -0.669050159781E+03   -0.99219E-04   -0.74510E-04  8424   0.696E-04-0.330E-04
CGA:  22    -0.669050175286E+03   -0.15504E-04   -0.19727E-04  8424   0.260E-04 0.667E-05
CGA:  23    -0.669050132816E+03    0.42470E-04   -0.46237E-04  8424   0.102E-02-0.126E-03
CGA:  24    -0.669050213320E+03   -0.80504E-04   -0.13147E-03  8424   0.935E-04 0.646E-04
CGA:  25    -0.669050246112E+03   -0.32792E-04   -0.30665E-04  8424   0.213E-04-0.355E-05
CGA:  26    -0.669050257407E+03   -0.11295E-04   -0.21906E-04  8424   0.329E-03-0.567E-04
CGA:  27    -0.669050271039E+03   -0.13631E-04   -0.41446E-04  8424   0.164E-04 0.366E-04
CGA:  28    -0.669050275074E+03   -0.40357E-05   -0.41905E-05  8424   0.687E-05 0.235E-06
  34 F= -.66905028E+03 E0= -.66905028E+03  d E =-.633824E-01  mag=     6.0000
       N       E                     dE             d eps       ncg     rms          ort
SDA:   1    -0.646600539491E+03    0.22450E+02    0.00000E+00  8424   0.631E+02 0.000E+00
CGA:   2    -0.661003482568E+03   -0.14403E+02   -0.14521E+02  8424   0.304E+02 0.201E+00
CGA:   3    -0.667306700578E+03   -0.63032E+01   -0.62679E+01  8424   0.760E+01 0.518E+00
CGA:   4    -0.668561385517E+03   -0.12547E+01   -0.12573E+01  8424   0.180E+01 0.552E-01
CGA:   5    -0.668875428439E+03   -0.31404E+00   -0.31512E+00  8424   0.397E+00 0.172E-02
CGA:   6    -0.668956953821E+03   -0.81525E-01   -0.81208E-01  8424   0.968E-01-0.267E-03
CGA:   7    -0.668977869271E+03   -0.20915E-01   -0.21161E-01  8424   0.289E-01 0.520E-03
CGA:   8    -0.668984922023E+03   -0.70528E-02   -0.71656E-02  8424   0.922E-02 0.267E-03
CGA:   9    -0.668987458298E+03   -0.25363E-02   -0.25625E-02  8424   0.330E-02 0.716E-04
CGA:  10    -0.668988276684E+03   -0.81839E-03   -0.92654E-03  8424   0.120E-02 0.318E-03
CGA:  11    -0.668988580047E+03   -0.30336E-03   -0.35936E-03  8424   0.365E-03 0.170E-03
CGA:  12    -0.668988591785E+03   -0.11738E-04   -0.81930E-04  8424   0.139E-03 0.180E-03
CGA:  13    -0.668988559772E+03    0.32013E-04   -0.27275E-04  8424   0.853E-04 0.136E-03
CGA:  14    -0.668988537573E+03    0.22199E-04   -0.96663E-05  8424   0.670E-04 0.739E-04
CGA:  15    -0.668988516273E+03    0.21300E-04   -0.60937E-05  8424   0.604E-04 0.634E-04
CGA:  16    -0.668988496552E+03    0.19721E-04   -0.48510E-05  8424   0.565E-04 0.583E-04
CGA:  17    -0.668988478188E+03    0.18365E-04   -0.41081E-05  8424   0.539E-04 0.551E-04
CGA:  18    -0.668988461003E+03    0.17184E-04   -0.35928E-05  8424   0.519E-04 0.528E-04
CGA:  19    -0.668988444866E+03    0.16137E-04   -0.32046E-05  8424   0.504E-04 0.511E-04
CGA:  20    -0.668988429670E+03    0.15196E-04   -0.28959E-05  8424   0.492E-04 0.497E-04
CGA:  21    -0.668988415331E+03    0.14339E-04   -0.26412E-05  8424   0.481E-04 0.486E-04
CGA:  22    -0.668988401778E+03    0.13553E-04   -0.24252E-05  8424   0.473E-04 0.477E-04
CGA:  23    -0.668988388951E+03    0.12826E-04   -0.22384E-05  8424   0.465E-04 0.469E-04
CGA:  24    -0.668988376800E+03    0.12151E-04   -0.20743E-05  8424   0.459E-04 0.462E-04
CGA:  25    -0.668988365279E+03    0.11521E-04   -0.19285E-05  8424   0.453E-04 0.456E-04
CGA:  26    -0.668988354347E+03    0.10932E-04   -0.17976E-05  8424   0.448E-04 0.450E-04
CGA:  27    -0.668988343969E+03    0.10378E-04   -0.16794E-05  8424   0.443E-04 0.445E-04
CGA:  28    -0.668988334110E+03    0.98583E-05   -0.15722E-05  8424   0.439E-04 0.441E-04
  35 F= -.66898833E+03 E0= -.66898833E+03  d E =0.619410E-01  mag=     6.0000
       N       E                     dE             d eps       ncg     rms          ort
SDA:   1    -0.661695253770E+03    0.72931E+01    0.00000E+00  8424   0.206E+02 0.000E+00
CGA:   2    -0.666470660983E+03   -0.47754E+01   -0.47767E+01  8424   0.102E+02 0.153E-01
CGA:   3    -0.668526549841E+03   -0.20559E+01   -0.20555E+01  8424   0.267E+01-0.973E-03
CGA:   4    -0.668947148889E+03   -0.42060E+00   -0.42075E+00  8424   0.617E+00 0.816E-03
CGA:   5    -0.669054974782E+03   -0.10783E+00   -0.10793E+00  8424   0.133E+00 0.106E-02
CGA:   6    -0.669081932934E+03   -0.26958E-01   -0.26986E-01  8424   0.311E-01 0.511E-03
CGA:   7    -0.669088689932E+03   -0.67570E-02   -0.67739E-02  8424   0.897E-02 0.483E-03
CGA:   8    -0.669090892236E+03   -0.22023E-02   -0.22054E-02  8424   0.272E-02 0.381E-03
CGA:   9    -0.669091586374E+03   -0.69414E-03   -0.69577E-03  8424   0.846E-03 0.371E-03
CGA:  10    -0.669091794819E+03   -0.20845E-03   -0.21624E-03  8424   0.320E-03 0.315E-03
CGA:  11    -0.669091844045E+03   -0.49226E-04   -0.70491E-04  8424   0.144E-03 0.242E-03
CGA:  12    -0.669091844620E+03   -0.57490E-06   -0.15855E-04  8424   0.953E-04 0.114E-03
  36 F= -.66909184E+03 E0= -.66909184E+03  d E =-.103511E+00  mag=     6.0000
       N       E                     dE             d eps       ncg     rms          ort
SDA:   1    -0.651765209998E+03    0.17327E+02    0.00000E+00  8424   0.436E+02 0.000E+00
CGA:   2    -0.663511333172E+03   -0.11746E+02   -0.11745E+02  8424   0.237E+02 0.143E-01
CGA:   3    -0.667859666543E+03   -0.43483E+01   -0.43489E+01  8424   0.520E+01 0.643E-02
CGA:   4    -0.668685036463E+03   -0.82537E+00   -0.82552E+00  8424   0.122E+01 0.113E-02
CGA:   5    -0.668897623603E+03   -0.21259E+00   -0.21263E+00  8424   0.268E+00 0.657E-03
CGA:   6    -0.668952472464E+03   -0.54849E-01   -0.54860E-01  8424   0.633E-01 0.577E-03
CGA:   7    -0.668966641620E+03   -0.14169E-01   -0.14170E-01  8424   0.195E-01-0.326E-03
CGA:   8    -0.668971529077E+03   -0.48875E-02   -0.48882E-02  8424   0.659E-02-0.263E-04
CGA:   9    -0.668973432112E+03   -0.19030E-02   -0.19155E-02  8424   0.253E-02-0.185E-03
CGA:  10    -0.668974263879E+03   -0.83177E-03   -0.87040E-03  8424   0.119E-02-0.305E-03
CGA:  11    -0.668974553083E+03   -0.28920E-03   -0.29162E-03  8424   0.359E-03-0.546E-04
CGA:  12    -0.668974670159E+03   -0.11708E-03   -0.17669E-03  8424   0.417E-03-0.214E-03
CGA:  13    -0.668974764140E+03   -0.93981E-04   -0.94265E-04  8424   0.114E-03 0.116E-04
CGA:  14    -0.668974830086E+03   -0.65945E-04    0.11295E-03  8424   0.602E-04 0.371E-04
CGA:  15    -0.668974882717E+03   -0.52631E-04    0.30017E-04  8424   0.489E-04 0.538E-04
CGA:  16    -0.668974909009E+03   -0.26292E-04    0.74244E-04  8424   0.382E-04 0.296E-04
CGA:  17    -0.668974942907E+03   -0.33898E-04    0.60224E-05  8424   0.362E-04 0.270E-04
CGA:  18    -0.668974966047E+03   -0.23140E-04    0.15750E-04  8424   0.353E-04 0.257E-04
CGA:  19    -0.668974998973E+03   -0.32926E-04    0.49853E-05  8424   0.349E-04 0.245E-04
CGA:  20    -0.668975021001E+03   -0.22028E-04    0.15925E-04  8424   0.349E-04 0.230E-04
CGA:  21    -0.668975053767E+03   -0.32766E-04    0.48742E-05  8424   0.356E-04 0.212E-04
CGA:  22    -0.668975074120E+03   -0.20353E-04    0.29392E-04  8424   0.372E-04 0.188E-04
CGA:  23    -0.668975107575E+03   -0.33455E-04    0.57070E-05  8424   0.402E-04 0.153E-04
CGA:  24    -0.668975162601E+03   -0.55026E-04    0.74334E-05  8424   0.348E-04 0.552E-04
CGA:  25    -0.668975181294E+03   -0.18693E-04    0.53625E-04  8424   0.380E-04 0.142E-04
CGA:  26    -0.668975236388E+03   -0.55094E-04    0.61868E-05  8424   0.328E-04 0.521E-04
CGA:  27    -0.668975267819E+03   -0.31431E-04    0.43783E-05  8424   0.359E-04 0.132E-04
CGA:  28    -0.668975320513E+03   -0.52693E-04    0.56626E-05  8424   0.311E-04 0.491E-04
CGA:  29    -0.668975338542E+03   -0.18030E-04    0.22975E-04  8424   0.337E-04 0.123E-04
CGA:  30    -0.668975390660E+03   -0.52117E-04    0.47639E-05  8424   0.296E-04 0.459E-04
CGA:  31    -0.668975420638E+03   -0.29979E-04    0.35252E-05  8424   0.315E-04 0.116E-04
CGA:  32    -0.668975470159E+03   -0.49520E-04    0.42858E-05  8424   0.282E-04 0.428E-04
CGA:  33    -0.668975487393E+03   -0.17234E-04    0.15245E-04  8424   0.293E-04 0.110E-04
CGA:  34    -0.668975535484E+03   -0.48091E-04    0.36608E-05  8424   0.269E-04 0.398E-04
CGA:  35    -0.668975564429E+03   -0.28945E-04    0.28672E-05  8424   0.270E-04 0.106E-04
CGA:  36    -0.668975610278E+03   -0.45849E-04    0.32131E-05  8424   0.256E-04 0.368E-04
CGA:  37    -0.668975626733E+03   -0.16455E-04    0.10751E-04  8424   0.247E-04 0.104E-04
CGA:  38    -0.668975670371E+03   -0.43638E-04    0.28212E-05  8424   0.241E-04 0.340E-04
CGA:  39    -0.668975698287E+03   -0.27916E-04    0.22615E-05  8424   0.225E-04 0.104E-04
CGA:  40    -0.668975740526E+03   -0.42239E-04    0.24223E-05  8424   0.227E-04 0.314E-04
CGA:  41    -0.668975756402E+03   -0.15876E-04    0.68889E-05  8424   0.204E-04 0.105E-04
CGA:  42    -0.668975795979E+03   -0.39577E-04    0.22171E-05  8424   0.212E-04 0.292E-04
CGA:  43    -0.668975822634E+03   -0.26655E-04    0.17281E-05  8424   0.186E-04 0.105E-04
CGA:  44    -0.668975861963E+03   -0.39329E-04    0.18753E-05  8424   0.199E-04 0.272E-04
CGA:  45    -0.668975877319E+03   -0.15356E-04    0.44532E-05  8424   0.171E-04 0.105E-04
CGA:  46    -0.668975901320E+03   -0.24001E-04    0.11620E-05  8424   0.155E-04 0.121E-04
CGA:  47    -0.668975918905E+03   -0.17585E-04    0.15027E-05  8424   0.146E-04 0.128E-04
CGA:  48    -0.668975940470E+03   -0.21564E-04    0.92358E-06  8424   0.141E-04 0.130E-04
CGA:  49    -0.668975958922E+03   -0.18452E-04    0.10742E-05  8424   0.138E-04 0.130E-04
CGA:  50    -0.668975979420E+03   -0.20499E-04    0.85833E-06  8424   0.135E-04 0.128E-04
CGA:  51    -0.668975997970E+03   -0.18549E-04    0.95507E-06  8424   0.133E-04 0.126E-04
CGA:  52    -0.668976017965E+03   -0.19995E-04    0.81695E-06  8424   0.131E-04 0.124E-04
CGA:  53    -0.668976036249E+03   -0.18285E-04    0.90205E-06  8424   0.130E-04 0.121E-04
CGA:  54    -0.668976055979E+03   -0.19730E-04    0.78201E-06  8424   0.129E-04 0.118E-04
CGA:  55    -0.668976073754E+03   -0.17775E-04    0.90840E-06  8424   0.130E-04 0.114E-04
CGA:  56    -0.668976093408E+03   -0.19653E-04    0.79460E-06  8424   0.134E-04 0.108E-04
CGA:  57    -0.668976110395E+03   -0.16988E-04    0.10636E-05  8424   0.141E-04 0.988E-05
CGA:  58    -0.668976130206E+03   -0.19811E-04    0.95128E-06  8424   0.154E-04 0.850E-05
CGA:  59    -0.668976145900E+03   -0.15694E-04    0.18220E-05  8424   0.179E-04 0.629E-05
CGA:  60    -0.668976185516E+03   -0.39616E-04    0.14452E-05  8424   0.146E-04 0.245E-04
CGA:  61    -0.668976204968E+03   -0.19452E-04    0.10875E-05  8424   0.169E-04 0.595E-05
CGA:  62    -0.668976242837E+03   -0.37869E-04    0.13472E-05  8424   0.139E-04 0.232E-04
CGA:  63    -0.668976257727E+03   -0.14890E-04    0.14916E-05  8424   0.160E-04 0.568E-05
CGA:  64    -0.668976294996E+03   -0.37268E-04    0.12056E-05  8424   0.131E-04 0.218E-04
CGA:  65    -0.668976313389E+03   -0.18393E-04    0.89737E-06  8424   0.148E-04 0.564E-05
CGA:  66    -0.668976348574E+03   -0.35185E-04    0.11188E-05  8424   0.122E-04 0.203E-04
CGA:  67    -0.668976362920E+03   -0.14347E-04    0.11151E-05  8424   0.133E-04 0.591E-05
CGA:  68    -0.668976396965E+03   -0.34044E-04    0.98624E-06  8424   0.111E-04 0.187E-04
CGA:  69    -0.668976414239E+03   -0.17275E-04    0.65181E-06  8424   0.114E-04 0.647E-05
CGA:  70    -0.668976427820E+03   -0.13581E-04    0.10215E-05  8424   0.128E-04 0.513E-05
CGA:  71    -0.668976461088E+03   -0.33267E-04    0.88559E-06  8424   0.108E-04 0.181E-04
CGA:  72    -0.668976477959E+03   -0.16872E-04    0.62808E-06  8424   0.118E-04 0.503E-05
CGA:  73    -0.668976509572E+03   -0.31612E-04    0.80898E-06  8424   0.102E-04 0.170E-04
CGA:  74    -0.668976522309E+03   -0.12737E-04    0.83751E-06  8424   0.109E-04 0.496E-05
CGA:  75    -0.668976552877E+03   -0.30568E-04    0.72466E-06  8424   0.963E-05 0.159E-04
CGA:  76    -0.668976568990E+03   -0.16113E-04    0.50505E-06  8424   0.999E-05 0.494E-05
CGA:  77    -0.668976581042E+03   -0.12052E-04    0.86829E-06  8424   0.105E-04 0.424E-05
CGA:  78    -0.668976610094E+03   -0.29052E-04    0.64333E-06  8424   0.956E-05 0.147E-04
CGA:  79    -0.668976625904E+03   -0.15810E-04    0.50951E-06  8424   0.980E-05 0.411E-05
CGA:  80    -0.668976653675E+03   -0.27771E-04    0.58239E-06  8424   0.911E-05 0.137E-04
CGA:  81    -0.668976664876E+03   -0.11201E-04    0.76837E-06  8424   0.911E-05 0.401E-05
CGA:  82    -0.668976691469E+03   -0.26594E-04    0.52830E-06  8424   0.869E-05 0.129E-04
CGA:  83    -0.668976706613E+03   -0.15144E-04    0.43021E-06  8424   0.840E-05 0.396E-05
CGA:  84    -0.668976732020E+03   -0.25407E-04    0.47697E-06  8424   0.825E-05 0.120E-04
CGA:  85    -0.668976742596E+03   -0.10576E-04    0.64780E-06  8424   0.774E-05 0.393E-05
CGA:  86    -0.668976766827E+03   -0.24232E-04    0.43432E-06  8424   0.781E-05 0.112E-04
CGA:  87    -0.668976781142E+03   -0.14315E-04    0.36073E-06  8424   0.712E-05 0.393E-05
CGA:  88    -0.668976791572E+03   -0.10430E-04    0.45333E-06  8424   0.663E-05 0.432E-05
CGA:  89    -0.668976805110E+03   -0.13538E-04    0.26451E-06  8424   0.626E-05 0.457E-05
CGA:  90    -0.668976815799E+03   -0.10688E-04    0.31912E-06  8424   0.599E-05 0.471E-05
CGA:  91    -0.668976828624E+03   -0.12826E-04    0.22484E-06  8424   0.579E-05 0.478E-05
CGA:  92    -0.668976839461E+03   -0.10836E-04    0.26007E-06  8424   0.565E-05 0.478E-05
CGA:  93    -0.668976851768E+03   -0.12307E-04    0.20712E-06  8424   0.554E-05 0.475E-05
CGA:  94    -0.668976862588E+03   -0.10820E-04    0.23506E-06  8424   0.547E-05 0.467E-05
CGA:  95    -0.668976874540E+03   -0.11952E-04    0.20042E-06  8424   0.544E-05 0.457E-05
CGA:  96    -0.668976885210E+03   -0.10670E-04    0.22960E-06  8424   0.546E-05 0.443E-05
CGA:  97    -0.668976896924E+03   -0.11714E-04    0.20408E-06  8424   0.553E-05 0.424E-05
CGA:  98    -0.668976907326E+03   -0.10402E-04    0.24632E-06  8424   0.569E-05 0.398E-05
CGA:  99    -0.668976918902E+03   -0.11576E-04    0.22822E-06  8424   0.598E-05 0.361E-05
CGA: 100    -0.668976928891E+03   -0.99891E-05    0.31510E-06  8424   0.650E-05 0.308E-05
  37 F= -.66897693E+03 E0= -.66897693E+03  d E =0.114916E+00  mag=     6.0000
       N       E                     dE             d eps       ncg     rms          ort
SDA:   1    -0.648512103473E+03    0.20465E+02    0.00000E+00  8424   0.587E+02 0.000E+00
CGA:   2    -0.661460011871E+03   -0.12948E+02   -0.12955E+02  8424   0.284E+02 0.117E+00
CGA:   3    -0.667329009834E+03   -0.58690E+01   -0.58661E+01  8424   0.765E+01-0.276E-01
CGA:   4    -0.668545394163E+03   -0.12164E+01   -0.12173E+01  8424   0.178E+01 0.480E-02
CGA:   5    -0.668851157449E+03   -0.30576E+00   -0.30607E+00  8424   0.392E+00 0.305E-02
CGA:   6    -0.668930778504E+03   -0.79621E-01   -0.79550E-01  8424   0.934E-01-0.206E-02
CGA:   7    -0.668950893803E+03   -0.20115E-01   -0.20136E-01  8424   0.273E-01 0.110E-02
CGA:   8    -0.668957653430E+03   -0.67596E-02   -0.67553E-02  8424   0.859E-02 0.432E-03
CGA:   9    -0.668960120989E+03   -0.24676E-02   -0.24844E-02  8424   0.328E-02-0.341E-03
CGA:  10    -0.668960981187E+03   -0.86020E-03   -0.85037E-03  8424   0.117E-02 0.306E-03
CGA:  11    -0.668961398334E+03   -0.41715E-03   -0.42580E-03  8424   0.464E-03-0.922E-04
CGA:  12    -0.668961482197E+03   -0.83863E-04   -0.88393E-04  8424   0.157E-03 0.121E-03
CGA:  13    -0.668961509015E+03   -0.26818E-04   -0.33715E-04  8424   0.791E-04 0.949E-04
CGA:  14    -0.668961520211E+03   -0.11197E-04   -0.14310E-04  8424   0.484E-04 0.540E-04
CGA:  15    -0.668961519532E+03    0.67876E-06   -0.51700E-05  8424   0.432E-04 0.453E-04
  38 F= -.66896152E+03 E0= -.66896152E+03  d E =0.154094E-01  mag=     6.0000
       N       E                     dE             d eps       ncg     rms          ort
SDA:   1    -0.661980700698E+03    0.69808E+01    0.00000E+00  8424   0.196E+02 0.000E+00
CGA:   2    -0.666540066532E+03   -0.45594E+01   -0.45591E+01  8424   0.984E+01 0.178E-01
CGA:   3    -0.668517017043E+03   -0.19770E+01   -0.19769E+01  8424   0.257E+01-0.249E-02
CGA:   4    -0.668918166667E+03   -0.40115E+00   -0.40124E+00  8424   0.586E+00 0.784E-03
CGA:   5    -0.669021108017E+03   -0.10294E+00   -0.10299E+00  8424   0.126E+00 0.965E-03
CGA:   6    -0.669046824286E+03   -0.25716E-01   -0.25720E-01  8424   0.296E-01 0.248E-03
CGA:   7    -0.669053299103E+03   -0.64748E-02   -0.64744E-02  8424   0.853E-02 0.185E-03
CGA:   8    -0.669055448042E+03   -0.21489E-02   -0.21471E-02  8424   0.268E-02 0.523E-04
CGA:   9    -0.669056181894E+03   -0.73385E-03   -0.73091E-03  8424   0.904E-03 0.553E-04
CGA:  10    -0.669056471665E+03   -0.28977E-03   -0.28768E-03  8424   0.379E-03 0.226E-04
CGA:  11    -0.669056579241E+03   -0.10758E-03   -0.10567E-03  8424   0.119E-03 0.400E-04
CGA:  12    -0.669056608584E+03   -0.29342E-04   -0.29480E-04  8424   0.453E-04 0.484E-04
CGA:  13    -0.669056625626E+03   -0.17042E-04   -0.16308E-04  8424   0.300E-04 0.254E-04
CGA:  14    -0.669056637394E+03   -0.11768E-04   -0.10228E-04  8424   0.239E-04 0.135E-04
CGA:  15    -0.669056648763E+03   -0.11368E-04   -0.98973E-05  8424   0.205E-04 0.282E-04
CGA:  16    -0.669056655814E+03   -0.70512E-05   -0.61059E-05  8424   0.161E-04 0.152E-04
