       N       E                     dE             d eps       ncg     rms          ort
DAV:   1     0.827236908254E+04    0.82724E+04   -0.24640E+05  8424   0.238E+03
DAV:   2     0.920842356755E+03   -0.73515E+04   -0.69017E+04  8424   0.657E+02
DAV:   3    -0.673636016042E+03   -0.15945E+04   -0.14005E+04  8424   0.282E+02
DAV:   4    -0.829517689839E+03   -0.15588E+03   -0.15319E+03  8424   0.858E+01
DAV:   5    -0.832003976837E+03   -0.24863E+01   -0.24756E+01  8424   0.121E+01
SDA:   6    -0.196463337586E+03    0.63554E+03   -0.24756E+01  8424   0.686E+04 0.000E+00
CGA:   7    -0.165975025793E+03    0.30488E+02   -0.41378E+03  8424   0.282E+05-0.481E+04
CGA:   8     0.129035629374E+04    0.14563E+04   -0.17539E+04  8424   0.330E+05-0.127E+05
CGA:   9     0.153235177239E+04    0.24200E+03   -0.76003E+03  8424   0.186E+06-0.165E+06
CGA:  10     0.542305817245E+04    0.38907E+04   -0.14404E+05  8424   0.219E+05-0.113E+05
CGA:  11     0.539892757757E+03   -0.48832E+04   -0.89599E+03  8424   0.454E+05-0.109E+06
CGA:  12     0.374421095873E+04    0.32043E+04   -0.25244E+04  8424   0.205E+06-0.103E+06
CGA:  13     0.528032159239E+04    0.15361E+04   -0.14823E+05  8424   0.239E+05-0.193E+05
CGA:  14    -0.115912962186E+02   -0.52919E+04   -0.87156E+03  8424   0.243E+05 0.832E+05
CGA:  15     0.387999563926E+03    0.39959E+03   -0.10523E+04  8424   0.783E+05-0.568E+05
CGA:  16     0.247125523850E+04    0.20833E+04   -0.46642E+04  8424   0.238E+05-0.130E+05
CGA:  17    -0.161243275856E+03   -0.26325E+04   -0.58802E+03  8424   0.505E+05-0.113E+06
CGA:  18     0.362565503191E+03    0.52381E+03   -0.25224E+04  8424   0.542E+05-0.370E+05
CGA:  19     0.130011690005E+04    0.93755E+03   -0.26500E+04  8424   0.105E+06-0.741E+05
CGA:  20     0.299565929648E+04    0.16955E+04   -0.57011E+04  8424   0.126E+06-0.817E+05
CGA:  21     0.425513902876E+04    0.12595E+04   -0.65010E+04  8424   0.158E+05-0.128E+05
CGA:  22    -0.563812690296E+03   -0.48190E+04   -0.36623E+03  8424   0.395E+04-0.284E+05
CGA:  23    -0.633012262587E+03   -0.69200E+02   -0.12840E+03  8424   0.140E+03-0.302E+02
CGA:  24    -0.645974281321E+03   -0.12962E+02   -0.12993E+02  8424   0.695E+02-0.389E+01
CGA:  25    -0.653696438223E+03   -0.77222E+01   -0.77945E+01  8424   0.527E+02-0.654E+01
CGA:  26    -0.659298022097E+03   -0.56016E+01   -0.32154E+01  8424   0.246E+02-0.548E+01
CGA:  27    -0.660938641302E+03   -0.16406E+01   -0.17495E+01  8424   0.687E+02 0.143E+00
CGA:  28    -0.662248884493E+03   -0.13102E+01   -0.31268E+01  8424   0.230E+02-0.696E+01
CGA:  29    -0.662816082258E+03   -0.56720E+00   -0.31278E+00  8424   0.190E+02 0.178E+02
CGA:  30    -0.663373986993E+03   -0.55790E+00   -0.23709E+00  8424   0.206E+02 0.263E+02
CGA:  31    -0.663960671990E+03   -0.58668E+00   -0.27993E+00  8424   0.121E+02 0.197E+02
CGA:  32    -0.664303181123E+03   -0.34251E+00   -0.22916E+00  8424   0.413E+01 0.447E+01
CGA:  33    -0.664551748780E+03   -0.24857E+00   -0.25051E+00  8424   0.129E+02-0.318E+00
CGA:  34    -0.665120391382E+03   -0.56864E+00   -0.40371E+00  8424   0.104E+02 0.815E+01
CGA:  35    -0.665442184522E+03   -0.32179E+00   -0.44093E+00  8424   0.687E+01-0.126E+01
CGA:  36    -0.665649107927E+03   -0.20692E+00   -0.21901E+00  8424   0.406E+01-0.211E+00
CGA:  37    -0.666025191884E+03   -0.37608E+00   -0.36438E+00  8424   0.280E+01 0.530E+00
CGA:  38    -0.666236619238E+03   -0.21143E+00   -0.20154E+00  8424   0.185E+01-0.140E+00
CGA:  39    -0.666444497622E+03   -0.20788E+00   -0.20213E+00  8424   0.138E+01 0.635E-01
CGA:  40    -0.666534562383E+03   -0.90065E-01   -0.90524E-01  8424   0.132E+01 0.683E-02
CGA:  41    -0.666637452741E+03   -0.10289E+00   -0.10258E+00  8424   0.571E+00-0.470E-01
CGA:  42    -0.666707697692E+03   -0.70245E-01   -0.65303E-01  8424   0.347E+00 0.987E-01
CGA:  43    -0.666746146781E+03   -0.38449E-01   -0.37602E-01  8424   0.184E+00 0.439E-01
CGA:  44    -0.666779048985E+03   -0.32902E-01   -0.30963E-01  8424   0.104E+00 0.253E-01
CGA:  45    -0.666800962639E+03   -0.21914E-01   -0.21982E-01  8424   0.969E-01-0.136E-03
CGA:  46    -0.666814370040E+03   -0.13407E-01   -0.13469E-01  8424   0.865E-01-0.152E-02
CGA:  47    -0.666831777855E+03   -0.17408E-01   -0.18268E-01  8424   0.103E+00-0.602E-02
CGA:  48    -0.666856416285E+03   -0.24638E-01   -0.25083E-01  8424   0.128E+00-0.366E-02
CGA:  49    -0.666879925845E+03   -0.23510E-01   -0.35369E-01  8424   0.327E+00-0.679E-01
CGA:  50    -0.666906554264E+03   -0.26628E-01   -0.26890E-01  8424   0.100E+00-0.372E-02
CGA:  51    -0.666933988686E+03   -0.27434E-01   -0.30008E-01  8424   0.240E+00-0.109E-01
CGA:  52    -0.666978076837E+03   -0.44088E-01   -0.51935E-01  8424   0.333E+00-0.681E-01
CGA:  53    -0.667017520810E+03   -0.39444E-01   -0.44555E-01  8424   0.254E+00-0.857E-01
CGA:  54    -0.667056011025E+03   -0.38490E-01   -0.41250E-01  8424   0.166E+00-0.359E-01
CGA:  55    -0.667085433224E+03   -0.29422E-01   -0.37822E-01  8424   0.242E+00-0.634E-01
CGA:  56    -0.667105126199E+03   -0.19693E-01   -0.19033E-01  8424   0.215E+00-0.392E-01
CGA:  57    -0.667134152528E+03   -0.29026E-01   -0.30210E-01  8424   0.131E+00-0.464E-01
CGA:  58    -0.667149325872E+03   -0.15173E-01   -0.15330E-01  8424   0.167E+00-0.259E-01
CGA:  59    -0.667167415561E+03   -0.18090E-01   -0.17926E-01  8424   0.961E-01-0.209E-01
CGA:  60    -0.667177189377E+03   -0.97738E-02   -0.97267E-02  8424   0.803E-01-0.785E-02
CGA:  61    -0.667186212760E+03   -0.90234E-02   -0.88281E-02  8424   0.482E-01-0.305E-02
CGA:  62    -0.667196347165E+03   -0.10134E-01   -0.10761E-01  8424   0.682E-01-0.646E-02
CGA:  63    -0.667202290944E+03   -0.59438E-02   -0.59062E-02  8424   0.376E-01-0.455E-02
CGA:  64    -0.667208016144E+03   -0.57252E-02   -0.56949E-02  8424   0.257E-01 0.174E-02
CGA:  65    -0.667212077407E+03   -0.40613E-02   -0.40362E-02  8424   0.357E-01 0.465E-02
CGA:  66    -0.667219291825E+03   -0.72144E-02   -0.71209E-02  8424   0.245E-01 0.298E-02
CGA:  67    -0.667225561100E+03   -0.62693E-02   -0.66262E-02  8424   0.201E-01-0.345E-02
CGA:  68    -0.667230359827E+03   -0.47987E-02   -0.69727E-02  8424   0.388E-01-0.868E-02
CGA:  69    -0.667233976400E+03   -0.36166E-02   -0.36171E-02  8424   0.318E-01-0.862E-02
CGA:  70    -0.667237636828E+03   -0.36604E-02   -0.87894E-02  8424   0.110E+00-0.277E-01
CGA:  71    -0.667254417252E+03   -0.16780E-01   -0.16543E-01  8424   0.706E-01-0.136E-01
CGA:  72    -0.667267052456E+03   -0.12635E-01   -0.12940E-01  8424   0.967E-01-0.805E-02
CGA:  73    -0.667292362083E+03   -0.25310E-01   -0.50634E-01  8424   0.240E+00-0.627E-01
CGA:  74    -0.667330685861E+03   -0.38324E-01   -0.37924E-01  8424   0.801E-01-0.140E-01
CGA:  75    -0.667355378907E+03   -0.24693E-01   -0.26442E-01  8424   0.873E-01-0.110E-01
CGA:  76    -0.667374323902E+03   -0.18945E-01   -0.19939E-01  8424   0.918E-01-0.183E-01
CGA:  77    -0.667154382741E+03    0.21994E+00   -0.97215E-01  8424   0.218E+01-0.333E+00
CGA:  78    -0.667422188497E+03   -0.26781E+00   -0.28059E+00  8424   0.178E+00-0.798E-01
CGA:  79    -0.667475676430E+03   -0.53488E-01   -0.53446E-01  8424   0.681E-01-0.911E-03
CGA:  80    -0.667496704375E+03   -0.21028E-01   -0.20873E-01  8424   0.172E-01-0.329E-02
CGA:  81    -0.667500861680E+03   -0.41573E-02   -0.40817E-02  8424   0.781E-02-0.643E-03
CGA:  82    -0.667503999602E+03   -0.31379E-02   -0.35390E-02  8424   0.965E-02-0.333E-02
CGA:  83    -0.667506092497E+03   -0.20929E-02   -0.22511E-02  8424   0.623E-02-0.310E-02
CGA:  84    -0.667469845058E+03    0.36247E-01   -0.19510E-01  8424   0.220E+00-0.238E-01
CGA:  85    -0.667507864348E+03   -0.38019E-01   -0.38282E-01  8424   0.378E-01 0.388E-02
CGA:  86    -0.667518097357E+03   -0.10233E-01   -0.96141E-02  8424   0.113E-01-0.182E-02
CGA:  87    -0.667522816093E+03   -0.47187E-02   -0.45478E-02  8424   0.631E-02-0.836E-03
CGA:  88    -0.667526115179E+03   -0.32991E-02   -0.32340E-02  8424   0.500E-02-0.137E-02
CGA:  89    -0.667527223298E+03   -0.11081E-02   -0.91563E-03  8424   0.193E-02-0.523E-03
CGA:  90    -0.667092381366E+03    0.43484E+00    0.68389E-01  8424   0.631E+00-0.273E-01
CGA:  91    -0.667125848883E+03   -0.33468E-01   -0.32341E+00  8424   0.660E+00 0.188E+00
CGA:  92    -0.667459511855E+03   -0.33366E+00   -0.37197E+00  8424   0.534E+00-0.254E+00
CGA:  93    -0.667529269915E+03   -0.69758E-01   -0.65116E-01  8424   0.518E-01 0.279E-01
CGA:  94    -0.667540651163E+03   -0.11381E-01   -0.11785E-01  8424   0.155E-01 0.466E-03
CGA:  95    -0.667544611113E+03   -0.39600E-02   -0.34350E-02  8424   0.404E-02-0.842E-03
CGA:  96    -0.667546112255E+03   -0.15011E-02   -0.11406E-02  8424   0.247E-02-0.614E-03
CGA:  97    -0.667547479324E+03   -0.13671E-02   -0.99425E-03  8424   0.339E-02-0.994E-03
CGA:  98    -0.667551852731E+03   -0.43734E-02    0.29992E-02  8424   0.124E-01-0.180E-02
CGA:  99    -0.667554444162E+03   -0.25914E-02   -0.24574E-02  8424   0.390E-02-0.150E-03
CGA: 100    -0.667556647904E+03   -0.22037E-02   -0.17031E-02  8424   0.343E-02-0.139E-02
CGA: 101    -0.667558382683E+03   -0.17348E-02   -0.14349E-02  8424   0.691E-02-0.216E-02
CGA: 102    -0.667560422621E+03   -0.20399E-02   -0.16368E-02  8424   0.342E-02-0.764E-03
CGA: 103    -0.667561852190E+03   -0.14296E-02   -0.12108E-02  8424   0.234E-02-0.617E-03
CGA: 104    -0.667562118251E+03   -0.26606E-03   -0.23782E-02  8424   0.261E-01-0.429E-02
CGA: 105    -0.667566992572E+03   -0.48743E-02   -0.46274E-02  8424   0.401E-02-0.308E-03
CGA: 106    -0.667569041441E+03   -0.20489E-02   -0.16063E-02  8424   0.517E-02-0.137E-02
CGA: 107    -0.667571260740E+03   -0.22193E-02   -0.16769E-02  8424   0.344E-02-0.246E-02
CGA: 108    -0.667575048923E+03   -0.37882E-02    0.13131E-02  8424   0.812E-02-0.743E-03
CGA: 109    -0.667588224442E+03   -0.13176E-01    0.48242E-02  8424   0.487E-02 0.147E-02
CGA: 110    -0.667596610380E+03   -0.83859E-02    0.59731E-01  8424   0.162E-01-0.212E-02
CGA: 111    -0.667611790318E+03   -0.15180E-01    0.17885E-01  8424   0.556E-01-0.231E-01
CGA: 112    -0.667628460398E+03   -0.16670E-01   -0.16716E-01  8424   0.165E-01 0.157E-03
CGA: 113    -0.667633499207E+03   -0.50388E-02   -0.44841E-02  8424   0.589E-02-0.143E-02
CGA: 114    -0.667635327042E+03   -0.18278E-02   -0.16117E-02  8424   0.187E-02-0.594E-03
CGA: 115    -0.667636394112E+03   -0.10671E-02   -0.99862E-03  8424   0.328E-02-0.134E-02
CGA: 116    -0.667637242409E+03   -0.84830E-03   -0.67487E-03  8424   0.920E-03-0.385E-03
CGA: 117    -0.667638371508E+03   -0.11291E-02    0.21520E-02  8424   0.190E-02-0.406E-03
CGA: 118    -0.667640715014E+03   -0.23435E-02    0.42304E-03  8424   0.337E-02-0.671E-03
CGA: 119    -0.667647214706E+03   -0.64997E-02    0.48433E-03  8424   0.434E-02-0.204E-03
CGA: 120    -0.667657466396E+03   -0.10252E-01    0.12421E-02  8424   0.946E-02-0.329E-03
CGA: 121    -0.667681382543E+03   -0.23916E-01    0.22665E-02  8424   0.148E-01-0.204E-02
CGA: 122    -0.667717756087E+03   -0.36374E-01    0.23805E-02  8424   0.332E-01-0.168E-01
CGA: 123    -0.667723627843E+03   -0.58718E-02   -0.64398E-02  8424   0.823E-02 0.160E-02
CGA: 124    -0.667726642106E+03   -0.30143E-02   -0.31930E-02  8424   0.295E-02 0.757E-03
CGA: 125    -0.667727273494E+03   -0.63139E-03   -0.78269E-03  8424   0.807E-03 0.435E-03
CGA: 126    -0.667727306259E+03   -0.32765E-04   -0.21055E-03  8424   0.488E-03 0.510E-03
CGA: 127    -0.667727324090E+03   -0.17831E-04   -0.12386E-03  8424   0.380E-03 0.349E-03
CGA: 128    -0.667727325378E+03   -0.12883E-05   -0.97408E-04  8424   0.352E-03 0.337E-03
CGA: 129    -0.667727319060E+03    0.63182E-05   -0.85424E-04  8424   0.335E-03 0.322E-03
CGA: 130    -0.667727303907E+03    0.15153E-04   -0.75191E-04  8424   0.322E-03 0.312E-03
CGA: 131    -0.667727295034E+03    0.88729E-05   -0.73560E-04  8424   0.312E-03 0.305E-03
CGA: 132    -0.667727277471E+03    0.17563E-04   -0.64987E-04  8424   0.303E-03 0.298E-03
CGA: 133    -0.667727266734E+03    0.10737E-04   -0.64606E-04  8424   0.295E-03 0.292E-03
CGA: 134    -0.667727250026E+03    0.16708E-04   -0.58151E-04  8424   0.288E-03 0.286E-03
CGA: 135    -0.667727238226E+03    0.11800E-04   -0.57411E-04  8424   0.282E-03 0.281E-03
CGA: 136    -0.667727223257E+03    0.14969E-04   -0.52879E-04  8424   0.277E-03 0.276E-03
CGA: 137    -0.667727210991E+03    0.12267E-04   -0.51488E-04  8424   0.272E-03 0.272E-03
CGA: 138    -0.667727198128E+03    0.12862E-04   -0.48643E-04  8424   0.268E-03 0.267E-03
CGA: 139    -0.667727185541E+03    0.12587E-04   -0.46393E-04  8424   0.264E-03 0.263E-03
CGA: 140    -0.667727175258E+03    0.10283E-04   -0.45307E-04  8424   0.260E-03 0.259E-03
CGA: 141    -0.667727161966E+03    0.13292E-04   -0.41704E-04  8424   0.257E-03 0.256E-03
CGA: 142    -0.667727155003E+03    0.69632E-05   -0.42873E-04  8424   0.254E-03 0.252E-03
CGA: 143    -0.667727140475E+03    0.14529E-04   -0.37239E-04  8424   0.251E-03 0.249E-03
CGA: 144    -0.667727137043E+03    0.34318E-05   -0.40995E-04  8424   0.248E-03 0.245E-03
CGA: 145    -0.667727121621E+03    0.15422E-04   -0.33375E-04  8424   0.245E-03 0.243E-03
CGA: 146    -0.667727120389E+03    0.12320E-05   -0.38852E-04  8424   0.243E-03 0.240E-03
CGA: 147    -0.667727105581E+03    0.14807E-04   -0.30630E-04  8424   0.240E-03 0.238E-03
CGA: 148    -0.667727104628E+03    0.95361E-06   -0.36085E-04  8424   0.238E-03 0.236E-03
CGA: 149    -0.667727091741E+03    0.12887E-04   -0.28824E-04  8424   0.235E-03 0.234E-03
CGA: 150    -0.667727090323E+03    0.14177E-05   -0.33226E-04  8424   0.233E-03 0.232E-03
CGA: 151    -0.667727079441E+03    0.10882E-04   -0.27314E-04  8424   0.231E-03 0.230E-03
CGA: 152    -0.667727077875E+03    0.15668E-05   -0.30767E-04  8424   0.229E-03 0.228E-03
CGA: 153    -0.667727068426E+03    0.94487E-05   -0.25750E-04  8424   0.227E-03 0.227E-03
CGA: 154    -0.667727067196E+03    0.12297E-05   -0.28765E-04  8424   0.225E-03 0.225E-03
CGA: 155    -0.667727058682E+03    0.85145E-05   -0.24142E-04  8424   0.224E-03 0.223E-03
CGA: 156    -0.667727058024E+03    0.65739E-06   -0.27068E-04  8424   0.222E-03 0.222E-03
CGA: 157    -0.667727050231E+03    0.77932E-05   -0.22606E-04  8424   0.221E-03 0.220E-03
CGA: 158    -0.667727050080E+03    0.15075E-06   -0.25505E-04  8424   0.219E-03 0.219E-03
CGA: 159    -0.667727043039E+03    0.70409E-05   -0.21243E-04  8424   0.218E-03 0.217E-03
CGA: 160    -0.667727043172E+03   -0.13284E-06   -0.23981E-04  8424   0.216E-03 0.216E-03
CGA: 161    -0.667727036982E+03    0.61905E-05   -0.20070E-04  8424   0.215E-03 0.215E-03
CGA: 162    -0.667727037228E+03   -0.24652E-06   -0.22508E-04  8424   0.214E-03 0.213E-03
CGA: 163    -0.667727031889E+03    0.53391E-05   -0.19024E-04  8424   0.213E-03 0.212E-03
CGA: 164    -0.667727032219E+03   -0.32996E-06   -0.21140E-04  8424   0.211E-03 0.211E-03
CGA: 165    -0.667727027623E+03    0.45965E-05   -0.18039E-04  8424   0.210E-03 0.210E-03
CGA: 166    -0.667727028084E+03   -0.46127E-06   -0.19905E-04  8424   0.209E-03 0.209E-03
CGA: 167    -0.667727024095E+03    0.39888E-05   -0.17090E-04  8424   0.208E-03 0.208E-03
CGA: 168    -0.667727024726E+03   -0.63049E-06   -0.18787E-04  8424   0.207E-03 0.207E-03
CGA: 169    -0.667727021248E+03    0.34775E-05   -0.16187E-04  8424   0.206E-03 0.206E-03
CGA: 170    -0.667727022040E+03   -0.79218E-06   -0.17754E-04  8424   0.205E-03 0.205E-03
CGA: 171    -0.667727019025E+03    0.30154E-05   -0.15345E-04  8424   0.204E-03 0.204E-03
CGA: 172    -0.667727019939E+03   -0.91443E-06   -0.16783E-04  8424   0.204E-03 0.203E-03
CGA: 173    -0.667727017360E+03    0.25796E-05   -0.14567E-04  8424   0.203E-03 0.202E-03
CGA: 174    -0.667727018358E+03   -0.99883E-06   -0.15867E-04  8424   0.202E-03 0.202E-03
CGA: 175    -0.667727016183E+03    0.21759E-05   -0.13844E-04  8424   0.201E-03 0.201E-03
CGA: 176    -0.667727017248E+03   -0.10654E-05   -0.15009E-04  8424   0.200E-03 0.200E-03
CGA: 177    -0.667727015430E+03    0.18181E-05   -0.13162E-04  8424   0.199E-03 0.199E-03
CGA: 178    -0.667727016560E+03   -0.11301E-05   -0.14213E-04  8424   0.199E-03 0.199E-03
CGA: 179    -0.667727015050E+03    0.15096E-05   -0.12515E-04  8424   0.198E-03 0.198E-03
CGA: 180    -0.667727016244E+03   -0.11934E-05   -0.13472E-04  8424   0.197E-03 0.197E-03
CGA: 181    -0.667727015002E+03    0.12417E-05   -0.11902E-04  8424   0.197E-03 0.197E-03
CGA: 182    -0.667727016250E+03   -0.12484E-05   -0.12780E-04  8424   0.196E-03 0.196E-03
CGA: 183    -0.667727015247E+03    0.10034E-05   -0.11325E-04  8424   0.195E-03 0.195E-03
CGA: 184    -0.667727016537E+03   -0.12897E-05   -0.12128E-04  8424   0.195E-03 0.195E-03
CGA: 185    -0.667727015749E+03    0.78809E-06   -0.10782E-04  8424   0.194E-03 0.194E-03
CGA: 186    -0.667727017067E+03   -0.13185E-05   -0.11514E-04  8424   0.194E-03 0.194E-03
CGA: 187    -0.667727016472E+03    0.59524E-06   -0.10269E-04  8424   0.193E-03 0.193E-03
CGA: 188    -0.667727017811E+03   -0.13389E-05   -0.10936E-04  8424   0.193E-03 0.192E-03
   1 F= -.66772702E+03 E0= -.66772702E+03  d E =-.667727E+03  mag=     2.0000
       N       E                     dE             d eps       ncg     rms          ort
SDA:   1    -0.667736134829E+03   -0.91184E-02    0.00000E+00  8424   0.962E-03 0.000E+00
CGA:   2    -0.667736259749E+03   -0.12492E-03   -0.11599E-03  8424   0.406E-03 0.462E-03
CGA:   3    -0.667736309600E+03   -0.49851E-04   -0.54756E-04  8424   0.308E-03 0.438E-03
CGA:   4    -0.667736333264E+03   -0.23663E-04   -0.27214E-04  8424   0.249E-03 0.267E-03
CGA:   5    -0.667736346096E+03   -0.12832E-04   -0.18838E-04  8424   0.229E-03 0.237E-03
CGA:   6    -0.667736355573E+03   -0.94776E-05   -0.16045E-04  8424   0.216E-03 0.221E-03
CGA:   7    -0.667736363099E+03   -0.75254E-05   -0.14283E-04  8424   0.206E-03 0.210E-03
CGA:   8    -0.667736369329E+03   -0.62304E-05   -0.13023E-04  8424   0.199E-03 0.202E-03
CGA:   9    -0.667736374650E+03   -0.53210E-05   -0.12067E-04  8424   0.193E-03 0.196E-03
CGA:  10    -0.667736379310E+03   -0.46601E-05   -0.11315E-04  8424   0.189E-03 0.191E-03
CGA:  11    -0.667736383480E+03   -0.41701E-05   -0.10707E-04  8424   0.185E-03 0.187E-03
CGA:  12    -0.667736387280E+03   -0.37994E-05   -0.10203E-04  8424   0.183E-03 0.184E-03
   2 F= -.66773639E+03 E0= -.66773639E+03  d E =-.936947E-02  mag=     2.0000
       N       E                     dE             d eps       ncg     rms          ort
SDA:   1    -0.667741303657E+03   -0.49202E-02    0.00000E+00  8424   0.446E-03 0.000E+00
CGA:   2    -0.667741351025E+03   -0.47367E-04   -0.43662E-04  8424   0.277E-03 0.318E-03
CGA:   3    -0.667741373693E+03   -0.22669E-04   -0.23355E-04  8424   0.237E-03 0.253E-03
CGA:   4    -0.667741389363E+03   -0.15670E-04   -0.18040E-04  8424   0.215E-03 0.224E-03
CGA:   5    -0.667741401441E+03   -0.12077E-04   -0.15237E-04  8424   0.200E-03 0.206E-03
CGA:   6    -0.667741411342E+03   -0.99017E-05   -0.13462E-04  8424   0.190E-03 0.194E-03
CGA:   7    -0.667741419809E+03   -0.84670E-05   -0.12232E-04  8424   0.183E-03 0.186E-03
CGA:   8    -0.667741427282E+03   -0.74725E-05   -0.11332E-04  8424   0.177E-03 0.179E-03
CGA:   9    -0.667741434042E+03   -0.67600E-05   -0.10647E-04  8424   0.172E-03 0.174E-03
CGA:  10    -0.667741440280E+03   -0.62376E-05   -0.10111E-04  8424   0.169E-03 0.170E-03
   3 F= -.66774144E+03 E0= -.66774144E+03  d E =-.505300E-02  mag=     2.0000
       N       E                     dE             d eps       ncg     rms          ort
SDA:   1    -0.613153568992E+03    0.54588E+02    0.00000E+00  8424   0.854E+03 0.000E+00
CGA:   2    -0.646137079097E+03   -0.32984E+02   -0.46875E+02  8424   0.703E+02 0.138E+03
CGA:   3    -0.660612712333E+03   -0.14476E+02   -0.14117E+02  8424   0.257E+02 0.412E+01
CGA:   4    -0.666835777416E+03   -0.62231E+01   -0.62779E+01  8424   0.820E+01-0.539E+00
CGA:   5    -0.668446026707E+03   -0.16102E+01   -0.16129E+01  8424   0.190E+01-0.228E-01
CGA:   6    -0.668829410123E+03   -0.38338E+00   -0.38257E+00  8424   0.642E+00 0.109E-01
CGA:   7    -0.668974303602E+03   -0.14489E+00   -0.14562E+00  8424   0.199E+00-0.596E-02
CGA:   8    -0.669027915393E+03   -0.53612E-01   -0.53738E-01  8424   0.756E-01-0.742E-03
CGA:   9    -0.669046298770E+03   -0.18383E-01   -0.18092E-01  8424   0.284E-01 0.232E-02
CGA:  10    -0.669054212170E+03   -0.79134E-02   -0.83086E-02  8424   0.132E-01-0.245E-02
CGA:  11    -0.669057432764E+03   -0.32206E-02   -0.31334E-02  8424   0.482E-02 0.669E-03
CGA:  12    -0.669058926795E+03   -0.14940E-02   -0.14956E-02  8424   0.172E-02-0.155E-04
CGA:  13    -0.669059502453E+03   -0.57566E-03   -0.69432E-03  8424   0.124E-02-0.460E-03
CGA:  14    -0.669059723459E+03   -0.22101E-03   -0.21109E-03  8424   0.663E-03 0.128E-03
CGA:  15    -0.669059955058E+03   -0.23160E-03   -0.39299E-03  8424   0.124E-02-0.440E-03
CGA:  16    -0.669060300845E+03   -0.34579E-03   -0.37932E-03  8424   0.598E-03-0.269E-03
CGA:  17    -0.669060427199E+03   -0.12635E-03   -0.11829E-03  8424   0.291E-03 0.119E-03
CGA:  18    -0.669060296892E+03    0.13031E-03   -0.12219E-03  8424   0.371E-02-0.601E-03
CGA:  19    -0.669061107513E+03   -0.81062E-03   -0.80478E-03  8424   0.274E-03-0.470E-04
CGA:  20    -0.669061189153E+03   -0.81640E-04   -0.23524E-03  8424   0.171E-02-0.293E-03
CGA:  21    -0.669061498866E+03   -0.30971E-03   -0.29173E-03  8424   0.263E-03-0.942E-04
CGA:  22    -0.669061597739E+03   -0.98873E-04   -0.16327E-03  8424   0.105E-02-0.216E-03
CGA:  23    -0.669061823424E+03   -0.22569E-03   -0.19431E-03  8424   0.299E-03-0.170E-03
CGA:  24    -0.669061903076E+03   -0.79652E-04   -0.20529E-03  8424   0.158E-02-0.279E-03
CGA:  25    -0.669062231447E+03   -0.32837E-03   -0.27797E-03  8424   0.401E-03-0.244E-03
CGA:  26    -0.669062374128E+03   -0.14268E-03   -0.15533E-03  8424   0.489E-03-0.154E-03
CGA:  27    -0.669062728987E+03   -0.35486E-03    0.10325E-03  8424   0.362E-03 0.107E-03
CGA:  28    -0.669063199623E+03   -0.47064E-03    0.20384E-03  8424   0.183E-03 0.262E-03
CGA:  29    -0.669062918875E+03    0.28075E-03   -0.24779E-03  8424   0.549E-02-0.548E-03
CGA:  30    -0.669063754997E+03   -0.83612E-03   -0.75730E-03  8424   0.344E-03-0.289E-03
CGA:  31    -0.669063897792E+03   -0.14279E-03   -0.15193E-03  8424   0.523E-03-0.173E-03
CGA:  32    -0.669064091116E+03   -0.19332E-03   -0.15292E-03  8424   0.611E-03-0.331E-03
CGA:  33    -0.669064167382E+03   -0.76266E-04   -0.83358E-04  8424   0.984E-04 0.264E-04
CGA:  34    -0.669064350040E+03   -0.18266E-03    0.16238E-04  8424   0.121E-03 0.844E-04
CGA:  35    -0.669064531223E+03   -0.18118E-03    0.27022E-04  8424   0.204E-03 0.208E-04
CGA:  36    -0.669064963334E+03   -0.43211E-03    0.36473E-04  8424   0.179E-03 0.204E-03
CGA:  37    -0.669065120692E+03   -0.15736E-03    0.30853E-03  8424   0.195E-03-0.227E-04
CGA:  38    -0.669065482647E+03   -0.36195E-03    0.19857E-04  8424   0.205E-03 0.160E-03
CGA:  39    -0.669065662885E+03   -0.18024E-03    0.35452E-03  8424   0.173E-03-0.239E-04
CGA:  40    -0.669065993272E+03   -0.33039E-03    0.17299E-04  8424   0.168E-03 0.139E-03
CGA:  41    -0.669066176602E+03   -0.18333E-03    0.87752E-04  8424   0.123E-03 0.227E-04
CGA:  42    -0.669066490497E+03   -0.31389E-03    0.14892E-04  8424   0.130E-03 0.124E-03
CGA:  43    -0.669066673690E+03   -0.18319E-03    0.33123E-04  8424   0.101E-03 0.506E-04
CGA:  44    -0.669067005846E+03   -0.33216E-03    0.14029E-04  8424   0.116E-03 0.122E-03
CGA:  45    -0.669067187923E+03   -0.18208E-03    0.23322E-04  8424   0.957E-04 0.574E-04
CGA:  46    -0.669067532414E+03   -0.34449E-03    0.13817E-04  8424   0.109E-03 0.125E-03
CGA:  47    -0.669067718883E+03   -0.18647E-03    0.18602E-04  8424   0.913E-04 0.596E-04
CGA:  48    -0.669067924800E+03   -0.20592E-03    0.97436E-05  8424   0.105E-03 0.578E-04
CGA:  49    -0.669068078694E+03   -0.15389E-03    0.24107E-04  8424   0.167E-03 0.265E-04
CGA:  50    -0.669068593827E+03   -0.51513E-03    0.19660E-04  8424   0.116E-03 0.198E-03
CGA:  51    -0.669068811914E+03   -0.21809E-03    0.16561E-04  8424   0.185E-03 0.126E-04
CGA:  52    -0.669069315938E+03   -0.50402E-03    0.19295E-04  8424   0.159E-03 0.178E-03
CGA:  53    -0.669069485315E+03   -0.16938E-03    0.91268E-04  8424   0.186E-03-0.155E-04
CGA:  54    -0.669069921783E+03   -0.43647E-03    0.14455E-04  8424   0.211E-03 0.118E-03
CGA:  55    -0.669070134328E+03   -0.21255E-03    0.15418E-03  8424   0.150E-03-0.299E-04
CGA:  56    -0.669070490550E+03   -0.35622E-03    0.10155E-04  8424   0.145E-03 0.118E-03
CGA:  57    -0.669070688457E+03   -0.19791E-03    0.39361E-04  8424   0.108E-03 0.239E-04
CGA:  58    -0.669071050809E+03   -0.36235E-03    0.94112E-05  8424   0.122E-03 0.111E-03
CGA:  59    -0.669071254817E+03   -0.20401E-03    0.21448E-04  8424   0.941E-04 0.402E-04
CGA:  60    -0.669071626118E+03   -0.37130E-03    0.89914E-05  8424   0.109E-03 0.111E-03
CGA:  61    -0.669071827621E+03   -0.20150E-03    0.16182E-04  8424   0.850E-04 0.480E-04
CGA:  62    -0.669072198801E+03   -0.37118E-03    0.85237E-05  8424   0.100E-03 0.112E-03
CGA:  63    -0.669072408799E+03   -0.21000E-03    0.12001E-04  8424   0.784E-04 0.531E-04
CGA:  64    -0.669072627474E+03   -0.21867E-03    0.61319E-05  8424   0.782E-04 0.604E-04
CGA:  65    -0.669072818918E+03   -0.19144E-03    0.73665E-05  8424   0.914E-04 0.544E-04
CGA:  66    -0.669073051361E+03   -0.23244E-03    0.81391E-05  8424   0.137E-03 0.291E-04
CGA:  67    -0.669073581492E+03   -0.53013E-03    0.13244E-04  8424   0.930E-04 0.175E-03
CGA:  68    -0.669073758250E+03   -0.17676E-03    0.13092E-04  8424   0.148E-03 0.236E-04
CGA:  69    -0.669074324720E+03   -0.56647E-03    0.12819E-04  8424   0.103E-03 0.174E-03
CGA:  70    -0.669074561571E+03   -0.23685E-03    0.10712E-04  8424   0.161E-03 0.117E-04
CGA:  71    -0.669075103799E+03   -0.54223E-03    0.12572E-04  8424   0.141E-03 0.153E-03
CGA:  72    -0.669075298180E+03   -0.19438E-03    0.37795E-04  8424   0.149E-03-0.923E-05
CGA:  73    -0.669075751138E+03   -0.45296E-03    0.88910E-05  8424   0.166E-03 0.107E-03
CGA:  74    -0.669075963503E+03   -0.21236E-03    0.53591E-04  8424   0.130E-03-0.156E-04
CGA:  75    -0.669076359489E+03   -0.39599E-03    0.71616E-05  8424   0.135E-03 0.102E-03
CGA:  76    -0.669076571519E+03   -0.21203E-03    0.26834E-04  8424   0.105E-03 0.121E-04
CGA:  77    -0.669076965517E+03   -0.39400E-03    0.68008E-05  8424   0.116E-03 0.965E-04
CGA:  78    -0.669077173796E+03   -0.20828E-03    0.18218E-04  8424   0.907E-04 0.261E-04
CGA:  79    -0.669077565560E+03   -0.39176E-03    0.63373E-05  8424   0.103E-03 0.957E-04
CGA:  80    -0.669077779256E+03   -0.21370E-03    0.12578E-04  8424   0.797E-04 0.354E-04
CGA:  81    -0.669078167244E+03   -0.38799E-03    0.58951E-05  8424   0.924E-04 0.961E-04
CGA:  82    -0.669078378720E+03   -0.21148E-03    0.96484E-05  8424   0.720E-04 0.414E-04
CGA:  83    -0.669078765028E+03   -0.38631E-03    0.55940E-05  8424   0.848E-04 0.969E-04
CGA:  84    -0.669078981732E+03   -0.21670E-03    0.75172E-05  8424   0.667E-04 0.452E-04
CGA:  85    -0.669079204817E+03   -0.22309E-03    0.40869E-05  8424   0.649E-04 0.522E-04
CGA:  86    -0.669079407126E+03   -0.20231E-03    0.43652E-05  8424   0.720E-04 0.494E-04
CGA:  87    -0.669079640902E+03   -0.23378E-03    0.45770E-05  8424   0.976E-04 0.351E-04
CGA:  88    -0.669080148711E+03   -0.50781E-03    0.83837E-05  8424   0.651E-04 0.138E-03
CGA:  89    -0.669080349200E+03   -0.20049E-03    0.44404E-05  8424   0.769E-04 0.452E-04
CGA:  90    -0.669080584406E+03   -0.23521E-03    0.52997E-05  8424   0.125E-03 0.206E-04
CGA:  91    -0.669081152567E+03   -0.56816E-03    0.88188E-05  8424   0.827E-04 0.150E-03
CGA:  92    -0.669081333800E+03   -0.18123E-03    0.92354E-05  8424   0.140E-03 0.100E-04
CGA:  93    -0.669081923187E+03   -0.58939E-03    0.82145E-05  8424   0.115E-03 0.141E-03
CGA:  94    -0.669082160095E+03   -0.23691E-03    0.14033E-04  8424   0.172E-03-0.239E-04
CGA:  95    -0.669082669415E+03   -0.50932E-03    0.71746E-05  8424   0.211E-03 0.933E-04
CGA:  96    -0.669082875503E+03   -0.20609E-03    0.17852E-03  8424   0.179E-03-0.879E-04
CGA:  97    -0.669083284275E+03   -0.40877E-03    0.52469E-05  8424   0.170E-03 0.882E-04
CGA:  98    -0.669083882305E+03   -0.59803E-03    0.25357E-04  8424   0.114E-03 0.627E-04
CGA:  99    -0.669084475365E+03   -0.59306E-03    0.80376E-05  8424   0.105E-03 0.139E-03
CGA: 100    -0.669084714454E+03   -0.23909E-03    0.11048E-04  8424   0.990E-04 0.283E-05
CGA: 101    -0.669085099442E+03   -0.38499E-03    0.53064E-05  8424   0.106E-03 0.754E-04
CGA: 102    -0.669085317217E+03   -0.21778E-03    0.13244E-04  8424   0.739E-04 0.111E-04
CGA: 103    -0.669085656052E+03   -0.33884E-03    0.37922E-05  8424   0.805E-04 0.740E-04
CGA: 104    -0.669085877186E+03   -0.22113E-03    0.64376E-05  8424   0.611E-04 0.271E-04
CGA: 105    -0.669086226764E+03   -0.34958E-03    0.36543E-05  8424   0.705E-04 0.745E-04
CGA: 106    -0.669086436957E+03   -0.21019E-03    0.50315E-05  8424   0.544E-04 0.324E-04
CGA: 107    -0.669086788056E+03   -0.35110E-03    0.34204E-05  8424   0.640E-04 0.749E-04
CGA: 108    -0.669086997750E+03   -0.20969E-03    0.40271E-05  8424   0.505E-04 0.349E-04
CGA: 109    -0.669087192961E+03   -0.19521E-03    0.25661E-05  8424   0.478E-04 0.408E-04
CGA: 110    -0.669087401700E+03   -0.20874E-03    0.20851E-05  8424   0.493E-04 0.407E-04
CGA: 111    -0.669087587711E+03   -0.18601E-03    0.25829E-05  8424   0.569E-04 0.363E-04
CGA: 112    -0.669087805381E+03   -0.21767E-03    0.29244E-05  8424   0.819E-04 0.219E-04
CGA: 113    -0.669088292837E+03   -0.48746E-03    0.50573E-05  8424   0.535E-04 0.109E-03
CGA: 114    -0.669088468154E+03   -0.17532E-03    0.33671E-05  8424   0.761E-04 0.242E-04
CGA: 115    -0.669088958054E+03   -0.48990E-03    0.47480E-05  8424   0.485E-04 0.103E-03
CGA: 116    -0.669089166646E+03   -0.20859E-03    0.21601E-05  8424   0.559E-04 0.322E-04
CGA: 117    -0.669089335444E+03   -0.16880E-03    0.39129E-05  8424   0.892E-04 0.155E-04
CGA: 118    -0.669089853225E+03   -0.51778E-03    0.47350E-05  8424   0.609E-04 0.104E-03
CGA: 119    -0.669090063838E+03   -0.21061E-03    0.35721E-05  8424   0.794E-04 0.125E-04
CGA: 120    -0.669090495032E+03   -0.43119E-03    0.40227E-05  8424   0.753E-04 0.816E-04
CGA: 121    -0.669090680628E+03   -0.18560E-03    0.70256E-05  8424   0.665E-04 0.561E-05
CGA: 122    -0.669091036431E+03   -0.35580E-03    0.26619E-05  8424   0.674E-04 0.699E-04
CGA: 123    -0.669091229709E+03   -0.19328E-03    0.50732E-05  8424   0.540E-04 0.143E-04
CGA: 124    -0.669091561765E+03   -0.33206E-03    0.23879E-05  8424   0.575E-04 0.640E-04
CGA: 125    -0.669091747013E+03   -0.18525E-03    0.36983E-05  8424   0.451E-04 0.218E-04
CGA: 126    -0.669092070095E+03   -0.32308E-03    0.22040E-05  8424   0.508E-04 0.605E-04
CGA: 127    -0.669092255530E+03   -0.18543E-03    0.27773E-05  8424   0.402E-04 0.253E-04
CGA: 128    -0.669092575529E+03   -0.32000E-03    0.20809E-05  8424   0.466E-04 0.583E-04
CGA: 129    -0.669092753575E+03   -0.17805E-03    0.24000E-05  8424   0.375E-04 0.264E-04
CGA: 130    -0.669092930738E+03   -0.17716E-03    0.14889E-05  8424   0.345E-04 0.307E-04
CGA: 131    -0.669093106863E+03   -0.17613E-03    0.12492E-05  8424   0.333E-04 0.319E-04
CGA: 132    -0.669093280864E+03   -0.17400E-03    0.11764E-05  8424   0.328E-04 0.320E-04
CGA: 133    -0.669093457055E+03   -0.17619E-03    0.11181E-05  8424   0.326E-04 0.317E-04
CGA: 134    -0.669093627255E+03   -0.17020E-03    0.11485E-05  8424   0.330E-04 0.311E-04
CGA: 135    -0.669093805564E+03   -0.17831E-03    0.11152E-05  8424   0.352E-04 0.294E-04
CGA: 136    -0.669093966224E+03   -0.16066E-03    0.14554E-05  8424   0.441E-04 0.242E-04
CGA: 137    -0.669094151403E+03   -0.18518E-03    0.20220E-05  8424   0.793E-04 0.586E-05
CGA: 138    -0.669094632145E+03   -0.48074E-03    0.30808E-05  8424   0.588E-04 0.871E-04
CGA: 139    -0.669094758746E+03   -0.12660E-03    0.67488E-05  8424   0.150E-03-0.292E-04
CGA: 140    -0.669095303496E+03   -0.54475E-03    0.18313E-05  8424   0.395E-03 0.497E-04
CGA: 141    -0.669097098332E+03   -0.17948E-02    0.31418E-04  8424   0.443E-03 0.215E-04
CGA: 142    -0.669099255944E+03   -0.21576E-02    0.19044E-04  8424   0.401E-04 0.274E-03
CGA: 143    -0.669099386009E+03   -0.13007E-03    0.25504E-05  8424   0.513E-04-0.367E-05
CGA: 144    -0.669099698005E+03   -0.31200E-03    0.12356E-05  8424   0.473E-04 0.342E-04
CGA: 145    -0.669099821771E+03   -0.12377E-03    0.40531E-05  8424   0.465E-04-0.106E-04
CGA: 146    -0.669100066769E+03   -0.24500E-03    0.94417E-06  8424   0.428E-04 0.311E-04
CGA: 147    -0.669100197871E+03   -0.13110E-03    0.29429E-05  8424   0.341E-04-0.403E-05
CGA: 148    -0.669100419326E+03   -0.22146E-03    0.75673E-06  8424   0.307E-04 0.276E-04
CGA: 149    -0.669100541973E+03   -0.12265E-03    0.15006E-05  8424   0.224E-04 0.618E-05
CGA: 150    -0.669100746050E+03   -0.20408E-03    0.61998E-06  8424   0.231E-04 0.248E-04
CGA: 151    -0.669100866660E+03   -0.12061E-03    0.81113E-06  8424   0.173E-04 0.108E-04
CGA: 152    -0.669101068459E+03   -0.20180E-03    0.55712E-06  8424   0.194E-04 0.235E-04
CGA: 153    -0.669101183943E+03   -0.11548E-03    0.58930E-06  8424   0.153E-04 0.119E-04
CGA: 154    -0.669101295631E+03   -0.11169E-03    0.36900E-06  8424   0.145E-04 0.129E-04
CGA: 155    -0.669101409769E+03   -0.11414E-03    0.32144E-06  8424   0.143E-04 0.129E-04
CGA: 156    -0.669101516881E+03   -0.10711E-03    0.33568E-06  8424   0.149E-04 0.124E-04
CGA: 157    -0.669101633288E+03   -0.11641E-03    0.33136E-06  8424   0.175E-04 0.107E-04
CGA: 158    -0.669101729509E+03   -0.96221E-04    0.58382E-06  8424   0.277E-04 0.505E-05
CGA: 159    -0.669102014576E+03   -0.28507E-03    0.77266E-06  8424   0.174E-04 0.336E-04
CGA: 160    -0.669102130700E+03   -0.11612E-03    0.46268E-06  8424   0.294E-04 0.310E-05
CGA: 161    -0.669102412393E+03   -0.28169E-03    0.73863E-06  8424   0.210E-04 0.320E-04
CGA: 162    -0.669102497965E+03   -0.85572E-04    0.99409E-06  8424   0.365E-04-0.320E-05
CGA: 163    -0.669102775927E+03   -0.27796E-03    0.59056E-06  8424   0.430E-04 0.245E-04
CGA: 164    -0.669102887581E+03   -0.11165E-03    0.37305E-05  8424   0.609E-04-0.279E-04
CGA: 165    -0.669102944622E+03   -0.57042E-04    0.64839E-04  8424   0.129E-03-0.623E-04
CGA: 166    -0.669103063584E+03   -0.11896E-03    0.15674E-03  8424   0.421E-03-0.203E-03
CGA: 167    -0.669103109214E+03   -0.45630E-04   -0.52908E-04  8424   0.134E-04 0.276E-04
CGA: 168    -0.669103194896E+03   -0.85682E-04    0.40037E-06  8424   0.205E-04 0.381E-05
CGA: 169    -0.669103433168E+03   -0.23827E-03    0.46430E-06  8424   0.243E-04 0.209E-04
CGA: 170    -0.669103521334E+03   -0.88166E-04    0.12380E-05  8424   0.204E-04-0.355E-05
CGA: 171    -0.669103682427E+03   -0.16109E-03    0.29867E-06  8424   0.196E-04 0.166E-04
CGA: 172    -0.669103767051E+03   -0.84624E-04    0.80015E-06  8424   0.145E-04 0.119E-05
CGA: 173    -0.669103915424E+03   -0.14837E-03    0.25404E-06  8424   0.147E-04 0.148E-04
CGA: 174    -0.669103997073E+03   -0.81649E-04    0.44765E-06  8424   0.110E-04 0.458E-05
CGA: 175    -0.669104140670E+03   -0.14360E-03    0.22825E-06  8424   0.122E-04 0.139E-04
CGA: 176    -0.669104220990E+03   -0.80320E-04    0.30514E-06  8424   0.939E-05 0.578E-05
CGA: 177    -0.669104361637E+03   -0.14065E-03    0.21484E-06  8424   0.108E-04 0.133E-04
CGA: 178    -0.669104439032E+03   -0.77395E-04    0.24711E-06  8424   0.860E-05 0.604E-05
CGA: 179    -0.669104516342E+03   -0.77311E-04    0.15226E-06  8424   0.785E-05 0.705E-05
CGA: 180    -0.669104591966E+03   -0.75624E-04    0.12918E-06  8424   0.756E-05 0.728E-05
CGA: 181    -0.669104667963E+03   -0.75997E-04    0.11852E-06  8424   0.740E-05 0.728E-05
CGA: 182    -0.669104741933E+03   -0.73970E-04    0.11670E-06  8424   0.729E-05 0.720E-05
CGA: 183    -0.669104817253E+03   -0.75320E-04    0.11117E-06  8424   0.725E-05 0.707E-05
CGA: 184    -0.669104888865E+03   -0.71612E-04    0.11600E-06  8424   0.735E-05 0.686E-05
CGA: 185    -0.669104964578E+03   -0.75713E-04    0.11224E-06  8424   0.787E-05 0.641E-05
CGA: 186    -0.669105031559E+03   -0.66982E-04    0.14805E-06  8424   0.985E-05 0.519E-05
CGA: 187    -0.669105110509E+03   -0.78949E-04    0.19823E-06  8424   0.172E-04 0.118E-05
CGA: 188    -0.669105306672E+03   -0.19616E-03    0.29904E-06  8424   0.131E-04 0.187E-04
CGA: 189    -0.669105359499E+03   -0.52827E-04    0.58888E-06  8424   0.326E-04-0.668E-05
CGA: 190    -0.669105441667E+03   -0.82168E-04    0.27016E-05  8424   0.117E-03-0.471E-04
CGA: 191    -0.669105462084E+03   -0.20417E-04   -0.17068E-04  8424   0.101E-04-0.141E-04
CGA: 192    -0.669105536308E+03   -0.74224E-04    0.15909E-06  8424   0.801E-05 0.524E-05
CGA: 193    -0.669105596748E+03   -0.60439E-04    0.16128E-06  8424   0.149E-04 0.204E-05
CGA: 194    -0.669105781598E+03   -0.18485E-03    0.27809E-06  8424   0.823E-05 0.176E-04
CGA: 195    -0.669105845962E+03   -0.64364E-04    0.15921E-06  8424   0.175E-04 0.472E-06
CGA: 196    -0.669106039008E+03   -0.19305E-03    0.26268E-06  8424   0.143E-04 0.178E-04
CGA: 197    -0.669106087959E+03   -0.48952E-04    0.72405E-06  8424   0.478E-04-0.134E-04
CGA: 198    -0.669106141588E+03   -0.53629E-04    0.17132E-04  8424   0.231E-03-0.915E-04
CGA: 199    -0.669106172908E+03   -0.31320E-04   -0.27713E-04  8424   0.739E-05-0.143E-04
CGA: 200    -0.669106233954E+03   -0.61046E-04    0.10958E-06  8424   0.848E-05 0.364E-05
   4 F= -.66910623E+03 E0= -.66910623E+03  d E =-.136479E+01  mag=     2.0000
       N       E                     dE             d eps       ncg     rms          ort
SDA:   1    -0.665129185613E+03    0.39770E+01    0.00000E+00  8424   0.132E+02 0.000E+00
CGA:   2    -0.667846044023E+03   -0.27169E+01   -0.27367E+01  8424   0.600E+01-0.966E-02
CGA:   3    -0.669002562216E+03   -0.11565E+01   -0.11505E+01  8424   0.187E+01 0.216E-01
CGA:   4    -0.669308655291E+03   -0.30609E+00   -0.30696E+00  8424   0.417E+00 0.821E-03
CGA:   5    -0.669383151210E+03   -0.74496E-01   -0.74757E-01  8424   0.912E-01 0.491E-03
CGA:   6    -0.669401791799E+03   -0.18641E-01   -0.18608E-01  8424   0.216E-01-0.205E-03
CGA:   7    -0.669406500866E+03   -0.47091E-02   -0.47239E-02  8424   0.663E-02 0.140E-03
CGA:   8    -0.669408122736E+03   -0.16219E-02   -0.16425E-02  8424   0.210E-02 0.300E-03
CGA:   9    -0.669408695246E+03   -0.57251E-03   -0.57829E-03  8424   0.775E-03 0.120E-03
CGA:  10    -0.669408890527E+03   -0.19528E-03   -0.20579E-03  8424   0.297E-03 0.183E-03
CGA:  11    -0.669408963108E+03   -0.72582E-04   -0.83147E-04  8424   0.111E-03 0.133E-03
CGA:  12    -0.669408978372E+03   -0.15264E-04   -0.27390E-04  8424   0.608E-04 0.921E-04
CGA:  13    -0.669408977740E+03    0.63288E-06   -0.77208E-05  8424   0.436E-04 0.496E-04
   5 F= -.66940898E+03 E0= -.66940898E+03  d E =-.302744E+00  mag=     2.0000
       N       E                     dE             d eps       ncg     rms          ort
SDA:   1    -0.662825467197E+03    0.65835E+01    0.00000E+00  8424   0.199E+02 0.000E+00
CGA:   2    -0.667214445182E+03   -0.43890E+01   -0.44027E+01  8424   0.922E+01 0.686E-01
CGA:   3    -0.668943787084E+03   -0.17293E+01   -0.17235E+01  8424   0.271E+01 0.665E-02
CGA:   4    -0.669387002439E+03   -0.44322E+00   -0.44405E+00  8424   0.610E+00 0.247E-02
CGA:   5    -0.669495495906E+03   -0.10849E+00   -0.10876E+00  8424   0.131E+00 0.157E-02
CGA:   6    -0.669522220133E+03   -0.26724E-01   -0.26715E-01  8424   0.319E-01-0.952E-04
CGA:   7    -0.669529391391E+03   -0.71713E-02   -0.71790E-02  8424   0.104E-01 0.222E-03
CGA:   8    -0.669532099027E+03   -0.27076E-02   -0.27068E-02  8424   0.362E-02 0.429E-03
CGA:   9    -0.669533164792E+03   -0.10658E-02   -0.10628E-02  8424   0.151E-02 0.114E-03
CGA:  10    -0.669533582138E+03   -0.41735E-03   -0.41497E-03  8424   0.581E-03 0.283E-03
CGA:  11    -0.669533755436E+03   -0.17330E-03   -0.17433E-03  8424   0.213E-03 0.186E-03
CGA:  12    -0.669533808278E+03   -0.52841E-04   -0.59315E-04  8424   0.113E-03 0.139E-03
CGA:  13    -0.669533817122E+03   -0.88446E-05   -0.17476E-04  8424   0.758E-04 0.858E-04
CGA:  14    -0.669533821691E+03   -0.45690E-05   -0.11482E-04  8424   0.652E-04 0.696E-04
   6 F= -.66953382E+03 E0= -.66953382E+03  d E =-.124844E+00  mag=     2.0000
       N       E                     dE             d eps       ncg     rms          ort
SDA:   1    -0.668469491237E+03    0.10643E+01    0.00000E+00  8424   0.291E+01 0.000E+00
CGA:   2    -0.669265630378E+03   -0.79614E+00   -0.79610E+00  8424   0.129E+01 0.600E-04
CGA:   3    -0.669505140784E+03   -0.23951E+00   -0.23944E+00  8424   0.321E+00-0.110E-02
CGA:   4    -0.669559580788E+03   -0.54440E-01   -0.54519E-01  8424   0.823E-01 0.111E-02
CGA:   5    -0.669573259467E+03   -0.13679E-01   -0.13721E-01  8424   0.158E-01 0.588E-03
CGA:   6    -0.669576621694E+03   -0.33622E-02   -0.33608E-02  8424   0.439E-02-0.740E-04
CGA:   7    -0.669577575122E+03   -0.95343E-03   -0.95595E-03  8424   0.136E-02 0.213E-03
CGA:   8    -0.669577910149E+03   -0.33503E-03   -0.33401E-03  8424   0.464E-03 0.248E-03
CGA:   9    -0.669578035992E+03   -0.12584E-03   -0.12598E-03  8424   0.207E-03 0.168E-03
CGA:  10    -0.669578069549E+03   -0.33558E-04   -0.45324E-04  8424   0.117E-03 0.169E-03
CGA:  11    -0.669578075522E+03   -0.59725E-05   -0.15034E-04  8424   0.787E-04 0.915E-04
   7 F= -.66957808E+03 E0= -.66957808E+03  d E =-.442538E-01  mag=     2.0000
       N       E                     dE             d eps       ncg     rms          ort
SDA:   1    -0.666798168042E+03    0.27799E+01    0.00000E+00  8424   0.803E+01 0.000E+00
CGA:   2    -0.668617629612E+03   -0.18195E+01   -0.18190E+01  8424   0.384E+01 0.220E-01
CGA:   3    -0.669382271276E+03   -0.76464E+00   -0.76443E+00  8424   0.118E+01-0.677E-02
CGA:   4    -0.669566267238E+03   -0.18400E+00   -0.18398E+00  8424   0.252E+00 0.488E-03
CGA:   5    -0.669610909892E+03   -0.44643E-01   -0.44691E-01  8424   0.504E-01 0.121E-02
CGA:   6    -0.669621560681E+03   -0.10651E-01   -0.10650E-01  8424   0.142E-01-0.505E-03
CGA:   7    -0.669624714580E+03   -0.31539E-02   -0.31565E-02  8424   0.425E-02-0.202E-03
CGA:   8    -0.669625815205E+03   -0.11006E-02   -0.10977E-02  8424   0.144E-02 0.586E-04
CGA:   9    -0.669626271177E+03   -0.45597E-03   -0.48866E-03  8424   0.849E-03-0.274E-03
CGA:  10    -0.669626445922E+03   -0.17474E-03   -0.17228E-03  8424   0.319E-03 0.818E-04
CGA:  11    -0.669626555430E+03   -0.10951E-03   -0.10826E-03  8424   0.177E-03 0.133E-04
CGA:  12    -0.669626614086E+03   -0.58656E-04   -0.11507E-03  8424   0.431E-03-0.144E-03
CGA:  13    -0.669626660129E+03   -0.46043E-04   -0.61454E-04  8424   0.992E-04 0.149E-03
CGA:  14    -0.669626683074E+03   -0.22945E-04   -0.25375E-04  8424   0.551E-04 0.477E-04
CGA:  15    -0.669626715885E+03   -0.32811E-04   -0.40329E-04  8424   0.118E-03-0.304E-04
CGA:  16    -0.669626720750E+03   -0.48647E-05   -0.14023E-04  8424   0.502E-04 0.690E-04
CGA:  17    -0.669626732156E+03   -0.11406E-04   -0.11741E-04  8424   0.244E-04 0.306E-04
CGA:  18    -0.669626744771E+03   -0.12615E-04   -0.96185E-05  8424   0.195E-04 0.196E-04
CGA:  19    -0.669626744838E+03   -0.66397E-07   -0.24509E-05  8424   0.187E-04 0.189E-04
   8 F= -.66962674E+03 E0= -.66962674E+03  d E =-.486693E-01  mag=     2.0000
       N       E                     dE             d eps       ncg     rms          ort
SDA:   1    -0.667983492137E+03    0.16433E+01    0.00000E+00  8424   0.473E+01 0.000E+00
CGA:   2    -0.669068268051E+03   -0.10848E+01   -0.10849E+01  8424   0.215E+01 0.347E-02
CGA:   3    -0.669502826937E+03   -0.43456E+00   -0.43446E+00  8424   0.642E+00-0.189E-02
CGA:   4    -0.669604300893E+03   -0.10147E+00   -0.10152E+00  8424   0.146E+00 0.817E-03
CGA:   5    -0.669629758838E+03   -0.25458E-01   -0.25501E-01  8424   0.297E-01 0.646E-03
CGA:   6    -0.669636009077E+03   -0.62502E-02   -0.62395E-02  8424   0.822E-02-0.425E-03
CGA:   7    -0.669637809094E+03   -0.18000E-02   -0.17997E-02  8424   0.245E-02-0.285E-04
CGA:   8    -0.669638426437E+03   -0.61734E-03   -0.61555E-03  8424   0.818E-03 0.937E-04
CGA:   9    -0.669638693096E+03   -0.26666E-03   -0.27416E-03  8424   0.440E-03-0.849E-04
CGA:  10    -0.669638795688E+03   -0.10259E-03   -0.10117E-03  8424   0.183E-03 0.780E-04
CGA:  11    -0.669638866237E+03   -0.70550E-04   -0.67882E-04  8424   0.114E-03 0.339E-04
CGA:  12    -0.669638924847E+03   -0.58610E-04   -0.56538E-04  8424   0.119E-03 0.101E-04
CGA:  13    -0.669638939692E+03   -0.14844E-04   -0.22057E-04  8424   0.887E-04 0.873E-04
CGA:  14    -0.669638950280E+03   -0.10588E-04   -0.14988E-04  8424   0.448E-04 0.556E-04
CGA:  15    -0.669638962292E+03   -0.12013E-04   -0.11541E-04  8424   0.308E-04 0.346E-04
CGA:  16    -0.669638963959E+03   -0.16670E-05   -0.45352E-05  8424   0.283E-04 0.293E-04
   9 F= -.66963896E+03 E0= -.66963896E+03  d E =-.122191E-01  mag=     2.0000
       N       E                     dE             d eps       ncg     rms          ort
SDA:   1    -0.669286238525E+03    0.35272E+00    0.00000E+00  8424   0.986E+00 0.000E+00
CGA:   2    -0.669538486616E+03   -0.25225E+00   -0.25227E+00  8424   0.476E+00-0.110E-02
CGA:   3    -0.669627739370E+03   -0.89253E-01   -0.89278E-01  8424   0.124E+00 0.452E-03
CGA:   4    -0.669648447076E+03   -0.20708E-01   -0.20728E-01  8424   0.301E-01 0.272E-03
CGA:   5    -0.669653565422E+03   -0.51183E-02   -0.51184E-02  8424   0.593E-02-0.167E-05
CGA:   6    -0.669654786749E+03   -0.12213E-02   -0.12200E-02  8424   0.155E-02-0.593E-04
CGA:   7    -0.669655120531E+03   -0.33378E-03   -0.33427E-03  8424   0.459E-03 0.546E-04
CGA:   8    -0.669655209748E+03   -0.89217E-04   -0.93249E-04  8424   0.140E-03 0.132E-03
CGA:   9    -0.669655236990E+03   -0.27242E-04   -0.31370E-04  8424   0.643E-04 0.800E-04
CGA:  10    -0.669655247602E+03   -0.10612E-04   -0.11993E-04  8424   0.360E-04 0.382E-04
CGA:  11    -0.669655248171E+03   -0.56865E-06   -0.40617E-05  8424   0.300E-04 0.323E-04
  10 F= -.66965525E+03 E0= -.66965525E+03  d E =-.162842E-01  mag=     2.0000
       N       E                     dE             d eps       ncg     rms          ort
SDA:   1    -0.669370243581E+03    0.28500E+00    0.00000E+00  8424   0.730E+00 0.000E+00
CGA:   2    -0.669587386470E+03   -0.21714E+00   -0.21731E+00  8424   0.325E+00-0.193E-02
CGA:   3    -0.669643586045E+03   -0.56200E-01   -0.56242E-01  8424   0.810E-01 0.101E-02
CGA:   4    -0.669657535515E+03   -0.13949E-01   -0.13957E-01  8424   0.197E-01 0.182E-03
CGA:   5    -0.669660899231E+03   -0.33637E-02   -0.33591E-02  8424   0.399E-02-0.115E-03
CGA:   6    -0.669661715266E+03   -0.81603E-03   -0.81600E-03  8424   0.103E-02-0.147E-04
CGA:   7    -0.669661956867E+03   -0.24160E-03   -0.24191E-03  8424   0.361E-03-0.116E-04
CGA:   8    -0.669662031602E+03   -0.74735E-04   -0.74758E-04  8424   0.113E-03 0.836E-04
CGA:   9    -0.669662060550E+03   -0.28947E-04   -0.29015E-04  8424   0.517E-04 0.500E-04
CGA:  10    -0.669662078972E+03   -0.18422E-04   -0.17638E-04  8424   0.315E-04 0.285E-04
CGA:  11    -0.669662084766E+03   -0.57940E-05   -0.60985E-05  8424   0.164E-04 0.177E-04
  11 F= -.66966208E+03 E0= -.66966208E+03  d E =-.683659E-02  mag=     2.0000
       N       E                     dE             d eps       ncg     rms          ort
SDA:   1    -0.669506963158E+03    0.15512E+00    0.00000E+00  8424   0.434E+00 0.000E+00
CGA:   2    -0.669612629445E+03   -0.10567E+00   -0.10569E+00  8424   0.204E+00-0.773E-03
CGA:   3    -0.669652990042E+03   -0.40361E-01   -0.40356E-01  8424   0.550E-01-0.275E-03
CGA:   4    -0.669661895994E+03   -0.89060E-02   -0.89251E-02  8424   0.129E-01 0.381E-03
CGA:   5    -0.669664090778E+03   -0.21948E-02   -0.22039E-02  8424   0.258E-02 0.226E-03
CGA:   6    -0.669664653573E+03   -0.56279E-03   -0.56337E-03  8424   0.741E-03-0.795E-04
CGA:   7    -0.669664812321E+03   -0.15875E-03   -0.15869E-03  8424   0.225E-03 0.448E-05
CGA:   8    -0.669664852433E+03   -0.40111E-04   -0.41860E-04  8424   0.723E-04 0.750E-04
CGA:   9    -0.669664866616E+03   -0.14184E-04   -0.16001E-04  8424   0.360E-04 0.437E-04
CGA:  10    -0.669664874080E+03   -0.74633E-05   -0.74378E-05  8424   0.215E-04 0.207E-04
  12 F= -.66966487E+03 E0= -.66966487E+03  d E =-.278931E-02  mag=     2.0000
       N       E                     dE             d eps       ncg     rms          ort
SDA:   1    -0.668815854084E+03    0.84901E+00    0.00000E+00  8424   0.232E+01 0.000E+00
CGA:   2    -0.669385692584E+03   -0.56984E+00   -0.56989E+00  8424   0.106E+01-0.171E-02
CGA:   3    -0.669598910709E+03   -0.21322E+00   -0.21321E+00  8424   0.293E+00-0.151E-02
CGA:   4    -0.669646446396E+03   -0.47536E-01   -0.47578E-01  8424   0.682E-01 0.103E-02
CGA:   5    -0.669658038705E+03   -0.11592E-01   -0.11612E-01  8424   0.137E-01 0.613E-03
CGA:   6    -0.669660957474E+03   -0.29188E-02   -0.29210E-02  8424   0.386E-02-0.194E-03
CGA:   7    -0.669661806738E+03   -0.84926E-03   -0.84835E-03  8424   0.114E-02 0.386E-04
CGA:   8    -0.669662063884E+03   -0.25715E-03   -0.25323E-03  8424   0.343E-03 0.205E-03
CGA:   9    -0.669662157858E+03   -0.93975E-04   -0.91272E-04  8424   0.142E-03 0.113E-03
CGA:  10    -0.669662188208E+03   -0.30350E-04   -0.33164E-04  8424   0.771E-04 0.102E-03
CGA:  11    -0.669662195435E+03   -0.72273E-05   -0.10804E-04  8424   0.498E-04 0.579E-04
  13 F= -.66966220E+03 E0= -.66966220E+03  d E =0.267864E-02  mag=     2.0000
       N       E                     dE             d eps       ncg     rms          ort
SDA:   1    -0.668546102378E+03    0.11161E+01    0.00000E+00  8424   0.311E+01 0.000E+00
CGA:   2    -0.669273481760E+03   -0.72738E+00   -0.72732E+00  8424   0.146E+01 0.724E-03
CGA:   3    -0.669566656692E+03   -0.29317E+00   -0.29318E+00  8424   0.399E+00-0.828E-03
CGA:   4    -0.669631051095E+03   -0.64394E-01   -0.64415E-01  8424   0.931E-01 0.553E-03
CGA:   5    -0.669647051744E+03   -0.16001E-01   -0.16013E-01  8424   0.196E-01 0.489E-03
CGA:   6    -0.669651091835E+03   -0.40401E-02   -0.40409E-02  8424   0.487E-02-0.748E-04
CGA:   7    -0.669652169403E+03   -0.10776E-02   -0.10742E-02  8424   0.142E-02 0.126E-03
CGA:   8    -0.669652487001E+03   -0.31760E-03   -0.31275E-03  8424   0.425E-03 0.275E-03
CGA:   9    -0.669652598434E+03   -0.11143E-03   -0.10863E-03  8424   0.175E-03 0.168E-03
CGA:  10    -0.669652634597E+03   -0.36163E-04   -0.40642E-04  8424   0.102E-03 0.139E-03
CGA:  11    -0.669652643944E+03   -0.93471E-05   -0.14046E-04  8424   0.697E-04 0.797E-04
  14 F= -.66965264E+03 E0= -.66965264E+03  d E =0.955149E-02  mag=     2.0000
       N       E                     dE             d eps       ncg     rms          ort
SDA:   1    -0.669052778739E+03    0.59986E+00    0.00000E+00  8424   0.171E+01 0.000E+00
CGA:   2    -0.669457597670E+03   -0.40482E+00   -0.40478E+00  8424   0.796E+00 0.559E-03
CGA:   3    -0.669615422553E+03   -0.15782E+00   -0.15782E+00  8424   0.217E+00 0.493E-03
CGA:   4    -0.669651063255E+03   -0.35641E-01   -0.35638E-01  8424   0.528E-01-0.152E-03
CGA:   5    -0.669660076264E+03   -0.90130E-02   -0.90124E-02  8424   0.108E-01-0.371E-04
CGA:   6    -0.669662178017E+03   -0.21018E-02   -0.21005E-02  8424   0.254E-02 0.268E-03
CGA:   7    -0.669662747930E+03   -0.56991E-03   -0.56544E-03  8424   0.750E-03 0.170E-03
CGA:   8    -0.669662944261E+03   -0.19633E-03   -0.19213E-03  8424   0.257E-03 0.865E-04
CGA:   9    -0.669663006406E+03   -0.62145E-04   -0.60533E-04  8424   0.102E-03 0.978E-04
CGA:  10    -0.669663031154E+03   -0.24748E-04   -0.25664E-04  8424   0.599E-04 0.749E-04
CGA:  11    -0.669663041483E+03   -0.10329E-04   -0.10867E-04  8424   0.375E-04 0.412E-04
CGA:  12    -0.669663043800E+03   -0.23175E-05   -0.47139E-05  8424   0.332E-04 0.351E-04
  15 F= -.66966304E+03 E0= -.66966304E+03  d E =-.103999E-01  mag=     2.0000
       N       E                     dE             d eps       ncg     rms          ort
SDA:   1    -0.669555488345E+03    0.10755E+00    0.00000E+00  8424   0.323E+00 0.000E+00
CGA:   2    -0.669627304698E+03   -0.71816E-01   -0.71811E-01  8424   0.148E+00 0.121E-03
CGA:   3    -0.669656673097E+03   -0.29368E-01   -0.29370E-01  8424   0.431E-01-0.209E-03
CGA:   4    -0.669663718743E+03   -0.70456E-02   -0.70471E-02  8424   0.103E-01 0.502E-04
CGA:   5    -0.669665483493E+03   -0.17648E-02   -0.17672E-02  8424   0.217E-02 0.144E-03
CGA:   6    -0.669665906914E+03   -0.42342E-03   -0.42289E-03  8424   0.483E-03 0.108E-03
CGA:   7    -0.669666008160E+03   -0.10125E-03   -0.10031E-03  8424   0.146E-03 0.904E-04
CGA:   8    -0.669666035839E+03   -0.27680E-04   -0.29208E-04  8424   0.616E-04 0.764E-04
CGA:   9    -0.669666041994E+03   -0.61548E-05   -0.83735E-05  8424   0.371E-04 0.434E-04
  16 F= -.66966604E+03 E0= -.66966604E+03  d E =-.299819E-02  mag=     2.0000
       N       E                     dE             d eps       ncg     rms          ort
SDA:   1    -0.668787880973E+03    0.87815E+00    0.00000E+00  8424   0.236E+01 0.000E+00
CGA:   2    -0.669375923409E+03   -0.58804E+00   -0.58805E+00  8424   0.117E+01-0.649E-03
CGA:   3    -0.669595382923E+03   -0.21946E+00   -0.21946E+00  8424   0.303E+00-0.293E-03
CGA:   4    -0.669645012406E+03   -0.49629E-01   -0.49631E-01  8424   0.717E-01 0.442E-04
CGA:   5    -0.669657485572E+03   -0.12473E-01   -0.12477E-01  8424   0.154E-01 0.392E-03
CGA:   6    -0.669660523546E+03   -0.30380E-02   -0.30325E-02  8424   0.353E-02 0.396E-03
CGA:   7    -0.669661334156E+03   -0.81061E-03   -0.80156E-03  8424   0.105E-02 0.234E-03
CGA:   8    -0.669661555123E+03   -0.22097E-03   -0.21810E-03  8424   0.332E-03 0.315E-03
CGA:   9    -0.669661612622E+03   -0.57499E-04   -0.65291E-04  8424   0.160E-03 0.228E-03
CGA:  10    -0.669661624856E+03   -0.12235E-04   -0.19602E-04  8424   0.103E-03 0.121E-03
CGA:  11    -0.669661625046E+03   -0.18931E-06   -0.90039E-05  8424   0.878E-04 0.945E-04
  17 F= -.66966163E+03 E0= -.66966163E+03  d E =0.441695E-02  mag=     2.0000
       N       E                     dE             d eps       ncg     rms          ort
SDA:   1    -0.655189057199E+03    0.14473E+02    0.00000E+00  8424   0.433E+02 0.000E+00
CGA:   2    -0.664298544418E+03   -0.91095E+01   -0.90993E+01  8424   0.187E+02 0.189E+00
CGA:   3    -0.668163242085E+03   -0.38647E+01   -0.38662E+01  8424   0.568E+01-0.360E-01
CGA:   4    -0.669094309807E+03   -0.93107E+00   -0.93111E+00  8424   0.138E+01 0.374E-03
CGA:   5    -0.669329591435E+03   -0.23528E+00   -0.23529E+00  8424   0.293E+00 0.141E-02
CGA:   6    -0.669388491392E+03   -0.58900E-01   -0.58955E-01  8424   0.683E-01-0.203E-02
CGA:   7    -0.669403726970E+03   -0.15236E-01   -0.15236E-01  8424   0.209E-01-0.244E-04
CGA:   8    -0.669409095598E+03   -0.53686E-02   -0.54322E-02  8424   0.730E-02-0.773E-03
CGA:   9    -0.669411186323E+03   -0.20907E-02   -0.24566E-02  8424   0.446E-02-0.219E-02
CGA:  10    -0.669411673556E+03   -0.48723E-03   -0.17243E-02  8424   0.695E-02-0.342E-02
CGA:  11    -0.669413164677E+03   -0.14911E-02   -0.14998E-02  8424   0.189E-02-0.115E-02
CGA:  12    -0.669413568307E+03   -0.40363E-03   -0.79722E-03  8424   0.275E-02-0.133E-02
CGA:  13    -0.669414221649E+03   -0.65334E-03   -0.71530E-03  8424   0.213E-02-0.171E-02
CGA:  14    -0.669414476227E+03   -0.25458E-03   -0.26637E-03  8424   0.118E-03 0.117E-03
CGA:  15    -0.669414666477E+03   -0.19025E-03    0.55564E-05  8424   0.100E-03 0.845E-04
CGA:  16    -0.669414861402E+03   -0.19493E-03    0.32274E-05  8424   0.855E-04 0.710E-04
CGA:  17    -0.669415022863E+03   -0.16146E-03    0.28698E-05  8424   0.782E-04 0.694E-04
CGA:  18    -0.669415204883E+03   -0.18202E-03    0.20135E-05  8424   0.730E-04 0.673E-04
CGA:  19    -0.669415364588E+03   -0.15971E-03    0.20304E-05  8424   0.691E-04 0.650E-04
CGA:  20    -0.669415539332E+03   -0.17474E-03    0.16077E-05  8424   0.660E-04 0.627E-04
CGA:  21    -0.669415696226E+03   -0.15689E-03    0.16542E-05  8424   0.635E-04 0.604E-04
CGA:  22    -0.669415866265E+03   -0.17004E-03    0.13768E-05  8424   0.614E-04 0.583E-04
CGA:  23    -0.669416019607E+03   -0.15334E-03    0.14498E-05  8424   0.597E-04 0.562E-04
CGA:  24    -0.669416186478E+03   -0.16687E-03    0.12324E-05  8424   0.584E-04 0.542E-04
CGA:  25    -0.669416335884E+03   -0.14941E-03    0.13377E-05  8424   0.573E-04 0.523E-04
CGA:  26    -0.669416500519E+03   -0.16464E-03    0.11447E-05  8424   0.565E-04 0.503E-04
CGA:  27    -0.669416645841E+03   -0.14532E-03    0.12897E-05  8424   0.561E-04 0.483E-04
CGA:  28    -0.669416808787E+03   -0.16295E-03    0.11045E-05  8424   0.559E-04 0.462E-04
CGA:  29    -0.669416950001E+03   -0.14121E-03    0.13019E-05  8424   0.561E-04 0.438E-04
CGA:  30    -0.669417111564E+03   -0.16156E-03    0.11166E-05  8424   0.567E-04 0.413E-04
CGA:  31    -0.669417248688E+03   -0.13712E-03    0.13912E-05  8424   0.578E-04 0.384E-04
CGA:  32    -0.669417409037E+03   -0.16035E-03    0.12012E-05  8424   0.594E-04 0.351E-04
CGA:  33    -0.669417542086E+03   -0.13305E-03    0.16046E-05  8424   0.618E-04 0.313E-04
CGA:  34    -0.669417701292E+03   -0.15921E-03    0.14067E-05  8424   0.651E-04 0.267E-04
CGA:  35    -0.669417999430E+03   -0.29814E-03    0.16418E-05  8424   0.585E-04 0.912E-04
CGA:  36    -0.669418126131E+03   -0.12670E-03    0.16459E-05  8424   0.614E-04 0.252E-04
CGA:  37    -0.669418416196E+03   -0.29007E-03    0.14892E-05  8424   0.555E-04 0.860E-04
CGA:  38    -0.669418569763E+03   -0.15357E-03    0.11571E-05  8424   0.581E-04 0.238E-04
CGA:  39    -0.669418852615E+03   -0.28285E-03    0.13610E-05  8424   0.528E-04 0.815E-04
CGA:  40    -0.669418971255E+03   -0.11864E-03    0.14189E-05  8424   0.552E-04 0.225E-04
CGA:  41    -0.669419246921E+03   -0.27567E-03    0.12506E-05  8424   0.503E-04 0.773E-04
CGA:  42    -0.669419395238E+03   -0.14832E-03    0.97548E-06  8424   0.524E-04 0.214E-04
CGA:  43    -0.669419663781E+03   -0.26854E-03    0.11516E-05  8424   0.481E-04 0.734E-04
CGA:  44    -0.669419774997E+03   -0.11122E-03    0.12464E-05  8424   0.500E-04 0.203E-04
CGA:  45    -0.669420036959E+03   -0.26196E-03    0.10656E-05  8424   0.460E-04 0.699E-04
CGA:  46    -0.669420180234E+03   -0.14328E-03    0.83425E-06  8424   0.475E-04 0.194E-04
CGA:  47    -0.669420435229E+03   -0.25500E-03    0.98563E-06  8424   0.440E-04 0.664E-04
CGA:  48    -0.669420539621E+03   -0.10439E-03    0.11043E-05  8424   0.454E-04 0.185E-04
CGA:  49    -0.669420788410E+03   -0.24879E-03    0.91534E-06  8424   0.421E-04 0.633E-04
CGA:  50    -0.669420926714E+03   -0.13830E-03    0.71794E-06  8424   0.431E-04 0.178E-04
CGA:  51    -0.669421168611E+03   -0.24190E-03    0.84868E-06  8424   0.402E-04 0.602E-04
CGA:  52    -0.669421266874E+03   -0.98262E-04    0.97501E-06  8424   0.410E-04 0.171E-04
CGA:  53    -0.669421502679E+03   -0.23581E-03    0.78903E-06  8424   0.384E-04 0.573E-04
CGA:  54    -0.669421635842E+03   -0.13316E-03    0.61565E-06  8424   0.386E-04 0.167E-04
CGA:  55    -0.669421864562E+03   -0.22872E-03    0.73191E-06  8424   0.365E-04 0.543E-04
CGA:  56    -0.669421957728E+03   -0.93166E-04    0.84010E-06  8424   0.364E-04 0.165E-04
CGA:  57    -0.669422180186E+03   -0.22246E-03    0.67901E-06  8424   0.346E-04 0.516E-04
CGA:  58    -0.669422307567E+03   -0.12738E-03    0.51866E-06  8424   0.338E-04 0.166E-04
CGA:  59    -0.669422522400E+03   -0.21483E-03    0.62904E-06  8424   0.326E-04 0.486E-04
CGA:  60    -0.669422612076E+03   -0.89677E-04    0.68574E-06  8424   0.313E-04 0.168E-04
CGA:  61    -0.669422734703E+03   -0.12263E-03    0.43629E-06  8424   0.311E-04 0.166E-04
CGA:  62    -0.669422823195E+03   -0.88492E-04    0.62712E-06  8424   0.311E-04 0.160E-04
CGA:  63    -0.669422943871E+03   -0.12068E-03    0.43813E-06  8424   0.312E-04 0.153E-04
CGA:  64    -0.669423152181E+03   -0.20831E-03    0.55798E-06  8424   0.297E-04 0.458E-04
CGA:  65    -0.669423237439E+03   -0.85257E-04    0.59490E-06  8424   0.297E-04 0.147E-04
CGA:  66    -0.669423440431E+03   -0.20299E-03    0.52300E-06  8424   0.284E-04 0.438E-04
CGA:  67    -0.669423556599E+03   -0.11617E-03    0.37826E-06  8424   0.284E-04 0.142E-04
CGA:  68    -0.669423755149E+03   -0.19855E-03    0.49030E-06  8424   0.272E-04 0.420E-04
CGA:  69    -0.669423835658E+03   -0.80510E-04    0.52370E-06  8424   0.272E-04 0.137E-04
CGA:  70    -0.669423948775E+03   -0.11312E-03    0.35414E-06  8424   0.272E-04 0.131E-04
CGA:  71    -0.669424141438E+03   -0.19266E-03    0.45114E-06  8424   0.260E-04 0.397E-04
CGA:  72    -0.669424218955E+03   -0.77517E-04    0.49842E-06  8424   0.259E-04 0.126E-04
CGA:  73    -0.669424406421E+03   -0.18747E-03    0.42248E-06  8424   0.249E-04 0.380E-04
CGA:  74    -0.669424515250E+03   -0.10883E-03    0.30778E-06  8424   0.248E-04 0.122E-04
CGA:  75    -0.669424698620E+03   -0.18337E-03    0.39672E-06  8424   0.239E-04 0.364E-04
CGA:  76    -0.669424771872E+03   -0.73252E-04    0.44068E-06  8424   0.237E-04 0.117E-04
CGA:  77    -0.669424950512E+03   -0.17864E-03    0.37235E-06  8424   0.228E-04 0.348E-04
CGA:  78    -0.669425055060E+03   -0.10455E-03    0.26813E-06  8424   0.226E-04 0.114E-04
CGA:  79    -0.669425229411E+03   -0.17435E-03    0.34906E-06  8424   0.219E-04 0.333E-04
CGA:  80    -0.669425298807E+03   -0.69396E-04    0.38890E-06  8424   0.215E-04 0.110E-04
CGA:  81    -0.669425400226E+03   -0.10142E-03    0.24533E-06  8424   0.213E-04 0.108E-04
CGA:  82    -0.669425468928E+03   -0.68703E-04    0.37253E-06  8424   0.211E-04 0.106E-04
CGA:  83    -0.669425636533E+03   -0.16761E-03    0.31652E-06  8424   0.204E-04 0.312E-04
CGA:  84    -0.669425735015E+03   -0.98482E-04    0.22686E-06  8424   0.202E-04 0.103E-04
CGA:  85    -0.669425801546E+03   -0.66531E-04    0.34344E-06  8424   0.200E-04 0.101E-04
CGA:  86    -0.669425963945E+03   -0.16240E-03    0.29222E-06  8424   0.194E-04 0.296E-04
CGA:  87    -0.669426059503E+03   -0.95559E-04    0.20958E-06  8424   0.191E-04 0.977E-05
CGA:  88    -0.669426124063E+03   -0.64559E-04    0.31385E-06  8424   0.188E-04 0.964E-05
CGA:  89    -0.669426217409E+03   -0.93347E-04    0.20207E-06  8424   0.186E-04 0.953E-05
CGA:  90    -0.669426281657E+03   -0.64248E-04    0.29833E-06  8424   0.184E-04 0.936E-05
CGA:  91    -0.669426372945E+03   -0.91288E-04    0.19705E-06  8424   0.182E-04 0.920E-05
CGA:  92    -0.669426436760E+03   -0.63815E-04    0.28780E-06  8424   0.181E-04 0.898E-05
CGA:  93    -0.669426589577E+03   -0.15282E-03    0.25071E-06  8424   0.175E-04 0.266E-04
CGA:  94    -0.669426678190E+03   -0.88613E-04    0.18298E-06  8424   0.172E-04 0.871E-05
CGA:  95    -0.669426827512E+03   -0.14932E-03    0.23509E-06  8424   0.167E-04 0.255E-04
CGA:  96    -0.669426887688E+03   -0.60176E-04    0.25766E-06  8424   0.166E-04 0.836E-05
CGA:  97    -0.669427033599E+03   -0.14591E-03    0.22352E-06  8424   0.161E-04 0.246E-04
CGA:  98    -0.669427118869E+03   -0.85270E-04    0.16044E-06  8424   0.159E-04 0.811E-05
CGA:  99    -0.669427177116E+03   -0.58247E-04    0.23906E-06  8424   0.157E-04 0.794E-05
CGA: 100    -0.669427260623E+03   -0.83508E-04    0.15725E-06  8424   0.156E-04 0.779E-05
CGA: 101    -0.669427401192E+03   -0.14057E-03    0.20271E-06  8424   0.151E-04 0.230E-04
CGA: 102    -0.669427457518E+03   -0.56326E-04    0.22337E-06  8424   0.150E-04 0.751E-05
CGA: 103    -0.669427594612E+03   -0.13709E-03    0.19243E-06  8424   0.145E-04 0.222E-04
CGA: 104    -0.669427674983E+03   -0.80371E-04    0.13832E-06  8424   0.144E-04 0.727E-05
CGA: 105    -0.669427729474E+03   -0.54491E-04    0.20816E-06  8424   0.143E-04 0.711E-05
CGA: 106    -0.669427862334E+03   -0.13286E-03    0.17867E-06  8424   0.138E-04 0.210E-04
CGA: 107    -0.669427940365E+03   -0.78032E-04    0.12887E-06  8424   0.136E-04 0.692E-05
CGA: 108    -0.669427993182E+03   -0.52817E-04    0.19226E-06  8424   0.135E-04 0.681E-05
CGA: 109    -0.669428069462E+03   -0.76280E-04    0.12522E-06  8424   0.133E-04 0.672E-05
CGA: 110    -0.669428197399E+03   -0.12794E-03    0.16231E-06  8424   0.129E-04 0.197E-04
CGA: 111    -0.669428248535E+03   -0.51136E-04    0.17884E-06  8424   0.128E-04 0.648E-05
CGA: 112    -0.669428322627E+03   -0.74092E-04    0.11668E-06  8424   0.127E-04 0.634E-05
CGA: 113    -0.669428446909E+03   -0.12428E-03    0.15157E-06  8424   0.123E-04 0.188E-04
CGA: 114    -0.669428496345E+03   -0.49436E-04    0.16796E-06  8424   0.122E-04 0.614E-05
CGA: 115    -0.669428617247E+03   -0.12090E-03    0.14385E-06  8424   0.119E-04 0.181E-04
CGA: 116    -0.669428688577E+03   -0.71330E-04    0.10322E-06  8424   0.117E-04 0.593E-05
CGA: 117    -0.669428736405E+03   -0.47828E-04    0.15688E-06  8424   0.116E-04 0.582E-05
CGA: 118    -0.669428853747E+03   -0.11734E-03    0.13423E-06  8424   0.113E-04 0.172E-04
CGA: 119    -0.669428923005E+03   -0.69258E-04    0.96437E-07  8424   0.111E-04 0.566E-05
CGA: 120    -0.669428969346E+03   -0.46340E-04    0.14559E-06  8424   0.110E-04 0.557E-05
CGA: 121    -0.669429037067E+03   -0.67721E-04    0.93964E-07  8424   0.109E-04 0.550E-05
CGA: 122    -0.669429150143E+03   -0.11308E-03    0.12251E-06  8424   0.106E-04 0.161E-04
CGA: 123    -0.669429195001E+03   -0.44858E-04    0.13599E-06  8424   0.105E-04 0.531E-05
CGA: 124    -0.669429260776E+03   -0.65774E-04    0.87735E-07  8424   0.104E-04 0.520E-05
CGA: 125    -0.669429370582E+03   -0.10981E-03    0.11469E-06  8424   0.101E-04 0.154E-04
CGA: 126    -0.669429413962E+03   -0.43380E-04    0.12789E-06  8424   0.100E-04 0.505E-05
CGA: 127    -0.669429520733E+03   -0.10677E-03    0.10910E-06  8424   0.974E-05 0.148E-04
CGA: 128    -0.669429584077E+03   -0.63344E-04    0.77997E-07  8424   0.964E-05 0.488E-05
CGA: 129    -0.669429626061E+03   -0.41984E-04    0.11958E-06  8424   0.955E-05 0.480E-05
CGA: 130    -0.669429729716E+03   -0.10366E-03    0.10214E-06  8424   0.929E-05 0.141E-04
CGA: 131    -0.669429791215E+03   -0.61499E-04    0.72981E-07  8424   0.916E-05 0.467E-05
CGA: 132    -0.669429831907E+03   -0.40692E-04    0.11113E-06  8424   0.906E-05 0.461E-05
CGA: 133    -0.669429892014E+03   -0.60107E-04    0.71018E-07  8424   0.895E-05 0.456E-05
CGA: 134    -0.669429932508E+03   -0.40495E-04    0.10653E-06  8424   0.888E-05 0.448E-05
CGA: 135    -0.669429991310E+03   -0.58802E-04    0.69704E-07  8424   0.880E-05 0.441E-05
CGA: 136    -0.669430089871E+03   -0.98561E-04    0.90822E-07  8424   0.855E-05 0.130E-04
CGA: 137    -0.669430129041E+03   -0.39169E-04    0.10027E-06  8424   0.849E-05 0.426E-05
CGA: 138    -0.669430225115E+03   -0.96075E-04    0.86844E-07  8424   0.824E-05 0.126E-04
CGA: 139    -0.669430281778E+03   -0.56663E-04    0.62106E-07  8424   0.817E-05 0.414E-05
CGA: 140    -0.669430319649E+03   -0.37871E-04    0.94537E-07  8424   0.812E-05 0.405E-05
CGA: 141    -0.669430412876E+03   -0.93227E-04    0.81458E-07  8424   0.788E-05 0.120E-04
CGA: 142    -0.669430467934E+03   -0.55059E-04    0.58447E-07  8424   0.779E-05 0.394E-05
CGA: 143    -0.669430504599E+03   -0.36665E-04    0.88586E-07  8424   0.772E-05 0.388E-05
CGA: 144    -0.669430594876E+03   -0.90277E-04    0.76298E-07  8424   0.752E-05 0.114E-04
CGA: 145    -0.669430648325E+03   -0.53449E-04    0.54741E-07  8424   0.740E-05 0.379E-05
CGA: 146    -0.669430683900E+03   -0.35575E-04    0.82239E-07  8424   0.732E-05 0.375E-05
CGA: 147    -0.669430736090E+03   -0.52190E-04    0.53086E-07  8424   0.723E-05 0.371E-05
CGA: 148    -0.669430771520E+03   -0.35431E-04    0.78694E-07  8424   0.717E-05 0.365E-05
CGA: 149    -0.669430822576E+03   -0.51055E-04    0.52166E-07  8424   0.712E-05 0.359E-05
CGA: 150    -0.669430857755E+03   -0.35180E-04    0.76791E-07  8424   0.709E-05 0.350E-05
CGA: 151    -0.669430942885E+03   -0.85130E-04    0.67583E-07  8424   0.687E-05 0.105E-04
CGA: 152    -0.669430992506E+03   -0.49620E-04    0.49208E-07  8424   0.681E-05 0.341E-05
CGA: 153    -0.669431075749E+03   -0.83243E-04    0.64151E-07  8424   0.662E-05 0.101E-04
CGA: 154    -0.669431108884E+03   -0.33135E-04    0.70422E-07  8424   0.661E-05 0.329E-05
CGA: 155    -0.669431190308E+03   -0.81425E-04    0.61697E-07  8424   0.639E-05 0.978E-05
CGA: 156    -0.669431238141E+03   -0.47833E-04    0.44034E-07  8424   0.635E-05 0.321E-05
CGA: 157    -0.669431270132E+03   -0.31991E-04    0.67143E-07  8424   0.634E-05 0.312E-05
CGA: 158    -0.669431349068E+03   -0.78936E-04    0.58024E-07  8424   0.614E-05 0.934E-05
CGA: 159    -0.669431395610E+03   -0.46542E-04    0.41751E-07  8424   0.608E-05 0.305E-05
CGA: 160    -0.669431472675E+03   -0.77065E-04    0.55066E-07  8424   0.592E-05 0.900E-05
CGA: 161    -0.669431502816E+03   -0.30141E-04    0.61794E-07  8424   0.590E-05 0.294E-05
CGA: 162    -0.669431578179E+03   -0.75363E-04    0.52984E-07  8424   0.572E-05 0.873E-05
CGA: 163    -0.669431623047E+03   -0.44868E-04    0.37497E-07  8424   0.567E-05 0.287E-05
CGA: 164    -0.669431652189E+03   -0.29142E-04    0.58572E-07  8424   0.564E-05 0.281E-05
CGA: 165    -0.669431725180E+03   -0.72991E-04    0.49855E-07  8424   0.548E-05 0.834E-05
CGA: 166    -0.669431768802E+03   -0.43622E-04    0.35418E-07  8424   0.541E-05 0.275E-05
CGA: 167    -0.669431797052E+03   -0.28250E-04    0.54917E-07  8424   0.536E-05 0.272E-05
CGA: 168    -0.669431839699E+03   -0.42647E-04    0.34611E-07  8424   0.530E-05 0.269E-05
CGA: 169    -0.669431867817E+03   -0.28118E-04    0.52965E-07  8424   0.527E-05 0.264E-05
CGA: 170    -0.669431937513E+03   -0.69696E-04    0.45654E-07  8424   0.513E-05 0.780E-05
CGA: 171    -0.669431978943E+03   -0.41430E-04    0.32609E-07  8424   0.506E-05 0.258E-05
CGA: 172    -0.669432006196E+03   -0.27252E-04    0.49732E-07  8424   0.502E-05 0.254E-05
CGA: 173    -0.669432046704E+03   -0.40509E-04    0.31968E-07  8424   0.498E-05 0.251E-05
CGA: 174    -0.669432073807E+03   -0.27103E-04    0.48297E-07  8424   0.495E-05 0.246E-05
CGA: 175    -0.669432140498E+03   -0.66691E-04    0.41955E-07  8424   0.481E-05 0.732E-05
CGA: 176    -0.669432179874E+03   -0.39376E-04    0.30217E-07  8424   0.477E-05 0.240E-05
CGA: 177    -0.669432245103E+03   -0.65229E-04    0.39928E-07  8424   0.465E-05 0.707E-05
CGA: 178    -0.669432270622E+03   -0.25518E-04    0.44669E-07  8424   0.463E-05 0.232E-05
CGA: 179    -0.669432334438E+03   -0.63816E-04    0.38566E-07  8424   0.449E-05 0.687E-05
CGA: 180    -0.669432372436E+03   -0.37998E-04    0.27219E-07  8424   0.446E-05 0.226E-05
CGA: 181    -0.669432397094E+03   -0.24658E-04    0.42611E-07  8424   0.445E-05 0.221E-05
CGA: 182    -0.669432458978E+03   -0.61884E-04    0.36429E-07  8424   0.432E-05 0.658E-05
CGA: 183    -0.669432495952E+03   -0.36974E-04    0.25835E-07  8424   0.427E-05 0.216E-05
CGA: 184    -0.669432519825E+03   -0.23872E-04    0.40338E-07  8424   0.425E-05 0.213E-05
CGA: 185    -0.669432579777E+03   -0.59953E-04    0.34387E-07  8424   0.414E-05 0.629E-05
CGA: 186    -0.669432615711E+03   -0.35934E-04    0.24395E-07  8424   0.408E-05 0.208E-05
CGA: 187    -0.669432638871E+03   -0.23159E-04    0.37849E-07  8424   0.404E-05 0.206E-05
CGA: 188    -0.669432673981E+03   -0.35111E-04    0.23828E-07  8424   0.400E-05 0.204E-05
CGA: 189    -0.669432697048E+03   -0.23067E-04    0.36544E-07  8424   0.398E-05 0.200E-05
CGA: 190    -0.669432731426E+03   -0.34378E-04    0.23609E-07  8424   0.396E-05 0.196E-05
CGA: 191    -0.669432788546E+03   -0.57120E-04    0.31185E-07  8424   0.385E-05 0.585E-05
CGA: 192    -0.669432810839E+03   -0.22293E-04    0.34930E-07  8424   0.384E-05 0.190E-05
CGA: 193    -0.669432866634E+03   -0.55795E-04    0.30102E-07  8424   0.372E-05 0.568E-05
CGA: 194    -0.669432899848E+03   -0.33215E-04    0.21312E-07  8424   0.371E-05 0.186E-05
CGA: 195    -0.669432954512E+03   -0.54663E-04    0.28813E-07  8424   0.360E-05 0.551E-05
CGA: 196    -0.669432975495E+03   -0.20983E-04    0.32446E-07  8424   0.360E-05 0.180E-05
CGA: 197    -0.669433007882E+03   -0.32386E-04    0.20387E-07  8424   0.360E-05 0.175E-05
CGA: 198    -0.669433061009E+03   -0.53127E-04    0.27347E-07  8424   0.348E-05 0.529E-05
CGA: 199    -0.669433081219E+03   -0.20210E-04    0.31549E-07  8424   0.347E-05 0.171E-05
CGA: 200    -0.669433132929E+03   -0.51710E-04    0.26247E-07  8424   0.337E-05 0.511E-05
  18 F= -.66943313E+03 E0= -.66943313E+03  d E =0.228492E+00  mag=     2.0000
       N       E                     dE             d eps       ncg     rms          ort
SDA:   1    -0.666333913032E+03    0.30992E+01    0.00000E+00  8424   0.102E+02 0.000E+00
CGA:   2    -0.668462316519E+03   -0.21284E+01   -0.21287E+01  8424   0.436E+01 0.148E-01
CGA:   3    -0.669361629532E+03   -0.89931E+00   -0.89921E+00  8424   0.135E+01-0.561E-02
CGA:   4    -0.669582129977E+03   -0.22050E+00   -0.22059E+00  8424   0.327E+00 0.102E-02
CGA:   5    -0.669638240847E+03   -0.56111E-01   -0.56171E-01  8424   0.700E-01 0.125E-02
CGA:   6    -0.669652291340E+03   -0.14050E-01   -0.14047E-01  8424   0.157E-01-0.242E-03
CGA:   7    -0.669655639830E+03   -0.33485E-02   -0.33483E-02  8424   0.443E-02 0.696E-03
CGA:   8    -0.669656672670E+03   -0.10328E-02   -0.10281E-02  8424   0.125E-02 0.554E-03
CGA:   9    -0.669656964238E+03   -0.29157E-03   -0.29348E-03  8424   0.398E-03 0.390E-03
CGA:  10    -0.669657009870E+03   -0.45633E-04   -0.70665E-04  8424   0.214E-03 0.319E-03
CGA:  11    -0.669657013613E+03   -0.37425E-05   -0.22223E-04  8424   0.149E-03 0.174E-03
CGA:  12    -0.669657009441E+03    0.41719E-05   -0.12344E-04  8424   0.125E-03 0.136E-03
  19 F= -.66965701E+03 E0= -.66965701E+03  d E =-.223877E+00  mag=     2.0000
       N       E                     dE             d eps       ncg     rms          ort
SDA:   1    -0.668514350131E+03    0.11427E+01    0.00000E+00  8424   0.361E+01 0.000E+00
CGA:   2    -0.669275308401E+03   -0.76096E+00   -0.76084E+00  8424   0.157E+01 0.518E-02
CGA:   3    -0.669597012876E+03   -0.32170E+00   -0.32173E+00  8424   0.486E+00-0.187E-02
CGA:   4    -0.669676247472E+03   -0.79235E-01   -0.79264E-01  8424   0.117E+00 0.861E-03
CGA:   5    -0.669696206362E+03   -0.19959E-01   -0.19984E-01  8424   0.247E-01 0.114E-02
CGA:   6    -0.669701116441E+03   -0.49101E-02   -0.49075E-02  8424   0.552E-02 0.461E-03
CGA:   7    -0.669702224912E+03   -0.11085E-02   -0.11045E-02  8424   0.149E-02 0.737E-03
CGA:   8    -0.669702505058E+03   -0.28015E-03   -0.29142E-03  8424   0.481E-03 0.602E-03
CGA:   9    -0.669702554748E+03   -0.49690E-04   -0.79206E-04  8424   0.247E-03 0.403E-03
CGA:  10    -0.669702553628E+03    0.11198E-05   -0.20491E-04  8424   0.182E-03 0.208E-03
CGA:  11    -0.669702545692E+03    0.79363E-05   -0.11776E-04  8424   0.157E-03 0.168E-03
  20 F= -.66970255E+03 E0= -.66970255E+03  d E =-.455363E-01  mag=     2.0000
       N       E                     dE             d eps       ncg     rms          ort
SDA:   1    -0.669597706883E+03    0.10485E+00    0.00000E+00  8424   0.328E+00 0.000E+00
CGA:   2    -0.669668170429E+03   -0.70464E-01   -0.70429E-01  8424   0.146E+00 0.718E-03
CGA:   3    -0.669697537885E+03   -0.29367E-01   -0.29351E-01  8424   0.440E-01 0.547E-03
CGA:   4    -0.669704704488E+03   -0.71666E-02   -0.71746E-02  8424   0.105E-01 0.720E-03
CGA:   5    -0.669706435266E+03   -0.17308E-02   -0.17385E-02  8424   0.204E-02 0.781E-03
CGA:   6    -0.669706758998E+03   -0.32373E-03   -0.33550E-03  8424   0.485E-03 0.622E-03
CGA:   7    -0.669706792018E+03   -0.33020E-04   -0.61367E-04  8424   0.238E-03 0.380E-03
CGA:   8    -0.669706787888E+03    0.41303E-05   -0.16067E-04  8424   0.175E-03 0.201E-03
  21 F= -.66970679E+03 E0= -.66970679E+03  d E =-.424220E-02  mag=     2.0000
       N       E                     dE             d eps       ncg     rms          ort
SDA:   1    -0.669472499869E+03    0.23429E+00    0.00000E+00  8424   0.652E+00 0.000E+00
CGA:   2    -0.669631991929E+03   -0.15949E+00   -0.15944E+00  8424   0.318E+00 0.547E-03
CGA:   3    -0.669691179202E+03   -0.59187E-01   -0.59170E-01  8424   0.820E-01 0.662E-03
CGA:   4    -0.669704536933E+03   -0.13358E-01   -0.13358E-01  8424   0.198E-01 0.651E-03
CGA:   5    -0.669707908226E+03   -0.33713E-02   -0.33654E-02  8424   0.393E-02 0.954E-03
CGA:   6    -0.669708585998E+03   -0.67777E-03   -0.67677E-03  8424   0.849E-03 0.879E-03
CGA:   7    -0.669708691076E+03   -0.10508E-03   -0.12683E-03  8424   0.356E-03 0.530E-03
CGA:   8    -0.669708702213E+03   -0.11137E-04   -0.31453E-04  8424   0.235E-03 0.279E-03
CGA:   9    -0.669708697210E+03    0.50023E-05   -0.14880E-04  8424   0.194E-03 0.211E-03
CGA:  10    -0.669708689171E+03    0.80397E-05   -0.10126E-04  8424   0.171E-03 0.181E-03
  22 F= -.66970869E+03 E0= -.66970869E+03  d E =-.190128E-02  mag=     2.0000
       N       E                     dE             d eps       ncg     rms          ort
SDA:   1    -0.669531625475E+03    0.17707E+00    0.00000E+00  8424   0.498E+00 0.000E+00
CGA:   2    -0.669651466382E+03   -0.11984E+00   -0.11973E+00  8424   0.247E+00 0.105E-02
CGA:   3    -0.669698982490E+03   -0.47516E-01   -0.47480E-01  8424   0.691E-01 0.780E-03
CGA:   4    -0.669709856515E+03   -0.10874E-01   -0.10870E-01  8424   0.156E-01 0.482E-03
CGA:   5    -0.669712498507E+03   -0.26420E-02   -0.26273E-02  8424   0.296E-02 0.852E-03
CGA:   6    -0.669712986104E+03   -0.48760E-03   -0.48384E-03  8424   0.712E-03 0.860E-03
CGA:   7    -0.669713059970E+03   -0.73866E-04   -0.97230E-04  8424   0.323E-03 0.516E-03
CGA:   8    -0.669713065659E+03   -0.56891E-05   -0.24726E-04  8424   0.225E-03 0.263E-03
CGA:   9    -0.669713060323E+03    0.53357E-05   -0.12697E-04  8424   0.187E-03 0.203E-03
  23 F= -.66971306E+03 E0= -.66971306E+03  d E =-.437115E-02  mag=     2.0000
       N       E                     dE             d eps       ncg     rms          ort
SDA:   1    -0.653795194129E+03    0.15918E+02    0.00000E+00  8424   0.495E+02 0.000E+00
CGA:   2    -0.663784664978E+03   -0.99895E+01   -0.99582E+01  8424   0.201E+02 0.409E+00
CGA:   3    -0.668053014725E+03   -0.42683E+01   -0.42732E+01  8424   0.634E+01-0.636E-01
CGA:   4    -0.669101723358E+03   -0.10487E+01   -0.10486E+01  8424   0.158E+01-0.166E-03
CGA:   5    -0.669368888626E+03   -0.26717E+00   -0.26710E+00  8424   0.323E+00 0.190E-02
CGA:   6    -0.669434465101E+03   -0.65576E-01   -0.65652E-01  8424   0.775E-01-0.134E-02
CGA:   7    -0.669451927674E+03   -0.17463E-01   -0.17405E-01  8424   0.234E-01 0.736E-03
CGA:   8    -0.669457818135E+03   -0.58905E-02   -0.58335E-02  8424   0.739E-02 0.595E-03
CGA:   9    -0.669460011198E+03   -0.21931E-02   -0.23024E-02  8424   0.326E-02-0.745E-03
CGA:  10    -0.669460933516E+03   -0.92232E-03   -0.98752E-03  8424   0.164E-02-0.378E-03
CGA:  11    -0.669461185376E+03   -0.25186E-03   -0.82241E-03  8424   0.288E-02-0.145E-02
CGA:  12    -0.669461677240E+03   -0.49186E-03   -0.49546E-03  8424   0.475E-03 0.174E-03
CGA:  13    -0.669461870832E+03   -0.19359E-03    0.12036E-01  8424   0.160E-03 0.199E-03
CGA:  14    -0.669461993902E+03   -0.12307E-03    0.52123E-04  8424   0.109E-03 0.118E-03
CGA:  15    -0.669462052708E+03   -0.58807E-04    0.25631E-04  8424   0.731E-04 0.666E-04
CGA:  16    -0.669462120619E+03   -0.67910E-04    0.49053E-05  8424   0.594E-04 0.595E-04
CGA:  17    -0.669462174075E+03   -0.53456E-04    0.42061E-05  8424   0.510E-04 0.529E-04
CGA:  18    -0.669462230217E+03   -0.56142E-04    0.26088E-05  8424   0.451E-04 0.470E-04
CGA:  19    -0.669462280473E+03   -0.50256E-04    0.22547E-05  8424   0.404E-04 0.422E-04
CGA:  20    -0.669462331159E+03   -0.50686E-04    0.16975E-05  8424   0.367E-04 0.382E-04
CGA:  21    -0.669462378523E+03   -0.47364E-04    0.14836E-05  8424   0.338E-04 0.350E-04
CGA:  22    -0.669462426161E+03   -0.47638E-04    0.12030E-05  8424   0.314E-04 0.324E-04
CGA:  23    -0.669462471148E+03   -0.44987E-04    0.10940E-05  8424   0.294E-04 0.302E-04
CGA:  24    -0.669462517014E+03   -0.45866E-04    0.91612E-06  8424   0.278E-04 0.284E-04
CGA:  25    -0.669462559735E+03   -0.42721E-04    0.88327E-06  8424   0.265E-04 0.268E-04
CGA:  26    -0.669462604941E+03   -0.45205E-04    0.73220E-06  8424   0.254E-04 0.254E-04
[...]
CGA:  58    -0.669784372131E+03   -0.13342E-03    0.35969E-06  8424   0.165E-04 0.258E-04
CGA:  59    -0.669784421302E+03   -0.49171E-04    0.41868E-06  8424   0.176E-04 0.702E-05
CGA:  60    -0.669784553084E+03   -0.13178E-03    0.33001E-06  8424   0.157E-04 0.246E-04
CGA:  61    -0.669784629030E+03   -0.75946E-04    0.22727E-06  8424   0.168E-04 0.661E-05
CGA:  62    -0.669784755664E+03   -0.12663E-03    0.31021E-06  8424   0.150E-04 0.233E-04
CGA:  63    -0.669784801558E+03   -0.45894E-04    0.36559E-06  8424   0.160E-04 0.618E-05
CGA:  64    -0.669784926747E+03   -0.12519E-03    0.28297E-06  8424   0.143E-04 0.222E-04
CGA:  65    -0.669784999067E+03   -0.72320E-04    0.19626E-06  8424   0.153E-04 0.582E-05
CGA:  66    -0.669785118700E+03   -0.11963E-03    0.26537E-06  8424   0.137E-04 0.210E-04
CGA:  67    -0.669785161571E+03   -0.42871E-04    0.32432E-06  8424   0.146E-04 0.541E-05
CGA:  68    -0.669785279789E+03   -0.11822E-03    0.24136E-06  8424   0.131E-04 0.200E-04
CGA:  69    -0.669785348619E+03   -0.68830E-04    0.17251E-06  8424   0.139E-04 0.506E-05
CGA:  70    -0.669785461282E+03   -0.11266E-03    0.22599E-06  8424   0.126E-04 0.189E-04
CGA:  71    -0.669785501381E+03   -0.40099E-04    0.29274E-06  8424   0.133E-04 0.467E-05
CGA:  72    -0.669785612551E+03   -0.11117E-03    0.20526E-06  8424   0.121E-04 0.179E-04
CGA:  73    -0.669785677991E+03   -0.65440E-04    0.15447E-06  8424   0.127E-04 0.435E-05
CGA:  74    -0.669785783757E+03   -0.10577E-03    0.19190E-06  8424   0.116E-04 0.169E-04
CGA:  75    -0.669785821417E+03   -0.37660E-04    0.26683E-06  8424   0.121E-04 0.402E-05
CGA:  76    -0.669785925545E+03   -0.10413E-03    0.17410E-06  8424   0.112E-04 0.160E-04
CGA:  77    -0.669785987544E+03   -0.61999E-04    0.13979E-06  8424   0.115E-04 0.377E-05
CGA:  78    -0.669786086392E+03   -0.98848E-04    0.16255E-06  8424   0.108E-04 0.151E-04
CGA:  79    -0.669786122169E+03   -0.35778E-04    0.23853E-06  8424   0.109E-04 0.356E-05
CGA:  80    -0.669786219232E+03   -0.97062E-04    0.14717E-06  8424   0.103E-04 0.142E-04
CGA:  81    -0.669786277460E+03   -0.58228E-04    0.12475E-06  8424   0.102E-04 0.347E-05
CGA:  82    -0.669786369316E+03   -0.91857E-04    0.13731E-06  8424   0.973E-05 0.133E-04
CGA:  83    -0.669786404045E+03   -0.34729E-04    0.19880E-06  8424   0.949E-05 0.345E-05
CGA:  84    -0.669786494071E+03   -0.90026E-04    0.12401E-06  8424   0.915E-05 0.125E-04
CGA:  85    -0.669786547994E+03   -0.53923E-04    0.10630E-06  8424   0.870E-05 0.354E-05
CGA:  86    -0.669786633067E+03   -0.85074E-04    0.11569E-06  8424   0.852E-05 0.117E-04
CGA:  87    -0.669786667555E+03   -0.34488E-04    0.15049E-06  8424   0.796E-05 0.366E-05
CGA:  88    -0.669786750894E+03   -0.83339E-04    0.10455E-06  8424   0.790E-05 0.110E-04
CGA:  89    -0.669786800222E+03   -0.49328E-04    0.86299E-07  8424   0.723E-05 0.381E-05
CGA:  90    -0.669786879324E+03   -0.79102E-04    0.97628E-07  8424   0.732E-05 0.104E-04
CGA:  91    -0.669786913821E+03   -0.34497E-04    0.10893E-06  8424   0.661E-05 0.390E-05
CGA:  92    -0.669786960351E+03   -0.46530E-04    0.63470E-07  8424   0.626E-05 0.415E-05
CGA:  93    -0.669786994467E+03   -0.34116E-04    0.79435E-07  8424   0.600E-05 0.429E-05
CGA:  94    -0.669787039719E+03   -0.45252E-04    0.53416E-07  8424   0.579E-05 0.436E-05
CGA:  95    -0.669787073612E+03   -0.33893E-04    0.67798E-07  8424   0.562E-05 0.439E-05
CGA:  96    -0.669787117791E+03   -0.44179E-04    0.47952E-07  8424   0.549E-05 0.438E-05
CGA:  97    -0.669787151203E+03   -0.33412E-04    0.61740E-07  8424   0.539E-05 0.434E-05
CGA:  98    -0.669787194650E+03   -0.43447E-04    0.44788E-07  8424   0.532E-05 0.427E-05
CGA:  99    -0.669787227243E+03   -0.32594E-04    0.59310E-07  8424   0.527E-05 0.418E-05
CGA: 100    -0.669787270322E+03   -0.43079E-04    0.43093E-07  8424   0.525E-05 0.408E-05
CGA: 101    -0.669787301742E+03   -0.31420E-04    0.59985E-07  8424   0.525E-05 0.394E-05
CGA: 102    -0.669787344827E+03   -0.43085E-04    0.42787E-07  8424   0.529E-05 0.378E-05
CGA: 103    -0.669787374697E+03   -0.29871E-04    0.64549E-07  8424   0.538E-05 0.358E-05
CGA: 104    -0.669787418190E+03   -0.43493E-04    0.44432E-07  8424   0.551E-05 0.333E-05
CGA: 105    -0.669787446089E+03   -0.27898E-04    0.75854E-07  8424   0.573E-05 0.302E-05
CGA: 106    -0.669787490458E+03   -0.44370E-04    0.49545E-07  8424   0.603E-05 0.263E-05
CGA: 107    -0.669787562791E+03   -0.72333E-04    0.71648E-07  8424   0.545E-05 0.865E-05
CGA: 108    -0.669787588642E+03   -0.25851E-04    0.80479E-07  8424   0.576E-05 0.251E-05
CGA: 109    -0.669787660123E+03   -0.71481E-04    0.66030E-07  8424   0.518E-05 0.826E-05
CGA: 110    -0.669787702260E+03   -0.42138E-04    0.42507E-07  8424   0.548E-05 0.241E-05
CGA: 111    -0.669787770672E+03   -0.68411E-04    0.62746E-07  8424   0.492E-05 0.788E-05
CGA: 112    -0.669787794986E+03   -0.24314E-04    0.69551E-07  8424   0.521E-05 0.231E-05
CGA: 113    -0.669787862685E+03   -0.67699E-04    0.57588E-07  8424   0.468E-05 0.752E-05
CGA: 114    -0.669787902572E+03   -0.39887E-04    0.36581E-07  8424   0.493E-05 0.223E-05
CGA: 115    -0.669787967079E+03   -0.64507E-04    0.54664E-07  8424   0.445E-05 0.715E-05
CGA: 116    -0.669787990086E+03   -0.23007E-04    0.59696E-07  8424   0.469E-05 0.214E-05
CGA: 117    -0.669788053943E+03   -0.63857E-04    0.50071E-07  8424   0.423E-05 0.682E-05
CGA: 118    -0.669788091572E+03   -0.37629E-04    0.31548E-07  8424   0.442E-05 0.208E-05
CGA: 119    -0.669788152295E+03   -0.60724E-04    0.47513E-07  8424   0.401E-05 0.648E-05
CGA: 120    -0.669788174212E+03   -0.21917E-04    0.50772E-07  8424   0.419E-05 0.201E-05
CGA: 121    -0.669788234303E+03   -0.60091E-04    0.43490E-07  8424   0.381E-05 0.617E-05
CGA: 122    -0.669788269667E+03   -0.35364E-04    0.27246E-07  8424   0.394E-05 0.195E-05
CGA: 123    -0.669788290081E+03   -0.20413E-04    0.52931E-07  8424   0.412E-05 0.171E-05
CGA: 124    -0.669788347978E+03   -0.57897E-04    0.39862E-07  8424   0.378E-05 0.581E-05
CGA: 125    -0.669788382878E+03   -0.34900E-04    0.27211E-07  8424   0.391E-05 0.164E-05
CGA: 126    -0.669788437952E+03   -0.55074E-04    0.37707E-07  8424   0.362E-05 0.551E-05
CGA: 127    -0.669788457281E+03   -0.19329E-04    0.47006E-07  8424   0.375E-05 0.155E-05
CGA: 128    -0.669788511702E+03   -0.54421E-04    0.34695E-07  8424   0.348E-05 0.526E-05
CGA: 129    -0.669788544671E+03   -0.32969E-04    0.24271E-07  8424   0.356E-05 0.149E-05
CGA: 130    -0.669788596497E+03   -0.51826E-04    0.32823E-07  8424   0.333E-05 0.500E-05
CGA: 131    -0.669788614902E+03   -0.18404E-04    0.41564E-07  8424   0.339E-05 0.142E-05
CGA: 132    -0.669788665973E+03   -0.51071E-04    0.30190E-07  8424   0.319E-05 0.476E-05
CGA: 133    -0.669788697014E+03   -0.31040E-04    0.21716E-07  8424   0.321E-05 0.137E-05
CGA: 134    -0.669788745679E+03   -0.48666E-04    0.28532E-07  8424   0.305E-05 0.452E-05
CGA: 135    -0.669788763351E+03   -0.17671E-04    0.36255E-07  8424   0.305E-05 0.132E-05
CGA: 136    -0.669788811178E+03   -0.47828E-04    0.26243E-07  8424   0.292E-05 0.430E-05
CGA: 137    -0.669788840252E+03   -0.29074E-04    0.19371E-07  8424   0.287E-05 0.129E-05
CGA: 138    -0.669788885838E+03   -0.45586E-04    0.24764E-07  8424   0.278E-05 0.407E-05
CGA: 139    -0.669788902999E+03   -0.17161E-04    0.30822E-07  8424   0.271E-05 0.126E-05
CGA: 140    -0.669788947684E+03   -0.44685E-04    0.22785E-07  8424   0.265E-05 0.386E-05
CGA: 141    -0.669788974729E+03   -0.27045E-04    0.17105E-07  8424   0.254E-05 0.125E-05
CGA: 142    -0.669789017351E+03   -0.42622E-04    0.21471E-07  8424   0.251E-05 0.366E-05
CGA: 143    -0.669789034213E+03   -0.16863E-04    0.25360E-07  8424   0.237E-05 0.124E-05
CGA: 144    -0.669789075900E+03   -0.41687E-04    0.19790E-07  8424   0.238E-05 0.347E-05
CGA: 145    -0.669789100888E+03   -0.24987E-04    0.14914E-07  8424   0.221E-05 0.124E-05
CGA: 146    -0.669789117559E+03   -0.16671E-04    0.19716E-07  8424   0.211E-05 0.131E-05
CGA: 147    -0.669789141931E+03   -0.24372E-04    0.11990E-07  8424   0.203E-05 0.135E-05
CGA: 148    -0.669789158507E+03   -0.16575E-04    0.16603E-07  8424   0.196E-05 0.138E-05
CGA: 149    -0.669789182281E+03   -0.23775E-04    0.10615E-07  8424   0.191E-05 0.139E-05
CGA: 150    -0.669789198692E+03   -0.16411E-04    0.14818E-07  8424   0.187E-05 0.139E-05
CGA: 151    -0.669789222008E+03   -0.23315E-04    0.97918E-08  8424   0.184E-05 0.138E-05
CGA: 152    -0.669789238100E+03   -0.16092E-04    0.13943E-07  8424   0.181E-05 0.136E-05
CGA: 153    -0.669789261139E+03   -0.23039E-04    0.93132E-08  8424   0.180E-05 0.134E-05
CGA: 154    -0.669789276730E+03   -0.15591E-04    0.13782E-07  8424   0.179E-05 0.131E-05
CGA: 155    -0.669789299688E+03   -0.22958E-04    0.90996E-08  8424   0.179E-05 0.127E-05
CGA: 156    -0.669789314585E+03   -0.14898E-04    0.14349E-07  8424   0.180E-05 0.122E-05
CGA: 157    -0.669789337666E+03   -0.23081E-04    0.91674E-08  8424   0.182E-05 0.116E-05
CGA: 158    -0.669789351666E+03   -0.14000E-04    0.15915E-07  8424   0.186E-05 0.109E-05
CGA: 159    -0.669789375091E+03   -0.23425E-04    0.96309E-08  8424   0.191E-05 0.101E-05
CGA: 160    -0.669789387966E+03   -0.12875E-04    0.19227E-07  8424   0.199E-05 0.905E-06
CGA: 161    -0.669789425414E+03   -0.37448E-04    0.14933E-07  8424   0.183E-05 0.288E-05
CGA: 162    -0.669789448489E+03   -0.23075E-04    0.94503E-08  8424   0.190E-05 0.873E-06
CGA: 163    -0.669789484351E+03   -0.35861E-04    0.14320E-07  8424   0.174E-05 0.276E-05
CGA: 164    -0.669789496509E+03   -0.12158E-04    0.16921E-07  8424   0.182E-05 0.837E-06
CGA: 165    -0.669789532109E+03   -0.35601E-04    0.13317E-07  8424   0.167E-05 0.265E-05
CGA: 166    -0.669789553968E+03   -0.21859E-04    0.82927E-08  8424   0.174E-05 0.810E-06
CGA: 167    -0.669789587946E+03   -0.33977E-04    0.12781E-07  8424   0.159E-05 0.254E-05
CGA: 168    -0.669789599490E+03   -0.11545E-04    0.14789E-07  8424   0.166E-05 0.781E-06
CGA: 169    -0.669789633224E+03   -0.33734E-04    0.11841E-07  8424   0.152E-05 0.244E-05
CGA: 170    -0.669789653876E+03   -0.20652E-04    0.72885E-08  8424   0.158E-05 0.759E-06
CGA: 171    -0.669789686012E+03   -0.32136E-04    0.11372E-07  8424   0.145E-05 0.233E-05
CGA: 172    -0.669789697038E+03   -0.11026E-04    0.12822E-07  8424   0.151E-05 0.735E-06
CGA: 173    -0.669789717449E+03   -0.20411E-04    0.72563E-08  8424   0.158E-05 0.640E-06
CGA: 174    -0.669789748606E+03   -0.31157E-04    0.10592E-07  8424   0.145E-05 0.222E-05
CGA: 175    -0.669789758690E+03   -0.10084E-04    0.14173E-07  8424   0.152E-05 0.609E-06
CGA: 176    -0.669789789523E+03   -0.30832E-04    0.97765E-08  8424   0.140E-05 0.212E-05
CGA: 177    -0.669789808929E+03   -0.19406E-04    0.65836E-08  8424   0.146E-05 0.580E-06
CGA: 178    -0.669789838361E+03   -0.29432E-04    0.93962E-08  8424   0.135E-05 0.203E-05
CGA: 179    -0.669789847869E+03   -0.95081E-05    0.12987E-07  8424   0.140E-05 0.550E-06
  34 F= -.66978985E+03 E0= -.66978985E+03  d E =0.974688E-01  mag=     2.0000
       N       E                     dE             d eps       ncg     rms          ort
SDA:   1    -0.666486102354E+03    0.33037E+01    0.00000E+00  8424   0.107E+02 0.000E+00
CGA:   2    -0.668684247678E+03   -0.21981E+01   -0.21994E+01  8424   0.459E+01 0.125E-01
CGA:   3    -0.669628716723E+03   -0.94447E+00   -0.94418E+00  8424   0.142E+01-0.441E-02
CGA:   4    -0.669861909453E+03   -0.23319E+00   -0.23324E+00  8424   0.348E+00 0.150E-03
CGA:   5    -0.669921533410E+03   -0.59624E-01   -0.59707E-01  8424   0.713E-01 0.106E-02
CGA:   6    -0.669935935025E+03   -0.14402E-01   -0.14399E-01  8424   0.161E-01-0.724E-04
CGA:   7    -0.669939445910E+03   -0.35109E-02   -0.35163E-02  8424   0.468E-02 0.294E-03
CGA:   8    -0.669940603900E+03   -0.11580E-02   -0.11567E-02  8424   0.138E-02 0.188E-03
CGA:   9    -0.669940990059E+03   -0.38616E-03   -0.38412E-03  8424   0.479E-03 0.645E-04
CGA:  10    -0.669941095967E+03   -0.10591E-03   -0.10943E-03  8424   0.186E-03 0.184E-03
CGA:  11    -0.669941140047E+03   -0.44081E-04   -0.49419E-04  8424   0.844E-04 0.119E-03
CGA:  12    -0.669941154539E+03   -0.14492E-04   -0.16518E-04  8424   0.467E-04 0.523E-04
CGA:  13    -0.669941153711E+03    0.82811E-06   -0.47945E-05  8424   0.405E-04 0.433E-04
  35 F= -.66994115E+03 E0= -.66994115E+03  d E =-.151306E+00  mag=     2.0000
       N       E                     dE             d eps       ncg     rms          ort
SDA:   1    -0.669167166797E+03    0.77399E+00    0.00000E+00  8424   0.242E+01 0.000E+00
CGA:   2    -0.669673934584E+03   -0.50677E+00   -0.50681E+00  8424   0.106E+01 0.260E-02
CGA:   3    -0.669889521053E+03   -0.21559E+00   -0.21557E+00  8424   0.326E+00-0.117E-02
CGA:   4    -0.669942558436E+03   -0.53037E-01   -0.53052E-01  8424   0.790E-01 0.224E-03
CGA:   5    -0.669956078141E+03   -0.13520E-01   -0.13553E-01  8424   0.162E-01 0.741E-03
CGA:   6    -0.669959297702E+03   -0.32196E-02   -0.32266E-02  8424   0.359E-02 0.428E-03
CGA:   7    -0.669960042975E+03   -0.74527E-03   -0.74885E-03  8424   0.100E-02 0.379E-03
CGA:   8    -0.669960253969E+03   -0.21099E-03   -0.21658E-03  8424   0.317E-03 0.324E-03
CGA:   9    -0.669960294094E+03   -0.40124E-04   -0.57559E-04  8424   0.155E-03 0.235E-03
CGA:  10    -0.669960295036E+03   -0.94229E-06   -0.15035E-04  8424   0.110E-03 0.127E-03
  36 F= -.66996030E+03 E0= -.66996030E+03  d E =-.191413E-01  mag=     2.0000
       N       E                     dE             d eps       ncg     rms          ort
SDA:   1    -0.669702447586E+03    0.25785E+00    0.00000E+00  8424   0.783E+00 0.000E+00
CGA:   2    -0.669869522262E+03   -0.16707E+00   -0.16705E+00  8424   0.339E+00 0.103E-02
CGA:   3    -0.669937842010E+03   -0.68320E-01   -0.68322E-01  8424   0.104E+00-0.522E-03
CGA:   4    -0.669954922298E+03   -0.17080E-01   -0.17085E-01  8424   0.259E-01 0.150E-03
CGA:   5    -0.669959312778E+03   -0.43905E-02   -0.44050E-02  8424   0.525E-02 0.563E-03
CGA:   6    -0.669960304117E+03   -0.99134E-03   -0.99537E-03  8424   0.112E-02 0.473E-03
CGA:   7    -0.669960513837E+03   -0.20972E-03   -0.21546E-03  8424   0.336E-03 0.323E-03
CGA:   8    -0.669960559474E+03   -0.45637E-04   -0.58777E-04  8424   0.158E-03 0.231E-03
CGA:   9    -0.669960564017E+03   -0.45435E-05   -0.15736E-04  8424   0.105E-03 0.124E-03
  37 F= -.66996056E+03 E0= -.66996056E+03  d E =-.268981E-03  mag=     2.0000
       N       E                     dE             d eps       ncg     rms          ort
SDA:   1    -0.669148008059E+03    0.81255E+00    0.00000E+00  8424   0.226E+01 0.000E+00
CGA:   2    -0.669710690091E+03   -0.56268E+00   -0.56273E+00  8424   0.103E+01-0.744E-03
CGA:   3    -0.669907426482E+03   -0.19674E+00   -0.19674E+00  8424   0.279E+00-0.575E-03
CGA:   4    -0.669953359380E+03   -0.45933E-01   -0.45931E-01  8424   0.717E-01-0.143E-03
CGA:   5    -0.669965479583E+03   -0.12120E-01   -0.12130E-01  8424   0.142E-01 0.718E-03
CGA:   6    -0.669968200124E+03   -0.27205E-02   -0.27134E-02  8424   0.325E-02 0.927E-03
CGA:   7    -0.669968907210E+03   -0.70709E-03   -0.69756E-03  8424   0.976E-03 0.490E-03
CGA:   8    -0.669969124803E+03   -0.21759E-03   -0.21465E-03  8424   0.346E-03 0.374E-03
CGA:   9    -0.669969163197E+03   -0.38395E-04   -0.57289E-04  8424   0.185E-03 0.296E-03
CGA:  10    -0.669969163801E+03   -0.60371E-06   -0.15626E-04  8424   0.137E-03 0.156E-03
  38 F= -.66996916E+03 E0= -.66996916E+03  d E =-.859978E-02  mag=     2.0000
       N       E                     dE             d eps       ncg     rms          ort
SDA:   1    -0.655279137345E+03    0.14690E+02    0.00000E+00  8424   0.455E+02 0.000E+00
CGA:   2    -0.664609437556E+03   -0.93303E+01   -0.93166E+01  8424   0.188E+02 0.284E+00
CGA:   3    -0.668488168003E+03   -0.38787E+01   -0.38813E+01  8424   0.581E+01-0.584E-01
CGA:   4    -0.669451155432E+03   -0.96299E+00   -0.96308E+00  8424   0.147E+01 0.686E-02
CGA:   5    -0.669702516550E+03   -0.25136E+00   -0.25137E+00  8424   0.321E+00 0.330E-02
CGA:   6    -0.669765741338E+03   -0.63225E-01   -0.63285E-01  8424   0.740E-01-0.258E-02
CGA:   7    -0.669781628437E+03   -0.15887E-01   -0.15829E-01  8424   0.218E-01 0.139E-02
CGA:   8    -0.669787175285E+03   -0.55468E-02   -0.55120E-02  8424   0.684E-02 0.487E-03
CGA:   9    -0.669789176969E+03   -0.20017E-02   -0.20796E-02  8424   0.286E-02-0.666E-03
CGA:  10    -0.669789997122E+03   -0.82015E-03   -0.90484E-03  8424   0.164E-02-0.516E-03
CGA:  11    -0.669788550747E+03    0.14464E-02   -0.12825E-02  8424   0.128E-01-0.360E-02
CGA:  12    -0.669790400523E+03   -0.18498E-02   -0.19212E-02  8424   0.175E-02 0.874E-03
CGA:  13    -0.669791004467E+03   -0.60394E-03   -0.75244E-03  8424   0.160E-02-0.847E-03
CGA:  14    -0.669791207358E+03   -0.20289E-03   -0.20609E-03  8424   0.902E-03-0.242E-03
CGA:  15    -0.669791228966E+03   -0.21608E-04   -0.49148E-03  8424   0.263E-02-0.116E-02
CGA:  16    -0.669791896932E+03   -0.66797E-03   -0.66362E-03  8424   0.986E-03-0.802E-03
CGA:  17    -0.669791982992E+03   -0.86060E-04   -0.98492E-04  8424   0.219E-03 0.110E-03
CGA:  18    -0.669792032151E+03   -0.49159E-04   -0.48238E-04  8424   0.151E-03-0.174E-04
CGA:  19    -0.669792178319E+03   -0.14617E-03    0.15483E-04  8424   0.976E-04-0.205E-04
CGA:  20    -0.669792343247E+03   -0.16493E-03    0.35839E-05  8424   0.102E-03 0.906E-05
CGA:  21    -0.669792530166E+03   -0.18692E-03    0.58142E-05  8424   0.617E-04 0.169E-04
CGA:  22    -0.669792679471E+03   -0.14930E-03    0.28287E-05  8424   0.605E-04 0.203E-04
CGA:  23    -0.669792909881E+03   -0.23041E-03    0.21054E-05  8424   0.533E-04 0.398E-04
CGA:  24    -0.669792985854E+03   -0.75973E-04    0.35665E-05  8424   0.255E-04 0.588E-05
CGA:  25    -0.669793060972E+03   -0.75118E-04    0.81657E-06  8424   0.190E-04 0.202E-04
CGA:  26    -0.669793109914E+03   -0.48942E-04    0.56797E-06  8424   0.140E-04 0.122E-04
CGA:  27    -0.669793163248E+03   -0.53334E-04    0.26019E-06  8424   0.129E-04 0.126E-04
CGA:  28    -0.669793211621E+03   -0.48373E-04    0.24631E-06  8424   0.124E-04 0.123E-04
CGA:  29    -0.669793262918E+03   -0.51297E-04    0.21109E-06  8424   0.120E-04 0.119E-04
CGA:  30    -0.669793310499E+03   -0.47581E-04    0.21570E-06  8424   0.117E-04 0.116E-04
CGA:  31    -0.669793360928E+03   -0.50429E-04    0.19160E-06  8424   0.115E-04 0.113E-04
CGA:  32    -0.669793406982E+03   -0.46054E-04    0.20402E-06  8424   0.114E-04 0.110E-04
CGA:  33    -0.669793457384E+03   -0.50402E-04    0.17924E-06  8424   0.113E-04 0.106E-04
CGA:  34    -0.669793500989E+03   -0.43604E-04    0.21011E-06  8424   0.115E-04 0.101E-04
CGA:  35    -0.669793552419E+03   -0.51430E-04    0.17910E-06  8424   0.120E-04 0.944E-05
CGA:  36    -0.669793592379E+03   -0.39960E-04    0.26018E-06  8424   0.129E-04 0.835E-05
CGA:  37    -0.669793646192E+03   -0.53814E-04    0.21925E-06  8424   0.149E-04 0.657E-05
CGA:  38    -0.669793680652E+03   -0.34460E-04    0.50708E-06  8424   0.185E-04 0.353E-05
CGA:  39    -0.669793782981E+03   -0.10233E-03    0.35687E-06  8424   0.155E-04 0.223E-04
CGA:  40    -0.669793838935E+03   -0.55954E-04    0.30668E-06  8424   0.196E-04 0.158E-05
CGA:  41    -0.669793938470E+03   -0.99535E-04    0.32480E-06  8424   0.175E-04 0.211E-04
CGA:  42    -0.669793965167E+03   -0.26697E-04    0.10594E-05  8424   0.234E-04-0.238E-05
CGA:  43    -0.669794063362E+03   -0.98195E-04    0.28836E-06  8424   0.246E-04 0.197E-04
CGA:  44    -0.669794125057E+03   -0.61695E-04    0.75630E-06  8424   0.348E-04-0.124E-04
CGA:  45    -0.669794128324E+03   -0.32671E-05   -0.14516E-04  8424   0.221E-03-0.672E-04
CGA:  46    -0.669792998098E+03    0.11302E-02   -0.22557E-03  8424   0.150E-01-0.177E-02
CGA:  47    -0.669794379968E+03   -0.13819E-02   -0.15384E-02  8424   0.549E-04 0.819E-03
CGA:  48    -0.669794383584E+03   -0.36153E-05   -0.56892E-05  8424   0.822E-05 0.110E-04
