       N       E                     dE             d eps       ncg     rms          rms(c)
DAV:   1     0.827124965886E+04    0.82712E+04   -0.24015E+05 34296   0.226E+03
DAV:   2     0.920330936094E+03   -0.73509E+04   -0.68987E+04 33696   0.656E+02
DAV:   3    -0.673790151746E+03   -0.15941E+04   -0.14015E+04 35940   0.282E+02
DAV:   4    -0.829930216749E+03   -0.15614E+03   -0.15344E+03 36816   0.858E+01
DAV:   5    -0.832423874013E+03   -0.24937E+01   -0.24829E+01 36936   0.122E+01    0.112E+02
DAV:   6    -0.726464782455E+03    0.10596E+03   -0.89946E+02 44100   0.124E+02    0.114E+02
DAV:   7    -0.648840106080E+03    0.77625E+02   -0.28847E+02 36240   0.115E+02    0.435E+01
DAV:   8    -0.676067112375E+03   -0.27227E+02   -0.11510E+02 41328   0.431E+01    0.640E+01
DAV:   9    -0.665546513439E+03    0.10521E+02   -0.46514E+01 37212   0.358E+01    0.205E+01
DAV:  10    -0.667364165506E+03   -0.18177E+01   -0.15634E+01 38220   0.234E+01    0.143E+01
DAV:  11    -0.668104913114E+03   -0.74075E+00   -0.78007E+00 36528   0.116E+01    0.110E+01
DAV:  12    -0.668407023032E+03   -0.30211E+00   -0.15718E+00 36672   0.961E+00    0.964E+00
DAV:  13    -0.668356736933E+03    0.50286E-01   -0.11318E+00 36768   0.687E+00    0.633E+00
DAV:  14    -0.668320137879E+03    0.36599E-01   -0.65749E-01 37056   0.508E+00    0.511E+00
DAV:  15    -0.668286088191E+03    0.34050E-01   -0.13620E-01 37260   0.263E+00    0.396E+00
DAV:  16    -0.668264006188E+03    0.22082E-01   -0.61617E-02 40308   0.206E+00    0.329E+00
DAV:  17    -0.668254352578E+03    0.96536E-02   -0.42110E-02 44160   0.144E+00    0.253E+00
DAV:  18    -0.668259332442E+03   -0.49799E-02   -0.22625E-02 35100   0.398E-01    0.252E+00
DAV:  19    -0.668256988115E+03    0.23443E-02   -0.11777E-03 38400   0.164E-01    0.247E+00
DAV:  20    -0.668242868446E+03    0.14120E-01   -0.64743E-03 39744   0.638E-01    0.228E+00
DAV:  21    -0.668247148548E+03   -0.42801E-02   -0.57795E-02 43488   0.115E+00    0.237E+00
DAV:  22    -0.668241063801E+03    0.60847E-02   -0.16821E-02 35220   0.564E-01    0.201E+00
DAV:  23    -0.668238346146E+03    0.27177E-02   -0.23578E-02 43740   0.624E-01    0.153E+00
DAV:  24    -0.668240924495E+03   -0.25783E-02   -0.12367E-02 41220   0.692E-01    0.959E-01
DAV:  25    -0.668240826332E+03    0.98162E-04   -0.44265E-03 40044   0.546E-01    0.669E-01
DAV:  26    -0.668240127316E+03    0.69902E-03   -0.41593E-03 46836   0.450E-01    0.472E-01
DAV:  27    -0.668240871460E+03   -0.74414E-03   -0.32325E-03 47268   0.374E-01    0.296E-01
DAV:  28    -0.668242747679E+03   -0.18762E-02   -0.14807E-03 46668   0.279E-01    0.189E-01
DAV:  29    -0.668244406276E+03   -0.16586E-02   -0.13309E-03 46620   0.211E-01    0.127E-01
DAV:  30    -0.668245650741E+03   -0.12445E-02   -0.50007E-04 45192   0.137E-01    0.101E-01
DAV:  31    -0.668247166176E+03   -0.15154E-02   -0.18099E-04 47748   0.140E-01    0.987E-02
DAV:  32    -0.668248698245E+03   -0.15321E-02   -0.17875E-04 41520   0.140E-01    0.973E-02
DAV:  33    -0.668249105928E+03   -0.40768E-03   -0.27949E-04 34560   0.440E-02    0.101E-01
DAV:  34    -0.668248008730E+03    0.10972E-02   -0.10754E-04 33540   0.116E-01    0.118E-01
DAV:  35    -0.668246078058E+03    0.19307E-02   -0.22600E-04 40092   0.199E-01    0.137E-01
DAV:  36    -0.668242121550E+03    0.39565E-02   -0.97256E-04 42168   0.445E-01    0.172E-01
DAV:  37    -0.668239538592E+03    0.25830E-02   -0.14143E-03 46128   0.347E-01    0.181E-01
DAV:  38    -0.668238524006E+03    0.10146E-02   -0.10672E-03 44772   0.166E-01    0.176E-01
DAV:  39    -0.668237435600E+03    0.10884E-02   -0.16518E-04 43752   0.181E-01    0.174E-01
DAV:  40    -0.668235646172E+03    0.17894E-02   -0.74427E-04 44904   0.416E-01    0.148E-01
DAV:  41    -0.668234168391E+03    0.14778E-02   -0.33114E-03 44088   0.807E-01    0.134E-01
DAV:  42    -0.668234509002E+03   -0.34061E-03   -0.34002E-03 36072   0.137E-01    0.111E-01
DAV:  43    -0.668234699532E+03   -0.19053E-03   -0.30250E-04 32568   0.182E-01    0.999E-02
DAV:  44    -0.668235144713E+03   -0.44518E-03   -0.51815E-04 39288   0.369E-01    0.119E-01
DAV:  45    -0.668235417992E+03   -0.27328E-03   -0.44747E-04 38688   0.273E-01    0.118E-01
DAV:  46    -0.668236399277E+03   -0.98129E-03   -0.97918E-04 42024   0.370E-01    0.140E-01
DAV:  47    -0.668236918864E+03   -0.51959E-03   -0.67832E-04 39564   0.318E-01    0.143E-01
DAV:  48    -0.668237437819E+03   -0.51896E-03   -0.25415E-04 43812   0.144E-01    0.139E-01
DAV:  49    -0.668237245043E+03    0.19278E-03   -0.17401E-04 31644   0.639E-02    0.139E-01
DAV:  50    -0.668238013313E+03   -0.76827E-03   -0.21824E-04 33684   0.243E-01    0.132E-01
DAV:  51    -0.668239362817E+03   -0.13495E-02   -0.40437E-04 44580   0.288E-01    0.123E-01
DAV:  52    -0.668240976054E+03   -0.16132E-02   -0.50924E-04 42600   0.275E-01    0.122E-01
DAV:  53    -0.668242259493E+03   -0.12834E-02   -0.53715E-04 44976   0.167E-01    0.122E-01
DAV:  54    -0.668241941166E+03    0.31833E-03   -0.34615E-04 32112   0.816E-02    0.123E-01
DAV:  55    -0.668242195056E+03   -0.25389E-03   -0.25460E-05 27924   0.408E-02    0.123E-01
DAV:  56    -0.668241487127E+03    0.70793E-03   -0.42533E-05 28788   0.104E-01    0.121E-01
DAV:  57    -0.668241258525E+03    0.22860E-03   -0.18427E-05 24204   0.371E-02    0.119E-01
DAV:  58    -0.668241554513E+03   -0.29599E-03   -0.21193E-04 36384   0.193E-01    0.129E-01
DAV:  59    -0.668240478794E+03    0.10757E-02   -0.15403E-04 38760   0.196E-01    0.123E-01
DAV:  60    -0.668239726765E+03    0.75203E-03   -0.17290E-04 42888   0.164E-01    0.119E-01
DAV:  61    -0.668238818727E+03    0.90804E-03   -0.41188E-04 42900   0.276E-01    0.123E-01
DAV:  62    -0.668237795644E+03    0.10231E-02   -0.87981E-04 43344   0.422E-01    0.133E-01
DAV:  63    -0.668237804987E+03   -0.93430E-05   -0.10602E-03 46428   0.204E-01    0.134E-01
DAV:  64    -0.668238834290E+03   -0.10293E-02   -0.66584E-04 36960   0.251E-01    0.131E-01
DAV:  65    -0.668239514174E+03   -0.67988E-03   -0.83677E-04 43968   0.507E-01    0.143E-01
DAV:  66    -0.668239887214E+03   -0.37304E-03   -0.74579E-04 45252   0.122E-01    0.144E-01
DAV:  67    -0.668239944935E+03   -0.57721E-04   -0.17521E-04 30828   0.396E-02    0.145E-01
DAV:  68    -0.668239896074E+03    0.48861E-04   -0.49971E-06 18960   0.157E-02    0.147E-01
DAV:  69    -0.668240099829E+03   -0.20376E-03   -0.64624E-06 20364   0.414E-02    0.142E-01
DAV:  70    -0.668240665258E+03   -0.56543E-03   -0.64204E-05 32760   0.146E-01    0.136E-01
DAV:  71    -0.668241167853E+03   -0.50260E-03   -0.10253E-04 41184   0.107E-01    0.132E-01
DAV:  72    -0.668241131052E+03    0.36801E-04   -0.76802E-05 28980   0.293E-02    0.133E-01
DAV:  73    -0.668241728058E+03   -0.59701E-03   -0.65449E-05 31872   0.127E-01    0.129E-01
DAV:  74    -0.668242427950E+03   -0.69989E-03   -0.10399E-04 40920   0.132E-01    0.126E-01
DAV:  75    -0.668242272425E+03    0.15553E-03   -0.67709E-05 34080   0.505E-02    0.125E-01
DAV:  76    -0.668243556761E+03   -0.12843E-02   -0.17098E-04 35520   0.218E-01    0.127E-01
DAV:  77    -0.668244205041E+03   -0.64828E-03   -0.14744E-04 44244   0.103E-01    0.123E-01
DAV:  78    -0.668243814499E+03    0.39054E-03   -0.85340E-05 33036   0.810E-02    0.124E-01
DAV:  79    -0.668244815157E+03   -0.10007E-02   -0.87026E-05 29772   0.163E-01    0.119E-01
DAV:  80    -0.668244354216E+03    0.46094E-03   -0.37977E-05 28548   0.100E-01    0.122E-01
DAV:  81    -0.668245145683E+03   -0.79147E-03   -0.18196E-04 34896   0.234E-01    0.122E-01
DAV:  82    -0.668245533944E+03   -0.38826E-03   -0.13350E-04 42792   0.692E-02    0.121E-01
DAV:  83    -0.668245465473E+03    0.68471E-04   -0.44382E-05 28776   0.242E-02    0.122E-01
DAV:  84    -0.668245828987E+03   -0.36351E-03   -0.12704E-05 22764   0.527E-02    0.121E-01
DAV:  85    -0.668245824250E+03    0.47376E-05   -0.53580E-06 19164   0.165E-02
   1 F= -.66824582E+03 E0= -.66823674E+03  d E =-.668246E+03  mag=     0.9615
       N       E                     dE             d eps       ncg     rms          rms(c)
DAV:   1    -0.668280997184E+03   -0.35168E-01   -0.29524E-02 45276   0.297E+00    0.234E-01
DAV:   2    -0.668283180292E+03   -0.21831E-02   -0.23109E-02 38376   0.421E-01    0.148E-01
DAV:   3    -0.668283811138E+03   -0.63085E-03   -0.15006E-03 37320   0.244E-01    0.110E-01
DAV:   4    -0.668284564819E+03   -0.75368E-03   -0.28857E-04 40524   0.124E-01    0.110E-01
DAV:   5    -0.668284961331E+03   -0.39651E-03   -0.19594E-04 36168   0.541E-02    0.160E-01
DAV:   6    -0.668284937566E+03    0.23765E-04   -0.28023E-04 33312   0.850E-02    0.103E-01
DAV:   7    -0.668285570420E+03   -0.63285E-03   -0.23353E-04 34308   0.122E-01    0.591E-02
DAV:   8    -0.668286376631E+03   -0.80621E-03   -0.10128E-04 35232   0.976E-02    0.486E-02
DAV:   9    -0.668287291807E+03   -0.91518E-03   -0.66075E-05 32940   0.917E-02    0.442E-02
DAV:  10    -0.668288022391E+03   -0.73058E-03   -0.62942E-05 37824   0.679E-02    0.443E-02
DAV:  11    -0.668287950153E+03    0.72238E-04   -0.54387E-05 28788   0.246E-02    0.456E-02
DAV:  12    -0.668288364463E+03   -0.41431E-03   -0.13545E-05 22764   0.424E-02    0.534E-02
DAV:  13    -0.668287283735E+03    0.10807E-02   -0.39973E-05 26892   0.106E-01    0.476E-02
DAV:  14    -0.668289559108E+03   -0.22754E-02   -0.14950E-04 30456   0.219E-01    0.595E-02
DAV:  15    -0.668297473451E+03   -0.79143E-02   -0.18227E-03 41964   0.683E-01    0.103E-01
DAV:  16    -0.668295063245E+03    0.24102E-02   -0.64862E-04 42120   0.240E-01    0.108E-01
DAV:  17    -0.668295517940E+03   -0.45470E-03   -0.10885E-04 37128   0.520E-02    0.998E-02
DAV:  18    -0.668297121998E+03   -0.16041E-02   -0.61486E-05 27144   0.133E-01    0.964E-02
DAV:  19    -0.668298692206E+03   -0.15702E-02   -0.15636E-04 41196   0.133E-01    0.921E-02
DAV:  20    -0.668296673027E+03    0.20192E-02   -0.19199E-04 36984   0.186E-01    0.101E-01
DAV:  21    -0.668300692604E+03   -0.40196E-02   -0.49592E-04 37536   0.358E-01    0.925E-02
DAV:  22    -0.668299802068E+03    0.89054E-03   -0.12947E-04 36912   0.118E-01    0.101E-01
DAV:  23    -0.668299084209E+03    0.71786E-03   -0.19947E-05 22968   0.688E-02    0.996E-02
DAV:  24    -0.668299152211E+03   -0.68002E-04   -0.12112E-05 19320   0.182E-02    0.983E-02
DAV:  25    -0.668299789897E+03   -0.63769E-03   -0.13484E-05 21060   0.595E-02    0.999E-02
DAV:  26    -0.668296391035E+03    0.33989E-02   -0.64913E-04 39228   0.383E-01    0.913E-02
DAV:  27    -0.668294820279E+03    0.15708E-02   -0.63672E-04 45264   0.268E-01    0.758E-02
DAV:  28    -0.668294907243E+03   -0.86964E-04   -0.37592E-04 34164   0.501E-02    0.691E-02
DAV:  29    -0.668297438353E+03   -0.25311E-02   -0.30474E-04 36168   0.261E-01    0.743E-02
DAV:  30    -0.668301372704E+03   -0.39344E-02   -0.36560E-04 44256   0.289E-01    0.724E-02
DAV:  31    -0.668302804032E+03   -0.14313E-02   -0.46551E-04 44388   0.188E-01    0.713E-02
DAV:  32    -0.668304276910E+03   -0.14729E-02   -0.19553E-04 43728   0.102E-01    0.695E-02
DAV:  33    -0.668304131976E+03    0.14493E-03   -0.12789E-04 30720   0.714E-02    0.697E-02
DAV:  34    -0.668304071920E+03    0.60056E-04   -0.27864E-05 26280   0.173E-02    0.686E-02
DAV:  35    -0.668304595045E+03   -0.52312E-03   -0.60571E-06 19932   0.428E-02    0.671E-02
DAV:  36    -0.668304839667E+03   -0.24462E-03   -0.10928E-05 19536   0.382E-02    0.711E-02
DAV:  37    -0.668304731272E+03    0.10840E-03   -0.33491E-06 17316   0.128E-02    0.713E-02
DAV:  38    -0.668304714330E+03    0.16942E-04   -0.15657E-06 17172   0.136E-02    0.710E-02
DAV:  39    -0.668304150511E+03    0.56382E-03   -0.81310E-05 26700   0.111E-01    0.714E-02
DAV:  40    -0.668303820650E+03    0.32986E-03   -0.10159E-04 36000   0.876E-02    0.715E-02
DAV:  41    -0.668304558418E+03   -0.73777E-03   -0.50579E-05 29904   0.770E-02    0.719E-02
DAV:  42    -0.668304245381E+03    0.31304E-03   -0.28206E-05 24336   0.856E-02    0.791E-02
DAV:  43    -0.668304018313E+03    0.22707E-03   -0.20339E-05 20040   0.505E-02    0.807E-02
DAV:  44    -0.668303685452E+03    0.33286E-03   -0.23886E-05 22716   0.604E-02    0.824E-02
DAV:  45    -0.668300628798E+03    0.30567E-02   -0.55219E-04 45996   0.355E-01    0.817E-02
DAV:  46    -0.668299921742E+03    0.70706E-03   -0.37504E-04 46116   0.980E-02    0.767E-02
DAV:  47    -0.668300644286E+03   -0.72254E-03   -0.83852E-04 42408   0.327E-01    0.922E-02
DAV:  48    -0.668298911416E+03    0.17329E-02   -0.50625E-04 43524   0.349E-01    0.922E-02
DAV:  49    -0.668297810167E+03    0.11012E-02   -0.66877E-04 44004   0.283E-01    0.891E-02
DAV:  50    -0.668297580024E+03    0.23014E-03   -0.56336E-04 43752   0.886E-02    0.800E-02
DAV:  51    -0.668297583331E+03   -0.33073E-05   -0.14668E-04 30684   0.112E-01    0.768E-02
DAV:  52    -0.668296957106E+03    0.62623E-03   -0.55511E-05 35760   0.829E-02    0.690E-02
DAV:  53    -0.668296958129E+03   -0.10226E-05   -0.56179E-05 29508   0.203E-02
   2 F= -.66829696E+03 E0= -.66828790E+03  d E =-.511339E-01  mag=     0.9648
       N       E                     dE             d eps       ncg     rms          rms(c)
DAV:   1    -0.668183820618E+03    0.11314E+00   -0.82073E+00 47448   0.342E+01    0.171E+00
DAV:   2    -0.668585434488E+03   -0.40161E+00   -0.40789E+00 39228   0.425E+00    0.119E+00
DAV:   3    -0.668589098108E+03   -0.36636E-02   -0.89645E-02 37416   0.160E+00    0.982E-01
DAV:   4    -0.668586397640E+03    0.27005E-02   -0.18247E-02 36780   0.111E+00    0.717E-01
DAV:   5    -0.668587931263E+03   -0.15336E-02   -0.13974E-02 37824   0.845E-01    0.605E-01
DAV:   6    -0.668587065085E+03    0.86618E-03   -0.14133E-02 36936   0.883E-01    0.188E-01
DAV:   7    -0.668586920669E+03    0.14442E-03   -0.29874E-03 37284   0.332E-01    0.110E-01
DAV:   8    -0.668587128186E+03   -0.20752E-03   -0.72389E-04 36516   0.163E-01    0.895E-02
DAV:   9    -0.668587375546E+03   -0.24736E-03   -0.24031E-04 35676   0.776E-02    0.123E-01
DAV:  10    -0.668587289776E+03    0.85769E-04   -0.91835E-05 34116   0.397E-02    0.966E-02
DAV:  11    -0.668587309203E+03   -0.19427E-04   -0.12636E-04 32316   0.669E-02    0.532E-02
DAV:  12    -0.668587757741E+03   -0.44854E-03   -0.87078E-05 31944   0.930E-02    0.388E-02
DAV:  13    -0.668588181566E+03   -0.42383E-03   -0.75382E-05 37068   0.795E-02    0.347E-02
DAV:  14    -0.668588501204E+03   -0.31964E-03   -0.42992E-05 32124   0.503E-02    0.321E-02
DAV:  15    -0.668588707276E+03   -0.20607E-03   -0.18130E-05 22764   0.305E-02    0.320E-02
DAV:  16    -0.668588533055E+03    0.17422E-03   -0.25204E-05 26712   0.359E-02    0.330E-02
DAV:  17    -0.668589105352E+03   -0.57230E-03   -0.27560E-05 25596   0.866E-02    0.347E-02
DAV:  18    -0.668589248889E+03   -0.14354E-03   -0.12109E-05 20724   0.221E-02    0.354E-02
DAV:  19    -0.668587642070E+03    0.16068E-02   -0.24705E-04 36648   0.250E-01    0.436E-02
DAV:  20    -0.668587519994E+03    0.12208E-03   -0.90752E-05 34032   0.293E-02    0.393E-02
DAV:  21    -0.668587110456E+03    0.40954E-03   -0.20349E-05 22896   0.679E-02    0.466E-02
DAV:  22    -0.668586096509E+03    0.10139E-02   -0.22842E-04 42240   0.189E-01    0.586E-02
DAV:  23    -0.668585308782E+03    0.78773E-03   -0.30360E-04 44184   0.172E-01    0.633E-02
DAV:  24    -0.668584734308E+03    0.57447E-03   -0.24412E-04 43980   0.141E-01    0.624E-02
DAV:  25    -0.668584714358E+03    0.19951E-04   -0.21943E-04 31656   0.349E-02    0.577E-02
DAV:  26    -0.668584698173E+03    0.16184E-04   -0.20958E-06 17928   0.419E-03    0.582E-02
DAV:  27    -0.668584760317E+03   -0.62143E-04   -0.18865E-06 18132   0.174E-02    0.578E-02
DAV:  28    -0.668585027259E+03   -0.26694E-03   -0.13732E-05 21960   0.566E-02    0.672E-02
DAV:  29    -0.668584754703E+03    0.27256E-03   -0.51723E-05 25572   0.103E-01    0.778E-02
DAV:  30    -0.668584766782E+03   -0.12079E-04   -0.10699E-05 20076   0.140E-02    0.760E-02
DAV:  31    -0.668584773719E+03   -0.69370E-05   -0.25297E-06 17724   0.355E-03
   3 F= -.66858477E+03 E0= -.66857578E+03  d E =-.287816E+00  mag=     0.9782
       N       E                     dE             d eps       ncg     rms          rms(c)
DAV:   1    -0.663826744180E+03    0.47580E+01   -0.10518E+02 48228   0.118E+02    0.725E+00
DAV:   2    -0.668956937081E+03   -0.51302E+01   -0.51346E+01 37716   0.154E+01    0.488E+00
DAV:   3    -0.669033896246E+03   -0.76959E-01   -0.21288E+00 36924   0.782E+00    0.369E+00
DAV:   4    -0.668999689201E+03    0.34207E-01   -0.35818E-01 38076   0.375E+00    0.264E+00
DAV:   5    -0.669012171719E+03   -0.12483E-01   -0.14563E-01 37308   0.255E+00    0.207E+00
DAV:   6    -0.669016942309E+03   -0.47706E-02   -0.13811E-01 37260   0.262E+00    0.112E+00
DAV:   7    -0.669031928302E+03   -0.14986E-01   -0.45068E-02 40440   0.108E+00    0.922E-01
DAV:   8    -0.669037686726E+03   -0.57584E-02   -0.12607E-02 40164   0.806E-01    0.614E-01
DAV:   9    -0.669044527978E+03   -0.68413E-02   -0.88279E-03 44544   0.592E-01    0.401E-01
DAV:  10    -0.669047599069E+03   -0.30711E-02   -0.48666E-03 42156   0.539E-01    0.301E-01
DAV:  11    -0.669050934181E+03   -0.33351E-02   -0.35455E-03 40560   0.401E-01    0.265E-01
DAV:  12    -0.669054300680E+03   -0.33665E-02   -0.14134E-03 45684   0.346E-01    0.187E-01
DAV:  13    -0.669058195883E+03   -0.38952E-02   -0.15164E-03 47316   0.325E-01    0.187E-01
DAV:  14    -0.669061072980E+03   -0.28771E-02   -0.14111E-03 46416   0.237E-01    0.190E-01
DAV:  15    -0.669062571506E+03   -0.14985E-02   -0.90833E-04 41928   0.111E-01    0.188E-01
DAV:  16    -0.669063292478E+03   -0.72097E-03   -0.17118E-04 36432   0.534E-02    0.183E-01
DAV:  17    -0.669067113597E+03   -0.38211E-02   -0.36461E-04 48444   0.312E-01    0.170E-01
DAV:  18    -0.669079051853E+03   -0.11938E-01   -0.47123E-03 44700   0.954E-01    0.183E-01
DAV:  19    -0.669080794917E+03   -0.17431E-02   -0.38221E-03 37776   0.160E-01    0.170E-01
DAV:  20    -0.669084046696E+03   -0.32518E-02   -0.26368E-04 40980   0.199E-01    0.189E-01
DAV:  21    -0.669077457129E+03    0.65896E-02   -0.16174E-03 40476   0.496E-01    0.154E-01
DAV:  22    -0.669065873116E+03    0.11584E-01   -0.65487E-03 43344   0.905E-01    0.193E-01
DAV:  23    -0.669061502786E+03    0.43703E-02   -0.42385E-03 48228   0.394E-01    0.204E-01
DAV:  24    -0.669063145431E+03   -0.16426E-02   -0.17443E-03 35352   0.196E-01    0.191E-01
DAV:  25    -0.669061198320E+03    0.19471E-02   -0.27837E-04 35316   0.193E-01    0.213E-01
DAV:  26    -0.669061096586E+03    0.10173E-03   -0.13971E-04 34884   0.443E-02    0.200E-01
DAV:  27    -0.669051976698E+03    0.91199E-02   -0.61100E-03 43164   0.918E-01    0.324E-01
DAV:  28    -0.669049499602E+03    0.24771E-02   -0.32930E-03 48300   0.297E-01    0.332E-01
DAV:  29    -0.669049914959E+03   -0.41536E-03   -0.10745E-03 35580   0.103E-01    0.344E-01
DAV:  30    -0.669049873754E+03    0.41205E-04   -0.33281E-05 31212   0.221E-02    0.342E-01
DAV:  31    -0.669049055699E+03    0.81805E-03   -0.78352E-05 31884   0.120E-01    0.344E-01
DAV:  32    -0.669052530930E+03   -0.34752E-02   -0.74084E-04 42900   0.429E-01    0.332E-01
DAV:  33    -0.669057004201E+03   -0.44733E-02   -0.12204E-03 45888   0.453E-01    0.343E-01
DAV:  34    -0.669056951373E+03    0.52828E-04   -0.87027E-04 35772   0.864E-02    0.344E-01
DAV:  35    -0.669060775870E+03   -0.38245E-02   -0.73211E-04 40872   0.385E-01    0.335E-01
DAV:  36    -0.669060979428E+03   -0.20356E-03   -0.58056E-04 41508   0.196E-01    0.353E-01
DAV:  37    -0.669066301113E+03   -0.53217E-02   -0.10900E-03 43476   0.482E-01    0.337E-01
DAV:  38    -0.669067325656E+03   -0.10245E-02   -0.10338E-03 47676   0.183E-01    0.331E-01
DAV:  39    -0.669066534646E+03    0.79101E-03   -0.81171E-04 42420   0.199E-01    0.351E-01
DAV:  40    -0.669073092260E+03   -0.65576E-02   -0.26544E-03 47184   0.737E-01    0.400E-01
DAV:  41    -0.669073622009E+03   -0.52975E-03   -0.21613E-03 38280   0.118E-01    0.411E-01
DAV:  42    -0.669072548486E+03    0.10735E-02   -0.15343E-04 33684   0.858E-02    0.424E-01
DAV:  43    -0.669072610735E+03   -0.62250E-04   -0.14214E-04 43440   0.103E-01    0.440E-01
DAV:  44    -0.669072100030E+03    0.51070E-03   -0.44884E-04 39192   0.247E-01    0.408E-01
DAV:  45    -0.669070871431E+03    0.12286E-02   -0.57418E-04 45420   0.277E-01    0.382E-01
DAV:  46    -0.669070911690E+03   -0.40258E-04   -0.26834E-04 34992   0.561E-02    0.386E-01
DAV:  47    -0.669074107850E+03   -0.31962E-02   -0.31096E-04 39768   0.222E-01    0.371E-01
DAV:  48    -0.669074845070E+03   -0.73722E-03   -0.13931E-04 44112   0.741E-02    0.388E-01
DAV:  49    -0.669074391397E+03    0.45367E-03   -0.60608E-05 31476   0.603E-02    0.393E-01
DAV:  50    -0.669074817090E+03   -0.42569E-03   -0.10519E-05 21228   0.381E-02    0.393E-01
DAV:  51    -0.669071505085E+03    0.33120E-02   -0.27360E-04 37080   0.263E-01    0.402E-01
DAV:  52    -0.669071770152E+03   -0.26507E-03   -0.94318E-05 42192   0.727E-02    0.407E-01
DAV:  53    -0.669071585640E+03    0.18451E-03   -0.24925E-05 28152   0.186E-02    0.406E-01
DAV:  54    -0.669076149399E+03   -0.45638E-02   -0.79536E-04 40896   0.332E-01    0.372E-01
DAV:  55    -0.669076913457E+03   -0.76406E-03   -0.33384E-04 41208   0.684E-02    0.380E-01
DAV:  56    -0.669076903838E+03    0.96186E-05   -0.46705E-05 31488   0.459E-02
   4 F= -.66907690E+03 E0= -.66907468E+03  d E =-.492130E+00  mag=     0.0012
       N       E                     dE             d eps       ncg     rms          rms(c)
DAV:   1    -0.669015211542E+03    0.61702E-01   -0.18762E+00 47508   0.163E+01    0.907E-01
DAV:   2    -0.669109173443E+03   -0.93962E-01   -0.92725E-01 39528   0.201E+00    0.743E-01
DAV:   3    -0.669111928366E+03   -0.27549E-02   -0.23222E-02 37956   0.996E-01    0.494E-01
DAV:   4    -0.669113066274E+03   -0.11379E-02   -0.60592E-03 36624   0.566E-01    0.427E-01
DAV:   5    -0.669116992186E+03   -0.39259E-02   -0.25608E-03 43416   0.500E-01    0.238E-01
DAV:   6    -0.669121935676E+03   -0.49435E-02   -0.25412E-03 47208   0.390E-01    0.181E-01
DAV:   7    -0.669124244456E+03   -0.23088E-02   -0.12750E-03 45060   0.196E-01    0.172E-01
DAV:   8    -0.669126140035E+03   -0.18956E-02   -0.48338E-04 41892   0.117E-01    0.179E-01
DAV:   9    -0.669128209567E+03   -0.20695E-02   -0.14351E-04 42840   0.129E-01    0.175E-01
DAV:  10    -0.669131202701E+03   -0.29931E-02   -0.23271E-04 43920   0.194E-01    0.161E-01
DAV:  11    -0.669143660356E+03   -0.12458E-01   -0.32396E-03 45696   0.804E-01    0.152E-01
DAV:  12    -0.669152378318E+03   -0.87180E-02   -0.44667E-03 47424   0.510E-01    0.155E-01
DAV:  13    -0.669152101294E+03    0.27702E-03   -0.28429E-03 35424   0.154E-01    0.155E-01
DAV:  14    -0.669155971618E+03   -0.38703E-02   -0.37821E-04 38592   0.235E-01    0.158E-01
DAV:  15    -0.669155878615E+03    0.93004E-04   -0.15041E-04 35820   0.386E-02    0.155E-01
DAV:  16    -0.669152886640E+03    0.29920E-02   -0.55128E-04 45888   0.217E-01    0.199E-01
DAV:  17    -0.669151142355E+03    0.17443E-02   -0.81123E-04 46476   0.150E-01    0.307E-01
DAV:  18    -0.669152301121E+03   -0.11588E-02   -0.93461E-04 43488   0.161E-01    0.456E-01
DAV:  19    -0.669155945974E+03   -0.36449E-02   -0.59305E-04 45204   0.230E-01    0.558E-01
DAV:  20    -0.669163134773E+03   -0.71888E-02   -0.10694E-03 47556   0.430E-01    0.682E-01
DAV:  21    -0.669169451875E+03   -0.63171E-02   -0.14394E-03 47688   0.347E-01    0.649E-01
DAV:  22    -0.669169397941E+03    0.53934E-04   -0.11330E-03 35556   0.920E-02    0.675E-01
DAV:  23    -0.669168187516E+03    0.12104E-02   -0.11121E-05 24936   0.635E-02    0.669E-01
DAV:  24    -0.669167839505E+03    0.34801E-03   -0.24968E-05 28068   0.283E-02    0.677E-01
DAV:  25    -0.669168166080E+03   -0.32658E-03   -0.17820E-04 34560   0.130E-01    0.727E-01
DAV:  26    -0.669171276808E+03   -0.31107E-02   -0.51642E-04 41640   0.254E-01    0.764E-01
DAV:  27    -0.669176569213E+03   -0.52924E-02   -0.99523E-04 44460   0.359E-01    0.773E-01
DAV:  28    -0.669184321815E+03   -0.77526E-02   -0.17058E-03 44124   0.468E-01    0.786E-01
DAV:  29    -0.669190997591E+03   -0.66758E-02   -0.23329E-03 45948   0.476E-01    0.833E-01
DAV:  30    -0.669196958858E+03   -0.59613E-02   -0.21016E-03 47940   0.302E-01    0.841E-01
DAV:  31    -0.669196804262E+03    0.15460E-03   -0.12404E-03 35172   0.100E-01    0.855E-01
DAV:  32    -0.669196540139E+03    0.26412E-03   -0.69611E-06 22068   0.173E-02    0.857E-01
DAV:  33    -0.669198266305E+03   -0.17262E-02   -0.52390E-05 31320   0.921E-02    0.854E-01
DAV:  34    -0.669193547191E+03    0.47191E-02   -0.31778E-04 36636   0.259E-01    0.857E-01
DAV:  35    -0.669199415787E+03   -0.58686E-02   -0.62074E-04 37488   0.345E-01    0.842E-01
DAV:  36    -0.669221760445E+03   -0.22345E-01   -0.69932E-03 42564   0.112E+00    0.853E-01
DAV:  37    -0.669225714365E+03   -0.39539E-02   -0.47368E-03 43668   0.302E-01    0.818E-01
DAV:  38    -0.669227928185E+03   -0.22138E-02   -0.93921E-04 41700   0.105E-01    0.844E-01
DAV:  39    -0.669227394377E+03    0.53381E-03   -0.20151E-04 31296   0.600E-02    0.847E-01
DAV:  40    -0.669226827139E+03    0.56724E-03   -0.87968E-06 22176   0.334E-02    0.833E-01
DAV:  41    -0.669226795005E+03    0.32134E-04   -0.96964E-06 20388   0.898E-03    0.834E-01
DAV:  42    -0.669227006191E+03   -0.21119E-03   -0.61357E-07 18648   0.928E-03    0.834E-01
DAV:  43    -0.669225916928E+03    0.10893E-02   -0.23298E-05 26724   0.594E-02    0.835E-01
DAV:  44    -0.669226633861E+03   -0.71693E-03   -0.10276E-05 22968   0.399E-02    0.838E-01
DAV:  45    -0.669229736399E+03   -0.31025E-02   -0.56503E-04 39588   0.251E-01    0.884E-01
DAV:  46    -0.669230834449E+03   -0.10980E-02   -0.59120E-04 46728   0.117E-01    0.927E-01
DAV:  47    -0.669235875558E+03   -0.50411E-02   -0.35227E-04 41352   0.238E-01    0.937E-01
DAV:  48    -0.669230268924E+03    0.56066E-02   -0.41417E-04 37308   0.261E-01    0.923E-01
DAV:  49    -0.669229447635E+03    0.82129E-03   -0.50594E-05 36588   0.441E-02    0.924E-01
DAV:  50    -0.669228096928E+03    0.13507E-02   -0.18896E-05 24192   0.632E-02    0.918E-01
DAV:  51    -0.669232969123E+03   -0.48722E-02   -0.72397E-04 37476   0.282E-01    0.914E-01
DAV:  52    -0.669234715580E+03   -0.17465E-02   -0.86023E-04 42924   0.199E-01    0.912E-01
DAV:  53    -0.669235274376E+03   -0.55880E-03   -0.46231E-04 36576   0.566E-02    0.936E-01
DAV:  54    -0.669232995441E+03    0.22789E-02   -0.14139E-04 34056   0.123E-01    0.935E-01
DAV:  55    -0.669233054062E+03   -0.58621E-04   -0.35160E-05 30492   0.182E-02    0.934E-01
DAV:  56    -0.669229338569E+03    0.37155E-02   -0.24179E-04 37800   0.198E-01    0.948E-01
DAV:  57    -0.669221871534E+03    0.74670E-02   -0.10940E-03 44136   0.399E-01    0.903E-01
DAV:  58    -0.669222127574E+03   -0.25604E-03   -0.65582E-04 35544   0.703E-02    0.889E-01
DAV:  59    -0.669220070689E+03    0.20569E-02   -0.28281E-04 36360   0.158E-01    0.831E-01
DAV:  60    -0.669217571275E+03    0.24994E-02   -0.60394E-04 41988   0.210E-01    0.758E-01
DAV:  61    -0.669218383406E+03   -0.81213E-03   -0.88169E-04 46944   0.222E-01    0.657E-01
DAV:  62    -0.669219248858E+03   -0.86545E-03   -0.68888E-04 36024   0.883E-02    0.607E-01
DAV:  63    -0.669219979876E+03   -0.73102E-03   -0.55668E-04 41628   0.212E-01    0.568E-01
DAV:  64    -0.669219845778E+03    0.13410E-03   -0.80772E-04 42528   0.204E-01    0.555E-01
DAV:  65    -0.669219332999E+03    0.51278E-03   -0.60226E-04 45324   0.111E-01    0.533E-01
DAV:  66    -0.669218945938E+03    0.38706E-03   -0.20815E-04 33768   0.377E-02    0.521E-01
DAV:  67    -0.669217992903E+03    0.95304E-03   -0.25673E-03 47100   0.446E-01    0.380E-01
DAV:  68    -0.669219278016E+03   -0.12851E-02   -0.16683E-03 36708   0.183E-01    0.368E-01
DAV:  69    -0.669220933437E+03   -0.16554E-02   -0.21804E-04 40608   0.150E-01    0.371E-01
DAV:  70    -0.669221394213E+03   -0.46078E-03   -0.23383E-04 40956   0.671E-02    0.378E-01
DAV:  71    -0.669220812478E+03    0.58173E-03   -0.79256E-05 32772   0.465E-02    0.381E-01
DAV:  72    -0.669229110161E+03   -0.82977E-02   -0.19630E-03 41820   0.540E-01    0.400E-01
DAV:  73    -0.669237057257E+03   -0.79471E-02   -0.37896E-03 45588   0.577E-01    0.377E-01
DAV:  74    -0.669244335559E+03   -0.72783E-02   -0.57290E-03 46080   0.594E-01    0.363E-01
DAV:  75    -0.669244411062E+03   -0.75503E-04   -0.36732E-03 35796   0.148E-01    0.408E-01
DAV:  76    -0.669244601434E+03   -0.19037E-03   -0.34812E-05 32820   0.181E-02    0.410E-01
DAV:  77    -0.669247367352E+03   -0.27659E-02   -0.15955E-04 34800   0.150E-01    0.421E-01
DAV:  78    -0.669245587379E+03    0.17800E-02   -0.10435E-04 42972   0.931E-02    0.431E-01
DAV:  79    -0.669246033544E+03   -0.44616E-03   -0.29150E-05 28956   0.347E-02    0.428E-01
DAV:  80    -0.669246065474E+03   -0.31930E-04   -0.60070E-06 19452   0.168E-02    0.431E-01
DAV:  81    -0.669245200587E+03    0.86489E-03   -0.51604E-05 30804   0.856E-02    0.434E-01
DAV:  82    -0.669248853274E+03   -0.36527E-02   -0.14087E-04 43332   0.181E-01    0.428E-01
DAV:  83    -0.669246925489E+03    0.19278E-02   -0.15912E-03 40776   0.372E-01    0.429E-01
DAV:  84    -0.669244034545E+03    0.28909E-02   -0.30385E-03 44136   0.434E-01    0.409E-01
DAV:  85    -0.669243560371E+03    0.47417E-03   -0.21215E-03 45720   0.189E-01    0.373E-01
DAV:  86    -0.669243973405E+03   -0.41303E-03   -0.60503E-04 35028   0.684E-02    0.360E-01
DAV:  87    -0.669245469114E+03   -0.14957E-02   -0.26932E-04 37560   0.171E-01    0.360E-01
DAV:  88    -0.669244831712E+03    0.63740E-03   -0.73382E-05 35208   0.630E-02    0.361E-01
DAV:  89    -0.669244809362E+03    0.22351E-04   -0.17950E-05 23964   0.364E-02    0.360E-01
DAV:  90    -0.669244687393E+03    0.12197E-03   -0.16698E-04 35844   0.114E-01    0.357E-01
DAV:  91    -0.669243275094E+03    0.14123E-02   -0.41279E-04 41928   0.162E-01    0.356E-01
DAV:  92    -0.669238876403E+03    0.43987E-02   -0.36271E-03 41388   0.596E-01    0.379E-01
DAV:  93    -0.669239057398E+03   -0.18099E-03   -0.16886E-03 35964   0.884E-02    0.347E-01
DAV:  94    -0.669239323760E+03   -0.26636E-03   -0.34708E-05 27804   0.565E-02    0.343E-01
DAV:  95    -0.669241326304E+03   -0.20025E-02   -0.11418E-03 40116   0.348E-01    0.333E-01
DAV:  96    -0.669242022017E+03   -0.69571E-03   -0.17247E-03 44964   0.328E-01    0.331E-01
DAV:  97    -0.669239626863E+03    0.23952E-02   -0.23423E-03 46044   0.466E-01    0.369E-01
DAV:  98    -0.669240982750E+03   -0.13559E-02   -0.24022E-03 44016   0.182E-01    0.396E-01
DAV:  99    -0.669241003271E+03   -0.20521E-04   -0.52283E-04 34956   0.634E-02    0.410E-01
DAV: 100    -0.669240220909E+03    0.78236E-03   -0.10481E-05 24048   0.404E-02    0.411E-01
DAV: 101    -0.669239569690E+03    0.65122E-03   -0.76442E-05 31344   0.963E-02    0.413E-01
DAV: 102    -0.669220372013E+03    0.19198E-01   -0.18223E-01 41952   0.378E+00    0.656E-01
DAV: 103    -0.669228092368E+03   -0.77204E-02   -0.49654E-02 36144   0.447E-01    0.549E-01
DAV: 104    -0.669228068262E+03    0.24106E-04   -0.48748E-04 39060   0.733E-02    0.554E-01
DAV: 105    -0.669227449382E+03    0.61888E-03   -0.83901E-05 35712   0.102E-01    0.545E-01
DAV: 106    -0.669224919309E+03    0.25301E-02   -0.93576E-04 43056   0.354E-01    0.502E-01
DAV: 107    -0.669222443346E+03    0.24760E-02   -0.11312E-03 45444   0.242E-01    0.515E-01
DAV: 108    -0.669221405279E+03    0.10381E-02   -0.58425E-04 37968   0.777E-02    0.518E-01
DAV: 109    -0.669221455120E+03   -0.49841E-04   -0.79741E-05 31440   0.257E-02    0.519E-01
DAV: 110    -0.669224249679E+03   -0.27946E-02   -0.61649E-04 37080   0.262E-01    0.518E-01
DAV: 111    -0.669225416983E+03   -0.11673E-02   -0.23305E-04 42576   0.108E-01    0.543E-01
DAV: 112    -0.669226597151E+03   -0.11802E-02   -0.15469E-03 44040   0.474E-01    0.642E-01
DAV: 113    -0.669226664694E+03   -0.67543E-04   -0.11112E-03 35952   0.743E-02    0.645E-01
DAV: 114    -0.669227768777E+03   -0.11041E-02   -0.35747E-05 27864   0.555E-02    0.650E-01
DAV: 115    -0.669227757059E+03    0.11719E-04   -0.18436E-05 24600   0.121E-02    0.649E-01
DAV: 116    -0.669231166909E+03   -0.34099E-02   -0.25567E-04 36780   0.201E-01    0.629E-01
DAV: 117    -0.669237945995E+03   -0.67791E-02   -0.20640E-02 41964   0.172E+00    0.344E-01
DAV: 118    -0.669240841664E+03   -0.28957E-02   -0.12628E-02 40452   0.343E-01    0.354E-01
DAV: 119    -0.669247342208E+03   -0.65005E-02   -0.27335E-03 51600   0.582E-01    0.315E-01
DAV: 120    -0.669250351222E+03   -0.30090E-02   -0.55661E-03 48564   0.416E-01    0.349E-01
DAV: 121    -0.669252456673E+03   -0.21055E-02   -0.41475E-03 46644   0.220E-01    0.416E-01
DAV: 122    -0.669252329186E+03    0.12749E-03   -0.10007E-03 35040   0.963E-02    0.422E-01
DAV: 123    -0.669252580015E+03   -0.25083E-03   -0.99210E-05 35832   0.672E-02    0.436E-01
DAV: 124    -0.669252992995E+03   -0.41298E-03   -0.10049E-04 44760   0.644E-02    0.455E-01
DAV: 125    -0.669253325336E+03   -0.33234E-03   -0.62002E-05 34572   0.507E-02    0.451E-01
DAV: 126    -0.669253208682E+03    0.11665E-03   -0.82517E-06 19704   0.178E-02    0.452E-01
DAV: 127    -0.669251723871E+03    0.14848E-02   -0.73092E-04 38100   0.247E-01    0.424E-01
DAV: 128    -0.669253589785E+03   -0.18659E-02   -0.35420E-04 38364   0.219E-01    0.427E-01
DAV: 129    -0.669256394454E+03   -0.28047E-02   -0.66818E-04 43608   0.248E-01    0.430E-01
DAV: 130    -0.669256492640E+03   -0.98186E-04   -0.93055E-04 42144   0.192E-01    0.420E-01
DAV: 131    -0.669256981209E+03   -0.48857E-03   -0.61332E-04 41112   0.202E-01    0.419E-01
DAV: 132    -0.669257105307E+03   -0.12410E-03   -0.64624E-04 45528   0.138E-01    0.433E-01
DAV: 133    -0.669256442976E+03    0.66233E-03   -0.43917E-04 35136   0.810E-02    0.439E-01
DAV: 134    -0.669255517444E+03    0.92553E-03   -0.31135E-04 43764   0.145E-01    0.425E-01
DAV: 135    -0.669254682712E+03    0.83473E-03   -0.72866E-04 44460   0.173E-01    0.399E-01
DAV: 136    -0.669253575465E+03    0.11072E-02   -0.72380E-04 44928   0.164E-01    0.380E-01
DAV: 137    -0.669256565381E+03   -0.29899E-02   -0.51476E-03 51396   0.609E-01    0.364E-01
DAV: 138    -0.669255663158E+03    0.90222E-03   -0.31568E-03 36444   0.233E-01    0.312E-01
DAV: 139    -0.669256187903E+03   -0.52474E-03   -0.39975E-04 49308   0.142E-01    0.291E-01
DAV: 140    -0.669256997521E+03   -0.80962E-03   -0.37360E-04 41604   0.110E-01    0.283E-01
DAV: 141    -0.669257186147E+03   -0.18863E-03   -0.25626E-04 40320   0.142E-01    0.267E-01
DAV: 142    -0.669258986563E+03   -0.18004E-02   -0.76937E-04 43548   0.195E-01    0.248E-01
DAV: 143    -0.669257875088E+03    0.11115E-02   -0.48837E-04 37476   0.164E-01    0.245E-01
DAV: 144    -0.669257497961E+03    0.37713E-03   -0.33560E-04 42792   0.130E-01    0.237E-01
DAV: 145    -0.669256797353E+03    0.70061E-03   -0.31393E-04 44700   0.119E-01    0.229E-01
DAV: 146    -0.669256419065E+03    0.37829E-03   -0.21810E-04 45732   0.776E-02    0.221E-01
DAV: 147    -0.669254415884E+03    0.20032E-02   -0.26052E-03 42528   0.701E-01    0.350E-01
DAV: 148    -0.669254051593E+03    0.36429E-03   -0.30457E-03 43608   0.249E-01    0.341E-01
DAV: 149    -0.669254094006E+03   -0.42413E-04   -0.94052E-04 37440   0.123E-01    0.328E-01
DAV: 150    -0.669253636522E+03    0.45748E-03   -0.26366E-04 39540   0.170E-01    0.289E-01
DAV: 151    -0.669253421269E+03    0.21525E-03   -0.49474E-04 44196   0.196E-01    0.247E-01
DAV: 152    -0.669256871497E+03   -0.34502E-02   -0.20018E-03 42048   0.461E-01    0.184E-01
DAV: 153    -0.669260027063E+03   -0.31556E-02   -0.17344E-03 44520   0.357E-01    0.160E-01
DAV: 154    -0.669260410266E+03   -0.38320E-03   -0.14040E-03 42732   0.221E-01    0.147E-01
DAV: 155    -0.669260765412E+03   -0.35515E-03   -0.53884E-04 45996   0.121E-01    0.148E-01
DAV: 156    -0.669261437580E+03   -0.67217E-03   -0.22782E-04 41640   0.628E-02    0.147E-01
DAV: 157    -0.669261142004E+03    0.29558E-03   -0.11064E-03 40380   0.289E-01    0.142E-01
DAV: 158    -0.669261155287E+03   -0.13283E-04   -0.31310E-04 34152   0.477E-02    0.149E-01
DAV: 159    -0.669260942260E+03    0.21303E-03   -0.80855E-06 23700   0.427E-02    0.149E-01
DAV: 160    -0.669261189945E+03   -0.24769E-03   -0.22566E-05 24192   0.439E-02    0.152E-01
DAV: 161    -0.669260277892E+03    0.91205E-03   -0.19218E-03 39948   0.338E-01    0.172E-01
DAV: 162    -0.669260346761E+03   -0.68869E-04   -0.49495E-03 41700   0.589E-01    0.230E-01
DAV: 163    -0.669258007323E+03    0.23394E-02   -0.49601E-03 44892   0.472E-01    0.248E-01
DAV: 164    -0.669259084471E+03   -0.10771E-02   -0.26937E-03 36396   0.284E-01    0.205E-01
DAV: 165    -0.669259425227E+03   -0.34076E-03   -0.58633E-04 46332   0.247E-01    0.187E-01
DAV: 166    -0.669260380441E+03   -0.95521E-03   -0.21901E-03 45060   0.395E-01    0.160E-01
DAV: 167    -0.669266251104E+03   -0.58707E-02   -0.32864E-02 42432   0.160E+00    0.231E-01
DAV: 168    -0.669267837243E+03   -0.15861E-02   -0.11794E-02 35952   0.234E-01    0.245E-01
DAV: 169    -0.669266464656E+03    0.13726E-02   -0.10098E-03 36300   0.247E-01    0.229E-01
DAV: 170    -0.669264328531E+03    0.21361E-02   -0.41700E-03 42540   0.538E-01    0.198E-01
DAV: 171    -0.669262522623E+03    0.18059E-02   -0.51905E-03 44232   0.564E-01    0.181E-01
DAV: 172    -0.669261295642E+03    0.12270E-02   -0.40004E-03 46884   0.400E-01    0.162E-01
DAV: 173    -0.669260752619E+03    0.54302E-03   -0.24057E-03 49296   0.257E-01    0.147E-01
DAV: 174    -0.669260938068E+03   -0.18545E-03   -0.12003E-03 35220   0.982E-02    0.143E-01
DAV: 175    -0.669260891871E+03    0.46196E-04   -0.13604E-05 25944   0.105E-02    0.140E-01
DAV: 176    -0.669260843197E+03    0.48674E-04   -0.24025E-06 18720   0.165E-02    0.141E-01
DAV: 177    -0.669260828908E+03    0.14289E-04   -0.13656E-05 22452   0.383E-02    0.144E-01
DAV: 178    -0.669260810900E+03    0.18008E-04   -0.74538E-06 20676   0.109E-02    0.143E-01
DAV: 179    -0.669260827662E+03   -0.16761E-04   -0.15676E-05 24720   0.398E-02    0.140E-01
DAV: 180    -0.669260809368E+03    0.18294E-04   -0.22843E-06 17952   0.117E-02    0.142E-01
DAV: 181    -0.669260882112E+03   -0.72744E-04   -0.10308E-05 20520   0.259E-02    0.140E-01
DAV: 182    -0.669260551894E+03    0.33022E-03   -0.20810E-05 23160   0.458E-02    0.145E-01
DAV: 183    -0.669260329002E+03    0.22289E-03   -0.48810E-06 19308   0.193E-02    0.146E-01
DAV: 184    -0.669260153116E+03    0.17589E-03   -0.86534E-06 21120   0.271E-02    0.145E-01
DAV: 185    -0.669260157283E+03   -0.41668E-05   -0.78902E-06 17604   0.790E-03
   5 F= -.66926016E+03 E0= -.66925845E+03  d E =-.183253E+00  mag=     0.0013
       N       E                     dE             d eps       ncg     rms          rms(c)
DAV:   1    -0.667995991549E+03    0.12642E+01   -0.39478E+01 46368   0.597E+01    0.324E+00
DAV:   2    -0.669292576898E+03   -0.12966E+01   -0.13124E+01 38280   0.799E+00    0.249E+00
DAV:   3    -0.669307774271E+03   -0.15197E-01   -0.39229E-01 37128   0.336E+00    0.183E+00
DAV:   4    -0.669302264042E+03    0.55102E-02   -0.59573E-02 37464   0.175E+00    0.140E+00
DAV:   5    -0.669307167651E+03   -0.49036E-02   -0.34272E-02 38796   0.161E+00    0.995E-01
DAV:   6    -0.669308031294E+03   -0.86364E-03   -0.33651E-02 37428   0.116E+00    0.446E-01
DAV:   7    -0.669309423672E+03   -0.13924E-02   -0.85331E-03 37512   0.563E-01    0.308E-01
DAV:   8    -0.669311062778E+03   -0.16391E-02   -0.31653E-03 38256   0.228E-01    0.349E-01
DAV:   9    -0.669312011594E+03   -0.94882E-03   -0.71127E-04 37032   0.158E-01    0.334E-01
DAV:  10    -0.669313077646E+03   -0.10661E-02   -0.31291E-04 41688   0.111E-01    0.328E-01
DAV:  11    -0.669315356466E+03   -0.22788E-02   -0.85830E-04 43848   0.216E-01    0.332E-01
DAV:  12    -0.669317369062E+03   -0.20126E-02   -0.99447E-04 41892   0.193E-01    0.330E-01
DAV:  13    -0.669314670433E+03    0.26986E-02   -0.18798E-03 36564   0.273E-01    0.306E-01
DAV:  14    -0.669307349918E+03    0.73205E-02   -0.11090E-02 43824   0.750E-01    0.284E-01
DAV:  15    -0.669293519301E+03    0.13831E-01   -0.39539E-02 43032   0.160E+00    0.397E-01
DAV:  16    -0.669303285034E+03   -0.97657E-02   -0.17548E-02 39144   0.108E+00    0.319E-01
DAV:  17    -0.669303301737E+03   -0.16704E-04   -0.11605E-03 41220   0.156E-01    0.273E-01
DAV:  18    -0.669315099523E+03   -0.11798E-01   -0.26528E-02 45960   0.139E+00    0.274E-01
DAV:  19    -0.669332235484E+03   -0.17136E-01   -0.55267E-02 43932   0.169E+00    0.362E-01
DAV:  20    -0.669344895431E+03   -0.12660E-01   -0.36699E-02 45288   0.762E-01    0.507E-01
DAV:  21    -0.669346401247E+03   -0.15058E-02   -0.92173E-03 34992   0.221E-01    0.541E-01
DAV:  22    -0.669346168628E+03    0.23262E-03   -0.81834E-05 37440   0.296E-02    0.545E-01
DAV:  23    -0.669343678165E+03    0.24905E-02   -0.63519E-04 35808   0.143E-01    0.531E-01
DAV:  24    -0.669342656003E+03    0.10222E-02   -0.62584E-04 41760   0.118E-01    0.570E-01
DAV:  25    -0.669340898939E+03    0.17571E-02   -0.10203E-03 41532   0.157E-01    0.602E-01
DAV:  26    -0.669338296341E+03    0.26026E-02   -0.10821E-03 40776   0.193E-01    0.597E-01
DAV:  27    -0.669336102596E+03    0.21937E-02   -0.89996E-04 42192   0.169E-01    0.585E-01
DAV:  28    -0.669333464369E+03    0.26382E-02   -0.11995E-03 45024   0.220E-01    0.534E-01
DAV:  29    -0.669328670689E+03    0.47937E-02   -0.40726E-03 41544   0.446E-01    0.507E-01
DAV:  30    -0.669323457008E+03    0.52137E-02   -0.68542E-03 42768   0.524E-01    0.481E-01
DAV:  31    -0.669317658592E+03    0.57984E-02   -0.90979E-03 42732   0.600E-01    0.451E-01
DAV:  32    -0.669315603997E+03    0.20546E-02   -0.65664E-03 46272   0.287E-01    0.379E-01
DAV:  33    -0.669315733573E+03   -0.12958E-03   -0.15712E-03 34836   0.939E-02    0.351E-01
DAV:  34    -0.669314925701E+03    0.80787E-03   -0.16705E-04 32460   0.995E-02    0.354E-01
DAV:  35    -0.669311848621E+03    0.30771E-02   -0.28680E-03 40644   0.426E-01    0.368E-01
DAV:  36    -0.669309359730E+03    0.24889E-02   -0.33753E-03 42564   0.380E-01    0.382E-01
DAV:  37    -0.669308423382E+03    0.93635E-03   -0.18617E-03 44784   0.158E-01    0.365E-01
DAV:  38    -0.669308563400E+03   -0.14002E-03   -0.48448E-04 34512   0.674E-02    0.347E-01
DAV:  39    -0.669307985541E+03    0.57786E-03   -0.79417E-05 31272   0.747E-02    0.348E-01
DAV:  40    -0.669308424261E+03   -0.43872E-03   -0.26103E-05 27252   0.566E-02    0.349E-01
DAV:  41    -0.669308415297E+03    0.89636E-05   -0.11416E-05 19824   0.197E-02
   6 F= -.66930842E+03 E0= -.66930757E+03  d E =-.482580E-01  mag=     0.0007
       N       E                     dE             d eps       ncg     rms          rms(c)
DAV:   1    -0.668274612066E+03    0.10338E+01   -0.27987E+01 46176   0.533E+01    0.275E+00
DAV:   2    -0.669281771637E+03   -0.10072E+01   -0.10285E+01 38352   0.688E+00    0.177E+00
DAV:   3    -0.669287817929E+03   -0.60463E-02   -0.19816E-01 37956   0.178E+00    0.127E+00
DAV:   4    -0.669285598841E+03    0.22191E-02   -0.26331E-02 37824   0.128E+00    0.982E-01
DAV:   5    -0.669285826061E+03   -0.22722E-03   -0.22670E-02 39708   0.117E+00    0.575E-01
DAV:   6    -0.669285743780E+03    0.82281E-04   -0.14037E-02 37752   0.736E-01    0.266E-01
DAV:   7    -0.669286223100E+03   -0.47932E-03   -0.32912E-03 36696   0.362E-01    0.160E-01
DAV:   8    -0.669286502467E+03   -0.27937E-03   -0.14910E-03 37260   0.198E-01    0.143E-01
DAV:   9    -0.669286792770E+03   -0.29030E-03   -0.36978E-04 38160   0.124E-01    0.103E-01
DAV:  10    -0.669287456121E+03   -0.66335E-03   -0.12416E-04 37740   0.965E-02    0.920E-02
DAV:  11    -0.669288405796E+03   -0.94968E-03   -0.19760E-04 41688   0.150E-01    0.731E-02
DAV:  12    -0.669289168330E+03   -0.76253E-03   -0.23049E-04 44244   0.105E-01    0.650E-02
DAV:  13    -0.669290076496E+03   -0.90817E-03   -0.19804E-04 40536   0.109E-01    0.706E-02
DAV:  14    -0.669291615128E+03   -0.15386E-02   -0.45468E-04 39084   0.193E-01    0.786E-02
DAV:  15    -0.669293096126E+03   -0.14810E-02   -0.58365E-04 42324   0.202E-01    0.725E-02
DAV:  16    -0.669295002010E+03   -0.19059E-02   -0.85544E-04 41844   0.252E-01    0.712E-02
DAV:  17    -0.669295755775E+03   -0.75376E-03   -0.83171E-04 43596   0.102E-01    0.733E-02
DAV:  18    -0.669295193169E+03    0.56261E-03   -0.39670E-04 33864   0.115E-01    0.733E-02
DAV:  19    -0.669294320570E+03    0.87260E-03   -0.46404E-04 38940   0.145E-01    0.731E-02
DAV:  20    -0.669292710677E+03    0.16099E-02   -0.10096E-03 40236   0.260E-01    0.864E-02
DAV:  21    -0.669292246112E+03    0.46456E-03   -0.53810E-04 44376   0.913E-02    0.776E-02
DAV:  22    -0.669292306963E+03   -0.60850E-04   -0.12729E-04 32748   0.294E-02    0.752E-02
DAV:  23    -0.669292440502E+03   -0.13354E-03   -0.38926E-06 19992   0.176E-02    0.753E-02
DAV:  24    -0.669291775081E+03    0.66542E-03   -0.47741E-04 36900   0.164E-01    0.909E-02
DAV:  25    -0.669291349411E+03    0.42567E-03   -0.91222E-04 40356   0.192E-01    0.113E-01
DAV:  26    -0.669290887614E+03    0.46180E-03   -0.75652E-04 42012   0.162E-01    0.120E-01
DAV:  27    -0.669290791562E+03    0.96052E-04   -0.36536E-04 39600   0.555E-02    0.109E-01
DAV:  28    -0.669290896248E+03   -0.10469E-03   -0.40496E-05 30504   0.352E-02    0.113E-01
DAV:  29    -0.669290620237E+03    0.27601E-03   -0.30517E-04 36924   0.131E-01    0.126E-01
DAV:  30    -0.669291114992E+03   -0.49475E-03   -0.49123E-04 35856   0.184E-01    0.109E-01
DAV:  31    -0.669291817859E+03   -0.70287E-03   -0.91667E-04 40848   0.234E-01    0.905E-02
DAV:  32    -0.669293452379E+03   -0.16345E-02   -0.36751E-03 42408   0.459E-01    0.646E-02
DAV:  33    -0.669295146851E+03   -0.16945E-02   -0.41137E-03 44892   0.424E-01    0.671E-02
DAV:  34    -0.669294678752E+03    0.46810E-03   -0.27842E-03 37116   0.332E-01    0.961E-02
DAV:  35    -0.669294723786E+03   -0.45035E-04   -0.12859E-04 34260   0.275E-02    0.934E-02
DAV:  36    -0.669294775364E+03   -0.51578E-04   -0.14637E-06 19680   0.669E-03    0.927E-02
DAV:  37    -0.669294721109E+03    0.54255E-04   -0.34933E-05 26544   0.479E-02    0.931E-02
DAV:  38    -0.669294661030E+03    0.60079E-04   -0.19064E-05 24108   0.250E-02    0.922E-02
DAV:  39    -0.669294647192E+03    0.13839E-04   -0.11994E-05 19680   0.135E-02    0.897E-02
DAV:  40    -0.669294648329E+03   -0.11375E-05   -0.56857E-06 18780   0.700E-03
   7 F= -.66929465E+03 E0= -.66929447E+03  d E =0.137670E-01  mag=     0.0001
       N       E                     dE             d eps       ncg     rms          rms(c)
DAV:   1    -0.656068248980E+03    0.13226E+02   -0.20443E+02 48756   0.194E+02    0.121E+01
DAV:   2    -0.668848140719E+03   -0.12780E+02   -0.12950E+02 38532   0.244E+01    0.766E+00
DAV:   3    -0.668960867869E+03   -0.11273E+00   -0.39027E+00 36900   0.104E+01    0.537E+00
DAV:   4    -0.668905046671E+03    0.55821E-01   -0.56936E-01 37776   0.555E+00    0.388E+00
DAV:   5    -0.668905764510E+03   -0.71784E-03   -0.21902E-01 37584   0.350E+00    0.301E+00
DAV:   6    -0.668891670909E+03    0.14094E-01   -0.20792E-01 36852   0.340E+00    0.119E+00
DAV:   7    -0.668892736747E+03   -0.10658E-02   -0.57671E-02 37716   0.160E+00    0.631E-01
DAV:   8    -0.668892845999E+03   -0.10925E-03   -0.23278E-02 36852   0.837E-01    0.448E-01
DAV:   9    -0.668893338818E+03   -0.49282E-03   -0.45817E-03 36156   0.408E-01    0.279E-01
DAV:  10    -0.668893589182E+03   -0.25036E-03   -0.16413E-03 37344   0.278E-01    0.236E-01
DAV:  11    -0.668894122716E+03   -0.53353E-03   -0.90182E-04 42468   0.252E-01    0.166E-01
DAV:  12    -0.668894770314E+03   -0.64760E-03   -0.80426E-04 44856   0.181E-01    0.139E-01
DAV:  13    -0.668895271266E+03   -0.50095E-03   -0.52055E-04 39660   0.108E-01    0.129E-01
DAV:  14    -0.668896111014E+03   -0.83975E-03   -0.47859E-04 45000   0.150E-01    0.136E-01
DAV:  15    -0.668897648427E+03   -0.15374E-02   -0.15132E-03 42048   0.334E-01    0.117E-01
DAV:  16    -0.668899418711E+03   -0.17703E-02   -0.22900E-03 44796   0.401E-01    0.810E-02
DAV:  17    -0.668900690816E+03   -0.12721E-02   -0.19608E-03 48252   0.232E-01    0.664E-02
DAV:  18    -0.668901462832E+03   -0.77202E-03   -0.79218E-04 46764   0.125E-01    0.712E-02
DAV:  19    -0.668901845099E+03   -0.38227E-03   -0.25522E-04 38328   0.566E-02    0.708E-02
DAV:  20    -0.668902081311E+03   -0.23621E-03   -0.46543E-05 33744   0.372E-02    0.671E-02
DAV:  21    -0.668903158411E+03   -0.10771E-02   -0.28405E-04 35304   0.179E-01    0.579E-02
DAV:  22    -0.668905065356E+03   -0.19069E-02   -0.14271E-03 42156   0.329E-01    0.576E-02
DAV:  23    -0.668905594786E+03   -0.52943E-03   -0.72209E-04 40836   0.849E-02    0.583E-02
DAV:  24    -0.668905750110E+03   -0.15532E-03   -0.93604E-05 32448   0.231E-02    0.584E-02
DAV:  25    -0.668905936641E+03   -0.18653E-03   -0.78347E-06 20508   0.299E-02    0.570E-02
DAV:  26    -0.668906386491E+03   -0.44985E-03   -0.68333E-05 28992   0.711E-02    0.580E-02
DAV:  27    -0.668906317101E+03    0.69390E-04   -0.22318E-05 25944   0.209E-02    0.578E-02
DAV:  28    -0.668906188923E+03    0.12818E-03   -0.68015E-06 19968   0.260E-02    0.594E-02
DAV:  29    -0.668905990145E+03    0.19878E-03   -0.46704E-05 25716   0.476E-02    0.658E-02
DAV:  30    -0.668905157076E+03    0.83307E-03   -0.52619E-04 40044   0.153E-01    0.115E-01
DAV:  31    -0.668905042523E+03    0.11455E-03   -0.16116E-04 35484   0.328E-02    0.121E-01
DAV:  32    -0.668905089239E+03   -0.46716E-04   -0.17409E-05 24636   0.166E-02    0.123E-01
DAV:  33    -0.668905102204E+03   -0.12965E-04   -0.16265E-06 17928   0.554E-03    0.119E-01
DAV:  34    -0.668905660261E+03   -0.55806E-03   -0.15974E-04 31968   0.108E-01    0.103E-01
DAV:  35    -0.668907255669E+03   -0.15954E-02   -0.12190E-03 40128   0.294E-01    0.796E-02
DAV:  36    -0.668908550508E+03   -0.12948E-02   -0.94731E-04 46092   0.217E-01    0.794E-02
DAV:  37    -0.668909120202E+03   -0.56969E-03   -0.51875E-04 45672   0.939E-02    0.827E-02
DAV:  38    -0.668909548721E+03   -0.42852E-03   -0.85815E-05 30972   0.872E-02    0.818E-02
DAV:  39    -0.668911124634E+03   -0.15759E-02   -0.83193E-04 46152   0.314E-01    0.991E-02
DAV:  40    -0.668911194752E+03   -0.70118E-04   -0.66728E-04 38064   0.934E-02    0.112E-01
DAV:  41    -0.668911134165E+03    0.60586E-04   -0.88977E-05 37116   0.430E-02    0.109E-01
DAV:  42    -0.668911475626E+03   -0.34146E-03   -0.47110E-05 29568   0.693E-02    0.105E-01
DAV:  43    -0.668912066996E+03   -0.59137E-03   -0.14260E-04 38364   0.122E-01    0.103E-01
DAV:  44    -0.668911240305E+03    0.82669E-03   -0.28784E-04 36252   0.186E-01    0.105E-01
DAV:  45    -0.668911840676E+03   -0.60037E-03   -0.11411E-04 31032   0.123E-01    0.105E-01
DAV:  46    -0.668910777363E+03    0.10633E-02   -0.37808E-04 35304   0.215E-01    0.105E-01
DAV:  47    -0.668910922713E+03   -0.14535E-03   -0.70688E-05 34212   0.325E-02    0.986E-02
DAV:  48    -0.668911087960E+03   -0.16525E-03   -0.69229E-06 19428   0.286E-02    0.966E-02
DAV:  49    -0.668911132265E+03   -0.44304E-04   -0.51827E-06 18048   0.770E-03    0.984E-02
DAV:  50    -0.668911011028E+03    0.12124E-03   -0.37904E-06 19104   0.241E-02    0.997E-02
DAV:  51    -0.668911302843E+03   -0.29182E-03   -0.15592E-05 23856   0.461E-02    0.974E-02
DAV:  52    -0.668911157846E+03    0.14500E-03   -0.69481E-06 22248   0.332E-02    0.970E-02
DAV:  53    -0.668911076807E+03    0.81039E-04   -0.35362E-06 19080   0.205E-02    0.969E-02
DAV:  54    -0.668910523710E+03    0.55310E-03   -0.14068E-04 35796   0.144E-01    0.967E-02
DAV:  55    -0.668910488732E+03    0.34978E-04   -0.77311E-05 36444   0.280E-02    0.917E-02
DAV:  56    -0.668911271777E+03   -0.78304E-03   -0.18202E-04 33084   0.121E-01    0.904E-02
DAV:  57    -0.668912455698E+03   -0.11839E-02   -0.46771E-04 41724   0.178E-01    0.978E-02
DAV:  58    -0.668912222230E+03    0.23347E-03   -0.40212E-04 42240   0.268E-01    0.111E-01
DAV:  59    -0.668912695714E+03   -0.47348E-03   -0.23762E-04 40884   0.934E-02    0.111E-01
DAV:  60    -0.668913004778E+03   -0.30906E-03   -0.73450E-05 39384   0.803E-02    0.116E-01
DAV:  61    -0.668913310346E+03   -0.30557E-03   -0.77868E-05 39108   0.115E-01    0.118E-01
DAV:  62    -0.668914257352E+03   -0.94701E-03   -0.51443E-04 38736   0.230E-01    0.116E-01
DAV:  63    -0.668914747813E+03   -0.49046E-03   -0.29033E-04 41904   0.913E-02    0.128E-01
DAV:  64    -0.668914785173E+03   -0.37360E-04   -0.91644E-05 33180   0.308E-02    0.128E-01
DAV:  65    -0.668914781917E+03    0.32560E-05   -0.30189E-06 19116   0.588E-03
   8 F= -.66891478E+03 E0= -.66891371E+03  d E =0.379866E+00  mag=     0.0015
       N       E                     dE             d eps       ncg     rms          rms(c)
DAV:   1    -0.666540329303E+03    0.23745E+01   -0.42995E+01 48144   0.941E+01    0.487E+00
DAV:   2    -0.669379803452E+03   -0.28395E+01   -0.28853E+01 38544   0.112E+01    0.297E+00
DAV:   3    -0.669420034458E+03   -0.40231E-01   -0.69790E-01 37716   0.407E+00    0.219E+00
DAV:   4    -0.669412345432E+03    0.76890E-02   -0.10078E-01 37092   0.240E+00    0.159E+00
DAV:   5    -0.669410868746E+03    0.14767E-02   -0.48618E-02 40560   0.158E+00    0.948E-01
DAV:   6    -0.669411534001E+03   -0.66525E-03   -0.39707E-02 36756   0.133E+00    0.557E-01
DAV:   7    -0.669412242400E+03   -0.70840E-03   -0.10640E-02 37380   0.739E-01    0.280E-01
DAV:   8    -0.669412646502E+03   -0.40410E-03   -0.52546E-03 38448   0.346E-01    0.311E-01
DAV:   9    -0.669413224990E+03   -0.57849E-03   -0.14874E-03 37140   0.280E-01    0.240E-01
DAV:  10    -0.669414120797E+03   -0.89581E-03   -0.89045E-04 42960   0.158E-01    0.266E-01
DAV:  11    -0.669414356185E+03   -0.23539E-03   -0.34354E-04 36912   0.472E-02    0.269E-01
DAV:  12    -0.669414755655E+03   -0.39947E-03   -0.10871E-04 24072   0.505E-02    0.289E-01
DAV:  13    -0.669412522470E+03    0.22332E-02   -0.38856E-03 37032   0.386E-01    0.241E-01
DAV:  14    -0.669409728021E+03    0.27944E-02   -0.79986E-03 41496   0.583E-01    0.244E-01
DAV:  15    -0.669407388475E+03    0.23395E-02   -0.80306E-03 42636   0.530E-01    0.256E-01
DAV:  16    -0.669406929549E+03    0.45893E-03   -0.35582E-03 43164   0.186E-01    0.232E-01
DAV:  17    -0.669406357710E+03    0.57184E-03   -0.75691E-04 45540   0.106E-01    0.208E-01
DAV:  18    -0.669405504340E+03    0.85337E-03   -0.64458E-04 48024   0.147E-01    0.206E-01
DAV:  19    -0.669404503310E+03    0.10010E-02   -0.91038E-04 40416   0.213E-01    0.217E-01
DAV:  20    -0.669404644433E+03   -0.14112E-03   -0.47141E-04 35676   0.616E-02    0.203E-01
DAV:  21    -0.669404647794E+03   -0.33615E-05   -0.90186E-06 21876   0.683E-03
   9 F= -.66940465E+03 E0= -.66940363E+03  d E =-.489866E+00  mag=     0.0011
       N       E                     dE             d eps       ncg     rms          rms(c)
DAV:   1    -0.668965833967E+03    0.43881E+00   -0.77957E+00 48564   0.388E+01    0.189E+00
DAV:   2    -0.669448460298E+03   -0.48263E+00   -0.48858E+00 38496   0.456E+00    0.114E+00
DAV:   3    -0.669454445041E+03   -0.59847E-02   -0.10363E-01 37512   0.142E+00    0.817E-01
DAV:   4    -0.669453763548E+03    0.68149E-03   -0.14382E-02 37272   0.100E+00    0.612E-01
DAV:   5    -0.669452872367E+03    0.89118E-03   -0.97847E-03 41532   0.644E-01    0.331E-01
DAV:   6    -0.669453544089E+03   -0.67172E-03   -0.46721E-03 37992   0.491E-01    0.175E-01
DAV:   7    -0.669453672025E+03   -0.12794E-03   -0.17507E-03 38148   0.236E-01    0.153E-01
DAV:   8    -0.669453914745E+03   -0.24272E-03   -0.60318E-04 37776   0.163E-01    0.113E-01
DAV:   9    -0.669454159038E+03   -0.24429E-03   -0.52121E-04 37836   0.889E-02    0.140E-01
DAV:  10    -0.669454283619E+03   -0.12458E-03   -0.10773E-04 35268   0.454E-02    0.136E-01
DAV:  11    -0.669454581101E+03   -0.29748E-03   -0.10682E-04 26880   0.686E-02    0.142E-01
DAV:  12    -0.669454451265E+03    0.12984E-03   -0.53067E-05 32772   0.507E-02    0.144E-01
DAV:  13    -0.669454243700E+03    0.20757E-03   -0.34289E-05 25020   0.540E-02    0.147E-01
DAV:  14    -0.669454566697E+03   -0.32300E-03   -0.91586E-05 31440   0.977E-02    0.139E-01
DAV:  15    -0.669458108232E+03   -0.35415E-02   -0.88828E-03 43176   0.839E-01    0.141E-01
DAV:  16    -0.669460778679E+03   -0.26704E-02   -0.62517E-03 45984   0.426E-01    0.171E-01
DAV:  17    -0.669459297055E+03    0.14816E-02   -0.35331E-03 36972   0.320E-01    0.147E-01
DAV:  18    -0.669457963277E+03    0.13338E-02   -0.87433E-04 47016   0.216E-01    0.130E-01
DAV:  19    -0.669453028307E+03    0.49350E-02   -0.13702E-02 43704   0.972E-01    0.132E-01
DAV:  20    -0.669450933940E+03    0.20944E-02   -0.10149E-02 47136   0.600E-01    0.143E-01
DAV:  21    -0.669451371494E+03   -0.43755E-03   -0.38601E-03 35616   0.143E-01    0.154E-01
DAV:  22    -0.669451376232E+03   -0.47386E-05   -0.21546E-05 28740   0.132E-02
  10 F= -.66945138E+03 E0= -.66945055E+03  d E =-.467284E-01  mag=     0.0009
       N       E                     dE             d eps       ncg     rms          rms(c)
DAV:   1    -0.669157395294E+03    0.29398E+00   -0.54419E+00 47964   0.292E+01    0.148E+00
DAV:   2    -0.669451320717E+03   -0.29393E+00   -0.29678E+00 38088   0.350E+00    0.934E-01
DAV:   3    -0.669454398792E+03   -0.30781E-02   -0.59337E-02 38016   0.968E-01    0.690E-01
DAV:   4    -0.669454061805E+03    0.33699E-03   -0.82209E-03 37140   0.784E-01    0.532E-01
DAV:   5    -0.669454260422E+03   -0.19862E-03   -0.66899E-03 38664   0.478E-01    0.362E-01
DAV:   6    -0.669455014682E+03   -0.75426E-03   -0.30693E-03 37200   0.465E-01    0.184E-01
DAV:   7    -0.669455563766E+03   -0.54908E-03   -0.16246E-03 38988   0.172E-01    0.217E-01
DAV:   8    -0.669455982816E+03   -0.41905E-03   -0.43318E-04 39792   0.140E-01    0.192E-01
DAV:   9    -0.669456549056E+03   -0.56624E-03   -0.44166E-04 40656   0.125E-01    0.199E-01
DAV:  10    -0.669456391946E+03    0.15711E-03   -0.19320E-04 33900   0.566E-02    0.198E-01
DAV:  11    -0.669455895348E+03    0.49660E-03   -0.15441E-04 36468   0.106E-01    0.210E-01
DAV:  12    -0.669455923234E+03   -0.27886E-04   -0.79236E-05 33372   0.175E-02    0.210E-01
DAV:  13    -0.669455446599E+03    0.47663E-03   -0.26041E-04 34212   0.751E-02    0.193E-01
DAV:  14    -0.669454216524E+03    0.12301E-02   -0.25346E-03 40476   0.239E-01    0.178E-01
DAV:  15    -0.669453295231E+03    0.92129E-03   -0.24250E-03 40356   0.301E-01    0.241E-01
DAV:  16    -0.669451915700E+03    0.13795E-02   -0.38289E-03 39780   0.368E-01    0.321E-01
DAV:  17    -0.669450585145E+03    0.13306E-02   -0.53253E-03 40548   0.414E-01    0.416E-01
DAV:  18    -0.669450727668E+03   -0.14252E-03   -0.19417E-03 36936   0.107E-01    0.438E-01
DAV:  19    -0.669450702029E+03    0.25639E-04   -0.12884E-04 33492   0.220E-02    0.440E-01
DAV:  20    -0.669451563743E+03   -0.86171E-03   -0.42807E-04 36000   0.167E-01    0.436E-01
DAV:  21    -0.669452948119E+03   -0.13844E-02   -0.88295E-04 40296   0.239E-01    0.439E-01
DAV:  22    -0.669454709146E+03   -0.17610E-02   -0.23462E-03 41280   0.332E-01    0.442E-01
DAV:  23    -0.669454856813E+03   -0.14767E-03   -0.87953E-04 34788   0.656E-02    0.452E-01
DAV:  24    -0.669454895314E+03   -0.38501E-04   -0.96911E-06 22320   0.970E-03    0.450E-01
DAV:  25    -0.669454890989E+03    0.43242E-05   -0.23471E-05 23352   0.289E-02
  11 F= -.66945489E+03 E0= -.66945415E+03  d E =-.351476E-02  mag=     0.0011
       N       E                     dE             d eps       ncg     rms          rms(c)
DAV:   1    -0.664297701615E+03    0.51572E+01   -0.74510E+01 48732   0.123E+02    0.670E+00
DAV:   2    -0.669105795241E+03   -0.48081E+01   -0.48902E+01 38352   0.146E+01    0.410E+00
DAV:   3    -0.669192088701E+03   -0.86293E-01   -0.14223E+00 38316   0.523E+00    0.282E+00
DAV:   4    -0.669181695930E+03    0.10393E-01   -0.14257E-01 36996   0.297E+00    0.208E+00
DAV:   5    -0.669187276663E+03   -0.55807E-02   -0.87969E-02 42252   0.181E+00    0.135E+00
DAV:   6    -0.669195270640E+03   -0.79940E-02   -0.55481E-02 37092   0.185E+00    0.683E-01
DAV:   7    -0.669200325260E+03   -0.50546E-02   -0.29023E-02 37236   0.789E-01    0.720E-01
DAV:   8    -0.669203785707E+03   -0.34604E-02   -0.67920E-03 37044   0.534E-01    0.579E-01
DAV:   9    -0.669209993447E+03   -0.62077E-02   -0.61164E-03 40140   0.313E-01    0.672E-01
DAV:  10    -0.669204410294E+03    0.55832E-02   -0.43058E-03 36708   0.451E-01    0.681E-01
DAV:  11    -0.669196040028E+03    0.83703E-02   -0.76300E-03 42480   0.557E-01    0.652E-01
DAV:  12    -0.669182284880E+03    0.13755E-01   -0.24673E-02 42660   0.110E+00    0.667E-01
DAV:  13    -0.669176644313E+03    0.56406E-02   -0.14565E-02 45288   0.541E-01    0.667E-01
DAV:  14    -0.669173419475E+03    0.32248E-02   -0.52620E-03 46620   0.248E-01    0.624E-01
DAV:  15    -0.669169210168E+03    0.42093E-02   -0.34423E-03 42000   0.358E-01    0.579E-01
DAV:  16    -0.669153816354E+03    0.15394E-01   -0.30300E-02 40716   0.121E+00    0.666E-01
DAV:  17    -0.669166023249E+03   -0.12207E-01   -0.14618E-02 38400   0.107E+00    0.554E-01
DAV:  18    -0.669188758421E+03   -0.22735E-01   -0.60128E-02 41496   0.207E+00    0.456E-01
DAV:  19    -0.669241716653E+03   -0.52958E-01   -0.23229E-01 42552   0.318E+00    0.724E-01
DAV:  20    -0.669269831238E+03   -0.28115E-01   -0.84322E-02 42120   0.100E+00    0.804E-01
DAV:  21    -0.669268422628E+03    0.14086E-02   -0.17487E-02 35100   0.400E-01    0.837E-01
DAV:  22    -0.669253396360E+03    0.15026E-01   -0.85746E-03 43032   0.582E-01    0.804E-01
DAV:  23    -0.669241711354E+03    0.11685E-01   -0.11638E-02 42900   0.444E-01    0.739E-01
DAV:  24    -0.669201550367E+03    0.40161E-01   -0.12701E-01 41004   0.200E+00    0.779E-01
DAV:  25    -0.669179293679E+03    0.22257E-01   -0.98173E-02 43836   0.162E+00    0.965E-01
DAV:  26    -0.669180037322E+03   -0.74364E-03   -0.30012E-02 36492   0.388E-01    0.915E-01
DAV:  27    -0.669175238467E+03    0.47989E-02   -0.20439E-03 56664   0.325E-01    0.972E-01
DAV:  28    -0.669175945601E+03   -0.70713E-03   -0.80600E-04 35328   0.941E-02    0.951E-01
DAV:  29    -0.669176059283E+03   -0.11368E-03   -0.38996E-05 32784   0.152E-02    0.947E-01
DAV:  30    -0.669170083276E+03    0.59760E-02   -0.45810E-03 38568   0.493E-01    0.984E-01
DAV:  31    -0.669165201990E+03    0.48813E-02   -0.32768E-03 41544   0.363E-01    0.103E+00
DAV:  32    -0.669175236766E+03   -0.10035E-01   -0.14517E-02 39888   0.792E-01    0.778E-01
DAV:  33    -0.669192893255E+03   -0.17656E-01   -0.47824E-02 42408   0.139E+00    0.564E-01
DAV:  34    -0.669200597474E+03   -0.77042E-02   -0.14128E-02 43440   0.487E-01    0.610E-01
DAV:  35    -0.669203564350E+03   -0.29669E-02   -0.35831E-03 42072   0.166E-01    0.632E-01
DAV:  36    -0.669199357193E+03    0.42072E-02   -0.25794E-03 36624   0.311E-01    0.607E-01
DAV:  37    -0.669187340265E+03    0.12017E-01   -0.14317E-02 41676   0.830E-01    0.604E-01
DAV:  38    -0.669125783141E+03    0.61557E-01   -0.30360E-01 41232   0.381E+00    0.114E+00
DAV:  39    -0.669132325577E+03   -0.65424E-02   -0.63652E-02 36468   0.554E-01    0.104E+00
DAV:  40    -0.669129126839E+03    0.31987E-02   -0.10461E-03 45216   0.155E-01    0.107E+00
DAV:  41    -0.669137964852E+03   -0.88380E-02   -0.46440E-03 37440   0.547E-01    0.933E-01
DAV:  42    -0.669146986860E+03   -0.90220E-02   -0.61081E-03 43320   0.564E-01    0.788E-01
DAV:  43    -0.669151491319E+03   -0.45045E-02   -0.40637E-03 47532   0.323E-01    0.759E-01
DAV:  44    -0.669149101419E+03    0.23899E-02   -0.13019E-03 37248   0.285E-01    0.819E-01
DAV:  45    -0.669151457892E+03   -0.23565E-02   -0.56157E-04 35232   0.195E-01    0.773E-01
DAV:  46    -0.669151588660E+03   -0.13077E-03   -0.19432E-04 37980   0.869E-02    0.757E-01
DAV:  47    -0.669157173270E+03   -0.55846E-02   -0.19157E-03 42840   0.520E-01    0.668E-01
DAV:  48    -0.669164334891E+03   -0.71616E-02   -0.57163E-03 43488   0.673E-01    0.612E-01
DAV:  49    -0.669167944159E+03   -0.36093E-02   -0.59742E-03 46884   0.438E-01    0.710E-01
DAV:  50    -0.669166714379E+03    0.12298E-02   -0.38451E-03 36444   0.227E-01    0.788E-01
DAV:  51    -0.669166645172E+03    0.69207E-04   -0.25232E-04 34212   0.380E-02    0.793E-01
DAV:  52    -0.669167508025E+03   -0.86285E-03   -0.16686E-04 31920   0.766E-02    0.782E-01
DAV:  53    -0.669166992696E+03    0.51533E-03   -0.19197E-05 24432   0.451E-02    0.780E-01
DAV:  54    -0.669168597264E+03   -0.16046E-02   -0.21561E-04 34212   0.139E-01    0.776E-01
DAV:  55    -0.669171186019E+03   -0.25888E-02   -0.58965E-04 40740   0.296E-01    0.814E-01
DAV:  56    -0.669165213113E+03    0.59729E-02   -0.42459E-03 40944   0.513E-01    0.853E-01
DAV:  57    -0.669163667555E+03    0.15456E-02   -0.11226E-03 42276   0.139E-01    0.821E-01
DAV:  58    -0.669166717025E+03   -0.30495E-02   -0.15652E-03 37980   0.347E-01    0.812E-01
DAV:  59    -0.669166051139E+03    0.66589E-03   -0.12825E-03 47232   0.296E-01    0.911E-01
DAV:  60    -0.669161740560E+03    0.43106E-02   -0.25821E-03 40572   0.395E-01    0.932E-01
DAV:  61    -0.669163664920E+03   -0.19244E-02   -0.89325E-04 38796   0.249E-01    0.935E-01
DAV:  62    -0.669157648328E+03    0.60166E-02   -0.69663E-03 41232   0.627E-01    0.101E+00
DAV:  63    -0.669157868505E+03   -0.22018E-03   -0.11318E-03 39240   0.145E-01    0.972E-01
DAV:  64    -0.669161993240E+03   -0.41247E-02   -0.23298E-03 39924   0.406E-01    0.955E-01
DAV:  65    -0.669160945676E+03    0.10476E-02   -0.62614E-04 43596   0.228E-01    0.966E-01
DAV:  66    -0.669159898299E+03    0.10474E-02   -0.50822E-04 44940   0.240E-01    0.974E-01
DAV:  67    -0.669158703288E+03    0.11950E-02   -0.55499E-04 44580   0.136E-01    0.946E-01
DAV:  68    -0.669158884704E+03   -0.18142E-03   -0.26526E-04 33432   0.578E-02    0.940E-01
DAV:  69    -0.669159649003E+03   -0.76430E-03   -0.49481E-05 27552   0.788E-02    0.947E-01
DAV:  70    -0.669159162251E+03    0.48675E-03   -0.42908E-05 27312   0.596E-02    0.951E-01
DAV:  71    -0.669159506027E+03   -0.34378E-03   -0.45353E-05 25008   0.573E-02    0.943E-01
DAV:  72    -0.669153917279E+03    0.55887E-02   -0.65424E-03 41280   0.672E-01    0.102E+00
DAV:  73    -0.669155774893E+03   -0.18576E-02   -0.71069E-04 36624   0.206E-01    0.101E+00
DAV:  74    -0.669155310918E+03    0.46398E-03   -0.30435E-04 35508   0.863E-02    0.104E+00
DAV:  75    -0.669154479871E+03    0.83105E-03   -0.28355E-04 38808   0.139E-01    0.106E+00
DAV:  76    -0.669154492923E+03   -0.13051E-04   -0.13995E-04 33312   0.301E-02    0.105E+00
DAV:  77    -0.669150736397E+03    0.37565E-02   -0.12375E-03 38820   0.325E-01    0.107E+00
DAV:  78    -0.669151153195E+03   -0.41680E-03   -0.20063E-04 34632   0.574E-02    0.107E+00
DAV:  79    -0.669151455227E+03   -0.30203E-03   -0.18145E-05 25392   0.620E-02    0.108E+00
DAV:  80    -0.669150861817E+03    0.59341E-03   -0.48765E-05 32556   0.941E-02    0.107E+00
DAV:  81    -0.669151396513E+03   -0.53470E-03   -0.34739E-04 41520   0.105E-01    0.102E+00
DAV:  82    -0.669168947448E+03   -0.17551E-01   -0.10764E-01 42888   0.205E+00    0.491E-01
DAV:  83    -0.669172430838E+03   -0.34834E-02   -0.13946E-02 36504   0.344E-01    0.532E-01
DAV:  84    -0.669172489216E+03   -0.58378E-04   -0.94752E-04 35628   0.942E-02    0.543E-01
DAV:  85    -0.669171358558E+03    0.11307E-02   -0.35846E-04 36540   0.173E-01    0.544E-01
DAV:  86    -0.669171069927E+03    0.28863E-03   -0.97950E-05 36912   0.368E-02    0.540E-01
DAV:  87    -0.669179231039E+03   -0.81611E-02   -0.14884E-02 41892   0.123E+00    0.562E-01
DAV:  88    -0.669182822686E+03   -0.35916E-02   -0.55792E-03 42876   0.434E-01    0.582E-01
DAV:  89    -0.669176297085E+03    0.65256E-02   -0.79711E-03 40392   0.647E-01    0.576E-01
DAV:  90    -0.669163061874E+03    0.13235E-01   -0.28930E-02 43524   0.138E+00    0.588E-01
DAV:  91    -0.669158771739E+03    0.42901E-02   -0.13583E-02 45708   0.614E-01    0.584E-01
DAV:  92    -0.669159644474E+03   -0.87273E-03   -0.64105E-03 48540   0.425E-01    0.615E-01
DAV:  93    -0.669163106611E+03   -0.34621E-02   -0.43723E-03 37092   0.575E-01    0.557E-01
DAV:  94    -0.669161954467E+03    0.11521E-02   -0.93054E-04 40704   0.215E-01    0.559E-01
DAV:  95    -0.669162794706E+03   -0.84024E-03   -0.22888E-04 43896   0.169E-01    0.555E-01
DAV:  96    -0.669157411078E+03    0.53836E-02   -0.63764E-03 41460   0.822E-01    0.619E-01
DAV:  97    -0.669156390825E+03    0.10203E-02   -0.29989E-03 44400   0.219E-01    0.632E-01
DAV:  98    -0.669156555118E+03   -0.16429E-03   -0.65631E-04 35160   0.804E-02    0.631E-01
DAV:  99    -0.669154174999E+03    0.23801E-02   -0.58714E-04 36996   0.227E-01    0.660E-01
DAV: 100    -0.669154632808E+03   -0.45781E-03   -0.13468E-04 36648   0.452E-02    0.655E-01
DAV: 101    -0.669157292963E+03   -0.26602E-02   -0.81299E-04 39348   0.317E-01    0.603E-01
DAV: 102    -0.669156586841E+03    0.70612E-03   -0.50640E-04 38460   0.240E-01    0.603E-01
DAV: 103    -0.669155869241E+03    0.71760E-03   -0.12200E-04 38544   0.886E-02    0.614E-01
DAV: 104    -0.669155821984E+03    0.47257E-04   -0.43325E-05 33252   0.368E-02    0.609E-01
DAV: 105    -0.669157378243E+03   -0.15563E-02   -0.28535E-04 37824   0.195E-01    0.571E-01
DAV: 106    -0.669160440792E+03   -0.30625E-02   -0.17182E-03 41580   0.383E-01    0.520E-01
DAV: 107    -0.669162862407E+03   -0.24216E-02   -0.14907E-03 45840   0.200E-01    0.505E-01
DAV: 108    -0.669163878018E+03   -0.10156E-02   -0.46090E-04 45108   0.998E-02    0.503E-01
DAV: 109    -0.669164383008E+03   -0.50499E-03   -0.15530E-04 43572   0.420E-02    0.504E-01
DAV: 110    -0.669164894675E+03   -0.51167E-03   -0.26341E-05 22908   0.367E-02    0.503E-01
DAV: 111    -0.669169948066E+03   -0.50534E-02   -0.32922E-03 39276   0.479E-01    0.492E-01
DAV: 112    -0.669178509366E+03   -0.85613E-02   -0.10962E-02 41292   0.807E-01    0.500E-01
DAV: 113    -0.669183197974E+03   -0.46886E-02   -0.69482E-03 45888   0.408E-01    0.523E-01
DAV: 114    -0.669184248017E+03   -0.10500E-02   -0.24799E-03 37572   0.112E-01    0.542E-01
DAV: 115    -0.669185915802E+03   -0.16678E-02   -0.39561E-04 39516   0.125E-01    0.548E-01
DAV: 116    -0.669186527419E+03   -0.61162E-03   -0.11876E-04 36108   0.470E-02    0.552E-01
DAV: 117    -0.669164095586E+03    0.22432E-01   -0.60153E-02 39780   0.181E+00    0.618E-01
DAV: 118    -0.669161872414E+03    0.22232E-02   -0.12307E-02 42408   0.473E-01    0.617E-01
DAV: 119    -0.669164181237E+03   -0.23088E-02   -0.34704E-03 36300   0.387E-01    0.577E-01
DAV: 120    -0.669162998716E+03    0.11825E-02   -0.28826E-04 37152   0.131E-01    0.582E-01
DAV: 121    -0.669161058520E+03    0.19402E-02   -0.37891E-04 37692   0.168E-01    0.595E-01
DAV: 122    -0.669159057947E+03    0.20006E-02   -0.86936E-04 39192   0.249E-01    0.617E-01
DAV: 123    -0.669158948910E+03    0.10904E-03   -0.41154E-04 35148   0.615E-02    0.602E-01
DAV: 124    -0.669161181251E+03   -0.22323E-02   -0.61630E-04 37956   0.235E-01    0.569E-01
DAV: 125    -0.669165011504E+03   -0.38303E-02   -0.29090E-03 42684   0.529E-01    0.512E-01
DAV: 126    -0.669168400861E+03   -0.33894E-02   -0.33906E-03 44784   0.470E-01    0.479E-01
DAV: 127    -0.669183077319E+03   -0.14676E-01   -0.34739E-02 42588   0.180E+00    0.464E-01
DAV: 128    -0.669184949585E+03   -0.18723E-02   -0.14822E-02 36228   0.279E-01    0.476E-01
DAV: 129    -0.669185716391E+03   -0.76681E-03   -0.14083E-04 48180   0.673E-02    0.477E-01
DAV: 130    -0.669185702763E+03    0.13628E-04   -0.57488E-05 33540   0.205E-02    0.479E-01
DAV: 131    -0.669185837401E+03   -0.13464E-03   -0.44187E-06 20832   0.204E-02    0.477E-01
DAV: 132    -0.669188321499E+03   -0.24841E-02   -0.93486E-04 42156   0.269E-01    0.466E-01
DAV: 133    -0.669188836409E+03   -0.51491E-03   -0.46041E-04 37620   0.569E-02    0.473E-01
DAV: 134    -0.669186844813E+03    0.19916E-02   -0.48811E-04 36768   0.172E-01    0.471E-01
DAV: 135    -0.669186502533E+03    0.34228E-03   -0.14525E-04 43416   0.514E-02    0.469E-01
DAV: 136    -0.669186840479E+03   -0.33795E-03   -0.29975E-05 28068   0.318E-02    0.469E-01
DAV: 137    -0.669186763076E+03    0.77403E-04   -0.11373E-05 22020   0.261E-02    0.468E-01
DAV: 138    -0.669186731455E+03    0.31621E-04   -0.87097E-06 18480   0.884E-03    0.468E-01
DAV: 139    -0.669186612070E+03    0.11939E-03   -0.15669E-06 18264   0.924E-03    0.468E-01
DAV: 140    -0.669184351161E+03    0.22609E-02   -0.53795E-04 38244   0.185E-01    0.460E-01
DAV: 141    -0.669183559986E+03    0.79117E-03   -0.29857E-04 43668   0.771E-02    0.456E-01
DAV: 142    -0.669188800535E+03   -0.52405E-02   -0.28843E-03 38652   0.436E-01    0.471E-01
DAV: 143    -0.669188622275E+03    0.17826E-03   -0.46758E-04 37356   0.909E-02    0.469E-01
DAV: 144    -0.669187767036E+03    0.85524E-03   -0.91259E-05 33468   0.822E-02    0.472E-01
DAV: 145    -0.669185144218E+03    0.26228E-02   -0.70454E-04 41016   0.250E-01    0.475E-01
DAV: 146    -0.669186048240E+03   -0.90402E-03   -0.21939E-04 39768   0.103E-01    0.468E-01
DAV: 147    -0.669203946837E+03   -0.17899E-01   -0.30803E-02 41148   0.145E+00    0.501E-01
DAV: 148    -0.669205572261E+03   -0.16254E-02   -0.68665E-03 36144   0.169E-01    0.526E-01
DAV: 149    -0.669205562860E+03    0.94015E-05   -0.16989E-04 35604   0.496E-02    0.530E-01
DAV: 150    -0.669206602863E+03   -0.10400E-02   -0.12255E-04 33744   0.784E-02    0.530E-01
DAV: 151    -0.669207250170E+03   -0.64731E-03   -0.44132E-05 30120   0.497E-02    0.535E-01
DAV: 152    -0.669213424128E+03   -0.61740E-02   -0.25324E-03 39816   0.408E-01    0.540E-01
DAV: 153    -0.669212420278E+03    0.10038E-02   -0.48631E-04 37008   0.181E-01    0.540E-01
DAV: 154    -0.669212097745E+03    0.32253E-03   -0.12781E-04 35016   0.407E-02    0.539E-01
DAV: 155    -0.669212485522E+03   -0.38778E-03   -0.26565E-05 27468   0.311E-02    0.541E-01
DAV: 156    -0.669212784981E+03   -0.29946E-03   -0.21047E-05 28272   0.444E-02    0.534E-01
DAV: 157    -0.669209915232E+03    0.28697E-02   -0.41724E-03 46800   0.907E-01    0.619E-01
DAV: 158    -0.669214286040E+03   -0.43708E-02   -0.23686E-03 38976   0.325E-01    0.611E-01
DAV: 159    -0.669214195547E+03    0.90493E-04   -0.66740E-04 35568   0.671E-02    0.617E-01
DAV: 160    -0.669211238079E+03    0.29575E-02   -0.92986E-04 39228   0.217E-01    0.598E-01
DAV: 161    -0.669206252924E+03    0.49852E-02   -0.29814E-03 42936   0.372E-01    0.583E-01
DAV: 162    -0.669182106361E+03    0.24147E-01   -0.64857E-02 41952   0.188E+00    0.591E-01
DAV: 163    -0.669176247946E+03    0.58584E-02   -0.26226E-02 44652   0.674E-01    0.515E-01
DAV: 164    -0.669172540511E+03    0.37074E-02   -0.71758E-03 48288   0.350E-01    0.487E-01
DAV: 165    -0.669173287770E+03   -0.74726E-03   -0.27093E-03 35292   0.161E-01    0.488E-01
DAV: 166    -0.669174722762E+03   -0.14350E-02   -0.23298E-04 40644   0.144E-01    0.477E-01
DAV: 167    -0.669173377258E+03    0.13455E-02   -0.31861E-03 42228   0.437E-01    0.609E-01
DAV: 168    -0.669172756984E+03    0.62027E-03   -0.67610E-04 37572   0.138E-01    0.619E-01
DAV: 169    -0.669171905219E+03    0.85177E-03   -0.20360E-04 40668   0.810E-02    0.616E-01
DAV: 170    -0.669173671608E+03   -0.17664E-02   -0.42550E-04 36048   0.173E-01    0.624E-01
DAV: 171    -0.669174417866E+03   -0.74626E-03   -0.12016E-04 37056   0.719E-02    0.635E-01
DAV: 172    -0.669177862077E+03   -0.34442E-02   -0.24531E-03 40452   0.315E-01    0.626E-01
DAV: 173    -0.669185518870E+03   -0.76568E-02   -0.86032E-03 41628   0.768E-01    0.623E-01
DAV: 174    -0.669190523904E+03   -0.50050E-02   -0.65828E-03 43980   0.438E-01    0.664E-01
DAV: 175    -0.669190803356E+03   -0.27945E-03   -0.24564E-03 35544   0.119E-01    0.640E-01
DAV: 176    -0.669188964224E+03    0.18391E-02   -0.43747E-04 36984   0.171E-01    0.651E-01
DAV: 177    -0.669200779551E+03   -0.11815E-01   -0.17847E-02 41616   0.107E+00    0.671E-01
DAV: 178    -0.669199698259E+03    0.10813E-02   -0.26400E-03 36372   0.206E-01    0.715E-01
DAV: 179    -0.669194392310E+03    0.53059E-02   -0.31300E-03 44028   0.419E-01    0.779E-01
DAV: 180    -0.669183612102E+03    0.10780E-01   -0.14776E-02 43452   0.912E-01    0.844E-01
DAV: 181    -0.669181473355E+03    0.21387E-02   -0.67279E-03 45000   0.274E-01    0.859E-01
DAV: 182    -0.669180670252E+03    0.80310E-03   -0.20233E-03 45252   0.632E-01    0.695E-01
DAV: 183    -0.669174305460E+03    0.63648E-02   -0.81479E-03 48612   0.738E-01    0.826E-01
DAV: 184    -0.669175522604E+03   -0.12171E-02   -0.44077E-03 35448   0.185E-01    0.858E-01
DAV: 185    -0.669178925629E+03   -0.34030E-02   -0.19803E-03 45888   0.433E-01    0.790E-01
DAV: 186    -0.669189550562E+03   -0.10625E-01   -0.23545E-02 43404   0.127E+00    0.634E-01
DAV: 187    -0.669203072764E+03   -0.13522E-01   -0.35028E-02 44952   0.122E+00    0.561E-01
DAV: 188    -0.669211844678E+03   -0.87719E-02   -0.20206E-02 47244   0.573E-01    0.652E-01
DAV: 189    -0.669214777375E+03   -0.29327E-02   -0.44388E-03 37944   0.172E-01    0.668E-01
DAV: 190    -0.669216603601E+03   -0.18262E-02   -0.31183E-04 47664   0.129E-01    0.680E-01
DAV: 191    -0.669223025631E+03   -0.64220E-02   -0.24689E-03 45996   0.408E-01    0.728E-01
DAV: 192    -0.669231512171E+03   -0.84865E-02   -0.81188E-03 43548   0.729E-01    0.722E-01
DAV: 193    -0.669241106207E+03   -0.95940E-02   -0.83955E-03 45432   0.496E-01    0.789E-01
DAV: 194    -0.669245196133E+03   -0.40899E-02   -0.34010E-03 46128   0.193E-01    0.844E-01
DAV: 195    -0.669245730251E+03   -0.53412E-03   -0.63392E-04 34968   0.607E-02    0.847E-01
DAV: 196    -0.669245248895E+03    0.48136E-03   -0.12315E-04 34332   0.133E-01    0.850E-01
DAV: 197    -0.669335356965E+03   -0.90108E-01   -0.30200E-01 39540   0.445E+00    0.169E+00
DAV: 198    -0.669344424837E+03   -0.90679E-02   -0.64317E-02 35808   0.492E-01    0.181E+00
DAV: 199    -0.669345308482E+03   -0.88365E-03   -0.48626E-04 42600   0.101E-01    0.179E+00
DAV: 200    -0.669340816063E+03    0.44924E-02   -0.35362E-04 41004   0.221E-01
  12 F= -.66934082E+03 E0= -.66934082E+03  d E =0.114075E+00  mag=    -0.0018
       N       E                     dE             d eps       ncg     rms          rms(c)
DAV:   1    -0.666950351337E+03    0.23950E+01   -0.44368E+01 47556   0.914E+01    0.510E+00
DAV:   2    -0.669645938549E+03   -0.26956E+01   -0.27556E+01 38460   0.116E+01    0.346E+00
DAV:   3    -0.669716700604E+03   -0.70762E-01   -0.10829E+00 37932   0.569E+00    0.267E+00
DAV:   4    -0.669699537541E+03    0.17163E-01   -0.13100E-01 37116   0.268E+00    0.175E+00
DAV:   5    -0.669710031229E+03   -0.10494E-01   -0.49066E-02 40656   0.163E+00    0.120E+00
DAV:   6    -0.669719298389E+03   -0.92672E-02   -0.49812E-02 39192   0.146E+00    0.529E-01
DAV:   7    -0.669723908180E+03   -0.46098E-02   -0.15488E-02 39048   0.770E-01    0.387E-01
DAV:   8    -0.669726940829E+03   -0.30326E-02   -0.78593E-03 36600   0.455E-01    0.309E-01
DAV:   9    -0.669730010309E+03   -0.30695E-02   -0.23477E-03 40536   0.318E-01    0.250E-01
DAV:  10    -0.669733209577E+03   -0.31993E-02   -0.15776E-03 44064   0.288E-01    0.200E-01
DAV:  11    -0.669737437908E+03   -0.42283E-02   -0.23383E-03 47280   0.361E-01    0.162E-01
DAV:  12    -0.669739282070E+03   -0.18442E-02   -0.20661E-03 45984   0.219E-01    0.146E-01
DAV:  13    -0.669740681441E+03   -0.13994E-02   -0.68485E-04 44136   0.164E-01    0.130E-01
DAV:  14    -0.669742639171E+03   -0.19577E-02   -0.86615E-04 46356   0.271E-01    0.116E-01
DAV:  15    -0.669743667779E+03   -0.10286E-02   -0.95750E-04 45876   0.187E-01    0.109E-01
[...]
DAV:  15    -0.669471116809E+03    0.18328E-02   -0.11758E-04 38880   0.188E-01    0.200E-02
DAV:  16    -0.669470094349E+03    0.10225E-02   -0.18214E-04 43584   0.104E-01    0.180E-02
DAV:  17    -0.669469591176E+03    0.50317E-03   -0.94834E-05 38136   0.500E-02    0.157E-02
DAV:  18    -0.669468698467E+03    0.89271E-03   -0.12168E-05 23964   0.890E-02    0.126E-02
DAV:  19    -0.669467786204E+03    0.91226E-03   -0.44512E-05 32340   0.961E-02    0.982E-03
DAV:  20    -0.669467270759E+03    0.51544E-03   -0.65867E-05 36360   0.535E-02    0.745E-03
DAV:  21    -0.669467029709E+03    0.24105E-03   -0.35824E-05 29748   0.264E-02    0.881E-03
DAV:  22    -0.669466779601E+03    0.25011E-03   -0.21960E-06 18480   0.248E-02    0.743E-03
DAV:  23    -0.669466600420E+03    0.17918E-03   -0.31988E-06 20244   0.268E-02    0.633E-03
DAV:  24    -0.669466236930E+03    0.36349E-03   -0.44511E-06 20340   0.414E-02    0.467E-03
DAV:  25    -0.669466070088E+03    0.16684E-03   -0.12387E-05 20796   0.245E-02    0.474E-03
DAV:  26    -0.669465910550E+03    0.15954E-03   -0.53057E-06 18912   0.210E-02    0.373E-03
DAV:  27    -0.669465796858E+03    0.11369E-03   -0.53255E-06 19020   0.182E-02    0.347E-03
DAV:  28    -0.669465625544E+03    0.17131E-03   -0.23849E-06 18696   0.197E-02    0.235E-03
DAV:  29    -0.669465549369E+03    0.76175E-04   -0.75762E-06 19428   0.117E-02    0.293E-03
DAV:  30    -0.669465526914E+03    0.22455E-04   -0.49071E-06 18000   0.507E-03    0.207E-03
DAV:  31    -0.669465568524E+03   -0.41610E-04   -0.35345E-07 17928   0.579E-03    0.197E-03
DAV:  32    -0.669465498233E+03    0.70291E-04   -0.37814E-07 17928   0.128E-02    0.240E-03
DAV:  33    -0.669465467342E+03    0.30891E-04   -0.46809E-07 17928   0.553E-03    0.274E-03
DAV:  34    -0.669465380054E+03    0.87288E-04   -0.58642E-07 18552   0.160E-02    0.295E-03
DAV:  35    -0.669465367748E+03    0.12307E-04   -0.16412E-06 17928   0.362E-03    0.320E-03
DAV:  36    -0.669465355070E+03    0.12677E-04   -0.18003E-07 17928   0.193E-03    0.296E-03
DAV:  37    -0.669465326258E+03    0.28813E-04   -0.39097E-08 17892   0.371E-03    0.255E-03
DAV:  38    -0.669465307628E+03    0.18630E-04   -0.94401E-08 17880   0.375E-03    0.232E-03
DAV:  39    -0.669465271858E+03    0.35771E-04   -0.12544E-07 17820   0.536E-03    0.200E-03
DAV:  40    -0.669465228138E+03    0.43719E-04   -0.25786E-07 17820   0.718E-03    0.164E-03
DAV:  41    -0.669465198074E+03    0.30064E-04   -0.46474E-07 17820   0.417E-03    0.152E-03
DAV:  42    -0.669465181952E+03    0.16122E-04   -0.34464E-07 17820   0.238E-03    0.156E-03
DAV:  43    -0.669465178800E+03    0.31524E-05   -0.19583E-07 17784   0.103E-03
  45 F= -.66946518E+03 E0= -.66946518E+03  d E =-.401615E+00  mag=    -0.0000
       N       E                     dE             d eps       ncg     rms          rms(c)
DAV:   1    -0.669414305125E+03    0.50877E-01   -0.80477E-01 49980   0.133E+01    0.647E-01
DAV:   2    -0.669468745010E+03   -0.54440E-01   -0.55950E-01 38952   0.156E+00    0.393E-01
DAV:   3    -0.669469644598E+03   -0.89959E-03   -0.14782E-02 37368   0.570E-01    0.277E-01
DAV:   4    -0.669469481454E+03    0.16314E-03   -0.16071E-03 37344   0.327E-01    0.199E-01
DAV:   5    -0.669469291053E+03    0.19040E-03   -0.99302E-04 40356   0.191E-01    0.944E-02
DAV:   6    -0.669469284271E+03    0.67824E-05   -0.44797E-04 38664   0.128E-01    0.577E-02
DAV:   7    -0.669469218401E+03    0.65870E-04   -0.13728E-04 37128   0.846E-02    0.269E-02
DAV:   8    -0.669469186129E+03    0.32272E-04   -0.38511E-05 30504   0.347E-02    0.156E-02
DAV:   9    -0.669469135939E+03    0.50190E-04   -0.70594E-06 19068   0.164E-02    0.103E-02
DAV:  10    -0.669469076651E+03    0.59288E-04   -0.24148E-06 19008   0.154E-02    0.712E-03
DAV:  11    -0.669469026644E+03    0.50007E-04   -0.23217E-06 18756   0.121E-02    0.589E-03
DAV:  12    -0.669468991032E+03    0.35612E-04   -0.24966E-06 18480   0.682E-03    0.590E-03
DAV:  13    -0.669468981001E+03    0.10031E-04   -0.11477E-06 18432   0.283E-03    0.520E-03
DAV:  14    -0.669468922077E+03    0.58924E-04   -0.27131E-07 18348   0.123E-02    0.540E-03
DAV:  15    -0.669468773086E+03    0.14899E-03   -0.24724E-06 19512   0.283E-02    0.525E-03
DAV:  16    -0.669468575585E+03    0.19750E-03   -0.57914E-06 20748   0.363E-02    0.543E-03
DAV:  17    -0.669468474614E+03    0.10097E-03   -0.85041E-06 19836   0.180E-02    0.529E-03
DAV:  18    -0.669468361394E+03    0.11322E-03   -0.25957E-06 18684   0.182E-02    0.451E-03
DAV:  19    -0.669468230284E+03    0.13111E-03   -0.25558E-06 18780   0.209E-02    0.379E-03
DAV:  20    -0.669468154729E+03    0.75554E-04   -0.83156E-06 19392   0.125E-02    0.439E-03
DAV:  21    -0.669468175754E+03   -0.21025E-04   -0.57382E-06 19224   0.930E-03    0.403E-03
DAV:  22    -0.669468185951E+03   -0.10196E-04   -0.37482E-07 17928   0.225E-03    0.411E-03
DAV:  23    -0.669468156962E+03    0.28988E-04   -0.35013E-07 17904   0.612E-03    0.400E-03
DAV:  24    -0.669468125504E+03    0.31458E-04   -0.18915E-07 17856   0.583E-03    0.381E-03
DAV:  25    -0.669468022308E+03    0.10320E-03   -0.12173E-06 19020   0.192E-02    0.387E-03
DAV:  26    -0.669467988184E+03    0.34124E-04   -0.14291E-06 18384   0.715E-03    0.349E-03
DAV:  27    -0.669467976440E+03    0.11744E-04   -0.11934E-06 17664   0.276E-03    0.393E-03
DAV:  28    -0.669467989550E+03   -0.13109E-04   -0.28292E-07 17604   0.327E-03    0.375E-03
DAV:  29    -0.669468008423E+03   -0.18873E-04   -0.69108E-08 17496   0.350E-03    0.407E-03
DAV:  30    -0.669468074990E+03   -0.66568E-04   -0.57607E-07 18108   0.127E-02    0.682E-03
DAV:  31    -0.669468069131E+03    0.58592E-05   -0.39212E-07 17424   0.248E-03
  46 F= -.66946807E+03 E0= -.66946807E+03  d E =-.289033E-02  mag=    -0.0000
       N       E                     dE             d eps       ncg     rms          rms(c)
DAV:   1    -0.668989276332E+03    0.47880E+00   -0.72568E+00 46368   0.332E+01    0.178E+00
DAV:   2    -0.669381791914E+03   -0.39252E+00   -0.39896E+00 38496   0.408E+00    0.108E+00
DAV:   3    -0.669387245206E+03   -0.54533E-02   -0.97562E-02 37440   0.147E+00    0.746E-01
DAV:   4    -0.669386357118E+03    0.88809E-03   -0.12318E-02 38184   0.859E-01    0.546E-01
DAV:   5    -0.669385675130E+03    0.68199E-03   -0.58122E-03 40968   0.531E-01    0.257E-01
DAV:   6    -0.669385775453E+03   -0.10032E-03   -0.32250E-03 38580   0.350E-01    0.151E-01
DAV:   7    -0.669385600294E+03    0.17516E-03   -0.10497E-03 36840   0.215E-01    0.692E-02
DAV:   8    -0.669385557034E+03    0.43260E-04   -0.26245E-04 36396   0.821E-02    0.419E-02
DAV:   9    -0.669385444044E+03    0.11299E-03   -0.47343E-05 33624   0.395E-02    0.267E-02
DAV:  10    -0.669385330231E+03    0.11381E-03   -0.14247E-05 20964   0.373E-02    0.159E-02
DAV:  11    -0.669385223911E+03    0.10632E-03   -0.12495E-05 20436   0.250E-02    0.119E-02
DAV:  12    -0.669385162067E+03    0.61844E-04   -0.99178E-06 18912   0.138E-02    0.114E-02
DAV:  13    -0.669385126827E+03    0.35240E-04   -0.31742E-06 18588   0.824E-03    0.989E-03
DAV:  14    -0.669384904283E+03    0.22254E-03   -0.18322E-06 20592   0.404E-02    0.682E-03
DAV:  15    -0.669384721701E+03    0.18258E-03   -0.72087E-06 20556   0.340E-02    0.687E-03
DAV:  16    -0.669384641856E+03    0.79845E-04   -0.99514E-06 20820   0.144E-02    0.683E-03
DAV:  17    -0.669384615483E+03    0.26373E-04   -0.59579E-06 18504   0.606E-03    0.676E-03
DAV:  18    -0.669384572985E+03    0.42498E-04   -0.25441E-07 18468   0.766E-03    0.555E-03
DAV:  19    -0.669384396589E+03    0.17640E-03   -0.21045E-06 20232   0.303E-02    0.434E-03
DAV:  20    -0.669384179705E+03    0.21688E-03   -0.59458E-06 20400   0.373E-02    0.426E-03
DAV:  21    -0.669384114051E+03    0.65653E-04   -0.99017E-06 20772   0.122E-02    0.341E-03
DAV:  22    -0.669384079744E+03    0.34307E-04   -0.37767E-06 18396   0.592E-03    0.301E-03
DAV:  23    -0.669384045674E+03    0.34070E-04   -0.22679E-07 18300   0.563E-03    0.238E-03
DAV:  24    -0.669383917229E+03    0.12845E-03   -0.69861E-07 18912   0.217E-02    0.184E-03
DAV:  25    -0.669383874788E+03    0.42441E-04   -0.17449E-06 18432   0.780E-03    0.211E-03
DAV:  26    -0.669383874821E+03   -0.32844E-07   -0.15446E-06 18276   0.359E-03
  47 F= -.66938387E+03 E0= -.66938387E+03  d E =0.841943E-01  mag=    -0.0000
       N       E                     dE             d eps       ncg     rms          rms(c)
DAV:   1    -0.664122642657E+03    0.52612E+01   -0.63583E+01 52008   0.122E+02    0.743E+00
DAV:   2    -0.669002787609E+03   -0.48801E+01   -0.49713E+01 38796   0.150E+01    0.497E+00
DAV:   3    -0.669106564486E+03   -0.10378E+00   -0.20670E+00 36612   0.740E+00    0.331E+00
DAV:   4    -0.669077744813E+03    0.28820E-01   -0.22575E-01 37524   0.352E+00    0.221E+00
DAV:   5    -0.669078177437E+03   -0.43262E-03   -0.69741E-02 38580   0.164E+00    0.140E+00
DAV:   6    -0.669078412311E+03   -0.23487E-03   -0.56324E-02 36840   0.169E+00    0.554E-01
DAV:   7    -0.669078904648E+03   -0.49234E-03   -0.13733E-02 37416   0.729E-01    0.245E-01
DAV:   8    -0.669079762005E+03   -0.85736E-03   -0.46774E-03 37332   0.351E-01    0.168E-01
DAV:   9    -0.669079886508E+03   -0.12450E-03   -0.10336E-03 36852   0.200E-01    0.108E-01
DAV:  10    -0.669080420291E+03   -0.53378E-03   -0.22683E-04 38472   0.110E-01    0.688E-02
DAV:  11    -0.669080938923E+03   -0.51863E-03   -0.13603E-04 44028   0.893E-02    0.436E-02
DAV:  12    -0.669081318422E+03   -0.37950E-03   -0.71194E-05 35100   0.587E-02    0.350E-02
DAV:  13    -0.669081626037E+03   -0.30762E-03   -0.24844E-05 25956   0.343E-02    0.313E-02
DAV:  14    -0.669082213479E+03   -0.58744E-03   -0.64454E-06 21504   0.581E-02    0.255E-02
DAV:  15    -0.669083729623E+03   -0.15161E-02   -0.78387E-05 37572   0.162E-01    0.217E-02
DAV:  16    -0.669084582960E+03   -0.85334E-03   -0.14551E-04 43320   0.858E-02    0.213E-02
DAV:  17    -0.669084889288E+03   -0.30633E-03   -0.74277E-05 34704   0.303E-02    0.206E-02
DAV:  18    -0.669085520359E+03   -0.63107E-03   -0.47593E-06 20016   0.610E-02    0.175E-02
DAV:  19    -0.669087047367E+03   -0.15270E-02   -0.76607E-05 37968   0.154E-01    0.141E-02
DAV:  20    -0.669088025079E+03   -0.97771E-03   -0.11469E-04 43164   0.952E-02    0.118E-02
DAV:  21    -0.669088355782E+03   -0.33070E-03   -0.79421E-05 35136   0.337E-02    0.927E-03
DAV:  22    -0.669088704760E+03   -0.34898E-03   -0.32747E-06 19176   0.359E-02    0.738E-03
DAV:  23    -0.669088906706E+03   -0.20195E-03   -0.83515E-06 20592   0.285E-02    0.576E-03
DAV:  24    -0.669089139361E+03   -0.23265E-03   -0.51668E-06 19944   0.239E-02    0.488E-03
DAV:  25    -0.669089288012E+03   -0.14865E-03   -0.65855E-06 19800   0.199E-02    0.477E-03
DAV:  26    -0.669089479436E+03   -0.19142E-03   -0.22317E-06 19716   0.230E-02    0.377E-03
DAV:  27    -0.669089742800E+03   -0.26336E-03   -0.43403E-06 20580   0.265E-02    0.376E-03
DAV:  28    -0.669089894095E+03   -0.15129E-03   -0.12940E-05 23112   0.154E-02    0.409E-03
DAV:  29    -0.669089854222E+03    0.39873E-04   -0.78899E-06 21192   0.115E-02    0.406E-03
DAV:  30    -0.669089748262E+03    0.10596E-03   -0.35453E-07 18396   0.113E-02    0.491E-03
DAV:  31    -0.669089898165E+03   -0.14990E-03   -0.11295E-06 18912   0.183E-02    0.367E-03
DAV:  32    -0.669090251586E+03   -0.35342E-03   -0.75992E-06 21900   0.517E-02    0.358E-03
DAV:  33    -0.669090201438E+03    0.50148E-04   -0.69375E-06 19932   0.117E-02    0.201E-03
DAV:  34    -0.669090250936E+03   -0.49498E-04   -0.12355E-06 18156   0.116E-02    0.154E-03
DAV:  35    -0.669090332023E+03   -0.81087E-04   -0.11498E-06 18420   0.129E-02    0.134E-03
DAV:  36    -0.669090424505E+03   -0.92483E-04   -0.13434E-06 18636   0.122E-02    0.115E-03
DAV:  37    -0.669090434752E+03   -0.10247E-04   -0.31183E-06 18120   0.473E-03    0.218E-03
DAV:  38    -0.669090439281E+03   -0.45284E-05   -0.31247E-07 18012   0.148E-03
  48 F= -.66909044E+03 E0= -.66909044E+03  d E =0.293436E+00  mag=    -0.0000
       N       E                     dE             d eps       ncg     rms          rms(c)
DAV:   1    -0.652865586267E+03    0.16225E+02   -0.21266E+02 55440   0.212E+02    0.154E+01
DAV:   2    -0.668798857524E+03   -0.15933E+02   -0.16106E+02 38040   0.311E+01    0.134E+01
DAV:   3    -0.668968140940E+03   -0.16928E+00   -0.12571E+01 37200   0.185E+01    0.730E+00
DAV:   4    -0.668775415857E+03    0.19273E+00   -0.97600E-01 37356   0.757E+00    0.438E+00
DAV:   5    -0.668787113201E+03   -0.11697E-01   -0.28633E-01 38136   0.239E+00    0.313E+00
DAV:   6    -0.668787055889E+03    0.57312E-04   -0.16285E-01 36864   0.264E+00    0.146E+00
DAV:   7    -0.668788258265E+03   -0.12024E-02   -0.63095E-02 37656   0.151E+00    0.602E-01
DAV:   8    -0.668789504117E+03   -0.12459E-02   -0.16398E-02 36660   0.689E-01    0.470E-01
DAV:   9    -0.668788271181E+03    0.12329E-02   -0.35758E-03 36804   0.367E-01    0.317E-01
DAV:  10    -0.668787886491E+03    0.38469E-03   -0.99608E-04 39684   0.216E-01    0.168E-01
DAV:  11    -0.668787932786E+03   -0.46295E-04   -0.53520E-04 40476   0.154E-01    0.971E-02
DAV:  12    -0.668787947763E+03   -0.14977E-04   -0.20988E-04 37212   0.921E-02    0.695E-02
DAV:  13    -0.668787954903E+03   -0.71399E-05   -0.51657E-05 32868   0.535E-02
  49 F= -.66878795E+03 E0= -.66878795E+03  d E =0.302484E+00  mag=    -0.0000
       N       E                     dE             d eps       ncg     rms          rms(c)
DAV:   1    -0.666352687146E+03    0.24353E+01   -0.40733E+01 50496   0.944E+01    0.533E+00
DAV:   2    -0.669279311383E+03   -0.29266E+01   -0.29828E+01 38556   0.116E+01    0.353E+00
DAV:   3    -0.669341479117E+03   -0.62168E-01   -0.11041E+00 36864   0.547E+00    0.257E+00
DAV:   4    -0.669323688813E+03    0.17790E-01   -0.12677E-01 37392   0.248E+00    0.168E+00
DAV:   5    -0.669319699504E+03    0.39893E-02   -0.44034E-02 40920   0.116E+00    0.992E-01
DAV:   6    -0.669319860591E+03   -0.16109E-03   -0.33493E-02 36888   0.137E+00    0.400E-01
DAV:   7    -0.669318948515E+03    0.91208E-03   -0.85897E-03 37188   0.716E-01    0.175E-01
DAV:   8    -0.669318603708E+03    0.34481E-03   -0.29620E-03 37644   0.277E-01    0.116E-01
DAV:   9    -0.669318046326E+03    0.55738E-03   -0.58837E-04 36924   0.140E-01    0.711E-02
DAV:  10    -0.669317585656E+03    0.46067E-03   -0.13773E-04 37548   0.857E-02    0.475E-02
DAV:  11    -0.669316910453E+03    0.67520E-03   -0.82585E-05 41976   0.711E-02    0.309E-02
DAV:  12    -0.669316523672E+03    0.38678E-03   -0.44550E-05 30852   0.436E-02    0.256E-02
DAV:  13    -0.669316273641E+03    0.25003E-03   -0.15174E-05 20880   0.232E-02    0.233E-02
DAV:  14    -0.669315799173E+03    0.47447E-03   -0.27518E-06 19476   0.360E-02    0.190E-02
DAV:  15    -0.669314408948E+03    0.13902E-02   -0.33535E-05 28344   0.116E-01    0.170E-02
DAV:  16    -0.669313491430E+03    0.91752E-03   -0.88021E-05 41676   0.779E-02    0.172E-02
DAV:  17    -0.669313254638E+03    0.23679E-03   -0.53770E-05 31644   0.233E-02    0.168E-02
DAV:  18    -0.669312963261E+03    0.29138E-03   -0.13304E-06 18504   0.237E-02    0.151E-02
DAV:  19    -0.669311942977E+03    0.10203E-02   -0.17531E-05 25668   0.918E-02    0.114E-02
DAV:  20    -0.669310840423E+03    0.11026E-02   -0.69554E-05 36432   0.105E-01    0.988E-03
DAV:  21    -0.669310565391E+03    0.27503E-03   -0.70006E-05 34728   0.327E-02    0.856E-03
DAV:  22    -0.669310439424E+03    0.12597E-03   -0.87865E-06 20520   0.128E-02    0.893E-03
DAV:  23    -0.669310436327E+03    0.30974E-05   -0.61654E-06 19476   0.696E-03
  50 F= -.66931044E+03 E0= -.66931044E+03  d E =-.522481E+00  mag=    -0.0000
       N       E                     dE             d eps       ncg     rms          rms(c)
DAV:   1    -0.669053644247E+03    0.25680E+00   -0.40906E+00 49608   0.293E+01    0.149E+00
DAV:   2    -0.669332450545E+03   -0.27881E+00   -0.28344E+00 39504   0.349E+00    0.924E-01
DAV:   3    -0.669337028370E+03   -0.45778E-02   -0.73441E-02 37560   0.135E+00    0.652E-01
DAV:   4    -0.669336217124E+03    0.81125E-03   -0.79363E-03 36600   0.711E-01    0.462E-01
DAV:   5    -0.669335624500E+03    0.59262E-03   -0.49119E-03 39612   0.419E-01    0.250E-01
DAV:   6    -0.669335965204E+03   -0.34070E-03   -0.25077E-03 38628   0.345E-01    0.129E-01
DAV:   7    -0.669335718727E+03    0.24648E-03   -0.81553E-04 37668   0.210E-01    0.581E-02
DAV:   8    -0.669335690267E+03    0.28460E-04   -0.25005E-04 37176   0.756E-02    0.315E-02
DAV:   9    -0.669335638336E+03    0.51930E-04   -0.36374E-05 33936   0.286E-02    0.205E-02
DAV:  10    -0.669335547474E+03    0.90863E-04   -0.79320E-06 20268   0.237E-02    0.121E-02
DAV:  11    -0.669335464235E+03    0.83239E-04   -0.67092E-06 18744   0.196E-02    0.811E-03
DAV:  12    -0.669335423354E+03    0.40881E-04   -0.51797E-06 18648   0.117E-02    0.727E-03
DAV:  13    -0.669335395342E+03    0.28012E-04   -0.22893E-06 18576   0.633E-03    0.638E-03
DAV:  14    -0.669335309994E+03    0.85348E-04   -0.38781E-07 18564   0.161E-02    0.495E-03
DAV:  15    -0.669335165117E+03    0.14488E-03   -0.25520E-06 20520   0.295E-02    0.490E-03
DAV:  16    -0.669335083980E+03    0.81138E-04   -0.39649E-06 18660   0.165E-02    0.458E-03
DAV:  17    -0.669335050317E+03    0.33663E-04   -0.50357E-06 18504   0.740E-03    0.532E-03
DAV:  18    -0.669335063827E+03   -0.13510E-04   -0.15795E-06 18492   0.575E-03    0.514E-03
DAV:  19    -0.669335137534E+03   -0.73707E-04   -0.57048E-07 18468   0.155E-02    0.812E-03
DAV:  20    -0.669334987430E+03    0.15010E-03   -0.25556E-06 20316   0.339E-02    0.391E-03
DAV:  21    -0.669334855370E+03    0.13206E-03   -0.32374E-06 20280   0.318E-02    0.249E-03
DAV:  22    -0.669334810467E+03    0.44902E-04   -0.42433E-06 18492   0.122E-02    0.251E-03
DAV:  23    -0.669334787355E+03    0.23112E-04   -0.33452E-06 18288   0.610E-03    0.306E-03
DAV:  24    -0.669334782988E+03    0.43668E-05   -0.11408E-06 18228   0.250E-03
  51 F= -.66933478E+03 E0= -.66933478E+03  d E =-.243467E-01  mag=    -0.0000
       N       E                     dE             d eps       ncg     rms          rms(c)
DAV:   1    -0.669015006639E+03    0.31978E+00   -0.79467E+00 45576   0.277E+01    0.141E+00
DAV:   2    -0.669286974872E+03   -0.27197E+00   -0.28108E+00 38868   0.361E+00    0.885E-01
DAV:   3    -0.669287791955E+03   -0.81708E-03   -0.46382E-02 38136   0.102E+00    0.645E-01
DAV:   4    -0.669286772501E+03    0.10195E-02   -0.68343E-03 37464   0.665E-01    0.481E-01
DAV:   5    -0.669286575284E+03    0.19722E-03   -0.45876E-03 39024   0.467E-01    0.202E-01
DAV:   6    -0.669286067343E+03    0.50794E-03   -0.23558E-03 38076   0.311E-01    0.982E-02
DAV:   7    -0.669286037758E+03    0.29584E-04   -0.76622E-04 36564   0.170E-01    0.561E-02
DAV:   8    -0.669285977195E+03    0.60563E-04   -0.17249E-04 36720   0.605E-02    0.339E-02
DAV:   9    -0.669285844567E+03    0.13263E-03   -0.28709E-05 28356   0.333E-02    0.230E-02
DAV:  10    -0.669285707111E+03    0.13746E-03   -0.12810E-05 21384   0.327E-02    0.131E-02
DAV:  11    -0.669285625182E+03    0.81929E-04   -0.13548E-05 19620   0.183E-02    0.113E-02
DAV:  12    -0.669285579376E+03    0.45806E-04   -0.60031E-06 18720   0.104E-02    0.974E-03
DAV:  13    -0.669285512845E+03    0.66531E-04   -0.93909E-07 18600   0.116E-02    0.817E-03
DAV:  14    -0.669285316767E+03    0.19608E-03   -0.17923E-06 20424   0.320E-02    0.668E-03
DAV:  15    -0.669285120089E+03    0.19668E-03   -0.54224E-06 20616   0.315E-02    0.571E-03
DAV:  16    -0.669285065883E+03    0.54206E-04   -0.10723E-05 20028   0.110E-02    0.651E-03
DAV:  17    -0.669285080530E+03   -0.14647E-04   -0.33835E-06 18576   0.712E-03    0.611E-03
DAV:  18    -0.669285115084E+03   -0.34554E-04   -0.18241E-07 18576   0.608E-03    0.751E-03
DAV:  19    -0.669285105669E+03    0.94145E-05   -0.12405E-07 18576   0.224E-03
