       N       E                     dE             d eps       ncg     rms          ort
DAV:   1     0.827019036912E+04    0.82702E+04   -0.24658E+05  8424   0.238E+03
DAV:   2     0.921139716176E+03   -0.73491E+04   -0.68976E+04  8424   0.657E+02
DAV:   3    -0.674007189705E+03   -0.15951E+04   -0.14021E+04  8424   0.282E+02
DAV:   4    -0.830530963948E+03   -0.15652E+03   -0.15379E+03  8424   0.858E+01
DAV:   5    -0.833045918848E+03   -0.25150E+01   -0.25040E+01  8424   0.122E+01
SDA:   6    -0.263075163978E+03    0.56997E+03   -0.25040E+01  8424   0.375E+04 0.000E+00
CGA:   7    -0.606582617395E+03   -0.34351E+03   -0.40004E+03  8424   0.421E+03 0.121E+03
CGA:   8    -0.638367755168E+03   -0.31785E+02   -0.35415E+02  8424   0.239E+03 0.471E+02
CGA:   9    -0.639672738342E+03   -0.13050E+01   -0.21885E+02  8424   0.557E+03-0.251E+02
CGA:  10    -0.643697483766E+03   -0.40247E+01   -0.20937E+02  8424   0.353E+03-0.159E+03
CGA:  11    -0.639110871189E+03    0.45866E+01   -0.12256E+02  8424   0.160E+03-0.113E+03
CGA:  12    -0.650190310321E+03   -0.11079E+02   -0.88306E+01  8424   0.155E+03-0.268E+02
CGA:  13    -0.661976214873E+03   -0.11786E+02   -0.10385E+02  8424   0.360E+02 0.212E+02
CGA:  14    -0.663196047470E+03   -0.12198E+01   -0.21130E+01  8424   0.959E+02-0.247E+02
CGA:  15    -0.664007388592E+03   -0.81134E+00   -0.60966E+01  8424   0.508E+02-0.165E+02
CGA:  16    -0.666703129425E+03   -0.26957E+01   -0.20736E+01  8424   0.891E+01 0.161E+02
CGA:  17    -0.667021060897E+03   -0.31793E+00   -0.24634E+00  8424   0.584E+01 0.244E+01
CGA:  18    -0.667299390619E+03   -0.27833E+00   -0.25622E+00  8424   0.113E+02 0.252E+00
CGA:  19    -0.667515612204E+03   -0.21622E+00   -0.25494E+00  8424   0.182E+02-0.341E+01
CGA:  20    -0.667130174718E+03    0.38544E+00   -0.23408E+00  8424   0.481E+02-0.339E+02
CGA:  21    -0.667735084187E+03   -0.60491E+00   -0.16127E+01  8424   0.282E+02-0.197E+02
CGA:  22    -0.668049200233E+03   -0.31412E+00   -0.91026E+00  8424   0.126E+02-0.387E+01
CGA:  23    -0.668474699992E+03   -0.42550E+00   -0.42383E+00  8424   0.123E+01-0.714E+00
CGA:  24    -0.668598503785E+03   -0.12380E+00   -0.12546E+00  8424   0.498E+00 0.195E+00
CGA:  25    -0.668706116773E+03   -0.10761E+00   -0.10586E+00  8424   0.990E+00 0.227E-01
CGA:  26    -0.668799686169E+03   -0.93569E-01   -0.64006E-01  8424   0.612E+00 0.307E+00
CGA:  27    -0.668859411763E+03   -0.59726E-01   -0.65269E-01  8424   0.344E+00 0.172E-01
CGA:  28    -0.668919225359E+03   -0.59814E-01   -0.57629E-01  8424   0.227E+00 0.268E-01
CGA:  29    -0.668956573148E+03   -0.37348E-01   -0.36935E-01  8424   0.202E+00 0.545E-02
CGA:  30    -0.668988683786E+03   -0.32111E-01   -0.32780E-01  8424   0.286E+00-0.172E-01
CGA:  31    -0.669020215900E+03   -0.31532E-01   -0.31505E-01  8424   0.182E+00-0.837E-02
CGA:  32    -0.669053482724E+03   -0.33267E-01   -0.37253E-01  8424   0.224E+00-0.428E-01
CGA:  33    -0.669076364400E+03   -0.22882E-01   -0.26179E-01  8424   0.318E+00-0.886E-01
CGA:  34    -0.669089675732E+03   -0.13311E-01   -0.10227E-01  8424   0.315E+00-0.109E-01
CGA:  35    -0.669114406191E+03   -0.24730E-01   -0.23469E-01  8424   0.234E+00-0.470E-01
CGA:  36    -0.669139895822E+03   -0.25490E-01   -0.26006E-01  8424   0.290E+00-0.529E-01
CGA:  37    -0.669167520658E+03   -0.27625E-01   -0.28171E-01  8424   0.251E+00-0.777E-01
CGA:  38    -0.669186293166E+03   -0.18773E-01   -0.17614E-01  8424   0.246E+00-0.409E-01
CGA:  39    -0.669206336448E+03   -0.20043E-01   -0.18750E-01  8424   0.240E+00-0.365E-01
CGA:  40    -0.669226861516E+03   -0.20525E-01   -0.20833E-01  8424   0.239E+00-0.125E-01
CGA:  41    -0.669259691839E+03   -0.32830E-01   -0.33455E-01  8424   0.202E+00-0.273E-01
CGA:  42    -0.669290378904E+03   -0.30687E-01   -0.36731E-01  8424   0.236E+00-0.659E-01
CGA:  43    -0.669317462330E+03   -0.27083E-01   -0.29398E-01  8424   0.281E+00-0.413E-01
CGA:  44    -0.669354410299E+03   -0.36948E-01   -0.39087E-01  8424   0.293E+00-0.504E-01
CGA:  45    -0.669399246074E+03   -0.44836E-01   -0.61832E-01  8424   0.498E+00-0.133E+00
CGA:  46    -0.669425378711E+03   -0.26133E-01   -0.21648E-01  8424   0.472E+00-0.456E-01
CGA:  47    -0.669464036257E+03   -0.38658E-01   -0.35463E-01  8424   0.334E+00-0.561E-01
CGA:  48    -0.669492573557E+03   -0.28537E-01   -0.27516E-01  8424   0.290E+00-0.414E-01
CGA:  49    -0.669522533134E+03   -0.29960E-01   -0.29695E-01  8424   0.254E+00-0.312E-01
CGA:  50    -0.669546696813E+03   -0.24164E-01   -0.23873E-01  8424   0.166E+00-0.148E-01
SDA:  51    -0.669564271575E+03   -0.17575E-01   -0.17512E-01  8424   0.141E+00-0.441E-02
CGA:  52    -0.669622638721E+03   -0.58367E-01   -0.58592E-01  8424   0.172E+00-0.127E-03
CGA:  53    -0.669682008704E+03   -0.59370E-01   -0.54569E-01  8424   0.541E-01 0.277E-01
CGA:  54    -0.669703766878E+03   -0.21758E-01   -0.20055E-01  8424   0.217E-01 0.101E-01
CGA:  55    -0.669712717109E+03   -0.89502E-02   -0.81441E-02  8424   0.126E-01 0.502E-02
CGA:  56    -0.669718104479E+03   -0.53874E-02   -0.46846E-02  8424   0.663E-02 0.504E-02
CGA:  57    -0.669722231796E+03   -0.41273E-02   -0.33921E-02  8424   0.417E-02 0.370E-02
CGA:  58    -0.669723830955E+03   -0.15992E-02   -0.17058E-02  8424   0.652E-02-0.491E-03
CGA:  59    -0.669727352966E+03   -0.35220E-02   -0.31701E-02  8424   0.663E-02 0.855E-03
CGA:  60    -0.669730980045E+03   -0.36271E-02   -0.33321E-02  8424   0.634E-02 0.107E-02
CGA:  61    -0.669733912855E+03   -0.29328E-02   -0.51116E-02  8424   0.218E-01-0.499E-02
CGA:  62    -0.669737286676E+03   -0.33738E-02   -0.35080E-02  8424   0.246E-02 0.159E-02
CGA:  63    -0.669738409756E+03   -0.11231E-02   -0.13074E-02  8424   0.225E-02-0.734E-03
CGA:  64    -0.669739338517E+03   -0.92876E-03    0.12787E-02  8424   0.204E-02 0.109E-02
CGA:  65    -0.669735332381E+03    0.40061E-02   -0.24764E-02  8424   0.345E-01-0.664E-02
CGA:  66    -0.669744983458E+03   -0.96511E-02   -0.96801E-02  8424   0.396E-02 0.159E-03
CGA:  67    -0.669746236562E+03   -0.12531E-02   -0.11399E-02  8424   0.265E-02-0.680E-03
CGA:  68    -0.669747575680E+03   -0.13391E-02   -0.18612E-02  8424   0.605E-02-0.130E-02
CGA:  69    -0.669748927185E+03   -0.13515E-02   -0.11994E-02  8424   0.411E-02-0.207E-02
CGA:  70    -0.669750160032E+03   -0.12328E-02   -0.17072E-02  8424   0.880E-02-0.292E-02
CGA:  71    -0.669752685671E+03   -0.25256E-02   -0.24925E-02  8424   0.383E-02-0.164E-03
CGA:  72    -0.669754676149E+03   -0.19905E-02   -0.20705E-02  8424   0.444E-02-0.888E-03
CGA:  73    -0.669756304544E+03   -0.16284E-02   -0.16514E-02  8424   0.213E-02-0.128E-02
CGA:  74    -0.669756951981E+03   -0.64744E-03   -0.96711E-03  8424   0.692E-02-0.188E-02
CGA:  75    -0.669758166250E+03   -0.12143E-02   -0.11778E-02  8424   0.152E-02-0.833E-04
CGA:  76    -0.669748077452E+03    0.10089E-01   -0.54947E-02  8424   0.597E-01-0.590E-02
CGA:  77    -0.669759690594E+03   -0.11613E-01   -0.11807E-01  8424   0.114E-01 0.130E-02
CGA:  78    -0.669762936308E+03   -0.32457E-02   -0.29803E-02  8424   0.257E-02-0.523E-03
CGA:  79    -0.669764716551E+03   -0.17802E-02   -0.17007E-02  8424   0.419E-02-0.894E-03
CGA:  80    -0.669766234681E+03   -0.15181E-02   -0.11064E-02  8424   0.223E-02-0.115E-02
CGA:  81    -0.669767446124E+03   -0.12114E-02   -0.97053E-03  8424   0.413E-02-0.157E-02
CGA:  82    -0.669769047912E+03   -0.16018E-02   -0.13321E-02  8424   0.224E-02-0.648E-03
CGA:  83    -0.669770272795E+03   -0.12249E-02   -0.11035E-02  8424   0.426E-02-0.842E-03
CGA:  84    -0.669772240469E+03   -0.19677E-02   -0.17304E-02  8424   0.620E-02-0.356E-02
CGA:  85    -0.669774059626E+03   -0.18192E-02   -0.16970E-02  8424   0.277E-02-0.232E-03
CGA:  86    -0.669775912792E+03   -0.18532E-02   -0.18479E-02  8424   0.726E-02-0.174E-02
CGA:  87    -0.669777027602E+03   -0.11148E-02   -0.11229E-02  8424   0.885E-03 0.971E-04
CGA:  88    -0.669750597990E+03    0.26430E-01   -0.14394E-01  8424   0.137E+00-0.835E-02
CGA:  89    -0.669779885916E+03   -0.29288E-01   -0.28977E-01  8424   0.231E-01 0.353E-02
CGA:  90    -0.669785701544E+03   -0.58156E-02   -0.53396E-02  8424   0.317E-02-0.757E-03
CGA:  91    -0.669786773195E+03   -0.10717E-02   -0.84486E-03  8424   0.714E-03-0.252E-03
CGA:  92    -0.669789146203E+03   -0.23730E-02    0.52709E-03  8424   0.219E-02-0.108E-03
CGA:  93    -0.669794959693E+03   -0.58135E-02    0.22189E-02  8424   0.192E-01-0.269E-02
CGA:  94    -0.669798657748E+03   -0.36981E-02   -0.32527E-02  8424   0.372E-02-0.916E-03
CGA:  95    -0.669800876212E+03   -0.22185E-02   -0.18446E-02  8424   0.206E-02-0.732E-03
CGA:  96    -0.669802485792E+03   -0.16096E-02   -0.17480E-02  8424   0.148E-01-0.297E-02
CGA:  97    -0.669804715728E+03   -0.22299E-02   -0.22994E-02  8424   0.180E-02 0.364E-03
CGA:  98    -0.669806355689E+03   -0.16400E-02   -0.13088E-02  8424   0.473E-02-0.130E-02
CGA:  99    -0.669807581471E+03   -0.12258E-02   -0.10085E-02  8424   0.684E-03-0.279E-03
CGA: 100    -0.669809187559E+03   -0.16061E-02    0.81996E-03  8424   0.746E-02-0.908E-03
CGA: 101    -0.669810248185E+03   -0.10606E-02   -0.10294E-02  8424   0.497E-03 0.602E-04
CGA: 102    -0.669812095473E+03   -0.18473E-02    0.19955E-03  8424   0.185E-02-0.144E-03
CGA: 103    -0.669820917600E+03   -0.88221E-02    0.20508E-03  8424   0.542E-02 0.508E-03
CGA: 104    -0.669852341832E+03   -0.31424E-01    0.19074E-02  8424   0.184E-01-0.953E-03
CGA: 105    -0.669977790291E+03   -0.12545E+00    0.17854E-02  8424   0.618E-01-0.259E-01
CGA: 106    -0.669990918402E+03   -0.13128E-01   -0.14190E-01  8424   0.740E-02 0.228E-02
CGA: 107    -0.669992489558E+03   -0.15712E-02   -0.18304E-02  8424   0.217E-02 0.396E-03
CGA: 108    -0.669992491062E+03   -0.15038E-05   -0.56683E-03  8424   0.915E-03 0.988E-03
CGA: 109    -0.669992163996E+03    0.32707E-03   -0.24154E-03  8424   0.759E-03 0.933E-03
CGA: 110    -0.669991989810E+03    0.17419E-03   -0.14684E-03  8424   0.566E-03 0.568E-03
CGA: 111    -0.669991788874E+03    0.20094E-03   -0.95630E-04  8424   0.516E-03 0.527E-03
CGA: 112    -0.669991600924E+03    0.18795E-03   -0.83655E-04  8424   0.493E-03 0.502E-03
CGA: 113    -0.669991421490E+03    0.17943E-03   -0.74486E-04  8424   0.477E-03 0.484E-03
CGA: 114    -0.669991252050E+03    0.16944E-03   -0.68425E-04  8424   0.465E-03 0.470E-03
CGA: 115    -0.669991091587E+03    0.16046E-03   -0.63282E-04  8424   0.454E-03 0.458E-03
CGA: 116    -0.669990939563E+03    0.15202E-03   -0.58903E-04  8424   0.445E-03 0.448E-03
CGA: 117    -0.669990795422E+03    0.14414E-03   -0.55055E-04  8424   0.437E-03 0.440E-03
CGA: 118    -0.669990658672E+03    0.13675E-03   -0.51623E-04  8424   0.430E-03 0.432E-03
CGA: 119    -0.669990528859E+03    0.12981E-03   -0.48528E-04  8424   0.423E-03 0.426E-03
CGA: 120    -0.669990405567E+03    0.12329E-03   -0.45714E-04  8424   0.417E-03 0.419E-03
CGA: 121    -0.669990288412E+03    0.11716E-03   -0.43140E-04  8424   0.412E-03 0.414E-03
CGA: 122    -0.669990177037E+03    0.11137E-03   -0.40772E-04  8424   0.406E-03 0.409E-03
CGA: 123    -0.669990071113E+03    0.10592E-03   -0.38585E-04  8424   0.402E-03 0.404E-03
CGA: 124    -0.669989970332E+03    0.10078E-03   -0.36556E-04  8424   0.397E-03 0.399E-03
CGA: 125    -0.669989874408E+03    0.95924E-04   -0.34668E-04  8424   0.393E-03 0.395E-03
CGA: 126    -0.669989783071E+03    0.91337E-04   -0.32908E-04  8424   0.390E-03 0.391E-03
CGA: 127    -0.669989696070E+03    0.87001E-04   -0.31262E-04  8424   0.386E-03 0.388E-03
CGA: 128    -0.669989613170E+03    0.82900E-04   -0.29720E-04  8424   0.383E-03 0.384E-03
CGA: 129    -0.669989534148E+03    0.79022E-04   -0.28272E-04  8424   0.380E-03 0.381E-03
CGA: 130    -0.669989458799E+03    0.75349E-04   -0.26912E-04  8424   0.377E-03 0.378E-03
CGA: 131    -0.669989386928E+03    0.71871E-04   -0.25631E-04  8424   0.374E-03 0.376E-03
CGA: 132    -0.669989318353E+03    0.68575E-04   -0.24423E-04  8424   0.372E-03 0.373E-03
CGA: 133    -0.669989252905E+03    0.65448E-04   -0.23283E-04  8424   0.369E-03 0.370E-03
CGA: 134    -0.669989190422E+03    0.62483E-04   -0.22206E-04  8424   0.367E-03 0.368E-03
CGA: 135    -0.669989130753E+03    0.59669E-04   -0.21186E-04  8424   0.365E-03 0.366E-03
CGA: 136    -0.669989073754E+03    0.56999E-04   -0.20220E-04  8424   0.363E-03 0.364E-03
CGA: 137    -0.669989019292E+03    0.54462E-04   -0.19304E-04  8424   0.361E-03 0.362E-03
CGA: 138    -0.669988967242E+03    0.52050E-04   -0.18435E-04  8424   0.359E-03 0.360E-03
CGA: 139    -0.669988917486E+03    0.49755E-04   -0.17610E-04  8424   0.358E-03 0.358E-03
CGA: 140    -0.669988869914E+03    0.47572E-04   -0.16825E-04  8424   0.356E-03 0.357E-03
CGA: 141    -0.669988824420E+03    0.45494E-04   -0.16079E-04  8424   0.354E-03 0.355E-03
CGA: 142    -0.669988780906E+03    0.43515E-04   -0.15370E-04  8424   0.353E-03 0.354E-03
CGA: 143    -0.669988739276E+03    0.41629E-04   -0.14694E-04  8424   0.352E-03 0.352E-03
CGA: 144    -0.669988699443E+03    0.39833E-04   -0.14051E-04  8424   0.350E-03 0.351E-03
CGA: 145    -0.669988661323E+03    0.38120E-04   -0.13438E-04  8424   0.349E-03 0.350E-03
CGA: 146    -0.669988624832E+03    0.36491E-04   -0.12853E-04  8424   0.348E-03 0.348E-03
CGA: 147    -0.669988589906E+03    0.34926E-04   -0.12300E-04  8424   0.347E-03 0.347E-03
CGA: 148    -0.669988556445E+03    0.33461E-04   -0.11758E-04  8424   0.346E-03 0.346E-03
CGA: 149    -0.669988524461E+03    0.31984E-04   -0.11279E-04  8424   0.345E-03 0.345E-03
CGA: 150    -0.669988493687E+03    0.30774E-04   -0.10718E-04  8424   0.344E-03 0.344E-03
CGA: 151    -0.669988464717E+03    0.28970E-04   -0.10479E-04  8424   0.344E-03 0.342E-03
CGA: 152    -0.669988436076E+03    0.28641E-04   -0.94634E-05  8424   0.348E-03 0.339E-03
CGA: 153    -0.669988411529E+03    0.24547E-04   -0.10131E-04  8424   0.361E-03 0.330E-03
CGA: 154    -0.669988385173E+03    0.26357E-04   -0.78655E-05  8424   0.360E-03 0.319E-03
CGA: 155    -0.669988365028E+03    0.20145E-04   -0.98790E-05  8424   0.374E-03 0.312E-03
CGA: 156    -0.669988340718E+03    0.24310E-04   -0.73763E-05  8424   0.348E-03 0.320E-03
CGA: 157    -0.669988320195E+03    0.20523E-04   -0.87691E-05  8424   0.344E-03 0.330E-03
CGA: 158    -0.669988297917E+03    0.22277E-04   -0.72871E-05  8424   0.338E-03 0.335E-03
CGA: 159    -0.669988277550E+03    0.20367E-04   -0.75009E-05  8424   0.336E-03 0.336E-03
CGA: 160    -0.669988257572E+03    0.19978E-04   -0.69674E-05  8424   0.336E-03 0.336E-03
CGA: 161    -0.669988238541E+03    0.19031E-04   -0.67376E-05  8424   0.335E-03 0.335E-03
CGA: 162    -0.669988220241E+03    0.18300E-04   -0.64317E-05  8424   0.335E-03 0.335E-03
CGA: 163    -0.669988202709E+03    0.17531E-04   -0.61735E-05  8424   0.334E-03 0.334E-03
CGA: 164    -0.669988185885E+03    0.16824E-04   -0.59120E-05  8424   0.334E-03 0.334E-03
CGA: 165    -0.669988169753E+03    0.16132E-04   -0.56695E-05  8424   0.333E-03 0.333E-03
CGA: 166    -0.669988154275E+03    0.15478E-04   -0.54327E-05  8424   0.333E-03 0.333E-03
CGA: 167    -0.669988139429E+03    0.14846E-04   -0.52091E-05  8424   0.332E-03 0.332E-03
CGA: 168    -0.669988125183E+03    0.14246E-04   -0.49923E-05  8424   0.332E-03 0.332E-03
CGA: 169    -0.669988111517E+03    0.13666E-04   -0.47870E-05  8424   0.331E-03 0.332E-03
CGA: 170    -0.669988098402E+03    0.13115E-04   -0.45880E-05  8424   0.331E-03 0.331E-03
CGA: 171    -0.669988085820E+03    0.12582E-04   -0.43998E-05  8424   0.331E-03 0.331E-03
CGA: 172    -0.669988073742E+03    0.12077E-04   -0.42166E-05  8424   0.330E-03 0.330E-03
CGA: 173    -0.669988062157E+03    0.11585E-04   -0.40450E-05  8424   0.330E-03 0.330E-03
CGA: 174    -0.669988051033E+03    0.11124E-04   -0.38752E-05  8424   0.330E-03 0.330E-03
CGA: 175    -0.669988040371E+03    0.10661E-04   -0.37222E-05  8424   0.329E-03 0.329E-03
CGA: 176    -0.669988030131E+03    0.10240E-04   -0.35634E-05  8424   0.329E-03 0.329E-03
CGA: 177    -0.669988020343E+03    0.97876E-05   -0.34343E-05  8424   0.329E-03 0.329E-03
   1 F= -.66998802E+03 E0= -.66998802E+03  d E =-.669988E+03  mag=     2.0000
       N       E                     dE             d eps       ncg     rms          ort
SDA:   1    -0.669986591695E+03    0.14384E-02    0.00000E+00  8424   0.418E-02 0.000E+00
CGA:   2    -0.669987082589E+03   -0.49089E-03   -0.37344E-03  8424   0.215E-02 0.275E-02
CGA:   3    -0.669987242501E+03   -0.15991E-03   -0.13438E-03  8424   0.165E-02 0.186E-02
CGA:   4    -0.669987329475E+03   -0.86975E-04   -0.84452E-04  8424   0.137E-02 0.149E-02
CGA:   5    -0.669987382148E+03   -0.52673E-04   -0.59986E-04  8424   0.118E-02 0.126E-02
CGA:   6    -0.669987415529E+03   -0.33381E-04   -0.45458E-04  8424   0.105E-02 0.111E-02
CGA:   7    -0.669987437010E+03   -0.21481E-04   -0.35926E-04  8424   0.949E-03 0.992E-03
CGA:   8    -0.669987450715E+03   -0.13706E-04   -0.29261E-04  8424   0.869E-03 0.904E-03
CGA:   9    -0.669987459138E+03   -0.84227E-05   -0.24384E-04  8424   0.806E-03 0.833E-03
CGA:  10    -0.669987463871E+03   -0.47334E-05   -0.20691E-04  8424   0.753E-03 0.776E-03
CGA:  11    -0.669987465976E+03   -0.21049E-05   -0.17817E-04  8424   0.710E-03 0.729E-03
CGA:  12    -0.669987466183E+03   -0.20682E-06   -0.15532E-04  8424   0.673E-03 0.689E-03
CGA:  13    -0.669987465007E+03    0.11756E-05   -0.13680E-04  8424   0.641E-03 0.655E-03
CGA:  14    -0.669987462821E+03    0.21864E-05   -0.12156E-04  8424   0.614E-03 0.626E-03
CGA:  15    -0.669987459896E+03    0.29251E-05   -0.10885E-04  8424   0.590E-03 0.600E-03
   2 F= -.66998746E+03 E0= -.66998746E+03  d E =0.560447E-03  mag=     2.0000
       N       E                     dE             d eps       ncg     rms          ort
SDA:   1    -0.669864676801E+03    0.12279E+00    0.00000E+00  8424   0.336E+00 0.000E+00
CGA:   2    -0.669949939766E+03   -0.85263E-01   -0.50675E-02  8424   0.174E+00 0.629E-02
CGA:   3    -0.669984493380E+03   -0.34554E-01   -0.33821E-01  8424   0.413E-01 0.605E-02
CGA:   4    -0.669991162136E+03   -0.66688E-02   -0.64299E-02  8424   0.891E-02 0.321E-02
CGA:   5    -0.669992639526E+03   -0.14774E-02   -0.13278E-02  8424   0.194E-02 0.256E-02
CGA:   6    -0.669992873916E+03   -0.23439E-03   -0.22376E-03  8424   0.998E-03 0.157E-02
CGA:   7    -0.669992920117E+03   -0.46201E-04   -0.62976E-04  8424   0.727E-03 0.839E-03
CGA:   8    -0.669992935082E+03   -0.14965E-04   -0.36364E-04  8424   0.615E-03 0.666E-03
CGA:   9    -0.669992939602E+03   -0.45206E-05   -0.26328E-04  8424   0.547E-03 0.578E-03
CGA:  10    -0.669992939090E+03    0.51292E-06   -0.20748E-04  8424   0.501E-03 0.522E-03
CGA:  11    -0.669992935803E+03    0.32866E-05   -0.17141E-04  8424   0.467E-03 0.482E-03
CGA:  12    -0.669992930887E+03    0.49157E-05   -0.14599E-04  8424   0.440E-03 0.452E-03
CGA:  13    -0.669992924989E+03    0.58984E-05   -0.12704E-04  8424   0.419E-03 0.428E-03
CGA:  14    -0.669992918500E+03    0.64889E-05   -0.11231E-04  8424   0.401E-03 0.409E-03
CGA:  15    -0.669992911671E+03    0.68290E-05   -0.10050E-04  8424   0.387E-03 0.393E-03
   3 F= -.66999291E+03 E0= -.66999291E+03  d E =-.545177E-02  mag=     2.0000
       N       E                     dE             d eps       ncg     rms          ort
SDA:   1    -0.660854810174E+03    0.91381E+01    0.00000E+00  8424   0.229E+02 0.000E+00
CGA:   2    -0.667138382153E+03   -0.62836E+01   -0.62834E+01  8424   0.123E+02 0.785E-02
CGA:   3    -0.669388913652E+03   -0.22505E+01   -0.22479E+01  8424   0.268E+01 0.218E-01
CGA:   4    -0.669818390368E+03   -0.42948E+00   -0.42915E+00  8424   0.631E+00 0.366E-02
CGA:   5    -0.669927504335E+03   -0.10911E+00   -0.10881E+00  8424   0.135E+00 0.328E-02
CGA:   6    -0.669954894921E+03   -0.27391E-01   -0.26890E-01  8424   0.315E-01 0.454E-02
CGA:   7    -0.669962134711E+03   -0.72398E-02   -0.69599E-02  8424   0.907E-02 0.233E-02
CGA:   8    -0.669964322097E+03   -0.21874E-02   -0.19337E-02  8424   0.290E-02 0.256E-02
CGA:   9    -0.669965001222E+03   -0.67912E-03   -0.58052E-03  8424   0.136E-02 0.191E-02
CGA:  10    -0.669965218032E+03   -0.21681E-03   -0.18716E-03  8424   0.831E-03 0.981E-03
CGA:  11    -0.669965299372E+03   -0.81340E-04   -0.85571E-04  8424   0.690E-03 0.753E-03
CGA:  12    -0.669965349108E+03   -0.49736E-04   -0.61840E-04  8424   0.606E-03 0.645E-03
CGA:  13    -0.669965381813E+03   -0.32705E-04   -0.48487E-04  8424   0.548E-03 0.575E-03
CGA:  14    -0.669965404132E+03   -0.22320E-04   -0.39840E-04  8424   0.505E-03 0.525E-03
CGA:  15    -0.669965419575E+03   -0.15442E-04   -0.33728E-04  8424   0.471E-03 0.486E-03
CGA:  16    -0.669965430215E+03   -0.10640E-04   -0.29156E-04  8424   0.443E-03 0.456E-03
CGA:  17    -0.669965437379E+03   -0.71642E-05   -0.25598E-04  8424   0.421E-03 0.431E-03
CGA:  18    -0.669965441964E+03   -0.45846E-05   -0.22748E-04  8424   0.401E-03 0.410E-03
CGA:  19    -0.669965444600E+03   -0.26360E-05   -0.20413E-04  8424   0.385E-03 0.392E-03
CGA:  20    -0.669965445745E+03   -0.11453E-05   -0.18465E-04  8424   0.371E-03 0.377E-03
CGA:  21    -0.669965445742E+03    0.31359E-08   -0.16818E-04  8424   0.358E-03 0.364E-03
CGA:  22    -0.669965444850E+03    0.89147E-06   -0.15410E-04  8424   0.347E-03 0.352E-03
CGA:  23    -0.669965443270E+03    0.15803E-05   -0.14192E-04  8424   0.338E-03 0.342E-03
CGA:  24    -0.669965441156E+03    0.21142E-05   -0.13130E-04  8424   0.329E-03 0.333E-03
CGA:  25    -0.669965438630E+03    0.25256E-05   -0.12195E-04  8424   0.321E-03 0.325E-03
CGA:  26    -0.669965435790E+03    0.28398E-05   -0.11367E-04  8424   0.314E-03 0.318E-03
CGA:  27    -0.669965432714E+03    0.30764E-05   -0.10629E-04  8424   0.308E-03 0.311E-03
   4 F= -.66996543E+03 E0= -.66996543E+03  d E =0.274790E-01  mag=     2.0000
       N       E                     dE             d eps       ncg     rms          ort
SDA:   1    -0.668953001572E+03    0.10124E+01    0.00000E+00  8424   0.274E+01 0.000E+00
CGA:   2    -0.669618756953E+03   -0.66576E+00   -0.66462E+00  8424   0.145E+01 0.654E-02
CGA:   3    -0.669908521157E+03   -0.28976E+00   -0.28955E+00  8424   0.371E+00 0.159E-02
CGA:   4    -0.669966028439E+03   -0.57507E-01   -0.57331E-01  8424   0.802E-01 0.259E-02
CGA:   5    -0.669979715124E+03   -0.13687E-01   -0.13536E-01  8424   0.163E-01 0.195E-02
CGA:   6    -0.669983097186E+03   -0.33821E-02   -0.32424E-02  8424   0.384E-02 0.141E-02
CGA:   7    -0.669983846440E+03   -0.74925E-03   -0.66567E-03  8424   0.115E-02 0.140E-02
CGA:   8    -0.669984023218E+03   -0.17678E-03   -0.17120E-03  8424   0.627E-03 0.963E-03
CGA:   9    -0.669984070318E+03   -0.47100E-04   -0.55075E-04  8424   0.460E-03 0.522E-03
CGA:  10    -0.669984089252E+03   -0.18934E-04   -0.32426E-04  8424   0.397E-03 0.423E-03
CGA:  11    -0.669984099276E+03   -0.10024E-04   -0.24629E-04  8424   0.360E-03 0.376E-03
CGA:  12    -0.669984104746E+03   -0.54696E-05   -0.20230E-04  8424   0.335E-03 0.345E-03
CGA:  13    -0.669984107488E+03   -0.27423E-05   -0.17312E-04  8424   0.316E-03 0.323E-03
CGA:  14    -0.669984108452E+03   -0.96434E-06   -0.15193E-04  8424   0.301E-03 0.307E-03
CGA:  15    -0.669984108195E+03    0.25734E-06   -0.13562E-04  8424   0.289E-03 0.293E-03
CGA:  16    -0.669984107069E+03    0.11263E-05   -0.12254E-04  8424   0.278E-03 0.282E-03
CGA:  17    -0.669984105312E+03    0.17571E-05   -0.11174E-04  8424   0.270E-03 0.273E-03
CGA:  18    -0.669984103091E+03    0.22203E-05   -0.10262E-04  8424   0.262E-03 0.265E-03
   5 F= -.66998410E+03 E0= -.66998410E+03  d E =-.186704E-01  mag=     2.0000
       N       E                     dE             d eps       ncg     rms          ort
SDA:   1    -0.645889172951E+03    0.24095E+02    0.00000E+00  8424   0.629E+02 0.000E+00
CGA:   2    -0.661602742193E+03   -0.15714E+02   -0.15675E+02  8424   0.336E+02 0.266E+00
CGA:   3    -0.668208368947E+03   -0.66056E+01   -0.66120E+01  8424   0.815E+01-0.702E-01
CGA:   4    -0.669478970570E+03   -0.12706E+01   -0.12697E+01  8424   0.180E+01 0.123E-01
CGA:   5    -0.669786735388E+03   -0.30776E+00   -0.30725E+00  8424   0.381E+00 0.663E-02
CGA:   6    -0.669866035498E+03   -0.79300E-01   -0.79258E-01  8424   0.940E-01 0.350E-03
CGA:   7    -0.669886425455E+03   -0.20390E-01   -0.20090E-01  8424   0.261E-01 0.279E-02
CGA:   8    -0.669893061389E+03   -0.66359E-02   -0.63802E-02  8424   0.821E-02 0.203E-02
CGA:   9    -0.669895452934E+03   -0.23915E-02   -0.22079E-02  8424   0.279E-02 0.140E-02
CGA:  10    -0.669896237074E+03   -0.78414E-03   -0.67335E-03  8424   0.113E-02 0.136E-02
CGA:  11    -0.669896500088E+03   -0.26301E-03   -0.24530E-03  8424   0.548E-03 0.983E-03
CGA:  12    -0.669896552340E+03   -0.52252E-04   -0.60553E-04  8424   0.371E-03 0.440E-03
CGA:  13    -0.669896567122E+03   -0.14782E-04   -0.30519E-04  8424   0.311E-03 0.340E-03
CGA:  14    -0.669896572302E+03   -0.51801E-05   -0.21697E-04  8424   0.275E-03 0.293E-03
CGA:  15    -0.669896572941E+03   -0.63878E-06   -0.16915E-04  8424   0.250E-03 0.263E-03
CGA:  16    -0.669896571078E+03    0.18629E-05   -0.13854E-04  8424   0.232E-03 0.242E-03
CGA:  17    -0.669896567735E+03    0.33432E-05   -0.11709E-04  8424   0.218E-03 0.226E-03
CGA:  18    -0.669896563487E+03    0.42479E-05   -0.10114E-04  8424   0.207E-03 0.213E-03
   6 F= -.66989656E+03 E0= -.66989656E+03  d E =0.875396E-01  mag=     2.0000
       N       E                     dE             d eps       ncg     rms          ort
SDA:   1    -0.667380258025E+03    0.25163E+01    0.00000E+00  8424   0.747E+01 0.000E+00
CGA:   2    -0.669060245551E+03   -0.16800E+01   -0.16781E+01  8424   0.344E+01 0.152E-01
CGA:   3    -0.669761645166E+03   -0.70140E+00   -0.70131E+00  8424   0.972E+00 0.379E-03
CGA:   4    -0.669917815283E+03   -0.15617E+00   -0.15614E+00  8424   0.232E+00 0.564E-03
CGA:   5    -0.669957941372E+03   -0.40126E-01   -0.40059E-01  8424   0.488E-01 0.122E-02
CGA:   6    -0.669967599076E+03   -0.96577E-02   -0.95919E-02  8424   0.110E-01 0.887E-03
CGA:   7    -0.669970042629E+03   -0.24436E-02   -0.23580E-02  8424   0.313E-02 0.102E-02
CGA:   8    -0.669970780041E+03   -0.73741E-03   -0.68079E-03  8424   0.938E-03 0.814E-03
CGA:   9    -0.669970984406E+03   -0.20436E-03   -0.18891E-03  8424   0.423E-03 0.585E-03
CGA:  10    -0.669971034375E+03   -0.49969E-04   -0.52974E-04  8424   0.269E-03 0.315E-03
CGA:  11    -0.669971052622E+03   -0.18247E-04   -0.26803E-04  8424   0.227E-03 0.245E-03
CGA:  12    -0.669971062353E+03   -0.97312E-05   -0.19641E-04  8424   0.203E-03 0.214E-03
CGA:  13    -0.669971067907E+03   -0.55540E-05   -0.15788E-04  8424   0.187E-03 0.194E-03
CGA:  14    -0.669971070994E+03   -0.30868E-05   -0.13282E-04  8424   0.175E-03 0.180E-03
CGA:  15    -0.669971072481E+03   -0.14874E-05   -0.11483E-04  8424   0.165E-03 0.169E-03
CGA:  16    -0.669971072873E+03   -0.39142E-06   -0.10112E-04  8424   0.157E-03 0.160E-03
   7 F= -.66997107E+03 E0= -.66997107E+03  d E =-.745094E-01  mag=     2.0000
       N       E                     dE             d eps       ncg     rms          ort
SDA:   1    -0.669372197473E+03    0.59888E+00    0.00000E+00  8424   0.148E+01 0.000E+00
CGA:   2    -0.669789871964E+03   -0.41767E+00   -0.41766E+00  8424   0.803E+00-0.664E-04
CGA:   3    -0.669933999802E+03   -0.14413E+00   -0.14401E+00  8424   0.168E+00 0.209E-02
CGA:   4    -0.669960743041E+03   -0.26743E-01   -0.26736E-01  8424   0.399E-01 0.201E-03
CGA:   5    -0.669967665649E+03   -0.69226E-02   -0.69084E-02  8424   0.859E-02 0.312E-03
CGA:   6    -0.669969376462E+03   -0.17108E-02   -0.16748E-02  8424   0.195E-02 0.572E-03
CGA:   7    -0.669969809735E+03   -0.43327E-03   -0.40987E-03  8424   0.590E-03 0.368E-03
CGA:   8    -0.669969931002E+03   -0.12127E-03   -0.11316E-03  8424   0.267E-03 0.333E-03
CGA:   9    -0.669969965154E+03   -0.34151E-04   -0.35313E-04  8424   0.169E-03 0.195E-03
CGA:  10    -0.669969980861E+03   -0.15707E-04   -0.19368E-04  8424   0.144E-03 0.154E-03
CGA:  11    -0.669969990528E+03   -0.96668E-05   -0.14564E-04  8424   0.131E-03 0.137E-03
CGA:  12    -0.669969997548E+03   -0.70201E-05   -0.12249E-04  8424   0.122E-03 0.126E-03
CGA:  13    -0.669970002983E+03   -0.54346E-05   -0.10757E-04  8424   0.116E-03 0.118E-03
   8 F= -.66997000E+03 E0= -.66997000E+03  d E =0.106989E-02  mag=     2.0000
       N       E                     dE             d eps       ncg     rms          ort
SDA:   1    -0.661474679083E+03    0.84953E+01    0.00000E+00  8424   0.205E+02 0.000E+00
CGA:   2    -0.667454995864E+03   -0.59803E+01   -0.59835E+01  8424   0.113E+02-0.198E-01
CGA:   3    -0.669451336221E+03   -0.19963E+01   -0.19957E+01  8424   0.228E+01 0.130E-01
CGA:   4    -0.669813646906E+03   -0.36231E+00   -0.36230E+00  8424   0.540E+00 0.127E-03
CGA:   5    -0.669907427568E+03   -0.93781E-01   -0.93783E-01  8424   0.117E+00-0.167E-03
CGA:   6    -0.669931354706E+03   -0.23927E-01   -0.23863E-01  8424   0.272E-01 0.998E-03
CGA:   7    -0.669937477719E+03   -0.61230E-02   -0.61393E-02  8424   0.830E-02-0.208E-03
CGA:   8    -0.669939529822E+03   -0.20521E-02   -0.20182E-02  8424   0.271E-02 0.349E-03
CGA:   9    -0.669940350840E+03   -0.82102E-03   -0.80100E-03  8424   0.105E-02 0.153E-03
CGA:  10    -0.669940730814E+03   -0.37997E-03   -0.37114E-03  8424   0.478E-03 0.484E-04
CGA:  11    -0.669940861086E+03   -0.13027E-03   -0.12038E-03  8424   0.166E-03 0.135E-03
CGA:  12    -0.669940929274E+03   -0.68187E-04   -0.60520E-04  8424   0.107E-03 0.665E-04
CGA:  13    -0.669940993046E+03   -0.63772E-04   -0.52196E-04  8424   0.114E-03 0.645E-04
CGA:  14    -0.669941036317E+03   -0.43271E-04   -0.36366E-04  8424   0.655E-04 0.513E-04
CGA:  15    -0.669941073379E+03   -0.37063E-04    0.72651E-03  8424   0.612E-04 0.813E-04
CGA:  16    -0.669941179950E+03   -0.10657E-03   -0.33673E-04  8424   0.172E-03 0.200E-04
CGA:  17    -0.669941344189E+03   -0.16424E-03    0.16919E-02  8424   0.922E-04 0.186E-03
CGA:  18    -0.669941306772E+03    0.37417E-04   -0.13253E-03  8424   0.120E-02-0.159E-03
CGA:  19    -0.669941514625E+03   -0.20785E-03   -0.20237E-03  8424   0.305E-03-0.226E-04
CGA:  20    -0.669941610852E+03   -0.96226E-04   -0.90321E-04  8424   0.112E-03-0.648E-04
CGA:  21    -0.669941537050E+03    0.73802E-04   -0.14658E-03  8424   0.254E-02-0.179E-03
CGA:  22    -0.669941945790E+03   -0.40874E-03   -0.34396E-03  8424   0.246E-03-0.209E-03
CGA:  23    -0.669942011334E+03   -0.65544E-04   -0.65028E-04  8424   0.108E-03-0.394E-05
CGA:  24    -0.669942126731E+03   -0.11540E-03    0.86416E-04  8424   0.121E-03-0.130E-04
CGA:  25    -0.669942269134E+03   -0.14240E-03    0.41263E-04  8424   0.119E-03 0.491E-04
CGA:  26    -0.669942542650E+03   -0.27352E-03    0.39815E-04  8424   0.981E-04 0.981E-04
CGA:  27    -0.669942587953E+03   -0.45303E-04   -0.52960E-04  8424   0.255E-03-0.701E-04
CGA:  28    -0.669942692475E+03   -0.10452E-03   -0.83064E-04  8424   0.292E-03-0.197E-03
CGA:  29    -0.669942718357E+03   -0.25882E-04   -0.39002E-04  8424   0.390E-04 0.443E-04
CGA:  30    -0.669942783549E+03   -0.65192E-04    0.12436E-04  8424   0.745E-04 0.581E-05
CGA:  31    -0.669943003806E+03   -0.22026E-03    0.84584E-05  8424   0.140E-03 0.630E-04
CGA:  32    -0.669943057118E+03   -0.53312E-04   -0.49701E-04  8424   0.105E-03-0.600E-04
CGA:  33    -0.669943198624E+03   -0.14151E-03    0.66589E-05  8424   0.112E-03 0.257E-04
CGA:  34    -0.669943401385E+03   -0.20276E-03    0.37221E-04  8424   0.589E-04 0.384E-04
CGA:  35    -0.669943568055E+03   -0.16667E-03    0.10463E-04  8424   0.564E-04 0.548E-04
CGA:  36    -0.669943666088E+03   -0.98032E-04    0.10487E-04  8424   0.119E-03-0.261E-04
CGA:  37    -0.669943869361E+03   -0.20327E-03    0.46211E-05  8424   0.221E-03 0.281E-04
CGA:  38    -0.669944268623E+03   -0.39926E-03    0.73095E-04  8424   0.466E-03-0.295E-04
CGA:  39    -0.669945382873E+03   -0.11142E-02    0.35425E-04  8424   0.613E-03 0.156E-03
CGA:  40    -0.669946972880E+03   -0.15900E-02    0.12427E-03  8424   0.214E-02-0.570E-03
CGA:  41    -0.669947182161E+03   -0.20928E-03   -0.26335E-03  8424   0.644E-04 0.194E-03
CGA:  42    -0.669947121744E+03    0.60417E-04   -0.68701E-04  8424   0.103E-02-0.223E-03
CGA:  43    -0.669947396449E+03   -0.27471E-03   -0.22314E-03  8424   0.208E-03-0.246E-03
CGA:  44    -0.669947422087E+03   -0.25638E-04   -0.26945E-04  8424   0.254E-04 0.541E-05
CGA:  45    -0.669947482007E+03   -0.59920E-04    0.28365E-05  8424   0.488E-04-0.209E-05
CGA:  46    -0.669947697148E+03   -0.21514E-03    0.18278E-05  8424   0.774E-04 0.115E-04
CGA:  47    -0.669948118507E+03   -0.42136E-03    0.43342E-05  8424   0.121E-03 0.499E-04
CGA:  48    -0.669948133061E+03   -0.14554E-04   -0.17340E-04  8424   0.166E-04 0.107E-04
CGA:  49    -0.669948202156E+03   -0.69094E-04    0.91012E-06  8424   0.206E-04 0.895E-05
CGA:  50    -0.669948275129E+03   -0.72973E-04    0.11384E-05  8424   0.289E-04 0.153E-05
CGA:  51    -0.669948415929E+03   -0.14080E-03    0.12601E-05  8424   0.283E-04 0.237E-04
CGA:  52    -0.669948477376E+03   -0.61446E-04    0.31150E-05  8424   0.223E-04-0.105E-05
CGA:  53    -0.669948587255E+03   -0.10988E-03    0.75741E-06  8424   0.228E-04 0.200E-04
CGA:  54    -0.669948648232E+03   -0.60977E-04    0.18448E-05  8424   0.162E-04 0.504E-05
CGA:  55    -0.669948754701E+03   -0.10647E-03    0.65611E-06  8424   0.184E-04 0.187E-04
CGA:  56    -0.669948811844E+03   -0.57144E-04    0.12130E-05  8424   0.140E-04 0.811E-05
CGA:  57    -0.669948920647E+03   -0.10880E-03    0.66509E-06  8424   0.167E-04 0.187E-04
CGA:  58    -0.669948979061E+03   -0.58414E-04    0.94032E-06  8424   0.130E-04 0.921E-05
CGA:  59    -0.669949044274E+03   -0.65213E-04    0.47185E-06  8424   0.133E-04 0.103E-04
CGA:  60    -0.669949094472E+03   -0.50198E-04    0.67577E-06  8424   0.162E-04 0.884E-05
CGA:  61    -0.669949169176E+03   -0.74704E-04    0.64949E-06  8424   0.269E-04 0.318E-05
CGA:  62    -0.669949327377E+03   -0.15820E-03    0.11867E-05  8424   0.197E-04 0.315E-04
CGA:  63    -0.669949362610E+03   -0.35233E-04    0.29837E-05  8424   0.415E-04-0.390E-05
CGA:  64    -0.669949540801E+03   -0.17819E-03    0.11105E-05  8424   0.585E-04 0.314E-04
CGA:  65    -0.669949633017E+03   -0.92216E-04    0.11261E-04  8424   0.202E-03-0.809E-04
CGA:  66    -0.669949644957E+03   -0.11940E-04   -0.22067E-04  8424   0.150E-04 0.362E-04
CGA:  67    -0.669949681299E+03   -0.36343E-04    0.19215E-05  8424   0.580E-04-0.708E-05
CGA:  68    -0.669949906744E+03   -0.22544E-03    0.65625E-06  8424   0.394E-03-0.266E-04
CGA:  69    -0.669951717915E+03   -0.18112E-02    0.39173E-05  8424   0.236E-02-0.204E-03
CGA:  70    -0.669952174151E+03   -0.45624E-03   -0.37514E-03  8424   0.211E-03-0.375E-03
CGA:  71    -0.669952195779E+03   -0.21627E-04   -0.25960E-04  8424   0.153E-04 0.198E-04
CGA:  72    -0.669952236400E+03   -0.40622E-04    0.12335E-05  8424   0.290E-04 0.288E-05
CGA:  73    -0.669952390970E+03   -0.15457E-03    0.11430E-05  8424   0.282E-04 0.193E-04
CGA:  74    -0.669952450375E+03   -0.59405E-04    0.25465E-05  8424   0.253E-04-0.119E-05
CGA:  75    -0.669952523840E+03   -0.73465E-04    0.13138E-05  8424   0.236E-04 0.100E-04
CGA:  76    -0.669952654460E+03   -0.13062E-03    0.12768E-05  8424   0.213E-04 0.221E-04
CGA:  77    -0.669952716949E+03   -0.62489E-04    0.12020E-05  8424   0.195E-04 0.377E-05
CGA:  78    -0.669952799893E+03   -0.82944E-04    0.99569E-06  8424   0.162E-04 0.138E-04
CGA:  79    -0.669952852306E+03   -0.52413E-04    0.80189E-06  8424   0.130E-04 0.687E-05
CGA:  80    -0.669952931345E+03   -0.79039E-04    0.65358E-06  8424   0.136E-04 0.151E-04
CGA:  81    -0.669952982300E+03   -0.50955E-04    0.56572E-06  8424   0.116E-04 0.762E-05
CGA:  82    -0.669953021957E+03   -0.39656E-04    0.53928E-06  8424   0.129E-04 0.730E-05
CGA:  83    -0.669953079344E+03   -0.57388E-04    0.43703E-06  8424   0.190E-04 0.416E-05
CGA:  84    -0.669953191363E+03   -0.11202E-03    0.84056E-06  8424   0.133E-04 0.238E-04
CGA:  85    -0.669953226887E+03   -0.35525E-04    0.84972E-06  8424   0.177E-04 0.432E-05
CGA:  86    -0.669953339487E+03   -0.11260E-03    0.72526E-06  8424   0.143E-04 0.211E-04
CGA:  87    -0.669953389484E+03   -0.49997E-04    0.64666E-06  8424   0.131E-04 0.534E-05
CGA:  88    -0.669953473350E+03   -0.83866E-04    0.56841E-06  8424   0.142E-04 0.168E-04
CGA:  89    -0.669953522379E+03   -0.49029E-04    0.65091E-06  8424   0.113E-04 0.620E-05
CGA:  90    -0.669953601854E+03   -0.79475E-04    0.48978E-06  8424   0.132E-04 0.157E-04
CGA:  91    -0.669953648301E+03   -0.46447E-04    0.58647E-06  8424   0.102E-04 0.722E-05
CGA:  92    -0.669953692024E+03   -0.43723E-04    0.36079E-06  8424   0.956E-05 0.859E-05
CGA:  93    -0.669953739627E+03   -0.47603E-04    0.28187E-06  8424   0.959E-05 0.877E-05
CGA:  94    -0.669953780562E+03   -0.40935E-04    0.33926E-06  8424   0.101E-04 0.849E-05
CGA:  95    -0.669953831887E+03   -0.51325E-04    0.29153E-06  8424   0.118E-04 0.749E-05
CGA:  96    -0.669953865312E+03   -0.33425E-04    0.70280E-06  8424   0.174E-04 0.438E-05
CGA:  97    -0.669953980328E+03   -0.11502E-03    0.73112E-06  8424   0.114E-04 0.230E-04
CGA:  98    -0.669954034507E+03   -0.54179E-04    0.35395E-06  8424   0.170E-04 0.468E-05
CGA:  99    -0.669954144095E+03   -0.10959E-03    0.78706E-06  8424   0.105E-04 0.228E-04
CGA: 100    -0.669954180347E+03   -0.36252E-04    0.48333E-06  8424   0.137E-04 0.617E-05
CGA: 101    -0.669954236936E+03   -0.56590E-04    0.50535E-06  8424   0.265E-04-0.263E-06
CGA: 102    -0.669954365799E+03   -0.12886E-03    0.76752E-06  8424   0.266E-04 0.250E-04
CGA: 103    -0.669954364762E+03    0.10374E-05   -0.17047E-04  8424   0.310E-03-0.635E-04
CGA: 104    -0.669954472625E+03   -0.10786E-03   -0.71690E-04  8424   0.267E-03-0.263E-03
CGA: 105    -0.669954484316E+03   -0.11690E-04   -0.25769E-04  8424   0.167E-04 0.532E-04
CGA: 106    -0.669954036617E+03    0.44770E-03   -0.24543E-03  8424   0.503E-02-0.260E-03
CGA: 107    -0.669954796551E+03   -0.75993E-03   -0.62002E-03  8424   0.476E-04-0.299E-03
CGA: 108    -0.669954807514E+03   -0.10963E-04   -0.84783E-05  8424   0.153E-04-0.593E-05
CGA: 109    -0.669954911898E+03   -0.10438E-03    0.70076E-06  8424   0.184E-04 0.780E-05
CGA: 110    -0.669954944355E+03   -0.32457E-04    0.10873E-04  8424   0.146E-03-0.283E-04
CGA: 111    -0.669955010654E+03   -0.66299E-04   -0.30577E-04  8424   0.913E-04-0.940E-04
CGA: 112    -0.669955017342E+03   -0.66875E-05   -0.10326E-04  8424   0.834E-05 0.800E-05
   9 F= -.66995502E+03 E0= -.66995502E+03  d E =0.149856E-01  mag=     2.0000
       N       E                     dE             d eps       ncg     rms          ort
SDA:   1    -0.645254160752E+03    0.24701E+02    0.00000E+00  8424   0.684E+02 0.000E+00
CGA:   2    -0.660780760318E+03   -0.15527E+02   -0.15676E+02  8424   0.345E+02-0.189E+00
CGA:   3    -0.667897535838E+03   -0.71168E+01   -0.70825E+01  8424   0.913E+01 0.270E+00
CGA:   4    -0.669360546700E+03   -0.14630E+01   -0.14670E+01  8424   0.199E+01 0.181E-01
CGA:   5    -0.669697247602E+03   -0.33670E+00   -0.33776E+00  8424   0.420E+00 0.220E-03
CGA:   6    -0.669783879509E+03   -0.86632E-01   -0.86380E-01  8424   0.104E+00-0.629E-03
CGA:   7    -0.669806619530E+03   -0.22740E-01   -0.22834E-01  8424   0.291E-01 0.340E-03
CGA:   8    -0.669813770498E+03   -0.71510E-02   -0.71478E-02  8424   0.937E-02-0.189E-04
CGA:   9    -0.669816514744E+03   -0.27442E-02   -0.26899E-02  8424   0.355E-02-0.348E-03
CGA:  10    -0.669817650085E+03   -0.11353E-02   -0.11168E-02  8424   0.159E-02-0.171E-03
CGA:  11    -0.669818215601E+03   -0.56552E-03   -0.53682E-03  8424   0.858E-03-0.379E-03
CGA:  12    -0.669818441296E+03   -0.22569E-03   -0.20590E-03  8424   0.545E-03-0.180E-03
CGA:  13    -0.669818240021E+03    0.20128E-03   -0.44706E-03  8424   0.549E-02-0.107E-02
CGA:  14    -0.669819048070E+03   -0.80805E-03   -0.82124E-03  8424   0.983E-03 0.380E-04
CGA:  15    -0.669819325840E+03   -0.27777E-03   -0.26970E-03  8424   0.299E-03-0.496E-04
CGA:  16    -0.669818310707E+03    0.10151E-02   -0.51919E-03  8424   0.961E-02-0.110E-02
CGA:  17    -0.669819510428E+03   -0.11997E-02   -0.13337E-02  8424   0.141E-02 0.399E-03
CGA:  18    -0.669819972008E+03   -0.46158E-03   -0.42624E-03  8424   0.484E-03-0.185E-03
CGA:  19    -0.669820180821E+03   -0.20881E-03   -0.24278E-03  8424   0.730E-03-0.323E-03
CGA:  20    -0.669820312935E+03   -0.13211E-03   -0.12637E-03  8424   0.198E-03-0.195E-04
CGA:  21    -0.669820371396E+03   -0.58461E-04   -0.16280E-03  8424   0.118E-02-0.275E-03
CGA:  22    -0.669820612323E+03   -0.24093E-03   -0.19080E-03  8424   0.271E-03-0.158E-03
CGA:  23    -0.669820712769E+03   -0.10045E-03   -0.94405E-04  8424   0.262E-03-0.978E-04
CGA:  24    -0.669820944887E+03   -0.23212E-03    0.77200E-04  8424   0.312E-03-0.920E-04
CGA:  25    -0.669821277800E+03   -0.33291E-03    0.60077E-04  8424   0.252E-03 0.526E-04
CGA:  26    -0.669821781848E+03   -0.50405E-03    0.79685E-04  8424   0.221E-03 0.441E-04
CGA:  27    -0.669822175845E+03   -0.39400E-03    0.93171E-04  8424   0.243E-03-0.878E-05
CGA:  28    -0.669822794643E+03   -0.61880E-03    0.28712E-04  8424   0.362E-03-0.316E-05
CGA:  29    -0.669823784232E+03   -0.98959E-03    0.41175E-04  8424   0.240E-03 0.105E-03
CGA:  30    -0.669824564627E+03   -0.78040E-03    0.41388E-04  8424   0.176E-03 0.779E-04
CGA:  31    -0.669825257747E+03   -0.69312E-03    0.24427E-04  8424   0.218E-03-0.181E-04
CGA:  32    -0.669826018068E+03   -0.76032E-03    0.14093E-04  8424   0.233E-03-0.562E-04
CGA:  33    -0.669826996569E+03   -0.97850E-03    0.78041E-05  8424   0.278E-03 0.175E-05
CGA:  34    -0.669828268539E+03   -0.12720E-02    0.16452E-04  8424   0.319E-03-0.634E-04
CGA:  35    -0.669829680868E+03   -0.14123E-02    0.10874E-04  8424   0.309E-03-0.181E-03
CGA:  36    -0.669829773138E+03   -0.92270E-04   -0.78699E-04  8424   0.135E-03-0.660E-04
CGA:  37    -0.669829782544E+03   -0.94063E-05   -0.19016E-04  8424   0.300E-04 0.352E-04
  10 F= -.66982978E+03 E0= -.66982978E+03  d E =0.125235E+00  mag=     2.0000
       N       E                     dE             d eps       ncg     rms          ort
SDA:   1    -0.666977891085E+03    0.28519E+01    0.00000E+00  8424   0.885E+01 0.000E+00
CGA:   2    -0.668895528147E+03   -0.19176E+01   -0.19199E+01  8424   0.388E+01 0.827E-03
CGA:   3    -0.669694550154E+03   -0.79902E+00   -0.79894E+00  8424   0.115E+01 0.460E-03
CGA:   4    -0.669882316744E+03   -0.18777E+00   -0.18781E+00  8424   0.280E+00-0.141E-03
CGA:   5    -0.669930649718E+03   -0.48333E-01   -0.48383E-01  8424   0.579E-01 0.150E-03
CGA:   6    -0.669942077555E+03   -0.11428E-01   -0.11431E-01  8424   0.133E-01 0.612E-05
CGA:   7    -0.669945057555E+03   -0.29800E-02   -0.30010E-02  8424   0.397E-02 0.145E-03
CGA:   8    -0.669946013105E+03   -0.95555E-03   -0.96098E-03  8424   0.118E-02 0.438E-04
CGA:   9    -0.669946335074E+03   -0.32197E-03   -0.32364E-03  8424   0.394E-03 0.195E-04
CGA:  10    -0.669946446911E+03   -0.11184E-03   -0.11472E-03  8424   0.148E-03 0.438E-04
CGA:  11    -0.669946496120E+03   -0.49209E-04   -0.49897E-04  8424   0.566E-04 0.151E-04
CGA:  12    -0.669946507811E+03   -0.11691E-04   -0.14557E-04  8424   0.246E-04 0.251E-04
CGA:  13    -0.669946513990E+03   -0.61784E-05   -0.82224E-05  8424   0.174E-04 0.184E-04
  11 F= -.66994651E+03 E0= -.66994651E+03  d E =-.116731E+00  mag=     2.0000
       N       E                     dE             d eps       ncg     rms          ort
SDA:   1    -0.669218459946E+03    0.72805E+00    0.00000E+00  8424   0.185E+01 0.000E+00
CGA:   2    -0.669721020354E+03   -0.50256E+00   -0.50258E+00  8424   0.984E+00-0.956E-06
CGA:   3    -0.669902261719E+03   -0.18124E+00   -0.18134E+00  8424   0.217E+00 0.508E-03
CGA:   4    -0.669936843631E+03   -0.34582E-01   -0.34572E-01  8424   0.512E-01-0.863E-04
CGA:   5    -0.669945738979E+03   -0.88953E-02   -0.88967E-02  8424   0.108E-01-0.146E-05
CGA:   6    -0.669947903439E+03   -0.21645E-02   -0.21808E-02  8424   0.254E-02 0.140E-03
CGA:   7    -0.669948469233E+03   -0.56579E-03   -0.57017E-03  8424   0.747E-03 0.486E-04
CGA:   8    -0.669948647302E+03   -0.17807E-03   -0.18174E-03  8424   0.245E-03 0.538E-04
CGA:   9    -0.669948702010E+03   -0.54708E-04   -0.60016E-04  8424   0.895E-04 0.712E-04
CGA:  10    -0.669948720416E+03   -0.18406E-04   -0.23640E-04  8424   0.470E-04 0.550E-04
CGA:  11    -0.669948725241E+03   -0.48258E-05   -0.83879E-05  8424   0.270E-04 0.306E-04
  12 F= -.66994873E+03 E0= -.66994873E+03  d E =-.221125E-02  mag=     2.0000
       N       E                     dE             d eps       ncg     rms          ort
SDA:   1    -0.667323924765E+03    0.26248E+01    0.00000E+00  8424   0.641E+01 0.000E+00
CGA:   2    -0.669147446020E+03   -0.18235E+01   -0.18235E+01  8424   0.354E+01-0.161E-02
CGA:   3    -0.669784266669E+03   -0.63682E+00   -0.63705E+00  8424   0.735E+00 0.146E-02
CGA:   4    -0.669900119845E+03   -0.11585E+00   -0.11585E+00  8424   0.170E+00-0.113E-03
CGA:   5    -0.669929757075E+03   -0.29637E-01   -0.29638E-01  8424   0.367E-01-0.261E-04
CGA:   6    -0.669937233424E+03   -0.74763E-02   -0.74937E-02  8424   0.859E-02 0.279E-03
CGA:   7    -0.669939136074E+03   -0.19026E-02   -0.19037E-02  8424   0.249E-02 0.229E-04
CGA:   8    -0.669939748747E+03   -0.61267E-03   -0.61413E-03  8424   0.813E-03 0.997E-04
CGA:   9    -0.669939967790E+03   -0.21904E-03   -0.21909E-03  8424   0.286E-03 0.110E-03
CGA:  10    -0.669940057081E+03   -0.89291E-04   -0.88222E-04  8424   0.119E-03 0.853E-04
CGA:  11    -0.669940080710E+03   -0.23628E-04   -0.29242E-04  8424   0.536E-04 0.789E-04
CGA:  12    -0.669940085250E+03   -0.45406E-05   -0.84681E-05  8424   0.340E-04 0.397E-04
  13 F= -.66994009E+03 E0= -.66994009E+03  d E =0.863999E-02  mag=     2.0000
       N       E                     dE             d eps       ncg     rms          ort
SDA:   1    -0.643143066397E+03    0.26797E+02    0.00000E+00  8424   0.694E+02 0.000E+00
CGA:   2    -0.660712285137E+03   -0.17569E+02   -0.17567E+02  8424   0.375E+02 0.136E+00
CGA:   3    -0.667994456025E+03   -0.72822E+01   -0.72791E+01  8424   0.885E+01-0.111E-01
CGA:   4    -0.669384942655E+03   -0.13905E+01   -0.13914E+01  8424   0.196E+01 0.265E-02
CGA:   5    -0.669720720851E+03   -0.33578E+00   -0.33598E+00  8424   0.419E+00 0.169E-02
CGA:   6    -0.669807583328E+03   -0.86862E-01   -0.86847E-01  8424   0.104E+00-0.542E-03
CGA:   7    -0.669830353325E+03   -0.22770E-01   -0.22774E-01  8424   0.298E-01 0.251E-03
CGA:   8    -0.669837942117E+03   -0.75888E-02   -0.75902E-02  8424   0.102E-01-0.707E-04
CGA:   9    -0.669840930908E+03   -0.29888E-02   -0.30226E-02  8424   0.413E-02-0.546E-03
CGA:  10    -0.669842222509E+03   -0.12916E-02   -0.13365E-02  8424   0.188E-02-0.434E-03
CGA:  11    -0.669842750089E+03   -0.52758E-03   -0.58353E-03  8424   0.956E-03-0.541E-03
CGA:  12    -0.669842946725E+03   -0.19664E-03   -0.25732E-03  8424   0.966E-03-0.471E-03
CGA:  13    -0.669841432817E+03    0.15139E-02   -0.56162E-03  8424   0.136E-01-0.235E-02
CGA:  14    -0.669843342762E+03   -0.19099E-02   -0.19090E-02  8424   0.220E-02-0.180E-04
CGA:  15    -0.669843969328E+03   -0.62657E-03   -0.62636E-03  8424   0.500E-03-0.367E-04
CGA:  16    -0.669844099000E+03   -0.12967E-03   -0.33521E-03  8424   0.165E-02-0.527E-03
CGA:  17    -0.669844294450E+03   -0.19545E-03   -0.22027E-03  8424   0.236E-03 0.141E-03
CGA:  18    -0.669844335359E+03   -0.40909E-04   -0.17497E-03  8424   0.867E-03-0.354E-03
CGA:  19    -0.669844526248E+03   -0.19089E-03   -0.18650E-03  8424   0.183E-03-0.419E-04
CGA:  20    -0.669844396853E+03    0.12939E-03   -0.13444E-03  8424   0.311E-02-0.580E-03
CGA:  21    -0.669844716271E+03   -0.31942E-03   -0.34787E-03  8424   0.166E-03 0.132E-03
CGA:  22    -0.669844582199E+03    0.13407E-03   -0.18644E-03  8424   0.141E-02-0.429E-03
CGA:  23    -0.669844988002E+03   -0.40580E-03   -0.39839E-03  8424   0.166E-03-0.910E-04
CGA:  24    -0.669845025723E+03   -0.37721E-04   -0.79654E-04  8424   0.872E-03-0.277E-03
CGA:  25    -0.669845133264E+03   -0.10754E-03   -0.11209E-03  8424   0.538E-04 0.189E-04
CGA:  26    -0.669845197961E+03   -0.64697E-04    0.15014E-04  8424   0.534E-04 0.534E-05
CGA:  27    -0.669845327953E+03   -0.12999E-03    0.49488E-05  8424   0.491E-04 0.326E-04
CGA:  28    -0.669845384356E+03   -0.56403E-04    0.14189E-04  8424   0.343E-04 0.154E-04
CGA:  29    -0.669845491031E+03   -0.10668E-03    0.34388E-05  8424   0.374E-04 0.252E-04
CGA:  30    -0.669845541663E+03   -0.50632E-04    0.73763E-05  8424   0.369E-04 0.127E-04
CGA:  31    -0.669845661625E+03   -0.11996E-03    0.36604E-05  8424   0.353E-04 0.291E-04
CGA:  32    -0.669845713812E+03   -0.52186E-04    0.58108E-05  8424   0.311E-04 0.134E-04
CGA:  33    -0.669845820747E+03   -0.10694E-03    0.30578E-05  8424   0.359E-04 0.242E-04
CGA:  34    -0.669845869176E+03   -0.48428E-04    0.71481E-05  8424   0.457E-04 0.502E-05
CGA:  35    -0.669845992368E+03   -0.12319E-03    0.39935E-05  8424   0.420E-04 0.215E-04
CGA:  36    -0.669846159695E+03   -0.16733E-03    0.39259E-05  8424   0.356E-04 0.550E-04
CGA:  37    -0.669846198873E+03   -0.39178E-04    0.11615E-04  8424   0.571E-04-0.356E-05
CGA:  38    -0.669846325976E+03   -0.12710E-03    0.36889E-05  8424   0.497E-04 0.154E-04
CGA:  39    -0.669846494577E+03   -0.16860E-03    0.40756E-05  8424   0.741E-04 0.370E-04
CGA:  40    -0.669846512122E+03   -0.17545E-04   -0.14977E-04  8424   0.448E-04-0.168E-04
CGA:  41    -0.669846587229E+03   -0.75106E-04    0.28567E-05  8424   0.232E-04 0.129E-04
CGA:  42    -0.669846673989E+03   -0.86761E-04    0.16419E-05  8424   0.387E-04 0.154E-04
CGA:  43    -0.669846687297E+03   -0.13308E-04   -0.14953E-04  8424   0.146E-03-0.429E-04
CGA:  44    -0.669846740570E+03   -0.53274E-04   -0.38979E-04  8424   0.272E-03-0.173E-03
CGA:  45    -0.669846762547E+03   -0.21977E-04   -0.28383E-04  8424   0.132E-04 0.265E-04
CGA:  46    -0.669846793967E+03   -0.31420E-04    0.10662E-05  8424   0.306E-04 0.496E-05
CGA:  47    -0.669846928568E+03   -0.13460E-03    0.18603E-05  8424   0.238E-04 0.399E-04
CGA:  48    -0.669846976218E+03   -0.47650E-04    0.19910E-05  8424   0.624E-04-0.148E-04
CGA:  49    -0.669846983731E+03   -0.75131E-05   -0.79847E-05  8424   0.120E-04 0.223E-05
  14 F= -.66984698E+03 E0= -.66984698E+03  d E =0.931015E-01  mag=     2.0000
       N       E                     dE             d eps       ncg     rms          ort
SDA:   1    -0.667047945533E+03    0.27990E+01    0.00000E+00  8424   0.809E+01 0.000E+00
CGA:   2    -0.668916535795E+03   -0.18686E+01   -0.18696E+01  8424   0.381E+01 0.290E-02
CGA:   3    -0.669675858235E+03   -0.75932E+00   -0.75913E+00  8424   0.104E+01-0.401E-03
CGA:   4    -0.669844293644E+03   -0.16844E+00   -0.16844E+00  8424   0.250E+00-0.227E-03
CGA:   5    -0.669887466335E+03   -0.43173E-01   -0.43192E-01  8424   0.522E-01 0.707E-04
CGA:   6    -0.669897856305E+03   -0.10390E-01   -0.10371E-01  8424   0.123E-01-0.193E-03
CGA:   7    -0.669900678390E+03   -0.28221E-02   -0.28138E-02  8424   0.380E-02-0.131E-03
CGA:   8    -0.669901660463E+03   -0.98207E-03   -0.97429E-03  8424   0.134E-02-0.250E-03
CGA:   9    -0.669902082853E+03   -0.42239E-03   -0.45882E-03  8424   0.884E-03-0.470E-03
CGA:  10    -0.669902064839E+03    0.18014E-04   -0.40492E-03  8424   0.247E-02-0.103E-02
CGA:  11    -0.669902584301E+03   -0.51946E-03   -0.49244E-03  8424   0.487E-03-0.238E-03
CGA:  12    -0.669902747764E+03   -0.16346E-03   -0.22920E-03  8424   0.634E-03-0.309E-03
CGA:  13    -0.669902935199E+03   -0.18743E-03   -0.16945E-03  8424   0.450E-03-0.351E-03
CGA:  14    -0.669902991199E+03   -0.56000E-04   -0.58263E-04  8424   0.354E-04 0.121E-04
CGA:  15    -0.669903073868E+03   -0.82669E-04    0.20544E-05  8424   0.290E-04 0.129E-04
CGA:  16    -0.669903221216E+03   -0.14735E-03    0.11955E-05  8424   0.252E-04 0.293E-04
CGA:  17    -0.669903282150E+03   -0.60934E-04    0.13096E-05  8424   0.258E-04 0.701E-05
CGA:  18    -0.669903429719E+03   -0.14757E-03    0.80649E-06  8424   0.224E-04 0.237E-04
CGA:  19    -0.669903500304E+03   -0.70585E-04    0.82948E-06  8424   0.146E-04 0.107E-04
CGA:  20    -0.669903610238E+03   -0.10993E-03    0.44945E-06  8424   0.174E-04 0.190E-04
CGA:  21    -0.669903677835E+03   -0.67597E-04    0.49726E-06  8424   0.134E-04 0.112E-04
CGA:  22    -0.669903741246E+03   -0.63411E-04    0.30775E-06  8424   0.153E-04 0.105E-04
CGA:  23    -0.669903807272E+03   -0.66027E-04    0.38796E-06  8424   0.239E-04 0.571E-05
CGA:  24    -0.669903971574E+03   -0.16430E-03    0.70068E-06  8424   0.132E-04 0.304E-04
CGA:  25    -0.669904030122E+03   -0.58549E-04    0.32642E-06  8424   0.186E-04 0.693E-05
CGA:  26    -0.669904093329E+03   -0.63207E-04    0.62998E-06  8424   0.407E-04-0.457E-05
CGA:  27    -0.669904286043E+03   -0.19271E-03    0.51014E-06  8424   0.626E-04 0.283E-04
CGA:  28    -0.669904208640E+03    0.77403E-04   -0.44615E-04  8424   0.185E-02-0.300E-03
CGA:  29    -0.669904441782E+03   -0.23314E-03   -0.20446E-03  8424   0.217E-04-0.133E-03
CGA:  30    -0.669904496905E+03   -0.55123E-04    0.95826E-06  8424   0.418E-04-0.792E-05
CGA:  31    -0.669904666480E+03   -0.16958E-03    0.46068E-06  8424   0.443E-04 0.241E-04
CGA:  32    -0.669904714519E+03   -0.48039E-04    0.98231E-05  8424   0.146E-03-0.600E-04
CGA:  33    -0.669904748005E+03   -0.33486E-04   -0.23165E-04  8424   0.489E-04-0.655E-04
CGA:  34    -0.669904824873E+03   -0.76868E-04    0.11486E-05  8424   0.110E-04 0.691E-05
CGA:  35    -0.669904891378E+03   -0.66506E-04    0.25406E-06  8424   0.986E-05 0.855E-05
CGA:  36    -0.669904944014E+03   -0.52635E-04    0.19845E-06  8424   0.146E-04 0.390E-05
CGA:  37    -0.669905070175E+03   -0.12616E-03    0.34544E-06  8424   0.910E-05 0.183E-04
CGA:  38    -0.669905117640E+03   -0.47465E-04    0.18777E-06  8424   0.944E-05 0.510E-05
CGA:  39    -0.669905167827E+03   -0.50187E-04    0.19066E-06  8424   0.125E-04 0.343E-05
CGA:  40    -0.669905279411E+03   -0.11158E-03    0.27132E-06  8424   0.932E-05 0.151E-04
CGA:  41    -0.669905324573E+03   -0.45161E-04    0.20915E-06  8424   0.855E-05 0.415E-05
CGA:  42    -0.669905413159E+03   -0.88587E-04    0.17935E-06  8424   0.873E-05 0.113E-04
CGA:  43    -0.669905459023E+03   -0.45864E-04    0.17884E-06  8424   0.675E-05 0.467E-05
CGA:  44    -0.669905503278E+03   -0.44254E-04    0.10783E-06  8424   0.620E-05 0.544E-05
CGA:  45    -0.669905546700E+03   -0.43422E-04    0.92189E-07  8424   0.611E-05 0.545E-05
CGA:  46    -0.669905590411E+03   -0.43711E-04    0.88692E-07  8424   0.639E-05 0.513E-05
CGA:  47    -0.669905632173E+03   -0.41762E-04    0.10270E-06  8424   0.757E-05 0.428E-05
CGA:  48    -0.669905675197E+03   -0.43024E-04    0.14193E-06  8424   0.115E-04 0.189E-05
CGA:  49    -0.669905781493E+03   -0.10630E-03    0.20193E-06  8424   0.782E-05 0.137E-04
CGA:  50    -0.669905819639E+03   -0.38146E-04    0.17424E-06  8424   0.133E-04 0.328E-06
CGA:  51    -0.669905928342E+03   -0.10870E-03    0.18308E-06  8424   0.115E-04 0.132E-04
CGA:  52    -0.669905968079E+03   -0.39737E-04    0.38606E-06  8424   0.251E-04-0.696E-05
CGA:  53    -0.669905996694E+03   -0.28615E-04    0.45723E-05  8424   0.732E-04-0.326E-04
CGA:  54    -0.669906011575E+03   -0.14880E-04   -0.28176E-04  8424   0.470E-03-0.173E-03
CGA:  55    -0.669906066886E+03   -0.55311E-04   -0.51948E-04  8424   0.571E-05-0.165E-04
CGA:  56    -0.669906103772E+03   -0.36886E-04    0.82492E-07  8424   0.632E-05 0.298E-05
CGA:  57    -0.669906138246E+03   -0.34475E-04    0.11880E-06  8424   0.106E-04 0.609E-06
CGA:  58    -0.669906233461E+03   -0.95215E-04    0.13941E-06  8424   0.862E-05 0.109E-04
CGA:  59    -0.669906267619E+03   -0.34157E-04    0.23392E-06  8424   0.154E-04-0.329E-05
CGA:  60    -0.669906360597E+03   -0.92978E-04    0.95207E-07  8424   0.235E-04 0.726E-05
CGA:  61    -0.669906535150E+03   -0.17455E-03    0.71027E-06  8424   0.320E-04 0.205E-05
CGA:  62    -0.669906806868E+03   -0.27172E-03    0.43962E-06  8424   0.260E-04 0.182E-04
CGA:  63    -0.669906833937E+03   -0.27069E-04    0.54340E-05  8424   0.276E-04-0.211E-04
CGA:  64    -0.669906858011E+03   -0.24073E-04    0.94466E-05  8424   0.366E-04-0.253E-04
CGA:  65    -0.669906884278E+03   -0.26268E-04    0.29294E-04  8424   0.668E-04-0.424E-04
CGA:  66    -0.669906901594E+03   -0.17316E-04   -0.13265E-04  8424   0.317E-04-0.391E-04
CGA:  67    -0.669906926558E+03   -0.24964E-04    0.14390E-04  8424   0.785E-04-0.442E-04
CGA:  68    -0.669906942583E+03   -0.16025E-04   -0.12179E-04  8424   0.141E-04-0.271E-04
CGA:  69    -0.669906973785E+03   -0.31202E-04    0.27766E-06  8424   0.481E-05-0.836E-07
CGA:  70    -0.669907006810E+03   -0.33025E-04    0.63546E-07  8424   0.324E-05 0.234E-05
CGA:  71    -0.669907053006E+03   -0.46197E-04    0.44907E-07  8424   0.222E-05 0.440E-05
CGA:  72    -0.669907076260E+03   -0.23253E-04    0.18874E-07  8424   0.222E-05 0.214E-05
CGA:  73    -0.669907098129E+03   -0.21869E-04    0.20053E-07  8424   0.230E-05 0.203E-05
CGA:  74    -0.669907121603E+03   -0.23474E-04    0.20047E-07  8424   0.266E-05 0.177E-05
CGA:  75    -0.669907141381E+03   -0.19778E-04    0.32521E-07  8424   0.392E-05 0.100E-05
CGA:  76    -0.669907196444E+03   -0.55063E-04    0.47254E-07  8424   0.241E-05 0.510E-05
CGA:  77    -0.669907219438E+03   -0.22994E-04    0.22534E-07  8424   0.332E-05 0.110E-05
CGA:  78    -0.669907268768E+03   -0.49330E-04    0.42344E-07  8424   0.209E-05 0.454E-05
CGA:  79    -0.669907287505E+03   -0.18737E-04    0.21012E-07  8424   0.246E-05 0.136E-05
CGA:  80    -0.669907309759E+03   -0.22254E-04    0.24324E-07  8424   0.352E-05 0.667E-06
CGA:  81    -0.669907357591E+03   -0.47832E-04    0.37166E-07  8424   0.256E-05 0.424E-05
CGA:  82    -0.669907374192E+03   -0.16602E-04    0.36270E-07  8424   0.340E-05 0.401E-06
CGA:  83    -0.669907419146E+03   -0.44953E-04    0.30468E-07  8424   0.291E-05 0.369E-05
CGA:  84    -0.669907439593E+03   -0.20447E-04    0.37973E-07  8424   0.325E-05 0.231E-07
CGA:  85    -0.669907477412E+03   -0.37819E-04    0.25076E-07  8424   0.316E-05 0.302E-05
CGA:  86    -0.669907493709E+03   -0.16298E-04    0.57865E-07  8424   0.264E-05 0.116E-07
CGA:  87    -0.669907526219E+03   -0.32509E-04    0.19014E-07  8424   0.259E-05 0.251E-05
CGA:  88    -0.669907543795E+03   -0.17576E-04    0.35071E-07  8424   0.184E-05 0.603E-06
CGA:  89    -0.669907572489E+03   -0.28694E-04    0.15698E-07  8424   0.200E-05 0.218E-05
CGA:  90    -0.669907588691E+03   -0.16202E-04    0.22296E-07  8424   0.145E-05 0.967E-06
CGA:  91    -0.669907616558E+03   -0.27867E-04    0.14567E-07  8424   0.170E-05 0.204E-05
CGA:  92    -0.669907632604E+03   -0.16046E-04    0.16196E-07  8424   0.129E-05 0.105E-05
CGA:  93    -0.669907648151E+03   -0.15547E-04    0.94401E-08  8424   0.121E-05 0.118E-05
CGA:  94    -0.669907663614E+03   -0.15463E-04    0.82940E-08  8424   0.118E-05 0.118E-05
CGA:  95    -0.669907678862E+03   -0.15248E-04    0.79810E-08  8424   0.115E-05 0.116E-05
CGA:  96    -0.669907693978E+03   -0.15115E-04    0.77381E-08  8424   0.113E-05 0.114E-05
CGA:  97    -0.669907708886E+03   -0.14909E-04    0.75598E-08  8424   0.111E-05 0.112E-05
CGA:  98    -0.669907723674E+03   -0.14787E-04    0.73482E-08  8424   0.109E-05 0.110E-05
CGA:  99    -0.669907738203E+03   -0.14529E-04    0.72188E-08  8424   0.108E-05 0.108E-05
CGA: 100    -0.669907752704E+03   -0.14501E-04    0.69965E-08  8424   0.106E-05 0.105E-05
CGA: 101    -0.669907766747E+03   -0.14044E-04    0.70674E-08  8424   0.107E-05 0.102E-05
CGA: 102    -0.669907781135E+03   -0.14387E-04    0.69770E-08  8424   0.114E-05 0.954E-06
CGA: 103    -0.669907794324E+03   -0.13189E-04    0.86894E-08  8424   0.142E-05 0.773E-06
CGA: 104    -0.669907809111E+03   -0.14787E-04    0.12049E-07  8424   0.238E-05 0.215E-06
CGA: 105    -0.669907845605E+03   -0.36494E-04    0.18048E-07  8424   0.177E-05 0.264E-05
CGA: 106    -0.669907856700E+03   -0.11095E-04    0.26269E-07  8424   0.361E-05-0.590E-06
CGA: 107    -0.669907895333E+03   -0.38633E-04    0.13093E-07  8424   0.598E-05 0.216E-05
CGA: 108    -0.669907911155E+03   -0.15822E-04    0.24318E-06  8424   0.169E-04-0.818E-05
CGA: 109    -0.669907914949E+03   -0.37935E-05   -0.27524E-05  8424   0.594E-05-0.822E-05
  15 F= -.66990791E+03 E0= -.66990791E+03  d E =-.609312E-01  mag=     2.0000
       N       E                     dE             d eps       ncg     rms          ort
SDA:   1    -0.669687908880E+03    0.22000E+00    0.00000E+00  8424   0.539E+00 0.000E+00
CGA:   2    -0.669842381251E+03   -0.15447E+00   -0.15447E+00  8424   0.294E+00-0.122E-03
CGA:   3    -0.669895023033E+03   -0.52642E-01   -0.52650E-01  8424   0.613E-01 0.547E-04
CGA:   4    -0.669904720809E+03   -0.96978E-02   -0.97005E-02  8424   0.142E-01 0.139E-04
CGA:   5    -0.669907210652E+03   -0.24898E-02   -0.24851E-02  8424   0.308E-02-0.511E-04
CGA:   6    -0.669907855762E+03   -0.64511E-03   -0.64122E-03  8424   0.747E-03-0.671E-04
CGA:   7    -0.669908028440E+03   -0.17268E-03   -0.17088E-03  8424   0.243E-03-0.585E-04
CGA:   8    -0.669908098129E+03   -0.69689E-04   -0.78561E-04  8424   0.175E-03-0.101E-03
CGA:   9    -0.669907986976E+03    0.11115E-03   -0.89308E-04  8424   0.112E-02-0.332E-03
CGA:  10    -0.669908186203E+03   -0.19923E-03   -0.19343E-03  8424   0.165E-03-0.465E-04
CGA:  11    -0.669908244005E+03   -0.57801E-04   -0.64130E-04  8424   0.840E-04-0.552E-04
CGA:  12    -0.669908288516E+03   -0.44512E-04    0.24259E-04  8424   0.290E-04-0.609E-05
CGA:  13    -0.669908310089E+03   -0.21573E-04    0.11512E-04  8424   0.112E-04 0.107E-05
CGA:  14    -0.669908341189E+03   -0.31100E-04    0.49506E-06  8424   0.652E-05-0.180E-05
CGA:  15    -0.669908363809E+03   -0.22620E-04    0.13631E-06  8424   0.403E-05 0.565E-06
CGA:  16    -0.669908394838E+03   -0.31029E-04    0.59595E-07  8424   0.248E-05 0.177E-05
CGA:  17    -0.669908428527E+03   -0.33689E-04    0.35537E-07  8424   0.235E-05 0.206E-05
CGA:  18    -0.669908437775E+03   -0.92483E-05    0.62048E-07  8424   0.220E-05 0.551E-06
  16 F= -.66990844E+03 E0= -.66990844E+03  d E =-.522827E-03  mag=     2.0000
       N       E                     dE             d eps       ncg     rms          ort
SDA:   1    -0.636450876858E+03    0.33458E+02    0.00000E+00  8424   0.821E+02 0.000E+00
CGA:   2    -0.659642347583E+03   -0.23191E+02   -0.23191E+02  8424   0.452E+02-0.238E-01
CGA:   3    -0.667797474775E+03   -0.81551E+01   -0.81648E+01  8424   0.946E+01 0.349E-01
CGA:   4    -0.669298575557E+03   -0.15011E+01   -0.15018E+01  8424   0.219E+01 0.364E-02
CGA:   5    -0.669679436639E+03   -0.38086E+00   -0.38094E+00  8424   0.482E+00 0.268E-03
CGA:   6    -0.669779427366E+03   -0.99991E-01   -0.10007E+00  8424   0.118E+00 0.100E-02
CGA:   7    -0.669805919447E+03   -0.26492E-01   -0.26482E-01  8424   0.365E-01-0.214E-03
CGA:   8    -0.669815360278E+03   -0.94408E-02   -0.94460E-02  8424   0.129E-01 0.399E-03
CGA:   9    -0.669819154671E+03   -0.37944E-02   -0.37938E-02  8424   0.500E-02 0.299E-04
CGA:  10    -0.669820824830E+03   -0.16702E-02   -0.16818E-02  8424   0.199E-02-0.188E-03
CGA:  11    -0.669821324761E+03   -0.49993E-03   -0.50164E-03  8424   0.527E-03 0.122E-03
CGA:  12    -0.669821517199E+03   -0.19244E-03   -0.19583E-03  8424   0.273E-03-0.469E-04
CGA:  13    -0.669821577164E+03   -0.59965E-04   -0.62357E-04  8424   0.160E-03 0.840E-04
CGA:  14    -0.669821651406E+03   -0.74243E-04   -0.69982E-04  8424   0.140E-03 0.720E-04
CGA:  15    -0.669821787038E+03   -0.13563E-03   -0.12188E-03  8424   0.287E-03 0.333E-04
CGA:  16    -0.669821901118E+03   -0.11408E-03   -0.11112E-03  8424   0.311E-03 0.152E-03
CGA:  17    -0.669822026791E+03   -0.12567E-03   -0.12795E-03  8424   0.150E-03-0.205E-04
CGA:  18    -0.669822064263E+03   -0.37472E-04   -0.37787E-04  8424   0.113E-03 0.883E-05
CGA:  19    -0.669822130050E+03   -0.65787E-04   -0.65558E-04  8424   0.172E-03-0.253E-05
CGA:  20    -0.669822236554E+03   -0.10650E-03    0.30639E-02  8424   0.125E-03 0.111E-03
CGA:  21    -0.669822276320E+03   -0.39767E-04   -0.39677E-04  8424   0.549E-04 0.244E-04
CGA:  22    -0.669822326785E+03   -0.50464E-04    0.45638E-04  8424   0.550E-04 0.257E-04
CGA:  23    -0.669822379724E+03   -0.52939E-04    0.28598E-03  8424   0.393E-04 0.583E-04
CGA:  24    -0.669822410040E+03   -0.30316E-04   -0.27113E-04  8424   0.799E-04 0.778E-05
CGA:  25    -0.669822502094E+03   -0.92054E-04    0.35763E-04  8424   0.644E-04 0.399E-04
CGA:  26    -0.669822578588E+03   -0.76494E-04    0.84428E-04  8424   0.457E-04 0.772E-04
CGA:  27    -0.669822595066E+03   -0.16478E-04   -0.16235E-04  8424   0.419E-04 0.103E-04
CGA:  28    -0.669822645604E+03   -0.50537E-04    0.18039E-04  8424   0.266E-04 0.329E-04
CGA:  29    -0.669822663115E+03   -0.17512E-04   -0.40655E-04  8424   0.284E-03-0.205E-04
CGA:  30    -0.669822763118E+03   -0.10000E-03   -0.84237E-04  8424   0.169E-03-0.163E-03
CGA:  31    -0.669822768072E+03   -0.49533E-05   -0.20258E-04  8424   0.287E-04 0.569E-04
  17 F= -.66982277E+03 E0= -.66982277E+03  d E =0.856697E-01  mag=     2.0000
       N       E                     dE             d eps       ncg     rms          ort
SDA:   1    -0.650910398695E+03    0.18912E+02    0.00000E+00  8424   0.579E+02 0.000E+00
CGA:   2    -0.662615293002E+03   -0.11705E+02   -0.11776E+02  8424   0.248E+02-0.474E-01
CGA:   3    -0.667932864685E+03   -0.53176E+01   -0.53063E+01  8424   0.797E+01 0.158E-01
CGA:   4    -0.669233388525E+03   -0.13005E+01   -0.13021E+01  8424   0.186E+01 0.267E-02
CGA:   5    -0.669544653968E+03   -0.31127E+00   -0.31210E+00  8424   0.378E+00 0.248E-02
CGA:   6    -0.669620057762E+03   -0.75404E-01   -0.75238E-01  8424   0.905E-01-0.112E-02
CGA:   7    -0.669639741938E+03   -0.19684E-01   -0.19795E-01  8424   0.258E-01 0.103E-02
CGA:   8    -0.669645934169E+03   -0.61922E-02   -0.62147E-02  8424   0.750E-02 0.274E-03
CGA:   9    -0.669648064759E+03   -0.21306E-02   -0.21213E-02  8424   0.271E-02-0.267E-03
CGA:  10    -0.669648760272E+03   -0.69551E-03   -0.70752E-03  8424   0.980E-03 0.282E-03
CGA:  11    -0.669649113651E+03   -0.35338E-03   -0.35339E-03  8424   0.416E-03-0.169E-05
CGA:  12    -0.669649179936E+03   -0.66285E-04   -0.83853E-04  8424   0.167E-03 0.159E-03
CGA:  13    -0.669649203701E+03   -0.23766E-04   -0.40072E-04  8424   0.954E-04 0.122E-03
CGA:  14    -0.669649217970E+03   -0.14269E-04   -0.20124E-04  8424   0.636E-04 0.656E-04
CGA:  15    -0.669649213661E+03    0.43096E-05   -0.69044E-05  8424   0.578E-04 0.599E-04
  18 F= -.66964921E+03 E0= -.66964921E+03  d E =0.173554E+00  mag=     2.0000
       N       E                     dE             d eps       ncg     rms          ort
SDA:   1    -0.667574205232E+03    0.20750E+01    0.00000E+00  8424   0.712E+01 0.000E+00
CGA:   2    -0.669014023450E+03   -0.14398E+01   -0.14408E+01  8424   0.286E+01 0.585E-02
CGA:   3    -0.669618304206E+03   -0.60428E+00   -0.60410E+00  8424   0.941E+00-0.175E-02
CGA:   4    -0.669772645695E+03   -0.15434E+00   -0.15446E+00  8424   0.236E+00 0.696E-03
CGA:   5    -0.669813180922E+03   -0.40535E-01   -0.40589E-01  8424   0.482E-01 0.497E-03
CGA:   6    -0.669822646526E+03   -0.94656E-02   -0.94566E-02  8424   0.111E-01-0.146E-03
CGA:   7    -0.669824985830E+03   -0.23393E-02   -0.23588E-02  8424   0.317E-02 0.434E-03
CGA:   8    -0.669825709489E+03   -0.72366E-03   -0.73418E-03  8424   0.850E-03 0.326E-03
CGA:   9    -0.669825890424E+03   -0.18094E-03   -0.19315E-03  8424   0.260E-03 0.258E-03
CGA:  10    -0.669825916113E+03   -0.25688E-04   -0.47426E-04  8424   0.131E-03 0.196E-03
CGA:  11    -0.669825916105E+03    0.77671E-08   -0.14254E-04  8424   0.890E-04 0.104E-03
  19 F= -.66982592E+03 E0= -.66982592E+03  d E =-.176702E+00  mag=     2.0000
       N       E                     dE             d eps       ncg     rms          ort
SDA:   1    -0.668442005247E+03    0.13839E+01    0.00000E+00  8424   0.411E+01 0.000E+00
CGA:   2    -0.669352169397E+03   -0.91016E+00   -0.91022E+00  8424   0.185E+01 0.385E-02
CGA:   3    -0.669730809609E+03   -0.37864E+00   -0.37861E+00  8424   0.538E+00-0.833E-03
CGA:   4    -0.669817676799E+03   -0.86867E-01   -0.86920E-01  8424   0.130E+00 0.625E-03
CGA:   5    -0.669839928896E+03   -0.22252E-01   -0.22280E-01  8424   0.264E-01 0.480E-03
CGA:   6    -0.669845156075E+03   -0.52272E-02   -0.52327E-02  8424   0.617E-02 0.209E-03
CGA:   7    -0.669846448034E+03   -0.12920E-02   -0.12981E-02  8424   0.170E-02 0.471E-03
CGA:   8    -0.669846804597E+03   -0.35656E-03   -0.36499E-03  8424   0.466E-03 0.397E-03
CGA:   9    -0.669846871304E+03   -0.66707E-04   -0.86513E-04  8424   0.194E-03 0.285E-03
CGA:  10    -0.669846875251E+03   -0.39464E-05   -0.20404E-04  8424   0.123E-03 0.148E-03
  20 F= -.66984688E+03 E0= -.66984688E+03  d E =-.209591E-01  mag=     2.0000
       N       E                     dE             d eps       ncg     rms          ort
SDA:   1    -0.669676091459E+03    0.17078E+00    0.00000E+00  8424   0.417E+00 0.000E+00
CGA:   2    -0.669793963224E+03   -0.11787E+00   -0.11784E+00  8424   0.229E+00 0.406E-03
CGA:   3    -0.669835217457E+03   -0.41254E-01   -0.41263E-01  8424   0.484E-01 0.302E-03
CGA:   4    -0.669842762025E+03   -0.75446E-02   -0.75613E-02  8424   0.111E-01 0.322E-03
CGA:   5    -0.669844656825E+03   -0.18948E-02   -0.19059E-02  8424   0.230E-02 0.331E-03
CGA:   6    -0.669845091442E+03   -0.43462E-03   -0.43965E-03  8424   0.505E-03 0.291E-03
CGA:   7    -0.669845155160E+03   -0.63718E-04   -0.78813E-04  8424   0.165E-03 0.238E-03
CGA:   8    -0.669845156972E+03   -0.18123E-05   -0.20381E-04  8424   0.953E-04 0.161E-03
  21 F= -.66984516E+03 E0= -.66984516E+03  d E =0.171828E-02  mag=     2.0000
       N       E                     dE             d eps       ncg     rms          ort
SDA:   1    -0.643538160172E+03    0.26307E+02    0.00000E+00  8424   0.648E+02 0.000E+00
CGA:   2    -0.661679175735E+03   -0.18141E+02   -0.18140E+02  8424   0.356E+02 0.489E-02
CGA:   3    -0.668116838883E+03   -0.64377E+01   -0.64379E+01  8424   0.756E+01 0.103E-01
CGA:   4    -0.669311280289E+03   -0.11944E+01   -0.11945E+01  8424   0.176E+01 0.889E-03
CGA:   5    -0.669618708091E+03   -0.30743E+00   -0.30745E+00  8424   0.383E+00 0.745E-03
CGA:   6    -0.669697824778E+03   -0.79117E-01   -0.79109E-01  8424   0.940E-01 0.389E-03
CGA:   7    -0.669718895076E+03   -0.21070E-01   -0.21100E-01  8424   0.292E-01-0.867E-03
CGA:   8    -0.669726434466E+03   -0.75394E-02   -0.75688E-02  8424   0.104E-01-0.413E-03
CGA:   9    -0.669729545585E+03   -0.31111E-02   -0.32626E-02  8424   0.474E-02-0.121E-02
CGA:  10    -0.669730917116E+03   -0.13715E-02   -0.16177E-02  8424   0.263E-02-0.133E-02
CGA:  11    -0.669731307934E+03   -0.39082E-03   -0.85438E-03  8424   0.286E-02-0.193E-02
CGA:  12    -0.669731847084E+03   -0.53915E-03   -0.53364E-03  8424   0.751E-03-0.154E-03
CGA:  13    -0.669729210465E+03    0.26366E-02   -0.14256E-02  8424   0.238E-01-0.314E-02
CGA:  14    -0.669732171231E+03   -0.29608E-02   -0.30161E-02  8424   0.254E-02 0.320E-03
CGA:  15    -0.669733059763E+03   -0.88853E-03   -0.86566E-03  8424   0.465E-03-0.450E-03
CGA:  16    -0.669733135690E+03   -0.75927E-04   -0.25299E-03  8424   0.214E-02-0.641E-03
CGA:  17    -0.669733534831E+03   -0.39914E-03   -0.32406E-03  8424   0.298E-03-0.305E-03
CGA:  18    -0.669733599811E+03   -0.64979E-04   -0.15510E-03  8424   0.129E-02-0.411E-03
CGA:  19    -0.669733897721E+03   -0.29791E-03   -0.21212E-03  8424   0.296E-03-0.369E-03
CGA:  20    -0.669733524939E+03    0.37278E-03   -0.22727E-03  8424   0.591E-02-0.872E-03
CGA:  21    -0.669734411283E+03   -0.88634E-03   -0.76679E-03  8424   0.461E-03-0.429E-03
CGA:  22    -0.669734552607E+03   -0.14132E-03   -0.12670E-03  8424   0.146E-03-0.134E-03
CGA:  23    -0.669734770476E+03   -0.21787E-03    0.12868E-04  8424   0.304E-03-0.105E-03
CGA:  24    -0.669734821876E+03   -0.51400E-04   -0.42206E-04  8424   0.490E-04-0.349E-04
CGA:  25    -0.669734998388E+03   -0.17651E-03    0.19777E-05  8424   0.294E-04 0.597E-05
CGA:  26    -0.669735216452E+03   -0.21806E-03    0.85070E-06  8424   0.336E-04 0.198E-04
CGA:  27    -0.669735363110E+03   -0.14666E-03    0.14086E-05  8424   0.949E-04-0.152E-04
CGA:  28    -0.669735838080E+03   -0.47497E-03    0.93615E-06  8424   0.201E-03-0.671E-05
CGA:  29    -0.669736858609E+03   -0.10205E-02    0.60093E-05  8424   0.844E-03-0.206E-03
CGA:  30    -0.669737068237E+03   -0.20963E-03   -0.14799E-03  8424   0.339E-03-0.291E-03
CGA:  31    -0.669737092600E+03   -0.24363E-04   -0.14854E-03  8424   0.114E-02-0.426E-03
CGA:  32    -0.669737346512E+03   -0.25391E-03   -0.19236E-03  8424   0.396E-03-0.277E-03
CGA:  33    -0.669737454342E+03   -0.10783E-03   -0.99667E-04  8424   0.135E-03-0.170E-03
CGA:  34    -0.669737625711E+03   -0.17137E-03    0.74369E-05  8424   0.176E-03-0.423E-04
CGA:  35    -0.669737879960E+03   -0.25425E-03    0.12722E-04  8424   0.880E-04-0.484E-04
CGA:  36    -0.669738127162E+03   -0.24720E-03    0.29186E-05  8424   0.929E-04-0.118E-04
CGA:  37    -0.669738423252E+03   -0.29609E-03    0.39251E-05  8424   0.885E-04-0.263E-04
CGA:  38    -0.669738830243E+03   -0.40699E-03    0.16003E-05  8424   0.640E-04 0.609E-05
CGA:  39    -0.669739173822E+03   -0.34358E-03    0.22923E-05  8424   0.435E-04 0.602E-05
CGA:  40    -0.669739495291E+03   -0.32147E-03    0.11318E-05  8424   0.804E-04-0.136E-04
CGA:  41    -0.669740117663E+03   -0.62237E-03    0.75156E-06  8424   0.561E-04 0.276E-04
CGA:  42    -0.669740591681E+03   -0.47402E-03    0.19458E-05  8424   0.146E-03-0.172E-04
CGA:  43    -0.669741886724E+03   -0.12950E-02    0.12092E-05  8424   0.306E-03-0.123E-03
CGA:  44    -0.669741983112E+03   -0.96388E-04   -0.86962E-04  8424   0.173E-03-0.101E-03
CGA:  45    -0.669741993435E+03   -0.10323E-04   -0.13061E-04  8424   0.337E-04 0.106E-04
CGA:  46    -0.669741999355E+03   -0.59199E-05   -0.46322E-05  8424   0.154E-04-0.560E-05
  22 F= -.66974200E+03 E0= -.66974200E+03  d E =0.103158E+00  mag=     2.0000
       N       E                     dE             d eps       ncg     rms          ort
SDA:   1    -0.660826149845E+03    0.89158E+01    0.00000E+00  8424   0.281E+02 0.000E+00
CGA:   2    -0.666442347652E+03   -0.56162E+01   -0.56363E+01  8424   0.115E+02-0.484E-02
CGA:   3    -0.668916145871E+03   -0.24738E+01   -0.24707E+01  8424   0.373E+01 0.142E-02
CGA:   4    -0.669524126993E+03   -0.60798E+00   -0.60852E+00  8424   0.902E+00 0.530E-03
CGA:   5    -0.669679049123E+03   -0.15492E+00   -0.15514E+00  8424   0.187E+00 0.692E-03
CGA:   6    -0.669716497901E+03   -0.37449E-01   -0.37337E-01  8424   0.433E-01-0.922E-03
CGA:   7    -0.669725989200E+03   -0.94913E-02   -0.95027E-02  8424   0.126E-01 0.117E-03
CGA:   8    -0.669729167056E+03   -0.31779E-02   -0.31622E-02  8424   0.387E-02-0.273E-03
CGA:   9    -0.669730318939E+03   -0.11519E-02   -0.11514E-02  8424   0.162E-02-0.594E-03
CGA:  10    -0.669730811026E+03   -0.49209E-03   -0.55511E-03  8424   0.126E-02-0.628E-03
CGA:  11    -0.669729004996E+03    0.18060E-02   -0.89499E-03  8424   0.134E-01-0.318E-02
CGA:  12    -0.669731191961E+03   -0.21870E-02   -0.22470E-02  8424   0.188E-02 0.322E-03
CGA:  13    -0.669731964226E+03   -0.77226E-03   -0.83265E-03  8424   0.161E-02-0.686E-03
CGA:  14    -0.669732235992E+03   -0.27177E-03   -0.25710E-03  8424   0.688E-03-0.151E-03
CGA:  15    -0.669732320337E+03   -0.84345E-04   -0.47058E-03  8424   0.206E-02-0.941E-03
CGA:  16    -0.669732896828E+03   -0.57649E-03   -0.53397E-03  8424   0.604E-03-0.407E-03
CGA:  17    -0.669732994355E+03   -0.97527E-04   -0.93385E-04  8424   0.110E-03-0.251E-04
CGA:  18    -0.669733137286E+03   -0.14293E-03    0.19719E-04  8424   0.602E-04 0.145E-04
CGA:  19    -0.669733317633E+03   -0.18035E-03    0.42881E-05  8424   0.656E-04-0.300E-05
CGA:  20    -0.669733570574E+03   -0.25294E-03    0.22711E-05  8424   0.439E-04 0.215E-04
CGA:  21    -0.669733817949E+03   -0.24738E-03    0.20115E-05  8424   0.576E-04 0.102E-04
CGA:  22    -0.669734249207E+03   -0.43126E-03    0.16160E-05  8424   0.553E-04 0.320E-04
CGA:  23    -0.669734342021E+03   -0.92814E-04    0.69334E-05  8424   0.335E-04-0.125E-05
CGA:  24    -0.669734470090E+03   -0.12807E-03    0.12513E-05  8424   0.210E-04 0.132E-04
CGA:  25    -0.669734626724E+03   -0.15663E-03    0.77446E-06  8424   0.170E-04 0.170E-04
CGA:  26    -0.669734701102E+03   -0.74378E-04    0.56716E-06  8424   0.139E-04 0.475E-05
CGA:  27    -0.669734832856E+03   -0.13175E-03    0.32546E-06  8424   0.126E-04 0.146E-04
CGA:  28    -0.669734904412E+03   -0.71556E-04    0.30807E-06  8424   0.962E-05 0.686E-05
CGA:  29    -0.669734973153E+03   -0.68741E-04    0.18303E-06  8424   0.897E-05 0.736E-05
CGA:  30    -0.669735042263E+03   -0.69110E-04    0.15707E-06  8424   0.879E-05 0.726E-05
CGA:  31    -0.669735109001E+03   -0.66738E-04    0.15638E-06  8424   0.882E-05 0.690E-05
CGA:  32    -0.669735176020E+03   -0.67019E-04    0.15655E-06  8424   0.902E-05 0.637E-05
CGA:  33    -0.669735241192E+03   -0.65173E-04    0.16948E-06  8424   0.944E-05 0.567E-05
CGA:  34    -0.669735305752E+03   -0.64560E-04    0.18831E-06  8424   0.101E-04 0.473E-05
CGA:  35    -0.669735369721E+03   -0.63969E-04    0.22054E-06  8424   0.112E-04 0.351E-05
CGA:  36    -0.669735502570E+03   -0.13285E-03    0.22590E-06  8424   0.959E-05 0.146E-04
CGA:  37    -0.669735563492E+03   -0.60922E-04    0.20779E-06  8424   0.106E-04 0.294E-05
CGA:  38    -0.669735691610E+03   -0.12812E-03    0.19668E-06  8424   0.921E-05 0.134E-04
CGA:  39    -0.669735749000E+03   -0.57390E-04    0.20423E-06  8424   0.101E-04 0.233E-05
CGA:  40    -0.669735869785E+03   -0.12079E-03    0.17410E-06  8424   0.897E-05 0.122E-04
CGA:  41    -0.669735927176E+03   -0.57391E-04    0.19309E-06  8424   0.972E-05 0.168E-05
CGA:  42    -0.669736043482E+03   -0.11631E-03    0.15075E-06  8424   0.886E-05 0.112E-04
CGA:  43    -0.669736094163E+03   -0.50680E-04    0.21622E-06  8424   0.948E-05 0.100E-05
CGA:  44    -0.669736203405E+03   -0.10924E-03    0.13391E-06  8424   0.883E-05 0.102E-04
CGA:  45    -0.669736258146E+03   -0.54741E-04    0.19662E-06  8424   0.929E-05 0.335E-06
CGA:  46    -0.669736363183E+03   -0.10504E-03    0.11581E-06  8424   0.880E-05 0.934E-05
CGA:  47    -0.669736407390E+03   -0.44207E-04    0.24935E-06  8424   0.907E-05-0.247E-06
CGA:  48    -0.669736505514E+03   -0.98124E-04    0.10359E-06  8424   0.867E-05 0.852E-05
CGA:  49    -0.669736558165E+03   -0.52651E-04    0.19787E-06  8424   0.871E-05-0.637E-06
CGA:  50    -0.669736652286E+03   -0.94121E-04    0.90289E-07  8424   0.833E-05 0.776E-05
CGA:  51    -0.669736690758E+03   -0.38471E-04    0.26032E-06  8424   0.814E-05-0.740E-06
CGA:  52    -0.669736778634E+03   -0.87877E-04    0.81540E-07  8424   0.772E-05 0.708E-05
CGA:  53    -0.669736828987E+03   -0.50353E-04    0.16239E-06  8424   0.730E-05-0.514E-06
CGA:  54    -0.669736912711E+03   -0.83724E-04    0.72122E-07  8424   0.685E-05 0.644E-05
CGA:  55    -0.669736947085E+03   -0.34374E-04    0.19426E-06  8424   0.627E-05-0.413E-08
CGA:  56    -0.669737025947E+03   -0.78862E-04    0.64501E-07  8424   0.584E-05 0.585E-05
CGA:  57    -0.669737072765E+03   -0.46819E-04    0.97957E-07  8424   0.514E-05 0.658E-06
CGA:  58    -0.669737146783E+03   -0.74018E-04    0.57287E-07  8424   0.486E-05 0.529E-05
CGA:  59    -0.669737179386E+03   -0.32603E-04    0.99067E-07  8424   0.412E-05 0.128E-05
CGA:  60    -0.669737250305E+03   -0.70919E-04    0.49431E-07  8424   0.405E-05 0.481E-05
CGA:  61    -0.669737292078E+03   -0.41772E-04    0.51583E-07  8424   0.333E-05 0.172E-05
CGA:  62    -0.669737358186E+03   -0.66108E-04    0.44027E-07  8424   0.347E-05 0.440E-05
CGA:  63    -0.669737390514E+03   -0.32328E-04    0.49280E-07  8424   0.282E-05 0.192E-05
CGA:  64    -0.669737429057E+03   -0.38544E-04    0.26685E-07  8424   0.268E-05 0.209E-05
CGA:  65    -0.669737460553E+03   -0.31495E-04    0.29645E-07  8424   0.264E-05 0.206E-05
CGA:  66    -0.669737498172E+03   -0.37619E-04    0.23803E-07  8424   0.265E-05 0.198E-05
[...]
CGA:   4    -0.669067827587E+03   -0.19314E+00   -0.19324E+00  8424   0.278E+00 0.424E-03
CGA:   5    -0.669116581418E+03   -0.48754E-01   -0.48799E-01  8424   0.579E-01 0.518E-03
CGA:   6    -0.669128362976E+03   -0.11782E-01   -0.11759E-01  8424   0.138E-01-0.564E-03
CGA:   7    -0.669131353869E+03   -0.29909E-02   -0.29930E-02  8424   0.394E-02 0.909E-04
CGA:   8    -0.669132366966E+03   -0.10131E-02   -0.10140E-02  8424   0.126E-02-0.610E-04
CGA:   9    -0.669132751599E+03   -0.38463E-03   -0.40536E-03  8424   0.655E-03-0.241E-03
CGA:  10    -0.669132937455E+03   -0.18586E-03   -0.22169E-03  8424   0.506E-03-0.208E-03
CGA:  11    -0.669130994770E+03    0.19427E-02   -0.10461E-02  8424   0.110E-01-0.180E-02
CGA:  12    -0.669132846115E+03   -0.18513E-02   -0.19228E-02  8424   0.170E-02 0.245E-03
CGA:  13    -0.669133372987E+03   -0.52687E-03   -0.50627E-03  8424   0.789E-03-0.131E-03
CGA:  14    -0.669133564371E+03   -0.19138E-03   -0.19177E-03  8424   0.336E-03 0.173E-05
CGA:  15    -0.669133677525E+03   -0.11315E-03   -0.11527E-03  8424   0.143E-03 0.229E-04
CGA:  16    -0.669130964960E+03    0.27126E-02   -0.14749E-02  8424   0.200E-01-0.135E-02
CGA:  17    -0.669133130841E+03   -0.21659E-02   -0.25287E-02  8424   0.188E-02 0.700E-03
CGA:  18    -0.669133735679E+03   -0.60484E-03   -0.59085E-03  8424   0.588E-03-0.322E-04
CGA:  19    -0.669134019252E+03   -0.28357E-03   -0.22706E-03  8424   0.660E-03-0.170E-03
CGA:  20    -0.669134087436E+03   -0.68185E-04   -0.89660E-04  8424   0.228E-03 0.410E-04
CGA:  21    -0.669134113750E+03   -0.26314E-04   -0.43503E-04  8424   0.140E-03 0.338E-04
CGA:  22    -0.669134200945E+03   -0.87195E-04   -0.62916E-04  8424   0.123E-03-0.915E-04
CGA:  23    -0.669134246380E+03   -0.45435E-04   -0.36208E-04  8424   0.420E-04-0.266E-04
CGA:  24    -0.669133475961E+03    0.77042E-03   -0.41796E-03  8424   0.462E-02-0.265E-03
CGA:  25    -0.669134419150E+03   -0.94319E-03   -0.88970E-03  8424   0.465E-03-0.526E-04
CGA:  26    -0.669134528500E+03   -0.10935E-03   -0.11827E-03  8424   0.141E-03 0.104E-04
CGA:  27    -0.669134581444E+03   -0.52944E-04   -0.42714E-04  8424   0.349E-04-0.137E-04
CGA:  28    -0.669134607761E+03   -0.26317E-04   -0.21546E-04  8424   0.742E-04-0.146E-04
CGA:  29    -0.669134657053E+03   -0.49292E-04   -0.18627E-04  8424   0.104E-03-0.554E-04
CGA:  30    -0.669134665097E+03   -0.80435E-05   -0.18484E-04  8424   0.340E-04 0.132E-04
CGA:  31    -0.669134701361E+03   -0.36264E-04   -0.33937E-04  8424   0.143E-03-0.505E-04
CGA:  32    -0.669134715371E+03   -0.14010E-04   -0.26536E-04  8424   0.327E-04 0.169E-04
CGA:  33    -0.669134749900E+03   -0.34529E-04   -0.20296E-04  8424   0.901E-04-0.423E-04
CGA:  34    -0.669134749865E+03    0.34626E-07   -0.12110E-04  8424   0.158E-04 0.165E-04
  43 F= -.66913475E+03 E0= -.66913475E+03  d E =-.874404E-01  mag=     2.0000
       N       E                     dE             d eps       ncg     rms          ort
SDA:   1    -0.668834204100E+03    0.30055E+00    0.00000E+00  8424   0.752E+00 0.000E+00
CGA:   2    -0.669028768913E+03   -0.19456E+00   -0.19462E+00  8424   0.384E+00-0.101E-04
CGA:   3    -0.669099770601E+03   -0.71002E-01   -0.70967E-01  8424   0.890E-01 0.851E-04
CGA:   4    -0.669114170520E+03   -0.14400E-01   -0.14444E-01  8424   0.209E-01 0.675E-04
CGA:   5    -0.669117822149E+03   -0.36516E-02   -0.36825E-02  8424   0.447E-02 0.517E-04
CGA:   6    -0.669118711365E+03   -0.88922E-03   -0.89604E-03  8424   0.105E-02 0.130E-04
CGA:   7    -0.669118924591E+03   -0.21323E-03   -0.22909E-03  8424   0.306E-03 0.342E-04
CGA:   8    -0.669118986078E+03   -0.61488E-04   -0.75037E-04  8424   0.954E-04 0.324E-04
CGA:   9    -0.669118996898E+03   -0.10819E-04   -0.23266E-04  8424   0.351E-04 0.300E-04
CGA:  10    -0.669118992329E+03    0.45684E-05   -0.74830E-05  8424   0.188E-04 0.266E-04
  44 F= -.66911899E+03 E0= -.66911899E+03  d E =0.157575E-01  mag=     2.0000
       N       E                     dE             d eps       ncg     rms          ort
SDA:   1    -0.668677505126E+03    0.44149E+00    0.00000E+00  8424   0.101E+01 0.000E+00
CGA:   2    -0.668960218155E+03   -0.28271E+00   -0.28275E+00  8424   0.533E+00-0.954E-04
CGA:   3    -0.669056520970E+03   -0.96303E-01   -0.96305E-01  8424   0.116E+00 0.924E-04
CGA:   4    -0.669074986811E+03   -0.18466E-01   -0.18527E-01  8424   0.270E-01 0.161E-03
CGA:   5    -0.669079678897E+03   -0.46921E-02   -0.47347E-02  8424   0.563E-02 0.120E-03
CGA:   6    -0.669080820928E+03   -0.11420E-02   -0.11581E-02  8424   0.137E-02 0.540E-04
CGA:   7    -0.669081087057E+03   -0.26613E-03   -0.29006E-03  8424   0.374E-03 0.870E-04
CGA:   8    -0.669081151993E+03   -0.64936E-04   -0.85973E-04  8424   0.114E-03 0.824E-04
CGA:   9    -0.669081155909E+03   -0.39161E-05   -0.23327E-04  8424   0.496E-04 0.667E-04
  45 F= -.66908116E+03 E0= -.66908116E+03  d E =0.378364E-01  mag=     2.0000
       N       E                     dE             d eps       ncg     rms          ort
SDA:   1    -0.666614385767E+03    0.24668E+01    0.00000E+00  8424   0.578E+01 0.000E+00
CGA:   2    -0.668264532043E+03   -0.16501E+01   -0.16503E+01  8424   0.313E+01-0.122E-02
CGA:   3    -0.668828458750E+03   -0.56393E+00   -0.56385E+00  8424   0.661E+00 0.862E-03
CGA:   4    -0.668933472000E+03   -0.10501E+00   -0.10517E+00  8424   0.153E+00 0.672E-03
CGA:   5    -0.668960274790E+03   -0.26803E-01   -0.26886E-01  8424   0.321E-01 0.346E-03
CGA:   6    -0.668966995700E+03   -0.67209E-02   -0.67300E-02  8424   0.802E-02 0.481E-04
CGA:   7    -0.668968678959E+03   -0.16833E-02   -0.17144E-02  8424   0.223E-02 0.191E-03
CGA:   8    -0.668969222780E+03   -0.54382E-03   -0.56474E-03  8424   0.712E-03 0.174E-03
CGA:   9    -0.668969382304E+03   -0.15952E-03   -0.18178E-03  8424   0.252E-03 0.178E-03
CGA:  10    -0.668969412416E+03   -0.30113E-04   -0.57962E-04  8424   0.119E-03 0.162E-03
CGA:  11    -0.668969413664E+03   -0.12482E-05   -0.17851E-04  8424   0.691E-04 0.842E-04
  46 F= -.66896941E+03 E0= -.66896941E+03  d E =0.111742E+00  mag=     2.0000
       N       E                     dE             d eps       ncg     rms          ort
SDA:   1    -0.658943167763E+03    0.10026E+02    0.00000E+00  8424   0.303E+02 0.000E+00
CGA:   2    -0.664971212646E+03   -0.60280E+01   -0.60461E+01  8424   0.128E+02 0.815E-02
CGA:   3    -0.667773140958E+03   -0.28019E+01   -0.27998E+01  8424   0.433E+01-0.278E-02
CGA:   4    -0.668477191505E+03   -0.70405E+00   -0.70447E+00  8424   0.968E+00 0.526E-03
CGA:   5    -0.668641707277E+03   -0.16452E+00   -0.16478E+00  8424   0.191E+00 0.129E-02
CGA:   6    -0.668680751848E+03   -0.39045E-01   -0.38949E-01  8424   0.458E-01-0.995E-03
CGA:   7    -0.668690758917E+03   -0.10007E-01   -0.10022E-01  8424   0.126E-01 0.188E-03
CGA:   8    -0.668694014249E+03   -0.32553E-02   -0.32420E-02  8424   0.390E-02-0.387E-03
CGA:   9    -0.668695199613E+03   -0.11854E-02   -0.12091E-02  8424   0.192E-02-0.792E-03
CGA:  10    -0.668695753503E+03   -0.55389E-03   -0.70149E-03  8424   0.193E-02-0.888E-03
CGA:  11    -0.668685023602E+03    0.10730E-01   -0.57999E-02  8424   0.581E-01-0.795E-02
CGA:  12    -0.668694456131E+03   -0.94325E-02   -0.97307E-02  8424   0.100E-01 0.734E-03
CGA:  13    -0.668697552167E+03   -0.30960E-02   -0.29291E-02  8424   0.469E-02-0.698E-03
CGA:  14    -0.668698941357E+03   -0.13892E-02   -0.12888E-02  8424   0.230E-02-0.458E-03
CGA:  15    -0.668699660179E+03   -0.71882E-03   -0.68111E-03  8424   0.123E-02-0.213E-03
CGA:  16    -0.668700213239E+03   -0.55306E-03   -0.55660E-03  8424   0.352E-02-0.147E-02
CGA:  17    -0.668700480196E+03   -0.26696E-03   -0.40275E-03  8424   0.320E-03 0.364E-03
CGA:  18    -0.668700649387E+03   -0.16919E-03   -0.17219E-03  8424   0.557E-03-0.256E-03
CGA:  19    -0.668700811612E+03   -0.16223E-03   -0.34220E-03  8424   0.445E-02-0.132E-02
CGA:  20    -0.668701094412E+03   -0.28280E-03   -0.50063E-03  8424   0.257E-03 0.589E-03
CGA:  21    -0.668701180170E+03   -0.85759E-04   -0.73252E-04  8424   0.132E-03-0.588E-04
CGA:  22    -0.668701551855E+03   -0.37168E-03    0.76353E-05  8424   0.416E-03-0.143E-03
CGA:  23    -0.668701567155E+03   -0.15300E-04   -0.51578E-04  8424   0.739E-04 0.110E-03
CGA:  24    -0.668701704984E+03   -0.13783E-03    0.29984E-04  8424   0.155E-03-0.576E-04
CGA:  25    -0.668702016014E+03   -0.31103E-03    0.26144E-04  8424   0.561E-03-0.205E-03
CGA:  26    -0.668702009316E+03    0.66972E-05   -0.51087E-04  8424   0.641E-04 0.166E-03
  47 F= -.66870201E+03 E0= -.66870201E+03  d E =0.267404E+00  mag=     2.0000
       N       E                     dE             d eps       ncg     rms          ort
SDA:   1    -0.665589320446E+03    0.31127E+01    0.00000E+00  8424   0.993E+01 0.000E+00
CGA:   2    -0.667634207741E+03   -0.20449E+01   -0.20502E+01  8424   0.426E+01-0.342E-02
CGA:   3    -0.668526741147E+03   -0.89253E+00   -0.89135E+00  8424   0.130E+01 0.336E-03
CGA:   4    -0.668740111702E+03   -0.21337E+00   -0.21350E+00  8424   0.308E+00 0.104E-03
CGA:   5    -0.668793711655E+03   -0.53600E-01   -0.53712E-01  8424   0.638E-01 0.381E-03
CGA:   6    -0.668806653957E+03   -0.12942E-01   -0.12884E-01  8424   0.150E-01-0.358E-03
CGA:   7    -0.668809891218E+03   -0.32373E-02   -0.32677E-02  8424   0.422E-02 0.219E-03
CGA:   8    -0.668810948982E+03   -0.10578E-02   -0.10646E-02  8424   0.127E-02 0.667E-04
CGA:   9    -0.668811324178E+03   -0.37520E-03   -0.37260E-03  8424   0.515E-03-0.462E-04
CGA:  10    -0.668811460719E+03   -0.13654E-03   -0.14073E-03  8424   0.218E-03 0.705E-04
CGA:  11    -0.668811550871E+03   -0.90152E-04   -0.89873E-04  8424   0.128E-03 0.110E-04
CGA:  12    -0.668811584263E+03   -0.33392E-04   -0.36875E-04  8424   0.778E-04 0.514E-04
CGA:  13    -0.668811600367E+03   -0.16104E-04   -0.24143E-04  8424   0.577E-04 0.683E-04
CGA:  14    -0.668811616647E+03   -0.16280E-04   -0.17289E-04  8424   0.378E-04 0.317E-04
CGA:  15    -0.668811616243E+03    0.40425E-06   -0.55929E-05  8424   0.320E-04 0.329E-04
  48 F= -.66881162E+03 E0= -.66881162E+03  d E =-.109607E+00  mag=     2.0000
       N       E                     dE             d eps       ncg     rms          ort
SDA:   1    -0.668347885800E+03    0.46373E+00    0.00000E+00  8424   0.128E+01 0.000E+00
CGA:   2    -0.668635432734E+03   -0.28755E+00   -0.28766E+00  8424   0.601E+00 0.589E-03
CGA:   3    -0.668755262356E+03   -0.11983E+00   -0.11974E+00  8424   0.167E+00-0.731E-03
CGA:   4    -0.668782312257E+03   -0.27050E-01   -0.27078E-01  8424   0.391E-01 0.175E-03
CGA:   5    -0.668789121607E+03   -0.68093E-02   -0.68359E-02  8424   0.813E-02 0.208E-03
CGA:   6    -0.668790783813E+03   -0.16622E-02   -0.16583E-02  8424   0.197E-02-0.453E-04
CGA:   7    -0.668791197940E+03   -0.41413E-03   -0.41996E-03  8424   0.574E-03 0.799E-04
CGA:   8    -0.668791345301E+03   -0.14736E-03   -0.14898E-03  8424   0.194E-03 0.477E-04
CGA:   9    -0.668791399779E+03   -0.54478E-04   -0.55226E-04  8424   0.881E-04 0.393E-04
CGA:  10    -0.668791415911E+03   -0.16132E-04   -0.21037E-04  8424   0.519E-04 0.594E-04
CGA:  11    -0.668791423246E+03   -0.73350E-05   -0.10130E-04  8424   0.311E-04 0.343E-04
  49 F= -.66879142E+03 E0= -.66879142E+03  d E =0.201930E-01  mag=     2.0000
       N       E                     dE             d eps       ncg     rms          ort
SDA:   1    -0.668588150941E+03    0.20326E+00    0.00000E+00  8424   0.422E+00 0.000E+00
CGA:   2    -0.668707079329E+03   -0.11893E+00   -0.11893E+00  8424   0.215E+00 0.651E-04
CGA:   3    -0.668745564596E+03   -0.38485E-01   -0.38474E-01  8424   0.489E-01-0.137E-03
CGA:   4    -0.668753492769E+03   -0.79282E-02   -0.79540E-02  8424   0.114E-01 0.249E-03
CGA:   5    -0.668755471478E+03   -0.19787E-02   -0.19927E-02  8424   0.234E-02 0.163E-03
CGA:   6    -0.668755958177E+03   -0.48670E-03   -0.48849E-03  8424   0.599E-03 0.364E-04
CGA:   7    -0.668756077192E+03   -0.11902E-03   -0.12311E-03  8424   0.176E-03 0.830E-04
CGA:   8    -0.668756115544E+03   -0.38352E-04   -0.41208E-04  8424   0.708E-04 0.660E-04
CGA:   9    -0.668756125185E+03   -0.96410E-05   -0.14960E-04  8424   0.421E-04 0.567E-04
  50 F= -.66875613E+03 E0= -.66875613E+03  d E =0.352981E-01  mag=     2.0000
       N       E                     dE             d eps       ncg     rms          ort
SDA:   1    -0.666728231906E+03    0.20279E+01    0.00000E+00  8424   0.460E+01 0.000E+00
CGA:   2    -0.668070779018E+03   -0.13425E+01   -0.13426E+01  8424   0.238E+01-0.185E-02
CGA:   3    -0.668494288067E+03   -0.42351E+00   -0.42349E+00  8424   0.517E+00-0.367E-03
CGA:   4    -0.668577826109E+03   -0.83538E-01   -0.83615E-01  8424   0.122E+00 0.101E-02
CGA:   5    -0.668598998904E+03   -0.21173E-01   -0.21206E-01  8424   0.249E-01 0.555E-03
CGA:   6    -0.668604260287E+03   -0.52614E-02   -0.52631E-02  8424   0.648E-02 0.884E-04
CGA:   7    -0.668605637359E+03   -0.13771E-02   -0.13810E-02  8424   0.181E-02 0.247E-03
CGA:   8    -0.668606103267E+03   -0.46591E-03   -0.46229E-03  8424   0.591E-03 0.197E-03
CGA:   9    -0.668606247399E+03   -0.14413E-03   -0.14546E-03  8424   0.223E-03 0.199E-03
CGA:  10    -0.668606283789E+03   -0.36390E-04   -0.47990E-04  8424   0.117E-03 0.172E-03
CGA:  11    -0.668606291853E+03   -0.80638E-05   -0.15916E-04  8424   0.745E-04 0.887E-04
  51 F= -.66860629E+03 E0= -.66860629E+03  d E =0.149833E+00  mag=     2.0000
       N       E                     dE             d eps       ncg     rms          ort
SDA:   1    -0.663224567124E+03    0.53817E+01    0.00000E+00  8424   0.159E+02 0.000E+00
CGA:   2    -0.666466669259E+03   -0.32421E+01   -0.32426E+01  8424   0.682E+01 0.270E-01
CGA:   3    -0.667905522621E+03   -0.14389E+01   -0.14388E+01  8424   0.221E+01-0.484E-02
CGA:   4    -0.668268997923E+03   -0.36348E+00   -0.36352E+00  8424   0.508E+00 0.374E-03
CGA:   5    -0.668357016513E+03   -0.88019E-01   -0.88083E-01  8424   0.102E+00 0.154E-02
CGA:   6    -0.668377576980E+03   -0.20560E-01   -0.20559E-01  8424   0.239E-01-0.208E-03
CGA:   7    -0.668382726426E+03   -0.51494E-02   -0.51443E-02  8424   0.649E-02 0.794E-03
CGA:   8    -0.668384305894E+03   -0.15795E-02   -0.15638E-02  8424   0.178E-02 0.657E-03
CGA:   9    -0.668384778297E+03   -0.47240E-03   -0.46341E-03  8424   0.577E-03 0.339E-03
CGA:  10    -0.668384880272E+03   -0.10197E-03   -0.11717E-03  8424   0.275E-03 0.365E-03
CGA:  11    -0.668384908838E+03   -0.28566E-04   -0.40691E-04  8424   0.160E-03 0.195E-03
CGA:  12    -0.668384914602E+03   -0.57645E-05   -0.18665E-04  8424   0.129E-03 0.143E-03
CGA:  13    -0.668384914067E+03    0.53474E-06   -0.12320E-04  8424   0.113E-03 0.120E-03
  52 F= -.66838491E+03 E0= -.66838491E+03  d E =0.221378E+00  mag=     2.0000
       N       E                     dE             d eps       ncg     rms          ort
SDA:   1    -0.666721017612E+03    0.16639E+01    0.00000E+00  8424   0.532E+01 0.000E+00
CGA:   2    -0.667808939847E+03   -0.10879E+01   -0.10878E+01  8424   0.223E+01 0.761E-02
CGA:   3    -0.668269965869E+03   -0.46103E+00   -0.46107E+00  8424   0.711E+00-0.284E-02
CGA:   4    -0.668387740562E+03   -0.11777E+00   -0.11780E+00  8424   0.171E+00 0.628E-03
CGA:   5    -0.668417787617E+03   -0.30047E-01   -0.30064E-01  8424   0.345E-01 0.102E-02
CGA:   6    -0.668424680915E+03   -0.68933E-02   -0.68929E-02  8424   0.794E-02 0.488E-04
CGA:   7    -0.668426351759E+03   -0.16708E-02   -0.16607E-02  8424   0.214E-02 0.562E-03
CGA:   8    -0.668426846035E+03   -0.49428E-03   -0.48514E-03  8424   0.579E-03 0.454E-03
CGA:   9    -0.668426960729E+03   -0.11469E-03   -0.12079E-03  8424   0.216E-03 0.293E-03
CGA:  10    -0.668426972121E+03   -0.11392E-04   -0.24298E-04  8424   0.135E-03 0.163E-03
CGA:  11    -0.668426971301E+03    0.82007E-06   -0.11569E-04  8424   0.111E-03 0.121E-03
  53 F= -.66842697E+03 E0= -.66842697E+03  d E =-.420572E-01  mag=     2.0000
       N       E                     dE             d eps       ncg     rms          ort
SDA:   1    -0.668134606614E+03    0.29237E+00    0.00000E+00  8424   0.776E+00 0.000E+00
CGA:   2    -0.668306672733E+03   -0.17207E+00   -0.17202E+00  8424   0.357E+00 0.990E-03
CGA:   3    -0.668376749875E+03   -0.70077E-01   -0.70083E-01  8424   0.102E+00-0.424E-03
CGA:   4    -0.668393580876E+03   -0.16831E-01   -0.16838E-01  8424   0.240E-01 0.435E-03
CGA:   5    -0.668397771158E+03   -0.41903E-02   -0.41935E-02  8424   0.488E-02 0.557E-03
CGA:   6    -0.668398716751E+03   -0.94559E-03   -0.94233E-03  8424   0.109E-02 0.341E-03
CGA:   7    -0.668398913237E+03   -0.19649E-03   -0.19926E-03  8424   0.310E-03 0.329E-03
CGA:   8    -0.668398949159E+03   -0.35922E-04   -0.49121E-04  8424   0.151E-03 0.230E-03
CGA:   9    -0.668398952569E+03   -0.34102E-05   -0.13709E-04  8424   0.102E-03 0.120E-03
  54 F= -.66839895E+03 E0= -.66839895E+03  d E =0.280187E-01  mag=     2.0000
       N       E                     dE             d eps       ncg     rms          ort
SDA:   1    -0.668244631498E+03    0.15432E+00    0.00000E+00  8424   0.303E+00 0.000E+00
CGA:   2    -0.668321451171E+03   -0.76820E-01   -0.76747E-01  8424   0.144E+00 0.800E-03
CGA:   3    -0.668348987178E+03   -0.27536E-01   -0.27543E-01  8424   0.369E-01-0.383E-03
CGA:   4    -0.668355016673E+03   -0.60295E-02   -0.60336E-02  8424   0.877E-02 0.498E-03
CGA:   5    -0.668356496555E+03   -0.14799E-02   -0.14823E-02  8424   0.166E-02 0.499E-03
CGA:   6    -0.668356813408E+03   -0.31685E-03   -0.31469E-03  8424   0.402E-03 0.290E-03
CGA:   7    -0.668356862093E+03   -0.48684E-04   -0.59584E-04  8424   0.161E-03 0.239E-03
CGA:   8    -0.668356866078E+03   -0.39858E-05   -0.14173E-04  8424   0.105E-03 0.125E-03
  55 F= -.66835687E+03 E0= -.66835687E+03  d E =0.420865E-01  mag=     2.0000
       N       E                     dE             d eps       ncg     rms          ort
SDA:   1    -0.667684467354E+03    0.67239E+00    0.00000E+00  8424   0.134E+01 0.000E+00
CGA:   2    -0.668088894011E+03   -0.40443E+00   -0.40430E+00  8424   0.643E+00 0.659E-03
CGA:   3    -0.668200706880E+03   -0.11181E+00   -0.11182E+00  8424   0.143E+00-0.102E-02
CGA:   4    -0.668224742580E+03   -0.24036E-01   -0.24036E-01  8424   0.352E-01 0.957E-03
CGA:   5    -0.668230817682E+03   -0.60751E-02   -0.60728E-02  8424   0.703E-02 0.627E-03
CGA:   6    -0.668232293084E+03   -0.14754E-02   -0.14670E-02  8424   0.186E-02 0.226E-03
CGA:   7    -0.668232652503E+03   -0.35942E-03   -0.35378E-03  8424   0.499E-03 0.399E-03
CGA:   8    -0.668232747639E+03   -0.95136E-04   -0.97723E-04  8424   0.210E-03 0.271E-03
CGA:   9    -0.668232768534E+03   -0.20895E-04   -0.26890E-04  8424   0.121E-03 0.143E-03
CGA:  10    -0.668232769296E+03   -0.76249E-06   -0.10054E-04  8424   0.102E-03 0.110E-03
  56 F= -.66823277E+03 E0= -.66823277E+03  d E =0.124097E+00  mag=     2.0000
       N       E                     dE             d eps       ncg     rms          ort
SDA:   1    -0.665625226502E+03    0.26075E+01    0.00000E+00  8424   0.740E+01 0.000E+00
CGA:   2    -0.667183152370E+03   -0.15579E+01   -0.15571E+01  8424   0.324E+01 0.141E-01
CGA:   3    -0.667846903410E+03   -0.66375E+00   -0.66383E+00  8424   0.100E+01-0.230E-02
CGA:   4    -0.668012286756E+03   -0.16538E+00   -0.16538E+00  8424   0.235E+00 0.622E-03
CGA:   5    -0.668053591307E+03   -0.41305E-01   -0.41292E-01  8424   0.483E-01 0.972E-03
CGA:   6    -0.668063318271E+03   -0.97270E-02   -0.97332E-02  8424   0.114E-01-0.183E-03
CGA:   7    -0.668065729733E+03   -0.24115E-02   -0.23791E-02  8424   0.302E-02 0.742E-03
CGA:   8    -0.668066445462E+03   -0.71573E-03   -0.68562E-03  8424   0.838E-03 0.680E-03
CGA:   9    -0.668066637652E+03   -0.19219E-03   -0.18750E-03  8424   0.312E-03 0.395E-03
CGA:  10    -0.668066677987E+03   -0.40335E-04   -0.55454E-04  8424   0.185E-03 0.299E-03
CGA:  11    -0.668066683498E+03   -0.55111E-05   -0.17391E-04  8424   0.140E-03 0.158E-03
CGA:  12    -0.668066683572E+03   -0.74120E-07   -0.11101E-04  8424   0.120E-03 0.129E-03
