       N       E                     dE             d eps       ncg     rms          rms(c)
DAV:   1     0.114489968490E+05    0.11449E+05   -0.42222E+05105270   0.155E+03
DAV:   2     0.722350329240E+03   -0.10727E+05   -0.97455E+04102500   0.466E+02
DAV:   3    -0.846186432590E+03   -0.15685E+04   -0.14844E+04109760   0.188E+02
DAV:   4    -0.928261388100E+03   -0.82075E+02   -0.80980E+02117670   0.438E+01
DAV:   5    -0.929313891669E+03   -0.10525E+01   -0.10497E+01112530   0.546E+00    0.139E+02
DAV:   6    -0.755681705045E+03    0.17363E+03   -0.87609E+02126610   0.733E+01    0.113E+02
DAV:   7    -0.788725621996E+03   -0.33044E+02   -0.31027E+02115080   0.510E+01    0.829E+01
DAV:   8    -0.791315520404E+03   -0.25899E+01   -0.44071E+01123380   0.198E+01    0.903E+01
DAV:   9    -0.768419365428E+03    0.22896E+02   -0.43047E+01114020   0.293E+01    0.493E+01
DAV:  10    -0.779813877522E+03   -0.11395E+02   -0.20598E+01121150   0.863E+00    0.267E+01
DAV:  11    -0.783574233127E+03   -0.37604E+01   -0.40760E+00112690   0.531E+00    0.186E+01
DAV:  12    -0.784910499150E+03   -0.13363E+01   -0.33261E+00114310   0.304E+00    0.150E+01
DAV:  13    -0.785102438787E+03   -0.19194E+00   -0.12164E+00121960   0.206E+00    0.114E+01
DAV:  14    -0.784826074046E+03    0.27636E+00   -0.38112E-01119290   0.211E+00    0.797E+00
DAV:  15    -0.784484419461E+03    0.34165E+00   -0.14329E-01132200   0.154E+00    0.547E+00
DAV:  16    -0.784339675079E+03    0.14474E+00   -0.88691E-02135290   0.960E-01    0.447E+00
DAV:  17    -0.784178794332E+03    0.16088E+00   -0.21625E-02170400   0.143E+00    0.308E+00
DAV:  18    -0.784102940566E+03    0.75854E-01   -0.61130E-02130590   0.135E+00    0.454E+00
DAV:  19    -0.784111620437E+03   -0.86799E-02   -0.10074E-01107660   0.486E-01    0.368E+00
DAV:  20    -0.784111380657E+03    0.23978E-03   -0.94962E-04115860   0.782E-02    0.306E+00
DAV:  21    -0.784131525098E+03   -0.20144E-01   -0.58453E-03128240   0.339E-01    0.758E+00
DAV:  22    -0.784123449020E+03    0.80761E-02   -0.29187E-03107460   0.137E-01    0.653E+00
DAV:  23    -0.784133396158E+03   -0.99471E-02   -0.26251E-03138830   0.167E-01    0.716E+00
DAV:  24    -0.784137926397E+03   -0.45302E-02   -0.95058E-03146320   0.295E-01    0.527E+00
DAV:  25    -0.784140244897E+03   -0.23185E-02   -0.42724E-03107770   0.877E-02    0.515E+00
DAV:  26    -0.784141049001E+03   -0.80410E-03   -0.65635E-05116490   0.329E-02    0.501E+00
DAV:  27    -0.784145369389E+03   -0.43204E-02   -0.35276E-04126290   0.560E-02    0.538E+00
DAV:  28    -0.784141709747E+03    0.36596E-02   -0.16595E-03131750   0.169E-01    0.602E+00
DAV:  29    -0.784139222104E+03    0.24876E-02   -0.80638E-04124070   0.602E-02    0.608E+00
DAV:  30    -0.784136548649E+03    0.26735E-02   -0.11402E-03130410   0.926E-02    0.612E+00
DAV:  31    -0.784137270008E+03   -0.72136E-03   -0.64808E-04126720   0.734E-02    0.655E+00
DAV:  32    -0.784146404574E+03   -0.91346E-02   -0.34534E-03135600   0.179E-01    0.723E+00
DAV:  33    -0.784142459795E+03    0.39448E-02   -0.17883E-03126120   0.131E-01    0.665E+00
DAV:  34    -0.784167045526E+03   -0.24586E-01   -0.39088E-02133770   0.640E-01    0.652E+00
DAV:  35    -0.784168358357E+03   -0.13128E-02   -0.81114E-03107680   0.138E-01    0.667E+00
DAV:  36    -0.784171092946E+03   -0.27346E-02   -0.85003E-04134780   0.767E-02    0.683E+00
DAV:  37    -0.784178831418E+03   -0.77385E-02   -0.94027E-03131220   0.499E-01    0.556E+00
DAV:  38    -0.784184703537E+03   -0.58721E-02   -0.16348E-02131310   0.598E-01    0.357E+00
DAV:  39    -0.784186737440E+03   -0.20339E-02   -0.17849E-02132680   0.313E-01    0.269E+00
DAV:  40    -0.784184472821E+03    0.22646E-02   -0.95591E-03114640   0.223E-01    0.244E+00
DAV:  41    -0.784186530057E+03   -0.20572E-02   -0.35018E-03122840   0.333E-01    0.236E+00
DAV:  42    -0.784184693175E+03    0.18369E-02   -0.26628E-03129770   0.157E-01    0.157E+00
DAV:  43    -0.784183214266E+03    0.14789E-02   -0.39100E-03122370   0.108E-01    0.808E-01
DAV:  44    -0.784183465645E+03   -0.25138E-03   -0.48973E-04105840   0.462E-02    0.730E-01
DAV:  45    -0.784183472783E+03   -0.71374E-05   -0.14066E-04107850   0.219E-02    0.582E-01
DAV:  46    -0.784183362230E+03    0.11055E-03   -0.12412E-04115700   0.462E-02    0.377E-01
DAV:  47    -0.784183334780E+03    0.27450E-04   -0.30324E-04124620   0.471E-02    0.213E-01
DAV:  48    -0.784183254447E+03    0.80332E-04   -0.28973E-04132620   0.545E-02    0.122E-01
DAV:  49    -0.784183282132E+03   -0.27684E-04   -0.11292E-04103470   0.238E-02    0.103E-01
DAV:  50    -0.784183280779E+03    0.13532E-05   -0.13051E-05 68800   0.982E-03
   1 F= -.78418328E+03 E0= -.78417014E+03  d E =-.784183E+03  mag=   112.6062
       N       E                     dE             d eps       ncg     rms          rms(c)
DAV:   1    -0.784191021114E+03   -0.77390E-02   -0.20340E-02127400   0.474E-01    0.179E-01
DAV:   2    -0.784191343124E+03   -0.32201E-03   -0.31494E-03114900   0.115E-01    0.275E-01
DAV:   3    -0.784191358670E+03   -0.15547E-04   -0.52568E-04111970   0.610E-02    0.189E-01
DAV:   4    -0.784191355454E+03    0.32161E-05   -0.31318E-05 86850   0.141E-02
   2 F= -.78419136E+03 E0= -.78417824E+03  d E =-.807468E-02  mag=   112.6032
       N       E                     dE             d eps       ncg     rms          rms(c)
DAV:   1    -0.784229770178E+03   -0.38412E-01   -0.93310E-01126860   0.318E+00    0.113E+00
DAV:   2    -0.784243991749E+03   -0.14222E-01   -0.14109E-01114080   0.744E-01    0.170E+00
DAV:   3    -0.784244789599E+03   -0.79785E-03   -0.23451E-02111720   0.389E-01    0.113E+00
DAV:   4    -0.784244621616E+03    0.16798E-03   -0.11306E-03119400   0.895E-02    0.712E-01
DAV:   5    -0.784244463088E+03    0.15853E-03   -0.50774E-04131510   0.821E-02    0.394E-01
DAV:   6    -0.784244482164E+03   -0.19076E-04   -0.44545E-04120230   0.684E-02    0.153E-01
DAV:   7    -0.784244499959E+03   -0.17795E-04   -0.19059E-04109400   0.408E-02    0.108E-01
DAV:   8    -0.784244500101E+03   -0.14200E-06   -0.28295E-05 96800   0.162E-02
   3 F= -.78424450E+03 E0= -.78423156E+03  d E =-.531446E-01  mag=   112.5672
       N       E                     dE             d eps       ncg     rms          rms(c)
DAV:   1    -0.781372430522E+03    0.28721E+01   -0.22776E+02125230   0.470E+01    0.104E+01
DAV:   2    -0.784618034942E+03   -0.32456E+01   -0.30887E+01113640   0.903E+00    0.760E+00
DAV:   3    -0.784763058007E+03   -0.14502E+00   -0.12510E+00113000   0.266E+00    0.403E+00
DAV:   4    -0.784751718461E+03    0.11340E-01   -0.95471E-02117710   0.730E-01    0.214E+00
DAV:   5    -0.784739385659E+03    0.12333E-01   -0.37584E-02122470   0.528E-01    0.130E+00
DAV:   6    -0.784739831975E+03   -0.44632E-03   -0.19348E-02120880   0.369E-01    0.635E-01
DAV:   7    -0.784740885640E+03   -0.10537E-02   -0.67511E-03112740   0.196E-01    0.320E-01
DAV:   8    -0.784740870887E+03    0.14753E-04   -0.87235E-04112930   0.813E-02    0.137E-01
DAV:   9    -0.784740834748E+03    0.36139E-04   -0.33339E-04125740   0.514E-02    0.752E-02
DAV:  10    -0.784740830525E+03    0.42226E-05   -0.12518E-04116720   0.289E-02    0.499E-02
DAV:  11    -0.784740836003E+03   -0.54778E-05   -0.48180E-05103610   0.164E-02
   4 F= -.78474084E+03 E0= -.78473205E+03  d E =-.496336E+00  mag=   112.0009
       N       E                     dE             d eps       ncg     rms          rms(c)
DAV:   1    -0.784352643173E+03    0.38819E+00   -0.34280E+01127110   0.210E+01    0.394E+00
DAV:   2    -0.784936118621E+03   -0.58348E+00   -0.53527E+00113450   0.379E+00    0.253E+00
DAV:   3    -0.784960087274E+03   -0.23969E-01   -0.18547E-01111160   0.964E-01    0.134E+00
DAV:   4    -0.784958645558E+03    0.14417E-02   -0.12691E-02119570   0.253E-01    0.736E-01
DAV:   5    -0.784956539454E+03    0.21061E-02   -0.35368E-03123630   0.174E-01    0.464E-01
DAV:   6    -0.784956266584E+03    0.27287E-03   -0.25720E-03128280   0.143E-01    0.183E-01
DAV:   7    -0.784956400744E+03   -0.13416E-03   -0.98093E-04111420   0.686E-02    0.951E-02
DAV:   8    -0.784956391220E+03    0.95234E-05   -0.74997E-05110470   0.267E-02
   5 F= -.78495639E+03 E0= -.78494986E+03  d E =-.215555E+00  mag=   112.0000
       N       E                     dE             d eps       ncg     rms          rms(c)
DAV:   1    -0.784861524244E+03    0.94876E-01   -0.20767E+01116180   0.122E+01    0.226E+00
DAV:   2    -0.785054057671E+03   -0.19253E+00   -0.18167E+00112740   0.231E+00    0.164E+00
DAV:   3    -0.785060001662E+03   -0.59440E-02   -0.61055E-02110470   0.598E-01    0.880E-01
DAV:   4    -0.785058995233E+03    0.10064E-02   -0.46026E-03120060   0.156E-01    0.478E-01
DAV:   5    -0.785057970973E+03    0.10243E-02   -0.19118E-03124860   0.122E-01    0.276E-01
DAV:   6    -0.785057996808E+03   -0.25835E-04   -0.13114E-03121750   0.785E-02    0.115E-01
DAV:   7    -0.785058028311E+03   -0.31503E-04   -0.29401E-04109850   0.400E-02    0.621E-02
DAV:   8    -0.785058021798E+03    0.65121E-05   -0.29207E-05 99940   0.165E-02
   6 F= -.78505802E+03 E0= -.78505309E+03  d E =-.101631E+00  mag=   112.0000
       N       E                     dE             d eps       ncg     rms          rms(c)
DAV:   1    -0.784615039365E+03    0.44299E+00   -0.86053E+01114440   0.208E+01    0.379E+00
DAV:   2    -0.785171563279E+03   -0.55652E+00   -0.54112E+00112340   0.397E+00    0.296E+00
DAV:   3    -0.785186174187E+03   -0.14611E-01   -0.18866E-01110010   0.110E+00    0.156E+00
DAV:   4    -0.785181780413E+03    0.43938E-02   -0.16764E-02119090   0.292E-01    0.803E-01
DAV:   5    -0.785178152266E+03    0.36281E-02   -0.74535E-03121600   0.223E-01    0.435E-01
DAV:   6    -0.785178375836E+03   -0.22357E-03   -0.45540E-03119100   0.130E-01    0.208E-01
DAV:   7    -0.785178458173E+03   -0.82337E-04   -0.83237E-04111450   0.589E-02    0.922E-02
DAV:   8    -0.785178447834E+03    0.10338E-04   -0.78060E-05109420   0.250E-02    0.548E-02
DAV:   9    -0.785178447576E+03    0.25817E-06   -0.45293E-05104910   0.173E-02
   7 F= -.78517845E+03 E0= -.78517597E+03  d E =-.120426E+00  mag=   112.0000
       N       E                     dE             d eps       ncg     rms          rms(c)
DAV:   1    -0.784775527574E+03    0.40292E+00   -0.63676E+01114700   0.189E+01    0.355E+00
DAV:   2    -0.785244255251E+03   -0.46873E+00   -0.44850E+00114160   0.364E+00    0.240E+00
DAV:   3    -0.785261662080E+03   -0.17407E-01   -0.15071E-01108000   0.858E-01    0.127E+00
DAV:   4    -0.785258510613E+03    0.31515E-02   -0.11388E-02123590   0.251E-01    0.703E-01
DAV:   5    -0.785256399345E+03    0.21113E-02   -0.64383E-03118090   0.225E-01    0.388E-01
DAV:   6    -0.785256722966E+03   -0.32362E-03   -0.33626E-03117480   0.150E-01    0.262E-01
DAV:   7    -0.785256795652E+03   -0.72686E-04   -0.90851E-04110510   0.704E-02    0.941E-02
DAV:   8    -0.785256788321E+03    0.73305E-05   -0.80719E-05115280   0.237E-02
   8 F= -.78525679E+03 E0= -.78525618E+03  d E =-.783407E-01  mag=   112.0000
       N       E                     dE             d eps       ncg     rms          rms(c)
DAV:   1    -0.784009298662E+03    0.12475E+01   -0.17865E+02112250   0.310E+01    0.523E+00
DAV:   2    -0.785357637276E+03   -0.13483E+01   -0.12684E+01112740   0.590E+00    0.314E+00
DAV:   3    -0.785383878802E+03   -0.26242E-01   -0.30052E-01109780   0.115E+00    0.174E+00
DAV:   4    -0.785376614251E+03    0.72646E-02   -0.27452E-02124670   0.362E-01    0.122E+00
DAV:   5    -0.785370984281E+03    0.56300E-02   -0.14736E-02119270   0.383E-01    0.732E-01
DAV:   6    -0.785371866782E+03   -0.88250E-03   -0.90045E-03121250   0.187E-01    0.285E-01
DAV:   7    -0.785372110859E+03   -0.24408E-03   -0.14876E-03112160   0.980E-02    0.169E-01
DAV:   8    -0.785372078046E+03    0.32813E-04   -0.21609E-04114360   0.455E-02    0.755E-02
DAV:   9    -0.785372071498E+03    0.65473E-05   -0.11663E-04113250   0.311E-02    0.387E-02
DAV:  10    -0.785372074493E+03   -0.29948E-05   -0.46247E-05106330   0.139E-02
   9 F= -.78537207E+03 E0= -.78537207E+03  d E =-.115286E+00  mag=   112.0000
       N       E                     dE             d eps       ncg     rms          rms(c)
DAV:   1    -0.785101066710E+03    0.27100E+00   -0.31112E+01120570   0.155E+01    0.254E+00
DAV:   2    -0.785415153678E+03   -0.31409E+00   -0.29490E+00110880   0.284E+00    0.152E+00
DAV:   3    -0.785424241118E+03   -0.90874E-02   -0.80505E-02109210   0.638E-01    0.839E-01
DAV:   4    -0.785422827021E+03    0.14141E-02   -0.60113E-03122900   0.176E-01    0.490E-01
DAV:   5    -0.785421049499E+03    0.17775E-02   -0.25544E-03120190   0.149E-01    0.287E-01
DAV:   6    -0.785420987238E+03    0.62260E-04   -0.19401E-03123060   0.995E-02    0.114E-01
DAV:   7    -0.785421052863E+03   -0.65624E-04   -0.49428E-04109660   0.453E-02    0.581E-02
DAV:   8    -0.785421052696E+03    0.16701E-06   -0.21390E-05 89030   0.157E-02
  10 F= -.78542105E+03 E0= -.78542105E+03  d E =-.489782E-01  mag=   112.0000
       N       E                     dE             d eps       ncg     rms          rms(c)
DAV:   1    -0.785169155479E+03    0.25190E+00   -0.22080E+01123980   0.138E+01    0.229E+00
DAV:   2    -0.785421247753E+03   -0.25209E+00   -0.23546E+00111330   0.249E+00    0.132E+00
DAV:   3    -0.785429636362E+03   -0.83886E-02   -0.63220E-02108700   0.562E-01    0.718E-01
DAV:   4    -0.785428608800E+03    0.10276E-02   -0.44806E-03122200   0.156E-01    0.428E-01
DAV:   5    -0.785427347228E+03    0.12616E-02   -0.18282E-03121860   0.139E-01    0.234E-01
DAV:   6    -0.785427343264E+03    0.39647E-05   -0.14621E-03120150   0.853E-02    0.984E-02
DAV:   7    -0.785427377949E+03   -0.34685E-04   -0.33008E-04111040   0.399E-02    0.500E-02
DAV:   8    -0.785427376937E+03    0.10126E-05   -0.15833E-05 77300   0.116E-02
  11 F= -.78542738E+03 E0= -.78542738E+03  d E =-.632424E-02  mag=   112.0000
       N       E                     dE             d eps       ncg     rms          rms(c)
DAV:   1    -0.785312560740E+03    0.11482E+00   -0.87172E+00123750   0.949E+00    0.161E+00
DAV:   2    -0.785439249901E+03   -0.12669E+00   -0.11668E+00112450   0.171E+00    0.905E-01
DAV:   3    -0.785442927527E+03   -0.36776E-02   -0.32430E-02111340   0.388E-01    0.491E-01
DAV:   4    -0.785442531440E+03    0.39609E-03   -0.23159E-03120180   0.107E-01    0.297E-01
DAV:   5    -0.785441945860E+03    0.58558E-03   -0.63896E-04123760   0.833E-02    0.174E-01
DAV:   6    -0.785441864750E+03    0.81110E-04   -0.64371E-04127850   0.689E-02    0.610E-02
DAV:   7    -0.785441888965E+03   -0.24215E-04   -0.21529E-04110850   0.308E-02    0.315E-02
DAV:   8    -0.785441889834E+03   -0.86948E-06   -0.10730E-05 66230   0.827E-03
  12 F= -.78544189E+03 E0= -.78544189E+03  d E =-.145129E-01  mag=   112.0000
       N       E                     dE             d eps       ncg     rms          rms(c)
DAV:   1    -0.785058556979E+03    0.38333E+00   -0.23608E+01125330   0.170E+01    0.291E+00
DAV:   2    -0.785454272563E+03   -0.39572E+00   -0.36369E+00111160   0.305E+00    0.168E+00
DAV:   3    -0.785466621736E+03   -0.12349E-01   -0.10543E-01111700   0.711E-01    0.893E-01
DAV:   4    -0.785465604847E+03    0.10169E-02   -0.76727E-03120700   0.184E-01    0.540E-01
DAV:   5    -0.785463914795E+03    0.16901E-02   -0.17113E-03126300   0.148E-01    0.319E-01
DAV:   6    -0.785463707652E+03    0.20714E-03   -0.18509E-03127040   0.121E-01    0.121E-01
DAV:   7    -0.785463787775E+03   -0.80124E-04   -0.62975E-04110630   0.513E-02    0.572E-02
DAV:   8    -0.785463791047E+03   -0.32716E-05   -0.24657E-05 95670   0.142E-02
  13 F= -.78546379E+03 E0= -.78546379E+03  d E =-.219012E-01  mag=   112.0000
       N       E                     dE             d eps       ncg     rms          rms(c)
DAV:   1    -0.784955667266E+03    0.50812E+00   -0.25730E+01129890   0.192E+01    0.340E+00
DAV:   2    -0.785465498336E+03   -0.50983E+00   -0.47003E+00112480   0.341E+00    0.179E+00
DAV:   3    -0.785482995238E+03   -0.17497E-01   -0.13100E-01112260   0.711E-01    0.859E-01
DAV:   4    -0.785481831325E+03    0.11639E-02   -0.85697E-03121410   0.165E-01    0.594E-01
DAV:   5    -0.785479854798E+03    0.19765E-02   -0.15929E-03133050   0.160E-01    0.353E-01
DAV:   6    -0.785479520337E+03    0.33446E-03   -0.22039E-03127990   0.147E-01    0.124E-01
DAV:   7    -0.785479618747E+03   -0.98410E-04   -0.89329E-04111570   0.625E-02    0.637E-02
DAV:   8    -0.785479618990E+03   -0.24286E-06   -0.42473E-05106070   0.181E-02
  14 F= -.78547962E+03 E0= -.78547962E+03  d E =-.158279E-01  mag=   112.0000
       N       E                     dE             d eps       ncg     rms          rms(c)
DAV:   1    -0.785074417584E+03    0.40520E+00   -0.25995E+01120490   0.167E+01    0.299E+00
DAV:   2    -0.785466263582E+03   -0.39185E+00   -0.36649E+00111990   0.310E+00    0.165E+00
DAV:   3    -0.785479039086E+03   -0.12776E-01   -0.10218E-01111300   0.714E-01    0.907E-01
DAV:   4    -0.785478066873E+03    0.97221E-03   -0.78099E-03120350   0.191E-01    0.554E-01
DAV:   5    -0.785476459869E+03    0.16070E-02   -0.21875E-03123000   0.156E-01    0.321E-01
DAV:   6    -0.785476387259E+03    0.72610E-04   -0.18843E-03126650   0.121E-01    0.128E-01
DAV:   7    -0.785476478959E+03   -0.91700E-04   -0.64339E-04111230   0.507E-02    0.590E-02
DAV:   8    -0.785476483978E+03   -0.50189E-05   -0.26264E-05 98980   0.155E-02
  15 F= -.78547648E+03 E0= -.78547648E+03  d E =0.313501E-02  mag=   112.0000
       N       E                     dE             d eps       ncg     rms          rms(c)
DAV:   1    -0.784814458480E+03    0.66202E+00   -0.27731E+01141820   0.221E+01    0.389E+00
DAV:   2    -0.785471802152E+03   -0.65734E+00   -0.59624E+00110680   0.376E+00    0.201E+00
DAV:   3    -0.785498035286E+03   -0.26233E-01   -0.17756E-01111680   0.814E-01    0.916E-01
DAV:   4    -0.785496781243E+03    0.12540E-02   -0.11099E-02120240   0.192E-01    0.642E-01
DAV:   5    -0.785494707685E+03    0.20736E-02   -0.17678E-03135000   0.166E-01    0.374E-01
DAV:   6    -0.785494379815E+03    0.32787E-03   -0.20744E-03130280   0.146E-01    0.143E-01
DAV:   7    -0.785494469954E+03   -0.90139E-04   -0.87236E-04112550   0.671E-02    0.717E-02
DAV:   8    -0.785494471961E+03   -0.20065E-05   -0.51337E-05108920   0.186E-02
  16 F= -.78549447E+03 E0= -.78549447E+03  d E =-.179880E-01  mag=   112.0000
       N       E                     dE             d eps       ncg     rms          rms(c)
DAV:   1    -0.784745818875E+03    0.74865E+00   -0.39936E+01132570   0.228E+01    0.391E+00
DAV:   2    -0.785434048666E+03   -0.68823E+00   -0.62913E+00112370   0.400E+00    0.206E+00
DAV:   3    -0.785456908996E+03   -0.22860E-01   -0.16695E-01112080   0.801E-01    0.930E-01
DAV:   4    -0.785454991078E+03    0.19179E-02   -0.10787E-02122540   0.201E-01    0.638E-01
DAV:   5    -0.785452525133E+03    0.24659E-02   -0.23351E-03133040   0.187E-01    0.353E-01
DAV:   6    -0.785452332333E+03    0.19280E-03   -0.27975E-03124700   0.144E-01    0.145E-01
DAV:   7    -0.785452438014E+03   -0.10568E-03   -0.90053E-04111710   0.647E-02    0.714E-02
DAV:   8    -0.785452440712E+03   -0.26986E-05   -0.39729E-05104850   0.178E-02
  17 F= -.78545244E+03 E0= -.78545244E+03  d E =0.420312E-01  mag=   112.0000
       N       E                     dE             d eps       ncg     rms          rms(c)
DAV:   1    -0.785199620279E+03    0.25282E+00   -0.11754E+01136070   0.140E+01    0.237E+00
DAV:   2    -0.785452362168E+03   -0.25274E+00   -0.23166E+00111700   0.244E+00    0.130E+00
DAV:   3    -0.785462034291E+03   -0.96721E-02   -0.71021E-02112990   0.554E-01    0.674E-01
DAV:   4    -0.785461452339E+03    0.58195E-03   -0.43572E-03120680   0.130E-01    0.430E-01
DAV:   5    -0.785460397734E+03    0.10546E-02   -0.94903E-04132450   0.116E-01    0.259E-01
DAV:   6    -0.785460174108E+03    0.22363E-03   -0.11370E-03127660   0.112E-01    0.112E-01
DAV:   7    -0.785460223880E+03   -0.49772E-04   -0.49835E-04112460   0.476E-02    0.457E-02
DAV:   8    -0.785460221418E+03    0.24616E-05   -0.22969E-05 89930   0.155E-02
  18 F= -.78546022E+03 E0= -.78546022E+03  d E =-.778071E-02  mag=   112.0000
       N       E                     dE             d eps       ncg     rms          rms(c)
DAV:   1    -0.785257357067E+03    0.20287E+00   -0.10310E+01135730   0.131E+01    0.228E+00
DAV:   2    -0.785481343858E+03   -0.22399E+00   -0.20453E+00112130   0.227E+00    0.113E+00
DAV:   3    -0.785489463504E+03   -0.81196E-02   -0.56704E-02111680   0.482E-01    0.529E-01
DAV:   4    -0.785489066758E+03    0.39675E-03   -0.37348E-03119840   0.115E-01    0.367E-01
DAV:   5    -0.785488404904E+03    0.66185E-03   -0.62971E-04129790   0.977E-02    0.224E-01
DAV:   6    -0.785488309923E+03    0.94981E-04   -0.78489E-04129130   0.933E-02    0.841E-02
DAV:   7    -0.785488351191E+03   -0.41267E-04   -0.33676E-04111880   0.405E-02    0.408E-02
DAV:   8    -0.785488353018E+03   -0.18272E-05   -0.14689E-05 76180   0.111E-02
  19 F= -.78548835E+03 E0= -.78548835E+03  d E =-.281316E-01  mag=   112.0000
       N       E                     dE             d eps       ncg     rms          rms(c)
DAV:   1    -0.785426273934E+03    0.62077E-01   -0.51617E+00120670   0.655E+00    0.102E+00
DAV:   2    -0.785479688250E+03   -0.53414E-01   -0.50376E-01111890   0.120E+00    0.632E-01
DAV:   3    -0.785481206319E+03   -0.15181E-02   -0.13819E-02110440   0.254E-01    0.337E-01
DAV:   4    -0.785480968676E+03    0.23764E-03   -0.95807E-04123210   0.657E-02    0.206E-01
DAV:   5    -0.785480684619E+03    0.28406E-03   -0.38495E-04122990   0.620E-02    0.124E-01
DAV:   6    -0.785480668773E+03    0.15846E-04   -0.33454E-04123520   0.452E-02    0.496E-02
DAV:   7    -0.785480679618E+03   -0.10846E-04   -0.97352E-05110340   0.228E-02    0.273E-02
DAV:   8    -0.785480679790E+03   -0.17154E-06   -0.52388E-06 59300   0.714E-03
  20 F= -.78548068E+03 E0= -.78548068E+03  d E =0.767323E-02  mag=   112.0000
       N       E                     dE             d eps       ncg     rms          rms(c)
DAV:   1    -0.785460936775E+03    0.19743E-01   -0.10819E+00130660   0.395E+00    0.658E-01
DAV:   2    -0.785480163436E+03   -0.19227E-01   -0.17700E-01112130   0.698E-01    0.347E-01
DAV:   3    -0.785480869219E+03   -0.70578E-03   -0.52489E-03111940   0.155E-01    0.175E-01
DAV:   4    -0.785480827864E+03    0.41355E-04   -0.35055E-04120800   0.386E-02    0.108E-01
DAV:   5    -0.785480763883E+03    0.63980E-04   -0.83031E-05112780   0.313E-02    0.657E-02
DAV:   6    -0.785480757279E+03    0.66040E-05   -0.73482E-05120880   0.263E-02
  21 F= -.78548076E+03 E0= -.78548076E+03  d E =-.774895E-04  mag=   112.0000
       N       E                     dE             d eps       ncg     rms          rms(c)
DAV:   1    -0.785473780327E+03    0.69836E-02   -0.11179E+00112140   0.268E+00    0.442E-01
DAV:   2    -0.785483685533E+03   -0.99052E-02   -0.94486E-02112970   0.505E-01    0.276E-01
DAV:   3    -0.785483888023E+03   -0.20249E-03   -0.23852E-03111410   0.111E-01    0.160E-01
DAV:   4    -0.785483839619E+03    0.48404E-04   -0.19007E-04121000   0.299E-02    0.972E-02
DAV:   5    -0.785483778720E+03    0.60899E-04   -0.78671E-05108910   0.286E-02    0.589E-02
DAV:   6    -0.785483775731E+03    0.29890E-05   -0.76598E-05114640   0.204E-02
  22 F= -.78548378E+03 E0= -.78548378E+03  d E =-.301845E-02  mag=   112.0000
       N       E                     dE             d eps       ncg     rms          rms(c)
DAV:   1    -0.785482166431E+03    0.16123E-02   -0.23705E-01126400   0.166E+00    0.281E-01
DAV:   2    -0.785485798034E+03   -0.36316E-02   -0.33612E-02113670   0.304E-01    0.145E-01
DAV:   3    -0.785485902574E+03   -0.10454E-03   -0.87963E-04112250   0.622E-02    0.743E-02
DAV:   4    -0.785485891508E+03    0.11066E-04   -0.62353E-05107410   0.160E-02    0.484E-02
DAV:   5    -0.785485874168E+03    0.17341E-04   -0.15559E-05 72970   0.153E-02    0.285E-02
DAV:   6    -0.785485872171E+03    0.19965E-05   -0.23650E-05 92910   0.124E-02
  23 F= -.78548587E+03 E0= -.78548587E+03  d E =-.209644E-02  mag=   112.0000
       N       E                     dE             d eps       ncg     rms          rms(c)
DAV:   1    -0.785466017917E+03    0.19856E-01   -0.10808E+00125980   0.394E+00    0.711E-01
DAV:   2    -0.785487432625E+03   -0.21415E-01   -0.19794E-01112290   0.713E-01    0.345E-01
DAV:   3    -0.785488226971E+03   -0.79435E-03   -0.55865E-03111440   0.149E-01    0.169E-01
DAV:   4    -0.785488190176E+03    0.36795E-04   -0.38509E-04120600   0.381E-02    0.118E-01
DAV:   5    -0.785488127976E+03    0.62200E-04   -0.76345E-05112440   0.315E-02    0.728E-02
DAV:   6    -0.785488120894E+03    0.70817E-05   -0.79632E-05124980   0.303E-02
  24 F= -.78548812E+03 E0= -.78548812E+03  d E =-.224872E-02  mag=   112.0000
       N       E                     dE             d eps       ncg     rms          rms(c)
DAV:   1    -0.785479240033E+03    0.88879E-02   -0.61608E-01128710   0.297E+00    0.527E-01
DAV:   2    -0.785490610874E+03   -0.11371E-01   -0.10407E-01113490   0.517E-01    0.270E-01
DAV:   3    -0.785491080558E+03   -0.46968E-03   -0.34517E-03111930   0.121E-01    0.140E-01
DAV:   4    -0.785491053393E+03    0.27166E-04   -0.23064E-04120130   0.327E-02    0.828E-02
DAV:   5    -0.785491014301E+03    0.39091E-04   -0.60768E-05109360   0.244E-02    0.499E-02
DAV:   6    -0.785491009750E+03    0.45511E-05   -0.44097E-05114680   0.206E-02
  25 F= -.78549101E+03 E0= -.78549101E+03  d E =-.288886E-02  mag=   112.0000
       N       E                     dE             d eps       ncg     rms          rms(c)
DAV:   1    -0.785490661779E+03    0.35252E-03   -0.11720E-01125150   0.117E+00    0.197E-01
DAV:   2    -0.785492470009E+03   -0.18082E-02   -0.16974E-02112110   0.215E-01    0.114E-01
DAV:   3    -0.785492530464E+03   -0.60455E-04   -0.49288E-04110450   0.460E-02    0.594E-02
DAV:   4    -0.785492524326E+03    0.61382E-05   -0.30153E-05 89040   0.109E-02
  26 F= -.78549252E+03 E0= -.78549252E+03  d E =-.151458E-02  mag=   112.0000
