       N       E                     dE             d eps       ncg     rms          ort
DAV:   1     0.112161991827E+05    0.11216E+05   -0.46658E+05  8540   0.170E+03
DAV:   2     0.185973950838E+02   -0.11198E+05   -0.10190E+05  8540   0.487E+02
DAV:   3    -0.160963051094E+04   -0.16282E+04   -0.15431E+04  8540   0.197E+02
DAV:   4    -0.169306890983E+04   -0.83438E+02   -0.82233E+02  8540   0.455E+01
DAV:   5    -0.169413681733E+04   -0.10679E+01   -0.10646E+01  8540   0.557E+00
SDA:   6    -0.805328272782E+03    0.88881E+03   -0.10646E+01  8540   0.299E+04 0.000E+00
CGA:   7    -0.122978085324E+04   -0.42445E+03   -0.42508E+03  8540   0.304E+03 0.335E+02
CGA:   8    -0.128796099177E+04   -0.58180E+02   -0.58177E+02  8540   0.751E+02 0.110E+01
CGA:   9    -0.131229867889E+04   -0.24338E+02   -0.24366E+02  8540   0.393E+02-0.228E+00
CGA:  10    -0.132102648399E+04   -0.87278E+01   -0.87441E+01  8540   0.106E+02-0.719E+00
CGA:  11    -0.132350206065E+04   -0.24756E+01   -0.24922E+01  8540   0.269E+01-0.513E+00
CGA:  12    -0.132414241079E+04   -0.64035E+00   -0.64819E+00  8540   0.780E+00-0.165E+00
CGA:  13    -0.132435271373E+04   -0.21030E+00   -0.21039E+00  8540   0.262E+00-0.205E-02
CGA:  14    -0.132443837237E+04   -0.85659E-01   -0.89241E-01  8540   0.116E+00-0.283E-01
CGA:  15    -0.132447389976E+04   -0.35527E-01   -0.52737E-01  8540   0.101E+00-0.600E-01
CGA:  16    -0.132450071986E+04   -0.26820E-01   -0.27234E-01  8540   0.310E-01-0.113E-01
CGA:  17    -0.132450890982E+04   -0.81900E-02   -0.11368E-01  8540   0.319E-01-0.179E-01
CGA:  18    -0.132451507394E+04   -0.61641E-02   -0.58883E-02  8540   0.586E-02-0.478E-02
CGA:  19    -0.132451502135E+04    0.52587E-04   -0.36875E-02  8540   0.233E-01-0.754E-02
CGA:  20    -0.132451972120E+04   -0.46998E-02   -0.43964E-02  8540   0.432E-02-0.402E-02
CGA:  21    -0.132452082698E+04   -0.11058E-02   -0.12125E-02  8540   0.137E-02-0.138E-02
CGA:  22    -0.132452173771E+04   -0.91073E-03    0.14691E-03  8540   0.383E-03 0.177E-03
CGA:  23    -0.132452232943E+04   -0.59172E-03    0.36621E-04  8540   0.122E-03 0.186E-03
CGA:  24    -0.132452278065E+04   -0.45122E-03    0.65131E-05  8540   0.931E-04 0.987E-04
CGA:  25    -0.132452303694E+04   -0.25629E-03    0.29583E-05  8540   0.666E-04 0.429E-04
CGA:  26    -0.132452335346E+04   -0.31652E-03    0.25248E-05  8540   0.386E-04 0.668E-04
CGA:  27    -0.132452345007E+04   -0.96609E-04    0.13867E-05  8540   0.274E-04 0.257E-04
CGA:  28    -0.132452358713E+04   -0.13706E-03    0.43215E-06  8540   0.226E-04 0.190E-04
CGA:  29    -0.132452367616E+04   -0.89025E-04    0.46698E-06  8540   0.193E-04 0.135E-04
CGA:  30    -0.132452377946E+04   -0.10330E-03    0.28166E-06  8540   0.172E-04 0.882E-05
CGA:  31    -0.132452393390E+04   -0.15444E-03    0.31473E-06  8540   0.872E-05 0.191E-04
CGA:  32    -0.132452398072E+04   -0.46821E-04    0.12722E-06  8540   0.755E-05 0.459E-05
CGA:  33    -0.132452404188E+04   -0.61159E-04    0.70553E-07  8540   0.681E-05 0.284E-05
CGA:  34    -0.132452413004E+04   -0.88157E-04    0.74684E-07  8540   0.355E-05 0.719E-05
CGA:  35    -0.132452415478E+04   -0.24748E-04    0.38864E-07  8540   0.313E-05 0.141E-05
CGA:  36    -0.132452421417E+04   -0.59389E-04    0.23752E-07  8540   0.167E-05 0.338E-05
CGA:  37    -0.132452424284E+04   -0.28669E-04    0.70963E-08  8540   0.146E-05 0.707E-06
CGA:  38    -0.132452428045E+04   -0.37610E-04    0.83823E-08  8540   0.793E-06 0.161E-05
CGA:  39    -0.132452429001E+04   -0.95596E-05    0.48690E-08  8540   0.683E-06 0.362E-06
   1 F= -.13245243E+04 E0= -.13245243E+04  d E =-.132452E+04  mag=   126.0000
       N       E                     dE             d eps       ncg     rms          ort
SDA:   1    -0.132452383069E+04    0.44977E-03    0.00000E+00  8540   0.550E-02 0.000E+00
CGA:   2    -0.132452518263E+04   -0.13519E-02   -0.13507E-02  8540   0.246E-02-0.624E-04
CGA:   3    -0.132452566638E+04   -0.48374E-03   -0.49217E-03  8540   0.489E-03 0.133E-03
CGA:   4    -0.132452576427E+04   -0.97892E-04   -0.10107E-03  8540   0.847E-04 0.484E-04
CGA:   5    -0.132452579194E+04   -0.27676E-04   -0.30494E-04  8540   0.582E-04-0.407E-04
CGA:   6    -0.132452578986E+04    0.20850E-05   -0.16501E-04  8540   0.124E-03-0.654E-04
CGA:   7    -0.132452580720E+04   -0.17337E-04   -0.19243E-04  8540   0.216E-04 0.157E-04
CGA:   8    -0.132452580785E+04   -0.65339E-06   -0.28887E-05  8540   0.964E-05 0.148E-04
   2 F= -.13245258E+04 E0= -.13245258E+04  d E =-.151784E-02  mag=   126.0000
       N       E                     dE             d eps       ncg     rms          ort
SDA:   1    -0.132449125286E+04    0.34554E-01    0.00000E+00  8540   0.111E+00 0.000E+00
CGA:   2    -0.132451827134E+04   -0.27018E-01   -0.27015E-01  8540   0.487E-01-0.319E-03
CGA:   3    -0.132452851587E+04   -0.10245E-01   -0.10279E-01  8540   0.104E-01 0.771E-03
CGA:   4    -0.132453067183E+04   -0.21560E-02   -0.21686E-02  8540   0.183E-02 0.265E-03
CGA:   5    -0.132453109484E+04   -0.42300E-03   -0.42117E-03  8540   0.458E-03-0.722E-04
CGA:   6    -0.132453121517E+04   -0.12033E-03   -0.12247E-03  8540   0.167E-03-0.733E-04
CGA:   7    -0.132453124134E+04   -0.26170E-04   -0.27421E-04  8540   0.399E-04 0.224E-04
CGA:   8    -0.132453124123E+04    0.11588E-06   -0.43021E-05  8540   0.198E-04 0.289E-04
   3 F= -.13245312E+04 E0= -.13245312E+04  d E =-.543338E-02  mag=   126.0000
       N       E                     dE             d eps       ncg     rms          ort
SDA:   1    -0.132166995815E+04    0.28613E+01    0.00000E+00  8540   0.773E+01 0.000E+00
CGA:   2    -0.132364460707E+04   -0.19746E+01   -0.19745E+01  8540   0.336E+01 0.101E-02
CGA:   3    -0.132434549632E+04   -0.70089E+00   -0.70113E+00  8540   0.730E+00 0.874E-02
CGA:   4    -0.132449719805E+04   -0.15170E+00   -0.15179E+00  8540   0.124E+00 0.337E-02
CGA:   5    -0.132452397379E+04   -0.26776E-01   -0.26770E-01  8540   0.286E-01-0.408E-03
CGA:   6    -0.132453108561E+04   -0.71118E-02   -0.71184E-02  8540   0.811E-02-0.335E-03
CGA:   7    -0.132453307296E+04   -0.19874E-02   -0.19809E-02  8540   0.227E-02 0.396E-03
CGA:   8    -0.132453360126E+04   -0.52830E-03   -0.53343E-03  8540   0.653E-03 0.668E-03
CGA:   9    -0.132453375662E+04   -0.15536E-03   -0.16727E-03  8540   0.255E-03 0.355E-03
CGA:  10    -0.132453383996E+04   -0.83340E-04   -0.77124E-04  8540   0.115E-03 0.849E-04
CGA:  11    -0.132453385913E+04   -0.19162E-04   -0.26001E-04  8540   0.619E-04 0.106E-03
CGA:  12    -0.132453386054E+04   -0.14184E-05   -0.72240E-05  8540   0.446E-04 0.512E-04
   4 F= -.13245339E+04 E0= -.13245339E+04  d E =-.261932E-02  mag=   126.0000
       N       E                     dE             d eps       ncg     rms          ort
SDA:   1    -0.132422288584E+04    0.31097E+00    0.00000E+00  8540   0.857E+00 0.000E+00
CGA:   2    -0.132444427067E+04   -0.22138E+00   -0.22129E+00  8540   0.369E+00 0.218E-02
CGA:   3    -0.132452259262E+04   -0.78322E-01   -0.78296E-01  8540   0.804E-01-0.311E-02
CGA:   4    -0.132453940484E+04   -0.16812E-01   -0.16803E-01  8540   0.141E-01-0.108E-02
CGA:   5    -0.132454225957E+04   -0.28547E-02   -0.28588E-02  8540   0.298E-02 0.298E-03
CGA:   6    -0.132454294132E+04   -0.68175E-03   -0.68025E-03  8540   0.736E-03 0.313E-03
CGA:   7    -0.132454318170E+04   -0.24038E-03   -0.24428E-03  8540   0.289E-03-0.481E-04
CGA:   8    -0.132454230199E+04    0.87971E-03   -0.47773E-03  8540   0.536E-02-0.109E-02
CGA:   9    -0.132454318906E+04   -0.88707E-03   -0.94958E-03  8540   0.596E-03 0.271E-03
CGA:  10    -0.132454333611E+04   -0.14705E-03   -0.16399E-03  8540   0.166E-03 0.127E-03
CGA:  11    -0.132454338005E+04   -0.43941E-04   -0.51996E-04  8540   0.538E-04 0.615E-04
CGA:  12    -0.132454341548E+04   -0.35433E-04   -0.40833E-04  8540   0.557E-04-0.314E-04
CGA:  13    -0.132454341853E+04   -0.30502E-05   -0.82134E-05  8540   0.111E-04 0.212E-04
   5 F= -.13245434E+04 E0= -.13245434E+04  d E =-.955799E-02  mag=   126.0000
       N       E                     dE             d eps       ncg     rms          ort
SDA:   1    -0.132451311974E+04    0.30296E-01    0.00000E+00  8540   0.857E-01 0.000E+00
CGA:   2    -0.132453452115E+04   -0.21401E-01   -0.21432E-01  8540   0.390E-01 0.245E-03
CGA:   3    -0.132454301768E+04   -0.84965E-02   -0.84244E-02  8540   0.842E-02-0.507E-03
CGA:   4    -0.132454479900E+04   -0.17813E-02   -0.17395E-02  8540   0.154E-02-0.295E-03
CGA:   5    -0.132454509142E+04   -0.29242E-03   -0.30126E-03  8540   0.315E-03 0.614E-04
CGA:   6    -0.132454514436E+04   -0.52935E-04   -0.63311E-04  8540   0.737E-04 0.715E-04
CGA:   7    -0.132454516528E+04   -0.20923E-04   -0.21981E-04  8540   0.247E-04 0.120E-04
CGA:   8    -0.132454518509E+04   -0.19804E-04    0.85884E-04  8540   0.117E-04-0.205E-05
CGA:   9    -0.132454519581E+04   -0.10723E-04    0.33363E-05  8540   0.483E-05-0.166E-05
CGA:  10    -0.132454515930E+04    0.36505E-04   -0.19675E-04  8540   0.156E-03-0.259E-04
CGA:  11    -0.132454520359E+04   -0.44283E-04   -0.39491E-04  8540   0.281E-04-0.140E-04
CGA:  12    -0.132454521003E+04   -0.64407E-05   -0.72416E-05  8540   0.602E-05 0.271E-05
   6 F= -.13245452E+04 E0= -.13245452E+04  d E =-.179149E-02  mag=   126.0000
       N       E                     dE             d eps       ncg     rms          ort
SDA:   1    -0.132442281975E+04    0.12238E+00    0.00000E+00  8540   0.325E+00 0.000E+00
CGA:   2    -0.132450893550E+04   -0.86116E-01   -0.86097E-01  8540   0.146E+00-0.752E-04
CGA:   3    -0.132453912587E+04   -0.30190E-01   -0.30150E-01  8540   0.307E-01-0.185E-03
CGA:   4    -0.132454542347E+04   -0.62976E-02   -0.62538E-02  8540   0.528E-02-0.143E-03
CGA:   5    -0.132454652999E+04   -0.11065E-02   -0.11154E-02  8540   0.122E-02 0.282E-04
CGA:   6    -0.132454680245E+04   -0.27246E-03   -0.28759E-03  8540   0.315E-03 0.577E-04
CGA:   7    -0.132454688623E+04   -0.83778E-04   -0.85302E-04  8540   0.951E-04 0.680E-05
CGA:   8    -0.132454691568E+04   -0.29452E-04   -0.29809E-04  8540   0.325E-04 0.218E-05
CGA:   9    -0.132454692408E+04   -0.84011E-05   -0.92480E-05  8540   0.915E-05 0.460E-05
   7 F= -.13245469E+04 E0= -.13245469E+04  d E =-.171405E-02  mag=   126.0000
       N       E                     dE             d eps       ncg     rms          ort
SDA:   1    -0.132440095028E+04    0.14597E+00    0.00000E+00  8540   0.382E+00 0.000E+00
CGA:   2    -0.132450514450E+04   -0.10419E+00   -0.10414E+00  8540   0.170E+00-0.360E-03
CGA:   3    -0.132453922226E+04   -0.34078E-01   -0.34169E-01  8540   0.346E-01 0.329E-03
CGA:   4    -0.132454632956E+04   -0.71073E-02   -0.71232E-02  8540   0.583E-02 0.660E-04
CGA:   5    -0.132454758999E+04   -0.12604E-02   -0.12581E-02  8540   0.141E-02-0.136E-04
CGA:   6    -0.132454792682E+04   -0.33683E-03   -0.33942E-03  8540   0.377E-03 0.156E-04
CGA:   7    -0.132454802277E+04   -0.95957E-04   -0.96940E-04  8540   0.113E-03 0.687E-05
CGA:   8    -0.132454804510E+04   -0.22328E-04   -0.26847E-04  8540   0.318E-04 0.291E-04
CGA:   9    -0.132454804934E+04   -0.42358E-05   -0.76158E-05  8540   0.122E-04 0.177E-04
   8 F= -.13245480E+04 E0= -.13245480E+04  d E =-.112526E-02  mag=   126.0000
       N       E                     dE             d eps       ncg     rms          ort
SDA:   1    -0.132379469708E+04    0.75335E+00    0.00000E+00  8540   0.200E+01 0.000E+00
CGA:   2    -0.132431341487E+04   -0.51872E+00   -0.51873E+00  8540   0.915E+00-0.555E-03
CGA:   3    -0.132450128233E+04   -0.18787E+00   -0.18813E+00  8540   0.186E+00 0.145E-02
CGA:   4    -0.132453919418E+04   -0.37912E-01   -0.38017E-01  8540   0.320E-01 0.652E-03
CGA:   5    -0.132454608880E+04   -0.68946E-02   -0.68922E-02  8540   0.774E-02-0.291E-04
CGA:   6    -0.132454797425E+04   -0.18855E-02   -0.18801E-02  8540   0.208E-02-0.564E-04
CGA:   7    -0.132454850318E+04   -0.52893E-03   -0.52888E-03  8540   0.613E-03-0.970E-06
CGA:   8    -0.132454865202E+04   -0.14884E-03   -0.15646E-03  8540   0.168E-03 0.980E-04
CGA:   9    -0.132454869586E+04   -0.43837E-04   -0.48164E-04  8540   0.534E-04 0.531E-04
CGA:  10    -0.132454871860E+04   -0.22739E-04   -0.22749E-04  8540   0.227E-04 0.773E-05
CGA:  11    -0.132454872783E+04   -0.92306E-05   -0.92411E-05  8540   0.862E-05-0.354E-06
   9 F= -.13245487E+04 E0= -.13245487E+04  d E =-.678494E-03  mag=   126.0000
       N       E                     dE             d eps       ncg     rms          ort
SDA:   1    -0.132446419180E+04    0.84527E-01    0.00000E+00  8540   0.235E+00 0.000E+00
CGA:   2    -0.132452056188E+04   -0.56370E-01   -0.56396E-01  8540   0.107E+00 0.235E-03
CGA:   3    -0.132454406090E+04   -0.23499E-01   -0.23470E-01  8540   0.226E-01-0.345E-03
CGA:   4    -0.132454875034E+04   -0.46894E-02   -0.46760E-02  8540   0.408E-02-0.136E-03
CGA:   5    -0.132454960535E+04   -0.85501E-03   -0.85774E-03  8540   0.954E-03 0.285E-04
CGA:   6    -0.132454983898E+04   -0.23363E-03   -0.23349E-03  8540   0.260E-03-0.281E-05
CGA:   7    -0.132454990845E+04   -0.69476E-04   -0.69342E-04  8540   0.804E-04-0.470E-05
CGA:   8    -0.132454993732E+04   -0.28863E-04   -0.36682E-04  8540   0.777E-04-0.460E-04
CGA:   9    -0.132454995043E+04   -0.13111E-04   -0.13901E-04  8540   0.899E-05 0.633E-05
CGA:  10    -0.132454995161E+04   -0.11835E-05   -0.17073E-05  8540   0.278E-05 0.431E-05
  10 F= -.13245500E+04 E0= -.13245500E+04  d E =-.122378E-02  mag=   126.0000
       N       E                     dE             d eps       ncg     rms          ort
SDA:   1    -0.132448623328E+04    0.63717E-01    0.00000E+00  8540   0.166E+00 0.000E+00
CGA:   2    -0.132453088189E+04   -0.44649E-01   -0.44654E-01  8540   0.737E-01 0.271E-03
CGA:   3    -0.132454597378E+04   -0.15092E-01   -0.15051E-01  8540   0.154E-01-0.513E-03
CGA:   4    -0.132454913967E+04   -0.31659E-02   -0.31564E-02  8540   0.260E-02-0.131E-03
CGA:   5    -0.132454967453E+04   -0.53485E-03   -0.53771E-03  8540   0.600E-03 0.411E-04
CGA:   6    -0.132454982303E+04   -0.14850E-03   -0.14877E-03  8540   0.161E-03 0.895E-05
CGA:   7    -0.132454986501E+04   -0.41977E-04   -0.42007E-04  8540   0.490E-04 0.214E-05
CGA:   8    -0.132454985715E+04    0.78571E-05   -0.42254E-04  8540   0.236E-03-0.865E-04
CGA:   9    -0.132454989736E+04   -0.40209E-04   -0.42194E-04  8540   0.235E-04 0.164E-04
CGA:  10    -0.132454989989E+04   -0.25286E-05   -0.40089E-05  8540   0.647E-05 0.110E-04
  11 F= -.13245499E+04 E0= -.13245499E+04  d E =0.517227E-04  mag=   126.0000
       N       E                     dE             d eps       ncg     rms          ort
SDA:   1    -0.132452111154E+04    0.28786E-01    0.00000E+00  8540   0.776E-01 0.000E+00
CGA:   2    -0.132454070642E+04   -0.19595E-01   -0.19599E-01  8540   0.372E-01 0.135E-03
CGA:   3    -0.132454856251E+04   -0.78561E-02   -0.78541E-02  8540   0.716E-02-0.355E-04
CGA:   4    -0.132455000018E+04   -0.14377E-02   -0.14414E-02  8540   0.124E-02 0.512E-04
CGA:   5    -0.132455026902E+04   -0.26885E-03   -0.27073E-03  8540   0.288E-03 0.348E-04
CGA:   6    -0.132455033944E+04   -0.70421E-04   -0.70580E-04  8540   0.754E-04 0.540E-05
CGA:   7    -0.132455035913E+04   -0.19684E-04   -0.19706E-04  8540   0.223E-04 0.233E-05
CGA:   8    -0.132455036615E+04   -0.70254E-05   -0.70273E-05  8540   0.772E-05-0.561E-07
  12 F= -.13245504E+04 E0= -.13245504E+04  d E =-.466267E-03  mag=   126.0000
       N       E                     dE             d eps       ncg     rms          ort
SDA:   1    -0.132441289362E+04    0.13747E+00    0.00000E+00  8540   0.362E+00 0.000E+00
CGA:   2    -0.132450554336E+04   -0.92650E-01   -0.92654E-01  8540   0.173E+00 0.307E-03
CGA:   3    -0.132454179281E+04   -0.36249E-01   -0.36249E-01  8540   0.339E-01-0.152E-04
CGA:   4    -0.132454861688E+04   -0.68241E-02   -0.68298E-02  8540   0.577E-02 0.883E-04
CGA:   5    -0.132454988895E+04   -0.12721E-02   -0.12749E-02  8540   0.138E-02 0.681E-04
CGA:   6    -0.132455022440E+04   -0.33545E-03   -0.33548E-03  8540   0.365E-03 0.101E-05
CGA:   7    -0.132455032076E+04   -0.96360E-04   -0.96411E-04  8540   0.113E-03-0.776E-05
CGA:   8    -0.132455035293E+04   -0.32166E-04   -0.32112E-04  8540   0.360E-04 0.163E-05
CGA:   9    -0.132455036347E+04   -0.10539E-04   -0.10435E-04  8540   0.103E-04 0.393E-05
CGA:  10    -0.132455037000E+04   -0.65383E-05    0.14399E-04  8540   0.300E-05 0.284E-05
  13 F= -.13245504E+04 E0= -.13245504E+04  d E =-.384975E-05  mag=   126.0000
       N       E                     dE             d eps       ncg     rms          ort
SDA:   1    -0.132438277843E+04    0.16759E+00    0.00000E+00  8540   0.387E+00 0.000E+00
CGA:   2    -0.132451530920E+04   -0.13253E+00   -0.13260E+00  8540   0.156E+00-0.872E-03
CGA:   3    -0.132454296419E+04   -0.27655E-01   -0.27679E-01  8540   0.257E-01 0.224E-03
CGA:   4    -0.132454840349E+04   -0.54393E-02   -0.54494E-02  8540   0.467E-02 0.205E-03
CGA:   5    -0.132454943572E+04   -0.10322E-02   -0.10318E-02  8540   0.112E-02-0.120E-04
CGA:   6    -0.132454971395E+04   -0.27823E-03   -0.27798E-03  8540   0.309E-03-0.356E-04
CGA:   7    -0.132454979148E+04   -0.77527E-04   -0.77507E-04  8540   0.980E-04 0.493E-05
CGA:   8    -0.132454981577E+04   -0.24296E-04   -0.24512E-04  8540   0.289E-04 0.233E-04
CGA:   9    -0.132454982484E+04   -0.90666E-05   -0.90785E-05  8540   0.999E-05 0.101E-04
  14 F= -.13245498E+04 E0= -.13245498E+04  d E =0.545164E-03  mag=   126.0000
       N       E                     dE             d eps       ncg     rms          ort
SDA:   1    -0.132446305316E+04    0.86763E-01    0.00000E+00  8540   0.234E+00 0.000E+00
CGA:   2    -0.132452134042E+04   -0.58287E-01   -0.58294E-01  8540   0.111E+00 0.177E-03
CGA:   3    -0.132454507157E+04   -0.23731E-01   -0.23731E-01  8540   0.222E-01-0.253E-04
CGA:   4    -0.132454959575E+04   -0.45242E-02   -0.45196E-02  8540   0.378E-02-0.744E-04
CGA:   5    -0.132455044478E+04   -0.84903E-03   -0.84725E-03  8540   0.932E-03-0.459E-04
CGA:   6    -0.132455066571E+04   -0.22093E-03   -0.22093E-03  8540   0.237E-03-0.887E-07
CGA:   7    -0.132455072498E+04   -0.59273E-04   -0.59355E-04  8540   0.668E-04 0.736E-05
CGA:   8    -0.132455074586E+04   -0.20884E-04   -0.20894E-04  8540   0.231E-04-0.274E-06
CGA:   9    -0.132455075324E+04   -0.73752E-05   -0.73850E-05  8540   0.750E-05-0.170E-06
  15 F= -.13245508E+04 E0= -.13245508E+04  d E =-.928399E-03  mag=   126.0000
       N       E                     dE             d eps       ncg     rms          ort
SDA:   1    -0.132454452588E+04    0.62200E-02    0.00000E+00  8540   0.175E-01 0.000E+00
CGA:   2    -0.132454858536E+04   -0.40595E-02   -0.40648E-02  8540   0.774E-02 0.190E-03
CGA:   3    -0.132455037565E+04   -0.17903E-02   -0.17883E-02  8540   0.180E-02-0.716E-04
CGA:   4    -0.132455075479E+04   -0.37914E-03   -0.37445E-03  8540   0.360E-03-0.101E-03
CGA:   5    -0.132455082426E+04   -0.69470E-04   -0.69598E-04  8540   0.783E-04 0.252E-05
CGA:   6    -0.132455083962E+04   -0.15365E-04   -0.15938E-04  8540   0.178E-04 0.116E-04
CGA:   7    -0.132455084617E+04   -0.65466E-05   -0.69952E-05  8540   0.981E-05-0.479E-05
  16 F= -.13245508E+04 E0= -.13245508E+04  d E =-.929311E-04  mag=   126.0000
