       N       E                     dE             d eps       ncg     rms          rms(c)
DAV:   1     0.305312779228E+04    0.30531E+04   -0.25843E+05 73620   0.130E+03
DAV:   2    -0.613153204533E+03   -0.36663E+04   -0.35375E+04 89256   0.298E+02
DAV:   3    -0.871472267961E+03   -0.25832E+03   -0.25618E+03 88992   0.834E+01
DAV:   4    -0.874700195741E+03   -0.32279E+01   -0.32159E+01 89364   0.100E+01
DAV:   5    -0.874754789678E+03   -0.54594E-01   -0.54459E-01 90996   0.120E+00    0.989E+01
DAV:   6    -0.781956786810E+03    0.92798E+02   -0.39131E+02 82812   0.315E+01    0.503E+01
DAV:   7    -0.790970048291E+03   -0.90133E+01   -0.23252E+01 84144   0.816E+00    0.177E+01
DAV:   8    -0.794543294553E+03   -0.35732E+01   -0.11173E+01107376   0.538E+00    0.106E+01
DAV:   9    -0.795714395514E+03   -0.11711E+01   -0.17703E+00 94452   0.300E+00    0.654E+00
DAV:  10    -0.796631128624E+03   -0.91673E+00   -0.35398E+00 93960   0.310E+00    0.578E+00
DAV:  11    -0.797276239362E+03   -0.64511E+00   -0.29130E+00 88392   0.182E+00    0.521E+00
DAV:  12    -0.797286108757E+03   -0.98694E-02   -0.32526E+00104736   0.199E+00    0.259E+00
DAV:  13    -0.797437625811E+03   -0.15152E+00   -0.61804E-01 91344   0.139E+00    0.358E+00
DAV:  14    -0.797370608035E+03    0.67018E-01   -0.12291E-01 95532   0.830E-01    0.225E+00
DAV:  15    -0.797330874303E+03    0.39734E-01   -0.12869E-01102384   0.852E-01    0.101E+00
DAV:  16    -0.797337739671E+03   -0.68654E-02   -0.51452E-02 82992   0.391E-01    0.131E+00
DAV:  17    -0.797337354300E+03    0.38537E-03   -0.12448E-02 96996   0.234E-01    0.543E-01
DAV:  18    -0.797339706027E+03   -0.23517E-02   -0.61923E-03 83508   0.127E-01    0.711E-01
DAV:  19    -0.797339013611E+03    0.69242E-03   -0.21956E-02119724   0.173E-01    0.560E-01
DAV:  20    -0.797339294657E+03   -0.28105E-03   -0.33027E-03 84744   0.105E-01    0.256E-01
DAV:  21    -0.797339289446E+03    0.52107E-05   -0.15289E-03 89208   0.657E-02    0.114E-01
DAV:  22    -0.797339329965E+03   -0.40519E-04   -0.62585E-04 85668   0.333E-02    0.855E-02
DAV:  23    -0.797339334686E+03   -0.47210E-05   -0.15795E-04 78072   0.220E-02    0.387E-02
DAV:  24    -0.797339335335E+03   -0.64952E-06   -0.35783E-05 60480   0.814E-03
   1 F= -.79733934E+03 E0= -.79732272E+03  d E =-.797339E+03  mag=    -0.9924
       N       E                     dE             d eps       ncg     rms          rms(c)
DAV:   1    -0.797339766689E+03   -0.43200E-03   -0.11321E-02 75840   0.201E-01    0.737E-02
DAV:   2    -0.797339797585E+03   -0.30896E-04   -0.54716E-04 92748   0.435E-02    0.898E-02
DAV:   3    -0.797339785199E+03    0.12387E-04   -0.18196E-04 83916   0.244E-02    0.427E-02
DAV:   4    -0.797339780669E+03    0.45297E-05   -0.20257E-05 62460   0.119E-02
   2 F= -.79733978E+03 E0= -.79732310E+03  d E =-.445334E-03  mag=    -0.9921
       N       E                     dE             d eps       ncg     rms          rms(c)
DAV:   1    -0.797340002633E+03   -0.21743E-03   -0.81624E-03 75672   0.168E-01    0.506E-02
DAV:   2    -0.797340019233E+03   -0.16599E-04   -0.29222E-04 90468   0.314E-02    0.586E-02
DAV:   3    -0.797340015996E+03    0.32368E-05   -0.14766E-04 67260   0.171E-02    0.522E-02
DAV:   4    -0.797340008584E+03    0.74121E-05   -0.33216E-05 56088   0.106E-02
   3 F= -.79734001E+03 E0= -.79732331E+03  d E =-.227915E-03  mag=    -0.9920
       N       E                     dE             d eps       ncg     rms          rms(c)
DAV:   1    -0.797340368701E+03   -0.35271E-03   -0.10245E-01 75504   0.583E-01    0.106E-01
DAV:   2    -0.797340570486E+03   -0.20178E-03   -0.27438E-03 89376   0.931E-02    0.170E-01
DAV:   3    -0.797340525348E+03    0.45138E-04   -0.50008E-04 95232   0.405E-02    0.566E-02
DAV:   4    -0.797340528809E+03   -0.34607E-05   -0.13592E-04 79128   0.203E-02    0.616E-02
DAV:   5    -0.797340518051E+03    0.10758E-04   -0.91756E-05 58296   0.138E-02    0.268E-02
DAV:   6    -0.797340518732E+03   -0.68027E-06   -0.41208E-05 60852   0.100E-02
   4 F= -.79734052E+03 E0= -.79732382E+03  d E =-.510148E-03  mag=    -0.9917
       N       E                     dE             d eps       ncg     rms          rms(c)
DAV:   1    -0.797340492091E+03    0.25960E-04   -0.39771E-01 74664   0.115E+00    0.133E-01
DAV:   2    -0.797341358879E+03   -0.86679E-03   -0.10301E-02 88620   0.168E-01    0.315E-01
DAV:   3    -0.797341167488E+03    0.19139E-03   -0.17553E-03 97308   0.574E-02    0.752E-02
DAV:   4    -0.797341162999E+03    0.44886E-05   -0.10947E-04 82488   0.228E-02    0.626E-02
DAV:   5    -0.797341150401E+03    0.12598E-04   -0.27605E-04 85920   0.193E-02    0.709E-02
DAV:   6    -0.797341144300E+03    0.61008E-05   -0.80024E-05 83820   0.172E-02
   5 F= -.79734114E+03 E0= -.79732436E+03  d E =-.625569E-03  mag=    -0.9915
       N       E                     dE             d eps       ncg     rms          rms(c)
DAV:   1    -0.797340604497E+03    0.54590E-03   -0.60443E-01 73944   0.144E+00    0.619E-01
DAV:   2    -0.797348467799E+03   -0.78633E-02   -0.12561E-01105936   0.514E-01    0.186E+00
DAV:   3    -0.797340449977E+03    0.80178E-02   -0.24498E-02103092   0.337E-01    0.505E-01
DAV:   4    -0.797340738885E+03   -0.28891E-03   -0.60883E-03 85668   0.115E-01    0.142E-01
DAV:   5    -0.797341068935E+03   -0.33005E-03   -0.14467E-03 81696   0.640E-02    0.177E-01
DAV:   6    -0.797341029180E+03    0.39755E-04   -0.10443E-03 84588   0.393E-02    0.882E-02
DAV:   7    -0.797341015514E+03    0.13666E-04   -0.22111E-04 88224   0.216E-02    0.438E-02
DAV:   8    -0.797341016902E+03   -0.13879E-05   -0.79050E-05 59052   0.131E-02
   6 F= -.79734102E+03 E0= -.79732428E+03  d E =0.127399E-03  mag=    -0.9916
       N       E                     dE             d eps       ncg     rms          rms(c)
DAV:   1    -0.797341272876E+03   -0.25736E-03   -0.59942E-01 73704   0.143E+00    0.731E-01
DAV:   2    -0.797352171913E+03   -0.10899E-01   -0.16380E-01103356   0.562E-01    0.269E+00
DAV:   3    -0.797339779305E+03    0.12393E-01   -0.10639E-01 97356   0.393E-01    0.589E-01
DAV:   4    -0.797341124779E+03   -0.13455E-02   -0.99473E-03 81396   0.153E-01    0.157E-01
DAV:   5    -0.797341474416E+03   -0.34964E-03   -0.11835E-03 79608   0.763E-02    0.188E-01
DAV:   6    -0.797341365887E+03    0.10853E-03   -0.12506E-03 86964   0.471E-02    0.102E-01
DAV:   7    -0.797341415019E+03   -0.49132E-04   -0.10489E-03 84972   0.339E-02    0.151E-01
DAV:   8    -0.797341353523E+03    0.61496E-04   -0.58634E-04 74028   0.257E-02    0.459E-02
DAV:   9    -0.797341361224E+03   -0.77006E-05   -0.72367E-05 59364   0.102E-02
   7 F= -.79734136E+03 E0= -.79732466E+03  d E =-.344322E-03  mag=    -0.9910
       N       E                     dE             d eps       ncg     rms          rms(c)
DAV:   1    -0.797342161237E+03   -0.80771E-03   -0.16946E-01 74064   0.760E-01    0.221E-01
DAV:   2    -0.797342804310E+03   -0.64307E-03   -0.89575E-03 91260   0.159E-01    0.479E-01
DAV:   3    -0.797342383754E+03    0.42056E-03   -0.32690E-03 98208   0.927E-02    0.102E-01
DAV:   4    -0.797342467699E+03   -0.83946E-04   -0.88356E-04 83832   0.473E-02    0.156E-01
DAV:   5    -0.797342402619E+03    0.65081E-04   -0.35257E-04 87360   0.311E-02    0.445E-02
DAV:   6    -0.797342422705E+03   -0.20086E-04   -0.28576E-04 86844   0.195E-02    0.910E-02
DAV:   7    -0.797342401729E+03    0.20976E-04   -0.23200E-04 63024   0.192E-02    0.394E-02
DAV:   8    -0.797342403724E+03   -0.19957E-05   -0.59482E-05 53232   0.102E-02
   8 F= -.79734240E+03 E0= -.79732564E+03  d E =-.104250E-02  mag=    -0.9914
       N       E                     dE             d eps       ncg     rms          rms(c)
DAV:   1    -0.797342616664E+03   -0.21494E-03   -0.11889E-01 73992   0.638E-01    0.271E-01
DAV:   2    -0.797344152173E+03   -0.15355E-02   -0.21748E-02103692   0.221E-01    0.915E-01
DAV:   3    -0.797342427064E+03    0.17251E-02   -0.81775E-03102504   0.153E-01    0.153E-01
DAV:   4    -0.797342690430E+03   -0.26337E-03   -0.11119E-03 81204   0.508E-02    0.782E-02
DAV:   5    -0.797342740244E+03   -0.49814E-04   -0.18389E-04 80256   0.260E-02    0.730E-02
DAV:   6    -0.797342732554E+03    0.76902E-05   -0.26841E-04 66864   0.178E-02    0.601E-02
DAV:   7    -0.797342726592E+03    0.59619E-05   -0.59254E-05 57132   0.117E-02
   9 F= -.79734273E+03 E0= -.79732593E+03  d E =-.322867E-03  mag=    -0.9916
       N       E                     dE             d eps       ncg     rms          rms(c)
DAV:   1    -0.797339655787E+03    0.30768E-02   -0.15416E+00 73464   0.231E+00    0.474E-01
DAV:   2    -0.797344758820E+03   -0.51030E-02   -0.67834E-02 90816   0.444E-01    0.132E+00
DAV:   3    -0.797341395042E+03    0.33638E-02   -0.18845E-02 89160   0.240E-01    0.165E-01
DAV:   4    -0.797342292277E+03   -0.89723E-03   -0.41168E-03 78084   0.908E-02    0.271E-01
DAV:   5    -0.797342203930E+03    0.88346E-04   -0.24344E-03 82740   0.668E-02    0.144E-01
DAV:   6    -0.797342307532E+03   -0.10360E-03   -0.92966E-04 83220   0.393E-02    0.215E-01
DAV:   7    -0.797342143196E+03    0.16434E-03   -0.87384E-04 90048   0.375E-02    0.271E-02
DAV:   8    -0.797342196908E+03   -0.53711E-04   -0.90800E-05 77004   0.150E-02    0.447E-02
DAV:   9    -0.797342195176E+03    0.17312E-05   -0.62167E-05 51012   0.889E-03
  10 F= -.79734220E+03 E0= -.79732535E+03  d E =0.531415E-03  mag=    -0.9918
       N       E                     dE             d eps       ncg     rms          rms(c)
DAV:   1    -0.797339788918E+03    0.24080E-02   -0.19454E+00 73440   0.258E+00    0.939E-01
DAV:   2    -0.797353870232E+03   -0.14081E-01   -0.25142E-01 98496   0.749E-01    0.249E+00
DAV:   3    -0.797341687159E+03    0.12183E-01   -0.75746E-02 92808   0.459E-01    0.925E-01
DAV:   4    -0.797341430047E+03    0.25711E-03   -0.16923E-02 84900   0.181E-01    0.303E-01
DAV:   5    -0.797341967690E+03   -0.53764E-03   -0.51710E-03 82320   0.124E-01    0.310E-01
DAV:   6    -0.797341892273E+03    0.75417E-04   -0.18399E-03 79380   0.761E-02    0.105E-01
DAV:   7    -0.797341977121E+03   -0.84848E-04   -0.14428E-03 87348   0.441E-02    0.191E-01
DAV:   8    -0.797341869915E+03    0.10721E-03   -0.10743E-03 85896   0.425E-02    0.777E-02
DAV:   9    -0.797341890047E+03   -0.20132E-04   -0.14649E-04 73212   0.161E-02    0.378E-02
DAV:  10    -0.797341887771E+03    0.22762E-05   -0.15014E-05 53916   0.683E-03
  11 F= -.79734189E+03 E0= -.79732501E+03  d E =0.307406E-03  mag=    -0.9910
       N       E                     dE             d eps       ncg     rms          rms(c)
DAV:   1    -0.797341687653E+03    0.20239E-03   -0.66378E-01 73464   0.153E+00    0.494E-01
DAV:   2    -0.797344929976E+03   -0.32423E-02   -0.49670E-02 92868   0.360E-01    0.117E+00
DAV:   3    -0.797342056720E+03    0.28733E-02   -0.18863E-02 92244   0.223E-01    0.131E-01
DAV:   4    -0.797342941779E+03   -0.88506E-03   -0.39256E-03 79464   0.862E-02    0.348E-01
DAV:   5    -0.797342621261E+03    0.32052E-03   -0.14429E-03 82452   0.626E-02    0.137E-01
DAV:   6    -0.797342742195E+03   -0.12093E-03   -0.25721E-03 89172   0.462E-02    0.234E-01
DAV:   7    -0.797342593205E+03    0.14899E-03   -0.93392E-04 81780   0.424E-02    0.202E-02
DAV:   8    -0.797342630756E+03   -0.37552E-04   -0.69267E-05 83160   0.139E-02    0.251E-02
DAV:   9    -0.797342632940E+03   -0.21841E-05   -0.13127E-05 52656   0.703E-03
  12 F= -.79734263E+03 E0= -.79732577E+03  d E =-.745170E-03  mag=    -0.9914
       N       E                     dE             d eps       ncg     rms          rms(c)
DAV:   1    -0.797343117101E+03   -0.48635E-03   -0.97685E-02 73632   0.588E-01    0.217E-01
DAV:   2    -0.797343525223E+03   -0.40812E-03   -0.50614E-03 91800   0.118E-01    0.359E-01
DAV:   3    -0.797343215682E+03    0.30954E-03   -0.20617E-03 99216   0.769E-02    0.850E-02
DAV:   4    -0.797343309693E+03   -0.94011E-04   -0.48635E-04 79572   0.293E-02    0.150E-01
DAV:   5    -0.797343242972E+03    0.66721E-04   -0.24137E-04 77580   0.235E-02    0.665E-02
DAV:   6    -0.797343259478E+03   -0.16507E-04   -0.41625E-04 84972   0.225E-02    0.945E-02
DAV:   7    -0.797343237450E+03    0.22028E-04   -0.20094E-04 68400   0.198E-02    0.179E-02
DAV:   8    -0.797343243888E+03   -0.64380E-05   -0.13814E-05 53520   0.724E-03
  13 F= -.79734324E+03 E0= -.79732642E+03  d E =-.610948E-03  mag=    -0.9916
