       N       E                     dE             d eps       ncg     rms          rms(c)
DAV:   1     0.823505470136E+04    0.82351E+04   -0.23578E+05 34308   0.218E+03
DAV:   2     0.116059526895E+04   -0.70745E+04   -0.66277E+04 33696   0.632E+02
DAV:   3    -0.385100517366E+03   -0.15457E+04   -0.13595E+04 35928   0.272E+02
DAV:   4    -0.541890198059E+03   -0.15679E+03   -0.15401E+03 36816   0.836E+01
DAV:   5    -0.544635330139E+03   -0.27451E+01   -0.27316E+01 36684   0.125E+01    0.106E+02
DAV:   6    -0.555460223327E+03   -0.10825E+02   -0.92779E+02 45000   0.118E+02    0.126E+02
DAV:   7    -0.434827594646E+03    0.12063E+03   -0.33915E+02 36864   0.120E+02    0.358E+01
DAV:   8    -0.437874710129E+03   -0.30471E+01   -0.76951E+01 40860   0.263E+01    0.182E+01
DAV:   9    -0.446768720349E+03   -0.88940E+01   -0.48866E+01 39276   0.321E+01    0.624E+01
DAV:  10    -0.439098797717E+03    0.76699E+01   -0.41159E+01 37452   0.239E+01    0.162E+01
DAV:  11    -0.438138466476E+03    0.96033E+00   -0.16093E+01 37656   0.129E+01    0.922E+00
DAV:  12    -0.437808115670E+03    0.33035E+00   -0.28514E+00 36900   0.849E+00    0.666E+00
DAV:  13    -0.437792776405E+03    0.15339E-01   -0.37449E+00 37596   0.595E+00    0.545E+00
DAV:  14    -0.437781983786E+03    0.10793E-01   -0.18876E+00 38028   0.438E+00    0.515E+00
DAV:  15    -0.437716117762E+03    0.65866E-01   -0.14723E+00 41220   0.339E+00    0.346E+00
DAV:  16    -0.437673624895E+03    0.42493E-01   -0.40368E-01 40860   0.312E+00    0.205E+00
DAV:  17    -0.437672449432E+03    0.11755E-02   -0.14094E-01 39648   0.214E+00    0.201E+00
DAV:  18    -0.437663790026E+03    0.86594E-02   -0.11613E-01 39288   0.174E+00    0.141E+00
DAV:  19    -0.437667646551E+03   -0.38565E-02   -0.43135E-02 38832   0.125E+00    0.121E+00
DAV:  20    -0.437666534990E+03    0.11116E-02   -0.33347E-02 38628   0.117E+00    0.927E-01
DAV:  21    -0.437669977306E+03   -0.34423E-02   -0.13906E-02 37092   0.721E-01    0.878E-01
DAV:  22    -0.437669184404E+03    0.79290E-03   -0.90393E-03 37404   0.721E-01    0.667E-01
DAV:  23    -0.437668845425E+03    0.33898E-03   -0.49115E-03 41232   0.441E-01    0.438E-01
DAV:  24    -0.437668731292E+03    0.11413E-03   -0.47281E-03 43284   0.384E-01    0.368E-01
DAV:  25    -0.437668917625E+03   -0.18633E-03   -0.21507E-03 36780   0.204E-01    0.326E-01
DAV:  26    -0.437669048352E+03   -0.13073E-03   -0.39342E-04 38160   0.118E-01    0.325E-01
DAV:  27    -0.437669044714E+03    0.36373E-05   -0.59254E-04 39924   0.140E-01    0.230E-01
DAV:  28    -0.437669073914E+03   -0.29200E-04   -0.12259E-03 46680   0.155E-01    0.227E-01
DAV:  29    -0.437669075512E+03   -0.15983E-05   -0.35415E-04 41340   0.131E-01    0.221E-01
DAV:  30    -0.437668996005E+03    0.79507E-04   -0.27809E-04 34812   0.947E-02    0.125E-01
DAV:  31    -0.437669000238E+03   -0.42325E-05   -0.23406E-04 37668   0.680E-02    0.906E-02
DAV:  32    -0.437668998755E+03    0.14832E-05   -0.95186E-05 30888   0.641E-02
   1 F= -.43766900E+03 E0= -.43765376E+03  d E =-.304774E-01  mag=     1.9711
