       N       E                     dE             d eps       ncg     rms          rms(c)
DAV:   1     0.611147968306E+04    0.61115E+04   -0.19759E+05  5000   0.172E+03
DAV:   2     0.737905946964E+03   -0.53736E+04   -0.50344E+04  4672   0.526E+02
DAV:   3    -0.260057234227E+03   -0.99796E+03   -0.83507E+03  4820   0.229E+02
DAV:   4    -0.416328741939E+03   -0.15627E+03   -0.14778E+03  6672   0.848E+01
DAV:   5    -0.420476551280E+03   -0.41478E+01   -0.41227E+01  6736   0.175E+01    0.631E-01
RMM:   6    -0.421019869939E+03   -0.54332E+00   -0.95873E-01  5341   0.252E+00    0.581E-01
RMM:   7    -0.421029018577E+03   -0.91486E-02   -0.12758E-01  6403   0.680E-01    0.343E-01
RMM:   8    -0.421028238706E+03    0.77987E-03   -0.13182E-02  6670   0.185E-01    0.330E-01
RMM:   9    -0.421027846994E+03    0.39171E-03   -0.81997E-04  5962   0.601E-02    0.237E-01
RMM:  10    -0.421027786829E+03    0.60166E-04   -0.24913E-04  5373   0.375E-02    0.195E-01
RMM:  11    -0.421027770843E+03    0.15986E-04   -0.58264E-05  3995   0.204E-02    0.171E-01
RMM:  12    -0.421027766567E+03    0.42762E-05   -0.95385E-05  4650   0.219E-02
   1 F= -.42102777E+03 E0= -.42101371E+03  d E =-.421028E+03  mag=    62.0000
       N       E                     dE             d eps       ncg     rms          rms(c)
DAV:   1    -0.421087618603E+03   -0.59848E-01   -0.11533E+00  6248   0.517E+00    0.192E+00
RMM:   2    -0.421035333147E+03    0.52285E-01   -0.20548E-01  4921   0.159E+00    0.108E+00
RMM:   3    -0.421029704244E+03    0.56289E-02   -0.87755E-02  5801   0.684E-01    0.559E-01
RMM:   4    -0.421025564284E+03    0.41400E-02   -0.87421E-03  5399   0.348E-01    0.524E-01
RMM:   5    -0.421025044553E+03    0.51973E-03   -0.13368E-03  5444   0.108E-01    0.413E-01
RMM:   6    -0.421024580612E+03    0.46394E-03   -0.53963E-04  5117   0.687E-02    0.137E-01
RMM:   7    -0.421024601500E+03   -0.20888E-04   -0.39647E-04  5097   0.495E-02    0.224E-01
RMM:   8    -0.421024407273E+03    0.19423E-03   -0.25605E-04  5306   0.421E-02    0.400E-02
RMM:   9    -0.421024415268E+03   -0.79955E-05   -0.33392E-05  3579   0.179E-02
   2 F= -.42102442E+03 E0= -.42101036E+03  d E =0.335130E-02  mag=    62.0000
       N       E                     dE             d eps       ncg     rms          rms(c)
DAV:   1    -0.421064913199E+03   -0.40506E-01   -0.71721E-01  6224   0.406E+00    0.149E+00
RMM:   2    -0.421034433504E+03    0.30480E-01   -0.12401E-01  4925   0.124E+00    0.843E-01
RMM:   3    -0.421030961148E+03    0.34724E-02   -0.50979E-02  5832   0.526E-01    0.462E-01
RMM:   4    -0.421029513022E+03    0.14481E-02   -0.55762E-03  5488   0.266E-01    0.805E-01
RMM:   5    -0.421027839392E+03    0.16736E-02   -0.11939E-03  5176   0.109E-01    0.214E-01
RMM:   6    -0.421027932770E+03   -0.93378E-04   -0.39403E-04  5130   0.606E-02    0.989E-02
RMM:   7    -0.421027914132E+03    0.18637E-04   -0.25415E-04  5082   0.390E-02    0.173E-01
RMM:   8    -0.421027803576E+03    0.11056E-03   -0.12023E-04  4738   0.306E-02    0.417E-02
RMM:   9    -0.421027807123E+03   -0.35469E-05   -0.19482E-05  3035   0.145E-02
   3 F= -.42102781E+03 E0= -.42101375E+03  d E =-.405567E-04  mag=    62.0000
