       N       E                     dE             d eps       ncg     rms          ort
DAV:   1     0.420035145049E+04    0.42004E+04   -0.16811E+05  1824   0.158E+03
DAV:   2     0.625763744256E+02   -0.41378E+04   -0.39936E+04  1824   0.455E+02
DAV:   3    -0.693139932991E+03   -0.75572E+03   -0.71766E+03  1824   0.165E+02
DAV:   4    -0.752265896336E+03   -0.59126E+02   -0.58730E+02  1824   0.489E+01
DAV:   5    -0.753641022097E+03   -0.13751E+01   -0.13726E+01  1824   0.874E+00
SDA:   6    -0.439048045398E+03    0.31459E+03   -0.13726E+01  1824   0.930E+03 0.000E+00
CGA:   7    -0.571603299997E+03   -0.13256E+03   -0.12775E+03  1824   0.124E+03-0.653E+01
CGA:   8    -0.595013830956E+03   -0.23411E+02   -0.23378E+02  1824   0.528E+02-0.255E+01
CGA:   9    -0.605919640393E+03   -0.10906E+02   -0.10907E+02  1824   0.208E+02-0.480E-01
CGA:  10    -0.610207434390E+03   -0.42878E+01   -0.42880E+01  1824   0.664E+01 0.132E-01
CGA:  11    -0.611455654906E+03   -0.12482E+01   -0.12476E+01  1824   0.219E+01-0.485E-01
CGA:  12    -0.611942140971E+03   -0.48649E+00   -0.48677E+00  1824   0.987E+00-0.168E-01
CGA:  13    -0.612171024067E+03   -0.22888E+00   -0.22875E+00  1824   0.445E+00-0.513E-02
CGA:  14    -0.612272444391E+03   -0.10142E+00   -0.10182E+00  1824   0.211E+00-0.147E-01
CGA:  15    -0.612325362997E+03   -0.52919E-01   -0.52704E-01  1824   0.100E+00 0.190E-02
CGA:  16    -0.612353523625E+03   -0.28161E-01   -0.28230E-01  1824   0.436E-01-0.109E-02
CGA:  17    -0.612365788757E+03   -0.12265E-01   -0.12704E-01  1824   0.223E-01-0.511E-02
CGA:  18    -0.612371062592E+03   -0.52738E-02   -0.53868E-02  1824   0.989E-02-0.188E-02
CGA:  19    -0.612373834355E+03   -0.27718E-02   -0.30050E-02  1824   0.713E-02-0.201E-02
CGA:  20    -0.612375198831E+03   -0.13645E-02   -0.13863E-02  1824   0.409E-02-0.976E-03
CGA:  21    -0.612376068246E+03   -0.86942E-03   -0.86617E-03  1824   0.155E-02 0.145E-03
CGA:  22    -0.612376443147E+03   -0.37490E-03   -0.37188E-03  1824   0.768E-03 0.386E-03
CGA:  23    -0.612376636969E+03   -0.19382E-03   -0.19716E-03  1824   0.326E-03 0.180E-03
CGA:  24    -0.612376720387E+03   -0.83418E-04   -0.85100E-04  1824   0.168E-03 0.141E-03
CGA:  25    -0.612376747784E+03   -0.27397E-04   -0.36798E-04  1824   0.973E-04 0.136E-03
CGA:  26    -0.612376762937E+03   -0.15153E-04   -0.17484E-04  1824   0.543E-04 0.591E-04
CGA:  27    -0.612376768515E+03   -0.55787E-05   -0.81993E-05  1824   0.390E-04 0.395E-04
   1 F= -.61237677E+03 E0= -.61237549E+03  d E =-.612377E+03  mag=    -0.0010
       N       E                     dE             d eps       ncg     rms          ort
SDA:   1    -0.612386024918E+03   -0.92620E-02    0.00000E+00  1824   0.111E-02 0.000E+00
CGA:   2    -0.612386217206E+03   -0.19229E-03   -0.19640E-03  1824   0.361E-03 0.127E-03
CGA:   3    -0.612386320521E+03   -0.10332E-03   -0.10698E-03  1824   0.211E-03-0.630E-04
CGA:   4    -0.612386353681E+03   -0.33160E-04   -0.33351E-04  1824   0.617E-04 0.102E-04
CGA:   5    -0.612386364256E+03   -0.10575E-04   -0.11096E-04  1824   0.237E-04 0.138E-04
CGA:   6    -0.612386367792E+03   -0.35351E-05   -0.42676E-05  1824   0.109E-04 0.122E-04
   2 F= -.61238637E+03 E0= -.61238515E+03  d E =-.959928E-02  mag=     0.0004
       N       E                     dE             d eps       ncg     rms          ort
SDA:   1    -0.611584197056E+03    0.80217E+00    0.00000E+00  1824   0.406E+01 0.000E+00
CGA:   2    -0.612402706605E+03   -0.81851E+00   -0.81847E+00  1824   0.154E+01 0.400E-02
CGA:   3    -0.612717551585E+03   -0.31484E+00   -0.31483E+00  1824   0.507E+00 0.239E-03
CGA:   4    -0.612840857458E+03   -0.12331E+00   -0.12337E+00  1824   0.136E+00-0.160E-02
CGA:   5    -0.612871213737E+03   -0.30356E-01   -0.30407E-01  1824   0.522E-01-0.211E-02
CGA:   6    -0.612882238540E+03   -0.11025E-01   -0.11022E-01  1824   0.194E-01 0.185E-03
CGA:   7    -0.612886661332E+03   -0.44228E-02   -0.44128E-02  1824   0.664E-02 0.414E-03
CGA:   8    -0.612888314793E+03   -0.16535E-02   -0.16449E-02  1824   0.210E-02 0.212E-03
CGA:   9    -0.612888951938E+03   -0.63714E-03   -0.63299E-03  1824   0.792E-03 0.476E-04
CGA:  10    -0.612889164872E+03   -0.21293E-03   -0.21278E-03  1824   0.395E-03 0.266E-05
CGA:  11    -0.612889271966E+03   -0.10709E-03   -0.11125E-03  1824   0.234E-03-0.613E-04
CGA:  12    -0.612889313814E+03   -0.41848E-04   -0.41834E-04  1824   0.683E-04-0.331E-05
CGA:  13    -0.612889335877E+03   -0.22063E-04   -0.23307E-04  1824   0.282E-04-0.957E-05
CGA:  14    -0.612889344250E+03   -0.83722E-05   -0.86112E-05  1824   0.150E-04-0.186E-05
   3 F= -.61288934E+03 E0= -.61288827E+03  d E =-.502976E+00  mag=     0.0001
       N       E                     dE             d eps       ncg     rms          ort
SDA:   1    -0.609201208719E+03    0.36881E+01    0.00000E+00  1824   0.138E+02 0.000E+00
CGA:   2    -0.611710256516E+03   -0.25090E+01   -0.25122E+01  1824   0.546E+01-0.102E-02
CGA:   3    -0.612869750999E+03   -0.11595E+01   -0.11598E+01  1824   0.160E+01 0.137E-02
CGA:   4    -0.613262993648E+03   -0.39324E+00   -0.39322E+00  1824   0.467E+00 0.136E-03
CGA:   5    -0.613361826093E+03   -0.98832E-01   -0.98755E-01  1824   0.173E+00-0.317E-02
CGA:   6    -0.613400387652E+03   -0.38562E-01   -0.38562E-01  1824   0.681E-01-0.231E-03
CGA:   7    -0.613415761205E+03   -0.15374E-01   -0.15375E-01  1824   0.243E-01 0.283E-03
CGA:   8    -0.613421666390E+03   -0.59052E-02   -0.58999E-02  1824   0.767E-02 0.519E-03
CGA:   9    -0.613423927323E+03   -0.22609E-02   -0.22621E-02  1824   0.315E-02-0.213E-04
CGA:  10    -0.613424683453E+03   -0.75613E-03   -0.75604E-03  1824   0.145E-02 0.153E-04
CGA:  11    -0.613425065101E+03   -0.38165E-03   -0.38576E-03  1824   0.720E-03-0.135E-03
CGA:  12    -0.613425227827E+03   -0.16273E-03   -0.16335E-03  1824   0.251E-03-0.458E-04
CGA:  13    -0.613425298381E+03   -0.70554E-04   -0.73091E-04  1824   0.123E-03-0.348E-04
CGA:  14    -0.613425320780E+03   -0.22399E-04   -0.22659E-04  1824   0.490E-04 0.928E-05
CGA:  15    -0.613425338732E+03   -0.17952E-04   -0.19031E-04  1824   0.273E-04-0.892E-05
CGA:  16    -0.613425268067E+03    0.70665E-04   -0.38470E-04  1824   0.391E-03-0.801E-04
CGA:  17    -0.613425335169E+03   -0.67101E-04   -0.65323E-04  1824   0.115E-03-0.712E-05
CGA:  18    -0.613425351625E+03   -0.16456E-04   -0.20843E-04  1824   0.230E-04 0.172E-04
CGA:  19    -0.613425354871E+03   -0.32459E-05   -0.55073E-05  1824   0.121E-04 0.106E-04
   4 F= -.61342535E+03 E0= -.61342450E+03  d E =-.536011E+00  mag=    -0.0000
       N       E                     dE             d eps       ncg     rms          ort
SDA:   1    -0.611586864993E+03    0.18385E+01    0.00000E+00  1824   0.883E+01 0.000E+00
CGA:   2    -0.612742214652E+03   -0.11553E+01   -0.11643E+01  1824   0.222E+01 0.118E-03
CGA:   3    -0.613366502635E+03   -0.62429E+00   -0.62495E+00  1824   0.684E+00 0.160E-02
CGA:   4    -0.613508238822E+03   -0.14174E+00   -0.14205E+00  1824   0.192E+00 0.696E-03
CGA:   5    -0.613548967936E+03   -0.40729E-01   -0.40647E-01  1824   0.595E-01-0.350E-03
CGA:   6    -0.613562155774E+03   -0.13188E-01   -0.13186E-01  1824   0.246E-01-0.102E-03
CGA:   7    -0.613567645958E+03   -0.54902E-02   -0.54740E-02  1824   0.884E-02-0.932E-04
CGA:   8    -0.613569727115E+03   -0.20812E-02   -0.21008E-02  1824   0.272E-02 0.161E-03
CGA:   9    -0.613570509248E+03   -0.78213E-03   -0.78395E-03  1824   0.121E-02 0.281E-04
CGA:  10    -0.613570778980E+03   -0.26973E-03   -0.27370E-03  1824   0.509E-03 0.325E-04
CGA:  11    -0.613570919948E+03   -0.14097E-03   -0.13920E-03  1824   0.237E-03-0.246E-04
CGA:  12    -0.613570979352E+03   -0.59404E-04   -0.59267E-04  1824   0.876E-04-0.205E-05
CGA:  13    -0.613571004039E+03   -0.24687E-04   -0.24264E-04  1824   0.441E-04-0.824E-05
CGA:  14    -0.613571009413E+03   -0.53743E-05   -0.68529E-05  1824   0.137E-04 0.941E-05
   5 F= -.61357101E+03 E0= -.61357024E+03  d E =-.145655E+00  mag=     0.0000
       N       E                     dE             d eps       ncg     rms          ort
SDA:   1    -0.608752497016E+03    0.48185E+01    0.00000E+00  1824   0.252E+02 0.000E+00
CGA:   2    -0.611761235775E+03   -0.30087E+01   -0.30473E+01  1824   0.482E+01 0.587E-01
CGA:   3    -0.613242291700E+03   -0.14811E+01   -0.14810E+01  1824   0.171E+01 0.381E-02
CGA:   4    -0.613554729683E+03   -0.31244E+00   -0.31323E+00  1824   0.405E+00-0.403E-03
CGA:   5    -0.613640821249E+03   -0.86092E-01   -0.86048E-01  1824   0.134E+00 0.119E-03
CGA:   6    -0.613668973897E+03   -0.28153E-01   -0.28240E-01  1824   0.490E-01 0.731E-03
CGA:   7    -0.613680496860E+03   -0.11523E-01   -0.11511E-01  1824   0.177E-01-0.168E-03
CGA:   8    -0.613684812024E+03   -0.43152E-02   -0.43227E-02  1824   0.590E-02 0.150E-03
CGA:   9    -0.613686333216E+03   -0.15212E-02   -0.15236E-02  1824   0.302E-02 0.851E-04
CGA:  10    -0.613686999585E+03   -0.66637E-03   -0.67509E-03  1824   0.107E-02 0.136E-03
CGA:  11    -0.613687306836E+03   -0.30725E-03   -0.30747E-03  1824   0.468E-03 0.430E-04
CGA:  12    -0.613687426401E+03   -0.11957E-03   -0.12158E-03  1824   0.186E-03 0.657E-04
CGA:  13    -0.613687479321E+03   -0.52920E-04   -0.53355E-04  1824   0.817E-04 0.160E-04
CGA:  14    -0.613687495218E+03   -0.15896E-04   -0.17836E-04  1824   0.287E-04 0.255E-04
CGA:  15    -0.613687501287E+03   -0.60692E-05   -0.73637E-05  1824   0.111E-04 0.166E-04
   6 F= -.61368750E+03 E0= -.61368670E+03  d E =-.116492E+00  mag=     0.0000
       N       E                     dE             d eps       ncg     rms          ort
SDA:   1    -0.608340160800E+03    0.53473E+01    0.00000E+00  1824   0.261E+02 0.000E+00
CGA:   2    -0.611556640869E+03   -0.32165E+01   -0.32379E+01  1824   0.566E+01 0.199E-01
CGA:   3    -0.613221538361E+03   -0.16649E+01   -0.16646E+01  1824   0.189E+01 0.473E-02
CGA:   4    -0.613581634408E+03   -0.36010E+00   -0.36066E+00  1824   0.497E+00 0.702E-03
CGA:   5    -0.613684425283E+03   -0.10279E+00   -0.10279E+00  1824   0.159E+00 0.517E-03
CGA:   6    -0.613717522241E+03   -0.33097E-01   -0.33169E-01  1824   0.584E-01 0.119E-02
CGA:   7    -0.613731505017E+03   -0.13983E-01   -0.13978E-01  1824   0.216E-01-0.261E-03
CGA:   8    -0.613736681176E+03   -0.51762E-02   -0.51781E-02  1824   0.720E-02 0.131E-03
CGA:   9    -0.613738474663E+03   -0.17935E-02   -0.17938E-02  1824   0.372E-02 0.772E-04
CGA:  10    -0.613739331773E+03   -0.85711E-03   -0.86030E-03  1824   0.133E-02 0.136E-03
CGA:  11    -0.613739705749E+03   -0.37398E-03   -0.37278E-03  1824   0.587E-03 0.615E-04
CGA:  12    -0.613739861455E+03   -0.15571E-03   -0.15558E-03  1824   0.231E-03 0.795E-04
CGA:  13    -0.613739924292E+03   -0.62837E-04   -0.63164E-04  1824   0.937E-04 0.295E-04
CGA:  14    -0.613739945401E+03   -0.21109E-04   -0.22336E-04  1824   0.333E-04 0.308E-04
CGA:  15    -0.613739954293E+03   -0.88916E-05   -0.95004E-05  1824   0.129E-04 0.176E-04
   7 F= -.61373995E+03 E0= -.61373908E+03  d E =-.524530E-01  mag=     0.0000
       N       E                     dE             d eps       ncg     rms          ort
SDA:   1    -0.607651330779E+03    0.60886E+01    0.00000E+00  1824   0.239E+02 0.000E+00
CGA:   2    -0.611277622256E+03   -0.36263E+01   -0.36274E+01  1824   0.757E+01-0.135E-01
CGA:   3    -0.613059766865E+03   -0.17821E+01   -0.17823E+01  1824   0.223E+01 0.172E-01
CGA:   4    -0.613566692083E+03   -0.50693E+00   -0.50704E+00  1824   0.658E+00 0.349E-02
CGA:   5    -0.613699195808E+03   -0.13250E+00   -0.13257E+00  1824   0.208E+00 0.148E-02
CGA:   6    -0.613746234660E+03   -0.47039E-01   -0.47039E-01  1824   0.764E-01-0.208E-04
CGA:   7    -0.613763768789E+03   -0.17534E-01   -0.17533E-01  1824   0.273E-01-0.196E-03
CGA:   8    -0.613770354634E+03   -0.65858E-02   -0.65860E-02  1824   0.915E-02-0.424E-04
CGA:   9    -0.613772806130E+03   -0.24515E-02   -0.24509E-02  1824   0.387E-02 0.133E-04
CGA:  10    -0.613773749354E+03   -0.94322E-03   -0.94351E-03  1824   0.175E-02-0.538E-04
CGA:  11    -0.613774185242E+03   -0.43589E-03   -0.43546E-03  1824   0.757E-03 0.299E-04
CGA:  12    -0.613774387544E+03   -0.20230E-03   -0.20173E-03  1824   0.276E-03 0.249E-04
CGA:  13    -0.613774466906E+03   -0.79362E-04   -0.78926E-04  1824   0.126E-03 0.116E-04
CGA:  14    -0.613774499947E+03   -0.33041E-04   -0.33033E-04  1824   0.614E-04 0.804E-06
CGA:  15    -0.613774518242E+03   -0.18295E-04   -0.18362E-04  1824   0.309E-04-0.126E-05
CGA:  16    -0.613774524886E+03   -0.66442E-05   -0.68000E-05  1824   0.112E-04 0.745E-05
   8 F= -.61377452E+03 E0= -.61377369E+03  d E =-.345706E-01  mag=    -0.0000
       N       E                     dE             d eps       ncg     rms          ort
SDA:   1    -0.612321593818E+03    0.14529E+01    0.00000E+00  1824   0.595E+01 0.000E+00
CGA:   2    -0.613254064537E+03   -0.93247E+00   -0.93335E+00  1824   0.180E+01-0.326E-02
CGA:   3    -0.613657326538E+03   -0.40326E+00   -0.40338E+00  1824   0.584E+00 0.488E-02
CGA:   4    -0.613797010215E+03   -0.13968E+00   -0.13968E+00  1824   0.157E+00-0.732E-03
CGA:   5    -0.613831553064E+03   -0.34543E-01   -0.34513E-01  1824   0.565E-01-0.201E-02
CGA:   6    -0.613844325919E+03   -0.12773E-01   -0.12771E-01  1824   0.206E-01-0.275E-03
CGA:   7    -0.613848758777E+03   -0.44329E-02   -0.44384E-02  1824   0.782E-02 0.290E-03
CGA:   8    -0.613850616060E+03   -0.18573E-02   -0.18573E-02  1824   0.243E-02 0.167E-03
CGA:   9    -0.613851322085E+03   -0.70602E-03   -0.70532E-03  1824   0.960E-03 0.129E-04
CGA:  10    -0.613851580481E+03   -0.25840E-03   -0.25958E-03  1824   0.486E-03-0.369E-04
CGA:  11    -0.613851704594E+03   -0.12411E-03   -0.12707E-03  1824   0.301E-03-0.878E-04
CGA:  12    -0.613851767259E+03   -0.62666E-04   -0.63554E-04  1824   0.110E-03-0.511E-04
CGA:  13    -0.613851796236E+03   -0.28977E-04   -0.31775E-04  1824   0.554E-04-0.262E-04
CGA:  14    -0.613851804247E+03   -0.80104E-05   -0.82890E-05  1824   0.220E-04 0.557E-05
   9 F= -.61385180E+03 E0= -.61385113E+03  d E =-.772794E-01  mag=    -0.0000
       N       E                     dE             d eps       ncg     rms          ort
SDA:   1    -0.613790049587E+03    0.61747E-01    0.00000E+00  1824   0.339E+00 0.000E+00
CGA:   2    -0.613832622136E+03   -0.42573E-01   -0.42571E-01  1824   0.750E-01-0.509E-03
CGA:   3    -0.613854416870E+03   -0.21795E-01   -0.21761E-01  1824   0.244E-01 0.557E-03
CGA:   4    -0.613859129350E+03   -0.47125E-02   -0.47192E-02  1824   0.611E-02 0.109E-03
CGA:   5    -0.613860501421E+03   -0.13721E-02   -0.13687E-02  1824   0.217E-02-0.214E-03
CGA:   6    -0.613860949813E+03   -0.44839E-03   -0.44801E-03  1824   0.733E-03-0.159E-04
CGA:   7    -0.613861107557E+03   -0.15774E-03   -0.15814E-03  1824   0.244E-03 0.195E-04
CGA:   8    -0.613861166963E+03   -0.59405E-04   -0.59391E-04  1824   0.697E-04 0.190E-04
CGA:   9    -0.613861192738E+03   -0.25775E-04   -0.28478E-04  1824   0.602E-04-0.190E-04
CGA:  10    -0.613861199893E+03   -0.71546E-05   -0.72977E-05  1824   0.233E-04 0.184E-05
  10 F= -.61386120E+03 E0= -.61386056E+03  d E =-.939565E-02  mag=    -0.0000
       N       E                     dE             d eps       ncg     rms          ort
SDA:   1    -0.610788895493E+03    0.30723E+01    0.00000E+00  1824   0.129E+02 0.000E+00
CGA:   2    -0.612593016097E+03   -0.18041E+01   -0.18052E+01  1824   0.366E+01-0.116E-01
CGA:   3    -0.613550710276E+03   -0.95769E+00   -0.95738E+00  1824   0.111E+01 0.640E-02
CGA:   4    -0.613785307662E+03   -0.23460E+00   -0.23468E+00  1824   0.307E+00 0.135E-02
CGA:   5    -0.613848843477E+03   -0.63536E-01   -0.63582E-01  1824   0.941E-01 0.163E-02
CGA:   6    -0.613870049192E+03   -0.21206E-01   -0.21208E-01  1824   0.348E-01 0.314E-03
CGA:   7    -0.613878084159E+03   -0.80350E-02   -0.80345E-02  1824   0.130E-01-0.461E-03
CGA:   8    -0.613881090744E+03   -0.30066E-02   -0.30063E-02  1824   0.404E-02 0.767E-04
CGA:   9    -0.613882182029E+03   -0.10913E-02   -0.10903E-02  1824   0.173E-02 0.260E-04
CGA:  10    -0.613882603538E+03   -0.42151E-03   -0.42126E-03  1824   0.731E-03 0.286E-04
CGA:  11    -0.613882789416E+03   -0.18588E-03   -0.18536E-03  1824   0.321E-03 0.331E-04
CGA:  12    -0.613882872448E+03   -0.83032E-04   -0.82549E-04  1824   0.108E-03 0.423E-04
CGA:  13    -0.613882906234E+03   -0.33786E-04   -0.33236E-04  1824   0.458E-04 0.145E-04
CGA:  14    -0.613882919143E+03   -0.12909E-04   -0.12830E-04  1824   0.210E-04 0.829E-05
CGA:  15    -0.613882925573E+03   -0.64301E-05   -0.63490E-05  1824   0.922E-05 0.437E-05
  11 F= -.61388293E+03 E0= -.61388231E+03  d E =-.217257E-01  mag=    -0.0000
       N       E                     dE             d eps       ncg     rms          ort
SDA:   1    -0.612437309840E+03    0.14456E+01    0.00000E+00  1824   0.689E+01 0.000E+00
CGA:   2    -0.613343518202E+03   -0.90621E+00   -0.90702E+00  1824   0.158E+01-0.695E-02
CGA:   3    -0.613738797939E+03   -0.39528E+00   -0.39509E+00  1824   0.526E+00 0.613E-02
CGA:   4    -0.613854714499E+03   -0.11592E+00   -0.11592E+00  1824   0.150E+00-0.634E-03
CGA:   5    -0.613884243568E+03   -0.29529E-01   -0.29479E-01  1824   0.464E-01-0.156E-02
CGA:   6    -0.613894832867E+03   -0.10589E-01   -0.10590E-01  1824   0.176E-01-0.636E-03
CGA:   7    -0.613898628397E+03   -0.37955E-02   -0.37989E-02  1824   0.590E-02 0.335E-03
CGA:   8    -0.613900103562E+03   -0.14752E-02   -0.14725E-02  1824   0.197E-02 0.160E-03
CGA:   9    -0.613900654203E+03   -0.55064E-03   -0.54863E-03  1824   0.872E-03 0.466E-04
CGA:  10    -0.613900874025E+03   -0.21982E-03   -0.22008E-03  1824   0.398E-03-0.178E-04
CGA:  11    -0.613900983341E+03   -0.10932E-03   -0.11285E-03  1824   0.246E-03-0.619E-04
CGA:  12    -0.613901041444E+03   -0.58103E-04   -0.61690E-04  1824   0.123E-03-0.580E-04
CGA:  13    -0.613901064231E+03   -0.22787E-04   -0.22850E-04  1824   0.488E-04-0.110E-04
CGA:  14    -0.613901075029E+03   -0.10799E-04   -0.10780E-04  1824   0.157E-04 0.443E-05
CGA:  15    -0.613901080219E+03   -0.51892E-05   -0.49870E-05  1824   0.670E-05 0.386E-05
  12 F= -.61390108E+03 E0= -.61390056E+03  d E =-.181546E-01  mag=    -0.0000
       N       E                     dE             d eps       ncg     rms          ort
SDA:   1    -0.613714075618E+03    0.18700E+00    0.00000E+00  1824   0.101E+01 0.000E+00
CGA:   2    -0.613837846838E+03   -0.12377E+00   -0.12380E+00  1824   0.190E+00-0.106E-02
CGA:   3    -0.613889836471E+03   -0.51990E-01   -0.51980E-01  1824   0.648E-01-0.897E-04
CGA:   4    -0.613903452369E+03   -0.13616E-01   -0.13622E-01  1824   0.169E-01 0.170E-03
CGA:   5    -0.613906789270E+03   -0.33369E-02   -0.33512E-02  1824   0.476E-02 0.368E-03
CGA:   6    -0.613907890801E+03   -0.11015E-02   -0.11028E-02  1824   0.179E-02 0.172E-03
CGA:   7    -0.613908334802E+03   -0.44400E-03   -0.44452E-03  1824   0.733E-03-0.830E-04
CGA:   8    -0.613908500349E+03   -0.16555E-03   -0.16559E-03  1824   0.256E-03-0.137E-04
CGA:   9    -0.613908563103E+03   -0.62754E-04   -0.62656E-04  1824   0.997E-04 0.618E-05
CGA:  10    -0.613908587608E+03   -0.24504E-04   -0.24474E-04  1824   0.374E-04 0.623E-05
CGA:  11    -0.613908595907E+03   -0.82993E-05   -0.85279E-05  1824   0.143E-04 0.110E-04
  13 F= -.61390860E+03 E0= -.61390807E+03  d E =-.751569E-02  mag=    -0.0000
       N       E                     dE             d eps       ncg     rms          ort
SDA:   1    -0.613884900349E+03    0.23687E-01    0.00000E+00  1824   0.122E+00 0.000E+00
CGA:   2    -0.613899736206E+03   -0.14836E-01   -0.14833E-01  1824   0.245E-01-0.213E-03
CGA:   3    -0.613907217578E+03   -0.74814E-02   -0.74641E-02  1824   0.772E-02 0.183E-03
CGA:   4    -0.613908700073E+03   -0.14825E-02   -0.14855E-02  1824   0.185E-02 0.695E-04
CGA:   5    -0.613909151454E+03   -0.45138E-03   -0.45249E-03  1824   0.605E-03-0.805E-04
CGA:   6    -0.613909278423E+03   -0.12697E-03   -0.12707E-03  1824   0.204E-03 0.110E-04
CGA:   7    -0.613909322823E+03   -0.44400E-04   -0.44490E-04  1824   0.775E-04 0.655E-05
CGA:   8    -0.613909339630E+03   -0.16808E-04   -0.16904E-04  1824   0.226E-04 0.593E-05
CGA:   9    -0.613909348147E+03   -0.85168E-05   -0.93953E-05  1824   0.155E-04-0.555E-05
  14 F= -.61390935E+03 E0= -.61390884E+03  d E =-.752240E-03  mag=    -0.0000
       N       E                     dE             d eps       ncg     rms          ort
SDA:   1    -0.612972663739E+03    0.93668E+00    0.00000E+00  1824   0.404E+01 0.000E+00
CGA:   2    -0.613505601727E+03   -0.53294E+00   -0.53330E+00  1824   0.108E+01-0.469E-02
CGA:   3    -0.613816875435E+03   -0.31127E+00   -0.31097E+00  1824   0.299E+00 0.367E-02
CGA:   4    -0.613877900464E+03   -0.61025E-01   -0.61041E-01  1824   0.826E-01 0.171E-03
CGA:   5    -0.613897201865E+03   -0.19301E-01   -0.19304E-01  1824   0.227E-01-0.555E-03
CGA:   6    -0.613902596143E+03   -0.53943E-02   -0.53936E-02  1824   0.826E-02 0.635E-04
CGA:   7    -0.613904514836E+03   -0.19187E-02   -0.19186E-02  1824   0.339E-02 0.676E-04
CGA:   8    -0.613905185351E+03   -0.67052E-03   -0.67116E-03  1824   0.103E-02 0.178E-04
CGA:   9    -0.613905492581E+03   -0.30723E-03   -0.30953E-03  1824   0.428E-03-0.329E-04
CGA:  10    -0.613905596831E+03   -0.10425E-03   -0.10411E-03  1824   0.172E-03 0.684E-05
CGA:  11    -0.613905642124E+03   -0.45293E-04   -0.45298E-04  1824   0.833E-04-0.249E-06
CGA:  12    -0.613905664990E+03   -0.22866E-04   -0.23220E-04  1824   0.394E-04-0.788E-05
CGA:  13    -0.613905674675E+03   -0.96853E-05   -0.10077E-04  1824   0.237E-04-0.848E-05
  15 F= -.61390567E+03 E0= -.61390523E+03  d E =0.367347E-02  mag=    -0.0000
       N       E                     dE             d eps       ncg     rms          ort
SDA:   1    -0.608196416638E+03    0.57092E+01    0.00000E+00  1824   0.304E+02 0.000E+00
CGA:   2    -0.611767199154E+03   -0.35708E+01   -0.35894E+01  1824   0.528E+01 0.522E-02
CGA:   3    -0.613328133946E+03   -0.15609E+01   -0.15599E+01  1824   0.202E+01 0.522E-02
CGA:   4    -0.613685128121E+03   -0.35699E+00   -0.35662E+00  1824   0.493E+00-0.453E-02
CGA:   5    -0.613785253112E+03   -0.10012E+00   -0.10019E+00  1824   0.147E+00 0.158E-02
CGA:   6    -0.613817781499E+03   -0.32528E-01   -0.32533E-01  1824   0.509E-01 0.695E-03
CGA:   7    -0.613830128361E+03   -0.12347E-01   -0.12350E-01  1824   0.182E-01-0.287E-03
CGA:   8    -0.613834535348E+03   -0.44070E-02   -0.44068E-02  1824   0.701E-02 0.148E-04
CGA:   9    -0.613836165384E+03   -0.16300E-02   -0.16294E-02  1824   0.300E-02 0.280E-03
CGA:  10    -0.613836955996E+03   -0.79061E-03   -0.78764E-03  1824   0.115E-02 0.135E-03
CGA:  11    -0.613837294411E+03   -0.33841E-03   -0.33475E-03  1824   0.568E-03 0.752E-04
CGA:  12    -0.613837441249E+03   -0.14684E-03   -0.14639E-03  1824   0.241E-03 0.550E-04
CGA:  13    -0.613837502093E+03   -0.60845E-04   -0.60999E-04  1824   0.862E-04 0.449E-04
CGA:  14    -0.613837530848E+03   -0.28755E-04   -0.27990E-04  1824   0.335E-04 0.191E-04
CGA:  15    -0.613837539933E+03   -0.90846E-05   -0.92228E-05  1824   0.140E-04 0.131E-04
  16 F= -.61383754E+03 E0= -.61383701E+03  d E =0.681347E-01  mag=    -0.0000
       N       E                     dE             d eps       ncg     rms          ort
SDA:   1    -0.612830378005E+03    0.10072E+01    0.00000E+00  1824   0.608E+01 0.000E+00
CGA:   2    -0.613540580424E+03   -0.71020E+00   -0.71038E+00  1824   0.925E+00-0.842E-02
CGA:   3    -0.613800508893E+03   -0.25993E+00   -0.25953E+00  1824   0.316E+00 0.571E-02
CGA:   4    -0.613865723259E+03   -0.65214E-01   -0.65251E-01  1824   0.809E-01 0.114E-02
CGA:   5    -0.613882505360E+03   -0.16782E-01   -0.16763E-01  1824   0.216E-01-0.821E-03
CGA:   6    -0.613887458103E+03   -0.49527E-02   -0.49535E-02  1824   0.894E-02-0.237E-03
CGA:   7    -0.613889294694E+03   -0.18366E-02   -0.18384E-02  1824   0.285E-02 0.868E-04
CGA:   8    -0.613889995733E+03   -0.70104E-03   -0.70006E-03  1824   0.999E-03 0.601E-04
CGA:   9    -0.613890314398E+03   -0.31867E-03   -0.31999E-03  1824   0.450E-03-0.168E-04
CGA:  10    -0.613890417431E+03   -0.10303E-03   -0.10303E-03  1824   0.219E-03-0.464E-05
CGA:  11    -0.613890477984E+03   -0.60553E-04   -0.62594E-04  1824   0.126E-03-0.363E-04
CGA:  12    -0.613890508358E+03   -0.30374E-04   -0.32298E-04  1824   0.651E-04-0.269E-04
CGA:  13    -0.613890519587E+03   -0.11229E-04   -0.11186E-04  1824   0.240E-04-0.215E-05
CGA:  14    -0.613890523805E+03   -0.42181E-05   -0.45370E-05  1824   0.752E-05 0.756E-05
  17 F= -.61389052E+03 E0= -.61389005E+03  d E =-.529839E-01  mag=     0.0000
       N       E                     dE             d eps       ncg     rms          ort
SDA:   1    -0.613670239618E+03    0.22028E+00    0.00000E+00  1824   0.128E+01 0.000E+00
CGA:   2    -0.613819625055E+03   -0.14939E+00   -0.14938E+00  1824   0.196E+00-0.175E-02
CGA:   3    -0.613876048913E+03   -0.56424E-01   -0.56318E-01  1824   0.697E-01 0.135E-02
CGA:   4    -0.613889667737E+03   -0.13619E-01   -0.13633E-01  1824   0.172E-01 0.319E-03
CGA:   5    -0.613893217414E+03   -0.35497E-02   -0.35403E-02  1824   0.500E-02-0.385E-03
CGA:   6    -0.613894316973E+03   -0.10996E-02   -0.10990E-02  1824   0.196E-02-0.154E-03
CGA:   7    -0.613894722068E+03   -0.40510E-03   -0.40549E-03  1824   0.573E-03 0.264E-04
CGA:   8    -0.613894864890E+03   -0.14282E-03   -0.14228E-03  1824   0.195E-03 0.310E-04
CGA:   9    -0.613894932545E+03   -0.67655E-04   -0.68909E-04  1824   0.109E-03-0.120E-04
CGA:  10    -0.613894956313E+03   -0.23768E-04   -0.23756E-04  1824   0.531E-04-0.614E-05
CGA:  11    -0.613894971222E+03   -0.14910E-04   -0.18346E-04  1824   0.531E-04-0.259E-04
CGA:  12    -0.613894977544E+03   -0.63218E-05   -0.93663E-05  1824   0.426E-04-0.291E-04
  18 F= -.61389498E+03 E0= -.61389453E+03  d E =-.445374E-02  mag=    -0.0000
       N       E                     dE             d eps       ncg     rms          ort
SDA:   1    -0.613876302125E+03    0.18669E-01    0.00000E+00  1824   0.867E-01 0.000E+00
CGA:   2    -0.613886739501E+03   -0.10437E-01   -0.10463E-01  1824   0.160E-01 0.794E-04
CGA:   3    -0.613891526663E+03   -0.47872E-02   -0.47842E-02  1824   0.536E-02 0.166E-04
CGA:   4    -0.613892551230E+03   -0.10246E-02   -0.10241E-02  1824   0.132E-02-0.156E-04
CGA:   5    -0.613892862544E+03   -0.31131E-03   -0.31145E-03  1824   0.480E-03-0.115E-03
CGA:   6    -0.613892952436E+03   -0.89892E-04   -0.89584E-04  1824   0.156E-03-0.998E-05
CGA:   7    -0.613892982062E+03   -0.29626E-04   -0.30166E-04  1824   0.459E-04 0.144E-04
CGA:   8    -0.613892993390E+03   -0.11327E-04   -0.11376E-04  1824   0.133E-04 0.861E-05
CGA:   9    -0.613892999435E+03   -0.60451E-05   -0.69659E-05  1824   0.136E-04-0.445E-05
  19 F= -.61389300E+03 E0= -.61389257E+03  d E =0.197811E-02  mag=    -0.0000
       N       E                     dE             d eps       ncg     rms          ort
SDA:   1    -0.613811695849E+03    0.81298E-01    0.00000E+00  1824   0.351E+00 0.000E+00
CGA:   2    -0.613855920477E+03   -0.44225E-01   -0.44296E-01  1824   0.785E-01 0.705E-04
CGA:   3    -0.613879000805E+03   -0.23080E-01   -0.23075E-01  1824   0.237E-01-0.259E-04
CGA:   4    -0.613883666255E+03   -0.46655E-02   -0.46621E-02  1824   0.641E-02-0.106E-03
CGA:   5    -0.613885120175E+03   -0.14539E-02   -0.14531E-02  1824   0.202E-02-0.111E-03
CGA:   6    -0.613885531828E+03   -0.41165E-03   -0.41233E-03  1824   0.717E-03 0.239E-04
CGA:   7    -0.613885692799E+03   -0.16097E-03   -0.16122E-03  1824   0.265E-03 0.212E-04
CGA:   8    -0.613885758269E+03   -0.65469E-04   -0.65424E-04  1824   0.805E-04 0.686E-05
CGA:   9    -0.613885785270E+03   -0.27001E-04   -0.27973E-04  1824   0.508E-04-0.930E-05
CGA:  10    -0.613885793681E+03   -0.84117E-05   -0.85958E-05  1824   0.188E-04 0.388E-05
  20 F= -.61388579E+03 E0= -.61388538E+03  d E =0.720575E-02  mag=    -0.0000
       N       E                     dE             d eps       ncg     rms          ort
SDA:   1    -0.613837728326E+03    0.48057E-01    0.00000E+00  1824   0.209E+00 0.000E+00
CGA:   2    -0.613863940940E+03   -0.26213E-01   -0.26222E-01  1824   0.480E-01-0.251E-03
CGA:   3    -0.613878092390E+03   -0.14151E-01   -0.14130E-01  1824   0.143E-01 0.273E-03
CGA:   4    -0.613880942939E+03   -0.28505E-02   -0.28513E-02  1824   0.372E-02 0.567E-05
CGA:   5    -0.613881815571E+03   -0.87263E-03   -0.87302E-03  1824   0.116E-02-0.108E-03
CGA:   6    -0.613882064280E+03   -0.24871E-03   -0.24875E-03  1824   0.419E-03 0.411E-05
CGA:   7    -0.613882154179E+03   -0.89899E-04   -0.90171E-04  1824   0.157E-03 0.167E-04
CGA:   8    -0.613882191890E+03   -0.37712E-04   -0.37711E-04  1824   0.496E-04 0.805E-06
CGA:   9    -0.613882208836E+03   -0.16945E-04   -0.18238E-04  1824   0.336E-04-0.953E-05
CGA:  10    -0.613882214319E+03   -0.54836E-05   -0.54622E-05  1824   0.133E-04-0.611E-06
  21 F= -.61388221E+03 E0= -.61388181E+03  d E =0.357936E-02  mag=    -0.0000
       N       E                     dE             d eps       ncg     rms          ort
SDA:   1    -0.612759764122E+03    0.11224E+01    0.00000E+00  1824   0.512E+01 0.000E+00
CGA:   2    -0.613405554723E+03   -0.64579E+00   -0.64608E+00  1824   0.121E+01-0.599E-02
CGA:   3    -0.613768344685E+03   -0.36279E+00   -0.36243E+00  1824   0.343E+00 0.372E-02
CGA:   4    -0.613835953738E+03   -0.67609E-01   -0.67624E-01  1824   0.920E-01-0.171E-04
CGA:   5    -0.613857320018E+03   -0.21366E-01   -0.21366E-01  1824   0.258E-01 0.172E-03
CGA:   6    -0.613863180567E+03   -0.58605E-02   -0.58605E-02  1824   0.101E-01-0.175E-04
CGA:   7    -0.613865410286E+03   -0.22297E-02   -0.22300E-02  1824   0.403E-02 0.296E-04
CGA:   8    -0.613866277012E+03   -0.86673E-03   -0.86628E-03  1824   0.117E-02-0.302E-04
CGA:   9    -0.613866631508E+03   -0.35450E-03   -0.35425E-03  1824   0.492E-03 0.286E-05
CGA:  10    -0.613866754546E+03   -0.12304E-03   -0.12297E-03  1824   0.233E-03 0.434E-05
CGA:  11    -0.613866809796E+03   -0.55250E-04   -0.55238E-04  1824   0.100E-03 0.846E-05
CGA:  12    -0.613866840750E+03   -0.30954E-04   -0.31479E-04  1824   0.444E-04-0.760E-05
CGA:  13    -0.613866850703E+03   -0.99533E-05   -0.99531E-05  1824   0.201E-04 0.315E-07
  22 F= -.61386685E+03 E0= -.61386647E+03  d E =0.153636E-01  mag=    -0.0000
       N       E                     dE             d eps       ncg     rms          ort
SDA:   1    -0.612187314769E+03    0.16795E+01    0.00000E+00  1824   0.803E+01 0.000E+00
CGA:   2    -0.613173154208E+03   -0.98584E+00   -0.98673E+00  1824   0.172E+01-0.874E-02
CGA:   3    -0.613701872035E+03   -0.52872E+00   -0.52824E+00  1824   0.522E+00 0.439E-02
CGA:   4    -0.613800969462E+03   -0.99097E-01   -0.99116E-01  1824   0.134E+00-0.276E-03
CGA:   5    -0.613831738460E+03   -0.30769E-01   -0.30770E-01  1824   0.411E-01 0.192E-03
CGA:   6    -0.613840457215E+03   -0.87188E-02   -0.87183E-02  1824   0.155E-01-0.123E-04
CGA:   7    -0.613843933758E+03   -0.34765E-02   -0.34763E-02  1824   0.593E-02-0.432E-04
CGA:   8    -0.613845290341E+03   -0.13566E-02   -0.13566E-02  1824   0.169E-02 0.170E-04
CGA:   9    -0.613845789406E+03   -0.49906E-03   -0.49757E-03  1824   0.775E-03 0.231E-04
CGA:  10    -0.613845973029E+03   -0.18362E-03   -0.18363E-03  1824   0.352E-03 0.613E-05
CGA:  11    -0.613846062561E+03   -0.89532E-04   -0.89498E-04  1824   0.154E-03 0.177E-05
CGA:  12    -0.613846106224E+03   -0.43662E-04   -0.43679E-04  1824   0.627E-04-0.457E-06
CGA:  13    -0.613846121680E+03   -0.15456E-04   -0.15442E-04  1824   0.275E-04 0.149E-05
CGA:  14    -0.613846128059E+03   -0.63795E-05   -0.64107E-05  1824   0.898E-05 0.305E-05
  23 F= -.61384613E+03 E0= -.61384579E+03  d E =0.207226E-01  mag=    -0.0000
       N       E                     dE             d eps       ncg     rms          ort
SDA:   1    -0.613493161412E+03    0.35296E+00    0.00000E+00  1824   0.185E+01 0.000E+00
CGA:   2    -0.613720195478E+03   -0.22703E+00   -0.22701E+00  1824   0.361E+00-0.295E-02
CGA:   3    -0.613821177865E+03   -0.10098E+00   -0.10086E+00  1824   0.116E+00 0.201E-02
CGA:   4    -0.613845528791E+03   -0.24351E-01   -0.24361E-01  1824   0.316E-01 0.289E-03
CGA:   5    -0.613852211926E+03   -0.66831E-02   -0.66756E-02  1824   0.863E-02-0.341E-03
CGA:   6    -0.613854237411E+03   -0.20255E-02   -0.20261E-02  1824   0.372E-02-0.128E-03
CGA:   7    -0.613854988989E+03   -0.75158E-03   -0.75306E-03  1824   0.121E-02 0.541E-04
CGA:   8    -0.613855285908E+03   -0.29692E-03   -0.29673E-03  1824   0.404E-03 0.189E-04
CGA:   9    -0.613855412846E+03   -0.12694E-03   -0.12721E-03  1824   0.166E-03-0.401E-05
CGA:  10    -0.613855455873E+03   -0.43027E-04   -0.43259E-04  1824   0.947E-04-0.824E-05
CGA:  11    -0.613855479350E+03   -0.23477E-04   -0.24018E-04  1824   0.535E-04-0.182E-04
CGA:  12    -0.613855491250E+03   -0.11900E-04   -0.12370E-04  1824   0.219E-04-0.986E-05
CGA:  13    -0.613855495228E+03   -0.39773E-05   -0.40037E-05  1824   0.720E-05 0.158E-05
  24 F= -.61385550E+03 E0= -.61385514E+03  d E =-.936717E-02  mag=     0.0000
       N       E                     dE             d eps       ncg     rms          ort
SDA:   1    -0.613744940169E+03    0.11055E+00    0.00000E+00  1824   0.552E+00 0.000E+00
CGA:   2    -0.613813537883E+03   -0.68598E-01   -0.68706E-01  1824   0.124E+00 0.367E-04
CGA:   3    -0.613850679194E+03   -0.37141E-01   -0.37168E-01  1824   0.380E-01-0.531E-03
CGA:   4    -0.613858200298E+03   -0.75211E-02   -0.75154E-02  1824   0.972E-02-0.201E-03
CGA:   5    -0.613860359957E+03   -0.21597E-02   -0.21614E-02  1824   0.272E-02 0.171E-03
CGA:   6    -0.613861003902E+03   -0.64395E-03   -0.64395E-03  1824   0.102E-02 0.113E-04
CGA:   7    -0.613861239262E+03   -0.23536E-03   -0.23528E-03  1824   0.446E-03-0.210E-04
CGA:   8    -0.613861328590E+03   -0.89328E-04   -0.89486E-04  1824   0.126E-03 0.524E-05
CGA:   9    -0.613861361487E+03   -0.32896E-04   -0.32491E-04  1824   0.410E-04 0.169E-04
CGA:  10    -0.613861375850E+03   -0.14364E-04   -0.14227E-04  1824   0.184E-04 0.186E-05
CGA:  11    -0.613861380904E+03   -0.50532E-05   -0.49846E-05  1824   0.887E-05 0.303E-05
  25 F= -.61386138E+03 E0= -.61386101E+03  d E =-.588568E-02  mag=     0.0000
       N       E                     dE             d eps       ncg     rms          ort
SDA:   1    -0.613845957684E+03    0.15418E-01    0.00000E+00  1824   0.904E-01 0.000E+00
CGA:   2    -0.613856472814E+03   -0.10515E-01   -0.10519E-01  1824   0.154E-01-0.116E-03
CGA:   3    -0.613861309533E+03   -0.48367E-02   -0.48325E-02  1824   0.532E-02 0.248E-04
CGA:   4    -0.613862306552E+03   -0.99702E-03   -0.99730E-03  1824   0.113E-02-0.192E-05
CGA:   5    -0.613862544440E+03   -0.23789E-03   -0.23928E-03  1824   0.299E-03 0.727E-04
CGA:   6    -0.613862620069E+03   -0.75630E-04   -0.75475E-04  1824   0.105E-03 0.211E-04
CGA:   7    -0.613862649328E+03   -0.29259E-04   -0.29534E-04  1824   0.571E-04-0.889E-05
CGA:   8    -0.613862660779E+03   -0.11451E-04   -0.11363E-04  1824   0.219E-04-0.604E-05
CGA:   9    -0.613862664487E+03   -0.37085E-05   -0.38622E-05  1824   0.634E-05 0.450E-05
  26 F= -.61386266E+03 E0= -.61386229E+03  d E =-.128358E-02  mag=    -0.0000
