       N       E                     dE             d eps       ncg     rms          rms(c)
DAV:   1     0.109057522112E+05    0.10906E+05   -0.43232E+05 35550   0.162E+03
DAV:   2     0.824807532970E+03   -0.10081E+05   -0.93031E+04 33120   0.474E+02
DAV:   3    -0.692122690099E+03   -0.15169E+04   -0.13664E+04 35750   0.188E+02
DAV:   4    -0.784554950962E+03   -0.92432E+02   -0.90994E+02 36510   0.448E+01
DAV:   5    -0.785772838458E+03   -0.12179E+01   -0.12152E+01 35970   0.560E+00    0.384E-01
DAV:   6    -0.785800432771E+03   -0.27594E-01   -0.27946E-01 37030   0.813E-01    0.412E-01
DAV:   7    -0.785801070091E+03   -0.63732E-03   -0.11046E-02 36160   0.198E-01    0.193E-01
DAV:   8    -0.785801111212E+03   -0.41120E-04   -0.91817E-04 36480   0.511E-02    0.123E-01
DAV:   9    -0.785801107700E+03    0.35120E-05   -0.42423E-05 30570   0.111E-02
   1 F= -.78580111E+03 E0= -.78580111E+03  d E =-.785801E+03  mag=   126.0000
