       N       E                     dE             d eps       ncg     rms          ort
DAV:   1     0.827963847532E+04    0.82796E+04   -0.24657E+05  8424   0.238E+03
DAV:   2     0.923009792225E+03   -0.73566E+04   -0.69053E+04  8424   0.657E+02
DAV:   3    -0.672162851313E+03   -0.15952E+04   -0.14021E+04  8424   0.283E+02
DAV:   4    -0.829026636475E+03   -0.15686E+03   -0.15406E+03  8424   0.861E+01
DAV:   5    -0.831537872379E+03   -0.25112E+01   -0.25000E+01  8424   0.122E+01
SDA:   6    -0.232127782999E+03    0.59941E+03   -0.25000E+01  8424   0.494E+04 0.000E+00
CGA:   7    -0.466339799365E+03   -0.23421E+03   -0.43558E+03  8424   0.953E+04-0.192E+04
CGA:   8    -0.555507827063E+03   -0.89168E+02   -0.26556E+03  8424   0.849E+03-0.192E+04
CGA:   9    -0.567710284957E+03   -0.12202E+02   -0.33035E+02  8424   0.238E+04-0.907E+03
CGA:  10    -0.584707850276E+03   -0.16998E+02   -0.14227E+03  8424   0.858E+03-0.368E+03
CGA:  11    -0.622231082403E+03   -0.37523E+02   -0.21550E+02  8424   0.442E+03 0.694E+03
CGA:  12    -0.633021410976E+03   -0.10790E+02   -0.12820E+02  8424   0.444E+03-0.474E+03
CGA:  13    -0.627125123621E+03    0.58963E+01   -0.28325E+02  8424   0.401E+03-0.934E+02
CGA:  14    -0.637988475886E+03   -0.10863E+02   -0.51009E+01  8424   0.457E+03 0.543E+03
CGA:  15    -0.647672522624E+03   -0.96840E+01   -0.88239E+01  8424   0.112E+03-0.189E+03
CGA:  16    -0.650617342414E+03   -0.29448E+01   -0.49456E+01  8424   0.132E+03-0.415E+01
CGA:  17    -0.653983049072E+03   -0.33657E+01   -0.31755E+01  8424   0.938E+02-0.238E+01
CGA:  18    -0.653809475523E+03    0.17357E+00   -0.46031E+01  8424   0.170E+03-0.440E+02
CGA:  19    -0.655199395874E+03   -0.13899E+01   -0.31625E+01  8424   0.271E+03-0.118E+03
CGA:  20    -0.656291407671E+03   -0.10920E+01   -0.15216E+02  8424   0.148E+03-0.832E+02
CGA:  21    -0.659456190581E+03   -0.31648E+01   -0.31949E+01  8424   0.433E+02-0.518E+01
CGA:  22    -0.660163621972E+03   -0.70743E+00   -0.71306E+00  8424   0.399E+02-0.906E+01
CGA:  23    -0.660575620174E+03   -0.41200E+00   -0.23055E+00  8424   0.409E+02 0.241E+02
CGA:  24    -0.660752414098E+03   -0.17679E+00   -0.14606E+01  8424   0.388E+02-0.137E+02
CGA:  25    -0.661322047562E+03   -0.56963E+00   -0.37074E+00  8424   0.205E+02 0.126E+02
CGA:  26    -0.661682408197E+03   -0.36036E+00   -0.38030E+00  8424   0.107E+02-0.521E+01
CGA:  27    -0.661794038784E+03   -0.11163E+00   -0.12299E+00  8424   0.157E+02-0.402E+00
CGA:  28    -0.662068469450E+03   -0.27443E+00   -0.42470E+00  8424   0.255E+02-0.197E+01
CGA:  29    -0.662627936021E+03   -0.55947E+00   -0.53193E+00  8424   0.126E+02 0.185E+01
CGA:  30    -0.662798584306E+03   -0.17065E+00   -0.44152E+00  8424   0.727E+01-0.508E+01
CGA:  31    -0.662982362153E+03   -0.18378E+00   -0.18782E+00  8424   0.555E+01 0.697E-01
CGA:  32    -0.663186325702E+03   -0.20396E+00   -0.25143E+00  8424   0.255E+01-0.194E+00
CGA:  33    -0.663374904085E+03   -0.18858E+00   -0.18936E+00  8424   0.107E+01 0.539E+00
CGA:  34    -0.663466606692E+03   -0.91703E-01   -0.90740E-01  8424   0.187E+01-0.238E-01
CGA:  35    -0.663537650604E+03   -0.71044E-01   -0.65297E-01  8424   0.158E+01 0.613E-01
CGA:  36    -0.663660842179E+03   -0.12319E+00   -0.12285E+00  8424   0.173E+01 0.369E+00
CGA:  37    -0.663738357755E+03   -0.77516E-01   -0.82017E-01  8424   0.172E+01-0.798E-01
CGA:  38    -0.663870836778E+03   -0.13248E+00   -0.13172E+00  8424   0.305E+01 0.560E-01
CGA:  39    -0.663980290010E+03   -0.10945E+00   -0.10004E+00  8424   0.156E+01 0.134E+00
CGA:  40    -0.664043205393E+03   -0.62915E-01   -0.61568E-01  8424   0.139E+01-0.195E-01
CGA:  41    -0.664093874067E+03   -0.50669E-01   -0.49714E-01  8424   0.138E+01-0.241E-01
CGA:  42    -0.664139811285E+03   -0.45937E-01   -0.47994E-01  8424   0.144E+01-0.476E-01
CGA:  43    -0.664193084223E+03   -0.53273E-01   -0.55427E-01  8424   0.142E+01-0.344E-01
CGA:  44    -0.664240160490E+03   -0.47076E-01   -0.51062E-01  8424   0.985E+00-0.754E-01
CGA:  45    -0.664280829399E+03   -0.40669E-01   -0.44759E-01  8424   0.607E+00 0.476E-01
CGA:  46    -0.664335551120E+03   -0.54722E-01   -0.54749E-01  8424   0.398E+00-0.103E-01
CGA:  47    -0.664383159303E+03   -0.47608E-01   -0.48582E-01  8424   0.460E+00-0.142E-01
CGA:  48    -0.664437973619E+03   -0.54814E-01   -0.55469E-01  8424   0.404E+00-0.108E-01
CGA:  49    -0.664479875685E+03   -0.41902E-01   -0.42411E-01  8424   0.304E+00-0.128E-01
CGA:  50    -0.664513379555E+03   -0.33504E-01   -0.33368E-01  8424   0.259E+00 0.362E-02
CGA:  51    -0.664541634262E+03   -0.28255E-01   -0.28050E-01  8424   0.194E+00 0.683E-02
CGA:  52    -0.664563983888E+03   -0.22350E-01   -0.22282E-01  8424   0.170E+00 0.310E-02
CGA:  53    -0.664583955844E+03   -0.19972E-01   -0.19889E-01  8424   0.144E+00 0.379E-02
SDA:  54    -0.664599882568E+03   -0.15927E-01   -0.15791E-01  8424   0.971E-01 0.514E-02
CGA:  55    -0.664621460959E+03   -0.21578E-01   -0.21285E-01  8424   0.532E-01 0.212E-02
CGA:  56    -0.664644150391E+03   -0.22689E-01   -0.21965E-01  8424   0.211E-01 0.263E-02
CGA:  57    -0.664652801289E+03   -0.86509E-02   -0.81315E-02  8424   0.153E-01 0.199E-02
CGA:  58    -0.664657266418E+03   -0.44651E-02   -0.37894E-02  8424   0.681E-02 0.615E-02
CGA:  59    -0.664661402498E+03   -0.41361E-02   -0.32843E-02  8424   0.678E-02 0.381E-02
CGA:  60    -0.664663170210E+03   -0.17677E-02   -0.34990E-02  8424   0.220E-01-0.454E-02
CGA:  61    -0.664666147340E+03   -0.29771E-02   -0.30225E-02  8424   0.302E-02 0.298E-02
CGA:  62    -0.664667741523E+03   -0.15942E-02   -0.12330E-02  8424   0.478E-02 0.172E-02
CGA:  63    -0.664669053009E+03   -0.13115E-02   -0.26193E-02  8424   0.173E-01-0.340E-02
CGA:  64    -0.664671472243E+03   -0.24192E-02   -0.25117E-02  8424   0.244E-02 0.260E-02
CGA:  65    -0.664672952909E+03   -0.14807E-02   -0.11751E-02  8424   0.457E-02 0.126E-02
CGA:  66    -0.664674380553E+03   -0.14276E-02   -0.22223E-02  8424   0.112E-01-0.270E-02
CGA:  67    -0.664676084697E+03   -0.17041E-02   -0.17939E-02  8424   0.204E-02 0.197E-02
CGA:  68    -0.664677673214E+03   -0.15885E-02   -0.12502E-02  8424   0.474E-02 0.105E-02
CGA:  69    -0.664679212006E+03   -0.15388E-02   -0.19926E-02  8424   0.729E-02-0.227E-02
CGA:  70    -0.664684937976E+03   -0.57260E-02   -0.37655E-03  8424   0.346E-01 0.422E-04
CGA:  71    -0.664704878778E+03   -0.19941E-01   -0.20125E-01  8424   0.251E-01-0.265E-02
CGA:  72    -0.664714391387E+03   -0.95126E-02   -0.93853E-02  8424   0.172E-01-0.633E-02
CGA:  73    -0.664719848738E+03   -0.54574E-02   -0.54553E-02  8424   0.122E-01-0.281E-02
CGA:  74    -0.664723966826E+03   -0.41181E-02   -0.40807E-02  8424   0.972E-02-0.190E-02
CGA:  75    -0.664726643739E+03   -0.26769E-02   -0.71265E-02  8424   0.540E-01-0.108E-01
CGA:  76    -0.664734680451E+03   -0.80367E-02   -0.85384E-02  8424   0.315E-02 0.178E-02
CGA:  77    -0.664735665055E+03   -0.98460E-03   -0.90230E-03  8424   0.199E-02-0.529E-03
CGA:  78    -0.664737585095E+03   -0.19200E-02    0.95408E-03  8424   0.165E-02 0.849E-03
CGA:  79    -0.664740158364E+03   -0.25733E-02    0.17223E-02  8424   0.153E-02 0.831E-03
CGA:  80    -0.664740825871E+03   -0.66751E-03   -0.76282E-03  8424   0.500E-02-0.128E-02
CGA:  81    -0.664741865143E+03   -0.10393E-02   -0.88320E-03  8424   0.113E-02-0.660E-03
CGA:  82    -0.664743203543E+03   -0.13384E-02    0.31733E-03  8424   0.118E-02 0.315E-03
CGA:  83    -0.664745532039E+03   -0.23285E-02    0.36755E-03  8424   0.656E-03 0.121E-02
CGA:  84    -0.664746638408E+03   -0.11064E-02    0.13268E-03  8424   0.879E-03 0.359E-03
CGA:  85    -0.664747420159E+03   -0.78175E-03    0.26475E-02  8424   0.194E-02-0.126E-03
CGA:  86    -0.664750583564E+03   -0.31634E-02    0.26814E-03  8424   0.268E-02 0.145E-02
CGA:  87    -0.664751649915E+03   -0.10664E-02   -0.88561E-03  8424   0.407E-02-0.214E-02
CGA:  88    -0.664752309677E+03   -0.65976E-03   -0.65101E-03  8424   0.682E-03-0.311E-04
CGA:  89    -0.664753384054E+03   -0.10744E-02    0.13629E-03  8424   0.892E-03 0.474E-03
CGA:  90    -0.664754535015E+03   -0.11510E-02    0.28875E-03  8424   0.199E-02-0.197E-03
CGA:  91    -0.664757761593E+03   -0.32266E-02    0.19361E-03  8424   0.319E-02 0.131E-02
CGA:  92    -0.664758253308E+03   -0.49171E-03   -0.52306E-03  8424   0.606E-03 0.132E-03
CGA:  93    -0.664759400776E+03   -0.11475E-02    0.90610E-04  8424   0.789E-03 0.504E-03
CGA:  94    -0.664760473370E+03   -0.10726E-02    0.20245E-03  8424   0.135E-02 0.310E-04
CGA:  95    -0.664763187132E+03   -0.27138E-02    0.18032E-03  8424   0.134E-02 0.125E-02
CGA:  96    -0.664763725160E+03   -0.53803E-03   -0.57660E-03  8424   0.289E-02-0.926E-03
CGA:  97    -0.664764849033E+03   -0.11239E-02   -0.11346E-02  8424   0.600E-02-0.311E-02
CGA:  98    -0.664765710342E+03   -0.86131E-03   -0.94133E-03  8424   0.521E-03 0.350E-03
CGA:  99    -0.664766720202E+03   -0.10099E-02    0.73119E-04  8424   0.652E-03 0.433E-03
CGA: 100    -0.664767791807E+03   -0.10716E-02    0.10491E-03  8424   0.742E-03 0.264E-03
CGA: 101    -0.664769842829E+03   -0.20510E-02    0.12276E-03  8424   0.651E-03 0.998E-03
CGA: 102    -0.664770736789E+03   -0.89396E-03    0.15093E-03  8424   0.642E-03 0.278E-03
CGA: 103    -0.664772680971E+03   -0.19442E-02    0.95624E-04  8424   0.639E-03 0.885E-03
CGA: 104    -0.664773677523E+03   -0.99655E-03    0.11334E-03  8424   0.556E-03 0.303E-03
CGA: 105    -0.664775445001E+03   -0.17675E-02    0.83654E-04  8424   0.606E-03 0.796E-03
CGA: 106    -0.664776405348E+03   -0.96035E-03    0.10461E-03  8424   0.503E-03 0.322E-03
CGA: 107    -0.664777374197E+03   -0.96885E-03    0.61243E-04  8424   0.464E-03 0.377E-03
CGA: 108    -0.664778284777E+03   -0.91058E-03    0.54885E-04  8424   0.469E-03 0.384E-03
CGA: 109    -0.664779259600E+03   -0.97482E-03    0.50667E-04  8424   0.551E-03 0.341E-03
CGA: 110    -0.664780070253E+03   -0.81065E-03    0.10989E-03  8424   0.917E-03 0.157E-03
CGA: 111    -0.664782616936E+03   -0.25467E-02    0.11998E-03  8424   0.565E-03 0.110E-02
CGA: 112    -0.664783601348E+03   -0.98441E-03    0.81993E-04  8424   0.895E-03 0.120E-03
CGA: 113    -0.664785977879E+03   -0.23765E-02    0.10783E-03  8424   0.699E-03 0.946E-03
CGA: 114    -0.664786736076E+03   -0.75820E-03    0.30424E-03  8424   0.781E-03 0.319E-04
CGA: 115    -0.664788662726E+03   -0.19266E-02    0.72690E-04  8424   0.818E-03 0.691E-03
CGA: 116    -0.664789655998E+03   -0.99327E-03    0.25448E-03  8424   0.711E-03-0.268E-04
CGA: 117    -0.664791280912E+03   -0.16249E-02    0.61036E-04  8424   0.727E-03 0.605E-03
CGA: 118    -0.664792115295E+03   -0.83438E-03    0.26467E-03  8424   0.586E-03 0.589E-04
CGA: 119    -0.664793697345E+03   -0.15821E-02    0.51966E-04  8424   0.637E-03 0.544E-03
CGA: 120    -0.664794581914E+03   -0.88457E-03    0.14345E-03  8424   0.521E-03 0.116E-03
CGA: 121    -0.664796118979E+03   -0.15371E-02    0.50597E-04  8424   0.589E-03 0.506E-03
CGA: 122    -0.664796947673E+03   -0.82869E-03    0.12947E-03  8424   0.491E-03 0.128E-03
CGA: 123    -0.664798477555E+03   -0.15299E-02    0.47422E-04  8424   0.558E-03 0.481E-03
CGA: 124    -0.664799310475E+03   -0.83292E-03    0.10838E-03  8424   0.459E-03 0.135E-03
CGA: 125    -0.664800790767E+03   -0.14803E-02    0.44247E-04  8424   0.527E-03 0.458E-03
CGA: 126    -0.664801596071E+03   -0.80530E-03    0.97683E-04  8424   0.438E-03 0.136E-03
CGA: 127    -0.664803063011E+03   -0.14669E-02    0.41163E-04  8424   0.502E-03 0.442E-03
CGA: 128    -0.664803856465E+03   -0.79345E-03    0.86852E-04  8424   0.415E-03 0.136E-03
CGA: 129    -0.664805283855E+03   -0.14274E-02    0.38643E-04  8424   0.479E-03 0.425E-03
CGA: 130    -0.664806061305E+03   -0.77745E-03    0.78809E-04  8424   0.398E-03 0.133E-03
CGA: 131    -0.664807472429E+03   -0.14111E-02    0.35945E-04  8424   0.458E-03 0.411E-03
CGA: 132    -0.664808230563E+03   -0.75813E-03    0.72519E-04  8424   0.380E-03 0.131E-03
CGA: 133    -0.664809605687E+03   -0.13751E-02    0.33957E-04  8424   0.439E-03 0.395E-03
CGA: 134    -0.664810353641E+03   -0.74795E-03    0.66264E-04  8424   0.365E-03 0.127E-03
CGA: 135    -0.664811710020E+03   -0.13564E-02    0.31619E-04  8424   0.421E-03 0.382E-03
CGA: 136    -0.664812434458E+03   -0.72444E-03    0.62318E-04  8424   0.351E-03 0.123E-03
CGA: 137    -0.664813755981E+03   -0.13215E-02    0.30015E-04  8424   0.406E-03 0.367E-03
CGA: 138    -0.664814473739E+03   -0.71776E-03    0.57195E-04  8424   0.337E-03 0.119E-03
CGA: 139    -0.664815774681E+03   -0.13009E-02    0.27984E-04  8424   0.390E-03 0.354E-03
CGA: 140    -0.664816466393E+03   -0.69171E-03    0.54587E-04  8424   0.325E-03 0.115E-03
CGA: 141    -0.664817733323E+03   -0.12669E-02    0.26690E-04  8424   0.376E-03 0.340E-03
CGA: 142    -0.664818420861E+03   -0.68754E-03    0.50227E-04  8424   0.313E-03 0.111E-03
CGA: 143    -0.664819666399E+03   -0.12455E-02    0.24932E-04  8424   0.362E-03 0.327E-03
CGA: 144    -0.664820326416E+03   -0.66002E-03    0.48465E-04  8424   0.302E-03 0.107E-03
CGA: 145    -0.664821539124E+03   -0.12127E-02    0.23899E-04  8424   0.351E-03 0.315E-03
CGA: 146    -0.664822196964E+03   -0.65784E-03    0.44693E-04  8424   0.291E-03 0.103E-03
CGA: 147    -0.664823388354E+03   -0.11914E-02    0.22385E-04  8424   0.338E-03 0.304E-03
CGA: 148    -0.664824017915E+03   -0.62956E-03    0.43533E-04  8424   0.282E-03 0.996E-04
CGA: 149    -0.664825177849E+03   -0.11599E-02    0.21570E-04  8424   0.328E-03 0.293E-03
CGA: 150    -0.664825806920E+03   -0.62907E-03    0.40240E-04  8424   0.272E-03 0.960E-04
CGA: 151    -0.664826946143E+03   -0.11392E-02    0.20269E-04  8424   0.316E-03 0.283E-03
CGA: 152    -0.664827546657E+03   -0.60051E-03    0.39531E-04  8424   0.264E-03 0.929E-04
CGA: 153    -0.664828655858E+03   -0.11092E-02    0.19633E-04  8424   0.308E-03 0.273E-03
CGA: 154    -0.664829257354E+03   -0.60150E-03    0.36630E-04  8424   0.255E-03 0.898E-04
CGA: 155    -0.664830346750E+03   -0.10894E-02    0.18514E-04  8424   0.297E-03 0.264E-03
CGA: 156    -0.664830919735E+03   -0.57299E-03    0.36270E-04  8424   0.249E-03 0.870E-04
CGA: 157    -0.664831980557E+03   -0.10608E-02    0.18028E-04  8424   0.290E-03 0.256E-03
CGA: 158    -0.664832555861E+03   -0.57530E-03    0.33680E-04  8424   0.241E-03 0.843E-04
CGA: 159    -0.664833597978E+03   -0.10421E-02    0.17064E-04  8424   0.281E-03 0.248E-03
CGA: 160    -0.664834145050E+03   -0.54707E-03    0.33592E-04  8424   0.235E-03 0.819E-04
CGA: 161    -0.664835160071E+03   -0.10150E-02    0.16704E-04  8424   0.274E-03 0.241E-03
CGA: 162    -0.664835710716E+03   -0.55064E-03    0.31246E-04  8424   0.227E-03 0.797E-04
CGA: 163    -0.664836708286E+03   -0.99757E-03    0.15873E-04  8424   0.266E-03 0.234E-03
CGA: 164    -0.664837231156E+03   -0.52287E-03    0.31368E-04  8424   0.222E-03 0.778E-04
CGA: 165    -0.664838203153E+03   -0.97200E-03    0.15621E-04  8424   0.260E-03 0.228E-03
CGA: 166    -0.664838730787E+03   -0.52763E-03    0.29210E-04  8424   0.216E-03 0.761E-04
CGA: 167    -0.664839686753E+03   -0.95597E-03    0.14905E-04  8424   0.253E-03 0.223E-03
CGA: 168    -0.664840187218E+03   -0.50046E-03    0.29499E-04  8424   0.211E-03 0.746E-04
CGA: 169    -0.664841119144E+03   -0.93193E-03    0.14746E-04  8424   0.248E-03 0.217E-03
CGA: 170    -0.664841625502E+03   -0.50636E-03    0.27486E-04  8424   0.205E-03 0.733E-04
CGA: 171    -0.664842542964E+03   -0.91746E-03    0.14134E-04  8424   0.241E-03 0.213E-03
CGA: 172    -0.664843022879E+03   -0.47992E-03    0.27908E-04  8424   0.201E-03 0.723E-04
CGA: 173    -0.664843917822E+03   -0.89494E-03    0.14058E-04  8424   0.237E-03 0.209E-03
CGA: 174    -0.664844404689E+03   -0.48687E-03    0.26010E-04  8424   0.196E-03 0.716E-04
CGA: 175    -0.664845286842E+03   -0.88215E-03    0.13540E-04  8424   0.231E-03 0.205E-03
CGA: 176    -0.664845748091E+03   -0.46125E-03    0.26539E-04  8424   0.193E-03 0.711E-04
CGA: 177    -0.664846609215E+03   -0.86112E-03    0.13537E-04  8424   0.227E-03 0.202E-03
CGA: 178    -0.664847078398E+03   -0.46918E-03    0.24733E-04  8424   0.188E-03 0.708E-04
CGA: 179    -0.664847928497E+03   -0.85010E-03    0.13104E-04  8424   0.222E-03 0.200E-03
CGA: 180    -0.664848372972E+03   -0.44448E-03    0.25348E-04  8424   0.185E-03 0.708E-04
CGA: 181    -0.664849203499E+03   -0.83053E-03    0.13167E-04  8424   0.218E-03 0.197E-03
CGA: 182    -0.664849656820E+03   -0.45332E-03    0.23621E-04  8424   0.181E-03 0.710E-04
CGA: 183    -0.664850478156E+03   -0.82134E-03    0.12813E-04  8424   0.214E-03 0.196E-03
CGA: 184    -0.664850907772E+03   -0.42962E-03    0.24307E-04  8424   0.178E-03 0.714E-04
CGA: 185    -0.664851710987E+03   -0.80321E-03    0.12936E-04  8424   0.211E-03 0.194E-03
CGA: 186    -0.664852150274E+03   -0.43929E-03    0.22656E-04  8424   0.175E-03 0.720E-04
CGA: 187    -0.664852946177E+03   -0.79590E-03    0.12656E-04  8424   0.207E-03 0.194E-03
CGA: 188    -0.664853362884E+03   -0.41671E-03    0.23400E-04  8424   0.172E-03 0.728E-04
CGA: 189    -0.664854142076E+03   -0.77919E-03    0.12834E-04  8424   0.204E-03 0.193E-03
CGA: 190    -0.664854569222E+03   -0.42715E-03    0.21814E-04  8424   0.169E-03 0.739E-04
CGA: 191    -0.664855342904E+03   -0.77368E-03    0.12622E-04  8424   0.200E-03 0.193E-03
CGA: 192    -0.664855748660E+03   -0.40576E-03    0.22587E-04  8424   0.167E-03 0.752E-04
CGA: 193    -0.664856507066E+03   -0.75841E-03    0.12851E-04  8424   0.198E-03 0.193E-03
CGA: 194    -0.664856924024E+03   -0.41696E-03    0.21045E-04  8424   0.164E-03 0.767E-04
CGA: 195    -0.664857678690E+03   -0.75467E-03    0.12703E-04  8424   0.195E-03 0.194E-03
CGA: 196    -0.664858075441E+03   -0.39675E-03    0.21823E-04  8424   0.162E-03 0.785E-04
CGA: 197    -0.664858816304E+03   -0.74086E-03    0.12981E-04  8424   0.193E-03 0.195E-03
CGA: 198    -0.664859225051E+03   -0.40875E-03    0.20315E-04  8424   0.160E-03 0.805E-04
CGA: 199    -0.664859963991E+03   -0.73894E-03    0.12897E-04  8424   0.190E-03 0.197E-03
CGA: 200    -0.664860353691E+03   -0.38970E-03    0.21086E-04  8424   0.158E-03 0.828E-04
   1 F= -.66486035E+03 E0= -.66486035E+03  d E =-.664860E+03  mag=     6.0000
       N       E                     dE             d eps       ncg     rms          ort
SDA:   1    -0.664878450842E+03   -0.18487E-01    0.00000E+00  8424   0.159E-01 0.000E+00
CGA:   2    -0.664882109698E+03   -0.36589E-02   -0.35600E-02  8424   0.775E-02-0.645E-03
CGA:   3    -0.664883788001E+03   -0.16783E-02   -0.15833E-02  8424   0.269E-02-0.609E-03
CGA:   4    -0.664884404174E+03   -0.61617E-03   -0.51867E-03  8424   0.122E-02-0.638E-03
CGA:   5    -0.664884377737E+03    0.26436E-04   -0.58011E-03  8424   0.875E-02-0.227E-02
CGA:   6    -0.664885501217E+03   -0.11235E-02   -0.10593E-02  8424   0.112E-02-0.262E-03
CGA:   7    -0.664885747210E+03   -0.24599E-03   -0.68557E-03  8424   0.470E-02-0.159E-02
CGA:   8    -0.664886569790E+03   -0.82258E-03   -0.75921E-03  8424   0.788E-03-0.306E-03
CGA:   9    -0.664886045863E+03    0.52393E-03   -0.66147E-03  8424   0.982E-02-0.220E-02
CGA:  10    -0.664887702370E+03   -0.16565E-02   -0.15867E-02  8424   0.106E-02-0.313E-03
CGA:  11    -0.664887891547E+03   -0.18918E-03   -0.70774E-03  8424   0.395E-02-0.166E-02
CGA:  12    -0.664888805953E+03   -0.91441E-03   -0.86090E-03  8424   0.679E-03-0.312E-03
CGA:  13    -0.664889307917E+03   -0.50196E-03    0.23915E-02  8424   0.592E-03-0.262E-03
CGA:  14    -0.664890009663E+03   -0.70175E-03    0.45369E-04  8424   0.762E-03 0.323E-04
CGA:  15    -0.664891511156E+03   -0.15015E-02    0.10625E-03  8424   0.420E-03 0.287E-03
CGA:  16    -0.664892757868E+03   -0.12467E-02    0.60436E-04  8424   0.261E-03 0.360E-03
CGA:  17    -0.664893083630E+03   -0.32576E-03    0.79000E-04  8424   0.505E-03-0.427E-04
CGA:  18    -0.664894174674E+03   -0.10910E-02    0.33894E-04  8424   0.554E-03 0.222E-03
CGA:  19    -0.664895840158E+03   -0.16655E-02    0.87960E-04  8424   0.131E-02 0.157E-03
CGA:  20    -0.664900196607E+03   -0.43564E-02    0.13446E-03  8424   0.179E-02 0.946E-03
CGA:  21    -0.664900532788E+03   -0.33618E-03   -0.31538E-03  8424   0.421E-03-0.101E-03
CGA:  22    -0.664901013470E+03   -0.48068E-03    0.11751E-03  8424   0.382E-03-0.472E-04
CGA:  23    -0.664901836544E+03   -0.82307E-03    0.27797E-04  8424   0.304E-03 0.255E-03
CGA:  24    -0.664902192384E+03   -0.35584E-03    0.98913E-04  8424   0.260E-03 0.406E-04
CGA:  25    -0.664902923838E+03   -0.73145E-03    0.23497E-04  8424   0.323E-03 0.146E-03
CGA:  26    -0.664903245806E+03   -0.32197E-03    0.17564E-03  8424   0.367E-03-0.115E-04
CGA:  27    -0.664904051793E+03   -0.80599E-03    0.31993E-04  8424   0.424E-03 0.111E-03
CGA:  28    -0.664905440479E+03   -0.13887E-02    0.43135E-04  8424   0.370E-03 0.475E-03
CGA:  29    -0.664904879152E+03    0.56133E-03   -0.41877E-03  8424   0.107E-01-0.130E-02
CGA:  30    -0.664906693465E+03   -0.18143E-02   -0.15151E-02  8424   0.587E-03-0.113E-02
CGA:  31    -0.664905059505E+03    0.16340E-02   -0.78210E-03  8424   0.206E-01-0.222E-02
CGA:  32    -0.664908147927E+03   -0.30884E-02   -0.28289E-02  8424   0.166E-02-0.844E-03
CGA:  33    -0.664908767848E+03   -0.61992E-03   -0.57463E-03  8424   0.723E-03-0.605E-03
CGA:  34    -0.664909302669E+03   -0.53482E-03    0.28632E-03  8424   0.146E-02-0.293E-03
CGA:  35    -0.664911117432E+03   -0.18148E-02    0.13245E-03  8424   0.688E-03 0.351E-03
CGA:  36    -0.664912294889E+03   -0.11775E-02    0.30698E-03  8424   0.208E-02-0.364E-03
CGA:  37    -0.664912649661E+03   -0.35477E-03   -0.28760E-03  8424   0.232E-03-0.228E-03
CGA:  38    -0.664913094474E+03   -0.44481E-03    0.27109E-04  8424   0.221E-03 0.812E-04
CGA:  39    -0.664913977806E+03   -0.88333E-03    0.24424E-04  8424   0.185E-03 0.227E-03
CGA:  40    -0.664914334467E+03   -0.35666E-03    0.29370E-04  8424   0.376E-03 0.228E-04
CGA:  41    -0.664915586802E+03   -0.12523E-02    0.34450E-04  8424   0.307E-03 0.277E-03
CGA:  42    -0.664916060600E+03   -0.47380E-03    0.75476E-04  8424   0.227E-03 0.140E-04
CGA:  43    -0.664916691329E+03   -0.63073E-03    0.22639E-04  8424   0.293E-03 0.125E-03
CGA:  44    -0.664917195980E+03   -0.50465E-03    0.57181E-04  8424   0.421E-03-0.449E-04
CGA:  45    -0.664918053288E+03   -0.85731E-03    0.39492E-04  8424   0.494E-03 0.393E-04
CGA:  46    -0.664919581305E+03   -0.15280E-02    0.47007E-04  8424   0.561E-03 0.417E-03
CGA:  47    -0.664920108926E+03   -0.52762E-03    0.91347E-03  8424   0.141E-02-0.522E-03
CGA:  48    -0.664920266067E+03   -0.15714E-03   -0.18726E-03  8424   0.118E-03 0.106E-03
CGA:  49    -0.664920630605E+03   -0.36454E-03    0.10030E-04  8424   0.188E-03 0.932E-04
CGA:  50    -0.664921096678E+03   -0.46607E-03    0.18257E-04  8424   0.415E-03-0.418E-04
CGA:  51    -0.664922310291E+03   -0.12136E-02    0.17762E-04  8424   0.635E-03 0.299E-03
CGA:  52    -0.664922409207E+03   -0.98916E-04   -0.10309E-03  8424   0.128E-03 0.170E-04
CGA:  53    -0.664922840089E+03   -0.43088E-03    0.81062E-05  8424   0.139E-03 0.119E-03
CGA:  54    -0.664923258458E+03   -0.41837E-03    0.95493E-05  8424   0.184E-03 0.551E-04
CGA:  55    -0.664924069519E+03   -0.81106E-03    0.16444E-04  8424   0.142E-03 0.239E-03
CGA:  56    -0.664924389765E+03   -0.32025E-03    0.14601E-04  8424   0.145E-03 0.617E-04
CGA:  57    -0.664925125898E+03   -0.73613E-03    0.11460E-04  8424   0.141E-03 0.199E-03
CGA:  58    -0.664925486150E+03   -0.36025E-03    0.12042E-04  8424   0.123E-03 0.678E-04
CGA:  59    -0.664926135146E+03   -0.64900E-03    0.10018E-04  8424   0.133E-03 0.177E-03
CGA:  60    -0.664926479819E+03   -0.34467E-03    0.11213E-04  8424   0.109E-03 0.745E-04
CGA:  61    -0.664926829957E+03   -0.35014E-03    0.69013E-05  8424   0.100E-03 0.866E-04
CGA:  62    -0.664927167688E+03   -0.33773E-03    0.58763E-05  8424   0.961E-04 0.906E-04
CGA:  63    -0.664927511024E+03   -0.34334E-03    0.52509E-05  8424   0.943E-04 0.914E-04
CGA:  64    -0.664927845621E+03   -0.33460E-03    0.51983E-05  8424   0.937E-04 0.909E-04
CGA:  65    -0.664928187657E+03   -0.34204E-03    0.49841E-05  8424   0.958E-04 0.888E-04
CGA:  66    -0.664928511957E+03   -0.32430E-03    0.56211E-05  8424   0.110E-03 0.810E-04
CGA:  67    -0.664928854830E+03   -0.34287E-03    0.72436E-05  8424   0.189E-03 0.453E-04
CGA:  68    -0.664929762028E+03   -0.90720E-03    0.15461E-04  8424   0.980E-04 0.241E-03
CGA:  69    -0.664930076193E+03   -0.31417E-03    0.61651E-05  8424   0.117E-03 0.677E-04
CGA:  70    -0.664930405320E+03   -0.32913E-03    0.88101E-05  8424   0.193E-03 0.277E-04
CGA:  71    -0.664931269636E+03   -0.86432E-03    0.12878E-04  8424   0.141E-03 0.220E-03
CGA:  72    -0.664931559396E+03   -0.28976E-03    0.16748E-04  8424   0.212E-03-0.297E-05
CGA:  73    -0.664932342553E+03   -0.78316E-03    0.10560E-04  8424   0.215E-03 0.182E-03
CGA:  74    -0.664932684648E+03   -0.34210E-03    0.40561E-04  8424   0.254E-03-0.711E-04
CGA:  75    -0.664933348881E+03   -0.66423E-03    0.83348E-05  8424   0.288E-03 0.130E-03
CGA:  76    -0.664933614326E+03   -0.26544E-03    0.31353E-03  8424   0.220E-03-0.978E-04
CGA:  77    -0.664934168222E+03   -0.55390E-03    0.72774E-05  8424   0.189E-03 0.126E-03
CGA:  78    -0.664934508787E+03   -0.34057E-03    0.28287E-04  8424   0.119E-03 0.838E-06
CGA:  79    -0.664934983013E+03   -0.47423E-03    0.57055E-05  8424   0.117E-03 0.113E-03
CGA:  80    -0.664935271943E+03   -0.28893E-03    0.10674E-04  8424   0.823E-04 0.479E-04
CGA:  81    -0.664935762923E+03   -0.49098E-03    0.51218E-05  8424   0.974E-04 0.110E-03
CGA:  82    -0.664936062943E+03   -0.30002E-03    0.64627E-05  8424   0.741E-04 0.564E-04
CGA:  83    -0.664936345977E+03   -0.28303E-03    0.37186E-05  8424   0.701E-04 0.645E-04
CGA:  84    -0.664936627725E+03   -0.28175E-03    0.33013E-05  8424   0.714E-04 0.645E-04
CGA:  85    -0.664936914703E+03   -0.28698E-03    0.33619E-05  8424   0.812E-04 0.590E-04
CGA:  86    -0.664937176043E+03   -0.26134E-03    0.50919E-05  8424   0.124E-03 0.373E-04
CGA:  87    -0.664937901819E+03   -0.72578E-03    0.85701E-05  8424   0.695E-04 0.168E-03
CGA:  88    -0.664938179626E+03   -0.27781E-03    0.32967E-05  8424   0.824E-04 0.548E-04
CGA:  89    -0.664938433686E+03   -0.25406E-03    0.54684E-05  8424   0.146E-03 0.250E-04
CGA:  90    -0.664939208148E+03   -0.77446E-03    0.87930E-05  8424   0.826E-04 0.177E-03
CGA:  91    -0.664939471854E+03   -0.26371E-03    0.52242E-05  8424   0.137E-03 0.230E-04
CGA:  92    -0.664940176407E+03   -0.70455E-03    0.81855E-05  8424   0.948E-04 0.158E-03
CGA:  93    -0.664940447172E+03   -0.27077E-03    0.69690E-05  8424   0.124E-03 0.140E-04
CGA:  94    -0.664941048178E+03   -0.60101E-03    0.62521E-05  8424   0.116E-03 0.124E-03
CGA:  95    -0.664941282500E+03   -0.23432E-03    0.14313E-04  8424   0.109E-03 0.518E-05
CGA:  96    -0.664941782668E+03   -0.50017E-03    0.48503E-05  8424   0.113E-03 0.996E-04
CGA:  97    -0.664942048377E+03   -0.26571E-03    0.10871E-04  8424   0.832E-04 0.183E-04
CGA:  98    -0.664942482537E+03   -0.43416E-03    0.39820E-05  8424   0.914E-04 0.899E-04
CGA:  99    -0.664942718763E+03   -0.23623E-03    0.77358E-05  8424   0.729E-04 0.321E-04
CGA: 100    -0.664943160508E+03   -0.44175E-03    0.40633E-05  8424   0.862E-04 0.862E-04
CGA: 101    -0.664943406239E+03   -0.24573E-03    0.63553E-05  8424   0.733E-04 0.330E-04
CGA: 102    -0.664943857060E+03   -0.45082E-03    0.42169E-05  8424   0.857E-04 0.846E-04
CGA: 103    -0.664944082349E+03   -0.22529E-03    0.70865E-05  8424   0.745E-04 0.307E-04
CGA: 104    -0.664944526208E+03   -0.44386E-03    0.42900E-05  8424   0.870E-04 0.823E-04
CGA: 105    -0.664944763857E+03   -0.23765E-03    0.68164E-05  8424   0.745E-04 0.288E-04
CGA: 106    -0.664945202563E+03   -0.43871E-03    0.41541E-05  8424   0.875E-04 0.796E-04
CGA: 107    -0.664945420186E+03   -0.21762E-03    0.78402E-05  8424   0.759E-04 0.265E-04
CGA: 108    -0.664945849724E+03   -0.42954E-03    0.42360E-05  8424   0.893E-04 0.772E-04
CGA: 109    -0.664946080377E+03   -0.23065E-03    0.75650E-05  8424   0.762E-04 0.246E-04
CGA: 110    -0.664946505950E+03   -0.42557E-03    0.41189E-05  8424   0.901E-04 0.747E-04
CGA: 111    -0.664946716460E+03   -0.21051E-03    0.88486E-05  8424   0.781E-04 0.222E-04
CGA: 112    -0.664947133256E+03   -0.41680E-03    0.42482E-05  8424   0.923E-04 0.726E-04
CGA: 113    -0.664947357647E+03   -0.22439E-03    0.85504E-05  8424   0.785E-04 0.203E-04
CGA: 114    -0.664947770866E+03   -0.41322E-03    0.41365E-05  8424   0.934E-04 0.701E-04
CGA: 115    -0.664947974710E+03   -0.20384E-03    0.10168E-04  8424   0.811E-04 0.178E-04
CGA: 116    -0.664948379978E+03   -0.40527E-03    0.43204E-05  8424   0.962E-04 0.681E-04
CGA: 117    -0.664948598781E+03   -0.21880E-03    0.98311E-05  8424   0.814E-04 0.160E-04
CGA: 118    -0.664949000345E+03   -0.40156E-03    0.42014E-05  8424   0.973E-04 0.657E-04
CGA: 119    -0.664949197916E+03   -0.19757E-03    0.11896E-04  8424   0.849E-04 0.133E-04
CGA: 120    -0.664949592838E+03   -0.39492E-03    0.44501E-05  8424   0.101E-03 0.637E-04
CGA: 121    -0.664949806704E+03   -0.21387E-03    0.11513E-04  8424   0.848E-04 0.115E-04
CGA: 122    -0.664950196968E+03   -0.39026E-03    0.43037E-05  8424   0.102E-03 0.612E-04
CGA: 123    -0.664950388565E+03   -0.19160E-03    0.14172E-04  8424   0.897E-04 0.835E-05
CGA: 124    -0.664950774470E+03   -0.38590E-03    0.46395E-05  8424   0.107E-03 0.592E-04
CGA: 125    -0.664950984090E+03   -0.20962E-03    0.13765E-04  8424   0.886E-04 0.665E-05
CGA: 126    -0.664951362809E+03   -0.37872E-03    0.44307E-05  8424   0.107E-03 0.566E-04
CGA: 127    -0.664951548601E+03   -0.18579E-03    0.17159E-04  8424   0.958E-04 0.285E-05
CGA: 128    -0.664951927210E+03   -0.37861E-03    0.48987E-05  8424   0.114E-03 0.544E-04
CGA: 129    -0.664952133495E+03   -0.20628E-03    0.16826E-04  8424   0.921E-04 0.163E-05
CGA: 130    -0.664952499194E+03   -0.36570E-03    0.45527E-05  8424   0.112E-03 0.520E-04
CGA: 131    -0.664952679070E+03   -0.17988E-03    0.20850E-04  8424   0.104E-03-0.321E-05
CGA: 132    -0.664953053378E+03   -0.37431E-03    0.52469E-05  8424   0.122E-03 0.496E-04
CGA: 133    -0.664953715325E+03   -0.66195E-03    0.95669E-05  8424   0.861E-04 0.151E-03
CGA: 134    -0.664953877312E+03   -0.16199E-03    0.11950E-04  8424   0.177E-03-0.242E-04
CGA: 135    -0.664954447185E+03   -0.56987E-03    0.52362E-05  8424   0.269E-03 0.106E-03
CGA: 136    -0.664954046739E+03    0.40045E-03   -0.25220E-03  8424   0.746E-02-0.120E-02
CGA: 137    -0.664954985157E+03   -0.93842E-03   -0.97707E-03  8424   0.113E-03 0.397E-04
CGA: 138    -0.664955202681E+03   -0.21752E-03    0.16673E-04  8424   0.713E-04 0.449E-05
CGA: 139    -0.664955519765E+03   -0.31708E-03    0.34768E-05  8424   0.770E-04 0.690E-04
CGA: 140    -0.664955704394E+03   -0.18463E-03    0.78892E-05  8424   0.637E-04 0.244E-04
CGA: 141    -0.664956051264E+03   -0.34687E-03    0.41144E-05  8424   0.785E-04 0.668E-04
CGA: 142    -0.664956240115E+03   -0.18885E-03    0.80165E-05  8424   0.756E-04 0.192E-04
CGA: 143    -0.664956615574E+03   -0.37546E-03    0.48150E-05  8424   0.905E-04 0.637E-04
CGA: 144    -0.664956789060E+03   -0.17349E-03    0.13275E-04  8424   0.848E-04 0.104E-04
CGA: 145    -0.664957147901E+03   -0.35884E-03    0.51528E-05  8424   0.105E-03 0.553E-04
CGA: 146    -0.664957334269E+03   -0.18637E-03    0.17696E-04  8424   0.101E-03-0.190E-05
CGA: 147    -0.664957700256E+03   -0.36599E-03    0.56022E-05  8424   0.127E-03 0.444E-04
CGA: 148    -0.664958350193E+03   -0.64994E-03    0.10843E-04  8424   0.829E-04 0.157E-03
CGA: 149    -0.664958494598E+03   -0.14441E-03    0.14454E-04  8424   0.177E-03-0.233E-04
CGA: 150    -0.664959030876E+03   -0.53628E-03    0.60776E-05  8424   0.267E-03 0.955E-04
CGA: 151    -0.664958446401E+03    0.58447E-03   -0.28598E-03  8424   0.915E-02-0.131E-02
CGA: 152    -0.664959590099E+03   -0.11437E-02   -0.12094E-02  8424   0.176E-03 0.889E-04
CGA: 153    -0.664959786037E+03   -0.19594E-03    0.12234E-03  8424   0.929E-04-0.346E-04
CGA: 154    -0.664960073495E+03   -0.28746E-03    0.44105E-05  8424   0.849E-04 0.641E-04
CGA: 155    -0.664960259866E+03   -0.18637E-03    0.11179E-04  8424   0.794E-04 0.143E-04
CGA: 156    -0.664960611507E+03   -0.35164E-03    0.56023E-05  8424   0.102E-03 0.552E-04
CGA: 157    -0.664960773654E+03   -0.16215E-03    0.24425E-04  8424   0.122E-03-0.743E-05
CGA: 158    -0.664961157622E+03   -0.38397E-03    0.78876E-05  8424   0.154E-03 0.357E-04
CGA: 159    -0.664961858505E+03   -0.70088E-03    0.13248E-04  8424   0.122E-03 0.170E-03
CGA: 160    -0.664961990145E+03   -0.13164E-03    0.90196E-04  8424   0.312E-03-0.817E-04
CGA: 161    -0.664962125965E+03   -0.13582E-03   -0.10225E-03  8424   0.664E-03-0.356E-03
CGA: 162    -0.664962233481E+03   -0.10752E-03   -0.96877E-04  8424   0.583E-04-0.422E-04
CGA: 163    -0.664962422941E+03   -0.18946E-03    0.33335E-05  8424   0.472E-04 0.479E-04
CGA: 164    -0.664962586059E+03   -0.16312E-03    0.28966E-05  8424   0.529E-04 0.428E-04
CGA: 165    -0.664962759828E+03   -0.17377E-03    0.34763E-05  8424   0.835E-04 0.304E-04
CGA: 166    -0.664962884161E+03   -0.12433E-03    0.19958E-04  8424   0.262E-03-0.421E-04
CGA: 167    -0.664962995636E+03   -0.11148E-03   -0.96104E-04  8424   0.105E-02-0.415E-03
CGA: 168    -0.664963125271E+03   -0.12964E-03   -0.12779E-03  8424   0.510E-04-0.118E-04
CGA: 169    -0.664963295680E+03   -0.17041E-03    0.29108E-05  8424   0.495E-04 0.488E-04
CGA: 170    -0.664963456757E+03   -0.16108E-03    0.30025E-05  8424   0.580E-04 0.427E-04
CGA: 171    -0.664963608486E+03   -0.15173E-03    0.47307E-05  8424   0.101E-03 0.245E-04
CGA: 172    -0.664964057680E+03   -0.44919E-03    0.91617E-05  8424   0.528E-04 0.134E-03
CGA: 173    -0.664964213442E+03   -0.15576E-03    0.36505E-05  8424   0.696E-04 0.394E-04
CGA: 174    -0.664964364954E+03   -0.15151E-03    0.74706E-05  8424   0.159E-03 0.152E-05
CGA: 175    -0.664964886844E+03   -0.52189E-03    0.10000E-04  8424   0.155E-03 0.161E-03
CGA: 176    -0.664963722650E+03    0.11642E-02   -0.24070E-03  8424   0.153E-01-0.121E-02
CGA: 177    -0.664965577758E+03   -0.18551E-02   -0.18209E-02  8424   0.910E-04-0.101E-03
CGA: 178    -0.664965727124E+03   -0.14937E-03    0.21080E-04  8424   0.239E-03-0.251E-04
CGA: 179    -0.664966320239E+03   -0.59311E-03    0.12458E-04  8424   0.443E-03 0.827E-04
CGA: 180    -0.664967653692E+03   -0.13335E-02    0.80002E-04  8424   0.110E-02 0.107E-03
CGA: 181    -0.664971187512E+03   -0.35338E-02    0.14611E-03  8424   0.164E-02 0.595E-03
CGA: 182    -0.664971596947E+03   -0.40943E-03   -0.35933E-03  8424   0.332E-03-0.239E-03
CGA: 183    -0.664971705404E+03   -0.10846E-03   -0.97876E-04  8424   0.440E-03-0.144E-03
CGA: 184    -0.664972112692E+03   -0.40729E-03    0.53898E-04  8424   0.384E-03 0.150E-03
CGA: 185    -0.664972661176E+03   -0.54848E-03    0.37749E-03  8424   0.912E-03-0.944E-04
CGA: 186    -0.664973890599E+03   -0.12294E-02    0.12383E-03  8424   0.229E-02 0.132E-03
CGA: 187    -0.664977255245E+03   -0.33646E-02    0.99941E-03  8424   0.632E-02 0.145E-03
CGA: 188    -0.664989532662E+03   -0.12277E-01    0.11642E-02  8424   0.195E-01 0.454E-02
CGA: 189    -0.664992922626E+03   -0.33900E-02   -0.32295E-02  8424   0.219E-02-0.675E-03
CGA: 190    -0.664993637059E+03   -0.71443E-03   -0.71337E-03  8424   0.731E-03-0.221E-04
CGA: 191    -0.664993887055E+03   -0.25000E-03   -0.25893E-03  8424   0.746E-03 0.210E-03
CGA: 192    -0.664994104608E+03   -0.21755E-03   -0.34860E-03  8424   0.222E-01-0.121E-02
CGA: 193    -0.664997282852E+03   -0.31782E-02   -0.35293E-02  8424   0.400E-02 0.573E-03
CGA: 194    -0.664998615310E+03   -0.13325E-02   -0.13025E-02  8424   0.163E-02-0.745E-04
CGA: 195    -0.664999389304E+03   -0.77399E-03   -0.69361E-03  8424   0.228E-02-0.333E-03
CGA: 196    -0.665000208991E+03   -0.81969E-03   -0.81688E-03  8424   0.199E-02-0.154E-04
CGA: 197    -0.665001299826E+03   -0.10908E-02   -0.10997E-02  8424   0.351E-02 0.700E-04
CGA: 198    -0.665004153193E+03   -0.28534E-02   -0.32988E-02  8424   0.142E-01-0.176E-02
CGA: 199    -0.665006583752E+03   -0.24306E-02   -0.26729E-02  8424   0.355E-02 0.580E-03
CGA: 200    -0.665007937243E+03   -0.13535E-02   -0.13594E-02  8424   0.207E-02 0.125E-04
   2 F= -.66500794E+03 E0= -.66500794E+03  d E =-.147584E+00  mag=     6.0000
       N       E                     dE             d eps       ncg     rms          ort
SDA:   1    -0.664995668627E+03    0.10915E-01    0.00000E+00  8424   0.334E+00 0.000E+00
CGA:   2    -0.665062171006E+03   -0.66502E-01   -0.65830E-01  8424   0.145E+00-0.866E-03
CGA:   3    -0.665091415368E+03   -0.29244E-01   -0.29381E-01  8424   0.437E-01 0.194E-03
CGA:   4    -0.665098562619E+03   -0.71473E-02   -0.72712E-02  8424   0.108E-01 0.293E-03
CGA:   5    -0.665100566469E+03   -0.20038E-02   -0.19949E-02  8424   0.275E-02-0.258E-04
CGA:   6    -0.665101162676E+03   -0.59621E-03   -0.59273E-03  8424   0.108E-02-0.119E-04
CGA:   7    -0.665101482919E+03   -0.32024E-03   -0.32597E-03  8424   0.862E-03 0.260E-04
CGA:   8    -0.665101886120E+03   -0.40320E-03   -0.40841E-03  8424   0.116E-02 0.113E-03
CGA:   9    -0.665102693438E+03   -0.80732E-03   -0.79218E-03  8424   0.223E-02 0.154E-03
CGA:  10    -0.665104237653E+03   -0.15442E-02   -0.15054E-02  8424   0.338E-02 0.468E-03
CGA:  11    -0.665106377659E+03   -0.21400E-02   -0.21377E-02  8424   0.378E-02 0.160E-03
CGA:  12    -0.665108046492E+03   -0.16688E-02   -0.16810E-02  8424   0.331E-02-0.123E-03
CGA:  13    -0.665109115272E+03   -0.10688E-02   -0.10787E-02  8424   0.198E-02 0.787E-04
CGA:  14    -0.665109742570E+03   -0.62730E-03   -0.62229E-03  8424   0.111E-02-0.605E-04
CGA:  15    -0.665110005394E+03   -0.26282E-03   -0.29142E-03  8424   0.526E-03 0.123E-03
CGA:  16    -0.665110203448E+03   -0.19805E-03   -0.21138E-03  8424   0.335E-03 0.102E-03
CGA:  17    -0.665110443976E+03   -0.24053E-03   -0.24355E-03  8424   0.545E-03-0.316E-04
CGA:  18    -0.665110560744E+03   -0.11677E-03   -0.13729E-03  8424   0.431E-03 0.937E-04
CGA:  19    -0.665110806183E+03   -0.24544E-03   -0.24629E-03  8424   0.551E-03-0.685E-04
CGA:  20    -0.665110791223E+03    0.14959E-04   -0.38151E-03  8424   0.402E-02-0.117E-02
CGA:  21    -0.665111325399E+03   -0.53418E-03   -0.62323E-03  8424   0.746E-03 0.271E-03
CGA:  22    -0.665111746759E+03   -0.42136E-03   -0.46003E-03  8424   0.729E-03-0.372E-03
CGA:  23    -0.665102795039E+03    0.89517E-02   -0.48755E-02  8424   0.537E-01-0.391E-02
CGA:  24    -0.665110374193E+03   -0.75792E-02   -0.82725E-02  8424   0.562E-02 0.582E-03
CGA:  25    -0.665112529475E+03   -0.21553E-02   -0.22030E-02  8424   0.262E-02 0.104E-03
CGA:  26    -0.665113063659E+03   -0.53418E-03   -0.60563E-03  8424   0.639E-03 0.118E-03
CGA:  27    -0.665113145950E+03   -0.82291E-04   -0.19458E-03  8424   0.281E-03 0.228E-03
CGA:  28    -0.665113206523E+03   -0.60573E-04   -0.12139E-03  8424   0.171E-03 0.137E-03
CGA:  29    -0.665113224943E+03   -0.18420E-04   -0.69811E-04  8424   0.764E-04 0.110E-03
CGA:  30    -0.665113220683E+03    0.42605E-05   -0.15753E-04  8424   0.447E-04 0.392E-04
CGA:  31    -0.665113267168E+03   -0.46485E-04   -0.47607E-04  8424   0.212E-03-0.360E-05
CGA:  32    -0.665113281256E+03   -0.14088E-04   -0.46661E-04  8424   0.826E-04 0.652E-04
CGA:  33    -0.665113284222E+03   -0.29658E-05   -0.20023E-04  8424   0.612E-04 0.332E-04
CGA:  34    -0.665113165252E+03    0.11897E-03   -0.16356E-03  8424   0.152E-02-0.238E-03
CGA:  35    -0.665113738065E+03   -0.57281E-03   -0.44031E-03  8424   0.596E-03-0.307E-03
CGA:  36    -0.665113798637E+03   -0.60572E-04   -0.88802E-04  8424   0.992E-04 0.548E-04
CGA:  37    -0.665113819118E+03   -0.20482E-04   -0.23824E-04  8424   0.562E-04 0.715E-05
CGA:  38    -0.665113992600E+03   -0.17348E-03    0.16325E-04  8424   0.142E-03-0.278E-04
CGA:  39    -0.665114294527E+03   -0.30193E-03    0.10585E-04  8424   0.549E-03-0.196E-03
CGA:  40    -0.665114371392E+03   -0.76865E-04   -0.11925E-03  8424   0.131E-03 0.975E-04
CGA:  41    -0.665114412529E+03   -0.41137E-04   -0.43500E-04  8424   0.457E-04 0.649E-05
CGA:  42    -0.665114428147E+03   -0.15618E-04   -0.16931E-04  8424   0.439E-04 0.474E-05
CGA:  43    -0.665114421681E+03    0.64659E-05   -0.83652E-05  8424   0.267E-04 0.343E-04
   3 F= -.66511442E+03 E0= -.66511442E+03  d E =-.106484E+00  mag=     6.0000
       N       E                     dE             d eps       ncg     rms          ort
SDA:   1    -0.599974427885E+03    0.65140E+02    0.00000E+00  8424   0.223E+03 0.000E+00
CGA:   2    -0.642825368294E+03   -0.42851E+02   -0.45908E+02  8424   0.835E+02-0.159E+01
CGA:   3    -0.660436614353E+03   -0.17611E+02   -0.17460E+02  8424   0.227E+02 0.226E+01
CGA:   4    -0.664472714705E+03   -0.40361E+01   -0.40503E+01  8424   0.596E+01 0.266E+00
CGA:   5    -0.665516155694E+03   -0.10434E+01   -0.10516E+01  8424   0.129E+01 0.265E-02
CGA:   6    -0.665782346866E+03   -0.26619E+00   -0.26656E+00  8424   0.332E+00 0.274E-02
CGA:   7    -0.665857773372E+03   -0.75427E-01   -0.76036E-01  8424   0.112E+00 0.222E-02
CGA:   8    -0.665885730717E+03   -0.27957E-01   -0.28560E-01  8424   0.419E-01 0.280E-02
CGA:   9    -0.665897343930E+03   -0.11613E-01   -0.11914E-01  8424   0.168E-01 0.167E-02
CGA:  10    -0.665902024030E+03   -0.46801E-02   -0.50364E-02  8424   0.684E-02 0.224E-02
CGA:  11    -0.665903850870E+03   -0.18268E-02   -0.21135E-02  8424   0.263E-02 0.172E-02
CGA:  12    -0.665904433550E+03   -0.58268E-03   -0.82787E-03  8424   0.138E-02 0.137E-02
CGA:  13    -0.665904645495E+03   -0.21195E-03   -0.34454E-03  8424   0.814E-03 0.776E-03
CGA:  14    -0.665904752420E+03   -0.10692E-03   -0.20800E-03  8424   0.673E-03 0.646E-03
CGA:  15    -0.665904765360E+03   -0.12940E-04   -0.13394E-03  8424   0.587E-03 0.589E-03
CGA:  16    -0.665904793124E+03   -0.27764E-04   -0.12583E-03  8424   0.530E-03 0.545E-03
CGA:  17    -0.665904790890E+03    0.22345E-05   -0.98571E-04  8424   0.490E-03 0.505E-03
CGA:  18    -0.665904789013E+03    0.18767E-05   -0.89222E-04  8424   0.457E-03 0.472E-03
CGA:  19    -0.665904778995E+03    0.10018E-04   -0.77148E-04  8424   0.430E-03 0.443E-03
CGA:  20    -0.665904766360E+03    0.12635E-04   -0.69060E-04  8424   0.407E-03 0.418E-03
CGA:  21    -0.665904751064E+03    0.15296E-04   -0.61863E-04  8424   0.388E-03 0.397E-03
CGA:  22    -0.665904734248E+03    0.16816E-04   -0.55984E-04  8424   0.371E-03 0.379E-03
CGA:  23    -0.665904716382E+03    0.17867E-04   -0.50954E-04  8424   0.356E-03 0.363E-03
CGA:  24    -0.665904697914E+03    0.18468E-04   -0.46657E-04  8424   0.343E-03 0.350E-03
CGA:  25    -0.665904679136E+03    0.18778E-04   -0.42933E-04  8424   0.332E-03 0.337E-03
CGA:  26    -0.665904660268E+03    0.18868E-04   -0.39702E-04  8424   0.322E-03 0.327E-03
CGA:  27    -0.665904641465E+03    0.18803E-04   -0.36868E-04  8424   0.313E-03 0.317E-03
CGA:  28    -0.665904622845E+03    0.18620E-04   -0.34357E-04  8424   0.305E-03 0.309E-03
CGA:  29    -0.665904604495E+03    0.18350E-04   -0.32114E-04  8424   0.298E-03 0.301E-03
CGA:  30    -0.665904586477E+03    0.18018E-04   -0.30095E-04  8424   0.292E-03 0.295E-03
CGA:  31    -0.665904568837E+03    0.17641E-04   -0.28269E-04  8424   0.286E-03 0.288E-03
CGA:  32    -0.665904551603E+03    0.17234E-04   -0.26607E-04  8424   0.280E-03 0.283E-03
CGA:  33    -0.665904534799E+03    0.16804E-04   -0.25087E-04  8424   0.275E-03 0.278E-03
CGA:  34    -0.665904518435E+03    0.16364E-04   -0.23690E-04  8424   0.271E-03 0.273E-03
CGA:  35    -0.665904502522E+03    0.15913E-04   -0.22403E-04  8424   0.267E-03 0.268E-03
CGA:  36    -0.665904487059E+03    0.15463E-04   -0.21211E-04  8424   0.263E-03 0.264E-03
CGA:  37    -0.665904472050E+03    0.15009E-04   -0.20108E-04  8424   0.259E-03 0.261E-03
CGA:  38    -0.665904457486E+03    0.14564E-04   -0.19078E-04  8424   0.255E-03 0.257E-03
CGA:  39    -0.665904443371E+03    0.14115E-04   -0.18122E-04  8424   0.252E-03 0.254E-03
CGA:  40    -0.665904429690E+03    0.13681E-04   -0.17223E-04  8424   0.249E-03 0.250E-03
CGA:  41    -0.665904416461E+03    0.13229E-04   -0.16389E-04  8424   0.246E-03 0.247E-03
CGA:  42    -0.665904403657E+03    0.12803E-04   -0.15596E-04  8424   0.243E-03 0.244E-03
CGA:  43    -0.665904391316E+03    0.12341E-04   -0.14870E-04  8424   0.241E-03 0.242E-03
CGA:  44    -0.665904379398E+03    0.11918E-04   -0.14171E-04  8424   0.238E-03 0.239E-03
CGA:  45    -0.665904367919E+03    0.11479E-04   -0.13522E-04  8424   0.236E-03 0.236E-03
CGA:  46    -0.665904356942E+03    0.10977E-04   -0.12939E-04  8424   0.234E-03 0.233E-03
CGA:  47    -0.665904346259E+03    0.10682E-04   -0.12284E-04  8424   0.233E-03 0.230E-03
CGA:  48    -0.665904336344E+03    0.99150E-05   -0.11899E-04  8424   0.232E-03 0.227E-03
CGA:  49    -0.665904326401E+03    0.99436E-05   -0.11173E-04  8424   0.230E-03 0.224E-03
CGA:  50    -0.665904317437E+03    0.89632E-05   -0.11011E-04  8424   0.228E-03 0.222E-03
CGA:  51    -0.665904308206E+03    0.92317E-05   -0.10283E-04  8424   0.225E-03 0.221E-03
CGA:  52    -0.665904299754E+03    0.84518E-05   -0.10096E-04  8424   0.222E-03 0.221E-03
   4 F= -.66590430E+03 E0= -.66590430E+03  d E =-.789878E+00  mag=     6.0000
       N       E                     dE             d eps       ncg     rms          ort
SDA:   1    -0.663857823100E+03    0.20465E+01    0.00000E+00  8424   0.693E+01 0.000E+00
CGA:   2    -0.665256778486E+03   -0.13990E+01   -0.13979E+01  8424   0.285E+01 0.123E-01
CGA:   3    -0.665860683244E+03   -0.60390E+00   -0.60424E+00  8424   0.911E+00-0.447E-02
CGA:   4    -0.666012809435E+03   -0.15213E+00   -0.15208E+00  8424   0.216E+00 0.882E-03
CGA:   5    -0.666050380432E+03   -0.37571E-01   -0.37471E-01  8424   0.443E-01 0.232E-02
CGA:   6    -0.666059201801E+03   -0.88214E-02   -0.87480E-02  8424   0.101E-01 0.116E-02
CGA:   7    -0.666061373393E+03   -0.21716E-02   -0.20810E-02  8424   0.271E-02 0.142E-02
CGA:   8    -0.666061963996E+03   -0.59060E-03   -0.54865E-03  8424   0.899E-03 0.109E-02
CGA:   9    -0.666062118719E+03   -0.15472E-03   -0.16326E-03  8424   0.463E-03 0.726E-03
CGA:  10    -0.666062146053E+03   -0.27334E-04   -0.44426E-04  8424   0.337E-03 0.384E-03
CGA:  11    -0.666062151316E+03   -0.52635E-05   -0.25173E-04  8424   0.294E-03 0.313E-03
CGA:  12    -0.666062150871E+03    0.44562E-06   -0.19152E-04  8424   0.269E-03 0.280E-03
CGA:  13    -0.666062147744E+03    0.31269E-05   -0.15745E-04  8424   0.251E-03 0.258E-03
CGA:  14    -0.666062143134E+03    0.46093E-05   -0.13446E-04  8424   0.237E-03 0.243E-03
CGA:  15    -0.666062137646E+03    0.54889E-05   -0.11745E-04  8424   0.226E-03 0.230E-03
CGA:  16    -0.666062131624E+03    0.60217E-05   -0.10413E-04  8424   0.217E-03 0.221E-03
   5 F= -.66606213E+03 E0= -.66606213E+03  d E =-.157832E+00  mag=     6.0000
       N       E                     dE             d eps       ncg     rms          ort
SDA:   1    -0.664952024530E+03    0.11101E+01    0.00000E+00  8424   0.351E+01 0.000E+00
CGA:   2    -0.665710393764E+03   -0.75837E+00   -0.75793E+00  8424   0.154E+01 0.390E-02
CGA:   3    -0.666026305563E+03   -0.31591E+00   -0.31611E+00  8424   0.461E+00-0.258E-02
CGA:   4    -0.666102735334E+03   -0.76430E-01   -0.76388E-01  8424   0.108E+00 0.881E-03
CGA:   5    -0.666121467381E+03   -0.18732E-01   -0.18629E-01  8424   0.219E-01 0.217E-02
CGA:   6    -0.666125820173E+03   -0.43528E-02   -0.42566E-02  8424   0.503E-02 0.152E-02
CGA:   7    -0.666126878849E+03   -0.10587E-02   -0.99088E-03  8424   0.142E-02 0.125E-02
CGA:   8    -0.666127141688E+03   -0.26284E-03   -0.25391E-03  8424   0.623E-03 0.893E-03
CGA:   9    -0.666127200751E+03   -0.59063E-04   -0.69365E-04  8424   0.394E-03 0.467E-03
CGA:  10    -0.666127213871E+03   -0.13120E-04   -0.31675E-04  8424   0.332E-03 0.357E-03
CGA:  11    -0.666127217122E+03   -0.32511E-05   -0.22489E-04  8424   0.296E-03 0.310E-03
CGA:  12    -0.666127215934E+03    0.11879E-05   -0.17651E-04  8424   0.271E-03 0.281E-03
CGA:  13    -0.666127212363E+03    0.35714E-05   -0.14560E-04  8424   0.253E-03 0.260E-03
CGA:  14    -0.666127207405E+03    0.49583E-05   -0.12373E-04  8424   0.239E-03 0.244E-03
CGA:  15    -0.666127201615E+03    0.57900E-05   -0.10725E-04  8424   0.227E-03 0.231E-03
   6 F= -.66612720E+03 E0= -.66612720E+03  d E =-.650700E-01  mag=     6.0000
       N       E                     dE             d eps       ncg     rms          ort
SDA:   1    -0.664523130592E+03    0.16041E+01    0.00000E+00  8424   0.455E+01 0.000E+00
CGA:   2    -0.665658107192E+03   -0.11350E+01   -0.11350E+01  8424   0.220E+01-0.158E-03
CGA:   3    -0.666073390937E+03   -0.41528E+00   -0.41534E+00  8424   0.570E+00-0.113E-02
CGA:   4    -0.666167240993E+03   -0.93850E-01   -0.93791E-01  8424   0.133E+00 0.122E-02
CGA:   5    -0.666190477139E+03   -0.23236E-01   -0.23102E-01  8424   0.275E-01 0.262E-02
CGA:   6    -0.666195936883E+03   -0.54597E-02   -0.53148E-02  8424   0.656E-02 0.224E-02
CGA:   7    -0.666197378095E+03   -0.14412E-02   -0.13434E-02  8424   0.195E-02 0.159E-02
CGA:   8    -0.666197775426E+03   -0.39733E-03   -0.37113E-03  8424   0.875E-03 0.117E-02
CGA:   9    -0.666197868519E+03   -0.93093E-04   -0.10263E-03  8424   0.546E-03 0.646E-03
CGA:  10    -0.666197894258E+03   -0.25740E-04   -0.47600E-04  8424   0.458E-03 0.495E-03
CGA:  11    -0.666197904203E+03   -0.99447E-05   -0.33752E-04  8424   0.408E-03 0.429E-03
CGA:  12    -0.666197906794E+03   -0.25915E-05   -0.26421E-04  8424   0.373E-03 0.387E-03
CGA:  13    -0.666197905283E+03    0.15120E-05   -0.21713E-04  8424   0.346E-03 0.357E-03
CGA:  14    -0.666197901279E+03    0.40039E-05   -0.18378E-04  8424   0.326E-03 0.334E-03
CGA:  15    -0.666197895698E+03    0.55807E-05   -0.15868E-04  8424   0.309E-03 0.316E-03
CGA:  16    -0.666197889106E+03    0.65924E-05   -0.13900E-04  8424   0.294E-03 0.300E-03
CGA:  17    -0.666197881872E+03    0.72338E-05   -0.12312E-04  8424   0.282E-03 0.287E-03
CGA:  18    -0.666197874249E+03    0.76223E-05   -0.11002E-04  8424   0.271E-03 0.276E-03
   7 F= -.66619787E+03 E0= -.66619787E+03  d E =-.706726E-01  mag=     6.0000
       N       E                     dE             d eps       ncg     rms          ort
SDA:   1    -0.641625849149E+03    0.24572E+02    0.00000E+00  8424   0.751E+02 0.000E+00
CGA:   2    -0.657032710003E+03   -0.15407E+02   -0.15333E+02  8424   0.318E+02 0.721E+00
CGA:   3    -0.663885271636E+03   -0.68526E+01   -0.68608E+01  8424   0.971E+01-0.878E-01
CGA:   4    -0.665482145910E+03   -0.15969E+01   -0.15962E+01  8424   0.227E+01 0.773E-02
CGA:   5    -0.665880108866E+03   -0.39796E+00   -0.39752E+00  8424   0.475E+00 0.647E-02
CGA:   6    -0.665976379399E+03   -0.96271E-01   -0.96313E-01  8424   0.117E+00-0.598E-03
CGA:   7    -0.666002653622E+03   -0.26274E-01   -0.25972E-01  8424   0.344E-01 0.299E-02
CGA:   8    -0.666011631314E+03   -0.89777E-02   -0.86849E-02  8424   0.110E-01 0.241E-02
CGA:   9    -0.666014987291E+03   -0.33560E-02   -0.32351E-02  8424   0.448E-02 0.834E-03
CGA:  10    -0.666016382217E+03   -0.13949E-02   -0.12364E-02  8424   0.195E-02 0.134E-02
CGA:  11    -0.666017097037E+03   -0.71482E-03   -0.61593E-03  8424   0.936E-03 0.996E-03
CGA:  12    -0.666017411560E+03   -0.31452E-03   -0.26194E-03  8424   0.538E-03 0.401E-03
CGA:  13    -0.666017632115E+03   -0.22055E-03   -0.17644E-03  8424   0.433E-03 0.595E-03
CGA:  14    -0.666017806774E+03   -0.17466E-03   -0.12976E-03  8424   0.340E-03 0.319E-03
CGA:  15    -0.666017967375E+03   -0.16060E-03   -0.11165E-03  8424   0.302E-03 0.299E-03
CGA:  16    -0.666018121315E+03   -0.15394E-03   -0.10546E-03  8424   0.275E-03 0.276E-03
CGA:  17    -0.666018311932E+03   -0.19062E-03   -0.12367E-03  8424   0.258E-03 0.248E-03
CGA:  18    -0.666018456829E+03   -0.14490E-03   -0.10174E-03  8424   0.261E-03 0.215E-03
CGA:  19    -0.666018676875E+03   -0.22005E-03   -0.18101E-03  8424   0.784E-03 0.752E-04
CGA:  20    -0.666019458670E+03   -0.78179E-03   -0.56881E-03  8424   0.463E-03 0.576E-03
CGA:  21    -0.666019575165E+03   -0.11650E-03   -0.11700E-03  8424   0.418E-03-0.104E-03
CGA:  22    -0.666019741517E+03   -0.16635E-03    0.11871E-02  8424   0.339E-03 0.249E-03
CGA:  23    -0.666019840896E+03   -0.99378E-04   -0.10133E-03  8424   0.371E-03-0.399E-04
CGA:  24    -0.666020026231E+03   -0.18534E-03    0.31410E-03  8424   0.319E-03 0.255E-03
CGA:  25    -0.666020136646E+03   -0.11041E-03   -0.14920E-03  8424   0.769E-03-0.181E-03
CGA:  26    -0.666020276637E+03   -0.13999E-03   -0.13895E-03  8424   0.201E-03-0.140E-04
CGA:  27    -0.666020395337E+03   -0.11870E-03    0.15191E-03  8424   0.171E-03 0.144E-03
CGA:  28    -0.666020491754E+03   -0.96417E-04    0.22244E-03  8424   0.139E-03 0.109E-03
CGA:  29    -0.666020580206E+03   -0.88452E-04    0.76116E-04  8424   0.130E-03 0.121E-03
CGA:  30    -0.666020672651E+03   -0.92445E-04    0.43718E-04  8424   0.127E-03 0.123E-03
CGA:  31    -0.666020759409E+03   -0.86758E-04    0.49040E-04  8424   0.125E-03 0.122E-03
CGA:  32    -0.666020851775E+03   -0.92366E-04    0.36453E-04  8424   0.124E-03 0.120E-03
CGA:  33    -0.666020937505E+03   -0.85730E-04    0.45526E-04  8424   0.123E-03 0.117E-03
CGA:  34    -0.666021030660E+03   -0.93155E-04    0.33852E-04  8424   0.125E-03 0.113E-03
CGA:  35    -0.666021113755E+03   -0.83095E-04    0.54300E-04  8424   0.129E-03 0.107E-03
CGA:  36    -0.666021208485E+03   -0.94730E-04    0.39107E-04  8424   0.140E-03 0.965E-04
CGA:  37    -0.666021285411E+03   -0.76926E-04    0.26456E-03  8424   0.164E-03 0.772E-04
CGA:  38    -0.666021381311E+03   -0.95900E-04    0.15020E-03  8424   0.213E-03 0.398E-04
CGA:  39    -0.666021589387E+03   -0.20808E-03    0.64908E-04  8424   0.173E-03 0.259E-03
CGA:  40    -0.666021643519E+03   -0.54132E-04   -0.86338E-04  8424   0.997E-03-0.136E-03
CGA:  41    -0.666021805926E+03   -0.16241E-03   -0.13928E-03  8424   0.194E-03-0.179E-03
CGA:  42    -0.666021917639E+03   -0.11171E-03    0.62628E-04  8424   0.103E-03 0.124E-03
CGA:  43    -0.666022003964E+03   -0.86325E-04    0.22852E-04  8424   0.103E-03 0.995E-04
CGA:  44    -0.666022097825E+03   -0.93861E-04    0.18535E-04  8424   0.106E-03 0.956E-04
CGA:  45    -0.666022179149E+03   -0.81323E-04    0.29904E-04  8424   0.114E-03 0.880E-04
CGA:  46    -0.666022276027E+03   -0.96878E-04    0.24429E-04  8424   0.138E-03 0.708E-04
CGA:  47    -0.666021715783E+03    0.56024E-03   -0.30282E-03  8424   0.103E-01-0.561E-03
CGA:  48    -0.666022886103E+03   -0.11703E-02   -0.10900E-02  8424   0.106E-03-0.227E-03
CGA:  49    -0.666023045195E+03   -0.15909E-03    0.35542E-04  8424   0.224E-03 0.452E-04
CGA:  50    -0.666023511090E+03   -0.46589E-03    0.12765E-03  8424   0.146E-03 0.226E-03
CGA:  51    -0.666019493526E+03    0.40176E-02   -0.22016E-02  8424   0.519E-01-0.177E-02
CGA:  52    -0.666024525459E+03   -0.50319E-02   -0.52705E-02  8424   0.247E-03 0.384E-03
CGA:  53    -0.666024605383E+03   -0.79923E-04   -0.72276E-04  8424   0.176E-03-0.160E-04
CGA:  54    -0.666024931150E+03   -0.32577E-03    0.23878E-03  8424   0.108E-02-0.171E-03
CGA:  55    -0.666025049110E+03   -0.11796E-03   -0.16464E-03  8424   0.208E-03 0.752E-04
CGA:  56    -0.666025193074E+03   -0.14396E-03   -0.20741E-03  8424   0.105E-02-0.345E-03
CGA:  57    -0.666025473911E+03   -0.28084E-03   -0.27917E-03  8424   0.340E-03-0.369E-05
CGA:  58    -0.666025631179E+03   -0.15727E-03   -0.93423E-04  8424   0.246E-03-0.142E-03
CGA:  59    -0.666025948661E+03   -0.31748E-03    0.90492E-04  8424   0.462E-03-0.290E-04
CGA:  60    -0.666026888727E+03   -0.94007E-03    0.22955E-03  8424   0.913E-03 0.518E-04
CGA:  61    -0.666028816602E+03   -0.19279E-02    0.10578E-02  8424   0.433E-02-0.780E-03
CGA:  62    -0.666029307061E+03   -0.49046E-03   -0.55312E-03  8424   0.329E-03 0.880E-04
CGA:  63    -0.666029457822E+03   -0.15076E-03   -0.13364E-03  8424   0.125E-03-0.620E-04
CGA:  64    -0.666029679496E+03   -0.22167E-03    0.53103E-04  8424   0.798E-03-0.164E-03
CGA:  65    -0.666029738956E+03   -0.59460E-04   -0.10383E-03  8424   0.715E-04 0.833E-04
CGA:  66    -0.666029853115E+03   -0.11416E-03    0.19165E-03  8424   0.194E-03-0.303E-04
CGA:  67    -0.666030244052E+03   -0.39094E-03    0.20558E-04  8424   0.910E-03-0.298E-03
CGA:  68    -0.666030495185E+03   -0.25113E-03   -0.27921E-03  8424   0.281E-03 0.443E-04
CGA:  69    -0.666030680073E+03   -0.18489E-03   -0.13398E-03  8424   0.577E-03-0.307E-03
CGA:  70    -0.666030729602E+03   -0.49529E-04   -0.83130E-04  8424   0.826E-04 0.526E-04
CGA:  71    -0.666030840833E+03   -0.11123E-03    0.57761E-03  8424   0.161E-03-0.228E-04
CGA:  72    -0.666031175255E+03   -0.33442E-03    0.24093E-04  8424   0.576E-03-0.209E-03
CGA:  73    -0.666031298533E+03   -0.12328E-03   -0.14046E-03  8424   0.195E-03 0.462E-04
CGA:  74    -0.666030765423E+03    0.53311E-03   -0.32980E-03  8424   0.464E-02-0.114E-02
CGA:  75    -0.666031483860E+03   -0.71844E-03   -0.82988E-03  8424   0.910E-03 0.216E-03
CGA:  76    -0.666031898535E+03   -0.41468E-03   -0.38603E-03  8424   0.157E-03-0.160E-03
CGA:  77    -0.664939086486E+03    0.10928E+01    0.16597E+00  8424   0.815E+00-0.439E-01
CGA:  78    -0.665765864124E+03   -0.82678E+00   -0.67925E+00  8424   0.206E+01-0.360E+00
CGA:  79    -0.665902521785E+03   -0.13666E+00   -0.80377E-01  8424   0.982E+00 0.778E+00
CGA:  80    -0.666001691853E+03   -0.99170E-01   -0.68379E-01  8424   0.208E+00 0.603E+00
CGA:  81    -0.666030502988E+03   -0.28811E-01   -0.27394E-01  8424   0.869E-02 0.451E-02
CGA:  82    -0.666032627405E+03   -0.21244E-02   -0.22488E-02  8424   0.188E-02-0.703E-03
CGA:  83    -0.666032885367E+03   -0.25796E-03   -0.45067E-03  8424   0.663E-03 0.439E-04
CGA:  84    -0.666033197903E+03   -0.31254E-03   -0.28924E-03  8424   0.476E-03-0.145E-03
CGA:  85    -0.666033420325E+03   -0.22242E-03   -0.18442E-03  8424   0.487E-03-0.995E-04
CGA:  86    -0.666033479240E+03   -0.58916E-04   -0.10340E-03  8424   0.465E-03 0.513E-04
CGA:  87    -0.666033196903E+03    0.28234E-03   -0.87175E-04  8424   0.126E-02 0.703E-03
CGA:  88    -0.666033779588E+03   -0.58269E-03   -0.62327E-03  8424   0.889E-03-0.194E-03
CGA:  89    -0.666033484412E+03    0.29518E-03   -0.13322E-03  8424   0.480E-03 0.403E-03
CGA:  90    -0.666033495731E+03   -0.11319E-04   -0.14923E-03  8424   0.124E-02 0.606E-03
CGA:  91    -0.666033902135E+03   -0.40640E-03   -0.46849E-03  8424   0.105E-02-0.124E-03
CGA:  92    -0.666034212656E+03   -0.31052E-03   -0.27464E-03  8424   0.150E-03-0.135E-03
CGA:  93    -0.666034273964E+03   -0.61308E-04   -0.43100E-04  8424   0.172E-03-0.645E-04
CGA:  94    -0.666034557518E+03   -0.28355E-03    0.25264E-04  8424   0.759E-04 0.313E-05
CGA:  95    -0.666034781740E+03   -0.22422E-03    0.19810E-04  8424   0.140E-03 0.163E-04
CGA:  96    -0.666035308537E+03   -0.52680E-03    0.39069E-04  8424   0.321E-03-0.104E-04
CGA:  97    -0.666036361621E+03   -0.10531E-02    0.54686E-04  8424   0.646E-03-0.462E-03
CGA:  98    -0.666036524043E+03   -0.16242E-03   -0.16857E-03  8424   0.499E-03 0.189E-04
CGA:  99    -0.666036852510E+03   -0.32847E-03   -0.47271E-03  8424   0.152E-02-0.483E-03
CGA: 100    -0.666037092728E+03   -0.24022E-03   -0.24439E-03  8424   0.205E-03 0.128E-04
CGA: 101    -0.666037201616E+03   -0.10889E-03   -0.85882E-04  8424   0.271E-03-0.116E-03
CGA: 102    -0.666037259372E+03   -0.57756E-04   -0.50865E-04  8424   0.605E-04-0.162E-04
CGA: 103    -0.666037360954E+03   -0.10158E-03    0.31506E-04  8424   0.209E-03-0.432E-04
CGA: 104    -0.666037403592E+03   -0.42638E-04   -0.36251E-04  8424   0.432E-04-0.153E-04
CGA: 105    -0.666037501911E+03   -0.98318E-04    0.96085E-05  8424   0.117E-03-0.194E-04
CGA: 106    -0.666037842535E+03   -0.34062E-03    0.49312E-05  8424   0.211E-03 0.364E-04
CGA: 107    -0.666038532493E+03   -0.68996E-03    0.64028E-04  8424   0.679E-03-0.795E-04
CGA: 108    -0.666040767818E+03   -0.22353E-02    0.32246E-04  8424   0.262E-02-0.471E-03
CGA: 109    -0.666041403679E+03   -0.63586E-03   -0.61731E-03  8424   0.181E-03-0.563E-04
CGA: 110    -0.666041457527E+03   -0.53848E-04   -0.47362E-04  8424   0.143E-03-0.230E-04
CGA: 111    -0.666041627798E+03   -0.17027E-03    0.11822E-03  8424   0.817E-04-0.233E-05
CGA: 112    -0.666041768813E+03   -0.14101E-03    0.33174E-04  8424   0.625E-04-0.147E-04
CGA: 113    -0.666041919650E+03   -0.15084E-03    0.77591E-05  8424   0.148E-03-0.207E-04
CGA: 114    -0.666042383258E+03   -0.46361E-03    0.77478E-05  8424   0.192E-03 0.309E-04
CGA: 115    -0.666043051676E+03   -0.66842E-03    0.36513E-04  8424   0.537E-03-0.382E-04
CGA: 116    -0.666045060750E+03   -0.20091E-02    0.33921E-04  8424   0.116E-02-0.136E-03
CGA: 117    -0.666049985963E+03   -0.49252E-02    0.52697E-04  8424   0.441E-02-0.153E-02
CGA: 118    -0.666050662241E+03   -0.67628E-03   -0.70389E-03  8424   0.426E-03 0.578E-04
CGA: 119    -0.666050760393E+03   -0.98152E-04   -0.11641E-03  8424   0.720E-04 0.745E-04
CGA: 120    -0.666050799442E+03   -0.39049E-04   -0.39147E-04  8424   0.688E-04 0.229E-05
CGA: 121    -0.666050794918E+03    0.45241E-05   -0.99168E-05  8424   0.332E-04 0.401E-04
   8 F= -.66605079E+03 E0= -.66605079E+03  d E =0.147079E+00  mag=     6.0000
       N       E                     dE             d eps       ncg     rms          ort
SDA:   1    -0.653919830270E+03    0.12131E+02    0.00000E+00  8424   0.405E+02 0.000E+00
CGA:   2    -0.661883714350E+03   -0.79639E+01   -0.80353E+01  8424   0.164E+02-0.107E+00
CGA:   3    -0.665354417243E+03   -0.34707E+01   -0.34603E+01  8424   0.505E+01 0.481E-01
CGA:   4    -0.666218501843E+03   -0.86408E+00   -0.86509E+00  8424   0.125E+01 0.199E-02
CGA:   5    -0.666435337662E+03   -0.21684E+00   -0.21743E+00  8424   0.263E+00 0.695E-03
CGA:   6    -0.666487788765E+03   -0.52451E-01   -0.52387E-01  8424   0.607E-01-0.211E-03
CGA:   7    -0.666501366709E+03   -0.13578E-01   -0.13728E-01  8424   0.179E-01 0.838E-03
CGA:   8    -0.666505619569E+03   -0.42529E-02   -0.43704E-02  8424   0.543E-02 0.769E-03
CGA:   9    -0.666507040096E+03   -0.14205E-02   -0.14676E-02  8424   0.184E-02 0.371E-03
CGA:  10    -0.666507403169E+03   -0.36307E-03   -0.45488E-03  8424   0.714E-03 0.618E-03
CGA:  11    -0.666507494298E+03   -0.91129E-04   -0.17957E-03  8424   0.343E-03 0.480E-03
CGA:  12    -0.666507501883E+03   -0.75843E-05   -0.55656E-04  8424   0.207E-03 0.239E-03
CGA:  13    -0.666507476857E+03    0.25025E-04   -0.22190E-04  8424   0.180E-03 0.192E-03
CGA:  14    -0.666507452327E+03    0.24530E-04   -0.17318E-04  8424   0.163E-03 0.171E-03
CGA:  15    -0.666507428162E+03    0.24166E-04   -0.14089E-04  8424   0.152E-03 0.158E-03
CGA:  16    -0.666507404746E+03    0.23416E-04   -0.11925E-04  8424   0.144E-03 0.148E-03
CGA:  17    -0.666507382241E+03    0.22505E-04   -0.10354E-04  8424   0.138E-03 0.141E-03
CGA:  18    -0.666507360697E+03    0.21544E-04   -0.91483E-05  8424   0.133E-03 0.136E-03
CGA:  19    -0.666507340115E+03    0.20582E-04   -0.81832E-05  8424   0.129E-03 0.131E-03
CGA:  20    -0.666507320475E+03    0.19641E-04   -0.73895E-05  8424   0.125E-03 0.127E-03
CGA:  21    -0.666507301742E+03    0.18732E-04   -0.67223E-05  8424   0.122E-03 0.124E-03
CGA:  22    -0.666507283880E+03    0.17862E-04   -0.61519E-05  8424   0.119E-03 0.121E-03
CGA:  23    -0.666507266850E+03    0.17030E-04   -0.56573E-05  8424   0.117E-03 0.118E-03
CGA:  24    -0.666507250612E+03    0.16238E-04   -0.52263E-05  8424   0.115E-03 0.116E-03
CGA:  25    -0.666507235128E+03    0.15484E-04   -0.48452E-05  8424   0.113E-03 0.114E-03
CGA:  26    -0.666507220360E+03    0.14767E-04   -0.45055E-05  8424   0.111E-03 0.112E-03
CGA:  27    -0.666507206274E+03    0.14086E-04   -0.42011E-05  8424   0.110E-03 0.111E-03
CGA:  28    -0.666507192833E+03    0.13441E-04   -0.39279E-05  8424   0.109E-03 0.109E-03
CGA:  29    -0.666507180004E+03    0.12829E-04   -0.36806E-05  8424   0.107E-03 0.108E-03
CGA:  30    -0.666507167757E+03    0.12247E-04   -0.34551E-05  8424   0.106E-03 0.107E-03
CGA:  31    -0.666507156065E+03    0.11692E-04   -0.32488E-05  8424   0.105E-03 0.106E-03
CGA:  32    -0.666507144899E+03    0.11166E-04   -0.30592E-05  8424   0.104E-03 0.105E-03
CGA:  33    -0.666507134235E+03    0.10664E-04   -0.28845E-05  8424   0.104E-03 0.104E-03
CGA:  34    -0.666507124048E+03    0.10187E-04   -0.27229E-05  8424   0.103E-03 0.103E-03
CGA:  35    -0.666507114316E+03    0.97318E-05   -0.25731E-05  8424   0.102E-03 0.102E-03
   9 F= -.66650711E+03 E0= -.66650711E+03  d E =-.456319E+00  mag=     6.0000
       N       E                     dE             d eps       ncg     rms          ort
SDA:   1    -0.666408388871E+03    0.98735E-01    0.00000E+00  8424   0.408E+00 0.000E+00
CGA:   2    -0.666489969334E+03   -0.81580E-01   -0.81485E-01  8424   0.171E+00 0.138E-02
CGA:   3    -0.666526377740E+03   -0.36408E-01   -0.36322E-01  8424   0.551E-01 0.110E-02
CGA:   4    -0.666535496788E+03   -0.91190E-02   -0.90978E-02  8424   0.126E-01 0.892E-03
CGA:   5    -0.666537632952E+03   -0.21362E-02   -0.21123E-02  8424   0.246E-02 0.102E-02
CGA:   6    -0.666538030547E+03   -0.39760E-03   -0.39342E-03  8424   0.640E-03 0.860E-03
CGA:   7    -0.666538085660E+03   -0.55112E-04   -0.81063E-04  8424   0.326E-03 0.528E-03
CGA:   8    -0.666538087696E+03   -0.20362E-05   -0.22222E-04  8424   0.245E-03 0.278E-03
CGA:   9    -0.666538081919E+03    0.57764E-05   -0.13060E-04  8424   0.210E-03 0.225E-03
  10 F= -.66653808E+03 E0= -.66653808E+03  d E =-.309676E-01  mag=     6.0000
       N       E                     dE             d eps       ncg     rms          ort
SDA:   1    -0.662472913760E+03    0.40652E+01    0.00000E+00  8424   0.124E+02 0.000E+00
CGA:   2    -0.665136115805E+03   -0.26632E+01   -0.26596E+01  8424   0.563E+01 0.380E-01
CGA:   3    -0.666302229133E+03   -0.11661E+01   -0.11665E+01  8424   0.164E+01-0.570E-02
CGA:   4    -0.666570173946E+03   -0.26794E+00   -0.26791E+00  8424   0.379E+00 0.763E-03
CGA:   5    -0.666636517504E+03   -0.66344E-01   -0.66225E-01  8424   0.789E-01 0.311E-02
CGA:   6    -0.666652383876E+03   -0.15866E-01   -0.15733E-01  8424   0.184E-01 0.227E-02
CGA:   7    -0.666656349260E+03   -0.39654E-02   -0.38514E-02  8424   0.490E-02 0.185E-02
CGA:   8    -0.666657476426E+03   -0.11272E-02   -0.10490E-02  8424   0.153E-02 0.160E-02
CGA:   9    -0.666657737356E+03   -0.26093E-03   -0.27500E-03  8424   0.731E-03 0.113E-02
CGA:  10    -0.666657780606E+03   -0.43250E-04   -0.72168E-04  8424   0.511E-03 0.593E-03
CGA:  11    -0.666657787492E+03   -0.68856E-05   -0.39007E-04  8424   0.434E-03 0.468E-03
CGA:  12    -0.666657784622E+03    0.28697E-05   -0.28357E-04  8424   0.389E-03 0.409E-03
CGA:  13    -0.666657777386E+03    0.72358E-05   -0.22488E-04  8424   0.358E-03 0.372E-03
CGA:  14    -0.666657767896E+03    0.94899E-05   -0.18643E-04  8424   0.334E-03 0.344E-03
CGA:  15    -0.666657757192E+03    0.10705E-04   -0.15880E-04  8424   0.316E-03 0.324E-03
CGA:  16    -0.666657745852E+03    0.11340E-04   -0.13775E-04  8424   0.300E-03 0.307E-03
CGA:  17    -0.666657734226E+03    0.11626E-04   -0.12108E-04  8424   0.287E-03 0.293E-03
CGA:  18    -0.666657722536E+03    0.11690E-04   -0.10747E-04  8424   0.276E-03 0.281E-03
CGA:  19    -0.666657710927E+03    0.11609E-04   -0.96137E-05  8424   0.266E-03 0.270E-03
CGA:  20    -0.666657699498E+03    0.11429E-04   -0.86546E-05  8424   0.257E-03 0.261E-03
CGA:  21    -0.666657688315E+03    0.11183E-04   -0.78333E-05  8424   0.250E-03 0.253E-03
CGA:  22    -0.666657677423E+03    0.10892E-04   -0.71234E-05  8424   0.243E-03 0.246E-03
CGA:  23    -0.666657666850E+03    0.10573E-04   -0.65038E-05  8424   0.236E-03 0.239E-03
CGA:  24    -0.666657656615E+03    0.10235E-04   -0.59596E-05  8424   0.231E-03 0.233E-03
CGA:  25    -0.666657646728E+03    0.98876E-05   -0.54786E-05  8424   0.226E-03 0.228E-03
  11 F= -.66665765E+03 E0= -.66665765E+03  d E =-.119565E+00  mag=     6.0000
       N       E                     dE             d eps       ncg     rms          ort
SDA:   1    -0.661072211539E+03    0.55854E+01    0.00000E+00  8424   0.160E+02 0.000E+00
CGA:   2    -0.664874809506E+03   -0.38026E+01   -0.38025E+01  8424   0.791E+01 0.200E-02
CGA:   3    -0.666462912348E+03   -0.15881E+01   -0.15869E+01  8424   0.204E+01 0.106E-01
CGA:   4    -0.666788951106E+03   -0.32604E+00   -0.32591E+00  8424   0.475E+00 0.134E-02
CGA:   5    -0.666872520029E+03   -0.83569E-01   -0.83463E-01  8424   0.982E-01 0.131E-02
CGA:   6    -0.666892763733E+03   -0.20244E-01   -0.19974E-01  8424   0.272E-01 0.272E-02
CGA:   7    -0.666898862023E+03   -0.60983E-02   -0.59317E-02  8424   0.764E-02 0.161E-02
CGA:   8    -0.666900895969E+03   -0.20339E-02   -0.18647E-02  8424   0.274E-02 0.146E-02
CGA:   9    -0.666901612051E+03   -0.71608E-03   -0.61722E-03  8424   0.120E-02 0.143E-02
CGA:  10    -0.666901847007E+03   -0.23496E-03   -0.20139E-03  8424   0.676E-03 0.771E-03
CGA:  11    -0.666901938395E+03   -0.91388E-04   -0.88446E-04  8424   0.557E-03 0.607E-03
CGA:  12    -0.666901994378E+03   -0.55983E-04   -0.62889E-04  8424   0.492E-03 0.522E-03
CGA:  13    -0.666902032573E+03   -0.38195E-04   -0.49676E-04  8424   0.447E-03 0.468E-03
CGA:  14    -0.666902059621E+03   -0.27048E-04   -0.41014E-04  8424   0.413E-03 0.429E-03
CGA:  15    -0.666902079113E+03   -0.19492E-04   -0.34825E-04  8424   0.387E-03 0.399E-03
CGA:  16    -0.666902093210E+03   -0.14096E-04   -0.30147E-04  8424   0.365E-03 0.375E-03
CGA:  17    -0.666902103317E+03   -0.10108E-04   -0.26474E-04  8424   0.347E-03 0.355E-03
CGA:  18    -0.666902110403E+03   -0.70862E-05   -0.23509E-04  8424   0.331E-03 0.339E-03
CGA:  19    -0.666902115161E+03   -0.47579E-05   -0.21064E-04  8424   0.318E-03 0.324E-03
CGA:  20    -0.666902118103E+03   -0.29415E-05   -0.19014E-04  8424   0.306E-03 0.312E-03
CGA:  21    -0.666902119614E+03   -0.15117E-05   -0.17273E-04  8424   0.296E-03 0.301E-03
CGA:  22    -0.666902119994E+03   -0.38003E-06   -0.15776E-04  8424   0.287E-03 0.291E-03
CGA:  23    -0.666902119477E+03    0.51730E-06   -0.14480E-04  8424   0.279E-03 0.283E-03
CGA:  24    -0.666902118250E+03    0.12276E-05   -0.13349E-04  8424   0.271E-03 0.275E-03
CGA:  25    -0.666902116460E+03    0.17898E-05   -0.12355E-04  8424   0.265E-03 0.268E-03
CGA:  26    -0.666902114226E+03    0.22342E-05   -0.11474E-04  8424   0.259E-03 0.262E-03
CGA:  27    -0.666902111642E+03    0.25840E-05   -0.10689E-04  8424   0.254E-03 0.256E-03
  12 F= -.66690211E+03 E0= -.66690211E+03  d E =-.244465E+00  mag=     6.0000
       N       E                     dE             d eps       ncg     rms          ort
SDA:   1    -0.633314717696E+03    0.33587E+02    0.00000E+00  8424   0.105E+03 0.000E+00
CGA:   2    -0.654410318942E+03   -0.21096E+02   -0.20915E+02  8424   0.434E+02 0.173E+01
CGA:   3    -0.663729723120E+03   -0.93194E+01   -0.93503E+01  8424   0.130E+02-0.300E+00
CGA:   4    -0.665905752734E+03   -0.21760E+01   -0.21743E+01  8424   0.313E+01 0.190E-01
CGA:   5    -0.666446704136E+03   -0.54095E+00   -0.54024E+00  8424   0.681E+00 0.932E-02
CGA:   6    -0.666586139490E+03   -0.13944E+00   -0.13990E+00  8424   0.166E+00-0.490E-02
CGA:   7    -0.666623533299E+03   -0.37394E-01   -0.36980E-01  8424   0.499E-01 0.363E-02
CGA:   8    -0.666636607274E+03   -0.13074E-01   -0.12759E-01  8424   0.162E-01 0.235E-02
CGA:   9    -0.666641490354E+03   -0.48831E-02   -0.50676E-02  8424   0.730E-02-0.106E-02
CGA:  10    -0.666643456766E+03   -0.19664E-02   -0.18748E-02  8424   0.285E-02 0.639E-03
CGA:  11    -0.666644471268E+03   -0.10145E-02   -0.10777E-02  8424   0.137E-02-0.308E-03
CGA:  12    -0.666644770737E+03   -0.29947E-03   -0.27469E-03  8424   0.579E-03 0.328E-03
CGA:  13    -0.666644961637E+03   -0.19090E-03   -0.16872E-03  8424   0.336E-03 0.270E-03
CGA:  14    -0.666645129111E+03   -0.16747E-03   -0.14385E-03  8424   0.273E-03 0.172E-03
CGA:  15    -0.666645195647E+03   -0.66537E-04   -0.59392E-04  8424   0.139E-03 0.135E-03
CGA:  16    -0.666645252338E+03   -0.56690E-04   -0.47865E-04  8424   0.115E-03 0.137E-03
CGA:  17    -0.666645274999E+03   -0.22662E-04   -0.21206E-04  8424   0.915E-04 0.969E-04
CGA:  18    -0.666645286801E+03   -0.11802E-04   -0.13693E-04  8424   0.858E-04 0.882E-04
CGA:  19    -0.666645297937E+03   -0.11136E-04   -0.12840E-04  8424   0.817E-04 0.836E-04
CGA:  20    -0.666645307063E+03   -0.91252E-05   -0.11439E-04  8424   0.784E-04 0.799E-04
CGA:  21    -0.666645314937E+03   -0.78740E-05   -0.10477E-04  8424   0.755E-04 0.769E-04
  13 F= -.66664531E+03 E0= -.66664531E+03  d E =0.256797E+00  mag=     6.0000
       N       E                     dE             d eps       ncg     rms          ort
SDA:   1    -0.662476930754E+03    0.41684E+01    0.00000E+00  8424   0.143E+02 0.000E+00
CGA:   2    -0.665351387983E+03   -0.28745E+01   -0.28727E+01  8424   0.599E+01 0.365E-01
CGA:   3    -0.666622991176E+03   -0.12716E+01   -0.12719E+01  8424   0.188E+01-0.543E-02
CGA:   4    -0.666928968012E+03   -0.30598E+00   -0.30598E+00  8424   0.444E+00 0.571E-03
CGA:   5    -0.667007853501E+03   -0.78885E-01   -0.78869E-01  8424   0.934E-01 0.157E-02
CGA:   6    -0.667026676626E+03   -0.18823E-01   -0.18817E-01  8424   0.218E-01 0.172E-03
CGA:   7    -0.667031377747E+03   -0.47011E-02   -0.46767E-02  8424   0.611E-02 0.548E-03
CGA:   8    -0.667032905550E+03   -0.15278E-02   -0.14910E-02  8424   0.176E-02 0.555E-03
CGA:   9    -0.667033362008E+03   -0.45646E-03   -0.43570E-03  8424   0.567E-03 0.400E-03
CGA:  10    -0.667033489615E+03   -0.12761E-03   -0.12636E-03  8424   0.271E-03 0.346E-03
CGA:  11    -0.667033527387E+03   -0.37772E-04   -0.42090E-04  8424   0.159E-03 0.190E-03
CGA:  12    -0.667033540179E+03   -0.12792E-04   -0.20089E-04  8424   0.130E-03 0.143E-03
CGA:  13    -0.667033546384E+03   -0.62048E-05   -0.14174E-04  8424   0.114E-03 0.122E-03
CGA:  14    -0.667033549555E+03   -0.31708E-05   -0.11146E-04  8424   0.103E-03 0.108E-03
  14 F= -.66703355E+03 E0= -.66703355E+03  d E =-.388235E+00  mag=     6.0000
       N       E                     dE             d eps       ncg     rms          ort
SDA:   1    -0.664456240667E+03    0.25773E+01    0.00000E+00  8424   0.846E+01 0.000E+00
CGA:   2    -0.666145169009E+03   -0.16889E+01   -0.16881E+01  8424   0.349E+01 0.184E-01
CGA:   3    -0.666886294982E+03   -0.74113E+00   -0.74125E+00  8424   0.112E+01-0.308E-02
CGA:   4    -0.667070402149E+03   -0.18411E+00   -0.18411E+00  8424   0.264E+00 0.211E-03
CGA:   5    -0.667116884498E+03   -0.46482E-01   -0.46470E-01  8424   0.550E-01 0.137E-02
CGA:   6    -0.667127948691E+03   -0.11064E-01   -0.11049E-01  8424   0.127E-01 0.470E-03
CGA:   7    -0.667130708762E+03   -0.27601E-02   -0.27393E-02  8424   0.357E-02 0.464E-03
CGA:   8    -0.667131613665E+03   -0.90490E-03   -0.87910E-03  8424   0.107E-02 0.392E-03
CGA:   9    -0.667131888555E+03   -0.27489E-03   -0.26077E-03  8424   0.377E-03 0.311E-03
CGA:  10    -0.667131966461E+03   -0.77906E-04   -0.80983E-04  8424   0.212E-03 0.279E-03
CGA:  11    -0.667131991363E+03   -0.24902E-04   -0.30339E-04  8424   0.140E-03 0.161E-03
CGA:  12    -0.667132002162E+03   -0.10799E-04   -0.17377E-04  8424   0.119E-03 0.128E-03
CGA:  13    -0.667132008461E+03   -0.62991E-05   -0.13258E-04  8424   0.108E-03 0.113E-03
CGA:  14    -0.667132012545E+03   -0.40842E-05   -0.11027E-04  8424   0.997E-04 0.103E-03
  15 F= -.66713201E+03 E0= -.66713201E+03  d E =-.984630E-01  mag=     6.0000
       N       E                     dE             d eps       ncg     rms          ort
SDA:   1    -0.666985296466E+03    0.14671E+00    0.00000E+00  8424   0.479E+00 0.000E+00
CGA:   2    -0.667087057282E+03   -0.10176E+00   -0.10174E+00  8424   0.214E+00 0.436E-03
CGA:   3    -0.667131324440E+03   -0.44267E-01   -0.44281E-01  8424   0.651E-01-0.372E-03
CGA:   4    -0.667141991197E+03   -0.10667E-01   -0.10668E-01  8424   0.149E-01 0.255E-03
CGA:   5    -0.667144498243E+03   -0.25070E-02   -0.25069E-02  8424   0.298E-02 0.629E-03
CGA:   6    -0.667145053384E+03   -0.55514E-03   -0.55002E-03  8424   0.680E-03 0.506E-03
CGA:   7    -0.667145168510E+03   -0.11513E-03   -0.12037E-03  8424   0.250E-03 0.322E-03
CGA:   8    -0.667145192822E+03   -0.24311E-04   -0.38807E-04  8424   0.149E-03 0.235E-03
CGA:   9    -0.667145195235E+03   -0.24137E-05   -0.12582E-04  8424   0.115E-03 0.128E-03
  16 F= -.66714520E+03 E0= -.66714520E+03  d E =-.131827E-01  mag=     6.0000
       N       E                     dE             d eps       ncg     rms          ort
SDA:   1    -0.662975673287E+03    0.41695E+01    0.00000E+00  8424   0.115E+02 0.000E+00
CGA:   2    -0.665694203908E+03   -0.27185E+01   -0.27163E+01  8424   0.561E+01 0.231E-01
CGA:   3    -0.666796490543E+03   -0.11023E+01   -0.11026E+01  8424   0.148E+01-0.834E-02
CGA:   4    -0.667037354632E+03   -0.24086E+00   -0.24086E+00  8424   0.340E+00 0.189E-03
CGA:   5    -0.667096117126E+03   -0.58762E-01   -0.58728E-01  8424   0.700E-01 0.298E-02
CGA:   6    -0.667110365697E+03   -0.14249E-01   -0.14171E-01  8424   0.166E-01 0.198E-02
CGA:   7    -0.667114079622E+03   -0.37139E-02   -0.36603E-02  8424   0.488E-02 0.105E-02
CGA:   8    -0.667115291427E+03   -0.12118E-02   -0.11557E-02  8424   0.159E-02 0.990E-03
CGA:   9    -0.667115631781E+03   -0.34035E-03   -0.33470E-03  8424   0.688E-03 0.876E-03
CGA:  10    -0.667115701876E+03   -0.70095E-04   -0.89861E-04  8424   0.428E-03 0.509E-03
CGA:  11    -0.667115718529E+03   -0.16653E-04   -0.42855E-04  8424   0.358E-03 0.390E-03
CGA:  12    -0.667115722964E+03   -0.44355E-05   -0.30791E-04  8424   0.319E-03 0.337E-03
CGA:  13    -0.667115721699E+03    0.12650E-05   -0.24308E-04  8424   0.292E-03 0.305E-03
CGA:  14    -0.667115717290E+03    0.44094E-05   -0.20122E-04  8424   0.272E-03 0.282E-03
CGA:  15    -0.667115711012E+03    0.62776E-05   -0.17147E-04  8424   0.257E-03 0.264E-03
CGA:  16    -0.667115703591E+03    0.74215E-05   -0.14904E-04  8424   0.244E-03 0.250E-03
CGA:  17    -0.667115695471E+03    0.81201E-05   -0.13141E-04  8424   0.234E-03 0.239E-03
CGA:  18    -0.667115686942E+03    0.85287E-05   -0.11714E-04  8424   0.225E-03 0.229E-03
CGA:  19    -0.667115678200E+03    0.87424E-05   -0.10532E-04  8424   0.218E-03 0.221E-03
  17 F= -.66711568E+03 E0= -.66711568E+03  d E =0.295170E-01  mag=     6.0000
       N       E                     dE             d eps       ncg     rms          ort
SDA:   1    -0.621384314292E+03    0.45731E+02    0.00000E+00  8424   0.169E+03 0.000E+00
CGA:   2    -0.649268703282E+03   -0.27884E+02   -0.27622E+02  8424   0.538E+02 0.519E+01
CGA:   3    -0.662185344886E+03   -0.12917E+02   -0.12966E+02  8424   0.186E+02-0.521E+00
CGA:   4    -0.665320912901E+03   -0.31356E+01   -0.31330E+01  8424   0.461E+01 0.360E-01
CGA:   5    -0.666094572074E+03   -0.77366E+00   -0.77295E+00  8424   0.100E+01 0.152E-01
CGA:   6    -0.666303822102E+03   -0.20925E+00   -0.20959E+00  8424   0.248E+00-0.487E-02
CGA:   7    -0.666359186604E+03   -0.55365E-01   -0.55207E-01  8424   0.736E-01 0.184E-02
CGA:   8    -0.666377477391E+03   -0.18291E-01   -0.18089E-01  8424   0.224E-01 0.202E-02
CGA:   9    -0.666383898051E+03   -0.64207E-02   -0.65872E-02  8424   0.908E-02-0.122E-02
CGA:  10    -0.666386527867E+03   -0.26298E-02   -0.26836E-02  8424   0.442E-02-0.345E-03
CGA:  11    -0.666387924173E+03   -0.13963E-02   -0.18041E-02  8424   0.354E-02-0.157E-02
CGA:  12    -0.666388499430E+03   -0.57526E-03   -0.60527E-03  8424   0.185E-02-0.346E-03
CGA:  13    -0.666388975893E+03   -0.47646E-03   -0.95116E-03  8424   0.311E-02-0.124E-02
CGA:  14    -0.666389823931E+03   -0.84804E-03   -0.91014E-03  8424   0.120E-02-0.679E-03
CGA:  15    -0.666390131148E+03   -0.30722E-03   -0.32733E-03  8424   0.995E-03-0.142E-03
CGA:  16    -0.666389586676E+03    0.54447E-03   -0.80300E-03  8424   0.986E-02-0.193E-02
CGA:  17    -0.666390849104E+03   -0.12624E-02   -0.13010E-02  8424   0.101E-02 0.317E-03
CGA:  18    -0.666391153008E+03   -0.30390E-03   -0.31326E-03  8424   0.396E-03-0.164E-03
[...]
CGA:  67    -0.667237189525E+03   -0.10901E-03    0.14326E-05  8424   0.239E-04 0.200E-04
CGA:  68    -0.667237186534E+03    0.29916E-05   -0.94565E-06  8424   0.190E-04 0.215E-04
  44 F= -.66723719E+03 E0= -.66723719E+03  d E =0.414036E+00  mag=     6.0000
       N       E                     dE             d eps       ncg     rms          ort
SDA:   1    -0.654196139358E+03    0.13041E+02    0.00000E+00  8424   0.429E+02 0.000E+00
CGA:   2    -0.662790615599E+03   -0.85945E+01   -0.85958E+01  8424   0.177E+02 0.187E+00
CGA:   3    -0.666483122050E+03   -0.36925E+01   -0.36928E+01  8424   0.548E+01-0.454E-01
CGA:   4    -0.667394539567E+03   -0.91142E+00   -0.91155E+00  8424   0.137E+01 0.147E-02
CGA:   5    -0.667630772535E+03   -0.23623E+00   -0.23649E+00  8424   0.278E+00 0.789E-02
CGA:   6    -0.667686771395E+03   -0.55999E-01   -0.56000E-01  8424   0.648E-01 0.234E-02
CGA:   7    -0.667700989758E+03   -0.14218E-01   -0.14175E-01  8424   0.194E-01 0.267E-02
CGA:   8    -0.667705738175E+03   -0.47484E-02   -0.46857E-02  8424   0.591E-02 0.205E-02
CGA:   9    -0.667707208458E+03   -0.14703E-02   -0.14427E-02  8424   0.194E-02 0.157E-02
CGA:  10    -0.667707479916E+03   -0.27146E-03   -0.35686E-03  8424   0.998E-03 0.145E-02
CGA:  11    -0.667707514668E+03   -0.34752E-04   -0.10814E-03  8424   0.665E-03 0.791E-03
CGA:  12    -0.667707506113E+03    0.85554E-05   -0.57504E-04  8424   0.547E-03 0.601E-03
CGA:  13    -0.667707485611E+03    0.20502E-04   -0.39865E-04  8424   0.479E-03 0.511E-03
CGA:  14    -0.667707460774E+03    0.24837E-04   -0.30497E-04  8424   0.434E-03 0.456E-03
CGA:  15    -0.667707434407E+03    0.26367E-04   -0.24583E-04  8424   0.400E-03 0.417E-03
CGA:  16    -0.667707407772E+03    0.26636E-04   -0.20479E-04  8424   0.374E-03 0.387E-03
CGA:  17    -0.667707381495E+03    0.26276E-04   -0.17454E-04  8424   0.354E-03 0.364E-03
CGA:  18    -0.667707355905E+03    0.25590E-04   -0.15127E-04  8424   0.337E-03 0.345E-03
CGA:  19    -0.667707331172E+03    0.24733E-04   -0.13281E-04  8424   0.322E-03 0.329E-03
CGA:  20    -0.667707307379E+03    0.23793E-04   -0.11781E-04  8424   0.310E-03 0.316E-03
CGA:  21    -0.667707284559E+03    0.22819E-04   -0.10536E-04  8424   0.299E-03 0.305E-03
CGA:  22    -0.667707262718E+03    0.21842E-04   -0.94890E-05  8424   0.290E-03 0.295E-03
CGA:  23    -0.667707241839E+03    0.20878E-04   -0.85958E-05  8424   0.282E-03 0.286E-03
CGA:  24    -0.667707221899E+03    0.19940E-04   -0.78274E-05  8424   0.275E-03 0.278E-03
CGA:  25    -0.667707202866E+03    0.19033E-04   -0.71583E-05  8424   0.268E-03 0.271E-03
CGA:  26    -0.667707184706E+03    0.18160E-04   -0.65711E-05  8424   0.263E-03 0.265E-03
CGA:  27    -0.667707167383E+03    0.17323E-04   -0.60519E-05  8424   0.257E-03 0.260E-03
CGA:  28    -0.667707150860E+03    0.16523E-04   -0.55904E-05  8424   0.252E-03 0.255E-03
CGA:  29    -0.667707135100E+03    0.15759E-04   -0.51777E-05  8424   0.248E-03 0.250E-03
CGA:  30    -0.667707120070E+03    0.15030E-04   -0.48069E-05  8424   0.244E-03 0.246E-03
CGA:  31    -0.667707105734E+03    0.14336E-04   -0.44723E-05  8424   0.240E-03 0.242E-03
CGA:  32    -0.667707092060E+03    0.13675E-04   -0.41691E-05  8424   0.237E-03 0.239E-03
CGA:  33    -0.667707079014E+03    0.13045E-04   -0.38933E-05  8424   0.234E-03 0.235E-03
CGA:  34    -0.667707066569E+03    0.12446E-04   -0.36417E-05  8424   0.231E-03 0.232E-03
CGA:  35    -0.667707054694E+03    0.11875E-04   -0.34114E-05  8424   0.228E-03 0.230E-03
CGA:  36    -0.667707043361E+03    0.11332E-04   -0.32000E-05  8424   0.226E-03 0.227E-03
CGA:  37    -0.667707032546E+03    0.10815E-04   -0.30054E-05  8424   0.224E-03 0.225E-03
CGA:  38    -0.667707022223E+03    0.10323E-04   -0.28260E-05  8424   0.222E-03 0.223E-03
CGA:  39    -0.667707012368E+03    0.98549E-05   -0.26601E-05  8424   0.220E-03 0.221E-03
  45 F= -.66770701E+03 E0= -.66770701E+03  d E =-.469826E+00  mag=     6.0000
       N       E                     dE             d eps       ncg     rms          ort
SDA:   1    -0.666806675009E+03    0.90035E+00    0.00000E+00  8424   0.277E+01 0.000E+00
CGA:   2    -0.667437124674E+03   -0.63045E+00   -0.62858E+00  8424   0.123E+01 0.117E-01
CGA:   3    -0.667675147006E+03   -0.23802E+00   -0.23897E+00  8424   0.361E+00-0.804E-02
CGA:   4    -0.667734534598E+03   -0.59388E-01   -0.59121E-01  8424   0.881E-01 0.298E-02
CGA:   5    -0.667749589863E+03   -0.15055E-01   -0.14461E-01  8424   0.160E-01 0.733E-02
CGA:   6    -0.667752661702E+03   -0.30718E-02   -0.27405E-02  8424   0.382E-02 0.457E-02
CGA:   7    -0.667753302712E+03   -0.64101E-03   -0.57278E-03  8424   0.160E-02 0.253E-02
CGA:   8    -0.667753438851E+03   -0.13614E-03   -0.14012E-03  8424   0.106E-02 0.126E-02
CGA:   9    -0.667753482593E+03   -0.43742E-04   -0.68472E-04  8424   0.867E-03 0.950E-03
CGA:  10    -0.667753499636E+03   -0.17043E-04   -0.46097E-04  8424   0.753E-03 0.802E-03
CGA:  11    -0.667753504333E+03   -0.46970E-05   -0.34406E-04  8424   0.676E-03 0.709E-03
CGA:  12    -0.667753502381E+03    0.19522E-05   -0.27153E-04  8424   0.618E-03 0.642E-03
CGA:  13    -0.667753496573E+03    0.58073E-05   -0.22206E-04  8424   0.574E-03 0.592E-03
CGA:  14    -0.667753488452E+03    0.81208E-05   -0.18617E-04  8424   0.538E-03 0.552E-03
CGA:  15    -0.667753478938E+03    0.95146E-05   -0.15898E-04  8424   0.508E-03 0.520E-03
CGA:  16    -0.667753468607E+03    0.10330E-04   -0.13768E-04  8424   0.483E-03 0.493E-03
CGA:  17    -0.667753457838E+03    0.10769E-04   -0.12059E-04  8424   0.461E-03 0.470E-03
CGA:  18    -0.667753446883E+03    0.10955E-04   -0.10659E-04  8424   0.443E-03 0.450E-03
CGA:  19    -0.667753435915E+03    0.10968E-04   -0.94942E-05  8424   0.426E-03 0.433E-03
CGA:  20    -0.667753425052E+03    0.10863E-04   -0.85115E-05  8424   0.412E-03 0.418E-03
CGA:  21    -0.667753414376E+03    0.10676E-04   -0.76732E-05  8424   0.399E-03 0.404E-03
CGA:  22    -0.667753403944E+03    0.10433E-04   -0.69504E-05  8424   0.387E-03 0.392E-03
CGA:  23    -0.667753393792E+03    0.10151E-04   -0.63233E-05  8424   0.377E-03 0.381E-03
CGA:  24    -0.667753383947E+03    0.98450E-05   -0.57745E-05  8424   0.367E-03 0.371E-03
  46 F= -.66775338E+03 E0= -.66775338E+03  d E =-.463716E-01  mag=     6.0000
       N       E                     dE             d eps       ncg     rms          ort
SDA:   1    -0.665484972921E+03    0.22684E+01    0.00000E+00  8424   0.651E+01 0.000E+00
CGA:   2    -0.667043427874E+03   -0.15585E+01   -0.15539E+01  8424   0.286E+01 0.271E-01
CGA:   3    -0.667585443587E+03   -0.54202E+00   -0.54448E+00  8424   0.813E+00-0.200E-01
CGA:   4    -0.667722018790E+03   -0.13658E+00   -0.13611E+00  8424   0.204E+00 0.444E-02
CGA:   5    -0.667756945182E+03   -0.34926E-01   -0.33756E-01  8424   0.374E-01 0.129E-01
CGA:   6    -0.667764446530E+03   -0.75013E-02   -0.67791E-02  8424   0.842E-02 0.784E-02
CGA:   7    -0.667766148906E+03   -0.17024E-02   -0.14446E-02  8424   0.317E-02 0.439E-02
CGA:   8    -0.667766565675E+03   -0.41677E-03   -0.35637E-03  8424   0.186E-02 0.227E-02
CGA:   9    -0.667766703112E+03   -0.13744E-03   -0.14900E-03  8424   0.149E-02 0.164E-02
CGA:  10    -0.667766769716E+03   -0.66604E-04   -0.96581E-04  8424   0.128E-02 0.137E-02
CGA:  11    -0.667766804069E+03   -0.34353E-04   -0.70660E-04  8424   0.113E-02 0.119E-02
CGA:  12    -0.667766820736E+03   -0.16667E-04   -0.55016E-04  8424   0.103E-02 0.107E-02
CGA:  13    -0.667766826745E+03   -0.60097E-05   -0.44530E-04  8424   0.948E-03 0.982E-03
CGA:  14    -0.667766825972E+03    0.77338E-06   -0.37017E-04  8424   0.883E-03 0.910E-03
CGA:  15    -0.667766820743E+03    0.52288E-05   -0.31384E-04  8424   0.830E-03 0.852E-03
CGA:  16    -0.667766812542E+03    0.82010E-05   -0.27016E-04  8424   0.785E-03 0.804E-03
CGA:  17    -0.667766802354E+03    0.10189E-04   -0.23539E-04  8424   0.747E-03 0.763E-03
CGA:  18    -0.667766790854E+03    0.11499E-04   -0.20716E-04  8424   0.715E-03 0.728E-03
CGA:  19    -0.667766778520E+03    0.12334E-04   -0.18384E-04  8424   0.686E-03 0.698E-03
CGA:  20    -0.667766765689E+03    0.12831E-04   -0.16432E-04  8424   0.661E-03 0.671E-03
CGA:  21    -0.667766752606E+03    0.13082E-04   -0.14779E-04  8424   0.639E-03 0.648E-03
CGA:  22    -0.667766739451E+03    0.13155E-04   -0.13364E-04  8424   0.619E-03 0.627E-03
CGA:  23    -0.667766726353E+03    0.13098E-04   -0.12141E-04  8424   0.601E-03 0.609E-03
CGA:  24    -0.667766713409E+03    0.12944E-04   -0.11077E-04  8424   0.585E-03 0.592E-03
CGA:  25    -0.667766700689E+03    0.12721E-04   -0.10146E-04  8424   0.571E-03 0.577E-03
CGA:  26    -0.667766688241E+03    0.12447E-04   -0.93247E-05  8424   0.557E-03 0.563E-03
CGA:  27    -0.667766676103E+03    0.12138E-04   -0.85964E-05  8424   0.546E-03 0.551E-03
CGA:  28    -0.667766664298E+03    0.11805E-04   -0.79471E-05  8424   0.535E-03 0.539E-03
CGA:  29    -0.667766652842E+03    0.11456E-04   -0.73656E-05  8424   0.525E-03 0.529E-03
CGA:  30    -0.667766641744E+03    0.11098E-04   -0.68425E-05  8424   0.515E-03 0.519E-03
CGA:  31    -0.667766631009E+03    0.10735E-04   -0.63702E-05  8424   0.507E-03 0.511E-03
CGA:  32    -0.667766620638E+03    0.10371E-04   -0.59424E-05  8424   0.499E-03 0.503E-03
CGA:  33    -0.667766610628E+03    0.10010E-04   -0.55532E-05  8424   0.492E-03 0.495E-03
CGA:  34    -0.667766600974E+03    0.96540E-05   -0.51981E-05  8424   0.485E-03 0.488E-03
  47 F= -.66776660E+03 E0= -.66776660E+03  d E =-.132170E-01  mag=     6.0000
       N       E                     dE             d eps       ncg     rms          ort
SDA:   1    -0.667622958626E+03    0.14365E+00    0.00000E+00  8424   0.435E+00 0.000E+00
CGA:   2    -0.667728077301E+03   -0.10512E+00   -0.48899E-02  8424   0.191E+00-0.745E-02
CGA:   3    -0.667763529726E+03   -0.35452E-01   -0.35244E-01  8424   0.525E-01 0.174E-02
CGA:   4    -0.667772450850E+03   -0.89211E-02   -0.85049E-02  8424   0.123E-01 0.486E-02
CGA:   5    -0.667774252212E+03   -0.18014E-02   -0.16112E-02  8424   0.273E-02 0.469E-02
CGA:   6    -0.667774490404E+03   -0.23819E-03   -0.26570E-03  8424   0.143E-02 0.246E-02
CGA:   7    -0.667774525524E+03   -0.35120E-04   -0.72663E-04  8424   0.109E-02 0.125E-02
CGA:   8    -0.667774531348E+03   -0.58240E-05   -0.44386E-04  8424   0.914E-03 0.999E-03
CGA:   9    -0.667774526412E+03    0.49363E-05   -0.31816E-04  8424   0.807E-03 0.860E-03
CGA:  10    -0.667774516560E+03    0.98511E-05   -0.24625E-04  8424   0.731E-03 0.769E-03
CGA:  11    -0.667774504291E+03    0.12270E-04   -0.19962E-04  8424   0.675E-03 0.703E-03
CGA:  12    -0.667774490842E+03    0.13448E-04   -0.16694E-04  8424   0.632E-03 0.653E-03
CGA:  13    -0.667774476891E+03    0.13952E-04   -0.14278E-04  8424   0.598E-03 0.614E-03
CGA:  14    -0.667774462824E+03    0.14067E-04   -0.12421E-04  8424   0.569E-03 0.583E-03
CGA:  15    -0.667774448875E+03    0.13949E-04   -0.10949E-04  8424   0.545E-03 0.557E-03
CGA:  16    -0.667774435184E+03    0.13691E-04   -0.97529E-05  8424   0.525E-03 0.535E-03
CGA:  17    -0.667774421838E+03    0.13346E-04   -0.87625E-05  8424   0.508E-03 0.516E-03
CGA:  18    -0.667774408890E+03    0.12947E-04   -0.79388E-05  8424   0.494E-03 0.500E-03
CGA:  19    -0.667774396373E+03    0.12518E-04   -0.72489E-05  8424   0.481E-03 0.487E-03
CGA:  20    -0.667774384296E+03    0.12077E-04   -0.66513E-05  8424   0.470E-03 0.475E-03
CGA:  21    -0.667774372663E+03    0.11633E-04   -0.61274E-05  8424   0.460E-03 0.464E-03
CGA:  22    -0.667774361470E+03    0.11193E-04   -0.56643E-05  8424   0.451E-03 0.455E-03
CGA:  23    -0.667774350711E+03    0.10759E-04   -0.52518E-05  8424   0.443E-03 0.446E-03
CGA:  24    -0.667774340375E+03    0.10336E-04   -0.48820E-05  8424   0.435E-03 0.438E-03
CGA:  25    -0.667774330451E+03    0.99238E-05   -0.45488E-05  8424   0.429E-03 0.431E-03
  48 F= -.66777433E+03 E0= -.66777433E+03  d E =-.772948E-02  mag=     6.0000
       N       E                     dE             d eps       ncg     rms          ort
SDA:   1    -0.646642925748E+03    0.21131E+02    0.00000E+00  8424   0.633E+02 0.000E+00
CGA:   2    -0.659759362483E+03   -0.13116E+02   -0.64018E-01  8424   0.415E+02-0.130E+02
CGA:   3    -0.665231245914E+03   -0.54719E+01   -0.54810E+01  8424   0.107E+02-0.134E+00
CGA:   4    -0.666897810578E+03   -0.16666E+01   -0.16678E+01  8424   0.267E+01-0.214E-01
CGA:   5    -0.667351936941E+03   -0.45413E+00   -0.45369E+00  8424   0.579E+00 0.498E-02
CGA:   6    -0.667462730216E+03   -0.11079E+00   -0.11127E+00  8424   0.158E+00-0.465E-02
CGA:   7    -0.667494689553E+03   -0.31959E-01   -0.31825E-01  8424   0.500E-01 0.119E-02
CGA:   8    -0.667505709182E+03   -0.11020E-01   -0.10496E-01  8424   0.159E-01 0.475E-02
CGA:   9    -0.667509763128E+03   -0.40539E-02   -0.38500E-02  8424   0.532E-02 0.172E-02
CGA:  10    -0.667511418408E+03   -0.16553E-02   -0.17511E-02  8424   0.305E-02-0.513E-03
CGA:  11    -0.667512212226E+03   -0.79382E-03   -0.81688E-03  8424   0.142E-02-0.132E-03
CGA:  12    -0.667512573663E+03   -0.36144E-03   -0.35514E-03  8424   0.537E-03 0.453E-04
CGA:  13    -0.667512705451E+03   -0.13179E-03   -0.11908E-03  8424   0.241E-03 0.157E-03
CGA:  14    -0.667512762441E+03   -0.56991E-04   -0.52382E-04  8424   0.135E-03 0.155E-03
CGA:  15    -0.667512818843E+03   -0.56402E-04   -0.44564E-04  8424   0.708E-04 0.620E-04
CGA:  16    -0.667512869945E+03   -0.51102E-04   -0.37334E-04  8424   0.553E-04 0.640E-04
CGA:  17    -0.667512878718E+03   -0.87728E-05   -0.88061E-05  8424   0.421E-04 0.458E-04
  49 F= -.66751288E+03 E0= -.66751288E+03  d E =0.261452E+00  mag=     6.0000
       N       E                     dE             d eps       ncg     rms          ort
SDA:   1    -0.653560602625E+03    0.13952E+02    0.00000E+00  8424   0.459E+02 0.000E+00
CGA:   2    -0.662563399076E+03   -0.90028E+01   -0.89809E+01  8424   0.186E+02 0.463E+00
CGA:   3    -0.666536782997E+03   -0.39734E+01   -0.39786E+01  8424   0.574E+01-0.913E-01
CGA:   4    -0.667473545355E+03   -0.93676E+00   -0.93679E+00  8424   0.141E+01 0.347E-02
CGA:   5    -0.667719263842E+03   -0.24572E+00   -0.24565E+00  8424   0.295E+00 0.876E-02
CGA:   6    -0.667779524326E+03   -0.60260E-01   -0.60205E-01  8424   0.664E-01 0.154E-02
CGA:   7    -0.667794093526E+03   -0.14569E-01   -0.14454E-01  8424   0.192E-01 0.239E-02
CGA:   8    -0.667798872485E+03   -0.47790E-02   -0.46647E-02  8424   0.570E-02 0.181E-02
CGA:   9    -0.667800366785E+03   -0.14943E-02   -0.14279E-02  8424   0.181E-02 0.121E-02
CGA:  10    -0.667800665116E+03   -0.29833E-03   -0.33086E-03  8424   0.866E-03 0.123E-02
CGA:  11    -0.667800723276E+03   -0.58160E-04   -0.98911E-04  8424   0.541E-03 0.662E-03
CGA:  12    -0.667800732217E+03   -0.89412E-05   -0.48742E-04  8424   0.431E-03 0.481E-03
CGA:  13    -0.667800726723E+03    0.54939E-05   -0.32087E-04  8424   0.370E-03 0.399E-03
CGA:  14    -0.667800715593E+03    0.11130E-04   -0.23714E-04  8424   0.330E-03 0.349E-03
CGA:  15    -0.667800701990E+03    0.13603E-04   -0.18618E-04  8424   0.300E-03 0.315E-03
CGA:  16    -0.667800687342E+03    0.14648E-04   -0.15180E-04  8424   0.278E-03 0.289E-03
CGA:  17    -0.667800672375E+03    0.14968E-04   -0.12705E-04  8424   0.260E-03 0.269E-03
CGA:  18    -0.667800657482E+03    0.14893E-04   -0.10839E-04  8424   0.246E-03 0.253E-03
CGA:  19    -0.667800642885E+03    0.14596E-04   -0.93860E-05  8424   0.234E-03 0.239E-03
CGA:  20    -0.667800628711E+03    0.14174E-04   -0.82229E-05  8424   0.223E-03 0.228E-03
CGA:  21    -0.667800615028E+03    0.13683E-04   -0.72717E-05  8424   0.214E-03 0.219E-03
CGA:  22    -0.667800601871E+03    0.13157E-04   -0.64805E-05  8424   0.206E-03 0.210E-03
CGA:  23    -0.667800589255E+03    0.12617E-04   -0.58145E-05  8424   0.200E-03 0.203E-03
CGA:  24    -0.667800577178E+03    0.12077E-04   -0.52492E-05  8424   0.194E-03 0.197E-03
CGA:  25    -0.667800565633E+03    0.11545E-04   -0.47618E-05  8424   0.188E-03 0.191E-03
CGA:  26    -0.667800554607E+03    0.11026E-04   -0.43379E-05  8424   0.183E-03 0.186E-03
CGA:  27    -0.667800544083E+03    0.10524E-04   -0.39668E-05  8424   0.179E-03 0.181E-03
CGA:  28    -0.667800534041E+03    0.10041E-04   -0.36405E-05  8424   0.175E-03 0.177E-03
CGA:  29    -0.667800524464E+03    0.95779E-05   -0.33523E-05  8424   0.172E-03 0.173E-03
  50 F= -.66780052E+03 E0= -.66780052E+03  d E =-.287646E+00  mag=     6.0000
       N       E                     dE             d eps       ncg     rms          ort
SDA:   1    -0.667405889291E+03    0.39464E+00    0.00000E+00  8424   0.134E+01 0.000E+00
CGA:   2    -0.667674493218E+03   -0.26860E+00   -0.26808E+00  8424   0.532E+00 0.442E-02
CGA:   3    -0.667788175389E+03   -0.11368E+00   -0.11354E+00  8424   0.175E+00 0.101E-02
CGA:   4    -0.667817126578E+03   -0.28951E-01   -0.28856E-01  8424   0.424E-01 0.139E-02
CGA:   5    -0.667824480199E+03   -0.73536E-02   -0.72220E-02  8424   0.828E-02 0.194E-02
CGA:   6    -0.667826036387E+03   -0.15562E-02   -0.14571E-02  8424   0.170E-02 0.156E-02
CGA:   7    -0.667826300479E+03   -0.26409E-03   -0.24905E-03  8424   0.649E-03 0.100E-02
CGA:   8    -0.667826341579E+03   -0.41100E-04   -0.53958E-04  8424   0.412E-03 0.503E-03
CGA:   9    -0.667826348905E+03   -0.73265E-05   -0.24722E-04  8424   0.331E-03 0.366E-03
CGA:  10    -0.667826347847E+03    0.10578E-05   -0.16115E-04  8424   0.284E-03 0.304E-03
CGA:  11    -0.667826343423E+03    0.44245E-05   -0.11788E-04  8424   0.253E-03 0.266E-03
  51 F= -.66782634E+03 E0= -.66782634E+03  d E =-.258190E-01  mag=     6.0000
       N       E                     dE             d eps       ncg     rms          ort
SDA:   1    -0.667510354133E+03    0.31599E+00    0.00000E+00  8424   0.966E+00 0.000E+00
CGA:   2    -0.667728994025E+03   -0.21864E+00   -0.21840E+00  8424   0.418E+00 0.177E-02
CGA:   3    -0.667811037576E+03   -0.82044E-01   -0.82268E-01  8424   0.124E+00-0.245E-02
CGA:   4    -0.667831866396E+03   -0.20829E-01   -0.20759E-01  8424   0.312E-01 0.111E-02
CGA:   5    -0.667837029590E+03   -0.51632E-02   -0.50285E-02  8424   0.569E-02 0.274E-02
CGA:   6    -0.667838011000E+03   -0.98141E-03   -0.91744E-03  8424   0.135E-02 0.180E-02
CGA:   7    -0.667838195731E+03   -0.18473E-03   -0.19144E-03  8424   0.605E-03 0.966E-03
CGA:   8    -0.667838232035E+03   -0.36304E-04   -0.50826E-04  8424   0.404E-03 0.481E-03
CGA:   9    -0.667838237935E+03   -0.58993E-05   -0.24676E-04  8424   0.332E-03 0.363E-03
CGA:  10    -0.667838235945E+03    0.19892E-05   -0.16535E-04  8424   0.289E-03 0.307E-03
CGA:  11    -0.667838230691E+03    0.52547E-05   -0.12287E-04  8424   0.259E-03 0.272E-03
  52 F= -.66783823E+03 E0= -.66783823E+03  d E =-.118873E-01  mag=     6.0000
       N       E                     dE             d eps       ncg     rms          ort
SDA:   1    -0.667003949636E+03    0.83429E+00    0.00000E+00  8424   0.233E+01 0.000E+00
CGA:   2    -0.667582896663E+03   -0.57895E+00   -0.57838E+00  8424   0.103E+01 0.376E-02
CGA:   3    -0.667773523262E+03   -0.19063E+00   -0.19114E+00  8424   0.294E+00-0.667E-02
CGA:   4    -0.667823548579E+03   -0.50025E-01   -0.49941E-01  8424   0.740E-01 0.139E-02
CGA:   5    -0.667835797696E+03   -0.12249E-01   -0.12028E-01  8424   0.134E-01 0.470E-02
CGA:   6    -0.667838320564E+03   -0.25229E-02   -0.23751E-02  8424   0.307E-02 0.295E-02
CGA:   7    -0.667838894896E+03   -0.57433E-03   -0.53668E-03  8424   0.117E-02 0.159E-02
CGA:   8    -0.667839032132E+03   -0.13724E-03   -0.13891E-03  8424   0.668E-03 0.817E-03
CGA:   9    -0.667839061897E+03   -0.29766E-04   -0.53672E-04  8424   0.538E-03 0.593E-03
CGA:  10    -0.667839069414E+03   -0.75171E-05   -0.34514E-04  8424   0.464E-03 0.495E-03
CGA:  11    -0.667839067713E+03    0.17010E-05   -0.25149E-04  8424   0.414E-03 0.435E-03
CGA:  12    -0.667839061453E+03    0.62606E-05   -0.19527E-04  8424   0.377E-03 0.393E-03
CGA:  13    -0.667839052779E+03    0.86738E-05   -0.15771E-04  8424   0.349E-03 0.361E-03
