       N       E                     dE             d eps       ncg     rms          ort
DAV:   1     0.826990648742E+04    0.82699E+04   -0.24647E+05  8424   0.238E+03
DAV:   2     0.920193556553E+03   -0.73497E+04   -0.68997E+04  8424   0.657E+02
DAV:   3    -0.673929432372E+03   -0.15941E+04   -0.14016E+04  8424   0.282E+02
DAV:   4    -0.830187786827E+03   -0.15626E+03   -0.15354E+03  8424   0.857E+01
DAV:   5    -0.832688284440E+03   -0.25005E+01   -0.24895E+01  8424   0.122E+01
SDA:   6    -0.268334846141E+03    0.56435E+03   -0.24895E+01  8424   0.352E+04 0.000E+00
CGA:   7    -0.610222251910E+03   -0.34189E+03   -0.38990E+03  8424   0.499E+03 0.376E+02
CGA:   8    -0.637980616100E+03   -0.27758E+02   -0.45063E+02  8424   0.238E+03 0.192E+02
CGA:   9    -0.645379084434E+03   -0.73985E+01   -0.23529E+02  8424   0.170E+03 0.187E+02
CGA:  10    -0.654992444318E+03   -0.96134E+01   -0.13364E+02  8424   0.913E+02-0.757E+01
CGA:  11    -0.650878092721E+03    0.41144E+01   -0.63525E+01  8424   0.295E+03-0.421E+02
CGA:  12    -0.661405939589E+03   -0.10528E+02   -0.54485E+01  8424   0.758E+02-0.908E+02
CGA:  13    -0.663832175298E+03   -0.24262E+01   -0.20954E+01  8424   0.614E+02 0.197E+02
CGA:  14    -0.657793373215E+03    0.60388E+01   -0.29718E+01  8424   0.434E+03-0.174E+03
CGA:  15    -0.659677698824E+03   -0.18843E+01   -0.29773E+02  8424   0.145E+03-0.761E+02
CGA:  16    -0.655962221575E+03    0.37155E+01   -0.66363E+01  8424   0.570E+03-0.145E+03
CGA:  17    -0.660830224765E+03   -0.48680E+01   -0.38233E+02  8424   0.134E+03-0.725E+02
CGA:  18    -0.658116833291E+03    0.27134E+01   -0.61219E+01  8424   0.527E+03-0.110E+03
CGA:  19    -0.663596406527E+03   -0.54796E+01   -0.34086E+02  8424   0.548E+02-0.581E+02
CGA:  20    -0.665713623073E+03   -0.21172E+01   -0.13549E+01  8424   0.261E+02 0.286E+02
CGA:  21    -0.666492377142E+03   -0.77875E+00   -0.42304E+00  8424   0.185E+02 0.222E+02
CGA:  22    -0.666960760459E+03   -0.46838E+00   -0.24466E+00  8424   0.147E+02 0.171E+02
CGA:  23    -0.667333598910E+03   -0.37284E+00   -0.18569E+00  8424   0.129E+02 0.152E+02
CGA:  24    -0.667710417755E+03   -0.37682E+00   -0.17879E+00  8424   0.109E+02 0.142E+02
CGA:  25    -0.668068946851E+03   -0.35853E+00   -0.19470E+00  8424   0.439E+01 0.802E+01
CGA:  26    -0.668213366380E+03   -0.14442E+00   -0.11058E+00  8424   0.739E+00 0.103E+01
CGA:  27    -0.668273584725E+03   -0.60218E-01   -0.59048E-01  8424   0.175E+01-0.131E-01
CGA:  28    -0.668371323123E+03   -0.97738E-01   -0.78500E-01  8424   0.268E+01 0.330E+00
CGA:  29    -0.668447847594E+03   -0.76524E-01   -0.68475E-01  8424   0.161E+01 0.105E+00
CGA:  30    -0.668482997953E+03   -0.35150E-01   -0.32758E-01  8424   0.991E+00 0.146E+00
CGA:  31    -0.668510744408E+03   -0.27746E-01   -0.28075E-01  8424   0.965E+00-0.115E-01
CGA:  32    -0.668544733250E+03   -0.33989E-01   -0.32411E-01  8424   0.123E+01 0.588E-01
CGA:  33    -0.668574890209E+03   -0.30157E-01   -0.20851E-01  8424   0.995E+00 0.572E+00
CGA:  34    -0.668613547834E+03   -0.38658E-01   -0.30945E-01  8424   0.701E+00 0.358E+00
CGA:  35    -0.668646848722E+03   -0.33301E-01   -0.33596E-01  8424   0.815E+00 0.215E-01
CGA:  36    -0.668674139814E+03   -0.27291E-01   -0.26023E-01  8424   0.796E+00 0.472E-01
CGA:  37    -0.668700422835E+03   -0.26283E-01   -0.26596E-01  8424   0.609E+00-0.757E-02
CGA:  38    -0.668724888188E+03   -0.24465E-01   -0.26104E-01  8424   0.554E+00-0.262E-01
CGA:  39    -0.668756694746E+03   -0.31807E-01   -0.32137E-01  8424   0.364E+00 0.282E-02
CGA:  40    -0.668780350257E+03   -0.23656E-01   -0.23693E-01  8424   0.277E+00-0.226E-02
CGA:  41    -0.668810338554E+03   -0.29988E-01   -0.30107E-01  8424   0.343E+00-0.569E-02
CGA:  42    -0.668848367517E+03   -0.38029E-01   -0.38459E-01  8424   0.419E+00-0.151E-01
CGA:  43    -0.668914862335E+03   -0.66495E-01   -0.69122E-01  8424   0.510E+00-0.508E-01
CGA:  44    -0.668909482570E+03    0.53798E-02   -0.92605E-01  8424   0.178E+01-0.129E+01
CGA:  45    -0.669072058914E+03   -0.16258E+00   -0.15899E+00  8424   0.370E+00 0.316E+00
CGA:  46    -0.669173665682E+03   -0.10161E+00   -0.95100E-01  8424   0.257E+00 0.412E-01
CGA:  47    -0.669211880937E+03   -0.38215E-01   -0.13642E-01  8424   0.654E+00-0.229E+00
CGA:  48    -0.669305338601E+03   -0.93458E-01   -0.93301E-01  8424   0.156E+00-0.342E-02
CGA:  49    -0.669358783818E+03   -0.53445E-01   -0.57510E-01  8424   0.813E-01-0.195E-01
CGA:  50    -0.669378819006E+03   -0.20035E-01   -0.22738E-01  8424   0.101E+00-0.185E-01
CGA:  51    -0.669295728509E+03    0.83090E-01   -0.49815E-01  8424   0.601E+00-0.168E+00
CGA:  52    -0.669432206953E+03   -0.13648E+00   -0.13646E+00  8424   0.140E+00-0.598E-03
CGA:  53    -0.669464893796E+03   -0.32687E-01   -0.32431E-01  8424   0.415E-01-0.280E-02
CGA:  54    -0.669478219315E+03   -0.13326E-01   -0.13338E-01  8424   0.129E-01-0.187E-02
CGA:  55    -0.669481895768E+03   -0.36765E-02   -0.36723E-02  8424   0.496E-02-0.198E-03
CGA:  56    -0.669483781729E+03   -0.18860E-02   -0.18281E-02  8424   0.441E-02 0.107E-02
CGA:  57    -0.669486108114E+03   -0.23264E-02   -0.22050E-02  8424   0.313E-02 0.135E-02
CGA:  58    -0.669488825249E+03   -0.27171E-02   -0.25276E-02  8424   0.332E-02 0.589E-03
CGA:  59    -0.669484508268E+03    0.43170E-02   -0.30893E-02  8424   0.694E-01-0.777E-02
CGA:  60    -0.669496915987E+03   -0.12408E-01   -0.12359E-01  8424   0.118E-01 0.763E-04
CGA:  61    -0.669501834687E+03   -0.49187E-02   -0.46447E-02  8424   0.818E-02-0.141E-02
CGA:  62    -0.669505850879E+03   -0.40162E-02   -0.38984E-02  8424   0.879E-02-0.239E-02
CGA:  63    -0.669509076966E+03   -0.32261E-02   -0.28188E-02  8424   0.866E-02-0.303E-02
CGA:  64    -0.669511521086E+03   -0.24441E-02   -0.19565E-02  8424   0.490E-02-0.211E-02
CGA:  65    -0.669513619007E+03   -0.20979E-02   -0.20912E-02  8424   0.457E-02-0.119E-02
CGA:  66    -0.669515433562E+03   -0.18146E-02   -0.17990E-02  8424   0.455E-02-0.416E-03
CGA:  67    -0.669517095460E+03   -0.16619E-02   -0.16610E-02  8424   0.497E-02-0.895E-04
CGA:  68    -0.669519804969E+03   -0.27095E-02   -0.27079E-02  8424   0.489E-02-0.634E-03
CGA:  69    -0.669522875564E+03   -0.30706E-02   -0.42031E-02  8424   0.104E-01-0.304E-02
CGA:  70    -0.669525720101E+03   -0.28445E-02   -0.26116E-02  8424   0.399E-02-0.725E-03
CGA:  71    -0.669527785689E+03   -0.20656E-02   -0.20323E-02  8424   0.606E-02-0.199E-02
CGA:  72    -0.669529489743E+03   -0.17041E-02   -0.17299E-02  8424   0.807E-02-0.462E-02
CGA:  73    -0.669531459579E+03   -0.19698E-02   -0.19748E-02  8424   0.363E-02 0.400E-04
CGA:  74    -0.669532836142E+03   -0.13766E-02   -0.12591E-02  8424   0.127E-02-0.589E-03
CGA:  75    -0.669533364104E+03   -0.52796E-03   -0.47751E-03  8424   0.152E-02-0.585E-03
CGA:  76    -0.669534577876E+03   -0.12138E-02    0.55564E-03  8424   0.150E-02-0.239E-03
CGA:  77    -0.669536365279E+03   -0.17874E-02    0.10307E-02  8424   0.172E-02-0.175E-03
CGA:  78    -0.669539137970E+03   -0.27727E-02    0.56560E-03  8424   0.114E-02 0.148E-03
CGA:  79    -0.669541728388E+03   -0.25904E-02    0.34177E-03  8424   0.896E-03 0.469E-03
CGA:  80    -0.669544275517E+03   -0.25471E-02    0.37787E-03  8424   0.107E-02 0.136E-03
CGA:  81    -0.669547686393E+03   -0.34109E-02    0.20726E-03  8424   0.128E-02 0.157E-03
CGA:  82    -0.669552261184E+03   -0.45748E-02    0.20387E-03  8424   0.180E-02-0.312E-04
CGA:  83    -0.669559640252E+03   -0.73791E-02    0.15876E-03  8424   0.186E-02 0.661E-03
CGA:  84    -0.669568223120E+03   -0.85829E-02    0.31388E-03  8424   0.234E-02 0.393E-03
CGA:  85    -0.669579714255E+03   -0.11491E-01    0.26960E-03  8424   0.301E-02 0.143E-03
CGA:  86    -0.669594911269E+03   -0.15197E-01    0.24549E-03  8424   0.387E-02-0.154E-02
CGA:  87    -0.669595873966E+03   -0.96270E-03   -0.10026E-02  8424   0.115E-02 0.149E-03
CGA:  88    -0.669596314049E+03   -0.44008E-03   -0.44033E-03  8424   0.727E-03 0.428E-06
CGA:  89    -0.669596603590E+03   -0.28954E-03   -0.28470E-03  8424   0.407E-03-0.441E-04
CGA:  90    -0.669594702914E+03    0.19007E-02   -0.10544E-02  8424   0.134E-01-0.121E-02
CGA:  91    -0.669597830250E+03   -0.31273E-02   -0.28971E-02  8424   0.320E-02-0.299E-03
CGA:  92    -0.669599261693E+03   -0.14314E-02   -0.11962E-02  8424   0.144E-02-0.471E-03
CGA:  93    -0.669600080429E+03   -0.81874E-03   -0.58940E-03  8424   0.210E-02-0.605E-03
CGA:  94    -0.669601066242E+03   -0.98581E-03   -0.10526E-02  8424   0.537E-02-0.268E-02
CGA:  95    -0.669602319568E+03   -0.12533E-02   -0.12798E-02  8424   0.206E-02 0.581E-04
CGA:  96    -0.669603255136E+03   -0.93557E-03   -0.82325E-03  8424   0.116E-02-0.270E-03
CGA:  97    -0.669603862473E+03   -0.60734E-03   -0.48981E-03  8424   0.975E-03-0.385E-03
CGA:  98    -0.669604350813E+03   -0.48834E-03   -0.30325E-03  8424   0.133E-02-0.605E-03
CGA:  99    -0.669604776338E+03   -0.42553E-03   -0.32771E-03  8424   0.688E-03-0.189E-03
CGA: 100    -0.669604316604E+03    0.45973E-03   -0.88166E-03  8424   0.110E-01-0.178E-02
CGA: 101    -0.669606167981E+03   -0.18514E-02   -0.18167E-02  8424   0.178E-02 0.107E-04
CGA: 102    -0.669606915934E+03   -0.74795E-03   -0.61616E-03  8424   0.605E-03-0.334E-03
CGA: 103    -0.669590547492E+03    0.16368E-01   -0.89016E-02  8424   0.868E-01-0.471E-02
CGA: 104    -0.669606025797E+03   -0.15478E-01   -0.15379E-01  8424   0.169E-01-0.299E-02
CGA: 105    -0.669611093887E+03   -0.50681E-02   -0.49665E-02  8424   0.390E-02-0.779E-04
CGA: 106    -0.669612662130E+03   -0.15682E-02   -0.13668E-02  8424   0.113E-02-0.241E-03
CGA: 107    -0.669613117552E+03   -0.45542E-03   -0.27426E-03  8424   0.408E-03-0.201E-03
CGA: 108    -0.669614097429E+03   -0.97988E-03    0.63561E-03  8424   0.231E-02-0.404E-03
CGA: 109    -0.669614602435E+03   -0.50501E-03   -0.41930E-03  8424   0.376E-03-0.890E-04
CGA: 110    -0.669614482227E+03    0.12021E-03   -0.59443E-03  8424   0.106E-01-0.128E-02
CGA: 111    -0.669616144419E+03   -0.16622E-02   -0.16686E-02  8424   0.103E-02 0.891E-04
CGA: 112    -0.669616676991E+03   -0.53257E-03   -0.34045E-03  8424   0.488E-03-0.265E-03
CGA: 113    -0.669589249709E+03    0.27427E-01   -0.15003E-01  8424   0.166E+00-0.540E-02
CGA: 114    -0.669616727365E+03   -0.27478E-01   -0.28780E-01  8424   0.272E-01-0.149E-01
CGA: 115    -0.669623561185E+03   -0.68338E-02   -0.67785E-02  8424   0.642E-02 0.183E-03
CGA: 116    -0.669626021772E+03   -0.24606E-02   -0.21346E-02  8424   0.113E-02-0.258E-03
CGA: 117    -0.669626650862E+03   -0.62909E-03   -0.37002E-03  8424   0.729E-03-0.202E-03
CGA: 118    -0.669627453581E+03   -0.80272E-03   -0.34602E-03  8424   0.120E-02-0.467E-03
CGA: 119    -0.669627822074E+03   -0.36849E-03   -0.23952E-03  8424   0.323E-03-0.983E-04
CGA: 120    -0.669613699100E+03    0.14123E-01   -0.17525E-02  8424   0.107E+00-0.359E-02
CGA: 121    -0.669630327286E+03   -0.16628E-01   -0.16101E-01  8424   0.117E-01 0.239E-02
CGA: 122    -0.669634264966E+03   -0.39377E-02   -0.36274E-02  8424   0.292E-02-0.248E-03
CGA: 123    -0.669635415259E+03   -0.11503E-02   -0.93104E-03  8424   0.114E-02-0.180E-03
CGA: 124    -0.669636116196E+03   -0.70094E-03   -0.35353E-03  8424   0.608E-03-0.306E-03
CGA: 125    -0.669636782244E+03   -0.66605E-03   -0.24825E-03  8424   0.138E-02-0.492E-03
CGA: 126    -0.669637271519E+03   -0.48927E-03   -0.30333E-03  8424   0.436E-03-0.163E-03
CGA: 127    -0.669637863305E+03   -0.59179E-03   -0.39250E-03  8424   0.355E-02-0.676E-03
CGA: 128    -0.669638655984E+03   -0.79268E-03   -0.58687E-03  8424   0.508E-03-0.187E-03
CGA: 129    -0.669639194445E+03   -0.53846E-03   -0.29647E-03  8424   0.103E-02-0.387E-03
CGA: 130    -0.669639612443E+03   -0.41800E-03   -0.22514E-03  8424   0.409E-03-0.196E-03
CGA: 131    -0.669639129846E+03    0.48260E-03   -0.62290E-03  8424   0.156E-01-0.156E-02
CGA: 132    -0.669641841850E+03   -0.27120E-02   -0.24339E-02  8424   0.209E-02-0.404E-03
CGA: 133    -0.669642587202E+03   -0.74535E-03   -0.60115E-03  8424   0.255E-03-0.170E-03
CGA: 134    -0.669643311162E+03   -0.72396E-03    0.32833E-03  8424   0.386E-02-0.523E-03
CGA: 135    -0.669643923065E+03   -0.61190E-03   -0.56794E-03  8424   0.327E-03-0.153E-04
CGA: 136    -0.669643721548E+03    0.20152E-03   -0.51537E-03  8424   0.106E-01-0.137E-02
CGA: 137    -0.669645546582E+03   -0.18250E-02   -0.18264E-02  8424   0.114E-02 0.593E-04
CGA: 138    -0.669646066177E+03   -0.51960E-03   -0.30496E-03  8424   0.421E-03-0.281E-03
CGA: 139    -0.669646923372E+03   -0.85719E-03    0.45375E-03  8424   0.240E-02-0.487E-03
CGA: 140    -0.669647596098E+03   -0.67273E-03   -0.47404E-03  8424   0.646E-03-0.261E-03
CGA: 141    -0.669648072141E+03   -0.47604E-03   -0.27584E-03  8424   0.890E-03-0.418E-03
CGA: 142    -0.669648471449E+03   -0.39931E-03   -0.20774E-03  8424   0.467E-03-0.276E-03
CGA: 143    -0.669649286911E+03   -0.81546E-03    0.35854E-03  8424   0.268E-02-0.515E-03
CGA: 144    -0.669649958700E+03   -0.67179E-03   -0.48423E-03  8424   0.538E-03-0.275E-03
CGA: 145    -0.669650375798E+03   -0.41710E-03   -0.25647E-03  8424   0.128E-02-0.484E-03
CGA: 146    -0.669650811130E+03   -0.43533E-03   -0.25432E-03  8424   0.400E-03-0.284E-03
CGA: 147    -0.669651419961E+03   -0.60883E-03    0.64324E-03  8424   0.245E-02-0.489E-03
CGA: 148    -0.669652013108E+03   -0.59315E-03   -0.41482E-03  8424   0.413E-03-0.289E-03
CGA: 149    -0.669651850094E+03    0.16301E-03   -0.46433E-03  8424   0.909E-02-0.128E-02
CGA: 150    -0.669653494618E+03   -0.16445E-02   -0.14087E-02  8424   0.974E-03-0.438E-03
CGA: 151    -0.669653922220E+03   -0.42760E-03   -0.29523E-03  8424   0.387E-03-0.291E-03
CGA: 152    -0.669654887779E+03   -0.96556E-03    0.74776E-04  8424   0.136E-02-0.233E-03
CGA: 153    -0.669655161881E+03   -0.27410E-03   -0.22863E-03  8424   0.268E-03-0.725E-04
CGA: 154    -0.669655933311E+03   -0.77143E-03    0.83323E-04  8424   0.832E-03-0.205E-03
CGA: 155    -0.669656217275E+03   -0.28396E-03   -0.19982E-03  8424   0.397E-03-0.174E-03
CGA: 156    -0.669657057235E+03   -0.83996E-03    0.12028E-03  8424   0.168E-02-0.413E-03
CGA: 157    -0.669657391710E+03   -0.33447E-03   -0.29110E-03  8424   0.339E-03-0.769E-04
CGA: 158    -0.669658075187E+03   -0.68348E-03    0.19176E-03  8424   0.115E-02-0.354E-03
CGA: 159    -0.669658374036E+03   -0.29885E-03   -0.23484E-03  8424   0.352E-03-0.134E-03
CGA: 160    -0.669659092072E+03   -0.71804E-03    0.12943E-03  8424   0.131E-02-0.361E-03
CGA: 161    -0.669659376809E+03   -0.28474E-03   -0.23548E-03  8424   0.297E-03-0.101E-03
CGA: 162    -0.669660062979E+03   -0.68617E-03    0.86147E-04  8424   0.853E-03-0.237E-03
CGA: 163    -0.669660320700E+03   -0.25772E-03   -0.18726E-03  8424   0.344E-03-0.172E-03
CGA: 164    -0.669661081827E+03   -0.76113E-03    0.64567E-04  8424   0.959E-03-0.243E-03
CGA: 165    -0.669661337713E+03   -0.25589E-03   -0.19463E-03  8424   0.310E-03-0.150E-03
CGA: 166    -0.669662033748E+03   -0.69603E-03    0.60158E-04  8424   0.834E-03-0.216E-03
CGA: 167    -0.669662277187E+03   -0.24344E-03   -0.17746E-03  8424   0.324E-03-0.176E-03
CGA: 168    -0.669662999755E+03   -0.72257E-03    0.48529E-04  8424   0.742E-03-0.184E-03
CGA: 169    -0.669663240458E+03   -0.24070E-03   -0.17214E-03  8424   0.366E-03-0.204E-03
CGA: 170    -0.669663976994E+03   -0.73654E-03    0.47939E-04  8424   0.784E-03-0.200E-03
CGA: 171    -0.669664236844E+03   -0.25985E-03   -0.18877E-03  8424   0.400E-03-0.229E-03
CGA: 172    -0.669664954959E+03   -0.71811E-03    0.55154E-04  8424   0.899E-03-0.253E-03
CGA: 173    -0.669665210527E+03   -0.25557E-03   -0.19528E-03  8424   0.344E-03-0.189E-03
CGA: 174    -0.669665845852E+03   -0.63533E-03    0.56040E-04  8424   0.786E-03-0.232E-03
CGA: 175    -0.669666082110E+03   -0.23626E-03   -0.17359E-03  8424   0.354E-03-0.210E-03
CGA: 176    -0.669666751523E+03   -0.66941E-03    0.42041E-04  8424   0.616E-03-0.173E-03
CGA: 177    -0.669668393050E+03   -0.16415E-02    0.19138E-04  8424   0.448E-03 0.224E-03
CGA: 178    -0.669669983306E+03   -0.15903E-02    0.97322E-04  8424   0.902E-03-0.112E-03
CGA: 179    -0.669673320919E+03   -0.33376E-02    0.43636E-04  8424   0.265E-02-0.709E-03
CGA: 180    -0.669674165024E+03   -0.84410E-03   -0.78091E-03  8424   0.637E-03-0.302E-03
CGA: 181    -0.669674469912E+03   -0.30489E-03   -0.24902E-03  8424   0.268E-02-0.107E-02
CGA: 182    -0.669674819657E+03   -0.34975E-03   -0.35069E-03  8424   0.167E-03 0.130E-04
CGA: 183    -0.669675255410E+03   -0.43575E-03    0.22761E-04  8424   0.119E-03-0.147E-04
CGA: 184    -0.669675950929E+03   -0.69552E-03    0.44817E-05  8424   0.115E-03 0.105E-03
CGA: 185    -0.669676348253E+03   -0.39732E-03    0.10230E-04  8424   0.760E-04 0.316E-04
CGA: 186    -0.669677000115E+03   -0.65186E-03    0.37442E-05  8424   0.101E-03 0.839E-04
CGA: 187    -0.669677345998E+03   -0.34588E-03    0.90493E-05  8424   0.164E-03 0.943E-05
CGA: 188    -0.669678349455E+03   -0.10035E-02    0.85938E-05  8424   0.227E-03 0.474E-04
CGA: 189    -0.669680159314E+03   -0.18099E-02    0.12531E-04  8424   0.138E-03 0.269E-03
CGA: 190    -0.669680460767E+03   -0.30145E-03    0.24695E-04  8424   0.265E-03-0.437E-04
CGA: 191    -0.669681462259E+03   -0.10015E-02    0.87669E-05  8424   0.436E-03-0.934E-04
CGA: 192    -0.669683582432E+03   -0.21202E-02    0.96008E-05  8424   0.789E-03 0.183E-03
CGA: 193    -0.669687724478E+03   -0.41420E-02    0.91014E-04  8424   0.815E-03 0.448E-04
CGA: 194    -0.669692336845E+03   -0.46124E-02    0.43713E-04  8424   0.156E-02-0.256E-03
CGA: 195    -0.669701881176E+03   -0.95443E-02    0.30146E-04  8424   0.111E-02 0.448E-03
CGA: 196    -0.669708447639E+03   -0.65665E-02    0.86999E-04  8424   0.412E-02-0.127E-02
CGA: 197    -0.669709111490E+03   -0.66385E-03   -0.54550E-03  8424   0.107E-03-0.363E-03
CGA: 198    -0.669709131965E+03   -0.20476E-04   -0.21984E-04  8424   0.339E-04 0.639E-05
CGA: 199    -0.669709189354E+03   -0.57388E-04    0.99785E-05  8424   0.414E-04 0.484E-05
CGA: 200    -0.669709293526E+03   -0.10417E-03    0.70949E-05  8424   0.376E-04 0.359E-04
   1 F= -.66970929E+03 E0= -.66970929E+03  d E =-.669709E+03  mag=     2.0000
       N       E                     dE             d eps       ncg     rms          ort
SDA:   1    -0.669711304556E+03   -0.21152E-02    0.00000E+00  8424   0.269E-02 0.000E+00
CGA:   2    -0.669711875592E+03   -0.57104E-03   -0.55065E-03  8424   0.126E-02-0.856E-04
CGA:   3    -0.669712136114E+03   -0.26052E-03   -0.25676E-03  8424   0.378E-03-0.175E-04
CGA:   4    -0.669712222588E+03   -0.86474E-04   -0.74474E-04  8424   0.147E-03-0.546E-04
CGA:   5    -0.669712269528E+03   -0.46940E-04   -0.36533E-04  8424   0.173E-03-0.872E-04
CGA:   6    -0.669712299423E+03   -0.29894E-04   -0.24666E-04  8424   0.490E-04-0.201E-04
CGA:   7    -0.669712355562E+03   -0.56139E-04    0.12843E-04  8424   0.483E-04-0.432E-05
CGA:   8    -0.669712452932E+03   -0.97370E-04    0.47237E-05  8424   0.398E-04 0.197E-04
CGA:   9    -0.669712574249E+03   -0.12132E-03    0.62105E-05  8424   0.406E-04 0.269E-04
CGA:  10    -0.669712624600E+03   -0.50351E-04    0.13572E-04  8424   0.824E-04-0.188E-04
CGA:  11    -0.669712737909E+03   -0.11331E-03    0.37917E-05  8424   0.128E-03-0.753E-05
CGA:  12    -0.669712952593E+03   -0.21468E-03    0.16669E-04  8424   0.279E-03-0.482E-04
CGA:  13    -0.669713504669E+03   -0.55208E-03    0.11154E-04  8424   0.569E-03-0.479E-04
CGA:  14    -0.669714807164E+03   -0.13025E-02    0.36398E-04  8424   0.100E-02-0.937E-04
CGA:  15    -0.669717275458E+03   -0.24683E-02    0.59261E-04  8424   0.165E-02-0.585E-03
CGA:  16    -0.669717670256E+03   -0.39480E-03   -0.36610E-03  8424   0.346E-03-0.170E-03
CGA:  17    -0.669717726707E+03   -0.56451E-04   -0.59439E-04  8424   0.106E-03 0.157E-04
CGA:  18    -0.669717818063E+03   -0.91356E-04    0.19279E-03  8424   0.502E-04-0.122E-04
CGA:  19    -0.669717899622E+03   -0.81559E-04    0.56601E-05  8424   0.271E-04 0.114E-04
CGA:  20    -0.669717966177E+03   -0.66556E-04    0.36888E-05  8424   0.245E-04-0.350E-06
CGA:  21    -0.669718073208E+03   -0.10703E-03    0.91331E-06  8424   0.261E-04-0.274E-05
CGA:  22    -0.669718210796E+03   -0.13759E-03    0.62082E-06  8424   0.201E-04 0.731E-05
CGA:  23    -0.669718351990E+03   -0.14119E-03    0.75554E-06  8424   0.278E-04 0.125E-04
CGA:  24    -0.669718400850E+03   -0.48860E-04    0.38193E-05  8424   0.574E-04-0.159E-04
CGA:  25    -0.669718409024E+03   -0.81743E-05   -0.80834E-05  8424   0.997E-05-0.396E-06
   2 F= -.66971841E+03 E0= -.66971841E+03  d E =-.911550E-02  mag=     2.0000
       N       E                     dE             d eps       ncg     rms          ort
SDA:   1    -0.669619083850E+03    0.99317E-01    0.00000E+00  8424   0.378E+00 0.000E+00
CGA:   2    -0.669702520482E+03   -0.83437E-01   -0.83442E-01  8424   0.171E+00-0.145E-04
CGA:   3    -0.669736922260E+03   -0.34402E-01   -0.34411E-01  8424   0.502E-01 0.257E-04
CGA:   4    -0.669745012064E+03   -0.80898E-02   -0.80965E-02  8424   0.121E-01 0.264E-04
CGA:   5    -0.669747136796E+03   -0.21247E-02   -0.21165E-02  8424   0.253E-02-0.527E-04
CGA:   6    -0.669747672910E+03   -0.53611E-03   -0.52285E-03  8424   0.629E-03-0.110E-03
CGA:   7    -0.669747840393E+03   -0.16748E-03   -0.16029E-03  8424   0.281E-03-0.127E-03
CGA:   8    -0.669747868674E+03   -0.28280E-04   -0.13289E-03  8424   0.967E-03-0.385E-03
CGA:   9    -0.669748030430E+03   -0.16176E-03   -0.15235E-03  8424   0.126E-03-0.535E-04
CGA:  10    -0.669748113666E+03   -0.83236E-04    0.25993E-03  8424   0.450E-04-0.207E-04
CGA:  11    -0.669748182767E+03   -0.69101E-04    0.33499E-05  8424   0.216E-04-0.371E-05
CGA:  12    -0.669748262551E+03   -0.79784E-04    0.61875E-06  8424   0.121E-04 0.745E-05
CGA:  13    -0.669748348790E+03   -0.86239E-04    0.36760E-06  8424   0.110E-04 0.995E-05
CGA:  14    -0.669748394861E+03   -0.46072E-04    0.32566E-06  8424   0.930E-05 0.378E-05
CGA:  15    -0.669748474811E+03   -0.79950E-04    0.23048E-06  8424   0.903E-05 0.998E-05
CGA:  16    -0.669748519522E+03   -0.44711E-04    0.22212E-06  8424   0.785E-05 0.454E-05
CGA:  17    -0.669748560834E+03   -0.41312E-04    0.18018E-06  8424   0.990E-05 0.380E-05
CGA:  18    -0.669748659768E+03   -0.98934E-04    0.25532E-06  8424   0.787E-05 0.131E-04
CGA:  19    -0.669748702614E+03   -0.42846E-04    0.17353E-06  8424   0.666E-05 0.512E-05
CGA:  20    -0.669748744952E+03   -0.42337E-04    0.12329E-06  8424   0.643E-05 0.560E-05
CGA:  21    -0.669748787352E+03   -0.42400E-04    0.11442E-06  8424   0.643E-05 0.566E-05
CGA:  22    -0.669748828743E+03   -0.41391E-04    0.11743E-06  8424   0.663E-05 0.556E-05
CGA:  23    -0.669748871502E+03   -0.42759E-04    0.12086E-06  8424   0.736E-05 0.515E-05
CGA:  24    -0.669748911165E+03   -0.39663E-04    0.16443E-06  8424   0.979E-05 0.381E-05
CGA:  25    -0.669748954796E+03   -0.43632E-04    0.27200E-06  8424   0.180E-04-0.637E-06
CGA:  26    -0.669749073149E+03   -0.11835E-03    0.28031E-06  8424   0.195E-04 0.166E-04
CGA:  27    -0.669749104730E+03   -0.31581E-04    0.21422E-05  8424   0.519E-04-0.185E-04
CGA:  28    -0.669749142314E+03   -0.37584E-04    0.74102E-04  8424   0.176E-03-0.814E-04
CGA:  29    -0.669749168732E+03   -0.26418E-04   -0.22306E-04  8424   0.104E-04-0.207E-04
CGA:  30    -0.669749212155E+03   -0.43424E-04    0.22454E-06  8424   0.957E-05 0.376E-05
CGA:  31    -0.669749289461E+03   -0.77306E-04    0.24370E-06  8424   0.600E-05 0.118E-04
CGA:  32    -0.669749327992E+03   -0.38531E-04    0.10305E-06  8424   0.605E-05 0.594E-05
CGA:  33    -0.669749367629E+03   -0.39637E-04    0.10154E-06  8424   0.627E-05 0.583E-05
CGA:  34    -0.669749404696E+03   -0.37066E-04    0.11783E-06  8424   0.720E-05 0.538E-05
CGA:  35    -0.669749445739E+03   -0.41043E-04    0.14103E-06  8424   0.112E-04 0.346E-05
CGA:  36    -0.669749543651E+03   -0.97912E-04    0.30969E-06  8424   0.635E-05 0.155E-04
CGA:  37    -0.669749579031E+03   -0.35380E-04    0.12792E-06  8424   0.727E-05 0.528E-05
CGA:  38    -0.669749621359E+03   -0.42328E-04    0.13903E-06  8424   0.105E-04 0.354E-05
CGA:  39    -0.669749713186E+03   -0.91828E-04    0.29800E-06  8424   0.667E-05 0.149E-04
CGA:  40    -0.669749746890E+03   -0.33703E-04    0.15006E-06  8424   0.758E-05 0.493E-05
CGA:  41    -0.669749790181E+03   -0.43291E-04    0.14836E-06  8424   0.996E-05 0.345E-05
CGA:  42    -0.669749875320E+03   -0.85139E-04    0.27515E-06  8424   0.748E-05 0.140E-04
CGA:  43    -0.669749907138E+03   -0.31818E-04    0.20530E-06  8424   0.821E-05 0.418E-05
CGA:  44    -0.669749951203E+03   -0.44065E-04    0.17225E-06  8424   0.971E-05 0.313E-05
CGA:  45    -0.669750030576E+03   -0.79373E-04    0.25247E-06  8424   0.848E-05 0.130E-04
CGA:  46    -0.669750060539E+03   -0.29963E-04    0.29031E-06  8424   0.858E-05 0.351E-05
CGA:  47    -0.669750135435E+03   -0.74896E-04    0.21749E-06  8424   0.851E-05 0.117E-04
CGA:  48    -0.669750176803E+03   -0.41368E-04    0.19978E-06  8424   0.732E-05 0.424E-05
CGA:  49    -0.669750243064E+03   -0.66260E-04    0.20182E-06  8424   0.820E-05 0.106E-04
CGA:  50    -0.669750276280E+03   -0.33216E-04    0.23802E-06  8424   0.660E-05 0.491E-05
CGA:  51    -0.669750314991E+03   -0.38711E-04    0.12517E-06  8424   0.625E-05 0.565E-05
CGA:  52    -0.669750348190E+03   -0.33199E-04    0.13293E-06  8424   0.621E-05 0.581E-05
CGA:  53    -0.669750386606E+03   -0.38416E-04    0.11124E-06  8424   0.625E-05 0.582E-05
CGA:  54    -0.669750419483E+03   -0.32877E-04    0.13422E-06  8424   0.634E-05 0.578E-05
CGA:  55    -0.669750458359E+03   -0.38876E-04    0.11451E-06  8424   0.649E-05 0.568E-05
CGA:  56    -0.669750490151E+03   -0.31792E-04    0.15122E-06  8424   0.674E-05 0.550E-05
CGA:  57    -0.669750530047E+03   -0.39896E-04    0.12674E-06  8424   0.715E-05 0.519E-05
CGA:  58    -0.669750560173E+03   -0.30126E-04    0.19815E-06  8424   0.780E-05 0.469E-05
CGA:  59    -0.669750601515E+03   -0.41343E-04    0.16625E-06  8424   0.889E-05 0.386E-05
CGA:  60    -0.669750677250E+03   -0.75735E-04    0.26075E-06  8424   0.773E-05 0.132E-04
CGA:  61    -0.669750705472E+03   -0.28222E-04    0.25420E-06  8424   0.862E-05 0.406E-05
CGA:  62    -0.669750748251E+03   -0.42779E-04    0.19776E-06  8424   0.998E-05 0.298E-05
CGA:  63    -0.669750824332E+03   -0.76081E-04    0.26536E-06  8424   0.895E-05 0.134E-04
CGA:  64    -0.669750849759E+03   -0.25427E-04    0.40275E-06  8424   0.102E-04 0.272E-05
CGA:  65    -0.669750924532E+03   -0.74773E-04    0.26644E-06  8424   0.942E-05 0.133E-04
CGA:  66    -0.669750969846E+03   -0.45314E-04    0.22395E-06  8424   0.105E-04 0.238E-05
CGA:  67    -0.669751043701E+03   -0.73855E-04    0.26241E-06  8424   0.998E-05 0.131E-04
CGA:  68    -0.669751065791E+03   -0.22090E-04    0.62633E-06  8424   0.108E-04 0.197E-05
CGA:  69    -0.669751137382E+03   -0.71591E-04    0.26322E-06  8424   0.106E-04 0.129E-04
CGA:  70    -0.669751185412E+03   -0.48030E-04    0.26772E-06  8424   0.110E-04 0.162E-05
CGA:  71    -0.669751256390E+03   -0.70978E-04    0.25552E-06  8424   0.110E-04 0.127E-04
CGA:  72    -0.669751275704E+03   -0.19314E-04    0.96548E-06  8424   0.110E-04 0.145E-05
CGA:  73    -0.669751343649E+03   -0.67945E-04    0.25903E-06  8424   0.111E-04 0.125E-04
CGA:  74    -0.669751393321E+03   -0.49673E-04    0.28792E-06  8424   0.108E-04 0.159E-05
CGA:  75    -0.669751461288E+03   -0.67967E-04    0.25037E-06  8424   0.109E-04 0.123E-04
CGA:  76    -0.669751479669E+03   -0.18381E-04    0.10365E-05  8424   0.103E-04 0.198E-05
CGA:  77    -0.669751544759E+03   -0.65090E-04    0.25698E-06  8424   0.106E-04 0.121E-04
CGA:  78    -0.669751594195E+03   -0.49436E-04    0.26035E-06  8424   0.978E-05 0.251E-05
CGA:  79    -0.669751660314E+03   -0.66119E-04    0.24885E-06  8424   0.102E-04 0.121E-04
CGA:  80    -0.669751679230E+03   -0.18916E-04    0.82073E-06  8424   0.931E-05 0.304E-05
CGA:  81    -0.669751742923E+03   -0.63693E-04    0.25952E-06  8424   0.979E-05 0.120E-04
CGA:  82    -0.669751791375E+03   -0.48452E-04    0.22547E-06  8424   0.895E-05 0.349E-05
CGA:  83    -0.669751856975E+03   -0.65600E-04    0.25267E-06  8424   0.950E-05 0.121E-04
CGA:  84    -0.669751876596E+03   -0.19621E-04    0.65750E-06  8424   0.870E-05 0.385E-05
CGA:  85    -0.669751940040E+03   -0.63443E-04    0.26639E-06  8424   0.928E-05 0.121E-04
CGA:  86    -0.669751987761E+03   -0.47721E-04    0.20425E-06  8424   0.851E-05 0.414E-05
CGA:  87    -0.669752053337E+03   -0.65576E-04    0.26060E-06  8424   0.911E-05 0.122E-04
CGA:  88    -0.669752073438E+03   -0.20101E-04    0.57495E-06  8424   0.839E-05 0.437E-05
CGA:  89    -0.669752137087E+03   -0.63649E-04    0.27444E-06  8424   0.899E-05 0.123E-04
CGA:  90    -0.669752184299E+03   -0.47212E-04    0.19331E-06  8424   0.828E-05 0.458E-05
CGA:  91    -0.669752206506E+03   -0.22206E-04    0.40113E-06  8424   0.794E-05 0.508E-05
CGA:  92    -0.669752250178E+03   -0.43673E-04    0.16192E-06  8424   0.773E-05 0.538E-05
CGA:  93    -0.669752275037E+03   -0.24859E-04    0.29763E-06  8424   0.761E-05 0.557E-05
CGA:  94    -0.669752316749E+03   -0.41712E-04    0.15609E-06  8424   0.755E-05 0.569E-05
CGA:  95    -0.669752343070E+03   -0.26321E-04    0.26275E-06  8424   0.753E-05 0.577E-05
CGA:  96    -0.669752383754E+03   -0.40684E-04    0.15666E-06  8424   0.754E-05 0.581E-05
CGA:  97    -0.669752410829E+03   -0.27075E-04    0.25288E-06  8424   0.757E-05 0.581E-05
CGA:  98    -0.669752450990E+03   -0.40161E-04    0.16110E-06  8424   0.764E-05 0.580E-05
CGA:  99    -0.669752478462E+03   -0.27472E-04    0.25577E-06  8424   0.772E-05 0.575E-05
CGA: 100    -0.669752518300E+03   -0.39839E-04    0.16951E-06  8424   0.784E-05 0.568E-05
CGA: 101    -0.669752546083E+03   -0.27783E-04    0.26719E-06  8424   0.798E-05 0.558E-05
CGA: 102    -0.669752585562E+03   -0.39479E-04    0.18380E-06  8424   0.817E-05 0.545E-05
CGA: 103    -0.669752613789E+03   -0.28227E-04    0.28730E-06  8424   0.841E-05 0.526E-05
CGA: 104    -0.669752652676E+03   -0.38887E-04    0.20950E-06  8424   0.875E-05 0.501E-05
CGA: 105    -0.669752681648E+03   -0.28972E-04    0.32429E-06  8424   0.923E-05 0.464E-05
CGA: 106    -0.669752719540E+03   -0.37891E-04    0.26396E-06  8424   0.995E-05 0.409E-05
CGA: 107    -0.669752791046E+03   -0.71506E-04    0.32795E-06  8424   0.932E-05 0.143E-04
CGA: 108    -0.669752818982E+03   -0.27936E-04    0.39098E-06  8424   0.998E-05 0.410E-05
CGA: 109    -0.669752888483E+03   -0.69502E-04    0.34001E-06  8424   0.942E-05 0.144E-04
CGA: 110    -0.669752929493E+03   -0.41009E-04    0.25164E-06  8424   0.994E-05 0.415E-05
CGA: 111    -0.669752999978E+03   -0.70486E-04    0.33138E-06  8424   0.954E-05 0.143E-04
CGA: 112    -0.669753025378E+03   -0.25399E-04    0.46650E-06  8424   0.992E-05 0.417E-05
CGA: 113    -0.669753094069E+03   -0.68691E-04    0.33845E-06  8424   0.966E-05 0.143E-04
CGA: 114    -0.669753137447E+03   -0.43378E-04    0.24865E-06  8424   0.986E-05 0.422E-05
CGA: 115    -0.669753206847E+03   -0.69400E-04    0.33014E-06  8424   0.976E-05 0.142E-04
CGA: 116    -0.669753230461E+03   -0.23615E-04    0.54276E-06  8424   0.983E-05 0.426E-05
CGA: 117    -0.669753298101E+03   -0.67639E-04    0.33739E-06  8424   0.986E-05 0.141E-04
CGA: 118    -0.669753343237E+03   -0.45136E-04    0.24805E-06  8424   0.977E-05 0.433E-05
CGA: 119    -0.669753411906E+03   -0.68669E-04    0.32883E-06  8424   0.992E-05 0.141E-04
CGA: 120    -0.669753434331E+03   -0.22425E-04    0.60535E-06  8424   0.974E-05 0.439E-05
CGA: 121    -0.669753501186E+03   -0.66855E-04    0.33845E-06  8424   0.997E-05 0.141E-04
CGA: 122    -0.669753547607E+03   -0.46421E-04    0.24641E-06  8424   0.969E-05 0.448E-05
CGA: 123    -0.669753615962E+03   -0.68355E-04    0.32946E-06  8424   0.100E-04 0.141E-04
CGA: 124    -0.669753637618E+03   -0.21656E-04    0.64871E-06  8424   0.967E-05 0.456E-05
CGA: 125    -0.669753704107E+03   -0.66489E-04    0.34155E-06  8424   0.100E-04 0.141E-04
CGA: 126    -0.669753751524E+03   -0.47417E-04    0.24342E-06  8424   0.963E-05 0.465E-05
CGA: 127    -0.669753819896E+03   -0.68372E-04    0.33216E-06  8424   0.100E-04 0.141E-04
CGA: 128    -0.669753841018E+03   -0.21123E-04    0.67842E-06  8424   0.963E-05 0.473E-05
CGA: 129    -0.669753907509E+03   -0.66491E-04    0.34596E-06  8424   0.101E-04 0.142E-04
CGA: 130    -0.669753955781E+03   -0.48272E-04    0.23978E-06  8424   0.961E-05 0.481E-05
CGA: 131    -0.669754024376E+03   -0.68595E-04    0.33638E-06  8424   0.101E-04 0.142E-04
CGA: 132    -0.669754045084E+03   -0.20707E-04    0.70115E-06  8424   0.962E-05 0.488E-05
CGA: 133    -0.669754111846E+03   -0.66762E-04    0.35089E-06  8424   0.101E-04 0.143E-04
CGA: 134    -0.669754160899E+03   -0.49053E-04    0.23605E-06  8424   0.961E-05 0.496E-05
CGA: 135    -0.669754229825E+03   -0.68926E-04    0.34152E-06  8424   0.101E-04 0.143E-04
CGA: 136    -0.669754250201E+03   -0.20377E-04    0.71923E-06  8424   0.962E-05 0.502E-05
CGA: 137    -0.669754317420E+03   -0.67219E-04    0.35582E-06  8424   0.101E-04 0.144E-04
CGA: 138    -0.669754367176E+03   -0.49757E-04    0.23242E-06  8424   0.962E-05 0.510E-05
CGA: 139    -0.669754389021E+03   -0.21845E-04    0.58364E-06  8424   0.931E-05 0.548E-05
CGA: 140    -0.669754435888E+03   -0.46867E-04    0.21032E-06  8424   0.909E-05 0.577E-05
CGA: 141    -0.669754460273E+03   -0.24385E-04    0.43981E-06  8424   0.892E-05 0.600E-05
CGA: 142    -0.669754505160E+03   -0.44888E-04    0.20130E-06  8424   0.880E-05 0.616E-05
CGA: 143    -0.669754531292E+03   -0.26132E-04    0.37415E-06  8424   0.873E-05 0.628E-05
CGA: 144    -0.669754574920E+03   -0.43628E-04    0.19856E-06  8424   0.869E-05 0.636E-05
CGA: 145    -0.669754602185E+03   -0.27265E-04    0.34431E-06  8424   0.868E-05 0.641E-05
CGA: 146    -0.669754645065E+03   -0.42880E-04    0.20006E-06  8424   0.869E-05 0.643E-05
CGA: 147    -0.669754673040E+03   -0.27975E-04    0.33395E-06  8424   0.873E-05 0.642E-05
CGA: 148    -0.669754715499E+03   -0.42458E-04    0.20518E-06  8424   0.880E-05 0.639E-05
CGA: 149    -0.669754743928E+03   -0.28430E-04    0.33620E-06  8424   0.889E-05 0.633E-05
CGA: 150    -0.669754786135E+03   -0.42206E-04    0.21445E-06  8424   0.900E-05 0.625E-05
CGA: 151    -0.669754814903E+03   -0.28768E-04    0.34886E-06  8424   0.915E-05 0.613E-05
CGA: 152    -0.669754856907E+03   -0.42005E-04    0.22980E-06  8424   0.934E-05 0.598E-05
CGA: 153    -0.669754886000E+03   -0.29093E-04    0.37405E-06  8424   0.959E-05 0.578E-05
CGA: 154    -0.669754927765E+03   -0.41764E-04    0.25622E-06  8424   0.993E-05 0.551E-05
CGA: 155    -0.669754957236E+03   -0.29472E-04    0.42194E-06  8424   0.104E-04 0.514E-05
CGA: 156    -0.669754998651E+03   -0.41415E-04    0.30739E-06  8424   0.110E-04 0.461E-05
CGA: 157    -0.669755073044E+03   -0.74393E-04    0.39210E-06  8424   0.104E-04 0.159E-04
CGA: 158    -0.669755101781E+03   -0.28738E-04    0.48856E-06  8424   0.111E-04 0.460E-05
CGA: 159    -0.669755175290E+03   -0.73509E-04    0.39978E-06  8424   0.105E-04 0.159E-04
CGA: 160    -0.669755218967E+03   -0.43677E-04    0.29619E-06  8424   0.111E-04 0.461E-05
CGA: 161    -0.669755293228E+03   -0.74260E-04    0.39130E-06  8424   0.106E-04 0.159E-04
CGA: 162    -0.669755320268E+03   -0.27040E-04    0.54714E-06  8424   0.110E-04 0.461E-05
CGA: 163    -0.669755393417E+03   -0.73149E-04    0.39400E-06  8424   0.107E-04 0.158E-04
CGA: 164    -0.669755439066E+03   -0.45649E-04    0.29107E-06  8424   0.109E-04 0.463E-05
CGA: 165    -0.669755512723E+03   -0.73657E-04    0.38367E-06  8424   0.107E-04 0.157E-04
CGA: 166    -0.669755538394E+03   -0.25671E-04    0.60793E-06  8424   0.109E-04 0.464E-05
CGA: 167    -0.669755610667E+03   -0.72273E-04    0.38625E-06  8424   0.108E-04 0.156E-04
CGA: 168    -0.669755657944E+03   -0.47276E-04    0.28717E-06  8424   0.108E-04 0.468E-05
CGA: 169    -0.669755731031E+03   -0.73087E-04    0.37433E-06  8424   0.108E-04 0.154E-04
CGA: 170    -0.669755755668E+03   -0.24637E-04    0.65703E-06  8424   0.107E-04 0.472E-05
CGA: 171    -0.669755827094E+03   -0.71426E-04    0.37946E-06  8424   0.109E-04 0.153E-04
CGA: 172    -0.669755875665E+03   -0.48572E-04    0.28105E-06  8424   0.106E-04 0.479E-05
CGA: 173    -0.669755948428E+03   -0.72762E-04    0.36641E-06  8424   0.109E-04 0.152E-04
CGA: 174    -0.669755972310E+03   -0.23883E-04    0.68699E-06  8424   0.105E-04 0.485E-05
CGA: 175    -0.669756043223E+03   -0.70913E-04    0.37457E-06  8424   0.108E-04 0.152E-04
CGA: 176    -0.669756092839E+03   -0.49616E-04    0.27244E-06  8424   0.104E-04 0.493E-05
CGA: 177    -0.669756165555E+03   -0.72716E-04    0.36104E-06  8424   0.108E-04 0.151E-04
CGA: 178    -0.669756188868E+03   -0.23313E-04    0.70147E-06  8424   0.103E-04 0.499E-05
CGA: 179    -0.669756259659E+03   -0.70791E-04    0.37136E-06  8424   0.108E-04 0.151E-04
CGA: 180    -0.669756310160E+03   -0.50501E-04    0.26280E-06  8424   0.103E-04 0.507E-05
CGA: 181    -0.669756383030E+03   -0.72870E-04    0.35793E-06  8424   0.107E-04 0.151E-04
CGA: 182    -0.669756405884E+03   -0.22853E-04    0.70731E-06  8424   0.102E-04 0.512E-05
CGA: 183    -0.669756476857E+03   -0.70974E-04    0.36912E-06  8424   0.107E-04 0.151E-04
CGA: 184    -0.669756528128E+03   -0.51271E-04    0.25334E-06  8424   0.102E-04 0.519E-05
CGA: 185    -0.669756601249E+03   -0.73121E-04    0.35631E-06  8424   0.106E-04 0.151E-04
CGA: 186    -0.669756623734E+03   -0.22484E-04    0.70776E-06  8424   0.101E-04 0.523E-05
CGA: 187    -0.669756695081E+03   -0.71347E-04    0.36722E-06  8424   0.106E-04 0.151E-04
CGA: 188    -0.669756747002E+03   -0.51922E-04    0.24454E-06  8424   0.101E-04 0.529E-05
CGA: 189    -0.669756770961E+03   -0.23959E-04    0.57184E-06  8424   0.973E-05 0.569E-05
CGA: 190    -0.669756819907E+03   -0.48946E-04    0.21960E-06  8424   0.947E-05 0.598E-05
CGA: 191    -0.669756846457E+03   -0.26550E-04    0.43340E-06  8424   0.928E-05 0.620E-05
CGA: 192    -0.669756893329E+03   -0.46872E-04    0.20873E-06  8424   0.914E-05 0.637E-05
CGA: 193    -0.669756921690E+03   -0.28361E-04    0.36793E-06  8424   0.905E-05 0.648E-05
CGA: 194    -0.669756967183E+03   -0.45494E-04    0.20469E-06  8424   0.899E-05 0.656E-05
CGA: 195    -0.669756996770E+03   -0.29586E-04    0.33628E-06  8424   0.897E-05 0.660E-05
CGA: 196    -0.669757041358E+03   -0.44589E-04    0.20533E-06  8424   0.897E-05 0.661E-05
CGA: 197    -0.669757071790E+03   -0.30432E-04    0.32268E-06  8424   0.899E-05 0.660E-05
CGA: 198    -0.669757115739E+03   -0.43949E-04    0.21002E-06  8424   0.904E-05 0.656E-05
CGA: 199    -0.669757146831E+03   -0.31093E-04    0.31998E-06  8424   0.911E-05 0.649E-05
CGA: 200    -0.669757190219E+03   -0.43388E-04    0.21931E-06  8424   0.921E-05 0.641E-05
   3 F= -.66975719E+03 E0= -.66975719E+03  d E =-.387812E-01  mag=     2.0000
       N       E                     dE             d eps       ncg     rms          ort
SDA:   1    -0.663989191024E+03    0.57680E+01    0.00000E+00  8424   0.161E+02 0.000E+00
CGA:   2    -0.667777527977E+03   -0.37883E+01   -0.37903E+01  8424   0.781E+01 0.714E-02
CGA:   3    -0.669323226591E+03   -0.15457E+01   -0.15452E+01  8424   0.212E+01-0.835E-04
CGA:   4    -0.669660877734E+03   -0.33765E+00   -0.33788E+00  8424   0.494E+00 0.971E-03
CGA:   5    -0.669745944574E+03   -0.85067E-01   -0.85199E-01  8424   0.103E+00 0.894E-03
CGA:   6    -0.669766768821E+03   -0.20824E-01   -0.20825E-01  8424   0.244E-01-0.771E-05
CGA:   7    -0.669772094987E+03   -0.53262E-02   -0.53550E-02  8424   0.710E-02 0.423E-03
CGA:   8    -0.669773813141E+03   -0.17182E-02   -0.17321E-02  8424   0.217E-02 0.312E-03
CGA:   9    -0.669774405780E+03   -0.59264E-03   -0.59632E-03  8424   0.741E-03 0.195E-03
CGA:  10    -0.669774590192E+03   -0.18441E-03   -0.19447E-03  8424   0.291E-03 0.250E-03
CGA:  11    -0.669774650410E+03   -0.60218E-04   -0.75859E-04  8424   0.130E-03 0.186E-03
CGA:  12    -0.669774659248E+03   -0.88376E-05   -0.20130E-04  8424   0.800E-04 0.940E-04
   4 F= -.66977466E+03 E0= -.66977466E+03  d E =-.174690E-01  mag=     2.0000
       N       E                     dE             d eps       ncg     rms          ort
SDA:   1    -0.669237633765E+03    0.53702E+00    0.00000E+00  8424   0.145E+01 0.000E+00
CGA:   2    -0.669608464771E+03   -0.37083E+00   -0.37083E+00  8424   0.764E+00-0.657E-03
CGA:   3    -0.669754576279E+03   -0.14611E+00   -0.14618E+00  8424   0.185E+00 0.934E-03
CGA:   4    -0.669783627297E+03   -0.29051E-01   -0.29085E-01  8424   0.418E-01 0.306E-03
CGA:   5    -0.669790889469E+03   -0.72622E-02   -0.72681E-02  8424   0.882E-02 0.667E-04
CGA:   6    -0.669792694698E+03   -0.18052E-02   -0.18058E-02  8424   0.210E-02 0.119E-04
CGA:   7    -0.669793172148E+03   -0.47745E-03   -0.47734E-03  8424   0.646E-03-0.635E-05
CGA:   8    -0.669793325805E+03   -0.15366E-03   -0.15394E-03  8424   0.217E-03 0.458E-04
CGA:   9    -0.669793399476E+03   -0.73671E-04   -0.72804E-04  8424   0.114E-03 0.120E-04
CGA:  10    -0.669793442840E+03   -0.43364E-04   -0.40917E-04  8424   0.750E-04 0.251E-04
CGA:  11    -0.669793483860E+03   -0.41020E-04   -0.37838E-04  8424   0.678E-04 0.178E-04
CGA:  12    -0.669793531289E+03   -0.47428E-04   -0.40013E-04  8424   0.835E-04 0.300E-04
CGA:  13    -0.669793607980E+03   -0.76692E-04   -0.59741E-04  8424   0.993E-04 0.649E-04
CGA:  14    -0.669793649590E+03   -0.41610E-04   -0.41720E-04  8424   0.643E-04-0.116E-05
CGA:  15    -0.669793660176E+03   -0.10585E-04   -0.13582E-04  8424   0.371E-04 0.390E-04
CGA:  16    -0.669793679237E+03   -0.19061E-04   -0.37310E-04  8424   0.173E-03-0.262E-04
CGA:  17    -0.669793695112E+03   -0.15875E-04   -0.25427E-04  8424   0.404E-04 0.545E-04
CGA:  18    -0.669793709553E+03   -0.14441E-04   -0.14643E-04  8424   0.286E-04 0.507E-05
CGA:  19    -0.669793731181E+03   -0.21627E-04    0.62306E-04  8424   0.450E-04 0.180E-04
CGA:  20    -0.669793736295E+03   -0.51144E-05   -0.81572E-05  8424   0.224E-04 0.233E-04
CGA:  21    -0.669793753852E+03   -0.17557E-04    0.11817E-04  8424   0.214E-04 0.149E-04
CGA:  22    -0.669793754562E+03   -0.71068E-06   -0.31753E-05  8424   0.174E-04 0.157E-04
CGA:  23    -0.669793767535E+03   -0.12972E-04    0.10082E-04  8424   0.180E-04 0.161E-04
CGA:  24    -0.669793773423E+03   -0.58885E-05   -0.56463E-05  8424   0.213E-04 0.142E-04
   5 F= -.66979377E+03 E0= -.66979377E+03  d E =-.191142E-01  mag=     2.0000
       N       E                     dE             d eps       ncg     rms          ort
SDA:   1    -0.666703881661E+03    0.30899E+01    0.00000E+00  8424   0.773E+01 0.000E+00
CGA:   2    -0.668827427687E+03   -0.21235E+01   -0.21235E+01  8424   0.424E+01-0.359E-02
CGA:   3    -0.669603532968E+03   -0.77611E+00   -0.77654E+00  8424   0.928E+00 0.325E-02
CGA:   4    -0.669749391414E+03   -0.14586E+00   -0.14597E+00  8424   0.211E+00 0.635E-03
CGA:   5    -0.669786075043E+03   -0.36684E-01   -0.36689E-01  8424   0.453E-01 0.451E-05
CGA:   6    -0.669795421027E+03   -0.93460E-02   -0.93466E-02  8424   0.107E-01 0.254E-05
CGA:   7    -0.669797837558E+03   -0.24165E-02   -0.24059E-02  8424   0.322E-02-0.212E-03
CGA:   8    -0.669798640945E+03   -0.80339E-03   -0.80259E-03  8424   0.109E-02-0.432E-04
CGA:   9    -0.669799008006E+03   -0.36706E-03   -0.39450E-03  8424   0.683E-03-0.294E-03
CGA:  10    -0.669799171558E+03   -0.16355E-03   -0.24392E-03  8424   0.720E-03-0.380E-03
CGA:  11    -0.669799368429E+03   -0.19687E-03   -0.19204E-03  8424   0.367E-03-0.238E-03
CGA:  12    -0.669799447920E+03   -0.79491E-04   -0.86121E-04  8424   0.227E-03-0.104E-03
CGA:  13    -0.669799580739E+03   -0.13282E-03    0.57588E-04  8424   0.155E-03-0.387E-04
CGA:  14    -0.669799701226E+03   -0.12049E-03    0.29758E-04  8424   0.551E-04 0.318E-04
CGA:  15    -0.669799781661E+03   -0.80435E-04    0.88045E-05  8424   0.410E-04 0.237E-04
CGA:  16    -0.669799896815E+03   -0.11515E-03    0.35294E-05  8424   0.395E-04 0.261E-04
CGA:  17    -0.669799934757E+03   -0.37942E-04    0.86127E-05  8424   0.339E-04 0.700E-05
CGA:  18    -0.669800022599E+03   -0.87842E-04    0.20562E-05  8424   0.301E-04 0.190E-04
CGA:  19    -0.669800063070E+03   -0.40471E-04    0.32778E-05  8424   0.215E-04 0.126E-04
CGA:  20    -0.669800140181E+03   -0.77111E-04    0.12997E-05  8424   0.235E-04 0.210E-04
CGA:  21    -0.669800178931E+03   -0.38750E-04    0.18438E-05  8424   0.199E-04 0.132E-04
CGA:  22    -0.669800228271E+03   -0.49341E-04    0.87294E-06  8424   0.270E-04 0.897E-05
CGA:  23    -0.669800326167E+03   -0.97895E-04    0.17104E-05  8424   0.178E-04 0.371E-04
CGA:  24    -0.669800360986E+03   -0.34820E-04    0.10821E-05  8424   0.214E-04 0.113E-04
CGA:  25    -0.669800411297E+03   -0.50311E-04    0.10046E-05  8424   0.340E-04 0.402E-05
CGA:  26    -0.669800518318E+03   -0.10702E-03    0.16321E-05  8424   0.254E-04 0.392E-04
CGA:  27    -0.669800543030E+03   -0.24712E-04    0.53616E-05  8424   0.467E-04-0.402E-05
CGA:  28    -0.669800655849E+03   -0.11282E-03    0.14308E-05  8424   0.565E-04 0.371E-04
CGA:  29    -0.669800715976E+03   -0.60127E-04    0.97386E-05  8424   0.138E-03-0.569E-04
CGA:  30    -0.669800726215E+03   -0.10239E-04   -0.13748E-04  8424   0.142E-04 0.186E-04
CGA:  31    -0.669800760947E+03   -0.34732E-04    0.79487E-06  8424   0.275E-04 0.921E-05
CGA:  32    -0.669800813036E+03   -0.52089E-04    0.16100E-05  8424   0.520E-04-0.925E-05
CGA:  33    -0.669800926043E+03   -0.11301E-03    0.99503E-06  8424   0.823E-04 0.317E-04
CGA:  34    -0.669800934142E+03   -0.80996E-05   -0.93432E-05  8424   0.141E-04 0.745E-05
   6 F= -.66980093E+03 E0= -.66980093E+03  d E =-.716072E-02  mag=     2.0000
       N       E                     dE             d eps       ncg     rms          ort
SDA:   1    -0.659351349497E+03    0.10450E+02    0.00000E+00  8424   0.256E+02 0.000E+00
CGA:   2    -0.666626261683E+03   -0.72749E+01   -0.72751E+01  8424   0.141E+02-0.126E-01
CGA:   3    -0.669155848557E+03   -0.25296E+01   -0.25312E+01  8424   0.298E+01 0.844E-02
CGA:   4    -0.669623238519E+03   -0.46739E+00   -0.46760E+00  8424   0.688E+00 0.138E-02
CGA:   5    -0.669743315221E+03   -0.12008E+00   -0.12010E+00  8424   0.149E+00 0.907E-04
CGA:   6    -0.669773996801E+03   -0.30682E-01   -0.30698E-01  8424   0.350E-01 0.288E-03
CGA:   7    -0.669781811675E+03   -0.78149E-02   -0.78085E-02  8424   0.106E-01-0.200E-03
CGA:   8    -0.669784460813E+03   -0.26491E-02   -0.26493E-02  8424   0.354E-02 0.153E-03
CGA:   9    -0.669785542460E+03   -0.10816E-02   -0.10877E-02  8424   0.147E-02-0.123E-03
CGA:  10    -0.669786036103E+03   -0.49364E-03   -0.50574E-03  8424   0.691E-03-0.123E-03
CGA:  11    -0.669786250312E+03   -0.21421E-03   -0.23034E-03  8424   0.354E-03-0.159E-03
CGA:  12    -0.669786352410E+03   -0.10210E-03   -0.12891E-03  8424   0.396E-03-0.132E-03
CGA:  13    -0.669785076192E+03    0.12762E-02   -0.68832E-03  8424   0.113E-01-0.119E-02
CGA:  14    -0.669786578575E+03   -0.15024E-02   -0.15598E-02  8424   0.165E-02 0.202E-03
CGA:  15    -0.669787154041E+03   -0.57547E-03   -0.55149E-03  8424   0.428E-03-0.154E-03
CGA:  16    -0.669787265748E+03   -0.11171E-03   -0.11373E-03  8424   0.174E-03 0.105E-04
CGA:  17    -0.669783825305E+03    0.34404E-02   -0.18688E-02  8424   0.255E-01-0.157E-02
CGA:  18    -0.669786982875E+03   -0.31576E-02   -0.34696E-02  8424   0.250E-02 0.566E-03
CGA:  19    -0.669787844036E+03   -0.86116E-03   -0.79317E-03  8424   0.566E-03-0.135E-03
CGA:  20    -0.669788035199E+03   -0.19116E-03   -0.16208E-03  8424   0.470E-03-0.594E-04
CGA:  21    -0.669788238648E+03   -0.20345E-03   -0.15540E-03  8424   0.195E-03-0.122E-03
CGA:  22    -0.669787910296E+03    0.32835E-03   -0.26063E-03  8424   0.414E-02-0.562E-03
CGA:  23    -0.669788575149E+03   -0.66485E-03   -0.65752E-03  8424   0.703E-03-0.225E-04
CGA:  24    -0.669788786997E+03   -0.21185E-03   -0.19629E-03  8424   0.241E-03-0.321E-04
CGA:  25    -0.669788900020E+03   -0.11302E-03   -0.24190E-03  8424   0.201E-02-0.421E-03
CGA:  26    -0.669789089938E+03   -0.18992E-03   -0.27921E-03  8424   0.191E-03 0.149E-03
CGA:  27    -0.669789199576E+03   -0.10964E-03   -0.83328E-04  8424   0.181E-03-0.819E-04
CGA:  28    -0.669781659026E+03    0.75405E-02   -0.41776E-02  8424   0.331E-01-0.206E-02
CGA:  29    -0.669788209432E+03   -0.65504E-02   -0.68305E-02  8424   0.670E-02 0.189E-03
CGA:  30    -0.669790235545E+03   -0.20261E-02   -0.20411E-02  8424   0.214E-02-0.167E-04
CGA:  31    -0.669788708889E+03    0.15267E-02   -0.40477E-03  8424   0.572E-02 0.628E-03
CGA:  32    -0.669709267790E+03    0.79441E-01   -0.40527E-03  8424   0.209E+00 0.257E-01
CGA:  33    -0.668942182884E+03    0.76708E+00   -0.37671E-01  8424   0.204E+01 0.287E+00
CGA:  34    -0.667215222626E+03    0.17270E+01   -0.63446E+00  8424   0.483E+01 0.113E+01
CGA:  35    -0.664708459867E+03    0.25068E+01   -0.16636E+01  8424   0.777E+01 0.259E+01
CGA:  36    -0.665121709955E+03   -0.41325E+00   -0.34608E+01  8424   0.715E+01 0.469E+01
CGA:  37    -0.667798268809E+03   -0.26766E+01   -0.37083E+01  8424   0.313E+01 0.218E+01
CGA:  38    -0.668319779394E+03   -0.52151E+00   -0.15474E+01  8424   0.255E+01 0.156E+01
CGA:  39    -0.668335876199E+03   -0.16097E-01   -0.12429E+01  8424   0.198E+01 0.151E+01
CGA:  40    -0.669214666559E+03   -0.87879E+00   -0.91759E+00  8424   0.176E+01 0.234E+00
CGA:  41    -0.669459151973E+03   -0.24449E+00   -0.44606E+00  8424   0.613E+00 0.792E-01
CGA:  42    -0.669688320837E+03   -0.22917E+00   -0.16629E+00  8424   0.174E+00 0.294E+00
CGA:  43    -0.669757642836E+03   -0.69322E-01   -0.10749E+00  8424   0.641E-01 0.432E-01
CGA:  44    -0.669780990745E+03   -0.23348E-01   -0.32723E-01  8424   0.375E-01-0.340E-02
CGA:  45    -0.669784659825E+03   -0.36691E-02   -0.60355E-02  8424   0.121E-01 0.179E-02
CGA:  46    -0.669788190245E+03   -0.35304E-02   -0.36150E-02  8424   0.633E-02 0.243E-03
CGA:  47    -0.669789547092E+03   -0.13568E-02   -0.11803E-02  8424   0.349E-02-0.494E-03
CGA:  48    -0.669790911721E+03   -0.13646E-02   -0.13047E-02  8424   0.323E-02-0.602E-03
CGA:  49    -0.669791305065E+03   -0.39334E-03   -0.46986E-03  8424   0.125E-02-0.657E-04
CGA:  50    -0.669791590391E+03   -0.28533E-03   -0.28827E-03  8424   0.786E-03-0.114E-05
CGA:  51    -0.669792001644E+03   -0.41125E-03   -0.26849E-03  8424   0.860E-03-0.512E-03
CGA:  52    -0.669792087019E+03   -0.85376E-04   -0.14696E-03  8424   0.218E-03 0.142E-03
CGA:  53    -0.669792240492E+03   -0.15347E-03   -0.16282E-03  8424   0.353E-03-0.180E-03
CGA:  54    -0.669792338628E+03   -0.98137E-04   -0.85662E-04  8424   0.160E-03-0.365E-04
CGA:  55    -0.669792412443E+03   -0.73815E-04   -0.48881E-04  8424   0.191E-03-0.107E-03
CGA:  56    -0.669792475451E+03   -0.63007E-04   -0.40621E-04  8424   0.117E-03-0.647E-04
CGA:  57    -0.667122486183E+03    0.26700E+01   -0.30100E+02  8424   0.524E+00-0.104E+00
CGA:  58    -0.668619962700E+03   -0.14975E+01    0.57728E+00  8424   0.565E+01-0.761E+00
CGA:  59    -0.668840777329E+03   -0.22081E+00   -0.12930E+00  8424   0.384E+01 0.466E+01
CGA:  60    -0.669169357958E+03   -0.32858E+00   -0.21732E+00  8424   0.119E+01 0.210E+01
CGA:  61    -0.669757754138E+03   -0.58840E+00   -0.16932E+00  8424   0.174E+00-0.616E-01
CGA:  62    -0.669668556955E+03    0.89197E-01   -0.39097E-01  8424   0.668E+00 0.424E-01
CGA:  63    -0.665321797655E+03    0.43468E+01   -0.58824E-01  8424   0.223E+02 0.175E+01
CGA:  64    -0.661877277813E+03    0.34445E+01   -0.74674E+01  8424   0.380E+02 0.569E+01
CGA:  65    -0.644390163934E+03    0.17487E+02   -0.12176E+02  8424   0.710E+02 0.130E+02
CGA:  66    -0.630273568445E+03    0.14117E+02   -0.22867E+02  8424   0.946E+02 0.362E+02
CGA:  67    -0.631443249745E+03   -0.11697E+01   -0.31112E+02  8424   0.907E+02 0.308E+02
CGA:  68    -0.624027644708E+03    0.74156E+01   -0.32257E+02  8424   0.823E+02 0.527E+02
CGA:  69    -0.649090337539E+03   -0.25063E+02   -0.33201E+02  8424   0.426E+02 0.242E+02
CGA:  70    -0.660382665965E+03   -0.11292E+02   -0.19349E+02  8424   0.169E+02 0.114E+02
CGA:  71    -0.661751582039E+03   -0.13689E+01   -0.55828E+01  8424   0.140E+02 0.898E+01
CGA:  72    -0.664191173387E+03   -0.24396E+01   -0.48671E+01  8424   0.951E+01 0.596E+01
CGA:  73    -0.668042228710E+03   -0.38511E+01   -0.50121E+01  8424   0.279E+01 0.113E+01
CGA:  74    -0.669012393158E+03   -0.97016E+00   -0.12403E+01  8424   0.721E+00 0.305E+00
CGA:  75    -0.669339171671E+03   -0.32678E+00   -0.35504E+00  8424   0.352E+00 0.300E-01
CGA:  76    -0.669492574059E+03   -0.15340E+00   -0.15938E+00  8424   0.301E+00 0.144E-01
CGA:  77    -0.669594923498E+03   -0.10235E+00   -0.10736E+00  8424   0.197E+00 0.325E-01
CGA:  78    -0.669652973831E+03   -0.58050E-01   -0.67622E-01  8424   0.111E+00 0.355E-01
CGA:  79    -0.669671169178E+03   -0.18195E-01   -0.29459E-01  8424   0.124E+00 0.385E-01
CGA:  80    -0.669671914606E+03   -0.74543E-03   -0.26768E-01  8424   0.166E+00 0.500E-01
CGA:  81    -0.669616277828E+03    0.55637E-01   -0.21667E-01  8424   0.297E+00 0.166E+00
CGA:  82    -0.669691407040E+03   -0.75129E-01   -0.97106E-01  8424   0.152E+00 0.629E-01
CGA:  83    -0.669752025371E+03   -0.60618E-01   -0.67541E-01  8424   0.277E-01 0.215E-01
CGA:  84    -0.669774364695E+03   -0.22339E-01   -0.24373E-01  8424   0.692E-01-0.679E-02
CGA:  85    -0.669780599381E+03   -0.62347E-02   -0.62034E-02  8424   0.304E-01 0.300E-02
CGA:  86    -0.669783065152E+03   -0.24658E-02   -0.27281E-02  8424   0.879E-02 0.126E-02
CGA:  87    -0.669784212736E+03   -0.11476E-02   -0.12939E-02  8424   0.987E-02 0.531E-03
CGA:  88    -0.669786610634E+03   -0.23979E-02   -0.24166E-02  8424   0.168E-01 0.308E-03
CGA:  89    -0.669789167063E+03   -0.25564E-02   -0.23462E-02  8424   0.109E-01-0.140E-03
CGA:  90    -0.669790659043E+03   -0.14920E-02   -0.12777E-02  8424   0.743E-02-0.434E-03
CGA:  91    -0.669791869214E+03   -0.12102E-02   -0.10770E-02  8424   0.748E-02-0.299E-03
CGA:  92    -0.669792711501E+03   -0.84229E-03   -0.82022E-03  8424   0.451E-02 0.148E-03
CGA:  93    -0.669793091651E+03   -0.38015E-03   -0.42239E-03  8424   0.237E-02 0.227E-03
CGA:  94    -0.669793358515E+03   -0.26686E-03   -0.29039E-03  8424   0.236E-02 0.124E-03
CGA:  95    -0.669793762730E+03   -0.40422E-03   -0.37979E-03  8424   0.299E-02-0.905E-04
CGA:  96    -0.669794189513E+03   -0.42678E-03   -0.33878E-03  8424   0.216E-02-0.356E-03
CGA:  97    -0.669794469341E+03   -0.27983E-03   -0.19129E-03  8424   0.135E-02-0.375E-03
CGA:  98    -0.669794673469E+03   -0.20413E-03   -0.14108E-03  8424   0.132E-02-0.327E-03
CGA:  99    -0.669794836223E+03   -0.16275E-03   -0.12008E-03  8424   0.129E-02-0.221E-03
CGA: 100    -0.669794965170E+03   -0.12895E-03   -0.10652E-03  8424   0.979E-03-0.104E-03
CGA: 101    -0.669795081433E+03   -0.11626E-03   -0.99722E-04  8424   0.905E-03-0.850E-04
CGA: 102    -0.669795235550E+03   -0.15412E-03   -0.12225E-03  8424   0.110E-02-0.232E-03
CGA: 103    -0.669795406071E+03   -0.17052E-03   -0.10351E-03  8424   0.989E-03-0.446E-03
CGA: 104    -0.669795552753E+03   -0.14668E-03   -0.64794E-04  8424   0.773E-03-0.521E-03
CGA: 105    -0.669795877590E+03   -0.32484E-03   -0.45075E-03  8424   0.751E-03-0.386E-03
CGA: 106    -0.669796010467E+03   -0.13288E-03   -0.14474E-03  8424   0.354E-03-0.106E-03
CGA: 107    -0.669795846636E+03    0.16383E-03   -0.27496E-03  8424   0.180E-02-0.703E-03
CGA: 108    -0.669796332621E+03   -0.48598E-03   -0.48364E-03  8424   0.669E-04-0.567E-04
CGA: 109    -0.669796388826E+03   -0.56205E-04    0.24506E-04  8424   0.279E-04 0.229E-04
CGA: 110    -0.669796445971E+03   -0.57145E-04    0.39028E-05  8424   0.133E-04 0.178E-04
CGA: 111    -0.669796484875E+03   -0.38904E-04    0.54888E-06  8424   0.755E-05 0.749E-05
CGA: 112    -0.669796514445E+03   -0.29570E-04    0.21703E-06  8424   0.586E-05 0.601E-05
CGA: 113    -0.669796549926E+03   -0.35482E-04    0.10237E-06  8424   0.502E-05 0.489E-05
CGA: 114    -0.669796577990E+03   -0.28064E-04    0.95610E-07  8424   0.460E-05 0.417E-05
CGA: 115    -0.669796613246E+03   -0.35256E-04    0.62015E-07  8424   0.450E-05 0.366E-05
CGA: 116    -0.669796639558E+03   -0.26312E-04    0.81599E-07  8424   0.471E-05 0.317E-05
CGA: 117    -0.669796676437E+03   -0.36879E-04    0.61910E-07  8424   0.541E-05 0.249E-05
CGA: 118    -0.669796699045E+03   -0.22609E-04    0.14428E-06  8424   0.717E-05 0.121E-05
CGA: 119    -0.669796771394E+03   -0.72349E-04    0.10912E-06  8424   0.573E-05 0.851E-05
CGA: 120    -0.669796811000E+03   -0.39605E-04    0.86447E-07  8424   0.865E-05 0.182E-06
CGA: 121    -0.669796887792E+03   -0.76792E-04    0.10615E-06  8424   0.806E-05 0.879E-05
CGA: 122    -0.669796902919E+03   -0.15127E-04    0.60633E-06  8424   0.153E-04-0.386E-05
CGA: 123    -0.669796983799E+03   -0.80880E-04    0.79464E-07  8424   0.283E-04 0.671E-05
CGA: 124    -0.669797199493E+03   -0.21569E-03    0.82838E-06  8424   0.350E-04-0.514E-06
CGA: 125    -0.669797466439E+03   -0.26695E-03    0.45716E-06  8424   0.161E-04 0.308E-04
CGA: 126    -0.669797469284E+03   -0.28453E-05   -0.25892E-05  8424   0.508E-05-0.175E-05
   7 F= -.66979747E+03 E0= -.66979747E+03  d E =0.346486E-02  mag=     2.0000
       N       E                     dE             d eps       ncg     rms          ort
SDA:   1    -0.635196245056E+03    0.34601E+02    0.00000E+00  8424   0.919E+02 0.000E+00
CGA:   2    -0.657620264460E+03   -0.22424E+02   -0.22454E+02  8424   0.477E+02 0.162E+00
CGA:   3    -0.667142581676E+03   -0.95223E+01   -0.95139E+01  8424   0.119E+02 0.294E-01
CGA:   4    -0.669007162691E+03   -0.18646E+01   -0.18662E+01  8424   0.264E+01 0.604E-02
CGA:   5    -0.669459175467E+03   -0.45201E+00   -0.45248E+00  8424   0.563E+00 0.189E-02
CGA:   6    -0.669576687408E+03   -0.11751E+00   -0.11748E+00  8424   0.139E+00-0.422E-03
CGA:   7    -0.669607586726E+03   -0.30899E-01   -0.30929E-01  8424   0.405E-01 0.516E-03
CGA:   8    -0.669617865453E+03   -0.10279E-01   -0.10280E-01  8424   0.137E-01 0.378E-04
CGA:   9    -0.669621852592E+03   -0.39871E-02   -0.39924E-02  8424   0.524E-02-0.309E-03
CGA:  10    -0.669623490041E+03   -0.16374E-02   -0.16413E-02  8424   0.207E-02-0.845E-04
CGA:  11    -0.669624136779E+03   -0.64674E-03   -0.65920E-03  8424   0.780E-03-0.264E-03
CGA:  12    -0.669624349410E+03   -0.21263E-03   -0.21764E-03  8424   0.393E-03-0.123E-03
CGA:  13    -0.669622275176E+03    0.20742E-02   -0.11166E-02  8424   0.153E-01-0.174E-02
CGA:  14    -0.669624468283E+03   -0.21931E-02   -0.22380E-02  8424   0.218E-02 0.109E-03
CGA:  15    -0.669625096177E+03   -0.62789E-03   -0.61189E-03  8424   0.465E-03-0.748E-04
CGA:  16    -0.669625316368E+03   -0.22019E-03   -0.23592E-03  8424   0.104E-02-0.375E-03
CGA:  17    -0.669625416793E+03   -0.10042E-03   -0.13037E-03  8424   0.126E-03 0.844E-04
CGA:  18    -0.669623307812E+03    0.21090E-02   -0.11399E-02  8424   0.108E-01-0.101E-02
CGA:  19    -0.669625908251E+03   -0.26004E-02   -0.25382E-02  8424   0.140E-02-0.992E-04
CGA:  20    -0.669626235503E+03   -0.32725E-03   -0.30352E-03  8424   0.420E-03-0.403E-04
CGA:  21    -0.669626387433E+03   -0.15193E-03   -0.11848E-03  8424   0.137E-03-0.670E-04
CGA:  22    -0.669625683936E+03    0.70350E-03   -0.22800E-03  8424   0.932E-02-0.773E-03
CGA:  23    -0.669626812596E+03   -0.11287E-02   -0.12230E-02  8424   0.623E-03 0.214E-03
CGA:  24    -0.669627052279E+03   -0.23968E-03   -0.18760E-03  8424   0.255E-03-0.105E-03
CGA:  25    -0.669627202280E+03   -0.15000E-03   -0.12126E-03  8424   0.260E-03-0.148E-03
CGA:  26    -0.669627328145E+03   -0.12586E-03   -0.83349E-04  8424   0.164E-03-0.978E-04
CGA:  27    -0.669627399427E+03   -0.71281E-04   -0.79729E-04  8424   0.795E-03-0.192E-03
CGA:  28    -0.669627601885E+03   -0.20246E-03   -0.13780E-03  8424   0.172E-03-0.117E-03
CGA:  29    -0.669627684116E+03   -0.82231E-04   -0.61133E-04  8424   0.127E-03-0.725E-04
CGA:  30    -0.669627911605E+03   -0.22749E-03    0.20529E-04  8424   0.558E-03-0.105E-03
CGA:  31    -0.669627968378E+03   -0.56773E-04   -0.71401E-04  8424   0.599E-04 0.271E-04
CGA:  32    -0.669628104404E+03   -0.13603E-03    0.33604E-04  8424   0.851E-04-0.307E-04
CGA:  33    -0.669628128627E+03   -0.24223E-04   -0.79350E-04  8424   0.962E-03-0.208E-03
CGA:  34    -0.669628302458E+03   -0.17383E-03   -0.15814E-03  8424   0.692E-04-0.307E-04
CGA:  35    -0.669628422912E+03   -0.12045E-03    0.58636E-04  8424   0.231E-03-0.726E-04
CGA:  36    -0.669628460867E+03   -0.37955E-04   -0.38761E-04  8424   0.330E-04 0.167E-05
CGA:  37    -0.669628595517E+03   -0.13465E-03    0.47364E-05  8424   0.966E-04-0.180E-04
CGA:  38    -0.669628621313E+03   -0.25795E-04   -0.20660E-04  8424   0.355E-04-0.124E-04
CGA:  39    -0.669628771261E+03   -0.14995E-03    0.31615E-05  8424   0.105E-03-0.138E-04
CGA:  40    -0.669629270373E+03   -0.49911E-03    0.36428E-05  8424   0.142E-03 0.291E-04
CGA:  41    -0.669629952085E+03   -0.68171E-03    0.26394E-04  8424   0.765E-03-0.111E-03
CGA:  42    -0.669630132946E+03   -0.18086E-03   -0.11951E-03  8424   0.738E-04-0.137E-03
CGA:  43    -0.669630161796E+03   -0.28850E-04   -0.20425E-04  8424   0.650E-04-0.339E-04
CGA:  44    -0.669630331981E+03   -0.17019E-03    0.31341E-05  8424   0.465E-04-0.307E-05
CGA:  45    -0.669630490058E+03   -0.15808E-03    0.60267E-05  8424   0.130E-03-0.177E-04
CGA:  46    -0.669631076847E+03   -0.58679E-03    0.42716E-05  8424   0.144E-03-0.309E-05
CGA:  47    -0.669631802582E+03   -0.72574E-03    0.11501E-04  8424   0.373E-03-0.574E-04
CGA:  48    -0.669633578626E+03   -0.17760E-02    0.10876E-04  8424   0.110E-02-0.294E-03
CGA:  49    -0.669633855861E+03   -0.27724E-03   -0.24148E-03  8424   0.135E-03-0.101E-03
CGA:  50    -0.669633861379E+03   -0.55176E-05   -0.15256E-04  8424   0.139E-04 0.227E-04
   8 F= -.66963386E+03 E0= -.66963386E+03  d E =0.163608E+00  mag=     2.0000
       N       E                     dE             d eps       ncg     rms          ort
SDA:   1    -0.666031265898E+03    0.36026E+01    0.00000E+00  8424   0.119E+02 0.000E+00
CGA:   2    -0.668417087481E+03   -0.23858E+01   -0.23975E+01  8424   0.484E+01-0.198E-01
CGA:   3    -0.669437428703E+03   -0.10203E+01   -0.10182E+01  8424   0.157E+01 0.868E-02
CGA:   4    -0.669699035124E+03   -0.26161E+00   -0.26185E+00  8424   0.390E+00 0.550E-03
CGA:   5    -0.669765909838E+03   -0.66875E-01   -0.67044E-01  8424   0.789E-01 0.234E-03
CGA:   6    -0.669781718016E+03   -0.15808E-01   -0.15751E-01  8424   0.177E-01-0.214E-03
CGA:   7    -0.669785629349E+03   -0.39113E-02   -0.39561E-02  8424   0.519E-02 0.201E-03
CGA:   8    -0.669786817275E+03   -0.11879E-02   -0.12317E-02  8424   0.144E-02 0.220E-03
CGA:   9    -0.669787192377E+03   -0.37510E-03   -0.38993E-03  8424   0.463E-03 0.909E-04
CGA:  10    -0.669787271167E+03   -0.78790E-04   -0.10972E-03  8424   0.174E-03 0.161E-03
CGA:  11    -0.669787286197E+03   -0.15030E-04   -0.41979E-04  8424   0.829E-04 0.119E-03
CGA:  12    -0.669787284098E+03    0.20987E-05   -0.12462E-04  8424   0.510E-04 0.597E-04
   9 F= -.66978728E+03 E0= -.66978728E+03  d E =-.153423E+00  mag=     2.0000
       N       E                     dE             d eps       ncg     rms          ort
SDA:   1    -0.669274282228E+03    0.51300E+00    0.00000E+00  8424   0.140E+01 0.000E+00
CGA:   2    -0.669614193439E+03   -0.33991E+00   -0.33998E+00  8424   0.709E+00 0.532E-04
CGA:   3    -0.669753436269E+03   -0.13924E+00   -0.13933E+00  8424   0.183E+00 0.586E-03
CGA:   4    -0.669782510696E+03   -0.29074E-01   -0.29129E-01  8424   0.415E-01 0.254E-03
CGA:   5    -0.669789597643E+03   -0.70869E-02   -0.71122E-02  8424   0.849E-02 0.138E-03
CGA:   6    -0.669791322547E+03   -0.17249E-02   -0.17397E-02  8424   0.201E-02 0.112E-03
CGA:   7    -0.669791744180E+03   -0.42163E-03   -0.43685E-03  8424   0.568E-03 0.133E-03
CGA:   8    -0.669791852160E+03   -0.10798E-03   -0.12473E-03  8424   0.181E-03 0.143E-03
CGA:   9    -0.669791872651E+03   -0.20491E-04   -0.37790E-04  8424   0.895E-04 0.115E-03
CGA:  10    -0.669791873474E+03   -0.82335E-06   -0.12316E-04  8424   0.584E-04 0.669E-04
  10 F= -.66979187E+03 E0= -.66979187E+03  d E =-.458938E-02  mag=     2.0000
       N       E                     dE             d eps       ncg     rms          ort
SDA:   1    -0.668681568349E+03    0.11103E+01    0.00000E+00  8424   0.276E+01 0.000E+00
CGA:   2    -0.669440434086E+03   -0.75887E+00   -0.75885E+00  8424   0.150E+01-0.114E-02
CGA:   3    -0.669714674038E+03   -0.27424E+00   -0.27443E+00  8424   0.329E+00 0.152E-02
CGA:   4    -0.669766653691E+03   -0.51980E-01   -0.52019E-01  8424   0.754E-01 0.273E-03
CGA:   5    -0.669779745191E+03   -0.13092E-01   -0.13098E-01  8424   0.161E-01 0.502E-04
CGA:   6    -0.669783030105E+03   -0.32849E-02   -0.32950E-02  8424   0.374E-02 0.145E-03
CGA:   7    -0.669783872878E+03   -0.84277E-03   -0.84345E-03  8424   0.112E-02 0.138E-04
CGA:   8    -0.669784140643E+03   -0.26776E-03   -0.27008E-03  8424   0.369E-03 0.864E-04
CGA:   9    -0.669784241118E+03   -0.10048E-03   -0.10135E-03  8424   0.146E-03 0.792E-04
CGA:  10    -0.669784282981E+03   -0.41863E-04   -0.43436E-04  8424   0.780E-04 0.740E-04
CGA:  11    -0.669784295502E+03   -0.12521E-04   -0.15537E-04  8424   0.427E-04 0.460E-04
CGA:  12    -0.669784300254E+03   -0.47523E-05   -0.77771E-05  8424   0.361E-04 0.381E-04
  11 F= -.66978430E+03 E0= -.66978430E+03  d E =0.757322E-02  mag=     2.0000
       N       E                     dE             d eps       ncg     rms          ort
SDA:   1    -0.632256917976E+03    0.37527E+02    0.00000E+00  8424   0.928E+02 0.000E+00
CGA:   2    -0.658123985716E+03   -0.25867E+02   -0.25869E+02  8424   0.510E+02-0.519E-01
CGA:   3    -0.667355443198E+03   -0.92315E+01   -0.92405E+01  8424   0.109E+02 0.489E-01
CGA:   4    -0.669081224790E+03   -0.17258E+01   -0.17263E+01  8424   0.251E+01 0.348E-02
CGA:   5    -0.669516854507E+03   -0.43563E+00   -0.43567E+00  8424   0.550E+00 0.309E-04
CGA:   6    -0.669631696335E+03   -0.11484E+00   -0.11489E+00  8424   0.134E+00 0.123E-02
CGA:   7    -0.669662280570E+03   -0.30584E-01   -0.30571E-01  8424   0.425E-01-0.108E-02
CGA:   8    -0.669673220033E+03   -0.10939E-01   -0.10936E-01  8424   0.152E-01 0.180E-03
CGA:   9    -0.669677838001E+03   -0.46180E-02   -0.46762E-02  8424   0.636E-02-0.873E-03
CGA:  10    -0.669679842327E+03   -0.20043E-02   -0.20897E-02  8424   0.280E-02-0.816E-03
CGA:  11    -0.669680591309E+03   -0.74898E-03   -0.82152E-03  8424   0.132E-02-0.823E-03
CGA:  12    -0.669680863407E+03   -0.27210E-03   -0.35143E-03  8424   0.133E-02-0.649E-03
CGA:  13    -0.669674629145E+03    0.62343E-02   -0.33809E-02  8424   0.473E-01-0.528E-02
CGA:  14    -0.669680725476E+03   -0.60963E-02   -0.62431E-02  8424   0.612E-02 0.777E-03
CGA:  15    -0.669682636280E+03   -0.19108E-02   -0.18658E-02  8424   0.122E-02-0.290E-03
CGA:  16    -0.669682976104E+03   -0.33982E-03   -0.34601E-03  8424   0.346E-03 0.405E-04
CGA:  17    -0.669682414748E+03    0.56136E-03   -0.47401E-03  8424   0.840E-02-0.118E-02
CGA:  18    -0.669683265080E+03   -0.85033E-03   -0.10405E-02  8424   0.668E-03 0.535E-03
CGA:  19    -0.669683520029E+03   -0.25495E-03   -0.24537E-03  8424   0.243E-03-0.797E-04
CGA:  20    -0.669683738385E+03   -0.21836E-03    0.45061E-03  8424   0.721E-03-0.225E-03
CGA:  21    -0.669683774846E+03   -0.36461E-04   -0.80971E-04  8424   0.707E-04 0.128E-03
CGA:  22    -0.669683811309E+03   -0.36463E-04   -0.36124E-04  8424   0.204E-03-0.388E-04
CGA:  23    -0.669683325045E+03    0.48626E-03   -0.20614E-03  8424   0.908E-02-0.122E-02
CGA:  24    -0.669684127944E+03   -0.80290E-03   -0.10259E-02  8424   0.956E-04 0.625E-03
CGA:  25    -0.669684133915E+03   -0.59710E-05   -0.14185E-04  8424   0.324E-04 0.260E-04
  12 F= -.66968413E+03 E0= -.66968413E+03  d E =0.100166E+00  mag=     2.0000
       N       E                     dE             d eps       ncg     rms          ort
SDA:   1    -0.643869570560E+03    0.25815E+02    0.00000E+00  8424   0.849E+02 0.000E+00
CGA:   2    -0.659820320549E+03   -0.15951E+02   -0.16227E+02  8424   0.323E+02-0.480E+00
CGA:   3    -0.666883340782E+03   -0.70630E+01   -0.70343E+01  8424   0.110E+02 0.118E+00
CGA:   4    -0.668756118162E+03   -0.18728E+01   -0.18761E+01  8424   0.272E+01 0.104E-01
CGA:   5    -0.669206312993E+03   -0.45019E+00   -0.45169E+00  8424   0.537E+00 0.905E-03
CGA:   6    -0.669315283668E+03   -0.10897E+00   -0.10871E+00  8424   0.127E+00-0.107E-02
CGA:   7    -0.669343634425E+03   -0.28351E-01   -0.28459E-01  8424   0.367E-01 0.656E-03
CGA:   8    -0.669352469535E+03   -0.88351E-02   -0.88606E-02  8424   0.106E-01 0.188E-03
CGA:   9    -0.669355483614E+03   -0.30141E-02   -0.29717E-02  8424   0.376E-02-0.481E-03
CGA:  10    -0.669356526712E+03   -0.10431E-02   -0.10499E-02  8424   0.149E-02 0.961E-04
CGA:  11    -0.669357101559E+03   -0.57485E-03   -0.58150E-03  8424   0.855E-03-0.296E-03
CGA:  12    -0.669357290777E+03   -0.18922E-03   -0.19050E-03  8424   0.371E-03 0.138E-04
CGA:  13    -0.669357050612E+03    0.24017E-03   -0.43638E-03  8424   0.361E-02-0.851E-03
CGA:  14    -0.669357748580E+03   -0.69797E-03   -0.72986E-03  8424   0.624E-03 0.164E-03
CGA:  15    -0.669357976513E+03   -0.22793E-03   -0.21094E-03  8424   0.520E-03-0.270E-03
CGA:  16    -0.669358068274E+03   -0.91761E-04   -0.85760E-04  8424   0.289E-03-0.661E-04
CGA:  17    -0.669357982123E+03    0.86151E-04   -0.28878E-03  8424   0.252E-02-0.497E-03
CGA:  18    -0.669358536695E+03   -0.55457E-03   -0.48163E-03  8424   0.623E-03-0.324E-03
CGA:  19    -0.669358644346E+03   -0.10765E-03   -0.11426E-03  8424   0.821E-04 0.335E-04
CGA:  20    -0.669358729624E+03   -0.85278E-04    0.69766E-04  8424   0.808E-04 0.313E-04
CGA:  21    -0.669358894250E+03   -0.16463E-03    0.25646E-04  8424   0.900E-04 0.197E-04
CGA:  22    -0.669359092446E+03   -0.19820E-03    0.17938E-04  8424   0.668E-04 0.504E-04
CGA:  23    -0.669359166748E+03   -0.74302E-04    0.32711E-04  8424   0.584E-04 0.178E-04
CGA:  24    -0.669359274053E+03   -0.10730E-03    0.17602E-04  8424   0.539E-04 0.250E-04
CGA:  25    -0.669359434376E+03   -0.16032E-03    0.93736E-05  8424   0.514E-04 0.391E-04
CGA:  26    -0.669359475201E+03   -0.40825E-04    0.42026E-02  8424   0.748E-04-0.239E-05
CGA:  27    -0.669359616941E+03   -0.14174E-03    0.93534E-05  8424   0.590E-04 0.278E-04
CGA:  28    -0.669359769018E+03   -0.15208E-03    0.11651E-04  8424   0.689E-04 0.195E-04
CGA:  29    -0.669359983435E+03   -0.21442E-03    0.92925E-05  8424   0.827E-04 0.654E-04
CGA:  30    -0.669358531607E+03    0.14518E-02   -0.78966E-03  8424   0.114E-01-0.780E-03
CGA:  31    -0.669360148259E+03   -0.16167E-02   -0.17243E-02  8424   0.607E-03 0.260E-03
CGA:  32    -0.669360322110E+03   -0.17385E-03   -0.13463E-03  8424   0.740E-04-0.847E-04
CGA:  33    -0.669360364167E+03   -0.42057E-04   -0.62181E-04  8424   0.293E-03-0.632E-04
CGA:  34    -0.669360467550E+03   -0.10338E-03   -0.66124E-04  8424   0.105E-03-0.855E-04
CGA:  35    -0.669360495100E+03   -0.27550E-04   -0.23634E-04  8424   0.460E-04-0.122E-04
CGA:  36    -0.669360579504E+03   -0.84404E-04    0.21532E-04  8424   0.805E-04-0.152E-04
CGA:  37    -0.669360778609E+03   -0.19910E-03    0.93575E-05  8424   0.114E-03-0.419E-05
CGA:  38    -0.669361046230E+03   -0.26762E-03    0.37651E-04  8424   0.337E-03-0.626E-04
CGA:  39    -0.669361120931E+03   -0.74701E-04   -0.74244E-04  8424   0.205E-03 0.371E-04
CGA:  40    -0.669361148500E+03   -0.27569E-04   -0.53035E-04  8424   0.185E-03 0.264E-04
CGA:  41    -0.669360782968E+03    0.36553E-03   -0.14373E-04  8424   0.107E-02 0.395E-03
CGA:  42    -0.669360356428E+03    0.42654E-03   -0.18298E-03  8424   0.181E-02 0.657E-03
CGA:  43    -0.669359945592E+03    0.41084E-03   -0.36018E-03  8424   0.295E-02 0.126E-02
CGA:  44    -0.669360189231E+03   -0.24364E-03   -0.74527E-03  8424   0.212E-02 0.122E-02
CGA:  45    -0.669359394925E+03    0.79431E-03   -0.47024E-03  8424   0.382E-02 0.272E-02
CGA:  46    -0.669360525995E+03   -0.11311E-02   -0.13166E-02  8424   0.200E-02 0.448E-03
CGA:  47    -0.669360622913E+03   -0.96919E-04   -0.53429E-03  8424   0.778E-03 0.109E-02
CGA:  48    -0.669361187218E+03   -0.56430E-03   -0.56927E-03  8424   0.178E-03-0.186E-03
CGA:  49    -0.665355317793E+03    0.40059E+01    0.10271E+01  8424   0.465E+01-0.465E+00
CGA:  50    -0.669302497230E+03   -0.39472E+01   -0.39682E+01  8424   0.152E+00 0.177E+00
CGA:  51    -0.669331929766E+03   -0.29433E-01   -0.29482E-01  8424   0.388E-01-0.268E-02
CGA:  52    -0.669351723541E+03   -0.19794E-01   -0.20486E-01  8424   0.263E-01-0.181E-03
CGA:  53    -0.669358268063E+03   -0.65445E-02   -0.69869E-02  8424   0.643E-02 0.154E-03
CGA:  54    -0.669360209409E+03   -0.19413E-02   -0.16933E-02  8424   0.270E-02-0.532E-03
CGA:  55    -0.669361153140E+03   -0.94373E-03   -0.98400E-03  8424   0.865E-03 0.902E-04
CGA:  56    -0.669361525269E+03   -0.37213E-03   -0.36140E-03  8424   0.396E-03-0.277E-04
CGA:  57    -0.669361648523E+03   -0.12325E-03   -0.11719E-03  8424   0.158E-03-0.131E-04
CGA:  58    -0.669361710185E+03   -0.61662E-04   -0.51945E-04  8424   0.665E-04-0.249E-04
CGA:  59    -0.669361725936E+03   -0.15750E-04   -0.16790E-04  8424   0.265E-04 0.238E-05
CGA:  60    -0.669361790297E+03   -0.64361E-04    0.13761E-04  8424   0.766E-04-0.233E-04
CGA:  61    -0.669361785636E+03    0.46604E-05   -0.93959E-05  8424   0.134E-04 0.246E-04
  13 F= -.66936179E+03 E0= -.66936179E+03  d E =0.322348E+00  mag=     2.0000
       N       E                     dE             d eps       ncg     rms          ort
SDA:   1    -0.666188034940E+03    0.31738E+01    0.00000E+00  8424   0.112E+02 0.000E+00
CGA:   2    -0.668401508265E+03   -0.22135E+01   -0.22271E+01  8424   0.440E+01-0.221E-01
CGA:   3    -0.669333642062E+03   -0.93213E+00   -0.92971E+00  8424   0.143E+01 0.128E-01
CGA:   4    -0.669575574795E+03   -0.24193E+00   -0.24218E+00  8424   0.363E+00 0.914E-03
CGA:   5    -0.669638023921E+03   -0.62449E-01   -0.62612E-01  8424   0.742E-01 0.116E-03
CGA:   6    -0.669652784706E+03   -0.14761E-01   -0.14682E-01  8424   0.166E-01-0.205E-03
CGA:   7    -0.669656438108E+03   -0.36534E-02   -0.37143E-02  8424   0.489E-02 0.191E-03
CGA:   8    -0.669657541547E+03   -0.11034E-02   -0.11648E-02  8424   0.137E-02 0.213E-03
CGA:   9    -0.669657872436E+03   -0.33089E-03   -0.36336E-03  8424   0.440E-03 0.127E-03
CGA:  10    -0.669657927794E+03   -0.55358E-04   -0.10441E-03  8424   0.178E-03 0.176E-03
CGA:  11    -0.669657927069E+03    0.72533E-06   -0.42414E-04  8424   0.950E-04 0.138E-03
CGA:  12    -0.669657918749E+03    0.83203E-05   -0.14181E-04  8424   0.622E-04 0.710E-04
  14 F= -.66965792E+03 E0= -.66965792E+03  d E =-.296133E+00  mag=     2.0000
       N       E                     dE             d eps       ncg     rms          ort
SDA:   1    -0.666909054204E+03    0.27489E+01    0.00000E+00  8424   0.901E+01 0.000E+00
CGA:   2    -0.668701145430E+03   -0.17921E+01   -0.17977E+01  8424   0.360E+01-0.709E-02
CGA:   3    -0.669463788580E+03   -0.76264E+00   -0.76178E+00  8424   0.119E+01 0.201E-02
CGA:   4    -0.669662253143E+03   -0.19846E+00   -0.19865E+00  8424   0.295E+00 0.590E-03
CGA:   5    -0.669712482298E+03   -0.50229E-01   -0.50408E-01  8424   0.590E-01 0.621E-03
CGA:   6    -0.669724233036E+03   -0.11751E-01   -0.11763E-01  8424   0.134E-01 0.646E-04
CGA:   7    -0.669727114734E+03   -0.28817E-02   -0.29533E-02  8424   0.383E-02 0.451E-03
CGA:   8    -0.669727920551E+03   -0.80582E-03   -0.87599E-03  8424   0.104E-02 0.473E-03
CGA:   9    -0.669728110331E+03   -0.18978E-03   -0.24276E-03  8424   0.349E-03 0.344E-03
CGA:  10    -0.669728115604E+03   -0.52731E-05   -0.65779E-04  8424   0.197E-03 0.284E-03
CGA:  11    -0.669728099686E+03    0.15917E-04   -0.21786E-04  8424   0.141E-03 0.162E-03
CGA:  12    -0.669728080969E+03    0.18717E-04   -0.12821E-04  8424   0.122E-03 0.130E-03
CGA:  13    -0.669728062376E+03    0.18594E-04   -0.94960E-05  8424   0.111E-03 0.116E-03
CGA:  14    -0.669728044518E+03    0.17858E-04   -0.76535E-05  8424   0.103E-03 0.107E-03
CGA:  15    -0.669728027534E+03    0.16984E-04   -0.64405E-05  8424   0.977E-04 0.100E-03
CGA:  16    -0.669728011435E+03    0.16099E-04   -0.55641E-05  8424   0.933E-04 0.952E-04
CGA:  17    -0.669727996192E+03    0.15243E-04   -0.48924E-05  8424   0.897E-04 0.913E-04
CGA:  18    -0.669727981761E+03    0.14431E-04   -0.43565E-05  8424   0.867E-04 0.880E-04
CGA:  19    -0.669727968097E+03    0.13664E-04   -0.39163E-05  8424   0.841E-04 0.853E-04
CGA:  20    -0.669727955153E+03    0.12943E-04   -0.35469E-05  8424   0.819E-04 0.829E-04
CGA:  21    -0.669727942887E+03    0.12266E-04   -0.32316E-05  8424   0.800E-04 0.809E-04
CGA:  22    -0.669727931257E+03    0.11630E-04   -0.29592E-05  8424   0.783E-04 0.791E-04
CGA:  23    -0.669727920225E+03    0.11032E-04   -0.27212E-05  8424   0.768E-04 0.775E-04
CGA:  24    -0.669727909755E+03    0.10470E-04   -0.25113E-05  8424   0.754E-04 0.760E-04
CGA:  25    -0.669727899814E+03    0.99410E-05   -0.23249E-05  8424   0.742E-04 0.748E-04
  15 F= -.66972790E+03 E0= -.66972790E+03  d E =-.699811E-01  mag=     2.0000
       N       E                     dE             d eps       ncg     rms          ort
SDA:   1    -0.669646611736E+03    0.81298E-01    0.00000E+00  8424   0.228E+00 0.000E+00
CGA:   2    -0.669701077355E+03   -0.54466E-01   -0.54442E-01  8424   0.112E+00 0.362E-03
CGA:   3    -0.669723185863E+03   -0.22109E-01   -0.22090E-01  8424   0.290E-01 0.122E-02
CGA:   4    -0.669727759201E+03   -0.45733E-02   -0.45932E-02  8424   0.656E-02 0.760E-03
CGA:   5    -0.669728833801E+03   -0.10746E-02   -0.10873E-02  8424   0.130E-02 0.644E-03
CGA:   6    -0.669729013830E+03   -0.18003E-03   -0.20038E-03  8424   0.356E-03 0.517E-03
CGA:   7    -0.669729026841E+03   -0.13011E-04   -0.42508E-04  8424   0.190E-03 0.317E-03
CGA:   8    -0.669729019699E+03    0.71423E-05   -0.11568E-04  8424   0.148E-03 0.166E-03
  16 F= -.66972902E+03 E0= -.66972902E+03  d E =-.111988E-02  mag=     2.0000
       N       E                     dE             d eps       ncg     rms          ort
SDA:   1    -0.667549853939E+03    0.21792E+01    0.00000E+00  8424   0.514E+01 0.000E+00
CGA:   2    -0.669147797240E+03   -0.15979E+01   -0.15989E+01  8424   0.261E+01-0.651E-02
CGA:   3    -0.669591062886E+03   -0.44327E+00   -0.44326E+00  8424   0.519E+00 0.563E-02
CGA:   4    -0.669676578256E+03   -0.85515E-01   -0.85525E-01  8424   0.129E+00 0.184E-02
CGA:   5    -0.669699037114E+03   -0.22459E-01   -0.22455E-01  8424   0.273E-01 0.108E-02
CGA:   6    -0.669704465815E+03   -0.54287E-02   -0.53973E-02  8424   0.608E-02 0.116E-02
CGA:   7    -0.669705813716E+03   -0.13479E-02   -0.13206E-02  8424   0.174E-02 0.721E-03
CGA:   8    -0.669706144441E+03   -0.33072E-03   -0.33240E-03  8424   0.604E-03 0.755E-03
CGA:   9    -0.669706205981E+03   -0.61540E-04   -0.95361E-04  8424   0.332E-03 0.543E-03
CGA:  10    -0.669706211194E+03   -0.52128E-05   -0.28551E-04  8424   0.245E-03 0.280E-03
CGA:  11    -0.669706205851E+03    0.53429E-05   -0.16624E-04  8424   0.209E-03 0.226E-03
CGA:  12    -0.669706197696E+03    0.81549E-05   -0.12077E-04  8424   0.187E-03 0.197E-03
  17 F= -.66970620E+03 E0= -.66970620E+03  d E =0.228220E-01  mag=     2.0000
       N       E                     dE             d eps       ncg     rms          ort
SDA:   1    -0.667033119214E+03    0.26731E+01    0.00000E+00  8424   0.667E+01 0.000E+00
CGA:   2    -0.668805855071E+03   -0.17727E+01   -0.17724E+01  8424   0.367E+01 0.222E-02
CGA:   3    -0.669496043255E+03   -0.69019E+00   -0.69012E+00  8424   0.841E+00 0.186E-02
CGA:   4    -0.669625682606E+03   -0.12964E+00   -0.12965E+00  8424   0.187E+00 0.224E-02
CGA:   5    -0.669658062471E+03   -0.32380E-01   -0.32357E-01  8424   0.394E-01 0.145E-02
CGA:   6    -0.669666196673E+03   -0.81342E-02   -0.81039E-02  8424   0.927E-02 0.650E-03
CGA:   7    -0.669668131160E+03   -0.19345E-02   -0.19008E-02  8424   0.242E-02 0.811E-03
CGA:   8    -0.669668649881E+03   -0.51872E-03   -0.49821E-03  8424   0.729E-03 0.750E-03
[...]
       N       E                     dE             d eps       ncg     rms          ort
SDA:   1    -0.668762502384E+03    0.90065E+00    0.00000E+00  8424   0.233E+01 0.000E+00
CGA:   2    -0.669392891529E+03   -0.63039E+00   -0.63044E+00  8424   0.117E+01-0.120E-02
CGA:   3    -0.669610394560E+03   -0.21750E+00   -0.21752E+00  8424   0.284E+00 0.615E-03
CGA:   4    -0.669656042658E+03   -0.45648E-01   -0.45683E-01  8424   0.667E-01 0.645E-03
CGA:   5    -0.669667285140E+03   -0.11242E-01   -0.11282E-01  8424   0.134E-01 0.941E-03
CGA:   6    -0.669669931592E+03   -0.26465E-02   -0.26569E-02  8424   0.307E-02 0.841E-03
CGA:   7    -0.669670610926E+03   -0.67933E-03   -0.67895E-03  8424   0.875E-03 0.392E-03
CGA:   8    -0.669670777485E+03   -0.16656E-03   -0.17634E-03  8424   0.291E-03 0.340E-03
CGA:   9    -0.669670797527E+03   -0.20041E-04   -0.44732E-04  8424   0.162E-03 0.259E-03
CGA:  10    -0.669670793121E+03    0.44058E-05   -0.12604E-04  8424   0.121E-03 0.138E-03
  36 F= -.66967079E+03 E0= -.66967079E+03  d E =-.764447E-02  mag=     2.0000
       N       E                     dE             d eps       ncg     rms          ort
SDA:   1    -0.660529726236E+03    0.91411E+01    0.00000E+00  8424   0.289E+02 0.000E+00
CGA:   2    -0.666461554715E+03   -0.59318E+01   -0.59296E+01  8424   0.108E+02 0.855E-01
CGA:   3    -0.668710358627E+03   -0.22488E+01   -0.22491E+01  8424   0.361E+01-0.131E-01
CGA:   4    -0.669331846586E+03   -0.62149E+00   -0.62155E+00  8424   0.966E+00 0.987E-04
CGA:   5    -0.669496220239E+03   -0.16437E+00   -0.16434E+00  8424   0.187E+00-0.253E-02
CGA:   6    -0.669533803069E+03   -0.37583E-01   -0.37623E-01  8424   0.456E-01-0.296E-02
CGA:   7    -0.669544077521E+03   -0.10274E-01   -0.10267E-01  8424   0.143E-01 0.174E-03
CGA:   8    -0.669547629588E+03   -0.35521E-02   -0.35351E-02  8424   0.428E-02 0.301E-03
CGA:   9    -0.669548908572E+03   -0.12790E-02   -0.13251E-02  8424   0.181E-02-0.424E-03
CGA:  10    -0.669549426621E+03   -0.51805E-03   -0.69244E-03  8424   0.160E-02-0.777E-03
CGA:  11    -0.669545123973E+03    0.43026E-02   -0.23182E-02  8424   0.233E-01-0.484E-02
CGA:  12    -0.669549035748E+03   -0.39118E-02   -0.40095E-02  8424   0.352E-02 0.459E-03
CGA:  13    -0.669550453555E+03   -0.14178E-02   -0.14319E-02  8424   0.214E-02-0.554E-03
CGA:  14    -0.669551032105E+03   -0.57855E-03   -0.56646E-03  8424   0.100E-02-0.202E-03
CGA:  15    -0.669550662093E+03    0.37001E-03   -0.88391E-03  8424   0.713E-02-0.209E-02
CGA:  16    -0.669551703097E+03   -0.10410E-02   -0.11034E-02  8424   0.115E-02 0.269E-03
CGA:  17    -0.669552092108E+03   -0.38901E-03   -0.37419E-03  8424   0.329E-03-0.194E-03
CGA:  18    -0.669552337731E+03   -0.24562E-03    0.32205E-03  8424   0.185E-03 0.310E-04
CGA:  19    -0.669552575055E+03   -0.23732E-03    0.75045E-04  8424   0.147E-03-0.341E-04
CGA:  20    -0.669552854916E+03   -0.27986E-03    0.11427E-04  8424   0.120E-03-0.300E-04
CGA:  21    -0.669553202379E+03   -0.34746E-03    0.49712E-05  8424   0.803E-04 0.261E-04
CGA:  22    -0.669553506258E+03   -0.30388E-03    0.62143E-05  8424   0.716E-04 0.404E-04
CGA:  23    -0.669553656188E+03   -0.14993E-03    0.80238E-05  8424   0.909E-04-0.727E-05
CGA:  24    -0.669553876848E+03   -0.22066E-03    0.62784E-05  8424   0.540E-04 0.183E-04
CGA:  25    -0.669554086615E+03   -0.20977E-03    0.39020E-05  8424   0.560E-04 0.236E-04
CGA:  26    -0.669554433203E+03   -0.34659E-03    0.33877E-05  8424   0.548E-04 0.146E-04
CGA:  27    -0.669554851150E+03   -0.41795E-03    0.19368E-05  8424   0.557E-04 0.563E-04
CGA:  28    -0.669554923132E+03   -0.71982E-04    0.15860E-04  8424   0.469E-04-0.696E-06
CGA:  29    -0.669555103011E+03   -0.17988E-03    0.22063E-05  8424   0.345E-04 0.619E-05
CGA:  30    -0.669555303759E+03   -0.20075E-03    0.13281E-05  8424   0.253E-04 0.293E-04
CGA:  31    -0.669555353908E+03   -0.50148E-04    0.31142E-05  8424   0.274E-04 0.263E-05
CGA:  32    -0.669555526445E+03   -0.17254E-03    0.91065E-06  8424   0.191E-04 0.170E-04
CGA:  33    -0.669555616231E+03   -0.89786E-04    0.72004E-06  8424   0.124E-04 0.102E-04
CGA:  34    -0.669555676369E+03   -0.60137E-04    0.44992E-06  8424   0.137E-04 0.874E-05
CGA:  35    -0.669555769432E+03   -0.93063E-04    0.33935E-06  8424   0.177E-04 0.582E-05
CGA:  36    -0.669555931904E+03   -0.16247E-03    0.65581E-06  8424   0.126E-04 0.239E-04
CGA:  37    -0.669555981797E+03   -0.49893E-04    0.58178E-06  8424   0.152E-04 0.601E-05
CGA:  38    -0.669556141488E+03   -0.15969E-03    0.52409E-06  8424   0.114E-04 0.212E-04
CGA:  39    -0.669556223377E+03   -0.81889E-04    0.26313E-06  8424   0.122E-04 0.655E-05
CGA:  40    -0.669556267691E+03   -0.44314E-04    0.63835E-06  8424   0.148E-04 0.459E-05
CGA:  41    -0.669556418116E+03   -0.15043E-03    0.45437E-06  8424   0.117E-04 0.193E-04
CGA:  42    -0.669556499775E+03   -0.81659E-04    0.27834E-06  8424   0.128E-04 0.454E-05
CGA:  43    -0.669556626748E+03   -0.12697E-03    0.41658E-06  8424   0.111E-04 0.167E-04
CGA:  44    -0.669556675175E+03   -0.48427E-04    0.46163E-06  8424   0.103E-04 0.496E-05
CGA:  45    -0.669556795579E+03   -0.12040E-03    0.30197E-06  8424   0.103E-04 0.139E-04
CGA:  46    -0.669556859594E+03   -0.64016E-04    0.28204E-06  8424   0.838E-05 0.544E-05
CGA:  47    -0.669556911200E+03   -0.51605E-04    0.23113E-06  8424   0.770E-05 0.628E-05
CGA:  48    -0.669556975329E+03   -0.64129E-04    0.15127E-06  8424   0.753E-05 0.636E-05
CGA:  49    -0.669557022238E+03   -0.46909E-04    0.20485E-06  8424   0.765E-05 0.610E-05
CGA:  50    -0.669557089687E+03   -0.67450E-04    0.14109E-06  8424   0.813E-05 0.555E-05
CGA:  51    -0.669557128038E+03   -0.38350E-04    0.30623E-06  8424   0.927E-05 0.452E-05
CGA:  52    -0.669557203938E+03   -0.75901E-04    0.18561E-06  8424   0.117E-04 0.259E-05
CGA:  53    -0.669557323214E+03   -0.11928E-03    0.30701E-06  8424   0.935E-05 0.145E-04
CGA:  54    -0.669557349913E+03   -0.26698E-04    0.66623E-06  8424   0.123E-04 0.143E-05
CGA:  55    -0.669557471603E+03   -0.12169E-03    0.27039E-06  8424   0.105E-04 0.138E-04
CGA:  56    -0.669557550296E+03   -0.78693E-04    0.23093E-06  8424   0.148E-04-0.105E-05
CGA:  57    -0.669557669236E+03   -0.11894E-03    0.24186E-06  8424   0.153E-04 0.128E-04
CGA:  58    -0.669557673626E+03   -0.43895E-05   -0.42178E-05  8424   0.100E-04-0.161E-05
  37 F= -.66955767E+03 E0= -.66955767E+03  d E =0.113119E+00  mag=     2.0000
       N       E                     dE             d eps       ncg     rms          ort
SDA:   1    -0.664374671936E+03    0.51830E+01    0.00000E+00  8424   0.175E+02 0.000E+00
CGA:   2    -0.667783845125E+03   -0.34092E+01   -0.34237E+01  8424   0.667E+01-0.151E-01
CGA:   3    -0.669204180048E+03   -0.14203E+01   -0.14179E+01  8424   0.224E+01 0.141E-02
CGA:   4    -0.669581048376E+03   -0.37687E+00   -0.37701E+00  8424   0.573E+00 0.844E-03
CGA:   5    -0.669678551706E+03   -0.97503E-01   -0.97835E-01  8424   0.116E+00 0.143E-02
CGA:   6    -0.669701652431E+03   -0.23101E-01   -0.23118E-01  8424   0.256E-01 0.124E-03
CGA:   7    -0.669707286905E+03   -0.56345E-02   -0.56920E-02  8424   0.756E-02 0.497E-03
CGA:   8    -0.669709065508E+03   -0.17786E-02   -0.18090E-02  8424   0.212E-02 0.315E-03
CGA:   9    -0.669709599305E+03   -0.53380E-03   -0.54892E-03  8424   0.635E-03 0.195E-03
CGA:  10    -0.669709686424E+03   -0.87119E-04   -0.12815E-03  8424   0.243E-03 0.298E-03
CGA:  11    -0.669709691102E+03   -0.46780E-05   -0.45704E-04  8424   0.131E-03 0.219E-03
CGA:  12    -0.669709684534E+03    0.65675E-05   -0.14344E-04  8424   0.916E-04 0.106E-03
  38 F= -.66970968E+03 E0= -.66970968E+03  d E =-.152011E+00  mag=     2.0000
       N       E                     dE             d eps       ncg     rms          ort
SDA:   1    -0.669621771744E+03    0.87919E-01    0.00000E+00  8424   0.296E+00 0.000E+00
CGA:   2    -0.669688433622E+03   -0.66662E-01   -0.66662E-01  8424   0.127E+00-0.573E-04
CGA:   3    -0.669713888150E+03   -0.25455E-01   -0.25455E-01  8424   0.385E-01-0.908E-05
CGA:   4    -0.669720259878E+03   -0.63717E-02   -0.64147E-02  8424   0.947E-02 0.383E-03
CGA:   5    -0.669721738036E+03   -0.14782E-02   -0.15433E-02  8424   0.174E-02 0.584E-03
CGA:   6    -0.669721983735E+03   -0.24570E-03   -0.29428E-03  8424   0.400E-03 0.453E-03
CGA:   7    -0.669722009892E+03   -0.26158E-04   -0.61560E-04  8424   0.168E-03 0.254E-03
CGA:   8    -0.669722005513E+03    0.43793E-05   -0.16074E-04  8424   0.107E-03 0.129E-03
  39 F= -.66972201E+03 E0= -.66972201E+03  d E =-.123210E-01  mag=     2.0000
       N       E                     dE             d eps       ncg     rms          ort
SDA:   1    -0.668447364958E+03    0.12746E+01    0.00000E+00  8424   0.352E+01 0.000E+00
CGA:   2    -0.669345360170E+03   -0.89800E+00   -0.89798E+00  8424   0.157E+01-0.394E-03
CGA:   3    -0.669643563148E+03   -0.29820E+00   -0.29814E+00  8424   0.419E+00-0.100E-02
CGA:   4    -0.669714143461E+03   -0.70580E-01   -0.70630E-01  8424   0.107E+00 0.841E-03
CGA:   5    -0.669732083768E+03   -0.17940E-01   -0.18061E-01  8424   0.203E-01 0.183E-02
CGA:   6    -0.669735978616E+03   -0.38948E-02   -0.39508E-02  8424   0.455E-02 0.145E-02
CGA:   7    -0.669736992136E+03   -0.10135E-02   -0.10245E-02  8424   0.142E-02 0.623E-03
CGA:   8    -0.669737286155E+03   -0.29402E-03   -0.31107E-03  8424   0.471E-03 0.510E-03
CGA:   9    -0.669737322347E+03   -0.36192E-04   -0.77028E-04  8424   0.240E-03 0.389E-03
CGA:  10    -0.669737314034E+03    0.83122E-05   -0.19491E-04  8424   0.174E-03 0.201E-03
CGA:  11    -0.669737301197E+03    0.12837E-04   -0.10993E-04  8424   0.147E-03 0.159E-03
CGA:  12    -0.669737287990E+03    0.13208E-04   -0.78616E-05  8424   0.131E-03 0.139E-03
CGA:  13    -0.669737275173E+03    0.12817E-04   -0.61178E-05  8424   0.120E-03 0.125E-03
CGA:  14    -0.669737262960E+03    0.12213E-04   -0.49817E-05  8424   0.112E-03 0.116E-03
CGA:  15    -0.669737251404E+03    0.11556E-04   -0.41755E-05  8424   0.105E-03 0.108E-03
CGA:  16    -0.669737240503E+03    0.10901E-04   -0.35713E-05  8424   0.999E-04 0.102E-03
CGA:  17    -0.669737230231E+03    0.10272E-04   -0.31008E-05  8424   0.954E-04 0.973E-04
CGA:  18    -0.669737220555E+03    0.96762E-05   -0.27237E-05  8424   0.916E-04 0.932E-04
  40 F= -.66973722E+03 E0= -.66973722E+03  d E =-.152150E-01  mag=     2.0000
       N       E                     dE             d eps       ncg     rms          ort
SDA:   1    -0.669558763885E+03    0.17847E+00    0.00000E+00  8424   0.639E+00 0.000E+00
CGA:   2    -0.669681320216E+03   -0.12256E+00   -0.12247E+00  8424   0.236E+00 0.171E-02
CGA:   3    -0.669733263302E+03   -0.51943E-01   -0.51857E-01  8424   0.854E-01 0.121E-02
CGA:   4    -0.669747635590E+03   -0.14372E-01   -0.14364E-01  8424   0.209E-01 0.632E-03
CGA:   5    -0.669751144399E+03   -0.35088E-02   -0.35018E-02  8424   0.391E-02 0.588E-03
CGA:   6    -0.669751853191E+03   -0.70879E-03   -0.69730E-03  8424   0.809E-03 0.631E-03
CGA:   7    -0.669751958923E+03   -0.10573E-03   -0.11912E-03  8424   0.298E-03 0.455E-03
CGA:   8    -0.669751966540E+03   -0.76177E-05   -0.24443E-04  8424   0.189E-03 0.231E-03
CGA:   9    -0.669751962000E+03    0.45398E-05   -0.11087E-04  8424   0.153E-03 0.169E-03
  41 F= -.66975196E+03 E0= -.66975196E+03  d E =-.147414E-01  mag=     2.0000
       N       E                     dE             d eps       ncg     rms          ort
SDA:   1    -0.661299645633E+03    0.84523E+01    0.00000E+00  8424   0.264E+02 0.000E+00
CGA:   2    -0.666751025651E+03   -0.54514E+01   -0.54365E+01  8424   0.102E+02 0.194E+00
CGA:   3    -0.668882214617E+03   -0.21312E+01   -0.21336E+01  8424   0.330E+01-0.348E-01
CGA:   4    -0.669450271035E+03   -0.56806E+00   -0.56800E+00  8424   0.859E+00 0.280E-03
CGA:   5    -0.669593258045E+03   -0.14299E+00   -0.14302E+00  8424   0.168E+00-0.254E-02
CGA:   6    -0.669627204910E+03   -0.33947E-01   -0.34144E-01  8424   0.416E-01-0.369E-02
CGA:   7    -0.669636471400E+03   -0.92665E-02   -0.92536E-02  8424   0.125E-01 0.169E-03
CGA:   8    -0.669639532794E+03   -0.30614E-02   -0.30320E-02  8424   0.367E-02 0.346E-03
CGA:   9    -0.669640627031E+03   -0.10942E-02   -0.11664E-02  8424   0.163E-02-0.488E-03
CGA:  10    -0.669640994465E+03   -0.36743E-03   -0.68766E-03  8424   0.203E-02-0.101E-02
CGA:  11    -0.669641416332E+03   -0.42187E-03   -0.43450E-03  8424   0.567E-03-0.422E-03
CGA:  12    -0.669641513565E+03   -0.97234E-04   -0.20833E-03  8424   0.851E-03-0.399E-03
CGA:  13    -0.669641695147E+03   -0.18158E-03   -0.20656E-03  8424   0.697E-03-0.578E-03
CGA:  14    -0.669641772776E+03   -0.77629E-04   -0.81173E-04  8424   0.335E-04 0.416E-04
CGA:  15    -0.669641823523E+03   -0.50746E-04    0.13339E-05  8424   0.325E-04 0.274E-04
CGA:  16    -0.669641878332E+03   -0.54810E-04    0.97793E-06  8424   0.283E-04 0.233E-04
CGA:  17    -0.669641924617E+03   -0.46285E-04    0.88693E-06  8424   0.260E-04 0.233E-04
CGA:  18    -0.669641976039E+03   -0.51421E-04    0.64100E-06  8424   0.245E-04 0.229E-04
CGA:  19    -0.669642022444E+03   -0.46406E-04    0.63474E-06  8424   0.233E-04 0.223E-04
CGA:  20    -0.669642072128E+03   -0.49684E-04    0.52338E-06  8424   0.224E-04 0.216E-04
CGA:  21    -0.669642118126E+03   -0.45998E-04    0.52484E-06  8424   0.216E-04 0.209E-04
CGA:  22    -0.669642166725E+03   -0.48599E-04    0.45337E-06  8424   0.209E-04 0.203E-04
CGA:  23    -0.669642212091E+03   -0.45366E-04    0.45963E-06  8424   0.204E-04 0.197E-04
CGA:  24    -0.669642259951E+03   -0.47860E-04    0.40516E-06  8424   0.199E-04 0.191E-04
CGA:  25    -0.669642304596E+03   -0.44645E-04    0.41732E-06  8424   0.194E-04 0.185E-04
CGA:  26    -0.669642351923E+03   -0.47326E-04    0.37118E-06  8424   0.191E-04 0.179E-04
CGA:  27    -0.669642395833E+03   -0.43910E-04    0.38980E-06  8424   0.188E-04 0.173E-04
CGA:  28    -0.669642442740E+03   -0.46908E-04    0.34797E-06  8424   0.185E-04 0.168E-04
CGA:  29    -0.669642485946E+03   -0.43206E-04    0.37282E-06  8424   0.183E-04 0.163E-04
CGA:  30    -0.669642532484E+03   -0.46538E-04    0.33314E-06  8424   0.182E-04 0.158E-04
CGA:  31    -0.669642575045E+03   -0.42561E-04    0.36325E-06  8424   0.180E-04 0.152E-04
CGA:  32    -0.669642621220E+03   -0.46175E-04    0.32436E-06  8424   0.179E-04 0.147E-04
CGA:  33    -0.669642663207E+03   -0.41987E-04    0.35824E-06  8424   0.178E-04 0.143E-04
CGA:  34    -0.669642709006E+03   -0.45799E-04    0.31923E-06  8424   0.177E-04 0.138E-04
CGA:  35    -0.669642750493E+03   -0.41487E-04    0.35507E-06  8424   0.176E-04 0.134E-04
CGA:  36    -0.669642795893E+03   -0.45400E-04    0.31552E-06  8424   0.176E-04 0.130E-04
CGA:  37    -0.669642836944E+03   -0.41051E-04    0.35154E-06  8424   0.175E-04 0.126E-04
CGA:  38    -0.669642881921E+03   -0.44977E-04    0.31148E-06  8424   0.173E-04 0.123E-04
CGA:  39    -0.669642922591E+03   -0.40670E-04    0.34617E-06  8424   0.172E-04 0.119E-04
CGA:  40    -0.669642967127E+03   -0.44536E-04    0.30604E-06  8424   0.171E-04 0.117E-04
CGA:  41    -0.669643007456E+03   -0.40329E-04    0.33840E-06  8424   0.169E-04 0.114E-04
CGA:  42    -0.669643051542E+03   -0.44086E-04    0.29884E-06  8424   0.168E-04 0.112E-04
CGA:  43    -0.669643091555E+03   -0.40014E-04    0.32841E-06  8424   0.166E-04 0.110E-04
CGA:  44    -0.669643135188E+03   -0.43633E-04    0.29007E-06  8424   0.164E-04 0.108E-04
CGA:  45    -0.669643174904E+03   -0.39715E-04    0.31679E-06  8424   0.163E-04 0.106E-04
CGA:  46    -0.669643218087E+03   -0.43184E-04    0.28020E-06  8424   0.161E-04 0.105E-04
CGA:  47    -0.669643257511E+03   -0.39424E-04    0.30431E-06  8424   0.159E-04 0.103E-04
CGA:  48    -0.669643300255E+03   -0.42743E-04    0.26981E-06  8424   0.157E-04 0.102E-04
CGA:  49    -0.669643339390E+03   -0.39135E-04    0.29170E-06  8424   0.155E-04 0.101E-04
CGA:  50    -0.669643381705E+03   -0.42315E-04    0.25941E-06  8424   0.153E-04 0.996E-05
CGA:  51    -0.669643420548E+03   -0.38843E-04    0.27953E-06  8424   0.152E-04 0.984E-05
CGA:  52    -0.669643462449E+03   -0.41900E-04    0.24945E-06  8424   0.150E-04 0.974E-05
CGA:  53    -0.669643500996E+03   -0.38547E-04    0.26823E-06  8424   0.148E-04 0.963E-05
CGA:  54    -0.669643542497E+03   -0.41501E-04    0.24020E-06  8424   0.147E-04 0.952E-05
CGA:  55    -0.669643580743E+03   -0.38246E-04    0.25804E-06  8424   0.145E-04 0.941E-05
CGA:  56    -0.669643621858E+03   -0.41116E-04    0.23186E-06  8424   0.144E-04 0.930E-05
CGA:  57    -0.669643659796E+03   -0.37938E-04    0.24909E-06  8424   0.142E-04 0.918E-05
CGA:  58    -0.669643700541E+03   -0.40745E-04    0.22453E-06  8424   0.141E-04 0.906E-05
CGA:  59    -0.669643738165E+03   -0.37623E-04    0.24144E-06  8424   0.140E-04 0.894E-05
CGA:  60    -0.669643778554E+03   -0.40389E-04    0.21824E-06  8424   0.139E-04 0.881E-05
CGA:  61    -0.669643815856E+03   -0.37302E-04    0.23512E-06  8424   0.138E-04 0.868E-05
CGA:  62    -0.669643855903E+03   -0.40047E-04    0.21302E-06  8424   0.137E-04 0.855E-05
CGA:  63    -0.669643892877E+03   -0.36974E-04    0.23010E-06  8424   0.136E-04 0.841E-05
CGA:  64    -0.669643932596E+03   -0.39718E-04    0.20886E-06  8424   0.135E-04 0.826E-05
CGA:  65    -0.669643969235E+03   -0.36640E-04    0.22639E-06  8424   0.134E-04 0.811E-05
CGA:  66    -0.669644008638E+03   -0.39403E-04    0.20577E-06  8424   0.134E-04 0.796E-05
CGA:  67    -0.669644044938E+03   -0.36300E-04    0.22398E-06  8424   0.133E-04 0.779E-05
CGA:  68    -0.669644084037E+03   -0.39099E-04    0.20377E-06  8424   0.133E-04 0.763E-05
CGA:  69    -0.669644119990E+03   -0.35953E-04    0.22291E-06  8424   0.132E-04 0.745E-05
CGA:  70    -0.669644158797E+03   -0.38807E-04    0.20288E-06  8424   0.132E-04 0.727E-05
CGA:  71    -0.669644194398E+03   -0.35601E-04    0.22322E-06  8424   0.132E-04 0.708E-05
CGA:  72    -0.669644232926E+03   -0.38528E-04    0.20316E-06  8424   0.132E-04 0.689E-05
CGA:  73    -0.669644268168E+03   -0.35242E-04    0.22503E-06  8424   0.132E-04 0.669E-05
CGA:  74    -0.669644306427E+03   -0.38259E-04    0.20471E-06  8424   0.132E-04 0.648E-05
CGA:  75    -0.669644379661E+03   -0.73234E-04    0.23033E-06  8424   0.128E-04 0.195E-04
CGA:  76    -0.669644414279E+03   -0.34618E-04    0.21470E-06  8424   0.128E-04 0.631E-05
CGA:  77    -0.669644486555E+03   -0.72277E-04    0.21857E-06  8424   0.124E-04 0.189E-04
CGA:  78    -0.669644523830E+03   -0.37274E-04    0.18369E-06  8424   0.123E-04 0.615E-05
CGA:  79    -0.669644595133E+03   -0.71303E-04    0.20804E-06  8424   0.120E-04 0.183E-04
CGA:  80    -0.669644628905E+03   -0.33772E-04    0.19218E-06  8424   0.120E-04 0.599E-05
CGA:  81    -0.669644665567E+03   -0.36662E-04    0.17432E-06  8424   0.120E-04 0.581E-05
CGA:  82    -0.669644735707E+03   -0.70140E-04    0.19490E-06  8424   0.116E-04 0.176E-04
CGA:  83    -0.669644768882E+03   -0.33175E-04    0.18314E-06  8424   0.115E-04 0.568E-05
CGA:  84    -0.669644838019E+03   -0.69137E-04    0.18475E-06  8424   0.112E-04 0.170E-04
CGA:  85    -0.669644873727E+03   -0.35708E-04    0.15689E-06  8424   0.112E-04 0.552E-05
CGA:  86    -0.669644942005E+03   -0.68278E-04    0.17627E-06  8424   0.109E-04 0.165E-04
CGA:  87    -0.669644974380E+03   -0.32375E-04    0.16416E-06  8424   0.108E-04 0.538E-05
CGA:  88    -0.669645041781E+03   -0.67401E-04    0.16750E-06  8424   0.105E-04 0.160E-04
CGA:  89    -0.669645076544E+03   -0.34763E-04    0.14131E-06  8424   0.105E-04 0.525E-05
CGA:  90    -0.669645143011E+03   -0.66467E-04    0.15959E-06  8424   0.102E-04 0.156E-04
CGA:  91    -0.669645174608E+03   -0.31598E-04    0.14729E-06  8424   0.102E-04 0.511E-05
CGA:  92    -0.669645208791E+03   -0.34182E-04    0.13335E-06  8424   0.101E-04 0.500E-05
CGA:  93    -0.669645274163E+03   -0.65372E-04    0.14967E-06  8424   0.986E-05 0.150E-04
CGA:  94    -0.669645305211E+03   -0.31048E-04    0.13942E-06  8424   0.978E-05 0.488E-05
CGA:  95    -0.669645369646E+03   -0.64436E-04    0.14200E-06  8424   0.955E-05 0.145E-04
