       N       E                     dE             d eps       ncg     rms          ort
DAV:   1     0.826184739143E+04    0.82618E+04   -0.24653E+05  8424   0.238E+03
DAV:   2     0.917451802694E+03   -0.73444E+04   -0.68939E+04  8424   0.656E+02
DAV:   3    -0.673675411135E+03   -0.15911E+04   -0.13990E+04  8424   0.282E+02
DAV:   4    -0.830109053963E+03   -0.15643E+03   -0.15369E+03  8424   0.858E+01
DAV:   5    -0.832613125127E+03   -0.25041E+01   -0.24934E+01  8424   0.122E+01
SDA:   6    -0.260192962757E+03    0.57242E+03   -0.24934E+01  8424   0.396E+04 0.000E+00
CGA:   7    -0.600654943607E+03   -0.34046E+03   -0.41292E+03  8424   0.549E+03 0.132E+03
CGA:   8    -0.635991975694E+03   -0.35337E+02   -0.32205E+02  8424   0.162E+03 0.185E+03
CGA:   9    -0.647763354388E+03   -0.11771E+02   -0.21521E+02  8424   0.190E+03 0.506E+00
CGA:  10    -0.647053449759E+03    0.70990E+00   -0.11208E+02  8424   0.493E+03-0.115E+03
CGA:  11    -0.653456325531E+03   -0.64029E+01   -0.35794E+02  8424   0.123E+03-0.235E+02
CGA:  12    -0.657145893751E+03   -0.36896E+01   -0.75898E+01  8424   0.207E+03-0.791E+02
CGA:  13    -0.660726091335E+03   -0.35802E+01   -0.14523E+02  8424   0.753E+02-0.399E+02
CGA:  14    -0.662059412357E+03   -0.13333E+01   -0.33635E+01  8424   0.162E+03-0.273E+02
CGA:  15    -0.660856722721E+03    0.12027E+01   -0.57331E+01  8424   0.123E+03-0.317E+02
CGA:  16    -0.665456114239E+03   -0.45994E+01   -0.56401E+01  8424   0.245E+02 0.945E+01
CGA:  17    -0.665988179189E+03   -0.53206E+00   -0.69119E+00  8424   0.417E+02-0.997E+01
CGA:  18    -0.666297299640E+03   -0.30912E+00   -0.25291E+00  8424   0.439E+02-0.195E+01
CGA:  19    -0.663161906176E+03    0.31354E+01   -0.75955E+00  8424   0.155E+03-0.175E+03
CGA:  20    -0.665430698632E+03   -0.22688E+01   -0.74310E+01  8424   0.944E+02-0.578E+02
CGA:  21    -0.666707140237E+03   -0.12764E+01   -0.30088E+01  8424   0.238E+02 0.912E+00
CGA:  22    -0.667755204151E+03   -0.10481E+01   -0.72468E+00  8424   0.159E+02 0.131E+01
CGA:  23    -0.667376307817E+03    0.37890E+00   -0.41050E+00  8424   0.353E+02-0.315E+02
CGA:  24    -0.667615118771E+03   -0.23881E+00   -0.16382E+01  8424   0.154E+02-0.146E+02
CGA:  25    -0.668247805001E+03   -0.63269E+00   -0.43366E+00  8424   0.164E+01 0.258E+01
CGA:  26    -0.668304782574E+03   -0.56978E-01   -0.62429E-01  8424   0.848E+00-0.143E+00
CGA:  27    -0.668466221885E+03   -0.16144E+00   -0.15112E+00  8424   0.113E+01 0.867E-01
CGA:  28    -0.668558184431E+03   -0.91963E-01   -0.10093E+00  8424   0.546E+00 0.764E-01
CGA:  29    -0.668617597216E+03   -0.59413E-01   -0.59404E-01  8424   0.357E+00-0.223E-02
CGA:  30    -0.668691356524E+03   -0.73759E-01   -0.64912E-01  8424   0.161E+00 0.879E-01
CGA:  31    -0.668734274187E+03   -0.42918E-01   -0.70121E-01  8424   0.699E+00-0.118E+00
CGA:  32    -0.668793880783E+03   -0.59607E-01   -0.62305E-01  8424   0.103E+00-0.416E-02
CGA:  33    -0.668820745314E+03   -0.26865E-01   -0.33388E-01  8424   0.297E+00-0.310E-01
CGA:  34    -0.668856053437E+03   -0.35308E-01   -0.93550E-01  8424   0.138E+01-0.204E+00
CGA:  35    -0.669003456086E+03   -0.14740E+00   -0.14797E+00  8424   0.124E+00-0.344E-01
CGA:  36    -0.669044769531E+03   -0.41313E-01   -0.55799E-01  8424   0.204E+00-0.462E-01
CGA:  37    -0.669078457546E+03   -0.33688E-01   -0.52229E-01  8424   0.264E+00-0.717E-01
CGA:  38    -0.669098092373E+03   -0.19635E-01   -0.90612E-01  8424   0.424E+00-0.204E+00
CGA:  39    -0.669180346465E+03   -0.82254E-01   -0.82252E-01  8424   0.143E+00-0.199E-02
CGA:  40    -0.669219028301E+03   -0.38682E-01   -0.38694E-01  8424   0.580E-01-0.104E-03
CGA:  41    -0.669235325243E+03   -0.16297E-01   -0.16654E-01  8424   0.102E-01-0.392E-02
CGA:  42    -0.669239141922E+03   -0.38167E-02   -0.43943E-02  8424   0.893E-02-0.223E-02
CGA:  43    -0.669226950592E+03    0.12191E-01   -0.69667E-02  8424   0.136E+00-0.192E-01
CGA:  44    -0.669245411130E+03   -0.18461E-01   -0.18829E-01  8424   0.146E-01 0.326E-02
CGA:  45    -0.669251226374E+03   -0.58152E-02   -0.58397E-02  8424   0.690E-02-0.145E-02
CGA:  46    -0.669253391425E+03   -0.21651E-02   -0.21076E-02  8424   0.397E-02-0.158E-02
CGA:  47    -0.669254600597E+03   -0.12092E-02   -0.21424E-02  8424   0.112E-01-0.287E-02
CGA:  48    -0.669256825208E+03   -0.22246E-02   -0.20932E-02  8424   0.210E-02-0.661E-03
CGA:  49    -0.669257723436E+03   -0.89823E-03   -0.96060E-03  8424   0.250E-02-0.589E-03
CGA:  50    -0.669259141642E+03   -0.14182E-02    0.13837E-01  8424   0.137E-02 0.502E-03
CGA:  51    -0.669260478304E+03   -0.13367E-02    0.54001E-02  8424   0.144E-02 0.332E-03
CGA:  52    -0.669262258307E+03   -0.17800E-02    0.11795E-02  8424   0.144E-02 0.893E-03
CGA:  53    -0.669262909764E+03   -0.65146E-03   -0.83422E-03  8424   0.258E-02-0.943E-03
CGA:  54    -0.669263517005E+03   -0.60724E-03   -0.58651E-03  8424   0.795E-03-0.126E-03
CGA:  55    -0.669264120546E+03   -0.60354E-03    0.44853E-02  8424   0.707E-03 0.927E-04
CGA:  56    -0.669265129836E+03   -0.10093E-02    0.23307E-03  8424   0.606E-03 0.717E-03
CGA:  57    -0.669264974527E+03    0.15531E-03   -0.73679E-03  8424   0.874E-02-0.109E-02
CGA:  58    -0.669266629890E+03   -0.16554E-02   -0.15105E-02  8424   0.913E-03-0.578E-03
CGA:  59    -0.669267019717E+03   -0.38983E-03   -0.65037E-03  8424   0.295E-02-0.757E-03
CGA:  60    -0.669267836229E+03   -0.81651E-03   -0.72788E-03  8424   0.108E-02-0.481E-03
CGA:  61    -0.669268258596E+03   -0.42237E-03   -0.56567E-03  8424   0.276E-02-0.722E-03
CGA:  62    -0.669269021481E+03   -0.76289E-03   -0.67374E-03  8424   0.106E-02-0.476E-03
CGA:  63    -0.669269412372E+03   -0.39089E-03   -0.58496E-03  8424   0.333E-02-0.807E-03
CGA:  64    -0.669270246714E+03   -0.83434E-03   -0.74221E-03  8424   0.102E-02-0.436E-03
CGA:  65    -0.669270660206E+03   -0.41349E-03   -0.48680E-03  8424   0.219E-02-0.609E-03
CGA:  66    -0.669271276549E+03   -0.61634E-03   -0.53591E-03  8424   0.104E-02-0.433E-03
CGA:  67    -0.669271451774E+03   -0.17523E-03   -0.73410E-03  8424   0.676E-02-0.124E-02
CGA:  68    -0.669272789764E+03   -0.13380E-02   -0.12391E-02  8424   0.130E-02-0.387E-03
CGA:  69    -0.669273239985E+03   -0.45022E-03   -0.41845E-03  8424   0.859E-03-0.350E-03
CGA:  70    -0.669274082077E+03   -0.84209E-03    0.23603E-03  8424   0.687E-03 0.469E-03
CGA:  71    -0.669271958757E+03    0.21233E-02   -0.13497E-02  8424   0.205E-01-0.228E-02
CGA:  72    -0.669275940932E+03   -0.39822E-02   -0.39449E-02  8424   0.319E-02-0.131E-03
CGA:  73    -0.669276830848E+03   -0.88992E-03   -0.82884E-03  8424   0.555E-03-0.271E-03
CGA:  74    -0.669277457000E+03   -0.62615E-03    0.41398E-03  8424   0.902E-03 0.138E-03
CGA:  75    -0.669279029743E+03   -0.15727E-02    0.58034E-03  8424   0.575E-03 0.744E-03
CGA:  76    -0.669279603173E+03   -0.57343E-03    0.30315E-02  8424   0.641E-03 0.838E-04
CGA:  77    -0.669280638691E+03   -0.10355E-02    0.36654E-03  8424   0.890E-03 0.403E-03
CGA:  78    -0.669281066939E+03   -0.42825E-03   -0.60250E-03  8424   0.380E-02-0.879E-03
CGA:  79    -0.669281703370E+03   -0.63643E-03   -0.62067E-03  8424   0.591E-03-0.447E-04
CGA:  80    -0.669282337165E+03   -0.63380E-03    0.89936E-03  8424   0.604E-03 0.122E-03
CGA:  81    -0.669283508197E+03   -0.11710E-02    0.24323E-03  8424   0.734E-03 0.570E-03
CGA:  82    -0.669283793322E+03   -0.28512E-03   -0.62104E-03  8424   0.488E-02-0.903E-03
CGA:  83    -0.669284758205E+03   -0.96488E-03   -0.87704E-03  8424   0.675E-03-0.288E-03
CGA:  84    -0.669285401367E+03   -0.64316E-03    0.22160E-02  8424   0.558E-03 0.110E-03
CGA:  85    -0.669286519728E+03   -0.11184E-02    0.18889E-03  8424   0.492E-03 0.608E-03
CGA:  86    -0.669287122345E+03   -0.60262E-03    0.39915E-03  8424   0.538E-03 0.181E-03
CGA:  87    -0.669288246314E+03   -0.11240E-02    0.28579E-03  8424   0.802E-03 0.442E-03
CGA:  88    -0.669288585015E+03   -0.33870E-03   -0.57459E-03  8424   0.524E-02-0.981E-03
CGA:  89    -0.669289382567E+03   -0.79755E-03   -0.76352E-03  8424   0.532E-03-0.913E-04
CGA:  90    -0.669290050149E+03   -0.66758E-03    0.33961E-03  8424   0.434E-03 0.227E-03
CGA:  91    -0.669291163656E+03   -0.11135E-02    0.15833E-03  8424   0.499E-03 0.578E-03
CGA:  92    -0.669291738763E+03   -0.57511E-03    0.51252E-03  8424   0.662E-03 0.144E-03
CGA:  93    -0.669293090665E+03   -0.13519E-02    0.29130E-03  8424   0.797E-03 0.508E-03
CGA:  94    -0.669293314848E+03   -0.22418E-03   -0.73713E-03  8424   0.655E-02-0.113E-02
CGA:  95    -0.669294504988E+03   -0.11901E-02   -0.10728E-02  8424   0.983E-03-0.369E-03
CGA:  96    -0.669294473868E+03    0.31120E-04   -0.10402E-02  8424   0.847E-02-0.167E-02
CGA:  97    -0.669296303010E+03   -0.18291E-02   -0.17092E-02  8424   0.208E-02-0.405E-03
CGA:  98    -0.669296992353E+03   -0.68934E-03   -0.60422E-03  8424   0.775E-03-0.458E-03
CGA:  99    -0.669297997032E+03   -0.10047E-02    0.20272E-03  8424   0.569E-03 0.425E-03
CGA: 100    -0.669298613785E+03   -0.61675E-03    0.11240E-02  8424   0.858E-03 0.708E-04
CGA: 101    -0.669300126260E+03   -0.15125E-02    0.37448E-03  8424   0.126E-02 0.308E-03
CGA: 102    -0.669303399427E+03   -0.32732E-02    0.42543E-03  8424   0.777E-03 0.158E-02
CGA: 103    -0.669303159696E+03    0.23973E-03   -0.92615E-03  8424   0.122E-01-0.166E-02
CGA: 104    -0.669305204683E+03   -0.20450E-02   -0.18882E-02  8424   0.120E-02-0.453E-03
CGA: 105    -0.669305787015E+03   -0.58233E-03   -0.82787E-03  8424   0.395E-02-0.113E-02
CGA: 106    -0.669306656816E+03   -0.86980E-03   -0.74799E-03  8424   0.115E-02-0.386E-03
CGA: 107    -0.669306433458E+03    0.22336E-03   -0.11761E-02  8424   0.116E-01-0.220E-02
CGA: 108    -0.669308686691E+03   -0.22532E-02   -0.20975E-02  8424   0.265E-02-0.478E-03
CGA: 109    -0.669309592196E+03   -0.90551E-03   -0.80247E-03  8424   0.753E-03-0.534E-03
CGA: 110    -0.669310593244E+03   -0.10010E-02    0.22698E-03  8424   0.761E-03 0.242E-03
CGA: 111    -0.669312261044E+03   -0.16678E-02    0.38312E-03  8424   0.964E-03 0.407E-03
CGA: 112    -0.669312731630E+03   -0.47059E-03   -0.39651E-03  8424   0.285E-02-0.837E-03
CGA: 113    -0.669313184128E+03   -0.45250E-03   -0.40534E-03  8424   0.403E-03-0.128E-03
CGA: 114    -0.669313999354E+03   -0.81523E-03    0.75666E-04  8424   0.341E-03 0.317E-03
CGA: 115    -0.669314693713E+03   -0.69436E-03    0.72322E-04  8424   0.377E-03 0.254E-03
CGA: 116    -0.669315382259E+03   -0.68855E-03    0.99477E-04  8424   0.645E-03 0.154E-03
CGA: 117    -0.669317302802E+03   -0.19205E-02    0.17932E-03  8424   0.496E-03 0.727E-03
CGA: 118    -0.669318014795E+03   -0.71199E-03    0.23667E-03  8424   0.701E-03 0.527E-04
CGA: 119    -0.669319637676E+03   -0.16229E-02    0.15611E-03  8424   0.102E-02 0.454E-03
CGA: 120    -0.669319972145E+03   -0.33447E-03   -0.75962E-03  8424   0.657E-02-0.159E-02
CGA: 121    -0.669321059211E+03   -0.10871E-02   -0.10351E-02  8424   0.873E-03-0.148E-03
CGA: 122    -0.669306542125E+03    0.14517E-01   -0.78622E-02  8424   0.961E-01-0.673E-02
CGA: 123    -0.669323910527E+03   -0.17368E-01   -0.17283E-01  8424   0.148E-01 0.102E-02
CGA: 124    -0.669327170332E+03   -0.32598E-02   -0.30382E-02  8424   0.606E-03-0.391E-03
CGA: 125    -0.669285245842E+03    0.41924E-01   -0.19913E-01  8424   0.268E+00-0.511E-02
CGA: 126    -0.669265214900E+03    0.20031E-01   -0.60639E-01  8424   0.300E+00 0.139E-01
CGA: 127    -0.668981323436E+03    0.28389E+00   -0.64372E-01  8424   0.153E+01-0.213E+00
CGA: 128    -0.668646492634E+03    0.33483E+00   -0.69995E+00  8424   0.362E+01-0.229E-02
CGA: 129    -0.667348050185E+03    0.12984E+01   -0.17504E+01  8424   0.643E+01 0.205E+00
CGA: 130    -0.665170619032E+03    0.21774E+01   -0.31395E+01  8424   0.722E+01-0.470E+00
CGA: 131    -0.665666209801E+03   -0.49559E+00   -0.19424E+01  8424   0.898E+01 0.756E+00
CGA: 132    -0.663620554866E+03    0.20457E+01   -0.42835E+01  8424   0.171E+02-0.149E+01
CGA: 133    -0.663169705897E+03    0.45085E+00   -0.20156E+01  8424   0.740E+01 0.114E+01
CGA: 134    -0.663506496520E+03   -0.33679E+00   -0.17415E+01  8424   0.201E+02 0.695E+01
CGA: 135    -0.665765095306E+03   -0.22586E+01   -0.61857E+01  8424   0.113E+02-0.451E+01
CGA: 136    -0.666117864688E+03   -0.35277E+00   -0.86771E+00  8424   0.412E+01 0.406E+01
CGA: 137    -0.665729237483E+03    0.38863E+00   -0.91430E+00  8424   0.777E+01-0.105E+01
CGA: 138    -0.662460339360E+03    0.32689E+01   -0.57602E+00  8424   0.255E+02-0.419E+01
CGA: 139    -0.664738617610E+03   -0.22783E+01   -0.38164E+01  8424   0.946E+01-0.394E+01
CGA: 140    -0.666952962578E+03   -0.22143E+01   -0.37820E+01  8424   0.397E+01 0.587E+00
CGA: 141    -0.667131174056E+03   -0.17821E+00   -0.92515E+00  8424   0.249E+01-0.119E+00
CGA: 142    -0.668274297248E+03   -0.11431E+01   -0.12914E+01  8424   0.149E+01 0.201E+00
CGA: 143    -0.667849137081E+03    0.42516E+00   -0.32747E+00  8424   0.133E+01 0.343E-01
CGA: 144    -0.668196894696E+03   -0.34776E+00   -0.58154E+00  8424   0.155E+01 0.664E+00
CGA: 145    -0.667831729947E+03    0.36516E+00   -0.62581E+00  8424   0.949E+00-0.935E+00
CGA: 146    -0.667995732530E+03   -0.16400E+00   -0.22263E+00  8424   0.120E+01-0.447E-02
CGA: 147    -0.668671451592E+03   -0.67572E+00   -0.68776E+00  8424   0.155E+01 0.513E-01
CGA: 148    -0.668227265452E+03    0.44419E+00   -0.26481E+00  8424   0.133E+01-0.910E+00
CGA: 149    -0.668685707672E+03   -0.45844E+00   -0.52766E+00  8424   0.200E+01 0.158E+00
CGA: 150    -0.667992414498E+03    0.69329E+00   -0.59257E+00  8424   0.723E+00 0.417E+00
CGA: 151    -0.666716897153E+03    0.12755E+01   -0.16116E+01  8424   0.126E+02-0.153E+01
CGA: 152    -0.668569230933E+03   -0.18523E+01   -0.20347E+01  8424   0.248E+01 0.472E-01
CGA: 153    -0.669011717237E+03   -0.44249E+00   -0.51242E+00  8424   0.525E+00 0.177E+00
CGA: 154    -0.669181373142E+03   -0.16966E+00   -0.18178E+00  8424   0.243E+00 0.147E-01
CGA: 155    -0.669238966374E+03   -0.57593E-01   -0.60893E-01  8424   0.119E+00 0.110E-02
CGA: 156    -0.669279213198E+03   -0.40247E-01   -0.40772E-01  8424   0.657E-01 0.190E-03
CGA: 157    -0.669297029833E+03   -0.17817E-01   -0.18286E-01  8424   0.354E-01 0.110E-02
CGA: 158    -0.669306520092E+03   -0.94903E-02   -0.10203E-01  8424   0.229E-01 0.164E-02
CGA: 159    -0.669313616095E+03   -0.70960E-02   -0.78719E-02  8424   0.192E-01 0.627E-02
CGA: 160    -0.669318656585E+03   -0.50405E-02   -0.62121E-02  8424   0.192E-01 0.761E-02
CGA: 161    -0.669312673808E+03    0.59828E-02   -0.38747E-02  8424   0.351E-01 0.229E-01
CGA: 162    -0.669321473177E+03   -0.87994E-02   -0.10888E-01  8424   0.220E-01 0.130E-01
CGA: 163    -0.669333583716E+03   -0.12111E-01   -0.12675E-01  8424   0.130E-01 0.154E-02
CGA: 164    -0.669337741745E+03   -0.41580E-02   -0.43777E-02  8424   0.944E-02-0.196E-03
CGA: 165    -0.669342378453E+03   -0.46367E-02   -0.46564E-02  8424   0.101E-01-0.755E-03
CGA: 166    -0.669345713911E+03   -0.33355E-02   -0.33202E-02  8424   0.101E-01 0.497E-03
CGA: 167    -0.669352263511E+03   -0.65496E-02   -0.66658E-02  8424   0.151E-01 0.146E-03
CGA: 168    -0.669358718640E+03   -0.64551E-02   -0.66341E-02  8424   0.183E-01 0.274E-02
CGA: 169    -0.669367839688E+03   -0.91210E-02   -0.93396E-02  8424   0.199E-01 0.107E-02
CGA: 170    -0.669375425334E+03   -0.75856E-02   -0.75074E-02  8424   0.188E-01-0.485E-02
CGA: 171    -0.669380229553E+03   -0.48042E-02   -0.38362E-02  8424   0.158E-01-0.801E-02
CGA: 172    -0.669384505175E+03   -0.42756E-02   -0.28921E-02  8424   0.191E-01-0.118E-01
CGA: 173    -0.669395321432E+03   -0.10816E-01   -0.10929E-01  8424   0.457E-01-0.103E-02
CGA: 174    -0.669407478536E+03   -0.12157E-01   -0.11821E-01  8424   0.173E-01-0.641E-03
CGA: 175    -0.669411885495E+03   -0.44070E-02   -0.43187E-02  8424   0.104E-01 0.475E-04
CGA: 176    -0.669413767858E+03   -0.18824E-02   -0.18057E-02  8424   0.253E-02-0.472E-04
CGA: 177    -0.669414745374E+03   -0.97752E-03   -0.95019E-03  8424   0.360E-02-0.442E-03
CGA: 178    -0.669415451981E+03   -0.70661E-03   -0.60275E-03  8424   0.171E-02-0.324E-03
CGA: 179    -0.669415859577E+03   -0.40760E-03   -0.34524E-03  8424   0.151E-02-0.277E-03
CGA: 180    -0.669416268886E+03   -0.40931E-03   -0.32914E-03  8424   0.924E-03-0.505E-03
CGA: 181    -0.669416497640E+03   -0.22875E-03   -0.14455E-03  8424   0.758E-03-0.502E-03
CGA: 182    -0.669416749470E+03   -0.25183E-03   -0.23314E-03  8424   0.759E-03-0.217E-03
CGA: 183    -0.669417178191E+03   -0.42872E-03    0.59423E-02  8424   0.392E-03-0.102E-03
CGA: 184    -0.669417537445E+03   -0.35925E-03    0.18337E-03  8424   0.355E-03-0.845E-04
CGA: 185    -0.669417844046E+03   -0.30660E-03    0.12987E-03  8424   0.446E-03-0.316E-03
CGA: 186    -0.669418004272E+03   -0.16023E-03   -0.13752E-03  8424   0.484E-03-0.282E-03
CGA: 187    -0.669418112663E+03   -0.10839E-03   -0.84010E-04  8424   0.996E-04-0.115E-03
CGA: 188    -0.669418285507E+03   -0.17284E-03    0.69374E-05  8424   0.456E-04 0.210E-04
CGA: 189    -0.669418496993E+03   -0.21149E-03    0.25067E-05  8424   0.356E-04 0.273E-04
CGA: 190    -0.669418610959E+03   -0.11397E-03    0.20323E-05  8424   0.902E-04-0.969E-05
CGA: 191    -0.669419052800E+03   -0.44184E-03    0.15358E-05  8424   0.158E-03 0.534E-04
CGA: 192    -0.669418513864E+03    0.53894E-03   -0.16481E-03  8424   0.871E-02-0.106E-02
CGA: 193    -0.669419464813E+03   -0.95095E-03   -0.97534E-03  8424   0.807E-04 0.985E-04
CGA: 194    -0.669419578048E+03   -0.11323E-03    0.20934E-04  8424   0.124E-03-0.604E-04
CGA: 195    -0.669419726150E+03   -0.14810E-03    0.46520E-04  8424   0.199E-03-0.113E-03
CGA: 196    -0.669419793786E+03   -0.67636E-04   -0.54782E-04  8424   0.135E-03-0.109E-03
CGA: 197    -0.669419944121E+03   -0.15034E-03    0.58977E-04  8424   0.436E-03-0.192E-03
CGA: 198    -0.669420001902E+03   -0.57781E-04   -0.58128E-04  8424   0.240E-04 0.137E-05
CGA: 199    -0.669420131885E+03   -0.12998E-03    0.72377E-06  8424   0.277E-04 0.166E-04
CGA: 200    -0.669420262427E+03   -0.13054E-03    0.98060E-06  8424   0.411E-04 0.788E-05
   1 F= -.66942026E+03 E0= -.66942026E+03  d E =-.669420E+03  mag=     2.0000
       N       E                     dE             d eps       ncg     rms          ort
SDA:   1    -0.669423950776E+03   -0.38189E-02    0.00000E+00  8424   0.305E-02 0.000E+00
CGA:   2    -0.669424628360E+03   -0.67758E-03   -0.64501E-03  8424   0.139E-02-0.201E-03
CGA:   3    -0.669424982609E+03   -0.35425E-03   -0.32051E-03  8424   0.711E-03-0.286E-03
CGA:   4    -0.669425150524E+03   -0.16792E-03   -0.12731E-03  8424   0.438E-03-0.303E-03
CGA:   5    -0.669418617544E+03    0.65330E-02   -0.35937E-02  8424   0.575E-01-0.370E-02
CGA:   6    -0.669425206426E+03   -0.65889E-02   -0.65681E-02  8424   0.547E-02-0.240E-04
CGA:   7    -0.669426484527E+03   -0.12781E-02   -0.12320E-02  8424   0.115E-02-0.118E-03
CGA:   8    -0.669426884836E+03   -0.40031E-03   -0.34618E-03  8424   0.577E-03-0.186E-03
CGA:   9    -0.669427141441E+03   -0.25660E-03   -0.20647E-03  8424   0.600E-03-0.320E-03
CGA:  10    -0.669427286302E+03   -0.14486E-03   -0.10852E-03  8424   0.121E-03-0.923E-04
CGA:  11    -0.669427497800E+03   -0.21150E-03    0.33415E-04  8424   0.170E-03-0.532E-04
CGA:  12    -0.669427919842E+03   -0.42204E-03    0.88857E-05  8424   0.261E-03-0.658E-04
CGA:  13    -0.669428790481E+03   -0.87064E-03    0.11434E-04  8424   0.526E-03-0.602E-04
CGA:  14    -0.669430848167E+03   -0.20577E-02    0.31474E-04  8424   0.442E-03 0.116E-03
CGA:  15    -0.669432881707E+03   -0.20335E-02    0.62677E-04  8424   0.725E-03-0.969E-04
CGA:  16    -0.669435967885E+03   -0.30862E-02    0.40333E-04  8424   0.227E-02-0.430E-03
CGA:  17    -0.669436489570E+03   -0.52168E-03   -0.41585E-03  8424   0.756E-03-0.286E-03
CGA:  18    -0.669436668680E+03   -0.17911E-03   -0.16472E-03  8424   0.122E-03-0.502E-04
CGA:  19    -0.669436853467E+03   -0.18479E-03    0.53377E-04  8424   0.190E-03-0.490E-04
CGA:  20    -0.669437184084E+03   -0.33062E-03    0.16675E-04  8424   0.488E-03-0.140E-03
CGA:  21    -0.669437352554E+03   -0.16847E-03   -0.12401E-03  8424   0.339E-03-0.165E-03
CGA:  22    -0.669437400226E+03   -0.47672E-04   -0.17116E-03  8424   0.156E-02-0.488E-03
CGA:  23    -0.669437783111E+03   -0.38289E-03   -0.29841E-03  8424   0.494E-03-0.257E-03
CGA:  24    -0.669437889612E+03   -0.10650E-03   -0.95183E-04  8424   0.746E-04-0.414E-04
CGA:  25    -0.669438089052E+03   -0.19944E-03    0.85438E-05  8424   0.756E-04 0.108E-04
CGA:  26    -0.669438365103E+03   -0.27605E-03    0.95039E-05  8424   0.173E-03-0.120E-04
CGA:  27    -0.669439210938E+03   -0.84583E-03    0.72601E-05  8424   0.232E-03 0.104E-03
CGA:  28    -0.669438061745E+03    0.11492E-02   -0.38681E-03  8424   0.126E-01-0.131E-02
CGA:  29    -0.669439636060E+03   -0.15743E-02   -0.17137E-02  8424   0.587E-03 0.359E-03
CGA:  30    -0.669439921142E+03   -0.28508E-03   -0.26514E-03  8424   0.302E-03-0.219E-03
CGA:  31    -0.669439926999E+03   -0.58568E-05   -0.14428E-03  8424   0.289E-02-0.586E-03
CGA:  32    -0.669440347044E+03   -0.42005E-03   -0.39339E-03  8424   0.176E-03-0.707E-04
CGA:  33    -0.669440433853E+03   -0.86809E-04   -0.12136E-03  8424   0.612E-03-0.184E-03
CGA:  34    -0.669440702255E+03   -0.26840E-03   -0.15204E-03  8424   0.572E-03-0.419E-03
CGA:  35    -0.669440728016E+03   -0.25761E-04   -0.59930E-04  8424   0.387E-04 0.843E-04
CGA:  36    -0.669440808317E+03   -0.80301E-04    0.13030E-04  8424   0.212E-03-0.234E-04
CGA:  37    -0.669440138702E+03    0.66962E-03   -0.23236E-03  8424   0.131E-01-0.150E-02
CGA:  38    -0.669441282867E+03   -0.11442E-02   -0.14123E-02  8424   0.983E-04 0.716E-03
CGA:  39    -0.669441291913E+03   -0.90453E-05   -0.14990E-04  8424   0.350E-04 0.165E-04
   2 F= -.66944129E+03 E0= -.66944129E+03  d E =-.210295E-01  mag=     2.0000
       N       E                     dE             d eps       ncg     rms          ort
SDA:   1    -0.669429640474E+03    0.11642E-01    0.00000E+00  8424   0.112E+00 0.000E+00
CGA:   2    -0.669451548462E+03   -0.21908E-01   -0.21953E-01  8424   0.436E-01 0.133E-03
CGA:   3    -0.669460837113E+03   -0.92887E-02   -0.92378E-02  8424   0.156E-01-0.205E-03
CGA:   4    -0.669463444541E+03   -0.26074E-02   -0.25717E-02  8424   0.400E-02-0.126E-03
CGA:   5    -0.669464178730E+03   -0.73419E-03   -0.70252E-03  8424   0.848E-03-0.121E-03
CGA:   6    -0.669464417129E+03   -0.23840E-03   -0.20147E-03  8424   0.369E-03-0.201E-03
CGA:   7    -0.669464508757E+03   -0.91629E-04   -0.15741E-03  8424   0.140E-02-0.473E-03
CGA:   8    -0.669464745334E+03   -0.23658E-03   -0.20499E-03  8424   0.206E-03-0.113E-03
CGA:   9    -0.669461537296E+03    0.32080E-02   -0.17427E-02  8424   0.220E-01-0.166E-02
CGA:  10    -0.669465070134E+03   -0.35328E-02   -0.34550E-02  8424   0.258E-02-0.986E-04
CGA:  11    -0.669465774727E+03   -0.70459E-03   -0.67734E-03  8424   0.240E-03-0.605E-04
CGA:  12    -0.669465896093E+03   -0.12137E-03   -0.20924E-03  8424   0.189E-02-0.455E-03
CGA:  13    -0.669466130234E+03   -0.23414E-03   -0.26966E-03  8424   0.235E-03 0.661E-04
CGA:  14    -0.669466300566E+03   -0.17033E-03   -0.12634E-03  8424   0.568E-03-0.274E-03
CGA:  15    -0.669466404282E+03   -0.10372E-03   -0.10007E-03  8424   0.111E-03-0.716E-05
CGA:  16    -0.669466595524E+03   -0.19124E-03    0.10243E-03  8424   0.738E-03-0.198E-03
CGA:  17    -0.669466686512E+03   -0.90988E-04   -0.10167E-03  8424   0.985E-04 0.221E-04
CGA:  18    -0.669466885826E+03   -0.19931E-03    0.54780E-04  8424   0.260E-03-0.101E-03
CGA:  19    -0.669466980355E+03   -0.94529E-04   -0.73254E-04  8424   0.138E-03-0.627E-04
CGA:  20    -0.669467230955E+03   -0.25060E-03    0.32301E-04  8424   0.737E-03-0.182E-03
CGA:  21    -0.669467314314E+03   -0.83359E-04   -0.97171E-04  8424   0.897E-04 0.307E-04
CGA:  22    -0.669467516033E+03   -0.20172E-03    0.31809E-04  8424   0.118E-03-0.465E-04
CGA:  23    -0.669467677374E+03   -0.16134E-03    0.19227E-03  8424   0.168E-03-0.769E-04
CGA:  24    -0.669466709270E+03    0.96810E-03   -0.31299E-03  8424   0.829E-02-0.100E-02
CGA:  25    -0.669468109609E+03   -0.14003E-02   -0.14760E-02  8424   0.105E-02 0.177E-03
CGA:  26    -0.669468419163E+03   -0.30955E-03   -0.23041E-03  8424   0.129E-03-0.196E-03
CGA:  27    -0.669468554411E+03   -0.13525E-03    0.44555E-03  8424   0.381E-03-0.101E-03
CGA:  28    -0.669468706502E+03   -0.15209E-03   -0.82796E-04  8424   0.204E-03-0.181E-03
CGA:  29    -0.669468929259E+03   -0.22276E-03    0.40250E-04  8424   0.242E-03-0.599E-04
CGA:  30    -0.669469490409E+03   -0.56115E-03    0.27536E-04  8424   0.163E-03 0.524E-05
CGA:  31    -0.669469962799E+03   -0.47239E-03    0.33751E-04  8424   0.302E-03-0.261E-04
CGA:  32    -0.669471106803E+03   -0.11440E-02    0.25863E-04  8424   0.704E-03-0.925E-04
CGA:  33    -0.669474201335E+03   -0.30945E-02    0.32173E-04  8424   0.479E-03 0.329E-03
CGA:  34    -0.669476315591E+03   -0.21143E-02    0.13012E-03  8424   0.237E-02-0.393E-03
CGA:  35    -0.669476766336E+03   -0.45074E-03   -0.33600E-03  8424   0.120E-03-0.268E-03
CGA:  36    -0.669476182744E+03    0.58359E-03   -0.18769E-03  8424   0.741E-02-0.635E-03
CGA:  37    -0.669477315153E+03   -0.11324E-02   -0.10163E-02  8424   0.378E-03-0.330E-03
CGA:  38    -0.669477440784E+03   -0.12563E-03   -0.10537E-03  8424   0.111E-03-0.710E-04
CGA:  39    -0.669477685638E+03   -0.24485E-03    0.19538E-04  8424   0.250E-03-0.633E-04
CGA:  40    -0.669477727753E+03   -0.42115E-04   -0.38909E-04  8424   0.504E-04-0.724E-05
CGA:  41    -0.669477935040E+03   -0.20729E-03    0.49306E-05  8424   0.499E-04 0.499E-05
CGA:  42    -0.669478308456E+03   -0.37342E-03    0.30314E-05  8424   0.593E-04 0.333E-04
CGA:  43    -0.669478445636E+03   -0.13718E-03    0.15652E-04  8424   0.131E-03-0.258E-04
CGA:  44    -0.669478925592E+03   -0.47996E-03    0.43031E-05  8424   0.253E-03-0.540E-04
CGA:  45    -0.669480095779E+03   -0.11702E-02    0.69243E-05  8424   0.687E-03-0.376E-04
CGA:  46    -0.669483679209E+03   -0.35834E-02    0.36752E-04  8424   0.808E-03 0.186E-03
CGA:  47    -0.669487999556E+03   -0.43203E-02    0.10449E-03  8424   0.206E-02-0.584E-03
CGA:  48    -0.669488546009E+03   -0.54645E-03   -0.42560E-03  8424   0.379E-03-0.346E-03
CGA:  49    -0.669488649532E+03   -0.10352E-03   -0.92604E-04  8424   0.153E-03-0.435E-04
CGA:  50    -0.669488805817E+03   -0.15629E-03    0.39416E-03  8424   0.353E-03-0.128E-03
CGA:  51    -0.669488909945E+03   -0.10413E-03   -0.71014E-04  8424   0.928E-04-0.999E-04
CGA:  52    -0.669489055693E+03   -0.14575E-03    0.15141E-04  8424   0.187E-03-0.578E-04
CGA:  53    -0.669489095941E+03   -0.40248E-04   -0.29790E-04  8424   0.312E-04-0.293E-04
CGA:  54    -0.669489231179E+03   -0.13524E-03    0.15628E-05  8424   0.442E-04-0.254E-05
CGA:  55    -0.669489518415E+03   -0.28724E-03    0.16412E-05  8424   0.355E-04 0.162E-04
CGA:  56    -0.669489866783E+03   -0.34837E-03    0.19321E-05  8424   0.218E-04 0.302E-04
CGA:  57    -0.669489966044E+03   -0.99260E-04    0.15115E-05  8424   0.110E-03-0.202E-04
CGA:  58    -0.669490014564E+03   -0.48520E-04   -0.25310E-04  8424   0.112E-03-0.874E-04
CGA:  59    -0.669490061487E+03   -0.46923E-04   -0.24366E-04  8424   0.102E-03-0.847E-04
CGA:  60    -0.669490110652E+03   -0.49165E-04   -0.25725E-04  8424   0.167E-03-0.108E-03
CGA:  61    -0.669490155770E+03   -0.45118E-04   -0.26435E-04  8424   0.448E-04-0.621E-04
CGA:  62    -0.669490278830E+03   -0.12306E-03    0.15897E-05  8424   0.326E-04 0.156E-05
CGA:  63    -0.669490455398E+03   -0.17657E-03    0.15330E-05  8424   0.678E-04-0.177E-05
CGA:  64    -0.669490936238E+03   -0.48084E-03    0.19099E-05  8424   0.106E-04 0.519E-04
CGA:  65    -0.669491030104E+03   -0.93865E-04    0.26425E-06  8424   0.161E-04 0.795E-05
CGA:  66    -0.669491105784E+03   -0.75681E-04    0.83084E-06  8424   0.725E-04-0.977E-05
CGA:  67    -0.669487324152E+03    0.37816E-02   -0.21045E-02  8424   0.437E-01-0.164E-02
CGA:  68    -0.669491735494E+03   -0.44113E-02   -0.44827E-02  8424   0.484E-04 0.837E-03
CGA:  69    -0.669491774580E+03   -0.39086E-04   -0.15560E-04  8424   0.106E-03-0.515E-04
CGA:  70    -0.669491844623E+03   -0.70043E-04   -0.25476E-04  8424   0.112E-03-0.873E-04
CGA:  71    -0.669491868233E+03   -0.23610E-04   -0.15624E-04  8424   0.157E-04-0.136E-04
CGA:  72    -0.669492029641E+03   -0.16141E-03    0.64648E-06  8424   0.457E-04 0.237E-05
CGA:  73    -0.669492613372E+03   -0.58373E-03    0.26290E-05  8424   0.659E-04 0.233E-04
CGA:  74    -0.669492678812E+03   -0.65440E-04   -0.24120E-04  8424   0.333E-03-0.125E-03
CGA:  75    -0.669492717331E+03   -0.38519E-04   -0.36779E-04  8424   0.104E-04-0.276E-05
CGA:  76    -0.669492848134E+03   -0.13080E-03    0.38335E-06  8424   0.210E-04 0.565E-05
CGA:  77    -0.669492934800E+03   -0.86666E-04    0.31526E-05  8424   0.168E-03-0.361E-04
CGA:  78    -0.669493016215E+03   -0.81415E-04   -0.40127E-04  8424   0.895E-04-0.101E-03
CGA:  79    -0.669493042049E+03   -0.25833E-04   -0.16319E-04  8424   0.230E-04-0.212E-04
CGA:  80    -0.669493192385E+03   -0.15034E-03    0.88687E-06  8424   0.687E-04-0.516E-05
CGA:  81    -0.669493739537E+03   -0.54715E-03    0.21840E-05  8424   0.279E-04 0.337E-04
CGA:  82    -0.669494022872E+03   -0.28333E-03    0.27464E-05  8424   0.180E-03-0.257E-04
CGA:  83    -0.669494117849E+03   -0.94977E-04   -0.45865E-04  8424   0.146E-03-0.140E-03
CGA:  84    -0.669494137468E+03   -0.19619E-04   -0.20044E-04  8424   0.981E-05 0.409E-06
CGA:  85    -0.669494243298E+03   -0.10583E-03    0.32950E-06  8424   0.205E-04 0.565E-05
CGA:  86    -0.669494334886E+03   -0.91588E-04    0.19848E-05  8424   0.135E-03-0.233E-04
CGA:  87    -0.669494378927E+03   -0.44040E-04   -0.30311E-04  8424   0.633E-04-0.590E-04
CGA:  88    -0.669494502193E+03   -0.12327E-03    0.45973E-05  8424   0.122E-03-0.297E-04
CGA:  89    -0.669494903076E+03   -0.40088E-03    0.38954E-05  8424   0.912E-04-0.282E-05
CGA:  90    -0.669495199734E+03   -0.29666E-03    0.12116E-04  8424   0.220E-03-0.562E-04
CGA:  91    -0.669495334464E+03   -0.13473E-03   -0.73046E-04  8424   0.422E-03-0.282E-03
CGA:  92    -0.669495355532E+03   -0.21068E-04   -0.48819E-04  8424   0.191E-04 0.657E-04
CGA:  93    -0.669495387243E+03   -0.31711E-04    0.14791E-04  8424   0.127E-03-0.371E-04
CGA:  94    -0.669020374811E+03    0.47501E+00    0.60056E-01  8424   0.769E-01-0.319E-02
CGA:  95    -0.649374610988E+03    0.19646E+02   -0.10516E+02  8424   0.150E+03-0.355E+01
CGA:  96    -0.654156528565E+03   -0.47819E+01   -0.12223E+02  8424   0.603E+02 0.770E+02
CGA:  97    -0.649751713805E+03    0.44048E+01   -0.85018E+01  8424   0.510E+02 0.301E+02
CGA:  98    -0.597588442096E+03    0.52163E+02   -0.15746E+02  8424   0.161E+03 0.476E+02
CGA:  99    -0.582871576308E+03    0.14717E+02   -0.61669E+02  8424   0.212E+03 0.351E+02
CGA: 100    -0.472849565627E+03    0.11002E+03   -0.83819E+02  8424   0.503E+03 0.109E+03
CGA: 101    -0.489050662234E+03   -0.16201E+02   -0.23704E+03  8424   0.558E+03-0.417E+02
CGA: 102    -0.236171245241E+03    0.25288E+03   -0.94910E+02  8424   0.211E+04-0.845E+02
CGA: 103     0.902044521824E+03    0.11382E+04   -0.61152E+03  8424   0.582E+04-0.815E+03
CGA: 104     0.254938870292E+04    0.16473E+04   -0.12499E+04  8424   0.121E+05-0.197E+04
CGA: 105     0.599472559834E+04    0.34453E+04   -0.34851E+04  8424   0.239E+05-0.118E+04
CGA: 106     0.995108743802E+04    0.39564E+04   -0.11182E+05  8424   0.239E+05 0.118E+04
CGA: 107     0.136849662669E+05    0.37339E+04   -0.12985E+05  8424   0.423E+05 0.273E+04
CGA: 108     0.237479578429E+05    0.10063E+05   -0.24323E+05  8424   0.120E+06 0.214E+04
CGA: 109     0.309581041097E+05    0.72101E+04   -0.65944E+05  8424   0.171E+06 0.711E+03
CGA: 110     0.401561353688E+05    0.91980E+04   -0.87943E+05  8424   0.224E+06 0.366E+04
CGA: 111     0.437890572455E+05    0.36329E+04   -0.11600E+06  8424   0.213E+06 0.310E+04
CGA: 112     0.470679475421E+05    0.32789E+04   -0.10731E+06  8424   0.226E+06 0.398E+04
CGA: 113     0.512954148217E+05    0.42275E+04   -0.11089E+06  8424   0.225E+06 0.195E+04
CGA: 114     0.538014152619E+05    0.25060E+04   -0.10764E+06  8424   0.243E+06 0.181E+04
CGA: 115     0.598359159370E+05    0.60345E+04   -0.11199E+06  8424   0.228E+06 0.106E+04
CGA: 116     0.594768936808E+05   -0.35902E+03   -0.10476E+06  8424   0.238E+06 0.778E+03
CGA: 117     0.667861639818E+05    0.73093E+04   -0.10412E+06  8424   0.206E+06 0.222E+04
CGA: 118     0.642742058833E+05   -0.25120E+04   -0.92241E+05  8424   0.230E+06-0.131E+03
CGA: 119     0.740541811510E+05    0.97800E+04   -0.94844E+05  8424   0.191E+06 0.273E+04
CGA: 120     0.696088593049E+05   -0.44453E+04   -0.83653E+05  8424   0.219E+06-0.296E+04
CGA: 121     0.814458227976E+05    0.11837E+05   -0.84666E+05  8424   0.175E+06 0.299E+04
CGA: 122     0.757029646064E+05   -0.57429E+04   -0.75540E+05  8424   0.197E+06-0.698E+04
CGA: 123     0.883442674882E+05    0.12641E+05   -0.70923E+05  8424   0.150E+06 0.310E+04
CGA: 124     0.822214650303E+05   -0.61228E+04   -0.65502E+05  8424   0.172E+06-0.109E+05
CGA: 125     0.932990716019E+05    0.11078E+05   -0.57453E+05  8424   0.117E+06 0.214E+04
CGA: 126     0.761529153374E+05   -0.17146E+05   -0.54027E+05  8424   0.151E+06 0.335E+05
CGA: 127     0.814556467994E+05    0.53027E+04   -0.70766E+05  8424   0.152E+06-0.936E+04
CGA: 128     0.931930657728E+05    0.11737E+05   -0.49641E+05  8424   0.101E+06 0.125E+05
CGA: 129     0.458553579423E+05   -0.47338E+05   -0.49491E+05  8424   0.812E+05 0.404E+05
CGA: 130     0.480190171243E+05    0.21637E+04   -0.38866E+05  8424   0.912E+05 0.442E+05
CGA: 131     0.163443022223E+05   -0.31675E+05   -0.39709E+05  8424   0.586E+04 0.407E+04
CGA: 132     0.103475868265E+05   -0.59967E+04   -0.68334E+04  8424   0.388E+04-0.110E+04
CGA: 133     0.915005799670E+04   -0.11975E+04   -0.28018E+04  8424   0.640E+04-0.436E+04
CGA: 134     0.668119191718E+04   -0.24689E+04   -0.21469E+04  8424   0.130E+04-0.851E+03
CGA: 135     0.620607813414E+04   -0.47511E+03   -0.10034E+04  8424   0.493E+04-0.980E+03
CGA: 136     0.503031111055E+04   -0.11758E+04   -0.97747E+03  8424   0.962E+03-0.479E+03
CGA: 137     0.462230986478E+04   -0.40800E+03   -0.25711E+03  8424   0.522E+03 0.234E+03
CGA: 138     0.291682872927E+04   -0.17055E+04   -0.14854E+04  8424   0.102E+04 0.135E+03
CGA: 139     0.223450261038E+04   -0.68233E+03   -0.67675E+03  8424   0.756E+03 0.466E+02
CGA: 140     0.179298797752E+04   -0.44151E+03   -0.74404E+03  8424   0.209E+04-0.295E+03
CGA: 141     0.124057640643E+04   -0.55241E+03   -0.41543E+03  8424   0.435E+03-0.193E+03
CGA: 142     0.949744070714E+03   -0.29083E+03   -0.17662E+03  8424   0.328E+03 0.283E+03
CGA: 143     0.791477199816E+03   -0.15827E+03   -0.10536E+03  8424   0.509E+03 0.575E+02
CGA: 144     0.421335291654E+03   -0.37014E+03   -0.37402E+03  8424   0.236E+03 0.628E+02
CGA: 145     0.307600525049E+03   -0.11373E+03   -0.11230E+03  8424   0.168E+03 0.905E+00
CGA: 146     0.182724938453E+03   -0.12488E+03   -0.17961E+03  8424   0.100E+04-0.207E+03
CGA: 147     0.614139866279E+02   -0.12131E+03   -0.32637E+03  8424   0.186E+03-0.479E+02
CGA: 148     0.177150965244E+02   -0.43699E+02   -0.26411E+02  8424   0.110E+03 0.126E+03
CGA: 149    -0.121876015899E+02   -0.29903E+02   -0.15884E+02  8424   0.795E+02 0.943E+02
CGA: 150    -0.557703028124E+02   -0.43583E+02   -0.36891E+02  8424   0.187E+03-0.104E+02
CGA: 151    -0.183677653991E+03   -0.12791E+03   -0.14630E+03  8424   0.168E+03-0.374E+02
CGA: 152    -0.257713866302E+03   -0.74036E+02   -0.75036E+02  8424   0.183E+03 0.848E+01
CGA: 153    -0.371307044545E+03   -0.11359E+03   -0.11327E+03  8424   0.141E+03-0.109E+02
CGA: 154    -0.410519125167E+03   -0.39212E+02   -0.48799E+02  8424   0.115E+03-0.372E+01
CGA: 155    -0.447991786389E+03   -0.37473E+02   -0.28100E+02  8424   0.443E+02 0.396E+01
CGA: 156    -0.476481107262E+03   -0.28489E+02   -0.28620E+02  8424   0.528E+02-0.167E+01
CGA: 157    -0.495355028212E+03   -0.18874E+02   -0.17887E+02  8424   0.497E+02 0.120E+01
CGA: 158    -0.518792767098E+03   -0.23438E+02   -0.23912E+02  8424   0.545E+02 0.806E+00
CGA: 159    -0.535541218787E+03   -0.16748E+02   -0.17379E+02  8424   0.331E+02-0.561E+00
CGA: 160    -0.552511920547E+03   -0.16971E+02   -0.16905E+02  8424   0.467E+02-0.108E+01
CGA: 161    -0.565091645321E+03   -0.12580E+02   -0.12256E+02  8424   0.237E+02 0.169E+01
CGA: 162    -0.574947129618E+03   -0.98555E+01   -0.99468E+01  8424   0.306E+02 0.840E-01
CGA: 163    -0.587433998893E+03   -0.12487E+02   -0.12530E+02  8424   0.273E+02 0.440E+00
CGA: 164    -0.595323759284E+03   -0.78898E+01   -0.83723E+01  8424   0.261E+02-0.230E-01
CGA: 165    -0.604941895394E+03   -0.96181E+01   -0.96835E+01  8424   0.242E+02 0.244E+00
CGA: 166    -0.612564768275E+03   -0.76229E+01   -0.78962E+01  8424   0.218E+02 0.444E+00
CGA: 167    -0.619312484351E+03   -0.67477E+01   -0.68175E+01  8424   0.200E+02 0.266E+00
CGA: 168    -0.625195641236E+03   -0.58832E+01   -0.60219E+01  8424   0.201E+02 0.221E+00
CGA: 169    -0.630220704501E+03   -0.50251E+01   -0.52686E+01  8424   0.177E+02 0.298E+00
CGA: 170    -0.634389113937E+03   -0.41684E+01   -0.43558E+01  8424   0.159E+02 0.287E+00
CGA: 171    -0.638061163722E+03   -0.36720E+01   -0.38631E+01  8424   0.159E+02 0.236E+00
CGA: 172    -0.641595351019E+03   -0.35342E+01   -0.37224E+01  8424   0.152E+02 0.264E+00
CGA: 173    -0.644546072658E+03   -0.29507E+01   -0.30977E+01  8424   0.134E+02 0.463E+00
CGA: 174    -0.647171224184E+03   -0.26252E+01   -0.27951E+01  8424   0.143E+02 0.334E+00
CGA: 175    -0.649718570203E+03   -0.25473E+01   -0.27673E+01  8424   0.135E+02 0.312E+00
CGA: 176    -0.651731656404E+03   -0.20131E+01   -0.22072E+01  8424   0.109E+02 0.444E+00
CGA: 177    -0.653494094012E+03   -0.17624E+01   -0.18872E+01  8424   0.111E+02 0.314E+00
CGA: 178    -0.655201697055E+03   -0.17076E+01   -0.18479E+01  8424   0.108E+02 0.256E+00
CGA: 179    -0.656552992864E+03   -0.13513E+01   -0.15000E+01  8424   0.877E+01 0.455E+00
SDA: 180    -0.657711709249E+03   -0.11587E+01   -0.12546E+01  8424   0.841E+01 0.215E+00
CGA: 181    -0.661729212456E+03   -0.40175E+01   -0.40254E+01  8424   0.902E+01-0.779E-01
CGA: 182    -0.664709992319E+03   -0.29808E+01   -0.29765E+01  8424   0.286E+01-0.244E+00
CGA: 183    -0.666526678740E+03   -0.18167E+01   -0.20104E+01  8424   0.174E+01-0.555E+00
CGA: 184    -0.666927784961E+03   -0.40111E+00   -0.39547E+00  8424   0.779E+00-0.221E-01
CGA: 185    -0.667207331254E+03   -0.27955E+00   -0.27956E+00  8424   0.471E+00-0.190E-01
CGA: 186    -0.667436925730E+03   -0.22959E+00   -0.23739E+00  8424   0.474E+00-0.441E-01
CGA: 187    -0.667585582241E+03   -0.14866E+00   -0.14721E+00  8424   0.411E+00-0.163E-01
CGA: 188    -0.667703749303E+03   -0.11817E+00   -0.11825E+00  8424   0.295E+00 0.494E-02
CGA: 189    -0.667786290823E+03   -0.82542E-01   -0.80618E-01  8424   0.263E+00-0.346E-02
CGA: 190    -0.667876226422E+03   -0.89936E-01   -0.89046E-01  8424   0.306E+00-0.197E-01
CGA: 191    -0.667923179201E+03   -0.46953E-01   -0.46672E-01  8424   0.253E+00 0.124E-01
CGA: 192    -0.667971741355E+03   -0.48562E-01   -0.47592E-01  8424   0.262E+00 0.128E-01
CGA: 193    -0.668016786549E+03   -0.45045E-01   -0.43690E-01  8424   0.240E+00 0.130E-01
CGA: 194    -0.668052118508E+03   -0.35332E-01   -0.34593E-01  8424   0.210E+00 0.810E-02
CGA: 195    -0.668081612944E+03   -0.29494E-01   -0.27697E-01  8424   0.196E+00 0.135E-01
CGA: 196    -0.668107115433E+03   -0.25502E-01   -0.24710E-01  8424   0.208E+00 0.156E-01
CGA: 197    -0.668131366154E+03   -0.24251E-01   -0.22395E-01  8424   0.203E+00 0.116E-01
CGA: 198    -0.668146799546E+03   -0.15433E-01   -0.18155E-01  8424   0.178E+00-0.145E-03
CGA: 199    -0.668163294341E+03   -0.16495E-01   -0.15240E-01  8424   0.178E+00 0.227E-01
CGA: 200    -0.668179690744E+03   -0.16396E-01   -0.16954E-01  8424   0.175E+00 0.103E-01
   3 F= -.66817969E+03 E0= -.66817477E+03  d E =0.126160E+01  mag=     0.5796
       N       E                     dE             d eps       ncg     rms          ort
SDA:   1    -0.668309853736E+03   -0.14656E+00    0.00000E+00  8424   0.117E+01 0.000E+00
CGA:   2    -0.668454288460E+03   -0.14443E+00   -0.13684E+00  8424   0.350E+00 0.406E-01
CGA:   3    -0.668509754760E+03   -0.55466E-01   -0.55160E-01  8424   0.239E+00 0.107E-02
CGA:   4    -0.668551598363E+03   -0.41844E-01   -0.41678E-01  8424   0.980E-01-0.102E-01
CGA:   5    -0.668566582024E+03   -0.14984E-01   -0.14658E-01  8424   0.490E-01-0.440E-02
CGA:   6    -0.668579199654E+03   -0.12618E-01   -0.13070E-01  8424   0.623E-01-0.103E-01
CGA:   7    -0.668594653597E+03   -0.15454E-01   -0.18112E-01  8424   0.126E+00-0.195E-01
CGA:   8    -0.668615195645E+03   -0.20542E-01   -0.19821E-01  8424   0.160E+00-0.288E-01
CGA:   9    -0.668633187883E+03   -0.17992E-01   -0.16084E-01  8424   0.149E+00-0.864E-02
CGA:  10    -0.668653819567E+03   -0.20632E-01   -0.19120E-01  8424   0.139E+00-0.225E-02
CGA:  11    -0.668675762490E+03   -0.21943E-01   -0.20624E-01  8424   0.175E+00-0.190E-02
CGA:  12    -0.668700612875E+03   -0.24850E-01   -0.22852E-01  8424   0.217E+00-0.698E-03
CGA:  13    -0.668728369468E+03   -0.27757E-01   -0.25207E-01  8424   0.263E+00 0.259E-02
CGA:  14    -0.668758092079E+03   -0.29723E-01   -0.25886E-01  8424   0.296E+00 0.115E-01
CGA:  15    -0.668786097579E+03   -0.28006E-01   -0.24817E-01  8424   0.303E+00 0.133E-01
CGA:  16    -0.668810845620E+03   -0.24748E-01   -0.23210E-01  8424   0.298E+00 0.121E-02
CGA:  17    -0.668832806200E+03   -0.21961E-01   -0.21241E-01  8424   0.290E+00-0.116E-01
CGA:  18    -0.668853192244E+03   -0.20386E-01   -0.20581E-01  8424   0.281E+00-0.341E-01
CGA:  19    -0.668881310572E+03   -0.28118E-01   -0.22931E-01  8424   0.340E+00 0.151E-01
CGA:  20    -0.668905838006E+03   -0.24527E-01   -0.21381E-01  8424   0.374E+00-0.882E-01
CGA:  21    -0.668921149599E+03   -0.15312E-01   -0.11492E-01  8424   0.363E+00-0.408E-01
CGA:  22    -0.668942184460E+03   -0.21035E-01   -0.14713E-01  8424   0.351E+00-0.224E-01
CGA:  23    -0.668964227710E+03   -0.22043E-01   -0.15031E-01  8424   0.372E+00-0.274E-01
CGA:  24    -0.668985948150E+03   -0.21720E-01   -0.14477E-01  8424   0.398E+00-0.398E-01
CGA:  25    -0.669007464042E+03   -0.21516E-01   -0.14262E-01  8424   0.399E+00-0.610E-01
CGA:  26    -0.669027787398E+03   -0.20323E-01   -0.13309E-01  8424   0.366E+00-0.777E-01
CGA:  27    -0.669045591019E+03   -0.17804E-01   -0.11655E-01  8424   0.317E+00-0.827E-01
CGA:  28    -0.669060989968E+03   -0.15399E-01   -0.10196E-01  8424   0.278E+00-0.770E-01
CGA:  29    -0.669075084889E+03   -0.14095E-01   -0.95179E-02  8424   0.261E+00-0.678E-01
CGA:  30    -0.669088799545E+03   -0.13715E-01   -0.95882E-02  8424   0.255E+00-0.605E-01
CGA:  31    -0.669102165731E+03   -0.13366E-01   -0.97027E-02  8424   0.244E+00-0.524E-01
SDA:  32    -0.669114765153E+03   -0.12599E-01   -0.95691E-02  8424   0.223E+00-0.424E-01
CGA:  33    -0.669223922050E+03   -0.10916E+00   -0.97227E-01  8424   0.192E+00 0.376E-01
CGA:  34    -0.669301841847E+03   -0.77920E-01   -0.71376E-01  8424   0.711E-01 0.356E-01
CGA:  35    -0.669324391053E+03   -0.22549E-01   -0.20158E-01  8424   0.229E-01 0.244E-01
CGA:  36    -0.669334643407E+03   -0.10252E-01   -0.83602E-02  8424   0.911E-02 0.149E-01
CGA:  37    -0.669336936180E+03   -0.22928E-02   -0.19501E-02  8424   0.594E-02 0.551E-02
CGA:  38    -0.669338293628E+03   -0.13574E-02   -0.11593E-02  8424   0.480E-02 0.492E-02
CGA:  39    -0.669339438626E+03   -0.11450E-02   -0.95891E-03  8424   0.414E-02 0.434E-02
CGA:  40    -0.669340286903E+03   -0.84828E-03   -0.75694E-03  8424   0.369E-02 0.387E-02
CGA:  41    -0.669341049485E+03   -0.76258E-03   -0.67948E-03  8424   0.333E-02 0.349E-02
CGA:  42    -0.669341681549E+03   -0.63206E-03   -0.58625E-03  8424   0.304E-02 0.318E-02
CGA:  43    -0.669342253405E+03   -0.57186E-03   -0.53365E-03  8424   0.280E-02 0.291E-02
CGA:  44    -0.669342757195E+03   -0.50379E-03   -0.48020E-03  8424   0.259E-02 0.269E-02
CGA:  45    -0.669343219069E+03   -0.46187E-03   -0.44257E-03  8424   0.240E-02 0.249E-02
CGA:  46    -0.669343640503E+03   -0.42143E-03   -0.40768E-03  8424   0.224E-02 0.232E-02
CGA:  47    -0.669344033744E+03   -0.39324E-03   -0.38068E-03  8424   0.210E-02 0.217E-02
CGA:  48    -0.669344401638E+03   -0.36789E-03   -0.35654E-03  8424   0.197E-02 0.203E-02
CGA:  49    -0.669344751305E+03   -0.34967E-03   -0.33721E-03  8424   0.186E-02 0.191E-02
CGA:  50    -0.669345085419E+03   -0.33411E-03   -0.32030E-03  8424   0.175E-02 0.180E-02
CGA:  51    -0.669345408758E+03   -0.32334E-03   -0.30672E-03  8424   0.166E-02 0.170E-02
CGA:  52    -0.669345724018E+03   -0.31526E-03   -0.29533E-03  8424   0.157E-02 0.161E-02
CGA:  53    -0.669346034012E+03   -0.30999E-03   -0.28609E-03  8424   0.149E-02 0.153E-02
CGA:  54    -0.669346343863E+03   -0.30985E-03   -0.28011E-03  8424   0.142E-02 0.145E-02
CGA:  55    -0.669346648255E+03   -0.30439E-03   -0.27212E-03  8424   0.136E-02 0.138E-02
CGA:  56    -0.669346970417E+03   -0.32216E-03   -0.27698E-03  8424   0.132E-02 0.130E-02
CGA:  57    -0.669347241721E+03   -0.27130E-03   -0.24935E-03  8424   0.133E-02 0.120E-02
CGA:  58    -0.669347572726E+03   -0.33100E-03   -0.28730E-03  8424   0.160E-02 0.994E-03
CGA:  59    -0.669347731432E+03   -0.15871E-03   -0.20055E-03  8424   0.138E-02 0.849E-03
CGA:  60    -0.669348062621E+03   -0.33119E-03   -0.29960E-03  8424   0.193E-02 0.681E-03
CGA:  61    -0.669348848235E+03   -0.78561E-03   -0.65095E-03  8424   0.109E-02 0.257E-02
CGA:  62    -0.669349165058E+03   -0.31682E-03   -0.26309E-03  8424   0.119E-02 0.825E-03
CGA:  63    -0.669349516806E+03   -0.35175E-03   -0.30934E-03  8424   0.164E-02 0.527E-03
CGA:  64    -0.669350629216E+03   -0.11124E-02   -0.79669E-03  8424   0.110E-02 0.204E-02
CGA:  65    -0.669351101422E+03   -0.47221E-03   -0.42779E-03  8424   0.204E-02 0.216E-03
CGA:  66    -0.669353091484E+03   -0.19901E-02   -0.13370E-02  8424   0.243E-02 0.181E-02
CGA:  67    -0.669353603683E+03   -0.51220E-03   -0.50454E-03  8424   0.207E-02-0.701E-03
CGA:  68    -0.669354357394E+03   -0.75371E-03   -0.95834E-03  8424   0.731E-02-0.512E-03
CGA:  69    -0.669357168378E+03   -0.28110E-02    0.98916E-02  8424   0.524E-02 0.476E-02
CGA:  70    -0.669358213075E+03   -0.10447E-02   -0.10091E-02  8424   0.190E-02-0.759E-03
CGA:  71    -0.669358574229E+03   -0.36115E-03   -0.35998E-03  8424   0.116E-02-0.795E-04
CGA:  72    -0.669359210236E+03   -0.63601E-03    0.62390E-03  8424   0.885E-03 0.976E-03
CGA:  73    -0.669359658479E+03   -0.44824E-03    0.14720E-02  8424   0.836E-03 0.243E-03
CGA:  74    -0.669360286342E+03   -0.62786E-03    0.51212E-03  8424   0.667E-03 0.820E-03
CGA:  75    -0.669360321737E+03   -0.35395E-04   -0.15944E-03  8424   0.121E-01-0.871E-03
CGA:  76    -0.669362390584E+03   -0.20688E-02   -0.17766E-02  8424   0.215E-02-0.103E-02
CGA:  77    -0.669362984808E+03   -0.59422E-03   -0.57434E-03  8424   0.787E-03-0.162E-03
CGA:  78    -0.669363762794E+03   -0.77799E-03    0.49520E-03  8424   0.857E-03 0.441E-03
CGA:  79    -0.669364129337E+03   -0.36654E-03   -0.39387E-03  8424   0.337E-02-0.564E-03
CGA:  80    -0.669364576982E+03   -0.44765E-03   -0.41991E-03  8424   0.517E-03-0.954E-04
CGA:  81    -0.669365194342E+03   -0.61736E-03    0.18560E-03  8424   0.445E-03 0.427E-03
CGA:  82    -0.669365636191E+03   -0.44185E-03    0.36057E-03  8424   0.625E-03 0.274E-03
CGA:  83    -0.669356827135E+03    0.88091E-02   -0.47678E-02  8424   0.111E+00-0.485E-02
CGA:  84    -0.669368931687E+03   -0.12105E-01   -0.12622E-01  8424   0.108E-02 0.161E-02
CGA:  85    -0.669369415081E+03   -0.48339E-03   -0.36879E-03  8424   0.983E-03-0.321E-03
CGA:  86    -0.669370582140E+03   -0.11671E-02    0.96657E-03  8424   0.295E-02-0.202E-04
CGA:  87    -0.669376109842E+03   -0.55277E-02    0.23810E-02  8424   0.231E-02 0.119E-02
CGA:  88    -0.669303535383E+03    0.72574E-01   -0.39082E-01  8424   0.586E+00-0.252E-01
CGA:  89    -0.669402369110E+03   -0.98834E-01   -0.10086E+00  8424   0.472E-01-0.677E-02
CGA:  90    -0.669410762603E+03   -0.83935E-02   -0.84656E-02  8424   0.433E-02 0.295E-03
CGA:  91    -0.669411989656E+03   -0.12271E-02   -0.10453E-02  8424   0.109E-02-0.213E-03
CGA:  92    -0.669412427071E+03   -0.43742E-03   -0.41561E-03  8424   0.106E-02-0.376E-04
CGA:  93    -0.669411378776E+03    0.10483E-02   -0.25728E-02  8424   0.325E-01-0.257E-02
CGA:  94    -0.669416990518E+03   -0.56117E-02   -0.57697E-02  8424   0.406E-02 0.470E-03
CGA:  95    -0.669418739552E+03   -0.17490E-02   -0.13899E-02  8424   0.195E-02-0.486E-03
CGA:  96    -0.669419632115E+03   -0.89256E-03   -0.62890E-03  8424   0.145E-02-0.392E-03
CGA:  97    -0.669420800617E+03   -0.11685E-02   -0.11725E-02  8424   0.915E-02-0.170E-02
CGA:  98    -0.669422291789E+03   -0.14912E-02   -0.14955E-02  8424   0.145E-02 0.931E-04
CGA:  99    -0.669423199668E+03   -0.90788E-03   -0.70605E-03  8424   0.144E-02-0.418E-03
CGA: 100    -0.669423974556E+03   -0.77489E-03   -0.55393E-03  8424   0.213E-02-0.558E-03
CGA: 101    -0.669426474359E+03   -0.24998E-02    0.16154E-01  8424   0.774E-02-0.165E-02
CGA: 102    -0.669428313174E+03   -0.18388E-02   -0.18267E-02  8424   0.256E-02-0.476E-05
CGA: 103    -0.669429760227E+03   -0.14471E-02   -0.11091E-02  8424   0.251E-02-0.753E-03
CGA: 104    -0.669430704429E+03   -0.94420E-03   -0.62325E-03  8424   0.135E-02-0.633E-03
CGA: 105    -0.669430959483E+03   -0.25505E-03   -0.13404E-02  8424   0.151E-01-0.226E-02
CGA: 106    -0.669433823442E+03   -0.28640E-02   -0.27725E-02  8424   0.200E-02-0.119E-03
CGA: 107    -0.669434742833E+03   -0.91939E-03   -0.74273E-03  8424   0.120E-02-0.390E-03
CGA: 108    -0.669435478842E+03   -0.73601E-03   -0.66042E-03  8424   0.332E-02-0.631E-03
CGA: 109    -0.669436315032E+03   -0.83619E-03   -0.58050E-03  8424   0.747E-03-0.433E-03
CGA: 110    -0.669436652315E+03   -0.33728E-03   -0.74156E-03  8424   0.637E-02-0.110E-02
CGA: 111    -0.669437919148E+03   -0.12668E-02   -0.10760E-02  8424   0.123E-02-0.358E-03
CGA: 112    -0.669438426775E+03   -0.50763E-03   -0.41543E-03  8424   0.513E-03-0.232E-03
CGA: 113    -0.669439513927E+03   -0.10872E-02    0.19948E-03  8424   0.134E-02-0.468E-04
CGA: 114    -0.669442679870E+03   -0.31659E-02    0.59091E-03  8424   0.254E-02 0.102E-03
CGA: 115    -0.669450034400E+03   -0.73545E-02    0.12329E-02  8424   0.643E-02-0.470E-03
CGA: 116    -0.669469148485E+03   -0.19114E-01    0.13132E-02  8424   0.103E-01-0.188E-02
CGA: 117    -0.669495400261E+03   -0.26252E-01    0.18830E-02  8424   0.278E-01-0.184E-01
CGA: 118    -0.669499525784E+03   -0.41255E-02   -0.44801E-02  8424   0.358E-02 0.101E-02
CGA: 119    -0.669500147797E+03   -0.62201E-03   -0.93921E-03  8424   0.146E-02 0.702E-03
CGA: 120    -0.669500203167E+03   -0.55370E-04   -0.50107E-03  8424   0.110E-02 0.113E-02
CGA: 121    -0.669500247449E+03   -0.44282E-04   -0.26277E-03  8424   0.743E-03 0.518E-03
CGA: 122    -0.669500226066E+03    0.21383E-04   -0.29230E-03  8424   0.656E-03 0.835E-03
CGA: 123    -0.669500265662E+03   -0.39596E-04   -0.18265E-03  8424   0.501E-03 0.413E-03
CGA: 124    -0.669500252842E+03    0.12820E-04   -0.12629E-03  8424   0.462E-03 0.392E-03
CGA: 125    -0.669500279007E+03   -0.26165E-04   -0.13193E-03  8424   0.464E-03 0.347E-03
CGA: 126    -0.669500269019E+03    0.99882E-05   -0.10177E-03  8424   0.422E-03 0.314E-03
CGA: 127    -0.669500309355E+03   -0.40336E-04   -0.11835E-03  8424   0.455E-03 0.281E-03
CGA: 128    -0.669500306951E+03    0.24037E-05   -0.88680E-04  8424   0.389E-03 0.261E-03
CGA: 129    -0.669500357144E+03   -0.50193E-04   -0.10900E-03  8424   0.446E-03 0.238E-03
CGA: 130    -0.669500362391E+03   -0.52470E-05   -0.80423E-04  8424   0.360E-03 0.225E-03
CGA: 131    -0.669500420531E+03   -0.58140E-04   -0.10246E-03  8424   0.440E-03 0.207E-03
CGA: 132    -0.669500432650E+03   -0.12120E-04   -0.74754E-04  8424   0.336E-03 0.198E-03
CGA: 133    -0.669500497242E+03   -0.64592E-04   -0.14450E-03  8424   0.428E-03 0.455E-03
CGA: 134    -0.669500575903E+03   -0.78661E-04   -0.95198E-04  8424   0.468E-03 0.681E-04
CGA: 135    -0.669500742381E+03   -0.16648E-03   -0.20441E-03  8424   0.383E-03 0.512E-03
CGA: 136    -0.669500767592E+03   -0.25210E-04   -0.62802E-04  8424   0.278E-03 0.133E-03
CGA: 137    -0.669500930206E+03   -0.16261E-03   -0.16238E-03  8424   0.403E-03 0.347E-03
CGA: 138    -0.669501028407E+03   -0.98200E-04   -0.90228E-04  8424   0.493E-03-0.392E-04
CGA: 139    -0.669501472038E+03   -0.44363E-03   -0.32090E-03  8424   0.483E-03 0.401E-03
CGA: 140    -0.669501505794E+03   -0.33756E-04   -0.61878E-04  8424   0.190E-03 0.907E-04
CGA: 141    -0.669501733257E+03   -0.22746E-03   -0.17357E-03  8424   0.657E-03 0.150E-03
CGA: 142    -0.669501887954E+03   -0.15470E-03   -0.11312E-03  8424   0.382E-03-0.157E-03
CGA: 143    -0.669502164151E+03   -0.27620E-03   -0.31492E-03  8424   0.165E-02-0.659E-04
CGA: 144    -0.669502501268E+03   -0.33712E-03   -0.27746E-02  8424   0.272E-01-0.185E-02
CGA: 145    -0.669505755695E+03   -0.32544E-02   -0.33441E-02  8424   0.197E-02 0.442E-03
CGA: 146    -0.669506185163E+03   -0.42947E-03   -0.41441E-03  8424   0.352E-03-0.488E-04
CGA: 147    -0.669506293573E+03   -0.10841E-03   -0.10423E-03  8424   0.887E-04-0.207E-04
CGA: 148    -0.669506488604E+03   -0.19503E-03    0.14846E-04  8424   0.133E-03-0.822E-05
CGA: 149    -0.669506870181E+03   -0.38158E-03    0.13251E-04  8424   0.171E-03 0.229E-04
CGA: 150    -0.669507641788E+03   -0.77161E-03    0.16971E-04  8424   0.203E-03 0.215E-04
CGA: 151    -0.669508724356E+03   -0.10826E-02    0.14611E-04  8424   0.137E-03 0.762E-04
CGA: 152    -0.669509580465E+03   -0.85611E-03    0.12825E-04  8424   0.200E-03-0.444E-05
CGA: 153    -0.669510997006E+03   -0.14165E-02    0.73612E-05  8424   0.294E-03-0.477E-05
CGA: 154    -0.669513302294E+03   -0.23053E-02    0.98042E-05  8424   0.244E-03 0.650E-04
CGA: 155    -0.669515249551E+03   -0.19473E-02    0.12974E-04  8424   0.418E-03-0.504E-04
CGA: 156    -0.669518772290E+03   -0.35227E-02    0.83043E-05  8424   0.619E-03-0.183E-03
CGA: 157    -0.669524219316E+03   -0.54470E-02    0.57163E-05  8424   0.103E-02-0.467E-03
CGA: 158    -0.669524304163E+03   -0.84847E-04   -0.18392E-03  8424   0.323E-03 0.317E-03
CGA: 159    -0.669524355082E+03   -0.50919E-04   -0.98249E-04  8424   0.168E-03 0.194E-03
CGA: 160    -0.669524398721E+03   -0.43639E-04   -0.50145E-04  8424   0.136E-03 0.386E-04
CGA: 161    -0.669524373424E+03    0.25297E-04   -0.21585E-04  8424   0.100E-03 0.143E-03
CGA: 162    -0.669524355243E+03    0.18181E-04   -0.90379E-05  8424   0.685E-04 0.779E-04
CGA: 163    -0.669524341568E+03    0.13675E-04   -0.68449E-05  8424   0.612E-04 0.637E-04
CGA: 164    -0.669524330549E+03    0.11019E-04   -0.66496E-05  8424   0.580E-04 0.594E-04
CGA: 165    -0.669524320935E+03    0.96133E-05   -0.63543E-05  8424   0.555E-04 0.567E-04
   4 F= -.66952432E+03 E0= -.66952432E+03  d E =-.134463E+01  mag=    -0.0000
       N       E                     dE             d eps       ncg     rms          ort
SDA:   1    -0.663099364095E+03    0.64250E+01    0.00000E+00  8424   0.195E+02 0.000E+00
CGA:   2    -0.667354045398E+03   -0.42547E+01   -0.42640E+01  8424   0.801E+01 0.317E-02
CGA:   3    -0.668965775580E+03   -0.16117E+01   -0.16094E+01  8424   0.247E+01 0.542E-02
CGA:   4    -0.669393144118E+03   -0.42737E+00   -0.42742E+00  8424   0.638E+00-0.156E-02
CGA:   5    -0.669501245005E+03   -0.10810E+00   -0.10790E+00  8424   0.124E+00-0.175E-02
CGA:   6    -0.669526552038E+03   -0.25307E-01   -0.25087E-01  8424   0.292E-01-0.173E-02
CGA:   7    -0.669533292083E+03   -0.67400E-02   -0.67315E-02  8424   0.940E-02-0.100E-03
CGA:   8    -0.669535680542E+03   -0.23885E-02   -0.23850E-02  8424   0.303E-02-0.560E-04
CGA:   9    -0.669536651905E+03   -0.97136E-03   -0.97428E-03  8424   0.149E-02-0.447E-03
CGA:  10    -0.669537144071E+03   -0.49217E-03   -0.64422E-03  8424   0.180E-02-0.812E-03
CGA:  11    -0.669537623846E+03   -0.47977E-03   -0.44398E-03  8424   0.692E-03-0.449E-03
CGA:  12    -0.669537604349E+03    0.19497E-04   -0.42842E-03  8424   0.349E-02-0.897E-03
CGA:  13    -0.669538398264E+03   -0.79392E-03   -0.67584E-03  8424   0.892E-03-0.769E-03
CGA:  14    -0.669538626379E+03   -0.22811E-03   -0.22407E-03  8424   0.399E-03-0.232E-03
CGA:  15    -0.669538991386E+03   -0.36501E-03    0.60402E-04  8424   0.224E-03-0.132E-04
CGA:  16    -0.669539355457E+03   -0.36407E-03    0.24827E-04  8424   0.106E-03 0.115E-03
CGA:  17    -0.669539561373E+03   -0.20592E-03    0.96831E-05  8424   0.116E-03 0.355E-04
CGA:  18    -0.669539955449E+03   -0.39408E-03    0.95148E-05  8424   0.101E-03 0.990E-04
CGA:  19    -0.669540151888E+03   -0.19644E-03    0.90552E-05  8424   0.855E-04 0.380E-04
CGA:  20    -0.669540483114E+03   -0.33123E-03    0.63283E-05  8424   0.977E-04 0.825E-04
CGA:  21    -0.669540694002E+03   -0.21089E-03    0.75790E-05  8424   0.101E-03 0.252E-04
CGA:  22    -0.669541057932E+03   -0.36393E-03    0.67311E-05  8424   0.107E-03 0.746E-04
CGA:  23    -0.669541250120E+03   -0.19219E-03    0.10876E-04  8424   0.932E-04 0.218E-04
CGA:  24    -0.669541566253E+03   -0.31613E-03    0.60252E-05  8424   0.111E-03 0.557E-04
CGA:  25    -0.669541780288E+03   -0.21403E-03    0.10258E-04  8424   0.126E-03 0.281E-05
CGA:  26    -0.669542144000E+03   -0.36371E-03    0.69100E-05  8424   0.129E-03 0.446E-04
CGA:  27    -0.669542707459E+03   -0.56346E-03    0.78307E-05  8424   0.109E-03 0.148E-03
CGA:  28    -0.669542896360E+03   -0.18890E-03    0.11892E-04  8424   0.191E-03-0.284E-04
CGA:  29    -0.669543339057E+03   -0.44270E-03    0.66138E-05  8424   0.187E-03 0.403E-04
CGA:  30    -0.669543919517E+03   -0.58046E-03    0.13800E-04  8424   0.468E-03 0.526E-05
CGA:  31    -0.669545667374E+03   -0.17479E-02    0.18706E-04  8424   0.690E-03 0.260E-03
CGA:  32    -0.669545837815E+03   -0.17044E-03   -0.12179E-03  8424   0.263E-03-0.300E-03
CGA:  33    -0.669546022856E+03   -0.18504E-03    0.27770E-04  8424   0.733E-04-0.444E-05
CGA:  34    -0.669546247881E+03   -0.22502E-03    0.32060E-05  8424   0.368E-04 0.376E-04
CGA:  35    -0.669546378434E+03   -0.13055E-03    0.13916E-05  8424   0.430E-04 0.240E-04
CGA:  36    -0.669546532892E+03   -0.15446E-03    0.16057E-05  8424   0.766E-04 0.713E-05
CGA:  37    -0.669546923710E+03   -0.39082E-03    0.26260E-05  8424   0.537E-04 0.836E-04
CGA:  38    -0.669547029223E+03   -0.10551E-03    0.45062E-05  8424   0.106E-03-0.126E-04
CGA:  39    -0.669547421944E+03   -0.39272E-03    0.21329E-05  8424   0.143E-03 0.632E-04
CGA:  40    -0.669547589164E+03   -0.16722E-03    0.30814E-04  8424   0.310E-03-0.138E-03
CGA:  41    -0.669547637855E+03   -0.48691E-04   -0.42922E-04  8424   0.447E-04-0.300E-04
CGA:  42    -0.669547788969E+03   -0.15111E-03    0.13402E-05  8424   0.328E-04 0.241E-04
CGA:  43    -0.669547914271E+03   -0.12530E-03    0.10641E-05  8424   0.346E-04 0.197E-04
CGA:  44    -0.669548039185E+03   -0.12491E-03    0.12021E-05  8424   0.480E-04 0.127E-04
CGA:  45    -0.669548333139E+03   -0.29395E-03    0.17682E-05  8424   0.342E-04 0.595E-04
CGA:  46    -0.669548456261E+03   -0.12312E-03    0.11951E-05  8424   0.340E-04 0.161E-04
CGA:  47    -0.669548695926E+03   -0.23967E-03    0.12382E-05  8424   0.339E-04 0.451E-04
CGA:  48    -0.669548811361E+03   -0.11544E-03    0.12686E-05  8424   0.273E-04 0.178E-04
CGA:  49    -0.669548933323E+03   -0.12196E-03    0.73616E-06  8424   0.259E-04 0.205E-04
CGA:  50    -0.669549040794E+03   -0.10747E-03    0.76038E-06  8424   0.273E-04 0.198E-04
CGA:  51    -0.669549167549E+03   -0.12675E-03    0.70379E-06  8424   0.338E-04 0.159E-04
CGA:  52    -0.669549258946E+03   -0.91397E-04    0.16847E-05  8424   0.555E-04 0.343E-05
CGA:  53    -0.669549561479E+03   -0.30253E-03    0.14660E-05  8424   0.453E-04 0.592E-04
CGA:  54    -0.669549698006E+03   -0.13653E-03    0.19656E-05  8424   0.949E-04-0.197E-04
CGA:  55    -0.669550041468E+03   -0.34346E-03    0.96091E-06  8424   0.183E-03 0.428E-04
CGA:  56    -0.669550742628E+03   -0.70116E-03    0.13697E-04  8424   0.269E-03-0.999E-05
CGA:  57    -0.669551994139E+03   -0.12515E-02    0.61463E-05  8424   0.172E-03 0.196E-03
CGA:  58    -0.669552138759E+03   -0.14462E-03    0.88489E-04  8424   0.460E-03-0.240E-03
CGA:  59    -0.669552167829E+03   -0.29069E-04   -0.45708E-04  8424   0.260E-04 0.753E-04
CGA:  60    -0.669552222234E+03   -0.54406E-04    0.24684E-05  8424   0.711E-04-0.151E-04
CGA:  61    -0.669552352815E+03   -0.13058E-03    0.56150E-05  8424   0.163E-03-0.738E-04
CGA:  62    -0.669552367562E+03   -0.14747E-04   -0.18255E-04  8424   0.157E-04 0.178E-04
CGA:  63    -0.669552442892E+03   -0.75330E-04    0.42076E-06  8424   0.256E-04 0.111E-04
CGA:  64    -0.669552548812E+03   -0.10592E-03    0.65209E-06  8424   0.392E-04-0.142E-05
CGA:  65    -0.669552753512E+03   -0.20470E-03    0.67687E-06  8424   0.395E-04 0.349E-04
CGA:  66    -0.669552787190E+03   -0.33679E-04    0.14159E-04  8424   0.648E-04-0.210E-04
CGA:  67    -0.669552918385E+03   -0.13119E-03    0.40954E-05  8424   0.133E-03-0.627E-04
CGA:  68    -0.669552927827E+03   -0.94424E-05   -0.14090E-04  8424   0.150E-04 0.239E-04
   5 F= -.66955293E+03 E0= -.66955293E+03  d E =-.286069E-01  mag=    -0.0000
       N       E                     dE             d eps       ncg     rms          ort
SDA:   1    -0.668919871787E+03    0.63305E+00    0.00000E+00  8424   0.202E+01 0.000E+00
CGA:   2    -0.669371108782E+03   -0.45124E+00   -0.45124E+00  8424   0.849E+00-0.405E-03
CGA:   3    -0.669540198979E+03   -0.16909E+00   -0.16901E+00  8424   0.259E+00-0.105E-02
CGA:   4    -0.669584019128E+03   -0.43820E-01   -0.43860E-01  8424   0.666E-01 0.309E-03
CGA:   5    -0.669595278368E+03   -0.11259E-01   -0.11332E-01  8424   0.127E-01 0.670E-03
CGA:   6    -0.669597772556E+03   -0.24942E-02   -0.25148E-02  8424   0.287E-02 0.272E-03
CGA:   7    -0.669598484537E+03   -0.71198E-03   -0.71019E-03  8424   0.100E-02-0.701E-04
CGA:   8    -0.669598781525E+03   -0.29699E-03   -0.31062E-03  8424   0.543E-03-0.269E-03
CGA:   9    -0.669598883296E+03   -0.10177E-03   -0.19038E-03  8424   0.769E-03-0.423E-03
CGA:  10    -0.669599028599E+03   -0.14530E-03   -0.14368E-03  8424   0.147E-03-0.177E-04
CGA:  11    -0.669598271464E+03    0.75714E-03   -0.40776E-03  8424   0.430E-02-0.665E-03
CGA:  12    -0.669599134615E+03   -0.86315E-03   -0.84775E-03  8424   0.626E-03-0.512E-04
CGA:  13    -0.669599360633E+03   -0.22602E-03   -0.20998E-03  8424   0.137E-03-0.110E-03
CGA:  14    -0.669599396787E+03   -0.36154E-04   -0.33297E-04  8424   0.775E-04-0.157E-04
CGA:  15    -0.669599392936E+03    0.38509E-05   -0.57303E-04  8424   0.715E-03-0.169E-03
CGA:  16    -0.669599511997E+03   -0.11906E-03   -0.10810E-03  8424   0.107E-03-0.328E-04
CGA:  17    -0.669599553098E+03   -0.41101E-04   -0.64720E-04  8424   0.364E-03-0.145E-03
CGA:  18    -0.669599627295E+03   -0.74197E-04   -0.62898E-04  8424   0.841E-04-0.370E-04
CGA:  19    -0.669599646752E+03   -0.19457E-04   -0.17813E-04  8424   0.176E-04-0.732E-05
CGA:  20    -0.669599702941E+03   -0.56189E-04    0.12696E-05  8424   0.150E-04 0.780E-05
CGA:  21    -0.669599773627E+03   -0.70687E-04    0.18699E-05  8424   0.218E-04 0.123E-04
CGA:  22    -0.669599832176E+03   -0.58548E-04    0.25083E-05  8424   0.905E-04-0.210E-04
CGA:  23    -0.669599832913E+03   -0.73755E-06   -0.86496E-05  8424   0.111E-04 0.221E-04
CGA:  24    -0.669599846426E+03   -0.13513E-04    0.24471E-04  8424   0.764E-04-0.123E-04
CGA:  25    -0.669599427340E+03    0.41909E-03   -0.93016E-04  8424   0.654E-02-0.655E-03
CGA:  26    -0.669599994582E+03   -0.56724E-03   -0.69221E-03  8424   0.340E-04 0.352E-03
CGA:  27    -0.669599995596E+03   -0.10143E-05   -0.40708E-05  8424   0.932E-05 0.890E-05
   6 F= -.66960000E+03 E0= -.66960000E+03  d E =-.470678E-01  mag=    -0.0000
       N       E                     dE             d eps       ncg     rms          ort
SDA:   1    -0.669362710669E+03    0.23728E+00    0.00000E+00  8424   0.740E+00 0.000E+00
CGA:   2    -0.669532436177E+03   -0.16973E+00   -0.16972E+00  8424   0.318E+00-0.142E-03
CGA:   3    -0.669595085703E+03   -0.62650E-01   -0.62582E-01  8424   0.934E-01-0.390E-03
CGA:   4    -0.669610822206E+03   -0.15737E-01   -0.15787E-01  8424   0.242E-01 0.187E-03
CGA:   5    -0.669614829761E+03   -0.40076E-02   -0.40890E-02  8424   0.460E-02 0.344E-03
CGA:   6    -0.669615688461E+03   -0.85870E-03   -0.89728E-03  8424   0.103E-02 0.192E-03
CGA:   7    -0.669615922890E+03   -0.23443E-03   -0.24360E-03  8424   0.333E-03 0.589E-04
CGA:   8    -0.669616013457E+03   -0.90567E-04   -0.91509E-04  8424   0.122E-03 0.804E-05
CGA:   9    -0.669616041584E+03   -0.28127E-04   -0.30797E-04  8424   0.438E-04 0.215E-04
CGA:  10    -0.669616044962E+03   -0.33776E-05   -0.88316E-05  8424   0.226E-04 0.284E-04
   7 F= -.66961604E+03 E0= -.66961604E+03  d E =-.160494E-01  mag=    -0.0000
       N       E                     dE             d eps       ncg     rms          ort
SDA:   1    -0.668486080493E+03    0.11300E+01    0.00000E+00  8424   0.312E+01 0.000E+00
CGA:   2    -0.669288161496E+03   -0.80208E+00   -0.80195E+00  8424   0.133E+01-0.218E-02
CGA:   3    -0.669540016053E+03   -0.25185E+00   -0.25199E+00  8424   0.369E+00 0.426E-03
CGA:   4    -0.669604116200E+03   -0.64100E-01   -0.64204E-01  8424   0.948E-01 0.652E-03
CGA:   5    -0.669619746621E+03   -0.15630E-01   -0.15809E-01  8424   0.181E-01 0.114E-02
CGA:   6    -0.669623135765E+03   -0.33891E-02   -0.35147E-02  8424   0.409E-02 0.102E-02
CGA:   7    -0.669624073853E+03   -0.93809E-03   -0.96919E-03  8424   0.135E-02 0.368E-03
CGA:   8    -0.669624354708E+03   -0.28086E-03   -0.31248E-03  8424   0.428E-03 0.345E-03
CGA:   9    -0.669624393263E+03   -0.38554E-04   -0.80802E-04  8424   0.192E-03 0.282E-03
CGA:  10    -0.669624387187E+03    0.60753E-05   -0.20974E-04  8424   0.124E-03 0.147E-03
   8 F= -.66962439E+03 E0= -.66962439E+03  d E =-.834223E-02  mag=    -0.0000
       N       E                     dE             d eps       ncg     rms          ort
SDA:   1    -0.669396328356E+03    0.22806E+00    0.00000E+00  8424   0.768E+00 0.000E+00
CGA:   2    -0.669559322668E+03   -0.16299E+00   -0.16300E+00  8424   0.321E+00-0.731E-04
CGA:   3    -0.669626287738E+03   -0.66965E-01   -0.67019E-01  8424   0.103E+00 0.842E-03
CGA:   4    -0.669643258315E+03   -0.16971E-01   -0.17016E-01  8424   0.246E-01 0.428E-03
CGA:   5    -0.669647353080E+03   -0.40948E-02   -0.41483E-02  8424   0.484E-02 0.565E-03
CGA:   6    -0.669648184412E+03   -0.83133E-03   -0.88244E-03  8424   0.104E-02 0.647E-03
CGA:   7    -0.669648331604E+03   -0.14719E-03   -0.18604E-03  8424   0.324E-03 0.410E-03
CGA:   8    -0.669648338853E+03   -0.72490E-05   -0.47303E-04  8424   0.168E-03 0.278E-03
CGA:   9    -0.669648326699E+03    0.12155E-04   -0.12036E-04  8424   0.125E-03 0.142E-03
CGA:  10    -0.669648313251E+03    0.13447E-04   -0.68693E-05  8424   0.106E-03 0.114E-03
CGA:  11    -0.669648300386E+03    0.12865E-04   -0.49265E-05  8424   0.955E-04 0.100E-03
CGA:  12    -0.669648288331E+03    0.12055E-04   -0.38452E-05  8424   0.879E-04 0.910E-04
CGA:  13    -0.669648277083E+03    0.11248E-04   -0.31420E-05  8424   0.821E-04 0.844E-04
CGA:  14    -0.669648266592E+03    0.10491E-04   -0.26431E-05  8424   0.776E-04 0.793E-04
CGA:  15    -0.669648256798E+03    0.97941E-05   -0.22686E-05  8424   0.739E-04 0.753E-04
   9 F= -.66964826E+03 E0= -.66964826E+03  d E =-.238696E-01  mag=    -0.0000
       N       E                     dE             d eps       ncg     rms          ort
SDA:   1    -0.658437564735E+03    0.11211E+02    0.00000E+00  8424   0.340E+02 0.000E+00
CGA:   2    -0.665564056803E+03   -0.71265E+01   -0.71218E+01  8424   0.139E+02 0.970E-01
CGA:   3    -0.668448140544E+03   -0.28841E+01   -0.28846E+01  8424   0.432E+01-0.119E-01
CGA:   4    -0.669171064211E+03   -0.72292E+00   -0.72293E+00  8424   0.112E+01-0.117E-02
CGA:   5    -0.669364989356E+03   -0.19393E+00   -0.19392E+00  8424   0.218E+00-0.211E-02
CGA:   6    -0.669408451642E+03   -0.43462E-01   -0.43514E-01  8424   0.521E-01-0.224E-02
CGA:   7    -0.669420195200E+03   -0.11744E-01   -0.11721E-01  8424   0.160E-01 0.462E-03
CGA:   8    -0.669424224679E+03   -0.40295E-02   -0.39942E-02  8424   0.482E-02 0.519E-03
CGA:   9    -0.669425615193E+03   -0.13905E-02   -0.13903E-02  8424   0.178E-02 0.137E-05
CGA:  10    -0.669426190924E+03   -0.57573E-03   -0.58174E-03  8424   0.851E-03-0.445E-04
CGA:  11    -0.669426469110E+03   -0.27819E-03   -0.39354E-03  8424   0.869E-03-0.416E-03
CGA:  12    -0.669426589468E+03   -0.12036E-03   -0.16324E-03  8424   0.625E-03-0.276E-03
CGA:  13    -0.669426798498E+03   -0.20903E-03    0.35905E-03  8424   0.389E-03 0.142E-03
CGA:  14    -0.669427049323E+03   -0.25083E-03    0.24536E-03  8424   0.245E-03 0.178E-03
CGA:  15    -0.669427276940E+03   -0.22762E-03    0.83130E-04  8424   0.166E-03 0.180E-03
CGA:  16    -0.669427388700E+03   -0.11176E-03    0.32408E-04  8424   0.840E-04 0.950E-04
CGA:  17    -0.669427478729E+03   -0.90029E-04    0.62040E-05  8424   0.645E-04 0.682E-04
CGA:  18    -0.669427556927E+03   -0.78198E-04    0.39095E-05  8424   0.545E-04 0.567E-04
CGA:  19    -0.669427634243E+03   -0.77316E-04    0.26106E-05  8424   0.484E-04 0.497E-04
CGA:  20    -0.669427705067E+03   -0.70824E-04    0.22133E-05  8424   0.442E-04 0.450E-04
CGA:  21    -0.669427777738E+03   -0.72671E-04    0.17233E-05  8424   0.414E-04 0.416E-04
CGA:  22    -0.669427844497E+03   -0.66758E-04    0.16565E-05  8424   0.395E-04 0.392E-04
CGA:  23    -0.669427915538E+03   -0.71041E-04    0.13621E-05  8424   0.382E-04 0.372E-04
CGA:  24    -0.669427978789E+03   -0.63252E-04    0.14774E-05  8424   0.376E-04 0.355E-04
CGA:  25    -0.669428050197E+03   -0.71407E-04    0.12103E-05  8424   0.375E-04 0.339E-04
CGA:  26    -0.669428109595E+03   -0.59399E-04    0.15405E-05  8424   0.381E-04 0.322E-04
CGA:  27    -0.669428182844E+03   -0.73248E-04    0.12043E-05  8424   0.392E-04 0.301E-04
CGA:  28    -0.669428237853E+03   -0.55010E-04    0.19118E-05  8424   0.412E-04 0.275E-04
CGA:  29    -0.669428313812E+03   -0.75958E-04    0.13805E-05  8424   0.441E-04 0.242E-04
CGA:  30    -0.669428364103E+03   -0.50291E-04    0.29475E-05  8424   0.482E-04 0.199E-04
CGA:  31    -0.669428499602E+03   -0.13550E-03    0.21908E-05  8424   0.427E-04 0.689E-04
CGA:  32    -0.669428576611E+03   -0.77010E-04    0.14683E-05  8424   0.455E-04 0.197E-04
CGA:  33    -0.669428707375E+03   -0.13076E-03    0.20504E-05  8424   0.414E-04 0.657E-04
CGA:  34    -0.669428755310E+03   -0.47935E-04    0.26914E-05  8424   0.437E-04 0.194E-04
CGA:  35    -0.669428884707E+03   -0.12940E-03    0.19151E-05  8424   0.402E-04 0.635E-04
CGA:  36    -0.669428961370E+03   -0.76663E-04    0.12867E-05  8424   0.416E-04 0.193E-04
CGA:  37    -0.669429087524E+03   -0.12615E-03    0.18024E-05  8424   0.390E-04 0.610E-04
CGA:  38    -0.669429133495E+03   -0.45971E-04    0.24745E-05  8424   0.401E-04 0.191E-04
CGA:  39    -0.669429257998E+03   -0.12450E-03    0.17048E-05  8424   0.379E-04 0.591E-04
CGA:  40    -0.669429334312E+03   -0.76314E-04    0.11342E-05  8424   0.383E-04 0.191E-04
CGA:  41    -0.669429379451E+03   -0.45140E-04    0.24177E-05  8424   0.388E-04 0.182E-04
CGA:  42    -0.669429501317E+03   -0.12187E-03    0.15881E-05  8424   0.374E-04 0.567E-04
CGA:  43    -0.669429577190E+03   -0.75873E-04    0.11039E-05  8424   0.372E-04 0.181E-04
CGA:  44    -0.669429697618E+03   -0.12043E-03    0.14904E-05  8424   0.364E-04 0.548E-04
CGA:  45    -0.669429741248E+03   -0.43630E-04    0.22488E-05  8424   0.363E-04 0.177E-04
CGA:  46    -0.669429859951E+03   -0.11870E-03    0.14382E-05  8424   0.356E-04 0.535E-04
CGA:  47    -0.669429935403E+03   -0.75452E-04    0.99575E-06  8424   0.349E-04 0.176E-04
CGA:  48    -0.669430053177E+03   -0.11777E-03    0.13527E-05  8424   0.348E-04 0.518E-04
CGA:  49    -0.669430095653E+03   -0.42476E-04    0.20779E-05  8424   0.341E-04 0.173E-04
CGA:  50    -0.669430211395E+03   -0.11574E-03    0.13122E-05  8424   0.340E-04 0.506E-04
CGA:  51    -0.669430286192E+03   -0.74797E-04    0.90620E-06  8424   0.329E-04 0.173E-04
CGA:  52    -0.669430329321E+03   -0.43129E-04    0.17639E-05  8424   0.320E-04 0.179E-04
CGA:  53    -0.669430401469E+03   -0.72148E-04    0.82567E-06  8424   0.311E-04 0.185E-04
CGA:  54    -0.669430446453E+03   -0.44984E-04    0.14454E-05  8424   0.304E-04 0.189E-04
CGA:  55    -0.669430516321E+03   -0.69868E-04    0.76722E-06  8424   0.297E-04 0.192E-04
CGA:  56    -0.669430562796E+03   -0.46474E-04    0.12428E-05  8424   0.293E-04 0.194E-04
CGA:  57    -0.669430630796E+03   -0.68001E-04    0.73084E-06  8424   0.289E-04 0.196E-04
CGA:  58    -0.669430678336E+03   -0.47540E-04    0.11246E-05  8424   0.287E-04 0.195E-04
CGA:  59    -0.669430744902E+03   -0.66565E-04    0.71524E-06  8424   0.285E-04 0.194E-04
CGA:  60    -0.669430793101E+03   -0.48199E-04    0.10698E-05  8424   0.285E-04 0.192E-04
CGA:  61    -0.669430858610E+03   -0.65509E-04    0.72136E-06  8424   0.286E-04 0.188E-04
CGA:  62    -0.669430907123E+03   -0.48513E-04    0.10710E-05  8424   0.289E-04 0.183E-04
CGA:  63    -0.669430971869E+03   -0.64746E-04    0.75597E-06  8424   0.294E-04 0.177E-04
CGA:  64    -0.669431020425E+03   -0.48557E-04    0.11384E-05  8424   0.301E-04 0.168E-04
CGA:  65    -0.669431084605E+03   -0.64179E-04    0.83761E-06  8424   0.312E-04 0.156E-04
CGA:  66    -0.669431133003E+03   -0.48398E-04    0.13124E-05  8424   0.326E-04 0.141E-04
CGA:  67    -0.669431248056E+03   -0.11505E-03    0.11213E-05  8424   0.306E-04 0.470E-04
CGA:  68    -0.669431312359E+03   -0.64303E-04    0.86461E-06  8424   0.319E-04 0.139E-04
CGA:  69    -0.669431427125E+03   -0.11477E-03    0.10754E-05  8424   0.300E-04 0.461E-04
CGA:  70    -0.669431473174E+03   -0.46049E-04    0.12854E-05  8424   0.315E-04 0.136E-04
CGA:  71    -0.669431586823E+03   -0.11365E-03    0.10529E-05  8424   0.295E-04 0.454E-04
CGA:  72    -0.669431651793E+03   -0.64970E-04    0.78667E-06  8424   0.307E-04 0.135E-04
CGA:  73    -0.669431764646E+03   -0.11285E-03    0.10117E-05  8424   0.290E-04 0.445E-04
CGA:  74    -0.669431808560E+03   -0.43914E-04    0.12644E-05  8424   0.302E-04 0.133E-04
CGA:  75    -0.669431920304E+03   -0.11174E-03    0.98722E-06  8424   0.285E-04 0.437E-04
CGA:  76    -0.669431985745E+03   -0.65441E-04    0.72344E-06  8424   0.295E-04 0.132E-04
CGA:  77    -0.669432096401E+03   -0.11066E-03    0.95086E-06  8424   0.281E-04 0.428E-04
CGA:  78    -0.669432138452E+03   -0.42051E-04    0.12433E-05  8424   0.290E-04 0.130E-04
CGA:  79    -0.669432248049E+03   -0.10960E-03    0.92723E-06  8424   0.277E-04 0.421E-04
CGA:  80    -0.669432313716E+03   -0.65667E-04    0.67154E-06  8424   0.282E-04 0.129E-04
CGA:  81    -0.669432422114E+03   -0.10840E-03    0.89524E-06  8424   0.272E-04 0.412E-04
CGA:  82    -0.669432462592E+03   -0.40478E-04    0.12181E-05  8424   0.278E-04 0.128E-04
CGA:  83    -0.669432569956E+03   -0.10736E-03    0.87416E-06  8424   0.268E-04 0.405E-04
CGA:  84    -0.669432635596E+03   -0.65640E-04    0.62808E-06  8424   0.271E-04 0.127E-04
CGA:  85    -0.669432741792E+03   -0.10620E-03    0.84561E-06  8424   0.264E-04 0.397E-04
CGA:  86    -0.669432780974E+03   -0.39182E-04    0.11863E-05  8424   0.266E-04 0.126E-04
CGA:  87    -0.669432886105E+03   -0.10513E-03    0.82795E-06  8424   0.260E-04 0.391E-04
CGA:  88    -0.669432951481E+03   -0.65377E-04    0.59077E-06  8424   0.260E-04 0.126E-04
CGA:  89    -0.669433055566E+03   -0.10408E-03    0.80190E-06  8424   0.256E-04 0.383E-04
CGA:  90    -0.669433093709E+03   -0.38143E-04    0.11466E-05  8424   0.255E-04 0.125E-04
CGA:  91    -0.669433196640E+03   -0.10293E-03    0.78782E-06  8424   0.253E-04 0.378E-04
CGA:  92    -0.669433261535E+03   -0.64894E-04    0.55777E-06  8424   0.249E-04 0.126E-04
CGA:  93    -0.669433363579E+03   -0.10204E-03    0.76354E-06  8424   0.249E-04 0.371E-04
CGA:  94    -0.669433400934E+03   -0.37355E-04    0.10973E-05  8424   0.245E-04 0.125E-04
CGA:  95    -0.669433464928E+03   -0.63994E-04    0.52868E-06  8424   0.242E-04 0.127E-04
CGA:  96    -0.669433502970E+03   -0.38041E-04    0.99890E-06  8424   0.239E-04 0.129E-04
CGA:  97    -0.669433565752E+03   -0.62782E-04    0.51323E-06  8424   0.236E-04 0.130E-04
CGA:  98    -0.669433604522E+03   -0.38770E-04    0.92268E-06  8424   0.234E-04 0.131E-04
CGA:  99    -0.669433666119E+03   -0.61597E-04    0.50202E-06  8424   0.232E-04 0.132E-04
CGA: 100    -0.669433705545E+03   -0.39427E-04    0.86580E-06  8424   0.231E-04 0.132E-04
CGA: 101    -0.669433766076E+03   -0.60530E-04    0.49769E-06  8424   0.230E-04 0.132E-04
CGA: 102    -0.669433806007E+03   -0.39931E-04    0.83409E-06  8424   0.230E-04 0.131E-04
CGA: 103    -0.669433865644E+03   -0.59637E-04    0.50319E-06  8424   0.231E-04 0.129E-04
CGA: 104    -0.669433905891E+03   -0.40247E-04    0.83168E-06  8424   0.233E-04 0.126E-04
CGA: 105    -0.669433964820E+03   -0.58929E-04    0.52253E-06  8424   0.235E-04 0.123E-04
CGA: 106    -0.669434005194E+03   -0.40373E-04    0.86585E-06  8424   0.239E-04 0.118E-04
CGA: 107    -0.669434063585E+03   -0.58392E-04    0.56320E-06  8424   0.245E-04 0.113E-04
CGA: 108    -0.669434164013E+03   -0.10043E-03    0.72130E-06  8424   0.237E-04 0.359E-04
CGA: 109    -0.669434203525E+03   -0.39513E-04    0.90436E-06  8424   0.243E-04 0.112E-04
CGA: 110    -0.669434302751E+03   -0.99225E-04    0.71624E-06  8424   0.234E-04 0.355E-04
CGA: 111    -0.669434361412E+03   -0.58661E-04    0.53243E-06  8424   0.239E-04 0.111E-04
CGA: 112    -0.669434460309E+03   -0.98898E-04    0.70266E-06  8424   0.232E-04 0.352E-04
CGA: 113    -0.669434498278E+03   -0.37969E-04    0.90566E-06  8424   0.237E-04 0.110E-04
CGA: 114    -0.669434596166E+03   -0.97888E-04    0.69671E-06  8424   0.229E-04 0.348E-04
CGA: 115    -0.669434654946E+03   -0.58780E-04    0.50712E-06  8424   0.233E-04 0.110E-04
CGA: 116    -0.669434752171E+03   -0.97225E-04    0.68379E-06  8424   0.227E-04 0.344E-04
CGA: 117    -0.669434788787E+03   -0.36616E-04    0.90673E-06  8424   0.231E-04 0.109E-04
CGA: 118    -0.669434885111E+03   -0.96323E-04    0.67812E-06  8424   0.225E-04 0.341E-04
CGA: 119    -0.669434943870E+03   -0.58760E-04    0.48601E-06  8424   0.227E-04 0.110E-04
CGA: 120    -0.669435039418E+03   -0.95547E-04    0.66603E-06  8424   0.223E-04 0.337E-04
CGA: 121    -0.669435074847E+03   -0.35430E-04    0.90703E-06  8424   0.225E-04 0.109E-04
CGA: 122    -0.669435169517E+03   -0.94669E-04    0.66148E-06  8424   0.221E-04 0.334E-04
CGA: 123    -0.669435228145E+03   -0.58628E-04    0.46826E-06  8424   0.221E-04 0.109E-04
CGA: 124    -0.669435322066E+03   -0.93921E-04    0.65000E-06  8424   0.219E-04 0.330E-04
CGA: 125    -0.669435356443E+03   -0.34377E-04    0.90695E-06  8424   0.220E-04 0.109E-04
CGA: 126    -0.669435449447E+03   -0.93004E-04    0.64712E-06  8424   0.217E-04 0.328E-04
CGA: 127    -0.669435507861E+03   -0.58414E-04    0.45327E-06  8424   0.216E-04 0.109E-04
CGA: 128    -0.669435541932E+03   -0.34071E-04    0.89227E-06  8424   0.216E-04 0.109E-04
CGA: 129    -0.669435599592E+03   -0.57659E-04    0.45440E-06  8424   0.215E-04 0.109E-04
CGA: 130    -0.669435634061E+03   -0.34469E-04    0.86739E-06  8424   0.215E-04 0.109E-04
CGA: 131    -0.669435690920E+03   -0.56859E-04    0.45802E-06  8424   0.215E-04 0.108E-04
CGA: 132    -0.669435725767E+03   -0.34847E-04    0.85173E-06  8424   0.215E-04 0.107E-04
CGA: 133    -0.669435816963E+03   -0.91196E-04    0.63636E-06  8424   0.213E-04 0.322E-04
CGA: 134    -0.669435873393E+03   -0.56430E-04    0.45423E-06  8424   0.212E-04 0.108E-04
CGA: 135    -0.669435907946E+03   -0.34553E-04    0.83884E-06  8424   0.213E-04 0.107E-04
CGA: 136    -0.669435963538E+03   -0.55592E-04    0.45923E-06  8424   0.213E-04 0.107E-04
CGA: 137    -0.669435998462E+03   -0.34924E-04    0.83068E-06  8424   0.214E-04 0.105E-04
[...]
CGA:  12    -0.669605878967E+03    0.12792E-04   -0.16113E-04  8424   0.301E-03 0.313E-03
CGA:  13    -0.669605865035E+03    0.13932E-04   -0.12944E-04  8424   0.279E-03 0.288E-03
CGA:  14    -0.669605850781E+03    0.14254E-04   -0.10756E-04  8424   0.262E-03 0.269E-03
CGA:  15    -0.669605836612E+03    0.14169E-04   -0.91441E-05  8424   0.248E-03 0.253E-03
CGA:  16    -0.669605822745E+03    0.13867E-04   -0.79022E-05  8424   0.236E-03 0.240E-03
CGA:  17    -0.669605809298E+03    0.13447E-04   -0.69141E-05  8424   0.226E-03 0.230E-03
CGA:  18    -0.669605796335E+03    0.12963E-04   -0.61085E-05  8424   0.217E-03 0.221E-03
CGA:  19    -0.669605783886E+03    0.12449E-04   -0.54393E-05  8424   0.210E-03 0.213E-03
CGA:  20    -0.669605771961E+03    0.11924E-04   -0.48752E-05  8424   0.203E-03 0.206E-03
CGA:  21    -0.669605760561E+03    0.11400E-04   -0.43938E-05  8424   0.197E-03 0.199E-03
CGA:  22    -0.669605749675E+03    0.10886E-04   -0.39789E-05  8424   0.192E-03 0.194E-03
CGA:  23    -0.669605739291E+03    0.10384E-04   -0.36182E-05  8424   0.187E-03 0.189E-03
CGA:  24    -0.669605729392E+03    0.98997E-05   -0.33025E-05  8424   0.182E-03 0.184E-03
  29 F= -.66960573E+03 E0= -.66960573E+03  d E =0.168658E-01  mag=     0.0000
       N       E                     dE             d eps       ncg     rms          ort
SDA:   1    -0.668903945692E+03    0.70179E+00    0.00000E+00  8424   0.234E+01 0.000E+00
CGA:   2    -0.669370122454E+03   -0.46618E+00   -0.46484E+00  8424   0.931E+00 0.114E-01
CGA:   3    -0.669568841131E+03   -0.19872E+00   -0.19823E+00  8424   0.318E+00 0.371E-02
CGA:   4    -0.669621815828E+03   -0.52975E-01   -0.52805E-01  8424   0.777E-01 0.233E-02
CGA:   5    -0.669635217898E+03   -0.13402E-01   -0.13323E-01  8424   0.151E-01 0.108E-02
CGA:   6    -0.669638190916E+03   -0.29730E-02   -0.28975E-02  8424   0.328E-02 0.856E-03
CGA:   7    -0.669638722645E+03   -0.53173E-03   -0.48474E-03  8424   0.978E-03 0.138E-02
CGA:   8    -0.669638811495E+03   -0.88850E-04   -0.11297E-03  8424   0.529E-03 0.916E-03
CGA:   9    -0.669638819926E+03   -0.84310E-05   -0.30580E-04  8424   0.401E-03 0.458E-03
CGA:  10    -0.669638817329E+03    0.25969E-05   -0.18545E-04  8424   0.338E-03 0.367E-03
CGA:  11    -0.669638811045E+03    0.62840E-05   -0.13238E-04  8424   0.298E-03 0.316E-03
CGA:  12    -0.669638803282E+03    0.77635E-05   -0.10205E-04  8424   0.270E-03 0.282E-03
  30 F= -.66963880E+03 E0= -.66963880E+03  d E =-.330739E-01  mag=     0.0000
       N       E                     dE             d eps       ncg     rms          ort
SDA:   1    -0.669078632663E+03    0.56018E+00    0.00000E+00  8424   0.168E+01 0.000E+00
CGA:   2    -0.669466685029E+03   -0.38805E+00   -0.38740E+00  8424   0.753E+00 0.448E-02
CGA:   3    -0.669611488685E+03   -0.14480E+00   -0.14420E+00  8424   0.206E+00 0.635E-02
CGA:   4    -0.669646699455E+03   -0.35211E-01   -0.35155E-01  8424   0.525E-01 0.809E-03
CGA:   5    -0.669655967109E+03   -0.92677E-02   -0.93441E-02  8424   0.111E-01-0.109E-02
CGA:   6    -0.669658116340E+03   -0.21492E-02   -0.21484E-02  8424   0.251E-02 0.768E-05
CGA:   7    -0.669658537314E+03   -0.42097E-03   -0.38842E-03  8424   0.685E-03 0.812E-03
CGA:   8    -0.669658607949E+03   -0.70635E-04   -0.84142E-04  8424   0.362E-03 0.576E-03
CGA:   9    -0.669658619539E+03   -0.11590E-04   -0.25216E-04  8424   0.258E-03 0.300E-03
CGA:  10    -0.669658620480E+03   -0.94140E-06   -0.14252E-04  8424   0.211E-03 0.231E-03
  31 F= -.66965862E+03 E0= -.66965862E+03  d E =-.198172E-01  mag=     0.0000
       N       E                     dE             d eps       ncg     rms          ort
SDA:   1    -0.668974840064E+03    0.68378E+00    0.00000E+00  8424   0.195E+01 0.000E+00
CGA:   2    -0.669437656369E+03   -0.46282E+00   -0.46250E+00  8424   0.881E+00 0.220E-02
CGA:   3    -0.669605129566E+03   -0.16747E+00   -0.16707E+00  8424   0.237E+00 0.511E-02
CGA:   4    -0.669645786619E+03   -0.40657E-01   -0.40650E-01  8424   0.612E-01 0.916E-04
CGA:   5    -0.669656529446E+03   -0.10743E-01   -0.10844E-01  8424   0.129E-01-0.178E-02
CGA:   6    -0.669659082408E+03   -0.25530E-02   -0.26251E-02  8424   0.329E-02-0.831E-03
CGA:   7    -0.669659722536E+03   -0.64013E-03   -0.62326E-03  8424   0.892E-03 0.222E-03
CGA:   8    -0.669659904063E+03   -0.18153E-03   -0.16684E-03  8424   0.268E-03 0.330E-03
CGA:   9    -0.669659959921E+03   -0.55858E-04   -0.53588E-04  8424   0.118E-03 0.172E-03
CGA:  10    -0.669659995183E+03   -0.35262E-04   -0.28918E-04  8424   0.616E-04 0.569E-04
CGA:  11    -0.669660009821E+03   -0.14638E-04   -0.13815E-04  8424   0.406E-04 0.687E-04
CGA:  12    -0.669660012446E+03   -0.26255E-05   -0.40529E-05  8424   0.326E-04 0.357E-04
  32 F= -.66966001E+03 E0= -.66966001E+03  d E =-.139197E-02  mag=     0.0000
       N       E                     dE             d eps       ncg     rms          ort
SDA:   1    -0.668807373373E+03    0.85264E+00    0.00000E+00  8424   0.260E+01 0.000E+00
CGA:   2    -0.669356920201E+03   -0.54955E+00   -0.54907E+00  8424   0.110E+01 0.561E-02
CGA:   3    -0.669585573462E+03   -0.22865E+00   -0.22860E+00  8424   0.345E+00 0.619E-03
CGA:   4    -0.669642923207E+03   -0.57350E-01   -0.57345E-01  8424   0.836E-01 0.136E-03
CGA:   5    -0.669657362486E+03   -0.14439E-01   -0.14451E-01  8424   0.168E-01-0.438E-03
CGA:   6    -0.669660780486E+03   -0.34180E-02   -0.34553E-02  8424   0.414E-02-0.611E-03
CGA:   7    -0.669661680127E+03   -0.89964E-03   -0.90640E-03  8424   0.125E-02-0.863E-04
CGA:   8    -0.669661982418E+03   -0.30229E-03   -0.30501E-03  8424   0.380E-03-0.284E-04
CGA:   9    -0.669662088120E+03   -0.10570E-03   -0.15344E-03  8424   0.357E-03-0.187E-03
CGA:  10    -0.669661652146E+03    0.43597E-03   -0.23689E-03  8424   0.260E-02-0.707E-03
CGA:  11    -0.669662162883E+03   -0.51074E-03   -0.50477E-03  8424   0.501E-03-0.517E-04
CGA:  12    -0.669662323659E+03   -0.16078E-03   -0.16033E-03  8424   0.151E-03 0.201E-04
CGA:  13    -0.669662384562E+03   -0.60903E-04   -0.97677E-04  8424   0.388E-03-0.117E-03
CGA:  14    -0.669662436838E+03   -0.52276E-04   -0.55340E-04  8424   0.431E-04 0.171E-04
CGA:  15    -0.669662443971E+03   -0.71327E-05   -0.31984E-04  8424   0.183E-03-0.626E-04
CGA:  16    -0.669662493338E+03   -0.49367E-04   -0.44703E-04  8424   0.688E-04-0.530E-04
CGA:  17    -0.669662502006E+03   -0.86687E-05   -0.86757E-05  8424   0.189E-04-0.368E-07
  33 F= -.66966250E+03 E0= -.66966250E+03  d E =-.248956E-02  mag=     0.0000
       N       E                     dE             d eps       ncg     rms          ort
SDA:   1    -0.651585389167E+03    0.18077E+02    0.00000E+00  8424   0.582E+02 0.000E+00
CGA:   2    -0.662931895966E+03   -0.11347E+02   -0.11451E+02  8424   0.232E+02-0.241E-01
CGA:   3    -0.667814182804E+03   -0.48823E+01   -0.48705E+01  8424   0.719E+01 0.470E-02
CGA:   4    -0.669026800125E+03   -0.12126E+01   -0.12137E+01  8424   0.182E+01 0.333E-02
CGA:   5    -0.669335394803E+03   -0.30859E+00   -0.30955E+00  8424   0.378E+00 0.428E-02
CGA:   6    -0.669410678716E+03   -0.75284E-01   -0.75368E-01  8424   0.852E-01 0.103E-02
CGA:   7    -0.669429496098E+03   -0.18817E-01   -0.18913E-01  8424   0.254E-01 0.136E-02
CGA:   8    -0.669435668801E+03   -0.61727E-02   -0.62117E-02  8424   0.764E-02 0.840E-03
CGA:   9    -0.669437690154E+03   -0.20214E-02   -0.20339E-02  8424   0.259E-02 0.461E-03
CGA:  10    -0.669438246950E+03   -0.55680E-03   -0.61069E-03  8424   0.968E-03 0.886E-03
CGA:  11    -0.669438403346E+03   -0.15640E-03   -0.22718E-03  8424   0.448E-03 0.670E-03
CGA:  12    -0.669438429410E+03   -0.26064E-04   -0.66540E-04  8424   0.269E-03 0.319E-03
CGA:  13    -0.669438415273E+03    0.14137E-04   -0.27219E-04  8424   0.227E-03 0.247E-03
CGA:  14    -0.669438398032E+03    0.17241E-04   -0.19902E-04  8424   0.203E-03 0.215E-03
CGA:  15    -0.669438379709E+03    0.18323E-04   -0.15652E-04  8424   0.186E-03 0.195E-03
CGA:  16    -0.669438361279E+03    0.18430E-04   -0.12896E-04  8424   0.174E-03 0.180E-03
CGA:  17    -0.669438343182E+03    0.18097E-04   -0.10948E-04  8424   0.165E-03 0.169E-03
CGA:  18    -0.669438325625E+03    0.17557E-04   -0.94868E-05  8424   0.157E-03 0.161E-03
CGA:  19    -0.669438308705E+03    0.16920E-04   -0.83446E-05  8424   0.151E-03 0.154E-03
CGA:  20    -0.669438292462E+03    0.16243E-04   -0.74247E-05  8424   0.145E-03 0.148E-03
CGA:  21    -0.669438276906E+03    0.15556E-04   -0.66657E-05  8424   0.141E-03 0.143E-03
CGA:  22    -0.669438262030E+03    0.14876E-04   -0.60279E-05  8424   0.137E-03 0.139E-03
CGA:  23    -0.669438247818E+03    0.14212E-04   -0.54837E-05  8424   0.133E-03 0.135E-03
CGA:  24    -0.669438234248E+03    0.13570E-04   -0.50157E-05  8424   0.130E-03 0.132E-03
CGA:  25    -0.669438221294E+03    0.12954E-04   -0.46080E-05  8424   0.128E-03 0.129E-03
CGA:  26    -0.669438208931E+03    0.12363E-04   -0.42490E-05  8424   0.125E-03 0.126E-03
CGA:  27    -0.669438197132E+03    0.11798E-04   -0.39306E-05  8424   0.123E-03 0.124E-03
CGA:  28    -0.669438185873E+03    0.11259E-04   -0.36473E-05  8424   0.121E-03 0.122E-03
CGA:  29    -0.669438175126E+03    0.10747E-04   -0.33938E-05  8424   0.119E-03 0.120E-03
CGA:  30    -0.669438164868E+03    0.10258E-04   -0.31653E-05  8424   0.118E-03 0.118E-03
CGA:  31    -0.669438155075E+03    0.97930E-05   -0.29583E-05  8424   0.116E-03 0.117E-03
  34 F= -.66943816E+03 E0= -.66943816E+03  d E =0.224347E+00  mag=    -0.0000
       N       E                     dE             d eps       ncg     rms          ort
SDA:   1    -0.666920183844E+03    0.25180E+01    0.00000E+00  8424   0.869E+01 0.000E+00
CGA:   2    -0.668664831544E+03   -0.17446E+01   -0.17419E+01  8424   0.346E+01 0.321E-01
CGA:   3    -0.669393693934E+03   -0.72886E+00   -0.72900E+00  8424   0.112E+01-0.229E-02
CGA:   4    -0.669581230027E+03   -0.18754E+00   -0.18748E+00  8424   0.283E+00 0.127E-02
CGA:   5    -0.669630343799E+03   -0.49114E-01   -0.49077E-01  8424   0.575E-01 0.845E-03
CGA:   6    -0.669641717832E+03   -0.11374E-01   -0.11378E-01  8424   0.129E-01-0.678E-04
CGA:   7    -0.669644413636E+03   -0.26958E-02   -0.26131E-02  8424   0.343E-02 0.129E-02
CGA:   8    -0.669645145599E+03   -0.73196E-03   -0.68606E-03  8424   0.953E-03 0.114E-02
CGA:   9    -0.669645300866E+03   -0.15527E-03   -0.16473E-03  8424   0.424E-03 0.684E-03
CGA:  10    -0.669645322352E+03   -0.21486E-04   -0.38895E-04  8424   0.290E-03 0.341E-03
CGA:  11    -0.669645323628E+03   -0.12756E-05   -0.20031E-04  8424   0.243E-03 0.263E-03
CGA:  12    -0.669645319862E+03    0.37655E-05   -0.14097E-04  8424   0.215E-03 0.227E-03
CGA:  13    -0.669645314030E+03    0.58316E-05   -0.10912E-04  8424   0.196E-03 0.204E-03
  35 F= -.66964531E+03 E0= -.66964531E+03  d E =-.207159E+00  mag=    -0.0000
       N       E                     dE             d eps       ncg     rms          ort
SDA:   1    -0.668133364204E+03    0.15120E+01    0.00000E+00  8424   0.498E+01 0.000E+00
CGA:   2    -0.669134823893E+03   -0.10015E+01   -0.10000E+01  8424   0.199E+01 0.170E-01
CGA:   3    -0.669553594129E+03   -0.41877E+00   -0.41871E+00  8424   0.649E+00 0.328E-03
CGA:   4    -0.669662120832E+03   -0.10853E+00   -0.10849E+00  8424   0.162E+00 0.771E-03
CGA:   5    -0.669690306997E+03   -0.28186E-01   -0.28170E-01  8424   0.331E-01 0.373E-03
CGA:   6    -0.669696855392E+03   -0.65484E-02   -0.65437E-02  8424   0.742E-02 0.707E-04
CGA:   7    -0.669698388946E+03   -0.15336E-02   -0.14827E-02  8424   0.194E-02 0.843E-03
CGA:   8    -0.669698785483E+03   -0.39654E-03   -0.37386E-03  8424   0.565E-03 0.742E-03
CGA:   9    -0.669698865476E+03   -0.79993E-04   -0.91735E-04  8424   0.266E-03 0.448E-03
CGA:  10    -0.669698875497E+03   -0.10020E-04   -0.22635E-04  8424   0.189E-03 0.220E-03
CGA:  11    -0.669698874871E+03    0.62567E-06   -0.12234E-04  8424   0.159E-03 0.172E-03
  36 F= -.66969887E+03 E0= -.66969887E+03  d E =-.535608E-01  mag=     0.0000
       N       E                     dE             d eps       ncg     rms          ort
SDA:   1    -0.669600738232E+03    0.98137E-01    0.00000E+00  8424   0.311E+00 0.000E+00
CGA:   2    -0.669665817420E+03   -0.65079E-01   -0.65011E-01  8424   0.134E+00 0.839E-03
CGA:   3    -0.669693044077E+03   -0.27227E-01   -0.27144E-01  8424   0.411E-01 0.121E-02
CGA:   4    -0.669699919693E+03   -0.68756E-02   -0.68629E-02  8424   0.100E-01 0.472E-03
CGA:   5    -0.669701668835E+03   -0.17491E-02   -0.17419E-02  8424   0.205E-02 0.228E-03
CGA:   6    -0.669702038775E+03   -0.36994E-03   -0.36016E-03  8424   0.425E-03 0.327E-03
CGA:   7    -0.669702082842E+03   -0.44067E-04   -0.53516E-04  8424   0.175E-03 0.273E-03
CGA:   8    -0.669702083723E+03   -0.88051E-06   -0.11661E-04  8424   0.121E-03 0.144E-03
  37 F= -.66970208E+03 E0= -.66970208E+03  d E =-.320885E-02  mag=     0.0000
       N       E                     dE             d eps       ncg     rms          ort
SDA:   1    -0.668987667025E+03    0.71442E+00    0.00000E+00  8424   0.196E+01 0.000E+00
CGA:   2    -0.669464771899E+03   -0.47710E+00   -0.47689E+00  8424   0.938E+00 0.174E-02
CGA:   3    -0.669641063812E+03   -0.17629E+00   -0.17620E+00  8424   0.240E+00 0.178E-02
CGA:   4    -0.669681244244E+03   -0.40180E-01   -0.40180E-01  8424   0.599E-01-0.420E-04
CGA:   5    -0.669691750922E+03   -0.10507E-01   -0.10527E-01  8424   0.127E-01-0.614E-03
CGA:   6    -0.669694248856E+03   -0.24979E-02   -0.25031E-02  8424   0.291E-02-0.956E-04
CGA:   7    -0.669694835440E+03   -0.58658E-03   -0.56668E-03  8424   0.802E-03 0.407E-03
CGA:   8    -0.669694987009E+03   -0.15157E-03   -0.14712E-03  8424   0.282E-03 0.385E-03
CGA:   9    -0.669695025859E+03   -0.38850E-04   -0.47648E-04  8424   0.144E-03 0.245E-03
CGA:  10    -0.669695035068E+03   -0.92092E-05   -0.14672E-04  8424   0.102E-03 0.118E-03
  38 F= -.66969504E+03 E0= -.66969504E+03  d E =0.704865E-02  mag=     0.0000
       N       E                     dE             d eps       ncg     rms          ort
SDA:   1    -0.669634406599E+03    0.60619E-01    0.00000E+00  8424   0.202E+00 0.000E+00
CGA:   2    -0.669677624439E+03   -0.43218E-01   -0.43202E-01  8424   0.906E-01 0.198E-03
CGA:   3    -0.669696145040E+03   -0.18521E-01   -0.18484E-01  8424   0.267E-01 0.618E-03
CGA:   4    -0.669700449298E+03   -0.43043E-02   -0.42999E-02  8424   0.605E-02 0.393E-03
CGA:   5    -0.669701487311E+03   -0.10380E-02   -0.10325E-02  8424   0.122E-02 0.293E-03
CGA:   6    -0.669701710514E+03   -0.22320E-03   -0.21824E-03  8424   0.261E-03 0.243E-03
CGA:   7    -0.669701744854E+03   -0.34339E-04   -0.38638E-04  8424   0.100E-03 0.154E-03
CGA:   8    -0.669701747662E+03   -0.28083E-05   -0.81906E-05  8424   0.658E-04 0.789E-04
  39 F= -.66970175E+03 E0= -.66970175E+03  d E =-.671259E-02  mag=     0.0000
       N       E                     dE             d eps       ncg     rms          ort
SDA:   1    -0.667134387779E+03    0.25674E+01    0.00000E+00  8424   0.712E+01 0.000E+00
CGA:   2    -0.668852547827E+03   -0.17182E+01   -0.17173E+01  8424   0.338E+01 0.723E-02
CGA:   3    -0.669494348417E+03   -0.64180E+00   -0.64196E+00  8424   0.863E+00-0.379E-02
CGA:   4    -0.669636061009E+03   -0.14171E+00   -0.14168E+00  8424   0.213E+00 0.171E-02
CGA:   5    -0.669673063855E+03   -0.37003E-01   -0.36947E-01  8424   0.438E-01 0.241E-02
CGA:   6    -0.669681841107E+03   -0.87773E-02   -0.87331E-02  8424   0.985E-02 0.955E-03
CGA:   7    -0.669684062825E+03   -0.22217E-02   -0.21857E-02  8424   0.298E-02 0.566E-03
CGA:   8    -0.669684794656E+03   -0.73183E-03   -0.69670E-03  8424   0.903E-03 0.545E-03
CGA:   9    -0.669685001218E+03   -0.20656E-03   -0.19630E-03  8424   0.346E-03 0.432E-03
CGA:  10    -0.669685046052E+03   -0.44834E-04   -0.59745E-04  8424   0.202E-03 0.336E-03
CGA:  11    -0.669685050748E+03   -0.46958E-05   -0.17344E-04  8424   0.152E-03 0.173E-03
CGA:  12    -0.669685049676E+03    0.10719E-05   -0.10786E-04  8424   0.130E-03 0.140E-03
  40 F= -.66968505E+03 E0= -.66968505E+03  d E =0.166980E-01  mag=     0.0000
       N       E                     dE             d eps       ncg     rms          ort
SDA:   1    -0.668793941532E+03    0.89111E+00    0.00000E+00  8424   0.282E+01 0.000E+00
CGA:   2    -0.669382274566E+03   -0.58833E+00   -0.58791E+00  8424   0.120E+01 0.611E-02
CGA:   3    -0.669631549359E+03   -0.24927E+00   -0.24926E+00  8424   0.373E+00-0.177E-04
CGA:   4    -0.669692525021E+03   -0.60976E-01   -0.60976E-01  8424   0.907E-01-0.104E-03
CGA:   5    -0.669708358343E+03   -0.15833E-01   -0.15836E-01  8424   0.188E-01-0.134E-03
CGA:   6    -0.669712094099E+03   -0.37358E-02   -0.37360E-02  8424   0.426E-02-0.812E-05
CGA:   7    -0.669712963528E+03   -0.86943E-03   -0.85168E-03  8424   0.111E-02 0.408E-03
CGA:   8    -0.669713202087E+03   -0.23856E-03   -0.22866E-03  8424   0.307E-03 0.342E-03
CGA:   9    -0.669713248872E+03   -0.46785E-04   -0.52845E-04  8424   0.133E-03 0.214E-03
CGA:  10    -0.669713254365E+03   -0.54931E-05   -0.12415E-04  8424   0.892E-04 0.106E-03
  41 F= -.66971325E+03 E0= -.66971325E+03  d E =-.282047E-01  mag=     0.0000
       N       E                     dE             d eps       ncg     rms          ort
SDA:   1    -0.669285379735E+03    0.42787E+00    0.00000E+00  8424   0.121E+01 0.000E+00
CGA:   2    -0.669572679827E+03   -0.28730E+00   -0.28719E+00  8424   0.565E+00 0.119E-02
CGA:   3    -0.669679674572E+03   -0.10699E+00   -0.10696E+00  8424   0.147E+00 0.904E-03
CGA:   4    -0.669704276267E+03   -0.24602E-01   -0.24604E-01  8424   0.373E-01-0.303E-03
CGA:   5    -0.669710849442E+03   -0.65732E-02   -0.65830E-02  8424   0.799E-02-0.514E-03
CGA:   6    -0.669712419635E+03   -0.15702E-02   -0.15756E-02  8424   0.185E-02-0.131E-03
CGA:   7    -0.669712798234E+03   -0.37860E-03   -0.37142E-03  8424   0.521E-03 0.163E-03
CGA:   8    -0.669712906464E+03   -0.10823E-03   -0.10436E-03  8424   0.160E-03 0.182E-03
CGA:   9    -0.669712935846E+03   -0.29382E-04   -0.31368E-04  8424   0.744E-04 0.109E-03
CGA:  10    -0.669712945425E+03   -0.95792E-05   -0.10641E-04  8424   0.454E-04 0.531E-04
  42 F= -.66971295E+03 E0= -.66971295E+03  d E =0.308940E-03  mag=     0.0000
       N       E                     dE             d eps       ncg     rms          ort
SDA:   1    -0.655613524233E+03    0.14099E+02    0.00000E+00  8424   0.456E+02 0.000E+00
CGA:   2    -0.664257627542E+03   -0.86441E+01   -0.86275E+01  8424   0.176E+02 0.379E+00
CGA:   3    -0.668110275661E+03   -0.38526E+01   -0.38571E+01  8424   0.596E+01-0.699E-01
CGA:   4    -0.669100452491E+03   -0.99018E+00   -0.99015E+00  8424   0.147E+01 0.405E-02
CGA:   5    -0.669348293348E+03   -0.24784E+00   -0.24781E+00  8424   0.303E+00 0.634E-02
CGA:   6    -0.669408979887E+03   -0.60687E-01   -0.60723E-01  8424   0.698E-01-0.103E-02
CGA:   7    -0.669424112537E+03   -0.15133E-01   -0.15066E-01  8424   0.199E-01 0.130E-02
CGA:   8    -0.669428990754E+03   -0.48782E-02   -0.48520E-02  8424   0.578E-02 0.366E-03
CGA:   9    -0.669430626288E+03   -0.16355E-02   -0.17018E-02  8424   0.232E-02-0.565E-03
CGA:  10    -0.669431179086E+03   -0.55280E-03   -0.53324E-03  8424   0.843E-03 0.254E-03
CGA:  11    -0.669431502610E+03   -0.32352E-03   -0.35632E-03  8424   0.503E-03-0.166E-03
CGA:  12    -0.669431615262E+03   -0.11265E-03   -0.11078E-03  8424   0.240E-03 0.211E-04
CGA:  13    -0.669431711041E+03   -0.95779E-04   -0.11580E-03  8424   0.264E-03-0.771E-04
CGA:  14    -0.669431774433E+03   -0.63392E-04   -0.98756E-04  8424   0.426E-03-0.110E-03
CGA:  15    -0.669431840076E+03   -0.65643E-04   -0.64447E-04  8424   0.342E-03 0.258E-04
CGA:  16    -0.669431921708E+03   -0.81632E-04   -0.81819E-04  8424   0.181E-03 0.885E-04
CGA:  17    -0.669431972505E+03   -0.50796E-04   -0.51070E-04  8424   0.104E-03 0.717E-04
CGA:  18    -0.669431994092E+03   -0.21587E-04   -0.25588E-04  8424   0.658E-04 0.772E-04
CGA:  19    -0.669431999019E+03   -0.49275E-05   -0.91748E-05  8424   0.420E-04 0.497E-04
