       N       E                     dE             d eps       ncg     rms          ort
DAV:   1     0.826206215135E+04    0.82621E+04   -0.24653E+05  8424   0.238E+03
DAV:   2     0.918815019439E+03   -0.73432E+04   -0.68930E+04  8424   0.656E+02
DAV:   3    -0.673664171916E+03   -0.15925E+04   -0.13999E+04  8424   0.282E+02
DAV:   4    -0.830011652697E+03   -0.15635E+03   -0.15361E+03  8424   0.858E+01
DAV:   5    -0.832523471403E+03   -0.25118E+01   -0.25007E+01  8424   0.122E+01
SDA:   6    -0.260422947094E+03    0.57210E+03   -0.25007E+01  8424   0.395E+04 0.000E+00
CGA:   7    -0.601331479067E+03   -0.34091E+03   -0.42217E+03  8424   0.516E+03 0.962E+02
CGA:   8    -0.630676678579E+03   -0.29345E+02   -0.26387E+02  8424   0.205E+03 0.209E+03
CGA:   9    -0.634976950811E+03   -0.43003E+01   -0.20247E+02  8424   0.551E+03-0.865E+02
CGA:  10    -0.647545678790E+03   -0.12569E+02   -0.66823E+01  8424   0.219E+03 0.296E+02
CGA:  11    -0.651389196437E+03   -0.38435E+01   -0.14305E+02  8424   0.138E+03-0.861E+02
CGA:  12    -0.652889187486E+03   -0.15000E+01   -0.62982E+01  8424   0.109E+03-0.235E+02
CGA:  13    -0.657448141225E+03   -0.45590E+01   -0.47225E+01  8424   0.119E+03-0.352E+02
CGA:  14    -0.661431155084E+03   -0.39830E+01   -0.44808E+01  8424   0.898E+02-0.974E+00
CGA:  15    -0.661564318954E+03   -0.13316E+00   -0.36605E+01  8424   0.149E+03-0.824E+02
CGA:  16    -0.661150031117E+03    0.41429E+00   -0.89698E+01  8424   0.144E+03-0.673E+02
CGA:  17    -0.666060336163E+03   -0.49103E+01   -0.38220E+01  8424   0.326E+02-0.140E+02
CGA:  18    -0.666099568016E+03   -0.39232E-01   -0.99671E+00  8424   0.693E+02-0.211E+02
CGA:  19    -0.665343011355E+03    0.75656E+00   -0.39100E+01  8424   0.466E+02-0.177E+02
CGA:  20    -0.666549202283E+03   -0.12062E+01   -0.67420E+00  8424   0.280E+02 0.292E+02
CGA:  21    -0.667344919283E+03   -0.79572E+00   -0.41745E+00  8424   0.885E+01 0.196E+02
CGA:  22    -0.667538898461E+03   -0.19398E+00   -0.15324E+00  8424   0.194E+01 0.178E+01
CGA:  23    -0.667724168021E+03   -0.18527E+00   -0.18795E+00  8424   0.849E+01-0.130E-01
CGA:  24    -0.667943012176E+03   -0.21884E+00   -0.19386E+00  8424   0.739E+01 0.995E+00
CGA:  25    -0.667891456998E+03    0.51555E-01   -0.21828E+00  8424   0.626E+01-0.811E+01
CGA:  26    -0.668142378653E+03   -0.25092E+00   -0.34693E+00  8424   0.249E+01-0.675E+00
CGA:  27    -0.668312030248E+03   -0.16965E+00   -0.17743E+00  8424   0.103E+01 0.975E-01
CGA:  28    -0.668372451868E+03   -0.60422E-01   -0.66496E-01  8424   0.455E+00 0.742E-02
CGA:  29    -0.668451254588E+03   -0.78803E-01   -0.71388E-01  8424   0.279E+00 0.985E-01
CGA:  30    -0.668508954049E+03   -0.57699E-01   -0.56652E-01  8424   0.352E+00 0.145E-01
CGA:  31    -0.668567559427E+03   -0.58605E-01   -0.60667E-01  8424   0.228E+00-0.489E-01
CGA:  32    -0.668589774553E+03   -0.22215E-01   -0.22137E-01  8424   0.112E+00 0.430E-02
CGA:  33    -0.668606328977E+03   -0.16554E-01   -0.16527E-01  8424   0.866E-01-0.155E-02
CGA:  34    -0.668626567663E+03   -0.20239E-01   -0.19155E-01  8424   0.690E-01 0.593E-02
CGA:  35    -0.668640670163E+03   -0.14103E-01   -0.15569E-01  8424   0.115E+00-0.151E-01
CGA:  36    -0.668606738323E+03    0.33932E-01   -0.32345E-01  8424   0.912E+00-0.331E+00
CGA:  37    -0.668682990977E+03   -0.76253E-01   -0.75680E-01  8424   0.124E+00-0.372E-01
CGA:  38    -0.668710146084E+03   -0.27155E-01   -0.30189E-01  8424   0.199E+00-0.237E-01
CGA:  39    -0.668764039313E+03   -0.53893E-01   -0.59703E-01  8424   0.250E+00-0.237E-01
CGA:  40    -0.668812616641E+03   -0.48577E-01   -0.50820E-01  8424   0.165E+00-0.307E-01
CGA:  41    -0.668832962828E+03   -0.20346E-01   -0.71779E-01  8424   0.752E+00-0.166E+00
CGA:  42    -0.668904379442E+03   -0.71417E-01   -0.73228E-01  8424   0.107E+00-0.186E-01
CGA:  43    -0.668924946888E+03   -0.20567E-01   -0.20806E-01  8424   0.801E-01-0.652E-02
CGA:  44    -0.668950754068E+03   -0.25807E-01   -0.36961E-01  8424   0.162E+00-0.345E-01
CGA:  45    -0.668972238157E+03   -0.21484E-01   -0.27670E-01  8424   0.114E+00-0.523E-01
CGA:  46    -0.668992849016E+03   -0.20611E-01   -0.25321E-01  8424   0.157E+00-0.346E-01
CGA:  47    -0.668952216741E+03    0.40632E-01   -0.74892E-01  8424   0.919E+00-0.265E+00
CGA:  48    -0.669085052840E+03   -0.13284E+00   -0.13340E+00  8424   0.203E+00-0.172E-01
CGA:  49    -0.669137584292E+03   -0.52531E-01   -0.52785E-01  8424   0.666E-01-0.452E-02
CGA:  50    -0.669165002330E+03   -0.27418E-01   -0.28446E-01  8424   0.743E-01-0.422E-02
CGA:  51    -0.669182633384E+03   -0.17631E-01   -0.17709E-01  8424   0.258E-01-0.255E-02
CGA:  52    -0.669191222792E+03   -0.85894E-02   -0.89742E-02  8424   0.144E-01-0.286E-02
CGA:  53    -0.669195937135E+03   -0.47143E-02   -0.58916E-02  8424   0.201E-01-0.533E-02
CGA:  54    -0.669200513669E+03   -0.45765E-02   -0.62730E-02  8424   0.248E-01-0.688E-02
CGA:  55    -0.669205574807E+03   -0.50611E-02   -0.75150E-02  8424   0.198E-01-0.124E-01
CGA:  56    -0.669196332036E+03    0.92428E-02   -0.10329E-01  8424   0.692E-01-0.253E-01
CGA:  57    -0.669210316938E+03   -0.13985E-01   -0.14076E-01  8424   0.187E-01 0.105E-02
CGA:  58    -0.669217013809E+03   -0.66969E-02   -0.66517E-02  8424   0.133E-01 0.926E-03
CGA:  59    -0.669222203684E+03   -0.51899E-02   -0.51744E-02  8424   0.880E-02 0.325E-03
CGA:  60    -0.669226389344E+03   -0.41857E-02   -0.39939E-02  8424   0.481E-02 0.146E-02
CGA:  61    -0.669228671861E+03   -0.22825E-02   -0.25054E-02  8424   0.569E-02-0.170E-02
CGA:  62    -0.669229779479E+03   -0.11076E-02   -0.10927E-02  8424   0.270E-02-0.588E-03
CGA:  63    -0.669230650722E+03   -0.87124E-03   -0.94809E-03  8424   0.428E-02-0.113E-02
CGA:  64    -0.669206345308E+03    0.24305E-01   -0.13145E-01  8424   0.108E+00-0.176E-01
CGA:  65    -0.669229700741E+03   -0.23355E-01   -0.23919E-01  8424   0.281E-01 0.206E-02
CGA:  66    -0.669238073413E+03   -0.83727E-02   -0.79176E-02  8424   0.830E-02-0.164E-02
CGA:  67    -0.669241007582E+03   -0.29342E-02   -0.28379E-02  8424   0.533E-02-0.480E-03
CGA:  68    -0.669244246359E+03   -0.32388E-02   -0.41832E-02  8424   0.185E-01-0.338E-02
CGA:  69    -0.669247116818E+03   -0.28705E-02   -0.29329E-02  8424   0.240E-02 0.228E-03
CGA:  70    -0.669248419933E+03   -0.13031E-02   -0.12885E-02  8424   0.329E-02-0.120E-02
CGA:  71    -0.669249083710E+03   -0.66378E-03   -0.66613E-03  8424   0.973E-03 0.836E-05
CGA:  72    -0.669250183475E+03   -0.10998E-02    0.35535E-02  8424   0.206E-02-0.460E-03
CGA:  73    -0.669252670070E+03   -0.24866E-02    0.24142E-03  8424   0.344E-02 0.872E-04
CGA:  74    -0.669257497500E+03   -0.48274E-02    0.33609E-02  8424   0.624E-02-0.965E-03
CGA:  75    -0.669264506875E+03   -0.70094E-02    0.24296E-02  8424   0.144E-01-0.714E-02
CGA:  76    -0.669267507837E+03   -0.30010E-02   -0.30817E-02  8424   0.403E-02 0.304E-03
CGA:  77    -0.669269132104E+03   -0.16243E-02   -0.14388E-02  8424   0.320E-02-0.117E-02
CGA:  78    -0.669253717081E+03    0.15415E-01   -0.81418E-02  8424   0.967E-01-0.855E-02
CGA:  79    -0.669270173628E+03   -0.16457E-01   -0.16151E-01  8424   0.185E-01-0.571E-02
CGA:  80    -0.669276149398E+03   -0.59758E-02   -0.58529E-02  8424   0.655E-02-0.138E-03
CGA:  81    -0.669280309030E+03   -0.41596E-02   -0.37899E-02  8424   0.544E-02-0.141E-02
CGA:  82    -0.669282217195E+03   -0.19082E-02   -0.13447E-02  8424   0.272E-02-0.105E-02
CGA:  83    -0.669283974213E+03   -0.17570E-02   -0.12579E-02  8424   0.604E-02-0.213E-02
CGA:  84    -0.669285233467E+03   -0.12593E-02   -0.11707E-02  8424   0.156E-02-0.116E-03
CGA:  85    -0.669286367936E+03   -0.11345E-02   -0.88653E-03  8424   0.439E-02-0.131E-02
CGA:  86    -0.669287231972E+03   -0.86404E-03   -0.77171E-03  8424   0.775E-03-0.142E-03
CGA:  87    -0.669285143470E+03    0.20885E-02   -0.12353E-02  8424   0.340E-01-0.364E-02
CGA:  88    -0.669290190172E+03   -0.50467E-02   -0.50920E-02  8424   0.305E-02 0.701E-03
CGA:  89    -0.669291228964E+03   -0.10388E-02   -0.79482E-03  8424   0.553E-03-0.503E-03
CGA:  90    -0.669292473294E+03   -0.12443E-02    0.19157E-03  8424   0.820E-03-0.254E-04
CGA:  91    -0.669295576797E+03   -0.31035E-02    0.16114E-03  8424   0.282E-02-0.582E-07
CGA:  92    -0.669308077320E+03   -0.12501E-01    0.49058E-03  8424   0.169E-02 0.137E-02
CGA:  93    -0.669316972679E+03   -0.88954E-02    0.62400E-03  8424   0.254E-02 0.143E-03
CGA:  94    -0.669331628334E+03   -0.14656E-01    0.36762E-03  8424   0.596E-02 0.480E-03
CGA:  95    -0.669366882270E+03   -0.35254E-01    0.10441E-02  8424   0.177E-01-0.458E-02
CGA:  96    -0.669370217101E+03   -0.33348E-02   -0.32041E-02  8424   0.278E-02-0.500E-03
CGA:  97    -0.669370735855E+03   -0.51875E-03   -0.59118E-03  8424   0.510E-03 0.158E-03
CGA:  98    -0.669371053213E+03   -0.31736E-03   -0.31916E-03  8424   0.381E-03 0.182E-04
CGA:  99    -0.669371225134E+03   -0.17192E-03   -0.17082E-03  8424   0.542E-03-0.940E-05
CGA: 100    -0.669371430296E+03   -0.20516E-03   -0.21256E-03  8424   0.384E-03 0.101E-04
CGA: 101    -0.669371977555E+03   -0.54726E-03    0.14038E-02  8424   0.605E-03 0.662E-04
CGA: 102    -0.669358216789E+03    0.13761E-01   -0.72802E-02  8424   0.120E+00-0.531E-02
CGA: 103    -0.669375274530E+03   -0.17058E-01   -0.15991E-01  8424   0.702E-02 0.657E-02
CGA: 104    -0.669378160112E+03   -0.28856E-02   -0.26370E-02  8424   0.338E-02-0.340E-03
CGA: 105    -0.669378916821E+03   -0.75671E-03   -0.85847E-03  8424   0.179E-02 0.866E-04
CGA: 106    -0.669379116811E+03   -0.19999E-03   -0.62092E-03  8424   0.308E-02 0.277E-03
CGA: 107    -0.669361192929E+03    0.17924E-01   -0.39496E-03  8424   0.673E-01 0.577E-02
CGA: 108    -0.669279646074E+03    0.81547E-01   -0.18303E-01  8424   0.375E+00 0.503E-01
CGA: 109    -0.669267534676E+03    0.12111E-01   -0.16241E+00  8424   0.267E+00 0.831E-01
CGA: 110    -0.669182410276E+03    0.85124E-01   -0.94616E-01  8424   0.336E+00 0.155E+00
CGA: 111    -0.669243549161E+03   -0.61139E-01   -0.14129E+00  8424   0.244E+00 0.174E+00
CGA: 112    -0.669357606030E+03   -0.11406E+00   -0.14059E+00  8424   0.949E-01 0.892E-02
CGA: 113    -0.669364284437E+03   -0.66784E-02   -0.17356E-01  8424   0.243E-01-0.157E-02
CGA: 114    -0.669378220496E+03   -0.13936E-01   -0.10371E-01  8424   0.112E-01-0.249E-02
CGA: 115    -0.669379453136E+03   -0.12326E-02   -0.24684E-02  8424   0.771E-02 0.726E-03
CGA: 116    -0.669381645930E+03   -0.21928E-02   -0.25171E-02  8424   0.147E-02-0.129E-02
CGA: 117    -0.669382062518E+03   -0.41659E-03   -0.26842E-03  8424   0.141E-02-0.239E-03
CGA: 118    -0.669382752616E+03   -0.69010E-03   -0.11424E-02  8424   0.269E-02-0.132E-02
CGA: 119    -0.669383525309E+03   -0.77269E-03   -0.68500E-03  8424   0.843E-03-0.194E-03
CGA: 120    -0.669383990311E+03   -0.46500E-03   -0.41843E-03  8424   0.785E-03-0.270E-03
CGA: 121    -0.669384393507E+03   -0.40320E-03   -0.30241E-03  8424   0.173E-02-0.686E-03
CGA: 122    -0.669384707832E+03   -0.31433E-03   -0.28331E-03  8424   0.360E-03-0.647E-04
CGA: 123    -0.669384936821E+03   -0.22899E-03   -0.23298E-03  8424   0.766E-03-0.267E-03
CGA: 124    -0.669385222934E+03   -0.28611E-03   -0.16643E-03  8424   0.333E-03-0.273E-03
CGA: 125    -0.669385359332E+03   -0.13640E-03   -0.10710E-03  8424   0.563E-03-0.214E-03
CGA: 126    -0.669385538086E+03   -0.17875E-03   -0.10897E-03  8424   0.176E-03-0.161E-03
CGA: 127    -0.668954518681E+03    0.43102E+00   -0.54211E-01  8424   0.597E-01-0.349E-02
CGA: 128    -0.669303251380E+03   -0.34873E+00   -0.32670E-01  8424   0.717E+00-0.193E+00
CGA: 129    -0.669384916067E+03   -0.81665E-01   -0.71860E-01  8424   0.175E-01 0.100E+00
CGA: 130    -0.669387257921E+03   -0.23419E-02   -0.23336E-02  8424   0.140E-02 0.213E-03
CGA: 131    -0.669387639867E+03   -0.38195E-03   -0.28459E-03  8424   0.186E-03-0.128E-03
CGA: 132    -0.669387727381E+03   -0.87515E-04   -0.61484E-04  8424   0.176E-03-0.465E-04
CGA: 133    -0.669388100833E+03   -0.37345E-03    0.11222E-03  8424   0.124E-02-0.242E-03
CGA: 134    -0.669388389696E+03   -0.28886E-03   -0.21500E-03  8424   0.237E-03-0.103E-03
CGA: 135    -0.669388553379E+03   -0.16368E-03   -0.10528E-03  8424   0.380E-03-0.148E-03
CGA: 136    -0.669388717372E+03   -0.16399E-03   -0.81746E-04  8424   0.167E-03-0.128E-03
CGA: 137    -0.669388120510E+03    0.59686E-03   -0.23409E-03  8424   0.926E-02-0.645E-03
CGA: 138    -0.669389598566E+03   -0.14781E-02   -0.12898E-02  8424   0.589E-03-0.365E-03
CGA: 139    -0.669389757653E+03   -0.15909E-03   -0.13188E-03  8424   0.914E-04-0.441E-04
CGA: 140    -0.669390056949E+03   -0.29930E-03    0.30387E-04  8424   0.354E-03-0.615E-04
CGA: 141    -0.669390109752E+03   -0.52804E-04   -0.58140E-04  8424   0.835E-04 0.871E-05
CGA: 142    -0.669390352398E+03   -0.24265E-03    0.42743E-04  8424   0.269E-03-0.586E-04
CGA: 143    -0.669390467524E+03   -0.11513E-03   -0.81831E-04  8424   0.164E-03-0.686E-04
CGA: 144    -0.669390786311E+03   -0.31879E-03    0.66260E-04  8424   0.105E-02-0.207E-03
CGA: 145    -0.669390898073E+03   -0.11176E-03   -0.14504E-03  8424   0.130E-03 0.570E-04
CGA: 146    -0.669390654515E+03    0.24356E-03   -0.24002E-03  8424   0.259E-02-0.480E-03
CGA: 147    -0.669391476427E+03   -0.82191E-03   -0.75750E-03  8424   0.368E-03-0.131E-03
CGA: 148    -0.669391702812E+03   -0.22639E-03   -0.13939E-03  8424   0.484E-03-0.241E-03
CGA: 149    -0.669391754823E+03   -0.52011E-04   -0.65446E-04  8424   0.593E-04 0.237E-04
CGA: 150    -0.669391950759E+03   -0.19594E-03    0.18305E-04  8424   0.102E-03 0.875E-05
CGA: 151    -0.669392530485E+03   -0.57973E-03    0.16970E-04  8424   0.372E-03 0.328E-04
CGA: 152    -0.669394925094E+03   -0.23946E-02    0.72349E-04  8424   0.537E-03 0.325E-03
CGA: 153    -0.669395132489E+03   -0.20739E-03   -0.16266E-03  8424   0.157E-03-0.110E-03
CGA: 154    -0.669390780619E+03    0.43519E-02   -0.23729E-02  8424   0.330E-01-0.130E-02
CGA: 155    -0.669395869965E+03   -0.50893E-02   -0.50187E-02  8424   0.303E-02-0.963E-03
CGA: 156    -0.669396666649E+03   -0.79668E-03   -0.85441E-03  8424   0.427E-03 0.667E-04
CGA: 157    -0.669396859923E+03   -0.19327E-03   -0.14032E-03  8424   0.134E-03-0.669E-04
CGA: 158    -0.669396903202E+03   -0.43279E-04   -0.49276E-04  8424   0.319E-03-0.198E-05
CGA: 159    -0.669395683238E+03    0.12200E-02   -0.50868E-04  8424   0.439E-02 0.421E-03
CGA: 160    -0.669384683460E+03    0.11000E-01   -0.10189E-02  8424   0.468E-01 0.510E-02
CGA: 161    -0.669372489470E+03    0.12194E-01   -0.18768E-01  8424   0.662E-01 0.144E-01
CGA: 162    -0.669188292868E+03    0.18420E+00   -0.15132E-01  8424   0.560E+00 0.115E+00
CGA: 163    -0.669261520795E+03   -0.73228E-01   -0.25718E+00  8424   0.300E+00 0.157E+00
CGA: 164    -0.669302873303E+03   -0.41353E-01   -0.15302E+00  8424   0.157E+00 0.117E+00
CGA: 165    -0.669350017648E+03   -0.47144E-01   -0.81895E-01  8424   0.878E-01 0.634E-01
CGA: 166    -0.669325050126E+03    0.24968E-01   -0.32776E-01  8424   0.116E+00 0.734E-01
CGA: 167    -0.669371093807E+03   -0.46044E-01   -0.56244E-01  8424   0.811E-01 0.138E-01
CGA: 168    -0.669385665096E+03   -0.14571E-01   -0.18340E-01  8424   0.351E-01-0.125E-02
CGA: 169    -0.669394675131E+03   -0.90100E-02   -0.13934E-01  8424   0.886E-02 0.278E-02
CGA: 170    -0.669396677878E+03   -0.20027E-02   -0.36885E-02  8424   0.222E-02-0.804E-03
CGA: 171    -0.669397206876E+03   -0.52900E-03   -0.39870E-03  8424   0.156E-02-0.270E-03
CGA: 172    -0.669397876424E+03   -0.66955E-03   -0.64145E-03  8424   0.119E-02-0.309E-03
CGA: 173    -0.669398147563E+03   -0.27114E-03   -0.18697E-03  8424   0.785E-03-0.157E-03
CGA: 174    -0.669398612272E+03   -0.46471E-03   -0.48966E-03  8424   0.234E-02-0.623E-03
CGA: 175    -0.669399002489E+03   -0.39022E-03   -0.42364E-03  8424   0.408E-03 0.211E-04
CGA: 176    -0.669399268225E+03   -0.26574E-03   -0.26209E-03  8424   0.105E-02-0.258E-03
CGA: 177    -0.669399374514E+03   -0.10629E-03   -0.13238E-03  8424   0.116E-03 0.508E-04
CGA: 178    -0.669399538259E+03   -0.16374E-03    0.50740E-03  8424   0.220E-03 0.117E-05
CGA: 179    -0.669399933738E+03   -0.39548E-03    0.16620E-03  8424   0.503E-03-0.182E-03
CGA: 180    -0.669400008213E+03   -0.74475E-04   -0.89405E-04  8424   0.156E-03 0.333E-04
CGA: 181    -0.669400221480E+03   -0.21327E-03    0.85227E-03  8424   0.141E-03-0.300E-04
CGA: 182    -0.669400506512E+03   -0.28503E-03    0.32001E-04  8424   0.261E-03-0.243E-04
CGA: 183    -0.669400969004E+03   -0.46249E-03    0.84741E-04  8424   0.600E-03-0.162E-03
CGA: 184    -0.669401181989E+03   -0.21299E-03   -0.16305E-03  8424   0.484E-03-0.150E-03
CGA: 185    -0.669401379300E+03   -0.19731E-03   -0.17297E-03  8424   0.450E-03-0.222E-03
CGA: 186    -0.669401520209E+03   -0.14091E-03   -0.15057E-03  8424   0.792E-03-0.274E-03
CGA: 187    -0.669401811775E+03   -0.29157E-03   -0.19756E-03  8424   0.532E-03-0.282E-03
CGA: 188    -0.669401992440E+03   -0.18067E-03   -0.16783E-03  8424   0.352E-03-0.170E-03
CGA: 189    -0.669402078655E+03   -0.86215E-04   -0.68473E-04  8424   0.239E-03-0.653E-04
CGA: 190    -0.669402399042E+03   -0.32039E-03    0.10702E-03  8424   0.267E-03-0.599E-04
CGA: 191    -0.669402781621E+03   -0.38258E-03    0.73956E-04  8424   0.339E-03-0.390E-04
CGA: 192    -0.669403402941E+03   -0.62132E-03    0.83204E-04  8424   0.553E-03-0.274E-04
CGA: 193    -0.669404565087E+03   -0.11621E-02    0.12918E-03  8424   0.101E-02-0.178E-03
CGA: 194    -0.669406904331E+03   -0.23392E-02    0.89141E-04  8424   0.115E-02 0.517E-04
CGA: 195    -0.669409862843E+03   -0.29585E-02    0.26709E-03  8424   0.164E-02-0.167E-03
CGA: 196    -0.669414256728E+03   -0.43939E-02    0.20650E-03  8424   0.360E-02-0.127E-02
CGA: 197    -0.669414873116E+03   -0.61639E-03   -0.64693E-03  8424   0.836E-03 0.756E-04
CGA: 198    -0.669415092546E+03   -0.21943E-03   -0.22512E-03  8424   0.984E-04 0.214E-04
CGA: 199    -0.669415212612E+03   -0.12007E-03    0.17353E-03  8424   0.119E-03-0.131E-04
CGA: 200    -0.669415234523E+03   -0.21912E-04   -0.30012E-04  8424   0.711E-04 0.347E-04
   1 F= -.66941523E+03 E0= -.66941523E+03  d E =-.669415E+03  mag=     2.0000
       N       E                     dE             d eps       ncg     rms          ort
SDA:   1    -0.669422116384E+03   -0.69038E-02    0.00000E+00  8424   0.110E-01 0.000E+00
CGA:   2    -0.669423678405E+03   -0.15620E-02   -0.17322E-02  8424   0.321E-02 0.461E-03
CGA:   3    -0.669424499134E+03   -0.82073E-03   -0.80464E-03  8424   0.146E-02-0.599E-04
CGA:   4    -0.669424806601E+03   -0.30747E-03   -0.26451E-03  8424   0.489E-03-0.137E-03
CGA:   5    -0.669424918371E+03   -0.11177E-03   -0.87489E-04  8424   0.172E-03-0.851E-04
CGA:   6    -0.669424897372E+03    0.20999E-04   -0.11640E-03  8424   0.184E-02-0.393E-03
CGA:   7    -0.669425134721E+03   -0.23735E-03   -0.23878E-03  8424   0.218E-03 0.350E-05
CGA:   8    -0.669425231151E+03   -0.96430E-04   -0.87819E-04  8424   0.250E-03-0.129E-03
CGA:   9    -0.669425282648E+03   -0.51497E-04   -0.45246E-04  8424   0.612E-04-0.221E-04
CGA:  10    -0.669425375126E+03   -0.92478E-04    0.15118E-04  8424   0.826E-04-0.125E-04
CGA:  11    -0.669425587043E+03   -0.21192E-03    0.57805E-05  8424   0.745E-04 0.395E-04
CGA:  12    -0.669425848521E+03   -0.26148E-03    0.15286E-04  8424   0.844E-04 0.354E-04
CGA:  13    -0.669426219473E+03   -0.37095E-03    0.12251E-04  8424   0.956E-04 0.538E-04
CGA:  14    -0.669426319819E+03   -0.10035E-03    0.13417E-03  8424   0.854E-04-0.328E-04
CGA:  15    -0.669426449038E+03   -0.12922E-03    0.81847E-05  8424   0.103E-03-0.419E-05
CGA:  16    -0.669426740281E+03   -0.29124E-03    0.95539E-05  8424   0.808E-04 0.485E-04
CGA:  17    -0.669427031533E+03   -0.29125E-03    0.15744E-04  8424   0.728E-04 0.218E-04
CGA:  18    -0.669427367793E+03   -0.33626E-03    0.68950E-05  8424   0.825E-04 0.599E-04
CGA:  19    -0.669427471186E+03   -0.10339E-03    0.48157E-04  8424   0.117E-03-0.401E-04
CGA:  20    -0.669427628540E+03   -0.15735E-03    0.72142E-05  8424   0.148E-03-0.280E-04
CGA:  21    -0.669427951193E+03   -0.32265E-03    0.11642E-04  8424   0.210E-03 0.160E-04
CGA:  22    -0.669428553596E+03   -0.60240E-03    0.28153E-04  8424   0.235E-03-0.748E-05
CGA:  23    -0.669429275626E+03   -0.72203E-03    0.20216E-04  8424   0.148E-03 0.798E-04
CGA:  24    -0.669429813290E+03   -0.53766E-03    0.22434E-04  8424   0.220E-03 0.719E-05
CGA:  25    -0.669430731200E+03   -0.91791E-03    0.15365E-04  8424   0.241E-03 0.446E-04
CGA:  26    -0.669431838984E+03   -0.11078E-02    0.20322E-04  8424   0.349E-03 0.545E-04
CGA:  27    -0.669433541563E+03   -0.17026E-02    0.28340E-04  8424   0.371E-03-0.847E-05
CGA:  28    -0.669435604272E+03   -0.20627E-02    0.15419E-04  8424   0.404E-03 0.891E-04
CGA:  29    -0.669437926195E+03   -0.23219E-02    0.27356E-04  8424   0.423E-03-0.142E-03
CGA:  30    -0.669440345239E+03   -0.24190E-02    0.70733E-05  8424   0.440E-03-0.159E-03
CGA:  31    -0.669443116786E+03   -0.27715E-02    0.60976E-05  8424   0.476E-03-0.213E-03
CGA:  32    -0.669446129022E+03   -0.30122E-02    0.43991E-05  8424   0.508E-03-0.480E-03
CGA:  33    -0.669446164276E+03   -0.35254E-04   -0.88584E-04  8424   0.147E-03 0.192E-03
CGA:  34    -0.669446164982E+03   -0.70585E-06   -0.32306E-04  8424   0.800E-04 0.113E-03
CGA:  35    -0.669446167537E+03   -0.25552E-05   -0.15141E-04  8424   0.536E-04 0.533E-04
   2 F= -.66944617E+03 E0= -.66944617E+03  d E =-.309330E-01  mag=     2.0000
       N       E                     dE             d eps       ncg     rms          ort
SDA:   1    -0.669211338050E+03    0.23483E+00    0.00000E+00  8424   0.107E+01 0.000E+00
CGA:   2    -0.669423159947E+03   -0.21182E+00   -0.21203E+00  8424   0.425E+00 0.533E-03
CGA:   3    -0.669512893912E+03   -0.89734E-01   -0.89760E-01  8424   0.142E+00 0.144E-03
CGA:   4    -0.669536337566E+03   -0.23444E-01   -0.23479E-01  8424   0.355E-01 0.130E-03
CGA:   5    -0.669542450906E+03   -0.61133E-02   -0.61324E-02  8424   0.729E-02 0.910E-04
CGA:   6    -0.669543857202E+03   -0.14063E-02   -0.14223E-02  8424   0.165E-02 0.966E-04
CGA:   7    -0.669544165910E+03   -0.30871E-03   -0.33654E-03  8424   0.464E-03 0.188E-03
CGA:   8    -0.669544232138E+03   -0.66228E-04   -0.94122E-04  8424   0.152E-03 0.174E-03
CGA:   9    -0.669544231785E+03    0.35275E-06   -0.26109E-04  8424   0.840E-04 0.126E-03
   3 F= -.66954423E+03 E0= -.66954423E+03  d E =-.980642E-01  mag=     2.0000
       N       E                     dE             d eps       ncg     rms          ort
SDA:   1    -0.659390083781E+03    0.10154E+02    0.00000E+00  8424   0.330E+02 0.000E+00
CGA:   2    -0.665966073990E+03   -0.65760E+01   -0.66030E+01  8424   0.134E+02 0.173E-01
CGA:   3    -0.668781963141E+03   -0.28159E+01   -0.28120E+01  8424   0.425E+01-0.245E-02
CGA:   4    -0.669487745077E+03   -0.70578E+00   -0.70628E+00  8424   0.107E+01 0.723E-03
CGA:   5    -0.669670125712E+03   -0.18238E+00   -0.18264E+00  8424   0.223E+00 0.109E-02
CGA:   6    -0.669714350846E+03   -0.44225E-01   -0.44149E-01  8424   0.508E-01-0.820E-03
CGA:   7    -0.669725326845E+03   -0.10976E-01   -0.11030E-01  8424   0.150E-01 0.804E-03
CGA:   8    -0.669728945643E+03   -0.36188E-02   -0.36359E-02  8424   0.440E-02 0.407E-03
CGA:   9    -0.669730145696E+03   -0.12001E-02   -0.12014E-02  8424   0.154E-02 0.101E-03
CGA:  10    -0.669730562715E+03   -0.41702E-03   -0.42005E-03  8424   0.615E-03 0.276E-03
CGA:  11    -0.669730779575E+03   -0.21686E-03   -0.21432E-03  8424   0.271E-03 0.142E-03
CGA:  12    -0.669730846302E+03   -0.66727E-04   -0.75320E-04  8424   0.146E-03 0.162E-03
CGA:  13    -0.669730882773E+03   -0.36471E-04   -0.37887E-04  8424   0.879E-04 0.870E-04
CGA:  14    -0.669730913554E+03   -0.30782E-04   -0.27772E-04  8424   0.779E-04 0.729E-04
CGA:  15    -0.669730931329E+03   -0.17774E-04   -0.19545E-04  8424   0.720E-04 0.669E-04
CGA:  16    -0.669730957710E+03   -0.26381E-04   -0.23401E-04  8424   0.742E-04 0.602E-04
CGA:  17    -0.669730971983E+03   -0.14273E-04   -0.16927E-04  8424   0.714E-04 0.525E-04
CGA:  18    -0.669730992147E+03   -0.20164E-04   -0.19977E-04  8424   0.811E-04 0.449E-04
CGA:  19    -0.669731007322E+03   -0.15175E-04   -0.17419E-04  8424   0.771E-04 0.362E-04
CGA:  20    -0.669731047917E+03   -0.40594E-04   -0.35592E-04  8424   0.718E-04 0.106E-03
CGA:  21    -0.669731069483E+03   -0.21566E-04   -0.21207E-04  8424   0.108E-03 0.175E-04
CGA:  22    -0.669731162288E+03   -0.92805E-04   -0.65821E-04  8424   0.581E-04 0.120E-03
CGA:  23    -0.669731164750E+03   -0.24619E-05   -0.83266E-05  8424   0.450E-04 0.406E-04
CGA:  24    -0.669731298644E+03   -0.13389E-03   -0.97252E-04  8424   0.319E-03 0.231E-04
CGA:  25    -0.669731311805E+03   -0.13161E-04   -0.32953E-04  8424   0.400E-04 0.484E-04
CGA:  26    -0.669731317195E+03   -0.53895E-05   -0.11916E-04  8424   0.711E-04 0.277E-04
CGA:  27    -0.669731327474E+03   -0.10279E-04   -0.53027E-04  8424   0.121E-02-0.161E-03
CGA:  28    -0.669731404258E+03   -0.76784E-04   -0.12164E-03  8424   0.422E-04 0.114E-03
CGA:  29    -0.669731404137E+03    0.12108E-06   -0.78600E-05  8424   0.459E-04 0.262E-04
CGA:  30    -0.669731460319E+03   -0.56182E-04    0.30781E-04  8424   0.136E-03 0.371E-05
CGA:  31    -0.669731615640E+03   -0.15532E-03    0.21906E-03  8424   0.860E-04 0.138E-03
CGA:  32    -0.669731611911E+03    0.37285E-05   -0.89651E-05  8424   0.323E-04 0.358E-04
   4 F= -.66973161E+03 E0= -.66973161E+03  d E =-.187380E+00  mag=     2.0000
       N       E                     dE             d eps       ncg     rms          ort
SDA:   1    -0.669229659245E+03    0.50196E+00    0.00000E+00  8424   0.163E+01 0.000E+00
CGA:   2    -0.669563675376E+03   -0.33402E+00   -0.33429E+00  8424   0.673E+00 0.450E-03
CGA:   3    -0.669703336449E+03   -0.13966E+00   -0.13958E+00  8424   0.213E+00-0.331E-03
CGA:   4    -0.669738367878E+03   -0.35031E-01   -0.35069E-01  8424   0.535E-01 0.110E-03
CGA:   5    -0.669747567227E+03   -0.91993E-02   -0.92478E-02  8424   0.110E-01 0.207E-03
CGA:   6    -0.669749737885E+03   -0.21707E-02   -0.21738E-02  8424   0.251E-02 0.152E-04
CGA:   7    -0.669750263730E+03   -0.52584E-03   -0.54146E-03  8424   0.747E-03 0.979E-04
CGA:   8    -0.669750427921E+03   -0.16419E-03   -0.17690E-03  8424   0.226E-03 0.915E-04
CGA:   9    -0.669750478598E+03   -0.50677E-04   -0.59053E-04  8424   0.915E-04 0.659E-04
CGA:  10    -0.669750485817E+03   -0.72182E-05   -0.20203E-04  8424   0.572E-04 0.709E-04
   5 F= -.66975049E+03 E0= -.66975049E+03  d E =-.188739E-01  mag=     2.0000
       N       E                     dE             d eps       ncg     rms          ort
SDA:   1    -0.669666147178E+03    0.84331E-01    0.00000E+00  8424   0.287E+00 0.000E+00
CGA:   2    -0.669724781292E+03   -0.58634E-01   -0.58653E-01  8424   0.116E+00 0.755E-04
CGA:   3    -0.669749196614E+03   -0.24415E-01   -0.24420E-01  8424   0.392E-01 0.171E-04
CGA:   4    -0.669755694094E+03   -0.64975E-02   -0.65210E-02  8424   0.973E-02 0.146E-03
CGA:   5    -0.669757310498E+03   -0.16164E-02   -0.16387E-02  8424   0.188E-02 0.151E-03
CGA:   6    -0.669757670154E+03   -0.35966E-03   -0.37003E-03  8424   0.446E-03 0.911E-04
CGA:   7    -0.669757747218E+03   -0.77064E-04   -0.88607E-04  8424   0.138E-03 0.103E-03
CGA:   8    -0.669757758407E+03   -0.11190E-04   -0.24651E-04  8424   0.649E-04 0.894E-04
CGA:   9    -0.669757757644E+03    0.76323E-06   -0.76730E-05  8424   0.433E-04 0.496E-04
   6 F= -.66975776E+03 E0= -.66975776E+03  d E =-.727183E-02  mag=     2.0000
       N       E                     dE             d eps       ncg     rms          ort
SDA:   1    -0.669344723572E+03    0.41303E+00    0.00000E+00  8424   0.125E+01 0.000E+00
CGA:   2    -0.669617091364E+03   -0.27237E+00   -0.27246E+00  8424   0.567E+00 0.725E-03
CGA:   3    -0.669734648330E+03   -0.11756E+00   -0.11753E+00  8424   0.176E+00-0.259E-03
CGA:   4    -0.669763579725E+03   -0.28931E-01   -0.28960E-01  8424   0.403E-01 0.280E-03
CGA:   5    -0.669770260723E+03   -0.66810E-02   -0.67049E-02  8424   0.783E-02 0.245E-03
CGA:   6    -0.669771879431E+03   -0.16187E-02   -0.16195E-02  8424   0.197E-02 0.154E-04
CGA:   7    -0.669772302938E+03   -0.42351E-03   -0.42695E-03  8424   0.562E-03 0.961E-04
CGA:   8    -0.669772423520E+03   -0.12058E-03   -0.12503E-03  8424   0.169E-03 0.115E-03
CGA:   9    -0.669772457852E+03   -0.34332E-04   -0.39148E-04  8424   0.755E-04 0.851E-04
CGA:  10    -0.669772463770E+03   -0.59178E-05   -0.11145E-04  8424   0.466E-04 0.531E-04
   7 F= -.66977246E+03 E0= -.66977246E+03  d E =-.147061E-01  mag=     2.0000
       N       E                     dE             d eps       ncg     rms          ort
SDA:   1    -0.662924211860E+03    0.68482E+01    0.00000E+00  8424   0.224E+02 0.000E+00
CGA:   2    -0.667144501639E+03   -0.42203E+01   -0.42327E+01  8424   0.852E+01 0.850E-01
CGA:   3    -0.669009039419E+03   -0.18645E+01   -0.18640E+01  8424   0.294E+01-0.195E-01
CGA:   4    -0.669500974020E+03   -0.49193E+00   -0.49217E+00  8424   0.723E+00 0.440E-03
CGA:   5    -0.669621359937E+03   -0.12039E+00   -0.12051E+00  8424   0.147E+00 0.113E-02
CGA:   6    -0.669650991260E+03   -0.29631E-01   -0.29609E-01  8424   0.343E-01-0.881E-03
CGA:   7    -0.669658590771E+03   -0.75995E-02   -0.75993E-02  8424   0.100E-01-0.111E-03
CGA:   8    -0.669661090473E+03   -0.24997E-02   -0.25099E-02  8424   0.311E-02-0.378E-03
CGA:   9    -0.669661999760E+03   -0.90929E-03   -0.10175E-02  8424   0.186E-02-0.946E-03
CGA:  10    -0.669662301352E+03   -0.30159E-03   -0.65444E-03  8424   0.271E-02-0.129E-02
CGA:  11    -0.669662904218E+03   -0.60287E-03   -0.58756E-03  8424   0.868E-03-0.547E-03
CGA:  12    -0.669663105740E+03   -0.20152E-03   -0.31331E-03  8424   0.113E-02-0.538E-03
CGA:  13    -0.669663391698E+03   -0.28596E-03   -0.28401E-03  8424   0.106E-02-0.759E-03
CGA:  14    -0.669663511521E+03   -0.11982E-03   -0.12517E-03  8424   0.632E-04 0.392E-04
CGA:  15    -0.669663627900E+03   -0.11638E-03    0.31309E-05  8424   0.619E-04 0.540E-04
CGA:  16    -0.669663752877E+03   -0.12498E-03    0.24874E-05  8424   0.614E-04 0.414E-04
CGA:  17    -0.669663848908E+03   -0.96031E-04    0.35134E-05  8424   0.638E-04 0.363E-04
CGA:  18    -0.669663974842E+03   -0.12593E-03    0.26422E-05  8424   0.688E-04 0.297E-04
CGA:  19    -0.669664201180E+03   -0.22634E-03    0.35263E-05  8424   0.580E-04 0.974E-04
CGA:  20    -0.669664291402E+03   -0.90222E-04    0.33449E-05  8424   0.634E-04 0.283E-04
CGA:  21    -0.669664517757E+03   -0.22636E-03    0.30241E-05  8424   0.539E-04 0.919E-04
CGA:  22    -0.669664638041E+03   -0.12028E-03    0.18995E-05  8424   0.588E-04 0.278E-04
CGA:  23    -0.669664722516E+03   -0.84475E-04    0.38179E-05  8424   0.670E-04 0.201E-04
CGA:  24    -0.669664948237E+03   -0.22572E-03    0.27290E-05  8424   0.578E-04 0.882E-04
CGA:  25    -0.669665070201E+03   -0.12196E-03    0.21923E-05  8424   0.660E-04 0.176E-04
CGA:  26    -0.669665289523E+03   -0.21932E-03    0.25637E-05  8424   0.578E-04 0.845E-04
CGA:  27    -0.669665368649E+03   -0.79126E-04    0.40418E-05  8424   0.666E-04 0.143E-04
CGA:  28    -0.669665588601E+03   -0.21995E-03    0.23585E-05  8424   0.594E-04 0.816E-04
CGA:  29    -0.669665710250E+03   -0.12165E-03    0.23391E-05  8424   0.684E-04 0.995E-05
CGA:  30    -0.669665923956E+03   -0.21371E-03    0.22361E-05  8424   0.627E-04 0.784E-04
CGA:  31    -0.669665996420E+03   -0.72465E-04    0.57903E-05  8424   0.717E-04 0.426E-05
CGA:  32    -0.669666208569E+03   -0.21215E-03    0.20597E-05  8424   0.680E-04 0.748E-04
CGA:  33    -0.669666332061E+03   -0.12349E-03    0.31450E-05  8424   0.761E-04-0.264E-05
CGA:  34    -0.669666536149E+03   -0.20409E-03    0.19484E-05  8424   0.739E-04 0.706E-04
CGA:  35    -0.669666602154E+03   -0.66005E-04    0.11331E-04  8424   0.792E-04-0.890E-05
CGA:  36    -0.669666801589E+03   -0.19944E-03    0.17990E-05  8424   0.769E-04 0.659E-04
CGA:  37    -0.669666925743E+03   -0.12415E-03    0.41947E-05  8424   0.766E-04-0.104E-04
CGA:  38    -0.669667111096E+03   -0.18535E-03    0.17587E-05  8424   0.719E-04 0.610E-04
CGA:  39    -0.669667179541E+03   -0.68445E-04    0.96068E-05  8424   0.651E-04-0.327E-05
CGA:  40    -0.669667360068E+03   -0.18053E-03    0.15769E-05  8424   0.595E-04 0.561E-04
CGA:  41    -0.669667473612E+03   -0.11354E-03    0.25789E-05  8424   0.491E-04 0.968E-05
CGA:  42    -0.669667637688E+03   -0.16408E-03    0.14656E-05  8424   0.473E-04 0.518E-04
CGA:  43    -0.669667717447E+03   -0.79760E-04    0.24230E-05  8424   0.375E-04 0.198E-04
CGA:  44    -0.669667880439E+03   -0.16299E-03    0.12720E-05  8424   0.400E-04 0.493E-04
CGA:  45    -0.669667980037E+03   -0.99598E-04    0.12277E-05  8424   0.324E-04 0.241E-04
CGA:  46    -0.669668062602E+03   -0.82565E-04    0.96170E-06  8424   0.309E-04 0.261E-04
CGA:  47    -0.669668157699E+03   -0.95098E-04    0.72907E-06  8424   0.300E-04 0.267E-04
CGA:  48    -0.669668240760E+03   -0.83061E-04    0.80952E-06  8424   0.295E-04 0.268E-04
CGA:  49    -0.669668334542E+03   -0.93782E-04    0.67392E-06  8424   0.292E-04 0.268E-04
CGA:  50    -0.669668417043E+03   -0.82501E-04    0.76685E-06  8424   0.290E-04 0.265E-04
CGA:  51    -0.669668510483E+03   -0.93440E-04    0.65158E-06  8424   0.290E-04 0.262E-04
CGA:  52    -0.669668591472E+03   -0.80989E-04    0.77050E-06  8424   0.291E-04 0.257E-04
CGA:  53    -0.669668685416E+03   -0.93944E-04    0.65069E-06  8424   0.294E-04 0.250E-04
CGA:  54    -0.669668763930E+03   -0.78514E-04    0.82819E-06  8424   0.301E-04 0.241E-04
CGA:  55    -0.669668859285E+03   -0.95355E-04    0.68813E-06  8424   0.312E-04 0.228E-04
CGA:  56    -0.669668934166E+03   -0.74881E-04    0.10048E-05  8424   0.332E-04 0.208E-04
CGA:  57    -0.669669032030E+03   -0.97864E-04    0.82643E-06  8424   0.363E-04 0.179E-04
CGA:  58    -0.669669101614E+03   -0.69584E-04    0.15651E-05  8424   0.415E-04 0.134E-04
CGA:  59    -0.669669285225E+03   -0.18361E-03    0.12696E-05  8424   0.361E-04 0.560E-04
CGA:  60    -0.669669384820E+03   -0.99594E-04    0.97404E-06  8424   0.415E-04 0.122E-04
CGA:  61    -0.669669564942E+03   -0.18012E-03    0.12336E-05  8424   0.361E-04 0.547E-04
CGA:  62    -0.669669629658E+03   -0.64716E-04    0.17031E-05  8424   0.420E-04 0.106E-04
CGA:  63    -0.669669810091E+03   -0.18043E-03    0.11736E-05  8424   0.369E-04 0.536E-04
CGA:  64    -0.669669910142E+03   -0.10005E-03    0.10201E-05  8424   0.433E-04 0.821E-05
CGA:  65    -0.669670087230E+03   -0.17709E-03    0.11370E-05  8424   0.388E-04 0.523E-04
CGA:  66    -0.669670145773E+03   -0.58543E-04    0.23461E-05  8424   0.461E-04 0.459E-05
CGA:  67    -0.669670322646E+03   -0.17687E-03    0.10755E-05  8424   0.430E-04 0.509E-04
CGA:  68    -0.669670425458E+03   -0.10281E-03    0.13844E-05  8424   0.517E-04-0.141E-05
CGA:  69    -0.669670600301E+03   -0.17484E-03    0.10176E-05  8424   0.511E-04 0.492E-04
CGA:  70    -0.669670648306E+03   -0.48005E-04    0.70211E-05  8424   0.621E-04-0.118E-04
CGA:  71    -0.669670820167E+03   -0.17186E-03    0.93972E-06  8424   0.670E-04 0.467E-04
CGA:  72    -0.669670931726E+03   -0.11156E-03    0.34962E-05  8424   0.815E-04-0.305E-04
CGA:  73    -0.669671102533E+03   -0.17081E-03    0.81112E-06  8424   0.958E-04 0.426E-04
CGA:  74    -0.669671125852E+03   -0.23319E-04   -0.29640E-04  8424   0.224E-03-0.102E-03
CGA:  75    -0.669671272578E+03   -0.14673E-03    0.91986E-04  8424   0.291E-03-0.214E-03
CGA:  76    -0.669671297592E+03   -0.25014E-04   -0.31088E-04  8424   0.224E-04 0.423E-04
CGA:  77    -0.669671361889E+03   -0.64297E-04    0.75355E-06  8424   0.368E-04 0.115E-04
CGA:  78    -0.669671456983E+03   -0.95094E-04    0.10368E-05  8424   0.390E-04 0.273E-05
CGA:  79    -0.669671607966E+03   -0.15098E-03    0.79527E-06  8424   0.379E-04 0.415E-04
CGA:  80    -0.669671657806E+03   -0.49840E-04    0.26996E-05  8424   0.395E-04 0.949E-06
CGA:  81    -0.669671806499E+03   -0.14869E-03    0.75011E-06  8424   0.386E-04 0.400E-04
CGA:  82    -0.669671900827E+03   -0.94328E-04    0.11640E-05  8424   0.394E-04-0.395E-06
CGA:  83    -0.669672044753E+03   -0.14393E-03    0.72146E-06  8424   0.387E-04 0.386E-04
CGA:  84    -0.669672092825E+03   -0.48073E-04    0.30348E-05  8424   0.384E-04-0.914E-06
CGA:  85    -0.669672234230E+03   -0.14140E-03    0.67537E-06  8424   0.377E-04 0.370E-04
CGA:  86    -0.669672325503E+03   -0.91273E-04    0.11521E-05  8424   0.361E-04-0.127E-06
CGA:  87    -0.669672460562E+03   -0.13506E-03    0.65025E-06  8424   0.354E-04 0.355E-04
CGA:  88    -0.669672510238E+03   -0.49676E-04    0.22869E-05  8424   0.326E-04 0.188E-05
CGA:  89    -0.669672643192E+03   -0.13295E-03    0.60163E-06  8424   0.323E-04 0.339E-04
CGA:  90    -0.669672728216E+03   -0.85025E-04    0.89083E-06  8424   0.288E-04 0.459E-05
CGA:  91    -0.669672855122E+03   -0.12691E-03    0.57603E-06  8424   0.291E-04 0.324E-04
CGA:  92    -0.669672908472E+03   -0.53350E-04    0.12752E-05  8424   0.253E-04 0.719E-05
CGA:  93    -0.669673033796E+03   -0.12532E-03    0.53539E-06  8424   0.263E-04 0.311E-04
CGA:  94    -0.669673111917E+03   -0.78120E-04    0.62733E-06  8424   0.226E-04 0.920E-05
CGA:  95    -0.669673233627E+03   -0.12171E-03    0.51270E-06  8424   0.242E-04 0.300E-04
CGA:  96    -0.669673289550E+03   -0.55923E-04    0.78353E-06  8424   0.206E-04 0.105E-04
CGA:  97    -0.669673409650E+03   -0.12010E-03    0.48903E-06  8424   0.226E-04 0.290E-04
CGA:  98    -0.669673482577E+03   -0.72927E-04    0.48809E-06  8424   0.192E-04 0.113E-04
CGA:  99    -0.669673600918E+03   -0.11834E-03    0.46969E-06  8424   0.214E-04 0.282E-04
CGA: 100    -0.669673657644E+03   -0.56726E-04    0.58557E-06  8424   0.182E-04 0.116E-04
CGA: 101    -0.669673726740E+03   -0.69097E-04    0.32534E-06  8424   0.167E-04 0.135E-04
CGA: 102    -0.669673784954E+03   -0.58214E-04    0.33075E-06  8424   0.160E-04 0.143E-04
CGA: 103    -0.669673851555E+03   -0.66601E-04    0.25781E-06  8424   0.156E-04 0.146E-04
CGA: 104    -0.669673910516E+03   -0.58961E-04    0.28127E-06  8424   0.154E-04 0.147E-04
CGA: 105    -0.669673975998E+03   -0.65482E-04    0.24196E-06  8424   0.153E-04 0.146E-04
CGA: 106    -0.669674034605E+03   -0.58607E-04    0.26915E-06  8424   0.152E-04 0.145E-04
CGA: 107    -0.669674099913E+03   -0.65308E-04    0.23517E-06  8424   0.151E-04 0.144E-04
CGA: 108    -0.669674157218E+03   -0.57305E-04    0.27182E-06  8424   0.152E-04 0.141E-04
CGA: 109    -0.669674223139E+03   -0.65920E-04    0.23330E-06  8424   0.153E-04 0.138E-04
CGA: 110    -0.669674278270E+03   -0.55132E-04    0.29235E-06  8424   0.157E-04 0.133E-04
CGA: 111    -0.669674345623E+03   -0.67352E-04    0.24313E-06  8424   0.162E-04 0.127E-04
CGA: 112    -0.669674397624E+03   -0.52002E-04    0.35418E-06  8424   0.172E-04 0.117E-04
CGA: 113    -0.669674467345E+03   -0.69721E-04    0.28656E-06  8424   0.189E-04 0.102E-04
CGA: 114    -0.669674514976E+03   -0.47631E-04    0.54822E-06  8424   0.216E-04 0.788E-05
CGA: 115    -0.669674643834E+03   -0.12886E-03    0.48479E-06  8424   0.185E-04 0.301E-04
CGA: 116    -0.669674715025E+03   -0.71191E-04    0.32567E-06  8424   0.210E-04 0.766E-05
CGA: 117    -0.669674839911E+03   -0.12489E-03    0.47044E-06  8424   0.181E-04 0.292E-04
CGA: 118    -0.669674884423E+03   -0.44511E-04    0.54485E-06  8424   0.205E-04 0.738E-05
CGA: 119    -0.669675008971E+03   -0.12455E-03    0.44572E-06  8424   0.178E-04 0.285E-04
CGA: 120    -0.669675079560E+03   -0.70589E-04    0.30326E-06  8424   0.200E-04 0.714E-05
CGA: 121    -0.669675199908E+03   -0.12035E-03    0.43375E-06  8424   0.175E-04 0.276E-04
CGA: 122    -0.669675241893E+03   -0.41984E-04    0.54305E-06  8424   0.195E-04 0.684E-05
CGA: 123    -0.669675361955E+03   -0.12006E-03    0.40902E-06  8424   0.173E-04 0.268E-04
CGA: 124    -0.669675431554E+03   -0.69599E-04    0.28887E-06  8424   0.191E-04 0.657E-05
CGA: 125    -0.669675547258E+03   -0.11570E-03    0.39807E-06  8424   0.171E-04 0.259E-04
CGA: 126    -0.669675587197E+03   -0.39939E-04    0.54424E-06  8424   0.186E-04 0.629E-05
CGA: 127    -0.669675702387E+03   -0.11519E-03    0.37394E-06  8424   0.168E-04 0.251E-04
CGA: 128    -0.669675770572E+03   -0.68186E-04    0.27954E-06  8424   0.180E-04 0.612E-05
CGA: 129    -0.669675880987E+03   -0.11041E-03    0.36302E-06  8424   0.165E-04 0.241E-04
CGA: 130    -0.669675919750E+03   -0.38764E-04    0.52611E-06  8424   0.173E-04 0.609E-05
CGA: 131    -0.669676029181E+03   -0.10943E-03    0.33838E-06  8424   0.161E-04 0.231E-04
CGA: 132    -0.669676094866E+03   -0.65685E-04    0.26386E-06  8424   0.162E-04 0.635E-05
CGA: 133    -0.669676198605E+03   -0.10374E-03    0.32729E-06  8424   0.154E-04 0.220E-04
CGA: 134    -0.669676238052E+03   -0.39447E-04    0.43671E-06  8424   0.149E-04 0.688E-05
CGA: 135    -0.669676340524E+03   -0.10247E-03    0.30107E-06  8424   0.145E-04 0.208E-04
CGA: 136    -0.669676401783E+03   -0.61259E-04    0.22849E-06  8424   0.135E-04 0.762E-05
CGA: 137    -0.669676441534E+03   -0.39751E-04    0.32512E-06  8424   0.135E-04 0.760E-05
CGA: 138    -0.669676502953E+03   -0.61419E-04    0.19730E-06  8424   0.136E-04 0.736E-05
CGA: 139    -0.669676541288E+03   -0.38335E-04    0.34628E-06  8424   0.138E-04 0.706E-05
CGA: 140    -0.669676603182E+03   -0.61893E-04    0.20375E-06  8424   0.140E-04 0.672E-05
CGA: 141    -0.669676703049E+03   -0.99868E-04    0.28595E-06  8424   0.134E-04 0.206E-04
CGA: 142    -0.669676740092E+03   -0.37042E-04    0.34990E-06  8424   0.136E-04 0.659E-05
CGA: 143    -0.669676839241E+03   -0.99150E-04    0.27399E-06  8424   0.131E-04 0.202E-04
CGA: 144    -0.669676899307E+03   -0.60065E-04    0.18861E-06  8424   0.133E-04 0.648E-05
CGA: 145    -0.669676996081E+03   -0.96774E-04    0.26663E-06  8424   0.128E-04 0.196E-04
CGA: 146    -0.669677032188E+03   -0.36107E-04    0.32177E-06  8424   0.129E-04 0.637E-05
CGA: 147    -0.669677128138E+03   -0.95950E-04    0.25438E-06  8424   0.124E-04 0.191E-04
CGA: 148    -0.669677186248E+03   -0.58110E-04    0.17562E-06  8424   0.124E-04 0.629E-05
CGA: 149    -0.669677221364E+03   -0.35116E-04    0.31551E-06  8424   0.125E-04 0.611E-05
CGA: 150    -0.669677315030E+03   -0.93666E-04    0.24216E-06  8424   0.121E-04 0.185E-04
CGA: 151    -0.669677372317E+03   -0.57287E-04    0.16991E-06  8424   0.121E-04 0.604E-05
CGA: 152    -0.669677463657E+03   -0.91340E-04    0.23406E-06  8424   0.118E-04 0.179E-04
CGA: 153    -0.669677498057E+03   -0.34400E-04    0.28975E-06  8424   0.117E-04 0.593E-05
CGA: 154    -0.669677554267E+03   -0.56210E-04    0.16094E-06  8424   0.116E-04 0.592E-05
CGA: 155    -0.669677588035E+03   -0.33769E-04    0.28310E-06  8424   0.115E-04 0.589E-05
CGA: 156    -0.669677643923E+03   -0.55887E-04    0.15564E-06  8424   0.114E-04 0.584E-05
CGA: 157    -0.669677677136E+03   -0.33213E-04    0.27977E-06  8424   0.114E-04 0.575E-05
CGA: 158    -0.669677732771E+03   -0.55635E-04    0.15386E-06  8424   0.114E-04 0.562E-05
CGA: 159    -0.669677821151E+03   -0.88380E-04    0.21554E-06  8424   0.111E-04 0.169E-04
CGA: 160    -0.669677853513E+03   -0.32362E-04    0.27159E-06  8424   0.112E-04 0.550E-05
CGA: 161    -0.669677941042E+03   -0.87529E-04    0.20794E-06  8424   0.108E-04 0.166E-04
CGA: 162    -0.669677995067E+03   -0.54025E-04    0.14244E-06  8424   0.109E-04 0.540E-05
CGA: 163    -0.669678080879E+03   -0.85812E-04    0.20247E-06  8424   0.106E-04 0.162E-04
CGA: 164    -0.669678112371E+03   -0.31492E-04    0.25054E-06  8424   0.106E-04 0.530E-05
CGA: 165    -0.669678165644E+03   -0.53273E-04    0.13813E-06  8424   0.107E-04 0.513E-05
CGA: 166    -0.669678249786E+03   -0.84142E-04    0.19370E-06  8424   0.103E-04 0.157E-04
CGA: 167    -0.669678280360E+03   -0.30574E-04    0.24796E-06  8424   0.104E-04 0.505E-05
CGA: 168    -0.669678363518E+03   -0.83158E-04    0.18558E-06  8424   0.101E-04 0.153E-04
CGA: 169    -0.669678415103E+03   -0.51585E-04    0.12898E-06  8424   0.101E-04 0.497E-05
CGA: 170    -0.669678496441E+03   -0.81339E-04    0.18024E-06  8424   0.985E-05 0.149E-04
CGA: 171    -0.669678526336E+03   -0.29895E-04    0.22855E-06  8424   0.976E-05 0.489E-05
CGA: 172    -0.669678606629E+03   -0.80293E-04    0.17254E-06  8424   0.961E-05 0.145E-04
CGA: 173    -0.669678656439E+03   -0.49809E-04    0.12109E-06  8424   0.945E-05 0.483E-05
CGA: 174    -0.669678685871E+03   -0.29433E-04    0.21292E-06  8424   0.930E-05 0.487E-05
CGA: 175    -0.669678735218E+03   -0.49347E-04    0.11423E-06  8424   0.916E-05 0.491E-05
CGA: 176    -0.669678764403E+03   -0.29185E-04    0.20090E-06  8424   0.905E-05 0.493E-05
CGA: 177    -0.669678813238E+03   -0.48835E-04    0.10915E-06  8424   0.897E-05 0.492E-05
CGA: 178    -0.669678842114E+03   -0.28876E-04    0.19438E-06  8424   0.893E-05 0.487E-05
CGA: 179    -0.669678890600E+03   -0.48486E-04    0.10701E-06  8424   0.894E-05 0.479E-05
CGA: 180    -0.669678918934E+03   -0.28334E-04    0.19704E-06  8424   0.899E-05 0.466E-05
CGA: 181    -0.669678967363E+03   -0.48429E-04    0.10859E-06  8424   0.910E-05 0.447E-05
CGA: 182    -0.669679043961E+03   -0.76598E-04    0.15713E-06  8424   0.876E-05 0.135E-04
CGA: 183    -0.669679071394E+03   -0.27433E-04    0.19603E-06  8424   0.891E-05 0.438E-05
CGA: 184    -0.669679147442E+03   -0.76048E-04    0.15188E-06  8424   0.853E-05 0.133E-04
CGA: 185    -0.669679194555E+03   -0.47113E-04    0.10022E-06  8424   0.870E-05 0.430E-05
CGA: 186    -0.669679220845E+03   -0.26290E-04    0.20319E-06  8424   0.893E-05 0.400E-05
CGA: 187    -0.669679295824E+03   -0.74978E-04    0.14644E-06  8424   0.850E-05 0.129E-04
CGA: 188    -0.669679342634E+03   -0.46810E-04    0.10029E-06  8424   0.870E-05 0.392E-05
CGA: 189    -0.669679415740E+03   -0.73106E-04    0.14296E-06  8424   0.830E-05 0.126E-04
CGA: 190    -0.669679441124E+03   -0.25384E-04    0.19104E-06  8424   0.851E-05 0.383E-05
CGA: 191    -0.669679513888E+03   -0.72763E-04    0.13724E-06  8424   0.812E-05 0.123E-04
CGA: 192    -0.669679559379E+03   -0.45491E-04    0.93795E-07  8424   0.827E-05 0.377E-05
CGA: 193    -0.669679630157E+03   -0.70778E-04    0.13383E-06  8424   0.793E-05 0.120E-04
CGA: 194    -0.669679654789E+03   -0.24632E-04    0.17906E-06  8424   0.806E-05 0.370E-05
CGA: 195    -0.669679725070E+03   -0.70281E-04    0.12802E-06  8424   0.775E-05 0.117E-04
CGA: 196    -0.669679769171E+03   -0.44101E-04    0.88161E-07  8424   0.782E-05 0.364E-05
CGA: 197    -0.669679837508E+03   -0.68337E-04    0.12456E-06  8424   0.758E-05 0.114E-04
CGA: 198    -0.669679861534E+03   -0.24026E-04    0.16698E-06  8424   0.760E-05 0.358E-05
CGA: 199    -0.669679929193E+03   -0.67660E-04    0.11911E-06  8424   0.741E-05 0.111E-04
CGA: 200    -0.669679971834E+03   -0.42641E-04    0.83146E-07  8424   0.736E-05 0.354E-05
   8 F= -.66967997E+03 E0= -.66967997E+03  d E =0.924919E-01  mag=     2.0000
       N       E                     dE             d eps       ncg     rms          ort
SDA:   1    -0.667215518673E+03    0.24644E+01    0.00000E+00  8424   0.826E+01 0.000E+00
CGA:   2    -0.668852753972E+03   -0.16372E+01   -0.16389E+01  8424   0.336E+01 0.146E-01
CGA:   3    -0.669569286157E+03   -0.71653E+00   -0.71631E+00  8424   0.108E+01-0.468E-02
CGA:   4    -0.669748013907E+03   -0.17873E+00   -0.17875E+00  8424   0.267E+00-0.176E-03
CGA:   5    -0.669793543123E+03   -0.45529E-01   -0.45566E-01  8424   0.552E-01 0.416E-03
CGA:   6    -0.669804599673E+03   -0.11057E-01   -0.11044E-01  8424   0.125E-01-0.381E-03
CGA:   7    -0.669807294935E+03   -0.26953E-02   -0.26985E-02  8424   0.361E-02 0.245E-03
CGA:   8    -0.669808139332E+03   -0.84440E-03   -0.84466E-03  8424   0.984E-03 0.264E-03
CGA:   9    -0.669808420449E+03   -0.28112E-03   -0.27869E-03  8424   0.356E-03 0.712E-04
CGA:  10    -0.669808489378E+03   -0.68929E-04   -0.74851E-04  8424   0.154E-03 0.164E-03
CGA:  11    -0.669808518106E+03   -0.28728E-04   -0.36959E-04  8424   0.873E-04 0.125E-03
CGA:  12    -0.669808535873E+03   -0.17767E-04   -0.18554E-04  8424   0.546E-04 0.550E-04
CGA:  13    -0.669808534799E+03    0.10738E-05   -0.53949E-05  8424   0.484E-04 0.507E-04
   9 F= -.66980853E+03 E0= -.66980853E+03  d E =-.128563E+00  mag=     2.0000
       N       E                     dE             d eps       ncg     rms          ort
SDA:   1    -0.669654789989E+03    0.15375E+00    0.00000E+00  8424   0.529E+00 0.000E+00
CGA:   2    -0.669758987548E+03   -0.10420E+00   -0.10421E+00  8424   0.211E+00 0.693E-03
CGA:   3    -0.669804186434E+03   -0.45199E-01   -0.45199E-01  8424   0.714E-01-0.152E-05
CGA:   4    -0.669816023988E+03   -0.11838E-01   -0.11849E-01  8424   0.174E-01 0.221E-03
CGA:   5    -0.669818959039E+03   -0.29351E-02   -0.29471E-02  8424   0.344E-02 0.281E-03
CGA:   6    -0.669819624742E+03   -0.66570E-03   -0.66908E-03  8424   0.764E-03 0.192E-03
CGA:   7    -0.669819756174E+03   -0.13143E-03   -0.13922E-03  8424   0.217E-03 0.218E-03
CGA:   8    -0.669819774760E+03   -0.18586E-04   -0.32942E-04  8424   0.106E-03 0.163E-03
CGA:   9    -0.669819774336E+03    0.42347E-06   -0.92973E-05  8424   0.731E-04 0.852E-04
  10 F= -.66981977E+03 E0= -.66981977E+03  d E =-.112395E-01  mag=     2.0000
       N       E                     dE             d eps       ncg     rms          ort
SDA:   1    -0.669073062811E+03    0.74671E+00    0.00000E+00  8424   0.240E+01 0.000E+00
CGA:   2    -0.669537364287E+03   -0.46430E+00   -0.46427E+00  8424   0.943E+00 0.558E-02
CGA:   3    -0.669742543036E+03   -0.20518E+00   -0.20521E+00  8424   0.329E+00-0.106E-02
CGA:   4    -0.669797521911E+03   -0.54979E-01   -0.54986E-01  8424   0.799E-01 0.241E-03
CGA:   5    -0.669810907992E+03   -0.13386E-01   -0.13398E-01  8424   0.157E-01 0.501E-03
CGA:   6    -0.669814047040E+03   -0.31390E-02   -0.31378E-02  8424   0.355E-02 0.122E-03
CGA:   7    -0.669814798672E+03   -0.75163E-03   -0.74668E-03  8424   0.966E-03 0.259E-03
CGA:   8    -0.669815004207E+03   -0.20554E-03   -0.20397E-03  8424   0.266E-03 0.250E-03
CGA:   9    -0.669815051795E+03   -0.47589E-04   -0.52911E-04  8424   0.115E-03 0.161E-03
CGA:  10    -0.669815057727E+03   -0.59317E-05   -0.12839E-04  8424   0.767E-04 0.893E-04
  11 F= -.66981506E+03 E0= -.66981506E+03  d E =0.471661E-02  mag=     2.0000
       N       E                     dE             d eps       ncg     rms          ort
SDA:   1    -0.669391810281E+03    0.42324E+00    0.00000E+00  8424   0.120E+01 0.000E+00
CGA:   2    -0.669678536731E+03   -0.28673E+00   -0.28662E+00  8424   0.570E+00 0.151E-02
CGA:   3    -0.669790677857E+03   -0.11214E+00   -0.11214E+00  8424   0.155E+00-0.252E-03
CGA:   4    -0.669816077411E+03   -0.25400E-01   -0.25410E-01  8424   0.371E-01 0.526E-03
CGA:   5    -0.669822382181E+03   -0.63048E-02   -0.63086E-02  8424   0.737E-02 0.280E-03
CGA:   6    -0.669823928520E+03   -0.15463E-02   -0.15484E-02  8424   0.193E-02-0.811E-04
CGA:   7    -0.669824342332E+03   -0.41381E-03   -0.41022E-03  8424   0.558E-03 0.113E-03
CGA:   8    -0.669824487985E+03   -0.14565E-03   -0.14199E-03  8424   0.195E-03 0.658E-04
CGA:   9    -0.669824551790E+03   -0.63805E-04   -0.60025E-04  8424   0.979E-04 0.423E-04
CGA:  10    -0.669824581147E+03   -0.29357E-04   -0.27171E-04  8424   0.611E-04 0.604E-04
CGA:  11    -0.669824602961E+03   -0.21814E-04   -0.18723E-04  8424   0.389E-04 0.272E-04
CGA:  12    -0.669824620026E+03   -0.17065E-04   -0.14444E-04  8424   0.352E-04 0.450E-04
CGA:  13    -0.669824633094E+03   -0.13068E-04   -0.10457E-04  8424   0.287E-04 0.273E-04
CGA:  14    -0.669824643513E+03   -0.10420E-04   -0.82461E-05  8424   0.277E-04 0.269E-04
CGA:  15    -0.669824659129E+03   -0.15616E-04   -0.10921E-04  8424   0.294E-04 0.253E-04
CGA:  16    -0.669824666436E+03   -0.73066E-05   -0.69486E-05  8424   0.299E-04 0.223E-04
CGA:  17    -0.669824681759E+03   -0.15323E-04   -0.12658E-04  8424   0.618E-04 0.128E-04
CGA:  18    -0.669824731267E+03   -0.49508E-04   -0.36140E-04  8424   0.244E-04 0.711E-04
CGA:  19    -0.669824754247E+03   -0.22980E-04   -0.16702E-04  8424   0.685E-04 0.135E-04
CGA:  20    -0.669824763217E+03   -0.89696E-05   -0.97237E-05  8424   0.275E-04 0.614E-05
CGA:  21    -0.669824849392E+03   -0.86175E-04   -0.12024E-03  8424   0.136E-03 0.192E-04
CGA:  22    -0.669824867141E+03   -0.17749E-04   -0.20237E-04  8424   0.244E-04 0.765E-05
CGA:  23    -0.669824746929E+03    0.12021E-03   -0.66295E-04  8424   0.210E-02-0.810E-04
CGA:  24    -0.669825022688E+03   -0.27576E-03   -0.27172E-03  8424   0.137E-03-0.865E-05
CGA:  25    -0.669825043792E+03   -0.21104E-04   -0.24151E-04  8424   0.272E-04 0.482E-05
CGA:  26    -0.669825088327E+03   -0.44536E-04    0.24176E-03  8424   0.928E-04-0.113E-04
CGA:  27    -0.669825189573E+03   -0.10125E-03    0.89708E-04  8424   0.338E-03-0.120E-04
CGA:  28    -0.669825920802E+03   -0.73123E-03    0.17559E-03  8424   0.747E-03 0.182E-05
CGA:  29    -0.669828213137E+03   -0.22923E-02    0.28178E-03  8424   0.178E-02-0.845E-03
CGA:  30    -0.669828373683E+03   -0.16055E-03   -0.25524E-03  8424   0.253E-03 0.157E-03
CGA:  31    -0.669828440725E+03   -0.67042E-04   -0.74075E-04  8424   0.450E-04 0.152E-04
CGA:  32    -0.669828470148E+03   -0.29422E-04   -0.20281E-04  8424   0.884E-04-0.329E-04
CGA:  33    -0.669828454692E+03    0.15456E-04   -0.80659E-05  8424   0.218E-04 0.392E-04
CGA:  34    -0.669828445195E+03    0.94968E-05   -0.19764E-05  8424   0.120E-04 0.192E-04
  12 F= -.66982845E+03 E0= -.66982845E+03  d E =-.133875E-01  mag=     2.0000
       N       E                     dE             d eps       ncg     rms          ort
SDA:   1    -0.662280391596E+03    0.75481E+01    0.00000E+00  8424   0.239E+02 0.000E+00
CGA:   2    -0.666998178473E+03   -0.47178E+01   -0.47673E+01  8424   0.954E+01-0.781E-01
CGA:   3    -0.669020984562E+03   -0.20228E+01   -0.20154E+01  8424   0.309E+01 0.458E-01
CGA:   4    -0.669541025772E+03   -0.52004E+00   -0.52075E+00  8424   0.769E+00 0.413E-02
CGA:   5    -0.669671657560E+03   -0.13063E+00   -0.13104E+00  8424   0.158E+00 0.161E-03
CGA:   6    -0.669703219947E+03   -0.31562E-01   -0.31457E-01  8424   0.360E-01 0.551E-04
CGA:   7    -0.669711098424E+03   -0.78785E-02   -0.79368E-02  8424   0.111E-01 0.257E-03
CGA:   8    -0.669713707884E+03   -0.26095E-02   -0.26385E-02  8424   0.339E-02-0.414E-05
CGA:   9    -0.669714647156E+03   -0.93927E-03   -0.91585E-03  8424   0.120E-02-0.773E-04
CGA:  10    -0.669715017592E+03   -0.37044E-03   -0.36839E-03  8424   0.606E-03-0.784E-05
CGA:  11    -0.669715283732E+03   -0.26614E-03   -0.26129E-03  8424   0.488E-03-0.161E-03
CGA:  12    -0.669715439216E+03   -0.15548E-03   -0.15177E-03  8424   0.426E-03-0.102E-03
CGA:  13    -0.669473156281E+03    0.24228E+00   -0.11986E-01  8424   0.743E-01-0.159E-01
CGA:  14    -0.669496031068E+03   -0.22875E-01   -0.24435E-01  8424   0.460E-01 0.276E-02
CGA:  15    -0.669507050723E+03   -0.11020E-01   -0.11431E-01  8424   0.832E-02 0.181E-02
CGA:  16    -0.669509112205E+03   -0.20615E-02   -0.21690E-02  8424   0.124E-02 0.203E-03
CGA:  17    -0.669509620950E+03   -0.50875E-03   -0.46208E-03  8424   0.913E-03-0.130E-03
CGA:  18    -0.669509895178E+03   -0.27423E-03   -0.25492E-03  8424   0.652E-03-0.611E-04
CGA:  19    -0.669717615511E+03   -0.20772E+00    0.92458E-06  8424   0.215E-02-0.219E-03
CGA:  20    -0.669717911419E+03   -0.29591E-03   -0.18717E-03  8424   0.151E-02-0.823E-03
CGA:  21    -0.669718091147E+03   -0.17973E-03   -0.90003E-04  8424   0.956E-03-0.238E-03
CGA:  22    -0.669718249178E+03   -0.15803E-03   -0.10469E-03  8424   0.820E-03-0.108E-03
CGA:  23    -0.669718385392E+03   -0.13621E-03   -0.94427E-04  8424   0.578E-03-0.914E-04
CGA:  24    -0.669718524662E+03   -0.13927E-03   -0.78575E-04  8424   0.583E-03-0.152E-03
CGA:  25    -0.669718790267E+03   -0.26561E-03   -0.14791E-03  8424   0.152E-02-0.536E-03
CGA:  26    -0.669719050664E+03   -0.26040E-03   -0.24953E-03  8424   0.278E-03-0.241E-04
CGA:  27    -0.669719198190E+03   -0.14753E-03   -0.13652E-03  8424   0.429E-03-0.206E-03
CGA:  28    -0.669719242332E+03   -0.44142E-04   -0.61367E-04  8424   0.587E-04 0.427E-04
CGA:  29    -0.669719326691E+03   -0.84359E-04    0.72942E-04  8424   0.124E-03-0.463E-04
CGA:  30    -0.669719381356E+03   -0.54665E-04   -0.43255E-04  8424   0.890E-04-0.635E-04
CGA:  31    -0.669719380168E+03    0.11877E-05   -0.70531E-04  8424   0.115E-02-0.264E-03
CGA:  32    -0.669719517175E+03   -0.13701E-03   -0.15944E-03  8424   0.648E-04 0.597E-04
CGA:  33    -0.669719593279E+03   -0.76103E-04    0.20783E-03  8424   0.163E-03-0.845E-04
CGA:  34    -0.669719634912E+03   -0.41633E-04   -0.38540E-04  8424   0.249E-04-0.112E-04
CGA:  35    -0.669719735660E+03   -0.10075E-03    0.17337E-05  8424   0.835E-04-0.132E-04
CGA:  36    -0.669719744213E+03   -0.85531E-05   -0.11404E-04  8424   0.127E-04 0.789E-05
  13 F= -.66971974E+03 E0= -.66971974E+03  d E =0.108701E+00  mag=     2.0000
       N       E                     dE             d eps       ncg     rms          ort
SDA:   1    -0.668586324059E+03    0.11334E+01    0.00000E+00  8424   0.387E+01 0.000E+00
CGA:   2    -0.669369892529E+03   -0.78357E+00   -0.78478E+00  8424   0.158E+01 0.383E-03
CGA:   3    -0.669703918066E+03   -0.33403E+00   -0.33367E+00  8424   0.510E+00-0.389E-03
CGA:   4    -0.669788118165E+03   -0.84200E-01   -0.84214E-01  8424   0.127E+00-0.788E-04
CGA:   5    -0.669809878259E+03   -0.21760E-01   -0.21789E-01  8424   0.259E-01 0.674E-04
CGA:   6    -0.669815109795E+03   -0.52315E-02   -0.51834E-02  8424   0.591E-02-0.215E-03
CGA:   7    -0.669816382885E+03   -0.12731E-02   -0.12827E-02  8424   0.174E-02 0.476E-04
CGA:   8    -0.669816822833E+03   -0.43995E-03   -0.43687E-03  8424   0.524E-03-0.199E-04
CGA:   9    -0.669816996976E+03   -0.17414E-03   -0.16655E-03  8424   0.258E-03-0.987E-04
CGA:  10    -0.669817073581E+03   -0.76605E-04   -0.74935E-04  8424   0.148E-03-0.459E-04
CGA:  11    -0.669815500907E+03    0.15727E-02   -0.85034E-03  8424   0.836E-02-0.887E-03
CGA:  12    -0.669816974691E+03   -0.14738E-02   -0.15797E-02  8424   0.113E-02 0.197E-03
CGA:  13    -0.669817388217E+03   -0.41353E-03   -0.35764E-03  8424   0.444E-03-0.147E-03
CGA:  14    -0.669817447359E+03   -0.59142E-04   -0.86107E-04  8424   0.157E-03 0.601E-04
CGA:  15    -0.669817521289E+03   -0.73929E-04   -0.70379E-04  8424   0.877E-04-0.143E-04
CGA:  16    -0.669817640012E+03   -0.11872E-03    0.14793E-03  8424   0.289E-03-0.937E-04
CGA:  17    -0.669817631665E+03    0.83478E-05   -0.32347E-04  8424   0.384E-04 0.777E-04
  14 F= -.66981763E+03 E0= -.66981763E+03  d E =-.978875E-01  mag=     2.0000
       N       E                     dE             d eps       ncg     rms          ort
SDA:   1    -0.669251382770E+03    0.56626E+00    0.00000E+00  8424   0.189E+01 0.000E+00
CGA:   2    -0.669625782901E+03   -0.37440E+00   -0.37509E+00  8424   0.762E+00 0.133E-04
CGA:   3    -0.669788745414E+03   -0.16296E+00   -0.16282E+00  8424   0.252E+00-0.294E-04
CGA:   4    -0.669830388878E+03   -0.41643E-01   -0.41685E-01  8424   0.620E-01 0.890E-04
CGA:   5    -0.669840938030E+03   -0.10549E-01   -0.10611E-01  8424   0.125E-01 0.155E-03
CGA:   6    -0.669843424373E+03   -0.24863E-02   -0.24932E-02  8424   0.284E-02 0.203E-04
CGA:   7    -0.669843986476E+03   -0.56210E-03   -0.59899E-03  8424   0.786E-03 0.129E-03
CGA:   8    -0.669844129527E+03   -0.14305E-03   -0.17626E-03  8424   0.206E-03 0.124E-03
CGA:   9    -0.669844149824E+03   -0.20297E-04   -0.44606E-04  8424   0.709E-04 0.862E-04
CGA:  10    -0.669844139166E+03    0.10658E-04   -0.11703E-04  8424   0.418E-04 0.661E-04
CGA:  11    -0.669844129966E+03    0.91999E-05   -0.35815E-05  8424   0.324E-04 0.363E-04
  15 F= -.66984413E+03 E0= -.66984413E+03  d E =-.264983E-01  mag=     2.0000
       N       E                     dE             d eps       ncg     rms          ort
SDA:   1    -0.669754689937E+03    0.89449E-01    0.00000E+00  8424   0.298E+00 0.000E+00
CGA:   2    -0.669812353492E+03   -0.57664E-01   -0.57734E-01  8424   0.118E+00 0.212E-03
CGA:   3    -0.669837930808E+03   -0.25577E-01   -0.25594E-01  8424   0.414E-01 0.797E-04
CGA:   4    -0.669844801086E+03   -0.68703E-02   -0.69034E-02  8424   0.990E-02 0.148E-03
CGA:   5    -0.669846422871E+03   -0.16218E-02   -0.16550E-02  8424   0.191E-02 0.159E-03
CGA:   6    -0.669846771780E+03   -0.34891E-03   -0.36978E-03  8424   0.418E-03 0.121E-03
CGA:   7    -0.669846828016E+03   -0.56236E-04   -0.77069E-04  8424   0.114E-03 0.116E-03
CGA:   8    -0.669846826130E+03    0.18861E-05   -0.17232E-04  8424   0.537E-04 0.843E-04
  16 F= -.66984683E+03 E0= -.66984683E+03  d E =-.269616E-02  mag=     2.0000
       N       E                     dE             d eps       ncg     rms          ort
SDA:   1    -0.669567360491E+03    0.27947E+00    0.00000E+00  8424   0.775E+00 0.000E+00
CGA:   2    -0.669745208764E+03   -0.17785E+00   -0.17793E+00  8424   0.365E+00 0.540E-03
CGA:   3    -0.669818585853E+03   -0.73377E-01   -0.73364E-01  8424   0.103E+00-0.118E-03
CGA:   4    -0.669835219759E+03   -0.16634E-01   -0.16685E-01  8424   0.241E-01 0.334E-03
CGA:   5    -0.669839225610E+03   -0.40059E-02   -0.40524E-02  8424   0.479E-02 0.340E-03
CGA:   6    -0.669840182991E+03   -0.95738E-03   -0.97317E-03  8424   0.115E-02 0.164E-03
CGA:   7    -0.669840402059E+03   -0.21907E-03   -0.23413E-03  8424   0.310E-03 0.159E-03
CGA:   8    -0.669840447666E+03   -0.45607E-04   -0.60924E-04  8424   0.107E-03 0.134E-03
CGA:   9    -0.669840449226E+03   -0.15601E-05   -0.17340E-04  8424   0.574E-04 0.941E-04
  17 F= -.66984045E+03 E0= -.66984045E+03  d E =0.637690E-02  mag=     2.0000
       N       E                     dE             d eps       ncg     rms          ort
SDA:   1    -0.668278667053E+03    0.15618E+01    0.00000E+00  8424   0.477E+01 0.000E+00
CGA:   2    -0.669211286369E+03   -0.93262E+00   -0.93434E+00  8424   0.193E+01 0.750E-02
CGA:   3    -0.669640889784E+03   -0.42960E+00   -0.42944E+00  8424   0.665E+00-0.204E-02
CGA:   4    -0.669749409526E+03   -0.10852E+00   -0.10858E+00  8424   0.152E+00 0.468E-03
CGA:   5    -0.669774825858E+03   -0.25416E-01   -0.25475E-01  8424   0.302E-01 0.591E-03
CGA:   6    -0.669781040024E+03   -0.62142E-02   -0.62068E-02  8424   0.744E-02-0.168E-03
CGA:   7    -0.669782664748E+03   -0.16247E-02   -0.16274E-02  8424   0.207E-02 0.982E-04
CGA:   8    -0.669783132773E+03   -0.46802E-03   -0.47146E-03  8424   0.553E-03 0.171E-03
CGA:   9    -0.669783286269E+03   -0.15350E-03   -0.15285E-03  8424   0.190E-03 0.588E-04
CGA:  10    -0.669783312848E+03   -0.26579E-04   -0.35016E-04  8424   0.848E-04 0.107E-03
CGA:  11    -0.669783317718E+03   -0.48696E-05   -0.11411E-04  8424   0.506E-04 0.615E-04
  18 F= -.66978332E+03 E0= -.66978332E+03  d E =0.571315E-01  mag=     2.0000
       N       E                     dE             d eps       ncg     rms          ort
SDA:   1    -0.639809674134E+03    0.29974E+02    0.00000E+00  8424   0.115E+03 0.000E+00
CGA:   2    -0.658205689510E+03   -0.18396E+02   -0.18765E+02  8424   0.357E+02 0.813E+00
CGA:   3    -0.666429777839E+03   -0.82241E+01   -0.82251E+01  8424   0.123E+02-0.220E+00
CGA:   4    -0.668567200393E+03   -0.21374E+01   -0.21406E+01  8424   0.317E+01 0.133E-01
CGA:   5    -0.669084891889E+03   -0.51769E+00   -0.51880E+00  8424   0.667E+00 0.586E-02
CGA:   6    -0.669222319904E+03   -0.13743E+00   -0.13742E+00  8424   0.163E+00-0.321E-03
CGA:   7    -0.669259151293E+03   -0.36831E-01   -0.36832E-01  8424   0.511E-01-0.245E-03
CGA:   8    -0.669271069703E+03   -0.11918E-01   -0.11903E-01  8424   0.154E-01 0.116E-02
CGA:   9    -0.669275476874E+03   -0.44072E-02   -0.44735E-02  8424   0.628E-02-0.104E-02
CGA:  10    -0.669277153682E+03   -0.16768E-02   -0.16780E-02  8424   0.280E-02-0.201E-04
CGA:  11    -0.669278120594E+03   -0.96691E-03   -0.11354E-02  8424   0.217E-02-0.941E-03
CGA:  12    -0.669278492818E+03   -0.37222E-03   -0.38034E-03  8424   0.113E-02-0.300E-03
CGA:  13    -0.669278063628E+03    0.42919E-03   -0.86203E-03  8424   0.644E-02-0.200E-02
CGA:  14    -0.669279325723E+03   -0.12621E-02   -0.12637E-02  8424   0.134E-02 0.241E-04
CGA:  15    -0.669279671828E+03   -0.34611E-03   -0.34094E-03  8424   0.786E-03-0.389E-03
CGA:  16    -0.669279865458E+03   -0.19363E-03   -0.24003E-03  8424   0.727E-03-0.285E-03
CGA:  17    -0.669280155155E+03   -0.28970E-03    0.45160E-03  8424   0.283E-03 0.456E-04
CGA:  18    -0.669280332820E+03   -0.17766E-03    0.51392E-03  8424   0.115E-03 0.836E-04
CGA:  19    -0.669280467408E+03   -0.13459E-03    0.31506E-04  8424   0.835E-04 0.657E-04
CGA:  20    -0.669280548124E+03   -0.80716E-04    0.14968E-04  8424   0.770E-04 0.276E-04
CGA:  21    -0.669280663560E+03   -0.11544E-03    0.13277E-04  8424   0.528E-04 0.625E-04
CGA:  22    -0.669280728654E+03   -0.65094E-04    0.57996E-05  8424   0.383E-04 0.367E-04
CGA:  23    -0.669280783563E+03   -0.54910E-04    0.32374E-05  8424   0.372E-04 0.358E-04
CGA:  24    -0.669280846398E+03   -0.62834E-04    0.24504E-05  8424   0.375E-04 0.342E-04
CGA:  25    -0.669280895344E+03   -0.48946E-04    0.37173E-05  8424   0.399E-04 0.315E-04
CGA:  26    -0.669280962175E+03   -0.66831E-04    0.26508E-05  8424   0.478E-04 0.256E-04
CGA:  27    -0.669280997541E+03   -0.35366E-04    0.18586E-04  8424   0.712E-04 0.106E-04
CGA:  28    -0.669281138306E+03   -0.14076E-03    0.61104E-05  8424   0.519E-04 0.837E-04
CGA:  29    -0.669281211495E+03   -0.73189E-04    0.45130E-05  8424   0.870E-04-0.215E-05
CGA:  30    -0.669281355125E+03   -0.14363E-03    0.53326E-05  8424   0.868E-04 0.806E-04
CGA:  31    -0.669281364753E+03   -0.96282E-05   -0.11523E-04  8424   0.343E-04 0.133E-04
  19 F= -.66928136E+03 E0= -.66928136E+03  d E =0.501953E+00  mag=     2.0000
       N       E                     dE             d eps       ncg     rms          ort
SDA:   1    -0.663229001261E+03    0.60524E+01    0.00000E+00  8424   0.213E+02 0.000E+00
CGA:   2    -0.667307894358E+03   -0.40789E+01   -0.40980E+01  8424   0.844E+01 0.465E-01
CGA:   3    -0.669120402086E+03   -0.18125E+01   -0.18104E+01  8424   0.265E+01-0.145E-01
CGA:   4    -0.669566706239E+03   -0.44630E+00   -0.44658E+00  8424   0.678E+00-0.649E-03
CGA:   5    -0.669681256496E+03   -0.11455E+00   -0.11467E+00  8424   0.141E+00 0.492E-03
CGA:   6    -0.669709545705E+03   -0.28289E-01   -0.28239E-01  8424   0.314E-01-0.930E-03
CGA:   7    -0.669716595075E+03   -0.70494E-02   -0.70509E-02  8424   0.946E-02 0.589E-04
CGA:   8    -0.669718843638E+03   -0.22486E-02   -0.22507E-02  8424   0.268E-02 0.196E-03
CGA:   9    -0.669719649810E+03   -0.80617E-03   -0.82236E-03  8424   0.115E-02-0.307E-03
CGA:  10    -0.669719918715E+03   -0.26890E-03   -0.26787E-03  8424   0.432E-03 0.753E-04
CGA:  11    -0.669720073976E+03   -0.15526E-03   -0.24104E-03  8424   0.612E-03-0.316E-03
CGA:  12    -0.669720174737E+03   -0.10076E-03   -0.10731E-03  8424   0.101E-03 0.732E-04
CGA:  13    -0.669720234353E+03   -0.59616E-04    0.10788E-02  8424   0.473E-04 0.147E-04
CGA:  14    -0.669720273772E+03   -0.39419E-04    0.17691E-04  8424   0.344E-04 0.304E-04
CGA:  15    -0.669720298683E+03   -0.24912E-04    0.11438E-04  8424   0.214E-04 0.207E-04
CGA:  16    -0.669720326100E+03   -0.27417E-04    0.19027E-05  8424   0.198E-04 0.182E-04
CGA:  17    -0.669720344291E+03   -0.18191E-04    0.33489E-05  8424   0.192E-04 0.165E-04
CGA:  18    -0.669720371505E+03   -0.27214E-04    0.14405E-05  8424   0.191E-04 0.147E-04
CGA:  19    -0.669720387023E+03   -0.15518E-04    0.44244E-05  8424   0.202E-04 0.123E-04
CGA:  20    -0.669720415284E+03   -0.28261E-04    0.15538E-05  8424   0.228E-04 0.911E-05
CGA:  21    -0.669720460164E+03   -0.44880E-04    0.26603E-05  8424   0.169E-04 0.310E-04
CGA:  22    -0.669720472859E+03   -0.12696E-04    0.49881E-05  8424   0.195E-04 0.839E-05
CGA:  23    -0.669720518287E+03   -0.45427E-04    0.18925E-05  8424   0.146E-04 0.276E-04
CGA:  24    -0.669720545745E+03   -0.27458E-04    0.72542E-06  8424   0.161E-04 0.847E-05
CGA:  25    -0.669720556083E+03   -0.10337E-04    0.87465E-05  8424   0.192E-04 0.561E-05
CGA:  26    -0.669720600803E+03   -0.44720E-04    0.14442E-05  8424   0.152E-04 0.248E-04
CGA:  27    -0.669720630736E+03   -0.29933E-04    0.70467E-06  8424   0.178E-04 0.486E-05
CGA:  28    -0.669720673514E+03   -0.42778E-04    0.12168E-05  8424   0.146E-04 0.227E-04
CGA:  29    -0.669720681207E+03   -0.76935E-05    0.14437E-03  8424   0.172E-04 0.393E-05
  20 F= -.66972068E+03 E0= -.66972068E+03  d E =-.439316E+00  mag=     2.0000
       N       E                     dE             d eps       ncg     rms          ort
SDA:   1    -0.667592715538E+03    0.21280E+01    0.00000E+00  8424   0.708E+01 0.000E+00
CGA:   2    -0.668991206623E+03   -0.13985E+01   -0.14005E+01  8424   0.284E+01 0.103E-01
CGA:   3    -0.669593584683E+03   -0.60238E+00   -0.60209E+00  8424   0.916E+00-0.308E-02
CGA:   4    -0.669746624850E+03   -0.15304E+00   -0.15306E+00  8424   0.230E+00-0.104E-03
CGA:   5    -0.669785614540E+03   -0.38990E-01   -0.39043E-01  8424   0.465E-01 0.544E-03
CGA:   6    -0.669794956366E+03   -0.93418E-02   -0.93372E-02  8424   0.104E-01-0.103E-03
CGA:   7    -0.669797227138E+03   -0.22708E-02   -0.22769E-02  8424   0.303E-02 0.246E-03
CGA:   8    -0.669797929276E+03   -0.70214E-03   -0.70613E-03  8424   0.819E-03 0.263E-03
CGA:   9    -0.669798149701E+03   -0.22042E-03   -0.21980E-03  8424   0.275E-03 0.122E-03
CGA:  10    -0.669798189747E+03   -0.40046E-04   -0.52656E-04  8424   0.129E-03 0.167E-03
CGA:  11    -0.669798198567E+03   -0.88199E-05   -0.17937E-04  8424   0.753E-04 0.921E-04
  21 F= -.66979820E+03 E0= -.66979820E+03  d E =-.775174E-01  mag=     2.0000
       N       E                     dE             d eps       ncg     rms          ort
SDA:   1    -0.669642570879E+03    0.15562E+00    0.00000E+00  8424   0.497E+00 0.000E+00
CGA:   2    -0.669744889169E+03   -0.10232E+00   -0.10234E+00  8424   0.206E+00 0.712E-03
CGA:   3    -0.669787790928E+03   -0.42902E-01   -0.42900E-01  8424   0.656E-01-0.111E-03
CGA:   4    -0.669798705354E+03   -0.10914E-01   -0.10927E-01  8424   0.161E-01 0.213E-03
CGA:   5    -0.669801398974E+03   -0.26936E-02   -0.27131E-02  8424   0.318E-02 0.353E-03
CGA:   6    -0.669802005764E+03   -0.60679E-03   -0.61457E-03  8424   0.696E-03 0.255E-03
CGA:   7    -0.669802129706E+03   -0.12394E-03   -0.13221E-03  8424   0.200E-03 0.195E-03
CGA:   8    -0.669802150280E+03   -0.20573E-04   -0.32960E-04  8424   0.929E-04 0.141E-03
CGA:   9    -0.669802150003E+03    0.27662E-06   -0.85416E-05  8424   0.624E-04 0.736E-04
  22 F= -.66980215E+03 E0= -.66980215E+03  d E =-.395144E-02  mag=     2.0000
       N       E                     dE             d eps       ncg     rms          ort
SDA:   1    -0.669472121048E+03    0.33003E+00    0.00000E+00  8424   0.920E+00 0.000E+00
CGA:   2    -0.669693118682E+03   -0.22100E+00   -0.22096E+00  8424   0.414E+00 0.619E-03
CGA:   3    -0.669772742975E+03   -0.79624E-01   -0.79622E-01  8424   0.113E+00-0.341E-03
CGA:   4    -0.669791737195E+03   -0.18994E-01   -0.19009E-01  8424   0.282E-01 0.465E-03
CGA:   5    -0.669796443604E+03   -0.47064E-02   -0.47280E-02  8424   0.560E-02 0.674E-03
CGA:   6    -0.669797523545E+03   -0.10799E-02   -0.10836E-02  8424   0.124E-02 0.451E-03
CGA:   7    -0.669797778053E+03   -0.25451E-03   -0.25614E-03  8424   0.371E-03 0.281E-03
CGA:   8    -0.669797839908E+03   -0.61855E-04   -0.70655E-04  8424   0.153E-03 0.213E-03
CGA:   9    -0.669797846276E+03   -0.63676E-05   -0.16322E-04  8424   0.940E-04 0.113E-03
  23 F= -.66979785E+03 E0= -.66979785E+03  d E =0.430373E-02  mag=     2.0000
       N       E                     dE             d eps       ncg     rms          ort
SDA:   1    -0.669429093924E+03    0.36875E+00    0.00000E+00  8424   0.914E+00 0.000E+00
CGA:   2    -0.669688113418E+03   -0.25902E+00   -0.25901E+00  8424   0.386E+00-0.452E-04
CGA:   3    -0.669759357709E+03   -0.71244E-01   -0.71243E-01  8424   0.102E+00-0.361E-03
CGA:   4    -0.669776745126E+03   -0.17387E-01   -0.17402E-01  8424   0.247E-01 0.797E-03
CGA:   5    -0.669780805234E+03   -0.40601E-02   -0.40795E-02  8424   0.485E-02 0.801E-03
CGA:   6    -0.669781777548E+03   -0.97231E-03   -0.96931E-03  8424   0.117E-02 0.459E-03
CGA:   7    -0.669782015905E+03   -0.23836E-03   -0.23846E-03  8424   0.371E-03 0.334E-03
CGA:   8    -0.669782068838E+03   -0.52934E-04   -0.65716E-04  8424   0.176E-03 0.258E-03
CGA:   9    -0.669782075123E+03   -0.62849E-05   -0.17736E-04  8424   0.117E-03 0.137E-03
  24 F= -.66978208E+03 E0= -.66978208E+03  d E =0.157712E-01  mag=     2.0000
       N       E                     dE             d eps       ncg     rms          ort
SDA:   1    -0.646240182573E+03    0.23542E+02    0.00000E+00  8424   0.790E+02 0.000E+00
CGA:   2    -0.660813893753E+03   -0.14574E+02   -0.14557E+02  8424   0.287E+02 0.110E+01
CGA:   3    -0.667169658754E+03   -0.63558E+01   -0.63646E+01  8424   0.939E+01-0.163E+00
CGA:   4    -0.668785679314E+03   -0.16160E+01   -0.16162E+01  8424   0.244E+01 0.103E-01
CGA:   5    -0.669188905720E+03   -0.40323E+00   -0.40334E+00  8424   0.504E+00 0.502E-02
CGA:   6    -0.669291916791E+03   -0.10301E+00   -0.10308E+00  8424   0.120E+00-0.239E-02
CGA:   7    -0.669318708307E+03   -0.26792E-01   -0.26745E-01  8424   0.364E-01 0.988E-03
CGA:   8    -0.669327575270E+03   -0.88670E-02   -0.88034E-02  8424   0.110E-01 0.107E-02
CGA:   9    -0.669330762373E+03   -0.31871E-02   -0.32571E-02  8424   0.448E-02-0.673E-03
CGA:  10    -0.669332031112E+03   -0.12687E-02   -0.12690E-02  8424   0.200E-02-0.406E-05
CGA:  11    -0.669332668398E+03   -0.63729E-03   -0.10182E-02  8424   0.247E-02-0.122E-02
CGA:  12    -0.669333090877E+03   -0.42248E-03   -0.43064E-03  8424   0.474E-03 0.227E-03
CGA:  13    -0.669333308381E+03   -0.21750E-03    0.65831E-02  8424   0.179E-03 0.174E-03
CGA:  14    -0.669333462740E+03   -0.15436E-03    0.49430E-04  8424   0.139E-03 0.144E-03
CGA:  15    -0.669333539415E+03   -0.76675E-04    0.44695E-04  8424   0.101E-03 0.828E-04
CGA:  16    -0.669333634242E+03   -0.94827E-04    0.84835E-05  8424   0.870E-04 0.758E-04
CGA:  17    -0.669333702305E+03   -0.68063E-04    0.10333E-04  8424   0.777E-04 0.713E-04
CGA:  18    -0.669333784176E+03   -0.81870E-04    0.52974E-05  8424   0.703E-04 0.674E-04
CGA:  19    -0.669333850843E+03   -0.66667E-04    0.57567E-05  8424   0.647E-04 0.635E-04
CGA:  20    -0.669333925141E+03   -0.74298E-04    0.38463E-05  8424   0.601E-04 0.599E-04
CGA:  21    -0.669333990283E+03   -0.65142E-04    0.39171E-05  8424   0.563E-04 0.566E-04
CGA:  22    -0.669334059763E+03   -0.69481E-04    0.29959E-05  8424   0.531E-04 0.536E-04
CGA:  23    -0.669334123207E+03   -0.63444E-04    0.29712E-05  8424   0.504E-04 0.510E-04
CGA:  24    -0.669334189570E+03   -0.66363E-04    0.24330E-05  8424   0.480E-04 0.485E-04
CGA:  25    -0.669334251177E+03   -0.61608E-04    0.24118E-05  8424   0.460E-04 0.463E-04
CGA:  26    -0.669334315521E+03   -0.64344E-04    0.20320E-05  8424   0.442E-04 0.443E-04
CGA:  27    -0.669334375145E+03   -0.59623E-04    0.20571E-05  8424   0.426E-04 0.425E-04
CGA:  28    -0.669334438298E+03   -0.63153E-04    0.17382E-05  8424   0.413E-04 0.407E-04
CGA:  29    -0.669334495690E+03   -0.57393E-04    0.18448E-05  8424   0.403E-04 0.390E-04
CGA:  30    -0.669334558377E+03   -0.62687E-04    0.15364E-05  8424   0.396E-04 0.372E-04
CGA:  31    -0.669334613265E+03   -0.54888E-04    0.17704E-05  8424   0.392E-04 0.353E-04
CGA:  32    -0.669334676016E+03   -0.62751E-04    0.14402E-05  8424   0.392E-04 0.332E-04
CGA:  33    -0.669334728270E+03   -0.52254E-04    0.18647E-05  8424   0.398E-04 0.309E-04
CGA:  34    -0.669334791369E+03   -0.63099E-04    0.14788E-05  8424   0.408E-04 0.282E-04
CGA:  35    -0.669334841026E+03   -0.49657E-04    0.22126E-05  8424   0.424E-04 0.251E-04
CGA:  36    -0.669334904507E+03   -0.63480E-04    0.17044E-05  8424   0.445E-04 0.216E-04
CGA:  37    -0.669334951784E+03   -0.47277E-04    0.30005E-05  8424   0.474E-04 0.176E-04
CGA:  38    -0.669335066810E+03   -0.11503E-03    0.21684E-05  8424   0.420E-04 0.644E-04
CGA:  39    -0.669335129585E+03   -0.62776E-04    0.16915E-05  8424   0.438E-04 0.164E-04
CGA:  40    -0.669335240805E+03   -0.11122E-03    0.18761E-05  8424   0.397E-04 0.595E-04
CGA:  41    -0.669335284910E+03   -0.44105E-04    0.24822E-05  8424   0.415E-04 0.151E-04
CGA:  42    -0.669335393605E+03   -0.10869E-03    0.16776E-05  8424   0.378E-04 0.560E-04
CGA:  43    -0.669335455091E+03   -0.61486E-04    0.13613E-05  8424   0.390E-04 0.142E-04
CGA:  44    -0.669335561106E+03   -0.10601E-03    0.14933E-05  8424   0.361E-04 0.526E-04
CGA:  45    -0.669335602258E+03   -0.41153E-04    0.21638E-05  8424   0.372E-04 0.133E-04
CGA:  46    -0.669335705933E+03   -0.10367E-03    0.13686E-05  8424   0.346E-04 0.500E-04
CGA:  47    -0.669335766401E+03   -0.60468E-04    0.11279E-05  8424   0.353E-04 0.126E-04
CGA:  48    -0.669335867955E+03   -0.10155E-03    0.12361E-05  8424   0.331E-04 0.472E-04
CGA:  49    -0.669335906369E+03   -0.38414E-04    0.19269E-05  8424   0.338E-04 0.119E-04
CGA:  50    -0.669336005592E+03   -0.99223E-04    0.11474E-05  8424   0.317E-04 0.451E-04
CGA:  51    -0.669336065122E+03   -0.59530E-04    0.94313E-06  8424   0.320E-04 0.115E-04
CGA:  52    -0.669336162426E+03   -0.97304E-04    0.10433E-05  8424   0.302E-04 0.427E-04
CGA:  53    -0.669336198437E+03   -0.36010E-04    0.16983E-05  8424   0.304E-04 0.112E-04
CGA:  54    -0.669336293307E+03   -0.94870E-04    0.97293E-06  8424   0.289E-04 0.408E-04
CGA:  55    -0.669336351687E+03   -0.58380E-04    0.78024E-06  8424   0.285E-04 0.111E-04
CGA:  56    -0.669336444493E+03   -0.92806E-04    0.88709E-06  8424   0.273E-04 0.385E-04
CGA:  57    -0.669336478793E+03   -0.34300E-04    0.14101E-05  8424   0.267E-04 0.112E-04
CGA:  58    -0.669336569061E+03   -0.90268E-04    0.82507E-06  8424   0.257E-04 0.366E-04
CGA:  59    -0.669336625605E+03   -0.56543E-04    0.62666E-06  8424   0.245E-04 0.116E-04
CGA:  60    -0.669336713459E+03   -0.87855E-04    0.75320E-06  8424   0.240E-04 0.345E-04
CGA:  61    -0.669336747164E+03   -0.33705E-04    0.10575E-05  8424   0.225E-04 0.120E-04
CGA:  62    -0.669336801234E+03   -0.54071E-04    0.49354E-06  8424   0.221E-04 0.122E-04
CGA:  63    -0.669336835556E+03   -0.34322E-04    0.84378E-06  8424   0.218E-04 0.121E-04
CGA:  64    -0.669336888071E+03   -0.52515E-04    0.47705E-06  8424   0.217E-04 0.118E-04
CGA:  65    -0.669336922708E+03   -0.34637E-04    0.79544E-06  8424   0.216E-04 0.115E-04
CGA:  66    -0.669336973990E+03   -0.51283E-04    0.47762E-06  8424   0.215E-04 0.111E-04
CGA:  67    -0.669337008735E+03   -0.34744E-04    0.78022E-06  8424   0.215E-04 0.107E-04
CGA:  68    -0.669337093877E+03   -0.85142E-04    0.63055E-06  8424   0.206E-04 0.318E-04
CGA:  69    -0.669337144107E+03   -0.50230E-04    0.44391E-06  8424   0.205E-04 0.104E-04
CGA:  70    -0.669337177916E+03   -0.33809E-04    0.72636E-06  8424   0.206E-04 0.995E-05
CGA:  71    -0.669337261104E+03   -0.83188E-04    0.57607E-06  8424   0.197E-04 0.301E-04
CGA:  72    -0.669337310295E+03   -0.49191E-04    0.41287E-06  8424   0.196E-04 0.970E-05
CGA:  73    -0.669337392130E+03   -0.81835E-04    0.53129E-06  8424   0.189E-04 0.288E-04
CGA:  74    -0.669337424048E+03   -0.31918E-04    0.64362E-06  8424   0.190E-04 0.925E-05
CGA:  75    -0.669337504499E+03   -0.80451E-04    0.50464E-06  8424   0.181E-04 0.279E-04
CGA:  76    -0.669337552701E+03   -0.48202E-04    0.35105E-06  8424   0.180E-04 0.901E-05
CGA:  77    -0.669337631815E+03   -0.79114E-04    0.46670E-06  8424   0.174E-04 0.266E-04
CGA:  78    -0.669337661928E+03   -0.30113E-04    0.57190E-06  8424   0.174E-04 0.863E-05
CGA:  79    -0.669337739586E+03   -0.77658E-04    0.44223E-06  8424   0.167E-04 0.257E-04
CGA:  80    -0.669337786817E+03   -0.47231E-04    0.29937E-06  8424   0.166E-04 0.840E-05
CGA:  81    -0.669337816118E+03   -0.29302E-04    0.53303E-06  8424   0.166E-04 0.809E-05
CGA:  82    -0.669337891770E+03   -0.75652E-04    0.40471E-06  8424   0.159E-04 0.243E-04
[...]
CGA:   4    -0.669741495184E+03   -0.18261E-01   -0.18209E-01  8424   0.271E-01 0.109E-02
CGA:   5    -0.669746188973E+03   -0.46938E-02   -0.46534E-02  8424   0.527E-02 0.817E-03
CGA:   6    -0.669747194185E+03   -0.10052E-02   -0.96593E-03  8424   0.113E-02 0.717E-03
CGA:   7    -0.669747368539E+03   -0.17435E-03   -0.17019E-03  8424   0.427E-03 0.614E-03
CGA:   8    -0.669747392926E+03   -0.24387E-04   -0.37267E-04  8424   0.274E-03 0.331E-03
CGA:   9    -0.669747396301E+03   -0.33755E-05   -0.17809E-04  8424   0.222E-03 0.244E-03
CGA:  10    -0.669747394499E+03    0.18022E-05   -0.11994E-04  8424   0.193E-03 0.205E-03
  37 F= -.66974739E+03 E0= -.66974739E+03  d E =0.136864E-01  mag=     2.0000
       N       E                     dE             d eps       ncg     rms          ort
SDA:   1    -0.626214224605E+03    0.43533E+02    0.00000E+00  8424   0.151E+03 0.000E+00
CGA:   2    -0.653148904761E+03   -0.26935E+02   -0.26640E+02  8424   0.508E+02 0.417E+01
CGA:   3    -0.664764706662E+03   -0.11616E+02   -0.11658E+02  8424   0.171E+02-0.454E+00
CGA:   4    -0.667726752057E+03   -0.29620E+01   -0.29585E+01  8424   0.464E+01 0.469E-01
CGA:   5    -0.668499052724E+03   -0.77230E+00   -0.77135E+00  8424   0.941E+00 0.188E-01
CGA:   6    -0.668691449183E+03   -0.19240E+00   -0.19270E+00  8424   0.227E+00-0.414E-02
CGA:   7    -0.668744519495E+03   -0.53070E-01   -0.52768E-01  8424   0.721E-01 0.295E-02
CGA:   8    -0.668762346997E+03   -0.17828E-01   -0.17664E-01  8424   0.220E-01 0.155E-02
CGA:   9    -0.668768680928E+03   -0.63339E-02   -0.65836E-02  8424   0.915E-02-0.166E-02
CGA:  10    -0.668771128481E+03   -0.24476E-02   -0.24399E-02  8424   0.361E-02 0.523E-04
CGA:  11    -0.668772290110E+03   -0.11616E-02   -0.14962E-02  8424   0.251E-02-0.131E-02
CGA:  12    -0.668772674273E+03   -0.38416E-03   -0.39177E-03  8424   0.107E-02-0.103E-03
CGA:  13    -0.668772964326E+03   -0.29005E-03   -0.47610E-03  8424   0.129E-02-0.644E-03
CGA:  14    -0.668773330014E+03   -0.36569E-03   -0.42550E-03  8424   0.628E-03-0.423E-03
CGA:  15    -0.668773487339E+03   -0.15732E-03   -0.15495E-03  8424   0.353E-03 0.118E-04
CGA:  16    -0.668773652752E+03   -0.16541E-03    0.27445E-03  8424   0.131E-03 0.151E-03
CGA:  17    -0.668773752168E+03   -0.99416E-04    0.62310E-04  8424   0.920E-04 0.105E-03
CGA:  18    -0.668773801725E+03   -0.49557E-04   -0.46990E-04  8424   0.193E-03 0.723E-05
CGA:  19    -0.668773961591E+03   -0.15987E-03    0.30219E-04  8424   0.127E-03 0.161E-03
CGA:  20    -0.668774048215E+03   -0.86624E-04    0.24805E-04  8424   0.699E-04 0.429E-04
CGA:  21    -0.668774110286E+03   -0.62071E-04    0.19654E-04  8424   0.638E-04 0.716E-04
CGA:  22    -0.668774140759E+03   -0.30472E-04    0.74559E-04  8424   0.541E-04 0.486E-04
CGA:  23    -0.668774192690E+03   -0.51931E-04    0.49414E-05  8424   0.521E-04 0.481E-04
CGA:  24    -0.668774225680E+03   -0.32990E-04    0.12612E-04  8424   0.509E-04 0.479E-04
CGA:  25    -0.668774273929E+03   -0.48249E-04    0.47451E-05  8424   0.500E-04 0.475E-04
CGA:  26    -0.668774307828E+03   -0.33899E-04    0.98461E-05  8424   0.493E-04 0.469E-04
CGA:  27    -0.668774354825E+03   -0.46997E-04    0.45410E-05  8424   0.487E-04 0.462E-04
CGA:  28    -0.668774388095E+03   -0.33270E-04    0.94133E-05  8424   0.483E-04 0.454E-04
CGA:  29    -0.668774435121E+03   -0.47026E-04    0.42873E-05  8424   0.480E-04 0.445E-04
CGA:  30    -0.668774466835E+03   -0.31714E-04    0.10230E-04  8424   0.479E-04 0.435E-04
CGA:  31    -0.668774514706E+03   -0.47870E-04    0.40696E-05  8424   0.480E-04 0.424E-04
CGA:  32    -0.668774544250E+03   -0.29544E-04    0.12850E-04  8424   0.484E-04 0.410E-04
CGA:  33    -0.668774593502E+03   -0.49253E-04    0.39755E-05  8424   0.490E-04 0.394E-04
CGA:  34    -0.668774620466E+03   -0.26964E-04    0.20628E-04  8424   0.500E-04 0.375E-04
CGA:  35    -0.668774671437E+03   -0.50971E-04    0.40921E-05  8424   0.513E-04 0.354E-04
CGA:  36    -0.668774695565E+03   -0.24128E-04    0.73182E-04  8424   0.531E-04 0.328E-04
CGA:  37    -0.668774748432E+03   -0.52868E-04    0.45369E-05  8424   0.554E-04 0.298E-04
CGA:  38    -0.668774758272E+03   -0.98398E-05   -0.47949E-04  8424   0.786E-03-0.603E-04
CGA:  39    -0.668774924405E+03   -0.16613E-03   -0.13102E-03  8424   0.321E-03-0.418E-03
CGA:  40    -0.668774940117E+03   -0.15712E-04   -0.28377E-04  8424   0.453E-04 0.800E-04
CGA:  41    -0.668774956562E+03   -0.16446E-04   -0.17127E-04  8424   0.174E-03-0.112E-04
CGA:  42    -0.668775078642E+03   -0.12208E-03    0.16951E-04  8424   0.785E-03 0.155E-04
CGA:  43    -0.668776060896E+03   -0.98225E-03    0.75331E-04  8424   0.126E-02 0.664E-03
CGA:  44    -0.668776301486E+03   -0.24059E-03   -0.19418E-03  8424   0.287E-03-0.527E-03
CGA:  45    -0.668776330824E+03   -0.29339E-04   -0.31429E-04  8424   0.284E-04 0.417E-04
CGA:  46    -0.668776350309E+03   -0.19484E-04    0.13869E-04  8424   0.393E-04 0.200E-04
CGA:  47    -0.668776403425E+03   -0.53116E-04    0.24558E-05  8424   0.482E-04 0.728E-05
CGA:  48    -0.668776472198E+03   -0.68773E-04    0.42970E-05  8424   0.422E-04 0.561E-04
CGA:  49    -0.668776476252E+03   -0.40537E-05   -0.57991E-05  8424   0.265E-04 0.178E-04
  38 F= -.66877648E+03 E0= -.66877648E+03  d E =0.970918E+00  mag=     2.0000
       N       E                     dE             d eps       ncg     rms          ort
SDA:   1    -0.655018746729E+03    0.13758E+02    0.00000E+00  8424   0.502E+02 0.000E+00
CGA:   2    -0.664246852974E+03   -0.92281E+01   -0.92602E+01  8424   0.183E+02 0.219E+00
CGA:   3    -0.668254323391E+03   -0.40075E+01   -0.40065E+01  8424   0.604E+01-0.536E-01
CGA:   4    -0.669288972687E+03   -0.10346E+01   -0.10351E+01  8424   0.159E+01 0.151E-02
CGA:   5    -0.669557466879E+03   -0.26849E+00   -0.26874E+00  8424   0.327E+00 0.240E-02
CGA:   6    -0.669622259626E+03   -0.64793E-01   -0.64750E-01  8424   0.721E-01-0.175E-02
CGA:   7    -0.669638557578E+03   -0.16298E-01   -0.16294E-01  8424   0.219E-01 0.517E-03
CGA:   8    -0.669643868128E+03   -0.53106E-02   -0.53086E-02  8424   0.640E-02 0.958E-04
CGA:   9    -0.669645661253E+03   -0.17931E-02   -0.18240E-02  8424   0.241E-02-0.501E-03
CGA:  10    -0.669646321360E+03   -0.66011E-03   -0.66704E-03  8424   0.102E-02-0.931E-04
CGA:  11    -0.669646590190E+03   -0.26883E-03   -0.53138E-03  8424   0.165E-02-0.836E-03
CGA:  12    -0.669646841289E+03   -0.25110E-03   -0.26518E-03  8424   0.241E-03 0.167E-03
CGA:  13    -0.669645820993E+03    0.10203E-02   -0.55154E-03  8424   0.648E-02-0.112E-02
CGA:  14    -0.669646962659E+03   -0.11417E-02   -0.12126E-02  8424   0.112E-02 0.281E-03
CGA:  15    -0.669647310887E+03   -0.34823E-03   -0.30524E-03  8424   0.248E-03-0.263E-03
CGA:  16    -0.669647360191E+03   -0.49304E-04   -0.49582E-04  8424   0.766E-04 0.148E-05
CGA:  17    -0.669647463343E+03   -0.10315E-03    0.24871E-04  8424   0.572E-04-0.566E-05
CGA:  18    -0.669647567596E+03   -0.10425E-03    0.77407E-05  8424   0.546E-04 0.234E-04
CGA:  19    -0.669647745441E+03   -0.17785E-03    0.86811E-05  8424   0.380E-04 0.372E-04
CGA:  20    -0.669647800354E+03   -0.54913E-04    0.10219E-04  8424   0.544E-04-0.147E-05
CGA:  21    -0.669647928451E+03   -0.12810E-03    0.53781E-05  8424   0.653E-04 0.235E-05
CGA:  22    -0.669648135116E+03   -0.20666E-03    0.51570E-05  8424   0.513E-04 0.475E-04
CGA:  23    -0.669648201140E+03   -0.66024E-04    0.18399E-04  8424   0.650E-04-0.683E-05
CGA:  24    -0.669648300526E+03   -0.99386E-04    0.10022E-04  8424   0.700E-04-0.213E-04
CGA:  25    -0.669648457499E+03   -0.15697E-03    0.31405E-05  8424   0.774E-04 0.190E-04
CGA:  26    -0.669648728943E+03   -0.27144E-03    0.85219E-05  8424   0.630E-04 0.423E-04
CGA:  27    -0.669648748162E+03   -0.19219E-04   -0.16783E-04  8424   0.586E-04-0.171E-04
CGA:  28    -0.669648842504E+03   -0.94341E-04    0.49295E-05  8424   0.307E-04 0.521E-05
CGA:  29    -0.669648955415E+03   -0.11291E-03    0.20974E-05  8424   0.646E-04-0.362E-05
CGA:  30    -0.669649181930E+03   -0.22652E-03    0.29059E-05  8424   0.877E-04 0.171E-04
CGA:  31    -0.669649479625E+03   -0.29769E-03    0.95671E-05  8424   0.202E-03-0.105E-04
CGA:  32    -0.669650327536E+03   -0.84791E-03    0.72841E-05  8424   0.357E-03 0.114E-04
CGA:  33    -0.669652005339E+03   -0.16778E-02    0.16799E-04  8424   0.930E-03-0.324E-03
CGA:  34    -0.669652075117E+03   -0.69777E-04   -0.11856E-03  8424   0.974E-04 0.178E-03
CGA:  35    -0.669652093650E+03   -0.18533E-04   -0.23422E-04  8424   0.445E-04 0.261E-04
CGA:  36    -0.669652141370E+03   -0.47720E-04    0.93710E-04  8424   0.470E-04-0.292E-04
CGA:  37    -0.669652141668E+03   -0.29853E-06   -0.56648E-05  8424   0.117E-04 0.207E-04
  39 F= -.66965214E+03 E0= -.66965214E+03  d E =-.875665E+00  mag=     2.0000
       N       E                     dE             d eps       ncg     rms          ort
SDA:   1    -0.666950459277E+03    0.27017E+01    0.00000E+00  8424   0.920E+01 0.000E+00
CGA:   2    -0.668739602439E+03   -0.17891E+01   -0.17954E+01  8424   0.351E+01-0.377E-02
CGA:   3    -0.669486376517E+03   -0.74677E+00   -0.74575E+00  8424   0.117E+01 0.306E-03
CGA:   4    -0.669684909556E+03   -0.19853E+00   -0.19863E+00  8424   0.303E+00 0.364E-03
CGA:   5    -0.669736291313E+03   -0.51382E-01   -0.51536E-01  8424   0.588E-01 0.762E-03
CGA:   6    -0.669747864488E+03   -0.11573E-01   -0.11598E-01  8424   0.130E-01 0.190E-03
CGA:   7    -0.669750745619E+03   -0.28811E-02   -0.29164E-02  8424   0.384E-02 0.366E-03
CGA:   8    -0.669751630985E+03   -0.88537E-03   -0.91019E-03  8424   0.104E-02 0.296E-03
CGA:   9    -0.669751855989E+03   -0.22500E-03   -0.24655E-03  8424   0.313E-03 0.242E-03
CGA:  10    -0.669751883337E+03   -0.27348E-04   -0.59637E-04  8424   0.152E-03 0.214E-03
CGA:  11    -0.669751880062E+03    0.32752E-05   -0.17906E-04  8424   0.987E-04 0.117E-03
  40 F= -.66975188E+03 E0= -.66975188E+03  d E =-.997384E-01  mag=     2.0000
       N       E                     dE             d eps       ncg     rms          ort
SDA:   1    -0.669459426502E+03    0.29246E+00    0.00000E+00  8424   0.911E+00 0.000E+00
CGA:   2    -0.669659926069E+03   -0.20050E+00   -0.20055E+00  8424   0.388E+00 0.363E-03
CGA:   3    -0.669738126309E+03   -0.78200E-01   -0.78177E-01  8424   0.116E+00-0.241E-03
CGA:   4    -0.669757737681E+03   -0.19611E-01   -0.19656E-01  8424   0.290E-01 0.438E-03
CGA:   5    -0.669762519831E+03   -0.47822E-02   -0.48505E-02  8424   0.548E-02 0.676E-03
CGA:   6    -0.669763533932E+03   -0.10141E-02   -0.10515E-02  8424   0.122E-02 0.500E-03
CGA:   7    -0.669763748582E+03   -0.21465E-03   -0.24183E-03  8424   0.372E-03 0.356E-03
CGA:   8    -0.669763778375E+03   -0.29792E-04   -0.62835E-04  8424   0.176E-03 0.266E-03
CGA:   9    -0.669763772642E+03    0.57328E-05   -0.16227E-04  8424   0.120E-03 0.141E-03
  41 F= -.66976377E+03 E0= -.66976377E+03  d E =-.118926E-01  mag=     2.0000
       N       E                     dE             d eps       ncg     rms          ort
SDA:   1    -0.669278267194E+03    0.48551E+00    0.00000E+00  8424   0.134E+01 0.000E+00
CGA:   2    -0.669626120208E+03   -0.34785E+00   -0.34785E+00  8424   0.582E+00-0.207E-03
CGA:   3    -0.669735343570E+03   -0.10922E+00   -0.10920E+00  8424   0.158E+00-0.556E-03
CGA:   4    -0.669762219945E+03   -0.26876E-01   -0.26925E-01  8424   0.391E-01 0.815E-03
CGA:   5    -0.669768639574E+03   -0.64196E-02   -0.64931E-02  8424   0.758E-02 0.116E-02
CGA:   6    -0.669770066306E+03   -0.14267E-02   -0.14579E-02  8424   0.173E-02 0.814E-03
CGA:   7    -0.669770391924E+03   -0.32562E-03   -0.34833E-03  8424   0.562E-03 0.549E-03
CGA:   8    -0.669770450496E+03   -0.58572E-04   -0.96383E-04  8424   0.278E-03 0.416E-03
CGA:   9    -0.669770449435E+03    0.10613E-05   -0.26161E-04  8424   0.191E-03 0.222E-03
CGA:  10    -0.669770438762E+03    0.10673E-04   -0.13640E-04  8424   0.163E-03 0.175E-03
CGA:  11    -0.669770426543E+03    0.12218E-04   -0.97267E-05  8424   0.146E-03 0.153E-03
CGA:  12    -0.669770414152E+03    0.12391E-04   -0.76066E-05  8424   0.134E-03 0.139E-03
CGA:  13    -0.669770402033E+03    0.12119E-04   -0.62367E-05  8424   0.125E-03 0.129E-03
CGA:  14    -0.669770390358E+03    0.11675E-04   -0.52656E-05  8424   0.118E-03 0.121E-03
CGA:  15    -0.669770379194E+03    0.11164E-04   -0.45361E-05  8424   0.113E-03 0.115E-03
CGA:  16    -0.669770368558E+03    0.10636E-04   -0.39656E-05  8424   0.108E-03 0.110E-03
CGA:  17    -0.669770358447E+03    0.10111E-04   -0.35064E-05  8424   0.104E-03 0.106E-03
CGA:  18    -0.669770348845E+03    0.96013E-05   -0.31285E-05  8424   0.101E-03 0.102E-03
  42 F= -.66977035E+03 E0= -.66977035E+03  d E =-.657620E-02  mag=     2.0000
       N       E                     dE             d eps       ncg     rms          ort
SDA:   1    -0.669515470225E+03    0.25489E+00    0.00000E+00  8424   0.695E+00 0.000E+00
CGA:   2    -0.669699247202E+03   -0.18378E+00   -0.18374E+00  8424   0.289E+00 0.239E-03
CGA:   3    -0.669754014033E+03   -0.54767E-01   -0.54789E-01  8424   0.806E-01-0.547E-03
CGA:   4    -0.669767683445E+03   -0.13669E-01   -0.13648E-01  8424   0.197E-01 0.110E-02
CGA:   5    -0.669770866166E+03   -0.31827E-02   -0.31725E-02  8424   0.364E-02 0.144E-02
CGA:   6    -0.669771504121E+03   -0.63796E-03   -0.62897E-03  8424   0.882E-03 0.101E-02
CGA:   7    -0.669771618219E+03   -0.11410E-03   -0.13420E-03  8424   0.407E-03 0.603E-03
CGA:   8    -0.669771636288E+03   -0.18068E-04   -0.37214E-04  8424   0.273E-03 0.322E-03
CGA:   9    -0.669771634852E+03    0.14357E-05   -0.18460E-04  8424   0.228E-03 0.248E-03
CGA:  10    -0.669771628921E+03    0.59308E-05   -0.12775E-04  8424   0.201E-03 0.213E-03
  43 F= -.66977163E+03 E0= -.66977163E+03  d E =-.128008E-02  mag=     2.0000
       N       E                     dE             d eps       ncg     rms          ort
SDA:   1    -0.669532347460E+03    0.23929E+00    0.00000E+00  8424   0.593E+00 0.000E+00
CGA:   2    -0.669705389345E+03   -0.17304E+00   -0.17289E+00  8424   0.272E+00 0.883E-03
CGA:   3    -0.669753590441E+03   -0.48201E-01   -0.48181E-01  8424   0.623E-01 0.570E-03
CGA:   4    -0.669764127459E+03   -0.10537E-01   -0.10515E-01  8424   0.156E-01 0.929E-03
CGA:   5    -0.669766715707E+03   -0.25882E-02   -0.25701E-02  8424   0.300E-02 0.109E-02
CGA:   6    -0.669767235831E+03   -0.52012E-03   -0.50941E-03  8424   0.739E-03 0.878E-03
CGA:   7    -0.669767322426E+03   -0.86595E-04   -0.10606E-03  8424   0.358E-03 0.539E-03
CGA:   8    -0.669767334455E+03   -0.12028E-04   -0.29973E-04  8424   0.253E-03 0.292E-03
CGA:   9    -0.669767332391E+03    0.20632E-05   -0.16076E-04  8424   0.214E-03 0.230E-03
CGA:  10    -0.669767326827E+03    0.55647E-05   -0.11452E-04  8424   0.191E-03 0.200E-03
  44 F= -.66976733E+03 E0= -.66976733E+03  d E =0.430209E-02  mag=     2.0000
       N       E                     dE             d eps       ncg     rms          ort
SDA:   1    -0.667316484755E+03    0.24508E+01    0.00000E+00  8424   0.624E+01 0.000E+00
CGA:   2    -0.669022795799E+03   -0.17063E+01   -0.17062E+01  8424   0.295E+01 0.128E-02
CGA:   3    -0.669562239066E+03   -0.53944E+00   -0.53938E+00  8424   0.684E+00 0.126E-02
CGA:   4    -0.669676168400E+03   -0.11393E+00   -0.11392E+00  8424   0.174E+00 0.244E-03
CGA:   5    -0.669706620933E+03   -0.30453E-01   -0.30429E-01  8424   0.364E-01 0.646E-03
CGA:   6    -0.669713833626E+03   -0.72127E-02   -0.71573E-02  8424   0.839E-02 0.102E-02
CGA:   7    -0.669715819874E+03   -0.19862E-02   -0.19307E-02  8424   0.272E-02 0.703E-03
CGA:   8    -0.669716495102E+03   -0.67523E-03   -0.62764E-03  8424   0.947E-03 0.743E-03
CGA:   9    -0.669716712606E+03   -0.21750E-03   -0.20605E-03  8424   0.462E-03 0.610E-03
CGA:  10    -0.669716781806E+03   -0.69200E-04   -0.69805E-04  8424   0.279E-03 0.324E-03
CGA:  11    -0.669716804577E+03   -0.22771E-04   -0.32237E-04  8424   0.234E-03 0.254E-03
CGA:  12    -0.669716817102E+03   -0.12526E-04   -0.23593E-04  8424   0.208E-03 0.220E-03
CGA:  13    -0.669716824260E+03   -0.71573E-05   -0.18739E-04  8424   0.190E-03 0.198E-03
CGA:  14    -0.669716828197E+03   -0.39377E-05   -0.15554E-04  8424   0.176E-03 0.182E-03
CGA:  15    -0.669716830041E+03   -0.18432E-05   -0.13270E-04  8424   0.165E-03 0.170E-03
CGA:  16    -0.669716830456E+03   -0.41499E-06   -0.11542E-04  8424   0.156E-03 0.161E-03
CGA:  17    -0.669716829868E+03    0.58776E-06   -0.10183E-04  8424   0.149E-03 0.153E-03
  45 F= -.66971683E+03 E0= -.66971683E+03  d E =0.504970E-01  mag=     2.0000
       N       E                     dE             d eps       ncg     rms          ort
SDA:   1    -0.628891738404E+03    0.40825E+02    0.00000E+00  8424   0.129E+03 0.000E+00
CGA:   2    -0.654667916503E+03   -0.25776E+02   -0.25583E+02  8424   0.499E+02 0.239E+01
CGA:   3    -0.665431877475E+03   -0.10764E+02   -0.10791E+02  8424   0.154E+02-0.336E+00
CGA:   4    -0.668063169676E+03   -0.26313E+01   -0.26292E+01  8424   0.402E+01 0.372E-01
CGA:   5    -0.668745875941E+03   -0.68271E+00   -0.68220E+00  8424   0.848E+00 0.128E-01
CGA:   6    -0.668919877275E+03   -0.17400E+00   -0.17422E+00  8424   0.214E+00-0.342E-02
CGA:   7    -0.668969841994E+03   -0.49965E-01   -0.49685E-01  8424   0.675E-01 0.303E-02
CGA:   8    -0.668987240960E+03   -0.17399E-01   -0.17249E-01  8424   0.230E-01 0.141E-02
CGA:   9    -0.668994068510E+03   -0.68275E-02   -0.70873E-02  8424   0.986E-02-0.175E-02
CGA:  10    -0.668996775761E+03   -0.27073E-02   -0.27145E-02  8424   0.392E-02-0.545E-04
CGA:  11    -0.668997996097E+03   -0.12203E-02   -0.16003E-02  8424   0.288E-02-0.156E-02
CGA:  12    -0.668998411558E+03   -0.41546E-03   -0.43383E-03  8424   0.132E-02-0.259E-03
CGA:  13    -0.668998591957E+03   -0.18040E-03   -0.72372E-03  8424   0.296E-02-0.130E-02
CGA:  14    -0.668999374743E+03   -0.78279E-03   -0.82997E-03  8424   0.749E-03-0.618E-03
CGA:  15    -0.668999577025E+03   -0.20228E-03   -0.20228E-03  8424   0.315E-03-0.115E-05
CGA:  16    -0.668999777671E+03   -0.20065E-03    0.68727E-04  8424   0.126E-03 0.138E-03
CGA:  17    -0.668999910624E+03   -0.13295E-03    0.27397E-04  8424   0.860E-04 0.104E-03
CGA:  18    -0.668999950475E+03   -0.39850E-04    0.11263E-03  8424   0.641E-04 0.531E-04
CGA:  19    -0.669000029157E+03   -0.78682E-04    0.36737E-05  8424   0.569E-04 0.530E-04
CGA:  20    -0.669000079377E+03   -0.50220E-04    0.57614E-05  8424   0.532E-04 0.518E-04
CGA:  21    -0.669000145385E+03   -0.66008E-04    0.29991E-05  8424   0.506E-04 0.502E-04
CGA:  22    -0.669000198193E+03   -0.52808E-04    0.37722E-05  8424   0.487E-04 0.486E-04
CGA:  23    -0.669000259324E+03   -0.61131E-04    0.26970E-05  8424   0.471E-04 0.471E-04
CGA:  24    -0.669000311504E+03   -0.52180E-04    0.31812E-05  8424   0.458E-04 0.457E-04
CGA:  25    -0.669000370675E+03   -0.59171E-04    0.24335E-05  8424   0.447E-04 0.443E-04
CGA:  26    -0.669000420716E+03   -0.50041E-04    0.29727E-05  8424   0.439E-04 0.430E-04
CGA:  27    -0.669000479688E+03   -0.58973E-04    0.22006E-05  8424   0.433E-04 0.417E-04
CGA:  28    -0.669000526407E+03   -0.46719E-04    0.30567E-05  8424   0.431E-04 0.402E-04
CGA:  29    -0.669000586419E+03   -0.60012E-04    0.20490E-05  8424   0.432E-04 0.385E-04
CGA:  30    -0.669000629057E+03   -0.42638E-04    0.35535E-05  8424   0.439E-04 0.364E-04
CGA:  31    -0.669000690819E+03   -0.61762E-04    0.20567E-05  8424   0.451E-04 0.340E-04
CGA:  32    -0.669000729083E+03   -0.38264E-04    0.49216E-05  8424   0.470E-04 0.309E-04
CGA:  33    -0.669000792734E+03   -0.63651E-04    0.23279E-05  8424   0.496E-04 0.273E-04
CGA:  34    -0.669000826822E+03   -0.34087E-04    0.87849E-05  8424   0.531E-04 0.229E-04
CGA:  35    -0.669000929888E+03   -0.10307E-03    0.39565E-05  8424   0.470E-04 0.760E-04
CGA:  36    -0.669000993532E+03   -0.63644E-04    0.23316E-05  8424   0.492E-04 0.223E-04
CGA:  37    -0.669001091927E+03   -0.98395E-04    0.35816E-05  8424   0.446E-04 0.711E-04
