       N       E                     dE             d eps       ncg     rms          ort
DAV:   1     0.827078724201E+04    0.82708E+04   -0.24653E+05  8424   0.238E+03
DAV:   2     0.920729408913E+03   -0.73501E+04   -0.68980E+04  8424   0.657E+02
DAV:   3    -0.672144122819E+03   -0.15929E+04   -0.14008E+04  8424   0.282E+02
DAV:   4    -0.828927656329E+03   -0.15678E+03   -0.15399E+03  8424   0.861E+01
DAV:   5    -0.831435562175E+03   -0.25079E+01   -0.24973E+01  8424   0.122E+01
SDA:   6    -0.218587772760E+03    0.61285E+03   -0.24973E+01  8424   0.563E+04 0.000E+00
CGA:   7    -0.429043751357E+03   -0.21046E+03   -0.44462E+03  8424   0.303E+04-0.131E+03
CGA:   8    -0.546196478531E+03   -0.11715E+03   -0.16086E+03  8424   0.957E+03-0.870E+03
CGA:   9    -0.629247128328E+03   -0.83051E+02   -0.20975E+02  8424   0.153E+03-0.266E+02
CGA:  10    -0.631400689934E+03   -0.21536E+01   -0.63509E+01  8424   0.750E+03-0.305E+03
CGA:  11    -0.638612813660E+03   -0.72121E+01   -0.36874E+02  8424   0.136E+03-0.467E+02
CGA:  12    -0.649631554851E+03   -0.11019E+02   -0.39954E+01  8424   0.145E+03 0.279E+03
CGA:  13    -0.645102896157E+03    0.45287E+01   -0.80665E+01  8424   0.765E+03-0.283E+03
CGA:  14    -0.647002885642E+03   -0.19000E+01   -0.39329E+02  8424   0.106E+03-0.598E+02
CGA:  15    -0.655308667166E+03   -0.83058E+01   -0.21528E+01  8424   0.130E+03 0.250E+03
CGA:  16    -0.657844664585E+03   -0.25360E+01   -0.62272E+01  8424   0.650E+02-0.470E+02
CGA:  17    -0.661502254455E+03   -0.36576E+01   -0.33170E+01  8424   0.892E+01 0.986E+01
CGA:  18    -0.664682944847E+03   -0.31807E+01   -0.32250E+01  8424   0.238E+02-0.545E+00
CGA:  19    -0.665679582849E+03   -0.99664E+00   -0.13258E+01  8424   0.102E+02-0.752E+01
CGA:  20    -0.665892930269E+03   -0.21335E+00   -0.34299E+00  8424   0.349E+01-0.193E+01
CGA:  21    -0.666070714141E+03   -0.17778E+00   -0.19104E+00  8424   0.352E+01-0.186E+00
CGA:  22    -0.666440724360E+03   -0.37001E+00   -0.34975E+00  8424   0.189E+01-0.155E+00
CGA:  23    -0.666590135616E+03   -0.14941E+00   -0.15822E+00  8424   0.135E+01 0.116E-01
CGA:  24    -0.666717562629E+03   -0.12743E+00   -0.13503E+00  8424   0.535E+00 0.495E-01
CGA:  25    -0.666821722899E+03   -0.10416E+00   -0.97395E-01  8424   0.367E+00 0.941E-01
CGA:  26    -0.666892737185E+03   -0.71014E-01   -0.70811E-01  8424   0.306E+00-0.870E-03
CGA:  27    -0.666951144495E+03   -0.58407E-01   -0.59033E-01  8424   0.156E+00-0.159E-01
CGA:  28    -0.666993889029E+03   -0.42745E-01   -0.49080E-01  8424   0.199E+00-0.300E-01
CGA:  29    -0.667026671496E+03   -0.32782E-01   -0.40359E-01  8424   0.263E+00-0.696E-01
CGA:  30    -0.667057718984E+03   -0.31047E-01   -0.48633E-01  8424   0.360E+00-0.128E+00
CGA:  31    -0.667090218856E+03   -0.32500E-01   -0.35810E-01  8424   0.257E+00-0.967E-01
CGA:  32    -0.667122405896E+03   -0.32187E-01   -0.33807E-01  8424   0.187E+00-0.739E-01
CGA:  33    -0.667148447963E+03   -0.26042E-01   -0.50406E-01  8424   0.275E+00-0.113E+00
CGA:  34    -0.667193855999E+03   -0.45408E-01   -0.45416E-01  8424   0.107E+00 0.324E-03
CGA:  35    -0.667229941222E+03   -0.36085E-01   -0.33222E-01  8424   0.670E-01 0.205E-01
CGA:  36    -0.667251390119E+03   -0.21449E-01   -0.20143E-01  8424   0.344E-01 0.171E-01
CGA:  37    -0.667267400552E+03   -0.16010E-01   -0.14403E-01  8424   0.169E-01 0.105E-01
CGA:  38    -0.667275021617E+03   -0.76211E-02   -0.67918E-02  8424   0.111E-01 0.692E-02
CGA:  39    -0.667280176563E+03   -0.51549E-02   -0.46773E-02  8424   0.992E-02 0.440E-02
CGA:  40    -0.667286318594E+03   -0.61420E-02   -0.54510E-02  8424   0.906E-02 0.337E-02
CGA:  41    -0.667286020773E+03    0.29782E-03   -0.26105E-02  8424   0.865E-01-0.150E-01
CGA:  42    -0.667300012567E+03   -0.13992E-01   -0.14124E-01  8424   0.129E-01 0.854E-03
CGA:  43    -0.667306719021E+03   -0.67065E-02   -0.78943E-02  8424   0.218E-01-0.511E-02
CGA:  44    -0.667312144490E+03   -0.54255E-02   -0.75793E-02  8424   0.264E-01-0.113E-01
CGA:  45    -0.667320320687E+03   -0.81762E-02   -0.80578E-02  8424   0.124E-01-0.139E-02
CGA:  46    -0.667323479502E+03   -0.31588E-02   -0.30466E-02  8424   0.402E-02-0.862E-03
CGA:  47    -0.667325045449E+03   -0.15659E-02   -0.23530E-02  8424   0.120E-01-0.321E-02
CGA:  48    -0.667326704917E+03   -0.16595E-02   -0.17754E-02  8424   0.183E-02 0.524E-03
CGA:  49    -0.667326962945E+03   -0.25803E-03   -0.18585E-02  8424   0.139E-01-0.272E-02
CGA:  50    -0.667329566682E+03   -0.26037E-02   -0.25693E-02  8424   0.211E-02-0.692E-04
CGA:  51    -0.667330444677E+03   -0.87799E-03   -0.10445E-02  8424   0.601E-02-0.170E-02
CGA:  52    -0.667331276770E+03   -0.83209E-03   -0.87704E-03  8424   0.961E-03 0.199E-03
CGA:  53    -0.667332159127E+03   -0.88236E-03    0.14510E-02  8424   0.918E-03 0.267E-03
CGA:  54    -0.667333679444E+03   -0.15203E-02    0.35085E-03  8424   0.102E-02 0.940E-03
CGA:  55    -0.667334131681E+03   -0.45224E-03   -0.76307E-03  8424   0.555E-02-0.889E-03
CGA:  56    -0.667335283083E+03   -0.11514E-02   -0.94960E-03  8424   0.128E-02-0.890E-03
CGA:  57    -0.667327786808E+03    0.74963E-02   -0.40384E-02  8424   0.702E-01-0.469E-02
CGA:  58    -0.667339117917E+03   -0.11331E-01   -0.11070E-01  8424   0.896E-02-0.318E-02
CGA:  59    -0.667341079429E+03   -0.19615E-02   -0.19767E-02  8424   0.514E-03 0.475E-04
CGA:  60    -0.667342045242E+03   -0.96581E-03    0.45053E-03  8424   0.875E-03 0.159E-03
CGA:  61    -0.667344405277E+03   -0.23600E-02    0.73037E-03  8424   0.169E-02 0.613E-03
CGA:  62    -0.667345064724E+03   -0.65945E-03   -0.44570E-03  8424   0.152E-02-0.535E-03
CGA:  63    -0.667321018965E+03    0.24046E-01   -0.13048E-01  8424   0.134E+00-0.804E-02
CGA:  64    -0.667349362927E+03   -0.28344E-01   -0.28904E-01  8424   0.393E-01-0.603E-02
CGA:  65    -0.667356464196E+03   -0.71013E-02   -0.73178E-02  8424   0.171E-02 0.855E-03
CGA:  66    -0.667357274347E+03   -0.81015E-03   -0.69799E-03  8424   0.937E-03-0.171E-03
CGA:  67    -0.667358088686E+03   -0.81434E-03   -0.47248E-03  8424   0.369E-02-0.697E-03
CGA:  68    -0.667358580438E+03   -0.49175E-03   -0.53442E-03  8424   0.599E-03 0.767E-04
CGA:  69    -0.667332701369E+03    0.25879E-01   -0.14098E-01  8424   0.115E+00-0.554E-02
CGA:  70    -0.667363385334E+03   -0.30684E-01   -0.30234E-01  8424   0.220E-01 0.354E-02
CGA:  71    -0.667368127360E+03   -0.47420E-02   -0.43373E-02  8424   0.338E-02-0.476E-03
CGA:  72    -0.667369287448E+03   -0.11601E-02   -0.10399E-02  8424   0.701E-03-0.544E-04
CGA:  73    -0.667370092665E+03   -0.80522E-03   -0.41533E-03  8424   0.196E-02-0.402E-03
CGA:  74    -0.667370497867E+03   -0.40520E-03   -0.35148E-03  8424   0.476E-03-0.174E-04
CGA:  75    -0.667371977114E+03   -0.14792E-02    0.52503E-02  8424   0.489E-02-0.535E-03
CGA:  76    -0.667372843559E+03   -0.86645E-03   -0.88929E-03  8424   0.105E-02 0.104E-03
CGA:  77    -0.667373636489E+03   -0.79293E-03   -0.46744E-03  8424   0.896E-03-0.342E-03
CGA:  78    -0.667314300605E+03    0.59336E-01   -0.32292E-01  8424   0.395E+00-0.910E-02
CGA:  79    -0.667377084203E+03   -0.62784E-01   -0.77900E-01  8424   0.101E+00-0.865E-01
CGA:  80    -0.667393738166E+03   -0.16654E-01   -0.15764E-01  8424   0.145E-01 0.658E-02
CGA:  81    -0.667397129064E+03   -0.33909E-02   -0.32792E-02  8424   0.312E-02-0.106E-03
CGA:  82    -0.667397989662E+03   -0.86060E-03   -0.61811E-03  8424   0.915E-03-0.238E-03
CGA:  83    -0.667398459999E+03   -0.47034E-03   -0.27242E-03  8424   0.439E-03-0.122E-03
CGA:  84    -0.667399352468E+03   -0.89247E-03   -0.36218E-03  8424   0.359E-02-0.540E-03
CGA:  85    -0.667400094443E+03   -0.74198E-03   -0.60140E-03  8424   0.348E-03-0.950E-04
CGA:  86    -0.667400795313E+03   -0.70087E-03   -0.46409E-03  8424   0.401E-02-0.526E-03
CGA:  87    -0.667401656611E+03   -0.86130E-03   -0.64625E-03  8424   0.599E-03-0.229E-03
CGA:  88    -0.667402205708E+03   -0.54910E-03   -0.29565E-03  8424   0.737E-03-0.214E-03
CGA:  89    -0.667402664241E+03   -0.45853E-03   -0.88266E-03  8424   0.178E-01-0.216E-02
CGA:  90    -0.667405576182E+03   -0.29119E-02   -0.29408E-02  8424   0.331E-02 0.790E-03
CGA:  91    -0.667407133190E+03   -0.15570E-02   -0.12597E-02  8424   0.106E-02-0.247E-03
CGA:  92    -0.667407649041E+03   -0.51585E-03   -0.29141E-03  8424   0.276E-03-0.183E-03
CGA:  93    -0.667409228832E+03   -0.15798E-02    0.12477E-03  8424   0.182E-02-0.149E-03
CGA:  94    -0.667409730972E+03   -0.50214E-03   -0.36707E-03  8424   0.347E-03-0.109E-03
CGA:  95    -0.667406400913E+03    0.33301E-02   -0.11624E-02  8424   0.286E-01-0.211E-02
CGA:  96    -0.667412477630E+03   -0.60767E-02   -0.58586E-02  8424   0.548E-02-0.257E-03
CGA:  97    -0.667414103398E+03   -0.16258E-02   -0.14980E-02  8424   0.477E-03-0.107E-03
CGA:  98    -0.667414652099E+03   -0.54870E-03   -0.24370E-03  8424   0.136E-02-0.353E-03
CGA:  99    -0.667414882329E+03   -0.23023E-03   -0.19571E-03  8424   0.144E-03-0.159E-04
CGA: 100    -0.667416030497E+03   -0.11482E-02    0.43046E-04  8424   0.970E-03-0.578E-04
CGA: 101    -0.667423717407E+03   -0.76869E-02    0.90437E-04  8424   0.768E-02-0.989E-03
CGA: 102    -0.667426440934E+03   -0.27235E-02   -0.25497E-02  8424   0.108E-02-0.189E-03
CGA: 103    -0.667426889470E+03   -0.44854E-03   -0.30126E-03  8424   0.309E-03-0.155E-03
CGA: 104    -0.667427587132E+03   -0.69766E-03    0.15152E-02  8424   0.532E-02-0.706E-03
CGA: 105    -0.667428301937E+03   -0.71481E-03   -0.76652E-03  8424   0.334E-03 0.905E-04
CGA: 106    -0.667428742720E+03   -0.44078E-03   -0.33653E-03  8424   0.311E-02-0.695E-03
CGA: 107    -0.667429273405E+03   -0.53068E-03   -0.55034E-03  8424   0.401E-03 0.319E-04
CGA: 108    -0.667429772704E+03   -0.49930E-03   -0.23287E-03  8424   0.148E-02-0.524E-03
CGA: 109    -0.667430014185E+03   -0.24148E-03   -0.24293E-03  8424   0.214E-03 0.106E-04
CGA: 110    -0.667430637814E+03   -0.62363E-03    0.25813E-03  8424   0.233E-02-0.451E-03
CGA: 111    -0.667431072152E+03   -0.43434E-03   -0.42920E-03  8424   0.346E-03 0.396E-05
CGA: 112    -0.667431499616E+03   -0.42746E-03   -0.25870E-03  8424   0.281E-02-0.742E-03
CGA: 113    -0.667431912899E+03   -0.41328E-03   -0.44259E-03  8424   0.317E-03 0.611E-04
CGA: 114    -0.667431910694E+03    0.22045E-05   -0.41592E-03  8424   0.634E-02-0.116E-02
CGA: 115    -0.667433096432E+03   -0.11857E-02   -0.12162E-02  8424   0.851E-03 0.795E-04
CGA: 116    -0.667433545270E+03   -0.44884E-03   -0.23873E-03  8424   0.366E-03-0.339E-03
CGA: 117    -0.667434360829E+03   -0.81556E-03    0.85560E-04  8424   0.111E-02-0.153E-03
CGA: 118    -0.667438000723E+03   -0.36399E-02    0.12515E-03  8424   0.318E-02-0.354E-03
CGA: 119    -0.667450850990E+03   -0.12850E-01    0.38908E-03  8424   0.265E-02 0.344E-03
CGA: 120    -0.667460152582E+03   -0.93016E-02    0.15763E-02  8424   0.276E-01-0.498E-02
CGA: 121    -0.667463611307E+03   -0.34587E-02   -0.35565E-02  8424   0.869E-03 0.107E-02
CGA: 122    -0.667463993701E+03   -0.38239E-03   -0.29205E-03  8424   0.186E-03-0.178E-03
CGA: 123    -0.667464486892E+03   -0.49319E-03    0.56133E-04  8424   0.106E-02-0.178E-03
CGA: 124    -0.667464652047E+03   -0.16515E-03   -0.15273E-03  8424   0.933E-04-0.131E-04
CGA: 125    -0.667465110627E+03   -0.45858E-03    0.16213E-04  8424   0.186E-03-0.221E-04
CGA: 126    -0.667466372646E+03   -0.12620E-02    0.11681E-04  8424   0.346E-03 0.426E-04
CGA: 127    -0.667469476086E+03   -0.31034E-02    0.44515E-04  8424   0.482E-03 0.171E-03
CGA: 128    -0.667473952589E+03   -0.44765E-02    0.93088E-04  8424   0.138E-02-0.106E-03
CGA: 129    -0.667487732106E+03   -0.13780E-01    0.57477E-04  8424   0.571E-02-0.121E-02
CGA: 130    -0.667489157697E+03   -0.14256E-02   -0.15062E-02  8424   0.124E-02 0.141E-03
CGA: 131    -0.667489661891E+03   -0.50419E-03   -0.36628E-03  8424   0.512E-03-0.310E-03
CGA: 132    -0.667489772163E+03   -0.11027E-03   -0.96209E-04  8424   0.925E-04-0.304E-04
CGA: 133    -0.667490004269E+03   -0.23211E-03    0.34179E-04  8424   0.165E-03-0.192E-05
CGA: 134    -0.667490696386E+03   -0.69212E-03    0.27890E-04  8424   0.558E-03-0.938E-04
CGA: 135    -0.667490748410E+03   -0.52024E-04   -0.92791E-04  8424   0.130E-03 0.521E-04
CGA: 136    -0.667490989596E+03   -0.24119E-03    0.18914E-03  8424   0.170E-03-0.818E-04
CGA: 137    -0.667491229518E+03   -0.23992E-03    0.13934E-02  8424   0.293E-03-0.117E-03
CGA: 138    -0.667491294955E+03   -0.65437E-04   -0.65132E-04  8424   0.731E-04-0.119E-05
CGA: 139    -0.667491566602E+03   -0.27165E-03    0.12856E-04  8424   0.257E-03-0.561E-04
CGA: 140    -0.667491606209E+03   -0.39607E-04   -0.46405E-04  8424   0.554E-04 0.140E-04
CGA: 141    -0.667491845540E+03   -0.23933E-03    0.81954E-05  8424   0.127E-03-0.226E-04
CGA: 142    -0.667492505028E+03   -0.65949E-03    0.40149E-05  8424   0.299E-03 0.272E-04
CGA: 143    -0.667494343676E+03   -0.18386E-02    0.37913E-04  8424   0.461E-03 0.813E-04
CGA: 144    -0.667497675589E+03   -0.33319E-02    0.52519E-04  8424   0.110E-02-0.471E-04
CGA: 145    -0.667505969923E+03   -0.82943E-02    0.55189E-04  8424   0.164E-02-0.370E-03
CGA: 146    -0.667520128404E+03   -0.14158E-01    0.36836E-04  8424   0.331E-02-0.148E-02
CGA: 147    -0.667520968041E+03   -0.83964E-03   -0.71959E-03  8424   0.104E-02-0.301E-03
CGA: 148    -0.667521097540E+03   -0.12950E-03   -0.21798E-03  8424   0.213E-03 0.235E-03
CGA: 149    -0.667521091101E+03    0.64396E-05   -0.50933E-04  8424   0.155E-03 0.145E-03
CGA: 150    -0.667521133652E+03   -0.42551E-04   -0.52595E-04  8424   0.151E-03 0.429E-04
CGA: 151    -0.667521107890E+03    0.25761E-04   -0.32202E-04  8424   0.862E-04 0.147E-03
CGA: 152    -0.667521090328E+03    0.17563E-04   -0.99558E-05  8424   0.597E-04 0.647E-04
CGA: 153    -0.667521077943E+03    0.12384E-04   -0.85933E-05  8424   0.539E-04 0.558E-04
CGA: 154    -0.667521066867E+03    0.11076E-04   -0.75799E-05  8424   0.505E-04 0.517E-04
CGA: 155    -0.667521056084E+03    0.10784E-04   -0.65360E-05  8424   0.481E-04 0.490E-04
CGA: 156    -0.667521045765E+03    0.10319E-04   -0.58154E-05  8424   0.461E-04 0.468E-04
CGA: 157    -0.667521035921E+03    0.98445E-05   -0.52475E-05  8424   0.446E-04 0.451E-04
   1 F= -.66752104E+03 E0= -.66752104E+03  d E =-.667521E+03  mag=     2.0000
       N       E                     dE             d eps       ncg     rms          ort
SDA:   1    -0.667522678836E+03   -0.16331E-02    0.00000E+00  8424   0.872E-02 0.000E+00
CGA:   2    -0.667524414299E+03   -0.17355E-02   -0.17554E-02  8424   0.358E-02 0.924E-04
CGA:   3    -0.667525139689E+03   -0.72539E-03   -0.74917E-03  8424   0.117E-02 0.120E-03
CGA:   4    -0.667525311592E+03   -0.17190E-03   -0.19338E-03  8424   0.288E-03 0.913E-04
CGA:   5    -0.667525342165E+03   -0.30573E-04   -0.48870E-04  8424   0.840E-04 0.810E-04
CGA:   6    -0.667525339511E+03    0.26535E-05   -0.13301E-04  8424   0.497E-04 0.642E-04
   2 F= -.66752534E+03 E0= -.66752534E+03  d E =-.430359E-02  mag=     2.0000
       N       E                     dE             d eps       ncg     rms          ort
SDA:   1    -0.667275764349E+03    0.24958E+00    0.00000E+00  8424   0.884E+00 0.000E+00
CGA:   2    -0.667455180752E+03   -0.17942E+00   -0.17953E+00  8424   0.366E+00 0.620E-03
CGA:   3    -0.667532160057E+03   -0.76979E-01   -0.77002E-01  8424   0.120E+00 0.969E-04
CGA:   4    -0.667551740126E+03   -0.19580E-01   -0.19610E-01  8424   0.278E-01 0.155E-03
CGA:   5    -0.667556670540E+03   -0.49304E-02   -0.49565E-02  8424   0.597E-02 0.173E-03
CGA:   6    -0.667557828890E+03   -0.11583E-02   -0.11697E-02  8424   0.136E-02 0.919E-04
CGA:   7    -0.667558089546E+03   -0.26066E-03   -0.27904E-03  8424   0.370E-03 0.170E-03
CGA:   8    -0.667558146997E+03   -0.57450E-04   -0.75846E-04  8424   0.128E-03 0.149E-03
CGA:   9    -0.667558153828E+03   -0.68315E-05   -0.24158E-04  8424   0.701E-04 0.105E-03
   3 F= -.66755815E+03 E0= -.66755815E+03  d E =-.328143E-01  mag=     2.0000
       N       E                     dE             d eps       ncg     rms          ort
SDA:   1    -0.659445866590E+03    0.81123E+01    0.00000E+00  8424   0.245E+02 0.000E+00
CGA:   2    -0.664429950341E+03   -0.49841E+01   -0.49902E+01  8424   0.103E+02 0.248E-01
CGA:   3    -0.666613572741E+03   -0.21836E+01   -0.21827E+01  8424   0.332E+01-0.524E-02
CGA:   4    -0.667153005344E+03   -0.53943E+00   -0.53965E+00  8424   0.761E+00 0.981E-03
CGA:   5    -0.667287251397E+03   -0.13425E+00   -0.13448E+00  8424   0.163E+00 0.213E-02
CGA:   6    -0.667319523857E+03   -0.32272E-01   -0.32271E-01  8424   0.374E-01-0.343E-04
CGA:   7    -0.667327578170E+03   -0.80543E-02   -0.81106E-02  8424   0.103E-01 0.128E-02
CGA:   8    -0.667330018979E+03   -0.24408E-02   -0.24678E-02  8424   0.289E-02 0.102E-02
CGA:   9    -0.667330744325E+03   -0.72535E-03   -0.74013E-03  8424   0.915E-03 0.601E-03
CGA:  10    -0.667330867189E+03   -0.12286E-03   -0.17922E-03  8424   0.436E-03 0.599E-03
CGA:  11    -0.667330880055E+03   -0.12867E-04   -0.54664E-04  8424   0.276E-03 0.331E-03
CGA:  12    -0.667330871233E+03    0.88220E-05   -0.27447E-04  8424   0.227E-03 0.249E-03
CGA:  13    -0.667330857051E+03    0.14182E-04   -0.18721E-04  8424   0.199E-03 0.212E-03
CGA:  14    -0.667330841374E+03    0.15677E-04   -0.14331E-04  8424   0.181E-03 0.190E-03
CGA:  15    -0.667330825435E+03    0.15939E-04   -0.11616E-04  8424   0.168E-03 0.174E-03
CGA:  16    -0.667330809734E+03    0.15701E-04   -0.97501E-05  8424   0.158E-03 0.163E-03
CGA:  17    -0.667330794496E+03    0.15238E-04   -0.83790E-05  8424   0.150E-03 0.154E-03
CGA:  18    -0.667330779822E+03    0.14674E-04   -0.73246E-05  8424   0.144E-03 0.147E-03
CGA:  19    -0.667330765752E+03    0.14070E-04   -0.64862E-05  8424   0.138E-03 0.141E-03
CGA:  20    -0.667330752295E+03    0.13456E-04   -0.58018E-05  8424   0.133E-03 0.136E-03
CGA:  21    -0.667330739445E+03    0.12850E-04   -0.52318E-05  8424   0.129E-03 0.131E-03
CGA:  22    -0.667330727185E+03    0.12260E-04   -0.47495E-05  8424   0.126E-03 0.128E-03
CGA:  23    -0.667330715493E+03    0.11692E-04   -0.43362E-05  8424   0.123E-03 0.124E-03
CGA:  24    -0.667330704346E+03    0.11147E-04   -0.39775E-05  8424   0.120E-03 0.121E-03
CGA:  25    -0.667330693719E+03    0.10626E-04   -0.36631E-05  8424   0.118E-03 0.119E-03
CGA:  26    -0.667330683590E+03    0.10130E-04   -0.33856E-05  8424   0.116E-03 0.117E-03
CGA:  27    -0.667330673932E+03    0.96578E-05   -0.31386E-05  8424   0.114E-03 0.114E-03
   4 F= -.66733067E+03 E0= -.66733067E+03  d E =0.227480E+00  mag=     2.0000
       N       E                     dE             d eps       ncg     rms          ort
SDA:   1    -0.666578906852E+03    0.75178E+00    0.00000E+00  8424   0.244E+01 0.000E+00
CGA:   2    -0.667093462344E+03   -0.51456E+00   -0.51426E+00  8424   0.107E+01 0.318E-02
CGA:   3    -0.667313840634E+03   -0.22038E+00   -0.22033E+00  8424   0.332E+00 0.430E-03
CGA:   4    -0.667367466972E+03   -0.53626E-01   -0.53594E-01  8424   0.753E-01 0.119E-02
CGA:   5    -0.667380902897E+03   -0.13436E-01   -0.13398E-01  8424   0.161E-01 0.942E-03
CGA:   6    -0.667384045937E+03   -0.31430E-02   -0.31096E-02  8424   0.359E-02 0.642E-03
CGA:   7    -0.667384778916E+03   -0.73298E-03   -0.69979E-03  8424   0.942E-03 0.725E-03
CGA:   8    -0.667384943390E+03   -0.16447E-03   -0.16396E-03  8424   0.379E-03 0.549E-03
CGA:   9    -0.667384968798E+03   -0.25408E-04   -0.37936E-04  8424   0.237E-03 0.286E-03
CGA:  10    -0.667384971601E+03   -0.28033E-05   -0.17375E-04  8424   0.195E-03 0.213E-03
CGA:  11    -0.667384969626E+03    0.19753E-05   -0.11986E-04  8424   0.171E-03 0.181E-03
   5 F= -.66738497E+03 E0= -.66738497E+03  d E =-.542957E-01  mag=     2.0000
       N       E                     dE             d eps       ncg     rms          ort
SDA:   1    -0.637711107592E+03    0.29674E+02    0.00000E+00  8424   0.924E+02 0.000E+00
CGA:   2    -0.655879406999E+03   -0.18168E+02   -0.18105E+02  8424   0.376E+02 0.841E+00
CGA:   3    -0.663936130492E+03   -0.80567E+01   -0.80711E+01  8424   0.120E+02-0.181E+00
CGA:   4    -0.665917077723E+03   -0.19809E+01   -0.19803E+01  8424   0.281E+01 0.162E-01
CGA:   5    -0.666409306319E+03   -0.49223E+00   -0.49172E+00  8424   0.619E+00 0.126E-01
CGA:   6    -0.666532121467E+03   -0.12282E+00   -0.12300E+00  8424   0.147E+00-0.331E-02
CGA:   7    -0.666564344623E+03   -0.32223E-01   -0.32009E-01  8424   0.424E-01 0.285E-02
CGA:   8    -0.666575262202E+03   -0.10918E-01   -0.10870E-01  8424   0.136E-01 0.453E-03
CGA:   9    -0.666579037026E+03   -0.37748E-02   -0.38640E-02  8424   0.513E-02-0.698E-03
CGA:  10    -0.666580518018E+03   -0.14810E-02   -0.15061E-02  8424   0.225E-02-0.169E-03
CGA:  11    -0.666581199478E+03   -0.68146E-03   -0.72111E-03  8424   0.978E-03-0.245E-03
CGA:  12    -0.666581476471E+03   -0.27699E-03   -0.33768E-03  8424   0.796E-03-0.289E-03
CGA:  13    -0.666581644616E+03   -0.16814E-03   -0.17888E-03  8424   0.597E-03-0.859E-04
CGA:  14    -0.666581852543E+03   -0.20793E-03    0.31219E-02  8424   0.324E-03 0.268E-03
CGA:  15    -0.666581309863E+03    0.54268E-03   -0.32634E-03  8424   0.739E-02-0.113E-02
CGA:  16    -0.666582307877E+03   -0.99801E-03   -0.10563E-02  8424   0.119E-02 0.291E-03
CGA:  17    -0.666582648810E+03   -0.34093E-03   -0.33494E-03  8424   0.240E-03-0.886E-04
CGA:  18    -0.666582713130E+03   -0.64320E-04   -0.65457E-04  8424   0.143E-03 0.266E-04
CGA:  19    -0.666582831486E+03   -0.11836E-03    0.23845E-03  8424   0.122E-03 0.404E-04
CGA:  20    -0.666582961864E+03   -0.13038E-03    0.10838E-03  8424   0.993E-04 0.112E-03
CGA:  21    -0.666583019714E+03   -0.57851E-04   -0.82720E-04  8424   0.364E-03-0.514E-04
CGA:  22    -0.666583140998E+03   -0.12128E-03   -0.10816E-03  8424   0.364E-03-0.210E-03
CGA:  23    -0.666583169097E+03   -0.28099E-04   -0.44215E-04  8424   0.532E-04 0.686E-04
CGA:  24    -0.666582931577E+03    0.23752E-03   -0.13134E-03  8424   0.369E-02-0.214E-03
CGA:  25    -0.666583598939E+03   -0.66736E-03   -0.59336E-03  8424   0.153E-03-0.161E-03
CGA:  26    -0.666583621045E+03   -0.22106E-04   -0.29177E-04  8424   0.555E-04 0.173E-04
CGA:  27    -0.666583743352E+03   -0.12231E-03    0.26074E-04  8424   0.913E-04 0.387E-04
CGA:  28    -0.666583788120E+03   -0.44768E-04   -0.37596E-04  8424   0.179E-03-0.421E-04
CGA:  29    -0.666583989069E+03   -0.20095E-03    0.34393E-04  8424   0.403E-03 0.396E-04
CGA:  30    -0.666574046942E+03    0.99421E-02   -0.54015E-02  8424   0.955E-01-0.403E-02
CGA:  31    -0.666588597901E+03   -0.14551E-01   -0.14490E-01  8424   0.847E-03 0.576E-03
CGA:  32    -0.666588852503E+03   -0.25460E-03   -0.24626E-03  8424   0.202E-03-0.118E-04
CGA:  33    -0.666588898503E+03   -0.45999E-04   -0.55626E-04  8424   0.744E-04 0.137E-04
CGA:  34    -0.666588957946E+03   -0.59444E-04   -0.39991E-04  8424   0.149E-03-0.461E-04
CGA:  35    -0.666588966127E+03   -0.81806E-05   -0.25794E-04  8424   0.363E-04 0.238E-04
CGA:  36    -0.666589003042E+03   -0.36915E-04   -0.44821E-04  8424   0.274E-03-0.435E-04
CGA:  37    -0.666589074175E+03   -0.71133E-04   -0.67143E-04  8424   0.475E-04-0.639E-05
CGA:  38    -0.666589159162E+03   -0.84987E-04    0.27205E-03  8424   0.366E-03-0.500E-04
CGA:  39    -0.666589180213E+03   -0.21051E-04   -0.47003E-04  8424   0.335E-04 0.368E-04
CGA:  40    -0.666589205676E+03   -0.25463E-04   -0.46897E-04  8424   0.392E-03-0.485E-04
CGA:  41    -0.666589335009E+03   -0.12933E-03   -0.85863E-04  8424   0.116E-03-0.705E-04
CGA:  42    -0.666589360761E+03   -0.25752E-04   -0.24549E-04  8424   0.459E-04-0.243E-05
CGA:  43    -0.666589475527E+03   -0.11477E-03    0.27889E-04  8424   0.958E-04 0.355E-06
CGA:  44    -0.666589819485E+03   -0.34396E-03    0.29544E-04  8424   0.222E-03 0.436E-04
CGA:  45    -0.666590684791E+03   -0.86531E-03    0.17628E-03  8424   0.759E-03-0.990E-06
CGA:  46    -0.666594805655E+03   -0.41209E-02    0.11892E-03  8424   0.219E-02 0.546E-04
CGA:  47    -0.666611131353E+03   -0.16326E-01    0.26682E-03  8424   0.652E-02-0.612E-02
CGA:  48    -0.666612092162E+03   -0.96081E-03   -0.11383E-02  8424   0.105E-02 0.324E-03
CGA:  49    -0.666612372605E+03   -0.28044E-03   -0.33867E-03  8424   0.388E-03 0.132E-03
CGA:  50    -0.666612398187E+03   -0.25582E-04   -0.10441E-03  8424   0.168E-03 0.158E-03
CGA:  51    -0.666612359659E+03    0.38528E-04   -0.45521E-04  8424   0.143E-03 0.163E-03
CGA:  52    -0.666612341482E+03    0.18177E-04   -0.30521E-04  8424   0.108E-03 0.104E-03
CGA:  53    -0.666612316596E+03    0.24886E-04   -0.20804E-04  8424   0.969E-04 0.980E-04
CGA:  54    -0.666612293981E+03    0.22615E-04   -0.18554E-04  8424   0.911E-04 0.928E-04
CGA:  55    -0.666612270241E+03    0.23740E-04   -0.15532E-04  8424   0.873E-04 0.888E-04
CGA:  56    -0.666612248245E+03    0.21996E-04   -0.14420E-04  8424   0.843E-04 0.856E-04
CGA:  57    -0.666612226824E+03    0.21421E-04   -0.12985E-04  8424   0.818E-04 0.828E-04
CGA:  58    -0.666612206420E+03    0.20404E-04   -0.11974E-04  8424   0.796E-04 0.805E-04
CGA:  59    -0.666612186853E+03    0.19568E-04   -0.11025E-04  8424   0.776E-04 0.784E-04
CGA:  60    -0.666612168137E+03    0.18715E-04   -0.10209E-04  8424   0.759E-04 0.766E-04
CGA:  61    -0.666612150229E+03    0.17908E-04   -0.94774E-05  8424   0.743E-04 0.750E-04
CGA:  62    -0.666612133100E+03    0.17129E-04   -0.88228E-05  8424   0.729E-04 0.735E-04
CGA:  63    -0.666612116719E+03    0.16382E-04   -0.82316E-05  8424   0.716E-04 0.721E-04
CGA:  64    -0.666612101053E+03    0.15665E-04   -0.76958E-05  8424   0.704E-04 0.709E-04
CGA:  65    -0.666612086074E+03    0.14979E-04   -0.72078E-05  8424   0.692E-04 0.697E-04
CGA:  66    -0.666612071752E+03    0.14322E-04   -0.67618E-05  8424   0.682E-04 0.687E-04
CGA:  67    -0.666612058058E+03    0.13695E-04   -0.63529E-05  8424   0.673E-04 0.677E-04
CGA:  68    -0.666612044963E+03    0.13094E-04   -0.59771E-05  8424   0.664E-04 0.668E-04
CGA:  69    -0.666612032442E+03    0.12521E-04   -0.56310E-05  8424   0.656E-04 0.659E-04
CGA:  70    -0.666612020469E+03    0.11973E-04   -0.53116E-05  8424   0.648E-04 0.651E-04
CGA:  71    -0.666612009018E+03    0.11450E-04   -0.50161E-05  8424   0.641E-04 0.644E-04
CGA:  72    -0.666611998067E+03    0.10951E-04   -0.47421E-05  8424   0.634E-04 0.637E-04
CGA:  73    -0.666611987592E+03    0.10475E-04   -0.44875E-05  8424   0.628E-04 0.631E-04
CGA:  74    -0.666611977572E+03    0.10020E-04   -0.42505E-05  8424   0.622E-04 0.625E-04
CGA:  75    -0.666611967986E+03    0.95862E-05   -0.40296E-05  8424   0.617E-04 0.619E-04
   6 F= -.66661197E+03 E0= -.66661197E+03  d E =0.773002E+00  mag=     2.0000
       N       E                     dE             d eps       ncg     rms          ort
SDA:   1    -0.652899968707E+03    0.13712E+02    0.00000E+00  8424   0.459E+02 0.000E+00
CGA:   2    -0.661960046378E+03   -0.90601E+01   -0.90768E+01  8424   0.186E+02 0.781E-01
CGA:   3    -0.665896644427E+03   -0.39366E+01   -0.39343E+01  8424   0.606E+01-0.190E-01
CGA:   4    -0.666895666399E+03   -0.99902E+00   -0.99963E+00  8424   0.143E+01 0.217E-02
CGA:   5    -0.667148304919E+03   -0.25264E+00   -0.25296E+00  8424   0.314E+00 0.307E-02
CGA:   6    -0.667210264683E+03   -0.61960E-01   -0.61881E-01  8424   0.718E-01-0.149E-02
CGA:   7    -0.667225850113E+03   -0.15585E-01   -0.15631E-01  8424   0.203E-01 0.166E-02
CGA:   8    -0.667230812882E+03   -0.49628E-02   -0.49682E-02  8424   0.592E-02 0.110E-02
CGA:   9    -0.667232435640E+03   -0.16228E-02   -0.16169E-02  8424   0.192E-02 0.398E-03
CGA:  10    -0.667232861266E+03   -0.42563E-03   -0.44554E-03  8424   0.719E-03 0.702E-03
CGA:  11    -0.667232999927E+03   -0.13866E-03   -0.17298E-03  8424   0.350E-03 0.507E-03
CGA:  12    -0.667233035203E+03   -0.35276E-04   -0.55318E-04  8424   0.208E-03 0.242E-03
CGA:  13    -0.667233028185E+03    0.70180E-05   -0.20067E-04  8424   0.181E-03 0.193E-03
CGA:  14    -0.667233019731E+03    0.84541E-05   -0.15851E-04  8424   0.163E-03 0.172E-03
CGA:  15    -0.667233010119E+03    0.96124E-05   -0.12920E-04  8424   0.151E-03 0.157E-03
CGA:  16    -0.667232999983E+03    0.10135E-04   -0.10921E-04  8424   0.143E-03 0.147E-03
CGA:  17    -0.667232989702E+03    0.10281E-04   -0.94788E-05  8424   0.136E-03 0.139E-03
CGA:  18    -0.667232979484E+03    0.10219E-04   -0.83819E-05  8424   0.131E-03 0.133E-03
CGA:  19    -0.667232969444E+03    0.10039E-04   -0.75137E-05  8424   0.126E-03 0.129E-03
CGA:  20    -0.667232959652E+03    0.97926E-05   -0.68053E-05  8424   0.123E-03 0.124E-03
   7 F= -.66723296E+03 E0= -.66723296E+03  d E =-.620992E+00  mag=     2.0000
       N       E                     dE             d eps       ncg     rms          ort
SDA:   1    -0.666742983354E+03    0.48999E+00    0.00000E+00  8424   0.144E+01 0.000E+00
CGA:   2    -0.667034915994E+03   -0.29193E+00   -0.29185E+00  8424   0.601E+00 0.260E-02
CGA:   3    -0.667161759276E+03   -0.12684E+00   -0.12683E+00  8424   0.198E+00 0.189E-03
CGA:   4    -0.667193890952E+03   -0.32132E-01   -0.32143E-01  8424   0.450E-01 0.693E-03
CGA:   5    -0.667201878431E+03   -0.79875E-02   -0.79870E-02  8424   0.945E-02 0.867E-03
CGA:   6    -0.667203725583E+03   -0.18472E-02   -0.18398E-02  8424   0.215E-02 0.499E-03
CGA:   7    -0.667204121161E+03   -0.39558E-03   -0.39682E-03  8424   0.604E-03 0.601E-03
CGA:   8    -0.667204195690E+03   -0.74529E-04   -0.97177E-04  8424   0.300E-03 0.441E-03
CGA:   9    -0.667204208656E+03   -0.12967E-04   -0.30336E-04  8424   0.203E-03 0.236E-03
CGA:  10    -0.667204206591E+03    0.20651E-05   -0.15510E-04  8424   0.174E-03 0.186E-03
CGA:  11    -0.667204201450E+03    0.51412E-05   -0.11371E-04  8424   0.157E-03 0.164E-03
   8 F= -.66720420E+03 E0= -.66720420E+03  d E =0.287582E-01  mag=     2.0000
       N       E                     dE             d eps       ncg     rms          ort
SDA:   1    -0.665495882582E+03    0.17083E+01    0.00000E+00  8424   0.435E+01 0.000E+00
CGA:   2    -0.666497601763E+03   -0.10017E+01   -0.10011E+01  8424   0.209E+01 0.694E-02
CGA:   3    -0.666915751617E+03   -0.41815E+00   -0.41821E+00  8424   0.582E+00-0.157E-02
CGA:   4    -0.667009073686E+03   -0.93322E-01   -0.93323E-01  8424   0.131E+00 0.108E-02
CGA:   5    -0.667032266093E+03   -0.23192E-01   -0.23168E-01  8424   0.267E-01 0.166E-02
CGA:   6    -0.667037631775E+03   -0.53657E-02   -0.53363E-02  8424   0.630E-02 0.827E-03
CGA:   7    -0.667038932708E+03   -0.13009E-02   -0.12693E-02  8424   0.165E-02 0.101E-02
CGA:   8    -0.667039253795E+03   -0.32109E-03   -0.31995E-03  8424   0.598E-03 0.786E-03
CGA:   9    -0.667039324699E+03   -0.70904E-04   -0.99648E-04  8424   0.325E-03 0.543E-03
CGA:  10    -0.667039329620E+03   -0.49204E-05   -0.27152E-04  8424   0.249E-03 0.279E-03
CGA:  11    -0.667039324603E+03    0.50171E-05   -0.16467E-04  8424   0.218E-03 0.231E-03
CGA:  12    -0.667039316979E+03    0.76238E-05   -0.12459E-04  8424   0.198E-03 0.207E-03
CGA:  13    -0.667039308367E+03    0.86120E-05   -0.10143E-04  8424   0.185E-03 0.190E-03
   9 F= -.66703931E+03 E0= -.66703931E+03  d E =0.164893E+00  mag=     2.0000
       N       E                     dE             d eps       ncg     rms          ort
SDA:   1    -0.636640162483E+03    0.30399E+02    0.00000E+00  8424   0.954E+02 0.000E+00
CGA:   2    -0.655276956780E+03   -0.18637E+02   -0.18574E+02  8424   0.384E+02 0.940E+00
CGA:   3    -0.663559243959E+03   -0.82823E+01   -0.82962E+01  8424   0.124E+02-0.184E+00
CGA:   4    -0.665582109492E+03   -0.20229E+01   -0.20225E+01  8424   0.290E+01 0.111E-01
CGA:   5    -0.666091470708E+03   -0.50936E+00   -0.50895E+00  8424   0.631E+00 0.125E-01
CGA:   6    -0.666217907515E+03   -0.12644E+00   -0.12653E+00  8424   0.149E+00-0.194E-02
CGA:   7    -0.666250643794E+03   -0.32736E-01   -0.32556E-01  8424   0.430E-01 0.261E-02
CGA:   8    -0.666261626231E+03   -0.10982E-01   -0.10882E-01  8424   0.134E-01 0.106E-02
CGA:   9    -0.666265360297E+03   -0.37341E-02   -0.37737E-02  8424   0.484E-02-0.342E-03
CGA:  10    -0.666266692091E+03   -0.13318E-02   -0.12848E-02  8424   0.181E-02 0.435E-03
CGA:  11    -0.666267261449E+03   -0.56936E-03   -0.54198E-03  8424   0.579E-03 0.260E-03
CGA:  12    -0.666267438263E+03   -0.17681E-03   -0.16347E-03  8424   0.212E-03 0.186E-03
CGA:  13    -0.666267484280E+03   -0.46017E-04   -0.47643E-04  8424   0.126E-03 0.175E-03
CGA:  14    -0.666267511542E+03   -0.27262E-04   -0.25248E-04  8424   0.846E-04 0.929E-04
CGA:  15    -0.666267524485E+03   -0.12943E-04   -0.14037E-04  8424   0.746E-04 0.785E-04
CGA:  16    -0.666267532819E+03   -0.83337E-05   -0.10804E-04  8424   0.695E-04 0.718E-04
  10 F= -.66626753E+03 E0= -.66626753E+03  d E =0.771776E+00  mag=     2.0000
       N       E                     dE             d eps       ncg     rms          ort
SDA:   1    -0.655090940003E+03    0.11177E+02    0.00000E+00  8424   0.374E+02 0.000E+00
CGA:   2    -0.662539253614E+03   -0.74483E+01   -0.74440E+01  8424   0.152E+02 0.127E+00
CGA:   3    -0.665772660324E+03   -0.32334E+01   -0.32346E+01  8424   0.500E+01-0.287E-01
CGA:   4    -0.666587392475E+03   -0.81473E+00   -0.81480E+00  8424   0.117E+01 0.189E-02
CGA:   5    -0.666795418585E+03   -0.20803E+00   -0.20803E+00  8424   0.255E+00 0.271E-02
CGA:   6    -0.666846045289E+03   -0.50627E-01   -0.50684E-01  8424   0.588E-01-0.275E-02
CGA:   7    -0.666858791484E+03   -0.12746E-01   -0.12702E-01  8424   0.165E-01 0.110E-02
CGA:   8    -0.666862946013E+03   -0.41545E-02   -0.41281E-02  8424   0.486E-02 0.401E-03
CGA:   9    -0.666864378657E+03   -0.14326E-02   -0.15030E-02  8424   0.202E-02-0.598E-03
CGA:  10    -0.666864862849E+03   -0.48419E-03   -0.47608E-03  8424   0.728E-03 0.102E-03
CGA:  11    -0.666865064770E+03   -0.20192E-03   -0.43531E-03  8424   0.117E-02-0.623E-03
CGA:  12    -0.666865275411E+03   -0.21064E-03   -0.21474E-03  8424   0.171E-03 0.144E-03
CGA:  13    -0.666864815960E+03    0.45945E-03   -0.25179E-03  8424   0.349E-02-0.623E-03
CGA:  14    -0.666865375918E+03   -0.55996E-03   -0.59339E-03  8424   0.696E-03 0.155E-03
CGA:  15    -0.666865564851E+03   -0.18893E-03   -0.17814E-03  8424   0.131E-03-0.840E-04
CGA:  16    -0.666865656877E+03   -0.92025E-04    0.23510E-03  8424   0.159E-03-0.280E-04
CGA:  17    -0.666865714684E+03   -0.57808E-04   -0.73677E-04  8424   0.349E-03-0.757E-04
CGA:  18    -0.666865959716E+03   -0.24503E-03    0.45165E-04  8424   0.327E-03 0.711E-04
CGA:  19    -0.666866367618E+03   -0.40790E-03    0.20202E-03  8424   0.343E-03 0.770E-04
CGA:  20    -0.666866083231E+03    0.28439E-03   -0.45354E-03  8424   0.696E-02-0.114E-02
CGA:  21    -0.666867175843E+03   -0.10926E-02   -0.97835E-03  8424   0.989E-03-0.429E-03
CGA:  22    -0.666867421588E+03   -0.24575E-03   -0.24832E-03  8424   0.120E-03 0.194E-04
CGA:  23    -0.666867436229E+03   -0.14641E-04   -0.21681E-04  8424   0.402E-04 0.325E-04
CGA:  24    -0.666867486037E+03   -0.49808E-04    0.35651E-04  8424   0.250E-04 0.130E-04
CGA:  25    -0.666867535696E+03   -0.49658E-04    0.65702E-05  8424   0.383E-04 0.130E-04
CGA:  26    -0.666867540770E+03   -0.50742E-05   -0.70225E-05  8424   0.215E-04 0.970E-05
CGA:  27    -0.666867569127E+03   -0.28357E-04    0.12223E-04  8424   0.193E-04 0.155E-04
CGA:  28    -0.666867607303E+03   -0.38176E-04    0.21721E-05  8424   0.297E-04 0.195E-05
CGA:  29    -0.666867653453E+03   -0.46151E-04    0.67831E-05  8424   0.234E-04 0.232E-04
CGA:  30    -0.666867653777E+03   -0.32330E-06   -0.35178E-05  8424   0.126E-04 0.143E-04
  11 F= -.66686765E+03 E0= -.66686765E+03  d E =-.600121E+00  mag=     2.0000
       N       E                     dE             d eps       ncg     rms          ort
SDA:   1    -0.665981496302E+03    0.88616E+00    0.00000E+00  8424   0.272E+01 0.000E+00
CGA:   2    -0.666533493830E+03   -0.55200E+00   -0.55243E+00  8424   0.113E+01 0.134E-02
CGA:   3    -0.666771787071E+03   -0.23829E+00   -0.23826E+00  8424   0.372E+00-0.255E-03
CGA:   4    -0.666831927436E+03   -0.60140E-01   -0.60181E-01  8424   0.854E-01 0.131E-03
CGA:   5    -0.666847225082E+03   -0.15298E-01   -0.15334E-01  8424   0.183E-01 0.209E-03
CGA:   6    -0.666850855479E+03   -0.36304E-02   -0.36208E-02  8424   0.420E-02-0.759E-04
CGA:   7    -0.666851729742E+03   -0.87426E-03   -0.89163E-03  8424   0.113E-02 0.158E-03
CGA:   8    -0.666851986445E+03   -0.25670E-03   -0.26881E-03  8424   0.311E-03 0.137E-03
CGA:   9    -0.666852057904E+03   -0.71459E-04   -0.78428E-04  8424   0.101E-03 0.792E-04
CGA:  10    -0.666852063835E+03   -0.59308E-05   -0.18315E-04  8424   0.535E-04 0.757E-04
  12 F= -.66685206E+03 E0= -.66685206E+03  d E =0.155899E-01  mag=     2.0000
       N       E                     dE             d eps       ncg     rms          ort
SDA:   1    -0.666190370103E+03    0.66169E+00    0.00000E+00  8424   0.170E+01 0.000E+00
CGA:   2    -0.666553313488E+03   -0.36294E+00   -0.36311E+00  8424   0.763E+00 0.124E-02
CGA:   3    -0.666711280915E+03   -0.15797E+00   -0.15796E+00  8424   0.234E+00-0.115E-03
CGA:   4    -0.666748863309E+03   -0.37582E-01   -0.37628E-01  8424   0.528E-01 0.335E-03
CGA:   5    -0.666758208789E+03   -0.93455E-02   -0.93906E-02  8424   0.108E-01 0.442E-03
CGA:   6    -0.666760355387E+03   -0.21466E-02   -0.21599E-02  8424   0.255E-02 0.178E-03
CGA:   7    -0.666760849205E+03   -0.49382E-03   -0.51519E-03  8424   0.646E-03 0.309E-03
CGA:   8    -0.666760951472E+03   -0.10227E-03   -0.12619E-03  8424   0.206E-03 0.264E-03
CGA:   9    -0.666760960267E+03   -0.87953E-05   -0.33632E-04  8424   0.104E-03 0.172E-03
  13 F= -.66676096E+03 E0= -.66676096E+03  d E =0.911036E-01  mag=     2.0000
       N       E                     dE             d eps       ncg     rms          ort
SDA:   1    -0.641964762302E+03    0.24796E+02    0.00000E+00  8424   0.773E+02 0.000E+00
CGA:   2    -0.657130758164E+03   -0.15166E+02   -0.15205E+02  8424   0.314E+02 0.269E+00
CGA:   3    -0.663815300013E+03   -0.66845E+01   -0.66801E+01  8424   0.101E+02-0.614E-01
CGA:   4    -0.665466986397E+03   -0.16517E+01   -0.16526E+01  8424   0.236E+01 0.445E-02
CGA:   5    -0.665880011489E+03   -0.41303E+00   -0.41354E+00  8424   0.515E+00 0.542E-02
CGA:   6    -0.665982366331E+03   -0.10235E+00   -0.10230E+00  8424   0.122E+00-0.142E-02
CGA:   7    -0.666009130263E+03   -0.26764E-01   -0.26775E-01  8424   0.358E-01 0.101E-02
CGA:   8    -0.666018205629E+03   -0.90754E-02   -0.90757E-02  8424   0.114E-01-0.156E-04
CGA:   9    -0.666021396817E+03   -0.31912E-02   -0.32288E-02  8424   0.432E-02-0.735E-03
CGA:  10    -0.666022670114E+03   -0.12733E-02   -0.13072E-02  8424   0.208E-02-0.385E-03
CGA:  11    -0.666023295673E+03   -0.62556E-03   -0.69742E-03  8424   0.120E-02-0.558E-03
CGA:  12    -0.666023544229E+03   -0.24856E-03   -0.40479E-03  8424   0.164E-02-0.731E-03
CGA:  13    -0.666023843900E+03   -0.29967E-03   -0.29318E-03  8424   0.522E-03-0.829E-04
CGA:  14    -0.666021733757E+03    0.21101E-02   -0.11382E-02  8424   0.166E-01-0.209E-02
CGA:  15    -0.666023965616E+03   -0.22319E-02   -0.22955E-02  8424   0.262E-02 0.267E-03
CGA:  16    -0.666024703068E+03   -0.73745E-03   -0.71260E-03  8424   0.369E-03-0.142E-03
CGA:  17    -0.666024845429E+03   -0.14236E-03   -0.13886E-03  8424   0.324E-03-0.941E-04
CGA:  18    -0.666025075249E+03   -0.22982E-03    0.54000E-03  8424   0.576E-03-0.170E-03
CGA:  19    -0.666025148384E+03   -0.73135E-04   -0.87558E-04  8424   0.145E-03 0.512E-04
CGA:  20    -0.666025295309E+03   -0.14693E-03    0.29435E-03  8424   0.114E-03-0.382E-05
CGA:  21    -0.666025497810E+03   -0.20250E-03    0.19637E-04  8424   0.148E-03 0.401E-04
CGA:  22    -0.666025834268E+03   -0.33646E-03    0.41760E-04  8424   0.164E-03 0.801E-04
CGA:  23    -0.666023509326E+03    0.23249E-02   -0.12584E-02  8424   0.182E-01-0.121E-02
CGA:  24    -0.666025958452E+03   -0.24491E-02   -0.25769E-02  8424   0.162E-02 0.238E-03
CGA:  25    -0.666026522411E+03   -0.56396E-03   -0.49165E-03  8424   0.289E-03-0.167E-03
CGA:  26    -0.666026631984E+03   -0.10957E-03   -0.99699E-04  8424   0.196E-03-0.307E-04
CGA:  27    -0.666026762269E+03   -0.13028E-03   -0.88505E-04  8424   0.702E-03-0.220E-03
CGA:  28    -0.666026846747E+03   -0.84478E-04   -0.92847E-04  8424   0.945E-04 0.167E-04
CGA:  29    -0.666027011196E+03   -0.16445E-03    0.10963E-03  8424   0.162E-03-0.396E-04
CGA:  30    -0.666027284535E+03   -0.27334E-03    0.25921E-04  8424   0.281E-03-0.297E-04
CGA:  31    -0.666027915136E+03   -0.63060E-03    0.69630E-04  8424   0.637E-03-0.834E-04
CGA:  32    -0.666029661402E+03   -0.17463E-02    0.75373E-04  8424   0.109E-02 0.337E-04
CGA:  33    -0.666032932184E+03   -0.32708E-02    0.32687E-03  8424   0.158E-02-0.647E-03
CGA:  34    -0.666033331243E+03   -0.39906E-03   -0.34234E-03  8424   0.513E-03-0.131E-03
CGA:  35    -0.666033364592E+03   -0.33348E-04   -0.81625E-04  8424   0.812E-04 0.105E-03
CGA:  36    -0.666033356495E+03    0.80962E-05   -0.13185E-04  8424   0.372E-04 0.444E-04
CGA:  37    -0.666033364159E+03   -0.76641E-05   -0.10481E-04  8424   0.205E-04 0.904E-05
  14 F= -.66603336E+03 E0= -.66603336E+03  d E =0.727596E+00  mag=     2.0000
       N       E                     dE             d eps       ncg     rms          ort
SDA:   1    -0.649323339087E+03    0.16710E+02    0.00000E+00  8424   0.555E+02 0.000E+00
CGA:   2    -0.660248421690E+03   -0.10925E+02   -0.11066E+02  8424   0.223E+02-0.178E+00
CGA:   3    -0.664966590400E+03   -0.47182E+01   -0.46954E+01  8424   0.709E+01 0.143E+00
CGA:   4    -0.666150545688E+03   -0.11840E+01   -0.11866E+01  8424   0.171E+01 0.122E-01
CGA:   5    -0.666451811126E+03   -0.30127E+00   -0.30229E+00  8424   0.375E+00 0.823E-04
CGA:   6    -0.666526079611E+03   -0.74268E-01   -0.73910E-01  8424   0.857E-01-0.941E-03
CGA:   7    -0.666544987732E+03   -0.18908E-01   -0.19094E-01  8424   0.250E-01 0.743E-03
CGA:   8    -0.666551098750E+03   -0.61110E-02   -0.61893E-02  8424   0.759E-02 0.369E-03
CGA:   9    -0.666553195612E+03   -0.20969E-02   -0.20874E-02  8424   0.258E-02-0.561E-04
CGA:  10    -0.666553879609E+03   -0.68400E-03   -0.71947E-03  8424   0.987E-03 0.226E-03
CGA:  11    -0.666554198183E+03   -0.31857E-03   -0.33024E-03  8424   0.376E-03 0.944E-04
CGA:  12    -0.666554278883E+03   -0.80700E-04   -0.10423E-03  8424   0.162E-03 0.137E-03
CGA:  13    -0.666554293457E+03   -0.14574E-04   -0.43948E-04  8424   0.108E-03 0.135E-03
CGA:  14    -0.666554309283E+03   -0.15826E-04   -0.27344E-04  8424   0.761E-04 0.756E-04
CGA:  15    -0.666554309760E+03   -0.47693E-06   -0.14761E-04  8424   0.688E-04 0.703E-04
CGA:  16    -0.666554311461E+03   -0.17008E-05   -0.13965E-04  8424   0.652E-04 0.666E-04
CGA:  17    -0.666554311687E+03   -0.22648E-06   -0.12297E-04  8424   0.627E-04 0.638E-04
CGA:  18    -0.666554311828E+03   -0.14026E-06   -0.11509E-04  8424   0.606E-04 0.615E-04
CGA:  19    -0.666554311799E+03    0.28864E-07   -0.10780E-04  8424   0.588E-04 0.596E-04
CGA:  20    -0.666554311666E+03    0.13299E-06   -0.10156E-04  8424   0.573E-04 0.580E-04
  15 F= -.66655431E+03 E0= -.66655431E+03  d E =-.520948E+00  mag=     2.0000
       N       E                     dE             d eps       ncg     rms          ort
SDA:   1    -0.666468405755E+03    0.85906E-01    0.00000E+00  8424   0.215E+00 0.000E+00
CGA:   2    -0.666515407789E+03   -0.47002E-01   -0.47016E-01  8424   0.963E-01 0.789E-04
CGA:   3    -0.666534821365E+03   -0.19414E-01   -0.19404E-01  8424   0.294E-01-0.911E-04
CGA:   4    -0.666539581348E+03   -0.47600E-02   -0.47706E-02  8424   0.694E-02 0.624E-04
CGA:   5    -0.666540779102E+03   -0.11978E-02   -0.12160E-02  8424   0.143E-02 0.132E-03
CGA:   6    -0.666541045829E+03   -0.26673E-03   -0.27827E-03  8424   0.361E-03 0.101E-03
CGA:   7    -0.666541118163E+03   -0.72333E-04   -0.79794E-04  8424   0.131E-03 0.796E-04
CGA:   8    -0.666541139893E+03   -0.21730E-04   -0.29906E-04  8424   0.714E-04 0.758E-04
CGA:   9    -0.666541145583E+03   -0.56905E-05   -0.11840E-04  8424   0.467E-04 0.495E-04
  16 F= -.66654115E+03 E0= -.66654115E+03  d E =0.131661E-01  mag=     2.0000
       N       E                     dE             d eps       ncg     rms          ort
SDA:   1    -0.657446014211E+03    0.90951E+01    0.00000E+00  8424   0.252E+02 0.000E+00
CGA:   2    -0.663131894000E+03   -0.56859E+01   -0.56895E+01  8424   0.115E+02 0.267E-01
CGA:   3    -0.665427106598E+03   -0.22952E+01   -0.22936E+01  8424   0.334E+01-0.696E-02
CGA:   4    -0.665966895575E+03   -0.53979E+00   -0.54006E+00  8424   0.787E+00 0.995E-03
CGA:   5    -0.666105623550E+03   -0.13873E+00   -0.13893E+00  8424   0.164E+00 0.201E-02
CGA:   6    -0.666138310861E+03   -0.32687E-01   -0.32693E-01  8424   0.405E-01 0.806E-04
CGA:   7    -0.666147412417E+03   -0.91016E-02   -0.91206E-02  8424   0.124E-01 0.580E-03
CGA:   8    -0.666150640263E+03   -0.32278E-02   -0.32277E-02  8424   0.417E-02 0.860E-04
CGA:   9    -0.666151791803E+03   -0.11515E-02   -0.11487E-02  8424   0.153E-02 0.159E-03
CGA:  10    -0.666152263284E+03   -0.47148E-03   -0.46447E-03  8424   0.635E-03 0.196E-03
CGA:  11    -0.666152443068E+03   -0.17978E-03   -0.18109E-03  8424   0.253E-03 0.224E-03
CGA:  12    -0.666152510713E+03   -0.67644E-04   -0.74711E-04  8424   0.150E-03 0.177E-03
CGA:  13    -0.666152538857E+03   -0.28144E-04   -0.32359E-04  8424   0.101E-03 0.104E-03
CGA:  14    -0.666152550137E+03   -0.11280E-04   -0.18256E-04  8424   0.914E-04 0.943E-04
CGA:  15    -0.666152558535E+03   -0.83986E-05   -0.15551E-04  8424   0.866E-04 0.886E-04
CGA:  16    -0.666152564514E+03   -0.59790E-05   -0.13588E-04  8424   0.832E-04 0.847E-04
CGA:  17    -0.666152569425E+03   -0.49105E-05   -0.12472E-04  8424   0.806E-04 0.818E-04
CGA:  18    -0.666152573297E+03   -0.38725E-05   -0.11456E-04  8424   0.784E-04 0.794E-04
CGA:  19    -0.666152576461E+03   -0.31641E-05   -0.10662E-04  8424   0.765E-04 0.774E-04
  17 F= -.66615258E+03 E0= -.66615258E+03  d E =0.388569E+00  mag=     2.0000
       N       E                     dE             d eps       ncg     rms          ort
SDA:   1    -0.616604391689E+03    0.49548E+02    0.00000E+00  8424   0.169E+03 0.000E+00
CGA:   2    -0.647080258349E+03   -0.30476E+02   -0.30659E+02  8424   0.621E+02 0.142E+01
CGA:   3    -0.660774137546E+03   -0.13694E+02   -0.13693E+02  8424   0.203E+02-0.236E+00
CGA:   4    -0.664183958563E+03   -0.34098E+01   -0.34126E+01  8424   0.516E+01 0.172E-01
CGA:   5    -0.665059528019E+03   -0.87557E+00   -0.87671E+00  8424   0.111E+01 0.113E-01
CGA:   6    -0.665284807683E+03   -0.22528E+00   -0.22523E+00  8424   0.273E+00-0.362E-02
CGA:   7    -0.665345712013E+03   -0.60904E-01   -0.60873E-01  8424   0.841E-01 0.363E-02
CGA:   8    -0.665366688873E+03   -0.20977E-01   -0.20944E-01  8424   0.271E-01 0.109E-02
CGA:   9    -0.665374229493E+03   -0.75406E-02   -0.75993E-02  8424   0.101E-01-0.986E-03
CGA:  10    -0.665377086517E+03   -0.28570E-02   -0.28734E-02  8424   0.412E-02-0.217E-03
CGA:  11    -0.665378405968E+03   -0.13195E-02   -0.13849E-02  8424   0.184E-02-0.550E-03
CGA:  12    -0.665378923047E+03   -0.51708E-03   -0.59682E-03  8424   0.145E-02-0.556E-03
CGA:  13    -0.665379215504E+03   -0.29246E-03   -0.30685E-03  8424   0.107E-02-0.226E-03
CGA:  14    -0.665379660973E+03   -0.44547E-03    0.38431E-02  8424   0.541E-03 0.279E-03
CGA:  15    -0.665380009993E+03   -0.34902E-03    0.12867E-02  8424   0.400E-03 0.291E-03
CGA:  16    -0.665380120675E+03   -0.11068E-03   -0.11028E-03  8424   0.418E-03 0.107E-04
CGA:  17    -0.665380372670E+03   -0.25199E-03    0.24428E-03  8424   0.198E-03 0.196E-03
CGA:  18    -0.665380585243E+03   -0.21257E-03    0.68568E-04  8424   0.222E-03 0.151E-03
CGA:  19    -0.665380644926E+03   -0.59683E-04   -0.61516E-04  8424   0.349E-03-0.541E-04
CGA:  20    -0.665380883415E+03   -0.23849E-03    0.37846E-04  8424   0.346E-03 0.201E-03
CGA:  21    -0.665380816187E+03    0.67228E-04   -0.18612E-03  8424   0.395E-02-0.862E-03
CGA:  22    -0.665381168071E+03   -0.35188E-03   -0.39390E-03  8424   0.107E-03 0.271E-03
CGA:  23    -0.665381248769E+03   -0.80698E-04    0.34671E-04  8424   0.148E-03 0.511E-04
CGA:  24    -0.665381476480E+03   -0.22771E-03    0.25629E-04  8424   0.127E-03 0.191E-03
CGA:  25    -0.665381569222E+03   -0.92741E-04    0.34580E-04  8424   0.122E-03 0.495E-04
CGA:  26    -0.665381735017E+03   -0.16580E-03    0.22124E-04  8424   0.106E-03 0.146E-03
CGA:  27    -0.665381829366E+03   -0.94349E-04    0.17353E-04  8424   0.923E-04 0.655E-04
CGA:  28    -0.665381915422E+03   -0.86057E-04    0.13438E-04  8424   0.941E-04 0.631E-04
CGA:  29    -0.665381998423E+03   -0.83001E-04    0.15530E-04  8424   0.100E-03 0.573E-04
CGA:  30    -0.665382085488E+03   -0.87066E-04    0.17013E-04  8424   0.112E-03 0.470E-04
CGA:  31    -0.665382265063E+03   -0.17957E-03    0.17472E-04  8424   0.950E-04 0.161E-03
CGA:  32    -0.665382346102E+03   -0.81039E-04    0.16948E-04  8424   0.105E-03 0.471E-04
CGA:  33    -0.665382524082E+03   -0.17798E-03    0.15769E-04  8424   0.898E-04 0.154E-03
CGA:  34    -0.665382604440E+03   -0.80358E-04    0.14310E-04  8424   0.973E-04 0.483E-04
CGA:  35    -0.665382684032E+03   -0.79592E-04    0.19265E-04  8424   0.112E-03 0.359E-04
CGA:  36    -0.665382860773E+03   -0.17674E-03    0.14802E-04  8424   0.954E-04 0.150E-03
CGA:  37    -0.665382937728E+03   -0.76955E-04    0.19639E-04  8424   0.108E-03 0.339E-04
CGA:  38    -0.665383107533E+03   -0.16981E-03    0.13856E-04  8424   0.935E-04 0.142E-03
CGA:  39    -0.665383186628E+03   -0.79095E-04    0.17051E-04  8424   0.102E-03 0.329E-04
CGA:  40    -0.665383349623E+03   -0.16299E-03    0.12567E-04  8424   0.915E-04 0.133E-03
CGA:  41    -0.665383423894E+03   -0.74271E-04    0.18509E-04  8424   0.910E-04 0.346E-04
CGA:  42    -0.665383575506E+03   -0.15161E-03    0.11119E-04  8424   0.873E-04 0.121E-03
CGA:  43    -0.665383653945E+03   -0.78439E-04    0.13816E-04  8424   0.776E-04 0.395E-04
CGA:  44    -0.665383793795E+03   -0.13985E-03    0.95687E-05  8424   0.815E-04 0.108E-03
CGA:  45    -0.665383867712E+03   -0.73917E-04    0.12638E-04  8424   0.666E-04 0.448E-04
CGA:  46    -0.665383942411E+03   -0.74699E-04    0.67499E-05  8424   0.619E-04 0.518E-04
CGA:  47    -0.665384014265E+03   -0.71853E-04    0.59088E-05  8424   0.605E-04 0.531E-04
CGA:  48    -0.665384087079E+03   -0.72815E-04    0.54143E-05  8424   0.601E-04 0.526E-04
CGA:  49    -0.665384157859E+03   -0.70779E-04    0.55895E-05  8424   0.604E-04 0.514E-04
CGA:  50    -0.665384229880E+03   -0.72022E-04    0.54852E-05  8424   0.614E-04 0.496E-04
CGA:  51    -0.665384299232E+03   -0.69351E-04    0.61489E-05  8424   0.636E-04 0.469E-04
CGA:  52    -0.665384370472E+03   -0.71241E-04    0.64578E-05  8424   0.677E-04 0.426E-04
CGA:  53    -0.665384437860E+03   -0.67388E-04    0.86219E-05  8424   0.751E-04 0.359E-04
CGA:  54    -0.665384507813E+03   -0.69953E-04    0.10970E-04  8424   0.884E-04 0.248E-04
CGA:  55    -0.665384660077E+03   -0.15226E-03    0.93085E-05  8424   0.750E-04 0.116E-03
CGA:  56    -0.665384723786E+03   -0.63708E-04    0.13549E-04  8424   0.902E-04 0.205E-04
CGA:  57    -0.665384874721E+03   -0.15094E-03    0.88792E-05  8424   0.768E-04 0.113E-03
CGA:  58    -0.665384942238E+03   -0.67518E-04    0.12775E-04  8424   0.967E-04 0.131E-04
CGA:  59    -0.665385093240E+03   -0.15100E-03    0.85600E-05  8424   0.848E-04 0.111E-03
CGA:  60    -0.665385151785E+03   -0.58544E-04    0.28100E-04  8424   0.113E-03-0.141E-05
CGA:  61    -0.665385303444E+03   -0.15166E-03    0.80056E-05  8424   0.109E-03 0.108E-03
CGA:  62    -0.665385366545E+03   -0.63101E-04    0.89744E-04  8424   0.160E-03-0.387E-04
CGA:  63    -0.665385518170E+03   -0.15162E-03    0.67246E-05  8424   0.207E-03 0.979E-04
CGA:  64    -0.665385565856E+03   -0.47686E-04   -0.43042E-04  8424   0.192E-03-0.109E-03
CGA:  65    -0.665385611867E+03   -0.46011E-04   -0.57063E-04  8424   0.535E-03-0.226E-03
CGA:  66    -0.665385685557E+03   -0.73690E-04   -0.67235E-04  8424   0.616E-04-0.518E-04
CGA:  67    -0.665385755705E+03   -0.70148E-04    0.43113E-05  8424   0.426E-04 0.479E-04
CGA:  68    -0.665385814623E+03   -0.58919E-04    0.28548E-05  8424   0.423E-04 0.421E-04
CGA:  69    -0.665385874308E+03   -0.59685E-04    0.27422E-05  8424   0.421E-04 0.415E-04
CGA:  70    -0.665385931798E+03   -0.57490E-04    0.28827E-05  8424   0.426E-04 0.405E-04
CGA:  71    -0.665385991412E+03   -0.59614E-04    0.28035E-05  8424   0.447E-04 0.386E-04
CGA:  72    -0.665386046262E+03   -0.54850E-04    0.36285E-05  8424   0.511E-04 0.340E-04
CGA:  73    -0.665386105303E+03   -0.59041E-04    0.46037E-05  8424   0.687E-04 0.224E-04
CGA:  74    -0.665386241883E+03   -0.13658E-03    0.66161E-05  8424   0.475E-04 0.952E-04
CGA:  75    -0.665386292319E+03   -0.50436E-04    0.49738E-05  8424   0.594E-04 0.253E-04
CGA:  76    -0.665386351065E+03   -0.58746E-04    0.71196E-05  8424   0.885E-04 0.584E-05
CGA:  77    -0.665386492640E+03   -0.14158E-03    0.60101E-05  8424   0.780E-04 0.954E-04
CGA:  78    -0.665386531716E+03   -0.39076E-04    0.39919E-03  8424   0.128E-03-0.238E-04
CGA:  79    -0.665386665314E+03   -0.13360E-03    0.52089E-05  8424   0.175E-03 0.842E-04
CGA:  80    -0.665386657938E+03    0.73764E-05   -0.76536E-04  8424   0.162E-02-0.434E-03
CGA:  81    -0.665386811363E+03   -0.15342E-03   -0.16086E-03  8424   0.377E-04 0.474E-04
CGA:  82    -0.665386853536E+03   -0.42173E-04    0.39601E-05  8424   0.447E-04 0.296E-04
CGA:  83    -0.665386921355E+03   -0.67819E-04    0.26583E-05  8424   0.509E-04 0.217E-04
CGA:  84    -0.665387032827E+03   -0.11147E-03    0.46827E-05  8424   0.427E-04 0.740E-04
CGA:  85    -0.665387068760E+03   -0.35933E-04    0.74516E-05  8424   0.462E-04 0.228E-04
CGA:  86    -0.665387137817E+03   -0.69057E-04    0.27982E-05  8424   0.519E-04 0.176E-04
CGA:  87    -0.665387246225E+03   -0.10841E-03    0.42837E-05  8424   0.455E-04 0.704E-04
CGA:  88    -0.665387277235E+03   -0.31011E-04    0.14735E-04  8424   0.490E-04 0.173E-04
CGA:  89    -0.665387383036E+03   -0.10580E-03    0.38341E-05  8424   0.446E-04 0.662E-04
CGA:  90    -0.665387451086E+03   -0.68050E-04    0.26340E-05  8424   0.454E-04 0.176E-04
CGA:  91    -0.665387549320E+03   -0.98234E-04    0.36288E-05  8424   0.433E-04 0.618E-04
CGA:  92    -0.665387580859E+03   -0.31539E-04    0.11225E-04  8424   0.407E-04 0.189E-04
CGA:  93    -0.665387675332E+03   -0.94473E-04    0.31720E-05  8424   0.413E-04 0.570E-04
CGA:  94    -0.665387738421E+03   -0.63089E-04    0.24306E-05  8424   0.362E-04 0.208E-04
CGA:  95    -0.665387772466E+03   -0.34045E-04    0.49298E-05  8424   0.339E-04 0.236E-04
CGA:  96    -0.665387831777E+03   -0.59311E-04    0.16436E-05  8424   0.328E-04 0.246E-04
CGA:  97    -0.665387867571E+03   -0.35793E-04    0.33469E-05  8424   0.323E-04 0.249E-04
CGA:  98    -0.665387924248E+03   -0.56678E-04    0.15576E-05  8424   0.321E-04 0.247E-04
CGA:  99    -0.665387960768E+03   -0.36520E-04    0.30343E-05  8424   0.323E-04 0.243E-04
CGA: 100    -0.665388016208E+03   -0.55440E-04    0.16000E-05  8424   0.327E-04 0.235E-04
CGA: 101    -0.665388052134E+03   -0.35926E-04    0.32928E-05  8424   0.337E-04 0.223E-04
CGA: 102    -0.665388107504E+03   -0.55369E-04    0.17797E-05  8424   0.353E-04 0.206E-04
CGA: 103    -0.665388141554E+03   -0.34050E-04    0.45501E-05  8424   0.379E-04 0.180E-04
CGA: 104    -0.665388197925E+03   -0.56371E-04    0.23219E-05  8424   0.421E-04 0.143E-04
CGA: 105    -0.665388292948E+03   -0.95024E-04    0.30758E-05  8424   0.374E-04 0.572E-04
CGA: 106    -0.665388323492E+03   -0.30543E-04    0.70323E-05  8424   0.422E-04 0.131E-04
CGA: 107    -0.665388417845E+03   -0.94354E-04    0.29794E-05  8424   0.372E-04 0.562E-04
CGA: 108    -0.665388474890E+03   -0.57045E-04    0.21701E-05  8424   0.427E-04 0.116E-04
CGA: 109    -0.665388568096E+03   -0.93206E-04    0.29078E-05  8424   0.375E-04 0.553E-04
CGA: 110    -0.665388593648E+03   -0.25552E-04    0.12192E-04  8424   0.438E-04 0.950E-05
CGA: 111    -0.665388685973E+03   -0.92325E-04    0.28120E-05  8424   0.389E-04 0.542E-04
CGA: 112    -0.665388745601E+03   -0.59628E-04    0.22800E-05  8424   0.462E-04 0.634E-05
CGA: 113    -0.665388837362E+03   -0.91761E-04    0.26901E-05  8424   0.422E-04 0.530E-04
CGA: 114    -0.665388829246E+03    0.81166E-05   -0.31002E-04  8424   0.608E-03-0.806E-04
CGA: 115    -0.665388983483E+03   -0.15424E-03   -0.12265E-03  8424   0.419E-03-0.457E-03
CGA: 116    -0.665389005807E+03   -0.22324E-04   -0.38308E-04  8424   0.346E-04 0.907E-04
CGA: 117    -0.665389016902E+03   -0.11095E-04   -0.11282E-04  8424   0.100E-03-0.201E-04
CGA: 118    -0.665389096954E+03   -0.80053E-04    0.24174E-04  8424   0.162E-03-0.816E-04
CGA: 119    -0.665389106123E+03   -0.91685E-05   -0.15674E-04  8424   0.246E-04 0.399E-04
  18 F= -.66538911E+03 E0= -.66538911E+03  d E =0.763470E+00  mag=     2.0000
       N       E                     dE             d eps       ncg     rms          ort
SDA:   1    -0.657224540225E+03    0.81646E+01    0.00000E+00  8424   0.283E+02 0.000E+00
CGA:   2    -0.662940743350E+03   -0.57162E+01   -0.57230E+01  8424   0.116E+02 0.501E-01
CGA:   3    -0.665377059438E+03   -0.24363E+01   -0.24352E+01  8424   0.376E+01-0.138E-01
CGA:   4    -0.665981636582E+03   -0.60458E+00   -0.60487E+00  8424   0.896E+00 0.672E-03
CGA:   5    -0.666140563596E+03   -0.15893E+00   -0.15906E+00  8424   0.190E+00 0.145E-02
CGA:   6    -0.666178239349E+03   -0.37676E-01   -0.37636E-01  8424   0.451E-01-0.963E-03
CGA:   7    -0.666188052959E+03   -0.98136E-02   -0.98200E-02  8424   0.130E-01 0.343E-03
CGA:   8    -0.666191430062E+03   -0.33771E-02   -0.33829E-02  8424   0.418E-02-0.267E-03
CGA:   9    -0.666192575433E+03   -0.11454E-02   -0.11601E-02  8424   0.157E-02-0.320E-03
CGA:  10    -0.666193059325E+03   -0.48389E-03   -0.53732E-03  8424   0.981E-03-0.406E-03
CGA:  11    -0.666193224586E+03   -0.16526E-03   -0.39027E-03  8424   0.146E-02-0.775E-03
CGA:  12    -0.666193521037E+03   -0.29645E-03   -0.28934E-03  8424   0.373E-03-0.114E-03
CGA:  13    -0.666193595644E+03   -0.74607E-04   -0.20525E-03  8424   0.117E-02-0.385E-03
CGA:  14    -0.666193807233E+03   -0.21159E-03   -0.18925E-03  8424   0.240E-03-0.197E-03
CGA:  15    -0.666193863424E+03   -0.56191E-04   -0.98027E-04  8424   0.466E-03-0.189E-03
CGA:  16    -0.666193991804E+03   -0.12838E-03   -0.11616E-03  8424   0.595E-03-0.397E-03
CGA:  17    -0.666194032033E+03   -0.40229E-04   -0.56482E-04  8424   0.329E-04 0.890E-04
CGA:  18    -0.666194067780E+03   -0.35747E-04    0.67308E-05  8424   0.766E-04-0.293E-05
CGA:  19    -0.666194233069E+03   -0.16529E-03    0.27657E-05  8424   0.169E-03 0.466E-04
CGA:  20    -0.666193817415E+03    0.41565E-03   -0.14171E-03  8424   0.701E-02-0.978E-03
CGA:  21    -0.666194441496E+03   -0.62408E-03   -0.69332E-03  8424   0.492E-04 0.366E-03
CGA:  22    -0.666194482623E+03   -0.41127E-04    0.19553E-04  8424   0.944E-04-0.240E-04
CGA:  23    -0.666194619274E+03   -0.13665E-03    0.17799E-05  8424   0.177E-03 0.366E-05
CGA:  24    -0.666194932155E+03   -0.31288E-03    0.13468E-04  8424   0.320E-03-0.546E-04
CGA:  25    -0.666195533506E+03   -0.60135E-03    0.85565E-05  8424   0.514E-03 0.865E-04
CGA:  26    -0.666196580966E+03   -0.10475E-02    0.52501E-04  8424   0.760E-03-0.178E-03
CGA:  27    -0.666198311343E+03   -0.17304E-02    0.14187E-04  8424   0.842E-03-0.141E-04
CGA:  28    -0.666200189536E+03   -0.18782E-02    0.40300E-04  8424   0.169E-02-0.884E-03
CGA:  29    -0.666200333701E+03   -0.14416E-03   -0.18094E-03  8424   0.130E-03 0.205E-03
CGA:  30    -0.666200356033E+03   -0.22332E-04   -0.27162E-04  8424   0.734E-04 0.518E-04
CGA:  31    -0.666200375112E+03   -0.19080E-04   -0.21118E-04  8424   0.418E-04 0.294E-04
CGA:  32    -0.666200376152E+03   -0.10399E-05   -0.75387E-05  8424   0.387E-04 0.454E-04
  19 F= -.66620038E+03 E0= -.66620038E+03  d E =-.811270E+00  mag=     2.0000
       N       E                     dE             d eps       ncg     rms          ort
SDA:   1    -0.661454310588E+03    0.47461E+01    0.00000E+00  8424   0.153E+02 0.000E+00
CGA:   2    -0.664570654188E+03   -0.31163E+01   -0.31187E+01  8424   0.629E+01 0.176E-01
CGA:   3    -0.665887778148E+03   -0.13171E+01   -0.13167E+01  8424   0.206E+01-0.543E-02
CGA:   4    -0.666220753049E+03   -0.33297E+00   -0.33307E+00  8424   0.489E+00 0.212E-03
CGA:   5    -0.666307398183E+03   -0.86645E-01   -0.86741E-01  8424   0.102E+00 0.119E-02
CGA:   6    -0.666327576347E+03   -0.20178E-01   -0.20177E-01  8424   0.241E-01-0.284E-04
CGA:   7    -0.666332799852E+03   -0.52235E-02   -0.52347E-02  8424   0.683E-02 0.456E-03
CGA:   8    -0.666334528657E+03   -0.17288E-02   -0.17274E-02  8424   0.205E-02 0.186E-03
CGA:   9    -0.666335062939E+03   -0.53428E-03   -0.53232E-03  8424   0.651E-03 0.159E-03
CGA:  10    -0.666335227769E+03   -0.16483E-03   -0.16585E-03  8424   0.242E-03 0.194E-03
CGA:  11    -0.666335278806E+03   -0.51037E-04   -0.59284E-04  8424   0.114E-03 0.157E-03
CGA:  12    -0.666335289930E+03   -0.11124E-04   -0.17812E-04  8424   0.688E-04 0.807E-04
CGA:  13    -0.666335290848E+03   -0.91769E-06   -0.81936E-05  8424   0.583E-04 0.629E-04
  20 F= -.66633529E+03 E0= -.66633529E+03  d E =-.134915E+00  mag=     2.0000
       N       E                     dE             d eps       ncg     rms          ort
SDA:   1    -0.666292405222E+03    0.42885E-01    0.00000E+00  8424   0.129E+00 0.000E+00
CGA:   2    -0.666322074013E+03   -0.29669E-01   -0.29668E-01  8424   0.602E-01 0.147E-03
CGA:   3    -0.666333935933E+03   -0.11862E-01   -0.11860E-01  8424   0.171E-01-0.797E-04
CGA:   4    -0.666336709215E+03   -0.27733E-02   -0.27785E-02  8424   0.409E-02 0.857E-04
CGA:   5    -0.666337397330E+03   -0.68812E-03   -0.69755E-03  8424   0.800E-03 0.193E-03
CGA:   6    -0.666337535969E+03   -0.13864E-03   -0.14555E-03  8424   0.202E-03 0.163E-03
CGA:   7    -0.666337563015E+03   -0.27046E-04   -0.35050E-04  8424   0.873E-04 0.114E-03
CGA:   8    -0.666337568254E+03   -0.52389E-05   -0.10805E-04  8424   0.556E-04 0.641E-04
  21 F= -.66633757E+03 E0= -.66633757E+03  d E =-.227741E-02  mag=     2.0000
       N       E                     dE             d eps       ncg     rms          ort
SDA:   1    -0.653164026002E+03    0.13174E+02    0.00000E+00  8424   0.399E+02 0.000E+00
CGA:   2    -0.661329423172E+03   -0.81654E+01   -0.81642E+01  8424   0.167E+02 0.176E+00
CGA:   3    -0.664880486204E+03   -0.35511E+01   -0.35517E+01  8424   0.526E+01-0.385E-01
CGA:   4    -0.665726042007E+03   -0.84556E+00   -0.84569E+00  8424   0.124E+01 0.965E-03
CGA:   5    -0.665943397742E+03   -0.21736E+00   -0.21746E+00  8424   0.264E+00 0.363E-02
CGA:   6    -0.665996427944E+03   -0.53030E-01   -0.53032E-01  8424   0.618E-01-0.754E-03
CGA:   7    -0.666009940424E+03   -0.13512E-01   -0.13485E-01  8424   0.173E-01 0.131E-02
CGA:   8    -0.666014303746E+03   -0.43633E-02   -0.43319E-02  8424   0.525E-02 0.682E-03
CGA:   9    -0.666015828648E+03   -0.15249E-02   -0.15375E-02  8424   0.200E-02-0.160E-03
CGA:  10    -0.666016277080E+03   -0.44843E-03   -0.43793E-03  8424   0.687E-03 0.505E-03
CGA:  11    -0.666016470741E+03   -0.19366E-03   -0.18957E-03  8424   0.273E-03 0.297E-03
CGA:  12    -0.666016548089E+03   -0.77348E-04   -0.78510E-04  8424   0.132E-03 0.171E-03
CGA:  13    -0.666016555840E+03   -0.77514E-05   -0.16407E-04  8424   0.904E-04 0.105E-03
CGA:  14    -0.666016560677E+03   -0.48374E-05   -0.11294E-04  8424   0.766E-04 0.827E-04
  22 F= -.66601656E+03 E0= -.66601656E+03  d E =0.321008E+00  mag=     2.0000
       N       E                     dE             d eps       ncg     rms          ort
SDA:   1    -0.623841027344E+03    0.42176E+02    0.00000E+00  8424   0.142E+03 0.000E+00
CGA:   2    -0.650275604043E+03   -0.26435E+02   -0.26458E+02  8424   0.530E+02 0.141E+01
CGA:   3    -0.662013765681E+03   -0.11738E+02   -0.11746E+02  8424   0.177E+02-0.218E+00
CGA:   4    -0.664890594055E+03   -0.28768E+01   -0.28780E+01  8424   0.430E+01 0.152E-01
CGA:   5    -0.665636133394E+03   -0.74554E+00   -0.74592E+00  8424   0.923E+00 0.120E-01
CGA:   6    -0.665823664291E+03   -0.18753E+00   -0.18756E+00  8424   0.223E+00-0.328E-02
CGA:   7    -0.665872383243E+03   -0.48719E-01   -0.48645E-01  8424   0.644E-01 0.279E-02
CGA:   8    -0.665888720144E+03   -0.16337E-01   -0.16271E-01  8424   0.203E-01 0.120E-02
CGA:   9    -0.665894334378E+03   -0.56142E-02   -0.56506E-02  8424   0.733E-02-0.485E-03
CGA:  10    -0.665896438031E+03   -0.21037E-02   -0.20860E-02  8424   0.294E-02 0.193E-03
CGA:  11    -0.665897418494E+03   -0.98046E-03   -0.98912E-03  8424   0.116E-02-0.740E-04
CGA:  12    -0.665897770979E+03   -0.35249E-03   -0.34552E-03  8424   0.507E-03 0.722E-04
CGA:  13    -0.665897960101E+03   -0.18912E-03   -0.17419E-03  8424   0.321E-03 0.136E-03
CGA:  14    -0.665898189591E+03   -0.22949E-03   -0.35911E-03  8424   0.134E-02-0.207E-03
CGA:  15    -0.665898385236E+03   -0.19565E-03   -0.22242E-03  8424   0.351E-03 0.300E-03
CGA:  16    -0.665898538007E+03   -0.15277E-03   -0.15833E-03  8424   0.301E-03-0.487E-04
CGA:  17    -0.665898635700E+03   -0.97693E-04   -0.91507E-04  8424   0.299E-03 0.603E-04
CGA:  18    -0.665898788465E+03   -0.15277E-03   -0.13622E-03  8424   0.339E-03 0.132E-03
CGA:  19    -0.665899148111E+03   -0.35965E-03   -0.42640E-03  8424   0.153E-02-0.149E-03
CGA:  20    -0.665899319194E+03   -0.17108E-03   -0.16426E-03  8424   0.225E-02-0.246E-03
CGA:  21    -0.665899838521E+03   -0.51933E-03   -0.51177E-03  8424   0.409E-02-0.949E-03
CGA:  22    -0.665901390285E+03   -0.15518E-02    0.26838E-02  8424   0.653E-02-0.262E-02
CGA:  23    -0.665903098528E+03   -0.17082E-02   -0.16903E-02  8424   0.376E-02-0.562E-03
CGA:  24    -0.665903865787E+03   -0.76726E-03   -0.79573E-03  8424   0.995E-03 0.493E-03
CGA:  25    -0.665904139067E+03   -0.27328E-03   -0.28047E-03  8424   0.466E-03 0.191E-03
CGA:  26    -0.665904353201E+03   -0.21413E-03   -0.20696E-03  8424   0.461E-03 0.787E-04
CGA:  27    -0.665904426865E+03   -0.73664E-04   -0.97473E-04  8424   0.187E-03 0.218E-03
CGA:  28    -0.665904464983E+03   -0.38118E-04   -0.51654E-04  8424   0.153E-03 0.140E-03
CGA:  29    -0.665904514215E+03   -0.49232E-04   -0.83721E-04  8424   0.676E-03-0.130E-03
CGA:  30    -0.665904549540E+03   -0.35325E-04   -0.67908E-04  8424   0.825E-04 0.171E-03
CGA:  31    -0.665904549194E+03    0.34640E-06   -0.10221E-04  8424   0.597E-04 0.574E-04
CGA:  32    -0.665904625983E+03   -0.76790E-04   -0.63250E-04  8424   0.272E-03 0.154E-04
CGA:  33    -0.665904676596E+03   -0.50613E-04   -0.73815E-04  8424   0.825E-04 0.234E-03
CGA:  34    -0.665904684553E+03   -0.79565E-05   -0.14077E-04  8424   0.442E-04 0.444E-04
CGA:  35    -0.665904716379E+03   -0.31826E-04    0.33894E-04  8424   0.407E-04 0.347E-04
CGA:  36    -0.665904721460E+03   -0.50807E-05   -0.82874E-05  8424   0.382E-04 0.328E-04
CGA:  37    -0.665904751200E+03   -0.29740E-04    0.18024E-04  8424   0.417E-04 0.314E-04
CGA:  38    -0.665904754684E+03   -0.34838E-05   -0.72839E-05  8424   0.369E-04 0.312E-04
CGA:  39    -0.665904783212E+03   -0.28529E-04    0.16155E-04  8424   0.403E-04 0.310E-04
CGA:  40    -0.665904787902E+03   -0.46892E-05   -0.76647E-05  8424   0.376E-04 0.296E-04
CGA:  41    -0.665904817994E+03   -0.30093E-04    0.13271E-04  8424   0.439E-04 0.279E-04
CGA:  42    -0.665904820779E+03   -0.27848E-05   -0.66697E-05  8424   0.356E-04 0.291E-04
CGA:  43    -0.665904848106E+03   -0.27327E-04    0.13119E-04  8424   0.392E-04 0.299E-04
CGA:  44    -0.665904854353E+03   -0.62465E-05   -0.81598E-05  8424   0.394E-04 0.271E-04
CGA:  45    -0.665904885904E+03   -0.31551E-04    0.11819E-04  8424   0.511E-04 0.223E-04
CGA:  46    -0.665904887739E+03   -0.18357E-05   -0.62622E-05  8424   0.336E-04 0.290E-04
CGA:  47    -0.665904911906E+03   -0.24167E-04    0.12974E-04  8424   0.349E-04 0.313E-04
CGA:  48    -0.665904932735E+03   -0.20828E-04   -0.16134E-04  8424   0.638E-04 0.238E-04
CGA:  49    -0.665904972585E+03   -0.39851E-04    0.69108E-04  8424   0.135E-03-0.247E-04
CGA:  50    -0.665905036270E+03   -0.63685E-04    0.29579E-04  8424   0.257E-03 0.736E-04
CGA:  51    -0.665905044107E+03   -0.78372E-05   -0.21155E-04  8424   0.376E-04 0.684E-04
  23 F= -.66590504E+03 E0= -.66590504E+03  d E =0.111517E+00  mag=     2.0000
       N       E                     dE             d eps       ncg     rms          ort
SDA:   1    -0.655704832244E+03    0.10200E+02    0.00000E+00  8424   0.340E+02 0.000E+00
CGA:   2    -0.662464608645E+03   -0.67598E+01   -0.67724E+01  8424   0.138E+02 0.641E-01
CGA:   3    -0.665410049711E+03   -0.29454E+01   -0.29437E+01  8424   0.445E+01-0.173E-01
CGA:   4    -0.666130075284E+03   -0.72003E+00   -0.72036E+00  8424   0.105E+01 0.109E-02
CGA:   5    -0.666316356566E+03   -0.18628E+00   -0.18650E+00  8424   0.229E+00 0.215E-02
CGA:   6    -0.666362146386E+03   -0.45790E-01   -0.45733E-01  8424   0.528E-01-0.120E-02
CGA:   7    -0.666373664026E+03   -0.11518E-01   -0.11540E-01  8424   0.149E-01 0.937E-03
CGA:   8    -0.666377414269E+03   -0.37502E-02   -0.37484E-02  8424   0.449E-02 0.428E-03
CGA:   9    -0.666378686116E+03   -0.12718E-02   -0.12751E-02  8424   0.160E-02-0.993E-04
CGA:  10    -0.666379068724E+03   -0.38261E-03   -0.38271E-03  8424   0.551E-03 0.309E-03
CGA:  11    -0.666379247715E+03   -0.17899E-03   -0.17557E-03  8424   0.209E-03 0.147E-03
CGA:  12    -0.666379311254E+03   -0.63539E-04   -0.63902E-04  8424   0.995E-04 0.948E-04
CGA:  13    -0.666379320288E+03   -0.90344E-05   -0.20185E-04  8424   0.708E-04 0.105E-03
  24 F= -.66637932E+03 E0= -.66637932E+03  d E =-.474276E+00  mag=     2.0000
       N       E                     dE             d eps       ncg     rms          ort
SDA:   1    -0.666326014706E+03    0.53297E-01    0.00000E+00  8424   0.189E+00 0.000E+00
CGA:   2    -0.666365201935E+03   -0.39187E-01   -0.39199E-01  8424   0.796E-01 0.409E-03
CGA:   3    -0.666381858727E+03   -0.16657E-01   -0.16663E-01  8424   0.257E-01 0.227E-03
CGA:   4    -0.666386012218E+03   -0.41535E-02   -0.41660E-02  8424   0.599E-02 0.172E-03
CGA:   5    -0.666387056350E+03   -0.10441E-02   -0.10533E-02  8424   0.123E-02 0.169E-03
CGA:   6    -0.666387279629E+03   -0.22328E-03   -0.22984E-03  8424   0.284E-03 0.149E-03
CGA:   7    -0.666387314738E+03   -0.35109E-04   -0.46198E-04  8424   0.104E-03 0.141E-03
CGA:   8    -0.666387316259E+03   -0.15219E-05   -0.14620E-04  8424   0.638E-04 0.104E-03
  25 F= -.66638732E+03 E0= -.66638732E+03  d E =-.799597E-02  mag=     2.0000
       N       E                     dE             d eps       ncg     rms          ort
SDA:   1    -0.662540279626E+03    0.38470E+01    0.00000E+00  8424   0.109E+02 0.000E+00
CGA:   2    -0.665030590261E+03   -0.24903E+01   -0.24894E+01  8424   0.505E+01 0.264E-01
CGA:   3    -0.666039402655E+03   -0.10088E+01   -0.10087E+01  8424   0.143E+01-0.451E-02
CGA:   4    -0.666270564644E+03   -0.23116E+00   -0.23118E+00  8424   0.336E+00-0.197E-03
CGA:   5    -0.666329590699E+03   -0.59026E-01   -0.59047E-01  8424   0.696E-01 0.545E-03
CGA:   6    -0.666343580270E+03   -0.13990E-01   -0.13991E-01  8424   0.168E-01 0.336E-03
CGA:   7    -0.666347342321E+03   -0.37621E-02   -0.37499E-02  8424   0.479E-02 0.649E-03
CGA:   8    -0.666348528850E+03   -0.11865E-02   -0.11671E-02  8424   0.148E-02 0.636E-03
CGA:   9    -0.666348918547E+03   -0.38970E-03   -0.38042E-03  8424   0.545E-03 0.432E-03
CGA:  10    -0.666349016827E+03   -0.98280E-04   -0.11568E-03  8424   0.297E-03 0.407E-03
CGA:  11    -0.666349039312E+03   -0.22485E-04   -0.39158E-04  8424   0.195E-03 0.229E-03
CGA:  12    -0.666349044847E+03   -0.55348E-05   -0.21698E-04  8424   0.166E-03 0.179E-03
CGA:  13    -0.666349044815E+03    0.32640E-07   -0.15840E-04  8424   0.149E-03 0.157E-03
CGA:  14    -0.666349042466E+03    0.23484E-05   -0.12842E-04  8424   0.138E-03 0.144E-03
CGA:  15    -0.666349038904E+03    0.35621E-05   -0.10911E-04  8424   0.131E-03 0.134E-03
  26 F= -.66634904E+03 E0= -.66634904E+03  d E =0.382774E-01  mag=     2.0000
       N       E                     dE             d eps       ncg     rms          ort
SDA:   1    -0.594253866287E+03    0.72095E+02    0.00000E+00  8424   0.270E+03 0.000E+00
CGA:   2    -0.638206008073E+03   -0.43952E+02   -0.44101E+02  8424   0.840E+02 0.566E+01
CGA:   3    -0.658275645542E+03   -0.20070E+02   -0.20107E+02  8424   0.293E+02-0.576E+00
CGA:   4    -0.663102185239E+03   -0.48265E+01   -0.48278E+01  8424   0.733E+01 0.425E-01
CGA:   5    -0.664343045965E+03   -0.12409E+01   -0.12412E+01  8424   0.156E+01 0.268E-01
CGA:   6    -0.664672277973E+03   -0.32923E+00   -0.32924E+00  8424   0.395E+00-0.228E-03
CGA:   7    -0.664760777384E+03   -0.88499E-01   -0.88308E-01  8424   0.117E+00 0.414E-02
CGA:   8    -0.664790907296E+03   -0.30130E-01   -0.29972E-01  8424   0.372E-01 0.219E-02
CGA:   9    -0.664801196970E+03   -0.10290E-01   -0.10316E-01  8424   0.133E-01-0.305E-03
CGA:  10    -0.664805078248E+03   -0.38813E-02   -0.38202E-02  8424   0.520E-02 0.600E-03
CGA:  11    -0.664806711981E+03   -0.16337E-02   -0.15772E-02  8424   0.179E-02 0.582E-03
CGA:  12    -0.664807296756E+03   -0.58478E-03   -0.55202E-03  8424   0.725E-03 0.415E-03
CGA:  13    -0.664807503783E+03   -0.20703E-03   -0.19803E-03  8424   0.415E-03 0.461E-03
CGA:  14    -0.664807707103E+03   -0.20332E-03   -0.16838E-03  8424   0.324E-03 0.170E-03
CGA:  15    -0.664807790318E+03   -0.83215E-04   -0.89739E-04  8424   0.254E-03 0.374E-03
CGA:  16    -0.664807868248E+03   -0.77930E-04   -0.67377E-04  8424   0.203E-03 0.198E-03
CGA:  17    -0.664807906335E+03   -0.38088E-04   -0.40892E-04  8424   0.194E-03 0.193E-03
CGA:  18    -0.664807984206E+03   -0.77870E-04   -0.60197E-04  8424   0.192E-03 0.185E-03
CGA:  19    -0.664808011693E+03   -0.27487E-04   -0.34557E-04  8424   0.185E-03 0.178E-03
CGA:  20    -0.664808092494E+03   -0.80801E-04   -0.61285E-04  8424   0.194E-03 0.170E-03
CGA:  21    -0.664808111761E+03   -0.19266E-04   -0.30288E-04  8424   0.178E-03 0.164E-03
CGA:  22    -0.664808192622E+03   -0.80861E-04   -0.61216E-04  8424   0.199E-03 0.158E-03
CGA:  23    -0.664808208913E+03   -0.16291E-04   -0.28815E-04  8424   0.173E-03 0.153E-03
CGA:  24    -0.664808287716E+03   -0.78803E-04   -0.59972E-04  8424   0.202E-03 0.148E-03
CGA:  25    -0.664808303960E+03   -0.16244E-04   -0.28692E-04  8424   0.168E-03 0.144E-03
CGA:  26    -0.664808382759E+03   -0.78799E-04   -0.60153E-04  8424   0.211E-03 0.138E-03
CGA:  27    -0.664808398577E+03   -0.15818E-04   -0.28706E-04  8424   0.164E-03 0.136E-03
CGA:  28    -0.664808478235E+03   -0.79657E-04   -0.60603E-04  8424   0.217E-03 0.131E-03
CGA:  29    -0.664808494050E+03   -0.15815E-04   -0.28787E-04  8424   0.160E-03 0.129E-03
CGA:  30    -0.664808577038E+03   -0.82988E-04   -0.62582E-04  8424   0.228E-03 0.124E-03
CGA:  31    -0.664808592425E+03   -0.15387E-04   -0.28933E-04  8424   0.156E-03 0.124E-03
CGA:  32    -0.664808680613E+03   -0.88187E-04   -0.65219E-04  8424   0.232E-03 0.120E-03
CGA:  33    -0.664808695556E+03   -0.14944E-04   -0.28839E-04  8424   0.152E-03 0.119E-03
CGA:  34    -0.664808791580E+03   -0.96024E-04   -0.69730E-04  8424   0.248E-03 0.115E-03
CGA:  35    -0.664808806062E+03   -0.14482E-04   -0.29301E-04  8424   0.147E-03 0.116E-03
CGA:  36    -0.664808851325E+03   -0.45263E-04   -0.48131E-04  8424   0.259E-03 0.182E-03
CGA:  37    -0.664808918913E+03   -0.67588E-04   -0.70298E-04  8424   0.544E-03-0.839E-04
CGA:  38    -0.664809095652E+03   -0.17674E-03   -0.13455E-03  8424   0.110E-02 0.325E-03
CGA:  39    -0.664809165677E+03   -0.70025E-04   -0.99405E-04  8424   0.134E-03 0.188E-03
CGA:  40    -0.664809184110E+03   -0.18433E-04   -0.25954E-04  8424   0.188E-03 0.102E-03
CGA:  41    -0.664809250860E+03   -0.66751E-04   -0.87879E-04  8424   0.955E-03-0.926E-04
CGA:  42    -0.664809364321E+03   -0.11346E-03   -0.11545E-03  8424   0.297E-02 0.211E-03
CGA:  43    -0.664810743624E+03   -0.13793E-02   -0.12112E-02  8424   0.528E-03 0.161E-02
CGA:  44    -0.664810864638E+03   -0.12101E-03   -0.10101E-03  8424   0.502E-03-0.339E-03
CGA:  45    -0.664810884001E+03   -0.19364E-04   -0.42565E-04  8424   0.939E-04 0.142E-03
CGA:  46    -0.664810892008E+03   -0.80066E-05   -0.15478E-04  8424   0.118E-03 0.665E-04
CGA:  47    -0.664810960062E+03   -0.68054E-04    0.60317E-04  8424   0.145E-03 0.414E-04
CGA:  48    -0.664811053621E+03   -0.93560E-04    0.94406E-03  8424   0.119E-03 0.191E-03
CGA:  49    -0.664811064220E+03   -0.10599E-04   -0.16924E-04  8424   0.879E-04 0.687E-04
CGA:  50    -0.664811117415E+03   -0.53195E-04    0.31598E-04  8424   0.908E-04 0.745E-04
CGA:  51    -0.664811149774E+03   -0.32359E-04   -0.27638E-04  8424   0.118E-03 0.620E-04
CGA:  52    -0.664811219818E+03   -0.70045E-04    0.51074E-04  8424   0.147E-03 0.290E-04
CGA:  53    -0.664811313643E+03   -0.93825E-04    0.21055E-03  8424   0.126E-03 0.180E-03
CGA:  54    -0.664811321894E+03   -0.82509E-05   -0.15545E-04  8424   0.795E-04 0.664E-04
CGA:  55    -0.664811370126E+03   -0.48232E-04    0.27151E-04  8424   0.805E-04 0.733E-04
CGA:  56    -0.664811447704E+03   -0.77577E-04   -0.54524E-04  8424   0.221E-03 0.498E-04
CGA:  57    -0.664811326771E+03    0.12093E-03   -0.13665E-03  8424   0.414E-02-0.699E-03
CGA:  58    -0.664811622248E+03   -0.29548E-03   -0.37193E-03  8424   0.104E-03 0.434E-03
CGA:  59    -0.664811627686E+03   -0.54377E-05   -0.13137E-04  8424   0.789E-04 0.529E-04
CGA:  60    -0.664811685132E+03   -0.57446E-04    0.22427E-04  8424   0.896E-04 0.584E-04
CGA:  61    -0.664811702680E+03   -0.17548E-04   -0.19289E-04  8424   0.976E-04 0.466E-04
CGA:  62    -0.664811769062E+03   -0.66381E-04    0.34236E-04  8424   0.138E-03 0.251E-04
CGA:  63    -0.664811873325E+03   -0.10426E-03    0.10898E-03  8424   0.105E-03 0.169E-03
CGA:  64    -0.664811883054E+03   -0.97289E-05   -0.15021E-04  8424   0.749E-04 0.491E-04
CGA:  65    -0.664811944336E+03   -0.61282E-04    0.97930E-04  8424   0.110E-03 0.103E-03
CGA:  66    -0.664812013457E+03   -0.69121E-04    0.46991E-04  8424   0.170E-03-0.347E-05
CGA:  67    -0.664812121191E+03   -0.10773E-03    0.60815E-04  8424   0.171E-03 0.163E-03
CGA:  68    -0.664812127685E+03   -0.64939E-05   -0.16264E-04  8424   0.627E-04 0.649E-04
CGA:  69    -0.664812159411E+03   -0.31726E-04   -0.28786E-04  8424   0.251E-03 0.299E-04
CGA:  70    -0.664812392742E+03   -0.23333E-03    0.14967E-03  8424   0.428E-03 0.344E-03
CGA:  71    -0.664812494877E+03   -0.10213E-03   -0.89227E-04  8424   0.577E-03-0.381E-03
CGA:  72    -0.664812520081E+03   -0.25204E-04   -0.46729E-04  8424   0.685E-04 0.135E-03
CGA:  73    -0.664812526708E+03   -0.66267E-05   -0.10462E-04  8424   0.772E-04 0.350E-04
CGA:  74    -0.664812582834E+03   -0.56126E-04    0.14643E-04  8424   0.958E-04 0.271E-04
CGA:  75    -0.664812665034E+03   -0.82200E-04    0.36969E-04  8424   0.770E-04 0.127E-03
CGA:  76    -0.664812677009E+03   -0.11976E-04   -0.13700E-04  8424   0.711E-04 0.347E-04
CGA:  77    -0.664812744379E+03   -0.67370E-04    0.25618E-04  8424   0.754E-04 0.102E-03
CGA:  78    -0.664812800166E+03   -0.55787E-04    0.13130E-04  8424   0.931E-04 0.228E-04
CGA:  79    -0.664812879114E+03   -0.78948E-04    0.30296E-04  8424   0.774E-04 0.119E-03
CGA:  80    -0.664812888600E+03   -0.94860E-05   -0.11972E-04  8424   0.609E-04 0.353E-04
CGA:  81    -0.664812944799E+03   -0.56199E-04    0.22646E-04  8424   0.766E-04 0.861E-04
CGA:  82    -0.664813001197E+03   -0.56399E-04    0.12783E-04  8424   0.949E-04 0.154E-04
CGA:  83    -0.664813077742E+03   -0.76544E-04    0.24335E-04  8424   0.833E-04 0.112E-03
CGA:  84    -0.664813084371E+03   -0.66295E-05   -0.10360E-04  8424   0.513E-04 0.383E-04
CGA:  85    -0.664813125941E+03   -0.41570E-04    0.28846E-04  8424   0.836E-04 0.663E-04
CGA:  86    -0.664813184181E+03   -0.58240E-04    0.14831E-04  8424   0.105E-03 0.159E-05
CGA:  87    -0.664813258879E+03   -0.74697E-04    0.19098E-04  8424   0.102E-03 0.106E-03
CGA:  88    -0.664813263256E+03   -0.43770E-05   -0.98463E-05  8424   0.459E-04 0.456E-04
[...]
CGA:  15    -0.667292248030E+03    0.28854E-05   -0.31425E-04  8424   0.687E-03 0.704E-03
CGA:  16    -0.667292242234E+03    0.57960E-05   -0.27303E-04  8424   0.652E-03 0.666E-03
CGA:  17    -0.667292234432E+03    0.78018E-05   -0.23997E-04  8424   0.622E-03 0.634E-03
CGA:  18    -0.667292225248E+03    0.91844E-05   -0.21285E-04  8424   0.596E-03 0.607E-03
CGA:  19    -0.667292215124E+03    0.10124E-04   -0.19023E-04  8424   0.574E-03 0.583E-03
CGA:  20    -0.667292204384E+03    0.10741E-04   -0.17109E-04  8424   0.554E-03 0.562E-03
CGA:  21    -0.667292193265E+03    0.11119E-04   -0.15472E-04  8424   0.536E-03 0.543E-03
CGA:  22    -0.667292181946E+03    0.11319E-04   -0.14061E-04  8424   0.520E-03 0.526E-03
CGA:  23    -0.667292170562E+03    0.11384E-04   -0.12833E-04  8424   0.505E-03 0.511E-03
CGA:  24    -0.667292159214E+03    0.11349E-04   -0.11758E-04  8424   0.492E-03 0.498E-03
CGA:  25    -0.667292147978E+03    0.11236E-04   -0.10812E-04  8424   0.481E-03 0.486E-03
CGA:  26    -0.667292136912E+03    0.11067E-04   -0.99737E-05  8424   0.470E-03 0.474E-03
CGA:  27    -0.667292126056E+03    0.10856E-04   -0.92261E-05  8424   0.460E-03 0.464E-03
CGA:  28    -0.667292115444E+03    0.10612E-04   -0.85579E-05  8424   0.451E-03 0.455E-03
CGA:  29    -0.667292105096E+03    0.10348E-04   -0.79565E-05  8424   0.443E-03 0.447E-03
CGA:  30    -0.667292095028E+03    0.10067E-04   -0.74139E-05  8424   0.436E-03 0.439E-03
CGA:  31    -0.667292085251E+03    0.97771E-05   -0.69222E-05  8424   0.429E-03 0.432E-03
  54 F= -.66729209E+03 E0= -.66729209E+03  d E =-.132163E+00  mag=     2.0000
       N       E                     dE             d eps       ncg     rms          ort
SDA:   1    -0.665530148699E+03    0.17619E+01    0.00000E+00  8424   0.521E+01 0.000E+00
CGA:   2    -0.666719171165E+03   -0.11890E+01   -0.11837E+01  8424   0.229E+01 0.331E-01
CGA:   3    -0.667170105933E+03   -0.45093E+00   -0.45257E+00  8424   0.667E+00-0.127E-01
CGA:   4    -0.667282112603E+03   -0.11201E+00   -0.11179E+00  8424   0.163E+00 0.198E-02
CGA:   5    -0.667310149103E+03   -0.28036E-01   -0.27217E-01  8424   0.308E-01 0.861E-02
CGA:   6    -0.667316333768E+03   -0.61847E-02   -0.56203E-02  8424   0.683E-02 0.581E-02
CGA:   7    -0.667317720206E+03   -0.13864E-02   -0.11667E-02  8424   0.255E-02 0.351E-02
CGA:   8    -0.667318043915E+03   -0.32371E-03   -0.27779E-03  8424   0.152E-02 0.185E-02
CGA:   9    -0.667318156460E+03   -0.11254E-03   -0.12061E-03  8424   0.122E-02 0.135E-02
CGA:  10    -0.667318213564E+03   -0.57103E-04   -0.79619E-04  8424   0.105E-02 0.112E-02
CGA:  11    -0.667318245000E+03   -0.31437E-04   -0.59183E-04  8424   0.942E-03 0.989E-03
CGA:  12    -0.667318262104E+03   -0.17104E-04   -0.46746E-04  8424   0.860E-03 0.894E-03
CGA:  13    -0.667318270385E+03   -0.82804E-05   -0.38329E-04  8424   0.796E-03 0.822E-03
CGA:  14    -0.667318272911E+03   -0.25258E-05   -0.32243E-04  8424   0.745E-03 0.766E-03
CGA:  15    -0.667318271548E+03    0.13628E-05   -0.27636E-04  8424   0.703E-03 0.720E-03
CGA:  16    -0.667318267499E+03    0.40488E-05   -0.24029E-04  8424   0.668E-03 0.682E-03
CGA:  17    -0.667318261575E+03    0.59236E-05   -0.21131E-04  8424   0.637E-03 0.650E-03
CGA:  18    -0.667318254344E+03    0.72311E-05   -0.18757E-04  8424   0.611E-03 0.622E-03
CGA:  19    -0.667318246211E+03    0.81336E-05   -0.16780E-04  8424   0.588E-03 0.598E-03
CGA:  20    -0.667318237470E+03    0.87412E-05   -0.15111E-04  8424   0.568E-03 0.577E-03
CGA:  21    -0.667318228339E+03    0.91305E-05   -0.13686E-04  8424   0.551E-03 0.558E-03
CGA:  22    -0.667318218982E+03    0.93569E-05   -0.12458E-04  8424   0.535E-03 0.541E-03
CGA:  23    -0.667318209522E+03    0.94604E-05   -0.11390E-04  8424   0.520E-03 0.526E-03
CGA:  24    -0.667318200050E+03    0.94714E-05   -0.10454E-04  8424   0.507E-03 0.513E-03
  55 F= -.66731820E+03 E0= -.66731820E+03  d E =-.261148E-01  mag=     2.0000
       N       E                     dE             d eps       ncg     rms          ort
SDA:   1    -0.662797644979E+03    0.45206E+01    0.00000E+00  8424   0.117E+02 0.000E+00
CGA:   2    -0.665814992605E+03   -0.30173E+01   -0.78173E-03  8424   0.942E+01-0.327E+01
CGA:   3    -0.666791956352E+03   -0.97696E+00   -0.97726E+00  8424   0.249E+01-0.758E-02
CGA:   4    -0.667174412630E+03   -0.38246E+00   -0.38253E+00  8424   0.707E+00-0.122E-02
CGA:   5    -0.667289863818E+03   -0.11545E+00   -0.11494E+00  8424   0.192E+00 0.882E-02
CGA:   6    -0.667323505195E+03   -0.33641E-01   -0.33084E-01  8424   0.628E-01 0.899E-02
CGA:   7    -0.667335939687E+03   -0.12434E-01   -0.12079E-01  8424   0.215E-01 0.488E-02
CGA:   8    -0.667340451829E+03   -0.45121E-02   -0.43278E-02  8424   0.752E-02 0.255E-02
CGA:   9    -0.667341801988E+03   -0.13502E-02   -0.12663E-02  8424   0.272E-02 0.261E-02
CGA:  10    -0.667342120943E+03   -0.31896E-03   -0.36259E-03  8424   0.136E-02 0.206E-02
CGA:  11    -0.667342180443E+03   -0.59500E-04   -0.10601E-03  8424   0.950E-03 0.113E-02
CGA:  12    -0.667342187764E+03   -0.73213E-05   -0.56753E-04  8424   0.785E-03 0.864E-03
CGA:  13    -0.667342180316E+03    0.74483E-05   -0.39576E-04  8424   0.693E-03 0.739E-03
CGA:  14    -0.667342166939E+03    0.13377E-04   -0.30728E-04  8424   0.633E-03 0.663E-03
CGA:  15    -0.667342150878E+03    0.16061E-04   -0.25284E-04  8424   0.590E-03 0.612E-03
CGA:  16    -0.667342133599E+03    0.17279E-04   -0.21565E-04  8424   0.558E-03 0.574E-03
CGA:  17    -0.667342115850E+03    0.17749E-04   -0.18842E-04  8424   0.533E-03 0.546E-03
CGA:  18    -0.667342098046E+03    0.17804E-04   -0.16746E-04  8424   0.513E-03 0.523E-03
CGA:  19    -0.667342080425E+03    0.17621E-04   -0.15073E-04  8424   0.497E-03 0.505E-03
CGA:  20    -0.667342063132E+03    0.17293E-04   -0.13699E-04  8424   0.483E-03 0.489E-03
CGA:  21    -0.667342046252E+03    0.16880E-04   -0.12544E-04  8424   0.471E-03 0.476E-03
CGA:  22    -0.667342029838E+03    0.16414E-04   -0.11557E-04  8424   0.460E-03 0.465E-03
CGA:  23    -0.667342013918E+03    0.15920E-04   -0.10700E-04  8424   0.452E-03 0.456E-03
CGA:  24    -0.667341998507E+03    0.15411E-04   -0.99476E-05  8424   0.444E-03 0.447E-03
CGA:  25    -0.667341983610E+03    0.14897E-04   -0.92797E-05  8424   0.437E-03 0.440E-03
CGA:  26    -0.667341969225E+03    0.14385E-04   -0.86818E-05  8424   0.430E-03 0.433E-03
CGA:  27    -0.667341955347E+03    0.13879E-04   -0.81428E-05  8424   0.425E-03 0.427E-03
CGA:  28    -0.667341941966E+03    0.13381E-04   -0.76536E-05  8424   0.419E-03 0.422E-03
CGA:  29    -0.667341929070E+03    0.12895E-04   -0.72075E-05  8424   0.415E-03 0.417E-03
CGA:  30    -0.667341916649E+03    0.12422E-04   -0.67986E-05  8424   0.411E-03 0.412E-03
CGA:  31    -0.667341904687E+03    0.11961E-04   -0.64223E-05  8424   0.407E-03 0.408E-03
CGA:  32    -0.667341893172E+03    0.11515E-04   -0.60745E-05  8424   0.403E-03 0.405E-03
CGA:  33    -0.667341882090E+03    0.11082E-04   -0.57525E-05  8424   0.400E-03 0.401E-03
CGA:  34    -0.667341871426E+03    0.10664E-04   -0.54533E-05  8424   0.397E-03 0.398E-03
CGA:  35    -0.667341861167E+03    0.10260E-04   -0.51745E-05  8424   0.394E-03 0.395E-03
CGA:  36    -0.667341851298E+03    0.98686E-05   -0.49143E-05  8424   0.391E-03 0.392E-03
  56 F= -.66734185E+03 E0= -.66734185E+03  d E =-.236512E-01  mag=     2.0000
       N       E                     dE             d eps       ncg     rms          ort
SDA:   1    -0.593608703470E+03    0.73733E+02    0.00000E+00  8424   0.264E+03 0.000E+00
CGA:   2    -0.640029226589E+03   -0.46421E+02   -0.44995E+02  8424   0.850E+02 0.150E+02
CGA:   3    -0.660090252894E+03   -0.20061E+02   -0.20192E+02  8424   0.283E+02-0.110E+01
CGA:   4    -0.664944524287E+03   -0.48543E+01   -0.48289E+01  8424   0.764E+01 0.244E+00
CGA:   5    -0.666265426201E+03   -0.13209E+01   -0.13146E+01  8424   0.164E+01 0.669E-01
CGA:   6    -0.666615636494E+03   -0.35021E+00   -0.35152E+00  8424   0.454E+00-0.956E-02
CGA:   7    -0.666721297963E+03   -0.10566E+00   -0.10393E+00  8424   0.150E+00 0.116E-01
CGA:   8    -0.666761535692E+03   -0.40238E-01   -0.39104E-01  8424   0.501E-01 0.674E-02
CGA:   9    -0.666776143350E+03   -0.14608E-01   -0.14963E-01  8424   0.211E-01-0.188E-02
CGA:  10    -0.666782270095E+03   -0.61267E-02   -0.68416E-02  8424   0.111E-01-0.307E-02
CGA:  11    -0.666784489946E+03   -0.22199E-02   -0.41798E-02  8424   0.105E-01-0.605E-02
CGA:  12    -0.666786444650E+03   -0.19547E-02   -0.19603E-02  8424   0.285E-02-0.106E-03
CGA:  13    -0.666787008399E+03   -0.56375E-03   -0.14787E-02  8424   0.606E-02-0.236E-02
CGA:  14    -0.666788070574E+03   -0.10622E-02   -0.10972E-02  8424   0.194E-02-0.132E-02
CGA:  15    -0.666785332767E+03    0.27378E-02   -0.14972E-02  8424   0.283E-01-0.502E-02
CGA:  16    -0.666789223522E+03   -0.38908E-02   -0.37896E-02  8424   0.334E-02-0.797E-03
CGA:  17    -0.666789994489E+03   -0.77097E-03   -0.77164E-03  8424   0.334E-03 0.161E-04
CGA:  18    -0.666790312518E+03   -0.31803E-03    0.63449E-04  8424   0.210E-03 0.107E-03
CGA:  19    -0.666790664187E+03   -0.35167E-03    0.28966E-04  8424   0.156E-03 0.163E-03
CGA:  20    -0.666790891190E+03   -0.22700E-03    0.13113E-04  8424   0.117E-03 0.114E-03
CGA:  21    -0.666791086665E+03   -0.19547E-03    0.79263E-05  8424   0.112E-03 0.105E-03
CGA:  22    -0.666791295992E+03   -0.20933E-03    0.63645E-05  8424   0.113E-03 0.946E-04
CGA:  23    -0.666791469148E+03   -0.17316E-03    0.86998E-05  8424   0.126E-03 0.789E-04
CGA:  24    -0.666791681308E+03   -0.21216E-03    0.83198E-05  8424   0.166E-03 0.470E-04
CGA:  25    -0.666792112733E+03   -0.43142E-03    0.12785E-04  8424   0.107E-03 0.210E-03
CGA:  26    -0.666792259954E+03   -0.14722E-03    0.97023E-05  8424   0.140E-03 0.428E-04
CGA:  27    -0.666792674804E+03   -0.41485E-03    0.95004E-05  8424   0.905E-04 0.182E-03
CGA:  28    -0.666792860334E+03   -0.18553E-03    0.45544E-05  8424   0.114E-03 0.431E-04
CGA:  29    -0.666793229546E+03   -0.36921E-03    0.77481E-05  8424   0.757E-04 0.156E-03
CGA:  30    -0.666793370050E+03   -0.14050E-03    0.43701E-05  8424   0.873E-04 0.470E-04
CGA:  31    -0.666793545400E+03   -0.17535E-03    0.45175E-05  8424   0.121E-03 0.228E-04
CGA:  32    -0.666793908562E+03   -0.36316E-03    0.62560E-05  8424   0.867E-04 0.143E-03
CGA:  33    -0.666794026969E+03   -0.11841E-03    0.80237E-05  8424   0.123E-03 0.966E-05
CGA:  34    -0.666794385259E+03   -0.35829E-03    0.49704E-05  8424   0.101E-03 0.128E-03
CGA:  35    -0.666794547474E+03   -0.16221E-03    0.72958E-05  8424   0.146E-03-0.188E-04
CGA:  36    -0.666794878154E+03   -0.33068E-03    0.40116E-05  8424   0.157E-03 0.106E-03
CGA:  37    -0.666794970316E+03   -0.92163E-04    0.31845E-03  8424   0.216E-03-0.883E-04
CGA:  38    -0.666795138003E+03   -0.16769E-03    0.72234E-04  8424   0.362E-03-0.186E-03
CGA:  39    -0.666795197935E+03   -0.59932E-04   -0.53468E-04  8424   0.726E-04-0.509E-04
CGA:  40    -0.666795362057E+03   -0.16412E-03    0.21503E-05  8424   0.447E-04 0.504E-04
CGA:  41    -0.666795485223E+03   -0.12317E-03    0.14544E-05  8424   0.438E-04 0.380E-04
CGA:  42    -0.666795606323E+03   -0.12110E-03    0.14167E-05  8424   0.444E-04 0.361E-04
CGA:  43    -0.666795725863E+03   -0.11954E-03    0.14867E-05  8424   0.475E-04 0.326E-04
CGA:  44    -0.666795843586E+03   -0.11772E-03    0.17593E-05  8424   0.557E-04 0.256E-04
CGA:  45    -0.666795956764E+03   -0.11318E-03    0.26842E-05  8424   0.757E-04 0.110E-04
CGA:  46    -0.666796233874E+03   -0.27711E-03    0.25907E-05  8424   0.601E-04 0.869E-04
CGA:  47    -0.666796341099E+03   -0.10723E-03    0.34672E-05  8424   0.885E-04-0.250E-05
CGA:  48    -0.666796614093E+03   -0.27299E-03    0.22814E-05  8424   0.864E-04 0.813E-04
CGA:  49    -0.666796719882E+03   -0.10579E-03    0.90680E-05  8424   0.145E-03-0.460E-04
CGA:  50    -0.666796805090E+03   -0.85208E-04    0.19822E-03  8424   0.279E-03-0.136E-03
CGA:  51    -0.666796880243E+03   -0.75153E-04   -0.74493E-04  8424   0.584E-03-0.339E-03
CGA:  52    -0.666796987055E+03   -0.10681E-03   -0.85044E-04  8424   0.109E-03-0.177E-03
CGA:  53    -0.666797106139E+03   -0.11908E-03    0.50402E-05  8424   0.410E-04 0.209E-04
CGA:  54    -0.666797258707E+03   -0.15257E-03    0.12962E-05  8424   0.355E-04 0.361E-04
CGA:  55    -0.666797341193E+03   -0.82485E-04    0.13537E-05  8424   0.447E-04 0.165E-04
CGA:  56    -0.666797562854E+03   -0.22166E-03    0.15711E-05  8424   0.319E-04 0.625E-04
CGA:  57    -0.666797664890E+03   -0.10204E-03    0.81790E-06  8424   0.373E-04 0.179E-04
CGA:  58    -0.666797739085E+03   -0.74195E-04    0.17470E-05  8424   0.495E-04 0.858E-05
CGA:  59    -0.666797954199E+03   -0.21511E-03    0.13943E-05  8424   0.397E-04 0.589E-04
CGA:  60    -0.666798056865E+03   -0.10267E-03    0.13214E-05  8424   0.531E-04 0.232E-05
CGA:  61    -0.666798258440E+03   -0.20158E-03    0.12615E-05  8424   0.483E-04 0.544E-04
CGA:  62    -0.666798320804E+03   -0.62364E-04    0.43338E-05  8424   0.682E-04-0.123E-04
CGA:  63    -0.666798521423E+03   -0.20062E-03    0.10198E-05  8424   0.799E-04 0.484E-04
CGA:  64    -0.666798623918E+03   -0.10250E-03    0.72422E-05  8424   0.116E-03-0.536E-04
CGA:  65    -0.666798653133E+03   -0.29215E-04   -0.35597E-04  8424   0.289E-03-0.139E-03
CGA:  66    -0.666798133545E+03    0.51959E-03   -0.21958E-03  8424   0.853E-02-0.149E-02
CGA:  67    -0.666798968766E+03   -0.83522E-03   -0.92223E-03  8424   0.554E-04 0.489E-03
CGA:  68    -0.666799033419E+03   -0.64654E-04    0.84862E-05  8424   0.104E-03-0.414E-04
CGA:  69    -0.666799124223E+03   -0.90803E-04    0.25919E-04  8424   0.169E-03-0.950E-04
CGA:  70    -0.666799167544E+03   -0.43322E-04   -0.36740E-04  8424   0.117E-03-0.104E-03
CGA:  71    -0.666799263362E+03   -0.95817E-04    0.33527E-04  8424   0.188E-03-0.112E-03
CGA:  72    -0.666799301850E+03   -0.38489E-04   -0.32412E-04  8424   0.513E-04-0.582E-04
CGA:  73    -0.666799408387E+03   -0.10654E-03    0.10594E-05  8424   0.178E-04 0.231E-04
CGA:  74    -0.666799514611E+03   -0.10622E-03    0.53775E-06  8424   0.234E-04 0.203E-04
CGA:  75    -0.666799578386E+03   -0.63776E-04    0.79354E-06  8424   0.270E-04 0.776E-05
CGA:  76    -0.666799732420E+03   -0.15403E-03    0.71164E-06  8424   0.229E-04 0.351E-04
CGA:  77    -0.666799805587E+03   -0.73167E-04    0.64144E-06  8424   0.260E-04 0.664E-05
CGA:  78    -0.666799948648E+03   -0.14306E-03    0.66710E-06  8424   0.227E-04 0.328E-04
CGA:  79    -0.666800009380E+03   -0.60732E-04    0.78674E-06  8424   0.258E-04 0.513E-05
CGA:  80    -0.666800150192E+03   -0.14081E-03    0.59844E-06  8424   0.231E-04 0.309E-04
CGA:  81    -0.666800215505E+03   -0.65314E-04    0.74836E-06  8424   0.255E-04 0.348E-05
CGA:  82    -0.666800345124E+03   -0.12962E-03    0.55904E-06  8424   0.236E-04 0.287E-04
CGA:  83    -0.666800403805E+03   -0.58681E-04    0.89862E-06  8424   0.254E-04 0.172E-05
CGA:  84    -0.666800530127E+03   -0.12632E-03    0.49405E-06  8424   0.243E-04 0.267E-04
CGA:  85    -0.666800587634E+03   -0.57506E-04    0.98242E-06  8424   0.247E-04 0.444E-06
CGA:  86    -0.666800701916E+03   -0.11428E-03    0.46343E-06  8424   0.238E-04 0.245E-04
CGA:  87    -0.666800759780E+03   -0.57864E-04    0.92980E-06  8424   0.229E-04 0.301E-06
CGA:  88    -0.666800870173E+03   -0.11039E-03    0.40771E-06  8424   0.222E-04 0.226E-04
CGA:  89    -0.666800920502E+03   -0.50329E-04    0.95597E-06  8424   0.200E-04 0.153E-05
CGA:  90    -0.666801019988E+03   -0.99486E-04    0.38325E-06  8424   0.195E-04 0.208E-04
CGA:  91    -0.666801076449E+03   -0.56462E-04    0.61400E-06  8424   0.168E-04 0.347E-05
CGA:  92    -0.666801172984E+03   -0.96534E-04    0.33830E-06  8424   0.170E-04 0.193E-04
CGA:  93    -0.666801218203E+03   -0.45219E-04    0.59214E-06  8424   0.142E-04 0.520E-05
CGA:  94    -0.666801307333E+03   -0.89130E-04    0.31999E-06  8424   0.149E-04 0.180E-04
CGA:  95    -0.666801360534E+03   -0.53201E-04    0.36354E-06  8424   0.124E-04 0.623E-05
CGA:  96    -0.666801448538E+03   -0.88003E-04    0.29143E-06  8424   0.135E-04 0.171E-04
CGA:  97    -0.666801490165E+03   -0.41627E-04    0.38971E-06  8424   0.112E-04 0.677E-05
CGA:  98    -0.666801538744E+03   -0.48579E-04    0.21679E-06  8424   0.102E-04 0.791E-05
CGA:  99    -0.666801582245E+03   -0.43500E-04    0.20213E-06  8424   0.966E-05 0.836E-05
CGA: 100    -0.666801627603E+03   -0.45359E-04    0.17204E-06  8424   0.935E-05 0.851E-05
CGA: 101    -0.666801671370E+03   -0.43766E-04    0.16687E-06  8424   0.913E-05 0.852E-05
CGA: 102    -0.666801714827E+03   -0.43458E-04    0.16021E-06  8424   0.898E-05 0.846E-05
CGA: 103    -0.666801758270E+03   -0.43442E-04    0.15461E-06  8424   0.887E-05 0.835E-05
CGA: 104    -0.666801800052E+03   -0.41783E-04    0.15738E-06  8424   0.880E-05 0.821E-05
CGA: 105    -0.666801843180E+03   -0.43127E-04    0.14918E-06  8424   0.877E-05 0.802E-05
CGA: 106    -0.666801883032E+03   -0.39853E-04    0.16209E-06  8424   0.881E-05 0.778E-05
CGA: 107    -0.666801926230E+03   -0.43198E-04    0.14934E-06  8424   0.894E-05 0.747E-05
CGA: 108    -0.666801963569E+03   -0.37338E-04    0.18211E-06  8424   0.924E-05 0.704E-05
CGA: 109    -0.666802007582E+03   -0.44014E-04    0.16176E-06  8424   0.978E-05 0.642E-05
CGA: 110    -0.666802041385E+03   -0.33803E-04    0.24797E-06  8424   0.107E-04 0.547E-05
CGA: 111    -0.666802087458E+03   -0.46073E-04    0.21192E-06  8424   0.124E-04 0.399E-05
CGA: 112    -0.666802169913E+03   -0.82454E-04    0.29243E-06  8424   0.105E-04 0.167E-04
CGA: 113    -0.666802200249E+03   -0.30336E-04    0.32823E-06  8424   0.122E-04 0.358E-05
CGA: 114    -0.666802282192E+03   -0.81943E-04    0.27079E-06  8424   0.103E-04 0.160E-04
CGA: 115    -0.666802324175E+03   -0.41983E-04    0.21679E-06  8424   0.120E-04 0.310E-05
CGA: 116    -0.666802400322E+03   -0.76146E-04    0.26658E-06  8424   0.104E-04 0.153E-04
CGA: 117    -0.666802428767E+03   -0.28446E-04    0.34826E-06  8424   0.121E-04 0.242E-05
CGA: 118    -0.666802504480E+03   -0.75713E-04    0.24536E-06  8424   0.107E-04 0.147E-04
CGA: 119    -0.666802542628E+03   -0.38148E-04    0.26404E-06  8424   0.124E-04 0.152E-05
CGA: 120    -0.666802612522E+03   -0.69894E-04    0.23995E-06  8424   0.115E-04 0.139E-04
CGA: 121    -0.666802639265E+03   -0.26743E-04    0.47287E-06  8424   0.132E-04 0.222E-06
CGA: 122    -0.666802708566E+03   -0.69301E-04    0.21746E-06  8424   0.128E-04 0.132E-04
CGA: 123    -0.666802743024E+03   -0.34458E-04    0.43812E-06  8424   0.143E-04-0.147E-05
CGA: 124    -0.666802805917E+03   -0.62893E-04    0.21215E-06  8424   0.143E-04 0.124E-04
CGA: 125    -0.666802831712E+03   -0.25796E-04    0.84053E-06  8424   0.156E-04-0.335E-05
CGA: 126    -0.666802893917E+03   -0.62204E-04    0.18874E-06  8424   0.158E-04 0.116E-04
CGA: 127    -0.666802924116E+03   -0.30200E-04    0.85704E-06  8424   0.162E-04-0.480E-05
CGA: 128    -0.666802978828E+03   -0.54712E-04    0.19251E-06  8424   0.159E-04 0.108E-04
CGA: 129    -0.666803005417E+03   -0.26589E-04    0.10465E-05  8424   0.153E-04-0.482E-05
CGA: 130    -0.666803059848E+03   -0.54431E-04    0.17312E-06  8424   0.146E-04 0.102E-04
CGA: 131    -0.666803085134E+03   -0.25286E-04    0.90104E-06  8424   0.130E-04-0.326E-05
CGA: 132    -0.666803132591E+03   -0.47457E-04    0.17817E-06  8424   0.119E-04 0.961E-05
CGA: 133    -0.666803160094E+03   -0.27504E-04    0.49914E-06  8424   0.101E-04-0.854E-06
CGA: 134    -0.666803207385E+03   -0.47291E-04    0.15534E-06  8424   0.955E-05 0.902E-05
CGA: 135    -0.666803229049E+03   -0.21664E-04    0.40937E-06  8424   0.789E-05 0.116E-05
CGA: 136    -0.666803271897E+03   -0.42848E-04    0.15217E-06  8424   0.785E-05 0.852E-05
CGA: 137    -0.666803298369E+03   -0.26472E-04    0.20525E-06  8424   0.655E-05 0.234E-05
CGA: 138    -0.666803341515E+03   -0.43146E-04    0.13866E-06  8424   0.686E-05 0.822E-05
CGA: 139    -0.666803361125E+03   -0.19610E-04    0.21882E-06  8424   0.576E-05 0.293E-05
