       N       E                     dE             d eps       ncg     rms          ort
DAV:   1     0.826456529411E+04    0.82646E+04   -0.24649E+05  8424   0.238E+03
DAV:   2     0.917539559240E+03   -0.73470E+04   -0.68961E+04  8424   0.657E+02
DAV:   3    -0.674411116771E+03   -0.15920E+04   -0.13992E+04  8424   0.282E+02
DAV:   4    -0.830813581679E+03   -0.15640E+03   -0.15367E+03  8424   0.859E+01
DAV:   5    -0.833322203725E+03   -0.25086E+01   -0.24976E+01  8424   0.122E+01
SDA:   6    -0.239786586869E+03    0.59354E+03   -0.24976E+01  8424   0.510E+04 0.000E+00
CGA:   7    -0.421287614843E+03   -0.18150E+03   -0.45618E+03  8424   0.344E+04-0.166E+03
CGA:   8    -0.534610122076E+03   -0.11332E+03   -0.14853E+03  8424   0.474E+04-0.618E+04
CGA:   9    -0.475268129736E+03    0.59342E+02   -0.30746E+03  8424   0.681E+04-0.448E+04
CGA:  10    -0.505596182258E+03   -0.30328E+02   -0.43674E+03  8424   0.737E+04-0.859E+04
CGA:  11    -0.485125385924E+03    0.20471E+02   -0.52022E+03  8424   0.162E+04-0.138E+04
CGA:  12    -0.643251879844E+03   -0.15813E+03   -0.53351E+02  8424   0.178E+03-0.430E+03
CGA:  13    -0.655829152088E+03   -0.12577E+02   -0.24061E+01  8424   0.641E+02 0.158E+03
CGA:  14    -0.658422012192E+03   -0.25929E+01   -0.45930E+01  8424   0.939E+02-0.468E+01
CGA:  15    -0.660540012962E+03   -0.21180E+01   -0.52030E+01  8424   0.122E+03-0.817E+02
CGA:  16    -0.660092341259E+03    0.44767E+00   -0.58945E+01  8424   0.186E+03-0.758E+02
CGA:  17    -0.653531506466E+03    0.65608E+01   -0.94303E+01  8424   0.251E+03-0.122E+03
CGA:  18    -0.661456649095E+03   -0.79251E+01   -0.77040E+01  8424   0.128E+03-0.201E+03
CGA:  19    -0.662970981104E+03   -0.15143E+01   -0.52901E+01  8424   0.162E+03-0.170E+03
CGA:  20    -0.663070130794E+03   -0.99150E-01   -0.86003E+01  8424   0.927E+02-0.667E+02
CGA:  21    -0.665735793295E+03   -0.26657E+01   -0.18079E+01  8424   0.147E+02 0.230E+02
CGA:  22    -0.666259415946E+03   -0.52362E+00   -0.41506E+00  8424   0.428E+01 0.513E+01
CGA:  23    -0.666662797122E+03   -0.40338E+00   -0.41798E+00  8424   0.908E+01 0.395E-01
CGA:  24    -0.666914028784E+03   -0.25123E+00   -0.31167E+00  8424   0.138E+02-0.216E+01
CGA:  25    -0.666750935401E+03    0.16309E+00   -0.53427E+00  8424   0.285E+02-0.617E+01
CGA:  26    -0.667197733467E+03   -0.44680E+00   -0.20570E+00  8424   0.846E+01 0.121E+02
CGA:  27    -0.667302634814E+03   -0.10490E+00   -0.27251E+00  8424   0.347E+01-0.733E+01
CGA:  28    -0.667478193596E+03   -0.17556E+00   -0.16229E+00  8424   0.221E+01 0.130E+00
CGA:  29    -0.667706509770E+03   -0.22832E+00   -0.54475E+00  8424   0.674E+01-0.125E+01
CGA:  30    -0.668239912579E+03   -0.53340E+00   -0.51434E+00  8424   0.454E+00-0.652E-01
CGA:  31    -0.668308634365E+03   -0.68722E-01   -0.68155E-01  8424   0.177E+00 0.623E-02
CGA:  32    -0.668335096384E+03   -0.26462E-01   -0.25237E-01  8424   0.191E+00 0.192E-01
CGA:  33    -0.668362533371E+03   -0.27437E-01   -0.27452E-01  8424   0.110E+00 0.111E-02
CGA:  34    -0.668395425130E+03   -0.32892E-01   -0.34317E-01  8424   0.128E+00-0.341E-02
CGA:  35    -0.668420483746E+03   -0.25059E-01   -0.31897E-01  8424   0.273E+00-0.473E-01
CGA:  36    -0.668438940244E+03   -0.18456E-01   -0.56808E-01  8424   0.387E+00-0.193E+00
CGA:  37    -0.668506280737E+03   -0.67340E-01   -0.67192E-01  8424   0.107E+00 0.284E-02
CGA:  38    -0.668522119552E+03   -0.15839E-01   -0.94202E-02  8424   0.596E+00-0.103E+00
CGA:  39    -0.668585777867E+03   -0.63658E-01   -0.65198E-01  8424   0.106E+00-0.236E-01
CGA:  40    -0.668608178808E+03   -0.22401E-01   -0.22353E-01  8424   0.481E-01-0.207E-02
CGA:  41    -0.668625994163E+03   -0.17815E-01   -0.31129E-01  8424   0.170E+00-0.315E-01
CGA:  42    -0.668651753975E+03   -0.25760E-01   -0.25939E-01  8424   0.487E-01 0.239E-02
CGA:  43    -0.668670044439E+03   -0.18290E-01   -0.20405E-01  8424   0.951E-01-0.140E-01
CGA:  44    -0.668689889217E+03   -0.19845E-01   -0.24990E-01  8424   0.167E+00-0.472E-01
CGA:  45    -0.668693768807E+03   -0.38796E-02   -0.37710E-01  8424   0.613E+00-0.171E+00
CGA:  46    -0.668780417437E+03   -0.86649E-01   -0.87573E-01  8424   0.102E+00-0.479E-02
CGA:  47    -0.668811255107E+03   -0.30838E-01   -0.30753E-01  8424   0.192E-01 0.265E-02
CGA:  48    -0.668816600503E+03   -0.53454E-02   -0.53425E-02  8424   0.102E-01-0.253E-02
CGA:  49    -0.668819753792E+03   -0.31533E-02   -0.31307E-02  8424   0.380E-02 0.214E-03
CGA:  50    -0.668821941656E+03   -0.21879E-02    0.26458E-01  8424   0.221E-02 0.201E-02
CGA:  51    -0.668823452590E+03   -0.15109E-02    0.13002E-02  8424   0.148E-02 0.123E-02
CGA:  52    -0.668824389311E+03   -0.93672E-03    0.14202E-02  8424   0.128E-02 0.934E-03
CGA:  53    -0.668825386070E+03   -0.99676E-03    0.43545E-03  8424   0.122E-02 0.767E-03
CGA:  54    -0.668826122660E+03   -0.73659E-03    0.18832E-02  8424   0.127E-02 0.603E-03
CGA:  55    -0.668827738295E+03   -0.16156E-02    0.47963E-03  8424   0.949E-03 0.169E-02
CGA:  56    -0.668828525634E+03   -0.78734E-03    0.26149E-03  8424   0.944E-03 0.529E-03
CGA:  57    -0.668829061554E+03   -0.53592E-03    0.47457E-02  8424   0.984E-03 0.431E-03
CGA:  58    -0.668830357531E+03   -0.12960E-02    0.31146E-03  8424   0.791E-03 0.132E-02
CGA:  59    -0.668831037425E+03   -0.67989E-03    0.19666E-03  8424   0.796E-03 0.375E-03
CGA:  60    -0.668832136261E+03   -0.10988E-02    0.23396E-03  8424   0.677E-03 0.111E-02
CGA:  61    -0.668832518486E+03   -0.38222E-03    0.44413E-02  8424   0.676E-03 0.331E-03
CGA:  62    -0.668833496668E+03   -0.97818E-03    0.18338E-03  8424   0.590E-03 0.958E-03
CGA:  63    -0.668834039031E+03   -0.54236E-03    0.12274E-03  8424   0.584E-03 0.298E-03
CGA:  64    -0.668832984474E+03    0.10546E-02   -0.62612E-03  8424   0.234E-01-0.148E-02
CGA:  65    -0.668836931431E+03   -0.39470E-02   -0.33977E-02  8424   0.532E-03-0.159E-02
CGA:  66    -0.668837041481E+03   -0.11005E-03   -0.62748E-03  8424   0.847E-02-0.673E-03
CGA:  67    -0.668838642262E+03   -0.16008E-02   -0.12869E-02  8424   0.478E-03-0.859E-03
CGA:  68    -0.668835747333E+03    0.28949E-02   -0.15765E-02  8424   0.440E-01-0.163E-02
CGA:  69    -0.668842357373E+03   -0.66100E-02   -0.60502E-02  8424   0.411E-03-0.112E-02
CGA:  70    -0.668842599116E+03   -0.24174E-03   -0.19232E-03  8424   0.106E-02-0.125E-03
CGA:  71    -0.668844540773E+03   -0.19417E-02    0.61983E-03  8424   0.372E-02 0.764E-04
CGA:  72    -0.668851547961E+03   -0.70072E-02    0.10222E+00  8424   0.176E-01-0.240E-02
CGA:  73    -0.668854193594E+03   -0.26456E-02   -0.27964E-02  8424   0.137E-02 0.276E-03
CGA:  74    -0.668854817681E+03   -0.62409E-03   -0.52215E-03  8424   0.897E-03-0.230E-03
CGA:  75    -0.668855073261E+03   -0.25558E-03   -0.19919E-03  8424   0.437E-03-0.108E-03
CGA:  76    -0.668842328597E+03    0.12745E-01   -0.69323E-02  8424   0.985E-01-0.360E-02
CGA:  77    -0.668858656683E+03   -0.16328E-01   -0.16203E-01  8424   0.704E-02 0.198E-02
CGA:  78    -0.668860401607E+03   -0.17449E-02   -0.15315E-02  8424   0.191E-02-0.195E-03
CGA:  79    -0.668861117886E+03   -0.71628E-03   -0.62591E-03  8424   0.652E-03-0.884E-04
CGA:  80    -0.668861700216E+03   -0.58233E-03   -0.31365E-03  8424   0.114E-02-0.363E-03
CGA:  81    -0.668861906845E+03   -0.20663E-03   -0.20635E-03  8424   0.284E-03-0.945E-05
CGA:  82    -0.668862566081E+03   -0.65924E-03    0.31528E-01  8424   0.233E-02-0.261E-03
CGA:  83    -0.668862988655E+03   -0.42257E-03   -0.50671E-03  8424   0.798E-03-0.130E-03
CGA:  84    -0.668863460150E+03   -0.47149E-03   -0.38372E-03  8424   0.145E-02-0.333E-03
CGA:  85    -0.668864356516E+03   -0.89637E-03   -0.54363E-03  8424   0.192E-02-0.646E-04
CGA:  86    -0.668866380316E+03   -0.20238E-02   -0.12960E-02  8424   0.429E-02-0.194E-03
CGA:  87    -0.668860351029E+03    0.60293E-02   -0.41465E-03  8424   0.765E-02 0.549E-02
CGA:  88    -0.668864121963E+03   -0.37709E-02   -0.34799E-02  8424   0.847E-02 0.392E-02
CGA:  89    -0.668866881631E+03   -0.27597E-02   -0.34975E-02  8424   0.715E-02 0.170E-02
CGA:  90    -0.668869686784E+03   -0.28052E-02   -0.42543E-02  8424   0.202E-02-0.972E-03
CGA:  91    -0.668870091279E+03   -0.40450E-03   -0.55792E-03  8424   0.133E-02-0.155E-03
CGA:  92    -0.668870813561E+03   -0.72228E-03   -0.18137E-02  8424   0.838E-02-0.922E-03
CGA:  93    -0.668872609284E+03   -0.17957E-02   -0.17247E-02  8424   0.140E-02-0.909E-05
CGA:  94    -0.668873230944E+03   -0.62166E-03   -0.41708E-03  8424   0.812E-03-0.303E-03
CGA:  95    -0.668874790392E+03   -0.15594E-02    0.62816E-03  8424   0.867E-03 0.811E-04
CGA:  96    -0.668875430967E+03   -0.64057E-03   -0.23263E-03  8424   0.256E-03-0.150E-03
CGA:  97    -0.668876169759E+03   -0.73879E-03    0.78701E-04  8424   0.767E-03-0.476E-03
CGA:  98    -0.668876762826E+03   -0.59307E-03   -0.73371E-03  8424   0.497E-02-0.105E-02
CGA:  99    -0.668877510488E+03   -0.74766E-03   -0.85996E-03  8424   0.453E-03 0.191E-03
CGA: 100    -0.668877860101E+03   -0.34961E-03   -0.40273E-03  8424   0.338E-02-0.931E-03
CGA: 101    -0.668878425827E+03   -0.56573E-03   -0.61255E-03  8424   0.472E-03 0.927E-04
CGA: 102    -0.668878772386E+03   -0.34656E-03   -0.39732E-03  8424   0.336E-02-0.103E-02
CGA: 103    -0.668879321156E+03   -0.54877E-03   -0.62204E-03  8424   0.493E-03 0.137E-03
CGA: 104    -0.668879710320E+03   -0.38916E-03   -0.37121E-03  8424   0.261E-02-0.939E-03
CGA: 105    -0.668880170762E+03   -0.46044E-03   -0.49920E-03  8424   0.419E-03 0.829E-04
CGA: 106    -0.668879259044E+03    0.91172E-03   -0.64302E-03  8424   0.131E-01-0.202E-02
CGA: 107    -0.668881390329E+03   -0.21313E-02   -0.23395E-02  8424   0.163E-02 0.471E-03
CGA: 108    -0.668882091184E+03   -0.70086E-03   -0.49645E-03  8424   0.319E-03-0.479E-03
CGA: 109    -0.668882661494E+03   -0.57031E-03    0.98710E-04  8424   0.586E-03-0.445E-04
CGA: 110    -0.668884504848E+03   -0.18434E-02    0.11085E-03  8424   0.177E-02-0.246E-03
CGA: 111    -0.668890867176E+03   -0.63623E-02    0.10636E-03  8424   0.165E-02 0.679E-03
CGA: 112    -0.668896293251E+03   -0.54261E-02    0.11636E-02  8424   0.109E-01-0.224E-02
CGA: 113    -0.668898323447E+03   -0.20302E-02   -0.16662E-02  8424   0.591E-03-0.797E-03
CGA: 114    -0.668898585161E+03   -0.26171E-03   -0.19800E-03  8424   0.323E-03-0.203E-03
CGA: 115    -0.668899491833E+03   -0.90667E-03    0.31213E-04  8424   0.859E-03-0.975E-04
CGA: 116    -0.668902304594E+03   -0.28128E-02    0.77355E-04  8424   0.302E-03 0.208E-03
CGA: 117    -0.668903746222E+03   -0.14416E-02    0.64694E-04  8424   0.552E-03-0.204E-04
CGA: 118    -0.668907090166E+03   -0.33439E-02    0.43249E-04  8424   0.120E-02 0.804E-04
CGA: 119    -0.668915103009E+03   -0.80128E-02    0.13167E-03  8424   0.153E-02 0.160E-03
CGA: 120    -0.668926428585E+03   -0.11326E-01    0.14594E-03  8424   0.236E-02 0.673E-04
CGA: 121    -0.668945996037E+03   -0.19567E-01    0.16230E-03  8424   0.267E-02-0.403E-03
CGA: 122    -0.668969333389E+03   -0.23337E-01    0.10450E-03  8424   0.682E-02-0.284E-02
CGA: 123    -0.668970055064E+03   -0.72168E-03   -0.96789E-03  8424   0.547E-03 0.514E-03
CGA: 124    -0.668970066653E+03   -0.11589E-04   -0.11344E-03  8424   0.215E-03 0.231E-03
CGA: 125    -0.668970037957E+03    0.28696E-04   -0.50043E-04  8424   0.145E-03 0.174E-03
CGA: 126    -0.668970011596E+03    0.26361E-04   -0.22135E-04  8424   0.101E-03 0.110E-03
CGA: 127    -0.668969980491E+03    0.31106E-04   -0.11971E-04  8424   0.922E-04 0.956E-04
CGA: 128    -0.668969950820E+03    0.29671E-04   -0.97286E-05  8424   0.873E-04 0.893E-04
CGA: 129    -0.668969922920E+03    0.27900E-04   -0.84943E-05  8424   0.838E-04 0.851E-04
CGA: 130    -0.668969896662E+03    0.26258E-04   -0.76191E-05  8424   0.812E-04 0.821E-04
CGA: 131    -0.668969871899E+03    0.24763E-04   -0.69432E-05  8424   0.791E-04 0.798E-04
CGA: 132    -0.668969848501E+03    0.23399E-04   -0.63942E-05  8424   0.774E-04 0.780E-04
CGA: 133    -0.668969826353E+03    0.22147E-04   -0.59325E-05  8424   0.761E-04 0.765E-04
CGA: 134    -0.668969805361E+03    0.20992E-04   -0.55342E-05  8424   0.749E-04 0.752E-04
CGA: 135    -0.668969785439E+03    0.19921E-04   -0.51838E-05  8424   0.739E-04 0.742E-04
CGA: 136    -0.668969766516E+03    0.18923E-04   -0.48705E-05  8424   0.730E-04 0.733E-04
CGA: 137    -0.668969748528E+03    0.17988E-04   -0.45864E-05  8424   0.723E-04 0.724E-04
CGA: 138    -0.668969731417E+03    0.17111E-04   -0.43265E-05  8424   0.716E-04 0.717E-04
CGA: 139    -0.668969715133E+03    0.16284E-04   -0.40868E-05  8424   0.709E-04 0.710E-04
CGA: 140    -0.668969699629E+03    0.15503E-04   -0.38643E-05  8424   0.703E-04 0.704E-04
CGA: 141    -0.668969684865E+03    0.14765E-04   -0.36564E-05  8424   0.697E-04 0.698E-04
CGA: 142    -0.668969670801E+03    0.14064E-04   -0.34614E-05  8424   0.692E-04 0.693E-04
CGA: 143    -0.668969657404E+03    0.13397E-04   -0.32781E-05  8424   0.686E-04 0.688E-04
CGA: 144    -0.668969644640E+03    0.12764E-04   -0.31060E-05  8424   0.681E-04 0.683E-04
CGA: 145    -0.668969632477E+03    0.12163E-04   -0.29446E-05  8424   0.676E-04 0.678E-04
CGA: 146    -0.668969620885E+03    0.11592E-04   -0.27934E-05  8424   0.672E-04 0.673E-04
CGA: 147    -0.668969609835E+03    0.11050E-04   -0.26518E-05  8424   0.668E-04 0.669E-04
CGA: 148    -0.668969599299E+03    0.10536E-04   -0.25191E-05  8424   0.664E-04 0.665E-04
CGA: 149    -0.668969589251E+03    0.10048E-04   -0.23947E-05  8424   0.660E-04 0.661E-04
CGA: 150    -0.668969579667E+03    0.95845E-05   -0.22779E-05  8424   0.657E-04 0.658E-04
   1 F= -.66896958E+03 E0= -.66896958E+03  d E =-.668970E+03  mag=     2.0000
       N       E                     dE             d eps       ncg     rms          ort
SDA:   1    -0.668973379787E+03   -0.37905E-02    0.00000E+00  8424   0.134E-01 0.000E+00
CGA:   2    -0.668976967798E+03   -0.35880E-02   -0.35306E-02  8424   0.532E-02 0.858E-03
CGA:   3    -0.668978085744E+03   -0.11179E-02   -0.11177E-02  8424   0.171E-02-0.823E-04
CGA:   4    -0.668978297189E+03   -0.21144E-03   -0.23385E-03  8424   0.367E-03 0.368E-03
CGA:   5    -0.668978315051E+03   -0.17863E-04   -0.42750E-04  8424   0.156E-03 0.246E-03
CGA:   6    -0.668978312641E+03    0.24107E-05   -0.11987E-04  8424   0.107E-03 0.125E-03
   2 F= -.66897831E+03 E0= -.66897831E+03  d E =-.873297E-02  mag=     2.0000
       N       E                     dE             d eps       ncg     rms          ort
SDA:   1    -0.668765415395E+03    0.21290E+00    0.00000E+00  8424   0.707E+00 0.000E+00
CGA:   2    -0.668965835672E+03   -0.20042E+00   -0.20009E+00  8424   0.304E+00 0.311E-02
CGA:   3    -0.669022299311E+03   -0.56464E-01   -0.56463E-01  8424   0.833E-01-0.419E-02
CGA:   4    -0.669036502260E+03   -0.14203E-01   -0.14208E-01  8424   0.193E-01 0.370E-03
CGA:   5    -0.669039664887E+03   -0.31626E-02   -0.31751E-02  8424   0.401E-02 0.594E-03
CGA:   6    -0.669040455590E+03   -0.79070E-03   -0.78891E-03  8424   0.101E-02 0.238E-03
CGA:   7    -0.669040601470E+03   -0.14588E-03   -0.16074E-03  8424   0.363E-03 0.443E-03
CGA:   8    -0.669040636948E+03   -0.35478E-04   -0.57909E-04  8424   0.207E-03 0.316E-03
CGA:   9    -0.669040645564E+03   -0.86158E-05   -0.21194E-04  8424   0.146E-03 0.165E-03
CGA:  10    -0.669040641560E+03    0.40038E-05   -0.10208E-04  8424   0.128E-03 0.136E-03
   3 F= -.66904064E+03 E0= -.66904064E+03  d E =-.623289E-01  mag=     2.0000
       N       E                     dE             d eps       ncg     rms          ort
SDA:   1    -0.638252041889E+03    0.30789E+02    0.00000E+00  8424   0.794E+02 0.000E+00
CGA:   2    -0.660834985775E+03   -0.22583E+02   -0.22662E+02  8424   0.344E+02-0.459E+00
CGA:   3    -0.666809248380E+03   -0.59743E+01   -0.59718E+01  8424   0.959E+01 0.272E+00
CGA:   4    -0.668580731216E+03   -0.17715E+01   -0.17723E+01  8424   0.229E+01-0.459E-01
CGA:   5    -0.668981454840E+03   -0.40072E+00   -0.40074E+00  8424   0.588E+00-0.363E-02
CGA:   6    -0.669093779479E+03   -0.11232E+00   -0.11217E+00  8424   0.161E+00 0.741E-02
CGA:   7    -0.669136619171E+03   -0.42840E-01   -0.42811E-01  8424   0.692E-01 0.177E-03
CGA:   8    -0.669154595246E+03   -0.17976E-01   -0.17835E-01  8424   0.262E-01 0.175E-02
CGA:   9    -0.669161913684E+03   -0.73184E-02   -0.70760E-02  8424   0.939E-02 0.293E-02
CGA:  10    -0.669164974748E+03   -0.30611E-02   -0.29073E-02  8424   0.353E-02 0.165E-02
CGA:  11    -0.669165926910E+03   -0.95216E-03   -0.91097E-03  8424   0.129E-02 0.138E-02
CGA:  12    -0.669166319474E+03   -0.39256E-03   -0.37620E-03  8424   0.689E-03 0.834E-03
CGA:  13    -0.669166612018E+03   -0.29254E-03   -0.24566E-03  8424   0.497E-03 0.283E-03
CGA:  14    -0.669166837580E+03   -0.22556E-03   -0.18881E-03  8424   0.351E-03 0.529E-03
CGA:  15    -0.669167059262E+03   -0.22168E-03   -0.17029E-03  8424   0.327E-03 0.180E-03
CGA:  16    -0.669167149991E+03   -0.90729E-04   -0.83826E-04  8424   0.243E-03 0.177E-03
CGA:  17    -0.669167267297E+03   -0.11731E-03    0.27162E-03  8424   0.211E-03 0.177E-03
CGA:  18    -0.669167360705E+03   -0.93408E-04   -0.74088E-04  8424   0.240E-03 0.147E-03
CGA:  19    -0.669167489528E+03   -0.12882E-03    0.14372E-03  8424   0.216E-03 0.105E-03
CGA:  20    -0.669167645818E+03   -0.15629E-03    0.30833E-03  8424   0.192E-03 0.289E-03
CGA:  21    -0.669167690257E+03   -0.44439E-04   -0.44143E-04  8424   0.187E-03 0.815E-04
CGA:  22    -0.669167848618E+03   -0.15836E-03    0.95077E-04  8424   0.159E-03 0.249E-03
CGA:  23    -0.669167961610E+03   -0.11299E-03    0.31425E-04  8424   0.155E-03 0.686E-04
CGA:  24    -0.669168116409E+03   -0.15480E-03    0.46419E-04  8424   0.133E-03 0.209E-03
CGA:  25    -0.669168174147E+03   -0.57738E-04   -0.68561E-04  8424   0.583E-03-0.389E-04
CGA:  26    -0.669168533089E+03   -0.35894E-03    0.61809E-04  8424   0.989E-03 0.311E-03
CGA:  27    -0.669168762926E+03   -0.22984E-03   -0.20153E-03  8424   0.830E-03-0.765E-03
CGA:  28    -0.669168818663E+03   -0.55737E-04   -0.77633E-04  8424   0.748E-04 0.151E-03
CGA:  29    -0.669168869030E+03   -0.50367E-04    0.44739E-04  8424   0.153E-03 0.155E-04
CGA:  30    -0.669169105228E+03   -0.23620E-03    0.12232E-04  8424   0.256E-03 0.165E-03
CGA:  31    -0.669169248275E+03   -0.14305E-03    0.14463E-03  8424   0.364E-03-0.190E-03
CGA:  32    -0.669169275265E+03   -0.26990E-04   -0.35883E-04  8424   0.558E-04 0.668E-04
CGA:  33    -0.669169342270E+03   -0.67006E-04    0.59150E-05  8424   0.100E-03 0.403E-04
CGA:  34    -0.669169451656E+03   -0.10939E-03    0.78828E-05  8424   0.125E-03-0.411E-05
CGA:  35    -0.669169627672E+03   -0.17602E-03    0.59629E-05  8424   0.121E-03 0.117E-03
CGA:  36    -0.669169656360E+03   -0.28688E-04   -0.29809E-04  8424   0.204E-03-0.542E-04
CGA:  37    -0.669169843205E+03   -0.18684E-03    0.47686E-05  8424   0.313E-03 0.102E-03
CGA:  38    -0.669169992297E+03   -0.14909E-03    0.65174E-03  8424   0.473E-03-0.288E-03
CGA:  39    -0.669170022596E+03   -0.30299E-04   -0.42339E-04  8424   0.508E-04 0.883E-04
CGA:  40    -0.669170078609E+03   -0.56013E-04    0.59239E-05  8424   0.102E-03 0.193E-04
CGA:  41    -0.669170310828E+03   -0.23222E-03    0.55478E-05  8424   0.140E-03 0.134E-03
CGA:  42    -0.669170436076E+03   -0.12525E-03    0.14772E-04  8424   0.184E-03-0.719E-04
CGA:  43    -0.669170456141E+03   -0.20065E-04   -0.21689E-04  8424   0.486E-04 0.159E-04
CGA:  44    -0.669170543224E+03   -0.87083E-04    0.19870E-05  8424   0.595E-04 0.507E-04
CGA:  45    -0.669170639555E+03   -0.96331E-04    0.22942E-05  8424   0.632E-04 0.238E-04
CGA:  46    -0.669170792042E+03   -0.15249E-03    0.31323E-05  8424   0.579E-04 0.873E-04
CGA:  47    -0.669170842294E+03   -0.50252E-04    0.60375E-05  8424   0.622E-04 0.225E-04
CGA:  48    -0.669170997284E+03   -0.15499E-03    0.29045E-05  8424   0.569E-04 0.852E-04
CGA:  49    -0.669171095169E+03   -0.97885E-04    0.20220E-05  8424   0.603E-04 0.218E-04
CGA:  50    -0.669171247403E+03   -0.15223E-03    0.27353E-05  8424   0.558E-04 0.821E-04
CGA:  51    -0.669171296814E+03   -0.49412E-04    0.55923E-05  8424   0.583E-04 0.214E-04
CGA:  52    -0.669171449664E+03   -0.15285E-03    0.25152E-05  8424   0.547E-04 0.792E-04
CGA:  53    -0.669171547944E+03   -0.98280E-04    0.18306E-05  8424   0.551E-04 0.217E-04
CGA:  54    -0.669171695684E+03   -0.14774E-03    0.23731E-05  8424   0.530E-04 0.754E-04
CGA:  55    -0.669171747210E+03   -0.51526E-04    0.44784E-05  8424   0.509E-04 0.232E-04
CGA:  56    -0.669171893585E+03   -0.14637E-03    0.21315E-05  8424   0.509E-04 0.712E-04
CGA:  57    -0.669171988406E+03   -0.94821E-04    0.16253E-05  8424   0.460E-04 0.255E-04
CGA:  58    -0.669172043032E+03   -0.54625E-04    0.27831E-05  8424   0.447E-04 0.276E-04
CGA:  59    -0.669172135949E+03   -0.92917E-04    0.12408E-05  8424   0.446E-04 0.277E-04
CGA:  60    -0.669172191180E+03   -0.55231E-04    0.25262E-05  8424   0.452E-04 0.270E-04
CGA:  61    -0.669172283949E+03   -0.92769E-04    0.12777E-05  8424   0.464E-04 0.256E-04
CGA:  62    -0.669172338317E+03   -0.54368E-04    0.28599E-05  8424   0.482E-04 0.237E-04
CGA:  63    -0.669172432342E+03   -0.94025E-04    0.14498E-05  8424   0.507E-04 0.212E-04
CGA:  64    -0.669172584556E+03   -0.15221E-03    0.20207E-05  8424   0.474E-04 0.724E-04
CGA:  65    -0.669172637063E+03   -0.52508E-04    0.31943E-05  8424   0.502E-04 0.206E-04
CGA:  66    -0.669172789862E+03   -0.15280E-03    0.19499E-05  8424   0.466E-04 0.715E-04
CGA:  67    -0.669172885255E+03   -0.95393E-04    0.13205E-05  8424   0.498E-04 0.200E-04
CGA:  68    -0.669173038244E+03   -0.15299E-03    0.18979E-05  8424   0.460E-04 0.706E-04
CGA:  69    -0.669173088953E+03   -0.50709E-04    0.31281E-05  8424   0.493E-04 0.195E-04
CGA:  70    -0.669173242663E+03   -0.15371E-03    0.18247E-05  8424   0.454E-04 0.696E-04
CGA:  71    -0.669173339510E+03   -0.96847E-04    0.12220E-05  8424   0.489E-04 0.189E-04
CGA:  72    -0.669173492484E+03   -0.15297E-03    0.17833E-05  8424   0.450E-04 0.687E-04
CGA:  73    -0.669173541248E+03   -0.48763E-04    0.31454E-05  8424   0.484E-04 0.183E-04
CGA:  74    -0.669173694990E+03   -0.15374E-03    0.17074E-05  8424   0.446E-04 0.675E-04
CGA:  75    -0.669173793353E+03   -0.98364E-04    0.11497E-05  8424   0.479E-04 0.178E-04
CGA:  76    -0.669173945482E+03   -0.15213E-03    0.16696E-05  8424   0.443E-04 0.664E-04
CGA:  77    -0.669173992414E+03   -0.46932E-04    0.32185E-05  8424   0.471E-04 0.174E-04
CGA:  78    -0.669174144764E+03   -0.15235E-03    0.15891E-05  8424   0.440E-04 0.650E-04
CGA:  79    -0.669174244275E+03   -0.99510E-04    0.10983E-05  8424   0.461E-04 0.171E-04
CGA:  80    -0.669174393731E+03   -0.14946E-03    0.15441E-05  8424   0.436E-04 0.633E-04
CGA:  81    -0.669174439987E+03   -0.46256E-04    0.31537E-05  8424   0.444E-04 0.173E-04
CGA:  82    -0.669174588238E+03   -0.14825E-03    0.14518E-05  8424   0.428E-04 0.612E-04
CGA:  83    -0.669174687030E+03   -0.98792E-04    0.10454E-05  8424   0.420E-04 0.181E-04
CGA:  84    -0.669174830510E+03   -0.14348E-03    0.13903E-05  8424   0.417E-04 0.587E-04
CGA:  85    -0.669174879459E+03   -0.48948E-04    0.25707E-05  8424   0.389E-04 0.196E-04
CGA:  86    -0.669175020076E+03   -0.14062E-03    0.12895E-05  8424   0.402E-04 0.559E-04
CGA:  87    -0.669175114364E+03   -0.94288E-04    0.96412E-06  8424   0.358E-04 0.213E-04
CGA:  88    -0.669175167954E+03   -0.53590E-04    0.15346E-05  8424   0.341E-04 0.238E-04
CGA:  89    -0.669175257559E+03   -0.89605E-04    0.71047E-06  8424   0.334E-04 0.246E-04
CGA:  90    -0.669175313925E+03   -0.56366E-04    0.12166E-05  8424   0.332E-04 0.248E-04
CGA:  91    -0.669175401532E+03   -0.87607E-04    0.68795E-06  8424   0.333E-04 0.246E-04
CGA:  92    -0.669175458597E+03   -0.57065E-04    0.11856E-05  8424   0.336E-04 0.242E-04
CGA:  93    -0.669175546103E+03   -0.87506E-04    0.70887E-06  8424   0.342E-04 0.234E-04
CGA:  94    -0.669175602237E+03   -0.56134E-04    0.12972E-05  8424   0.352E-04 0.224E-04
CGA:  95    -0.669175690947E+03   -0.88710E-04    0.77162E-06  8424   0.366E-04 0.211E-04
CGA:  96    -0.669175744938E+03   -0.53991E-04    0.15997E-05  8424   0.384E-04 0.192E-04
CGA:  97    -0.669175835849E+03   -0.90910E-04    0.91045E-06  8424   0.410E-04 0.168E-04
CGA:  98    -0.669175984720E+03   -0.14887E-03    0.12894E-05  8424   0.381E-04 0.586E-04
CGA:  99    -0.669176036177E+03   -0.51458E-04    0.18939E-05  8424   0.407E-04 0.165E-04
CGA: 100    -0.669176185378E+03   -0.14920E-03    0.12554E-05  8424   0.377E-04 0.580E-04
CGA: 101    -0.669176277531E+03   -0.92153E-04    0.85880E-06  8424   0.406E-04 0.161E-04
CGA: 102    -0.669176426148E+03   -0.14862E-03    0.12408E-05  8424   0.375E-04 0.575E-04
CGA: 103    -0.669176475585E+03   -0.49437E-04    0.19283E-05  8424   0.403E-04 0.157E-04
CGA: 104    -0.669176624703E+03   -0.14912E-03    0.12048E-05  8424   0.372E-04 0.569E-04
CGA: 105    -0.669176718124E+03   -0.93421E-04    0.82004E-06  8424   0.402E-04 0.153E-04
CGA: 106    -0.669176866103E+03   -0.14798E-03    0.11919E-05  8424   0.371E-04 0.564E-04
CGA: 107    -0.669176913361E+03   -0.47258E-04    0.20117E-05  8424   0.400E-04 0.148E-04
CGA: 108    -0.669177061842E+03   -0.14848E-03    0.11546E-05  8424   0.370E-04 0.556E-04
CGA: 109    -0.669177156749E+03   -0.94907E-04    0.79407E-06  8424   0.399E-04 0.143E-04
CGA: 110    -0.669177303746E+03   -0.14700E-03    0.11406E-05  8424   0.370E-04 0.550E-04
CGA: 111    -0.669177348605E+03   -0.44858E-04    0.21687E-05  8424   0.397E-04 0.139E-04
CGA: 112    -0.669177495670E+03   -0.14707E-03    0.11035E-05  8424   0.371E-04 0.542E-04
CGA: 113    -0.669177592280E+03   -0.96610E-04    0.78103E-06  8424   0.395E-04 0.133E-04
CGA: 114    -0.669177737628E+03   -0.14535E-03    0.10838E-05  8424   0.372E-04 0.534E-04
CGA: 115    -0.669177780088E+03   -0.42459E-04    0.23931E-05  8424   0.391E-04 0.130E-04
CGA: 116    -0.669177924440E+03   -0.14435E-03    0.10469E-05  8424   0.372E-04 0.523E-04
CGA: 117    -0.669178022517E+03   -0.98077E-04    0.77323E-06  8424   0.384E-04 0.128E-04
CGA: 118    -0.669178164767E+03   -0.14225E-03    0.10166E-05  8424   0.371E-04 0.511E-04
CGA: 119    -0.669178205857E+03   -0.41090E-04    0.25015E-05  8424   0.372E-04 0.130E-04
CGA: 120    -0.669178345525E+03   -0.13967E-03    0.97826E-06  8424   0.365E-04 0.496E-04
CGA: 121    -0.669178443374E+03   -0.97848E-04    0.74533E-06  8424   0.355E-04 0.136E-04
CGA: 122    -0.669178580556E+03   -0.13718E-03    0.93595E-06  8424   0.357E-04 0.480E-04
CGA: 123    -0.669178623073E+03   -0.42516E-04    0.21401E-05  8424   0.333E-04 0.148E-04
CGA: 124    -0.669178756310E+03   -0.13324E-03    0.90076E-06  8424   0.344E-04 0.464E-04
CGA: 125    -0.669178850868E+03   -0.94558E-04    0.68054E-06  8424   0.311E-04 0.162E-04
CGA: 126    -0.669178983033E+03   -0.13216E-03    0.85113E-06  8424   0.331E-04 0.449E-04
CGA: 127    -0.669179029432E+03   -0.46399E-04    0.15635E-05  8424   0.292E-04 0.175E-04
CGA: 128    -0.669179116903E+03   -0.87471E-04    0.52002E-06  8424   0.273E-04 0.199E-04
CGA: 129    -0.669179170460E+03   -0.53557E-04    0.81737E-06  8424   0.263E-04 0.211E-04
CGA: 130    -0.669179252059E+03   -0.81599E-04    0.45061E-06  8424   0.257E-04 0.217E-04
CGA: 131    -0.669179309342E+03   -0.57283E-04    0.65677E-06  8424   0.254E-04 0.220E-04
CGA: 132    -0.669179388370E+03   -0.79028E-04    0.43561E-06  8424   0.253E-04 0.220E-04
CGA: 133    -0.669179446820E+03   -0.58450E-04    0.61776E-06  8424   0.253E-04 0.220E-04
CGA: 134    -0.669179525316E+03   -0.78496E-04    0.43474E-06  8424   0.254E-04 0.218E-04
CGA: 135    -0.669179583286E+03   -0.57970E-04    0.63121E-06  8424   0.257E-04 0.215E-04
CGA: 136    -0.669179662546E+03   -0.79259E-04    0.44371E-06  8424   0.261E-04 0.210E-04
CGA: 137    -0.669179718896E+03   -0.56350E-04    0.69170E-06  8424   0.267E-04 0.204E-04
CGA: 138    -0.669179799872E+03   -0.80976E-04    0.46941E-06  8424   0.275E-04 0.196E-04
CGA: 139    -0.669179853705E+03   -0.53833E-04    0.82511E-06  8424   0.286E-04 0.185E-04
CGA: 140    -0.669179937161E+03   -0.83456E-04    0.52752E-06  8424   0.301E-04 0.170E-04
CGA: 141    -0.669179987721E+03   -0.50560E-04    0.11048E-05  8424   0.321E-04 0.152E-04
CGA: 142    -0.669180074287E+03   -0.86566E-04    0.64839E-06  8424   0.347E-04 0.128E-04
CGA: 143    -0.669180215455E+03   -0.14117E-03    0.89580E-06  8424   0.322E-04 0.483E-04
CGA: 144    -0.669180262883E+03   -0.47427E-04    0.14096E-05  8424   0.346E-04 0.124E-04
CGA: 145    -0.669180403950E+03   -0.14107E-03    0.87390E-06  8424   0.322E-04 0.477E-04
CGA: 146    -0.669180492109E+03   -0.88159E-04    0.64046E-06  8424   0.347E-04 0.119E-04
CGA: 147    -0.669180632302E+03   -0.14019E-03    0.86647E-06  8424   0.324E-04 0.474E-04
CGA: 148    -0.669180677169E+03   -0.44867E-04    0.15578E-05  8424   0.349E-04 0.114E-04
CGA: 149    -0.669180817153E+03   -0.13998E-03    0.84780E-06  8424   0.327E-04 0.468E-04
CGA: 150    -0.669180907192E+03   -0.90040E-04    0.64443E-06  8424   0.352E-04 0.107E-04
CGA: 151    -0.669181046416E+03   -0.13922E-03    0.83789E-06  8424   0.331E-04 0.464E-04
CGA: 152    -0.669181088277E+03   -0.41861E-04    0.18158E-05  8424   0.354E-04 0.998E-05
CGA: 153    -0.669181226849E+03   -0.13857E-03    0.82167E-06  8424   0.336E-04 0.459E-04
CGA: 154    -0.669181319294E+03   -0.92445E-04    0.66228E-06  8424   0.359E-04 0.917E-05
CGA: 155    -0.669181457245E+03   -0.13795E-03    0.80738E-06  8424   0.342E-04 0.454E-04
CGA: 156    -0.669181495689E+03   -0.38444E-04    0.22502E-05  8424   0.362E-04 0.838E-05
CGA: 157    -0.669181632184E+03   -0.13649E-03    0.79311E-06  8424   0.347E-04 0.447E-04
CGA: 158    -0.669181727277E+03   -0.95093E-04    0.68889E-06  8424   0.363E-04 0.768E-05
CGA: 159    -0.669181863029E+03   -0.13575E-03    0.77378E-06  8424   0.351E-04 0.440E-04
CGA: 160    -0.669181898461E+03   -0.35432E-04    0.27804E-05  8424   0.361E-04 0.727E-05
CGA: 161    -0.669182031860E+03   -0.13340E-03    0.75903E-06  8424   0.351E-04 0.430E-04
CGA: 162    -0.669182128528E+03   -0.96668E-04    0.69430E-06  8424   0.353E-04 0.738E-05
CGA: 163    -0.669182260403E+03   -0.13187E-03    0.73675E-06  8424   0.346E-04 0.420E-04
CGA: 164    -0.669182295216E+03   -0.34813E-04    0.27501E-05  8424   0.337E-04 0.817E-05
CGA: 165    -0.669182424358E+03   -0.12914E-03    0.71665E-06  8424   0.334E-04 0.409E-04
CGA: 166    -0.669182519304E+03   -0.94946E-04    0.63394E-06  8424   0.315E-04 0.964E-05
CGA: 167    -0.669182646112E+03   -0.12681E-03    0.69293E-06  8424   0.317E-04 0.398E-04
CGA: 168    -0.669182684191E+03   -0.38078E-04    0.18854E-05  8424   0.291E-04 0.115E-04
CGA: 169    -0.669182808471E+03   -0.12428E-03    0.67056E-06  8424   0.299E-04 0.387E-04
CGA: 170    -0.669182898297E+03   -0.89826E-04    0.53355E-06  8424   0.269E-04 0.132E-04
CGA: 171    -0.669183021494E+03   -0.12320E-03    0.64558E-06  8424   0.284E-04 0.378E-04
CGA: 172    -0.669183064449E+03   -0.42955E-04    0.11977E-05  8424   0.251E-04 0.147E-04
CGA: 173    -0.669183147625E+03   -0.83177E-04    0.39853E-06  8424   0.237E-04 0.164E-04
CGA: 174    -0.669183196360E+03   -0.48735E-04    0.66890E-06  8424   0.229E-04 0.174E-04
CGA: 175    -0.669183274600E+03   -0.78240E-04    0.35085E-06  8424   0.224E-04 0.179E-04
CGA: 176    -0.669183326602E+03   -0.52002E-04    0.54150E-06  8424   0.221E-04 0.182E-04
CGA: 177    -0.669183402318E+03   -0.75715E-04    0.33717E-06  8424   0.219E-04 0.184E-04
CGA: 178    -0.669183455682E+03   -0.53364E-04    0.50102E-06  8424   0.219E-04 0.184E-04
CGA: 179    -0.669183530449E+03   -0.74767E-04    0.33524E-06  8424   0.219E-04 0.183E-04
CGA: 180    -0.669183583893E+03   -0.53444E-04    0.49985E-06  8424   0.220E-04 0.181E-04
CGA: 181    -0.669183658748E+03   -0.74856E-04    0.34065E-06  8424   0.223E-04 0.178E-04
CGA: 182    -0.669183711388E+03   -0.52640E-04    0.52798E-06  8424   0.226E-04 0.175E-04
CGA: 183    -0.669183787061E+03   -0.75673E-04    0.35516E-06  8424   0.231E-04 0.170E-04
CGA: 184    -0.669183838248E+03   -0.51187E-04    0.59094E-06  8424   0.237E-04 0.163E-04
CGA: 185    -0.669183915284E+03   -0.77036E-04    0.38429E-06  8424   0.245E-04 0.155E-04
CGA: 186    -0.669183964507E+03   -0.49223E-04    0.70873E-06  8424   0.255E-04 0.146E-04
CGA: 187    -0.669184043346E+03   -0.78838E-04    0.43804E-06  8424   0.267E-04 0.133E-04
CGA: 188    -0.669184090156E+03   -0.46810E-04    0.92830E-06  8424   0.283E-04 0.118E-04
CGA: 189    -0.669184221494E+03   -0.13134E-03    0.67248E-06  8424   0.266E-04 0.407E-04
CGA: 190    -0.669184301787E+03   -0.80294E-04    0.47197E-06  8424   0.281E-04 0.117E-04
CGA: 191    -0.669184431920E+03   -0.13013E-03    0.66620E-06  8424   0.265E-04 0.403E-04
CGA: 192    -0.669184477108E+03   -0.45188E-04    0.95113E-06  8424   0.280E-04 0.115E-04
CGA: 193    -0.669184607259E+03   -0.13015E-03    0.65455E-06  8424   0.264E-04 0.400E-04
CGA: 194    -0.669184688242E+03   -0.80982E-04    0.45780E-06  8424   0.278E-04 0.114E-04
CGA: 195    -0.669184817230E+03   -0.12899E-03    0.64847E-06  8424   0.263E-04 0.396E-04
CGA: 196    -0.669184860891E+03   -0.43661E-04    0.97638E-06  8424   0.276E-04 0.113E-04
CGA: 197    -0.669184989728E+03   -0.12884E-03    0.63621E-06  8424   0.262E-04 0.393E-04
CGA: 198    -0.669185071375E+03   -0.81647E-04    0.44561E-06  8424   0.274E-04 0.111E-04
CGA: 199    -0.669185199058E+03   -0.12768E-03    0.62959E-06  8424   0.261E-04 0.389E-04
CGA: 200    -0.669185241228E+03   -0.42170E-04    0.10053E-05  8424   0.271E-04 0.110E-04
   4 F= -.66918524E+03 E0= -.66918524E+03  d E =-.144600E+00  mag=     2.0000
       N       E                     dE             d eps       ncg     rms          ort
SDA:   1    -0.666399594919E+03    0.27856E+01    0.00000E+00  8424   0.835E+01 0.000E+00
CGA:   2    -0.668326838444E+03   -0.19272E+01   -0.19271E+01  8424   0.374E+01 0.388E-02
CGA:   3    -0.669063050035E+03   -0.73621E+00   -0.73632E+00  8424   0.107E+01 0.575E-02
CGA:   4    -0.669241886658E+03   -0.17884E+00   -0.17895E+00  8424   0.270E+00 0.210E-02
CGA:   5    -0.669288477604E+03   -0.46591E-01   -0.46594E-01  8424   0.542E-01 0.508E-04
CGA:   6    -0.669299124584E+03   -0.10647E-01   -0.10650E-01  8424   0.125E-01 0.209E-03
CGA:   7    -0.669302002496E+03   -0.28779E-02   -0.28760E-02  8424   0.395E-02 0.896E-04
CGA:   8    -0.669303005791E+03   -0.10033E-02   -0.99953E-03  8424   0.133E-02 0.904E-04
CGA:   9    -0.669303434260E+03   -0.42847E-03   -0.45890E-03  8424   0.720E-03-0.247E-03
CGA:  10    -0.669301677095E+03    0.17572E-02   -0.95381E-03  8424   0.110E-01-0.217E-02
CGA:  11    -0.669303622698E+03   -0.19456E-02   -0.19640E-02  8424   0.146E-02 0.830E-04
CGA:  12    -0.669304126515E+03   -0.50382E-03   -0.50102E-03  8424   0.594E-03-0.616E-04
CGA:  13    -0.669304320568E+03   -0.19405E-03   -0.19267E-03  8424   0.379E-03-0.303E-04
CGA:  14    -0.669304429516E+03   -0.10895E-03   -0.23860E-03  8424   0.142E-02-0.463E-03
CGA:  15    -0.669304588822E+03   -0.15931E-03   -0.18649E-03  8424   0.169E-03 0.103E-03
CGA:  16    -0.669304648547E+03   -0.59725E-04   -0.13011E-03  8424   0.552E-03-0.212E-03
CGA:  17    -0.669304769696E+03   -0.12115E-03   -0.12329E-03  8424   0.977E-04 0.119E-04
CGA:  18    -0.669304869717E+03   -0.10002E-03    0.69549E-04  8424   0.237E-03-0.796E-04
CGA:  19    -0.669304878296E+03   -0.85790E-05   -0.24840E-04  8424   0.388E-04 0.568E-04
CGA:  20    -0.669304896678E+03   -0.18382E-04   -0.30840E-04  8424   0.332E-03-0.479E-04
CGA:  21    -0.669305017800E+03   -0.12112E-03   -0.80422E-04  8424   0.388E-03-0.275E-03
CGA:  22    -0.669305032331E+03   -0.14531E-04   -0.36568E-04  8424   0.328E-04 0.766E-04
CGA:  23    -0.669305043157E+03   -0.10826E-04   -0.10192E-04  8424   0.829E-04-0.609E-05
CGA:  24    -0.669305175004E+03   -0.13185E-03    0.72590E-05  8424   0.374E-03 0.232E-04
CGA:  25    -0.669306117592E+03   -0.94259E-03    0.50772E-04  8424   0.215E-03 0.298E-03
CGA:  26    -0.669306197011E+03   -0.79419E-04   -0.91076E-04  8424   0.486E-03-0.191E-03
CGA:  27    -0.669306254695E+03   -0.57684E-04   -0.60589E-04  8424   0.270E-04 0.120E-04
CGA:  28    -0.669306317229E+03   -0.62534E-04    0.22285E-05  8424   0.288E-04 0.147E-04
CGA:  29    -0.669306358773E+03   -0.41544E-04    0.49258E-05  8424   0.355E-04 0.782E-05
CGA:  30    -0.669306479721E+03   -0.12095E-03    0.28722E-05  8424   0.316E-04 0.419E-04
CGA:  31    -0.669306534382E+03   -0.54662E-04    0.38622E-05  8424   0.306E-04 0.758E-05
CGA:  32    -0.669306638213E+03   -0.10383E-03    0.23390E-05  8424   0.300E-04 0.354E-04
CGA:  33    -0.669306689510E+03   -0.51297E-04    0.37503E-05  8424   0.248E-04 0.112E-04
CGA:  34    -0.669306786650E+03   -0.97139E-04    0.19825E-05  8424   0.260E-04 0.316E-04
CGA:  35    -0.669306841884E+03   -0.55234E-04    0.22944E-05  8424   0.209E-04 0.146E-04
CGA:  36    -0.669306896537E+03   -0.54653E-04    0.13737E-05  8424   0.196E-04 0.161E-04
CGA:  37    -0.669306949171E+03   -0.52635E-04    0.12390E-05  8424   0.188E-04 0.169E-04
CGA:  38    -0.669307005363E+03   -0.56192E-04    0.10389E-05  8424   0.185E-04 0.171E-04
CGA:  39    -0.669307056225E+03   -0.50861E-04    0.11384E-05  8424   0.186E-04 0.171E-04
CGA:  40    -0.669307115983E+03   -0.59758E-04    0.92886E-06  8424   0.194E-04 0.165E-04
CGA:  41    -0.669307161303E+03   -0.45320E-04    0.14911E-05  8424   0.224E-04 0.147E-04
CGA:  42    -0.669307230262E+03   -0.68959E-04    0.11814E-05  8424   0.330E-04 0.892E-05
CGA:  43    -0.669307363162E+03   -0.13290E-03    0.26579E-05  8424   0.208E-04 0.439E-04
CGA:  44    -0.669307405490E+03   -0.42327E-04    0.19746E-05  8424   0.280E-04 0.109E-04
CGA:  45    -0.669307479248E+03   -0.73758E-04    0.18225E-05  8424   0.557E-04-0.330E-05
CGA:  46    -0.669307644564E+03   -0.16532E-03    0.23182E-05  8424   0.666E-04 0.468E-04
CGA:  47    -0.669307656422E+03   -0.11858E-04   -0.11485E-04  8424   0.252E-04-0.214E-05
CGA:  48    -0.669307735284E+03   -0.78861E-04    0.11362E-05  8424   0.232E-04 0.210E-04
CGA:  49    -0.669307794872E+03   -0.59588E-04    0.14721E-05  8424   0.280E-04 0.753E-05
CGA:  50    -0.669307911435E+03   -0.11656E-03    0.17985E-05  8424   0.254E-04 0.349E-04
CGA:  51    -0.669307969130E+03   -0.57695E-04    0.19045E-05  8424   0.246E-04 0.685E-05
CGA:  52    -0.669308075595E+03   -0.10646E-03    0.13657E-05  8424   0.250E-04 0.308E-04
CGA:  53    -0.669308130742E+03   -0.55148E-04    0.19536E-05  8424   0.214E-04 0.834E-05
CGA:  54    -0.669308232769E+03   -0.10203E-03    0.11748E-05  8424   0.231E-04 0.280E-04
CGA:  55    -0.669308288966E+03   -0.56197E-04    0.15698E-05  8424   0.187E-04 0.103E-04
CGA:  56    -0.669308387935E+03   -0.98969E-04    0.10860E-05  8424   0.213E-04 0.264E-04
CGA:  57    -0.669308444087E+03   -0.56152E-04    0.12950E-05  8424   0.171E-04 0.116E-04
CGA:  58    -0.669308499582E+03   -0.55495E-04    0.79339E-06  8424   0.156E-04 0.138E-04
CGA:  59    -0.669308554755E+03   -0.55173E-04    0.65412E-06  8424   0.151E-04 0.145E-04
CGA:  60    -0.669308610383E+03   -0.55628E-04    0.60190E-06  8424   0.149E-04 0.146E-04
CGA:  61    -0.669308665684E+03   -0.55301E-04    0.58747E-06  8424   0.148E-04 0.146E-04
CGA:  62    -0.669308721604E+03   -0.55920E-04    0.56923E-06  8424   0.147E-04 0.146E-04
CGA:  63    -0.669308777060E+03   -0.55456E-04    0.56800E-06  8424   0.147E-04 0.145E-04
CGA:  64    -0.669308833318E+03   -0.56258E-04    0.55379E-06  8424   0.147E-04 0.144E-04
CGA:  65    -0.669308888636E+03   -0.55317E-04    0.56662E-06  8424   0.149E-04 0.142E-04
CGA:  66    -0.669308945478E+03   -0.56842E-04    0.56811E-06  8424   0.160E-04 0.135E-04
CGA:  67    -0.669308999436E+03   -0.53959E-04    0.70547E-06  8424   0.200E-04 0.113E-04
CGA:  68    -0.669309056256E+03   -0.56819E-04    0.11106E-05  8424   0.358E-04 0.309E-05
CGA:  69    -0.669309214894E+03   -0.15864E-03    0.15656E-05  8424   0.265E-04 0.404E-04
CGA:  70    -0.669309260657E+03   -0.45763E-04    0.30404E-05  8424   0.610E-04-0.102E-04
CGA:  71    -0.669309434877E+03   -0.17422E-03    0.11310E-05  8424   0.123E-03 0.315E-04
CGA:  72    -0.669309476058E+03   -0.41181E-04   -0.44418E-04  8424   0.487E-03-0.212E-03
CGA:  73    -0.669309535791E+03   -0.59732E-04   -0.58445E-04  8424   0.154E-04-0.582E-05
CGA:  74    -0.669309586366E+03   -0.50575E-04    0.63798E-06  8424   0.156E-04 0.123E-04
CGA:  75    -0.669309651502E+03   -0.65136E-04    0.50055E-06  8424   0.181E-04 0.101E-04
CGA:  76    -0.669309685896E+03   -0.34394E-04    0.16454E-05  8424   0.249E-04 0.592E-05
CGA:  77    -0.669309822127E+03   -0.13623E-03    0.10669E-05  8424   0.194E-04 0.311E-04
CGA:  78    -0.669309890640E+03   -0.68513E-04    0.75967E-06  8424   0.218E-04 0.552E-05
CGA:  79    -0.669310000677E+03   -0.11004E-03    0.95592E-06  8424   0.205E-04 0.268E-04
CGA:  80    -0.669310047008E+03   -0.46331E-04    0.14333E-05  8424   0.188E-04 0.595E-05
CGA:  81    -0.669310153172E+03   -0.10616E-03    0.73480E-06  8424   0.194E-04 0.235E-04
CGA:  82    -0.669310212602E+03   -0.59430E-04    0.91115E-06  8424   0.159E-04 0.776E-05
CGA:  83    -0.669310309424E+03   -0.96822E-04    0.67675E-06  8424   0.177E-04 0.216E-04
CGA:  84    -0.669310361626E+03   -0.52202E-04    0.86538E-06  8424   0.141E-04 0.931E-05
CGA:  85    -0.669310418063E+03   -0.56437E-04    0.47229E-06  8424   0.129E-04 0.111E-04
CGA:  86    -0.669310469637E+03   -0.51574E-04    0.43157E-06  8424   0.124E-04 0.117E-04
CGA:  87    -0.669310525925E+03   -0.56288E-04    0.36112E-06  8424   0.123E-04 0.119E-04
CGA:  88    -0.669310577359E+03   -0.51434E-04    0.39017E-06  8424   0.122E-04 0.119E-04
CGA:  89    -0.669310634305E+03   -0.56946E-04    0.34210E-06  8424   0.122E-04 0.118E-04
CGA:  90    -0.669310684601E+03   -0.50296E-04    0.39650E-06  8424   0.123E-04 0.116E-04
CGA:  91    -0.669310743590E+03   -0.58988E-04    0.33487E-06  8424   0.126E-04 0.113E-04
CGA:  92    -0.669310790520E+03   -0.46930E-04    0.46382E-06  8424   0.134E-04 0.107E-04
CGA:  93    -0.669310853879E+03   -0.63360E-04    0.36618E-06  8424   0.149E-04 0.952E-05
CGA:  94    -0.669310893950E+03   -0.40071E-04    0.82768E-06  8424   0.183E-04 0.708E-05
CGA:  95    -0.669311016643E+03   -0.12269E-03    0.77952E-06  8424   0.143E-04 0.264E-04
CGA:  96    -0.669311083677E+03   -0.67034E-04    0.39665E-06  8424   0.167E-04 0.768E-05
CGA:  97    -0.669311118449E+03   -0.34772E-04    0.13118E-05  8424   0.211E-04 0.431E-05
CGA:  98    -0.669311241460E+03   -0.12301E-03    0.74758E-06  8424   0.180E-04 0.261E-04
CGA:  99    -0.669311315999E+03   -0.74538E-04    0.57959E-06  8424   0.226E-04 0.240E-05
CGA: 100    -0.669311436928E+03   -0.12093E-03    0.70673E-06  8424   0.209E-04 0.253E-04
CGA: 101    -0.669311462839E+03   -0.25911E-04    0.41041E-05  8424   0.258E-04-0.115E-05
CGA: 102    -0.669311580865E+03   -0.11803E-03    0.65623E-06  8424   0.264E-04 0.241E-04
CGA: 103    -0.669311666539E+03   -0.85673E-04    0.11449E-05  8424   0.316E-04-0.723E-05
CGA: 104    -0.669311785042E+03   -0.11850E-03    0.57146E-06  8424   0.350E-04 0.224E-04
CGA: 105    -0.669311796004E+03   -0.10961E-04   -0.10621E-04  8424   0.303E-04-0.112E-04
CGA: 106    -0.669311895037E+03   -0.99033E-04    0.54964E-06  8424   0.274E-04 0.199E-04
CGA: 107    -0.669311981799E+03   -0.86762E-04    0.12183E-05  8424   0.278E-04-0.661E-05
CGA: 108    -0.669312087583E+03   -0.10578E-03    0.53831E-06  8424   0.277E-04 0.204E-04
CGA: 109    -0.669311806179E+03    0.28140E-03   -0.15184E-03  8424   0.234E-02-0.192E-03
CGA: 110    -0.669312467408E+03   -0.66123E-03   -0.48109E-03  8424   0.117E-03-0.454E-03
CGA: 111    -0.669312482389E+03   -0.14982E-04   -0.19809E-04  8424   0.110E-04 0.127E-04
CGA: 112    -0.669312555543E+03   -0.73154E-04    0.80183E-06  8424   0.235E-04 0.577E-05
CGA: 113    -0.669312696192E+03   -0.14065E-03    0.15678E-05  8424   0.833E-04-0.218E-04
CGA: 114    -0.669312694283E+03    0.19089E-05   -0.10586E-04  8424   0.145E-04 0.283E-04
CGA: 115    -0.669312717837E+03   -0.23554E-04    0.48200E-04  8424   0.102E-03-0.237E-04
CGA: 116    -0.669312901360E+03   -0.18352E-03    0.42300E-04  8424   0.466E-03-0.195E-03
CGA: 117    -0.669312909726E+03   -0.83657E-05   -0.59289E-04  8424   0.374E-04 0.122E-03
   5 F= -.66931291E+03 E0= -.66931291E+03  d E =-.127668E+00  mag=     2.0000
       N       E                     dE             d eps       ncg     rms          ort
SDA:   1    -0.669134893702E+03    0.17801E+00    0.00000E+00  8424   0.548E+00 0.000E+00
CGA:   2    -0.669256587532E+03   -0.12169E+00   -0.12185E+00  8424   0.248E+00 0.355E-03
CGA:   3    -0.669306459570E+03   -0.49872E-01   -0.49816E-01  8424   0.736E-01-0.165E-03
CGA:   4    -0.669318544553E+03   -0.12085E-01   -0.12064E-01  8424   0.175E-01-0.811E-04
CGA:   5    -0.669321617781E+03   -0.30732E-02   -0.30354E-02  8424   0.372E-02-0.135E-03
CGA:   6    -0.669322433172E+03   -0.81539E-03   -0.76996E-03  8424   0.986E-03-0.192E-03
CGA:   7    -0.669322682097E+03   -0.24892E-03   -0.23107E-03  8424   0.364E-03-0.959E-04
CGA:   8    -0.669322820056E+03   -0.13796E-03   -0.13485E-03  8424   0.444E-03-0.226E-03
CGA:   9    -0.669322923211E+03   -0.10316E-03   -0.85386E-04  8424   0.120E-03-0.770E-04
CGA:  10    -0.669323049975E+03   -0.12676E-03    0.36808E-04  8424   0.104E-03-0.369E-04
CGA:  11    -0.669323224055E+03   -0.17408E-03    0.76647E-05  8424   0.723E-04 0.689E-05
CGA:  12    -0.669323450968E+03   -0.22691E-03    0.61923E-05  8424   0.635E-04 0.205E-04
CGA:  13    -0.669323708753E+03   -0.25778E-03    0.59275E-05  8424   0.702E-04 0.208E-04
CGA:  14    -0.669324117934E+03   -0.40918E-03    0.44395E-05  8424   0.688E-04 0.379E-04
CGA:  15    -0.669324175009E+03   -0.57075E-04    0.24448E-02  8424   0.134E-03-0.389E-04
CGA:  16    -0.669323443139E+03    0.73187E-03   -0.16504E-03  8424   0.109E-01-0.109E-02
CGA:  17    -0.669324470785E+03   -0.10276E-02   -0.11607E-02  8424   0.142E-03 0.457E-03
CGA:  18    -0.669324528643E+03   -0.57859E-04   -0.49605E-04  8424   0.114E-03-0.823E-04
CGA:  19    -0.669324636455E+03   -0.10781E-03    0.24030E-03  8424   0.503E-03-0.189E-03
CGA:  20    -0.669324671140E+03   -0.34685E-04   -0.53876E-04  8424   0.258E-04 0.600E-04
CGA:  21    -0.669324736562E+03   -0.65422E-04    0.34508E-05  8424   0.712E-04-0.144E-04
CGA:  22    -0.669324847848E+03   -0.11129E-03    0.16739E-04  8424   0.280E-03-0.105E-03
CGA:  23    -0.669324867320E+03   -0.19472E-04   -0.31029E-04  8424   0.188E-04 0.383E-04
CGA:  24    -0.669324933876E+03   -0.66556E-04    0.14780E-05  8424   0.509E-04-0.416E-05
CGA:  25    -0.669325229020E+03   -0.29514E-03    0.95336E-06  8424   0.155E-03 0.827E-05
CGA:  26    -0.669326298676E+03   -0.10697E-02    0.56021E-05  8424   0.290E-03 0.885E-04
CGA:  27    -0.669326332926E+03   -0.34250E-04   -0.42103E-04  8424   0.302E-04 0.310E-04
CGA:  28    -0.669326420710E+03   -0.87785E-04    0.27038E-05  8424   0.381E-04-0.117E-04
CGA:  29    -0.669326595760E+03   -0.17505E-03    0.51910E-06  8424   0.595E-04 0.120E-04
CGA:  30    -0.669326933912E+03   -0.33815E-03    0.33005E-05  8424   0.505E-04 0.259E-04
CGA:  31    -0.669327311612E+03   -0.37770E-03    0.24445E-05  8424   0.332E-04 0.505E-04
CGA:  32    -0.669327389172E+03   -0.77560E-04    0.31840E-05  8424   0.193E-04-0.257E-05
CGA:  33    -0.669327498277E+03   -0.10910E-03    0.49704E-06  8424   0.170E-04 0.160E-04
CGA:  34    -0.669327571985E+03   -0.73708E-04    0.71003E-06  8424   0.122E-04 0.642E-05
CGA:  35    -0.669327688775E+03   -0.11679E-03    0.41134E-06  8424   0.143E-04 0.156E-04
CGA:  36    -0.669327761114E+03   -0.72339E-04    0.49915E-06  8424   0.110E-04 0.766E-05
CGA:  37    -0.669327826751E+03   -0.65638E-04    0.31536E-06  8424   0.107E-04 0.879E-05
CGA:  38    -0.669327900662E+03   -0.73910E-04    0.26081E-06  8424   0.118E-04 0.827E-05
CGA:  39    -0.669327960405E+03   -0.59743E-04    0.41540E-06  8424   0.159E-04 0.595E-05
CGA:  40    -0.669328041261E+03   -0.80856E-04    0.55237E-06  8424   0.294E-04-0.149E-05
CGA:  41    -0.669328238646E+03   -0.19739E-03    0.60272E-06  8424   0.332E-04 0.263E-04
CGA:  42    -0.669328270552E+03   -0.31906E-04    0.26561E-04  8424   0.959E-04-0.353E-04
CGA:  43    -0.669328356584E+03   -0.86032E-04    0.11621E-03  8424   0.351E-03-0.160E-03
CGA:  44    -0.669328390771E+03   -0.34188E-04   -0.42013E-04  8424   0.106E-04 0.299E-04
CGA:  45    -0.669328446413E+03   -0.55642E-04    0.39060E-06  8424   0.248E-04 0.300E-05
CGA:  46    -0.669328668179E+03   -0.22177E-03    0.71375E-06  8424   0.234E-04 0.311E-04
CGA:  47    -0.669328750571E+03   -0.82392E-04    0.11798E-05  8424   0.743E-04-0.210E-04
CGA:  48    -0.669328764363E+03   -0.13792E-04   -0.11319E-04  8424   0.154E-04-0.112E-04
CGA:  49    -0.669328844297E+03   -0.79933E-04    0.31786E-06  8424   0.925E-05 0.104E-04
CGA:  50    -0.669328907763E+03   -0.63467E-04    0.19798E-06  8424   0.986E-05 0.828E-05
CGA:  51    -0.669328967162E+03   -0.59399E-04    0.24467E-06  8424   0.124E-04 0.693E-05
CGA:  52    -0.669329031773E+03   -0.64611E-04    0.36493E-06  8424   0.241E-04 0.140E-05
CGA:  53    -0.669329214681E+03   -0.18291E-03    0.57909E-06  8424   0.190E-04 0.254E-04
CGA:  54    -0.669329263742E+03   -0.49061E-04    0.13478E-05  8424   0.418E-04-0.958E-05
CGA:  55    -0.669329329610E+03   -0.65868E-04    0.64362E-05  8424   0.136E-03-0.552E-04
CGA:  56    -0.669329357401E+03   -0.27791E-04   -0.21215E-04  8424   0.233E-04-0.319E-04
CGA:  57    -0.669329426765E+03   -0.69364E-04    0.69598E-06  8424   0.182E-04 0.337E-05
CGA:  58    -0.669329546691E+03   -0.11993E-03    0.51151E-06  8424   0.113E-04 0.136E-04
CGA:  59    -0.669329591354E+03   -0.44662E-04    0.42803E-06  8424   0.194E-04 0.264E-05
CGA:  60    -0.669329753566E+03   -0.16221E-03    0.49145E-06  8424   0.136E-04 0.225E-04
CGA:  61    -0.669329826435E+03   -0.72869E-04    0.36037E-06  8424   0.214E-04-0.263E-06
CGA:  62    -0.669329971096E+03   -0.14466E-03    0.41855E-06  8424   0.222E-04 0.192E-04
CGA:  63    -0.669330008776E+03   -0.37680E-04    0.27821E-05  8424   0.289E-04-0.935E-05
CGA:  64    -0.669330143074E+03   -0.13430E-03    0.28283E-06  8424   0.365E-04 0.142E-04
CGA:  65    -0.669330388663E+03   -0.24559E-03    0.17788E-05  8424   0.294E-04 0.111E-04
CGA:  66    -0.669330605706E+03   -0.21704E-03    0.96311E-06  8424   0.233E-04 0.270E-04
CGA:  67    -0.669330672428E+03   -0.66722E-04    0.13343E-05  8424   0.210E-04-0.681E-05
CGA:  68    -0.669330771145E+03   -0.98718E-04    0.30842E-06  8424   0.207E-04 0.121E-04
CGA:  69    -0.669330824711E+03   -0.53566E-04    0.13649E-05  8424   0.139E-04-0.213E-05
CGA:  70    -0.669330915503E+03   -0.90792E-04    0.23677E-06  8424   0.132E-04 0.117E-04
CGA:  71    -0.669330971653E+03   -0.56150E-04    0.45770E-06  8424   0.920E-05 0.374E-05
CGA:  72    -0.669331061723E+03   -0.90070E-04    0.21160E-06  8424   0.105E-04 0.113E-04
CGA:  73    -0.669331115605E+03   -0.53882E-04    0.29195E-06  8424   0.785E-05 0.536E-05
CGA:  74    -0.669331168395E+03   -0.52791E-04    0.16158E-06  8424   0.724E-05 0.650E-05
CGA:  75    -0.669331221812E+03   -0.53417E-04    0.13451E-06  8424   0.713E-05 0.671E-05
CGA:  76    -0.669331273906E+03   -0.52093E-04    0.13403E-06  8424   0.723E-05 0.665E-05
CGA:  77    -0.669331327734E+03   -0.53828E-04    0.13290E-06  8424   0.761E-05 0.638E-05
CGA:  78    -0.669331378576E+03   -0.50842E-04    0.15770E-06  8424   0.872E-05 0.567E-05
CGA:  79    -0.669331433399E+03   -0.54823E-04    0.19382E-06  8424   0.121E-04 0.369E-05
CGA:  80    -0.669331558710E+03   -0.12531E-03    0.32327E-06  8424   0.810E-05 0.166E-04
CGA:  81    -0.669331608054E+03   -0.49344E-04    0.18624E-06  8424   0.111E-04 0.424E-05
CGA:  82    -0.669331662462E+03   -0.54407E-04    0.32942E-06  8424   0.223E-04-0.161E-05
CGA:  83    -0.669331818442E+03   -0.15598E-03    0.31600E-06  8424   0.281E-04 0.187E-04
CGA:  84    -0.669331854023E+03   -0.35581E-04    0.61987E-05  8424   0.914E-04-0.357E-04
CGA:  85    -0.669331880478E+03   -0.26454E-04   -0.36862E-04  8424   0.538E-03-0.204E-03
CGA:  86    -0.669331944377E+03   -0.63899E-04   -0.62487E-04  8424   0.683E-05-0.529E-05
CGA:  87    -0.669331995036E+03   -0.50659E-04    0.11681E-06  8424   0.670E-05 0.626E-05
CGA:  88    -0.669332043680E+03   -0.48644E-04    0.11985E-06  8424   0.729E-05 0.583E-05
CGA:  89    -0.669332093686E+03   -0.50007E-04    0.13868E-06  8424   0.958E-05 0.459E-05
CGA:  90    -0.669332139662E+03   -0.45975E-04    0.27384E-06  8424   0.189E-04-0.689E-07
CGA:  91    -0.669332285313E+03   -0.14565E-03    0.31273E-06  8424   0.187E-04 0.181E-04
CGA:  92    -0.669332334559E+03   -0.49247E-04    0.11286E-05  8424   0.487E-04-0.166E-04
CGA:  93    -0.669332232901E+03    0.10166E-03   -0.42757E-04  8424   0.183E-02-0.270E-03
CGA:  94    -0.669332475017E+03   -0.24212E-03   -0.22036E-03  8424   0.209E-04-0.876E-04
CGA:  95    -0.669332522995E+03   -0.47979E-04    0.15023E-05  8424   0.497E-04-0.175E-04
CGA:  96    -0.669331069133E+03    0.14539E-02   -0.80319E-03  8424   0.150E-01-0.797E-03
CGA:  97    -0.669332840718E+03   -0.17716E-02   -0.17460E-02  8424   0.147E-03 0.859E-05
CGA:  98    -0.669332894575E+03   -0.53857E-04   -0.31400E-04  8424   0.323E-04-0.546E-04
CGA:  99    -0.669332979741E+03   -0.85166E-04    0.24883E-05  8424   0.596E-04-0.112E-04
CGA: 100    -0.669333252880E+03   -0.27314E-03    0.24519E-05  8424   0.144E-03-0.208E-04
CGA: 101    -0.669333975531E+03   -0.72265E-03    0.52412E-05  8424   0.923E-04 0.632E-05
CGA: 102    -0.669334484131E+03   -0.50860E-03    0.86331E-05  8424   0.250E-03-0.690E-04
CGA: 103    -0.669334559024E+03   -0.74893E-04   -0.50114E-04  8424   0.304E-04-0.614E-04
CGA: 104    -0.669334617438E+03   -0.58414E-04    0.56747E-05  8424   0.135E-03-0.353E-04
CGA: 105    -0.669334652096E+03   -0.34658E-04   -0.21770E-04  8424   0.153E-04-0.305E-04
CGA: 106    -0.669334730271E+03   -0.78174E-04    0.68369E-06  8424   0.500E-04-0.914E-05
CGA: 107    -0.669334741961E+03   -0.11691E-04   -0.76403E-05  8424   0.932E-05-0.987E-05
CGA: 108    -0.669334822136E+03   -0.80175E-04    0.22809E-06  8424   0.118E-04 0.225E-05
CGA: 109    -0.669334968306E+03   -0.14617E-03    0.48837E-06  8424   0.220E-04 0.498E-05
CGA: 110    -0.669335333308E+03   -0.36500E-03    0.87005E-06  8424   0.219E-04 0.162E-04
CGA: 111    -0.669335347610E+03   -0.14301E-04   -0.82418E-05  8424   0.103E-03-0.367E-04
CGA: 112    -0.669335396138E+03   -0.48528E-04   -0.21032E-04  8424   0.840E-04-0.837E-04
CGA: 113    -0.669335404981E+03   -0.88435E-05   -0.92442E-05  8424   0.410E-05 0.103E-05
   6 F= -.66933540E+03 E0= -.66933540E+03  d E =-.224953E-01  mag=     2.0000
       N       E                     dE             d eps       ncg     rms          ort
SDA:   1    -0.668440527761E+03    0.89487E+00    0.00000E+00  8424   0.235E+01 0.000E+00
CGA:   2    -0.669065241049E+03   -0.62471E+00   -0.62513E+00  8424   0.115E+01 0.524E-03
CGA:   3    -0.669276066504E+03   -0.21083E+00   -0.21046E+00  8424   0.289E+00-0.206E-03
CGA:   4    -0.669324141262E+03   -0.48075E-01   -0.47941E-01  8424   0.689E-01-0.418E-03
CGA:   5    -0.669336132913E+03   -0.11992E-01   -0.11923E-01  8424   0.153E-01-0.262E-03
CGA:   6    -0.669339322968E+03   -0.31901E-02   -0.31257E-02  8424   0.389E-02-0.275E-03
CGA:   7    -0.669340257446E+03   -0.93448E-03   -0.91019E-03  8424   0.135E-02-0.128E-03
CGA:   8    -0.669340673965E+03   -0.41652E-03   -0.39170E-03  8424   0.678E-03-0.206E-03
CGA:   9    -0.669340922402E+03   -0.24844E-03   -0.27160E-03  8424   0.833E-03-0.395E-03
CGA:  10    -0.669341120054E+03   -0.19765E-03   -0.17607E-03  8424   0.221E-03-0.105E-03
CGA:  11    -0.669341283335E+03   -0.16328E-03    0.93676E-03  8424   0.152E-03-0.577E-04
CGA:  12    -0.669341491912E+03   -0.20858E-03    0.17761E-04  8424   0.894E-04 0.117E-04
CGA:  13    -0.669341737786E+03   -0.24587E-03    0.91323E-05  8424   0.667E-04 0.334E-04
CGA:  14    -0.669342008181E+03   -0.27039E-03    0.70759E-05  8424   0.676E-04 0.299E-04
CGA:  15    -0.669342408363E+03   -0.40018E-03    0.49345E-05  8424   0.650E-04 0.444E-04
CGA:  16    -0.669342486064E+03   -0.77701E-04    0.27964E-04  8424   0.122E-03-0.272E-04
CGA:  17    -0.669342766659E+03   -0.28060E-03    0.37258E-05  8424   0.174E-03-0.525E-04
CGA:  18    -0.669343277637E+03   -0.51098E-03    0.37907E-05  8424   0.322E-03-0.709E-05
CGA:  19    -0.669344260968E+03   -0.98333E-03    0.21464E-04  8424   0.490E-03-0.592E-04
CGA:  20    -0.669346031939E+03   -0.17710E-02    0.18225E-04  8424   0.382E-03 0.177E-03
CGA:  21    -0.669347551576E+03   -0.15196E-02    0.40850E-04  8424   0.590E-03-0.643E-04
CGA:  22    -0.669349613866E+03   -0.20623E-02    0.23920E-04  8424   0.116E-02-0.341E-03
CGA:  23    -0.669349961803E+03   -0.34794E-03   -0.32853E-03  8424   0.444E-03-0.158E-03
CGA:  24    -0.669349996309E+03   -0.34506E-04   -0.50586E-04  8424   0.763E-04 0.600E-04
CGA:  25    -0.669350017480E+03   -0.21171E-04   -0.21729E-04  8424   0.100E-03 0.373E-05
CGA:  26    -0.669350121210E+03   -0.10373E-03    0.66556E-04  8424   0.131E-03-0.216E-04
CGA:  27    -0.669350275316E+03   -0.15411E-03    0.20025E-04  8424   0.296E-03-0.147E-04
CGA:  28    -0.669350599559E+03   -0.32424E-03    0.79538E-04  8424   0.426E-03-0.585E-05
CGA:  29    -0.669351121797E+03   -0.52224E-03    0.12285E-03  8424   0.659E-03-0.152E-04
CGA:  30    -0.669352015185E+03   -0.89339E-03    0.14241E-03  8424   0.958E-03-0.283E-03
CGA:  31    -0.669353167466E+03   -0.11523E-02    0.58581E-04  8424   0.125E-02-0.463E-03
CGA:  32    -0.669354341460E+03   -0.11740E-02    0.87305E-04  8424   0.248E-02-0.160E-02
CGA:  33    -0.669355011042E+03   -0.66958E-03   -0.63206E-03  8424   0.159E-02-0.303E-03
CGA:  34    -0.669355468070E+03   -0.45703E-03   -0.46794E-03  8424   0.888E-03 0.277E-03
CGA:  35    -0.669355878719E+03   -0.41065E-03   -0.40890E-03  8424   0.621E-03 0.806E-04
CGA:  36    -0.669356211932E+03   -0.33321E-03   -0.42396E-03  8424   0.191E-02-0.365E-03
CGA:  37    -0.669356377672E+03   -0.16574E-03   -0.23309E-03  8424   0.169E-03 0.260E-03
CGA:  38    -0.669356411886E+03   -0.34214E-04   -0.43430E-04  8424   0.115E-03 0.630E-04
CGA:  39    -0.669356479422E+03   -0.67536E-04   -0.75923E-04  8424   0.266E-03-0.726E-04
CGA:  40    -0.669356501608E+03   -0.22186E-04   -0.38958E-04  8424   0.637E-04 0.747E-04
CGA:  41    -0.669356523194E+03   -0.21587E-04   -0.22840E-04  8424   0.453E-04 0.154E-04
CGA:  42    -0.669356554027E+03   -0.30833E-04   -0.46979E-04  8424   0.345E-03-0.352E-04
CGA:  43    -0.669356569556E+03   -0.15529E-04   -0.41196E-04  8424   0.628E-04 0.988E-04
CGA:  44    -0.669356572954E+03   -0.33979E-05   -0.11554E-04  8424   0.351E-04 0.364E-04
CGA:  45    -0.669356598463E+03   -0.25510E-04    0.27197E-03  8424   0.504E-04-0.167E-05
CGA:  46    -0.669356599563E+03   -0.10993E-05   -0.78552E-05  8424   0.330E-04 0.350E-04
   7 F= -.66935660E+03 E0= -.66935660E+03  d E =-.211946E-01  mag=     2.0000
       N       E                     dE             d eps       ncg     rms          ort
SDA:   1    -0.660946942487E+03    0.84097E+01    0.00000E+00  8424   0.213E+02 0.000E+00
CGA:   2    -0.666721268395E+03   -0.57743E+01   -0.57753E+01  8424   0.110E+02 0.336E-02
CGA:   3    -0.668691113473E+03   -0.19698E+01   -0.19697E+01  8424   0.260E+01 0.156E-01
CGA:   4    -0.669120042931E+03   -0.42893E+00   -0.42907E+00  8424   0.605E+00 0.114E-03
CGA:   5    -0.669225427084E+03   -0.10538E+00   -0.10525E+00  8424   0.139E+00-0.130E-02
CGA:   6    -0.669253559264E+03   -0.28132E-01   -0.28075E-01  8424   0.347E-01-0.574E-03
CGA:   7    -0.669261536447E+03   -0.79772E-02   -0.79721E-02  8424   0.117E-01-0.811E-04
CGA:   8    -0.669264687775E+03   -0.31513E-02   -0.31508E-02  8424   0.471E-02-0.219E-04
CGA:   9    -0.669266252315E+03   -0.15645E-02   -0.15876E-02  8424   0.259E-02-0.567E-03
CGA:  10    -0.669267146824E+03   -0.89451E-03   -0.10966E-02  8424   0.262E-02-0.112E-02
CGA:  11    -0.669267505721E+03   -0.35890E-03   -0.81475E-03  8424   0.380E-02-0.193E-02
CGA:  12    -0.669268374838E+03   -0.86912E-03   -0.87352E-03  8424   0.140E-02 0.475E-04
CGA:  13    -0.669268923448E+03   -0.54861E-03   -0.75343E-03  8424   0.285E-02-0.949E-03
CGA:  14    -0.669269298051E+03   -0.37460E-03   -0.39424E-03  8424   0.454E-03 0.107E-03
CGA:  15    -0.669269617357E+03   -0.31931E-03    0.10708E-02  8424   0.147E-03 0.377E-04
CGA:  16    -0.669269829934E+03   -0.21258E-03    0.22928E-04  8424   0.130E-03 0.948E-04
CGA:  17    -0.669269961564E+03   -0.13163E-03    0.34115E-04  8424   0.141E-03 0.386E-04
CGA:  18    -0.669270244971E+03   -0.28341E-03    0.19993E-04  8424   0.958E-04 0.112E-03
CGA:  19    -0.669270380896E+03   -0.13593E-03    0.12233E-04  8424   0.694E-04 0.607E-04
CGA:  20    -0.669270522751E+03   -0.14186E-03    0.49347E-05  8424   0.781E-04 0.518E-04
CGA:  21    -0.669270613458E+03   -0.90706E-04    0.14832E-04  8424   0.115E-03 0.287E-04
CGA:  22    -0.669270930649E+03   -0.31719E-03    0.11360E-04  8424   0.679E-04 0.145E-03
CGA:  23    -0.669271068454E+03   -0.13780E-03    0.48830E-05  8424   0.927E-04 0.305E-04
CGA:  24    -0.669271334429E+03   -0.26598E-03    0.10035E-04  8424   0.581E-04 0.124E-03
CGA:  25    -0.669271429991E+03   -0.95562E-04    0.57737E-05  8424   0.661E-04 0.366E-04
CGA:  26    -0.669271560290E+03   -0.13030E-03    0.49665E-05  8424   0.917E-04 0.194E-04
CGA:  27    -0.669271812813E+03   -0.25252E-03    0.79546E-05  8424   0.659E-04 0.111E-03
CGA:  28    -0.669271894894E+03   -0.82081E-04    0.10829E-04  8424   0.838E-04 0.145E-04
CGA:  29    -0.669272138087E+03   -0.24319E-03    0.58681E-05  8424   0.691E-04 0.940E-04
CGA:  30    -0.669272250368E+03   -0.11228E-03    0.70045E-05  8424   0.715E-04 0.114E-04
CGA:  31    -0.669272444174E+03   -0.19381E-03    0.49385E-05  8424   0.671E-04 0.746E-04
CGA:  32    -0.669272540271E+03   -0.96097E-04    0.84389E-05  8424   0.518E-04 0.173E-04
CGA:  33    -0.669272710248E+03   -0.16998E-03    0.33131E-05  8424   0.548E-04 0.606E-04
CGA:  34    -0.669272805361E+03   -0.95114E-04    0.49915E-05  8424   0.392E-04 0.260E-04
CGA:  35    -0.669272961983E+03   -0.15662E-03    0.28013E-05  8424   0.460E-04 0.545E-04
CGA:  36    -0.669273055287E+03   -0.93304E-04    0.33089E-05  8424   0.344E-04 0.286E-04
CGA:  37    -0.669273144284E+03   -0.88997E-04    0.17680E-05  8424   0.323E-04 0.317E-04
CGA:  38    -0.669273233013E+03   -0.88729E-04    0.15325E-05  8424   0.315E-04 0.316E-04
CGA:  39    -0.669273320373E+03   -0.87361E-04    0.14742E-05  8424   0.308E-04 0.310E-04
CGA:  40    -0.669273407449E+03   -0.87076E-04    0.14121E-05  8424   0.302E-04 0.304E-04
CGA:  41    -0.669273493382E+03   -0.85933E-04    0.13734E-05  8424   0.297E-04 0.298E-04
CGA:  42    -0.669273578766E+03   -0.85384E-04    0.13264E-05  8424   0.291E-04 0.292E-04
CGA:  43    -0.669273663356E+03   -0.84591E-04    0.12900E-05  8424   0.288E-04 0.285E-04
CGA:  44    -0.669273746579E+03   -0.83222E-04    0.12781E-05  8424   0.288E-04 0.276E-04
CGA:  45    -0.669273830353E+03   -0.83775E-04    0.12660E-05  8424   0.298E-04 0.261E-04
CGA:  46    -0.669273909173E+03   -0.78820E-04    0.14849E-05  8424   0.337E-04 0.229E-04
CGA:  47    -0.669273994476E+03   -0.85303E-04    0.17801E-05  8424   0.456E-04 0.149E-04
CGA:  48    -0.669274182685E+03   -0.18821E-03    0.29667E-05  8424   0.301E-04 0.622E-04
CGA:  49    -0.669274259057E+03   -0.76372E-04    0.15908E-05  8424   0.362E-04 0.170E-04
CGA:  50    -0.669274338789E+03   -0.79732E-04    0.23202E-05  8424   0.501E-04 0.674E-05
CGA:  51    -0.669274521178E+03   -0.18239E-03    0.24505E-05  8424   0.409E-04 0.574E-04
CGA:  52    -0.669274593538E+03   -0.72360E-04    0.36269E-05  8424   0.564E-04-0.216E-05
CGA:  53    -0.669274774529E+03   -0.18099E-03    0.19457E-05  8424   0.566E-04 0.516E-04
CGA:  54    -0.669274841297E+03   -0.66768E-04    0.10408E-04  8424   0.764E-04-0.231E-04
CGA:  55    -0.669275003691E+03   -0.16239E-03    0.15393E-05  8424   0.963E-04 0.419E-04
CGA:  56    -0.669275080279E+03   -0.76588E-04    0.59874E-04  8424   0.120E-03-0.678E-04
CGA:  57    -0.669274990239E+03    0.90040E-04   -0.92780E-04  8424   0.177E-02-0.404E-03
CGA:  58    -0.669275287273E+03   -0.29703E-03   -0.28140E-03  8424   0.279E-04-0.867E-04
CGA:  59    -0.669275377064E+03   -0.89790E-04    0.10660E-05  8424   0.265E-04 0.118E-04
CGA:  60    -0.669275509436E+03   -0.13237E-03    0.14462E-05  8424   0.211E-04 0.356E-04
CGA:  61    -0.669275572513E+03   -0.63077E-04    0.99266E-06  8424   0.227E-04 0.132E-04
CGA:  62    -0.669275650388E+03   -0.77875E-04    0.89875E-06  8424   0.266E-04 0.989E-05
CGA:  63    -0.669275796604E+03   -0.14622E-03    0.13120E-05  8424   0.213E-04 0.369E-04
CGA:  64    -0.669275856408E+03   -0.59805E-04    0.10812E-05  8424   0.243E-04 0.970E-05
CGA:  65    -0.669276002661E+03   -0.14625E-03    0.11111E-05  8424   0.198E-04 0.342E-04
CGA:  66    -0.669276071459E+03   -0.68799E-04    0.77243E-06  8424   0.218E-04 0.975E-05
CGA:  67    -0.669276205736E+03   -0.13428E-03    0.10212E-05  8424   0.185E-04 0.313E-04
CGA:  68    -0.669276267881E+03   -0.62145E-04    0.74505E-06  8424   0.192E-04 0.101E-04
CGA:  69    -0.669276333509E+03   -0.65628E-04    0.75644E-06  8424   0.209E-04 0.821E-05
CGA:  70    -0.669276463114E+03   -0.12961E-03    0.88943E-06  8424   0.182E-04 0.291E-04
CGA:  71    -0.669276523501E+03   -0.60387E-04    0.74803E-06  8424   0.193E-04 0.792E-05
CGA:  72    -0.669276651412E+03   -0.12791E-03    0.76837E-06  8424   0.173E-04 0.270E-04
CGA:  73    -0.669276709992E+03   -0.58580E-04    0.69089E-06  8424   0.176E-04 0.785E-05
CGA:  74    -0.669276828828E+03   -0.11884E-03    0.69917E-06  8424   0.163E-04 0.247E-04
CGA:  75    -0.669276889988E+03   -0.61160E-04    0.57464E-06  8424   0.158E-04 0.798E-05
CGA:  76    -0.669277005354E+03   -0.11537E-03    0.60521E-06  8424   0.152E-04 0.226E-04
CGA:  77    -0.669277058726E+03   -0.53372E-04    0.58387E-06  8424   0.140E-04 0.828E-05
CGA:  78    -0.669277117963E+03   -0.59236E-04    0.42963E-06  8424   0.138E-04 0.840E-05
CGA:  79    -0.669277172312E+03   -0.54349E-04    0.45886E-06  8424   0.138E-04 0.812E-05
CGA:  80    -0.669277228569E+03   -0.56258E-04    0.43939E-06  8424   0.138E-04 0.772E-05
CGA:  81    -0.669277284141E+03   -0.55572E-04    0.45132E-06  8424   0.140E-04 0.725E-05
CGA:  82    -0.669277337416E+03   -0.53275E-04    0.48596E-06  8424   0.142E-04 0.673E-05
CGA:  83    -0.669277448602E+03   -0.11119E-03    0.49594E-06  8424   0.133E-04 0.206E-04
CGA:  84    -0.669277502498E+03   -0.53895E-04    0.43051E-06  8424   0.135E-04 0.637E-05
CGA:  85    -0.669277608998E+03   -0.10650E-03    0.46689E-06  8424   0.127E-04 0.196E-04
CGA:  86    -0.669277662033E+03   -0.53035E-04    0.39522E-06  8424   0.128E-04 0.606E-05
CGA:  87    -0.669277767915E+03   -0.10588E-03    0.41902E-06  8424   0.121E-04 0.186E-04
CGA:  88    -0.669277817281E+03   -0.49366E-04    0.38799E-06  8424   0.122E-04 0.576E-05
CGA:  89    -0.669277918623E+03   -0.10134E-03    0.39437E-06  8424   0.116E-04 0.177E-04
CGA:  90    -0.669277971522E+03   -0.52899E-04    0.32285E-06  8424   0.116E-04 0.548E-05
CGA:  91    -0.669278072392E+03   -0.10087E-03    0.35498E-06  8424   0.110E-04 0.168E-04
CGA:  92    -0.669278117529E+03   -0.45137E-04    0.35185E-06  8424   0.110E-04 0.523E-05
CGA:  93    -0.669278214103E+03   -0.96574E-04    0.33414E-06  8424   0.105E-04 0.159E-04
CGA:  94    -0.669278266856E+03   -0.52753E-04    0.26505E-06  8424   0.104E-04 0.500E-05
CGA:  95    -0.669278362937E+03   -0.96081E-04    0.30145E-06  8424   0.101E-04 0.151E-04
CGA:  96    -0.669278404235E+03   -0.41298E-04    0.31930E-06  8424   0.991E-05 0.479E-05
CGA:  97    -0.669278496324E+03   -0.92089E-04    0.28368E-06  8424   0.960E-05 0.144E-04
CGA:  98    -0.669278548812E+03   -0.52487E-04    0.21830E-06  8424   0.939E-05 0.462E-05
CGA:  99    -0.669278640257E+03   -0.91445E-04    0.25675E-06  8424   0.916E-05 0.136E-04
CGA: 100    -0.669278678228E+03   -0.37971E-04    0.28684E-06  8424   0.888E-05 0.447E-05
CGA: 101    -0.669278766067E+03   -0.87839E-04    0.24113E-06  8424   0.871E-05 0.129E-04
CGA: 102    -0.669278817963E+03   -0.51897E-04    0.17976E-06  8424   0.836E-05 0.437E-05
CGA: 103    -0.669278855050E+03   -0.37087E-04    0.24212E-06  8424   0.819E-05 0.441E-05
CGA: 104    -0.669278904612E+03   -0.49562E-04    0.16593E-06  8424   0.809E-05 0.435E-05
CGA: 105    -0.669278942846E+03   -0.38233E-04    0.21721E-06  8424   0.802E-05 0.425E-05
CGA: 106    -0.669278990121E+03   -0.47276E-04    0.16733E-06  8424   0.798E-05 0.412E-05
CGA: 107    -0.669279029531E+03   -0.39410E-04    0.20381E-06  8424   0.796E-05 0.398E-05
CGA: 108    -0.669279113818E+03   -0.84287E-04    0.20336E-06  8424   0.765E-05 0.117E-04
CGA: 109    -0.669279160091E+03   -0.46273E-04    0.15500E-06  8424   0.763E-05 0.379E-05
CGA: 110    -0.669279244536E+03   -0.84444E-04    0.18513E-06  8424   0.734E-05 0.112E-04
CGA: 111    -0.669279280470E+03   -0.35935E-04    0.18912E-06  8424   0.729E-05 0.363E-05
CGA: 112    -0.669279361496E+03   -0.81025E-04    0.17566E-06  8424   0.704E-05 0.107E-04
CGA: 113    -0.669279407858E+03   -0.46362E-04    0.12984E-06  8424   0.700E-05 0.346E-05
CGA: 114    -0.669279488825E+03   -0.80967E-04    0.16068E-06  8424   0.676E-05 0.103E-04
CGA: 115    -0.669279521742E+03   -0.32917E-04    0.17568E-06  8424   0.671E-05 0.331E-05
CGA: 116    -0.669279599856E+03   -0.78114E-04    0.15275E-06  8424   0.650E-05 0.985E-05
CGA: 117    -0.669279646109E+03   -0.46253E-04    0.11001E-06  8424   0.645E-05 0.317E-05
CGA: 118    -0.669279723974E+03   -0.77866E-04    0.14064E-06  8424   0.625E-05 0.946E-05
CGA: 119    -0.669279754283E+03   -0.30309E-04    0.16312E-06  8424   0.620E-05 0.304E-05
CGA: 120    -0.669279829757E+03   -0.75473E-04    0.13367E-06  8424   0.602E-05 0.908E-05
CGA: 121    -0.669279875705E+03   -0.45948E-04    0.94168E-07  8424   0.596E-05 0.291E-05
CGA: 122    -0.669279950695E+03   -0.74990E-04    0.12387E-06  8424   0.579E-05 0.873E-05
CGA: 123    -0.669279978771E+03   -0.28076E-04    0.15106E-06  8424   0.574E-05 0.280E-05
CGA: 124    -0.669280051759E+03   -0.72988E-04    0.11753E-06  8424   0.557E-05 0.839E-05
CGA: 125    -0.669280097199E+03   -0.45440E-04    0.81287E-07  8424   0.551E-05 0.270E-05
CGA: 126    -0.669280169403E+03   -0.72204E-04    0.10956E-06  8424   0.537E-05 0.806E-05
CGA: 127    -0.669280195641E+03   -0.26239E-04    0.13862E-06  8424   0.529E-05 0.261E-05
CGA: 128    -0.669280266178E+03   -0.70537E-04    0.10358E-06  8424   0.516E-05 0.774E-05
CGA: 129    -0.669280310814E+03   -0.44636E-04    0.70577E-07  8424   0.506E-05 0.255E-05
CGA: 130    -0.669280380148E+03   -0.69335E-04    0.97086E-07  8424   0.496E-05 0.743E-05
CGA: 131    -0.669280405107E+03   -0.24958E-04    0.12385E-06  8424   0.483E-05 0.250E-05
CGA: 132    -0.669280448767E+03   -0.43661E-04    0.62886E-07  8424   0.479E-05 0.248E-05
CGA: 133    -0.669280473758E+03   -0.24991E-04    0.11473E-06  8424   0.479E-05 0.241E-05
CGA: 134    -0.669280516583E+03   -0.42825E-04    0.63114E-07  8424   0.480E-05 0.232E-05
CGA: 135    -0.669280584687E+03   -0.68103E-04    0.87625E-07  8424   0.463E-05 0.704E-05
CGA: 136    -0.669280608788E+03   -0.24101E-04    0.11119E-06  8424   0.466E-05 0.222E-05
CGA: 137    -0.669280675528E+03   -0.66740E-04    0.83711E-07  8424   0.448E-05 0.682E-05
CGA: 138    -0.669280717911E+03   -0.42383E-04    0.55547E-07  8424   0.450E-05 0.214E-05
CGA: 139    -0.669280783760E+03   -0.65848E-04    0.78838E-07  8424   0.433E-05 0.658E-05
CGA: 140    -0.669280806352E+03   -0.22592E-04    0.10397E-06  8424   0.436E-05 0.206E-05
CGA: 141    -0.669280871120E+03   -0.64768E-04    0.74959E-07  8424   0.419E-05 0.636E-05
CGA: 142    -0.669280912755E+03   -0.41635E-04    0.49452E-07  8424   0.422E-05 0.200E-05
CGA: 143    -0.669280976380E+03   -0.63625E-04    0.71090E-07  8424   0.406E-05 0.614E-05
CGA: 144    -0.669280997880E+03   -0.21500E-04    0.95754E-07  8424   0.407E-05 0.194E-05
CGA: 145    -0.669281060630E+03   -0.62750E-04    0.67182E-07  8424   0.393E-05 0.593E-05
CGA: 146    -0.669281101186E+03   -0.40556E-04    0.44460E-07  8424   0.391E-05 0.189E-05
CGA: 147    -0.669281162394E+03   -0.61207E-04    0.63875E-07  8424   0.380E-05 0.571E-05
CGA: 148    -0.669281183326E+03   -0.20933E-04    0.85747E-07  8424   0.374E-05 0.186E-05
CGA: 149    -0.669281243703E+03   -0.60377E-04    0.59804E-07  8424   0.367E-05 0.548E-05
CGA: 150    -0.669281282639E+03   -0.38936E-04    0.40384E-07  8424   0.355E-05 0.186E-05
CGA: 151    -0.669281303419E+03   -0.20780E-04    0.74462E-07  8424   0.350E-05 0.188E-05
CGA: 152    -0.669281342047E+03   -0.38628E-04    0.36797E-07  8424   0.350E-05 0.185E-05
CGA: 153    -0.669281362454E+03   -0.20407E-04    0.73814E-07  8424   0.352E-05 0.178E-05
CGA: 154    -0.669281400960E+03   -0.38505E-04    0.37443E-07  8424   0.357E-05 0.169E-05
CGA: 155    -0.669281459924E+03   -0.58965E-04    0.54905E-07  8424   0.342E-05 0.522E-05
CGA: 156    -0.669281479463E+03   -0.19538E-04    0.74038E-07  8424   0.348E-05 0.163E-05
CGA: 157    -0.669281537809E+03   -0.58347E-04    0.52512E-07  8424   0.333E-05 0.508E-05
CGA: 158    -0.669281575788E+03   -0.37979E-04    0.33780E-07  8424   0.339E-05 0.158E-05
CGA: 159    -0.669281633038E+03   -0.57250E-04    0.50464E-07  8424   0.323E-05 0.494E-05
CGA: 160    -0.669281651572E+03   -0.18533E-04    0.69709E-07  8424   0.330E-05 0.152E-05
CGA: 161    -0.669281708481E+03   -0.56910E-04    0.47958E-07  8424   0.315E-05 0.480E-05
CGA: 162    -0.669281745673E+03   -0.37192E-04    0.30780E-07  8424   0.320E-05 0.148E-05
CGA: 163    -0.669281801156E+03   -0.55482E-04    0.46312E-07  8424   0.306E-05 0.466E-05
CGA: 164    -0.669281819041E+03   -0.17885E-04    0.64453E-07  8424   0.310E-05 0.144E-05
CGA: 165    -0.669281874301E+03   -0.55260E-04    0.43647E-07  8424   0.297E-05 0.451E-05
CGA: 166    -0.669281910360E+03   -0.36059E-04    0.28339E-07  8424   0.299E-05 0.142E-05
CGA: 167    -0.669281963765E+03   -0.53405E-04    0.42129E-07  8424   0.289E-05 0.435E-05
CGA: 168    -0.669281981542E+03   -0.17778E-04    0.57459E-07  8424   0.285E-05 0.141E-05
CGA: 169    -0.669282034636E+03   -0.53094E-04    0.39227E-07  8424   0.280E-05 0.418E-05
CGA: 170    -0.669282068947E+03   -0.34311E-04    0.26429E-07  8424   0.270E-05 0.142E-05
CGA: 171    -0.669282086668E+03   -0.17721E-04    0.50018E-07  8424   0.267E-05 0.144E-05
CGA: 172    -0.669282121081E+03   -0.34413E-04    0.23821E-07  8424   0.268E-05 0.142E-05
CGA: 173    -0.669282138142E+03   -0.17062E-04    0.51229E-07  8424   0.271E-05 0.136E-05
CGA: 174    -0.669282172871E+03   -0.34728E-04    0.24420E-07  8424   0.277E-05 0.128E-05
CGA: 175    -0.669282224577E+03   -0.51707E-04    0.36983E-07  8424   0.265E-05 0.403E-05
CGA: 176    -0.669282240781E+03   -0.16204E-04    0.52928E-07  8424   0.272E-05 0.123E-05
CGA: 177    -0.669282292371E+03   -0.51590E-04    0.35399E-07  8424   0.258E-05 0.394E-05
CGA: 178    -0.669282326542E+03   -0.34171E-04    0.22433E-07  8424   0.265E-05 0.119E-05
CGA: 179    -0.669282376881E+03   -0.50339E-04    0.34489E-07  8424   0.252E-05 0.384E-05
CGA: 180    -0.669282392421E+03   -0.15540E-04    0.49992E-07  8424   0.259E-05 0.116E-05
CGA: 181    -0.669282442839E+03   -0.50417E-04    0.32702E-07  8424   0.246E-05 0.375E-05
CGA: 182    -0.669282476175E+03   -0.33336E-04    0.20831E-07  8424   0.252E-05 0.113E-05
CGA: 183    -0.669282524957E+03   -0.48782E-04    0.31925E-07  8424   0.240E-05 0.364E-05
CGA: 184    -0.669282540222E+03   -0.15265E-04    0.45971E-07  8424   0.244E-05 0.111E-05
CGA: 185    -0.669282589074E+03   -0.48853E-04    0.29916E-07  8424   0.234E-05 0.352E-05
CGA: 186    -0.669282621125E+03   -0.32051E-04    0.19584E-07  8424   0.233E-05 0.111E-05
CGA: 187    -0.669282667875E+03   -0.46750E-04    0.29064E-07  8424   0.228E-05 0.339E-05
CGA: 188    -0.669282683533E+03   -0.15658E-04    0.39965E-07  8424   0.221E-05 0.112E-05
CGA: 189    -0.669282730128E+03   -0.46595E-04    0.26815E-07  8424   0.221E-05 0.324E-05
CGA: 190    -0.669282760138E+03   -0.30010E-04    0.18674E-07  8424   0.208E-05 0.114E-05
CGA: 191    -0.669282776121E+03   -0.15983E-04    0.32264E-07  8424   0.202E-05 0.120E-05
CGA: 192    -0.669282806110E+03   -0.29989E-04    0.15588E-07  8424   0.201E-05 0.121E-05
CGA: 193    -0.669282821616E+03   -0.15505E-04    0.31178E-07  8424   0.203E-05 0.118E-05
CGA: 194    -0.669282851891E+03   -0.30275E-04    0.15504E-07  8424   0.206E-05 0.113E-05
CGA: 195    -0.669282866562E+03   -0.14671E-04    0.34915E-07  8424   0.212E-05 0.106E-05
CGA: 196    -0.669282897455E+03   -0.30894E-04    0.16578E-07  8424   0.219E-05 0.972E-06
CGA: 197    -0.669282943004E+03   -0.45548E-04    0.25604E-07  8424   0.207E-05 0.316E-05
CGA: 198    -0.669282956714E+03   -0.13710E-04    0.37961E-07  8424   0.215E-05 0.936E-06
CGA: 199    -0.669283002342E+03   -0.45628E-04    0.24554E-07  8424   0.203E-05 0.310E-05
CGA: 200    -0.669283032887E+03   -0.30545E-04    0.15394E-07  8424   0.212E-05 0.905E-06
   8 F= -.66928303E+03 E0= -.66928303E+03  d E =0.735667E-01  mag=     2.0000
       N       E                     dE             d eps       ncg     rms          ort
SDA:   1    -0.658240605785E+03    0.11042E+02    0.00000E+00  8424   0.273E+02 0.000E+00
CGA:   2    -0.666342415397E+03   -0.81018E+01   -0.81003E+01  8424   0.126E+02-0.267E-01
CGA:   3    -0.668487464659E+03   -0.21450E+01   -0.21542E+01  8424   0.286E+01-0.224E-02
CGA:   4    -0.668981971540E+03   -0.49451E+00   -0.49448E+00  8424   0.741E+00 0.423E-03
CGA:   5    -0.669108185637E+03   -0.12621E+00   -0.12605E+00  8424   0.157E+00-0.954E-03
CGA:   6    -0.669139033569E+03   -0.30848E-01   -0.30940E-01  8424   0.398E-01 0.784E-03
CGA:   7    -0.669148764373E+03   -0.97308E-02   -0.97193E-02  8424   0.144E-01-0.208E-03
CGA:   8    -0.669152531910E+03   -0.37675E-02   -0.37735E-02  8424   0.566E-02 0.175E-03
CGA:   9    -0.669154293205E+03   -0.17613E-02   -0.17628E-02  8424   0.254E-02-0.141E-03
CGA:  10    -0.669155221938E+03   -0.92873E-03   -0.99187E-03  8424   0.155E-02-0.609E-03
CGA:  11    -0.669155602417E+03   -0.38048E-03   -0.38879E-03  8424   0.758E-03-0.296E-03
CGA:  12    -0.669154783339E+03    0.81908E-03   -0.78184E-03  8424   0.754E-02-0.166E-02
CGA:  13    -0.669156245647E+03   -0.14623E-02   -0.15000E-02  8424   0.128E-02 0.245E-03
CGA:  14    -0.669156671448E+03   -0.42580E-03   -0.41275E-03  8424   0.704E-03-0.413E-03
CGA:  15    -0.669156807646E+03   -0.13620E-03   -0.13150E-03  8424   0.289E-03-0.709E-04
CGA:  16    -0.669156531727E+03    0.27592E-03   -0.33360E-03  8424   0.284E-02-0.649E-03
CGA:  17    -0.669157241201E+03   -0.70947E-03   -0.64438E-03  8424   0.927E-03-0.409E-03
CGA:  18    -0.669157367165E+03   -0.12596E-03   -0.13294E-03  8424   0.109E-03 0.333E-04
CGA:  19    -0.669157374980E+03   -0.78151E-05   -0.97676E-04  8424   0.979E-03-0.182E-03
CGA:  20    -0.669157625181E+03   -0.25020E-03   -0.18910E-03  8424   0.225E-03-0.306E-03
CGA:  21    -0.669157662689E+03   -0.37508E-04   -0.37175E-04  8424   0.525E-04-0.255E-05
CGA:  22    -0.669157742317E+03   -0.79628E-04    0.93628E-05  8424   0.611E-04 0.382E-05
CGA:  23    -0.669157919327E+03   -0.17701E-03    0.47480E-05  8424   0.476E-04 0.416E-04
CGA:  24    -0.669157970064E+03   -0.50737E-04    0.21454E-04  8424   0.532E-04-0.541E-05
CGA:  25    -0.669158117338E+03   -0.14727E-03    0.28159E-05  8424   0.518E-04 0.312E-04
CGA:  26    -0.669158184179E+03   -0.66840E-04    0.13639E-04  8424   0.385E-04-0.226E-05
CGA:  27    -0.669158294321E+03   -0.11014E-03    0.23218E-05  8424   0.366E-04 0.259E-04
CGA:  28    -0.669158358983E+03   -0.64662E-04    0.50918E-05  8424   0.288E-04 0.851E-05
CGA:  29    -0.669158473845E+03   -0.11486E-03    0.20227E-05  8424   0.323E-04 0.227E-04
CGA:  30    -0.669158530160E+03   -0.56315E-04    0.45931E-05  8424   0.314E-04 0.780E-05
CGA:  31    -0.669158655959E+03   -0.12580E-03    0.22250E-05  8424   0.324E-04 0.219E-04
[...]
CGA:   5    -0.669175302166E+03   -0.10667E+00   -0.10676E+00  8424   0.128E+00 0.117E-02
CGA:   6    -0.669200610789E+03   -0.25309E-01   -0.25301E-01  8424   0.295E-01-0.210E-03
CGA:   7    -0.669207097452E+03   -0.64867E-02   -0.64952E-02  8424   0.862E-02 0.771E-03
CGA:   8    -0.669209194643E+03   -0.20972E-02   -0.20948E-02  8424   0.249E-02 0.426E-03
CGA:   9    -0.669209858074E+03   -0.66343E-03   -0.65873E-03  8424   0.800E-03 0.226E-03
CGA:  10    -0.669210044498E+03   -0.18642E-03   -0.19061E-03  8424   0.295E-03 0.298E-03
CGA:  11    -0.669210102309E+03   -0.57811E-04   -0.69969E-04  8424   0.134E-03 0.206E-03
CGA:  12    -0.669210112658E+03   -0.10349E-04   -0.18950E-04  8424   0.814E-04 0.979E-04
CGA:  13    -0.669210111221E+03    0.14372E-05   -0.79695E-05  8424   0.681E-04 0.743E-04
  31 F= -.66921011E+03 E0= -.66921011E+03  d E =0.444821E-01  mag=     2.0000
       N       E                     dE             d eps       ncg     rms          ort
SDA:   1    -0.662306826714E+03    0.69033E+01    0.00000E+00  8424   0.221E+02 0.000E+00
CGA:   2    -0.666790011618E+03   -0.44832E+01   -0.44843E+01  8424   0.910E+01 0.708E-01
CGA:   3    -0.668681099754E+03   -0.18911E+01   -0.18910E+01  8424   0.284E+01-0.176E-01
CGA:   4    -0.669155676773E+03   -0.47458E+00   -0.47477E+00  8424   0.709E+00 0.213E-02
CGA:   5    -0.669277101027E+03   -0.12142E+00   -0.12152E+00  8424   0.149E+00 0.208E-02
CGA:   6    -0.669306482706E+03   -0.29382E-01   -0.29372E-01  8424   0.344E-01-0.928E-03
CGA:   7    -0.669314013087E+03   -0.75304E-02   -0.75195E-02  8424   0.998E-02 0.775E-03
CGA:   8    -0.669316500654E+03   -0.24876E-02   -0.24818E-02  8424   0.295E-02 0.159E-03
CGA:   9    -0.669317339823E+03   -0.83917E-03   -0.85178E-03  8424   0.111E-02-0.167E-03
CGA:  10    -0.669317646241E+03   -0.30642E-03   -0.30237E-03  8424   0.402E-03 0.527E-04
CGA:  11    -0.669317789065E+03   -0.14282E-03   -0.20564E-03  8424   0.408E-03-0.232E-03
CGA:  12    -0.669317847574E+03   -0.58509E-04   -0.65191E-04  8424   0.658E-04 0.951E-04
CGA:  13    -0.669317586162E+03    0.26141E-03   -0.14162E-03  8424   0.151E-02-0.306E-03
CGA:  14    -0.669317876066E+03   -0.28990E-03   -0.32197E-03  8424   0.198E-03 0.160E-03
CGA:  15    -0.669317963610E+03   -0.87544E-04   -0.84180E-04  8424   0.321E-03-0.188E-03
CGA:  16    -0.669317966596E+03   -0.29863E-05   -0.30932E-04  8424   0.421E-04 0.916E-04
  32 F= -.66931797E+03 E0= -.66931797E+03  d E =-.107855E+00  mag=     2.0000
       N       E                     dE             d eps       ncg     rms          ort
SDA:   1    -0.668954749571E+03    0.36321E+00    0.00000E+00  8424   0.122E+01 0.000E+00
CGA:   2    -0.669202773504E+03   -0.24802E+00   -0.24823E+00  8424   0.489E+00 0.531E-03
CGA:   3    -0.669304558718E+03   -0.10179E+00   -0.10173E+00  8424   0.162E+00-0.248E-03
CGA:   4    -0.669331500120E+03   -0.26941E-01   -0.26958E-01  8424   0.406E-01 0.481E-04
CGA:   5    -0.669338552974E+03   -0.70529E-02   -0.70682E-02  8424   0.848E-02 0.824E-04
CGA:   6    -0.669340199887E+03   -0.16469E-02   -0.16459E-02  8424   0.188E-02-0.819E-05
CGA:   7    -0.669340605457E+03   -0.40557E-03   -0.41257E-03  8424   0.548E-03 0.628E-04
CGA:   8    -0.669340733088E+03   -0.12763E-03   -0.13090E-03  8424   0.152E-03 0.349E-04
CGA:   9    -0.669340765367E+03   -0.32279E-04   -0.35588E-04  8424   0.440E-04 0.332E-04
CGA:  10    -0.669340769774E+03   -0.44069E-05   -0.87332E-05  8424   0.206E-04 0.283E-04
  33 F= -.66934077E+03 E0= -.66934077E+03  d E =-.228032E-01  mag=     2.0000
       N       E                     dE             d eps       ncg     rms          ort
SDA:   1    -0.669226289130E+03    0.11448E+00    0.00000E+00  8424   0.401E+00 0.000E+00
CGA:   2    -0.669307400274E+03   -0.81111E-01   -0.81140E-01  8424   0.159E+00 0.213E-03
CGA:   3    -0.669340565310E+03   -0.33165E-01   -0.33175E-01  8424   0.535E-01 0.863E-04
CGA:   4    -0.669349470598E+03   -0.89053E-02   -0.89084E-02  8424   0.134E-01 0.174E-04
CGA:   5    -0.669351798757E+03   -0.23282E-02   -0.23340E-02  8424   0.274E-02 0.516E-04
CGA:   6    -0.669352309864E+03   -0.51111E-03   -0.51926E-03  8424   0.594E-03 0.911E-04
CGA:   7    -0.669352427535E+03   -0.11767E-03   -0.12365E-03  8424   0.162E-03 0.826E-04
CGA:   8    -0.669352451765E+03   -0.24230E-04   -0.31092E-04  8424   0.503E-04 0.676E-04
CGA:   9    -0.669352451824E+03   -0.58717E-07   -0.73950E-05  8424   0.266E-04 0.454E-04
  34 F= -.66935245E+03 E0= -.66935245E+03  d E =-.116820E-01  mag=     2.0000
       N       E                     dE             d eps       ncg     rms          ort
SDA:   1    -0.668883445208E+03    0.46901E+00    0.00000E+00  8424   0.154E+01 0.000E+00
CGA:   2    -0.669210119519E+03   -0.32667E+00   -0.32672E+00  8424   0.636E+00 0.103E-02
CGA:   3    -0.669342146467E+03   -0.13203E+00   -0.13206E+00  8424   0.202E+00 0.742E-03
CGA:   4    -0.669375656369E+03   -0.33510E-01   -0.33515E-01  8424   0.511E-01 0.145E-04
CGA:   5    -0.669384459940E+03   -0.88036E-02   -0.88069E-02  8424   0.101E-01 0.390E-04
CGA:   6    -0.669386347057E+03   -0.18871E-02   -0.19035E-02  8424   0.239E-02 0.344E-03
CGA:   7    -0.669386842414E+03   -0.49536E-03   -0.50437E-03  8424   0.652E-03 0.301E-03
CGA:   8    -0.669386970867E+03   -0.12845E-03   -0.13823E-03  8424   0.201E-03 0.220E-03
CGA:   9    -0.669386985113E+03   -0.14246E-04   -0.32150E-04  8424   0.994E-04 0.161E-03
CGA:  10    -0.669386981771E+03    0.33421E-05   -0.83036E-05  8424   0.711E-04 0.823E-04
  35 F= -.66938698E+03 E0= -.66938698E+03  d E =-.345299E-01  mag=     2.0000
       N       E                     dE             d eps       ncg     rms          ort
SDA:   1    -0.656641882914E+03    0.12745E+02    0.00000E+00  8424   0.426E+02 0.000E+00
CGA:   2    -0.664523574818E+03   -0.78817E+01   -0.78909E+01  8424   0.160E+02 0.172E+00
CGA:   3    -0.667956120155E+03   -0.34325E+01   -0.34329E+01  8424   0.531E+01-0.455E-01
CGA:   4    -0.668866550737E+03   -0.91043E+00   -0.91087E+00  8424   0.135E+01 0.446E-02
CGA:   5    -0.669096064746E+03   -0.22951E+00   -0.22973E+00  8424   0.298E+00 0.422E-02
CGA:   6    -0.669153518627E+03   -0.57454E-01   -0.57437E-01  8424   0.666E-01-0.121E-02
CGA:   7    -0.669168258865E+03   -0.14740E-01   -0.14717E-01  8424   0.197E-01 0.141E-02
CGA:   8    -0.669173087471E+03   -0.48286E-02   -0.48132E-02  8424   0.577E-02 0.453E-03
CGA:   9    -0.669174737194E+03   -0.16497E-02   -0.16722E-02  8424   0.213E-02-0.298E-03
CGA:  10    -0.669175359379E+03   -0.62219E-03   -0.62153E-03  8424   0.907E-03 0.572E-05
CGA:  11    -0.669175684314E+03   -0.32493E-03   -0.39007E-03  8424   0.719E-03-0.308E-03
CGA:  12    -0.669175799858E+03   -0.11554E-03   -0.11527E-03  8424   0.370E-03 0.148E-04
CGA:  13    -0.669175888760E+03   -0.88903E-04   -0.23410E-03  8424   0.109E-02-0.376E-03
CGA:  14    -0.669176125255E+03   -0.23649E-03   -0.23679E-03  8424   0.191E-03 0.958E-05
CGA:  15    -0.669176162792E+03   -0.37537E-04   -0.16059E-03  8424   0.105E-02-0.212E-03
CGA:  16    -0.669176304979E+03   -0.14219E-03   -0.14950E-03  8424   0.161E-03 0.561E-04
CGA:  17    -0.669176251242E+03    0.53737E-04   -0.16176E-03  8424   0.112E-02-0.317E-03
CGA:  18    -0.669176447011E+03   -0.19577E-03   -0.21024E-03  8424   0.240E-03 0.127E-03
CGA:  19    -0.669176525073E+03   -0.78061E-04   -0.12589E-03  8424   0.547E-03-0.276E-03
CGA:  20    -0.669176579113E+03   -0.54041E-04   -0.71726E-04  8424   0.102E-03 0.102E-03
CGA:  21    -0.669176624920E+03   -0.45807E-04   -0.70795E-04  8424   0.231E-03-0.882E-04
CGA:  22    -0.669176653062E+03   -0.28143E-04   -0.15572E-03  8424   0.115E-02-0.352E-03
CGA:  23    -0.669176758784E+03   -0.10572E-03   -0.14072E-03  8424   0.127E-03 0.171E-03
CGA:  24    -0.669176806606E+03   -0.47822E-04   -0.48023E-04  8424   0.945E-04-0.212E-04
CGA:  25    -0.669176889709E+03   -0.83103E-04    0.19272E-04  8424   0.147E-03-0.120E-04
CGA:  26    -0.669177038015E+03   -0.14831E-03    0.25586E-04  8424   0.190E-03 0.893E-04
CGA:  27    -0.669177055449E+03   -0.17434E-04   -0.27504E-04  8424   0.545E-04 0.576E-04
CGA:  28    -0.669176744903E+03    0.31055E-03   -0.16877E-03  8424   0.210E-02-0.278E-03
CGA:  29    -0.669177355706E+03   -0.61080E-03   -0.54638E-03  8424   0.510E-03-0.211E-03
CGA:  30    -0.669177410745E+03   -0.55039E-04   -0.81435E-04  8424   0.729E-04 0.708E-04
CGA:  31    -0.669177441480E+03   -0.30735E-04   -0.26983E-04  8424   0.722E-04-0.185E-04
CGA:  32    -0.669177564272E+03   -0.12279E-03    0.11933E-04  8424   0.131E-03 0.127E-04
CGA:  33    -0.669177809599E+03   -0.24533E-03    0.77555E-04  8424   0.214E-03-0.842E-06
CGA:  34    -0.669178289727E+03   -0.48013E-03    0.48097E-04  8424   0.276E-03 0.118E-03
CGA:  35    -0.669178389202E+03   -0.99475E-04   -0.85247E-04  8424   0.860E-04-0.669E-04
CGA:  36    -0.669178414347E+03   -0.25145E-04   -0.25413E-04  8424   0.428E-04 0.190E-05
CGA:  37    -0.669178505516E+03   -0.91169E-04    0.10403E-04  8424   0.637E-04-0.107E-04
CGA:  38    -0.669178631460E+03   -0.12594E-03    0.75008E-05  8424   0.709E-04 0.296E-04
CGA:  39    -0.669178788860E+03   -0.15740E-03    0.52532E-04  8424   0.875E-04 0.105E-04
CGA:  40    -0.669179081537E+03   -0.29268E-03    0.13506E-04  8424   0.119E-03 0.310E-04
CGA:  41    -0.669179488449E+03   -0.40691E-03    0.27417E-04  8424   0.106E-03 0.292E-04
CGA:  42    -0.669179856512E+03   -0.36806E-03    0.18804E-04  8424   0.105E-03 0.252E-04
CGA:  43    -0.669180286931E+03   -0.43042E-03    0.14341E-04  8424   0.975E-04 0.348E-05
CGA:  44    -0.669180628695E+03   -0.34176E-03    0.10802E-04  8424   0.127E-03-0.313E-04
CGA:  45    -0.669181151007E+03   -0.52231E-03    0.43627E-05  8424   0.107E-03-0.174E-04
CGA:  46    -0.669181591481E+03   -0.44047E-03    0.63219E-05  8424   0.110E-03-0.610E-04
CGA:  47    -0.669181583242E+03    0.82387E-05   -0.11444E-04  8424   0.255E-04 0.492E-04
  36 F= -.66918158E+03 E0= -.66918158E+03  d E =0.205399E+00  mag=     2.0000
       N       E                     dE             d eps       ncg     rms          ort
SDA:   1    -0.665665888124E+03    0.35157E+01    0.00000E+00  8424   0.123E+02 0.000E+00
CGA:   2    -0.668077814468E+03   -0.24119E+01   -0.24241E+01  8424   0.473E+01-0.134E-01
CGA:   3    -0.669071610309E+03   -0.99380E+00   -0.99129E+00  8424   0.158E+01 0.809E-02
CGA:   4    -0.669337446994E+03   -0.26584E+00   -0.26635E+00  8424   0.404E+00 0.447E-03
CGA:   5    -0.669407844843E+03   -0.70398E-01   -0.70605E-01  8424   0.871E-01 0.488E-03
CGA:   6    -0.669424635427E+03   -0.16791E-01   -0.16715E-01  8424   0.192E-01-0.309E-03
CGA:   7    -0.669428846986E+03   -0.42116E-02   -0.42667E-02  8424   0.574E-02 0.306E-03
CGA:   8    -0.669430228841E+03   -0.13819E-02   -0.13975E-02  8424   0.169E-02 0.102E-03
CGA:   9    -0.669430672276E+03   -0.44343E-03   -0.45099E-03  8424   0.540E-03 0.608E-04
CGA:  10    -0.669430810603E+03   -0.13833E-03   -0.15019E-03  8424   0.215E-03 0.107E-03
CGA:  11    -0.669430884113E+03   -0.73511E-04   -0.77382E-04  8424   0.107E-03 0.526E-04
CGA:  12    -0.669430902036E+03   -0.17923E-04   -0.28736E-04  8424   0.613E-04 0.698E-04
CGA:  13    -0.669430912814E+03   -0.10778E-04   -0.15152E-04  8424   0.382E-04 0.378E-04
CGA:  14    -0.669430917303E+03   -0.44889E-05   -0.87860E-05  8424   0.342E-04 0.337E-04
  37 F= -.66943092E+03 E0= -.66943092E+03  d E =-.249334E+00  mag=     2.0000
       N       E                     dE             d eps       ncg     rms          ort
SDA:   1    -0.668646182988E+03    0.78473E+00    0.00000E+00  8424   0.262E+01 0.000E+00
CGA:   2    -0.669170119397E+03   -0.52394E+00   -0.52441E+00  8424   0.102E+01 0.128E-02
CGA:   3    -0.669385048490E+03   -0.21493E+00   -0.21487E+00  8424   0.346E+00-0.279E-03
CGA:   4    -0.669442394429E+03   -0.57346E-01   -0.57394E-01  8424   0.877E-01 0.170E-03
CGA:   5    -0.669457697646E+03   -0.15303E-01   -0.15342E-01  8424   0.183E-01 0.246E-03
CGA:   6    -0.669461236825E+03   -0.35392E-02   -0.35469E-02  8424   0.406E-02 0.603E-04
CGA:   7    -0.669462110545E+03   -0.87372E-03   -0.89098E-03  8424   0.122E-02 0.189E-03
CGA:   8    -0.669462389743E+03   -0.27920E-03   -0.29039E-03  8424   0.366E-03 0.143E-03
CGA:   9    -0.669462465843E+03   -0.76100E-04   -0.87489E-04  8424   0.138E-03 0.129E-03
CGA:  10    -0.669462481600E+03   -0.15757E-04   -0.30584E-04  8424   0.862E-04 0.111E-03
CGA:  11    -0.669462487204E+03   -0.56041E-05   -0.14017E-04  8424   0.595E-04 0.655E-04
  38 F= -.66946249E+03 E0= -.66946249E+03  d E =-.315699E-01  mag=     2.0000
       N       E                     dE             d eps       ncg     rms          ort
SDA:   1    -0.669420040447E+03    0.42441E-01    0.00000E+00  8424   0.160E+00 0.000E+00
CGA:   2    -0.669451942231E+03   -0.31902E-01   -0.31921E-01  8424   0.643E-01 0.227E-03
CGA:   3    -0.669465510885E+03   -0.13569E-01   -0.13575E-01  8424   0.217E-01 0.876E-04
CGA:   4    -0.669469123515E+03   -0.36126E-02   -0.36185E-02  8424   0.544E-02 0.533E-04
CGA:   5    -0.669470034988E+03   -0.91147E-03   -0.92338E-03  8424   0.108E-02 0.124E-03
CGA:   6    -0.669470220230E+03   -0.18524E-03   -0.19774E-03  8424   0.256E-03 0.154E-03
CGA:   7    -0.669470255872E+03   -0.35643E-04   -0.47016E-04  8424   0.103E-03 0.119E-03
CGA:   8    -0.669470260732E+03   -0.48598E-05   -0.17872E-04  8424   0.665E-04 0.974E-04
  39 F= -.66947026E+03 E0= -.66947026E+03  d E =-.777353E-02  mag=     2.0000
       N       E                     dE             d eps       ncg     rms          ort
SDA:   1    -0.668262578091E+03    0.12077E+01    0.00000E+00  8424   0.372E+01 0.000E+00
CGA:   2    -0.669066321703E+03   -0.80374E+00   -0.80383E+00  8424   0.161E+01 0.283E-02
CGA:   3    -0.669397892516E+03   -0.33157E+00   -0.33156E+00  8424   0.498E+00-0.500E-03
CGA:   4    -0.669479778546E+03   -0.81886E-01   -0.81860E-01  8424   0.122E+00-0.461E-03
CGA:   5    -0.669500579452E+03   -0.20801E-01   -0.20819E-01  8424   0.232E-01 0.273E-03
CGA:   6    -0.669505168123E+03   -0.45887E-02   -0.46067E-02  8424   0.561E-02 0.583E-03
CGA:   7    -0.669506384475E+03   -0.12164E-02   -0.12220E-02  8424   0.159E-02 0.397E-03
CGA:   8    -0.669506751070E+03   -0.36659E-03   -0.36984E-03  8424   0.475E-03 0.346E-03
CGA:   9    -0.669506822988E+03   -0.71918E-04   -0.91268E-04  8424   0.203E-03 0.285E-03
CGA:  10    -0.669506830087E+03   -0.70989E-05   -0.23611E-04  8424   0.131E-03 0.155E-03
CGA:  11    -0.669506826219E+03    0.38680E-05   -0.11532E-04  8424   0.110E-03 0.119E-03
  40 F= -.66950683E+03 E0= -.66950683E+03  d E =-.365655E-01  mag=     2.0000
       N       E                     dE             d eps       ncg     rms          ort
SDA:   1    -0.668953712118E+03    0.55312E+00    0.00000E+00  8424   0.190E+01 0.000E+00
CGA:   2    -0.669328357731E+03   -0.37465E+00   -0.37468E+00  8424   0.752E+00 0.317E-02
CGA:   3    -0.669490242969E+03   -0.16189E+00   -0.16188E+00  8424   0.266E+00 0.166E-03
CGA:   4    -0.669534382578E+03   -0.44140E-01   -0.44148E-01  8424   0.642E-01 0.148E-03
CGA:   5    -0.669545277673E+03   -0.10895E-01   -0.10897E-01  8424   0.122E-01 0.481E-04
CGA:   6    -0.669547728732E+03   -0.24511E-02   -0.24511E-02  8424   0.289E-02-0.194E-04
CGA:   7    -0.669548329559E+03   -0.60083E-03   -0.59915E-03  8424   0.783E-03 0.237E-03
CGA:   8    -0.669548500458E+03   -0.17090E-03   -0.17076E-03  8424   0.218E-03 0.196E-03
CGA:   9    -0.669548540052E+03   -0.39595E-04   -0.44493E-04  8424   0.953E-04 0.130E-03
CGA:  10    -0.669548547110E+03   -0.70577E-05   -0.12175E-04  8424   0.620E-04 0.718E-04
  41 F= -.66954855E+03 E0= -.66954855E+03  d E =-.417209E-01  mag=     2.0000
       N       E                     dE             d eps       ncg     rms          ort
SDA:   1    -0.668970227714E+03    0.57831E+00    0.00000E+00  8424   0.179E+01 0.000E+00
CGA:   2    -0.669368672575E+03   -0.39844E+00   -0.39839E+00  8424   0.805E+00 0.132E-02
CGA:   3    -0.669531368812E+03   -0.16270E+00   -0.16268E+00  8424   0.234E+00 0.129E-02
CGA:   4    -0.669569672560E+03   -0.38304E-01   -0.38302E-01  8424   0.568E-01-0.987E-04
CGA:   5    -0.669579568731E+03   -0.98962E-02   -0.98912E-02  8424   0.116E-01-0.301E-03
CGA:   6    -0.669581867056E+03   -0.22983E-02   -0.22977E-02  8424   0.277E-02 0.713E-04
CGA:   7    -0.669582468213E+03   -0.60116E-03   -0.59742E-03  8424   0.787E-03 0.156E-03
CGA:   8    -0.669582659369E+03   -0.19116E-03   -0.18674E-03  8424   0.240E-03 0.136E-03
CGA:   9    -0.669582718261E+03   -0.58892E-04   -0.57756E-04  8424   0.939E-04 0.984E-04
CGA:  10    -0.669582742505E+03   -0.24243E-04   -0.24742E-04  8424   0.543E-04 0.675E-04
CGA:  11    -0.669582752654E+03   -0.10149E-04   -0.10298E-04  8424   0.333E-04 0.364E-04
CGA:  12    -0.669582754622E+03   -0.19683E-05   -0.41324E-05  8424   0.294E-04 0.310E-04
  42 F= -.66958275E+03 E0= -.66958275E+03  d E =-.342075E-01  mag=     2.0000
       N       E                     dE             d eps       ncg     rms          ort
SDA:   1    -0.663947913405E+03    0.56348E+01    0.00000E+00  8424   0.179E+02 0.000E+00
CGA:   2    -0.667471080762E+03   -0.35232E+01   -0.35222E+01  8424   0.701E+01 0.550E-01
CGA:   3    -0.668965077673E+03   -0.14940E+01   -0.14943E+01  8424   0.240E+01-0.979E-02
CGA:   4    -0.669365963654E+03   -0.40089E+00   -0.40088E+00  8424   0.598E+00-0.118E-02
CGA:   5    -0.669467167781E+03   -0.10120E+00   -0.10123E+00  8424   0.114E+00 0.119E-02
CGA:   6    -0.669490087871E+03   -0.22920E-01   -0.22921E-01  8424   0.267E-01-0.112E-03
CGA:   7    -0.669496002916E+03   -0.59150E-02   -0.59043E-02  8424   0.784E-02 0.307E-03
CGA:   8    -0.669497937407E+03   -0.19345E-02   -0.19248E-02  8424   0.224E-02 0.178E-03
CGA:   9    -0.669498595348E+03   -0.65794E-03   -0.67394E-03  8424   0.926E-03-0.158E-03
CGA:  10    -0.669498836358E+03   -0.24101E-03   -0.23146E-03  8424   0.366E-03 0.131E-03
CGA:  11    -0.669498989003E+03   -0.15265E-03   -0.15256E-03  8424   0.222E-03-0.103E-05
CGA:  12    -0.669499067596E+03   -0.78593E-04   -0.72673E-04  8424   0.145E-03 0.478E-04
CGA:  13    -0.669499157031E+03   -0.89435E-04   -0.80425E-04  8424   0.156E-03 0.342E-04
CGA:  14    -0.669499305160E+03   -0.14813E-03   -0.15236E-03  8424   0.370E-03-0.194E-04
CGA:  15    -0.669499451048E+03   -0.14589E-03   -0.13748E-03  8424   0.407E-03 0.656E-05
CGA:  16    -0.669499615612E+03   -0.16456E-03   -0.26483E-03  8424   0.725E-03-0.359E-03
CGA:  17    -0.669499800126E+03   -0.18451E-03   -0.18694E-03  8424   0.161E-03 0.996E-04
CGA:  18    -0.669499921700E+03   -0.12157E-03   -0.15917E-03  8424   0.424E-03-0.650E-04
CGA:  19    -0.669499932833E+03   -0.11133E-04   -0.30952E-04  8424   0.325E-03 0.104E-03
CGA:  20    -0.669499958451E+03   -0.25618E-04   -0.51889E-04  8424   0.192E-03 0.150E-03
CGA:  21    -0.669500012927E+03   -0.54477E-04   -0.58706E-04  8424   0.127E-03 0.493E-04
CGA:  22    -0.669500027531E+03   -0.14604E-04   -0.87562E-04  8424   0.679E-03-0.282E-03
CGA:  23    -0.669500071978E+03   -0.44447E-04   -0.80771E-04  8424   0.128E-03 0.199E-03
CGA:  24    -0.669500092378E+03   -0.20399E-04   -0.27235E-04  8424   0.621E-04 0.536E-04
CGA:  25    -0.669499204154E+03    0.88822E-03   -0.48100E-03  8424   0.445E-02-0.677E-03
CGA:  26    -0.669499855654E+03   -0.65150E-03   -0.77822E-03  8424   0.108E-02 0.372E-03
CGA:  27    -0.669500206410E+03   -0.35076E-03   -0.32303E-03  8424   0.104E-03-0.123E-03
CGA:  28    -0.669500234868E+03   -0.28458E-04   -0.27809E-04  8424   0.461E-04-0.343E-05
CGA:  29    -0.669500247774E+03   -0.12905E-04   -0.10963E-04  8424   0.187E-04-0.832E-05
CGA:  30    -0.669500262301E+03   -0.14527E-04    0.49430E-03  8424   0.128E-04 0.573E-05
CGA:  31    -0.669500289605E+03   -0.27303E-04    0.53940E-05  8424   0.130E-04 0.659E-05
CGA:  32    -0.669500288778E+03    0.82649E-06   -0.15651E-05  8424   0.630E-05 0.680E-05
