       N       E                     dE             d eps       ncg     rms          ort
DAV:   1     0.826480411087E+04    0.82648E+04   -0.24648E+05  8424   0.238E+03
DAV:   2     0.915925890030E+03   -0.73489E+04   -0.68984E+04  8424   0.657E+02
DAV:   3    -0.675055957898E+03   -0.15910E+04   -0.13989E+04  8424   0.282E+02
DAV:   4    -0.830462940850E+03   -0.15541E+03   -0.15271E+03  8424   0.857E+01
DAV:   5    -0.832944159133E+03   -0.24812E+01   -0.24707E+01  8424   0.121E+01
SDA:   6    -0.245591482933E+03    0.58735E+03   -0.24707E+01  8424   0.481E+04 0.000E+00
CGA:   7    -0.477697412041E+03   -0.23211E+03   -0.43935E+03  8424   0.237E+04-0.365E+01
CGA:   8    -0.523455418433E+03   -0.45758E+02   -0.11052E+03  8424   0.121E+04-0.105E+04
CGA:   9    -0.619963068358E+03   -0.96508E+02   -0.11214E+02  8424   0.116E+04 0.201E+04
CGA:  10    -0.590258455267E+03    0.29705E+02   -0.63314E+02  8424   0.908E+04-0.393E+04
CGA:  11    -0.551734170250E+03    0.38524E+02   -0.64312E+03  8424   0.879E+03-0.489E+03
CGA:  12    -0.646939704082E+03   -0.95206E+02   -0.24735E+02  8424   0.768E+02 0.154E+03
CGA:  13    -0.653728914021E+03   -0.67892E+01   -0.31121E+01  8424   0.797E+02 0.492E+01
CGA:  14    -0.652196566406E+03    0.15323E+01   -0.44474E+01  8424   0.295E+03 0.148E+01
CGA:  15    -0.645584494353E+03    0.66121E+01   -0.76499E+01  8424   0.428E+03-0.492E+03
CGA:  16    -0.655087054315E+03   -0.95026E+01   -0.14644E+02  8424   0.192E+03 0.357E+02
CGA:  17    -0.656314858934E+03   -0.12278E+01   -0.11780E+02  8424   0.285E+03-0.108E+03
CGA:  18    -0.649646011363E+03    0.66688E+01   -0.14651E+02  8424   0.510E+03-0.150E+03
CGA:  19    -0.652181005164E+03   -0.25350E+01   -0.27712E+02  8424   0.396E+03-0.282E+03
CGA:  20    -0.654186684897E+03   -0.20057E+01   -0.20047E+02  8424   0.175E+03-0.697E+02
CGA:  21    -0.661540281717E+03   -0.73536E+01   -0.72044E+01  8424   0.115E+03-0.166E+03
CGA:  22    -0.659876874716E+03    0.16634E+01   -0.44088E+01  8424   0.239E+03-0.112E+03
CGA:  23    -0.654539727273E+03    0.53371E+01   -0.98356E+01  8424   0.234E+03-0.166E+03
CGA:  24    -0.657572128568E+03   -0.30324E+01   -0.97265E+01  8424   0.106E+03-0.107E+03
CGA:  25    -0.665174689305E+03   -0.76026E+01   -0.19796E+01  8424   0.975E+02-0.227E+03
CGA:  26    -0.663477877132E+03    0.16968E+01   -0.33475E+01  8424   0.224E+03-0.135E+03
CGA:  27    -0.659561557097E+03    0.39163E+01   -0.82890E+01  8424   0.325E+03-0.204E+03
CGA:  28    -0.657949975282E+03    0.16116E+01   -0.13092E+02  8424   0.105E+03-0.814E+02
CGA:  29    -0.666405419258E+03   -0.84554E+01   -0.22181E+01  8424   0.384E+02-0.136E+03
CGA:  30    -0.666896023371E+03   -0.49060E+00   -0.83938E+00  8424   0.173E+02-0.198E+02
CGA:  31    -0.667186357075E+03   -0.29033E+00   -0.34066E+00  8424   0.682E+01-0.314E+01
CGA:  32    -0.667652416786E+03   -0.46606E+00   -0.46597E+00  8424   0.407E+01-0.129E+00
CGA:  33    -0.667886636427E+03   -0.23422E+00   -0.26609E+00  8424   0.636E+00 0.590E+00
CGA:  34    -0.668021169950E+03   -0.13453E+00   -0.13793E+00  8424   0.180E+01-0.353E-01
CGA:  35    -0.668185252289E+03   -0.16408E+00   -0.16496E+00  8424   0.504E+00-0.774E-01
CGA:  36    -0.668218740818E+03   -0.33489E-01   -0.35036E-01  8424   0.316E+00 0.685E-02
CGA:  37    -0.668286170177E+03   -0.67429E-01   -0.73728E-01  8424   0.370E+00-0.403E-01
CGA:  38    -0.668345547463E+03   -0.59377E-01   -0.59426E-01  8424   0.230E+00-0.722E-02
CGA:  39    -0.668405385161E+03   -0.59838E-01   -0.66251E-01  8424   0.261E+00-0.292E-01
CGA:  40    -0.668445913824E+03   -0.40529E-01   -0.96811E-01  8424   0.506E+00-0.179E+00
CGA:  41    -0.668517066279E+03   -0.71152E-01   -0.71229E-01  8424   0.137E+00-0.816E-02
CGA:  42    -0.668568118892E+03   -0.51053E-01   -0.62280E-01  8424   0.287E+00-0.342E-01
CGA:  43    -0.668611623263E+03   -0.43504E-01   -0.45267E-01  8424   0.176E+00-0.317E-01
CGA:  44    -0.668655378624E+03   -0.43755E-01   -0.58646E-01  8424   0.226E+00-0.658E-01
CGA:  45    -0.668683077109E+03   -0.27698E-01   -0.35058E-01  8424   0.280E+00-0.774E-01
CGA:  46    -0.668718710419E+03   -0.35633E-01   -0.40199E-01  8424   0.305E+00-0.768E-01
CGA:  47    -0.668756253572E+03   -0.37543E-01   -0.37755E-01  8424   0.176E+00-0.472E-01
CGA:  48    -0.668787507004E+03   -0.31253E-01   -0.33066E-01  8424   0.137E+00-0.322E-01
CGA:  49    -0.668811531858E+03   -0.24025E-01   -0.25110E-01  8424   0.956E-01-0.187E-01
CGA:  50    -0.668830447101E+03   -0.18915E-01   -0.19266E-01  8424   0.852E-01-0.570E-02
CGA:  51    -0.668848522445E+03   -0.18075E-01   -0.18032E-01  8424   0.529E-01 0.454E-03
CGA:  52    -0.668858829587E+03   -0.10307E-01   -0.10211E-01  8424   0.362E-01 0.597E-02
CGA:  53    -0.668867561574E+03   -0.87320E-02   -0.84106E-02  8424   0.266E-01 0.102E-01
CGA:  54    -0.668873953309E+03   -0.63917E-02   -0.63270E-02  8424   0.172E-01 0.973E-02
CGA:  55    -0.668879103703E+03   -0.51504E-02   -0.48822E-02  8424   0.142E-01 0.941E-02
CGA:  56    -0.668882379401E+03   -0.32757E-02   -0.31626E-02  8424   0.721E-02 0.269E-02
CGA:  57    -0.668885513177E+03   -0.31338E-02   -0.26398E-02  8424   0.361E-02 0.392E-02
CGA:  58    -0.668886756337E+03   -0.12432E-02   -0.10550E-02  8424   0.241E-02 0.181E-02
CGA:  59    -0.668887536273E+03   -0.77994E-03   -0.65831E-03  8424   0.209E-02 0.152E-02
CGA:  60    -0.668888183295E+03   -0.64702E-03   -0.55798E-03  8424   0.193E-02 0.128E-02
CGA:  61    -0.668888729825E+03   -0.54653E-03   -0.48876E-03  8424   0.180E-02 0.110E-02
CGA:  62    -0.668889236673E+03   -0.50685E-03   -0.45820E-03  8424   0.175E-02 0.957E-03
CGA:  63    -0.668889695829E+03   -0.45916E-03   -0.42723E-03  8424   0.169E-02 0.829E-03
CGA:  64    -0.668890991808E+03   -0.12960E-02   -0.92438E-03  8424   0.136E-02 0.227E-02
CGA:  65    -0.668891454253E+03   -0.46244E-03   -0.41150E-03  8424   0.173E-02 0.586E-03
CGA:  66    -0.668893558093E+03   -0.21038E-02   -0.13698E-02  8424   0.919E-03 0.217E-02
CGA:  67    -0.668894762102E+03   -0.12040E-02   -0.77920E-03  8424   0.185E-02 0.678E-03
CGA:  68    -0.668895229938E+03   -0.46784E-03   -0.46327E-03  8424   0.198E-02-0.263E-03
CGA:  69    -0.668900366020E+03   -0.51361E-02   -0.84868E-02  8424   0.352E-02 0.122E-02
CGA:  70    -0.668900992176E+03   -0.62616E-03   -0.64819E-03  8424   0.106E-02 0.684E-04
CGA:  71    -0.668901726441E+03   -0.73427E-03   -0.80307E-03  8424   0.401E-02-0.271E-03
CGA:  72    -0.668903039168E+03   -0.13127E-02   -0.36793E-02  8424   0.361E-01-0.354E-02
CGA:  73    -0.668909711092E+03   -0.66719E-02   -0.68430E-02  8424   0.107E-01 0.644E-03
CGA:  74    -0.668911971690E+03   -0.22606E-02   -0.21449E-02  8424   0.117E-02-0.386E-03
CGA:  75    -0.668912311772E+03   -0.34008E-03   -0.33671E-03  8424   0.891E-03-0.226E-04
CGA:  76    -0.668912971936E+03   -0.66016E-03   -0.65228E-03  8424   0.215E-02 0.552E-05
CGA:  77    -0.668915142068E+03   -0.21701E-02   -0.31842E-02  8424   0.238E-01-0.138E-02
CGA:  78    -0.668918662293E+03   -0.35202E-02   -0.34736E-02  8424   0.370E-02-0.260E-03
CGA:  79    -0.668919931548E+03   -0.12693E-02   -0.12107E-02  8424   0.190E-02-0.310E-03
CGA:  80    -0.668920753727E+03   -0.82218E-03   -0.74090E-03  8424   0.213E-02-0.933E-03
CGA:  81    -0.668920587314E+03    0.16641E-03   -0.11756E-02  8424   0.139E-01-0.240E-02
CGA:  82    -0.668923189184E+03   -0.26019E-02   -0.23691E-02  8424   0.390E-02-0.717E-03
CGA:  83    -0.668924493791E+03   -0.13046E-02   -0.12981E-02  8424   0.164E-02-0.428E-04
CGA:  84    -0.668925036555E+03   -0.54276E-03   -0.50895E-03  8424   0.835E-03-0.178E-03
CGA:  85    -0.668924514838E+03    0.52172E-03   -0.11336E-02  8424   0.174E-01-0.165E-02
CGA:  86    -0.668926992236E+03   -0.24774E-02   -0.25110E-02  8424   0.163E-02 0.772E-04
CGA:  87    -0.668927621444E+03   -0.62921E-03   -0.59069E-03  8424   0.134E-02-0.229E-03
CGA:  88    -0.668928024344E+03   -0.40290E-03   -0.99883E-03  8424   0.846E-02-0.177E-02
CGA:  89    -0.668929161515E+03   -0.11372E-02   -0.12326E-02  8424   0.130E-02 0.269E-03
CGA:  90    -0.668929886889E+03   -0.72537E-03   -0.73969E-03  8424   0.186E-02-0.486E-03
CGA:  91    -0.668930472710E+03   -0.58582E-03   -0.48755E-03  8424   0.263E-02-0.966E-03
CGA:  92    -0.668931255555E+03   -0.78285E-03   -0.73621E-03  8424   0.153E-02-0.198E-03
CGA:  93    -0.668931871383E+03   -0.61583E-03   -0.55888E-03  8424   0.141E-02-0.520E-03
CGA:  94    -0.668932882337E+03   -0.10110E-02    0.25979E-02  8424   0.218E-02-0.202E-03
CGA:  95    -0.668909266157E+03    0.23616E-01   -0.12688E-01  8424   0.220E+00-0.115E-01
CGA:  96    -0.668943135868E+03   -0.33870E-01   -0.33691E-01  8424   0.253E-01-0.626E-02
CGA:  97    -0.668949170655E+03   -0.60348E-02   -0.60092E-02  8424   0.521E-02-0.343E-04
CGA:  98    -0.668950431003E+03   -0.12603E-02   -0.11519E-02  8424   0.195E-02-0.196E-03
CGA:  99    -0.668951576865E+03   -0.11459E-02   -0.98951E-03  8424   0.117E-02-0.566E-03
CGA: 100    -0.668950514954E+03    0.10619E-02   -0.14584E-02  8424   0.294E-01-0.268E-02
CGA: 101    -0.668954573585E+03   -0.40586E-02   -0.40748E-02  8424   0.299E-02 0.294E-03
CGA: 102    -0.668956025850E+03   -0.14523E-02   -0.12443E-02  8424   0.227E-02-0.528E-03
CGA: 103    -0.668956736156E+03   -0.71031E-03   -0.52989E-03  8424   0.133E-02-0.357E-03
CGA: 104    -0.668957040285E+03   -0.30413E-03   -0.13785E-02  8424   0.102E-01-0.234E-02
CGA: 105    -0.668959696378E+03   -0.26561E-02   -0.25596E-02  8424   0.261E-02-0.182E-03
CGA: 106    -0.668960539432E+03   -0.84305E-03   -0.64429E-03  8424   0.141E-02-0.398E-03
CGA: 107    -0.668961344856E+03   -0.80542E-03   -0.12016E-02  8424   0.646E-02-0.148E-02
CGA: 108    -0.668962556569E+03   -0.12117E-02   -0.10293E-02  8424   0.165E-02-0.360E-03
CGA: 109    -0.668963534518E+03   -0.97795E-03   -0.89258E-03  8424   0.185E-02-0.585E-03
CGA: 110    -0.668964383451E+03   -0.84893E-03   -0.84998E-03  8424   0.732E-02-0.199E-02
CGA: 111    -0.668965472628E+03   -0.10892E-02   -0.10933E-02  8424   0.167E-02 0.514E-04
CGA: 112    -0.668966690356E+03   -0.12177E-02   -0.14870E-02  8424   0.412E-02-0.136E-02
CGA: 113    -0.668967426038E+03   -0.73568E-03   -0.70028E-03  8424   0.106E-02-0.568E-04
CGA: 114    -0.668968061971E+03   -0.63593E-03   -0.91117E-03  8424   0.585E-02-0.138E-02
CGA: 115    -0.668968930050E+03   -0.86808E-03   -0.86873E-03  8424   0.111E-02 0.351E-04
CGA: 116    -0.668969653309E+03   -0.72326E-03   -0.68554E-03  8424   0.268E-02-0.104E-02
CGA: 117    -0.668970243067E+03   -0.58976E-03   -0.53596E-03  8424   0.846E-03-0.115E-03
CGA: 118    -0.668970758500E+03   -0.51543E-03   -0.48458E-03  8424   0.391E-02-0.110E-02
CGA: 119    -0.668971364509E+03   -0.60601E-03   -0.58440E-03  8424   0.717E-03-0.258E-04
CGA: 120    -0.668968427600E+03    0.29369E-02   -0.13333E-02  8424   0.285E-01-0.338E-02
CGA: 121    -0.668973298553E+03   -0.48710E-02   -0.49534E-02  8424   0.557E-02 0.391E-03
CGA: 122    -0.668974681802E+03   -0.13832E-02   -0.12008E-02  8424   0.583E-03-0.437E-03
CGA: 123    -0.668960648564E+03    0.14033E-01   -0.76002E-02  8424   0.988E-01-0.485E-02
CGA: 124    -0.668977549216E+03   -0.16901E-01   -0.16859E-01  8424   0.152E-01-0.372E-02
CGA: 125    -0.668980392429E+03   -0.28432E-02   -0.27940E-02  8424   0.144E-02 0.257E-04
CGA: 126    -0.668981265641E+03   -0.87321E-03   -0.61614E-03  8424   0.651E-03-0.425E-03
CGA: 127    -0.668982693310E+03   -0.14277E-02    0.42339E-03  8424   0.217E-02-0.319E-03
CGA: 128    -0.668989368728E+03   -0.66754E-02    0.27833E-03  8424   0.382E-02 0.131E-03
CGA: 129    -0.669002079010E+03   -0.12710E-01    0.36424E-02  8424   0.147E-01-0.291E-02
CGA: 130    -0.669005775660E+03   -0.36967E-02   -0.35041E-02  8424   0.924E-03-0.316E-03
CGA: 131    -0.669006540579E+03   -0.76492E-03   -0.59170E-03  8424   0.146E-02-0.557E-03
CGA: 132    -0.669007187677E+03   -0.64710E-03   -0.40556E-03  8424   0.533E-03-0.363E-03
CGA: 133    -0.668977429399E+03    0.29758E-01   -0.16229E-01  8424   0.243E+00-0.650E-02
CGA: 134    -0.669012220723E+03   -0.34791E-01   -0.39484E-01  8424   0.229E-01-0.337E-01
CGA: 135    -0.669014911298E+03   -0.26906E-02   -0.45543E-02  8424   0.679E-02-0.881E-04
CGA: 136    -0.669007661466E+03    0.72498E-02   -0.21519E-02  8424   0.245E-01 0.364E-02
CGA: 137    -0.668963037729E+03    0.44624E-01   -0.85532E-02  8424   0.133E+00 0.215E-01
CGA: 138    -0.668675477098E+03    0.28756E+00   -0.46165E-01  8424   0.742E+00 0.117E+00
CGA: 139    -0.667928659531E+03    0.74682E+00   -0.32099E+00  8424   0.220E+01 0.527E+00
CGA: 140    -0.667248398431E+03    0.68026E+00   -0.10645E+01  8424   0.292E+01 0.984E+00
CGA: 141    -0.664522340588E+03    0.27261E+01   -0.14175E+01  8424   0.491E+01 0.328E+01
CGA: 142    -0.665171366190E+03   -0.64903E+00   -0.22855E+01  8424   0.566E+01 0.361E+01
CGA: 143    -0.666505356861E+03   -0.13340E+01   -0.27505E+01  8424   0.553E+01 0.120E+01
CGA: 144    -0.664836902796E+03    0.16685E+01   -0.53391E+00  8424   0.535E+01 0.557E+01
CGA: 145    -0.666181965031E+03   -0.13451E+01   -0.15022E+01  8424   0.596E+01 0.156E+01
CGA: 146    -0.668047390471E+03   -0.18654E+01   -0.37214E+01  8424   0.172E+01-0.380E+00
CGA: 147    -0.668444888334E+03   -0.39750E+00   -0.64569E+00  8424   0.111E+01 0.883E-01
CGA: 148    -0.668687396139E+03   -0.24251E+00   -0.25734E+00  8424   0.446E+00 0.167E+00
CGA: 149    -0.668872596908E+03   -0.18520E+00   -0.19608E+00  8424   0.251E+00 0.293E-01
CGA: 150    -0.668938376447E+03   -0.65780E-01   -0.72069E-01  8424   0.154E+00 0.159E-01
CGA: 151    -0.668967319653E+03   -0.28943E-01   -0.44349E-01  8424   0.116E+00 0.140E-01
CGA: 152    -0.668990783605E+03   -0.23464E-01   -0.27780E-01  8424   0.526E-01-0.971E-02
CGA: 153    -0.669002778392E+03   -0.11995E-01   -0.11588E-01  8424   0.347E-01-0.392E-02
CGA: 154    -0.669013521692E+03   -0.10743E-01   -0.98663E-02  8424   0.249E-01-0.499E-02
CGA: 155    -0.669019488574E+03   -0.59669E-02   -0.55265E-02  8424   0.141E-01-0.209E-02
CGA: 156    -0.669023576452E+03   -0.40879E-02   -0.35469E-02  8424   0.104E-01-0.174E-02
CGA: 157    -0.669027263417E+03   -0.36870E-02   -0.29065E-02  8424   0.662E-02-0.216E-02
CGA: 158    -0.669029273916E+03   -0.20105E-02   -0.15455E-02  8424   0.507E-02-0.152E-02
CGA: 159    -0.669031181987E+03   -0.19081E-02   -0.13141E-02  8424   0.369E-02-0.130E-02
CGA: 160    -0.669032528160E+03   -0.13462E-02   -0.75564E-03  8424   0.302E-02-0.908E-03
CGA: 161    -0.669034090425E+03   -0.15623E-02   -0.13279E-02  8424   0.589E-02-0.313E-02
CGA: 162    -0.669035515726E+03   -0.14253E-02   -0.12938E-02  8424   0.342E-02-0.291E-03
CGA: 163    -0.669037639252E+03   -0.21235E-02   -0.22116E-02  8424   0.463E-02-0.150E-02
CGA: 164    -0.669038855884E+03   -0.12166E-02   -0.59304E-03  8424   0.241E-02-0.127E-02
CGA: 165    -0.669039962813E+03   -0.11069E-02   -0.96167E-03  8424   0.379E-02-0.230E-02
CGA: 166    -0.669040763398E+03   -0.80059E-03   -0.75144E-03  8424   0.145E-02-0.105E-03
CGA: 167    -0.669038872138E+03    0.18913E-02   -0.21689E-02  8424   0.287E-01-0.445E-02
CGA: 168    -0.669042839244E+03   -0.39671E-02   -0.41262E-02  8424   0.343E-02 0.551E-03
CGA: 169    -0.669044156728E+03   -0.13175E-02   -0.11015E-02  8424   0.126E-02-0.741E-03
CGA: 170    -0.669044409600E+03   -0.25287E-03   -0.99299E-03  8424   0.755E-02-0.182E-02
CGA: 171    -0.669046017516E+03   -0.16079E-02   -0.13415E-02  8424   0.138E-02-0.652E-03
CGA: 172    -0.669046461230E+03   -0.44371E-03   -0.34516E-03  8424   0.609E-03-0.309E-03
CGA: 173    -0.669047336431E+03   -0.87520E-03    0.22399E-03  8424   0.116E-02-0.436E-03
CGA: 174    -0.669047638839E+03   -0.30241E-03   -0.23080E-03  8424   0.403E-03-0.187E-03
CGA: 175    -0.669048402912E+03   -0.76407E-03    0.91726E-04  8424   0.101E-02-0.294E-03
CGA: 176    -0.669048632440E+03   -0.22953E-03   -0.17251E-03  8424   0.259E-03-0.145E-03
CGA: 177    -0.669049342759E+03   -0.71032E-03    0.30278E-04  8424   0.542E-03-0.109E-03
CGA: 178    -0.669051217226E+03   -0.18745E-02    0.18623E-04  8424   0.597E-03 0.307E-05
CGA: 179    -0.669054097566E+03   -0.28803E-02    0.46764E-04  8424   0.545E-03 0.327E-03
CGA: 180    -0.669054269150E+03   -0.17158E-03   -0.37248E-03  8424   0.584E-02-0.138E-02
CGA: 181    -0.669054979471E+03   -0.71032E-03   -0.73978E-03  8424   0.250E-03 0.114E-03
CGA: 182    -0.669055454233E+03   -0.47476E-03    0.86249E-04  8424   0.675E-03-0.260E-03
CGA: 183    -0.669055783080E+03   -0.32885E-03   -0.24716E-03  8424   0.710E-03-0.516E-03
CGA: 184    -0.669056153340E+03   -0.37026E-03   -0.25743E-03  8424   0.130E-02-0.736E-03
CGA: 185    -0.669056388579E+03   -0.23524E-03   -0.19581E-03  8424   0.141E-03-0.105E-03
CGA: 186    -0.669056928785E+03   -0.54021E-03    0.97466E-05  8424   0.270E-03-0.224E-04
CGA: 187    -0.669058405234E+03   -0.14764E-02    0.99094E-05  8424   0.200E-03 0.211E-03
CGA: 188    -0.669058809456E+03   -0.40422E-03    0.46510E-04  8424   0.396E-03-0.138E-03
CGA: 189    -0.669059222789E+03   -0.41333E-03    0.15132E-02  8424   0.124E-02-0.512E-03
CGA: 190    -0.669059480690E+03   -0.25790E-03   -0.21402E-03  8424   0.186E-03-0.133E-03
CGA: 191    -0.669059997402E+03   -0.51671E-03    0.17389E-04  8424   0.420E-03-0.978E-04
CGA: 192    -0.669060199311E+03   -0.20191E-03   -0.14971E-03  8424   0.921E-03-0.441E-03
CGA: 193    -0.669060545007E+03   -0.34570E-03   -0.20204E-03  8424   0.605E-03-0.579E-03
CGA: 194    -0.669060690339E+03   -0.14533E-03   -0.99732E-04  8424   0.157E-03-0.155E-03
CGA: 195    -0.669061243001E+03   -0.55266E-03    0.59496E-05  8424   0.859E-04 0.652E-04
CGA: 196    -0.669061918881E+03   -0.67588E-03    0.50820E-05  8424   0.959E-04 0.942E-04
CGA: 197    -0.669062338642E+03   -0.41976E-03    0.53697E-05  8424   0.350E-03-0.302E-04
CGA: 198    -0.669064194613E+03   -0.18560E-02    0.68482E-05  8424   0.102E-02 0.183E-03
CGA: 199    -0.669064347079E+03   -0.15247E-03   -0.12752E-03  8424   0.913E-04-0.771E-04
CGA: 200    -0.669064774490E+03   -0.42741E-03    0.36407E-05  8424   0.107E-03 0.449E-04
   1 F= -.66906477E+03 E0= -.66906477E+03  d E =-.669065E+03  mag=     2.0000
       N       E                     dE             d eps       ncg     rms          ort
SDA:   1    -0.669073272224E+03   -0.89251E-02    0.00000E+00  8424   0.723E-02 0.000E+00
CGA:   2    -0.669074989127E+03   -0.17169E-02   -0.16744E-02  8424   0.400E-02-0.216E-03
CGA:   3    -0.669075994839E+03   -0.10057E-02   -0.85507E-03  8424   0.155E-02-0.770E-03
CGA:   4    -0.669076419706E+03   -0.42487E-03   -0.31679E-03  8424   0.103E-02-0.706E-03
CGA:   5    -0.669076930761E+03   -0.51105E-03    0.79468E-03  8424   0.215E-02-0.892E-03
CGA:   6    -0.669077299886E+03   -0.36913E-03   -0.30879E-03  8424   0.575E-03-0.237E-03
CGA:   7    -0.669077773156E+03   -0.47327E-03    0.50386E-03  8424   0.501E-03-0.227E-03
CGA:   8    -0.669078427949E+03   -0.65479E-03    0.32679E-04  8424   0.430E-03-0.121E-03
CGA:   9    -0.669079362760E+03   -0.93481E-03    0.23233E-04  8424   0.422E-03-0.317E-04
CGA:  10    -0.669080610260E+03   -0.12475E-02    0.24047E-04  8424   0.359E-03 0.121E-03
CGA:  11    -0.669082051946E+03   -0.14417E-02    0.29455E-04  8424   0.326E-03 0.790E-04
CGA:  12    -0.669083583832E+03   -0.15319E-02    0.19209E-04  8424   0.394E-03 0.659E-04
CGA:  13    -0.669085841720E+03   -0.22579E-02    0.17751E-04  8424   0.392E-03 0.228E-03
CGA:  14    -0.669086153207E+03   -0.31149E-03    0.26467E-02  8424   0.525E-03-0.182E-03
CGA:  15    -0.669086764141E+03   -0.61093E-03    0.29900E-04  8424   0.866E-03-0.351E-03
CGA:  16    -0.669087017478E+03   -0.25334E-03   -0.21188E-03  8424   0.621E-03-0.293E-03
CGA:  17    -0.669087491650E+03   -0.47417E-03    0.14914E-03  8424   0.871E-03-0.448E-03
CGA:  18    -0.669087711293E+03   -0.21964E-03   -0.18075E-03  8424   0.417E-03-0.226E-03
CGA:  19    -0.669088123052E+03   -0.41176E-03    0.71735E-04  8424   0.634E-03-0.302E-03
CGA:  20    -0.669088292485E+03   -0.16943E-03   -0.13209E-03  8424   0.381E-03-0.230E-03
CGA:  21    -0.669088731958E+03   -0.43947E-03    0.29276E-04  8424   0.387E-03-0.173E-03
CGA:  22    -0.669089477383E+03   -0.74543E-03    0.98513E-05  8424   0.182E-03 0.152E-03
CGA:  23    -0.669090065373E+03   -0.58799E-03    0.20976E-04  8424   0.280E-03-0.145E-04
CGA:  24    -0.669091208278E+03   -0.11429E-02    0.91568E-05  8424   0.498E-03-0.721E-04
CGA:  25    -0.669093547689E+03   -0.23394E-02    0.86801E-05  8424   0.104E-02 0.194E-03
CGA:  26    -0.669098937278E+03   -0.53896E-02    0.62581E-04  8424   0.100E-02 0.438E-03
CGA:  27    -0.669104707138E+03   -0.57699E-02    0.56190E-04  8424   0.595E-03 0.533E-03
CGA:  28    -0.669104919328E+03   -0.21219E-03   -0.20904E-03  8424   0.713E-03-0.284E-03
CGA:  29    -0.669105230162E+03   -0.31083E-03    0.44454E-03  8424   0.113E-02-0.721E-03
CGA:  30    -0.669105496989E+03   -0.26683E-03   -0.24991E-03  8424   0.500E-03-0.120E-03
CGA:  31    -0.669101982846E+03    0.35141E-02   -0.68361E-03  8424   0.335E-01-0.358E-02
CGA:  32    -0.669105874010E+03   -0.38912E-02   -0.40181E-02  8424   0.356E-02 0.708E-03
CGA:  33    -0.669106975561E+03   -0.11016E-02   -0.10522E-02  8424   0.197E-03-0.451E-03
CGA:  34    -0.669107237660E+03   -0.26210E-03    0.35890E-04  8424   0.852E-04 0.268E-05
CGA:  35    -0.669107516898E+03   -0.27924E-03    0.54595E-05  8424   0.123E-03 0.261E-04
CGA:  36    -0.669108178202E+03   -0.66130E-03    0.74121E-05  8424   0.130E-03 0.755E-04
CGA:  37    -0.669108361057E+03   -0.18286E-03    0.32724E-04  8424   0.212E-03-0.450E-04
CGA:  38    -0.669108877125E+03   -0.51607E-03    0.73553E-05  8424   0.341E-03-0.607E-04
CGA:  39    -0.669109962311E+03   -0.10852E-02    0.10290E-04  8424   0.464E-03 0.144E-03
CGA:  40    -0.669111582268E+03   -0.16200E-02    0.61265E-04  8424   0.907E-03-0.643E-04
CGA:  41    -0.669115089243E+03   -0.35070E-02    0.32667E-04  8424   0.134E-02 0.168E-03
CGA:  42    -0.669120883402E+03   -0.57942E-02    0.86580E-04  8424   0.357E-02-0.429E-04
CGA:  43    -0.669137752932E+03   -0.16870E-01    0.13073E-03  8424   0.655E-02-0.340E-03
CGA:  44    -0.669172172303E+03   -0.34419E-01    0.18264E-03  8424   0.224E-01-0.108E-01
CGA:  45    -0.669175519973E+03   -0.33477E-02   -0.33206E-02  8424   0.361E-02-0.246E-03
CGA:  46    -0.669176130127E+03   -0.61015E-03   -0.73571E-03  8424   0.444E-03 0.716E-03
CGA:  47    -0.669176118166E+03    0.11962E-04   -0.72802E-04  8424   0.285E-03 0.359E-03
CGA:  48    -0.669176090614E+03    0.27551E-04   -0.32187E-04  8424   0.214E-03 0.241E-03
CGA:  49    -0.669176056367E+03    0.34248E-04   -0.18160E-04  8424   0.186E-03 0.199E-03
CGA:  50    -0.669176023644E+03    0.32722E-04   -0.13606E-04  8424   0.168E-03 0.177E-03
CGA:  51    -0.669175992890E+03    0.30755E-04   -0.10960E-04  8424   0.156E-03 0.162E-03
CGA:  52    -0.669175964064E+03    0.28825E-04   -0.92123E-05  8424   0.148E-03 0.152E-03
CGA:  53    -0.669175937028E+03    0.27036E-04   -0.79641E-05  8424   0.141E-03 0.144E-03
CGA:  54    -0.669175911627E+03    0.25400E-04   -0.70223E-05  8424   0.135E-03 0.138E-03
CGA:  55    -0.669175887720E+03    0.23907E-04   -0.62821E-05  8424   0.131E-03 0.133E-03
CGA:  56    -0.669175865179E+03    0.22541E-04   -0.56820E-05  8424   0.128E-03 0.129E-03
CGA:  57    -0.669175843894E+03    0.21285E-04   -0.51826E-05  8424   0.125E-03 0.126E-03
CGA:  58    -0.669175823767E+03    0.20128E-04   -0.47599E-05  8424   0.122E-03 0.123E-03
CGA:  59    -0.669175804710E+03    0.19057E-04   -0.43958E-05  8424   0.120E-03 0.121E-03
CGA:  60    -0.669175786648E+03    0.18062E-04   -0.40777E-05  8424   0.118E-03 0.119E-03
CGA:  61    -0.669175769512E+03    0.17136E-04   -0.37971E-05  8424   0.116E-03 0.117E-03
CGA:  62    -0.669175753239E+03    0.16273E-04   -0.35483E-05  8424   0.115E-03 0.115E-03
CGA:  63    -0.669175737771E+03    0.15468E-04   -0.33267E-05  8424   0.114E-03 0.114E-03
CGA:  64    -0.669175723054E+03    0.14716E-04   -0.31275E-05  8424   0.113E-03 0.113E-03
CGA:  65    -0.669175709045E+03    0.14010E-04   -0.29465E-05  8424   0.112E-03 0.112E-03
CGA:  66    -0.669175695701E+03    0.13343E-04   -0.27801E-05  8424   0.111E-03 0.111E-03
CGA:  67    -0.669175682988E+03    0.12713E-04   -0.26259E-05  8424   0.110E-03 0.110E-03
CGA:  68    -0.669175670872E+03    0.12116E-04   -0.24826E-05  8424   0.109E-03 0.110E-03
CGA:  69    -0.669175659322E+03    0.11550E-04   -0.23491E-05  8424   0.109E-03 0.109E-03
CGA:  70    -0.669175648308E+03    0.11014E-04   -0.22245E-05  8424   0.108E-03 0.108E-03
CGA:  71    -0.669175637803E+03    0.10505E-04   -0.21078E-05  8424   0.108E-03 0.108E-03
CGA:  72    -0.669175627782E+03    0.10021E-04   -0.19986E-05  8424   0.107E-03 0.107E-03
CGA:  73    -0.669175618222E+03    0.95608E-05   -0.18960E-05  8424   0.107E-03 0.107E-03
   2 F= -.66917562E+03 E0= -.66917562E+03  d E =-.110844E+00  mag=     2.0000
       N       E                     dE             d eps       ncg     rms          ort
SDA:   1    -0.668935815221E+03    0.23981E+00    0.00000E+00  8424   0.896E+00 0.000E+00
CGA:   2    -0.669166389571E+03   -0.23057E+00   -0.23010E+00  8424   0.429E+00 0.321E-02
CGA:   3    -0.669247473171E+03   -0.81084E-01   -0.81060E-01  8424   0.110E+00 0.314E-03
CGA:   4    -0.669265772014E+03   -0.18299E-01   -0.18266E-01  8424   0.270E-01 0.771E-03
CGA:   5    -0.669270326629E+03   -0.45546E-02   -0.45152E-02  8424   0.503E-02 0.996E-03
CGA:   6    -0.669271271357E+03   -0.94473E-03   -0.90166E-03  8424   0.115E-02 0.982E-03
CGA:   7    -0.669271419170E+03   -0.14781E-03   -0.15919E-03  8424   0.509E-03 0.760E-03
CGA:   8    -0.669271437808E+03   -0.18638E-04   -0.40050E-04  8424   0.352E-03 0.413E-03
CGA:   9    -0.669271437474E+03    0.33347E-06   -0.21212E-04  8424   0.293E-03 0.319E-03
CGA:  10    -0.669271432040E+03    0.54349E-05   -0.14772E-04  8424   0.258E-03 0.273E-03
CGA:  11    -0.669271424585E+03    0.74547E-05   -0.11317E-04  8424   0.234E-03 0.244E-03
   3 F= -.66927142E+03 E0= -.66927142E+03  d E =-.958064E-01  mag=     2.0000
       N       E                     dE             d eps       ncg     rms          ort
SDA:   1    -0.643872260280E+03    0.25399E+02    0.00000E+00  8424   0.674E+02 0.000E+00
CGA:   2    -0.661682334432E+03   -0.17810E+02   -0.17813E+02  8424   0.327E+02 0.259E-01
CGA:   3    -0.667662041667E+03   -0.59797E+01   -0.59744E+01  8424   0.807E+01 0.590E-01
CGA:   4    -0.669048401901E+03   -0.13864E+01   -0.13867E+01  8424   0.197E+01-0.816E-02
CGA:   5    -0.669383837694E+03   -0.33544E+00   -0.33544E+00  8424   0.409E+00-0.412E-03
CGA:   6    -0.669465767303E+03   -0.81930E-01   -0.81665E-01  8424   0.105E+00 0.367E-02
CGA:   7    -0.669490839511E+03   -0.25072E-01   -0.25047E-01  8424   0.362E-01 0.204E-03
CGA:   8    -0.669499994970E+03   -0.91555E-02   -0.88173E-02  8424   0.122E-01 0.318E-02
CGA:   9    -0.669503591682E+03   -0.35967E-02   -0.33738E-02  8424   0.433E-02 0.198E-02
CGA:  10    -0.669504910922E+03   -0.13192E-02   -0.11717E-02  8424   0.163E-02 0.174E-02
CGA:  11    -0.669505287025E+03   -0.37610E-03   -0.36607E-03  8424   0.713E-03 0.125E-02
CGA:  12    -0.669505374355E+03   -0.87330E-04   -0.96623E-04  8424   0.446E-03 0.540E-03
CGA:  13    -0.669505401716E+03   -0.27361E-04   -0.46596E-04  8424   0.367E-03 0.405E-03
CGA:  14    -0.669505414853E+03   -0.13137E-04   -0.33376E-04  8424   0.322E-03 0.345E-03
CGA:  15    -0.669505421156E+03   -0.63038E-05   -0.26292E-04  8424   0.292E-03 0.307E-03
CGA:  16    -0.669505423629E+03   -0.24722E-05   -0.21783E-04  8424   0.270E-03 0.281E-03
CGA:  17    -0.669505423746E+03   -0.11761E-06   -0.18612E-04  8424   0.252E-03 0.261E-03
CGA:  18    -0.669505422336E+03    0.14102E-05   -0.16236E-04  8424   0.238E-03 0.245E-03
CGA:  19    -0.669505419902E+03    0.24337E-05   -0.14375E-04  8424   0.226E-03 0.232E-03
CGA:  20    -0.669505416772E+03    0.31304E-05   -0.12873E-04  8424   0.216E-03 0.221E-03
CGA:  21    -0.669505413166E+03    0.36055E-05   -0.11629E-04  8424   0.208E-03 0.212E-03
CGA:  22    -0.669505409240E+03    0.39260E-05   -0.10581E-04  8424   0.200E-03 0.204E-03
   4 F= -.66950541E+03 E0= -.66950541E+03  d E =-.233985E+00  mag=     2.0000
       N       E                     dE             d eps       ncg     rms          ort
SDA:   1    -0.662684178420E+03    0.68212E+01    0.00000E+00  8424   0.207E+02 0.000E+00
CGA:   2    -0.667087048415E+03   -0.44029E+01   -0.43919E+01  8424   0.920E+01 0.109E+00
CGA:   3    -0.669049948249E+03   -0.19629E+01   -0.19648E+01  8424   0.286E+01-0.216E-01
CGA:   4    -0.669509737457E+03   -0.45979E+00   -0.45965E+00  8424   0.652E+00 0.304E-02
CGA:   5    -0.669620014746E+03   -0.11028E+00   -0.11014E+00  8424   0.129E+00 0.302E-02
CGA:   6    -0.669646623899E+03   -0.26609E-01   -0.26673E-01  8424   0.310E-01-0.859E-03
CGA:   7    -0.669653360582E+03   -0.67367E-02   -0.65974E-02  8424   0.830E-02 0.170E-02
CGA:   8    -0.669655383318E+03   -0.20227E-02   -0.19315E-02  8424   0.227E-02 0.108E-02
CGA:   9    -0.669656027587E+03   -0.64427E-03   -0.59185E-03  8424   0.787E-03 0.577E-03
CGA:  10    -0.669656200016E+03   -0.17243E-03   -0.16206E-03  8424   0.393E-03 0.539E-03
CGA:  11    -0.669656255553E+03   -0.55536E-04   -0.56327E-04  8424   0.241E-03 0.289E-03
CGA:  12    -0.669656276719E+03   -0.21166E-04   -0.27820E-04  8424   0.198E-03 0.217E-03
CGA:  13    -0.669656286856E+03   -0.10137E-04   -0.19099E-04  8424   0.176E-03 0.186E-03
CGA:  14    -0.669656292319E+03   -0.54632E-05   -0.14967E-04  8424   0.160E-03 0.167E-03
CGA:  15    -0.669656295156E+03   -0.28367E-05   -0.12398E-04  8424   0.149E-03 0.155E-03
CGA:  16    -0.669656296353E+03   -0.11968E-05   -0.10614E-04  8424   0.141E-03 0.145E-03
   5 F= -.66965630E+03 E0= -.66965630E+03  d E =-.150887E+00  mag=     2.0000
       N       E                     dE             d eps       ncg     rms          ort
SDA:   1    -0.649764802499E+03    0.19891E+02    0.00000E+00  8424   0.510E+02 0.000E+00
CGA:   2    -0.663015422703E+03   -0.13251E+02   -0.13233E+02  8424   0.276E+02 0.132E+00
CGA:   3    -0.668302602313E+03   -0.52872E+01   -0.52888E+01  8424   0.645E+01-0.279E-01
CGA:   4    -0.669304476336E+03   -0.10019E+01   -0.10018E+01  8424   0.142E+01 0.292E-02
CGA:   5    -0.669549404529E+03   -0.24493E+00   -0.24487E+00  8424   0.302E+00 0.133E-02
CGA:   6    -0.669612905523E+03   -0.63501E-01   -0.63579E-01  8424   0.740E-01-0.117E-02
CGA:   7    -0.669629236287E+03   -0.16331E-01   -0.16338E-01  8424   0.212E-01-0.972E-04
CGA:   8    -0.669634696861E+03   -0.54606E-02   -0.55185E-02  8424   0.748E-02-0.517E-03
CGA:   9    -0.669636905648E+03   -0.22088E-02   -0.24775E-02  8424   0.389E-02-0.145E-02
CGA:  10    -0.669637791365E+03   -0.88572E-03   -0.14302E-02  8424   0.339E-02-0.186E-02
CGA:  11    -0.669637406483E+03    0.38488E-03   -0.10353E-02  8424   0.637E-02-0.349E-02
CGA:  12    -0.669638674237E+03   -0.12678E-02   -0.12678E-02  8424   0.182E-02-0.986E-05
CGA:  13    -0.669639218829E+03   -0.54459E-03   -0.94590E-03  8424   0.359E-02-0.125E-02
CGA:  14    -0.669639735734E+03   -0.51690E-03   -0.51168E-03  8424   0.587E-03-0.733E-04
CGA:  15    -0.669638255057E+03    0.14807E-02   -0.80971E-03  8424   0.115E-01-0.201E-02
CGA:  16    -0.669640195449E+03   -0.19404E-02   -0.18806E-02  8424   0.266E-02-0.286E-03
CGA:  17    -0.669640786479E+03   -0.59103E-03   -0.56775E-03  8424   0.265E-03-0.150E-03
CGA:  18    -0.669641013902E+03   -0.22742E-03    0.18807E-03  8424   0.181E-03-0.125E-04
CGA:  19    -0.669641249582E+03   -0.23568E-03    0.36674E-04  8424   0.257E-03-0.254E-05
CGA:  20    -0.669641835466E+03   -0.58588E-03    0.21410E-04  8424   0.171E-03 0.161E-03
CGA:  21    -0.669642033238E+03   -0.19777E-03    0.53663E-04  8424   0.115E-03 0.319E-04
CGA:  22    -0.669642282328E+03   -0.24909E-03    0.16829E-04  8424   0.130E-03 0.406E-04
CGA:  23    -0.669642740045E+03   -0.45772E-03    0.12558E-04  8424   0.127E-03 0.117E-03
CGA:  24    -0.669642908178E+03   -0.16813E-03    0.29049E-04  8424   0.105E-03 0.292E-04
CGA:  25    -0.669643194368E+03   -0.28619E-03    0.11760E-04  8424   0.920E-04 0.654E-04
CGA:  26    -0.669643343886E+03   -0.14952E-03    0.13817E-04  8424   0.136E-03 0.115E-04
CGA:  27    -0.669643729825E+03   -0.38594E-03    0.11344E-04  8424   0.106E-03 0.880E-04
CGA:  28    -0.669643882952E+03   -0.15313E-03    0.20054E-04  8424   0.739E-04 0.244E-04
CGA:  29    -0.669644145740E+03   -0.26279E-03    0.56310E-05  8424   0.723E-04 0.725E-04
CGA:  30    -0.669644295659E+03   -0.14992E-03    0.72249E-05  8424   0.575E-04 0.396E-04
CGA:  31    -0.669644459619E+03   -0.16396E-03    0.36335E-05  8424   0.677E-04 0.363E-04
CGA:  32    -0.669644574755E+03   -0.11514E-03    0.93798E-05  8424   0.120E-03 0.109E-04
CGA:  33    -0.669645000102E+03   -0.42535E-03    0.80351E-05  8424   0.871E-04 0.130E-03
CGA:  34    -0.669645175268E+03   -0.17517E-03    0.91343E-05  8424   0.169E-03-0.214E-04
CGA:  35    -0.669645594587E+03   -0.41932E-03    0.66395E-05  8424   0.232E-03 0.982E-04
CGA:  36    -0.669645667689E+03   -0.73102E-04   -0.63627E-04  8424   0.191E-03-0.103E-03
CGA:  37    -0.669645948869E+03   -0.28118E-03    0.71643E-05  8424   0.173E-03 0.357E-04
CGA:  38    -0.669646360989E+03   -0.41212E-03    0.20880E-04  8424   0.170E-03 0.454E-04
CGA:  39    -0.669646818305E+03   -0.45732E-03    0.19849E-04  8424   0.227E-03 0.478E-04
CGA:  40    -0.669647670642E+03   -0.85234E-03    0.17260E-04  8424   0.189E-03 0.210E-03
CGA:  41    -0.669647846112E+03   -0.17547E-03    0.11957E-03  8424   0.407E-03-0.184E-03
CGA:  42    -0.669647903254E+03   -0.57142E-04   -0.58280E-04  8424   0.428E-04 0.506E-05
CGA:  43    -0.669648048892E+03   -0.14564E-03    0.20029E-05  8424   0.448E-04 0.386E-04
CGA:  44    -0.669648187002E+03   -0.13811E-03    0.23145E-05  8424   0.561E-04 0.255E-04
CGA:  45    -0.669648298711E+03   -0.11171E-03    0.53328E-05  8424   0.971E-04 0.324E-05
CGA:  46    -0.669648655273E+03   -0.35656E-03    0.45509E-05  8424   0.847E-04 0.994E-04
CGA:  47    -0.669648797409E+03   -0.14214E-03    0.10652E-04  8424   0.190E-03-0.496E-04
CGA:  48    -0.669648855072E+03   -0.57663E-04   -0.45224E-04  8424   0.177E-03-0.111E-03
CGA:  49    -0.669648977678E+03   -0.12261E-03    0.11937E-01  8424   0.551E-03-0.233E-03
CGA:  50    -0.669649057584E+03   -0.79905E-04   -0.72980E-04  8424   0.442E-04-0.328E-04
CGA:  51    -0.669649188903E+03   -0.13132E-03    0.18633E-05  8424   0.368E-04 0.357E-04
CGA:  52    -0.669649316679E+03   -0.12778E-03    0.14688E-05  8424   0.448E-04 0.292E-04
CGA:  53    -0.669649416911E+03   -0.10023E-03    0.31886E-05  8424   0.840E-04 0.110E-04
CGA:  54    -0.669649771145E+03   -0.35423E-03    0.43044E-05  8424   0.489E-04 0.996E-04
CGA:  55    -0.669649904836E+03   -0.13369E-03    0.26396E-05  8424   0.102E-03 0.720E-07
CGA:  56    -0.669650272163E+03   -0.36733E-03    0.39280E-05  8424   0.986E-04 0.971E-04
CGA:  57    -0.669649970989E+03    0.30117E-03   -0.10874E-03  8424   0.495E-02-0.535E-03
CGA:  58    -0.669650692693E+03   -0.72170E-03   -0.60751E-03  8424   0.167E-03-0.467E-03
CGA:  59    -0.669650745588E+03   -0.52895E-04   -0.59254E-04  8424   0.548E-03-0.200E-03
CGA:  60    -0.669650893179E+03   -0.14759E-03   -0.98035E-04  8424   0.234E-03-0.272E-03
CGA:  61    -0.669651047970E+03   -0.15479E-03    0.24279E-04  8424   0.105E-03-0.317E-05
CGA:  62    -0.669651260974E+03   -0.21300E-03    0.96399E-05  8424   0.715E-04 0.662E-05
CGA:  63    -0.669651515497E+03   -0.25452E-03    0.35782E-05  8424   0.370E-04 0.633E-04
CGA:  64    -0.669651631378E+03   -0.11588E-03    0.18915E-05  8424   0.359E-04 0.213E-04
CGA:  65    -0.669651751002E+03   -0.11962E-03    0.17034E-05  8424   0.394E-04 0.198E-04
CGA:  66    -0.669651858998E+03   -0.10800E-03    0.24132E-05  8424   0.553E-04 0.114E-04
CGA:  67    -0.669652143135E+03   -0.28414E-03    0.26953E-05  8424   0.428E-04 0.648E-04
CGA:  68    -0.669652257382E+03   -0.11425E-03    0.27100E-05  8424   0.467E-04 0.105E-04
CGA:  69    -0.669652496046E+03   -0.23866E-03    0.21262E-05  8424   0.446E-04 0.524E-04
CGA:  70    -0.669652610348E+03   -0.11430E-03    0.29872E-05  8424   0.354E-04 0.130E-04
CGA:  71    -0.669652809834E+03   -0.19949E-03    0.15560E-05  8424   0.390E-04 0.444E-04
CGA:  72    -0.669652923804E+03   -0.11397E-03    0.21893E-05  8424   0.291E-04 0.183E-04
CGA:  73    -0.669653115191E+03   -0.19139E-03    0.14117E-05  8424   0.344E-04 0.409E-04
CGA:  74    -0.669653226177E+03   -0.11099E-03    0.16967E-05  8424   0.261E-04 0.209E-04
CGA:  75    -0.669653334450E+03   -0.10827E-03    0.94405E-06  8424   0.246E-04 0.237E-04
CGA:  76    -0.669653443518E+03   -0.10907E-03    0.82178E-06  8424   0.242E-04 0.239E-04
CGA:  77    -0.669653549560E+03   -0.10604E-03    0.82121E-06  8424   0.241E-04 0.237E-04
CGA:  78    -0.669653659417E+03   -0.10986E-03    0.78098E-06  8424   0.245E-04 0.231E-04
CGA:  79    -0.669653761281E+03   -0.10186E-03    0.88523E-06  8424   0.266E-04 0.217E-04
CGA:  80    -0.669653874794E+03   -0.11351E-03    0.92826E-06  8424   0.353E-04 0.170E-04
CGA:  81    -0.669653960990E+03   -0.86195E-04    0.25240E-05  8424   0.721E-04-0.128E-05
CGA:  82    -0.669654281003E+03   -0.32001E-03    0.22137E-05  8424   0.736E-04 0.681E-04
CGA:  83    -0.669654396626E+03   -0.11562E-03    0.10590E-04  8424   0.255E-03-0.863E-04
CGA:  84    -0.669654435722E+03   -0.39096E-04   -0.33810E-04  8424   0.308E-04-0.238E-04
CGA:  85    -0.669654551396E+03   -0.11567E-03    0.93880E-06  8424   0.220E-04 0.233E-04
CGA:  86    -0.669654650170E+03   -0.98774E-04    0.67595E-06  8424   0.239E-04 0.200E-04
CGA:  87    -0.669654746951E+03   -0.96782E-04    0.82775E-06  8424   0.342E-04 0.151E-04
CGA:  88    -0.669654838485E+03   -0.91534E-04    0.19967E-05  8424   0.883E-04-0.897E-05
CGA:  89    -0.669655182036E+03   -0.34355E-03    0.16542E-05  8424   0.163E-03 0.587E-04
CGA:  90    -0.669655237438E+03   -0.55402E-04   -0.38706E-04  8424   0.251E-03-0.161E-03
CGA:  91    -0.669655296878E+03   -0.59440E-04   -0.40313E-04  8424   0.909E-04-0.108E-03
CGA:  92    -0.669655432641E+03   -0.13576E-03    0.28131E-05  8424   0.224E-04 0.227E-04
CGA:  93    -0.669655540956E+03   -0.10831E-03    0.93107E-06  8424   0.240E-04 0.226E-04
CGA:  94    -0.669655649683E+03   -0.10873E-03    0.66642E-06  8424   0.362E-04 0.942E-05
CGA:  95    -0.669655863783E+03   -0.21410E-03    0.15093E-05  8424   0.231E-04 0.470E-04
CGA:  96    -0.669655936303E+03   -0.72520E-04    0.99627E-06  8424   0.277E-04 0.111E-04
CGA:  97    -0.669656134801E+03   -0.19850E-03    0.10517E-05  8424   0.225E-04 0.390E-04
CGA:  98    -0.669656223327E+03   -0.88526E-04    0.73722E-06  8424   0.221E-04 0.123E-04
CGA:  99    -0.669656302036E+03   -0.78709E-04    0.81515E-06  8424   0.212E-04 0.125E-04
CGA: 100    -0.669656393626E+03   -0.91590E-04    0.61837E-06  8424   0.202E-04 0.131E-04
CGA: 101    -0.669656466533E+03   -0.72907E-04    0.73453E-06  8424   0.197E-04 0.135E-04
CGA: 102    -0.669656561745E+03   -0.95213E-04    0.50468E-06  8424   0.198E-04 0.132E-04
CGA: 103    -0.669656628077E+03   -0.66332E-04    0.79260E-06  8424   0.209E-04 0.122E-04
CGA: 104    -0.669656727867E+03   -0.99790E-04    0.54275E-06  8424   0.231E-04 0.103E-04
CGA: 105    -0.669656897889E+03   -0.17002E-03    0.86775E-06  8424   0.198E-04 0.336E-04
CGA: 106    -0.669656958746E+03   -0.60857E-04    0.87710E-06  8424   0.212E-04 0.105E-04
CGA: 107    -0.669657060451E+03   -0.10171E-03    0.54977E-06  8424   0.240E-04 0.801E-05
CGA: 108    -0.669657227341E+03   -0.16689E-03    0.80972E-06  8424   0.207E-04 0.323E-04
CGA: 109    -0.669657281071E+03   -0.53730E-04    0.11464E-05  8424   0.229E-04 0.757E-05
CGA: 110    -0.669657446939E+03   -0.16587E-03    0.72218E-06  8424   0.202E-04 0.304E-04
CGA: 111    -0.669657544953E+03   -0.98014E-04    0.51847E-06  8424   0.212E-04 0.742E-05
CGA: 112    -0.669657696654E+03   -0.15170E-03    0.68158E-06  8424   0.196E-04 0.281E-04
CGA: 113    -0.669657751372E+03   -0.54718E-04    0.98532E-06  8424   0.189E-04 0.777E-05
CGA: 114    -0.669657899627E+03   -0.14826E-03    0.57200E-06  8424   0.186E-04 0.254E-04
CGA: 115    -0.669657987213E+03   -0.87586E-04    0.49223E-06  8424   0.163E-04 0.859E-05
CGA: 116    -0.669658119744E+03   -0.13253E-03    0.52437E-06  8424   0.173E-04 0.230E-04
CGA: 117    -0.669658181009E+03   -0.61265E-04    0.64507E-06  8424   0.143E-04 0.938E-05
CGA: 118    -0.669658261109E+03   -0.80100E-04    0.31087E-06  8424   0.133E-04 0.108E-04
CGA: 119    -0.669658321412E+03   -0.60303E-04    0.36669E-06  8424   0.129E-04 0.111E-04
CGA: 120    -0.669658400322E+03   -0.78910E-04    0.25410E-06  8424   0.128E-04 0.110E-04
CGA: 121    -0.669658458986E+03   -0.58664E-04    0.34993E-06  8424   0.129E-04 0.107E-04
CGA: 122    -0.669658538547E+03   -0.79561E-04    0.24915E-06  8424   0.131E-04 0.103E-04
CGA: 123    -0.669658593663E+03   -0.55117E-04    0.39387E-06  8424   0.135E-04 0.964E-05
CGA: 124    -0.669658675588E+03   -0.81924E-04    0.26841E-06  8424   0.143E-04 0.873E-05
CGA: 125    -0.669658725188E+03   -0.49600E-04    0.54614E-06  8424   0.156E-04 0.740E-05
CGA: 126    -0.669658811241E+03   -0.86053E-04    0.34524E-06  8424   0.178E-04 0.541E-05
CGA: 127    -0.669658952267E+03   -0.14103E-03    0.49006E-06  8424   0.154E-04 0.235E-04
CGA: 128    -0.669658994663E+03   -0.42396E-04    0.78575E-06  8424   0.176E-04 0.465E-05
CGA: 129    -0.669659134456E+03   -0.13979E-03    0.45297E-06  8424   0.154E-04 0.225E-04
CGA: 130    -0.669659221214E+03   -0.86757E-04    0.33217E-06  8424   0.178E-04 0.364E-05
CGA: 131    -0.669659356099E+03   -0.13489E-03    0.43041E-06  8424   0.159E-04 0.216E-04
CGA: 132    -0.669659390719E+03   -0.34621E-04    0.11136E-05  8424   0.184E-04 0.221E-05
CGA: 133    -0.669659524041E+03   -0.13332E-03    0.39517E-06  8424   0.170E-04 0.206E-04
CGA: 134    -0.669659613573E+03   -0.89533E-04    0.39455E-06  8424   0.198E-04 0.865E-07
CGA: 135    -0.669659743365E+03   -0.12979E-03    0.36564E-06  8424   0.192E-04 0.196E-04
CGA: 136    -0.669659766217E+03   -0.22853E-04    0.38717E-05  8424   0.225E-04-0.319E-05
CGA: 137    -0.669659891386E+03   -0.12517E-03    0.33523E-06  8424   0.232E-04 0.183E-04
CGA: 138    -0.669659989571E+03   -0.98185E-04    0.69634E-06  8424   0.270E-04-0.818E-05
CGA: 139    -0.669660113639E+03   -0.12407E-03    0.29069E-06  8424   0.295E-04 0.169E-04
CGA: 140    -0.669660119698E+03   -0.60591E-05   -0.61697E-05  8424   0.105E-04 0.866E-06
   6 F= -.66966012E+03 E0= -.66966012E+03  d E =-.382335E-02  mag=     2.0000
       N       E                     dE             d eps       ncg     rms          ort
SDA:   1    -0.632390544231E+03    0.37270E+02    0.00000E+00  8424   0.113E+03 0.000E+00
CGA:   2    -0.655775832187E+03   -0.23385E+02   -0.23590E+02  8424   0.496E+02 0.778E-01
CGA:   3    -0.666318180978E+03   -0.10542E+02   -0.10517E+02  8424   0.146E+02 0.444E-01
CGA:   4    -0.668721978391E+03   -0.24038E+01   -0.24066E+01  8424   0.346E+01 0.908E-02
CGA:   5    -0.669305665871E+03   -0.58369E+00   -0.58503E+00  8424   0.711E+00 0.294E-02
CGA:   6    -0.669450815585E+03   -0.14515E+00   -0.14511E+00  8424   0.169E+00-0.222E-03
CGA:   7    -0.669489661113E+03   -0.38846E-01   -0.38915E-01  8424   0.511E-01 0.106E-02
CGA:   8    -0.669501897512E+03   -0.12236E-01   -0.12307E-01  8424   0.156E-01 0.142E-02
CGA:   9    -0.669506416460E+03   -0.45189E-02   -0.45197E-02  8424   0.578E-02 0.141E-03
CGA:  10    -0.669507919517E+03   -0.15031E-02   -0.15272E-02  8424   0.204E-02 0.986E-03
CGA:  11    -0.669508514344E+03   -0.59483E-03   -0.61017E-03  8424   0.630E-03 0.523E-03
CGA:  12    -0.669508616952E+03   -0.10261E-03   -0.14349E-03  8424   0.271E-03 0.399E-03
CGA:  13    -0.669508620714E+03   -0.37616E-05   -0.35282E-04  8424   0.178E-03 0.212E-03
CGA:  14    -0.669508614386E+03    0.63280E-05   -0.19662E-04  8424   0.148E-03 0.161E-03
CGA:  15    -0.669508604317E+03    0.10069E-04   -0.13725E-04  8424   0.132E-03 0.140E-03
CGA:  16    -0.669508593283E+03    0.11034E-04   -0.10871E-04  8424   0.122E-03 0.127E-03
CGA:  17    -0.669508582066E+03    0.11217E-04   -0.91016E-05  8424   0.115E-03 0.118E-03
CGA:  18    -0.669508570979E+03    0.11087E-04   -0.78653E-05  8424   0.109E-03 0.112E-03
CGA:  19    -0.669508560162E+03    0.10816E-04   -0.69380E-05  8424   0.105E-03 0.107E-03
CGA:  20    -0.669508549685E+03    0.10477E-04   -0.62088E-05  8424   0.101E-03 0.103E-03
CGA:  21    -0.669508539577E+03    0.10108E-04   -0.56156E-05  8424   0.984E-04 0.999E-04
CGA:  22    -0.669508529850E+03    0.97273E-05   -0.51201E-05  8424   0.959E-04 0.971E-04
   7 F= -.66950853E+03 E0= -.66950853E+03  d E =0.151590E+00  mag=     2.0000
       N       E                     dE             d eps       ncg     rms          ort
SDA:   1    -0.662112332281E+03    0.73962E+01    0.00000E+00  8424   0.247E+02 0.000E+00
CGA:   2    -0.667029713142E+03   -0.49174E+01   -0.49161E+01  8424   0.976E+01 0.888E-01
CGA:   3    -0.669115735137E+03   -0.20860E+01   -0.20865E+01  8424   0.321E+01-0.175E-01
CGA:   4    -0.669650405581E+03   -0.53467E+00   -0.53475E+00  8424   0.805E+00 0.170E-02
CGA:   5    -0.669788127697E+03   -0.13772E+00   -0.13778E+00  8424   0.163E+00 0.238E-02
CGA:   6    -0.669820933813E+03   -0.32806E-01   -0.32815E-01  8424   0.366E-01-0.803E-03
CGA:   7    -0.669828966749E+03   -0.80329E-02   -0.79956E-02  8424   0.105E-01 0.125E-02
CGA:   8    -0.669831492035E+03   -0.25253E-02   -0.24920E-02  8424   0.287E-02 0.848E-03
CGA:   9    -0.669832288906E+03   -0.79687E-03   -0.77638E-03  8424   0.921E-03 0.359E-03
CGA:  10    -0.669832481566E+03   -0.19266E-03   -0.19580E-03  8424   0.374E-03 0.453E-03
CGA:  11    -0.669832543143E+03   -0.61577E-04   -0.79268E-04  8424   0.201E-03 0.330E-03
CGA:  12    -0.669832559025E+03   -0.15882E-04   -0.25873E-04  8424   0.133E-03 0.155E-03
CGA:  13    -0.669832557046E+03    0.19783E-05   -0.11133E-04  8424   0.115E-03 0.123E-03
   8 F= -.66983256E+03 E0= -.66983256E+03  d E =-.324027E+00  mag=     2.0000
       N       E                     dE             d eps       ncg     rms          ort
SDA:   1    -0.667828889634E+03    0.20037E+01    0.00000E+00  8424   0.569E+01 0.000E+00
CGA:   2    -0.669118865131E+03   -0.12900E+01   -0.12894E+01  8424   0.269E+01 0.980E-02
CGA:   3    -0.669668493534E+03   -0.54963E+00   -0.54966E+00  8424   0.765E+00-0.127E-02
CGA:   4    -0.669790370470E+03   -0.12188E+00   -0.12191E+00  8424   0.175E+00 0.115E-02
CGA:   5    -0.669820292755E+03   -0.29922E-01   -0.29936E-01  8424   0.350E-01 0.119E-02
CGA:   6    -0.669827418129E+03   -0.71254E-02   -0.71131E-02  8424   0.815E-02 0.580E-03
CGA:   7    -0.669829110584E+03   -0.16925E-02   -0.16722E-02  8424   0.214E-02 0.102E-02
CGA:   8    -0.669829540401E+03   -0.42982E-03   -0.43234E-03  8424   0.656E-03 0.781E-03
CGA:   9    -0.669829621614E+03   -0.81213E-04   -0.11152E-03  8424   0.333E-03 0.522E-03
CGA:  10    -0.669829627157E+03   -0.55434E-05   -0.30136E-04  8424   0.239E-03 0.276E-03
CGA:  11    -0.669829620949E+03    0.62077E-05   -0.16833E-04  8424   0.204E-03 0.220E-03
CGA:  12    -0.669829611960E+03    0.89893E-05   -0.12237E-04  8424   0.184E-03 0.193E-03
   9 F= -.66982961E+03 E0= -.66982961E+03  d E =0.294509E-02  mag=     2.0000
       N       E                     dE             d eps       ncg     rms          ort
SDA:   1    -0.655811401953E+03    0.14018E+02    0.00000E+00  8424   0.357E+02 0.000E+00
CGA:   2    -0.665123673050E+03   -0.93123E+01   -0.93018E+01  8424   0.192E+02 0.906E-01
CGA:   3    -0.668790686653E+03   -0.36670E+01   -0.36676E+01  8424   0.444E+01-0.178E-01
CGA:   4    -0.669484211636E+03   -0.69352E+00   -0.69355E+00  8424   0.100E+01 0.121E-02
CGA:   5    -0.669656462941E+03   -0.17225E+00   -0.17224E+00  8424   0.211E+00 0.127E-02
CGA:   6    -0.669700412127E+03   -0.43949E-01   -0.43931E-01  8424   0.505E-01 0.408E-03
CGA:   7    -0.669711630902E+03   -0.11219E-01   -0.11200E-01  8424   0.145E-01 0.333E-03
CGA:   8    -0.669715270428E+03   -0.36395E-02   -0.36123E-02  8424   0.470E-02 0.348E-03
CGA:   9    -0.669716657571E+03   -0.13871E-02   -0.13778E-02  8424   0.177E-02 0.830E-04
CGA:  10    -0.669717211346E+03   -0.55378E-03   -0.53157E-03  8424   0.645E-03 0.192E-03
CGA:  11    -0.669717400671E+03   -0.18933E-03   -0.17918E-03  8424   0.191E-03 0.154E-03
CGA:  12    -0.669717440616E+03   -0.39945E-04   -0.41561E-04  8424   0.875E-04 0.123E-03
CGA:  13    -0.669717450702E+03   -0.10087E-04   -0.12870E-04  8424   0.586E-04 0.678E-04
CGA:  14    -0.669717453038E+03   -0.23355E-05   -0.64601E-05  8424   0.511E-04 0.543E-04
  10 F= -.66971745E+03 E0= -.66971745E+03  d E =0.112159E+00  mag=     2.0000
       N       E                     dE             d eps       ncg     rms          ort
SDA:   1    -0.638767171097E+03    0.30950E+02    0.00000E+00  8424   0.105E+03 0.000E+00
CGA:   2    -0.658126795295E+03   -0.19360E+02   -0.19348E+02  8424   0.380E+02 0.107E+01
CGA:   3    -0.666528319462E+03   -0.84015E+01   -0.84098E+01  8424   0.128E+02-0.163E+00
CGA:   4    -0.668692976598E+03   -0.21647E+01   -0.21648E+01  8424   0.334E+01 0.216E-02
CGA:   5    -0.669257638034E+03   -0.56466E+00   -0.56480E+00  8424   0.685E+00 0.891E-02
CGA:   6    -0.669396253593E+03   -0.13862E+00   -0.13866E+00  8424   0.156E+00-0.215E-02
CGA:   7    -0.669431527062E+03   -0.35273E-01   -0.35233E-01  8424   0.482E-01 0.840E-03
CGA:   8    -0.669443212507E+03   -0.11685E-01   -0.11637E-01  8424   0.143E-01 0.835E-03
CGA:   9    -0.669447397094E+03   -0.41846E-02   -0.43513E-02  8424   0.586E-02-0.146E-02
CGA:  10    -0.669448892888E+03   -0.14958E-02   -0.14881E-02  8424   0.225E-02 0.827E-04
CGA:  11    -0.669449616361E+03   -0.72347E-03   -0.11208E-02  8424   0.231E-02-0.135E-02
CGA:  12    -0.669450058793E+03   -0.44243E-03   -0.44533E-03  8424   0.398E-03 0.160E-03
CGA:  13    -0.669450280182E+03   -0.22139E-03    0.18565E-03  8424   0.150E-03 0.136E-03
CGA:  14    -0.669450432490E+03   -0.15231E-03    0.26078E-04  8424   0.115E-03 0.124E-03
CGA:  15    -0.669450508095E+03   -0.75605E-04    0.20946E-04  8424   0.865E-04 0.774E-04
CGA:  16    -0.669450610430E+03   -0.10234E-03    0.49739E-05  8424   0.778E-04 0.723E-04
CGA:  17    -0.669450683941E+03   -0.73511E-04    0.65127E-05  8424   0.725E-04 0.692E-04
CGA:  18    -0.669450775808E+03   -0.91867E-04    0.37508E-05  8424   0.683E-04 0.665E-04
CGA:  19    -0.669450850500E+03   -0.74693E-04    0.44423E-05  8424   0.650E-04 0.640E-04
CGA:  20    -0.669450936572E+03   -0.86071E-04    0.31581E-05  8424   0.624E-04 0.617E-04
CGA:  21    -0.669451011049E+03   -0.74478E-04    0.35357E-05  8424   0.602E-04 0.596E-04
CGA:  22    -0.669451094004E+03   -0.82955E-04    0.27563E-05  8424   0.583E-04 0.577E-04
CGA:  23    -0.669451167288E+03   -0.73284E-04    0.30629E-05  8424   0.568E-04 0.560E-04
CGA:  24    -0.669451248777E+03   -0.81489E-04    0.24567E-05  8424   0.555E-04 0.543E-04
CGA:  25    -0.669451320164E+03   -0.71387E-04    0.28093E-05  8424   0.544E-04 0.527E-04
CGA:  26    -0.669451401183E+03   -0.81019E-04    0.22335E-05  8424   0.535E-04 0.511E-04
CGA:  27    -0.669451470266E+03   -0.69083E-04    0.26969E-05  8424   0.529E-04 0.494E-04
CGA:  28    -0.669451551275E+03   -0.81009E-04    0.20866E-05  8424   0.524E-04 0.477E-04
CGA:  29    -0.669451618024E+03   -0.66749E-04    0.26941E-05  8424   0.522E-04 0.459E-04
CGA:  30    -0.669451699055E+03   -0.81031E-04    0.20232E-05  8424   0.522E-04 0.440E-04
CGA:  31    -0.669451763745E+03   -0.64690E-04    0.27913E-05  8424   0.524E-04 0.419E-04
CGA:  32    -0.669451844508E+03   -0.80763E-04    0.20510E-05  8424   0.528E-04 0.398E-04
CGA:  33    -0.669451907621E+03   -0.63113E-04    0.29895E-05  8424   0.535E-04 0.375E-04
CGA:  34    -0.669451987630E+03   -0.80009E-04    0.21835E-05  8424   0.544E-04 0.350E-04
CGA:  35    -0.669452049752E+03   -0.62122E-04    0.33052E-05  8424   0.556E-04 0.323E-04
CGA:  36    -0.669452128420E+03   -0.78668E-04    0.24547E-05  8424   0.571E-04 0.294E-04
CGA:  37    -0.669452190167E+03   -0.61746E-04    0.37896E-05  8424   0.590E-04 0.261E-04
CGA:  38    -0.669452331529E+03   -0.14136E-03    0.30903E-05  8424   0.542E-04 0.844E-04
CGA:  39    -0.669452408945E+03   -0.77417E-04    0.23564E-05  8424   0.553E-04 0.251E-04
CGA:  40    -0.669452548226E+03   -0.13928E-03    0.27331E-05  8424   0.514E-04 0.794E-04
CGA:  41    -0.669452605183E+03   -0.56957E-04    0.32715E-05  8424   0.525E-04 0.240E-04
CGA:  42    -0.669452739799E+03   -0.13462E-03    0.25411E-05  8424   0.488E-04 0.756E-04
CGA:  43    -0.669452816605E+03   -0.76806E-04    0.18614E-05  8424   0.494E-04 0.231E-04
CGA:  44    -0.669452949669E+03   -0.13306E-03    0.22665E-05  8424   0.464E-04 0.715E-04
CGA:  45    -0.669453002015E+03   -0.52346E-04    0.28817E-05  8424   0.469E-04 0.222E-04
CGA:  46    -0.669453130453E+03   -0.12844E-03    0.21247E-05  8424   0.442E-04 0.681E-04
CGA:  47    -0.669453206566E+03   -0.76113E-04    0.14941E-05  8424   0.443E-04 0.215E-04
CGA:  48    -0.669453333627E+03   -0.12706E-03    0.19073E-05  8424   0.421E-04 0.646E-04
CGA:  49    -0.669453381730E+03   -0.48103E-04    0.25616E-05  8424   0.421E-04 0.206E-04
CGA:  50    -0.669453504330E+03   -0.12260E-03    0.17951E-05  8424   0.402E-04 0.617E-04
CGA:  51    -0.669453579500E+03   -0.75170E-04    0.12162E-05  8424   0.398E-04 0.200E-04
CGA:  52    -0.669453700788E+03   -0.12129E-03    0.16191E-05  8424   0.383E-04 0.586E-04
CGA:  53    -0.669453745151E+03   -0.44363E-04    0.22764E-05  8424   0.379E-04 0.193E-04
CGA:  54    -0.669453818268E+03   -0.73117E-04    0.10996E-05  8424   0.375E-04 0.188E-04
CGA:  55    -0.669453936333E+03   -0.11807E-03    0.14661E-05  8424   0.362E-04 0.553E-04
CGA:  56    -0.669453979482E+03   -0.43149E-04    0.20550E-05  8424   0.357E-04 0.181E-04
CGA:  57    -0.669454050672E+03   -0.71190E-04    0.99298E-06  8424   0.352E-04 0.178E-04
CGA:  58    -0.669454165446E+03   -0.11477E-03    0.13242E-05  8424   0.341E-04 0.520E-04
CGA:  59    -0.669454207441E+03   -0.41995E-04    0.18469E-05  8424   0.334E-04 0.172E-04
CGA:  60    -0.669454276612E+03   -0.69171E-04    0.89079E-06  8424   0.329E-04 0.171E-04
CGA:  61    -0.669454320062E+03   -0.43450E-04    0.16040E-05  8424   0.324E-04 0.169E-04
CGA:  62    -0.669454386292E+03   -0.66229E-04    0.87513E-06  8424   0.320E-04 0.166E-04
CGA:  63    -0.669454431122E+03   -0.44830E-04    0.14323E-05  8424   0.317E-04 0.163E-04
CGA:  64    -0.669454494490E+03   -0.63368E-04    0.88093E-06  8424   0.315E-04 0.159E-04
CGA:  65    -0.669454540628E+03   -0.46138E-04    0.13259E-05  8424   0.315E-04 0.153E-04
CGA:  66    -0.669454647403E+03   -0.10677E-03    0.11011E-05  8424   0.301E-04 0.460E-04
CGA:  67    -0.669454709301E+03   -0.61899E-04    0.80997E-06  8424   0.300E-04 0.148E-04
CGA:  68    -0.669454815547E+03   -0.10625E-03    0.10009E-05  8424   0.288E-04 0.440E-04
CGA:  69    -0.669454857648E+03   -0.42101E-04    0.12135E-05  8424   0.287E-04 0.142E-04
CGA:  70    -0.669454960176E+03   -0.10253E-03    0.95181E-06  8424   0.276E-04 0.422E-04
CGA:  71    -0.669455021567E+03   -0.61391E-04    0.66924E-06  8424   0.273E-04 0.137E-04
CGA:  72    -0.669455123178E+03   -0.10161E-03    0.86868E-06  8424   0.263E-04 0.403E-04
CGA:  73    -0.669455161842E+03   -0.38664E-04    0.11043E-05  8424   0.261E-04 0.132E-04
CGA:  74    -0.669455221745E+03   -0.59903E-04    0.61099E-06  8424   0.259E-04 0.129E-04
CGA:  75    -0.669455320752E+03   -0.99007E-04    0.79352E-06  8424   0.250E-04 0.381E-04
CGA:  76    -0.669455358235E+03   -0.37483E-04    0.10159E-05  8424   0.247E-04 0.125E-04
CGA:  77    -0.669455453618E+03   -0.95384E-04    0.75116E-06  8424   0.239E-04 0.364E-04
CGA:  78    -0.669455512691E+03   -0.59073E-04    0.51208E-06  8424   0.235E-04 0.120E-04
CGA:  79    -0.669455549166E+03   -0.36475E-04    0.91479E-06  8424   0.232E-04 0.119E-04
CGA:  80    -0.669455605954E+03   -0.56789E-04    0.50350E-06  8424   0.229E-04 0.117E-04
CGA:  81    -0.669455643442E+03   -0.37487E-04    0.82830E-06  8424   0.227E-04 0.115E-04
CGA:  82    -0.669455697946E+03   -0.54504E-04    0.50352E-06  8424   0.225E-04 0.112E-04
CGA:  83    -0.669455790571E+03   -0.92625E-04    0.63361E-06  8424   0.217E-04 0.332E-04
CGA:  84    -0.669455826942E+03   -0.36371E-04    0.76182E-06  8424   0.215E-04 0.108E-04
CGA:  85    -0.669455916222E+03   -0.89281E-04    0.60305E-06  8424   0.208E-04 0.318E-04
CGA:  86    -0.669455970149E+03   -0.53927E-04    0.42103E-06  8424   0.206E-04 0.104E-04
CGA:  87    -0.669456005455E+03   -0.35306E-04    0.69607E-06  8424   0.204E-04 0.102E-04
CGA:  88    -0.669456092366E+03   -0.86910E-04    0.55182E-06  8424   0.197E-04 0.301E-04
CGA:  89    -0.669456144918E+03   -0.52552E-04    0.38566E-06  8424   0.194E-04 0.993E-05
CGA:  90    -0.669456179302E+03   -0.34384E-04    0.62792E-06  8424   0.191E-04 0.979E-05
CGA:  91    -0.669456229730E+03   -0.50428E-04    0.37970E-06  8424   0.189E-04 0.965E-05
CGA:  92    -0.669456265030E+03   -0.35300E-04    0.57407E-06  8424   0.188E-04 0.942E-05
CGA:  93    -0.669456348531E+03   -0.83501E-04    0.48544E-06  8424   0.181E-04 0.277E-04
CGA:  94    -0.669456397663E+03   -0.49133E-04    0.34825E-06  8424   0.179E-04 0.916E-05
CGA:  95    -0.669456431997E+03   -0.34334E-04    0.52186E-06  8424   0.177E-04 0.898E-05
CGA:  96    -0.669456479108E+03   -0.47111E-04    0.34703E-06  8424   0.176E-04 0.880E-05
CGA:  97    -0.669456561064E+03   -0.81955E-04    0.42801E-06  8424   0.169E-04 0.259E-04
CGA:  98    -0.669456594380E+03   -0.33316E-04    0.48120E-06  8424   0.169E-04 0.844E-05
CGA:  99    -0.669456673722E+03   -0.79342E-04    0.40982E-06  8424   0.162E-04 0.250E-04
CGA: 100    -0.669456720339E+03   -0.46617E-04    0.29126E-06  8424   0.161E-04 0.819E-05
CGA: 101    -0.669456752639E+03   -0.32300E-04    0.44616E-06  8424   0.161E-04 0.795E-05
CGA: 102    -0.669456829820E+03   -0.77181E-04    0.37599E-06  8424   0.155E-04 0.236E-04
CGA: 103    -0.669456875309E+03   -0.45489E-04    0.26936E-06  8424   0.153E-04 0.774E-05
CGA: 104    -0.669456906706E+03   -0.31396E-04    0.40892E-06  8424   0.151E-04 0.756E-05
CGA: 105    -0.669456981667E+03   -0.74961E-04    0.34464E-06  8424   0.147E-04 0.223E-04
CGA: 106    -0.669457025979E+03   -0.44312E-04    0.24732E-06  8424   0.144E-04 0.738E-05
CGA: 107    -0.669457056584E+03   -0.30606E-04    0.36983E-06  8424   0.142E-04 0.728E-05
CGA: 108    -0.669457099095E+03   -0.42511E-04    0.24334E-06  8424   0.141E-04 0.718E-05
CGA: 109    -0.669457130437E+03   -0.31342E-04    0.34159E-06  8424   0.140E-04 0.699E-05
CGA: 110    -0.669457202518E+03   -0.72082E-04    0.30517E-06  8424   0.135E-04 0.207E-04
CGA: 111    -0.669457243945E+03   -0.41427E-04    0.22433E-06  8424   0.133E-04 0.681E-05
CGA: 112    -0.669457274421E+03   -0.30475E-04    0.31336E-06  8424   0.132E-04 0.665E-05
CGA: 113    -0.669457344535E+03   -0.70114E-04    0.28056E-06  8424   0.128E-04 0.196E-04
CGA: 114    -0.669457384879E+03   -0.40344E-04    0.20611E-06  8424   0.126E-04 0.649E-05
CGA: 115    -0.669457414555E+03   -0.29676E-04    0.28552E-06  8424   0.125E-04 0.637E-05
CGA: 116    -0.669457453263E+03   -0.38708E-04    0.20492E-06  8424   0.124E-04 0.625E-05
CGA: 117    -0.669457483579E+03   -0.30316E-04    0.26886E-06  8424   0.124E-04 0.603E-05
CGA: 118    -0.669457551150E+03   -0.67571E-04    0.24972E-06  8424   0.119E-04 0.182E-04
CGA: 119    -0.669457588905E+03   -0.37755E-04    0.19057E-06  8424   0.118E-04 0.588E-05
CGA: 120    -0.669457655787E+03   -0.66882E-04    0.22972E-06  8424   0.114E-04 0.174E-04
CGA: 121    -0.669457683769E+03   -0.27982E-04    0.24668E-06  8424   0.114E-04 0.562E-05
CGA: 122    -0.669457748836E+03   -0.65067E-04    0.22131E-06  8424   0.110E-04 0.168E-04
CGA: 123    -0.669457786169E+03   -0.37333E-04    0.16143E-06  8424   0.109E-04 0.547E-05
CGA: 124    -0.669457850454E+03   -0.64285E-04    0.20456E-06  8424   0.105E-04 0.161E-04
CGA: 125    -0.669457876342E+03   -0.25888E-04    0.22614E-06  8424   0.105E-04 0.526E-05
CGA: 126    -0.669457912881E+03   -0.36539E-04    0.15138E-06  8424   0.105E-04 0.505E-05
CGA: 127    -0.669457975714E+03   -0.62833E-04    0.19005E-06  8424   0.101E-04 0.154E-04
CGA: 128    -0.669458000717E+03   -0.25002E-04    0.21627E-06  8424   0.101E-04 0.489E-05
CGA: 129    -0.669458061506E+03   -0.60790E-04    0.18112E-06  8424   0.971E-05 0.148E-04
CGA: 130    -0.669458097557E+03   -0.36051E-04    0.12956E-06  8424   0.968E-05 0.474E-05
CGA: 131    -0.669458157725E+03   -0.60168E-04    0.16836E-06  8424   0.933E-05 0.142E-04
CGA: 132    -0.669458180872E+03   -0.23147E-04    0.19891E-06  8424   0.929E-05 0.458E-05
CGA: 133    -0.669458239176E+03   -0.58304E-04    0.16047E-06  8424   0.897E-05 0.137E-04
CGA: 134    -0.669458274643E+03   -0.35467E-04    0.11151E-06  8424   0.889E-05 0.445E-05
CGA: 135    -0.669458332270E+03   -0.57627E-04    0.14919E-06  8424   0.862E-05 0.131E-04
CGA: 136    -0.669458353753E+03   -0.21483E-04    0.18286E-06  8424   0.853E-05 0.430E-05
CGA: 137    -0.669458409611E+03   -0.55858E-04    0.14232E-06  8424   0.830E-05 0.126E-04
CGA: 138    -0.669458444423E+03   -0.34812E-04    0.96486E-07  8424   0.816E-05 0.418E-05
CGA: 139    -0.669458465376E+03   -0.20953E-04    0.16695E-06  8424   0.805E-05 0.415E-05
CGA: 140    -0.669458498974E+03   -0.33597E-04    0.94153E-07  8424   0.793E-05 0.412E-05
CGA: 141    -0.669458520435E+03   -0.21461E-04    0.15234E-06  8424   0.783E-05 0.407E-05
CGA: 142    -0.669458552812E+03   -0.32377E-04    0.92710E-07  8424   0.774E-05 0.402E-05
CGA: 143    -0.669458574767E+03   -0.21955E-04    0.14087E-06  8424   0.768E-05 0.395E-05
CGA: 144    -0.669458605959E+03   -0.31193E-04    0.92657E-07  8424   0.763E-05 0.387E-05
CGA: 145    -0.669458628373E+03   -0.22414E-04    0.13304E-06  8424   0.761E-05 0.377E-05
CGA: 146    -0.669458680801E+03   -0.52428E-04    0.11896E-06  8424   0.734E-05 0.112E-04
CGA: 147    -0.669458711257E+03   -0.30456E-04    0.86524E-07  8424   0.728E-05 0.367E-05
CGA: 148    -0.669458763228E+03   -0.51971E-04    0.11042E-06  8424   0.706E-05 0.108E-04
CGA: 149    -0.669458783959E+03   -0.20731E-04    0.12309E-06  8424   0.703E-05 0.353E-05
CGA: 150    -0.669458813741E+03   -0.29782E-04    0.80894E-07  8424   0.701E-05 0.343E-05
CGA: 151    -0.669458864511E+03   -0.50771E-04    0.10313E-06  8424   0.677E-05 0.103E-04
CGA: 152    -0.669458884604E+03   -0.20093E-04    0.11662E-06  8424   0.673E-05 0.333E-05
CGA: 153    -0.669458933737E+03   -0.49132E-04    0.98688E-07  8424   0.651E-05 0.992E-05
CGA: 154    -0.669458963099E+03   -0.29362E-04    0.69947E-07  8424   0.647E-05 0.323E-05
CGA: 155    -0.669459011794E+03   -0.48695E-04    0.92239E-07  8424   0.627E-05 0.956E-05
CGA: 156    -0.669459030458E+03   -0.18664E-04    0.10772E-06  8424   0.622E-05 0.313E-05
CGA: 157    -0.669459077670E+03   -0.47212E-04    0.88252E-07  8424   0.604E-05 0.921E-05
CGA: 158    -0.669459106530E+03   -0.28860E-04    0.60847E-07  8424   0.597E-05 0.304E-05
CGA: 159    -0.669459124688E+03   -0.18157E-04    0.10005E-06  8424   0.592E-05 0.299E-05
CGA: 160    -0.669459152638E+03   -0.27951E-04    0.60364E-07  8424   0.586E-05 0.295E-05
CGA: 161    -0.669459198823E+03   -0.46185E-04    0.79674E-07  8424   0.570E-05 0.867E-05
CGA: 162    -0.669459216482E+03   -0.17658E-04    0.93446E-07  8424   0.564E-05 0.286E-05
CGA: 163    -0.669459243758E+03   -0.27276E-04    0.56086E-07  8424   0.559E-05 0.281E-05
CGA: 164    -0.669459288793E+03   -0.45035E-04    0.74265E-07  8424   0.544E-05 0.828E-05
CGA: 165    -0.669459305976E+03   -0.17183E-04    0.87234E-07  8424   0.536E-05 0.274E-05
CGA: 166    -0.669459332564E+03   -0.26588E-04    0.51928E-07  8424   0.531E-05 0.270E-05
CGA: 167    -0.669459350107E+03   -0.17543E-04    0.80800E-07  8424   0.525E-05 0.267E-05
CGA: 168    -0.669459375790E+03   -0.25683E-04    0.51602E-07  8424   0.521E-05 0.262E-05
CGA: 169    -0.669459419189E+03   -0.43399E-04    0.66938E-07  8424   0.507E-05 0.772E-05
CGA: 170    -0.669459436264E+03   -0.17074E-04    0.75471E-07  8424   0.501E-05 0.255E-05
CGA: 171    -0.669459461322E+03   -0.25058E-04    0.47942E-07  8424   0.497E-05 0.251E-05
CGA: 172    -0.669459478731E+03   -0.17409E-04    0.70741E-07  8424   0.493E-05 0.247E-05
CGA: 173    -0.669459520240E+03   -0.41509E-04    0.62306E-07  8424   0.479E-05 0.729E-05
CGA: 174    -0.669459544717E+03   -0.24477E-04    0.44783E-07  8424   0.476E-05 0.239E-05
CGA: 175    -0.669459585967E+03   -0.41250E-04    0.58485E-07  8424   0.461E-05 0.705E-05
CGA: 176    -0.669459602144E+03   -0.16177E-04    0.65703E-07  8424   0.459E-05 0.232E-05
CGA: 177    -0.669459626073E+03   -0.23929E-04    0.41980E-07  8424   0.457E-05 0.227E-05
CGA: 178    -0.669459666334E+03   -0.40261E-04    0.54728E-07  8424   0.443E-05 0.675E-05
CGA: 179    -0.669459682048E+03   -0.15714E-04    0.62160E-07  8424   0.439E-05 0.221E-05
CGA: 180    -0.669459721006E+03   -0.38958E-04    0.52477E-07  8424   0.427E-05 0.650E-05
CGA: 181    -0.669459744575E+03   -0.23569E-04    0.36747E-07  8424   0.424E-05 0.214E-05
CGA: 182    -0.669459759848E+03   -0.15273E-04    0.58442E-07  8424   0.421E-05 0.210E-05
CGA: 183    -0.669459797910E+03   -0.38063E-04    0.49182E-07  8424   0.409E-05 0.622E-05
CGA: 184    -0.669459820948E+03   -0.23037E-04    0.34502E-07  8424   0.405E-05 0.205E-05
CGA: 185    -0.669459835824E+03   -0.14876E-04    0.54543E-07  8424   0.401E-05 0.201E-05
CGA: 186    -0.669459872896E+03   -0.37072E-04    0.45960E-07  8424   0.391E-05 0.594E-05
CGA: 187    -0.669459895383E+03   -0.22487E-04    0.32238E-07  8424   0.385E-05 0.197E-05
CGA: 188    -0.669459909921E+03   -0.14537E-04    0.50271E-07  8424   0.380E-05 0.196E-05
CGA: 189    -0.669459931625E+03   -0.21704E-04    0.31583E-07  8424   0.376E-05 0.194E-05
CGA: 190    -0.669459946471E+03   -0.14846E-04    0.46685E-07  8424   0.373E-05 0.191E-05
CGA: 191    -0.669459967438E+03   -0.20967E-04    0.31464E-07  8424   0.370E-05 0.188E-05
CGA: 192    -0.669459982555E+03   -0.15117E-04    0.44374E-07  8424   0.369E-05 0.184E-05
CGA: 193    -0.669460017922E+03   -0.35368E-04    0.40577E-07  8424   0.358E-05 0.546E-05
CGA: 194    -0.669460038415E+03   -0.20493E-04    0.29621E-07  8424   0.355E-05 0.180E-05
CGA: 195    -0.669460053124E+03   -0.14709E-04    0.41821E-07  8424   0.354E-05 0.175E-05
CGA: 196    -0.669460087636E+03   -0.34512E-04    0.38025E-07  8424   0.343E-05 0.523E-05
CGA: 197    -0.669460107660E+03   -0.20024E-04    0.27861E-07  8424   0.339E-05 0.172E-05
CGA: 198    -0.669460121994E+03   -0.14334E-04    0.39196E-07  8424   0.338E-05 0.168E-05
CGA: 199    -0.669460155640E+03   -0.33646E-04    0.35619E-07  8424   0.329E-05 0.500E-05
CGA: 200    -0.669460175190E+03   -0.19551E-04    0.26107E-07  8424   0.324E-05 0.165E-05
  11 F= -.66946018E+03 E0= -.66946018E+03  d E =0.257278E+00  mag=     2.0000
       N       E                     dE             d eps       ncg     rms          ort
SDA:   1    -0.664357667510E+03    0.51025E+01    0.00000E+00  8424   0.179E+02 0.000E+00
CGA:   2    -0.667860547492E+03   -0.35029E+01   -0.35042E+01  8424   0.685E+01 0.484E-01
CGA:   3    -0.669321500121E+03   -0.14610E+01   -0.14610E+01  8424   0.230E+01-0.103E-01
CGA:   4    -0.669707521128E+03   -0.38602E+00   -0.38610E+00  8424   0.590E+00 0.837E-03
CGA:   5    -0.669809004696E+03   -0.10148E+00   -0.10154E+00  8424   0.121E+00 0.133E-02
CGA:   6    -0.669833272310E+03   -0.24268E-01   -0.24263E-01  8424   0.270E-01-0.886E-03
CGA:   7    -0.669839151026E+03   -0.58787E-02   -0.58688E-02  8424   0.777E-02 0.695E-03
CGA:   8    -0.669841067459E+03   -0.19164E-02   -0.19058E-02  8424   0.222E-02 0.318E-03
CGA:   9    -0.669841715417E+03   -0.64796E-03   -0.65296E-03  8424   0.823E-03-0.672E-04
CGA:  10    -0.669841921923E+03   -0.20651E-03   -0.20046E-03  8424   0.305E-03 0.150E-03
CGA:  11    -0.669842048112E+03   -0.12619E-03   -0.12419E-03  8424   0.165E-03 0.140E-04
CGA:  12    -0.669842085717E+03   -0.37605E-04   -0.37729E-04  8424   0.879E-04 0.773E-04
CGA:  13    -0.669842103833E+03   -0.18116E-04   -0.22052E-04  8424   0.606E-04 0.799E-04
CGA:  14    -0.669842117126E+03   -0.13294E-04   -0.13235E-04  8424   0.417E-04 0.435E-04
CGA:  15    -0.669842120576E+03   -0.34498E-05   -0.61958E-05  8424   0.386E-04 0.397E-04
  12 F= -.66984212E+03 E0= -.66984212E+03  d E =-.381945E+00  mag=     2.0000
       N       E                     dE             d eps       ncg     rms          ort
SDA:   1    -0.667484766938E+03    0.23574E+01    0.00000E+00  8424   0.775E+01 0.000E+00
CGA:   2    -0.669014979805E+03   -0.15302E+01   -0.15305E+01  8424   0.300E+01 0.145E-01
CGA:   3    -0.669652244199E+03   -0.63726E+00   -0.63727E+00  8424   0.101E+01-0.365E-02
CGA:   4    -0.669820683351E+03   -0.16844E+00   -0.16846E+00  8424   0.256E+00 0.106E-03
CGA:   5    -0.669864799425E+03   -0.44116E-01   -0.44139E-01  8424   0.521E-01 0.551E-03
CGA:   6    -0.669875277645E+03   -0.10478E-01   -0.10476E-01  8424   0.117E-01-0.443E-03
CGA:   7    -0.669877849158E+03   -0.25715E-02   -0.25691E-02  8424   0.347E-02 0.160E-03
CGA:   8    -0.669878746817E+03   -0.89766E-03   -0.90446E-03  8424   0.113E-02-0.136E-03
CGA:   9    -0.669879081335E+03   -0.33452E-03   -0.39858E-03  8424   0.788E-03-0.405E-03
CGA:  10    -0.669879193647E+03   -0.11231E-03   -0.25760E-03  8424   0.105E-02-0.499E-03
CGA:  11    -0.669879451300E+03   -0.25765E-03   -0.26137E-03  8424   0.418E-03-0.235E-03
CGA:  12    -0.669879556952E+03   -0.10565E-03   -0.11320E-03  8424   0.193E-03-0.660E-04
CGA:  13    -0.669879667639E+03   -0.11069E-03    0.44871E-04  8424   0.900E-04 0.517E-04
CGA:  14    -0.669879753371E+03   -0.85732E-04    0.23732E-04  8424   0.503E-04 0.568E-04
CGA:  15    -0.669879780390E+03   -0.27019E-04    0.47842E-04  8424   0.388E-04 0.290E-04
CGA:  16    -0.669879827812E+03   -0.47422E-04    0.29653E-05  8424   0.370E-04 0.269E-04
CGA:  17    -0.669879851532E+03   -0.23720E-04    0.12822E-04  8424   0.366E-04 0.252E-04
CGA:  18    -0.669879897472E+03   -0.45940E-04    0.26764E-05  8424   0.369E-04 0.235E-04
CGA:  19    -0.669879918820E+03   -0.21347E-04    0.20606E-04  8424   0.378E-04 0.215E-04
CGA:  20    -0.669879964960E+03   -0.46140E-04    0.28830E-05  8424   0.394E-04 0.190E-04
CGA:  21    -0.669879883988E+03    0.80972E-04   -0.45820E-04  8424   0.184E-02-0.114E-03
CGA:  22    -0.669880193102E+03   -0.30911E-03   -0.23499E-03  8424   0.649E-04-0.242E-03
CGA:  23    -0.669880211179E+03   -0.18078E-04   -0.17064E-04  8424   0.742E-04-0.902E-05
CGA:  24    -0.669880327735E+03   -0.11656E-03    0.10974E-04  8424   0.273E-04 0.517E-04
CGA:  25    -0.669880397255E+03   -0.69519E-04    0.27249E-05  8424   0.597E-04 0.836E-05
CGA:  26    -0.669880533922E+03   -0.13667E-03    0.14418E-04  8424   0.222E-04 0.673E-04
CGA:  27    -0.669880561450E+03   -0.27528E-04    0.91689E-05  8424   0.352E-04 0.131E-04
CGA:  28    -0.669880628839E+03   -0.67389E-04    0.55661E-05  8424   0.135E-03-0.248E-04
CGA:  29    -0.669880628494E+03    0.34509E-06   -0.12425E-04  8424   0.222E-04 0.396E-04
  13 F= -.66988063E+03 E0= -.66988063E+03  d E =-.385079E-01  mag=     2.0000
       N       E                     dE             d eps       ncg     rms          ort
SDA:   1    -0.669394299365E+03    0.48633E+00    0.00000E+00  8424   0.144E+01 0.000E+00
CGA:   2    -0.669688975976E+03   -0.29468E+00   -0.29499E+00  8424   0.585E+00 0.752E-03
CGA:   3    -0.669812033392E+03   -0.12306E+00   -0.12302E+00  8424   0.189E+00-0.153E-03
CGA:   4    -0.669843366054E+03   -0.31333E-01   -0.31339E-01  8424   0.470E-01 0.680E-05
CGA:   5    -0.669851458217E+03   -0.80922E-02   -0.81119E-02  8424   0.939E-02 0.959E-04
CGA:   6    -0.669853324369E+03   -0.18662E-02   -0.18729E-02  8424   0.213E-02 0.431E-04
CGA:   7    -0.669853787362E+03   -0.46299E-03   -0.47227E-03  8424   0.627E-03 0.761E-04
CGA:   8    -0.669853945611E+03   -0.15825E-03   -0.16055E-03  8424   0.196E-03 0.255E-04
CGA:   9    -0.669853996871E+03   -0.51260E-04   -0.53178E-04  8424   0.736E-04 0.265E-04
CGA:  10    -0.669854016612E+03   -0.19740E-04   -0.21738E-04  8424   0.389E-04 0.290E-04
CGA:  11    -0.669854024022E+03   -0.74104E-05   -0.11201E-04  8424   0.250E-04 0.317E-04
  14 F= -.66985402E+03 E0= -.66985402E+03  d E =0.266045E-01  mag=     2.0000
       N       E                     dE             d eps       ncg     rms          ort
SDA:   1    -0.652206743808E+03    0.17647E+02    0.00000E+00  8424   0.584E+02 0.000E+00
CGA:   2    -0.663200998302E+03   -0.10994E+02   -0.11087E+02  8424   0.219E+02-0.124E-01
CGA:   3    -0.667915733881E+03   -0.47147E+01   -0.47063E+01  8424   0.728E+01-0.302E-02
CGA:   4    -0.669143719596E+03   -0.12280E+01   -0.12287E+01  8424   0.187E+01 0.112E-02
CGA:   5    -0.669461078518E+03   -0.31736E+00   -0.31804E+00  8424   0.386E+00 0.246E-02
CGA:   6    -0.669538496050E+03   -0.77418E-01   -0.77370E-01  8424   0.864E-01-0.477E-03
CGA:   7    -0.669557843811E+03   -0.19348E-01   -0.19377E-01  8424   0.262E-01 0.472E-03
CGA:   8    -0.669564099301E+03   -0.62555E-02   -0.62772E-02  8424   0.759E-02 0.514E-03
CGA:   9    -0.669566278461E+03   -0.21792E-02   -0.21801E-02  8424   0.269E-02-0.300E-03
CGA:  10    -0.669566965283E+03   -0.68682E-03   -0.68989E-03  8424   0.953E-03 0.267E-03
CGA:  11    -0.669567303146E+03   -0.33786E-03   -0.33740E-03  8424   0.359E-03 0.963E-05
CGA:  12    -0.669567403013E+03   -0.99868E-04   -0.10011E-03  8424   0.134E-03 0.557E-04
CGA:  13    -0.669567459262E+03   -0.56248E-04   -0.54844E-04  8424   0.841E-04 0.179E-04
CGA:  14    -0.669567250896E+03    0.20837E-03   -0.11869E-03  8424   0.162E-02-0.249E-03
CGA:  15    -0.669567527672E+03   -0.27678E-03   -0.31283E-03  8424   0.373E-03 0.112E-03
CGA:  16    -0.669567667748E+03   -0.14008E-03   -0.12282E-03  8424   0.213E-03-0.895E-04
CGA:  17    -0.669567715006E+03   -0.47258E-04   -0.45474E-04  8424   0.886E-04-0.883E-05
CGA:  18    -0.669567707979E+03    0.70271E-05   -0.10123E-03  8424   0.596E-03-0.154E-03
CGA:  19    -0.669567906109E+03   -0.19813E-03   -0.17161E-03  8424   0.187E-03-0.116E-03
CGA:  20    -0.669567911689E+03   -0.55802E-05   -0.19567E-04  8424   0.448E-04 0.371E-04
  15 F= -.66956791E+03 E0= -.66956791E+03  d E =0.286112E+00  mag=     2.0000
       N       E                     dE             d eps       ncg     rms          ort
SDA:   1    -0.659821887849E+03    0.97460E+01    0.00000E+00  8424   0.330E+02 0.000E+00
CGA:   2    -0.666260631567E+03   -0.64387E+01   -0.65021E+01  8424   0.128E+02-0.103E+00
CGA:   3    -0.668964981422E+03   -0.27043E+01   -0.26955E+01  8424   0.414E+01 0.389E-01
CGA:   4    -0.669665439735E+03   -0.70046E+00   -0.70127E+00  8424   0.106E+01 0.279E-02
CGA:   5    -0.669847952650E+03   -0.18251E+00   -0.18306E+00  8424   0.222E+00 0.562E-03
CGA:   6    -0.669892380138E+03   -0.44427E-01   -0.44309E-01  8424   0.492E-01-0.472E-03
CGA:   7    -0.669903273937E+03   -0.10894E-01   -0.10998E-01  8424   0.146E-01 0.558E-03
CGA:   8    -0.669906776647E+03   -0.35027E-02   -0.35541E-02  8424   0.426E-02 0.324E-03
CGA:   9    -0.669907963628E+03   -0.11870E-02   -0.11845E-02  8424   0.143E-02-0.225E-04
CGA:  10    -0.669908330175E+03   -0.36655E-03   -0.38473E-03  8424   0.522E-03 0.160E-03
CGA:  11    -0.669908502651E+03   -0.17248E-03   -0.17667E-03  8424   0.195E-03 0.554E-04
CGA:  12    -0.669908527579E+03   -0.24928E-04   -0.42637E-04  8424   0.818E-04 0.993E-04
CGA:  13    -0.669908531480E+03   -0.39014E-05   -0.14500E-04  8424   0.467E-04 0.560E-04
  16 F= -.66990853E+03 E0= -.66990853E+03  d E =-.340620E+00  mag=     2.0000
       N       E                     dE             d eps       ncg     rms          ort
SDA:   1    -0.669709939888E+03    0.19859E+00    0.00000E+00  8424   0.578E+00 0.000E+00
CGA:   2    -0.669835304826E+03   -0.12536E+00   -0.12544E+00  8424   0.259E+00 0.466E-03
CGA:   3    -0.669889212149E+03   -0.53907E-01   -0.53908E-01  8424   0.783E-01-0.281E-04
CGA:   4    -0.669901810714E+03   -0.12599E-01   -0.12628E-01  8424   0.182E-01 0.159E-03
CGA:   5    -0.669904879640E+03   -0.30689E-02   -0.30998E-02  8424   0.360E-02 0.197E-03
CGA:   6    -0.669905568392E+03   -0.68875E-03   -0.71030E-03  8424   0.826E-03 0.177E-03
CGA:   7    -0.669905707141E+03   -0.13875E-03   -0.16199E-03  8424   0.231E-03 0.188E-03
CGA:   8    -0.669905726569E+03   -0.19428E-04   -0.41500E-04  8424   0.977E-04 0.139E-03
CGA:   9    -0.669905723323E+03    0.32456E-05   -0.10667E-04  8424   0.630E-04 0.742E-04
  17 F= -.66990572E+03 E0= -.66990572E+03  d E =0.280816E-02  mag=     2.0000
       N       E                     dE             d eps       ncg     rms          ort
SDA:   1    -0.662804529961E+03    0.71012E+01    0.00000E+00  8424   0.204E+02 0.000E+00
CGA:   2    -0.667299741004E+03   -0.44952E+01   -0.45000E+01  8424   0.944E+01 0.275E-01
CGA:   3    -0.669250767645E+03   -0.19510E+01   -0.19497E+01  8424   0.273E+01-0.654E-02
CGA:   4    -0.669686801698E+03   -0.43603E+00   -0.43616E+00  8424   0.631E+00-0.239E-03
CGA:   5    -0.669794994572E+03   -0.10819E+00   -0.10834E+00  8424   0.130E+00 0.127E-02
CGA:   6    -0.669821271085E+03   -0.26277E-01   -0.26276E-01  8424   0.301E-01-0.428E-05
CGA:   7    -0.669828029653E+03   -0.67586E-02   -0.67634E-02  8424   0.883E-02 0.143E-03
CGA:   8    -0.669830156773E+03   -0.21271E-02   -0.21293E-02  8424   0.264E-02 0.138E-03
CGA:   9    -0.669830919290E+03   -0.76252E-03   -0.76482E-03  8424   0.965E-03-0.766E-04
CGA:  10    -0.669831165147E+03   -0.24586E-03   -0.24504E-03  8424   0.331E-03 0.159E-03
CGA:  11    -0.669831274222E+03   -0.10907E-03   -0.10773E-03  8424   0.113E-03 0.586E-04
CGA:  12    -0.669831303620E+03   -0.29398E-04   -0.30734E-04  8424   0.484E-04 0.499E-04
CGA:  13    -0.669831314035E+03   -0.10415E-04   -0.13244E-04  8424   0.323E-04 0.420E-04
CGA:  14    -0.669831322976E+03   -0.89413E-05   -0.86346E-05  8424   0.225E-04 0.220E-04
  18 F= -.66983132E+03 E0= -.66983132E+03  d E =0.744003E-01  mag=     2.0000
       N       E                     dE             d eps       ncg     rms          ort
SDA:   1    -0.651529303552E+03    0.18302E+02    0.00000E+00  8424   0.588E+02 0.000E+00
CGA:   2    -0.663037397606E+03   -0.11508E+02   -0.11536E+02  8424   0.232E+02 0.160E+00
CGA:   3    -0.668002043991E+03   -0.49646E+01   -0.49616E+01  8424   0.754E+01-0.365E-01
CGA:   4    -0.669257173499E+03   -0.12551E+01   -0.12558E+01  8424   0.188E+01 0.323E-02
CGA:   5    -0.669578854838E+03   -0.32168E+00   -0.32215E+00  8424   0.396E+00 0.444E-02
CGA:   6    -0.669657903170E+03   -0.79048E-01   -0.79016E-01  8424   0.900E-01-0.818E-03
CGA:   7    -0.669677719068E+03   -0.19816E-01   -0.19848E-01  8424   0.266E-01 0.199E-02
CGA:   8    -0.669684106878E+03   -0.63878E-02   -0.63886E-02  8424   0.774E-02 0.116E-02
CGA:   9    -0.669686229654E+03   -0.21228E-02   -0.21128E-02  8424   0.253E-02 0.390E-03
CGA:  10    -0.669686868753E+03   -0.63910E-03   -0.63730E-03  8424   0.926E-03 0.670E-03
CGA:  11    -0.669687099070E+03   -0.23032E-03   -0.24450E-03  8424   0.379E-03 0.492E-03
CGA:  12    -0.669687140653E+03   -0.41583E-04   -0.60612E-04  8424   0.209E-03 0.250E-03
CGA:  13    -0.669687140163E+03    0.49009E-06   -0.22867E-04  8424   0.175E-03 0.190E-03
CGA:  14    -0.669687135594E+03    0.45684E-05   -0.16866E-04  8424   0.156E-03 0.165E-03
CGA:  15    -0.669687128835E+03    0.67594E-05   -0.13323E-04  8424   0.143E-03 0.150E-03
CGA:  16    -0.669687121037E+03    0.77982E-05   -0.11065E-04  8424   0.134E-03 0.139E-03
  19 F= -.66968712E+03 E0= -.66968712E+03  d E =0.144202E+00  mag=     2.0000
       N       E                     dE             d eps       ncg     rms          ort
SDA:   1    -0.665662250649E+03    0.40249E+01    0.00000E+00  8424   0.137E+02 0.000E+00
CGA:   2    -0.668376133792E+03   -0.27139E+01   -0.27139E+01  8424   0.534E+01 0.251E-01
CGA:   3    -0.669510406301E+03   -0.11343E+01   -0.11344E+01  8424   0.179E+01-0.732E-02
[...]
CGA:   6    -0.669771137361E+03   -0.79112E-01   -0.79112E-01  8424   0.931E-01-0.124E-03
CGA:   7    -0.669791752603E+03   -0.20615E-01   -0.20612E-01  8424   0.269E-01 0.567E-03
CGA:   8    -0.669798492139E+03   -0.67395E-02   -0.67204E-02  8424   0.885E-02 0.592E-03
CGA:   9    -0.669801118548E+03   -0.26264E-02   -0.26296E-02  8424   0.343E-02-0.445E-04
CGA:  10    -0.669802141251E+03   -0.10227E-02   -0.10017E-02  8424   0.125E-02 0.288E-03
CGA:  11    -0.669802542138E+03   -0.40089E-03   -0.39489E-03  8424   0.402E-03 0.882E-04
CGA:  12    -0.669802634109E+03   -0.91970E-04   -0.93622E-04  8424   0.153E-03 0.154E-03
CGA:  13    -0.669802665472E+03   -0.31363E-04   -0.37669E-04  8424   0.989E-04 0.124E-03
CGA:  14    -0.669802685140E+03   -0.19668E-04   -0.20782E-04  8424   0.711E-04 0.734E-04
CGA:  15    -0.669802690945E+03   -0.58053E-05   -0.10740E-04  8424   0.654E-04 0.670E-04
CGA:  16    -0.669802697405E+03   -0.64601E-05   -0.10410E-04  8424   0.625E-04 0.637E-04
  31 F= -.66980270E+03 E0= -.66980270E+03  d E =0.108321E+00  mag=     2.0000
       N       E                     dE             d eps       ncg     rms          ort
SDA:   1    -0.666677785759E+03    0.31249E+01    0.00000E+00  8424   0.984E+01 0.000E+00
CGA:   2    -0.668734864580E+03   -0.20571E+01   -0.20572E+01  8424   0.420E+01 0.136E-01
CGA:   3    -0.669618626175E+03   -0.88376E+00   -0.88375E+00  8424   0.132E+01-0.290E-02
CGA:   4    -0.669833172810E+03   -0.21455E+00   -0.21458E+00  8424   0.316E+00 0.283E-03
CGA:   5    -0.669887494494E+03   -0.54322E-01   -0.54357E-01  8424   0.644E-01 0.815E-03
CGA:   6    -0.669900344469E+03   -0.12850E-01   -0.12851E-01  8424   0.147E-01 0.614E-04
CGA:   7    -0.669903567017E+03   -0.32225E-02   -0.32176E-02  8424   0.423E-02 0.523E-03
CGA:   8    -0.669904588246E+03   -0.10212E-02   -0.10146E-02  8424   0.120E-02 0.291E-03
CGA:   9    -0.669904908733E+03   -0.32049E-03   -0.31383E-03  8424   0.389E-03 0.197E-03
CGA:  10    -0.669904992645E+03   -0.83912E-04   -0.87681E-04  8424   0.173E-03 0.205E-03
CGA:  11    -0.669905017548E+03   -0.24904E-04   -0.29444E-04  8424   0.931E-04 0.112E-03
CGA:  12    -0.669905021160E+03   -0.36113E-05   -0.11138E-04  8424   0.770E-04 0.839E-04
  32 F= -.66990502E+03 E0= -.66990502E+03  d E =-.102324E+00  mag=     2.0000
       N       E                     dE             d eps       ncg     rms          ort
SDA:   1    -0.669535654371E+03    0.36936E+00    0.00000E+00  8424   0.956E+00 0.000E+00
CGA:   2    -0.669780490796E+03   -0.24484E+00   -0.24479E+00  8424   0.520E+00 0.656E-03
CGA:   3    -0.669880805208E+03   -0.10031E+00   -0.10031E+00  8424   0.124E+00-0.259E-03
CGA:   4    -0.669899973980E+03   -0.19169E-01   -0.19179E-01  8424   0.269E-01 0.200E-03
CGA:   5    -0.669904578316E+03   -0.46043E-02   -0.46134E-02  8424   0.557E-02 0.312E-03
CGA:   6    -0.669905709172E+03   -0.11309E-02   -0.11302E-02  8424   0.131E-02 0.277E-03
CGA:   7    -0.669905963462E+03   -0.25429E-03   -0.25709E-03  8424   0.349E-03 0.259E-03
CGA:   8    -0.669906017563E+03   -0.54100E-04   -0.63298E-04  8424   0.147E-03 0.198E-03
CGA:   9    -0.669906025809E+03   -0.82464E-05   -0.17018E-04  8424   0.932E-04 0.110E-03
  33 F= -.66990603E+03 E0= -.66990603E+03  d E =-.100465E-02  mag=     2.0000
       N       E                     dE             d eps       ncg     rms          ort
SDA:   1    -0.652764982431E+03    0.17141E+02    0.00000E+00  8424   0.421E+02 0.000E+00
CGA:   2    -0.664528586245E+03   -0.11764E+02   -0.11764E+02  8424   0.235E+02-0.108E-01
CGA:   3    -0.668811949644E+03   -0.42834E+01   -0.42835E+01  8424   0.501E+01 0.426E-02
CGA:   4    -0.669593670856E+03   -0.78172E+00   -0.78177E+00  8424   0.113E+01-0.104E-04
CGA:   5    -0.669790324910E+03   -0.19665E+00   -0.19666E+00  8424   0.243E+00 0.376E-03
CGA:   6    -0.669841000772E+03   -0.50676E-01   -0.50665E-01  8424   0.583E-01 0.488E-03
CGA:   7    -0.669853994998E+03   -0.12994E-01   -0.13022E-01  8424   0.175E-01-0.817E-03
CGA:   8    -0.669858468844E+03   -0.44738E-02   -0.45027E-02  8424   0.612E-02-0.408E-03
CGA:   9    -0.669860330755E+03   -0.18619E-02   -0.20296E-02  8424   0.310E-02-0.115E-02
CGA:  10    -0.669861100808E+03   -0.77005E-03   -0.11114E-02  8424   0.236E-02-0.142E-02
CGA:  11    -0.669861005080E+03    0.95729E-04   -0.70868E-03  8424   0.377E-02-0.236E-02
CGA:  12    -0.669861795384E+03   -0.79030E-03   -0.78765E-03  8424   0.102E-02-0.123E-03
CGA:  13    -0.669861374000E+03    0.42138E-03   -0.88208E-03  8424   0.843E-02-0.197E-02
CGA:  14    -0.669862414177E+03   -0.10402E-02   -0.10731E-02  8424   0.888E-03 0.255E-03
CGA:  15    -0.669862620201E+03   -0.20602E-03   -0.56457E-03  8424   0.135E-02-0.993E-03
CGA:  16    -0.669862933727E+03   -0.31353E-03   -0.31115E-03  8424   0.353E-03-0.550E-04
CGA:  17    -0.669863119598E+03   -0.18587E-03    0.39344E-02  8424   0.265E-03-0.229E-03
CGA:  18    -0.669863159467E+03   -0.39869E-04   -0.36955E-04  8424   0.367E-04-0.219E-04
CGA:  19    -0.669863264351E+03   -0.10488E-03    0.91325E-06  8424   0.120E-04 0.664E-05
CGA:  20    -0.669863376221E+03   -0.11187E-03    0.13624E-06  8424   0.113E-04 0.126E-04
CGA:  21    -0.669863454434E+03   -0.78213E-04    0.12337E-06  8424   0.992E-05 0.921E-05
CGA:  22    -0.669863536775E+03   -0.82341E-04    0.89669E-07  8424   0.102E-04 0.851E-05
CGA:  23    -0.669863610154E+03   -0.73379E-04    0.10761E-06  8424   0.112E-04 0.753E-05
CGA:  24    -0.669863694321E+03   -0.84166E-04    0.11208E-06  8424   0.135E-04 0.567E-05
CGA:  25    -0.669863760516E+03   -0.66196E-04    0.21580E-06  8424   0.188E-04 0.181E-05
CGA:  26    -0.669863944452E+03   -0.18394E-03    0.18472E-06  8424   0.158E-04 0.207E-04
CGA:  27    -0.669864030619E+03   -0.86167E-04    0.22622E-06  8424   0.244E-04-0.295E-05
CGA:  28    -0.669864218949E+03   -0.18833E-03    0.15561E-06  8424   0.281E-04 0.192E-04
CGA:  29    -0.669864266549E+03   -0.47599E-04    0.17017E-05  8424   0.517E-04-0.223E-04
CGA:  30    -0.669864363155E+03   -0.96606E-04    0.27119E-05  8424   0.104E-03-0.577E-04
CGA:  31    -0.669864385249E+03   -0.22095E-04   -0.17440E-04  8424   0.392E-04-0.478E-04
CGA:  32    -0.669864491400E+03   -0.10615E-03    0.31803E-06  8424   0.825E-05 0.115E-04
CGA:  33    -0.669864584718E+03   -0.93318E-04    0.87905E-07  8424   0.122E-04 0.611E-05
CGA:  34    -0.669864639878E+03   -0.55160E-04    0.20552E-06  8424   0.170E-04-0.256E-06
CGA:  35    -0.669864799063E+03   -0.15919E-03    0.12474E-06  8424   0.166E-04 0.163E-04
CGA:  36    -0.669864877540E+03   -0.78477E-04    0.26714E-06  8424   0.254E-04-0.711E-05
CGA:  37    -0.669865040365E+03   -0.16283E-03    0.91715E-07  8424   0.361E-04 0.135E-04
CGA:  38    -0.669865073882E+03   -0.33516E-04    0.59705E-05  8424   0.614E-04-0.344E-04
CGA:  39    -0.669865165943E+03   -0.92061E-04    0.42455E-05  8424   0.109E-03-0.693E-04
CGA:  40    -0.669865182671E+03   -0.16727E-04   -0.14624E-04  8424   0.111E-04-0.167E-04
CGA:  41    -0.669865254375E+03   -0.71704E-04    0.85739E-07  8424   0.649E-05 0.568E-05
CGA:  42    -0.669865309854E+03   -0.55480E-04    0.51922E-07  8424   0.698E-05 0.502E-05
CGA:  43    -0.669865371827E+03   -0.61972E-04    0.53764E-07  8424   0.816E-05 0.406E-05
CGA:  44    -0.669865423398E+03   -0.51572E-04    0.90390E-07  8424   0.108E-04 0.211E-05
CGA:  45    -0.669865557123E+03   -0.13372E-03    0.94241E-07  8424   0.851E-05 0.133E-04
CGA:  46    -0.669865619107E+03   -0.61984E-04    0.80971E-07  8424   0.120E-04 0.842E-06
CGA:  47    -0.669865752961E+03   -0.13385E-03    0.88584E-07  8424   0.105E-04 0.129E-04
CGA:  48    -0.669865796753E+03   -0.43792E-04    0.18425E-06  8424   0.169E-04-0.283E-05
CGA:  49    -0.669865934296E+03   -0.13754E-03    0.74529E-07  8424   0.218E-04 0.118E-04
CGA:  50    -0.669866001242E+03   -0.66946E-04    0.54808E-06  8424   0.425E-04-0.204E-04
CGA:  51    -0.669866023175E+03   -0.21933E-04    0.33424E-03  8424   0.907E-04-0.521E-04
CGA:  52    -0.669866098934E+03   -0.75759E-04    0.17814E-04  8424   0.202E-03-0.126E-03
CGA:  53    -0.669866117783E+03   -0.18849E-04   -0.20041E-04  8424   0.470E-05 0.774E-05
CGA:  54    -0.669866164681E+03   -0.46899E-04    0.32427E-07  8424   0.590E-05 0.400E-05
CGA:  55    -0.669866217877E+03   -0.53196E-04    0.41869E-07  8424   0.741E-05 0.251E-05
CGA:  56    -0.669866325671E+03   -0.10779E-03    0.65752E-07  8424   0.552E-05 0.102E-04
CGA:  57    -0.669866366919E+03   -0.41248E-04    0.47936E-07  8424   0.677E-05 0.255E-05
CGA:  58    -0.669866471521E+03   -0.10460E-03    0.59491E-07  8424   0.511E-05 0.958E-05
CGA:  59    -0.669866522093E+03   -0.50572E-04    0.32953E-07  8424   0.601E-05 0.270E-05
CGA:  60    -0.669866559523E+03   -0.37430E-04    0.63388E-07  8424   0.785E-05 0.129E-05
CGA:  61    -0.669866663058E+03   -0.10353E-03    0.55651E-07  8424   0.653E-05 0.930E-05
CGA:  62    -0.669866715281E+03   -0.52222E-04    0.52690E-07  8424   0.867E-05 0.241E-06
CGA:  63    -0.669866816233E+03   -0.10095E-03    0.50704E-07  8424   0.814E-05 0.877E-05
CGA:  64    -0.669866845962E+03   -0.29729E-04    0.15583E-06  8424   0.111E-04-0.212E-05
CGA:  65    -0.669866943695E+03   -0.97733E-04    0.43609E-07  8424   0.129E-04 0.789E-05
CGA:  66    -0.669867001677E+03   -0.57983E-04    0.19406E-06  8424   0.175E-04-0.798E-05
CGA:  67    -0.669867019701E+03   -0.18024E-04    0.19751E-05  8424   0.248E-04-0.139E-04
CGA:  68    -0.669867084193E+03   -0.64492E-04    0.71126E-06  8424   0.365E-04-0.232E-04
CGA:  69    -0.669867092366E+03   -0.81725E-05   -0.69787E-05  8424   0.225E-04-0.217E-04
  34 F= -.66986709E+03 E0= -.66986709E+03  d E =0.389334E-01  mag=     2.0000
       N       E                     dE             d eps       ncg     rms          ort
SDA:   1    -0.638504885138E+03    0.31362E+02    0.00000E+00  8424   0.896E+02 0.000E+00
CGA:   2    -0.658207453455E+03   -0.19703E+02   -0.19726E+02  8424   0.424E+02 0.425E+00
CGA:   3    -0.667135779910E+03   -0.89283E+01   -0.89223E+01  8424   0.120E+02-0.672E-01
CGA:   4    -0.669047734424E+03   -0.19120E+01   -0.19138E+01  8424   0.271E+01 0.671E-02
CGA:   5    -0.669502831937E+03   -0.45510E+00   -0.45566E+00  8424   0.559E+00 0.471E-02
CGA:   6    -0.669617834129E+03   -0.11500E+00   -0.11497E+00  8424   0.138E+00-0.102E-02
CGA:   7    -0.669648238603E+03   -0.30404E-01   -0.30423E-01  8424   0.391E-01 0.183E-02
CGA:   8    -0.669657705235E+03   -0.94666E-02   -0.94570E-02  8424   0.119E-01 0.124E-02
CGA:   9    -0.669661086044E+03   -0.33808E-02   -0.33643E-02  8424   0.427E-02 0.390E-03
CGA:  10    -0.669662221969E+03   -0.11359E-02   -0.11180E-02  8424   0.147E-02 0.908E-03
CGA:  11    -0.669662622593E+03   -0.40062E-03   -0.40506E-03  8424   0.477E-03 0.567E-03
CGA:  12    -0.669662685004E+03   -0.62411E-04   -0.96607E-04  8424   0.228E-03 0.388E-03
CGA:  13    -0.669662679617E+03    0.53872E-05   -0.21143E-04  8424   0.167E-03 0.193E-03
CGA:  14    -0.669662669543E+03    0.10074E-04   -0.12602E-04  8424   0.141E-03 0.154E-03
CGA:  15    -0.669662658416E+03    0.11127E-04   -0.91055E-05  8424   0.126E-03 0.134E-03
CGA:  16    -0.669662647219E+03    0.11197E-04   -0.71655E-05  8424   0.116E-03 0.121E-03
CGA:  17    -0.669662636294E+03    0.10925E-04   -0.59134E-05  8424   0.109E-03 0.112E-03
CGA:  18    -0.669662625771E+03    0.10523E-04   -0.50283E-05  8424   0.103E-03 0.106E-03
CGA:  19    -0.669662615697E+03    0.10074E-04   -0.43652E-05  8424   0.983E-04 0.101E-03
CGA:  20    -0.669662606083E+03    0.96136E-05   -0.38490E-05  8424   0.946E-04 0.965E-04
  35 F= -.66966261E+03 E0= -.66966261E+03  d E =0.204486E+00  mag=     2.0000
       N       E                     dE             d eps       ncg     rms          ort
SDA:   1    -0.665907155151E+03    0.37555E+01    0.00000E+00  8424   0.122E+02 0.000E+00
CGA:   2    -0.668431632331E+03   -0.25245E+01   -0.25227E+01  8424   0.509E+01 0.327E-01
CGA:   3    -0.669502870800E+03   -0.10712E+01   -0.10716E+01  8424   0.162E+01-0.732E-02
CGA:   4    -0.669768859519E+03   -0.26599E+00   -0.26599E+00  8424   0.396E+00 0.179E-03
CGA:   5    -0.669836909657E+03   -0.68050E-01   -0.68046E-01  8424   0.790E-01 0.120E-02
CGA:   6    -0.669852720614E+03   -0.15811E-01   -0.15813E-01  8424   0.182E-01-0.689E-04
CGA:   7    -0.669856721629E+03   -0.40010E-02   -0.39680E-02  8424   0.519E-02 0.681E-03
CGA:   8    -0.669857973794E+03   -0.12522E-02   -0.12272E-02  8424   0.142E-02 0.451E-03
CGA:   9    -0.669858361087E+03   -0.38729E-03   -0.37057E-03  8424   0.458E-03 0.257E-03
CGA:  10    -0.669858451233E+03   -0.90147E-04   -0.92396E-04  8424   0.208E-03 0.276E-03
CGA:  11    -0.669858475185E+03   -0.23952E-04   -0.29433E-04  8424   0.121E-03 0.148E-03
CGA:  12    -0.669858480235E+03   -0.50498E-05   -0.12748E-04  8424   0.982E-04 0.108E-03
  36 F= -.66985848E+03 E0= -.66985848E+03  d E =-.195874E+00  mag=     2.0000
       N       E                     dE             d eps       ncg     rms          ort
SDA:   1    -0.668299557676E+03    0.15589E+01    0.00000E+00  8424   0.436E+01 0.000E+00
CGA:   2    -0.669324262117E+03   -0.10247E+01   -0.10244E+01  8424   0.215E+01 0.411E-02
CGA:   3    -0.669753075465E+03   -0.42881E+00   -0.42885E+00  8424   0.580E+00-0.164E-02
CGA:   4    -0.669845181562E+03   -0.92106E-01   -0.92108E-01  8424   0.132E+00 0.322E-04
CGA:   5    -0.669867929441E+03   -0.22748E-01   -0.22748E-01  8424   0.267E-01 0.448E-03
CGA:   6    -0.669873368791E+03   -0.54393E-02   -0.54335E-02  8424   0.634E-02 0.190E-03
CGA:   7    -0.669874786790E+03   -0.14180E-02   -0.14093E-02  8424   0.182E-02 0.186E-03
CGA:   8    -0.669875241837E+03   -0.45505E-03   -0.44873E-03  8424   0.570E-03 0.984E-04
CGA:   9    -0.669875408366E+03   -0.16653E-03   -0.15918E-03  8424   0.221E-03 0.853E-04
CGA:  10    -0.669875474160E+03   -0.65793E-04   -0.60323E-04  8424   0.107E-03 0.101E-03
CGA:  11    -0.669875505484E+03   -0.31325E-04   -0.30542E-04  8424   0.638E-04 0.877E-04
CGA:  12    -0.669875517415E+03   -0.11931E-04   -0.11933E-04  8424   0.435E-04 0.471E-04
CGA:  13    -0.669875522956E+03   -0.55406E-05   -0.68105E-05  8424   0.398E-04 0.413E-04
  37 F= -.66987552E+03 E0= -.66987552E+03  d E =-.170427E-01  mag=     2.0000
       N       E                     dE             d eps       ncg     rms          ort
SDA:   1    -0.668995387016E+03    0.88013E+00    0.00000E+00  8424   0.219E+01 0.000E+00
CGA:   2    -0.669590703981E+03   -0.59532E+00   -0.59530E+00  8424   0.123E+01-0.119E-03
CGA:   3    -0.669818833391E+03   -0.22813E+00   -0.22813E+00  8424   0.272E+00-0.438E-03
CGA:   4    -0.669860673635E+03   -0.41840E-01   -0.41851E-01  8424   0.600E-01 0.274E-03
CGA:   5    -0.669871045693E+03   -0.10372E-01   -0.10378E-01  8424   0.125E-01 0.408E-03
CGA:   6    -0.669873632344E+03   -0.25867E-02   -0.25809E-02  8424   0.293E-02 0.311E-03
CGA:   7    -0.669874249763E+03   -0.61742E-03   -0.61321E-03  8424   0.787E-03 0.240E-03
CGA:   8    -0.669874421409E+03   -0.17165E-03   -0.16909E-03  8424   0.251E-03 0.232E-03
CGA:   9    -0.669874461084E+03   -0.39675E-04   -0.47289E-04  8424   0.125E-03 0.178E-03
CGA:  10    -0.669874468100E+03   -0.70156E-05   -0.14169E-04  8424   0.843E-04 0.985E-04
  38 F= -.66987447E+03 E0= -.66987447E+03  d E =0.105486E-02  mag=     2.0000
       N       E                     dE             d eps       ncg     rms          ort
SDA:   1    -0.611827514496E+03    0.58047E+02    0.00000E+00  8424   0.146E+03 0.000E+00
CGA:   2    -0.650973169517E+03   -0.39146E+02   -0.39124E+02  8424   0.801E+02 0.204E+00
CGA:   3    -0.666002417879E+03   -0.15029E+02   -0.15029E+02  8424   0.178E+02 0.856E-02
CGA:   4    -0.668790101692E+03   -0.27877E+01   -0.27882E+01  8424   0.404E+01 0.783E-02
CGA:   5    -0.669489025046E+03   -0.69892E+00   -0.69898E+00  8424   0.883E+00 0.450E-02
CGA:   6    -0.669675121954E+03   -0.18610E+00   -0.18604E+00  8424   0.222E+00 0.169E-02
CGA:   7    -0.669725029159E+03   -0.49907E-01   -0.49917E-01  8424   0.689E-01-0.270E-03
CGA:   8    -0.669743084874E+03   -0.18056E-01   -0.18031E-01  8424   0.250E-01 0.322E-03
CGA:   9    -0.669750599506E+03   -0.75146E-02   -0.76439E-02  8424   0.103E-01-0.111E-02
CGA:  10    -0.669753762405E+03   -0.31629E-02   -0.32792E-02  8424   0.404E-02-0.829E-03
CGA:  11    -0.669754848385E+03   -0.10860E-02   -0.11695E-02  8424   0.137E-02-0.735E-03
CGA:  12    -0.669755168045E+03   -0.31966E-03   -0.44324E-03  8424   0.116E-02-0.652E-03
CGA:  13    -0.669754796821E+03    0.37122E-03   -0.43421E-03  8424   0.550E-02-0.162E-02
CGA:  14    -0.669755628528E+03   -0.83171E-03   -0.82765E-03  8424   0.977E-03-0.454E-04
CGA:  15    -0.669755978123E+03   -0.34960E-03   -0.41075E-03  8424   0.490E-03-0.328E-03
CGA:  16    -0.669755268238E+03    0.70988E-03   -0.39823E-03  8424   0.718E-02-0.114E-02
CGA:  17    -0.669756295097E+03   -0.10269E-02   -0.10016E-02  8424   0.842E-03-0.164E-03
CGA:  18    -0.669756550492E+03   -0.25540E-03   -0.25846E-03  8424   0.284E-03-0.115E-03
CGA:  19    -0.669756709481E+03   -0.15899E-03    0.28494E-03  8424   0.101E-03 0.165E-04
CGA:  20    -0.669756795795E+03   -0.86314E-04    0.39355E-04  8424   0.734E-04 0.639E-06
CGA:  21    -0.669756930438E+03   -0.13464E-03    0.49369E-05  8424   0.537E-04 0.423E-04
CGA:  22    -0.669756988779E+03   -0.58342E-04    0.87583E-05  8424   0.317E-04 0.221E-04
CGA:  23    -0.669757078933E+03   -0.90153E-04    0.25863E-05  8424   0.316E-04 0.307E-04
CGA:  24    -0.669757135016E+03   -0.56083E-04    0.21929E-05  8424   0.257E-04 0.216E-04
CGA:  25    -0.669757191991E+03   -0.56975E-04    0.13046E-05  8424   0.289E-04 0.189E-04
CGA:  26    -0.669757238567E+03   -0.46576E-04    0.23196E-05  8424   0.386E-04 0.123E-04
CGA:  27    -0.669757366162E+03   -0.12759E-03    0.26236E-05  8424   0.259E-04 0.523E-04
CGA:  28    -0.669757420976E+03   -0.54814E-04    0.13963E-05  8424   0.329E-04 0.135E-04
CGA:  29    -0.669757461764E+03   -0.40789E-04    0.41323E-05  8424   0.538E-04 0.498E-06
CGA:  30    -0.669757595766E+03   -0.13400E-03    0.24177E-05  8424   0.496E-04 0.529E-04
CGA:  31    -0.669757649797E+03   -0.54032E-04    0.80776E-05  8424   0.102E-03-0.305E-04
CGA:  32    -0.669757672228E+03   -0.22431E-04   -0.18391E-04  8424   0.575E-04-0.376E-04
CGA:  33    -0.669757751547E+03   -0.79318E-04    0.17971E-05  8424   0.298E-04 0.322E-04
CGA:  34    -0.669757800962E+03   -0.49415E-04    0.21804E-05  8424   0.465E-04 0.764E-07
CGA:  35    -0.669757916899E+03   -0.11594E-03    0.19456E-05  8424   0.434E-04 0.449E-04
CGA:  36    -0.669757949735E+03   -0.32836E-04    0.18312E-04  8424   0.802E-04-0.236E-04
CGA:  37    -0.669756581050E+03    0.13687E-02   -0.74936E-03  8424   0.160E-01-0.989E-03
CGA:  38    -0.669758249032E+03   -0.16680E-02   -0.17217E-02  8424   0.478E-04 0.143E-03
CGA:  39    -0.669758307409E+03   -0.58377E-04    0.54407E-04  8424   0.218E-03-0.701E-04
CGA:  40    -0.669758346308E+03   -0.38900E-04   -0.35559E-04  8424   0.208E-04-0.101E-04
CGA:  41    -0.669758422675E+03   -0.76367E-04    0.15788E-05  8424   0.460E-04 0.412E-05
CGA:  42    -0.669758640935E+03   -0.21826E-03    0.42226E-05  8424   0.216E-04 0.413E-04
CGA:  43    -0.669758698323E+03   -0.57388E-04    0.29360E-05  8424   0.478E-04-0.591E-05
CGA:  44    -0.669758877005E+03   -0.17868E-03    0.19112E-05  8424   0.777E-04 0.229E-04
CGA:  45    -0.669759230530E+03   -0.35353E-03    0.12487E-04  8424   0.123E-03 0.295E-05
CGA:  46    -0.669759845406E+03   -0.61488E-03    0.75532E-05  8424   0.142E-03 0.532E-04
CGA:  47    -0.669760562110E+03   -0.71670E-03    0.18260E-04  8424   0.215E-03-0.539E-04
CGA:  48    -0.669761706131E+03   -0.11440E-02    0.40423E-05  8424   0.292E-03-0.189E-04
CGA:  49    -0.669763272953E+03   -0.15668E-02    0.12393E-04  8424   0.441E-03-0.354E-03
CGA:  50    -0.669763315828E+03   -0.42875E-04   -0.72215E-04  8424   0.331E-04 0.927E-04
CGA:  51    -0.669763309202E+03    0.66254E-05   -0.32604E-05  8424   0.156E-04 0.257E-04
