       N       E                     dE             d eps       ncg     rms          ort
DAV:   1     0.284478840105E+04    0.28448E+04   -0.29257E+05  2856   0.141E+03
DAV:   2    -0.959184424992E+03   -0.38040E+04   -0.36771E+04  2856   0.315E+02
DAV:   3    -0.122159624608E+04   -0.26241E+03   -0.26039E+03  2856   0.862E+01
DAV:   4    -0.122478198267E+04   -0.31857E+01   -0.31743E+01  2856   0.101E+01
DAV:   5    -0.122483861462E+04   -0.56632E-01   -0.56512E-01  2856   0.122E+00
SDA:   6    -0.859161142339E+03    0.36568E+03   -0.56512E-01  2856   0.652E+03 0.000E+00
CGA:   7    -0.967325150837E+03   -0.10816E+03   -0.10866E+03  2856   0.977E+02 0.373E+01
CGA:   8    -0.982285771094E+03   -0.14961E+02   -0.13440E+02  2856   0.578E+02-0.399E+02
CGA:   9    -0.989403999555E+03   -0.71182E+01   -0.83885E+01  2856   0.224E+02-0.126E+02
CGA:  10    -0.992858151285E+03   -0.34542E+01   -0.33482E+01  2856   0.242E+02-0.759E+01
CGA:  11    -0.995439869377E+03   -0.25817E+01   -0.20585E+01  2856   0.107E+02 0.246E+01
CGA:  12    -0.995550921068E+03   -0.11105E+00   -0.98137E+00  2856   0.437E+01 0.100E+01
CGA:  13    -0.996324076983E+03   -0.77316E+00   -0.21729E+00  2856   0.107E+02 0.137E+02
CGA:  14    -0.996178142600E+03    0.14593E+00   -0.71452E+00  2856   0.273E+02-0.130E+02
CGA:  15    -0.995793721021E+03    0.38442E+00   -0.21087E+01  2856   0.761E+01-0.484E+01
CGA:  16    -0.997048609640E+03   -0.12549E+01   -0.24481E+00  2856   0.512E+01 0.144E+02
CGA:  17    -0.997050535099E+03   -0.19255E-02   -0.25099E+00  2856   0.780E+01-0.512E+01
CGA:  18    -0.997008684238E+03    0.41851E-01   -0.38648E+00  2856   0.112E+02-0.796E+01
CGA:  19    -0.996854433831E+03    0.15425E+00   -0.59059E+00  2856   0.166E+02-0.119E+02
CGA:  20    -0.996574972785E+03    0.27946E+00   -0.92511E+00  2856   0.247E+02-0.180E+02
CGA:  21    -0.996492144096E+03    0.82829E-01   -0.13543E+01  2856   0.161E+02-0.139E+02
CGA:  22    -0.996604517553E+03   -0.11237E+00   -0.84267E+00  2856   0.259E+02-0.267E+02
CGA:  23    -0.996668602943E+03   -0.64085E-01   -0.13718E+01  2856   0.137E+02-0.132E+02
CGA:  24    -0.997074674468E+03   -0.40607E+00   -0.63078E+00  2856   0.149E+02-0.212E+02
CGA:  25    -0.997100135959E+03   -0.25461E-01   -0.72791E+00  2856   0.109E+02-0.106E+02
CGA:  26    -0.997371340352E+03   -0.27120E+00   -0.41596E+00  2856   0.408E+01-0.776E+01
CGA:  27    -0.997442305228E+03   -0.70965E-01   -0.15256E+00  2856   0.151E+01-0.214E+01
CGA:  28    -0.997479617599E+03   -0.37312E-01   -0.38247E-01  2856   0.125E+00 0.663E-01
CGA:  29    -0.997555057426E+03   -0.75440E-01   -0.68009E-01  2856   0.147E+01 0.208E-01
CGA:  30    -0.997608675886E+03   -0.53618E-01   -0.50661E-01  2856   0.140E+01-0.367E+01
CGA:  31    -0.997641509999E+03   -0.32834E-01   -0.34982E-01  2856   0.105E+00-0.408E-01
CGA:  32    -0.997650684356E+03   -0.91744E-02   -0.91559E-02  2856   0.944E-01-0.372E-02
CGA:  33    -0.997673488238E+03   -0.22804E-01   -0.19827E-01  2856   0.289E+00 0.271E-01
CGA:  34    -0.997695953114E+03   -0.22465E-01   -0.25185E-01  2856   0.278E+00-0.313E-02
CGA:  35    -0.997715398763E+03   -0.19446E-01   -0.20213E-01  2856   0.221E+00-0.715E-02
CGA:  36    -0.997747948109E+03   -0.32549E-01   -0.31124E-01  2856   0.170E+00 0.253E-01
CGA:  37    -0.997800207522E+03   -0.52259E-01   -0.52981E-01  2856   0.210E+00-0.447E-02
CGA:  38    -0.997833180097E+03   -0.32973E-01   -0.32280E-01  2856   0.147E+00 0.124E-02
CGA:  39    -0.997839905779E+03   -0.67257E-02   -0.85228E-01  2856   0.465E+00-0.137E+00
CGA:  40    -0.997900264999E+03   -0.60359E-01   -0.58328E-01  2856   0.159E+00-0.284E-01
CGA:  41    -0.997931838329E+03   -0.31573E-01   -0.31486E-01  2856   0.940E-01 0.259E-02
CGA:  42    -0.997947400572E+03   -0.15562E-01   -0.15831E-01  2856   0.134E+00-0.147E-01
CGA:  43    -0.997965368760E+03   -0.17968E-01   -0.36964E-01  2856   0.417E+00-0.114E+00
CGA:  44    -0.997989106307E+03   -0.23738E-01   -0.23503E-01  2856   0.377E-01-0.119E-01
CGA:  45    -0.997993893173E+03   -0.47869E-02   -0.48423E-02  2856   0.280E-01 0.262E-02
CGA:  46    -0.997997835359E+03   -0.39422E-02   -0.39565E-02  2856   0.892E-02 0.404E-03
CGA:  47    -0.997999872111E+03   -0.20368E-02   -0.23125E-02  2856   0.183E-01-0.273E-02
CGA:  48    -0.998001613510E+03   -0.17414E-02   -0.16330E-02  2856   0.106E-01-0.419E-02
CGA:  49    -0.998002563953E+03   -0.95044E-03   -0.87383E-03  2856   0.543E-02-0.316E-03
CGA:  50    -0.998003565503E+03   -0.10015E-02   -0.10466E-02  2856   0.111E-01-0.989E-03
CGA:  51    -0.998004798574E+03   -0.12331E-02   -0.10894E-02  2856   0.473E-02-0.386E-02
CGA:  52    -0.998005272807E+03   -0.47423E-03   -0.41790E-03  2856   0.540E-02-0.272E-02
CGA:  53    -0.998005737491E+03   -0.46468E-03   -0.49184E-03  2856   0.234E-02 0.395E-03
CGA:  54    -0.998006180865E+03   -0.44337E-03   -0.45457E-03  2856   0.204E-02-0.348E-03
CGA:  55    -0.998006355882E+03   -0.17502E-03   -0.16637E-03  2856   0.607E-03-0.148E-03
CGA:  56    -0.998006257437E+03    0.98446E-04   -0.27079E-03  2856   0.621E-02-0.107E-02
CGA:  57    -0.998006567066E+03   -0.30963E-03   -0.37234E-03  2856   0.649E-03 0.131E-02
CGA:  58    -0.998006601395E+03   -0.34329E-04   -0.47586E-04  2856   0.149E-03 0.183E-03
CGA:  59    -0.998006606282E+03   -0.48875E-05   -0.62617E-04  2856   0.137E-02-0.338E-03
CGA:  60    -0.998006720098E+03   -0.11382E-03   -0.10615E-03  2856   0.141E-03-0.104E-03
CGA:  61    -0.998005457066E+03    0.12630E-02   -0.70399E-03  2856   0.294E-01-0.159E-02
CGA:  62    -0.998006677803E+03   -0.12207E-02   -0.13561E-02  2856   0.103E-02 0.255E-02
CGA:  63    -0.998006722215E+03   -0.44411E-04   -0.68273E-04  2856   0.204E-03 0.241E-03
CGA:  64    -0.998006765196E+03   -0.42982E-04   -0.25942E-04  2856   0.150E-03-0.868E-04
CGA:  65    -0.998006860800E+03   -0.95604E-04    0.99537E-05  2856   0.401E-03-0.180E-03
CGA:  66    -0.998006883421E+03   -0.22621E-04   -0.30644E-04  2856   0.899E-04 0.434E-04
CGA:  67    -0.998006876017E+03    0.74041E-05   -0.50912E-05  2856   0.425E-04 0.619E-04
   1 F= -.99800688E+03 E0= -.99799435E+03  d E =-.998007E+03  mag=     2.0000
       N       E                     dE             d eps       ncg     rms          ort
SDA:   1    -0.997985347440E+03    0.21536E-01    0.00000E+00  2856   0.547E-01 0.000E+00
CGA:   2    -0.997995646299E+03   -0.10299E-01   -0.10187E-01  2856   0.830E-01-0.210E-02
CGA:   3    -0.998002703987E+03   -0.70577E-02   -0.68768E-02  2856   0.143E-01 0.259E-02
CGA:   4    -0.998004460693E+03   -0.17567E-02   -0.18251E-02  2856   0.646E-02-0.332E-03
CGA:   5    -0.998005179789E+03   -0.71910E-03   -0.79275E-03  2856   0.280E-02 0.798E-03
CGA:   6    -0.998005313674E+03   -0.13388E-03   -0.20477E-03  2856   0.615E-03 0.541E-03
CGA:   7    -0.998005296373E+03    0.17302E-04   -0.40388E-03  2856   0.574E-02-0.122E-02
CGA:   8    -0.998005629295E+03   -0.33292E-03   -0.37448E-03  2856   0.790E-03 0.373E-04
CGA:   9    -0.998005634183E+03   -0.48876E-05   -0.61360E-04  2856   0.236E-03 0.412E-03
CGA:  10    -0.998005631665E+03    0.25173E-05   -0.16330E-04  2856   0.120E-03 0.136E-03
CGA:  11    -0.998005641862E+03   -0.10196E-04   -0.15351E-04  2856   0.602E-04 0.702E-04
CGA:  12    -0.998005651996E+03   -0.10134E-04   -0.10545E-04  2856   0.565E-04 0.182E-04
CGA:  13    -0.998005180624E+03    0.47137E-03   -0.25610E-03  2856   0.633E-02-0.533E-03
CGA:  14    -0.998005498790E+03   -0.31817E-03   -0.35589E-03  2856   0.560E-03 0.433E-03
CGA:  15    -0.998005664874E+03   -0.16608E-03   -0.16661E-03  2856   0.676E-03 0.789E-05
CGA:  16    -0.998005702315E+03   -0.37441E-04   -0.44057E-04  2856   0.395E-04 0.160E-04
CGA:  17    -0.998005699032E+03    0.32823E-05   -0.27950E-05  2856   0.262E-04 0.236E-04
   2 F= -.99800570E+03 E0= -.99799319E+03  d E =0.117698E-02  mag=     2.0000
       N       E                     dE             d eps       ncg     rms          ort
SDA:   1    -0.997995173682E+03    0.10529E-01    0.00000E+00  2856   0.333E-01 0.000E+00
CGA:   2    -0.998000405413E+03   -0.52317E-02   -0.53711E-02  2856   0.434E-01 0.349E-03
CGA:   3    -0.998005037244E+03   -0.46318E-02   -0.46253E-02  2856   0.113E-01-0.151E-02
CGA:   4    -0.998005962279E+03   -0.92504E-03   -0.96839E-03  2856   0.303E-02 0.811E-03
CGA:   5    -0.998006644208E+03   -0.68193E-03   -0.63997E-03  2856   0.287E-02-0.525E-03
CGA:   6    -0.998006927580E+03   -0.28337E-03   -0.22069E-03  2856   0.563E-03-0.450E-03
CGA:   7    -0.998006974097E+03   -0.46517E-04   -0.66019E-04  2856   0.254E-03 0.159E-03
CGA:   8    -0.998006970226E+03    0.38718E-05   -0.22585E-04  2856   0.834E-04 0.143E-03
CGA:   9    -0.998006872659E+03    0.97566E-04   -0.93165E-04  2856   0.160E-02-0.219E-03
CGA:  10    -0.998006979745E+03   -0.10709E-03   -0.12198E-03  2856   0.321E-03 0.890E-04
CGA:  11    -0.998007018902E+03   -0.39157E-04   -0.44345E-04  2856   0.121E-03 0.343E-04
CGA:  12    -0.998007013954E+03    0.49483E-05   -0.79223E-05  2856   0.326E-04 0.612E-04
   3 F= -.99800701E+03 E0= -.99799447E+03  d E =-.137937E-03  mag=     2.0000
       N       E                     dE             d eps       ncg     rms          ort
SDA:   1    -0.998006541493E+03    0.47741E-03    0.00000E+00  2856   0.101E-01 0.000E+00
CGA:   2    -0.998007030951E+03   -0.48946E-03   -0.49385E-03  2856   0.621E-03 0.190E-02
CGA:   3    -0.998007035172E+03   -0.42210E-05   -0.33374E-04  2856   0.121E-03 0.214E-03
CGA:   4    -0.998007030101E+03    0.50702E-05   -0.70221E-05  2856   0.508E-04 0.676E-04
CGA:   5    -0.998007043579E+03   -0.13478E-04   -0.14818E-04  2856   0.137E-03-0.209E-04
CGA:   6    -0.998007041698E+03    0.18810E-05   -0.32180E-05  2856   0.712E-04 0.272E-04
   4 F= -.99800704E+03 E0= -.99799452E+03  d E =-.165681E-03  mag=     2.0000
       N       E                     dE             d eps       ncg     rms          ort
SDA:   1    -0.998006818227E+03    0.22535E-03    0.00000E+00  2856   0.264E-02 0.000E+00
CGA:   2    -0.998006993623E+03   -0.17540E-03   -0.15164E-03  2856   0.669E-04-0.249E-03
CGA:   3    -0.998007004096E+03   -0.10473E-04   -0.16810E-04  2856   0.342E-03-0.857E-04
CGA:   4    -0.998007034025E+03   -0.29929E-04   -0.21786E-04  2856   0.182E-04-0.625E-04
CGA:   5    -0.998007033127E+03    0.89815E-06   -0.53983E-06  2856   0.626E-05 0.876E-05
   5 F= -.99800703E+03 E0= -.99799451E+03  d E =-.157110E-03  mag=     2.0000
       N       E                     dE             d eps       ncg     rms          ort
SDA:   1    -0.998006994130E+03    0.39895E-04    0.00000E+00  2856   0.229E-03 0.000E+00
CGA:   2    -0.998007022859E+03   -0.28729E-04   -0.17749E-04  2856   0.578E-04-0.108E-03
CGA:   3    -0.998007025332E+03   -0.24725E-05   -0.29029E-05  2856   0.201E-05 0.509E-05
CGA:   4    -0.998007027553E+03   -0.22210E-05    0.99062E-07  2856   0.708E-05-0.193E-05
   6 F= -.99800703E+03 E0= -.99799450E+03  d E =-.151536E-03  mag=     2.0000
       N       E                     dE             d eps       ncg     rms          ort
SDA:   1    -0.998004531670E+03    0.24937E-02    0.00000E+00  2856   0.508E-01 0.000E+00
CGA:   2    -0.998006962950E+03   -0.24313E-02   -0.24471E-02  2856   0.410E-03 0.319E-03
CGA:   3    -0.998007020727E+03   -0.57777E-04   -0.40298E-04  2856   0.413E-03-0.242E-03
CGA:   4    -0.998007021347E+03   -0.61994E-06   -0.15429E-04  2856   0.538E-04 0.112E-03
   7 F= -.99800702E+03 E0= -.99799450E+03  d E =-.145330E-03  mag=     2.0000
       N       E                     dE             d eps       ncg     rms          ort
SDA:   1    -0.998000175415E+03    0.68453E-02    0.00000E+00  2856   0.193E-01 0.000E+00
CGA:   2    -0.998003025625E+03   -0.28502E-02   -0.28562E-02  2856   0.215E-01 0.794E-03
CGA:   3    -0.998006027722E+03   -0.30021E-02   -0.29729E-02  2856   0.459E-02-0.139E-02
CGA:   4    -0.998006300802E+03   -0.27308E-03   -0.32441E-03  2856   0.204E-02 0.696E-03
CGA:   5    -0.998006615465E+03   -0.31466E-03   -0.32036E-03  2856   0.488E-03 0.428E-03
CGA:   6    -0.998006709900E+03   -0.94434E-04   -0.10954E-03  2856   0.132E-02-0.418E-03
CGA:   7    -0.998006744196E+03   -0.34296E-04   -0.58004E-04  2856   0.866E-04 0.214E-03
CGA:   8    -0.998006748629E+03   -0.44336E-05   -0.66624E-05  2856   0.577E-04 0.278E-04
CGA:   9    -0.998006605092E+03    0.14354E-03   -0.78282E-04  2856   0.154E-02-0.287E-03
CGA:  10    -0.998006675804E+03   -0.70712E-04   -0.10100E-03  2856   0.507E-03 0.179E-03
CGA:  11    -0.998006741988E+03   -0.66185E-04   -0.77100E-04  2856   0.121E-03 0.968E-04
CGA:  12    -0.998006748109E+03   -0.61204E-05   -0.98849E-05  2856   0.243E-04 0.215E-04
   8 F= -.99800675E+03 E0= -.99799422E+03  d E =0.273238E-03  mag=     2.0000
       N       E                     dE             d eps       ncg     rms          ort
SDA:   1    -0.998003841452E+03    0.29005E-02    0.00000E+00  2856   0.147E-01 0.000E+00
CGA:   2    -0.998004731725E+03   -0.89027E-03   -0.93687E-03  2856   0.660E-02 0.117E-02
CGA:   3    -0.998006555372E+03   -0.18236E-02   -0.18304E-02  2856   0.164E-02-0.215E-03
CGA:   4    -0.998006772480E+03   -0.21711E-03   -0.19894E-03  2856   0.176E-02-0.176E-03
CGA:   5    -0.998006897197E+03   -0.12472E-03   -0.13818E-03  2856   0.385E-03 0.106E-03
CGA:   6    -0.998006953621E+03   -0.56424E-04   -0.45220E-04  2856   0.244E-03-0.112E-03
CGA:   7    -0.998006989183E+03   -0.35562E-04   -0.25032E-04  2856   0.407E-03-0.163E-03
CGA:   8    -0.998006983590E+03    0.55932E-05   -0.15412E-04  2856   0.621E-04 0.128E-03
   9 F= -.99800698E+03 E0= -.99799447E+03  d E =0.377568E-04  mag=     2.0000
       N       E                     dE             d eps       ncg     rms          ort
SDA:   1    -0.998006551941E+03    0.43724E-03    0.00000E+00  2856   0.315E-02 0.000E+00
CGA:   2    -0.998006810960E+03   -0.25902E-03   -0.24622E-03  2856   0.908E-03-0.354E-03
CGA:   3    -0.998006942984E+03   -0.13202E-03   -0.12077E-03  2856   0.129E-02-0.336E-03
CGA:   4    -0.998006981677E+03   -0.38693E-04   -0.60905E-04  2856   0.379E-03 0.207E-03
CGA:   5    -0.998006982288E+03   -0.61162E-06   -0.16023E-04  2856   0.811E-04 0.113E-03
  10 F= -.99800698E+03 E0= -.99799445E+03  d E =0.390585E-04  mag=     2.0000
       N       E                     dE             d eps       ncg     rms          ort
SDA:   1    -0.998006402575E+03    0.57910E-03    0.00000E+00  2856   0.174E-01 0.000E+00
CGA:   2    -0.998007034849E+03   -0.63227E-03   -0.68048E-03  2856   0.420E-03 0.209E-02
CGA:   3    -0.998007032058E+03    0.27909E-05   -0.17148E-04  2856   0.128E-03 0.166E-03
CGA:   4    -0.998007026171E+03    0.58880E-05   -0.64505E-05  2856   0.920E-04 0.106E-03
  11 F= -.99800703E+03 E0= -.99799453E+03  d E =-.482353E-05  mag=     2.0000
       N       E                     dE             d eps       ncg     rms          ort
SDA:   1    -0.998006096393E+03    0.93567E-03    0.00000E+00  2856   0.181E-01 0.000E+00
CGA:   2    -0.998006981761E+03   -0.88537E-03   -0.84701E-03  2856   0.295E-03-0.207E-02
CGA:   3    -0.998006988946E+03   -0.71848E-05   -0.11717E-04  2856   0.249E-04 0.483E-04
CGA:   4    -0.998007002292E+03   -0.13346E-04    0.27061E-05  2856   0.550E-04-0.514E-05
CGA:   5    -0.998007046392E+03   -0.44100E-04    0.10571E-05  2856   0.463E-04-0.358E-04
CGA:   6    -0.998007044013E+03    0.23787E-05   -0.11969E-05  2856   0.243E-04 0.330E-04
  12 F= -.99800704E+03 E0= -.99799453E+03  d E =-.226663E-04  mag=     2.0000
       N       E                     dE             d eps       ncg     rms          ort
SDA:   1    -0.998005375832E+03    0.16706E-02    0.00000E+00  2856   0.508E-02 0.000E+00
CGA:   2    -0.998006169932E+03   -0.79410E-03   -0.82803E-03  2856   0.705E-02-0.873E-03
CGA:   3    -0.998006838745E+03   -0.66881E-03   -0.64521E-03  2856   0.292E-02-0.166E-02
CGA:   4    -0.998006934239E+03   -0.95493E-04   -0.13826E-03  2856   0.959E-03 0.702E-03
CGA:   5    -0.998006947190E+03   -0.12951E-04   -0.54057E-04  2856   0.464E-03 0.543E-03
CGA:   6    -0.998007006566E+03   -0.59376E-04   -0.58425E-04  2856   0.196E-03 0.113E-03
CGA:   7    -0.998007010707E+03   -0.41410E-05   -0.12384E-04  2856   0.575E-04 0.123E-03
  13 F= -.99800701E+03 E0= -.99799448E+03  d E =0.333063E-04  mag=     2.0000
       N       E                     dE             d eps       ncg     rms          ort
SDA:   1    -0.998006184373E+03    0.82219E-03    0.00000E+00  2856   0.946E-02 0.000E+00
CGA:   2    -0.998006667295E+03   -0.48292E-03   -0.52396E-03  2856   0.110E-02 0.555E-03
CGA:   3    -0.998006819166E+03   -0.15187E-03   -0.14819E-03  2856   0.782E-03 0.285E-03
CGA:   4    -0.998006945800E+03   -0.12663E-03   -0.12539E-03  2856   0.322E-03 0.946E-04
CGA:   5    -0.998007029568E+03   -0.83768E-04    0.21458E-02  2856   0.149E-03-0.575E-04
CGA:   6    -0.998007037434E+03   -0.78659E-05   -0.99855E-05  2856   0.476E-04 0.631E-04
  14 F= -.99800704E+03 E0= -.99799452E+03  d E =0.657895E-05  mag=     2.0000
       N       E                     dE             d eps       ncg     rms          ort
SDA:   1    -0.998006979796E+03    0.49773E-04    0.00000E+00  2856   0.543E-03 0.000E+00
CGA:   2    -0.998007036964E+03   -0.57168E-04   -0.53922E-04  2856   0.321E-03-0.328E-03
CGA:   3    -0.998007050228E+03   -0.13264E-04   -0.15052E-04  2856   0.174E-04 0.292E-04
CGA:   4    -0.998007049098E+03    0.11295E-05   -0.29839E-06  2856   0.125E-04 0.159E-04
  15 F= -.99800705E+03 E0= -.99799453E+03  d E =-.508493E-05  mag=     2.0000
       N       E                     dE             d eps       ncg     rms          ort
SDA:   1    -0.998006954099E+03    0.96129E-04    0.00000E+00  2856   0.468E-03 0.000E+00
CGA:   2    -0.998004372225E+03    0.25819E-02   -0.14426E-02  2856   0.668E-01-0.537E-02
CGA:   3    -0.998007052512E+03   -0.26803E-02   -0.28738E-02  2856   0.119E-02 0.411E-02
CGA:   4    -0.998007066640E+03   -0.14127E-04   -0.55225E-04  2856   0.170E-03 0.389E-03
CGA:   5    -0.998007060337E+03    0.63025E-05   -0.67035E-05  2856   0.427E-04 0.103E-03
  16 F= -.99800706E+03 E0= -.99799455E+03  d E =-.163239E-04  mag=     2.0000
       N       E                     dE             d eps       ncg     rms          ort
SDA:   1    -0.998006641703E+03    0.42494E-03    0.00000E+00  2856   0.347E-02 0.000E+00
CGA:   2    -0.998006954005E+03   -0.31230E-03   -0.27621E-03  2856   0.405E-03-0.715E-03
CGA:   3    -0.998006992878E+03   -0.38873E-04   -0.55037E-04  2856   0.197E-02-0.679E-03
CGA:   4    -0.998007030978E+03   -0.38100E-04   -0.71769E-04  2856   0.613E-04 0.330E-03
CGA:   5    -0.998007027653E+03    0.33248E-05   -0.13851E-05  2856   0.192E-04 0.381E-04
  17 F= -.99800703E+03 E0= -.99799450E+03  d E =0.163603E-04  mag=     2.0000
       N       E                     dE             d eps       ncg     rms          ort
SDA:   1    -0.998006791727E+03    0.23925E-03    0.00000E+00  2856   0.310E-02 0.000E+00
CGA:   2    -0.998007009649E+03   -0.21792E-03   -0.16733E-03  2856   0.244E-03-0.753E-03
CGA:   3    -0.998007015231E+03   -0.55822E-05   -0.88897E-05  2856   0.174E-04 0.421E-04
CGA:   4    -0.998007015113E+03    0.11760E-06   -0.68488E-06  2856   0.715E-05 0.897E-05
  18 F= -.99800702E+03 E0= -.99799448E+03  d E =0.288999E-04  mag=     2.0000
       N       E                     dE             d eps       ncg     rms          ort
SDA:   1    -0.998007059204E+03   -0.43973E-04    0.00000E+00  2856   0.255E-03 0.000E+00
CGA:   2    -0.998007054353E+03    0.48505E-05   -0.68688E-05  2856   0.660E-04 0.129E-03
CGA:   3    -0.998007051090E+03    0.32638E-05   -0.11773E-05  2856   0.323E-04 0.464E-04
CGA:   4    -0.998007049073E+03    0.20166E-05   -0.43039E-06  2856   0.200E-04 0.256E-04
  19 F= -.99800705E+03 E0= -.99799453E+03  d E =-.505969E-05  mag=     2.0000
       N       E                     dE             d eps       ncg     rms          ort
SDA:   1    -0.998005903677E+03    0.11474E-02    0.00000E+00  2856   0.633E-02 0.000E+00
CGA:   2    -0.998006504821E+03   -0.60114E-03   -0.59395E-03  2856   0.300E-02-0.148E-02
CGA:   3    -0.998006897882E+03   -0.39306E-03   -0.44653E-03  2856   0.225E-02-0.569E-03
CGA:   4    -0.998006983724E+03   -0.85843E-04   -0.10947E-03  2856   0.423E-03 0.543E-03
CGA:   5    -0.998006998541E+03   -0.14816E-04   -0.24696E-04  2856   0.143E-03 0.179E-03
CGA:   6    -0.998007007603E+03   -0.90619E-05   -0.12581E-04  2856   0.106E-03 0.943E-04
CGA:   7    -0.998007020745E+03   -0.13143E-04   -0.13431E-04  2856   0.908E-04-0.102E-04
CGA:   8    -0.998006947270E+03    0.73475E-04   -0.41167E-04  2856   0.107E-02-0.234E-03
CGA:   9    -0.998006984112E+03   -0.36842E-04   -0.59394E-04  2856   0.172E-03 0.186E-03
CGA:  10    -0.998007014130E+03   -0.30018E-04   -0.30410E-04  2856   0.152E-03 0.174E-04
CGA:  11    -0.998007042202E+03   -0.28073E-04   -0.30913E-04  2856   0.290E-03-0.228E-03
CGA:  12    -0.998007047659E+03   -0.54564E-05   -0.14263E-04  2856   0.415E-04 0.712E-04
  20 F= -.99800705E+03 E0= -.99799452E+03  d E =0.141421E-05  mag=     2.0000
       N       E                     dE             d eps       ncg     rms          ort
SDA:   1    -0.998000059518E+03    0.69827E-02    0.00000E+00  2856   0.225E-01 0.000E+00
CGA:   2    -0.998002670020E+03   -0.26105E-02   -0.26398E-02  2856   0.234E-01 0.628E-03
CGA:   3    -0.998005887494E+03   -0.32175E-02   -0.31873E-02  2856   0.697E-02-0.131E-02
CGA:   4    -0.998006365986E+03   -0.47849E-03   -0.54976E-03  2856   0.191E-02 0.106E-02
CGA:   5    -0.998006630306E+03   -0.26432E-03   -0.27704E-03  2856   0.782E-03 0.469E-03
CGA:   6    -0.998006799112E+03   -0.16881E-03   -0.18873E-03  2856   0.751E-03-0.485E-03
CGA:   7    -0.998006816160E+03   -0.17048E-04   -0.41696E-04  2856   0.148E-03 0.267E-03
CGA:   8    -0.998006821282E+03   -0.51227E-05   -0.11948E-04  2856   0.664E-04 0.777E-04
  21 F= -.99800682E+03 E0= -.99799426E+03  d E =0.227791E-03  mag=     2.0000
       N       E                     dE             d eps       ncg     rms          ort
SDA:   1    -0.998003852013E+03    0.29641E-02    0.00000E+00  2856   0.165E-01 0.000E+00
CGA:   2    -0.998005123878E+03   -0.12719E-02   -0.11693E-02  2856   0.756E-02-0.158E-02
CGA:   3    -0.998006480713E+03   -0.13568E-02   -0.13471E-02  2856   0.376E-02 0.176E-03
CGA:   4    -0.998006765140E+03   -0.28443E-03   -0.28329E-03  2856   0.776E-03-0.191E-04
CGA:   5    -0.998006930156E+03   -0.16502E-03   -0.16766E-03  2856   0.390E-03-0.357E-04
CGA:   6    -0.998006978470E+03   -0.48314E-04   -0.72871E-04  2856   0.126E-02-0.482E-03
CGA:   7    -0.998007006517E+03   -0.28047E-04   -0.51038E-04  2856   0.893E-04 0.232E-03
CGA:   8    -0.998007004407E+03    0.21098E-05   -0.36501E-05  2856   0.396E-04 0.536E-04
  22 F= -.99800700E+03 E0= -.99799446E+03  d E =0.446660E-04  mag=     2.0000
       N       E                     dE             d eps       ncg     rms          ort
SDA:   1    -0.998006751107E+03    0.25541E-03    0.00000E+00  2856   0.117E-02 0.000E+00
CGA:   2    -0.998006887727E+03   -0.13662E-03   -0.11617E-03  2856   0.147E-02-0.630E-03
CGA:   3    -0.998006921325E+03   -0.33598E-04   -0.57849E-04  2856   0.184E-03 0.275E-03
CGA:   4    -0.998006932667E+03   -0.11342E-04   -0.16286E-04  2856   0.213E-03 0.945E-04
CGA:   5    -0.998005932667E+03    0.10000E-02   -0.55613E-03  2856   0.290E-01-0.172E-02
CGA:   6    -0.998007016626E+03   -0.10840E-02   -0.11054E-02  2856   0.499E-03 0.362E-02
CGA:   7    -0.998007017443E+03   -0.81636E-06   -0.19546E-04  2856   0.656E-04 0.108E-03
  23 F= -.99800702E+03 E0= -.99799447E+03  d E =0.316304E-04  mag=     2.0000
       N       E                     dE             d eps       ncg     rms          ort
SDA:   1    -0.998006666899E+03    0.34973E-03    0.00000E+00  2856   0.867E-02 0.000E+00
CGA:   2    -0.998006950313E+03   -0.28341E-03   -0.34348E-03  2856   0.268E-03 0.837E-03
CGA:   3    -0.998006957889E+03   -0.75761E-05   -0.20413E-04  2856   0.228E-03 0.105E-03
CGA:   4    -0.998007010117E+03   -0.52228E-04   -0.52910E-04  2856   0.796E-04 0.371E-04
CGA:   5    -0.998005849657E+03    0.11605E-02   -0.63780E-03  2856   0.257E-01-0.127E-02
CGA:   6    -0.998006819742E+03   -0.97009E-03   -0.11458E-02  2856   0.693E-03 0.744E-03
CGA:   7    -0.998006875083E+03   -0.55341E-04   -0.76403E-04  2856   0.561E-03 0.106E-03
CGA:   8    -0.998006995952E+03   -0.12087E-03   -0.12152E-03  2856   0.232E-03 0.349E-05
CGA:   9    -0.998007019948E+03   -0.23996E-04   -0.23297E-04  2856   0.134E-03-0.409E-05
CGA:  10    -0.998007057988E+03   -0.38040E-04   -0.23659E-04  2856   0.207E-03-0.126E-03
CGA:  11    -0.998007052353E+03    0.56350E-05   -0.83236E-05  2856   0.308E-04 0.579E-04
  24 F= -.99800705E+03 E0= -.99799452E+03  d E =-.327977E-05  mag=     2.0000
       N       E                     dE             d eps       ncg     rms          ort
SDA:   1    -0.998006891457E+03    0.16653E-03    0.00000E+00  2856   0.125E-02 0.000E+00
CGA:   2    -0.998006954876E+03   -0.63419E-04   -0.67519E-04  2856   0.210E-03 0.228E-04
CGA:   3    -0.998006370769E+03    0.58411E-03   -0.18605E-03  2856   0.105E-01-0.125E-02
CGA:   4    -0.998006860800E+03   -0.49003E-03   -0.63990E-03  2856   0.186E-02 0.127E-02
CGA:   5    -0.998006979036E+03   -0.11824E-03   -0.15727E-03  2856   0.316E-03 0.255E-03
CGA:   6    -0.998007029338E+03   -0.50301E-04   -0.45297E-04  2856   0.700E-04-0.380E-04
CGA:   7    -0.998007027226E+03    0.21118E-05   -0.29822E-05  2856   0.301E-04 0.244E-04
  25 F= -.99800703E+03 E0= -.99799448E+03  d E =0.218470E-04  mag=     2.0000
       N       E                     dE             d eps       ncg     rms          ort
SDA:   1    -0.998006754653E+03    0.27469E-03    0.00000E+00  2856   0.906E-02 0.000E+00
CGA:   2    -0.998007049113E+03   -0.29446E-03   -0.35168E-03  2856   0.114E-03 0.868E-03
CGA:   3    -0.998007045715E+03    0.33980E-05   -0.42963E-05  2856   0.266E-04 0.396E-04
CGA:   4    -0.998007043698E+03    0.20168E-05   -0.14104E-05  2856   0.197E-04 0.190E-04
  26 F= -.99800704E+03 E0= -.99799453E+03  d E =0.537484E-05  mag=     2.0000
       N       E                     dE             d eps       ncg     rms          ort
SDA:   1    -0.998000308196E+03    0.67375E-02    0.00000E+00  2856   0.157E+00 0.000E+00
CGA:   2    -0.998006475775E+03   -0.61676E-02   -0.84133E-02  2856   0.132E-01-0.431E-01
CGA:   3    -0.998006961506E+03   -0.48573E-03   -0.53003E-03  2856   0.208E-03 0.830E-03
CGA:   4    -0.998006967460E+03   -0.59542E-05   -0.13892E-04  2856   0.121E-03 0.575E-04
CGA:   5    -0.998006995242E+03   -0.27782E-04   -0.57003E-04  2856   0.231E-03-0.169E-03
CGA:   6    -0.998007040303E+03   -0.45061E-04   -0.40647E-04  2856   0.502E-03-0.171E-03
CGA:   7    -0.998007041670E+03   -0.13666E-05   -0.20105E-04  2856   0.338E-04 0.114E-03
  27 F= -.99800704E+03 E0= -.99799451E+03  d E =0.740319E-05  mag=     2.0000
       N       E                     dE             d eps       ncg     rms          ort
SDA:   1    -0.998006860495E+03    0.17981E-03    0.00000E+00  2856   0.200E-02 0.000E+00
CGA:   2    -0.998007028694E+03   -0.16820E-03   -0.12440E-03  2856   0.118E-03-0.403E-03
CGA:   3    -0.998007028443E+03    0.25085E-06   -0.41428E-05  2856   0.183E-04 0.322E-04
CGA:   4    -0.998007027661E+03    0.78226E-06   -0.70163E-06  2856   0.617E-05 0.104E-04
  28 F= -.99800703E+03 E0= -.99799448E+03  d E =0.214120E-04  mag=     2.0000
       N       E                     dE             d eps       ncg     rms          ort
SDA:   1    -0.998006828477E+03    0.19997E-03    0.00000E+00  2856   0.279E-02 0.000E+00
CGA:   2    -0.998006980824E+03   -0.15235E-03   -0.14563E-03  2856   0.186E-03-0.829E-04
CGA:   3    -0.998006990035E+03   -0.92119E-05   -0.15182E-04  2856   0.111E-03 0.794E-04
CGA:   4    -0.998007026334E+03   -0.36299E-04   -0.46736E-04  2856   0.183E-03-0.751E-04
CGA:   5    -0.998007031245E+03   -0.49107E-05   -0.90104E-05  2856   0.235E-04 0.364E-04
  29 F= -.99800703E+03 E0= -.99799449E+03  d E =-.358392E-05  mag=     2.0000
       N       E                     dE             d eps       ncg     rms          ort
SDA:   1    -0.998006189313E+03    0.83702E-03    0.00000E+00  2856   0.272E-02 0.000E+00
CGA:   2    -0.998006543745E+03   -0.35443E-03   -0.35096E-03  2856   0.264E-02-0.152E-03
CGA:   3    -0.998006955214E+03   -0.41147E-03   -0.41520E-03  2856   0.655E-03-0.237E-03
CGA:   4    -0.998006982157E+03   -0.26943E-04   -0.43203E-04  2856   0.210E-03 0.217E-03
CGA:   5    -0.998006986887E+03   -0.47293E-05   -0.17184E-04  2856   0.101E-03 0.146E-03
CGA:   6    -0.998006891851E+03    0.95036E-04   -0.70014E-04  2856   0.195E-02-0.297E-03
CGA:   7    -0.998006984735E+03   -0.92884E-04   -0.11212E-03  2856   0.224E-03 0.289E-03
CGA:   8    -0.998006986839E+03   -0.21043E-05   -0.13889E-04  2856   0.793E-04 0.109E-03
CGA:   9    -0.998006995383E+03   -0.85441E-05   -0.10243E-04  2856   0.502E-04 0.235E-04
CGA:  10    -0.998007025158E+03   -0.29775E-04    0.10733E-04  2856   0.423E-04-0.540E-04
CGA:  11    -0.998007022448E+03    0.27098E-05   -0.99038E-06  2856   0.199E-04 0.279E-04
  30 F= -.99800702E+03 E0= -.99799447E+03  d E =0.521306E-05  mag=     2.0000
       N       E                     dE             d eps       ncg     rms          ort
SDA:   1    -0.998003621288E+03    0.34039E-02    0.00000E+00  2856   0.979E-02 0.000E+00
CGA:   2    -0.998005454387E+03   -0.18331E-02   -0.19569E-02  2856   0.159E-01-0.223E-02
CGA:   3    -0.998006454767E+03   -0.10004E-02   -0.10447E-02  2856   0.457E-02 0.694E-03
CGA:   4    -0.998006665775E+03   -0.21101E-03   -0.26693E-03  2856   0.146E-02 0.990E-03
CGA:   5    -0.998006759942E+03   -0.94166E-04   -0.12044E-03  2856   0.814E-03 0.406E-03
CGA:   6    -0.998006851157E+03   -0.91215E-04   -0.94565E-04  2856   0.455E-03 0.742E-04
CGA:   7    -0.998006904902E+03   -0.53745E-04   -0.49341E-04  2856   0.203E-03-0.136E-03
CGA:   8    -0.998006921128E+03   -0.16227E-04   -0.25020E-04  2856   0.530E-03-0.195E-03
CGA:   9    -0.998006935489E+03   -0.14361E-04   -0.24359E-04  2856   0.649E-04 0.114E-03
CGA:  10    -0.998006937238E+03   -0.17486E-05   -0.43144E-05  2856   0.364E-04 0.346E-04
CGA:  11    -0.998006864700E+03    0.72538E-04   -0.39223E-04  2856   0.170E-02-0.148E-03
CGA:  12    -0.998006934245E+03   -0.69545E-04   -0.80445E-04  2856   0.735E-04 0.908E-04
CGA:  13    -0.998006945156E+03   -0.10911E-04   -0.25904E-04  2856   0.644E-03-0.131E-03
CGA:  14    -0.998006955261E+03   -0.10105E-04   -0.29243E-04  2856   0.219E-04 0.109E-03
CGA:  15    -0.998006953752E+03    0.15089E-05   -0.71789E-06  2856   0.551E-05 0.119E-04
  31 F= -.99800695E+03 E0= -.99799437E+03  d E =0.739091E-04  mag=     2.0000
       N       E                     dE             d eps       ncg     rms          ort
SDA:   1    -0.998005957897E+03    0.99736E-03    0.00000E+00  2856   0.264E-02 0.000E+00
CGA:   2    -0.998006634392E+03   -0.67650E-03   -0.66993E-03  2856   0.213E-02 0.112E-03
CGA:   3    -0.998006812277E+03   -0.17788E-03   -0.18601E-03  2856   0.604E-03 0.646E-04
CGA:   4    -0.998006901099E+03   -0.88822E-04   -0.19192E-03  2856   0.381E-02-0.906E-03
CGA:   5    -0.998006993086E+03   -0.91987E-04   -0.16040E-03  2856   0.265E-03 0.570E-03
CGA:   6    -0.998006986438E+03    0.66478E-05   -0.12735E-04  2856   0.887E-04 0.133E-03
  32 F= -.99800699E+03 E0= -.99799442E+03  d E =0.412230E-04  mag=     2.0000
       N       E                     dE             d eps       ncg     rms          ort
SDA:   1    -0.998006411070E+03    0.58202E-03    0.00000E+00  2856   0.521E-02 0.000E+00
CGA:   2    -0.998006732202E+03   -0.32113E-03   -0.28107E-03  2856   0.924E-03-0.625E-03
CGA:   3    -0.998006875891E+03   -0.14369E-03   -0.14313E-03  2856   0.339E-03 0.173E-03
CGA:   4    -0.998006918237E+03   -0.42346E-04   -0.12054E-03  2856   0.352E-02-0.625E-03
CGA:   5    -0.998007006862E+03   -0.88625E-04   -0.13504E-03  2856   0.824E-04 0.421E-03
CGA:   6    -0.998007003141E+03    0.37212E-05   -0.27424E-05  2856   0.316E-04 0.452E-04
  33 F= -.99800700E+03 E0= -.99799444E+03  d E =0.245200E-04  mag=     2.0000
       N       E                     dE             d eps       ncg     rms          ort
SDA:   1    -0.998007010792E+03   -0.39301E-05    0.00000E+00  2856   0.957E-04 0.000E+00
CGA:   2    -0.998007007613E+03    0.31791E-05   -0.30089E-05  2856   0.314E-04 0.478E-04
CGA:   3    -0.998007005205E+03    0.24080E-05   -0.12371E-05  2856   0.206E-04 0.285E-04
CGA:   4    -0.998007010487E+03   -0.52816E-05   -0.48228E-05  2856   0.175E-04 0.530E-05
  34 F= -.99800701E+03 E0= -.99799445E+03  d E =0.171743E-04  mag=     2.0000
       N       E                     dE             d eps       ncg     rms          ort
SDA:   1    -0.998006973976E+03    0.31229E-04    0.00000E+00  2856   0.639E-03 0.000E+00
CGA:   2    -0.998007023495E+03   -0.49519E-04   -0.35094E-04  2856   0.643E-04-0.174E-03
CGA:   3    -0.998007021236E+03    0.22585E-05   -0.12137E-05  2856   0.252E-04 0.301E-04
CGA:   4    -0.998007019230E+03    0.20063E-05   -0.56813E-06  2856   0.897E-05 0.214E-04
  35 F= -.99800702E+03 E0= -.99799446E+03  d E =0.843094E-05  mag=     2.0000
       N       E                     dE             d eps       ncg     rms          ort
SDA:   1    -0.998006908775E+03    0.11246E-03    0.00000E+00  2856   0.105E-02 0.000E+00
CGA:   2    -0.998006997963E+03   -0.89188E-04   -0.64579E-04  2856   0.232E-03-0.427E-03
CGA:   3    -0.998007003610E+03   -0.56465E-05   -0.82180E-05  2856   0.204E-04 0.420E-04
CGA:   4    -0.998007003010E+03    0.59938E-06   -0.56368E-06  2856   0.642E-05 0.123E-04
  36 F= -.99800700E+03 E0= -.99799444E+03  d E =0.246505E-04  mag=     2.0000
       N       E                     dE             d eps       ncg     rms          ort
SDA:   1    -0.998007006329E+03   -0.27193E-05    0.00000E+00  2856   0.111E-02 0.000E+00
CGA:   2    -0.998007024855E+03   -0.18526E-04   -0.37080E-04  2856   0.649E-04 0.249E-03
CGA:   3    -0.998007022545E+03    0.23097E-05   -0.14950E-05  2856   0.220E-04 0.431E-04
CGA:   4    -0.998007021428E+03    0.11167E-05   -0.36627E-06  2856   0.135E-04 0.172E-04
  37 F= -.99800702E+03 E0= -.99799446E+03  d E =0.623261E-05  mag=     2.0000
       N       E                     dE             d eps       ncg     rms          ort
SDA:   1    -0.998006720346E+03    0.30220E-03    0.00000E+00  2856   0.218E-02 0.000E+00
CGA:   2    -0.998006897400E+03   -0.17705E-03   -0.15898E-03  2856   0.112E-02-0.904E-03
CGA:   3    -0.998006998683E+03   -0.10128E-03   -0.10612E-03  2856   0.186E-03-0.728E-04
CGA:   4    -0.998007017287E+03   -0.18604E-04   -0.18260E-04  2856   0.659E-04 0.388E-04
CGA:   5    -0.998007017075E+03    0.21208E-06   -0.30431E-05  2856   0.306E-04 0.553E-04
  38 F= -.99800702E+03 E0= -.99799445E+03  d E =0.435334E-05  mag=     2.0000
       N       E                     dE             d eps       ncg     rms          ort
SDA:   1    -0.998007003439E+03    0.13849E-04    0.00000E+00  2856   0.276E-03 0.000E+00
CGA:   2    -0.998007003051E+03    0.38728E-06   -0.80857E-05  2856   0.823E-04 0.136E-03
CGA:   3    -0.998007000932E+03    0.21193E-05   -0.27259E-05  2856   0.456E-04 0.730E-04
CGA:   4    -0.998007004302E+03   -0.33703E-05   -0.35793E-05  2856   0.241E-04 0.306E-04
CGA:   5    -0.998007008764E+03   -0.44621E-05    0.11636E-04  2856   0.148E-04 0.184E-04
  39 F= -.99800701E+03 E0= -.99799445E+03  d E =0.126641E-04  mag=     2.0000
       N       E                     dE             d eps       ncg     rms          ort
SDA:   1    -0.998007008143E+03   -0.38403E-05    0.00000E+00  2856   0.126E-03 0.000E+00
CGA:   2    -0.998007034281E+03   -0.26138E-04    0.24413E-04  2856   0.905E-04-0.620E-04
CGA:   3    -0.998007034246E+03    0.35317E-07   -0.15253E-05  2856   0.544E-04 0.301E-04
CGA:   4    -0.998007032226E+03    0.20200E-05   -0.10650E-05  2856   0.216E-04 0.455E-04
  40 F= -.99800703E+03 E0= -.99799448E+03  d E =-.107973E-04  mag=     2.0000
       N       E                     dE             d eps       ncg     rms          ort
SDA:   1    -0.998006654429E+03    0.37982E-03    0.00000E+00  2856   0.583E-02 0.000E+00
CGA:   2    -0.998007001383E+03   -0.34695E-03   -0.31633E-03  2856   0.489E-03-0.158E-02
CGA:   3    -0.998007011696E+03   -0.10314E-04   -0.14426E-04  2856   0.576E-04 0.121E-03
CGA:   4    -0.998007010937E+03    0.75925E-06   -0.13140E-05  2856   0.176E-04 0.380E-04
  41 F= -.99800701E+03 E0= -.99799444E+03  d E =0.104913E-04  mag=     2.0000
       N       E                     dE             d eps       ncg     rms          ort
SDA:   1    -0.998006965959E+03    0.45737E-04    0.00000E+00  2856   0.790E-03 0.000E+00
CGA:   2    -0.998007020819E+03   -0.54860E-04   -0.57257E-04  2856   0.372E-03-0.496E-03
CGA:   3    -0.998007022749E+03   -0.19300E-05   -0.90703E-05  2856   0.729E-04 0.164E-03
CGA:   4    -0.998007021137E+03    0.16120E-05   -0.14648E-05  2856   0.244E-04 0.594E-04
  42 F= -.99800702E+03 E0= -.99799445E+03  d E =0.291169E-06  mag=     2.0000
       N       E                     dE             d eps       ncg     rms          ort
SDA:   1    -0.998006742521E+03    0.28023E-03    0.00000E+00  2856   0.421E-02 0.000E+00
CGA:   2    -0.998006986368E+03   -0.24385E-03   -0.23901E-03  2856   0.566E-03-0.135E-02
CGA:   3    -0.998006998671E+03   -0.12303E-04   -0.15888E-04  2856   0.125E-03 0.187E-03
CGA:   4    -0.998006999431E+03   -0.76029E-06   -0.38163E-05  2856   0.449E-04 0.838E-04
  43 F= -.99800700E+03 E0= -.99799442E+03  d E =0.217063E-04  mag=     2.0000
       N       E                     dE             d eps       ncg     rms          ort
SDA:   1    -0.998006473070E+03    0.52560E-03    0.00000E+00  2856   0.162E-01 0.000E+00
CGA:   2    -0.998007041502E+03   -0.56843E-03   -0.60790E-03  2856   0.257E-03 0.200E-02
CGA:   3    -0.998007040967E+03    0.53513E-06   -0.55350E-05  2856   0.734E-04 0.150E-03
CGA:   4    -0.998007039640E+03    0.13271E-05   -0.10178E-05  2856   0.401E-04 0.537E-04
  44 F= -.99800704E+03 E0= -.99799450E+03  d E =-.185024E-04  mag=     2.0000
       N       E                     dE             d eps       ncg     rms          ort
SDA:   1    -0.998006266624E+03    0.77434E-03    0.00000E+00  2856   0.150E-01 0.000E+00
CGA:   2    -0.998007006993E+03   -0.74037E-03   -0.73156E-03  2856   0.459E-03-0.249E-02
CGA:   3    -0.998007014858E+03   -0.78652E-05   -0.11632E-04  2856   0.875E-04 0.167E-03
CGA:   4    -0.998007014870E+03   -0.11474E-07   -0.20855E-05  2856   0.251E-04 0.604E-04
  45 F= -.99800701E+03 E0= -.99799445E+03  d E =0.626745E-05  mag=     2.0000
