       N       E                     dE             d eps       ncg     rms          ort
DAV:   1     0.412677557074E+04    0.41268E+04   -0.16957E+05  1824   0.159E+03
DAV:   2     0.359522587327E+01   -0.41232E+04   -0.39803E+04  1824   0.455E+02
DAV:   3    -0.712801109343E+03   -0.71640E+03   -0.67802E+03  1824   0.163E+02
DAV:   4    -0.768046222473E+03   -0.55245E+02   -0.54793E+02  1824   0.472E+01
DAV:   5    -0.769298960168E+03   -0.12527E+01   -0.12499E+01  1824   0.840E+00
SDA:   6    -0.480306939628E+03    0.28899E+03   -0.12499E+01  1824   0.878E+03 0.000E+00
CGA:   7    -0.603425422225E+03   -0.12312E+03   -0.11738E+03  1824   0.104E+03-0.181E+01
CGA:   8    -0.624020171207E+03   -0.20595E+02   -0.20602E+02  1824   0.459E+02-0.258E+01
CGA:   9    -0.633088375472E+03   -0.90682E+01   -0.90683E+01  1824   0.168E+02 0.377E-01
CGA:  10    -0.636442238242E+03   -0.33539E+01   -0.33540E+01  1824   0.497E+01 0.200E-01
CGA:  11    -0.637381823217E+03   -0.93958E+00   -0.93944E+00  1824   0.160E+01-0.208E-01
CGA:  12    -0.637731669738E+03   -0.34985E+00   -0.35014E+00  1824   0.666E+00-0.166E-01
CGA:  13    -0.637885329300E+03   -0.15366E+00   -0.15387E+00  1824   0.254E+00-0.124E-01
CGA:  14    -0.637942561012E+03   -0.57232E-01   -0.57444E-01  1824   0.114E+00-0.791E-02
CGA:  15    -0.637967506934E+03   -0.24946E-01   -0.24817E-01  1824   0.472E-01 0.504E-02
CGA:  16    -0.637981036454E+03   -0.13530E-01   -0.13366E-01  1824   0.187E-01 0.234E-02
CGA:  17    -0.637986870443E+03   -0.58340E-02   -0.62496E-02  1824   0.117E-01-0.371E-02
CGA:  18    -0.637989113476E+03   -0.22430E-02   -0.22585E-02  1824   0.499E-02-0.532E-03
CGA:  19    -0.637990647436E+03   -0.15340E-02   -0.17917E-02  1824   0.333E-02-0.159E-02
CGA:  20    -0.637991238692E+03   -0.59126E-03   -0.84186E-03  1824   0.373E-02-0.165E-02
CGA:  21    -0.637991418851E+03   -0.18016E-03   -0.20653E-03  1824   0.208E-02 0.262E-03
CGA:  22    -0.637991572642E+03   -0.15379E-03   -0.22173E-03  1824   0.108E-02 0.556E-03
CGA:  23    -0.637991711028E+03   -0.13839E-03   -0.17494E-03  1824   0.740E-03 0.414E-03
CGA:  24    -0.637991868562E+03   -0.15753E-03   -0.16006E-03  1824   0.340E-03 0.454E-04
CGA:  25    -0.637991954725E+03   -0.86163E-04   -0.97251E-04  1824   0.472E-03-0.183E-03
CGA:  26    -0.637991980495E+03   -0.25770E-04   -0.50277E-04  1824   0.156E-03 0.232E-03
CGA:  27    -0.637991995003E+03   -0.14508E-04   -0.25749E-04  1824   0.886E-04 0.116E-03
CGA:  28    -0.637992047340E+03   -0.52337E-04    0.19433E-04  1824   0.444E-04 0.406E-04
CGA:  29    -0.637992059060E+03   -0.11719E-04   -0.12215E-04  1824   0.218E-04 0.371E-04
CGA:  30    -0.637992056867E+03    0.21924E-05   -0.96376E-06  1824   0.200E-04 0.201E-04
   1 F= -.63799206E+03 E0= -.63799139E+03  d E =-.637992E+03  mag=    -0.0016
       N       E                     dE             d eps       ncg     rms          ort
SDA:   1    -0.638027832408E+03   -0.35773E-01    0.00000E+00  1824   0.377E-02 0.000E+00
CGA:   2    -0.638028642943E+03   -0.81054E-03   -0.80655E-03  1824   0.117E-02 0.145E-03
CGA:   3    -0.638028910458E+03   -0.26751E-03   -0.26784E-03  1824   0.540E-03-0.108E-04
CGA:   4    -0.638029032369E+03   -0.12191E-03   -0.12376E-03  1824   0.181E-03-0.448E-04
CGA:   5    -0.638029070593E+03   -0.38223E-04   -0.43445E-04  1824   0.152E-03-0.748E-04
CGA:   6    -0.638029083199E+03   -0.12607E-04   -0.12816E-04  1824   0.489E-04 0.407E-05
CGA:   7    -0.638029084688E+03   -0.14891E-05   -0.40544E-05  1824   0.239E-04 0.230E-04
   2 F= -.63802908E+03 E0= -.63802847E+03  d E =-.370278E-01  mag=    -0.0000
       N       E                     dE             d eps       ncg     rms          ort
SDA:   1    -0.632273211989E+03    0.57559E+01    0.00000E+00  1824   0.224E+02 0.000E+00
CGA:   2    -0.637387245351E+03   -0.51140E+01   -0.51099E+01  1824   0.788E+01 0.219E-01
CGA:   3    -0.639067907000E+03   -0.16807E+01   -0.16804E+01  1824   0.327E+01-0.558E-02
CGA:   4    -0.639772342781E+03   -0.70444E+00   -0.70427E+00  1824   0.960E+00 0.655E-03
CGA:   5    -0.639963139169E+03   -0.19080E+00   -0.19094E+00  1824   0.395E+00-0.944E-02
CGA:   6    -0.640049427150E+03   -0.86288E-01   -0.86321E-01  1824   0.136E+00-0.166E-02
CGA:   7    -0.640084299188E+03   -0.34872E-01   -0.34732E-01  1824   0.478E-01 0.192E-02
CGA:   8    -0.640095612460E+03   -0.11313E-01   -0.11264E-01  1824   0.184E-01 0.113E-02
CGA:   9    -0.640100045413E+03   -0.44330E-02   -0.44310E-02  1824   0.814E-02 0.486E-04
CGA:  10    -0.640101888691E+03   -0.18433E-02   -0.18452E-02  1824   0.308E-02-0.718E-04
CGA:  11    -0.640102762949E+03   -0.87426E-03   -0.90922E-03  1824   0.173E-02-0.349E-03
CGA:  12    -0.640103095362E+03   -0.33241E-03   -0.33352E-03  1824   0.633E-03-0.778E-04
CGA:  13    -0.640103261807E+03   -0.16645E-03   -0.17109E-03  1824   0.243E-03-0.586E-04
CGA:  14    -0.640103319601E+03   -0.57794E-04   -0.57372E-04  1824   0.119E-03 0.789E-05
CGA:  15    -0.640103347740E+03   -0.28139E-04   -0.28011E-04  1824   0.477E-04 0.674E-05
CGA:  16    -0.640103365799E+03   -0.18059E-04   -0.20069E-04  1824   0.395E-04-0.108E-04
CGA:  17    -0.640103170238E+03    0.19556E-03   -0.10493E-03  1824   0.158E-02-0.201E-03
CGA:  18    -0.640103320707E+03   -0.15047E-03   -0.16843E-03  1824   0.147E-03 0.306E-04
CGA:  19    -0.640103349144E+03   -0.28437E-04   -0.35436E-04  1824   0.445E-04 0.467E-04
CGA:  20    -0.640103366893E+03   -0.17749E-04   -0.18089E-04  1824   0.433E-04 0.451E-05
CGA:  21    -0.640103373129E+03   -0.62358E-05   -0.81410E-05  1824   0.156E-04 0.924E-05
   3 F= -.64010337E+03 E0= -.64010276E+03  d E =-.207429E+01  mag=     0.0000
       N       E                     dE             d eps       ncg     rms          ort
SDA:   1    -0.634737455952E+03    0.53659E+01    0.00000E+00  1824   0.206E+02 0.000E+00
CGA:   2    -0.638239599076E+03   -0.35021E+01   -0.35310E+01  1824   0.788E+01-0.290E-01
CGA:   3    -0.640017146427E+03   -0.17775E+01   -0.17794E+01  1824   0.236E+01 0.166E-02
CGA:   4    -0.640560582036E+03   -0.54344E+00   -0.54451E+00  1824   0.821E+00 0.302E-02
CGA:   5    -0.640706859335E+03   -0.14628E+00   -0.14511E+00  1824   0.285E+00 0.961E-03
CGA:   6    -0.640771747350E+03   -0.64888E-01   -0.64829E-01  1824   0.112E+00-0.162E-02
CGA:   7    -0.640799088145E+03   -0.27341E-01   -0.27320E-01  1824   0.397E-01-0.379E-03
CGA:   8    -0.640808686588E+03   -0.95984E-02   -0.96499E-02  1824   0.147E-01 0.601E-03
CGA:   9    -0.640812098858E+03   -0.34123E-02   -0.34168E-02  1824   0.698E-02 0.621E-04
CGA:  10    -0.640813633434E+03   -0.15346E-02   -0.15367E-02  1824   0.245E-02 0.140E-04
CGA:  11    -0.640814335014E+03   -0.70158E-03   -0.69805E-03  1824   0.121E-02-0.156E-03
CGA:  12    -0.640814610438E+03   -0.27542E-03   -0.27140E-03  1824   0.517E-03-0.623E-04
CGA:  13    -0.640814736204E+03   -0.12577E-03   -0.12224E-03  1824   0.220E-03-0.667E-04
CGA:  14    -0.640814777950E+03   -0.41746E-04   -0.42479E-04  1824   0.816E-04 0.936E-05
CGA:  15    -0.640814797908E+03   -0.19958E-04   -0.20623E-04  1824   0.283E-04 0.125E-04
CGA:  16    -0.640814806629E+03   -0.87215E-05   -0.88896E-05  1824   0.124E-04 0.797E-05
CGA:  17    -0.640814803407E+03    0.32229E-05   -0.16205E-04  1824   0.726E-04-0.267E-04
CGA:  18    -0.640814814420E+03   -0.11014E-04   -0.12256E-04  1824   0.186E-04 0.732E-05
CGA:  19    -0.640814817015E+03   -0.25948E-05   -0.33316E-05  1824   0.362E-05 0.459E-05
   4 F= -.64081482E+03 E0= -.64081399E+03  d E =-.711444E+00  mag=    -0.0000
       N       E                     dE             d eps       ncg     rms          ort
SDA:   1    -0.636498913852E+03    0.43159E+01    0.00000E+00  1824   0.230E+02 0.000E+00
CGA:   2    -0.639279629460E+03   -0.27807E+01   -0.28104E+01  1824   0.442E+01 0.249E-01
CGA:   3    -0.640656772655E+03   -0.13771E+01   -0.13771E+01  1824   0.161E+01-0.164E-02
CGA:   4    -0.640934466005E+03   -0.27769E+00   -0.27882E+00  1824   0.446E+00-0.704E-04
CGA:   5    -0.641017671832E+03   -0.83206E-01   -0.82944E-01  1824   0.148E+00 0.133E-03
CGA:   6    -0.641048912082E+03   -0.31240E-01   -0.31304E-01  1824   0.495E-01 0.453E-03
CGA:   7    -0.641061759269E+03   -0.12847E-01   -0.12838E-01  1824   0.192E-01-0.382E-03
CGA:   8    -0.641066007615E+03   -0.42483E-02   -0.42698E-02  1824   0.786E-02 0.344E-03
CGA:   9    -0.641067642095E+03   -0.16345E-02   -0.16453E-02  1824   0.316E-02 0.156E-03
CGA:  10    -0.641068451692E+03   -0.80960E-03   -0.81357E-03  1824   0.112E-02 0.186E-03
CGA:  11    -0.641068749363E+03   -0.29767E-03   -0.29817E-03  1824   0.575E-03 0.237E-04
CGA:  12    -0.641068879917E+03   -0.13055E-03   -0.13221E-03  1824   0.222E-03 0.359E-04
CGA:  13    -0.641068947580E+03   -0.67664E-04   -0.68002E-04  1824   0.109E-03-0.182E-04
CGA:  14    -0.641068961525E+03   -0.13944E-04   -0.16202E-04  1824   0.372E-04 0.210E-04
CGA:  15    -0.641068967371E+03   -0.58458E-05   -0.76229E-05  1824   0.145E-04 0.192E-04
   5 F= -.64106897E+03 E0= -.64106777E+03  d E =-.254150E+00  mag=     0.0000
       N       E                     dE             d eps       ncg     rms          ort
SDA:   1    -0.633255161210E+03    0.78138E+01    0.00000E+00  1824   0.423E+02 0.000E+00
CGA:   2    -0.638245075506E+03   -0.49899E+01   -0.50478E+01  1824   0.743E+01 0.113E+00
CGA:   3    -0.640567226356E+03   -0.23222E+01   -0.23230E+01  1824   0.303E+01-0.162E-01
CGA:   4    -0.641055738698E+03   -0.48851E+00   -0.49098E+00  1824   0.784E+00-0.425E-02
CGA:   5    -0.641197377724E+03   -0.14164E+00   -0.14114E+00  1824   0.248E+00-0.167E-02
CGA:   6    -0.641250878687E+03   -0.53501E-01   -0.53619E-01  1824   0.802E-01 0.334E-02
CGA:   7    -0.641271175786E+03   -0.20297E-01   -0.20294E-01  1824   0.318E-01 0.576E-03
CGA:   8    -0.641278150878E+03   -0.69751E-02   -0.69954E-02  1824   0.139E-01 0.676E-03
CGA:   9    -0.641281063779E+03   -0.29129E-02   -0.29214E-02  1824   0.536E-02 0.234E-03
CGA:  10    -0.641282481372E+03   -0.14176E-02   -0.14112E-02  1824   0.221E-02 0.362E-03
CGA:  11    -0.641282994868E+03   -0.51350E-03   -0.51877E-03  1824   0.894E-03 0.232E-03
CGA:  12    -0.641283214707E+03   -0.21984E-03   -0.22297E-03  1824   0.344E-03 0.203E-03
CGA:  13    -0.641283327850E+03   -0.11314E-03   -0.11163E-03  1824   0.150E-03 0.623E-04
CGA:  14    -0.641283355885E+03   -0.28035E-04   -0.31468E-04  1824   0.611E-04 0.533E-04
CGA:  15    -0.641283370038E+03   -0.14153E-04   -0.15844E-04  1824   0.212E-04 0.361E-04
CGA:  16    -0.641283376446E+03   -0.64082E-05   -0.60128E-05  1824   0.134E-04 0.824E-05
   6 F= -.64128338E+03 E0= -.64128163E+03  d E =-.214409E+00  mag=     0.0000
       N       E                     dE             d eps       ncg     rms          ort
SDA:   1    -0.633748992027E+03    0.75344E+01    0.00000E+00  1824   0.344E+02 0.000E+00
CGA:   2    -0.638270788733E+03   -0.45218E+01   -0.45370E+01  1824   0.862E+01 0.332E-01
CGA:   3    -0.640632697445E+03   -0.23619E+01   -0.23624E+01  1824   0.302E+01-0.977E-02
CGA:   4    -0.641189559193E+03   -0.55686E+00   -0.55760E+00  1824   0.984E+00 0.137E-02
CGA:   5    -0.641357405605E+03   -0.16785E+00   -0.16771E+00  1824   0.294E+00 0.507E-03
CGA:   6    -0.641420159066E+03   -0.62753E-01   -0.62808E-01  1824   0.963E-01 0.472E-02
CGA:   7    -0.641444852111E+03   -0.24693E-01   -0.24698E-01  1824   0.400E-01-0.189E-03
CGA:   8    -0.641453423879E+03   -0.85718E-02   -0.85795E-02  1824   0.163E-01 0.673E-03
CGA:   9    -0.641456806128E+03   -0.33822E-02   -0.33862E-02  1824   0.638E-02 0.192E-03
CGA:  10    -0.641458531689E+03   -0.17256E-02   -0.17208E-02  1824   0.292E-02 0.108E-03
CGA:  11    -0.641459163732E+03   -0.63204E-03   -0.63530E-03  1824   0.108E-02 0.279E-03
CGA:  12    -0.641459448000E+03   -0.28427E-03   -0.28160E-03  1824   0.433E-03 0.201E-03
CGA:  13    -0.641459590631E+03   -0.14263E-03   -0.14103E-03  1824   0.211E-03 0.325E-04
CGA:  14    -0.641459620575E+03   -0.29944E-04   -0.35367E-04  1824   0.784E-04 0.748E-04
CGA:  15    -0.641459636920E+03   -0.16345E-04   -0.18608E-04  1824   0.341E-04 0.459E-04
CGA:  16    -0.641459652265E+03   -0.15345E-04    0.29510E-03  1824   0.291E-04 0.682E-05
CGA:  17    -0.641459658244E+03   -0.59783E-05   -0.65024E-05  1824   0.101E-04 0.145E-04
   7 F= -.64145966E+03 E0= -.64145772E+03  d E =-.176282E+00  mag=     0.0000
       N       E                     dE             d eps       ncg     rms          ort
SDA:   1    -0.630280516907E+03    0.11179E+02    0.00000E+00  1824   0.464E+02 0.000E+00
CGA:   2    -0.636930537755E+03   -0.66500E+01   -0.66581E+01  1824   0.136E+02-0.169E-02
CGA:   3    -0.640347040446E+03   -0.34165E+01   -0.34134E+01  1824   0.416E+01 0.530E-01
CGA:   4    -0.641187137467E+03   -0.84010E+00   -0.84029E+00  1824   0.145E+01 0.822E-02
CGA:   5    -0.641446195609E+03   -0.25906E+00   -0.25909E+00  1824   0.404E+00-0.220E-03
CGA:   6    -0.641537741416E+03   -0.91546E-01   -0.91539E-01  1824   0.144E+00 0.221E-03
CGA:   7    -0.641572887265E+03   -0.35146E-01   -0.35131E-01  1824   0.479E-01 0.370E-03
CGA:   8    -0.641584537294E+03   -0.11650E-01   -0.11642E-01  1824   0.196E-01 0.213E-03
CGA:   9    -0.641588798578E+03   -0.42613E-02   -0.42609E-02  1824   0.845E-02 0.107E-03
CGA:  10    -0.641590881830E+03   -0.20833E-02   -0.20850E-02  1824   0.317E-02-0.578E-04
CGA:  11    -0.641591763847E+03   -0.88202E-03   -0.88241E-03  1824   0.157E-02-0.689E-05
CGA:  12    -0.641592134682E+03   -0.37084E-03   -0.37082E-03  1824   0.694E-03-0.115E-06
CGA:  13    -0.641592298943E+03   -0.16426E-03   -0.16384E-03  1824   0.250E-03 0.251E-04
CGA:  14    -0.641592364524E+03   -0.65581E-04   -0.64909E-04  1824   0.101E-03 0.222E-04
CGA:  15    -0.641592397890E+03   -0.33367E-04   -0.34839E-04  1824   0.829E-04-0.155E-04
CGA:  16    -0.641592413076E+03   -0.15185E-04   -0.15124E-04  1824   0.341E-04-0.572E-05
CGA:  17    -0.641592421124E+03   -0.80482E-05   -0.79272E-05  1824   0.108E-04 0.510E-05
   8 F= -.64159242E+03 E0= -.64159132E+03  d E =-.132763E+00  mag=    -0.0000
       N       E                     dE             d eps       ncg     rms          ort
SDA:   1    -0.638661544101E+03    0.29309E+01    0.00000E+00  1824   0.120E+02 0.000E+00
CGA:   2    -0.640526143071E+03   -0.18646E+01   -0.18671E+01  1824   0.365E+01-0.315E-02
CGA:   3    -0.641368085912E+03   -0.84194E+00   -0.84183E+00  1824   0.115E+01 0.465E-02
CGA:   4    -0.641632902788E+03   -0.26482E+00   -0.26481E+00  1824   0.348E+00-0.536E-04
CGA:   5    -0.641700266964E+03   -0.67364E-01   -0.67267E-01  1824   0.136E+00-0.295E-02
CGA:   6    -0.641727932614E+03   -0.27666E-01   -0.27646E-01  1824   0.493E-01-0.144E-02
CGA:   7    -0.641739211601E+03   -0.11279E-01   -0.11280E-01  1824   0.171E-01-0.108E-03
CGA:   8    -0.641743420124E+03   -0.42085E-02   -0.41971E-02  1824   0.599E-02 0.449E-03
CGA:   9    -0.641744852580E+03   -0.14325E-02   -0.14311E-02  1824   0.282E-02 0.135E-03
CGA:  10    -0.641745516475E+03   -0.66390E-03   -0.66416E-03  1824   0.121E-02-0.377E-04
CGA:  11    -0.641745845175E+03   -0.32870E-03   -0.34022E-03  1824   0.730E-03-0.191E-03
CGA:  12    -0.641745990625E+03   -0.14545E-03   -0.14616E-03  1824   0.293E-03-0.634E-04
CGA:  13    -0.641746063939E+03   -0.73313E-04   -0.77205E-04  1824   0.144E-03-0.638E-04
CGA:  14    -0.641746091917E+03   -0.27978E-04   -0.28372E-04  1824   0.730E-04-0.180E-04
CGA:  15    -0.641746103727E+03   -0.11810E-04   -0.12185E-04  1824   0.235E-04 0.925E-05
CGA:  16    -0.641746108614E+03   -0.48866E-05   -0.52201E-05  1824   0.102E-04 0.106E-04
   9 F= -.64174611E+03 E0= -.64174500E+03  d E =-.153687E+00  mag=    -0.0000
       N       E                     dE             d eps       ncg     rms          ort
SDA:   1    -0.641673892273E+03    0.72211E-01    0.00000E+00  1824   0.474E+00 0.000E+00
CGA:   2    -0.641737417713E+03   -0.63525E-01   -0.63666E-01  1824   0.122E+00 0.619E-03
CGA:   3    -0.641771966848E+03   -0.34549E-01   -0.34548E-01  1824   0.339E-01-0.169E-03
CGA:   4    -0.641779131030E+03   -0.71642E-02   -0.71553E-02  1824   0.104E-01-0.338E-03
CGA:   5    -0.641781192876E+03   -0.20618E-02   -0.20726E-02  1824   0.326E-02 0.279E-03
CGA:   6    -0.641781813922E+03   -0.62105E-03   -0.62936E-03  1824   0.120E-02 0.167E-03
CGA:   7    -0.641782116544E+03   -0.30262E-03   -0.30265E-03  1824   0.450E-03-0.830E-05
CGA:   8    -0.641782218901E+03   -0.10236E-03   -0.10259E-03  1824   0.140E-03 0.389E-04
CGA:   9    -0.641782260361E+03   -0.41460E-04   -0.42047E-04  1824   0.932E-04-0.143E-04
CGA:  10    -0.641782274259E+03   -0.13898E-04   -0.14578E-04  1824   0.326E-04 0.108E-04
CGA:  11    -0.641782278648E+03   -0.43884E-05   -0.55913E-05  1824   0.127E-04 0.150E-04
  10 F= -.64178228E+03 E0= -.64178117E+03  d E =-.361700E-01  mag=    -0.0000
       N       E                     dE             d eps       ncg     rms          ort
SDA:   1    -0.634904753588E+03    0.68775E+01    0.00000E+00  1824   0.244E+02 0.000E+00
CGA:   2    -0.639043423768E+03   -0.41387E+01   -0.41363E+01  1824   0.891E+01-0.244E-01
CGA:   3    -0.641028221814E+03   -0.19848E+01   -0.19847E+01  1824   0.275E+01 0.248E-01
CGA:   4    -0.641594737239E+03   -0.56652E+00   -0.56658E+00  1824   0.966E+00 0.844E-03
CGA:   5    -0.641767929246E+03   -0.17319E+00   -0.17362E+00  1824   0.306E+00 0.523E-02
CGA:   6    -0.641836319488E+03   -0.68390E-01   -0.68386E-01  1824   0.975E-01 0.149E-02
CGA:   7    -0.641861140190E+03   -0.24821E-01   -0.24848E-01  1824   0.373E-01-0.872E-03
CGA:   8    -0.641869641524E+03   -0.85013E-02   -0.84973E-02  1824   0.144E-01 0.457E-03
CGA:   9    -0.641872746156E+03   -0.31046E-02   -0.31040E-02  1824   0.625E-02-0.947E-04
CGA:  10    -0.641874296051E+03   -0.15499E-02   -0.15522E-02  1824   0.248E-02-0.796E-04
CGA:  11    -0.641874885409E+03   -0.58936E-03   -0.58614E-03  1824   0.101E-02 0.191E-03
CGA:  12    -0.641875179648E+03   -0.29424E-03   -0.29208E-03  1824   0.459E-03 0.478E-04
CGA:  13    -0.641875298884E+03   -0.11924E-03   -0.11920E-03  1824   0.213E-03 0.117E-05
CGA:  14    -0.641875339901E+03   -0.41017E-04   -0.42165E-04  1824   0.689E-04 0.386E-04
CGA:  15    -0.641875365901E+03   -0.26000E-04   -0.25573E-04  1824   0.307E-04 0.471E-05
CGA:  16    -0.641875360432E+03    0.54685E-05   -0.30006E-04  1824   0.176E-03-0.519E-04
CGA:  17    -0.641875372064E+03   -0.11631E-04   -0.19424E-04  1824   0.299E-04 0.508E-04
CGA:  18    -0.641875373295E+03   -0.12315E-05   -0.40668E-05  1824   0.128E-04 0.188E-04
CGA:  19    -0.641875372057E+03    0.12384E-05   -0.10445E-04  1824   0.911E-04-0.207E-04
  11 F= -.64187537E+03 E0= -.64187428E+03  d E =-.930934E-01  mag=    -0.0000
       N       E                     dE             d eps       ncg     rms          ort
SDA:   1    -0.636836808871E+03    0.50386E+01    0.00000E+00  1824   0.204E+02 0.000E+00
CGA:   2    -0.639979317221E+03   -0.31425E+01   -0.31531E+01  1824   0.590E+01-0.250E-01
CGA:   3    -0.641308784509E+03   -0.13295E+01   -0.13307E+01  1824   0.190E+01 0.128E-01
CGA:   4    -0.641753588964E+03   -0.44480E+00   -0.44488E+00  1824   0.552E+00 0.314E-03
CGA:   5    -0.641863897832E+03   -0.11031E+00   -0.11001E+00  1824   0.207E+00-0.479E-02
CGA:   6    -0.641907333700E+03   -0.43436E-01   -0.43345E-01  1824   0.774E-01-0.224E-02
CGA:   7    -0.641924557001E+03   -0.17223E-01   -0.17230E-01  1824   0.269E-01 0.101E-03
CGA:   8    -0.641931231870E+03   -0.66749E-02   -0.66772E-02  1824   0.929E-02 0.457E-03
CGA:   9    -0.641933519062E+03   -0.22872E-02   -0.22902E-02  1824   0.405E-02 0.295E-03
CGA:  10    -0.641934547859E+03   -0.10288E-02   -0.10280E-02  1824   0.196E-02-0.138E-03
CGA:  11    -0.641935039089E+03   -0.49123E-03   -0.49419E-03  1824   0.118E-02-0.296E-03
CGA:  12    -0.641935288276E+03   -0.24919E-03   -0.24866E-03  1824   0.450E-03-0.124E-03
CGA:  13    -0.641935395429E+03   -0.10715E-03   -0.10809E-03  1824   0.198E-03-0.564E-04
CGA:  14    -0.641935442179E+03   -0.46750E-04   -0.47265E-04  1824   0.105E-03-0.256E-04
CGA:  15    -0.641935458758E+03   -0.16580E-04   -0.17344E-04  1824   0.360E-04 0.119E-04
CGA:  16    -0.641935468759E+03   -0.10001E-04   -0.10004E-04  1824   0.146E-04 0.908E-05
CGA:  17    -0.641935479776E+03   -0.11017E-04    0.11335E-04  1824   0.986E-05 0.320E-05
CGA:  18    -0.641935487308E+03   -0.75325E-05    0.59699E-05  1824   0.537E-05-0.918E-06
  12 F= -.64193549E+03 E0= -.64193453E+03  d E =-.601153E-01  mag=    -0.0000
       N       E                     dE             d eps       ncg     rms          ort
SDA:   1    -0.641259271345E+03    0.67621E+00    0.00000E+00  1824   0.273E+01 0.000E+00
CGA:   2    -0.641711269729E+03   -0.45200E+00   -0.45195E+00  1824   0.848E+00 0.730E-03
CGA:   3    -0.641895204833E+03   -0.18394E+00   -0.18392E+00  1824   0.276E+00-0.193E-02
CGA:   4    -0.641958821265E+03   -0.63616E-01   -0.63615E-01  1824   0.799E-01-0.563E-03
CGA:   5    -0.641974038839E+03   -0.15218E-01   -0.15315E-01  1824   0.285E-01 0.204E-02
CGA:   6    -0.641980061331E+03   -0.60225E-02   -0.60456E-02  1824   0.974E-02 0.794E-03
CGA:   7    -0.641982501049E+03   -0.24397E-02   -0.24411E-02  1824   0.378E-02-0.159E-03
CGA:   8    -0.641983397213E+03   -0.89616E-03   -0.89582E-03  1824   0.136E-02 0.570E-04
CGA:   9    -0.641983741646E+03   -0.34443E-03   -0.34572E-03  1824   0.683E-03-0.843E-04
CGA:  10    -0.641983882949E+03   -0.14130E-03   -0.14148E-03  1824   0.266E-03 0.114E-04
CGA:  11    -0.641983927758E+03   -0.44809E-04   -0.48817E-04  1824   0.851E-04 0.737E-04
CGA:  12    -0.641983948615E+03   -0.20857E-04   -0.22084E-04  1824   0.374E-04 0.419E-04
CGA:  13    -0.641983958022E+03   -0.94066E-05   -0.10305E-04  1824   0.188E-04 0.194E-04
  13 F= -.64198396E+03 E0= -.64198298E+03  d E =-.484707E-01  mag=    -0.0000
       N       E                     dE             d eps       ncg     rms          ort
SDA:   1    -0.641927169026E+03    0.56780E-01    0.00000E+00  1824   0.258E+00 0.000E+00
CGA:   2    -0.641966484002E+03   -0.39315E-01   -0.39386E-01  1824   0.883E-01 0.614E-03
CGA:   3    -0.641988471108E+03   -0.21987E-01   -0.22006E-01  1824   0.238E-01-0.787E-03
CGA:   4    -0.641993761643E+03   -0.52905E-02   -0.52908E-02  1824   0.811E-02-0.184E-03
CGA:   5    -0.641995212579E+03   -0.14509E-02   -0.14643E-02  1824   0.247E-02 0.322E-03
CGA:   6    -0.641995701465E+03   -0.48889E-03   -0.49218E-03  1824   0.888E-03 0.113E-03
CGA:   7    -0.641995940554E+03   -0.23909E-03   -0.24030E-03  1824   0.361E-03-0.313E-04
CGA:   8    -0.641996017143E+03   -0.76589E-04   -0.76618E-04  1824   0.119E-03 0.212E-04
CGA:   9    -0.641996047402E+03   -0.30259E-04   -0.30241E-04  1824   0.564E-04 0.851E-06
CGA:  10    -0.641996061373E+03   -0.13971E-04   -0.13950E-04  1824   0.254E-04 0.916E-06
CGA:  11    -0.641996064321E+03   -0.29486E-05   -0.37425E-05  1824   0.911E-05 0.101E-04
  14 F= -.64199606E+03 E0= -.64199508E+03  d E =-.121063E-01  mag=    -0.0000
       N       E                     dE             d eps       ncg     rms          ort
SDA:   1    -0.638934350802E+03    0.30617E+01    0.00000E+00  1824   0.129E+02 0.000E+00
CGA:   2    -0.640712270904E+03   -0.17779E+01   -0.17800E+01  1824   0.377E+01-0.216E-02
CGA:   3    -0.641758797829E+03   -0.10465E+01   -0.10462E+01  1824   0.102E+01 0.197E-02
CGA:   4    -0.641966211747E+03   -0.20741E+00   -0.20741E+00  1824   0.354E+00-0.138E-02
CGA:   5    -0.642033165640E+03   -0.66954E-01   -0.66994E-01  1824   0.113E+00 0.108E-02
CGA:   6    -0.642054881866E+03   -0.21716E-01   -0.21723E-01  1824   0.393E-01 0.382E-03
CGA:   7    -0.642064880962E+03   -0.99991E-02   -0.10003E-01  1824   0.140E-01-0.118E-03
CGA:   8    -0.642068140845E+03   -0.32599E-02   -0.32553E-02  1824   0.486E-02 0.222E-03
CGA:   9    -0.642069254007E+03   -0.11132E-02   -0.11128E-02  1824   0.241E-02 0.330E-04
CGA:  10    -0.642069822211E+03   -0.56820E-03   -0.56786E-03  1824   0.925E-03 0.179E-04
CGA:  11    -0.642070044194E+03   -0.22198E-03   -0.22070E-03  1824   0.400E-03 0.622E-04
CGA:  12    -0.642070157599E+03   -0.11340E-03   -0.11306E-03  1824   0.179E-03 0.707E-05
CGA:  13    -0.642070200593E+03   -0.42994E-04   -0.42890E-04  1824   0.695E-04 0.655E-05
CGA:  14    -0.642070216153E+03   -0.15560E-04   -0.15600E-04  1824   0.248E-04 0.102E-04
CGA:  15    -0.642070224678E+03   -0.85245E-05   -0.87349E-05  1824   0.158E-04-0.244E-05
  15 F= -.64207022E+03 E0= -.64206919E+03  d E =-.741604E-01  mag=    -0.0000
       N       E                     dE             d eps       ncg     rms          ort
SDA:   1    -0.632571497521E+03    0.94987E+01    0.00000E+00  1824   0.421E+02 0.000E+00
CGA:   2    -0.638146743599E+03   -0.55752E+01   -0.55920E+01  1824   0.102E+02-0.140E-01
CGA:   3    -0.640860304392E+03   -0.27136E+01   -0.27114E+01  1824   0.307E+01 0.258E-01
CGA:   4    -0.641498369110E+03   -0.63806E+00   -0.63800E+00  1824   0.102E+01-0.367E-02
CGA:   5    -0.641691866612E+03   -0.19350E+00   -0.19357E+00  1824   0.339E+00-0.119E-02
CGA:   6    -0.641759811682E+03   -0.67945E-01   -0.67879E-01  1824   0.123E+00-0.262E-02
CGA:   7    -0.641789224593E+03   -0.29413E-01   -0.29424E-01  1824   0.453E-01-0.693E-03
CGA:   8    -0.641799962413E+03   -0.10738E-01   -0.10730E-01  1824   0.169E-01 0.453E-03
CGA:   9    -0.641803740242E+03   -0.37778E-02   -0.37777E-02  1824   0.761E-02 0.514E-03
CGA:  10    -0.641805629862E+03   -0.18896E-02   -0.18882E-02  1824   0.317E-02 0.719E-04
CGA:  11    -0.641806438690E+03   -0.80883E-03   -0.81445E-03  1824   0.177E-02-0.178E-03
CGA:  12    -0.641806877620E+03   -0.43893E-03   -0.44764E-03  1824   0.857E-03-0.197E-03
CGA:  13    -0.641807052729E+03   -0.17511E-03   -0.17522E-03  1824   0.302E-03-0.318E-04
CGA:  14    -0.641807126434E+03   -0.73705E-04   -0.73713E-04  1824   0.132E-03-0.325E-06
CGA:  15    -0.641807151463E+03   -0.25028E-04   -0.25824E-04  1824   0.470E-04 0.242E-04
CGA:  16    -0.641807166940E+03   -0.15477E-04   -0.14921E-04  1824   0.166E-04 0.131E-04
CGA:  17    -0.641807177010E+03   -0.10070E-04    0.59860E-04  1824   0.759E-05 0.957E-05
CGA:  18    -0.641807180903E+03   -0.38924E-05    0.71351E-05  1824   0.456E-05 0.292E-05
  16 F= -.64180718E+03 E0= -.64180591E+03  d E =0.263044E+00  mag=    -0.0000
       N       E                     dE             d eps       ncg     rms          ort
SDA:   1    -0.639461171523E+03    0.23460E+01    0.00000E+00  1824   0.102E+02 0.000E+00
CGA:   2    -0.641040940343E+03   -0.15798E+01   -0.15799E+01  1824   0.338E+01-0.154E-02
CGA:   3    -0.641808742095E+03   -0.76780E+00   -0.76778E+00  1824   0.921E+00 0.497E-02
CGA:   4    -0.642011015070E+03   -0.20227E+00   -0.20226E+00  1824   0.366E+00-0.263E-02
CGA:   5    -0.642079886048E+03   -0.68871E-01   -0.68961E-01  1824   0.107E+00 0.175E-02
CGA:   6    -0.642103223587E+03   -0.23338E-01   -0.23343E-01  1824   0.379E-01 0.986E-03
CGA:   7    -0.642112783455E+03   -0.95599E-02   -0.95577E-02  1824   0.142E-01 0.376E-04
CGA:   8    -0.642116132865E+03   -0.33494E-02   -0.33478E-02  1824   0.528E-02 0.140E-03
CGA:   9    -0.642117421717E+03   -0.12889E-02   -0.12886E-02  1824   0.245E-02 0.123E-04
CGA:  10    -0.642118016664E+03   -0.59495E-03   -0.59536E-03  1824   0.101E-02-0.246E-04
CGA:  11    -0.642118253756E+03   -0.23709E-03   -0.23629E-03  1824   0.418E-03 0.840E-04
CGA:  12    -0.642118374783E+03   -0.12103E-03   -0.11960E-03  1824   0.150E-03 0.383E-04
CGA:  13    -0.642118417278E+03   -0.42495E-04   -0.42025E-04  1824   0.625E-04 0.164E-04
CGA:  14    -0.642118432281E+03   -0.15003E-04   -0.15163E-04  1824   0.240E-04 0.140E-04
CGA:  15    -0.642118441296E+03   -0.90150E-05   -0.89691E-05  1824   0.127E-04 0.581E-06
  17 F= -.64211844E+03 E0= -.64211730E+03  d E =-.311260E+00  mag=     0.0000
       N       E                     dE             d eps       ncg     rms          ort
SDA:   1    -0.641590231561E+03    0.52820E+00    0.00000E+00  1824   0.222E+01 0.000E+00
CGA:   2    -0.641927198775E+03   -0.33697E+00   -0.33727E+00  1824   0.689E+00 0.190E-02
CGA:   3    -0.642084283275E+03   -0.15708E+00   -0.15707E+00  1824   0.204E+00-0.240E-02
CGA:   4    -0.642129149716E+03   -0.44866E-01   -0.44847E-01  1824   0.727E-01-0.121E-02
CGA:   5    -0.642142220279E+03   -0.13071E-01   -0.13156E-01  1824   0.219E-01 0.143E-02
CGA:   6    -0.642146916323E+03   -0.46960E-02   -0.47141E-02  1824   0.727E-02 0.704E-03
CGA:   7    -0.642148835432E+03   -0.19191E-02   -0.19228E-02  1824   0.292E-02-0.184E-03
CGA:   8    -0.642149493964E+03   -0.65853E-03   -0.65889E-03  1824   0.104E-02 0.692E-04
CGA:   9    -0.642149741403E+03   -0.24744E-03   -0.24745E-03  1824   0.473E-03 0.134E-05
CGA:  10    -0.642149858428E+03   -0.11703E-03   -0.11708E-03  1824   0.206E-03-0.549E-05
CGA:  11    -0.642149892952E+03   -0.34524E-04   -0.37209E-04  1824   0.714E-04 0.499E-04
CGA:  12    -0.642149909558E+03   -0.16605E-04   -0.17750E-04  1824   0.274E-04 0.339E-04
CGA:  13    -0.642149918241E+03   -0.86835E-05   -0.88232E-05  1824   0.165E-04 0.103E-04
  18 F= -.64214992E+03 E0= -.64214881E+03  d E =-.314769E-01  mag=     0.0000
       N       E                     dE             d eps       ncg     rms          ort
SDA:   1    -0.642127681559E+03    0.22228E-01    0.00000E+00  1824   0.115E+00 0.000E+00
CGA:   2    -0.642143164696E+03   -0.15483E-01   -0.15527E-01  1824   0.276E-01 0.332E-03
CGA:   3    -0.642150249286E+03   -0.70846E-02   -0.71040E-02  1824   0.951E-02-0.608E-03
CGA:   4    -0.642152315320E+03   -0.20660E-02   -0.20657E-02  1824   0.256E-02-0.162E-03
CGA:   5    -0.642152707440E+03   -0.39212E-03   -0.41105E-03  1824   0.719E-03 0.309E-03
CGA:   6    -0.642152844642E+03   -0.13720E-03   -0.14447E-03  1824   0.232E-03 0.173E-03
CGA:   7    -0.642152921809E+03   -0.77167E-04   -0.76591E-04  1824   0.104E-03 0.120E-04
CGA:   8    -0.642152948387E+03   -0.26578E-04   -0.26428E-04  1824   0.444E-04 0.741E-05
CGA:   9    -0.642152961352E+03   -0.12965E-04   -0.15958E-04  1824   0.619E-04-0.265E-04
CGA:  10    -0.642152966909E+03   -0.55569E-05   -0.65629E-05  1824   0.944E-05 0.823E-05
  19 F= -.64215297E+03 E0= -.64215186E+03  d E =-.304867E-02  mag=    -0.0000
       N       E                     dE             d eps       ncg     rms          ort
SDA:   1    -0.642039425885E+03    0.11354E+00    0.00000E+00  1824   0.563E+00 0.000E+00
CGA:   2    -0.642111945947E+03   -0.72520E-01   -0.72579E-01  1824   0.125E+00-0.136E-03
CGA:   3    -0.642146857914E+03   -0.34912E-01   -0.34955E-01  1824   0.411E-01-0.790E-03
CGA:   4    -0.642155411039E+03   -0.85531E-02   -0.85528E-02  1824   0.106E-01-0.116E-03
CGA:   5    -0.642157356741E+03   -0.19457E-02   -0.19602E-02  1824   0.334E-02 0.490E-03
CGA:   6    -0.642158043348E+03   -0.68661E-03   -0.69042E-03  1824   0.120E-02 0.249E-03
CGA:   7    -0.642158364713E+03   -0.32136E-03   -0.32282E-03  1824   0.487E-03-0.394E-04
CGA:   8    -0.642158485637E+03   -0.12092E-03   -0.12216E-03  1824   0.198E-03-0.278E-04
CGA:   9    -0.642158529510E+03   -0.43873E-04   -0.44330E-04  1824   0.106E-03-0.219E-04
CGA:  10    -0.642158546377E+03   -0.16867E-04   -0.17275E-04  1824   0.303E-04 0.119E-04
CGA:  11    -0.642158550103E+03   -0.37258E-05   -0.48918E-05  1824   0.132E-04 0.165E-04
  20 F= -.64215855E+03 E0= -.64215744E+03  d E =-.558319E-02  mag=    -0.0000
       N       E                     dE             d eps       ncg     rms          ort
SDA:   1    -0.642063648792E+03    0.94898E-01    0.00000E+00  1824   0.506E+00 0.000E+00
CGA:   2    -0.642126303735E+03   -0.62655E-01   -0.62672E-01  1824   0.107E+00-0.724E-03
CGA:   3    -0.642159450784E+03   -0.33147E-01   -0.33123E-01  1824   0.324E-01 0.123E-03
CGA:   4    -0.642165595238E+03   -0.61445E-02   -0.61466E-02  1824   0.862E-02 0.593E-04
CGA:   5    -0.642167381715E+03   -0.17865E-02   -0.17863E-02  1824   0.306E-02-0.346E-04
CGA:   6    -0.642167971859E+03   -0.59014E-03   -0.58970E-03  1824   0.110E-02-0.263E-04
CGA:   7    -0.642168231134E+03   -0.25927E-03   -0.25989E-03  1824   0.394E-03-0.217E-04
CGA:   8    -0.642168327536E+03   -0.96402E-04   -0.97035E-04  1824   0.145E-03-0.163E-04
CGA:   9    -0.642168357896E+03   -0.30360E-04   -0.30346E-04  1824   0.673E-04 0.268E-05
CGA:  10    -0.642168373806E+03   -0.15910E-04   -0.15851E-04  1824   0.225E-04 0.333E-05
CGA:  11    -0.642168381480E+03   -0.76746E-05   -0.94561E-05  1824   0.304E-04-0.963E-05
  21 F= -.64216838E+03 E0= -.64216731E+03  d E =-.983138E-02  mag=    -0.0000
       N       E                     dE             d eps       ncg     rms          ort
SDA:   1    -0.639728898165E+03    0.24395E+01    0.00000E+00  1824   0.126E+02 0.000E+00
CGA:   2    -0.641250519085E+03   -0.15216E+01   -0.15240E+01  1824   0.244E+01-0.111E-01
CGA:   3    -0.642028940886E+03   -0.77842E+00   -0.77752E+00  1824   0.812E+00 0.576E-02
CGA:   4    -0.642170177711E+03   -0.14124E+00   -0.14129E+00  1824   0.203E+00-0.205E-03
CGA:   5    -0.642210936718E+03   -0.40759E-01   -0.40745E-01  1824   0.748E-01-0.729E-03
CGA:   6    -0.642225875001E+03   -0.14938E-01   -0.14934E-01  1824   0.232E-01-0.306E-03
CGA:   7    -0.642231544839E+03   -0.56698E-02   -0.56720E-02  1824   0.846E-02-0.817E-04
CGA:   8    -0.642233522090E+03   -0.19773E-02   -0.19744E-02  1824   0.295E-02 0.160E-03
CGA:   9    -0.642234188854E+03   -0.66676E-03   -0.66664E-03  1824   0.139E-02 0.331E-04
CGA:  10    -0.642234545383E+03   -0.35653E-03   -0.35625E-03  1824   0.529E-03 0.783E-05
CGA:  11    -0.642234681712E+03   -0.13633E-03   -0.13723E-03  1824   0.291E-03-0.240E-04
CGA:  12    -0.642234749713E+03   -0.68001E-04   -0.68479E-04  1824   0.130E-03-0.199E-04
CGA:  13    -0.642234781754E+03   -0.32042E-04   -0.32692E-04  1824   0.549E-04-0.138E-04
CGA:  14    -0.642234791042E+03   -0.92877E-05   -0.94934E-05  1824   0.192E-04 0.642E-05
  22 F= -.64223479E+03 E0= -.64223380E+03  d E =-.664096E-01  mag=    -0.0000
       N       E                     dE             d eps       ncg     rms          ort
SDA:   1    -0.640955687775E+03    0.12791E+01    0.00000E+00  1824   0.590E+01 0.000E+00
CGA:   2    -0.641733786014E+03   -0.77810E+00   -0.77864E+00  1824   0.152E+01-0.398E-02
CGA:   3    -0.642154341066E+03   -0.42056E+00   -0.42038E+00  1824   0.427E+00 0.935E-03
CGA:   4    -0.642241983317E+03   -0.87642E-01   -0.87628E-01  1824   0.142E+00-0.117E-02
CGA:   5    -0.642269916350E+03   -0.27933E-01   -0.27960E-01  1824   0.453E-01 0.976E-03
CGA:   6    -0.642278752599E+03   -0.88362E-02   -0.88438E-02  1824   0.160E-01 0.296E-03
CGA:   7    -0.642282663411E+03   -0.39108E-02   -0.39121E-02  1824   0.599E-02-0.626E-04
CGA:   8    -0.642284088518E+03   -0.14251E-02   -0.14246E-02  1824   0.203E-02 0.258E-04
CGA:   9    -0.642284569078E+03   -0.48056E-03   -0.48023E-03  1824   0.995E-03 0.225E-04
CGA:  10    -0.642284808078E+03   -0.23900E-03   -0.23870E-03  1824   0.395E-03 0.198E-04
CGA:  11    -0.642284900310E+03   -0.92231E-04   -0.91995E-04  1824   0.169E-03 0.433E-04
CGA:  12    -0.642284949934E+03   -0.49624E-04   -0.48906E-04  1824   0.708E-04 0.189E-04
CGA:  13    -0.642284969959E+03   -0.20025E-04   -0.19809E-04  1824   0.283E-04 0.816E-05
CGA:  14    -0.642284977183E+03   -0.72241E-05   -0.72099E-05  1824   0.111E-04 0.596E-05
  23 F= -.64228498E+03 E0= -.64228395E+03  d E =-.501861E-01  mag=     0.0000
       N       E                     dE             d eps       ncg     rms          ort
SDA:   1    -0.641284034229E+03    0.10009E+01    0.00000E+00  1824   0.400E+01 0.000E+00
CGA:   2    -0.641832491396E+03   -0.54846E+00   -0.54897E+00  1824   0.115E+01-0.275E-02
CGA:   3    -0.642154069624E+03   -0.32158E+00   -0.32138E+00  1824   0.294E+00 0.252E-02
CGA:   4    -0.642217015984E+03   -0.62946E-01   -0.62945E-01  1824   0.972E-01-0.469E-03
CGA:   5    -0.642236690736E+03   -0.19675E-01   -0.19662E-01  1824   0.312E-01-0.514E-03
CGA:   6    -0.642242583121E+03   -0.58924E-02   -0.58903E-02  1824   0.121E-01-0.779E-04
CGA:   7    -0.642245353612E+03   -0.27705E-02   -0.27698E-02  1824   0.402E-02 0.133E-03
CGA:   8    -0.642246319386E+03   -0.96577E-03   -0.96445E-03  1824   0.127E-02 0.101E-03
CGA:   9    -0.642246643589E+03   -0.32420E-03   -0.32354E-03  1824   0.662E-03 0.268E-04
CGA:  10    -0.642246799408E+03   -0.15582E-03   -0.15586E-03  1824   0.270E-03-0.989E-05
CGA:  11    -0.642246867728E+03   -0.68320E-04   -0.68678E-04  1824   0.142E-03-0.114E-04
CGA:  12    -0.642246899515E+03   -0.31787E-04   -0.31803E-04  1824   0.582E-04-0.276E-05
CGA:  13    -0.642246913522E+03   -0.14007E-04   -0.14008E-04  1824   0.193E-04-0.116E-06
CGA:  14    -0.642246918263E+03   -0.47404E-05   -0.47028E-05  1824   0.741E-05 0.252E-05
  24 F= -.64224692E+03 E0= -.64224590E+03  d E =0.380589E-01  mag=    -0.0000
       N       E                     dE             d eps       ncg     rms          ort
SDA:   1    -0.642027827499E+03    0.21909E+00    0.00000E+00  1824   0.115E+01 0.000E+00
CGA:   2    -0.642160331785E+03   -0.13250E+00   -0.13244E+00  1824   0.177E+00-0.270E-02
CGA:   3    -0.642216364922E+03   -0.56033E-01   -0.55849E-01  1824   0.591E-01 0.163E-02
CGA:   4    -0.642227198533E+03   -0.10834E-01   -0.10857E-01  1824   0.131E-01 0.439E-03
CGA:   5    -0.642230053048E+03   -0.28545E-02   -0.28522E-02  1824   0.490E-02-0.241E-03
CGA:   6    -0.642231015334E+03   -0.96229E-03   -0.95868E-03  1824   0.172E-02-0.138E-03
CGA:   7    -0.642231379834E+03   -0.36450E-03   -0.36442E-03  1824   0.567E-03-0.123E-04
CGA:   8    -0.642231519912E+03   -0.14008E-03   -0.13946E-03  1824   0.182E-03 0.263E-04
CGA:   9    -0.642231571609E+03   -0.51697E-04   -0.51398E-04  1824   0.102E-03 0.668E-05
CGA:  10    -0.642231599097E+03   -0.27487E-04   -0.27866E-04  1824   0.573E-04-0.107E-04
CGA:  11    -0.642231613553E+03   -0.14457E-04   -0.17189E-04  1824   0.600E-04-0.259E-04
CGA:  12    -0.642231620265E+03   -0.67120E-05   -0.63025E-05  1824   0.214E-04-0.957E-05
  25 F= -.64223162E+03 E0= -.64223063E+03  d E =0.152980E-01  mag=     0.0000
       N       E                     dE             d eps       ncg     rms          ort
SDA:   1    -0.642177452689E+03    0.54161E-01    0.00000E+00  1824   0.363E+00 0.000E+00
CGA:   2    -0.642220050723E+03   -0.42598E-01   -0.42704E-01  1824   0.632E-01 0.379E-03
CGA:   3    -0.642240123973E+03   -0.20073E-01   -0.20108E-01  1824   0.201E-01-0.491E-03
CGA:   4    -0.642243960382E+03   -0.38364E-02   -0.38251E-02  1824   0.502E-02-0.311E-03
CGA:   5    -0.642245005586E+03   -0.10452E-02   -0.10471E-02  1824   0.159E-02 0.117E-03
CGA:   6    -0.642245324367E+03   -0.31878E-03   -0.32035E-03  1824   0.569E-03 0.521E-04
CGA:   7    -0.642245459685E+03   -0.13532E-03   -0.13532E-03  1824   0.220E-03 0.241E-06
CGA:   8    -0.642245513255E+03   -0.53570E-04   -0.53520E-04  1824   0.720E-04 0.289E-05
CGA:   9    -0.642245531917E+03   -0.18663E-04   -0.18625E-04  1824   0.366E-04 0.127E-05
CGA:  10    -0.642245539805E+03   -0.78880E-05   -0.79537E-05  1824   0.125E-04 0.434E-05
  26 F= -.64224554E+03 E0= -.64224453E+03  d E =-.139195E-01  mag=    -0.0000
