       N       E                     dE             d eps       ncg     rms          rms(c)
DAV:   1     0.845191220495E+04    0.84519E+04   -0.36704E+05 27080   0.176E+03
DAV:   2    -0.865909563972E+02   -0.85385E+04   -0.78518E+04 26224   0.479E+02
DAV:   3    -0.134289126227E+04   -0.12563E+04   -0.12249E+04 27712   0.205E+02
DAV:   4    -0.140880836264E+04   -0.65917E+02   -0.62338E+02 31072   0.465E+01
DAV:   5    -0.141116434004E+04   -0.23560E+01   -0.22929E+01 31360   0.723E+00    0.118E+02
DAV:   6    -0.109521365637E+04    0.31595E+03   -0.72399E+02 33448   0.670E+01    0.117E+02
DAV:   7    -0.111974264996E+04   -0.24529E+02   -0.12483E+02 30392   0.350E+01    0.658E+01
DAV:   8    -0.112052388855E+04   -0.78124E+00   -0.45935E+01 30896   0.346E+01    0.456E+01
DAV:   9    -0.112549675850E+04   -0.49729E+01   -0.20086E+01 29848   0.156E+01    0.265E+01
DAV:  10    -0.112511734217E+04    0.37942E+00   -0.12034E+01 31264   0.159E+01    0.146E+01
DAV:  11    -0.112659688492E+04   -0.14795E+01   -0.25629E+00 30992   0.738E+00    0.816E+00
DAV:  12    -0.112681276482E+04   -0.21588E+00   -0.74346E-01 29768   0.234E+00    0.402E+00
DAV:  13    -0.112690918631E+04   -0.96421E-01   -0.19438E-01 30800   0.156E+00    0.201E+00
DAV:  14    -0.112697265203E+04   -0.63466E-01   -0.73960E-02 30800   0.785E-01    0.131E+00
DAV:  15    -0.112701513464E+04   -0.42483E-01   -0.19829E-02 31152   0.569E-01    0.101E+00
DAV:  16    -0.112705212245E+04   -0.36988E-01   -0.11498E-02 33808   0.464E-01    0.811E-01
DAV:  17    -0.112707912409E+04   -0.27002E-01   -0.11372E-02 31216   0.376E-01    0.775E-01
DAV:  18    -0.112712016706E+04   -0.41043E-01   -0.11584E-02 34968   0.522E-01    0.747E-01
DAV:  19    -0.112715360525E+04   -0.33438E-01   -0.15564E-02 33016   0.414E-01    0.745E-01
DAV:  20    -0.112716254266E+04   -0.89374E-02   -0.53965E-03 28392   0.145E-01    0.743E-01
DAV:  21    -0.112716931711E+04   -0.67745E-02   -0.23516E-04 31480   0.765E-02    0.746E-01
DAV:  22    -0.112715866138E+04    0.10656E-01   -0.12331E-03 30424   0.177E-01    0.739E-01
DAV:  23    -0.112712167376E+04    0.36988E-01   -0.12224E-02 32000   0.553E-01    0.749E-01
DAV:  24    -0.112709149168E+04    0.30182E-01   -0.16331E-02 34560   0.459E-01    0.757E-01
DAV:  25    -0.112708515343E+04    0.63382E-02   -0.52631E-03 27624   0.144E-01    0.752E-01
DAV:  26    -0.112708166865E+04    0.34848E-02   -0.19419E-04 29560   0.599E-02    0.752E-01
DAV:  27    -0.112705669508E+04    0.24974E-01   -0.72711E-03 34160   0.425E-01    0.747E-01
DAV:  28    -0.112699859804E+04    0.58097E-01   -0.56556E-02 32176   0.113E+00    0.842E-01
DAV:  29    -0.112699513402E+04    0.34640E-02   -0.26710E-02 27400   0.293E-01    0.802E-01
DAV:  30    -0.112699509305E+04    0.40970E-04   -0.87792E-04 28840   0.626E-02    0.800E-01
DAV:  31    -0.112699522687E+04   -0.13382E-03   -0.20238E-05 22176   0.985E-03    0.799E-01
DAV:  32    -0.112699782286E+04   -0.25960E-02   -0.91853E-05 27496   0.442E-02    0.805E-01
DAV:  33    -0.112702968674E+04   -0.31864E-01   -0.15822E-02 32936   0.646E-01    0.896E-01
DAV:  34    -0.112723222378E+04   -0.20254E+00   -0.63103E-01 33096   0.402E+00    0.270E+00
DAV:  35    -0.112733541224E+04   -0.10319E+00   -0.39795E-01 30712   0.152E+00    0.307E+00
DAV:  36    -0.112735346425E+04   -0.18052E-01   -0.49096E-02 27360   0.429E-01    0.296E+00
DAV:  37    -0.112735883129E+04   -0.53670E-02   -0.14713E-03 36160   0.128E-01    0.295E+00
DAV:  38    -0.112739160184E+04   -0.32771E-01   -0.44356E-03 35240   0.316E-01    0.266E+00
DAV:  39    -0.112738874400E+04    0.28578E-02   -0.40566E-02 33688   0.936E-01    0.180E+00
DAV:  40    -0.112743793968E+04   -0.49196E-01   -0.30524E-02 32624   0.763E-01    0.190E+00
DAV:  41    -0.112747414479E+04   -0.36205E-01   -0.25068E-02 34280   0.560E-01    0.193E+00
DAV:  42    -0.112748188604E+04   -0.77413E-02   -0.84087E-03 27528   0.172E-01    0.194E+00
DAV:  43    -0.112748211732E+04   -0.23128E-03   -0.34338E-04 26928   0.386E-02    0.192E+00
DAV:  44    -0.112748228135E+04   -0.16404E-03   -0.96884E-06 19792   0.945E-03    0.192E+00
DAV:  45    -0.112745248321E+04    0.29798E-01   -0.51407E-03 32792   0.352E-01    0.180E+00
DAV:  46    -0.112749293812E+04   -0.40455E-01   -0.11285E-02 31912   0.582E-01    0.200E+00
DAV:  47    -0.112739940049E+04    0.93538E-01   -0.60575E-02 32520   0.127E+00    0.180E+00
DAV:  48    -0.112739334040E+04    0.60601E-02   -0.23718E-02 27536   0.286E-01    0.185E+00
DAV:  49    -0.112739098300E+04    0.23574E-02   -0.98588E-04 29496   0.703E-02    0.189E+00
DAV:  50    -0.112740093880E+04   -0.99558E-02   -0.12421E-03 29064   0.162E-01    0.190E+00
DAV:  51    -0.112741315658E+04   -0.12218E-01   -0.18191E-03 34664   0.181E-01    0.195E+00
DAV:  52    -0.112741798509E+04   -0.48285E-02   -0.86347E-04 30480   0.681E-02    0.196E+00
DAV:  53    -0.112741930246E+04   -0.13174E-02   -0.21673E-04 31064   0.622E-02    0.200E+00
DAV:  54    -0.112742517139E+04   -0.58689E-02   -0.88406E-04 34832   0.139E-01    0.197E+00
DAV:  55    -0.112743734495E+04   -0.12174E-01   -0.47533E-03 36352   0.281E-01    0.199E+00
DAV:  56    -0.112746029527E+04   -0.22950E-01   -0.94636E-03 34184   0.428E-01    0.208E+00
DAV:  57    -0.112751576309E+04   -0.55468E-01   -0.25009E-02 32160   0.712E-01    0.238E+00
DAV:  58    -0.112752872553E+04   -0.12962E-01   -0.15296E-02 30192   0.333E-01    0.234E+00
DAV:  59    -0.112753818109E+04   -0.94556E-02   -0.27478E-03 29752   0.133E-01    0.238E+00
DAV:  60    -0.112754241338E+04   -0.42323E-02   -0.58305E-04 26872   0.453E-02    0.236E+00
DAV:  61    -0.112756341145E+04   -0.20998E-01   -0.25718E-03 35168   0.254E-01    0.239E+00
DAV:  62    -0.112755737520E+04    0.60362E-02   -0.83929E-04 28304   0.117E-01    0.230E+00
DAV:  63    -0.112756048786E+04   -0.31127E-02   -0.11627E-04 26872   0.500E-02    0.230E+00
DAV:  64    -0.112756085251E+04   -0.36465E-03   -0.46550E-05 20008   0.124E-02    0.230E+00
DAV:  65    -0.112755924415E+04    0.16084E-02   -0.66673E-05 26040   0.381E-02    0.230E+00
DAV:  66    -0.112756406814E+04   -0.48240E-02   -0.92868E-04 33992   0.148E-01    0.231E+00
DAV:  67    -0.112752475730E+04    0.39311E-01   -0.13468E-02 33384   0.540E-01    0.238E+00
DAV:  68    -0.112750229044E+04    0.22467E-01   -0.11429E-02 34152   0.300E-01    0.244E+00
DAV:  69    -0.112747210219E+04    0.30188E-01   -0.68807E-03 32072   0.357E-01    0.250E+00
DAV:  70    -0.112745518389E+04    0.16918E-01   -0.68963E-03 33232   0.256E-01    0.255E+00
DAV:  71    -0.112745949620E+04   -0.43123E-02   -0.60395E-03 32904   0.318E-01    0.240E+00
DAV:  72    -0.112745954416E+04   -0.47956E-04   -0.14095E-03 28640   0.692E-02    0.241E+00
DAV:  73    -0.112746227234E+04   -0.27282E-02   -0.61329E-05 24552   0.368E-02    0.242E+00
DAV:  74    -0.112746936047E+04   -0.70881E-02   -0.75267E-04 34624   0.124E-01    0.241E+00
DAV:  75    -0.112747191657E+04   -0.25561E-02   -0.62493E-04 34768   0.632E-02    0.240E+00
DAV:  76    -0.112754670957E+04   -0.74793E-01   -0.50347E-02 33008   0.113E+00    0.268E+00
DAV:  77    -0.112752933089E+04    0.17379E-01   -0.17620E-02 27208   0.443E-01    0.271E+00
DAV:  78    -0.112751509624E+04    0.14235E-01   -0.45029E-03 36488   0.261E-01    0.275E+00
DAV:  79    -0.112749119959E+04    0.23897E-01   -0.12261E-02 33208   0.522E-01    0.277E+00
DAV:  80    -0.112748534729E+04    0.58523E-02   -0.16040E-02 35752   0.424E-01    0.281E+00
DAV:  81    -0.112743576496E+04    0.49582E-01   -0.26720E-02 32712   0.755E-01    0.292E+00
DAV:  82    -0.112744252267E+04   -0.67577E-02   -0.94566E-03 27000   0.237E-01    0.295E+00
DAV:  83    -0.112744349292E+04   -0.97025E-03   -0.43530E-04 30648   0.937E-02    0.286E+00
DAV:  84    -0.112745055578E+04   -0.70629E-02   -0.19889E-03 34328   0.177E-01    0.273E+00
DAV:  85    -0.112747084801E+04   -0.20292E-01   -0.62130E-03 32464   0.325E-01    0.265E+00
DAV:  86    -0.112767207423E+04   -0.20123E+00   -0.51307E-01 32464   0.328E+00    0.134E+00
DAV:  87    -0.112772614679E+04   -0.54073E-01   -0.18337E-01 27376   0.977E-01    0.105E+00
DAV:  88    -0.112772620804E+04   -0.61249E-04   -0.12067E-02 28912   0.294E-01    0.108E+00
DAV:  89    -0.112772103107E+04    0.51770E-02   -0.29343E-03 33512   0.239E-01    0.100E+00
DAV:  90    -0.112772036104E+04    0.67003E-03   -0.86504E-03 36072   0.341E-01    0.106E+00
DAV:  91    -0.112770250600E+04    0.17855E-01   -0.11649E-02 35832   0.393E-01    0.100E+00
DAV:  92    -0.112770589931E+04   -0.33933E-02   -0.28688E-03 28088   0.156E-01    0.996E-01
DAV:  93    -0.112769873946E+04    0.71598E-02   -0.14881E-03 31328   0.201E-01    0.102E+00
DAV:  94    -0.112769888787E+04   -0.14841E-03   -0.34921E-04 27440   0.330E-02    0.102E+00
DAV:  95    -0.112770122821E+04   -0.23403E-02   -0.45295E-05 22176   0.342E-02    0.102E+00
DAV:  96    -0.112770191983E+04   -0.69161E-03   -0.12413E-02 36984   0.480E-01    0.102E+00
DAV:  97    -0.112770736190E+04   -0.54421E-02   -0.16324E-02 35696   0.533E-01    0.107E+00
DAV:  98    -0.112771415767E+04   -0.67958E-02   -0.12689E-02 35016   0.329E-01    0.124E+00
DAV:  99    -0.112771900389E+04   -0.48462E-02   -0.78574E-03 35824   0.340E-01    0.142E+00
DAV: 100    -0.112772190532E+04   -0.29014E-02   -0.18556E-02 35272   0.516E-01    0.177E+00
DAV: 101    -0.112766197652E+04    0.59929E-01   -0.15947E-01 35088   0.186E+00    0.260E+00
DAV: 102    -0.112767103676E+04   -0.90602E-02   -0.67118E-02 27120   0.483E-01    0.264E+00
DAV: 103    -0.112767077477E+04    0.26199E-03   -0.32567E-03 34632   0.213E-01    0.252E+00
DAV: 104    -0.112765556232E+04    0.15212E-01   -0.43101E-03 35568   0.291E-01    0.245E+00
DAV: 105    -0.112762897568E+04    0.26587E-01   -0.11372E-02 35704   0.461E-01    0.235E+00
DAV: 106    -0.112760979255E+04    0.19183E-01   -0.12918E-02 35848   0.362E-01    0.215E+00
DAV: 107    -0.112758437958E+04    0.25413E-01   -0.12242E-02 31888   0.557E-01    0.224E+00
DAV: 108    -0.112756602337E+04    0.18356E-01   -0.15361E-02 33704   0.396E-01    0.237E+00
DAV: 109    -0.112757674925E+04   -0.10726E-01   -0.61608E-03 26416   0.306E-01    0.231E+00
DAV: 110    -0.112757915167E+04   -0.24024E-02   -0.10322E-03 34736   0.102E-01    0.226E+00
DAV: 111    -0.112753774186E+04    0.41410E-01   -0.16156E-02 32000   0.691E-01    0.235E+00
DAV: 112    -0.112754380921E+04   -0.60674E-02   -0.47926E-03 26400   0.220E-01    0.231E+00
DAV: 113    -0.112754791980E+04   -0.41106E-02   -0.26404E-03 33976   0.242E-01    0.233E+00
DAV: 114    -0.112756529255E+04   -0.17373E-01   -0.58270E-03 33312   0.320E-01    0.228E+00
DAV: 115    -0.112760194350E+04   -0.36651E-01   -0.19954E-02 33992   0.627E-01    0.209E+00
DAV: 116    -0.112770364726E+04   -0.10170E+00   -0.53897E-01 35784   0.319E+00    0.152E+00
DAV: 117    -0.112773728943E+04   -0.33642E-01   -0.18398E-01 27504   0.855E-01    0.180E+00
DAV: 118    -0.112774285776E+04   -0.55683E-02   -0.38737E-03 31872   0.186E-01    0.183E+00
DAV: 119    -0.112774084523E+04    0.20125E-02   -0.79387E-04 30176   0.106E-01    0.182E+00
DAV: 120    -0.112774115765E+04   -0.31243E-03   -0.90150E-05 27320   0.215E-02    0.182E+00
DAV: 121    -0.112776084567E+04   -0.19688E-01   -0.88429E-03 31896   0.467E-01    0.187E+00
DAV: 122    -0.112776528280E+04   -0.44371E-02   -0.40437E-03 29056   0.134E-01    0.186E+00
DAV: 123    -0.112775983189E+04    0.54509E-02   -0.12107E-03 29360   0.156E-01    0.187E+00
DAV: 124    -0.112776065207E+04   -0.82018E-03   -0.12824E-04 24736   0.414E-02    0.186E+00
DAV: 125    -0.112776627982E+04   -0.56277E-02   -0.52080E-04 31536   0.116E-01    0.184E+00
DAV: 126    -0.112777339105E+04   -0.71112E-02   -0.35081E-02 36424   0.853E-01    0.122E+00
DAV: 127    -0.112780044870E+04   -0.27058E-01   -0.17449E-02 31744   0.473E-01    0.129E+00
DAV: 128    -0.112784080883E+04   -0.40360E-01   -0.19410E-02 31872   0.596E-01    0.117E+00
DAV: 129    -0.112786826491E+04   -0.27456E-01   -0.17808E-02 33912   0.424E-01    0.113E+00
DAV: 130    -0.112787681528E+04   -0.85504E-02   -0.63770E-03 29504   0.204E-01    0.108E+00
DAV: 131    -0.112791887019E+04   -0.42055E-01   -0.16852E-02 33120   0.642E-01    0.113E+00
DAV: 132    -0.112792519602E+04   -0.63258E-02   -0.11772E-02 31040   0.262E-01    0.118E+00
DAV: 133    -0.112793614771E+04   -0.10952E-01   -0.35844E-03 33512   0.244E-01    0.127E+00
DAV: 134    -0.112794339204E+04   -0.72443E-02   -0.33536E-03 31544   0.190E-01    0.127E+00
DAV: 135    -0.112794884062E+04   -0.54486E-02   -0.11913E-03 30496   0.910E-02    0.129E+00
DAV: 136    -0.112792082266E+04    0.28018E-01   -0.10506E-02 31488   0.506E-01    0.136E+00
DAV: 137    -0.112794057527E+04   -0.19753E-01   -0.63212E-03 31216   0.430E-01    0.125E+00
DAV: 138    -0.112797090050E+04   -0.30325E-01   -0.12619E-02 33080   0.510E-01    0.131E+00
DAV: 139    -0.112797199221E+04   -0.10917E-02   -0.44032E-03 27352   0.121E-01    0.130E+00
DAV: 140    -0.112796948297E+04    0.25092E-02   -0.27941E-04 28832   0.667E-02    0.131E+00
DAV: 141    -0.112796658104E+04    0.29019E-02   -0.90987E-03 35256   0.459E-01    0.138E+00
DAV: 142    -0.112795044114E+04    0.16140E-01   -0.10837E-02 33648   0.441E-01    0.124E+00
DAV: 143    -0.112795207643E+04   -0.16353E-02   -0.22876E-03 27280   0.128E-01    0.123E+00
DAV: 144    -0.112795463024E+04   -0.25538E-02   -0.43035E-04 33568   0.101E-01    0.124E+00
DAV: 145    -0.112795205535E+04    0.25749E-02   -0.11721E-03 31856   0.168E-01    0.117E+00
DAV: 146    -0.112797713663E+04   -0.25081E-01   -0.14276E-02 32376   0.604E-01    0.124E+00
DAV: 147    -0.112798425037E+04   -0.71137E-02   -0.90181E-03 31552   0.261E-01    0.123E+00
DAV: 148    -0.112800142452E+04   -0.17174E-01   -0.89411E-03 34080   0.426E-01    0.135E+00
DAV: 149    -0.112801181085E+04   -0.10386E-01   -0.87691E-03 33040   0.278E-01    0.135E+00
DAV: 150    -0.112801372208E+04   -0.19112E-02   -0.26963E-03 29472   0.142E-01    0.134E+00
DAV: 151    -0.112800306973E+04    0.10652E-01   -0.11054E-02 31464   0.510E-01    0.122E+00
DAV: 152    -0.112800735301E+04   -0.42833E-02   -0.33956E-03 26896   0.162E-01    0.125E+00
DAV: 153    -0.112800582299E+04    0.15300E-02   -0.57265E-04 31304   0.119E-01    0.122E+00
DAV: 154    -0.112800480905E+04    0.10139E-02   -0.40062E-04 33144   0.470E-02    0.120E+00
DAV: 155    -0.112800575465E+04   -0.94559E-03   -0.19947E-04 31080   0.710E-02    0.120E+00
DAV: 156    -0.112786515699E+04    0.14060E+00   -0.96336E-02 31512   0.160E+00    0.127E+00
DAV: 157    -0.112786698784E+04   -0.18309E-02   -0.36409E-02 28144   0.455E-01    0.114E+00
DAV: 158    -0.112787607858E+04   -0.90907E-02   -0.53125E-03 34264   0.262E-01    0.101E+00
DAV: 159    -0.112788133648E+04   -0.52579E-02   -0.33207E-03 28824   0.154E-01    0.955E-01
DAV: 160    -0.112788180375E+04   -0.46726E-03   -0.13095E-03 31168   0.139E-01    0.951E-01
DAV: 161    -0.112786518660E+04    0.16617E-01   -0.56603E-02 34968   0.111E+00    0.834E-01
DAV: 162    -0.112785709415E+04    0.80924E-02   -0.25278E-02 28128   0.386E-01    0.815E-01
DAV: 163    -0.112785024999E+04    0.68442E-02   -0.29136E-03 32080   0.182E-01    0.781E-01
DAV: 164    -0.112784743237E+04    0.28176E-02   -0.52752E-03 32712   0.318E-01    0.701E-01
DAV: 165    -0.112785333479E+04   -0.59024E-02   -0.85753E-03 34200   0.340E-01    0.613E-01
DAV: 166    -0.112785933145E+04   -0.59967E-02   -0.51973E-03 31608   0.233E-01    0.595E-01
DAV: 167    -0.112786008303E+04   -0.75158E-03   -0.15693E-03 27344   0.775E-02    0.597E-01
DAV: 168    -0.112786023908E+04   -0.15605E-03   -0.24590E-05 21576   0.106E-02    0.596E-01
DAV: 169    -0.112785930013E+04    0.93895E-03   -0.50309E-05 22488   0.370E-02    0.601E-01
DAV: 170    -0.112785846524E+04    0.83489E-03   -0.12396E-04 30664   0.370E-02    0.609E-01
DAV: 171    -0.112786694978E+04   -0.84845E-02   -0.11609E-03 31616   0.172E-01    0.594E-01
DAV: 172    -0.112786877957E+04   -0.18298E-02   -0.50574E-04 29056   0.538E-02    0.593E-01
DAV: 173    -0.112786749381E+04    0.12858E-02   -0.20007E-04 27424   0.645E-02    0.589E-01
DAV: 174    -0.112786571609E+04    0.17777E-02   -0.12100E-03 32448   0.159E-01    0.556E-01
DAV: 175    -0.112786439576E+04    0.13203E-02   -0.57248E-03 31976   0.314E-01    0.527E-01
DAV: 176    -0.112786492972E+04   -0.53397E-03   -0.18231E-03 26832   0.954E-02    0.526E-01
DAV: 177    -0.112786538774E+04   -0.45802E-03   -0.67975E-05 27088   0.314E-02    0.526E-01
DAV: 178    -0.112786709184E+04   -0.17041E-02   -0.17982E-04 31776   0.569E-02    0.533E-01
DAV: 179    -0.112787028633E+04   -0.31945E-02   -0.64872E-04 33848   0.108E-01    0.548E-01
DAV: 180    -0.112787058815E+04   -0.30182E-03   -0.34347E-04 28368   0.330E-02    0.555E-01
DAV: 181    -0.112787947403E+04   -0.88859E-02   -0.12958E-03 32384   0.176E-01    0.536E-01
DAV: 182    -0.112787546814E+04    0.40059E-02   -0.13853E-03 30976   0.161E-01    0.532E-01
DAV: 183    -0.112787535346E+04    0.11468E-03   -0.77304E-04 29592   0.137E-01    0.552E-01
DAV: 184    -0.112787503115E+04    0.32231E-03   -0.20239E-04 28560   0.773E-02    0.545E-01
DAV: 185    -0.112787797982E+04   -0.29487E-02   -0.34691E-03 31736   0.269E-01    0.539E-01
DAV: 186    -0.112788224077E+04   -0.42609E-02   -0.10971E-02 33000   0.418E-01    0.541E-01
DAV: 187    -0.112788200821E+04    0.23256E-03   -0.36253E-03 26272   0.170E-01    0.545E-01
DAV: 188    -0.112788220915E+04   -0.20094E-03   -0.83113E-04 30720   0.137E-01    0.541E-01
DAV: 189    -0.112788259691E+04   -0.38776E-03   -0.14257E-03 34128   0.149E-01    0.541E-01
DAV: 190    -0.112788235490E+04    0.24201E-03   -0.19125E-03 33944   0.178E-01    0.538E-01
DAV: 191    -0.112789022898E+04   -0.78741E-02   -0.34617E-03 33304   0.261E-01    0.524E-01
DAV: 192    -0.112789141895E+04   -0.11900E-02   -0.34634E-03 31856   0.196E-01    0.512E-01
DAV: 193    -0.112789191147E+04   -0.49252E-03   -0.19148E-03 33152   0.154E-01    0.510E-01
DAV: 194    -0.112789342868E+04   -0.15172E-02   -0.95230E-04 30992   0.760E-02    0.509E-01
DAV: 195    -0.112789326597E+04    0.16271E-03   -0.21129E-04 24904   0.320E-02    0.509E-01
DAV: 196    -0.112790218463E+04   -0.89187E-02   -0.18080E-02 32656   0.666E-01    0.521E-01
DAV: 197    -0.112790308593E+04   -0.90130E-03   -0.10460E-02 31896   0.267E-01    0.531E-01
DAV: 198    -0.112790381445E+04   -0.72852E-03   -0.25757E-03 32592   0.173E-01    0.540E-01
DAV: 199    -0.112790096726E+04    0.28472E-02   -0.67891E-03 33176   0.380E-01    0.588E-01
DAV: 200    -0.112790035380E+04    0.61346E-03   -0.46849E-03 28512   0.110E-01
   1 F= -.11279004E+04 E0= -.11279004E+04  d E =-.112790E+04  mag=    65.0011
       N       E                     dE             d eps       ncg     rms          rms(c)
DAV:   1    -0.112789836500E+04    0.26023E-02   -0.11977E-02 31736   0.500E-01    0.911E-01
DAV:   2    -0.112789716288E+04    0.12021E-02   -0.15241E-02 32928   0.793E-01    0.667E-01
DAV:   3    -0.112791926034E+04   -0.22097E-01   -0.55304E-03 32192   0.390E-01    0.524E-01
DAV:   4    -0.112792990104E+04   -0.10641E-01   -0.37277E-03 31984   0.226E-01    0.467E-01
DAV:   5    -0.112794076980E+04   -0.10869E-01   -0.38182E-03 32536   0.245E-01    0.440E-01
DAV:   6    -0.112795373628E+04   -0.12966E-01   -0.44956E-03 32808   0.269E-01    0.440E-01
DAV:   7    -0.112796382025E+04   -0.10084E-01   -0.36426E-03 33144   0.181E-01    0.434E-01
DAV:   8    -0.112798081727E+04   -0.16997E-01   -0.40010E-03 33704   0.314E-01    0.431E-01
DAV:   9    -0.112798934121E+04   -0.85239E-02   -0.48496E-03 32592   0.178E-01    0.424E-01
DAV:  10    -0.112800423946E+04   -0.14898E-01   -0.43640E-03 33336   0.319E-01    0.420E-01
DAV:  11    -0.112802921219E+04   -0.24973E-01   -0.15096E-02 32432   0.490E-01    0.424E-01
DAV:  12    -0.112803114826E+04   -0.19361E-02   -0.71833E-03 27648   0.144E-01    0.411E-01
DAV:  13    -0.112803505127E+04   -0.39030E-02   -0.42738E-04 35680   0.994E-02    0.418E-01
DAV:  14    -0.112803575641E+04   -0.70514E-03   -0.26814E-04 26736   0.256E-02    0.418E-01
DAV:  15    -0.112803464741E+04    0.11090E-02   -0.88500E-05 25856   0.376E-02    0.408E-01
DAV:  16    -0.112802021532E+04    0.14432E-01   -0.12639E-02 33472   0.509E-01    0.475E-01
DAV:  17    -0.112798998677E+04    0.30229E-01   -0.36613E-02 33608   0.719E-01    0.826E-01
DAV:  18    -0.112800678291E+04   -0.16796E-01   -0.16522E-02 27160   0.505E-01    0.727E-01
DAV:  19    -0.112802298324E+04   -0.16200E-01   -0.10316E-02 33224   0.415E-01    0.674E-01
DAV:  20    -0.112807099384E+04   -0.48011E-01   -0.75555E-02 32016   0.122E+00    0.687E-01
DAV:  21    -0.112808735353E+04   -0.16360E-01   -0.40567E-02 29504   0.357E-01    0.714E-01
DAV:  22    -0.112808193320E+04    0.54203E-02   -0.58103E-03 26880   0.232E-01    0.707E-01
DAV:  23    -0.112808302767E+04   -0.10945E-02   -0.34107E-04 28960   0.813E-02    0.744E-01
DAV:  24    -0.112806610730E+04    0.16920E-01   -0.72327E-03 32248   0.390E-01    0.806E-01
DAV:  25    -0.112806014744E+04    0.59599E-02   -0.35315E-03 29488   0.111E-01    0.867E-01
DAV:  26    -0.112806853320E+04   -0.83858E-02   -0.20371E-03 30048   0.188E-01    0.799E-01
DAV:  27    -0.112809275622E+04   -0.24223E-01   -0.16337E-02 32760   0.562E-01    0.777E-01
DAV:  28    -0.112810953699E+04   -0.16781E-01   -0.13363E-02 33864   0.312E-01    0.607E-01
DAV:  29    -0.112812709167E+04   -0.17555E-01   -0.85370E-03 33544   0.384E-01    0.477E-01
DAV:  30    -0.112813362338E+04   -0.65317E-02   -0.63204E-03 29616   0.147E-01    0.497E-01
DAV:  31    -0.112812187325E+04    0.11750E-01   -0.43007E-03 30088   0.268E-01    0.509E-01
DAV:  32    -0.112811956857E+04    0.23047E-02   -0.11816E-03 31432   0.661E-02    0.530E-01
DAV:  33    -0.112811654000E+04    0.30286E-02   -0.19948E-04 31472   0.596E-02    0.546E-01
DAV:  34    -0.112811953760E+04   -0.29976E-02   -0.35900E-04 28288   0.863E-02    0.528E-01
DAV:  35    -0.112813077289E+04   -0.11235E-01   -0.34916E-03 32936   0.261E-01    0.497E-01
DAV:  36    -0.112815187851E+04   -0.21106E-01   -0.13566E-02 33048   0.470E-01    0.487E-01
DAV:  37    -0.112816561615E+04   -0.13738E-01   -0.12559E-02 34616   0.321E-01    0.498E-01
DAV:  38    -0.112817338046E+04   -0.77643E-02   -0.38367E-03 32616   0.148E-01    0.513E-01
DAV:  39    -0.112818306615E+04   -0.96857E-02   -0.12659E-03 33728   0.159E-01    0.492E-01
DAV:  40    -0.112818635839E+04   -0.32922E-02   -0.13734E-03 27424   0.659E-02    0.489E-01
DAV:  41    -0.112819066390E+04   -0.43055E-02   -0.38689E-04 34032   0.917E-02    0.439E-01
DAV:  42    -0.112819349938E+04   -0.28355E-02   -0.98465E-04 33448   0.110E-01    0.391E-01
DAV:  43    -0.112819468933E+04   -0.11899E-02   -0.45124E-04 27640   0.338E-02    0.393E-01
DAV:  44    -0.112819905406E+04   -0.43647E-02   -0.26184E-04 33472   0.760E-02    0.379E-01
DAV:  45    -0.112820423831E+04   -0.51842E-02   -0.11475E-03 33856   0.126E-01    0.343E-01
DAV:  46    -0.112820175001E+04    0.24883E-02   -0.82424E-04 30128   0.925E-02    0.337E-01
DAV:  47    -0.112820012187E+04    0.16281E-02   -0.27269E-04 26696   0.379E-02    0.342E-01
DAV:  48    -0.112816035177E+04    0.39770E-01   -0.13883E-02 31744   0.549E-01    0.462E-01
DAV:  49    -0.112814446763E+04    0.15884E-01   -0.11881E-02 33880   0.271E-01    0.476E-01
DAV:  50    -0.112813640038E+04    0.80673E-02   -0.34446E-03 33888   0.172E-01    0.466E-01
DAV:  51    -0.112812931964E+04    0.70807E-02   -0.15321E-03 32840   0.111E-01    0.467E-01
DAV:  52    -0.112818356237E+04   -0.54243E-01   -0.30478E-02 31264   0.813E-01    0.325E-01
DAV:  53    -0.112816896907E+04    0.14593E-01   -0.69224E-03 28336   0.316E-01    0.344E-01
DAV:  54    -0.112816872698E+04    0.24208E-03   -0.39312E-04 27752   0.334E-02    0.346E-01
DAV:  55    -0.112816865025E+04    0.76730E-04   -0.12648E-05 20328   0.121E-02    0.350E-01
DAV:  56    -0.112816929845E+04   -0.64820E-03   -0.10144E-04 29200   0.419E-02    0.356E-01
DAV:  57    -0.112817493815E+04   -0.56397E-02   -0.90291E-04 31752   0.144E-01    0.342E-01
DAV:  58    -0.112818421415E+04   -0.92760E-02   -0.20786E-03 32072   0.174E-01    0.371E-01
DAV:  59    -0.112818084295E+04    0.33712E-02   -0.23552E-03 31592   0.199E-01    0.386E-01
DAV:  60    -0.112817801507E+04    0.28279E-02   -0.13890E-03 33504   0.943E-02    0.395E-01
DAV:  61    -0.112817874352E+04   -0.72845E-03   -0.31417E-04 25536   0.480E-02    0.389E-01
DAV:  62    -0.112818583475E+04   -0.70912E-02   -0.13396E-03 33208   0.170E-01    0.414E-01
DAV:  63    -0.112820522891E+04   -0.19394E-01   -0.11974E-02 31928   0.471E-01    0.511E-01
DAV:  64    -0.112821435490E+04   -0.91260E-02   -0.92771E-03 33936   0.238E-01    0.518E-01
DAV:  65    -0.112821784136E+04   -0.34865E-02   -0.18502E-03 29216   0.918E-02    0.478E-01
DAV:  66    -0.112822096592E+04   -0.31246E-02   -0.38446E-04 31288   0.768E-02    0.440E-01
DAV:  67    -0.112822477927E+04   -0.38133E-02   -0.32916E-03 32456   0.243E-01    0.459E-01
DAV:  68    -0.112821649264E+04    0.82866E-02   -0.34890E-03 30176   0.260E-01    0.406E-01
DAV:  69    -0.112820904043E+04    0.74522E-02   -0.32972E-03 33456   0.184E-01    0.386E-01
DAV:  70    -0.112820882674E+04    0.21368E-03   -0.10284E-03 26384   0.529E-02    0.386E-01
DAV:  71    -0.112820785019E+04    0.97655E-03   -0.40226E-05 24216   0.263E-02    0.389E-01
DAV:  72    -0.112817839619E+04    0.29454E-01   -0.15211E-02 31560   0.577E-01    0.312E-01
DAV:  73    -0.112816719120E+04    0.11205E-01   -0.12505E-02 34064   0.293E-01    0.332E-01
DAV:  74    -0.112816487491E+04    0.23163E-02   -0.26177E-03 26760   0.935E-02    0.322E-01
DAV:  75    -0.112816283611E+04    0.20388E-02   -0.19870E-04 31696   0.583E-02    0.322E-01
DAV:  76    -0.112816365722E+04   -0.82111E-03   -0.13558E-04 24224   0.306E-02    0.318E-01
DAV:  77    -0.112815986801E+04    0.37892E-02   -0.23247E-04 29904   0.734E-02    0.334E-01
DAV:  78    -0.112816446696E+04   -0.45990E-02   -0.15113E-03 31936   0.174E-01    0.332E-01
DAV:  79    -0.112817137487E+04   -0.69079E-02   -0.33674E-03 34096   0.206E-01    0.335E-01
DAV:  80    -0.112816987974E+04    0.14951E-02   -0.16462E-03 28248   0.892E-02    0.331E-01
DAV:  81    -0.112816662357E+04    0.32562E-02   -0.31677E-04 34112   0.667E-02    0.351E-01
DAV:  82    -0.112815934195E+04    0.72816E-02   -0.53997E-03 31392   0.319E-01    0.343E-01
DAV:  83    -0.112816060107E+04   -0.12591E-02   -0.21065E-03 26800   0.953E-02    0.337E-01
DAV:  84    -0.112816128707E+04   -0.68601E-03   -0.38969E-04 32160   0.713E-02    0.336E-01
DAV:  85    -0.112816246596E+04   -0.11789E-02   -0.24875E-04 30152   0.406E-02    0.337E-01
DAV:  86    -0.112816183161E+04    0.63435E-03   -0.20515E-04 29560   0.587E-02    0.339E-01
DAV:  87    -0.112815745881E+04    0.43728E-02   -0.19737E-03 31424   0.207E-01    0.343E-01
DAV:  88    -0.112816201315E+04   -0.45543E-02   -0.15158E-03 30960   0.173E-01    0.361E-01
DAV:  89    -0.112816206263E+04   -0.49481E-04   -0.49685E-04 28536   0.479E-02    0.369E-01
DAV:  90    -0.112816212437E+04   -0.61740E-04   -0.59804E-05 21632   0.183E-02    0.367E-01
DAV:  91    -0.112816237045E+04   -0.24608E-03   -0.50490E-06 16664   0.960E-03    0.368E-01
DAV:  92    -0.112818761275E+04   -0.25242E-01   -0.22080E-02 31872   0.686E-01    0.482E-01
DAV:  93    -0.112818918606E+04   -0.15733E-02   -0.83169E-03 26672   0.167E-01    0.453E-01
DAV:  94    -0.112818966093E+04   -0.47488E-03   -0.33029E-04 29408   0.359E-02    0.455E-01
DAV:  95    -0.112818871701E+04    0.94393E-03   -0.71124E-05 23672   0.319E-02    0.456E-01
DAV:  96    -0.112818565555E+04    0.30615E-02   -0.48669E-04 30824   0.943E-02    0.454E-01
DAV:  97    -0.112819484088E+04   -0.91853E-02   -0.41772E-03 31360   0.299E-01    0.405E-01
DAV:  98    -0.112819028316E+04    0.45577E-02   -0.10531E-03 28448   0.114E-01    0.440E-01
DAV:  99    -0.112819376747E+04   -0.34843E-02   -0.34298E-04 30480   0.745E-02    0.432E-01
DAV: 100    -0.112819050983E+04    0.32576E-02   -0.36624E-04 29704   0.917E-02    0.425E-01
DAV: 101    -0.112818367788E+04    0.68320E-02   -0.18905E-03 32368   0.174E-01    0.417E-01
DAV: 102    -0.112818887438E+04   -0.51965E-02   -0.14762E-03 31016   0.163E-01    0.380E-01
DAV: 103    -0.112818415790E+04    0.47165E-02   -0.11929E-03 30872   0.152E-01    0.381E-01
DAV: 104    -0.112818264764E+04    0.15103E-02   -0.85130E-04 32752   0.678E-02    0.375E-01
DAV: 105    -0.112818246049E+04    0.18715E-03   -0.18708E-04 25232   0.252E-02    0.373E-01
DAV: 106    -0.112818321672E+04   -0.75623E-03   -0.13480E-04 26224   0.497E-02    0.382E-01
DAV: 107    -0.112817756365E+04    0.56531E-02   -0.14372E-03 31360   0.175E-01    0.351E-01
DAV: 108    -0.112817690545E+04    0.65820E-03   -0.50486E-04 26728   0.384E-02    0.343E-01
DAV: 109    -0.112817657285E+04    0.33260E-03   -0.14513E-04 27968   0.532E-02    0.349E-01
DAV: 110    -0.112817487764E+04    0.16952E-02   -0.11458E-04 27416   0.408E-02    0.350E-01
DAV: 111    -0.112817235918E+04    0.25185E-02   -0.39437E-04 32328   0.822E-02    0.349E-01
DAV: 112    -0.112816428670E+04    0.80725E-02   -0.12188E-02 31344   0.492E-01    0.312E-01
DAV: 113    -0.112816480900E+04   -0.52229E-03   -0.41219E-03 26240   0.136E-01    0.292E-01
DAV: 114    -0.112816839102E+04   -0.35820E-02   -0.54951E-04 32232   0.112E-01    0.288E-01
DAV: 115    -0.112817429248E+04   -0.59015E-02   -0.16535E-03 32968   0.158E-01    0.297E-01
DAV: 116    -0.112818020855E+04   -0.59161E-02   -0.19793E-03 34312   0.146E-01    0.309E-01
DAV: 117    -0.112820055501E+04   -0.20346E-01   -0.12558E-02 32224   0.514E-01    0.373E-01
DAV: 118    -0.112820554628E+04   -0.49913E-02   -0.90515E-03 31944   0.294E-01    0.365E-01
DAV: 119    -0.112820807420E+04   -0.25279E-02   -0.21456E-03 28632   0.791E-02    0.373E-01
DAV: 120    -0.112820895144E+04   -0.87724E-03   -0.12004E-04 25656   0.230E-02    0.371E-01
DAV: 121    -0.112821523666E+04   -0.62852E-02   -0.10678E-03 32312   0.146E-01    0.349E-01
DAV: 122    -0.112824933511E+04   -0.34098E-01   -0.35533E-02 32176   0.812E-01    0.374E-01
DAV: 123    -0.112826301106E+04   -0.13676E-01   -0.30807E-02 34248   0.409E-01    0.462E-01
DAV: 124    -0.112826691004E+04   -0.38990E-02   -0.64165E-03 30672   0.161E-01    0.496E-01
DAV: 125    -0.112826892923E+04   -0.20192E-02   -0.11278E-03 32024   0.135E-01    0.568E-01
DAV: 126    -0.112826767671E+04    0.12525E-02   -0.15688E-03 27616   0.144E-01    0.495E-01
DAV: 127    -0.112826979439E+04   -0.21177E-02   -0.33574E-04 30504   0.697E-02    0.444E-01
DAV: 128    -0.112826775299E+04    0.20414E-02   -0.70915E-04 31344   0.117E-01    0.355E-01
DAV: 129    -0.112827204229E+04   -0.42893E-02   -0.87073E-04 30168   0.132E-01    0.354E-01
DAV: 130    -0.112827337153E+04   -0.13292E-02   -0.44681E-04 31120   0.607E-02    0.310E-01
DAV: 131    -0.112827276501E+04    0.60652E-03   -0.69641E-04 30432   0.116E-01    0.240E-01
DAV: 132    -0.112828559326E+04   -0.12828E-01   -0.81001E-03 31656   0.397E-01    0.227E-01
DAV: 133    -0.112828619830E+04   -0.60504E-03   -0.38648E-03 27776   0.121E-01    0.228E-01
DAV: 134    -0.112828598672E+04    0.21158E-03   -0.35384E-04 31240   0.691E-02    0.227E-01
DAV: 135    -0.112828720137E+04   -0.12147E-02   -0.68567E-04 31664   0.105E-01    0.240E-01
DAV: 136    -0.112828879610E+04   -0.15947E-02   -0.71273E-04 30408   0.669E-02    0.243E-01
DAV: 137    -0.112830120863E+04   -0.12413E-01   -0.36328E-03 31488   0.261E-01    0.201E-01
DAV: 138    -0.112829914405E+04    0.20646E-02   -0.16246E-03 27008   0.999E-02    0.187E-01
DAV: 139    -0.112829919849E+04   -0.54438E-04   -0.37633E-04 30688   0.666E-02    0.193E-01
DAV: 140    -0.112829909791E+04    0.10058E-03   -0.26321E-04 28512   0.376E-02    0.202E-01
DAV: 141    -0.112830074277E+04   -0.16449E-02   -0.84805E-05 26064   0.320E-02    0.192E-01
DAV: 142    -0.112830382276E+04   -0.30800E-02   -0.23313E-04 30464   0.642E-02    0.183E-01
DAV: 143    -0.112830505055E+04   -0.12278E-02   -0.26882E-04 31456   0.482E-02    0.180E-01
DAV: 144    -0.112830817900E+04   -0.31284E-02   -0.54279E-04 30704   0.974E-02    0.174E-01
DAV: 145    -0.112831094659E+04   -0.27676E-02   -0.99583E-04 32856   0.984E-02    0.172E-01
DAV: 146    -0.112831196785E+04   -0.10213E-02   -0.93660E-04 31088   0.104E-01    0.159E-01
DAV: 147    -0.112831371041E+04   -0.17426E-02   -0.10271E-03 32472   0.103E-01    0.156E-01
DAV: 148    -0.112831597015E+04   -0.22597E-02   -0.96969E-04 31368   0.106E-01    0.149E-01
DAV: 149    -0.112831630492E+04   -0.33477E-03   -0.64882E-04 28448   0.422E-02    0.149E-01
DAV: 150    -0.112831551353E+04    0.79139E-03   -0.85452E-05 24936   0.369E-02    0.161E-01
DAV: 151    -0.112831558396E+04   -0.70425E-04   -0.76384E-05 21520   0.123E-02    0.161E-01
DAV: 152    -0.112831301140E+04    0.25726E-02   -0.10224E-04 26624   0.434E-02    0.193E-01
DAV: 153    -0.112831626197E+04   -0.32506E-02   -0.16522E-04 28752   0.614E-02    0.142E-01
DAV: 154    -0.112832068908E+04   -0.44271E-02   -0.87123E-04 32016   0.117E-01    0.105E-01
DAV: 155    -0.112831874944E+04    0.19396E-02   -0.78912E-04 29592   0.965E-02    0.111E-01
DAV: 156    -0.112831981586E+04   -0.10664E-02   -0.45031E-04 31072   0.563E-02    0.996E-02
DAV: 157    -0.112832087253E+04   -0.10567E-02   -0.50569E-04 29624   0.836E-02    0.959E-02
DAV: 158    -0.112832085071E+04    0.21815E-04   -0.29312E-04 25352   0.258E-02    0.909E-02
DAV: 159    -0.112832072573E+04    0.12498E-03   -0.67937E-06 17880   0.100E-02    0.917E-02
DAV: 160    -0.112832034927E+04    0.37646E-03   -0.27408E-05 19880   0.196E-02    0.966E-02
DAV: 161    -0.112831946078E+04    0.88849E-03   -0.72457E-05 26536   0.284E-02    0.112E-01
DAV: 162    -0.112831810373E+04    0.13570E-02   -0.63876E-05 25168   0.275E-02    0.140E-01
DAV: 163    -0.112831840037E+04   -0.29664E-03   -0.22709E-05 17360   0.132E-02    0.136E-01
DAV: 164    -0.112831842829E+04   -0.27911E-04   -0.25077E-06 14048   0.378E-03    0.135E-01
DAV: 165    -0.112831850215E+04   -0.73868E-04   -0.73699E-07 13448   0.359E-03    0.135E-01
DAV: 166    -0.112831856057E+04   -0.58419E-04   -0.54810E-07 13328   0.177E-03    0.134E-01
DAV: 167    -0.112832114839E+04   -0.25878E-02   -0.15430E-04 27848   0.535E-02    0.817E-02
DAV: 168    -0.112832030931E+04    0.83909E-03   -0.95402E-05 25616   0.404E-02    0.877E-02
DAV: 169    -0.112832032609E+04   -0.16785E-04   -0.27707E-05 17160   0.119E-02    0.835E-02
DAV: 170    -0.112832035583E+04   -0.29738E-04   -0.78463E-06 14640   0.659E-03    0.825E-02
DAV: 171    -0.112832034657E+04    0.92644E-05   -0.24302E-06 13584   0.475E-03
   2 F= -.11283203E+04 E0= -.11283203E+04  d E =-.419993E+00  mag=    65.0000
       N       E                     dE             d eps       ncg     rms          rms(c)
DAV:   1    -0.112832543762E+04   -0.50818E-02   -0.41060E-02 27832   0.493E-01    0.189E-01
DAV:   2    -0.112832772838E+04   -0.22908E-02   -0.32258E-03 30656   0.144E-01    0.116E-01
DAV:   3    -0.112832733633E+04    0.39206E-03   -0.31584E-04 30680   0.567E-02    0.100E-01
DAV:   4    -0.112832761106E+04   -0.27473E-03   -0.78706E-05 28168   0.240E-02    0.783E-02
DAV:   5    -0.112832809140E+04   -0.48034E-03   -0.76949E-05 28000   0.346E-02    0.696E-02
DAV:   6    -0.112832838063E+04   -0.28924E-03   -0.17307E-04 28416   0.456E-02    0.605E-02
DAV:   7    -0.112832902111E+04   -0.64048E-03   -0.43492E-04 30056   0.764E-02    0.493E-02
DAV:   8    -0.112832956830E+04   -0.54719E-03   -0.68354E-04 30960   0.803E-02    0.419E-02
DAV:   9    -0.112832994345E+04   -0.37515E-03   -0.67706E-04 30296   0.878E-02    0.338E-02
DAV:  10    -0.112833016162E+04   -0.21816E-03   -0.59019E-04 30704   0.647E-02    0.280E-02
DAV:  11    -0.112833018529E+04   -0.23673E-04   -0.21412E-04 29000   0.345E-02    0.225E-02
DAV:  12    -0.112833025009E+04   -0.64804E-04   -0.11372E-04 27416   0.465E-02    0.183E-02
DAV:  13    -0.112833023501E+04    0.15082E-04   -0.12943E-04 26592   0.225E-02    0.137E-02
DAV:  14    -0.112833014603E+04    0.88986E-04   -0.36381E-05 18392   0.134E-02    0.118E-02
DAV:  15    -0.112833020474E+04   -0.58718E-04   -0.56816E-06 14840   0.526E-03    0.101E-02
DAV:  16    -0.112833022254E+04   -0.17796E-04   -0.29987E-06 15000   0.724E-03    0.917E-03
DAV:  17    -0.112833022919E+04   -0.66477E-05   -0.11947E-05 17440   0.128E-02
   3 F= -.11283302E+04 E0= -.11283302E+04  d E =-.988262E-02  mag=    65.0000
       N       E                     dE             d eps       ncg     rms          rms(c)
DAV:   1    -0.112833179191E+04   -0.15694E-02   -0.93508E-01 28440   0.250E+00    0.791E-01
DAV:   2    -0.112833813953E+04   -0.63476E-02   -0.80353E-02 29896   0.565E-01    0.395E-01
DAV:   3    -0.112833760724E+04    0.53229E-03   -0.37333E-03 29960   0.172E-01    0.336E-01
DAV:   4    -0.112833745750E+04    0.14975E-03   -0.63381E-04 30696   0.624E-02    0.121E-01
DAV:   5    -0.112833733135E+04    0.12614E-03   -0.23987E-04 30528   0.565E-02    0.469E-02
DAV:   6    -0.112833727080E+04    0.60557E-04   -0.18027E-04 28488   0.338E-02    0.442E-02
DAV:   7    -0.112833724982E+04    0.20980E-04   -0.54088E-05 27448   0.179E-02    0.275E-02
DAV:   8    -0.112833723598E+04    0.13834E-04   -0.56168E-06 15656   0.832E-03    0.192E-02
DAV:   9    -0.112833723889E+04   -0.29081E-05   -0.47869E-06 16744   0.963E-03
   4 F= -.11283372E+04 E0= -.11283372E+04  d E =-.700970E-02  mag=    65.0000
       N       E                     dE             d eps       ncg     rms          rms(c)
DAV:   1    -0.112833855574E+04   -0.13198E-02   -0.35733E-02 29632   0.532E-01    0.148E-01
DAV:   2    -0.112833887283E+04   -0.31709E-03   -0.35244E-03 29464   0.113E-01    0.715E-02
DAV:   3    -0.112833892779E+04   -0.54958E-04   -0.14672E-04 29104   0.324E-02    0.559E-02
DAV:   4    -0.112833890362E+04    0.24170E-04   -0.18858E-05 19656   0.111E-02    0.228E-02
DAV:   5    -0.112833889898E+04    0.46410E-05   -0.12511E-05 18120   0.114E-02
   5 F= -.11283389E+04 E0= -.11283389E+04  d E =-.166009E-02  mag=    65.0000
       N       E                     dE             d eps       ncg     rms          rms(c)
DAV:   1    -0.112833222893E+04    0.66747E-02   -0.58662E-01 31120   0.271E+00    0.520E-01
DAV:   2    -0.112834155104E+04   -0.93221E-02   -0.92871E-02 28496   0.522E-01    0.241E-01
DAV:   3    -0.112834186403E+04   -0.31299E-03   -0.31613E-03 29488   0.124E-01    0.124E-01
DAV:   4    -0.112834177039E+04    0.93644E-04   -0.24972E-04 31088   0.338E-02    0.730E-02
DAV:   5    -0.112834178077E+04   -0.10380E-04   -0.10206E-04 30576   0.316E-02    0.286E-02
DAV:   6    -0.112834178858E+04   -0.78116E-05   -0.45962E-05 28184   0.170E-02
   6 F= -.11283418E+04 E0= -.11283418E+04  d E =-.288960E-02  mag=    65.0000
       N       E                     dE             d eps       ncg     rms          rms(c)
DAV:   1    -0.112831876364E+04    0.23017E-01   -0.16632E+00 30856   0.453E+00    0.756E-01
DAV:   2    -0.112834519405E+04   -0.26430E-01   -0.26153E-01 28096   0.853E-01    0.374E-01
DAV:   3    -0.112834576434E+04   -0.57028E-03   -0.87121E-03 29248   0.193E-01    0.163E-01
DAV:   4    -0.112834567975E+04    0.84581E-04   -0.56239E-04 30976   0.452E-02    0.107E-01
DAV:   5    -0.112834563282E+04    0.46937E-04   -0.19838E-04 32544   0.491E-02    0.460E-02
DAV:   6    -0.112834564398E+04   -0.11165E-04   -0.97744E-05 30056   0.232E-02    0.194E-02
DAV:   7    -0.112834566101E+04   -0.17028E-04   -0.19548E-05 18304   0.111E-02    0.132E-02
DAV:   8    -0.112834566853E+04   -0.75177E-05   -0.42452E-06 14480   0.564E-03
   7 F= -.11283457E+04 E0= -.11283457E+04  d E =-.387995E-02  mag=    65.0000
       N       E                     dE             d eps       ncg     rms          rms(c)
DAV:   1    -0.112824904849E+04    0.96613E-01   -0.47104E+00 31400   0.791E+00    0.147E+00
DAV:   2    -0.112834155169E+04   -0.92503E-01   -0.89245E-01 27704   0.149E+00    0.701E-01
DAV:   3    -0.112834333575E+04   -0.17841E-02   -0.27899E-02 29504   0.335E-01    0.314E-01
DAV:   4    -0.112834307781E+04    0.25794E-03   -0.19785E-03 32448   0.931E-02    0.196E-01
DAV:   5    -0.112834282345E+04    0.25435E-03   -0.68547E-04 31960   0.885E-02    0.734E-02
DAV:   6    -0.112834280878E+04    0.14673E-04   -0.30905E-04 30296   0.412E-02    0.351E-02
DAV:   7    -0.112834285678E+04   -0.47999E-04   -0.59798E-05 28320   0.192E-02    0.237E-02
DAV:   8    -0.112834284819E+04    0.85923E-05   -0.76644E-06 16312   0.769E-03
   8 F= -.11283428E+04 E0= -.11283428E+04  d E =0.282034E-02  mag=    65.0000
       N       E                     dE             d eps       ncg     rms          rms(c)
DAV:   1    -0.112834319745E+04   -0.34067E-03   -0.11576E+00 29808   0.300E+00    0.884E-01
DAV:   2    -0.112835287001E+04   -0.96726E-02   -0.11434E-01 29680   0.647E-01    0.401E-01
DAV:   3    -0.112835231166E+04    0.55835E-03   -0.45399E-03 29864   0.168E-01    0.279E-01
DAV:   4    -0.112835203213E+04    0.27953E-03   -0.77932E-04 31736   0.755E-02    0.118E-01
DAV:   5    -0.112835186250E+04    0.16963E-03   -0.33100E-04 30208   0.629E-02    0.398E-02
DAV:   6    -0.112835187996E+04   -0.17463E-04   -0.23313E-04 29032   0.357E-02    0.366E-02
DAV:   7    -0.112835187759E+04    0.23720E-05   -0.44477E-05 25800   0.167E-02
   9 F= -.11283519E+04 E0= -.11283519E+04  d E =-.902940E-02  mag=    65.0000
       N       E                     dE             d eps       ncg     rms          rms(c)
DAV:   1    -0.112835209189E+04   -0.21193E-03   -0.98130E-02 31360   0.112E+00    0.243E-01
DAV:   2    -0.112835369195E+04   -0.16001E-02   -0.15951E-02 28864   0.222E-01    0.110E-01
DAV:   3    -0.112835365632E+04    0.35629E-04   -0.54741E-04 29640   0.535E-02    0.564E-02
DAV:   4    -0.112835369140E+04   -0.35082E-04   -0.59395E-05 27504   0.191E-02    0.323E-02
DAV:   5    -0.112835367607E+04    0.15336E-04   -0.26660E-05 22832   0.149E-02    0.122E-02
DAV:   6    -0.112835366918E+04    0.68887E-05   -0.10816E-05 15968   0.865E-03
  10 F= -.11283537E+04 E0= -.11283537E+04  d E =-.179159E-02  mag=    65.0000
       N       E                     dE             d eps       ncg     rms          rms(c)
DAV:   1    -0.112835111786E+04    0.25582E-02   -0.26368E-01 31232   0.177E+00    0.287E-01
DAV:   2    -0.112835472258E+04   -0.36047E-02   -0.37163E-02 28056   0.339E-01    0.139E-01
DAV:   3    -0.112835473295E+04   -0.10369E-04   -0.11332E-03 29384   0.728E-02    0.617E-02
DAV:   4    -0.112835476927E+04   -0.36320E-04   -0.79866E-05 26712   0.186E-02    0.401E-02
DAV:   5    -0.112835474011E+04    0.29154E-04   -0.27834E-05 23408   0.193E-02    0.168E-02
DAV:   6    -0.112835473793E+04    0.21768E-05   -0.19336E-05 17920   0.101E-02
  11 F= -.11283547E+04 E0= -.11283547E+04  d E =-.106876E-02  mag=    65.0000
       N       E                     dE             d eps       ncg     rms          rms(c)
DAV:   1    -0.112833414360E+04    0.20597E-01   -0.19855E+00 29864   0.445E+00    0.715E-01
DAV:   2    -0.112835379859E+04   -0.19655E-01   -0.21862E-01 28032   0.850E-01    0.350E-01
DAV:   3    -0.112835396992E+04   -0.17133E-03   -0.68700E-03 29368   0.188E-01    0.174E-01
DAV:   4    -0.112835393970E+04    0.30216E-04   -0.55546E-04 31480   0.524E-02    0.107E-01
DAV:   5    -0.112835384624E+04    0.93460E-04   -0.24895E-04 32224   0.513E-02    0.414E-02
DAV:   6    -0.112835384880E+04   -0.25584E-05   -0.10612E-04 30032   0.253E-02    0.227E-02
DAV:   7    -0.112835386846E+04   -0.19664E-04   -0.23587E-05 17712   0.124E-02    0.161E-02
DAV:   8    -0.112835387261E+04   -0.41457E-05   -0.47541E-06 14400   0.593E-03
  12 F= -.11283539E+04 E0= -.11283539E+04  d E =0.865326E-03  mag=    65.0000
       N       E                     dE             d eps       ncg     rms          rms(c)
DAV:   1    -0.112830315177E+04    0.50717E-01   -0.48639E+00 29720   0.661E+00    0.123E+00
DAV:   2    -0.112834603630E+04   -0.42885E-01   -0.48819E-01 28808   0.128E+00    0.569E-01
DAV:   3    -0.112834604161E+04   -0.53069E-05   -0.15884E-02 29576   0.292E-01    0.314E-01
DAV:   4    -0.112834563433E+04    0.40727E-03   -0.15955E-03 32032   0.100E-01    0.178E-01
DAV:   5    -0.112834536624E+04    0.26810E-03   -0.76185E-04 31336   0.863E-02    0.639E-02
DAV:   6    -0.112834537667E+04   -0.10438E-04   -0.36890E-04 29704   0.474E-02    0.456E-02
DAV:   7    -0.112834539543E+04   -0.18757E-04   -0.89800E-05 28392   0.223E-02    0.306E-02
DAV:   8    -0.112834540415E+04   -0.87221E-05   -0.86041E-06 16640   0.863E-03
  13 F= -.11283454E+04 E0= -.11283454E+04  d E =0.846846E-02  mag=    65.0000
       N       E                     dE             d eps       ncg     rms          rms(c)
DAV:   1    -0.112833141330E+04    0.13982E-01   -0.22255E+00 30160   0.477E+00    0.874E-01
DAV:   2    -0.112835479212E+04   -0.23379E-01   -0.25399E-01 28808   0.927E-01    0.408E-01
DAV:   3    -0.112835492783E+04   -0.13572E-03   -0.81248E-03 29680   0.210E-01    0.219E-01
DAV:   4    -0.112835462009E+04    0.30775E-03   -0.81939E-04 31800   0.712E-02    0.125E-01
DAV:   5    -0.112835455477E+04    0.65316E-04   -0.38074E-04 31192   0.616E-02    0.436E-02
DAV:   6    -0.112835454996E+04    0.48104E-05   -0.18177E-04 29232   0.328E-02    0.304E-02
DAV:   7    -0.112835455296E+04   -0.30050E-05   -0.43651E-05 25368   0.154E-02
  14 F= -.11283546E+04 E0= -.11283546E+04  d E =-.914881E-02  mag=    65.0000
       N       E                     dE             d eps       ncg     rms          rms(c)
DAV:   1    -0.112835149512E+04    0.30548E-02   -0.16581E-01 31184   0.140E+00    0.329E-01
DAV:   2    -0.112835400134E+04   -0.25062E-02   -0.25683E-02 28968   0.285E-01    0.149E-01
DAV:   3    -0.112835399748E+04    0.38597E-05   -0.93621E-04 29760   0.708E-02    0.926E-02
DAV:   4    -0.112835397443E+04    0.23043E-04   -0.10512E-04 30264   0.267E-02    0.458E-02
DAV:   5    -0.112835394300E+04    0.31437E-04   -0.48562E-05 28072   0.231E-02    0.161E-02
DAV:   6    -0.112835394498E+04   -0.19839E-05   -0.26830E-05 21944   0.131E-02
  15 F= -.11283539E+04 E0= -.11283539E+04  d E =0.607984E-03  mag=    65.0000
       N       E                     dE             d eps       ncg     rms          rms(c)
DAV:   1    -0.112835406737E+04   -0.12438E-03   -0.56103E-02 29688   0.698E-01    0.172E-01
DAV:   2    -0.112835453573E+04   -0.46836E-03   -0.55645E-03 29712   0.145E-01    0.755E-02
DAV:   3    -0.112835453165E+04    0.40790E-05   -0.21109E-04 29960   0.366E-02    0.512E-02
DAV:   4    -0.112835453378E+04   -0.21265E-05   -0.25045E-05 21312   0.140E-02
  16 F= -.11283545E+04 E0= -.11283545E+04  d E =-.588798E-03  mag=    65.0000
       N       E                     dE             d eps       ncg     rms          rms(c)
DAV:   1    -0.112835404597E+04    0.48569E-03   -0.20762E-02 31440   0.503E-01    0.846E-02
DAV:   2    -0.112835437639E+04   -0.33043E-03   -0.32723E-03 28024   0.952E-02    0.416E-02
DAV:   3    -0.112835437454E+04    0.18592E-05   -0.10221E-04 24784   0.209E-02    0.198E-02
DAV:   4    -0.112835438167E+04   -0.71382E-05   -0.77290E-06 16480   0.686E-03
  17 F= -.11283544E+04 E0= -.11283544E+04  d E =0.152104E-03  mag=    65.0000
       N       E                     dE             d eps       ncg     rms          rms(c)
DAV:   1    -0.112827904481E+04    0.75330E-01   -0.47612E+00 30976   0.732E+00    0.117E+00
DAV:   2    -0.112834779508E+04   -0.68750E-01   -0.70824E-01 27400   0.139E+00    0.586E-01
DAV:   3    -0.112834897926E+04   -0.11842E-02   -0.19706E-02 29168   0.287E-01    0.264E-01
DAV:   4    -0.112834888505E+04    0.94213E-04   -0.12239E-03 32416   0.694E-02    0.175E-01
DAV:   5    -0.112834864339E+04    0.24166E-03   -0.47289E-04 32888   0.757E-02    0.766E-02
DAV:   6    -0.112834865105E+04   -0.76572E-05   -0.25719E-04 30624   0.391E-02    0.300E-02
DAV:   7    -0.112834868253E+04   -0.31481E-04   -0.59219E-05 27520   0.176E-02    0.197E-02
DAV:   8    -0.112834868114E+04    0.13917E-05   -0.47582E-06 14752   0.697E-03
  18 F= -.11283487E+04 E0= -.11283487E+04  d E =0.570054E-02  mag=    65.0000
       N       E                     dE             d eps       ncg     rms          rms(c)
DAV:   1    -0.112831118704E+04    0.37495E-01   -0.22490E+00 30448   0.449E+00    0.110E+00
DAV:   2    -0.112833983195E+04   -0.28645E-01   -0.30357E-01 28728   0.918E-01    0.501E-01
DAV:   3    -0.112833979595E+04    0.36003E-04   -0.10559E-02 29728   0.217E-01    0.321E-01
DAV:   4    -0.112833946680E+04    0.32915E-03   -0.10616E-03 32840   0.881E-02    0.156E-01
DAV:   5    -0.112833917438E+04    0.29242E-03   -0.55929E-04 31624   0.894E-02    0.540E-02
DAV:   6    -0.112833919974E+04   -0.25357E-04   -0.41582E-04 29288   0.487E-02    0.391E-02
DAV:   7    -0.112833920023E+04   -0.49286E-06   -0.10320E-04 28536   0.225E-02    0.276E-02
DAV:   8    -0.112833919219E+04    0.80435E-05   -0.93704E-06 16160   0.895E-03
  19 F= -.11283392E+04 E0= -.11283392E+04  d E =0.948895E-02  mag=    65.0000
       N       E                     dE             d eps       ncg     rms          rms(c)
DAV:   1    -0.112830057743E+04    0.38623E-01   -0.36471E+00 30816   0.624E+00    0.117E+00
DAV:   2    -0.112835188790E+04   -0.51310E-01   -0.53499E-01 27968   0.120E+00    0.558E-01
DAV:   3    -0.112835277917E+04   -0.89127E-03   -0.16454E-02 29296   0.265E-01    0.284E-01
DAV:   4    -0.112835245077E+04    0.32841E-03   -0.12477E-03 32888   0.795E-02    0.166E-01
DAV:   5    -0.112835231231E+04    0.13846E-03   -0.50646E-04 32568   0.794E-02    0.610E-02
DAV:   6    -0.112835228061E+04    0.31695E-04   -0.30423E-04 29656   0.417E-02    0.323E-02
DAV:   7    -0.112835229442E+04   -0.13806E-04   -0.73900E-05 28424   0.184E-02    0.209E-02
DAV:   8    -0.112835229718E+04   -0.27604E-05   -0.59065E-06 15224   0.635E-03
  20 F= -.11283523E+04 E0= -.11283523E+04  d E =-.131050E-01  mag=    65.0000
       N       E                     dE             d eps       ncg     rms          rms(c)
DAV:   1    -0.112834497430E+04    0.73201E-02   -0.21507E-01 33120   0.198E+00    0.406E-01
DAV:   2    -0.112835164064E+04   -0.66663E-02   -0.62511E-02 28056   0.371E-01    0.194E-01
DAV:   3    -0.112835183194E+04   -0.19130E-03   -0.21515E-03 29808   0.902E-02    0.960E-02
DAV:   4    -0.112835182467E+04    0.72716E-05   -0.14309E-04 29968   0.274E-02    0.561E-02
DAV:   5    -0.112835180797E+04    0.16696E-04   -0.47786E-05 28280   0.292E-02    0.211E-02
DAV:   6    -0.112835180468E+04    0.32903E-05   -0.41126E-05 25144   0.175E-02
  21 F= -.11283518E+04 E0= -.11283518E+04  d E =0.492496E-03  mag=    65.0000
       N       E                     dE             d eps       ncg     rms          rms(c)
DAV:   1    -0.112835158275E+04    0.22523E-03   -0.73321E-02 30192   0.809E-01    0.188E-01
DAV:   2    -0.112835229387E+04   -0.71112E-03   -0.78758E-03 29288   0.167E-01    0.862E-02
DAV:   3    -0.112835225636E+04    0.37510E-04   -0.28729E-04 29792   0.408E-02    0.587E-02
DAV:   4    -0.112835225555E+04    0.81077E-06   -0.27900E-05 22568   0.152E-02
  22 F= -.11283523E+04 E0= -.11283523E+04  d E =-.450864E-03  mag=    65.0000
       N       E                     dE             d eps       ncg     rms          rms(c)
DAV:   1    -0.112835137246E+04    0.88390E-03   -0.31727E-02 31968   0.680E-01    0.131E-01
DAV:   2    -0.112835217815E+04   -0.80570E-03   -0.78239E-03 27984   0.127E-01    0.602E-02
DAV:   3    -0.112835218622E+04   -0.80655E-05   -0.25208E-04 29080   0.286E-02    0.283E-02
DAV:   4    -0.112835217919E+04    0.70319E-05   -0.15918E-05 19560   0.998E-03
  23 F= -.11283522E+04 E0= -.11283522E+04  d E =0.763593E-04  mag=    65.0000
