       N       E                     dE             d eps       ncg     rms          rms(c)
DAV:   1     0.442730480638E+04    0.44273E+04   -0.15486E+05  7808   0.148E+03
DAV:   2     0.467429669262E+03   -0.39599E+04   -0.38189E+04  7288   0.438E+02
DAV:   3    -0.291713647491E+03   -0.75914E+03   -0.72314E+03  9997   0.159E+02
DAV:   4    -0.351708877561E+03   -0.59995E+02   -0.59608E+02  9296   0.474E+01
DAV:   5    -0.353244612354E+03   -0.15357E+01   -0.15332E+01  9832   0.900E+00    0.674E+01
RMM:   6    -0.272509806377E+03    0.80735E+02   -0.45550E+02  9331   0.448E+01    0.227E+01
RMM:   7    -0.273495180733E+03   -0.98537E+00   -0.35691E+01  8025   0.125E+01    0.180E+01
RMM:   8    -0.275359049122E+03   -0.18639E+01   -0.14376E+01  7825   0.595E+00    0.623E+00
RMM:   9    -0.276072617163E+03   -0.71357E+00   -0.54777E+00  9309   0.354E+00    0.291E+00
RMM:  10    -0.276020823897E+03    0.51793E-01   -0.11990E+00  8210   0.191E+00    0.333E+00
RMM:  11    -0.276125333457E+03   -0.10451E+00   -0.61710E-01  8688   0.120E+00    0.266E+00
RMM:  12    -0.276213741806E+03   -0.88408E-01   -0.25088E-01  8305   0.714E-01    0.173E+00
RMM:  13    -0.276301023705E+03   -0.87282E-01   -0.31433E-01  8841   0.886E-01    0.106E+00
RMM:  14    -0.276326833868E+03   -0.25810E-01   -0.26031E-01  8825   0.832E-01    0.676E-01
RMM:  15    -0.276334042600E+03   -0.72087E-02   -0.55732E-02  8128   0.387E-01    0.449E-01
RMM:  16    -0.276332939173E+03    0.11034E-02   -0.20823E-02  8028   0.297E-01    0.314E-01
RMM:  17    -0.276335456248E+03   -0.25171E-02   -0.66262E-03  8580   0.131E-01    0.187E-01
RMM:  18    -0.276336275426E+03   -0.81918E-03   -0.54631E-03  8494   0.961E-02    0.764E-02
RMM:  19    -0.276336560248E+03   -0.28482E-03   -0.20576E-03  9081   0.608E-02    0.445E-02
RMM:  20    -0.276336653368E+03   -0.93120E-04   -0.71563E-04  8610   0.320E-02    0.246E-02
RMM:  21    -0.276336698752E+03   -0.45384E-04   -0.30090E-04  6943   0.190E-02    0.180E-02
RMM:  22    -0.276336714432E+03   -0.15680E-04   -0.95079E-05  5101   0.118E-02    0.142E-02
RMM:  23    -0.276336728588E+03   -0.14156E-04   -0.90611E-05  4953   0.958E-03    0.114E-02
RMM:  24    -0.276336737563E+03   -0.89750E-05   -0.45309E-05  4763   0.764E-03
   1 F= -.27633674E+03 E0= -.27633123E+03  d E =-.276337E+03  mag=     1.0585
       N       E                     dE             d eps       ncg     rms          rms(c)
DAV:   1    -0.276337161712E+03   -0.43312E-03   -0.29701E-02  8280   0.682E-01    0.222E-01
RMM:   2    -0.276336866231E+03    0.29548E-03   -0.44176E-03  7859   0.210E-01    0.798E-02
RMM:   3    -0.276336830041E+03    0.36189E-04   -0.10651E-03  7732   0.874E-02    0.493E-02
RMM:   4    -0.276336830893E+03   -0.85176E-06   -0.38659E-04  8270   0.485E-02    0.281E-02
RMM:   5    -0.276336840002E+03   -0.91086E-05   -0.90750E-05  6739   0.212E-02
   2 F= -.27633684E+03 E0= -.27633131E+03  d E =-.102439E-03  mag=     1.0587
       N       E                     dE             d eps       ncg     rms          rms(c)
DAV:   1    -0.276336857734E+03   -0.26841E-04   -0.66389E-04  8842   0.100E-01    0.433E-02
RMM:   2    -0.276336855375E+03    0.23592E-05   -0.10638E-04  7533   0.320E-02    0.216E-02
RMM:   3    -0.276336859480E+03   -0.41055E-05   -0.28556E-05  4907   0.133E-02    0.130E-02
RMM:   4    -0.276336861954E+03   -0.24736E-05   -0.13325E-05  4520   0.930E-03
   3 F= -.27633686E+03 E0= -.27633133E+03  d E =-.124391E-03  mag=     1.0585
       N       E                     dE             d eps       ncg     rms          rms(c)
DAV:   1    -0.276336679353E+03    0.18013E-03   -0.13462E-02  8304   0.508E-01    0.608E-02
RMM:   2    -0.276336856272E+03   -0.17692E-03   -0.19445E-03  7911   0.142E-01    0.330E-02
RMM:   3    -0.276336915672E+03   -0.59401E-04   -0.55160E-04  9557   0.614E-02    0.212E-02
RMM:   4    -0.276336926260E+03   -0.10587E-04   -0.11935E-04  6039   0.259E-02    0.196E-02
RMM:   5    -0.276336925836E+03    0.42426E-06   -0.11699E-05  4491   0.102E-02
   4 F= -.27633693E+03 E0= -.27633139E+03  d E =-.638818E-04  mag=     1.0585
